
     Program PWSCF v.6.2 (svn rev. 14038) starts on 13Sep2019 at 17:31:53 

     This program is part of the open-source Quantum ESPRESSO suite
     for quantum simulation of materials; please cite
         "P. Giannozzi et al., J. Phys.:Condens. Matter 21 395502 (2009);
         "P. Giannozzi et al., J. Phys.:Condens. Matter 29 465901 (2017);
          URL http://www.quantum-espresso.org", 
     in publications or presentations arising from this work. More details at
     http://www.quantum-espresso.org/quote

     Parallel version (MPI), running on    40 processors

     MPI processes distributed on    10 nodes
     K-points division:     npool     =      40
     Reading input from scf.in

     Current dimensions of program PWSCF are:
     Max number of different atomic species (ntypx) = 10
     Max number of k-points (npk) =  40000
     Max angular momentum in pseudopotentials (lmaxx) =  3

     Subspace diagonalization in iterative solution of the eigenvalue problem:
     a serial algorithm will be used

 
     G-vector sticks info
     --------------------
     sticks:   dense  smooth     PW     G-vecs:    dense   smooth      PW
     Sum        7507    7507   2009               485083   485083   67379
 


     bravais-lattice index     =            0
     lattice parameter (alat)  =      13.9104  a.u.
     unit-cell volume          =    2732.2478 (a.u.)^3
     number of atoms/cell      =           32
     number of atomic types    =            2
     number of electrons       =       368.20
     number of Kohn-Sham states=          221
     kinetic-energy cutoff     =     120.0000  Ry
     charge density cutoff     =     480.0000  Ry
     convergence threshold     =      1.0E-08
     mixing beta               =       0.7000
     number of iterations used =            8  plain     mixing
     Exchange-correlation      = SLA PW NOGX NOGC ( 1  4  0  0 0 0)

     celldm(1)=  13.910375  celldm(2)=   0.000000  celldm(3)=   0.000000
     celldm(4)=   0.000000  celldm(5)=   0.000000  celldm(6)=   0.000000

     crystal axes: (cart. coord. in units of alat)
               a(1) = (   1.000000   0.000000   0.000000 )  
               a(2) = (   0.000000   1.015088   0.000000 )  
               a(3) = (   0.000000   0.000000   1.000000 )  

     reciprocal axes: (cart. coord. in units 2 pi/alat)
               b(1) = (  1.000000  0.000000  0.000000 )  
               b(2) = (  0.000000  0.985137  0.000000 )  
               b(3) = (  0.000000  0.000000  1.000000 )  


     PseudoPot. # 1 for W  read from file:
     /cluster/scratch/mnoe/QE/pps/W_ONCV_LDA-4.0.upf
     MD5 check sum: ba0307d5d4cd419d6f1d13dc49d7c13a
     Pseudo is Norm-conserving + core correction, Zval = 28.0
     Generated using ONCVPSP code by D. R. Hamann
     Using radial grid of 1380 points,  8 beta functions with: 
                l(1) =   0
                l(2) =   0
                l(3) =   1
                l(4) =   1
                l(5) =   2
                l(6) =   2
                l(7) =   3
                l(8) =   3

     PseudoPot. # 2 for O  read from file:
     /cluster/scratch/mnoe/QE/pps/O_ONCV_LDA-3.0.upf
     MD5 check sum: ca1549d10c4e927e51167f6fca52ae32
     Pseudo is Norm-conserving + core correction, Zval =  6.0
     Generated using ONCVPSP code by D. R. Hamann
     Using radial grid of  926 points,  5 beta functions with: 
                l(1) =   0
                l(2) =   0
                l(3) =   1
                l(4) =   1
                l(5) =   2

     atomic species   valence    mass     pseudopotential
        W             28.00   183.84000     W ( 1.00)
        O              6.00    15.99940     O ( 1.00)

      8 Sym. Ops. (no inversion) found ( 4 have fractional translation)



   Cartesian axes

     site n.     atom                  positions (alat units)
         1           W   tau(   1) = (   0.2850800   0.2861126   0.2510000  )
         2           W   tau(   2) = (  -0.2510000   0.7289750  -0.7149199  )
         3           W   tau(   3) = (   0.2149200   0.2214312   0.7510000  )
         4           W   tau(   4) = (   0.7510000   0.7936564   0.7850800  )
         5           W   tau(   5) = (   0.7149200   0.2861126   0.7490000  )
         6           W   tau(   6) = (   0.2510000   0.7289750   0.7149200  )
         7           W   tau(   7) = (  -0.2149199   0.2214312  -0.7510000  )
         8           W   tau(   8) = (   0.2490000   0.7936564   0.2149200  )
         9           O   tau(   9) = (   0.2885700   0.0084455   0.2779700  )
        10           O   tau(  10) = (  -0.2779701   1.0066421  -0.7114300  )
        11           O   tau(  11) = (   0.2114300   0.4990983   0.7779700  )
        12           O   tau(  12) = (   0.7779700   0.5159893   0.7885700  )
        13           O   tau(  13) = (   0.7114300   0.0084455   0.7220300  )
        14           O   tau(  14) = (   0.2779700   1.0066421   0.7114300  )
        15           O   tau(  15) = (  -0.2114300   0.4990983  -0.7779701  )
        16           O   tau(  16) = (   0.2220300   0.5159893   0.2114300  )
        17           O   tau(  17) = (   0.4875899   0.2959793   0.6995400  )
        18           O   tau(  18) = (   0.4974500   0.7342331   0.8004600  )
        19           O   tau(  19) = (  -0.9875900   0.2115646   1.1995400  )
        20           O   tau(  20) = (   0.0025500   0.7883982   0.3004600  )
        21           O   tau(  21) = (   0.5124101   0.2959793   0.3004600  )
        22           O   tau(  22) = (   0.5025500   0.7342331   1.1995400  )
        23           O   tau(  23) = (  -0.0124100   0.2115646   0.8004600  )
        24           O   tau(  24) = (  -1.0025500   0.7883982   0.6995400  )
        25           O   tau(  25) = (   0.6995400   0.2266894   2.0025500  )
        26           O   tau(  26) = (   0.3004600   0.7191084   0.4875900  )
        27           O   tau(  27) = (   0.8004600   0.2808545   0.5025500  )
        28           O   tau(  28) = (   0.1995400   0.8035230   1.9875899  )
        29           O   tau(  29) = (   0.3004600   0.2266894   0.9974500  )
        30           O   tau(  30) = (   0.6995400   0.7191084   0.5124100  )
        31           O   tau(  31) = (   0.1995400   0.2808545   0.4974500  )
        32           O   tau(  32) = (   0.8004600   0.8035230   1.0124101  )

     number of k points=    40  gaussian smearing, width (Ry)=  0.0007
                       cart. coord. in units 2pi/alat
        k(    1) = (   0.0000000   0.0000000   0.0000000), wk =   0.0092593
        k(    2) = (   0.0000000   0.0000000   0.1666667), wk =   0.0370370
        k(    3) = (   0.0000000   0.0000000   0.3333333), wk =   0.0370370
        k(    4) = (   0.0000000   0.0000000  -0.5000000), wk =   0.0185185
        k(    5) = (   0.0000000   0.1641894   0.0000000), wk =   0.0185185
        k(    6) = (   0.0000000   0.1641894   0.1666667), wk =   0.0740741
        k(    7) = (   0.0000000   0.1641894   0.3333333), wk =   0.0740741
        k(    8) = (   0.0000000   0.1641894  -0.5000000), wk =   0.0370370
        k(    9) = (   0.0000000   0.3283789   0.0000000), wk =   0.0185185
        k(   10) = (   0.0000000   0.3283789   0.1666667), wk =   0.0740741
        k(   11) = (   0.0000000   0.3283789   0.3333333), wk =   0.0740741
        k(   12) = (   0.0000000   0.3283789  -0.5000000), wk =   0.0370370
        k(   13) = (   0.0000000  -0.4925683   0.0000000), wk =   0.0092593
        k(   14) = (   0.0000000  -0.4925683   0.1666667), wk =   0.0370370
        k(   15) = (   0.0000000  -0.4925683   0.3333333), wk =   0.0370370
        k(   16) = (   0.0000000  -0.4925683  -0.5000000), wk =   0.0185185
        k(   17) = (   0.1666667   0.0000000   0.1666667), wk =   0.0370370
        k(   18) = (   0.1666667   0.0000000   0.3333333), wk =   0.0740741
        k(   19) = (   0.1666667   0.0000000  -0.5000000), wk =   0.0370370
        k(   20) = (   0.1666667   0.1641894   0.1666667), wk =   0.0740741
        k(   21) = (   0.1666667   0.1641894   0.3333333), wk =   0.1481481
        k(   22) = (   0.1666667   0.1641894  -0.5000000), wk =   0.0740741
        k(   23) = (   0.1666667   0.3283789   0.1666667), wk =   0.0740741
        k(   24) = (   0.1666667   0.3283789   0.3333333), wk =   0.1481481
        k(   25) = (   0.1666667   0.3283789  -0.5000000), wk =   0.0740741
        k(   26) = (   0.1666667  -0.4925683   0.1666667), wk =   0.0370370
        k(   27) = (   0.1666667  -0.4925683   0.3333333), wk =   0.0740741
        k(   28) = (   0.1666667  -0.4925683  -0.5000000), wk =   0.0370370
        k(   29) = (   0.3333333   0.0000000   0.3333333), wk =   0.0370370
        k(   30) = (   0.3333333   0.0000000  -0.5000000), wk =   0.0370370
        k(   31) = (   0.3333333   0.1641894   0.3333333), wk =   0.0740741
        k(   32) = (   0.3333333   0.1641894  -0.5000000), wk =   0.0740741
        k(   33) = (   0.3333333   0.3283789   0.3333333), wk =   0.0740741
        k(   34) = (   0.3333333   0.3283789  -0.5000000), wk =   0.0740741
        k(   35) = (   0.3333333  -0.4925683   0.3333333), wk =   0.0370370
        k(   36) = (   0.3333333  -0.4925683  -0.5000000), wk =   0.0370370
        k(   37) = (  -0.5000000   0.0000000  -0.5000000), wk =   0.0092593
        k(   38) = (  -0.5000000   0.1641894  -0.5000000), wk =   0.0185185
        k(   39) = (  -0.5000000   0.3283789  -0.5000000), wk =   0.0185185
        k(   40) = (  -0.5000000  -0.4925683  -0.5000000), wk =   0.0092593

     Dense  grid:   485083 G-vectors     FFT dimensions: ( 100, 100, 100)

     Estimated max dynamical RAM per process >       2.64 GB

     Estimated total dynamical RAM >     105.78 GB

     Initial potential from superposition of free atoms

     starting charge  367.99656, renormalised to  368.20000
     Starting wfc are  232 randomized atomic wfcs

     total cpu time spent up to now is       21.7 secs

     Self-consistent Calculation

     iteration #  1     ecut=   120.00 Ry     beta= 0.70
     Davidson diagonalization with overlap
     ethr =  1.00E-02,  avg # of iterations =  4.2

     total cpu time spent up to now is       91.6 secs

     total energy              =   -6253.77959565 Ry
     Harris-Foulkes estimate   =   -6264.33297274 Ry
     estimated scf accuracy    <      13.34656974 Ry

     iteration #  2     ecut=   120.00 Ry     beta= 0.70
     Davidson diagonalization with overlap
     ethr =  3.62E-03,  avg # of iterations =  3.5

     total cpu time spent up to now is      158.1 secs

     total energy              =   -6250.44127938 Ry
     Harris-Foulkes estimate   =   -6270.48571048 Ry
     estimated scf accuracy    <      54.01335093 Ry

     iteration #  3     ecut=   120.00 Ry     beta= 0.70
     Davidson diagonalization with overlap
     ethr =  3.62E-03,  avg # of iterations =  3.1

     total cpu time spent up to now is      222.6 secs

     total energy              =   -6260.85969777 Ry
     Harris-Foulkes estimate   =   -6261.14018962 Ry
     estimated scf accuracy    <       0.91190085 Ry

     iteration #  4     ecut=   120.00 Ry     beta= 0.70
     Davidson diagonalization with overlap
     ethr =  2.48E-04,  avg # of iterations =  2.3

     total cpu time spent up to now is      272.5 secs

     total energy              =   -6260.86026617 Ry
     Harris-Foulkes estimate   =   -6260.93044629 Ry
     estimated scf accuracy    <       0.22189970 Ry

     iteration #  5     ecut=   120.00 Ry     beta= 0.70
     Davidson diagonalization with overlap
     ethr =  6.03E-05,  avg # of iterations =  5.5

     total cpu time spent up to now is      327.2 secs

     total energy              =   -6260.86069931 Ry
     Harris-Foulkes estimate   =   -6260.89303074 Ry
     estimated scf accuracy    <       0.07069202 Ry

     iteration #  6     ecut=   120.00 Ry     beta= 0.70
     Davidson diagonalization with overlap
     ethr =  1.92E-05,  avg # of iterations =  4.6

     total cpu time spent up to now is      386.5 secs

     total energy              =   -6260.87674531 Ry
     Harris-Foulkes estimate   =   -6260.87915033 Ry
     estimated scf accuracy    <       0.00666316 Ry

     iteration #  7     ecut=   120.00 Ry     beta= 0.70
     Davidson diagonalization with overlap
     ethr =  1.81E-06,  avg # of iterations =  3.5

     total cpu time spent up to now is      438.2 secs

     total energy              =   -6260.87748368 Ry
     Harris-Foulkes estimate   =   -6260.87761768 Ry
     estimated scf accuracy    <       0.00027377 Ry

     iteration #  8     ecut=   120.00 Ry     beta= 0.70
     Davidson diagonalization with overlap
     ethr =  7.44E-08,  avg # of iterations =  3.0

     total cpu time spent up to now is      502.3 secs

     total energy              =   -6260.87756674 Ry
     Harris-Foulkes estimate   =   -6260.87757640 Ry
     estimated scf accuracy    <       0.00002903 Ry

     iteration #  9     ecut=   120.00 Ry     beta= 0.70
     Davidson diagonalization with overlap
     ethr =  7.88E-09,  avg # of iterations =  2.3

     total cpu time spent up to now is      558.3 secs

     total energy              =   -6260.87756865 Ry
     Harris-Foulkes estimate   =   -6260.87757362 Ry
     estimated scf accuracy    <       0.00001778 Ry

     iteration # 10     ecut=   120.00 Ry     beta= 0.70
     Davidson diagonalization with overlap
     ethr =  4.83E-09,  avg # of iterations =  2.0

     total cpu time spent up to now is      607.2 secs

     total energy              =   -6260.87756892 Ry
     Harris-Foulkes estimate   =   -6260.87757041 Ry
     estimated scf accuracy    <       0.00000345 Ry

     iteration # 11     ecut=   120.00 Ry     beta= 0.70
     Davidson diagonalization with overlap
     ethr =  9.38E-10,  avg # of iterations =  3.0

     total cpu time spent up to now is      660.8 secs

     total energy              =   -6260.87756965 Ry
     Harris-Foulkes estimate   =   -6260.87756969 Ry
     estimated scf accuracy    <       0.00000008 Ry

     iteration # 12     ecut=   120.00 Ry     beta= 0.70
     Davidson diagonalization with overlap
     ethr =  2.10E-11,  avg # of iterations =  2.0

     total cpu time spent up to now is      720.4 secs

     End of self-consistent calculation

          k = 0.0000 0.0000 0.0000 ( 60685 PWs)   bands (ev):

   -65.6473 -65.6465 -65.6464 -65.6464 -65.6456 -65.6456 -65.6455 -65.6447
   -30.1935 -30.1907 -30.1878 -30.1878 -30.1087 -30.1087 -30.1074 -30.1013
   -30.0070 -30.0007 -30.0006 -29.9945 -29.9263 -29.9230 -29.9230 -29.9192
   -29.9103 -29.9082 -29.9008 -29.9008 -29.8294 -29.8294 -29.8249 -29.8230
   -19.7968 -19.7966 -19.7965 -19.7965 -19.7958 -19.7958 -19.7956 -19.7954
   -19.7861 -19.7861 -19.7860 -19.7857 -19.7849 -19.7846 -19.7844 -19.7844
   -19.7792 -19.7791 -19.7788 -19.7788 -19.7749 -19.7749 -19.7747 -19.7746
   -19.7629 -19.7625 -19.7625 -19.7620 -19.7598 -19.7595 -19.7595 -19.7591
   -19.7577 -19.7576 -19.7576 -19.7571 -19.7562 -19.7557 -19.7557 -19.7553
   -19.7522 -19.7519 -19.7514 -19.7514 -19.7482 -19.7482 -19.7480 -19.7475
   -19.7435 -19.7430 -19.7428 -19.7428 -19.7410 -19.7409 -19.7407 -19.7402
    -9.5491  -9.1978  -9.1318  -9.1318  -8.6474  -8.6474  -8.6329  -8.5120
    -8.3345  -8.2455  -8.2455  -8.2408  -7.7216  -7.6497  -7.5345  -7.5345
    -7.3539  -7.2811  -7.2811  -7.2251  -7.2081  -7.1894  -7.0644  -7.0644
     1.7847   1.8442   1.8615   1.8615   2.0402   2.0555   2.0796   2.0796
     2.2735   2.2735   2.3861   2.5515   2.7611   2.8451   2.9426   3.0957
     3.1057   3.1057   4.6122   4.6122   4.8201   5.0191   5.0195   5.0206
     5.0206   5.1493   5.1761   5.1762   5.5492   5.5837   5.5837   5.7286
     5.7533   5.8387   5.8487   5.8487   6.1112   6.1112   6.1297   6.1578
     6.1750   6.1750   6.1939   6.3134   6.3302   6.3302   6.4745   6.4851
     6.6438   6.7297   6.8130   6.8130   6.9995   7.0718   7.2321   7.2321
     7.2573   7.3996   7.4181   7.4181   7.4213   7.5743   7.5743   7.6319
     7.9222   7.9222   8.0478   8.1163   8.2340   8.3678   8.3678   8.5523
    10.4325  10.6236  10.7337  10.7337  10.7853  10.8621  12.4952  12.5580
    12.5580  12.7612  12.7612  12.8464  13.0894  13.3250  13.3250  13.4369
    13.5347  13.6351  13.6554  13.6554  14.0922  14.0922  14.1117  14.3855
    15.1495  15.3138  15.3138  15.3559  15.6828  16.1227  16.2737  16.2872
    16.2873  17.0375  17.2952  17.2952  18.1452

          k = 0.0000 0.0000 0.1667 ( 60691 PWs)   bands (ev):

   -65.6472 -65.6464 -65.6464 -65.6463 -65.6456 -65.6455 -65.6455 -65.6448
   -30.1922 -30.1881 -30.1861 -30.1822 -30.1142 -30.1112 -30.1084 -30.1033
   -30.0067 -30.0012 -30.0004 -29.9950 -29.9262 -29.9232 -29.9229 -29.9196
   -29.9089 -29.9034 -29.9014 -29.8956 -29.8347 -29.8293 -29.8291 -29.8242
   -19.7968 -19.7965 -19.7965 -19.7964 -19.7958 -19.7958 -19.7957 -19.7954
   -19.7861 -19.7860 -19.7859 -19.7857 -19.7850 -19.7847 -19.7845 -19.7844
   -19.7791 -19.7789 -19.7788 -19.7785 -19.7752 -19.7750 -19.7749 -19.7746
   -19.7629 -19.7625 -19.7624 -19.7620 -19.7597 -19.7595 -19.7594 -19.7591
   -19.7578 -19.7577 -19.7576 -19.7572 -19.7562 -19.7557 -19.7557 -19.7553
   -19.7521 -19.7516 -19.7515 -19.7511 -19.7484 -19.7481 -19.7481 -19.7476
   -19.7434 -19.7429 -19.7428 -19.7427 -19.7411 -19.7409 -19.7408 -19.7403
    -9.5065  -9.1498  -9.1485  -9.0712  -8.6656  -8.6454  -8.6000  -8.4965
    -8.3046  -8.2576  -8.2090  -8.1960  -7.7842  -7.6684  -7.6326  -7.5423
    -7.3537  -7.3057  -7.2866  -7.2735  -7.2298  -7.1882  -7.1646  -7.0727
     1.8140   1.8532   1.9841   2.0192   2.0539   2.0761   2.0839   2.1639
     2.2777   2.4609   2.5002   2.6851   2.8226   2.9070   3.0292   3.0959
     3.1463   3.1979   4.4787   4.6019   4.6352   4.7422   4.7961   4.9796
     5.0371   5.0935   5.1364   5.1780   5.3272   5.5414   5.6414   5.6596
     5.7360   5.8197   5.8585   5.9033   6.0057   6.0203   6.0703   6.0892
     6.1657   6.1693   6.2094   6.2384   6.3046   6.3140   6.4066   6.5568
     6.6386   6.7731   6.7797   6.9016   7.0553   7.1157   7.1704   7.2318
     7.2604   7.3190   7.3334   7.4109   7.4661   7.5657   7.5711   7.6488
     7.7909   7.8248   8.0767   8.1351   8.2310   8.3455   8.3829   8.5471
    10.5505  10.7296  10.7519  10.8636  11.0045  11.1034  12.5212  12.5377
    12.5875  12.6910  12.8166  12.9013  13.1182  13.2298  13.3443  13.4524
    13.5629  13.5978  13.6637  13.6731  14.0089  14.0976  14.1765  14.3217
    15.1522  15.3027  15.3767  15.4202  15.7006  16.1764  16.1938  16.2836
    16.4669  17.1286  17.1787  17.4422  18.1918

          k = 0.0000 0.0000 0.3333 ( 60666 PWs)   bands (ev):

   -65.6470 -65.6466 -65.6463 -65.6461 -65.6458 -65.6457 -65.6454 -65.6449
   -30.1911 -30.1889 -30.1709 -30.1668 -30.1292 -30.1254 -30.1075 -30.1050
   -30.0057 -30.0026 -29.9994 -29.9964 -29.9257 -29.9239 -29.9224 -29.9204
   -29.9073 -29.9031 -29.8888 -29.8816 -29.8492 -29.8433 -29.8281 -29.8254
   -19.7967 -19.7966 -19.7964 -19.7962 -19.7960 -19.7958 -19.7957 -19.7955
   -19.7861 -19.7860 -19.7858 -19.7854 -19.7851 -19.7847 -19.7846 -19.7845
   -19.7790 -19.7789 -19.7782 -19.7778 -19.7761 -19.7758 -19.7748 -19.7747
   -19.7628 -19.7626 -19.7624 -19.7621 -19.7596 -19.7595 -19.7591 -19.7588
   -19.7582 -19.7580 -19.7575 -19.7573 -19.7560 -19.7558 -19.7556 -19.7554
   -19.7519 -19.7516 -19.7509 -19.7504 -19.7490 -19.7486 -19.7480 -19.7478
   -19.7432 -19.7429 -19.7427 -19.7423 -19.7416 -19.7412 -19.7408 -19.7405
    -9.4034  -9.2034  -9.0137  -8.9218  -8.7265  -8.6871  -8.4664  -8.4467
    -8.2950  -8.2443  -8.0739  -8.0394  -7.9949  -7.8853  -7.6650  -7.5622
    -7.5412  -7.4181  -7.3381  -7.3017  -7.2744  -7.2426  -7.1627  -7.0960
     1.8225   1.8379   2.0522   2.0524   2.0682   2.0715   2.2713   2.2891
     2.7047   2.9133   2.9191   3.0176   3.0930   3.1155   3.2163   3.2726
     3.3376   3.4394   4.0681   4.1809   4.3362   4.3737   4.3841   4.7400
     4.8598   4.8930   5.0564   5.0768   5.1580   5.1801   5.4152   5.4743
     5.6866   5.6924   5.6933   5.8330   5.8908   5.9089   6.0054   6.1128
     6.1196   6.2202   6.2464   6.2863   6.3028   6.3712   6.4108   6.6209
     6.6391   6.6803   6.7851   6.9120   6.9591   7.0183   7.1491   7.1555
     7.2342   7.3761   7.4026   7.4792   7.5290   7.5752   7.6094   7.6741
     7.7736   7.8485   8.0442   8.1273   8.1883   8.2599   8.4225   8.5152
    10.6402  10.7130  11.1732  11.3471  11.4480  11.7151  12.2676  12.3461
    12.5529  12.6642  12.7743  12.9767  12.9893  13.2023  13.3644  13.3975
    13.5257  13.5888  13.6565  13.7450  13.9564  14.0953  14.1177  14.2364
    15.1897  15.2713  15.5199  15.6437  16.0057  16.0184  16.1842  16.3947
    16.7786  17.0512  17.6311  17.6886  17.9011

          k = 0.0000 0.0000-0.5000 ( 60612 PWs)   bands (ev):

   -65.6468 -65.6468 -65.6460 -65.6460 -65.6459 -65.6459 -65.6451 -65.6451
   -30.1900 -30.1900 -30.1500 -30.1500 -30.1460 -30.1460 -30.1063 -30.1063
   -30.0042 -30.0042 -29.9980 -29.9980 -29.9249 -29.9249 -29.9214 -29.9214
   -29.9053 -29.9053 -29.8690 -29.8690 -29.8624 -29.8624 -29.8268 -29.8268
   -19.7966 -19.7966 -19.7962 -19.7962 -19.7960 -19.7960 -19.7956 -19.7956
   -19.7860 -19.7860 -19.7854 -19.7854 -19.7851 -19.7851 -19.7846 -19.7846
   -19.7789 -19.7789 -19.7772 -19.7771 -19.7768 -19.7768 -19.7748 -19.7748
   -19.7627 -19.7627 -19.7623 -19.7622 -19.7596 -19.7596 -19.7586 -19.7586
   -19.7585 -19.7584 -19.7575 -19.7574 -19.7559 -19.7559 -19.7555 -19.7555
   -19.7518 -19.7518 -19.7499 -19.7499 -19.7494 -19.7494 -19.7479 -19.7479
   -19.7431 -19.7430 -19.7422 -19.7422 -19.7418 -19.7418 -19.7406 -19.7406
    -9.2911  -9.2910  -8.8475  -8.8474  -8.7744  -8.7744  -8.3648  -8.3648
    -8.2467  -8.2467  -8.1322  -8.1322  -7.8324  -7.8323  -7.7878  -7.7878
    -7.5761  -7.5761  -7.3217  -7.3217  -7.2596  -7.2596  -7.1287  -7.1287
     1.8276   1.8276   2.0537   2.0537   2.0709   2.0709   2.2989   2.2989
     2.9841   2.9841   3.3684   3.3684   3.5000   3.5000   3.6001   3.6002
     3.6616   3.6616   3.7828   3.7828   3.9891   3.9891   4.1357   4.1358
     4.3722   4.3722   4.9866   4.9866   5.0923   5.0923   5.5320   5.5320
     5.5948   5.5948   5.7217   5.7217   5.8544   5.8545   6.0751   6.0751
     6.1636   6.1636   6.2961   6.2961   6.3271   6.3271   6.5322   6.5322
     6.6946   6.6946   6.7892   6.7892   6.9526   6.9526   7.0903   7.0903
     7.3321   7.3321   7.4068   7.4068   7.4931   7.4931   7.8772   7.8772
     7.9541   7.9542   8.0343   8.0344   8.0953   8.0953   8.4658   8.4658
    10.6824  10.6825  11.7451  11.7451  11.9220  11.9220  12.0230  12.0230
    12.3891  12.3891  12.7558  12.7558  13.2180  13.2180  13.3580  13.3580
    13.4735  13.4735  13.8028  13.8028  13.9124  13.9124  14.1621  14.1621
    15.2284  15.2284  15.7592  15.7592  15.9546  15.9547  16.4424  16.4424
    16.9474  16.9474  17.9103  17.9103  18.3358

          k = 0.0000 0.1642 0.0000 ( 60701 PWs)   bands (ev):

   -65.6472 -65.6465 -65.6463 -65.6463 -65.6456 -65.6456 -65.6454 -65.6447
   -30.1933 -30.1908 -30.1878 -30.1878 -30.1085 -30.1085 -30.1068 -30.1016
   -30.0016 -29.9956 -29.9956 -29.9897 -29.9318 -29.9283 -29.9282 -29.9245
   -29.9101 -29.9083 -29.9008 -29.9008 -29.8294 -29.8294 -29.8248 -29.8232
   -19.7968 -19.7966 -19.7965 -19.7965 -19.7958 -19.7958 -19.7956 -19.7954
   -19.7861 -19.7861 -19.7860 -19.7858 -19.7849 -19.7846 -19.7844 -19.7844
   -19.7792 -19.7791 -19.7788 -19.7788 -19.7749 -19.7749 -19.7747 -19.7746
   -19.7625 -19.7621 -19.7621 -19.7616 -19.7598 -19.7595 -19.7595 -19.7591
   -19.7577 -19.7576 -19.7576 -19.7571 -19.7566 -19.7561 -19.7560 -19.7557
   -19.7522 -19.7519 -19.7514 -19.7514 -19.7482 -19.7482 -19.7479 -19.7475
   -19.7435 -19.7430 -19.7428 -19.7428 -19.7410 -19.7410 -19.7406 -19.7402
    -9.5145  -9.2127  -9.1011  -9.1011  -8.6262  -8.6262  -8.5552  -8.4777
    -8.3349  -8.2299  -8.2282  -8.2282  -7.7276  -7.6507  -7.5440  -7.5440
    -7.4428  -7.3739  -7.3739  -7.3371  -7.2073  -7.1912  -7.0648  -7.0648
     1.7994   1.8387   1.8688   1.8688   2.1688   2.1796   2.1796   2.2604
     2.3799   2.3799   2.3864   2.6317   2.7918   2.9016   2.9321   3.1918
     3.1918   3.1996   4.4965   4.4965   4.6248   4.6915   4.8540   4.9966
     4.9966   5.1846   5.1846   5.2431   5.4589   5.4589   5.5417   5.7507
     5.7625   5.7927   5.7927   5.8531   5.9848   5.9849   6.0197   6.1033
     6.1911   6.1911   6.2002   6.2801   6.2801   6.3334   6.4808   6.5173
     6.6357   6.7320   6.9361   6.9361   6.9894   7.0099   7.2226   7.2226
     7.2711   7.4053   7.4053   7.4186   7.4551   7.5454   7.5644   7.5644
     7.9186   7.9186   8.0466   8.1092   8.2438   8.3666   8.3666   8.4914
    10.5066  10.6362  10.8831  10.8831  10.9342  10.9830  12.5054  12.5607
    12.5607  12.7579  12.7579  12.8458  12.9583  13.2940  13.2940  13.3972
    13.4321  13.6018  13.6018  13.6669  14.0713  14.0713  14.1591  14.3161
    15.1828  15.3832  15.3832  15.5469  15.6618  16.0867  16.3013  16.3014
    16.6297  16.8755  17.4323  17.4323  18.1281

          k = 0.0000 0.1642 0.1667 ( 60677 PWs)   bands (ev):

   -65.6472 -65.6465 -65.6464 -65.6463 -65.6457 -65.6456 -65.6455 -65.6448
   -30.1920 -30.1881 -30.1861 -30.1821 -30.1140 -30.1108 -30.1082 -30.1035
   -30.0013 -29.9961 -29.9953 -29.9902 -29.9316 -29.9285 -29.9282 -29.9248
   -29.9088 -29.9035 -29.9015 -29.8956 -29.8347 -29.8293 -29.8291 -29.8242
   -19.7968 -19.7966 -19.7965 -19.7964 -19.7958 -19.7958 -19.7956 -19.7954
   -19.7861 -19.7860 -19.7859 -19.7857 -19.7849 -19.7847 -19.7845 -19.7844
   -19.7791 -19.7789 -19.7788 -19.7785 -19.7752 -19.7750 -19.7749 -19.7747
   -19.7625 -19.7621 -19.7620 -19.7616 -19.7597 -19.7595 -19.7594 -19.7591
   -19.7578 -19.7577 -19.7576 -19.7572 -19.7566 -19.7561 -19.7560 -19.7558
   -19.7520 -19.7517 -19.7515 -19.7511 -19.7484 -19.7481 -19.7481 -19.7476
   -19.7434 -19.7430 -19.7428 -19.7427 -19.7412 -19.7409 -19.7408 -19.7403
    -9.4711  -9.1631  -9.1185  -9.0363  -8.6463  -8.5797  -8.5667  -8.4615
    -8.3047  -8.2389  -8.2004  -8.1837  -7.7868  -7.6716  -7.6363  -7.5513
    -7.4438  -7.3870  -7.3807  -7.3418  -7.2910  -7.1889  -7.1632  -7.0732
     1.8254   1.8610   2.0214   2.0626   2.1829   2.1945   2.2699   2.2835
     2.3842   2.4860   2.5191   2.7262   2.8692   2.9525   3.0184   3.1803
     3.2506   3.2812   4.4184   4.4946   4.5952   4.6200   4.7579   4.7928
     4.8597   5.0264   5.1312   5.1649   5.2583   5.4578   5.5921   5.6068
     5.6770   5.7623   5.8236   5.9208   5.9290   5.9681   5.9972   6.0295
     6.0920   6.1345   6.1740   6.1856   6.2777   6.2948   6.4184   6.5112
     6.7004   6.7703   6.9133   6.9661   7.0512   7.1060   7.1640   7.2472
     7.2593   7.3193   7.3722   7.4362   7.4690   7.5347   7.5721   7.6342
     7.7745   7.8342   8.0725   8.1296   8.2458   8.3437   8.3733   8.4898
    10.6552  10.7929  10.8829  11.0154  11.0717  11.1990  12.5244  12.5459
    12.5992  12.7039  12.8110  12.9080  12.9910  13.2174  13.3046  13.3944
    13.4389  13.5485  13.6144  13.6775  13.9926  14.0756  14.1795  14.2713
    15.2076  15.3720  15.4796  15.5912  15.6868  16.1497  16.2583  16.4768
    16.6053  17.0151  17.2591  17.5502  18.1781

          k = 0.0000 0.1642 0.3333 ( 60667 PWs)   bands (ev):

   -65.6470 -65.6465 -65.6463 -65.6461 -65.6459 -65.6456 -65.6454 -65.6450
   -30.1911 -30.1889 -30.1709 -30.1668 -30.1291 -30.1252 -30.1073 -30.1050
   -30.0004 -29.9974 -29.9945 -29.9915 -29.9311 -29.9293 -29.9276 -29.9256
   -29.9073 -29.9032 -29.8889 -29.8816 -29.8492 -29.8433 -29.8281 -29.8254
   -19.7967 -19.7966 -19.7964 -19.7962 -19.7960 -19.7958 -19.7957 -19.7955
   -19.7861 -19.7860 -19.7858 -19.7854 -19.7851 -19.7847 -19.7847 -19.7845
   -19.7790 -19.7789 -19.7782 -19.7778 -19.7761 -19.7758 -19.7749 -19.7747
   -19.7624 -19.7622 -19.7619 -19.7617 -19.7596 -19.7595 -19.7591 -19.7588
   -19.7582 -19.7580 -19.7576 -19.7574 -19.7564 -19.7562 -19.7560 -19.7558
   -19.7519 -19.7516 -19.7509 -19.7504 -19.7490 -19.7486 -19.7481 -19.7478
   -19.7432 -19.7429 -19.7427 -19.7423 -19.7416 -19.7412 -19.7408 -19.7405
    -9.3674  -9.1712  -9.0244  -8.8726  -8.7142  -8.6115  -8.4497  -8.4112
    -8.2732  -8.2415  -8.0728  -8.0374  -7.9939  -7.8856  -7.6713  -7.5743
    -7.5417  -7.4431  -7.4182  -7.3919  -7.3731  -7.3370  -7.1633  -7.0964
     1.8344   1.8473   2.1876   2.2034   2.2328   2.2512   2.3503   2.3822
     2.7059   2.9271   3.0023   3.0204   3.1269   3.1517   3.2314   3.2656
     3.4382   3.5118   4.0727   4.1999   4.3181   4.3552   4.3856   4.7210
     4.7563   4.8034   4.8645   4.9267   5.1008   5.1076   5.3167   5.4084
     5.5026   5.5735   5.6509   5.7752   5.8630   5.8950   5.9445   6.0330
     6.0484   6.0763   6.1873   6.2050   6.2670   6.3075   6.4182   6.4794
     6.7389   6.8091   6.8209   6.9661   7.0419   7.1194   7.1911   7.2194
     7.2753   7.3197   7.4041   7.4715   7.5278   7.5856   7.6091   7.6888
     7.7792   7.8701   8.0410   8.1257   8.2123   8.2604   8.3964   8.4658
    10.7971  10.8666  11.2205  11.4391  11.4870  11.7575  12.2863  12.3784
    12.5783  12.6834  12.7920  12.9757  12.9861  13.0770  13.2605  13.3467
    13.4778  13.5425  13.5728  13.6866  13.8897  14.0394  14.0956  14.2213
    15.2508  15.3362  15.6615  15.8214  15.9912  16.1588  16.4022  16.5060
    16.8524  17.0652  17.4506  17.7794  17.9349

          k = 0.0000 0.1642-0.5000 ( 60682 PWs)   bands (ev):

   -65.6468 -65.6468 -65.6461 -65.6461 -65.6459 -65.6459 -65.6452 -65.6452
   -30.1900 -30.1900 -30.1500 -30.1499 -30.1459 -30.1459 -30.1062 -30.1062
   -29.9990 -29.9990 -29.9931 -29.9931 -29.9302 -29.9302 -29.9267 -29.9267
   -29.9053 -29.9053 -29.8690 -29.8690 -29.8624 -29.8624 -29.8268 -29.8268
   -19.7966 -19.7966 -19.7962 -19.7962 -19.7960 -19.7960 -19.7956 -19.7956
   -19.7860 -19.7860 -19.7854 -19.7854 -19.7851 -19.7851 -19.7846 -19.7846
   -19.7789 -19.7789 -19.7772 -19.7772 -19.7768 -19.7768 -19.7748 -19.7748
   -19.7623 -19.7623 -19.7618 -19.7618 -19.7596 -19.7596 -19.7586 -19.7586
   -19.7585 -19.7585 -19.7575 -19.7575 -19.7563 -19.7563 -19.7559 -19.7559
   -19.7518 -19.7518 -19.7499 -19.7499 -19.7494 -19.7494 -19.7479 -19.7479
   -19.7430 -19.7430 -19.7422 -19.7422 -19.7418 -19.7418 -19.7406 -19.7406
    -9.2567  -9.2567  -8.8478  -8.8478  -8.7064  -8.7064  -8.3338  -8.3338
    -8.2431  -8.2431  -8.1315  -8.1315  -7.8345  -7.8345  -7.7922  -7.7921
    -7.5804  -7.5804  -7.4126  -7.4126  -7.3614  -7.3613  -7.1292  -7.1292
     1.8387   1.8387   2.1994   2.1994   2.2476   2.2476   2.3871   2.3871
     3.0620   3.0620   3.3777   3.3778   3.4946   3.4946   3.6415   3.6416
     3.6742   3.6742   3.7875   3.7875   4.0144   4.0144   4.1700   4.1700
     4.3753   4.3754   4.7897   4.7897   4.9885   4.9885   5.2856   5.2856
     5.5376   5.5376   5.6808   5.6809   5.7829   5.7829   6.0255   6.0255
     6.0600   6.0600   6.1617   6.1617   6.3210   6.3210   6.4301   6.4301
     6.7512   6.7512   6.9438   6.9438   7.0414   7.0414   7.1770   7.1770
     7.3281   7.3281   7.3534   7.3534   7.5342   7.5342   7.8752   7.8752
     7.9488   7.9488   8.0591   8.0591   8.1094   8.1094   8.4270   8.4270
    10.8434  10.8434  11.7761  11.7762  11.9805  11.9805  12.0538  12.0538
    12.4099  12.4100  12.7790  12.7790  13.1279  13.1280  13.3153  13.3153
    13.4215  13.4215  13.6929  13.6929  13.8573  13.8573  14.1398  14.1398
    15.2858  15.2858  15.8588  15.8588  16.2359  16.2359  16.5168  16.5168
    16.9713  16.9713  17.8845  17.8845  18.2329

          k = 0.0000 0.3284 0.0000 ( 60709 PWs)   bands (ev):

   -65.6471 -65.6467 -65.6462 -65.6462 -65.6458 -65.6457 -65.6453 -65.6449
   -30.1927 -30.1913 -30.1877 -30.1877 -30.1082 -30.1082 -30.1054 -30.1024
   -29.9870 -29.9818 -29.9818 -29.9764 -29.9466 -29.9427 -29.9426 -29.9387
   -29.9097 -29.9087 -29.9009 -29.9009 -29.8294 -29.8294 -29.8244 -29.8235
   -19.7968 -19.7967 -19.7965 -19.7964 -19.7958 -19.7958 -19.7956 -19.7954
   -19.7861 -19.7861 -19.7859 -19.7858 -19.7848 -19.7847 -19.7844 -19.7844
   -19.7792 -19.7791 -19.7788 -19.7788 -19.7750 -19.7750 -19.7747 -19.7746
   -19.7615 -19.7610 -19.7609 -19.7604 -19.7599 -19.7595 -19.7595 -19.7590
   -19.7579 -19.7579 -19.7579 -19.7575 -19.7572 -19.7569 -19.7569 -19.7569
   -19.7521 -19.7519 -19.7514 -19.7514 -19.7482 -19.7482 -19.7479 -19.7476
   -19.7434 -19.7431 -19.7428 -19.7428 -19.7410 -19.7410 -19.7405 -19.7403
    -9.4291  -9.2579  -9.0428  -9.0428  -8.5710  -8.5710  -8.3985  -8.3375
    -8.3371  -8.1670  -8.1517  -8.1517  -7.7979  -7.6791  -7.6791  -7.6532
    -7.6232  -7.6094  -7.4929  -7.4929  -7.2049  -7.1956  -7.0657  -7.0657
     1.8106   1.8275   1.8713   1.8713   2.2147   2.2147   2.3404   2.3860
     2.7347   2.8284   2.8769   2.8769   2.9047   3.0724   3.0953   3.4642
     3.4642   3.5469   4.1257   4.1705   4.1705   4.2068   4.4856   4.9359
     4.9359   5.0294   5.0294   5.2173   5.2173   5.2369   5.3874   5.5506
     5.5913   5.5913   5.6609   5.7774   5.8792   5.8792   5.9001   6.1044
     6.1378   6.1993   6.1993   6.2656   6.2656   6.3421   6.4536   6.4716
     6.7674   6.8048   6.9135   6.9381   6.9381   7.0476   7.3232   7.3232
     7.3944   7.4085   7.4595   7.4595   7.5193   7.5433   7.5896   7.5896
     7.9255   7.9255   8.0331   8.0936   8.2127   8.3002   8.3002   8.3205
    10.6061  10.6424  11.2547  11.2914  11.2914  11.4749  12.4898  12.4898
    12.5318  12.5346  12.6825  12.6825  12.8947  13.0443  13.2348  13.2348
    13.4561  13.5748  13.5748  13.6656  13.9178  13.9178  14.1333  14.1724
    15.3104  15.5484  15.5484  15.6043  15.9861  16.2903  16.3288  16.3288
    16.5187  17.4603  17.7809  17.8948  17.8948

          k = 0.0000 0.3284 0.1667 ( 60627 PWs)   bands (ev):

   -65.6470 -65.6466 -65.6462 -65.6461 -65.6458 -65.6457 -65.6453 -65.6449
   -30.1918 -30.1880 -30.1862 -30.1821 -30.1137 -30.1098 -30.1079 -30.1038
   -29.9867 -29.9822 -29.9815 -29.9768 -29.9465 -29.9430 -29.9425 -29.9391
   -29.9087 -29.9037 -29.9015 -29.8957 -29.8347 -29.8292 -29.8291 -29.8243
   -19.7967 -19.7966 -19.7965 -19.7964 -19.7958 -19.7958 -19.7956 -19.7955
   -19.7861 -19.7860 -19.7859 -19.7857 -19.7849 -19.7847 -19.7845 -19.7845
   -19.7791 -19.7789 -19.7788 -19.7786 -19.7753 -19.7750 -19.7749 -19.7747
   -19.7615 -19.7610 -19.7609 -19.7605 -19.7598 -19.7595 -19.7594 -19.7590
   -19.7580 -19.7579 -19.7578 -19.7575 -19.7573 -19.7570 -19.7569 -19.7569
   -19.7520 -19.7517 -19.7515 -19.7511 -19.7484 -19.7481 -19.7480 -19.7477
   -19.7433 -19.7431 -19.7428 -19.7427 -19.7412 -19.7409 -19.7407 -19.7404
    -9.3845  -9.2072  -9.0591  -8.9696  -8.5968  -8.5174  -8.3770  -8.3497
    -8.3051  -8.1591  -8.1487  -8.1242  -7.8237  -7.7127  -7.6969  -7.6763
    -7.6366  -7.6141  -7.5655  -7.5011  -7.2934  -7.1903  -7.1635  -7.0741
     1.8293   1.8638   2.0266   2.0763   2.2200   2.3924   2.4171   2.5630
     2.7506   2.8625   2.8790   2.9255   2.9906   3.0684   3.1536   3.4448
     3.5336   3.5964   4.1422   4.1517   4.1837   4.2675   4.4508   4.7238
     4.7727   4.9212   4.9898   5.0034   5.1632   5.2574   5.3219   5.3673
     5.5232   5.5604   5.6095   5.6939   5.7909   5.8307   5.9772   6.0059
     6.0951   6.1062   6.1234   6.1540   6.1776   6.2729   6.3665   6.4551
     6.8099   6.8603   6.9122   6.9858   7.0743   7.1479   7.1671   7.3515
     7.4229   7.4495   7.4573   7.4946   7.5404   7.5654   7.6008   7.6449
     7.7871   7.8483   8.0537   8.1157   8.2183   8.2853   8.2975   8.3266
    10.7960  10.8552  11.2878  11.3264  11.4170  11.5837  12.4666  12.5253
    12.5612  12.5933  12.6843  12.7444  12.9678  13.0651  13.1679  13.2464
    13.3413  13.5138  13.5856  13.6569  13.8242  13.9217  14.0812  14.1752
    15.3450  15.5260  15.6304  15.7278  16.0489  16.3013  16.3444  16.5165
    16.6620  17.4275  17.6794  17.8290  17.9729

          k = 0.0000 0.3284 0.3333 ( 60659 PWs)   bands (ev):

   -65.6468 -65.6465 -65.6464 -65.6460 -65.6460 -65.6455 -65.6455 -65.6451
   -30.1910 -30.1888 -30.1709 -30.1667 -30.1289 -30.1248 -30.1070 -30.1048
   -29.9859 -29.9833 -29.9807 -29.9780 -29.9459 -29.9438 -29.9420 -29.9399
   -29.9073 -29.9032 -29.8889 -29.8816 -29.8492 -29.8432 -29.8281 -29.8254
   -19.7967 -19.7965 -19.7964 -19.7962 -19.7960 -19.7957 -19.7957 -19.7956
   -19.7861 -19.7860 -19.7858 -19.7854 -19.7851 -19.7847 -19.7847 -19.7845
   -19.7790 -19.7789 -19.7782 -19.7779 -19.7761 -19.7758 -19.7749 -19.7747
   -19.7614 -19.7611 -19.7608 -19.7606 -19.7597 -19.7595 -19.7591 -19.7588
   -19.7583 -19.7581 -19.7578 -19.7575 -19.7573 -19.7571 -19.7569 -19.7569
   -19.7519 -19.7516 -19.7509 -19.7504 -19.7490 -19.7485 -19.7481 -19.7478
   -19.7432 -19.7429 -19.7428 -19.7423 -19.7417 -19.7412 -19.7408 -19.7405
    -9.2849  -9.1088  -9.0546  -8.7712  -8.6837  -8.4090  -8.3766  -8.3162
    -8.2345  -8.1784  -8.0596  -8.0232  -7.9947  -7.8943  -7.7458  -7.7005
    -7.6430  -7.6213  -7.5945  -7.5348  -7.5071  -7.3984  -7.1643  -7.0974
     1.8389   1.8509   2.2329   2.2413   2.6053   2.6892   2.7626   2.8582
     2.9290   2.9949   3.0494   3.1539   3.1814   3.2336   3.3038   3.4228
     3.7009   3.7398   4.0496   4.1254   4.1425   4.2270   4.3012   4.4481
     4.4651   4.6040   4.6669   4.8524   4.9177   5.0290   5.0812   5.1044
     5.3081   5.4076   5.4302   5.5334   5.5925   5.7044   5.7388   5.7822
     5.9037   5.9440   5.9972   6.0953   6.2638   6.2965   6.3054   6.4450
     6.8703   6.9173   6.9492   6.9735   7.1217   7.2710   7.3107   7.3487
     7.4167   7.4473   7.5055   7.5286   7.5453   7.6035   7.6236   7.7033
     7.8535   7.9217   8.0269   8.1210   8.2040   8.2296   8.2934   8.3188
    11.1499  11.2534  11.3507  11.5468  11.7622  11.9595  12.3168  12.4344
    12.5886  12.6550  12.7144  12.8614  12.9083  12.9364  13.1386  13.1415
    13.3057  13.3398  13.5246  13.6357  13.6664  13.9396  13.9497  14.1092
    15.3419  15.4621  15.8791  16.1458  16.2695  16.4287  16.5687  17.0195
    17.0848  17.2860  17.3464  17.9192  17.9648

          k = 0.0000 0.3284-0.5000 ( 60606 PWs)   bands (ev):

   -65.6466 -65.6466 -65.6462 -65.6462 -65.6457 -65.6457 -65.6453 -65.6453
   -30.1899 -30.1899 -30.1498 -30.1498 -30.1457 -30.1457 -30.1059 -30.1059
   -29.9847 -29.9847 -29.9794 -29.9794 -29.9449 -29.9449 -29.9410 -29.9410
   -29.9053 -29.9053 -29.8691 -29.8690 -29.8624 -29.8624 -29.8268 -29.8268
   -19.7966 -19.7966 -19.7962 -19.7962 -19.7959 -19.7959 -19.7957 -19.7957
   -19.7860 -19.7860 -19.7854 -19.7854 -19.7851 -19.7851 -19.7846 -19.7846
   -19.7789 -19.7789 -19.7772 -19.7772 -19.7769 -19.7768 -19.7748 -19.7748
   -19.7612 -19.7612 -19.7607 -19.7607 -19.7596 -19.7596 -19.7587 -19.7587
   -19.7585 -19.7585 -19.7577 -19.7577 -19.7572 -19.7572 -19.7569 -19.7569
   -19.7518 -19.7517 -19.7499 -19.7499 -19.7494 -19.7494 -19.7480 -19.7480
   -19.7430 -19.7430 -19.7423 -19.7423 -19.7418 -19.7418 -19.7407 -19.7407
    -9.1850  -9.1850  -8.8495  -8.8495  -8.5351  -8.5351  -8.2321  -8.2321
    -8.2227  -8.2226  -8.1256  -8.1256  -7.8522  -7.8522  -7.8217  -7.8217
    -7.6647  -7.6647  -7.5978  -7.5978  -7.5428  -7.5428  -7.1302  -7.1302
     1.8431   1.8431   2.2480   2.2480   2.7430   2.7430   2.9125   2.9125
     3.2748   3.2748   3.4062   3.4062   3.4859   3.4859   3.6552   3.6552
     3.7673   3.7674   3.7964   3.7964   4.0655   4.0655   4.1699   4.1700
     4.3511   4.3511   4.4840   4.4840   4.7556   4.7556   4.8480   4.8480
     5.3570   5.3570   5.4365   5.4365   5.5929   5.5929   5.6746   5.6747
     5.8186   5.8186   6.0672   6.0672   6.2881   6.2881   6.3788   6.3788
     6.8916   6.8916   7.0234   7.0235   7.1694   7.1694   7.2772   7.2773
     7.4708   7.4708   7.5145   7.5146   7.5580   7.5580   7.8626   7.8626
     7.9469   7.9469   8.0945   8.0945   8.1256   8.1256   8.2987   8.2987
    11.2595  11.2595  11.8504  11.8504  12.0563  12.0563  12.2361  12.2361
    12.4994  12.4994  12.6837  12.6837  12.9587  12.9587  13.1288  13.1289
    13.3357  13.3357  13.4177  13.4177  13.7931  13.7931  13.9946  13.9946
    15.3786  15.3786  16.0710  16.0710  16.7999  16.7999  16.9713  16.9713
    17.0797  17.0797  17.7734  17.7734  18.0528

          k = 0.0000-0.4926 0.0000 ( 60618 PWs)   bands (ev):

   -65.6469 -65.6469 -65.6461 -65.6461 -65.6459 -65.6459 -65.6451 -65.6451
   -30.1920 -30.1920 -30.1877 -30.1877 -30.1080 -30.1080 -30.1038 -30.1038
   -29.9669 -29.9669 -29.9646 -29.9646 -29.9601 -29.9601 -29.9578 -29.9578
   -29.9092 -29.9092 -29.9009 -29.9009 -29.8294 -29.8294 -29.8240 -29.8240
   -19.7967 -19.7967 -19.7964 -19.7964 -19.7958 -19.7958 -19.7955 -19.7955
   -19.7861 -19.7861 -19.7859 -19.7858 -19.7848 -19.7848 -19.7844 -19.7844
   -19.7791 -19.7791 -19.7788 -19.7788 -19.7750 -19.7750 -19.7747 -19.7747
   -19.7603 -19.7603 -19.7598 -19.7598 -19.7597 -19.7597 -19.7590 -19.7590
   -19.7585 -19.7585 -19.7585 -19.7585 -19.7573 -19.7573 -19.7572 -19.7572
   -19.7520 -19.7520 -19.7514 -19.7514 -19.7482 -19.7482 -19.7477 -19.7477
   -19.7433 -19.7433 -19.7428 -19.7428 -19.7410 -19.7410 -19.7404 -19.7404
    -9.3333  -9.3333  -9.0163  -9.0163  -8.5376  -8.5376  -8.3502  -8.3502
    -8.0430  -8.0430  -7.9873  -7.9872  -7.9580  -7.9580  -7.9240  -7.9240
    -7.6522  -7.6522  -7.5039  -7.5039  -7.2007  -7.2007  -7.0662  -7.0662
     1.8179   1.8179   1.8712   1.8712   2.2186   2.2186   2.3786   2.3786
     2.8652   2.8652   3.1911   3.1911   3.2567   3.2567   3.7359   3.7359
     3.7901   3.7901   3.8669   3.8669   4.0333   4.0333   4.3283   4.3283
     4.3348   4.3348   4.9954   4.9954   5.1667   5.1667   5.5415   5.5415
     5.6744   5.6744   5.7167   5.7167   5.7632   5.7632   5.9566   5.9566
     6.2041   6.2041   6.2495   6.2495   6.2614   6.2614   6.4509   6.4509
     6.7726   6.7726   6.8823   6.8823   6.9767   6.9767   7.3441   7.3441
     7.3978   7.3978   7.4315   7.4315   7.7144   7.7144   7.7764   7.7764
     7.9595   7.9595   8.0273   8.0273   8.1699   8.1699   8.1844   8.1844
    10.6380  10.6380  11.6448  11.6448  11.7101  11.7101  12.2460  12.2460
    12.3489  12.3489  12.6713  12.6713  12.8443  12.8443  13.2353  13.2353
    13.5713  13.5713  13.6571  13.6571  13.7262  13.7263  14.0871  14.0871
    15.4911  15.4911  15.6296  15.6296  16.1843  16.1844  16.3415  16.3415
    17.0747  17.0747  18.3766  18.3768  18.4958

          k = 0.0000-0.4926 0.1667 ( 60608 PWs)   bands (ev):

   -65.6468 -65.6468 -65.6461 -65.6460 -65.6459 -65.6458 -65.6451 -65.6451
   -30.1917 -30.1880 -30.1863 -30.1820 -30.1136 -30.1094 -30.1077 -30.1040
   -29.9669 -29.9665 -29.9648 -29.9642 -29.9606 -29.9601 -29.9583 -29.9580
   -29.9087 -29.9037 -29.9015 -29.8957 -29.8347 -29.8291 -29.8291 -29.8244
   -19.7967 -19.7966 -19.7965 -19.7964 -19.7958 -19.7958 -19.7955 -19.7955
   -19.7861 -19.7860 -19.7859 -19.7857 -19.7848 -19.7848 -19.7845 -19.7845
   -19.7791 -19.7789 -19.7788 -19.7786 -19.7753 -19.7750 -19.7749 -19.7747
   -19.7603 -19.7603 -19.7598 -19.7597 -19.7597 -19.7597 -19.7590 -19.7590
   -19.7586 -19.7585 -19.7585 -19.7585 -19.7574 -19.7573 -19.7573 -19.7572
   -19.7520 -19.7517 -19.7515 -19.7511 -19.7484 -19.7482 -19.7479 -19.7478
   -19.7432 -19.7432 -19.7428 -19.7427 -19.7412 -19.7409 -19.7406 -19.7404
    -9.3040  -9.2660  -9.0316  -8.9392  -8.5667  -8.4759  -8.3326  -8.3066
    -8.0526  -8.0519  -7.9971  -7.9797  -7.9642  -7.9524  -7.9272  -7.9103
    -7.7360  -7.6434  -7.6003  -7.5122  -7.2939  -7.1909  -7.1639  -7.0745
     1.8289   1.8637   2.0255   2.0774   2.2239   2.4202   2.4262   2.5821
     2.9445   2.9542   3.1877   3.1912   3.2933   3.3175   3.6937   3.7307
     3.7392   3.7843   3.8759   3.9616   4.0509   4.1134   4.3031   4.3511
     4.3527   4.3704   4.7537   4.7610   4.9925   5.0887   5.4438   5.4503
     5.5155   5.5335   5.6126   5.6735   5.6929   5.8171   5.8764   5.9708
     6.0483   6.1006   6.1127   6.1288   6.1763   6.2571   6.3347   6.4514
     6.8155   6.8465   6.8643   6.9929   7.0636   7.1305   7.1737   7.3964
     7.4078   7.4466   7.5023   7.5950   7.6658   7.7231   7.7317   7.7437
     7.8712   7.9051   8.0379   8.0661   8.1634   8.1744   8.1900   8.2016
    10.8212  10.8797  11.6457  11.7147  11.7356  11.8366  12.2426  12.3210
    12.3524  12.4333  12.6368  12.7292  12.9144  12.9356  13.1229  13.2501
    13.4298  13.5635  13.5747  13.6277  13.6692  13.7320  14.0202  14.1094
    15.4472  15.5852  15.6133  15.8386  16.2473  16.2848  16.3835  16.5197
    17.1195  17.1326  18.1849  18.3438  18.4221

          k = 0.0000-0.4926 0.3333 ( 60610 PWs)   bands (ev):

   -65.6467 -65.6466 -65.6463 -65.6461 -65.6458 -65.6457 -65.6453 -65.6453
   -30.1909 -30.1888 -30.1709 -30.1666 -30.1288 -30.1246 -30.1069 -30.1048
   -29.9667 -29.9656 -29.9652 -29.9631 -29.9619 -29.9600 -29.9596 -29.9586
   -29.9073 -29.9032 -29.8890 -29.8816 -29.8492 -29.8432 -29.8281 -29.8254
   -19.7967 -19.7965 -19.7964 -19.7962 -19.7960 -19.7957 -19.7957 -19.7956
   -19.7861 -19.7859 -19.7857 -19.7854 -19.7851 -19.7847 -19.7847 -19.7845
   -19.7790 -19.7789 -19.7782 -19.7779 -19.7761 -19.7758 -19.7749 -19.7748
   -19.7602 -19.7601 -19.7599 -19.7598 -19.7595 -19.7595 -19.7591 -19.7591
   -19.7585 -19.7585 -19.7584 -19.7583 -19.7578 -19.7576 -19.7573 -19.7572
   -19.7519 -19.7516 -19.7509 -19.7504 -19.7490 -19.7485 -19.7481 -19.7479
   -19.7431 -19.7429 -19.7428 -19.7423 -19.7417 -19.7411 -19.7408 -19.7405
    -9.2314  -9.0912  -9.0693  -8.7233  -8.6651  -8.3217  -8.2749  -8.1921
    -8.1439  -8.0808  -8.0213  -7.9719  -7.9612  -7.9537  -7.9417  -7.8917
    -7.8542  -7.7856  -7.6240  -7.5345  -7.5251  -7.4019  -7.1649  -7.0978
     1.8387   1.8509   2.2376   2.2432   2.6420   2.8495   2.9379   3.1185
     3.1668   3.1868   3.2174   3.2175   3.4072   3.4678   3.5832   3.6912
     3.7339   3.7660   3.9056   3.9510   4.0981   4.2416   4.2603   4.2911
     4.3226   4.3884   4.4174   4.4430   4.7043   4.8373   4.9443   5.0794
     5.1019   5.2961   5.3619   5.3928   5.5522   5.6811   5.6906   5.6981
     5.8054   5.9355   5.9404   6.0001   6.2704   6.2899   6.3200   6.4511
     6.8869   6.8917   6.9347   6.9723   7.1442   7.3065   7.3403   7.3498
     7.4919   7.5133   7.5317   7.6459   7.6644   7.7316   7.7342   7.7463
     7.9285   7.9615   8.0138   8.0954   8.1495   8.1658   8.1879   8.2011
    11.2572  11.4049  11.6585  11.7436  12.0121  12.1630  12.2240  12.3526
    12.4421  12.5228  12.6295  12.7577  12.8950  12.9263  13.0157  13.0739
    13.2971  13.3600  13.3658  13.4770  13.7154  13.7576  13.9189  14.0267
    15.3819  15.5160  15.9034  16.2416  16.4267  16.6301  16.8535  17.0554
    17.2563  17.3113  17.8463  17.9756  18.1449

          k = 0.0000-0.4926-0.5000 ( 60624 PWs)   bands (ev):

   -65.6465 -65.6465 -65.6464 -65.6464 -65.6456 -65.6456 -65.6455 -65.6455
   -30.1899 -30.1899 -30.1498 -30.1498 -30.1456 -30.1456 -30.1058 -30.1058
   -29.9661 -29.9661 -29.9636 -29.9636 -29.9615 -29.9615 -29.9593 -29.9593
   -29.9053 -29.9053 -29.8691 -29.8691 -29.8625 -29.8624 -29.8268 -29.8268
   -19.7966 -19.7966 -19.7962 -19.7962 -19.7959 -19.7959 -19.7957 -19.7957
   -19.7860 -19.7860 -19.7854 -19.7854 -19.7851 -19.7851 -19.7846 -19.7846
   -19.7790 -19.7790 -19.7772 -19.7772 -19.7769 -19.7768 -19.7748 -19.7748
   -19.7601 -19.7601 -19.7600 -19.7600 -19.7594 -19.7594 -19.7592 -19.7592
   -19.7585 -19.7585 -19.7581 -19.7581 -19.7580 -19.7580 -19.7572 -19.7572
   -19.7518 -19.7517 -19.7499 -19.7499 -19.7494 -19.7494 -19.7480 -19.7480
   -19.7430 -19.7430 -19.7423 -19.7423 -19.7418 -19.7418 -19.7407 -19.7407
    -9.1477  -9.1477  -8.8510  -8.8510  -8.4227  -8.4226  -8.1694  -8.1693
    -8.1514  -8.1514  -8.0594  -8.0594  -7.9431  -7.9431  -7.9183  -7.9183
    -7.7756  -7.7756  -7.6978  -7.6978  -7.5556  -7.5556  -7.1307  -7.1307
     1.8431   1.8431   2.2524   2.2524   3.1057   3.1057   3.3820   3.3820
     3.4530   3.4530   3.4742   3.4742   3.5144   3.5144   3.6308   3.6308
     3.7593   3.7593   3.8256   3.8256   3.9345   3.9345   4.0247   4.0248
     4.2888   4.2888   4.3947   4.3948   4.7395   4.7396   4.8060   4.8061
     4.8993   4.8993   4.9925   4.9925   5.5911   5.5911   5.7060   5.7061
     5.7514   5.7514   5.9855   5.9855   6.3128   6.3128   6.3721   6.3721
     6.8888   6.8888   7.0174   7.0174   7.1883   7.1883   7.3069   7.3069
     7.5590   7.5591   7.6198   7.6198   7.7487   7.7487   7.8391   7.8392
     7.9464   7.9465   8.0945   8.0945   8.1260   8.1260   8.1755   8.1755
    11.5717  11.5717  11.9727  11.9727  12.0074  12.0074  12.3805  12.3806
    12.4709  12.4709  12.6423  12.6423  12.8801  12.8802  13.0117  13.0117
    13.1305  13.1305  13.3653  13.3653  13.8125  13.8125  13.8510  13.8510
    15.4165  15.4165  16.1245  16.1245  17.1049  17.1049  17.3612  17.3612
    17.4959  17.4959  17.7160  17.7160  17.8136

          k = 0.1667 0.0000 0.1667 ( 60640 PWs)   bands (ev):

   -65.6471 -65.6464 -65.6464 -65.6464 -65.6456 -65.6456 -65.6456 -65.6448
   -30.1876 -30.1847 -30.1825 -30.1824 -30.1140 -30.1138 -30.1129 -30.1073
   -30.0063 -30.0009 -30.0008 -29.9956 -29.9261 -29.9233 -29.9231 -29.9199
   -29.9041 -29.9022 -29.8963 -29.8961 -29.8344 -29.8344 -29.8305 -29.8286
   -19.7967 -19.7965 -19.7964 -19.7964 -19.7958 -19.7958 -19.7957 -19.7955
   -19.7860 -19.7860 -19.7859 -19.7857 -19.7850 -19.7847 -19.7845 -19.7845
   -19.7789 -19.7788 -19.7786 -19.7786 -19.7752 -19.7752 -19.7750 -19.7749
   -19.7629 -19.7625 -19.7625 -19.7621 -19.7597 -19.7594 -19.7594 -19.7590
   -19.7579 -19.7577 -19.7577 -19.7573 -19.7561 -19.7557 -19.7557 -19.7554
   -19.7518 -19.7515 -19.7512 -19.7512 -19.7483 -19.7483 -19.7482 -19.7477
   -19.7434 -19.7428 -19.7427 -19.7427 -19.7411 -19.7411 -19.7409 -19.7404
    -9.4616  -9.0998  -9.0906  -9.0871  -8.6590  -8.6199  -8.6132  -8.4825
    -8.2677  -8.2141  -8.2099  -8.1823  -7.7965  -7.7361  -7.6425  -7.6383
    -7.3544  -7.3084  -7.2981  -7.2744  -7.2677  -7.2346  -7.1755  -7.1672
     1.9434   1.9871   1.9923   2.0519   2.0911   2.1508   2.1625   2.1631
     2.4691   2.4774   2.6090   2.7413   2.8834   2.9802   3.1203   3.1571
     3.2047   3.2063   4.4372   4.5158   4.6017   4.6262   4.7612   4.8295
     4.8962   5.0307   5.0604   5.1319   5.2806   5.3601   5.5395   5.5636
     5.7557   5.7629   5.8498   5.8922   5.8963   5.9782   6.0207   6.0813
     6.0855   6.1435   6.1442   6.2023   6.2495   6.3111   6.3395   6.6329
     6.6387   6.7826   6.8774   6.8987   7.0863   7.0973   7.2112   7.2483
     7.2690   7.2737   7.3237   7.3807   7.4360   7.5234   7.6179   7.6363
     7.7710   7.7794   8.0896   8.1296   8.2255   8.3416   8.3865   8.5397
    10.7009  10.7633  10.9418  10.9457  11.1936  11.2231  12.5457  12.5525
    12.5830  12.6768  12.8041  12.9290  13.1477  13.2602  13.2680  13.4823
    13.5748  13.5797  13.6782  13.6838  14.0032  14.0376  14.2129  14.2436
    15.1704  15.3690  15.3745  15.4859  15.7146  16.1958  16.2481  16.4161
    16.4163  17.2275  17.2785  17.3508  18.2378

          k = 0.1667 0.0000 0.3333 ( 60676 PWs)   bands (ev):

   -65.6470 -65.6465 -65.6462 -65.6462 -65.6457 -65.6457 -65.6454 -65.6450
   -30.1855 -30.1833 -30.1706 -30.1671 -30.1289 -30.1257 -30.1130 -30.1104
   -30.0054 -30.0023 -30.0000 -29.9969 -29.9256 -29.9239 -29.9226 -29.9207
   -29.9019 -29.8978 -29.8884 -29.8821 -29.8488 -29.8437 -29.8334 -29.8306
   -19.7967 -19.7965 -19.7964 -19.7962 -19.7959 -19.7958 -19.7958 -19.7956
   -19.7860 -19.7859 -19.7857 -19.7855 -19.7851 -19.7848 -19.7847 -19.7846
   -19.7788 -19.7786 -19.7781 -19.7779 -19.7760 -19.7758 -19.7752 -19.7750
   -19.7628 -19.7626 -19.7624 -19.7622 -19.7595 -19.7594 -19.7591 -19.7588
   -19.7582 -19.7580 -19.7577 -19.7574 -19.7560 -19.7558 -19.7556 -19.7554
   -19.7516 -19.7513 -19.7508 -19.7504 -19.7490 -19.7486 -19.7483 -19.7480
   -19.7432 -19.7428 -19.7426 -19.7424 -19.7416 -19.7413 -19.7410 -19.7406
    -9.3526  -9.1442  -8.9631  -8.9394  -8.7030  -8.6733  -8.4790  -8.4356
    -8.2578  -8.2003  -8.0687  -8.0561  -7.9870  -7.8872  -7.7504  -7.6586
    -7.5311  -7.4258  -7.3382  -7.3073  -7.2796  -7.2542  -7.2472  -7.1921
     1.9681   1.9814   2.0474   2.0495   2.1624   2.1668   2.4375   2.4902
     2.7083   2.9135   2.9878   3.0208   3.1462   3.1716   3.2545   3.3588
     3.3903   3.4465   4.0866   4.1955   4.3375   4.3463   4.4002   4.6634
     4.7565   4.8599   4.9005   5.0167   5.1014   5.1663   5.2257   5.3473
     5.4657   5.5849   5.6725   5.7162   5.7452   5.8583   5.9269   6.0302
     6.0589   6.1086   6.1151   6.1477   6.3030   6.3361   6.4285   6.6301
     6.6963   6.7774   6.8515   6.9291   6.9787   7.0260   7.1770   7.2102
     7.2460   7.3274   7.4112   7.4791   7.5448   7.6109   7.6327   7.7118
     7.7886   7.8509   8.0625   8.1081   8.1825   8.2733   8.4123   8.5038
    10.8277  10.8655  11.2630  11.3650  11.5771  11.7826  12.3090  12.3689
    12.5768  12.6521  12.7343  12.9761  12.9988  13.2333  13.3231  13.4175
    13.5392  13.5941  13.6685  13.7297  13.9647  13.9851  14.1099  14.1915
    15.2500  15.3496  15.5742  15.6743  16.0170  16.0802  16.2423  16.5073
    16.9234  16.9737  17.6564  17.7325  17.8071

          k = 0.1667 0.0000-0.5000 ( 60732 PWs)   bands (ev):

   -65.6468 -65.6468 -65.6460 -65.6460 -65.6460 -65.6460 -65.6452 -65.6452
   -30.1844 -30.1844 -30.1497 -30.1497 -30.1463 -30.1462 -30.1118 -30.1118
   -30.0039 -30.0039 -29.9986 -29.9986 -29.9248 -29.9248 -29.9217 -29.9217
   -29.8999 -29.8999 -29.8686 -29.8686 -29.8629 -29.8629 -29.8320 -29.8320
   -19.7966 -19.7966 -19.7962 -19.7962 -19.7960 -19.7960 -19.7957 -19.7957
   -19.7859 -19.7859 -19.7854 -19.7854 -19.7851 -19.7851 -19.7847 -19.7847
   -19.7787 -19.7787 -19.7771 -19.7771 -19.7768 -19.7768 -19.7751 -19.7751
   -19.7627 -19.7627 -19.7623 -19.7623 -19.7595 -19.7595 -19.7586 -19.7586
   -19.7585 -19.7584 -19.7576 -19.7576 -19.7559 -19.7559 -19.7555 -19.7555
   -19.7515 -19.7515 -19.7499 -19.7499 -19.7495 -19.7495 -19.7481 -19.7481
   -19.7430 -19.7429 -19.7422 -19.7421 -19.7419 -19.7419 -19.7408 -19.7408
    -9.2348  -9.2348  -8.7988  -8.7988  -8.7863  -8.7863  -8.3482  -8.3482
    -8.2520  -8.2520  -8.1023  -8.1022  -7.8560  -7.8560  -7.8033  -7.8033
    -7.6334  -7.6334  -7.3245  -7.3245  -7.2648  -7.2648  -7.2228  -7.2228
     1.9723   1.9723   2.0498   2.0498   2.1678   2.1678   2.4947   2.4947
     3.0538   3.0538   3.3912   3.3912   3.5059   3.5059   3.6191   3.6191
     3.6947   3.6947   3.8090   3.8090   4.0225   4.0225   4.1224   4.1225
     4.3937   4.3938   4.7934   4.7934   5.0679   5.0680   5.3575   5.3575
     5.4133   5.4133   5.6067   5.6067   5.7790   5.7791   5.9276   5.9276
     6.0755   6.0755   6.1262   6.1262   6.3412   6.3412   6.5642   6.5642
     6.7312   6.7312   6.8611   6.8611   6.9365   6.9365   7.1859   7.1859
     7.3471   7.3471   7.4278   7.4278   7.5270   7.5270   7.8932   7.8932
     7.9580   7.9580   8.0374   8.0374   8.1079   8.1080   8.4517   8.4517
    10.8647  10.8647  11.7980  11.7980  11.9315  11.9315  12.0990  12.0990
    12.4392  12.4392  12.7188  12.7188  13.2001  13.2001  13.3688  13.3688
    13.4993  13.4993  13.7923  13.7924  13.8526  13.8526  14.1217  14.1217
    15.3115  15.3115  15.8354  15.8354  15.9718  15.9719  16.5527  16.5527
    17.0138  17.0138  17.8275  17.8275  18.2939

          k = 0.1667 0.1642 0.1667 ( 60670 PWs)   bands (ev):

   -65.6471 -65.6464 -65.6463 -65.6463 -65.6456 -65.6456 -65.6455 -65.6449
   -30.1874 -30.1849 -30.1824 -30.1824 -30.1138 -30.1137 -30.1124 -30.1076
   -30.0010 -29.9959 -29.9958 -29.9907 -29.9315 -29.9285 -29.9283 -29.9251
   -29.9040 -29.9023 -29.8963 -29.8962 -29.8344 -29.8344 -29.8303 -29.8287
   -19.7967 -19.7965 -19.7964 -19.7964 -19.7958 -19.7958 -19.7957 -19.7955
   -19.7860 -19.7860 -19.7859 -19.7857 -19.7850 -19.7847 -19.7845 -19.7845
   -19.7789 -19.7788 -19.7786 -19.7786 -19.7752 -19.7752 -19.7750 -19.7749
   -19.7625 -19.7621 -19.7620 -19.7616 -19.7597 -19.7594 -19.7594 -19.7590
   -19.7579 -19.7577 -19.7577 -19.7573 -19.7565 -19.7561 -19.7561 -19.7558
   -19.7518 -19.7515 -19.7512 -19.7512 -19.7484 -19.7483 -19.7482 -19.7478
   -19.7433 -19.7429 -19.7427 -19.7427 -19.7411 -19.7411 -19.7409 -19.7404
    -9.4249  -9.1137  -9.0561  -9.0519  -8.6025  -8.5936  -8.5796  -8.4471
    -8.2686  -8.2003  -8.1961  -8.1746  -7.7992  -7.7371  -7.6476  -7.6403
    -7.4470  -7.3930  -7.3928  -7.3459  -7.2880  -7.2742  -7.1728  -7.1679
     2.0074   2.0441   2.0528   2.0884   2.2388   2.2801   2.2854   2.2946
     2.4950   2.5056   2.6091   2.7765   2.9452   3.0147   3.1099   3.2483
     3.2820   3.3051   4.3940   4.4430   4.5534   4.5937   4.7037   4.8112
     4.8218   4.8831   4.8896   5.1545   5.1885   5.2328   5.5013   5.5066
     5.5936   5.7318   5.8020   5.8577   5.8621   5.9307   5.9400   6.0062
     6.0268   6.0888   6.0894   6.1648   6.2005   6.2891   6.3264   6.4959
     6.7742   6.8052   6.9473   7.0116   7.0883   7.0884   7.2173   7.2312
     7.2692   7.2935   7.3902   7.4126   7.4688   7.5039   7.6277   7.6433
     7.7693   7.7759   8.0855   8.1261   8.2436   8.3354   8.3728   8.4853
    10.7977  10.8653  11.0618  11.0879  11.2269  11.3002  12.5499  12.5575
    12.6091  12.6903  12.8107  12.9375  13.0234  13.2486  13.2489  13.4022
    13.4450  13.4869  13.6433  13.6757  13.9958  13.9975  14.1817  14.2180
    15.2569  15.4706  15.4768  15.6415  15.7012  16.2295  16.4064  16.4361
    16.5936  17.1305  17.3803  17.3827  18.2209

          k = 0.1667 0.1642 0.3333 ( 60681 PWs)   bands (ev):

   -65.6469 -65.6465 -65.6463 -65.6461 -65.6458 -65.6457 -65.6455 -65.6450
   -30.1855 -30.1832 -30.1706 -30.1671 -30.1288 -30.1255 -30.1128 -30.1104
   -30.0001 -29.9972 -29.9950 -29.9920 -29.9310 -29.9292 -29.9279 -29.9259
   -29.9019 -29.8979 -29.8884 -29.8821 -29.8489 -29.8437 -29.8334 -29.8306
   -19.7966 -19.7965 -19.7964 -19.7962 -19.7960 -19.7958 -19.7958 -19.7956
   -19.7860 -19.7859 -19.7857 -19.7855 -19.7851 -19.7848 -19.7847 -19.7846
   -19.7788 -19.7786 -19.7781 -19.7779 -19.7760 -19.7758 -19.7752 -19.7750
   -19.7624 -19.7622 -19.7620 -19.7617 -19.7596 -19.7594 -19.7591 -19.7588
   -19.7582 -19.7580 -19.7577 -19.7575 -19.7564 -19.7562 -19.7560 -19.7559
   -19.7516 -19.7513 -19.7509 -19.7504 -19.7490 -19.7486 -19.7483 -19.7480
   -19.7431 -19.7428 -19.7426 -19.7424 -19.7416 -19.7413 -19.7410 -19.7407
    -9.3142  -9.1081  -8.9746  -8.8907  -8.6632  -8.6257  -8.4638  -8.4009
    -8.2399  -8.1987  -8.0671  -8.0531  -7.9866  -7.8876  -7.7535  -7.6615
    -7.5375  -7.4559  -7.4183  -7.3965  -7.3773  -7.3431  -7.2559  -7.1917
     2.0355   2.0506   2.2365   2.2513   2.2870   2.3017   2.4484   2.5116
     2.7101   2.9239   3.0197   3.0722   3.1623   3.2146   3.2931   3.3747
     3.4644   3.5137   4.0911   4.2164   4.3065   4.3591   4.3937   4.6727
     4.7171   4.7868   4.8333   4.9104   4.9686   5.0601   5.1737   5.2567
     5.3903   5.4458   5.5291   5.5836   5.7275   5.7565   5.8265   5.9232
     6.0071   6.0463   6.0767   6.1046   6.1697   6.2462   6.3549   6.4653
     6.8041   6.8393   6.9746   7.0205   7.0611   7.1186   7.2088   7.2565
     7.2956   7.3104   7.4383   7.5006   7.5572   7.6154   7.6430   7.7125
     7.8013   7.8730   8.0611   8.1086   8.2072   8.2670   8.3875   8.4569
    10.9604  10.9968  11.3263  11.4759  11.5936  11.8162  12.3326  12.4045
    12.5982  12.6772  12.7618  12.9671  13.0078  13.1072  13.2571  13.3447
    13.4594  13.5247  13.5723  13.6885  13.8936  13.9296  14.0756  14.1686
    15.3596  15.4571  15.7029  15.8455  16.0176  16.2655  16.4643  16.5409
    16.9357  17.0414  17.5124  17.7799  17.8316

          k = 0.1667 0.1642-0.5000 ( 60630 PWs)   bands (ev):

   -65.6467 -65.6467 -65.6460 -65.6460 -65.6459 -65.6459 -65.6452 -65.6452
   -30.1843 -30.1843 -30.1497 -30.1497 -30.1462 -30.1461 -30.1117 -30.1117
   -29.9987 -29.9987 -29.9936 -29.9936 -29.9301 -29.9301 -29.9270 -29.9270
   -29.8999 -29.8999 -29.8686 -29.8686 -29.8629 -29.8629 -29.8320 -29.8320
   -19.7966 -19.7966 -19.7962 -19.7962 -19.7960 -19.7960 -19.7957 -19.7957
   -19.7859 -19.7859 -19.7854 -19.7854 -19.7851 -19.7851 -19.7847 -19.7847
   -19.7787 -19.7787 -19.7771 -19.7771 -19.7769 -19.7768 -19.7751 -19.7751
   -19.7623 -19.7623 -19.7619 -19.7619 -19.7595 -19.7595 -19.7586 -19.7586
   -19.7585 -19.7584 -19.7576 -19.7576 -19.7563 -19.7563 -19.7560 -19.7559
   -19.7515 -19.7515 -19.7499 -19.7499 -19.7495 -19.7495 -19.7481 -19.7481
   -19.7429 -19.7429 -19.7422 -19.7422 -19.7418 -19.7418 -19.7408 -19.7408
    -9.1969  -9.1969  -8.7959  -8.7959  -8.7233  -8.7233  -8.3197  -8.3197
    -8.2486  -8.2486  -8.1018  -8.1018  -7.8585  -7.8585  -7.8061  -7.8060
    -7.6350  -7.6350  -7.4180  -7.4180  -7.3668  -7.3668  -7.2230  -7.2230
     2.0411   2.0411   2.2524   2.2524   2.2945   2.2945   2.5160   2.5160
     3.1287   3.1287   3.4019   3.4019   3.5069   3.5069   3.6453   3.6453
     3.7177   3.7177   3.8184   3.8184   4.0440   4.0440   4.1567   4.1567
     4.3957   4.3957   4.7673   4.7673   4.8828   4.8828   5.2322   5.2322
     5.3365   5.3365   5.4879   5.4879   5.6000   5.6001   5.8880   5.8880
     5.9984   5.9984   6.0728   6.0728   6.1857   6.1857   6.4092   6.4092
     6.8373   6.8373   6.9982   6.9982   7.0926   7.0926   7.2238   7.2238
     7.3344   7.3344   7.4282   7.4282   7.5736   7.5736   7.8933   7.8933
     7.9550   7.9550   8.0636   8.0636   8.1148   8.1149   8.4155   8.4155
    11.0038  11.0038  11.8344  11.8344  12.0022  12.0022  12.1154  12.1155
    12.4569  12.4569  12.7529  12.7529  13.1317  13.1317  13.2932  13.2932
    13.4528  13.4528  13.6799  13.6799  13.7874  13.7874  14.0896  14.0896
    15.4169  15.4169  15.9342  15.9342  16.2482  16.2482  16.6063  16.6064
    17.0345  17.0346  17.8163  17.8163  18.2177

          k = 0.1667 0.3284 0.1667 ( 60651 PWs)   bands (ev):

   -65.6470 -65.6466 -65.6462 -65.6462 -65.6458 -65.6458 -65.6454 -65.6450
   -30.1868 -30.1853 -30.1824 -30.1824 -30.1135 -30.1134 -30.1111 -30.1084
   -29.9865 -29.9820 -29.9819 -29.9773 -29.9463 -29.9429 -29.9428 -29.9394
   -29.9037 -29.9027 -29.8964 -29.8963 -29.8344 -29.8344 -29.8300 -29.8291
   -19.7967 -19.7966 -19.7964 -19.7964 -19.7958 -19.7958 -19.7956 -19.7955
   -19.7860 -19.7860 -19.7858 -19.7857 -19.7849 -19.7848 -19.7845 -19.7845
   -19.7789 -19.7788 -19.7786 -19.7786 -19.7752 -19.7752 -19.7750 -19.7750
   -19.7614 -19.7610 -19.7609 -19.7605 -19.7598 -19.7594 -19.7594 -19.7589
   -19.7581 -19.7579 -19.7579 -19.7575 -19.7574 -19.7570 -19.7570 -19.7569
   -19.7518 -19.7516 -19.7512 -19.7512 -19.7484 -19.7484 -19.7481 -19.7479
   -19.7432 -19.7430 -19.7427 -19.7427 -19.7411 -19.7411 -19.7408 -19.7405
    -9.3348  -9.1587  -8.9876  -8.9845  -8.5459  -8.5395  -8.3645  -8.3551
    -8.2729  -8.1366  -8.1352  -8.1261  -7.8362  -7.7449  -7.7102  -7.6889
    -7.6592  -7.6387  -7.5849  -7.5619  -7.2877  -7.2793  -7.1721  -7.1696
     2.0380   2.0541   2.0780   2.0852   2.4230   2.4242   2.5225   2.6063
     2.7639   2.8606   2.8893   3.0064   3.0478   3.1031   3.2064   3.5141
     3.5172   3.6414   4.1566   4.1606   4.1979   4.2926   4.4268   4.6929
     4.7644   4.8139   4.8257   4.9522   5.0139   5.2397   5.2498   5.3431
     5.3478   5.4188   5.5182   5.5835   5.6806   5.7683   5.9059   5.9162
     6.0146   6.0432   6.0661   6.0932   6.1582   6.1667   6.2185   6.3428
     6.8585   6.9357   6.9582   7.0484   7.1401   7.1550   7.2747   7.2920
     7.4445   7.4705   7.4888   7.5267   7.5586   7.5762   7.6393   7.6580
     7.7841   7.7940   8.0673   8.1155   8.2167   8.2729   8.2981   8.3277
    10.9756  10.9981  11.3931  11.4344  11.4477  11.6526  12.5080  12.5209
    12.5964  12.6319  12.6964  12.7745  13.0204  13.0780  13.1876  13.2043
    13.3123  13.3939  13.5807  13.6439  13.8141  13.8350  14.0701  14.1266
    15.4224  15.6287  15.6981  15.7372  16.1099  16.3864  16.4729  16.5218
    16.7786  17.3968  17.7133  17.7650  17.9150

          k = 0.1667 0.3284 0.3333 ( 60657 PWs)   bands (ev):

   -65.6468 -65.6464 -65.6463 -65.6460 -65.6459 -65.6456 -65.6456 -65.6452
   -30.1853 -30.1832 -30.1706 -30.1670 -30.1286 -30.1251 -30.1126 -30.1104
   -29.9857 -29.9831 -29.9811 -29.9784 -29.9457 -29.9437 -29.9423 -29.9402
   -29.9019 -29.8979 -29.8885 -29.8822 -29.8489 -29.8437 -29.8334 -29.8306
   -19.7966 -19.7965 -19.7964 -19.7962 -19.7960 -19.7958 -19.7958 -19.7956
   -19.7860 -19.7858 -19.7857 -19.7855 -19.7851 -19.7848 -19.7847 -19.7846
   -19.7788 -19.7786 -19.7782 -19.7779 -19.7761 -19.7758 -19.7752 -19.7750
   -19.7613 -19.7611 -19.7609 -19.7606 -19.7596 -19.7594 -19.7591 -19.7588
   -19.7583 -19.7581 -19.7579 -19.7576 -19.7574 -19.7571 -19.7570 -19.7569
   -19.7516 -19.7513 -19.7509 -19.7504 -19.7490 -19.7486 -19.7483 -19.7480
   -19.7431 -19.7428 -19.7427 -19.7424 -19.7416 -19.7412 -19.7410 -19.7407
    -9.2237  -9.0387  -9.0080  -8.7886  -8.6300  -8.4263  -8.3963  -8.3023
    -8.2008  -8.1562  -8.0526  -8.0341  -7.9912  -7.8961  -7.7848  -7.7109
    -7.6622  -7.6454  -7.6285  -7.5883  -7.5060  -7.4036  -7.2576  -7.1925
     2.0583   2.0771   2.4167   2.4443   2.6107   2.6928   2.7752   2.8491
     2.9203   2.9873   3.0514   3.1833   3.2464   3.3259   3.3677   3.4965
     3.6886   3.7728   4.0592   4.1551   4.1666   4.2245   4.3507   4.4480
     4.4880   4.5918   4.6837   4.7598   4.9183   4.9839   5.0106   5.0776
     5.1755   5.2940   5.3208   5.4168   5.4431   5.4913   5.6086   5.6800
     5.7197   5.8213   5.8536   6.0005   6.0845   6.1376   6.1825   6.2410
     6.9433   6.9710   7.0784   7.1184   7.1965   7.3260   7.3485   7.3893
     7.4604   7.4835   7.5265   7.5515   7.6004   7.6288   7.6910   7.7160
     7.8579   7.9194   8.0503   8.1076   8.1965   8.2243   8.2932   8.3166
    11.2691  11.3331  11.4965  11.6655  11.7775  11.9938  12.3768  12.4726
    12.6328  12.6574  12.7455  12.8216  12.9441  12.9785  13.1029  13.1768
    13.2729  13.3139  13.4333  13.6011  13.6943  13.7896  13.9505  14.0353
    15.4941  15.6598  15.9285  16.2029  16.3450  16.4680  16.6692  16.9802
    17.1494  17.2823  17.3912  17.8964  17.9943

          k = 0.1667 0.3284-0.5000 ( 60616 PWs)   bands (ev):

   -65.6466 -65.6466 -65.6462 -65.6462 -65.6458 -65.6458 -65.6454 -65.6454
   -30.1842 -30.1842 -30.1496 -30.1496 -30.1460 -30.1460 -30.1115 -30.1115
   -29.9844 -29.9844 -29.9799 -29.9799 -29.9448 -29.9448 -29.9413 -29.9413
   -29.9000 -29.9000 -29.8686 -29.8686 -29.8629 -29.8629 -29.8320 -29.8320
   -19.7965 -19.7965 -19.7962 -19.7962 -19.7960 -19.7960 -19.7957 -19.7957
   -19.7859 -19.7859 -19.7854 -19.7854 -19.7851 -19.7851 -19.7847 -19.7847
   -19.7787 -19.7787 -19.7772 -19.7771 -19.7769 -19.7769 -19.7751 -19.7751
   -19.7612 -19.7612 -19.7607 -19.7607 -19.7595 -19.7595 -19.7587 -19.7587
   -19.7585 -19.7585 -19.7578 -19.7578 -19.7572 -19.7572 -19.7570 -19.7569
   -19.7515 -19.7515 -19.7499 -19.7499 -19.7495 -19.7494 -19.7482 -19.7482
   -19.7429 -19.7429 -19.7422 -19.7422 -19.7418 -19.7418 -19.7409 -19.7409
    -9.1163  -9.1163  -8.8012  -8.8012  -8.5529  -8.5529  -8.2366  -8.2366
    -8.2184  -8.2184  -8.0978  -8.0978  -7.8764  -7.8763  -7.8254  -7.8254
    -7.6728  -7.6728  -7.6182  -7.6182  -7.5832  -7.5832  -7.2241  -7.2241
     2.0666   2.0666   2.4517   2.4517   2.7551   2.7551   2.9021   2.9021
     3.3150   3.3150   3.4383   3.4384   3.5026   3.5026   3.6735   3.6736
     3.7943   3.7943   3.8433   3.8433   4.0814   4.0814   4.1847   4.1847
     4.3742   4.3742   4.5049   4.5050   4.7285   4.7285   4.8469   4.8469
     5.1990   5.1990   5.3207   5.3207   5.4546   5.4546   5.5325   5.5325
     5.6065   5.6065   5.8674   5.8674   6.1074   6.1074   6.2001   6.2001
     6.9686   6.9686   7.1919   7.1920   7.2642   7.2642   7.3489   7.3489
     7.4762   7.4762   7.5392   7.5392   7.6337   7.6337   7.8846   7.8846
     7.9493   7.9493   8.0937   8.0937   8.1228   8.1228   8.2965   8.2965
    11.3749  11.3750  11.9262  11.9262  12.1225  12.1225  12.2511  12.2511
    12.5339  12.5339  12.7237  12.7237  12.9411  12.9411  13.1406  13.1406
    13.3028  13.3028  13.3975  13.3975  13.7126  13.7127  13.9227  13.9227
    15.5710  15.5710  16.1905  16.1905  16.8252  16.8252  16.9900  16.9900
    17.1260  17.1260  17.7540  17.7541  18.0449

          k = 0.1667-0.4926 0.1667 ( 60640 PWs)   bands (ev):

   -65.6468 -65.6468 -65.6461 -65.6460 -65.6459 -65.6459 -65.6452 -65.6452
   -30.1860 -30.1860 -30.1823 -30.1823 -30.1133 -30.1133 -30.1096 -30.1096
   -29.9665 -29.9665 -29.9644 -29.9644 -29.9606 -29.9606 -29.9585 -29.9585
   -29.9033 -29.9032 -29.8963 -29.8963 -29.8344 -29.8344 -29.8295 -29.8295
   -19.7966 -19.7966 -19.7964 -19.7964 -19.7958 -19.7958 -19.7956 -19.7956
   -19.7860 -19.7860 -19.7858 -19.7858 -19.7848 -19.7848 -19.7845 -19.7845
   -19.7789 -19.7789 -19.7786 -19.7786 -19.7753 -19.7752 -19.7750 -19.7750
   -19.7603 -19.7602 -19.7598 -19.7598 -19.7597 -19.7597 -19.7590 -19.7590
   -19.7585 -19.7585 -19.7585 -19.7585 -19.7574 -19.7574 -19.7573 -19.7573
   -19.7517 -19.7517 -19.7512 -19.7512 -19.7484 -19.7484 -19.7480 -19.7480
   -19.7431 -19.7431 -19.7427 -19.7427 -19.7411 -19.7411 -19.7407 -19.7407
    -9.2353  -9.2353  -8.9547  -8.9547  -8.5058  -8.5058  -8.2909  -8.2909
    -8.0642  -8.0642  -7.9895  -7.9895  -7.9559  -7.9559  -7.9138  -7.9138
    -7.7274  -7.7274  -7.6080  -7.6079  -7.2842  -7.2842  -7.1712  -7.1712
     2.0470   2.0470   2.0824   2.0824   2.4329   2.4329   2.5940   2.5940
     3.0355   3.0355   3.2011   3.2011   3.3401   3.3401   3.6930   3.6930
     3.7312   3.7312   3.9879   3.9879   4.1163   4.1163   4.3287   4.3287
     4.3813   4.3813   4.7244   4.7244   4.8484   4.8484   5.3555   5.3555
     5.4275   5.4275   5.5008   5.5008   5.6075   5.6075   5.9186   5.9186
     5.9529   5.9529   6.0644   6.0644   6.0990   6.0990   6.2427   6.2427
     6.8927   6.8927   7.0141   7.0141   7.1459   7.1459   7.3101   7.3101
     7.5332   7.5332   7.5795   7.5796   7.6584   7.6584   7.7379   7.7379
     7.8780   7.8780   8.0646   8.0646   8.1639   8.1640   8.2012   8.2012
    11.0264  11.0264  11.7370  11.7370  11.8405  11.8405  12.3179  12.3179
    12.4351  12.4351  12.6996  12.6996  12.9867  12.9867  13.1523  13.1524
    13.4200  13.4200  13.5829  13.5829  13.6383  13.6383  14.0383  14.0383
    15.5629  15.5629  15.8180  15.8180  16.3885  16.3885  16.5129  16.5129
    17.1757  17.1758  18.1943  18.1943  18.3665

          k = 0.1667-0.4926 0.3333 ( 60654 PWs)   bands (ev):

   -65.6466 -65.6466 -65.6462 -65.6461 -65.6459 -65.6458 -65.6454 -65.6453
   -30.1853 -30.1831 -30.1706 -30.1669 -30.1285 -30.1249 -30.1125 -30.1104
   -29.9663 -29.9654 -29.9649 -29.9633 -29.9619 -29.9604 -29.9599 -29.9591
   -29.9019 -29.8979 -29.8885 -29.8822 -29.8489 -29.8437 -29.8334 -29.8306
   -19.7966 -19.7965 -19.7964 -19.7962 -19.7960 -19.7958 -19.7957 -19.7956
   -19.7860 -19.7858 -19.7857 -19.7855 -19.7851 -19.7848 -19.7848 -19.7846
   -19.7788 -19.7786 -19.7782 -19.7779 -19.7761 -19.7758 -19.7752 -19.7751
   -19.7602 -19.7601 -19.7599 -19.7598 -19.7596 -19.7595 -19.7592 -19.7591
   -19.7585 -19.7585 -19.7584 -19.7583 -19.7577 -19.7576 -19.7574 -19.7573
   -19.7516 -19.7513 -19.7509 -19.7504 -19.7490 -19.7486 -19.7483 -19.7481
   -19.7430 -19.7428 -19.7428 -19.7423 -19.7416 -19.7412 -19.7410 -19.7407
    -9.1594  -9.0504  -8.9981  -8.7398  -8.6080  -8.3526  -8.2412  -8.1816
    -8.1571  -8.0996  -8.0147  -7.9659  -7.9517  -7.9464  -7.9416  -7.8901
    -7.8551  -7.7917  -7.7045  -7.6285  -7.5150  -7.4070  -7.2582  -7.1929
     2.0600   2.0794   2.4203   2.4533   2.6460   2.8447   2.9502   3.0995
     3.2233   3.2366   3.2584   3.2835   3.4463   3.4829   3.5868   3.6673
     3.7113   3.7336   3.9952   4.0310   4.1517   4.2605   4.2728   4.3065
     4.3298   4.4080   4.4291   4.4733   4.6827   4.7500   4.9415   5.0124
     5.0804   5.1760   5.2977   5.3671   5.3759   5.4637   5.4940   5.5304
     5.6164   5.6797   5.7882   5.9014   6.0724   6.0983   6.1589   6.1659
     6.9546   6.9849   7.1114   7.1280   7.2291   7.3665   7.4327   7.4751
     7.5303   7.5606   7.5986   7.6469   7.6813   7.7072   7.7434   7.7835
     7.9240   7.9556   8.0420   8.0939   8.1516   8.1651   8.1843   8.1981
    11.3884  11.4946  11.7439  11.8738  12.0146  12.1604  12.3137  12.4193
    12.5052  12.5415  12.6352  12.7791  12.8785  12.9498  13.0400  13.1210
    13.2111  13.3278  13.3683  13.3844  13.6331  13.6614  13.9040  13.9393
    15.5427  15.7388  15.9493  16.3962  16.4859  16.6699  16.8855  17.0371
    17.3097  17.3479  17.8831  18.0054  18.1039

          k = 0.1667-0.4926-0.5000 ( 60620 PWs)   bands (ev):

   -65.6464 -65.6464 -65.6463 -65.6463 -65.6456 -65.6456 -65.6455 -65.6455
   -30.1842 -30.1842 -30.1495 -30.1495 -30.1459 -30.1459 -30.1114 -30.1114
   -29.9657 -29.9657 -29.9636 -29.9636 -29.9617 -29.9617 -29.9598 -29.9598
   -29.9000 -29.9000 -29.8687 -29.8687 -29.8629 -29.8629 -29.8321 -29.8320
   -19.7965 -19.7965 -19.7962 -19.7962 -19.7960 -19.7959 -19.7957 -19.7957
   -19.7859 -19.7859 -19.7854 -19.7854 -19.7851 -19.7851 -19.7847 -19.7847
   -19.7787 -19.7787 -19.7772 -19.7771 -19.7769 -19.7769 -19.7751 -19.7751
   -19.7600 -19.7600 -19.7599 -19.7599 -19.7594 -19.7594 -19.7593 -19.7593
   -19.7585 -19.7585 -19.7581 -19.7581 -19.7580 -19.7580 -19.7574 -19.7574
   -19.7515 -19.7514 -19.7499 -19.7499 -19.7494 -19.7494 -19.7482 -19.7482
   -19.7429 -19.7429 -19.7423 -19.7423 -19.7418 -19.7418 -19.7409 -19.7409
    -9.0730  -9.0730  -8.8054  -8.8054  -8.4385  -8.4385  -8.1862  -8.1862
    -8.1414  -8.1414  -8.0471  -8.0471  -7.9363  -7.9363  -7.9222  -7.9222
    -7.7763  -7.7762  -7.7186  -7.7185  -7.6170  -7.6169  -7.2247  -7.2246
     2.0688   2.0688   2.4604   2.4604   3.1321   3.1322   3.3845   3.3845
     3.4586   3.4586   3.4832   3.4832   3.5232   3.5232   3.6246   3.6246
     3.8020   3.8020   3.8567   3.8568   3.9516   3.9517   4.1155   4.1155
     4.3114   4.3114   4.4129   4.4129   4.7208   4.7208   4.7914   4.7914
     4.9025   4.9025   4.9794   4.9794   5.3195   5.3195   5.4547   5.4547
     5.5512   5.5512   5.7670   5.7670   6.1079   6.1079   6.1242   6.1242
     6.9801   6.9802   7.2197   7.2197   7.3073   7.3073   7.4229   7.4229
     7.5782   7.5782   7.6603   7.6603   7.7567   7.7567   7.8642   7.8642
     7.9364   7.9364   8.1015   8.1015   8.1284   8.1285   8.1742   8.1742
    11.6632  11.6632  12.0361  12.0361  12.0991  12.0991  12.4348  12.4348
    12.4732  12.4732  12.6816  12.6816  12.8981  12.8981  13.0053  13.0053
    13.1431  13.1431  13.2679  13.2679  13.7369  13.7369  13.7651  13.7651
    15.6234  15.6234  16.2674  16.2674  17.1437  17.1438  17.3410  17.3410
    17.5435  17.5436  17.7212  17.7214  17.8032

          k = 0.3333 0.0000 0.3333 ( 60614 PWs)   bands (ev):

   -65.6468 -65.6464 -65.6464 -65.6460 -65.6459 -65.6456 -65.6456 -65.6451
   -30.1716 -30.1686 -30.1679 -30.1677 -30.1288 -30.1280 -30.1277 -30.1236
   -30.0045 -30.0015 -30.0012 -29.9983 -29.9252 -29.9236 -29.9232 -29.9214
   -29.8882 -29.8863 -29.8838 -29.8834 -29.8479 -29.8477 -29.8458 -29.8439
   -19.7965 -19.7963 -19.7963 -19.7963 -19.7959 -19.7959 -19.7959 -19.7957
   -19.7857 -19.7857 -19.7857 -19.7854 -19.7851 -19.7849 -19.7848 -19.7848
   -19.7781 -19.7781 -19.7779 -19.7779 -19.7760 -19.7760 -19.7759 -19.7758
   -19.7627 -19.7625 -19.7625 -19.7622 -19.7594 -19.7592 -19.7591 -19.7587
   -19.7584 -19.7580 -19.7580 -19.7577 -19.7559 -19.7558 -19.7557 -19.7555
   -19.7510 -19.7506 -19.7505 -19.7505 -19.7489 -19.7489 -19.7488 -19.7484
   -19.7429 -19.7425 -19.7425 -19.7424 -19.7415 -19.7415 -19.7414 -19.7410
    -9.2284  -9.0057  -8.9883  -8.8199  -8.7504  -8.5412  -8.5110  -8.3972
    -8.1633  -8.1319  -8.0834  -8.0154  -8.0068  -7.9464  -7.8757  -7.8522
    -7.5142  -7.4952  -7.4657  -7.4220  -7.3234  -7.2930  -7.2911  -7.2602
     2.0241   2.0307   2.0466   2.0484   2.6737   2.6948   2.7175   2.7268
     3.0209   3.0367   3.1237   3.1425   3.2211   3.3626   3.3710   3.4700
     3.5987   3.6518   4.0287   4.1584   4.2024   4.2241   4.3478   4.5117
     4.5373   4.6047   4.7083   4.7266   4.8698   4.9693   5.0724   5.0792
     5.1255   5.2734   5.4625   5.5333   5.5695   5.6309   5.6734   5.7201
     5.7568   5.9306   6.0151   6.0864   6.3747   6.4382   6.4604   6.6341
     6.7682   6.8253   6.9010   6.9036   6.9444   7.0325   7.0503   7.0637
     7.4317   7.4677   7.5942   7.5970   7.6417   7.7125   7.7777   7.7803
     7.8625   7.8911   8.0596   8.0633   8.1416   8.2581   8.3826   8.4569
    11.1915  11.2217  11.4454  11.4667  11.9545  12.0562  12.3255  12.3381
    12.4691  12.5211  12.7495  12.7857  13.0962  13.1156  13.3254  13.3480
    13.4451  13.6010  13.6589  13.7042  13.8448  13.9469  14.0189  14.1246
    15.4125  15.5800  15.6019  15.9904  16.0222  16.2247  16.6338  16.8079
    16.8286  17.3267  17.4491  17.8492  17.8545

          k = 0.3333 0.0000-0.5000 ( 60636 PWs)   bands (ev):

   -65.6466 -65.6466 -65.6461 -65.6461 -65.6458 -65.6458 -65.6454 -65.6454
   -30.1691 -30.1691 -30.1489 -30.1489 -30.1470 -30.1470 -30.1268 -30.1268
   -30.0030 -30.0030 -29.9999 -29.9999 -29.9243 -29.9243 -29.9224 -29.9224
   -29.8855 -29.8855 -29.8674 -29.8674 -29.8643 -29.8643 -29.8463 -29.8463
   -19.7964 -19.7964 -19.7961 -19.7961 -19.7961 -19.7961 -19.7958 -19.7958
   -19.7857 -19.7857 -19.7854 -19.7854 -19.7852 -19.7851 -19.7849 -19.7849
   -19.7780 -19.7780 -19.7771 -19.7771 -19.7769 -19.7769 -19.7759 -19.7759
   -19.7626 -19.7626 -19.7624 -19.7624 -19.7592 -19.7592 -19.7587 -19.7587
   -19.7584 -19.7584 -19.7579 -19.7579 -19.7558 -19.7558 -19.7556 -19.7556
   -19.7507 -19.7507 -19.7498 -19.7498 -19.7496 -19.7496 -19.7487 -19.7487
   -19.7427 -19.7426 -19.7420 -19.7420 -19.7420 -19.7419 -19.7413 -19.7413
    -9.0954  -9.0954  -8.8458  -8.8458  -8.6413  -8.6413  -8.3179  -8.3179
    -8.2686  -8.2686  -8.0259  -8.0259  -7.9919  -7.9918  -7.8091  -7.8090
    -7.6981  -7.6981  -7.4710  -7.4710  -7.3096  -7.3095  -7.2774  -7.2774
     2.0277   2.0277   2.0489   2.0489   2.7199   2.7199   3.0144   3.0144
     3.2211   3.2212   3.4421   3.4421   3.5496   3.5496   3.6647   3.6647
     3.7421   3.7422   3.9016   3.9016   4.0609   4.0609   4.1396   4.1396
     4.3876   4.3876   4.4960   4.4960   4.6839   4.6839   4.9145   4.9145
     5.1408   5.1408   5.3335   5.3336   5.5795   5.5795   5.6108   5.6108
     5.7925   5.7925   6.0174   6.0174   6.4424   6.4424   6.5898   6.5898
     6.7854   6.7854   6.8728   6.8729   6.9294   6.9294   7.0343   7.0343
     7.5638   7.5638   7.6255   7.6255   7.7297   7.7297   7.9135   7.9135
     7.9686   7.9686   8.0309   8.0309   8.1185   8.1185   8.3953   8.3953
    11.3073  11.3073  11.8879  11.8879  11.9354  11.9354  12.3622  12.3622
    12.4716  12.4716  12.6064  12.6064  13.0617  13.0617  13.3247  13.3247
    13.4404  13.4404  13.7115  13.7115  13.8174  13.8174  14.0378  14.0378
    15.5330  15.5330  15.8521  15.8521  16.3521  16.3521  16.8604  16.8604
    17.2566  17.2566  17.5883  17.5883  18.0939

          k = 0.3333 0.1642 0.3333 ( 60639 PWs)   bands (ev):

   -65.6468 -65.6463 -65.6463 -65.6461 -65.6459 -65.6456 -65.6456 -65.6452
   -30.1713 -30.1687 -30.1679 -30.1677 -30.1285 -30.1279 -30.1275 -30.1239
   -29.9992 -29.9964 -29.9962 -29.9933 -29.9305 -29.9288 -29.9285 -29.9267
   -29.8881 -29.8864 -29.8837 -29.8835 -29.8479 -29.8478 -29.8457 -29.8440
   -19.7965 -19.7963 -19.7963 -19.7963 -19.7959 -19.7959 -19.7959 -19.7957
   -19.7857 -19.7857 -19.7856 -19.7855 -19.7851 -19.7849 -19.7848 -19.7848
   -19.7781 -19.7781 -19.7779 -19.7779 -19.7760 -19.7760 -19.7759 -19.7758
   -19.7623 -19.7621 -19.7620 -19.7618 -19.7594 -19.7592 -19.7591 -19.7587
   -19.7584 -19.7580 -19.7580 -19.7577 -19.7563 -19.7562 -19.7561 -19.7559
   -19.7510 -19.7506 -19.7505 -19.7505 -19.7489 -19.7489 -19.7488 -19.7485
   -19.7429 -19.7425 -19.7425 -19.7424 -19.7415 -19.7415 -19.7414 -19.7410
    -9.1840  -8.9577  -8.9385  -8.8332  -8.6771  -8.5335  -8.5014  -8.3649
    -8.1574  -8.1214  -8.0853  -8.0125  -8.0117  -7.9430  -7.8756  -7.8517
    -7.5229  -7.5052  -7.4896  -7.4231  -7.4106  -7.3845  -7.3818  -7.3485
     2.2053   2.2324   2.2458   2.2775   2.6719   2.7007   2.7213   2.7254
     3.0215   3.0404   3.1255   3.2144   3.2284   3.4182   3.4511   3.5584
     3.6186   3.6496   4.0361   4.1569   4.2333   4.2420   4.3769   4.5036
     4.5591   4.6304   4.6982   4.7175   4.8356   4.8559   4.9877   5.0123
     5.0693   5.2160   5.3385   5.4227   5.4321   5.4594   5.4725   5.6583
     5.6653   5.7663   5.7892   5.9536   6.1869   6.3078   6.3217   6.4340
     6.8760   6.8929   7.0080   7.0581   7.0825   7.1193   7.2049   7.2467
[...]
    11.4047  11.4047  11.9337  11.9337  12.0144  12.0144  12.3689  12.3689
    12.5144  12.5144  12.6253  12.6253  13.0458  13.0458  13.2747  13.2747
    13.3515  13.3515  13.5882  13.5882  13.7180  13.7180  13.9689  13.9689
    15.7644  15.7644  16.0973  16.0973  16.4390  16.4390  16.8753  16.8753
    17.2619  17.2619  17.6084  17.6084  18.0835

          k = 0.3333 0.3284 0.3333 ( 60653 PWs)   bands (ev):

   -65.6466 -65.6462 -65.6462 -65.6462 -65.6458 -65.6458 -65.6457 -65.6453
   -30.1707 -30.1691 -30.1678 -30.1677 -30.1280 -30.1278 -30.1268 -30.1246
   -29.9849 -29.9824 -29.9821 -29.9796 -29.9452 -29.9433 -29.9430 -29.9411
   -29.8878 -29.8868 -29.8837 -29.8836 -29.8479 -29.8478 -29.8453 -29.8444
   -19.7965 -19.7963 -19.7963 -19.7963 -19.7959 -19.7959 -19.7958 -19.7957
   -19.7857 -19.7857 -19.7856 -19.7855 -19.7851 -19.7849 -19.7848 -19.7848
   -19.7781 -19.7781 -19.7779 -19.7779 -19.7760 -19.7760 -19.7759 -19.7758
   -19.7612 -19.7610 -19.7609 -19.7607 -19.7594 -19.7592 -19.7591 -19.7587
   -19.7585 -19.7581 -19.7580 -19.7578 -19.7573 -19.7572 -19.7570 -19.7570
   -19.7509 -19.7507 -19.7505 -19.7505 -19.7489 -19.7489 -19.7488 -19.7485
   -19.7428 -19.7425 -19.7424 -19.7424 -19.7415 -19.7415 -19.7414 -19.7411
    -9.0760  -8.8856  -8.8436  -8.8331  -8.5154  -8.4738  -8.4627  -8.2651
    -8.1304  -8.0941  -8.0750  -8.0342  -7.9954  -7.9320  -7.8782  -7.8491
    -7.6846  -7.6604  -7.6520  -7.6230  -7.4836  -7.4816  -7.4250  -7.4205
     2.5784   2.6159   2.6203   2.6749   2.8061   2.8200   2.8404   2.8637
     3.0465   3.0852   3.1298   3.2369   3.4116   3.5226   3.5989   3.6766
     3.6951   3.8678   4.0314   4.0833   4.1955   4.2910   4.3459   4.4122
     4.5118   4.5556   4.5821   4.6462   4.6941   4.7793   4.8388   4.8946
     5.0009   5.0056   5.1314   5.2152   5.2366   5.2886   5.3135   5.3696
     5.4546   5.5359   5.5889   5.6152   5.7280   5.8439   5.8649   5.9674
     7.0954   7.1271   7.2213   7.2770   7.3722   7.3927   7.4207   7.4594
     7.5101   7.5362   7.6420   7.6554   7.6764   7.7546   7.8133   7.8263
     7.9114   7.9409   8.0522   8.0794   8.1671   8.1980   8.2821   8.3002
    11.5580  11.5588  11.7489  11.8656  11.9974  12.1764  12.4550  12.5260
    12.5976  12.6773  12.7412  12.7970  12.9103  12.9982  13.0264  13.0906
    13.1713  13.2575  13.3638  13.4470  13.5848  13.7023  13.7205  13.8904
    15.9741  16.1464  16.2032  16.2850  16.4814  16.8046  16.8937  16.9621
    17.2079  17.3667  17.5431  17.6601  17.9919

          k = 0.3333 0.3284-0.5000 ( 60664 PWs)   bands (ev):

   -65.6464 -65.6464 -65.6460 -65.6460 -65.6459 -65.6459 -65.6456 -65.6456
   -30.1688 -30.1688 -30.1488 -30.1488 -30.1467 -30.1467 -30.1267 -30.1267
   -29.9836 -29.9836 -29.9810 -29.9810 -29.9442 -29.9442 -29.9422 -29.9422
   -29.8855 -29.8855 -29.8675 -29.8675 -29.8643 -29.8642 -29.8464 -29.8464
   -19.7964 -19.7964 -19.7961 -19.7961 -19.7960 -19.7960 -19.7959 -19.7959
   -19.7857 -19.7856 -19.7854 -19.7854 -19.7852 -19.7851 -19.7849 -19.7849
   -19.7780 -19.7780 -19.7771 -19.7771 -19.7769 -19.7769 -19.7759 -19.7759
   -19.7611 -19.7611 -19.7608 -19.7608 -19.7593 -19.7593 -19.7588 -19.7588
   -19.7584 -19.7584 -19.7580 -19.7580 -19.7573 -19.7572 -19.7570 -19.7570
   -19.7507 -19.7507 -19.7498 -19.7498 -19.7496 -19.7496 -19.7488 -19.7488
   -19.7426 -19.7426 -19.7421 -19.7421 -19.7419 -19.7419 -19.7414 -19.7413
    -8.9360  -8.9360  -8.6749  -8.6749  -8.6075  -8.6075  -8.2932  -8.2932
    -8.1968  -8.1968  -8.0162  -8.0162  -7.9802  -7.9801  -7.8194  -7.8193
    -7.7316  -7.7316  -7.6351  -7.6351  -7.6058  -7.6057  -7.4515  -7.4515
     2.6190   2.6190   2.7943   2.7944   2.8426   2.8427   3.0389   3.0389
     3.3752   3.3752   3.5040   3.5040   3.5733   3.5733   3.7080   3.7080
     3.8697   3.8697   3.9727   3.9727   4.1120   4.1120   4.2262   4.2262
     4.4225   4.4225   4.5315   4.5315   4.5908   4.5908   4.7330   4.7330
     4.8739   4.8739   5.0383   5.0384   5.1068   5.1068   5.2992   5.2993
     5.3817   5.3817   5.4613   5.4613   5.6171   5.6171   5.8673   5.8673
     7.1509   7.1509   7.3373   7.3373   7.3568   7.3568   7.4798   7.4798
     7.6018   7.6018   7.6522   7.6522   7.8031   7.8031   7.9170   7.9170
     7.9644   7.9644   8.0882   8.0882   8.1123   8.1123   8.2763   8.2763
    11.6827  11.6827  12.0698  12.0698  12.2303  12.2303  12.3960  12.3960
    12.6042  12.6042  12.7306  12.7306  12.8910  12.8910  13.0556  13.0556
    13.2137  13.2137  13.3610  13.3610  13.4735  13.4735  13.7334  13.7334
    16.1816  16.1816  16.5404  16.5404  16.8776  16.8776  17.0318  17.0318
    17.3113  17.3113  17.6427  17.6427  18.0260

          k = 0.3333-0.4926 0.3333 ( 60670 PWs)   bands (ev):

   -65.6464 -65.6464 -65.6460 -65.6460 -65.6459 -65.6459 -65.6455 -65.6455
   -30.1698 -30.1698 -30.1677 -30.1677 -30.1278 -30.1278 -30.1256 -30.1256
   -29.9651 -29.9651 -29.9639 -29.9639 -29.9617 -29.9617 -29.9605 -29.9604
   -29.8873 -29.8873 -29.8837 -29.8837 -29.8478 -29.8478 -29.8449 -29.8448
   -19.7964 -19.7964 -19.7963 -19.7963 -19.7959 -19.7959 -19.7958 -19.7958
   -19.7857 -19.7857 -19.7856 -19.7856 -19.7850 -19.7850 -19.7848 -19.7848
   -19.7781 -19.7781 -19.7779 -19.7779 -19.7760 -19.7760 -19.7759 -19.7759
   -19.7600 -19.7600 -19.7597 -19.7597 -19.7596 -19.7596 -19.7593 -19.7593
   -19.7584 -19.7584 -19.7583 -19.7583 -19.7577 -19.7577 -19.7576 -19.7576
   -19.7508 -19.7508 -19.7505 -19.7505 -19.7489 -19.7489 -19.7487 -19.7487
   -19.7427 -19.7427 -19.7424 -19.7424 -19.7415 -19.7415 -19.7413 -19.7413
    -8.9618  -8.9618  -8.7865  -8.7865  -8.4658  -8.4658  -8.2140  -8.2140
    -8.1412  -8.1412  -7.9864  -7.9864  -7.9329  -7.9329  -7.8967  -7.8967
    -7.8493  -7.8493  -7.8002  -7.8002  -7.4890  -7.4890  -7.4265  -7.4264
     2.6422   2.6422   2.6715   2.6715   2.9773   2.9773   3.0922   3.0922
     3.2884   3.2885   3.4119   3.4119   3.5679   3.5679   3.6454   3.6454
     3.7054   3.7055   4.0745   4.0745   4.2937   4.2937   4.3093   4.3093
     4.3509   4.3509   4.5164   4.5164   4.6018   4.6018   4.7447   4.7447
     5.0003   5.0003   5.0415   5.0415   5.1744   5.1745   5.3147   5.3147
     5.3776   5.3776   5.4652   5.4652   5.5661   5.5661   5.7274   5.7274
     7.1701   7.1701   7.3217   7.3217   7.4642   7.4642   7.5482   7.5482
     7.6323   7.6323   7.6738   7.6738   7.7464   7.7464   7.8664   7.8664
     7.9604   7.9604   8.0595   8.0595   8.1525   8.1525   8.1865   8.1865
    11.7237  11.7237  12.0068  12.0068  12.2087  12.2087  12.4993  12.4993
    12.6368  12.6368  12.7363  12.7363  12.8579  12.8579  12.9384  12.9385
    13.1517  13.1517  13.3365  13.3365  13.4213  13.4213  13.7404  13.7404
    16.1015  16.1015  16.4268  16.4268  16.9007  16.9007  17.0489  17.0489
    17.4634  17.4634  17.9228  17.9229  18.0463

          k = 0.3333-0.4926-0.5000 ( 60672 PWs)   bands (ev):

   -65.6462 -65.6462 -65.6462 -65.6462 -65.6458 -65.6458 -65.6457 -65.6457
   -30.1688 -30.1688 -30.1488 -30.1488 -30.1466 -30.1466 -30.1267 -30.1267
   -29.9646 -29.9646 -29.9635 -29.9634 -29.9623 -29.9623 -29.9611 -29.9611
   -29.8855 -29.8855 -29.8675 -29.8675 -29.8642 -29.8642 -29.8464 -29.8464
   -19.7963 -19.7963 -19.7962 -19.7962 -19.7960 -19.7960 -19.7959 -19.7959
   -19.7856 -19.7856 -19.7854 -19.7854 -19.7852 -19.7851 -19.7849 -19.7849
   -19.7780 -19.7780 -19.7771 -19.7771 -19.7769 -19.7769 -19.7759 -19.7759
   -19.7599 -19.7598 -19.7598 -19.7598 -19.7595 -19.7595 -19.7594 -19.7594
   -19.7584 -19.7583 -19.7582 -19.7581 -19.7580 -19.7579 -19.7577 -19.7577
   -19.7507 -19.7507 -19.7498 -19.7498 -19.7495 -19.7495 -19.7488 -19.7488
   -19.7425 -19.7425 -19.7422 -19.7421 -19.7419 -19.7419 -19.7414 -19.7414
    -8.8662  -8.8661  -8.6948  -8.6947  -8.4849  -8.4848  -8.3072  -8.3072
    -8.0962  -8.0962  -8.0004  -8.0004  -7.9421  -7.9421  -7.9037  -7.9037
    -7.8304  -7.8304  -7.7640  -7.7639  -7.6651  -7.6651  -7.4563  -7.4563
     2.6669   2.6669   2.9791   2.9791   3.1973   3.1973   3.3509   3.3509
     3.4520   3.4520   3.5364   3.5364   3.5946   3.5946   3.6173   3.6173
     3.8532   3.8532   3.9243   3.9244   4.0389   4.0390   4.3226   4.3227
     4.3625   4.3625   4.4725   4.4726   4.5481   4.5481   4.7502   4.7502
     4.8778   4.8778   4.9364   4.9364   4.9939   4.9939   5.0344   5.0344
     5.1794   5.1795   5.3367   5.3367   5.4915   5.4915   5.5295   5.5295
     7.2235   7.2235   7.4506   7.4507   7.4918   7.4918   7.5644   7.5644
     7.6513   7.6513   7.7058   7.7059   7.8543   7.8543   7.9002   7.9002
     7.9662   7.9662   8.0933   8.0934   8.1223   8.1223   8.1757   8.1757
    11.9239  11.9239  12.1723  12.1723  12.3293  12.3293  12.5029  12.5029
    12.5706  12.5706  12.7899  12.7899  12.8632  12.8632  12.9285  12.9286
    13.0585  13.0585  13.1040  13.1040  13.4711  13.4711  13.5331  13.5331
    16.2894  16.2894  16.7014  16.7014  17.2475  17.2475  17.3088  17.3088
    17.6171  17.6172  17.7307  17.7309  17.8073

          k =-0.5000 0.0000-0.5000 ( 60676 PWs)   bands (ev):

   -65.6464 -65.6464 -65.6464 -65.6463 -65.6456 -65.6456 -65.6456 -65.6456
   -30.1503 -30.1503 -30.1496 -30.1496 -30.1462 -30.1462 -30.1456 -30.1456
   -30.0017 -30.0017 -30.0015 -30.0014 -29.9236 -29.9236 -29.9232 -29.9232
   -29.8669 -29.8669 -29.8668 -29.8667 -29.8651 -29.8651 -29.8648 -29.8647
   -19.7962 -19.7962 -19.7962 -19.7962 -19.7960 -19.7960 -19.7960 -19.7959
   -19.7855 -19.7855 -19.7853 -19.7853 -19.7852 -19.7852 -19.7851 -19.7851
   -19.7771 -19.7770 -19.7770 -19.7770 -19.7770 -19.7770 -19.7768 -19.7768
   -19.7625 -19.7625 -19.7625 -19.7625 -19.7590 -19.7589 -19.7588 -19.7588
   -19.7583 -19.7582 -19.7582 -19.7582 -19.7558 -19.7558 -19.7556 -19.7556
   -19.7500 -19.7499 -19.7498 -19.7498 -19.7495 -19.7495 -19.7494 -19.7494
   -19.7423 -19.7423 -19.7422 -19.7422 -19.7418 -19.7418 -19.7417 -19.7417
    -8.9600  -8.9600  -8.9347  -8.9347  -8.4590  -8.4590  -8.3767  -8.3766
    -8.2683  -8.2683  -8.1788  -8.1788  -7.8389  -7.8389  -7.7870  -7.7870
    -7.7388  -7.7388  -7.6807  -7.6807  -7.2965  -7.2965  -7.2934  -7.2934
     2.0284   2.0284   2.0503   2.0503   3.2611   3.2611   3.2909   3.2909
     3.4326   3.4326   3.4440   3.4440   3.6845   3.6845   3.7969   3.7969
     3.8235   3.8235   3.8770   3.8770   3.9380   3.9380   4.0725   4.0725
     4.1033   4.1034   4.3701   4.3701   4.6289   4.6289   4.6896   4.6896
     4.8001   4.8001   4.9442   4.9442   5.5151   5.5152   5.5748   5.5748
     5.8323   5.8324   5.9083   5.9084   6.5426   6.5426   6.5725   6.5725
     6.7850   6.7850   6.8566   6.8566   6.9275   6.9275   6.9275   6.9275
     7.7171   7.7171   7.7458   7.7458   7.8110   7.8110   7.9361   7.9361
     8.0047   8.0047   8.0160   8.0160   8.1023   8.1024   8.3388   8.3388
    11.6947  11.6947  11.9000  11.9000  11.9450  11.9450  12.1584  12.1584
    12.7235  12.7235  12.7763  12.7763  12.8880  12.8880  12.9743  12.9743
    13.5111  13.5112  13.6621  13.6621  13.8273  13.8273  13.9584  13.9584
    15.7055  15.7055  15.7621  15.7621  16.8319  16.8319  17.2656  17.2656
    17.3112  17.3112  17.4107  17.4107  17.7759

          k =-0.5000 0.1642-0.5000 ( 60660 PWs)   bands (ev):

   -65.6463 -65.6463 -65.6463 -65.6463 -65.6457 -65.6457 -65.6456 -65.6456
   -30.1500 -30.1500 -30.1492 -30.1492 -30.1464 -30.1464 -30.1458 -30.1458
   -29.9966 -29.9966 -29.9963 -29.9963 -29.9290 -29.9289 -29.9286 -29.9285
   -29.8668 -29.8668 -29.8667 -29.8667 -29.8653 -29.8652 -29.8649 -29.8649
   -19.7962 -19.7962 -19.7962 -19.7962 -19.7960 -19.7960 -19.7960 -19.7960
   -19.7855 -19.7855 -19.7853 -19.7853 -19.7852 -19.7852 -19.7851 -19.7851
   -19.7771 -19.7770 -19.7770 -19.7770 -19.7770 -19.7770 -19.7769 -19.7768
   -19.7621 -19.7621 -19.7621 -19.7620 -19.7590 -19.7590 -19.7588 -19.7588
   -19.7583 -19.7583 -19.7582 -19.7582 -19.7562 -19.7562 -19.7560 -19.7560
   -19.7499 -19.7499 -19.7498 -19.7498 -19.7495 -19.7495 -19.7495 -19.7494
   -19.7423 -19.7423 -19.7422 -19.7422 -19.7418 -19.7418 -19.7417 -19.7417
    -8.9020  -8.9020  -8.8727  -8.8727  -8.4704  -8.4703  -8.3896  -8.3896
    -8.2481  -8.2481  -8.1619  -8.1618  -7.8411  -7.8410  -7.7872  -7.7872
    -7.7439  -7.7439  -7.6811  -7.6810  -7.3935  -7.3935  -7.3881  -7.3881
     2.2376   2.2376   2.2601   2.2601   3.2736   3.2736   3.3112   3.3112
     3.4388   3.4388   3.4426   3.4426   3.6963   3.6963   3.8294   3.8294
     3.8386   3.8386   3.8825   3.8825   3.9811   3.9811   4.0993   4.0994
     4.1517   4.1517   4.4165   4.4165   4.6142   4.6143   4.6861   4.6861
     4.7820   4.7820   4.9399   4.9399   5.2713   5.2713   5.3246   5.3246
     5.6068   5.6069   5.6436   5.6436   6.3093   6.3093   6.3128   6.3128
     6.9435   6.9435   7.0339   7.0339   7.1057   7.1057   7.1522   7.1522
     7.7233   7.7234   7.7519   7.7519   7.8296   7.8296   7.9387   7.9387
     8.0101   8.0101   8.0386   8.0386   8.1007   8.1008   8.3178   8.3178
    11.7647  11.7647  11.9794  11.9794  11.9899  11.9900  12.2284  12.2284
    12.7292  12.7292  12.7627  12.7627  12.8981  12.8981  12.9789  12.9789
    13.3784  13.3784  13.5305  13.5305  13.7337  13.7337  13.8611  13.8611
    15.9912  15.9912  16.0324  16.0324  16.8903  16.8903  17.2572  17.2572
    17.2843  17.2843  17.4306  17.4306  17.8112

          k =-0.5000 0.3284-0.5000 ( 60724 PWs)   bands (ev):

   -65.6462 -65.6462 -65.6462 -65.6462 -65.6458 -65.6458 -65.6458 -65.6458
   -30.1492 -30.1491 -30.1484 -30.1484 -30.1470 -30.1470 -30.1464 -30.1464
   -29.9825 -29.9825 -29.9823 -29.9822 -29.9435 -29.9434 -29.9431 -29.9431
   -29.8664 -29.8664 -29.8664 -29.8664 -29.8656 -29.8656 -29.8653 -29.8653
   -19.7962 -19.7962 -19.7961 -19.7961 -19.7961 -19.7960 -19.7960 -19.7960
   -19.7854 -19.7854 -19.7853 -19.7853 -19.7853 -19.7852 -19.7851 -19.7851
   -19.7771 -19.7771 -19.7771 -19.7770 -19.7770 -19.7770 -19.7769 -19.7769
   -19.7610 -19.7610 -19.7609 -19.7609 -19.7591 -19.7591 -19.7589 -19.7589
   -19.7583 -19.7583 -19.7582 -19.7582 -19.7573 -19.7572 -19.7571 -19.7570
   -19.7499 -19.7498 -19.7497 -19.7497 -19.7496 -19.7496 -19.7495 -19.7495
   -19.7422 -19.7422 -19.7421 -19.7421 -19.7419 -19.7419 -19.7418 -19.7418
    -8.7587  -8.7587  -8.7135  -8.7135  -8.5079  -8.5079  -8.4359  -8.4359
    -8.1761  -8.1761  -8.0995  -8.0995  -7.8582  -7.8582  -7.7853  -7.7853
    -7.7848  -7.7848  -7.6819  -7.6819  -7.6182  -7.6182  -7.5888  -7.5888
     2.7739   2.7739   2.7962   2.7962   3.2963   3.2963   3.3441   3.3441
     3.4482   3.4482   3.4492   3.4492   3.7394   3.7394   3.8125   3.8125
     3.8714   3.8714   3.9098   3.9098   4.0840   4.0840   4.1317   4.1317
     4.3544   4.3544   4.4392   4.4392   4.6526   4.6527   4.6706   4.6707
     4.6768   4.6768   4.9203   4.9203   4.9314   4.9314   4.9950   4.9950
     5.1980   5.1980   5.2210   5.2210   5.6428   5.6428   5.6837   5.6837
     7.2281   7.2281   7.3581   7.3581   7.3670   7.3670   7.4987   7.4987
     7.7260   7.7260   7.7623   7.7623   7.8433   7.8433   7.9379   7.9379
     8.0398   8.0398   8.0638   8.0639   8.0915   8.0916   8.2472   8.2472
    11.9880  11.9880  12.1238  12.1238  12.2139  12.2139  12.4109  12.4109
    12.7172  12.7172  12.7299  12.7300  12.9183  12.9183  12.9977  12.9977
    13.0892  13.0892  13.2294  13.2294  13.4496  13.4496  13.5533  13.5533
    16.6826  16.6826  16.7019  16.7020  17.1068  17.1069  17.2007  17.2007
    17.2521  17.2521  17.4757  17.4757  17.8914

          k =-0.5000-0.4926-0.5000 ( 60632 PWs)   bands (ev):

   -65.6460 -65.6460 -65.6460 -65.6460 -65.6460 -65.6460 -65.6460 -65.6459
   -30.1485 -30.1485 -30.1475 -30.1475 -30.1474 -30.1474 -30.1473 -30.1473
   -29.9632 -29.9632 -29.9631 -29.9631 -29.9631 -29.9631 -29.9624 -29.9623
   -29.8660 -29.8660 -29.8660 -29.8660 -29.8660 -29.8660 -29.8657 -29.8657
   -19.7961 -19.7961 -19.7961 -19.7961 -19.7961 -19.7961 -19.7961 -19.7961
   -19.7854 -19.7854 -19.7853 -19.7853 -19.7852 -19.7852 -19.7852 -19.7852
   -19.7771 -19.7771 -19.7771 -19.7770 -19.7770 -19.7770 -19.7769 -19.7769
   -19.7597 -19.7597 -19.7597 -19.7597 -19.7596 -19.7596 -19.7595 -19.7595
   -19.7582 -19.7582 -19.7581 -19.7581 -19.7580 -19.7580 -19.7579 -19.7579
   -19.7497 -19.7497 -19.7497 -19.7497 -19.7496 -19.7496 -19.7496 -19.7496
   -19.7421 -19.7421 -19.7420 -19.7420 -19.7420 -19.7420 -19.7419 -19.7419
    -8.6437  -8.6437  -8.5624  -8.5624  -8.5413  -8.5413  -8.5412  -8.5412
    -8.0731  -8.0731  -7.9654  -7.9654  -7.9654  -7.9654  -7.9061  -7.9060
    -7.7644  -7.7644  -7.7644  -7.7644  -7.6824  -7.6824  -7.6622  -7.6622
     3.2473   3.2473   3.2571   3.2571   3.2571   3.2571   3.3366   3.3366
     3.4254   3.4254   3.6077   3.6077   3.6077   3.6077   3.7956   3.7956
     3.8788   3.8788   3.9240   3.9240   3.9875   3.9875   3.9875   3.9875
     4.5219   4.5219   4.5302   4.5303   4.6531   4.6531   4.6531   4.6531
     4.8158   4.8158   4.8561   4.8561   4.8562   4.8562   4.9251   4.9251
     5.0409   5.0409   5.1082   5.1082   5.1082   5.1083   5.1311   5.1311
     7.3468   7.3468   7.4866   7.4866   7.4866   7.4866   7.6589   7.6589
     7.7472   7.7472   7.7472   7.7472   7.8451   7.8451   7.9282   7.9282
     8.0757   8.0757   8.0757   8.0757   8.1095   8.1095   8.1493   8.1493
    12.2395  12.2395  12.3214  12.3214  12.3214  12.3214  12.4028  12.4028
    12.7493  12.7493  12.7493  12.7494  12.8203  12.8203  12.9549  12.9549
    13.0382  13.0382  13.1885  13.1885  13.1885  13.1885  13.2311  13.2311
    17.0488  17.0488  17.0488  17.0488  17.2099  17.2099  17.2480  17.2480
    17.6654  17.6655  17.7708  17.7709  17.7709

     the Fermi energy is    10.6509 ev

!    total energy              =   -6260.87756966 Ry
     Harris-Foulkes estimate   =   -6260.87756967 Ry
     estimated scf accuracy    <          8.3E-09 Ry

     The total energy is the sum of the following terms:

     one-electron contribution =   -4584.29847818 Ry
     hartree contribution      =    2535.63784486 Ry
     xc contribution           =    -965.82390490 Ry
     ewald contribution        =   -3246.39301323 Ry
     smearing contrib. (-TS)   =      -0.00001822 Ry

     convergence has been achieved in  12 iterations

     Writing output data file Landau_39.save
 
     init_run     :     18.81s CPU     19.82s WALL (       1 calls)
     electrons    :    686.07s CPU    698.78s WALL (       1 calls)

     Called by init_run:
     wfcinit      :     16.94s CPU     17.81s WALL (       1 calls)
     potinit      :      0.75s CPU      0.77s WALL (       1 calls)

     Called by electrons:
     c_bands      :    602.30s CPU    614.31s WALL (      12 calls)
     sum_band     :     77.37s CPU     77.59s WALL (      12 calls)
     v_of_rho     :      1.52s CPU      1.53s WALL (      13 calls)
     mix_rho      :      2.52s CPU      2.81s WALL (      12 calls)

     Called by c_bands:
     init_us_2    :      5.50s CPU      5.94s WALL (      25 calls)
     cegterg      :    514.27s CPU    526.11s WALL (      12 calls)

     Called by sum_band:

     Called by *egterg:
     h_psi        :    396.83s CPU    398.46s WALL (      49 calls)
     g_psi        :      1.73s CPU      1.73s WALL (      36 calls)
     cdiaghg      :      5.99s CPU      6.00s WALL (      48 calls)

     Called by h_psi:
     h_psi:pot    :    393.93s CPU    395.34s WALL (      49 calls)
     h_psi:calbec :     51.67s CPU     52.54s WALL (      49 calls)
     vloc_psi     :    288.42s CPU    288.79s WALL (      49 calls)
     add_vuspsi   :     53.85s CPU     54.00s WALL (      49 calls)

     General routines
     calbec       :     51.67s CPU     52.54s WALL (      49 calls)
     fft          :      0.92s CPU      0.93s WALL (      52 calls)
     fftw         :    289.40s CPU    289.51s WALL (   15744 calls)
 
     Parallel routines
 
     PWSCF        : 11m46.85s CPU    12m 2.94s WALL

 
   This run was terminated on:  17:43:56  13Sep2019            

=------------------------------------------------------------------------------=
   JOB DONE.
=------------------------------------------------------------------------------=
