
     Program PWSCF v.6.2 (svn rev. 14038) starts on 26Mar2020 at 19: 8:13 

     This program is part of the open-source Quantum ESPRESSO suite
     for quantum simulation of materials; please cite
         "P. Giannozzi et al., J. Phys.:Condens. Matter 21 395502 (2009);
         "P. Giannozzi et al., J. Phys.:Condens. Matter 29 465901 (2017);
          URL http://www.quantum-espresso.org", 
     in publications or presentations arising from this work. More details at
     http://www.quantum-espresso.org/quote

     Parallel version (MPI), running on    40 processors

     MPI processes distributed on     4 nodes
     K-points division:     npool     =      40
     Reading input from scf.in

     Current dimensions of program PWSCF are:
     Max number of different atomic species (ntypx) = 10
     Max number of k-points (npk) =  40000
     Max angular momentum in pseudopotentials (lmaxx) =  3

     Subspace diagonalization in iterative solution of the eigenvalue problem:
     a serial algorithm will be used

 
     G-vector sticks info
     --------------------
     sticks:   dense  smooth     PW     G-vecs:    dense   smooth      PW
     Sum        7645    7645   2045               494853   494853   68579
 


     bravais-lattice index     =            0
     lattice parameter (alat)  =      13.9165  a.u.
     unit-cell volume          =    2786.0940 (a.u.)^3
     number of atoms/cell      =           32
     number of atomic types    =            2
     number of electrons       =       368.20
     number of Kohn-Sham states=          221
     kinetic-energy cutoff     =     120.0000  Ry
     charge density cutoff     =     480.0000  Ry
     convergence threshold     =      1.0E-08
     mixing beta               =       0.7000
     number of iterations used =            8  plain     mixing
     Exchange-correlation      = SLA PW NOGX NOGC ( 1  4  0  0 0 0)

     celldm(1)=  13.916466  celldm(2)=   0.000000  celldm(3)=   0.000000
     celldm(4)=   0.000000  celldm(5)=   0.000000  celldm(6)=   0.000000

     crystal axes: (cart. coord. in units of alat)
               a(1) = (   1.000000   0.000000   0.000000 )  
               a(2) = (   0.000000   1.033734   0.000000 )  
               a(3) = (   0.000000   0.000000   1.000000 )  

     reciprocal axes: (cart. coord. in units 2 pi/alat)
               b(1) = (  1.000000  0.000000  0.000000 )  
               b(2) = (  0.000000  0.967367  0.000000 )  
               b(3) = (  0.000000  0.000000  1.000000 )  


     PseudoPot. # 1 for W  read from file:
     /cluster/scratch/mnoe/QE/pps/W_ONCV_LDA-4.0.upf
     MD5 check sum: ba0307d5d4cd419d6f1d13dc49d7c13a
     Pseudo is Norm-conserving + core correction, Zval = 28.0
     Generated using ONCVPSP code by D. R. Hamann
     Using radial grid of 1380 points,  8 beta functions with: 
                l(1) =   0
                l(2) =   0
                l(3) =   1
                l(4) =   1
                l(5) =   2
                l(6) =   2
                l(7) =   3
                l(8) =   3

     PseudoPot. # 2 for O  read from file:
     /cluster/scratch/mnoe/QE/pps/O_ONCV_LDA-3.0.upf
     MD5 check sum: a1bd6164e7280c17a38c229939bfbd54
     Pseudo is Norm-conserving + core correction, Zval =  6.0
     Generated using ONCVPSP code by D. R. Hamann
     Using radial grid of  926 points,  5 beta functions with: 
                l(1) =   0
                l(2) =   0
                l(3) =   1
                l(4) =   1
                l(5) =   2

     atomic species   valence    mass     pseudopotential
        W             28.00   183.84000     W ( 1.00)
        O              6.00    15.99940     O ( 1.00)

      8 Sym. Ops. (no inversion) found ( 7 have fractional translation)



   Cartesian axes

     site n.     atom                  positions (alat units)
         1           W   tau(   1) = (   0.2604100   0.2887264  -0.9890500  )
         2           W   tau(   2) = (   0.7390500   0.7450079  -0.9895900  )
         3           W   tau(   3) = (   0.2395900   0.2281408  -0.4890500  )
         4           W   tau(   4) = (   0.7609499   0.8055935  -0.4895900  )
         5           W   tau(   5) = (   0.7395900   0.2887264  -0.5109500  )
         6           W   tau(   6) = (   0.2609500   0.7450079  -0.5104100  )
         7           W   tau(   7) = (   0.7604100   0.2281408  -1.0109499  )
         8           W   tau(   8) = (   0.2390500   0.8055935  -1.0104100  )
         9           O   tau(   9) = (   0.2721800   0.0078856  -0.9779300  )
        10           O   tau(  10) = (   0.7279300   1.0258487  -0.9778200  )
        11           O   tau(  11) = (   0.2278200   0.5089816  -0.4779300  )
        12           O   tau(  12) = (   0.7720700   0.5247527  -0.4778200  )
        13           O   tau(  13) = (   0.7278199   0.0078856  -0.5220700  )
        14           O   tau(  14) = (   0.2720700   1.0258487  -0.5221800  )
        15           O   tau(  15) = (   0.7721800   0.5089816  -1.0220700  )
        16           O   tau(  16) = (   0.2279300   0.5247527  -1.0221800  )
        17           O   tau(  17) = (   0.4953799   0.2858172  -0.5442916  )
        18           O   tau(  18) = (   0.5030300   0.7559182  -0.4557083  )
        19           O   tau(  19) = (   0.0046200   0.2310499  -1.0442916  )
        20           O   tau(  20) = (   0.9969700   0.7946832  -0.9557083  )
        21           O   tau(  21) = (   0.5046200   0.2858172  -0.9557083  )
        22           O   tau(  22) = (   0.4969700   0.7559182  -1.0442916  )
        23           O   tau(  23) = (   0.9953800   0.2310499  -0.4557083  )
        24           O   tau(  24) = (   0.0030300   0.7946832  -0.5442916  )
        25           O   tau(  25) = (   0.7057083   0.2390510  -0.2530300  )
        26           O   tau(  26) = (   0.2942916   0.7479171  -0.7546200  )
        27           O   tau(  27) = (   0.7942917   0.2778161  -0.7530300  )
        28           O   tau(  28) = (   0.2057083   0.8026843  -0.2546200  )
        29           O   tau(  29) = (   0.2942916   0.2390510  -1.2469700  )
        30           O   tau(  30) = (   0.7057083   0.7479171  -0.7453799  )
        31           O   tau(  31) = (   0.2057083   0.2778161  -0.7469700  )
        32           O   tau(  32) = (   0.7942917   0.8026843  -1.2453800  )

     number of k points=    40  gaussian smearing, width (Ry)=  0.0007
                       cart. coord. in units 2pi/alat
        k(    1) = (   0.0000000   0.0000000   0.0000000), wk =   0.0092593
        k(    2) = (   0.0000000   0.0000000   0.1666667), wk =   0.0370370
        k(    3) = (   0.0000000   0.0000000   0.3333333), wk =   0.0370370
        k(    4) = (   0.0000000   0.0000000  -0.5000000), wk =   0.0185185
        k(    5) = (   0.0000000   0.1612278   0.0000000), wk =   0.0185185
        k(    6) = (   0.0000000   0.1612278   0.1666667), wk =   0.0740741
        k(    7) = (   0.0000000   0.1612278   0.3333333), wk =   0.0740741
        k(    8) = (   0.0000000   0.1612278  -0.5000000), wk =   0.0370370
        k(    9) = (   0.0000000   0.3224555   0.0000000), wk =   0.0185185
        k(   10) = (   0.0000000   0.3224555   0.1666667), wk =   0.0740741
        k(   11) = (   0.0000000   0.3224555   0.3333333), wk =   0.0740741
        k(   12) = (   0.0000000   0.3224555  -0.5000000), wk =   0.0370370
        k(   13) = (   0.0000000  -0.4836833   0.0000000), wk =   0.0092593
        k(   14) = (   0.0000000  -0.4836833   0.1666667), wk =   0.0370370
        k(   15) = (   0.0000000  -0.4836833   0.3333333), wk =   0.0370370
        k(   16) = (   0.0000000  -0.4836833  -0.5000000), wk =   0.0185185
        k(   17) = (   0.1666667   0.0000000   0.1666667), wk =   0.0370370
        k(   18) = (   0.1666667   0.0000000   0.3333333), wk =   0.0740741
        k(   19) = (   0.1666667   0.0000000  -0.5000000), wk =   0.0370370
        k(   20) = (   0.1666667   0.1612278   0.1666667), wk =   0.0740741
        k(   21) = (   0.1666667   0.1612278   0.3333333), wk =   0.1481481
        k(   22) = (   0.1666667   0.1612278  -0.5000000), wk =   0.0740741
        k(   23) = (   0.1666667   0.3224555   0.1666667), wk =   0.0740741
        k(   24) = (   0.1666667   0.3224555   0.3333333), wk =   0.1481481
        k(   25) = (   0.1666667   0.3224555  -0.5000000), wk =   0.0740741
        k(   26) = (   0.1666667  -0.4836833   0.1666667), wk =   0.0370370
        k(   27) = (   0.1666667  -0.4836833   0.3333333), wk =   0.0740741
        k(   28) = (   0.1666667  -0.4836833  -0.5000000), wk =   0.0370370
        k(   29) = (   0.3333333   0.0000000   0.3333333), wk =   0.0370370
        k(   30) = (   0.3333333   0.0000000  -0.5000000), wk =   0.0370370
        k(   31) = (   0.3333333   0.1612278   0.3333333), wk =   0.0740741
        k(   32) = (   0.3333333   0.1612278  -0.5000000), wk =   0.0740741
        k(   33) = (   0.3333333   0.3224555   0.3333333), wk =   0.0740741
        k(   34) = (   0.3333333   0.3224555  -0.5000000), wk =   0.0740741
        k(   35) = (   0.3333333  -0.4836833   0.3333333), wk =   0.0370370
        k(   36) = (   0.3333333  -0.4836833  -0.5000000), wk =   0.0370370
        k(   37) = (  -0.5000000   0.0000000  -0.5000000), wk =   0.0092593
        k(   38) = (  -0.5000000   0.1612278  -0.5000000), wk =   0.0185185
        k(   39) = (  -0.5000000   0.3224555  -0.5000000), wk =   0.0185185
        k(   40) = (  -0.5000000  -0.4836833  -0.5000000), wk =   0.0092593

     Dense  grid:   494853 G-vectors     FFT dimensions: ( 100, 108, 100)

     Estimated max dynamical RAM per process >       2.70 GB

     Estimated total dynamical RAM >     107.99 GB

     Initial potential from superposition of free atoms

     starting charge  367.99656, renormalised to  368.20000
     Starting wfc are  232 randomized atomic wfcs

     total cpu time spent up to now is       27.5 secs

     Self-consistent Calculation

     iteration #  1     ecut=   120.00 Ry     beta= 0.70
     Davidson diagonalization with overlap
     ethr =  1.00E-02,  avg # of iterations =  5.0

     total cpu time spent up to now is      114.8 secs

     total energy              =   -6253.81819914 Ry
     Harris-Foulkes estimate   =   -6264.47033797 Ry
     estimated scf accuracy    <      13.46534889 Ry

     iteration #  2     ecut=   120.00 Ry     beta= 0.70
     Davidson diagonalization with overlap
     ethr =  3.66E-03,  avg # of iterations =  3.5

     total cpu time spent up to now is      200.6 secs

     total energy              =   -6250.63822897 Ry
     Harris-Foulkes estimate   =   -6270.61070392 Ry
     estimated scf accuracy    <      53.56193541 Ry

     iteration #  3     ecut=   120.00 Ry     beta= 0.70
     Davidson diagonalization with overlap
     ethr =  3.66E-03,  avg # of iterations =  3.4

     total cpu time spent up to now is      282.8 secs

     total energy              =   -6260.95410160 Ry
     Harris-Foulkes estimate   =   -6261.23178477 Ry
     estimated scf accuracy    <       0.91632231 Ry

     iteration #  4     ecut=   120.00 Ry     beta= 0.70
     Davidson diagonalization with overlap
     ethr =  2.49E-04,  avg # of iterations =  2.8

     total cpu time spent up to now is      352.1 secs

     total energy              =   -6260.94878770 Ry
     Harris-Foulkes estimate   =   -6261.02128297 Ry
     estimated scf accuracy    <       0.22204627 Ry

     iteration #  5     ecut=   120.00 Ry     beta= 0.70
     Davidson diagonalization with overlap
     ethr =  6.03E-05,  avg # of iterations =  6.0

     total cpu time spent up to now is      430.0 secs

     total energy              =   -6260.95408679 Ry
     Harris-Foulkes estimate   =   -6260.98328817 Ry
     estimated scf accuracy    <       0.06552510 Ry

     iteration #  6     ecut=   120.00 Ry     beta= 0.70
     Davidson diagonalization with overlap
     ethr =  1.78E-05,  avg # of iterations =  5.3

     total cpu time spent up to now is      505.2 secs

     total energy              =   -6260.96810765 Ry
     Harris-Foulkes estimate   =   -6260.97069498 Ry
     estimated scf accuracy    <       0.00688804 Ry

     iteration #  7     ecut=   120.00 Ry     beta= 0.70
     Davidson diagonalization with overlap
     ethr =  1.87E-06,  avg # of iterations =  5.8

     total cpu time spent up to now is      581.6 secs

     total energy              =   -6260.96897303 Ry
     Harris-Foulkes estimate   =   -6260.96907489 Ry
     estimated scf accuracy    <       0.00019642 Ry

     iteration #  8     ecut=   120.00 Ry     beta= 0.70
     Davidson diagonalization with overlap
     ethr =  5.33E-08,  avg # of iterations =  3.5

     total cpu time spent up to now is      673.5 secs

     total energy              =   -6260.96904264 Ry
     Harris-Foulkes estimate   =   -6260.96905736 Ry
     estimated scf accuracy    <       0.00005355 Ry

     iteration #  9     ecut=   120.00 Ry     beta= 0.70
     Davidson diagonalization with overlap
     ethr =  1.45E-08,  avg # of iterations =  2.1

     total cpu time spent up to now is      742.9 secs

     total energy              =   -6260.96904570 Ry
     Harris-Foulkes estimate   =   -6260.96905169 Ry
     estimated scf accuracy    <       0.00002725 Ry

     iteration # 10     ecut=   120.00 Ry     beta= 0.70
     Davidson diagonalization with overlap
     ethr =  7.40E-09,  avg # of iterations =  1.1

     total cpu time spent up to now is      806.1 secs

     total energy              =   -6260.96904332 Ry
     Harris-Foulkes estimate   =   -6260.96904727 Ry
     estimated scf accuracy    <       0.00000917 Ry

     iteration # 11     ecut=   120.00 Ry     beta= 0.70
     Davidson diagonalization with overlap
     ethr =  2.49E-09,  avg # of iterations =  3.0

     total cpu time spent up to now is      874.2 secs

     total energy              =   -6260.96904526 Ry
     Harris-Foulkes estimate   =   -6260.96904533 Ry
     estimated scf accuracy    <       0.00000016 Ry

     iteration # 12     ecut=   120.00 Ry     beta= 0.70
     Davidson diagonalization with overlap
     ethr =  4.32E-11,  avg # of iterations =  2.0

     total cpu time spent up to now is      955.1 secs

     total energy              =   -6260.96904529 Ry
     Harris-Foulkes estimate   =   -6260.96904531 Ry
     estimated scf accuracy    <       0.00000004 Ry

     iteration # 13     ecut=   120.00 Ry     beta= 0.70
     Davidson diagonalization with overlap
     ethr =  1.03E-11,  avg # of iterations =  2.3

     total cpu time spent up to now is     1028.5 secs

     End of self-consistent calculation

          k = 0.0000 0.0000 0.0000 ( 61847 PWs)   bands (ev):

   -66.0213 -66.0207 -66.0203 -66.0203 -66.0198 -66.0198 -66.0194 -66.0188
   -30.4218 -30.4136 -30.4136 -30.4046 -30.3924 -30.3804 -30.3804 -30.3773
   -30.3754 -30.3648 -30.3648 -30.3630 -30.3400 -30.3320 -30.3320 -30.3235
   -30.2846 -30.2846 -30.2832 -30.2823 -30.2715 -30.2715 -30.2690 -30.2651
   -20.1809 -20.1806 -20.1806 -20.1805 -20.1801 -20.1801 -20.1801 -20.1799
   -20.1611 -20.1605 -20.1605 -20.1601 -20.1598 -20.1596 -20.1596 -20.1595
   -20.1591 -20.1591 -20.1590 -20.1587 -20.1586 -20.1580 -20.1580 -20.1574
   -20.1558 -20.1552 -20.1552 -20.1548 -20.1513 -20.1506 -20.1506 -20.1501
   -20.1474 -20.1470 -20.1469 -20.1469 -20.1432 -20.1432 -20.1432 -20.1431
   -20.1419 -20.1411 -20.1407 -20.1406 -20.1367 -20.1367 -20.1357 -20.1356
   -20.1341 -20.1339 -20.1328 -20.1328 -20.1309 -20.1309 -20.1297 -20.1296
    -9.8369  -9.5196  -9.4150  -9.4150  -9.1120  -9.1120  -8.9953  -8.9036
    -8.8811  -8.7954  -8.7591  -8.7591  -7.7716  -7.6732  -7.6547  -7.6547
    -7.6539  -7.6483  -7.6111  -7.5750  -7.5512  -7.5512  -7.5154  -7.5154
     1.3537   1.3564   1.4153   1.4153   1.4612   1.4612   1.4632   1.6573
     1.7276   1.7276   1.7398   1.9818   2.5368   2.6379   2.6382   2.6659
     2.7968   2.7968   4.3649   4.3649   4.5680   4.6323   4.7537   4.8536
     4.8536   4.9043   4.9043   4.9360   5.1102   5.1102   5.3866   5.5520
     5.5917   5.5917   5.6151   5.6894   5.6894   5.7772   5.7772   5.8951
     5.8980   5.9529   6.0099   6.0099   6.0561   6.0730   6.2230   6.2292
     6.2396   6.3932   6.4188   6.5795   6.5795   6.8459   7.0421   7.0421
     7.0778   7.0828   7.0980   7.1143   7.1630   7.1630   7.3211   7.3211
     7.4279   7.4279   7.9565   7.9792   8.1297   8.1351   8.1351   8.2393
     9.5729   9.6081   9.9653  10.0230  10.0230  10.1172  12.3429  12.3430
    12.4664  12.4664  12.5947  12.6986  12.6986  12.7659  12.7831  12.9178
    13.1076  13.2892  13.2892  13.5242  13.7484  13.9098  13.9098  14.2137
    14.7007  14.9115  14.9115  15.0544  15.4857  15.5069  15.7627  16.1627
    16.1627  16.9649  17.1484  17.1484  17.5441

          k = 0.0000 0.0000 0.1667 ( 61797 PWs)   bands (ev):

   -66.0212 -66.0206 -66.0204 -66.0203 -66.0198 -66.0197 -66.0195 -66.0189
   -30.4209 -30.4140 -30.4126 -30.4051 -30.3899 -30.3808 -30.3759 -30.3743
   -30.3726 -30.3652 -30.3597 -30.3587 -30.3408 -30.3332 -30.3308 -30.3225
   -30.2907 -30.2882 -30.2843 -30.2843 -30.2770 -30.2730 -30.2712 -30.2667
   -20.1808 -20.1806 -20.1805 -20.1805 -20.1802 -20.1801 -20.1801 -20.1799
   -20.1611 -20.1605 -20.1605 -20.1601 -20.1598 -20.1596 -20.1596 -20.1594
   -20.1591 -20.1591 -20.1591 -20.1588 -20.1585 -20.1580 -20.1579 -20.1574
   -20.1558 -20.1553 -20.1552 -20.1548 -20.1512 -20.1507 -20.1506 -20.1502
   -20.1473 -20.1469 -20.1467 -20.1465 -20.1434 -20.1431 -20.1430 -20.1426
   -20.1421 -20.1413 -20.1409 -20.1405 -20.1371 -20.1366 -20.1361 -20.1357
   -20.1340 -20.1338 -20.1329 -20.1327 -20.1312 -20.1309 -20.1299 -20.1297
    -9.7923  -9.4675  -9.4312  -9.3573  -9.1248  -9.0249  -9.0048  -8.8681
    -8.8412  -8.7807  -8.7634  -8.7269  -7.8319  -7.7658  -7.7166  -7.7101
    -7.6597  -7.6508  -7.6424  -7.6208  -7.6123  -7.5790  -7.5584  -7.5230
     1.4121   1.4152   1.4397   1.4646   1.5449   1.5573   1.6535   1.7138
     1.7246   1.8399   1.9170   2.1000   2.6182   2.6627   2.7259   2.7418
     2.7882   2.8836   4.2607   4.3616   4.4541   4.5581   4.5681   4.6220
     4.6350   4.8600   4.8885   4.9012   4.9385   5.1151   5.3613   5.3938
     5.5048   5.5647   5.6164   5.6589   5.6717   5.7279   5.7728   5.7851
     5.8077   5.9579   5.9681   6.0124   6.0875   6.1198   6.1784   6.2321
     6.3670   6.5201   6.5594   6.5791   6.7996   6.9005   6.9093   6.9303
     6.9920   7.0364   7.0729   7.0813   7.1322   7.1633   7.1893   7.1914
     7.2509   7.2772   7.9539   7.9690   8.0948   8.1154   8.1553   8.2256
     9.8610   9.9085  10.0218  10.0405  10.3007  10.3303  12.2910  12.3884
    12.4072  12.5141  12.5610  12.6530  12.7372  12.7751  12.8486  12.8838
    13.0622  13.2486  13.2981  13.4955  13.7386  13.8913  13.9101  14.1338
    14.7089  14.9060  14.9475  15.1727  15.5256  15.5571  15.7293  16.1340
    16.4548  16.9027  17.1273  17.3258  17.6294

          k = 0.0000 0.0000 0.3333 ( 61832 PWs)   bands (ev):

   -66.0210 -66.0206 -66.0205 -66.0201 -66.0200 -66.0196 -66.0195 -66.0191
   -30.4189 -30.4151 -30.4104 -30.4063 -30.3861 -30.3819 -30.3701 -30.3663
   -30.3637 -30.3622 -30.3456 -30.3437 -30.3437 -30.3373 -30.3257 -30.3187
   -30.3062 -30.3033 -30.2950 -30.2914 -30.2834 -30.2798 -30.2704 -30.2681
   -20.1808 -20.1806 -20.1805 -20.1804 -20.1802 -20.1802 -20.1801 -20.1799
   -20.1610 -20.1607 -20.1604 -20.1600 -20.1600 -20.1597 -20.1596 -20.1594
   -20.1593 -20.1592 -20.1591 -20.1589 -20.1584 -20.1581 -20.1578 -20.1575
   -20.1557 -20.1554 -20.1551 -20.1549 -20.1511 -20.1508 -20.1505 -20.1503
   -20.1472 -20.1470 -20.1457 -20.1454 -20.1438 -20.1428 -20.1427 -20.1425
   -20.1416 -20.1414 -20.1414 -20.1399 -20.1383 -20.1373 -20.1364 -20.1359
   -20.1338 -20.1334 -20.1331 -20.1322 -20.1319 -20.1306 -20.1306 -20.1300
    -9.6838  -9.4810  -9.3477  -9.2231  -9.1641  -9.0366  -8.8168  -8.7753
    -8.7752  -8.7008  -8.6722  -8.6050  -8.1031  -8.0669  -8.0108  -7.9837
    -7.7073  -7.6732  -7.6323  -7.6175  -7.6013  -7.5901  -7.5782  -7.5438
     1.4158   1.4211   1.4742   1.4874   1.6271   1.6458   1.6784   1.7192
     2.3921   2.4451   2.5639   2.6440   2.6806   2.7792   2.8720   2.9777
     2.9857   3.1211   3.8548   3.9407   3.9879   4.1434   4.1686   4.4454
     4.5112   4.6329   4.6943   4.8101   4.8270   4.8923   5.0623   5.2460
     5.2858   5.2859   5.3637   5.5026   5.5559   5.6026   5.8024   5.8331
     5.8910   5.9063   5.9995   6.0166   6.1429   6.2525   6.2672   6.2945
     6.4019   6.4651   6.5561   6.6045   6.6606   6.6959   6.7251   6.8544
     6.9190   7.0362   7.0466   7.0749   7.1210   7.1718   7.2121   7.2680
     7.3592   7.4126   7.8657   7.8862   7.9690   8.0197   8.1841   8.2057
     9.9982  10.0179  10.5723  10.6232  10.8964  10.9847  11.9605  12.0816
    12.1812  12.4003  12.5234  12.6603  12.7801  12.7892  12.8775  12.8837
    13.0584  13.1725  13.3408  13.3409  13.6554  13.7396  13.9140  13.9922
    14.7833  14.8885  15.1468  15.4414  15.6221  15.6931  15.9679  16.0452
    16.3897  17.2739  17.4885  17.6524  17.8702

          k = 0.0000 0.0000-0.5000 ( 61784 PWs)   bands (ev):

   -66.0208 -66.0208 -66.0203 -66.0202 -66.0199 -66.0199 -66.0193 -66.0193
   -30.4169 -30.4169 -30.4081 -30.4081 -30.3837 -30.3836 -30.3679 -30.3679
   -30.3506 -30.3506 -30.3472 -30.3472 -30.3257 -30.3257 -30.3238 -30.3238
   -30.3128 -30.3128 -30.3090 -30.3090 -30.2820 -30.2820 -30.2693 -30.2693
   -20.1807 -20.1807 -20.1804 -20.1803 -20.1803 -20.1803 -20.1800 -20.1800
   -20.1608 -20.1608 -20.1602 -20.1602 -20.1598 -20.1598 -20.1594 -20.1594
   -20.1593 -20.1593 -20.1590 -20.1590 -20.1582 -20.1582 -20.1577 -20.1576
   -20.1555 -20.1555 -20.1550 -20.1550 -20.1510 -20.1510 -20.1504 -20.1504
   -20.1471 -20.1471 -20.1446 -20.1446 -20.1440 -20.1440 -20.1422 -20.1422
   -20.1420 -20.1420 -20.1399 -20.1399 -20.1387 -20.1387 -20.1362 -20.1362
   -20.1334 -20.1334 -20.1327 -20.1327 -20.1315 -20.1315 -20.1303 -20.1303
    -9.5675  -9.5674  -9.2359  -9.2359  -9.1035  -9.1035  -8.7922  -8.7921
    -8.4375  -8.4375  -8.4210  -8.4210  -8.3985  -8.3985  -8.3460  -8.3460
    -7.6915  -7.6915  -7.6069  -7.6069  -7.6030  -7.6030  -7.5726  -7.5725
     1.4184   1.4185   1.4858   1.4858   1.6387   1.6387   1.7113   1.7113
     2.7125   2.7125   3.1177   3.1177   3.2333   3.2333   3.2570   3.2570
     3.3843   3.3843   3.4056   3.4056   3.6640   3.6640   3.8736   3.8736
     3.8940   3.8940   4.6438   4.6438   4.7721   4.7721   5.1496   5.1496
     5.3754   5.3755   5.4311   5.4311   5.4480   5.4480   5.8555   5.8555
     5.9283   5.9283   6.0995   6.0995   6.1595   6.1595   6.3077   6.3077
     6.3618   6.3618   6.4588   6.4588   6.6053   6.6053   6.6934   6.6934
     6.8939   6.8939   7.0592   7.0592   7.1509   7.1509   7.5960   7.5960
     7.6499   7.6499   7.7257   7.7257   7.7868   7.7869   8.1970   8.1970
    10.0108  10.0108  11.3203  11.3204  11.4086  11.4086  11.5937  11.5937
    11.7465  11.7465  12.6941  12.6941  12.7994  12.7994  12.9123  12.9123
    13.1059  13.1059  13.3738  13.3738  13.4768  13.4768  13.9327  13.9327
    14.8535  14.8535  15.4235  15.4235  15.8380  15.8381  15.9154  15.9154
    16.7472  16.7472  18.0670  18.0670  18.2505

          k = 0.0000 0.1612 0.0000 ( 61838 PWs)   bands (ev):

   -66.0212 -66.0207 -66.0203 -66.0203 -66.0198 -66.0198 -66.0194 -66.0189
   -30.4185 -30.4099 -30.4099 -30.4002 -30.3931 -30.3808 -30.3808 -30.3771
   -30.3755 -30.3643 -30.3643 -30.3618 -30.3441 -30.3357 -30.3357 -30.3274
   -30.2847 -30.2847 -30.2831 -30.2824 -30.2717 -30.2717 -30.2689 -30.2656
   -20.1808 -20.1806 -20.1806 -20.1806 -20.1801 -20.1801 -20.1801 -20.1799
   -20.1610 -20.1604 -20.1604 -20.1602 -20.1597 -20.1596 -20.1596 -20.1593
   -20.1590 -20.1590 -20.1590 -20.1587 -20.1587 -20.1581 -20.1581 -20.1575
   -20.1556 -20.1550 -20.1550 -20.1546 -20.1516 -20.1510 -20.1510 -20.1505
   -20.1474 -20.1471 -20.1469 -20.1469 -20.1433 -20.1432 -20.1432 -20.1431
   -20.1419 -20.1412 -20.1407 -20.1406 -20.1367 -20.1367 -20.1357 -20.1356
   -20.1341 -20.1339 -20.1328 -20.1328 -20.1309 -20.1309 -20.1297 -20.1296
    -9.8042  -9.5323  -9.3748  -9.3748  -9.1203  -9.1203  -8.9173  -8.9021
    -8.8826  -8.7473  -8.7192  -8.7192  -7.8370  -7.7527  -7.7527  -7.6940
    -7.6835  -7.6752  -7.6466  -7.6144  -7.5591  -7.5591  -7.5173  -7.5173
     1.3536   1.3558   1.4386   1.4386   1.4626   1.4626   1.5884   1.7393
     1.8657   1.9486   1.9486   2.1367   2.5443   2.6315   2.7127   2.7420
     2.8686   2.8686   4.2275   4.2275   4.2808   4.3311   4.6936   4.8385
     4.8385   4.9034   4.9034   4.9995   5.0335   5.0335   5.2756   5.4971
     5.4971   5.5528   5.5528   5.7401   5.7515   5.7677   5.7677   5.8281
     5.8433   5.8907   5.9432   6.0735   6.0932   6.0932   6.1845   6.2333
     6.2590   6.4085   6.4111   6.6276   6.6276   6.8766   6.9210   7.0153
     7.0153   7.0495   7.0709   7.0710   7.0771   7.0940   7.3282   7.3282
     7.4320   7.4320   7.9524   7.9783   8.1031   8.1133   8.1133   8.1683
     9.5841   9.6174  10.1945  10.2324  10.2324  10.3270  12.3531  12.3531
    12.3849  12.3849  12.5890  12.6124  12.6287  12.6803  12.6803  12.9360
    13.1223  13.2764  13.2764  13.5705  13.8212  13.8978  13.8978  14.1313
    14.7904  15.0574  15.0574  15.2066  15.4851  15.4985  16.1312  16.1312
    16.1489  16.6980  17.2918  17.2918  17.6169

          k = 0.0000 0.1612 0.1667 ( 61874 PWs)   bands (ev):

   -66.0212 -66.0207 -66.0204 -66.0202 -66.0199 -66.0198 -66.0194 -66.0189
   -30.4175 -30.4103 -30.4087 -30.4006 -30.3907 -30.3812 -30.3764 -30.3742
   -30.3726 -30.3647 -30.3591 -30.3579 -30.3449 -30.3367 -30.3342 -30.3263
   -30.2908 -30.2882 -30.2844 -30.2843 -30.2774 -30.2730 -30.2715 -30.2671
   -20.1808 -20.1806 -20.1805 -20.1805 -20.1802 -20.1801 -20.1801 -20.1799
   -20.1609 -20.1604 -20.1604 -20.1601 -20.1597 -20.1596 -20.1596 -20.1593
   -20.1591 -20.1590 -20.1590 -20.1587 -20.1586 -20.1581 -20.1580 -20.1575
   -20.1555 -20.1551 -20.1550 -20.1546 -20.1516 -20.1510 -20.1510 -20.1505
   -20.1473 -20.1469 -20.1467 -20.1465 -20.1434 -20.1431 -20.1430 -20.1426
   -20.1421 -20.1413 -20.1409 -20.1405 -20.1371 -20.1366 -20.1361 -20.1357
   -20.1340 -20.1338 -20.1329 -20.1327 -20.1312 -20.1309 -20.1299 -20.1298
    -9.7584  -9.4803  -9.3910  -9.3124  -9.1333  -9.0333  -8.9268  -8.8651
    -8.8427  -8.7354  -8.7236  -8.6917  -7.8592  -7.7904  -7.7632  -7.7585
    -7.7394  -7.7060  -7.6714  -7.6655  -7.6355  -7.6227  -7.5667  -7.5249
     1.4292   1.4379   1.4427   1.4659   1.6523   1.6901   1.7165   1.8713
     1.9094   1.9514   1.9851   2.2036   2.6296   2.7186   2.7344   2.8196
     2.8608   2.9552   4.1760   4.2395   4.2835   4.3526   4.4853   4.5554
     4.6084   4.7664   4.8818   4.8922   4.9358   5.0506   5.2301   5.3464
     5.4364   5.4768   5.5115   5.5655   5.6173   5.7026   5.7519   5.8416
     5.8544   5.9073   5.9481   6.0394   6.0687   6.1194   6.1697   6.2131
     6.3770   6.4825   6.5613   6.6119   6.8198   6.8618   6.9103   6.9399
     6.9490   7.0270   7.0492   7.0857   7.0892   7.1072   7.1938   7.2100
     7.2574   7.2830   7.9480   7.9690   8.0768   8.0901   8.1195   8.1581
     9.8948   9.9218  10.2331  10.2436  10.4709  10.5055  12.2950  12.3492
    12.3998  12.4399  12.5488  12.6034  12.6612  12.6836  12.7351  12.9230
    13.0428  13.2339  13.2814  13.5136  13.7767  13.8596  13.8990  14.0582
    14.8435  15.0514  15.1428  15.3063  15.5273  15.5544  16.0816  16.1363
    16.4217  16.8491  17.0413  17.4441  17.6994

          k = 0.0000 0.1612 0.3333 ( 61817 PWs)   bands (ev):

   -66.0210 -66.0205 -66.0205 -66.0201 -66.0200 -66.0196 -66.0196 -66.0191
   -30.4154 -30.4115 -30.4063 -30.4019 -30.3867 -30.3823 -30.3699 -30.3658
   -30.3649 -30.3627 -30.3475 -30.3452 -30.3437 -30.3402 -30.3283 -30.3220
   -30.3064 -30.3034 -30.2955 -30.2919 -30.2835 -30.2799 -30.2707 -30.2684
   -20.1808 -20.1806 -20.1805 -20.1804 -20.1802 -20.1802 -20.1801 -20.1799
   -20.1608 -20.1605 -20.1603 -20.1600 -20.1599 -20.1597 -20.1595 -20.1593
   -20.1592 -20.1591 -20.1590 -20.1588 -20.1584 -20.1582 -20.1579 -20.1576
   -20.1554 -20.1552 -20.1549 -20.1547 -20.1515 -20.1512 -20.1509 -20.1506
   -20.1472 -20.1470 -20.1457 -20.1454 -20.1438 -20.1428 -20.1427 -20.1426
   -20.1417 -20.1415 -20.1414 -20.1399 -20.1383 -20.1373 -20.1364 -20.1359
   -20.1338 -20.1334 -20.1331 -20.1322 -20.1319 -20.1306 -20.1306 -20.1300
    -9.6471  -9.4411  -9.3598  -9.1733  -9.1642  -8.9593  -8.7964  -8.7780
    -8.7359  -8.7023  -8.6536  -8.5840  -8.1036  -8.0720  -8.0165  -7.9877
    -7.7898  -7.7642  -7.7239  -7.6963  -7.6462  -7.6039  -7.5879  -7.5459
     1.4470   1.4596   1.4751   1.4877   1.8375   1.8453   1.9129   1.9411
     2.3935   2.4521   2.5665   2.6596   2.7550   2.8445   2.8832   2.9756
     3.0641   3.1870   3.8620   3.9418   3.9969   4.1005   4.2119   4.3109
     4.3379   4.4825   4.6195   4.7690   4.7834   4.8822   4.9139   5.1262
     5.1339   5.2423   5.2957   5.3410   5.4817   5.5464   5.6211   5.7874
     5.8514   5.9140   5.9485   6.0162   6.0529   6.1828   6.2502   6.2810
     6.4112   6.5434   6.5625   6.6805   6.7114   6.7746   6.8362   6.8818
     6.9527   6.9968   7.0361   7.0434   7.0672   7.1117   7.2435   7.2729
     7.3786   7.4243   7.8650   7.8846   7.9599   7.9982   8.1340   8.1470
    10.2195  10.2333  10.5913  10.6324  11.0166  11.0879  11.9623  12.0905
    12.1868  12.4434  12.5282  12.6136  12.6290  12.7605  12.8170  12.8388
    12.9422  13.1825  13.3091  13.3180  13.5837  13.6728  13.9017  13.9616
    14.9537  15.0354  15.4234  15.5529  15.7021  15.9427  16.0080  16.0658
    16.5189  17.2357  17.3187  17.5615  17.9278

          k = 0.0000 0.1612-0.5000 ( 61868 PWs)   bands (ev):

   -66.0208 -66.0208 -66.0203 -66.0203 -66.0198 -66.0198 -66.0194 -66.0193
   -30.4132 -30.4132 -30.4038 -30.4038 -30.3841 -30.3841 -30.3675 -30.3675
   -30.3535 -30.3535 -30.3489 -30.3488 -30.3259 -30.3259 -30.3239 -30.3239
   -30.3140 -30.3140 -30.3108 -30.3108 -30.2821 -30.2821 -30.2696 -30.2696
   -20.1807 -20.1807 -20.1804 -20.1804 -20.1803 -20.1803 -20.1800 -20.1800
   -20.1607 -20.1607 -20.1601 -20.1601 -20.1598 -20.1598 -20.1594 -20.1594
   -20.1592 -20.1592 -20.1589 -20.1589 -20.1583 -20.1583 -20.1578 -20.1577
   -20.1553 -20.1553 -20.1548 -20.1548 -20.1513 -20.1513 -20.1508 -20.1508
   -20.1471 -20.1471 -20.1446 -20.1446 -20.1440 -20.1440 -20.1422 -20.1422
   -20.1420 -20.1420 -20.1399 -20.1399 -20.1387 -20.1387 -20.1362 -20.1362
   -20.1334 -20.1334 -20.1327 -20.1327 -20.1315 -20.1315 -20.1303 -20.1303
    -9.5284  -9.5284  -9.2465  -9.2465  -9.0308  -9.0308  -8.7546  -8.7546
    -8.4398  -8.4397  -8.4252  -8.4252  -8.4001  -8.4001  -8.3387  -8.3387
    -7.7797  -7.7797  -7.7119  -7.7119  -7.6170  -7.6170  -7.5749  -7.5749
     1.4557   1.4557   1.4863   1.4863   1.8522   1.8522   1.9389   1.9389
     2.7839   2.7839   3.1293   3.1294   3.2483   3.2483   3.2708   3.2708
     3.3904   3.3904   3.4219   3.4219   3.6564   3.6564   3.8920   3.8920
     3.9428   3.9428   4.4081   4.4081   4.7081   4.7081   4.9505   4.9505
     5.2101   5.2101   5.3767   5.3767   5.4372   5.4372   5.6440   5.6440
     5.8574   5.8574   5.9987   5.9987   6.1660   6.1660   6.3001   6.3001
     6.4484   6.4484   6.5193   6.5193   6.6624   6.6624   6.8137   6.8137
     6.9538   6.9538   7.0301   7.0301   7.0676   7.0676   7.6084   7.6084
     7.6449   7.6450   7.7294   7.7294   7.7797   7.7797   8.1424   8.1424
    10.2326  10.2326  11.3300  11.3300  11.4133  11.4133  11.6692  11.6692
    11.8110  11.8110  12.6425  12.6425  12.7105  12.7105  12.9155  12.9155
    13.0604  13.0604  13.2608  13.2608  13.4211  13.4211  13.9161  13.9161
    15.0088  15.0088  15.7295  15.7295  15.8955  15.8955  16.0100  16.0100
    16.7945  16.7945  17.8674  17.8674  18.2617

          k = 0.0000 0.3225 0.0000 ( 61926 PWs)   bands (ev):

   -66.0211 -66.0209 -66.0202 -66.0202 -66.0199 -66.0199 -66.0193 -66.0190
   -30.4103 -30.4012 -30.4012 -30.3959 -30.3882 -30.3821 -30.3821 -30.3766
   -30.3758 -30.3619 -30.3619 -30.3576 -30.3557 -30.3451 -30.3451 -30.3374
   -30.2848 -30.2848 -30.2829 -30.2826 -30.2722 -30.2722 -30.2686 -30.2668
   -20.1808 -20.1806 -20.1805 -20.1805 -20.1801 -20.1801 -20.1801 -20.1799
   -20.1607 -20.1602 -20.1602 -20.1602 -20.1596 -20.1595 -20.1594 -20.1591
   -20.1591 -20.1589 -20.1589 -20.1588 -20.1585 -20.1583 -20.1583 -20.1578
   -20.1549 -20.1543 -20.1543 -20.1539 -20.1526 -20.1520 -20.1520 -20.1515
   -20.1474 -20.1472 -20.1469 -20.1469 -20.1433 -20.1433 -20.1432 -20.1431
   -20.1417 -20.1413 -20.1407 -20.1406 -20.1367 -20.1367 -20.1357 -20.1356
   -20.1341 -20.1340 -20.1328 -20.1328 -20.1309 -20.1309 -20.1297 -20.1297
    -9.7248  -9.5714  -9.2838  -9.2838  -9.1471  -9.1471  -8.8980  -8.8867
    -8.6974  -8.5959  -8.5828  -8.5828  -8.0766  -8.0180  -8.0180  -7.9822
    -7.6981  -7.6818  -7.6407  -7.6218  -7.5599  -7.5599  -7.5213  -7.5213
     1.3535   1.3547   1.4511   1.4511   1.4656   1.4656   1.7013   1.7372
     2.4510   2.5621   2.6000   2.6000   2.6167   2.7612   2.9297   2.9666
     3.0753   3.0753   3.7841   3.8387   3.8672   3.8672   4.2144   4.5573
     4.5573   4.8457   4.8458   4.8761   4.9233   4.9233   5.1727   5.2114
     5.2114   5.2640   5.4847   5.4847   5.6934   5.6962   5.8215   5.8215
     5.9500   6.0239   6.0287   6.0599   6.0599   6.1112   6.1841   6.2283
     6.2870   6.3684   6.3997   6.5830   6.6797   6.6797   6.9059   6.9059
     6.9567   7.0561   7.2241   7.2458   7.2482   7.2482   7.3428   7.3428
     7.4381   7.4381   7.8842   7.9411   7.9718   7.9718   7.9916   8.0088
     9.6003   9.6198  10.7644  10.7644  10.7699  10.8603  12.0224  12.0224
    12.1316  12.1594  12.3764  12.3764  12.6731  12.6731  12.7052  12.9164
    13.2233  13.3246  13.3246  13.6196  13.7412  13.7412  13.7458  13.9437
    15.1329  15.4534  15.4534  15.4819  15.4882  15.8130  16.0281  16.0281
    16.1770  17.1086  17.4275  17.7778  17.7778

          k = 0.0000 0.3225 0.1667 ( 61860 PWs)   bands (ev):

   -66.0211 -66.0208 -66.0203 -66.0201 -66.0200 -66.0199 -66.0193 -66.0190
   -30.4090 -30.4015 -30.3992 -30.3935 -30.3886 -30.3825 -30.3786 -30.3741
   -30.3726 -30.3623 -30.3571 -30.3562 -30.3546 -30.3458 -30.3428 -30.3359
   -30.2909 -30.2883 -30.2845 -30.2843 -30.2779 -30.2731 -30.2720 -30.2680
   -20.1808 -20.1806 -20.1805 -20.1805 -20.1802 -20.1801 -20.1801 -20.1799
   -20.1607 -20.1602 -20.1602 -20.1601 -20.1596 -20.1595 -20.1594 -20.1591
   -20.1591 -20.1589 -20.1589 -20.1587 -20.1586 -20.1583 -20.1582 -20.1578
   -20.1548 -20.1544 -20.1543 -20.1539 -20.1525 -20.1520 -20.1519 -20.1515
   -20.1473 -20.1469 -20.1468 -20.1465 -20.1434 -20.1431 -20.1430 -20.1426
   -20.1419 -20.1415 -20.1409 -20.1405 -20.1371 -20.1366 -20.1361 -20.1357
   -20.1340 -20.1339 -20.1329 -20.1327 -20.1312 -20.1309 -20.1299 -20.1298
    -9.6762  -9.5195  -9.2997  -9.2101  -9.1608  -9.0609  -8.8595  -8.8469
    -8.7065  -8.5891  -8.5877  -8.5667  -8.0769  -8.0274  -8.0147  -7.9909
    -7.7979  -7.7624  -7.6834  -7.6723  -7.6419  -7.6275  -7.5677  -7.5290
     1.4340   1.4398   1.4545   1.4688   1.6989   1.7159   1.8649   1.9121
     2.4571   2.5800   2.6026   2.6492   2.7004   2.7540   2.9516   3.0528
     3.0681   3.1671   3.8026   3.8543   3.8685   3.9179   4.2002   4.4730
     4.5018   4.5848   4.5957   4.8302   4.8853   4.9592   4.9636   4.9986
     5.2052   5.2298   5.2855   5.4362   5.4808   5.5669   5.6984   5.7790
     5.8314   5.8663   5.9447   6.0325   6.1153   6.1521   6.1646   6.2239
     6.3713   6.5065   6.5105   6.6471   6.6807   6.8886   6.9072   7.0000
     7.0395   7.0748   7.1435   7.1461   7.1807   7.2124   7.2781   7.2791
     7.3216   7.3368   7.8786   7.9347   7.9501   7.9671   7.9798   8.0046
     9.9131   9.9344  10.7683  10.7976  10.9301  10.9833  12.0166  12.0969
    12.1471  12.2135  12.3178  12.4356  12.5455  12.7125  12.7675  12.9530
    13.1199  13.2364  13.3248  13.5121  13.6246  13.7236  13.7410  13.8835
    15.2399  15.4398  15.4947  15.5592  15.6657  15.8795  16.0001  16.3077
    16.3366  17.0723  17.4287  17.5420  17.8553

          k = 0.0000 0.3225 0.3333 ( 61843 PWs)   bands (ev):

   -66.0209 -66.0206 -66.0204 -66.0202 -66.0200 -66.0197 -66.0195 -66.0192
   -30.4065 -30.4027 -30.3955 -30.3900 -30.3890 -30.3838 -30.3703 -30.3687
   -30.3641 -30.3635 -30.3583 -30.3484 -30.3436 -30.3433 -30.3339 -30.3298
   -30.3067 -30.3036 -30.2963 -30.2926 -30.2836 -30.2801 -30.2712 -30.2690
   -20.1807 -20.1806 -20.1805 -20.1804 -20.1803 -20.1802 -20.1801 -20.1800
   -20.1606 -20.1603 -20.1602 -20.1600 -20.1598 -20.1596 -20.1594 -20.1592
   -20.1591 -20.1589 -20.1588 -20.1587 -20.1586 -20.1583 -20.1581 -20.1579
   -20.1547 -20.1545 -20.1542 -20.1540 -20.1524 -20.1521 -20.1519 -20.1516
   -20.1472 -20.1470 -20.1458 -20.1453 -20.1438 -20.1427 -20.1427 -20.1426
   -20.1417 -20.1415 -20.1415 -20.1399 -20.1383 -20.1373 -20.1364 -20.1359
   -20.1337 -20.1334 -20.1331 -20.1322 -20.1319 -20.1306 -20.1306 -20.1300
    -9.5589  -9.3981  -9.3488  -9.2031  -9.0208  -8.8177  -8.7458  -8.7374
    -8.7085  -8.6027  -8.5544  -8.5005  -8.1414  -8.1266  -8.0687  -8.0224
    -8.0156  -7.9871  -7.9549  -7.9016  -7.6481  -7.6084  -7.5891  -7.5501
     1.4634   1.4760   1.4791   1.4887   2.3009   2.3550   2.3972   2.4983
     2.5236   2.6142   2.6405   2.8259   2.9003   2.9477   2.9772   3.0598
     3.2998   3.3769   3.7811   3.8064   3.9149   3.9474   3.9793   4.0089
     4.1442   4.2876   4.5349   4.5748   4.5896   4.6253   4.6815   4.8546
     4.9194   4.9496   5.1069   5.2051   5.2661   5.3307   5.3582   5.4339
     5.5108   5.6881   5.7800   5.9803   6.2121   6.2356   6.2578   6.3046
     6.5151   6.5815   6.6372   6.7150   6.7513   6.8543   6.8619   6.9038
     7.0613   7.0962   7.1559   7.1775   7.1897   7.2180   7.2811   7.3640
     7.4261   7.4673   7.8141   7.8660   7.8897   7.9026   7.9560   7.9773
    10.5676  10.6283  10.7820  10.8256  11.3531  11.4119  11.9319  12.0398
    12.1052  12.1675  12.3383  12.4004  12.5999  12.6246  12.6909  12.8410
    12.9084  13.1576  13.2014  13.3322  13.3427  13.5726  13.7406  13.8051
    15.3225  15.4149  15.6175  15.9136  16.0762  16.1006  16.1900  16.8096
    16.9416  16.9702  17.1063  17.7076  17.7517

          k = 0.0000 0.3225-0.5000 ( 61856 PWs)   bands (ev):

   -66.0207 -66.0207 -66.0204 -66.0204 -66.0197 -66.0197 -66.0195 -66.0194
   -30.4044 -30.4044 -30.3923 -30.3923 -30.3858 -30.3858 -30.3658 -30.3657
   -30.3624 -30.3624 -30.3540 -30.3540 -30.3265 -30.3265 -30.3239 -30.3239
   -30.3167 -30.3167 -30.3135 -30.3135 -30.2823 -30.2823 -30.2701 -30.2701
   -20.1806 -20.1806 -20.1804 -20.1804 -20.1803 -20.1803 -20.1801 -20.1800
   -20.1604 -20.1604 -20.1600 -20.1600 -20.1597 -20.1597 -20.1594 -20.1593
   -20.1590 -20.1590 -20.1588 -20.1588 -20.1585 -20.1584 -20.1580 -20.1580
   -20.1546 -20.1546 -20.1541 -20.1541 -20.1523 -20.1523 -20.1518 -20.1518
   -20.1471 -20.1471 -20.1446 -20.1446 -20.1440 -20.1439 -20.1422 -20.1422
   -20.1421 -20.1420 -20.1399 -20.1399 -20.1387 -20.1387 -20.1362 -20.1362
   -20.1334 -20.1334 -20.1327 -20.1327 -20.1315 -20.1315 -20.1303 -20.1303
    -9.4364  -9.4364  -9.2805  -9.2804  -8.8327  -8.8327  -8.6380  -8.6380
    -8.4629  -8.4628  -8.4469  -8.4469  -8.3854  -8.3854  -8.3107  -8.3106
    -8.0228  -8.0228  -7.9725  -7.9725  -7.6187  -7.6187  -7.5792  -7.5792
     1.4749   1.4749   1.4881   1.4881   2.4594   2.4594   2.5892   2.5892
     2.9834   2.9834   3.1595   3.1595   3.2386   3.2386   3.3222   3.3222
     3.3877   3.3877   3.4964   3.4964   3.6280   3.6280   3.8252   3.8252
     4.0625   4.0625   4.1430   4.1430   4.3040   4.3040   4.5169   4.5169
     4.9113   4.9113   5.0550   5.0550   5.2598   5.2598   5.3607   5.3608
     5.5126   5.5126   5.8743   5.8743   6.2876   6.2876   6.3250   6.3250
     6.5709   6.5709   6.6035   6.6035   6.6599   6.6600   6.8245   6.8245
     7.1782   7.1782   7.1832   7.1832   7.2242   7.2242   7.5997   7.5997
     7.6435   7.6436   7.6972   7.6972   7.7366   7.7366   7.9623   7.9623
    10.7779  10.7779  11.3461  11.3462  11.4230  11.4230  11.8379  11.8379
    12.0184  12.0184  12.2650  12.2650  12.6820  12.6820  12.7484  12.7485
    12.9554  12.9554  13.0483  13.0483  13.3992  13.3992  13.7547  13.7547
    15.3726  15.3727  15.7815  15.7815  16.4426  16.4426  16.6731  16.6731
    16.9613  16.9613  17.4890  17.4890  18.0884

          k = 0.0000-0.4837 0.0000 ( 61898 PWs)   bands (ev):

   -66.0210 -66.0210 -66.0201 -66.0201 -66.0201 -66.0200 -66.0191 -66.0191
   -30.4016 -30.4016 -30.3951 -30.3951 -30.3838 -30.3838 -30.3761 -30.3761
   -30.3718 -30.3718 -30.3557 -30.3557 -30.3554 -30.3554 -30.3490 -30.3490
   -30.2849 -30.2849 -30.2827 -30.2827 -30.2725 -30.2725 -30.2679 -30.2679
   -20.1807 -20.1807 -20.1805 -20.1805 -20.1802 -20.1802 -20.1800 -20.1800
   -20.1604 -20.1604 -20.1601 -20.1601 -20.1595 -20.1595 -20.1592 -20.1592
   -20.1589 -20.1589 -20.1587 -20.1587 -20.1584 -20.1584 -20.1582 -20.1582
   -20.1538 -20.1538 -20.1534 -20.1534 -20.1531 -20.1531 -20.1528 -20.1528
   -20.1473 -20.1473 -20.1469 -20.1469 -20.1433 -20.1433 -20.1432 -20.1431
   -20.1415 -20.1415 -20.1407 -20.1406 -20.1367 -20.1367 -20.1357 -20.1356
   -20.1340 -20.1340 -20.1329 -20.1328 -20.1309 -20.1309 -20.1297 -20.1297
    -9.6380  -9.6380  -9.2061  -9.2061  -9.1936  -9.1936  -8.8924  -8.8924
    -8.3890  -8.3890  -8.3326  -8.3326  -8.3325  -8.3325  -8.3295  -8.3295
    -7.6912  -7.6912  -7.6315  -7.6315  -7.5586  -7.5586  -7.5236  -7.5236
     1.3538   1.3538   1.4531   1.4531   1.4668   1.4668   1.7297   1.7297
     2.5854   2.5854   3.1649   3.1649   3.2958   3.2958   3.3229   3.3229
     3.3323   3.3323   3.4357   3.4357   3.6697   3.6698   3.7007   3.7007
     3.8362   3.8362   4.8364   4.8364   4.9154   4.9154   5.3032   5.3032
     5.3964   5.3964   5.4250   5.4250   5.4662   5.4662   5.9107   5.9107
     5.9132   5.9133   6.0176   6.0176   6.1549   6.1549   6.2020   6.2020
     6.3211   6.3211   6.3797   6.3797   6.7473   6.7473   6.7920   6.7920
     7.0067   7.0067   7.3264   7.3264   7.4310   7.4310   7.5799   7.5799
     7.6261   7.6261   7.6608   7.6608   7.6772   7.6772   7.9847   7.9847
     9.6129   9.6129  11.3991  11.3991  11.4480  11.4481  11.4506  11.4506
    11.5558  11.5558  12.3839  12.3839  12.6756  12.6756  12.8200  12.8200
    13.4442  13.4442  13.4787  13.4788  13.5215  13.5215  13.7705  13.7705
    15.4542  15.4542  15.6485  15.6485  15.7769  15.7770  15.8542  15.8542
    16.6962  16.6962  18.1440  18.1442  18.2332

          k = 0.0000-0.4837 0.1667 ( 61850 PWs)   bands (ev):

   -66.0209 -66.0209 -66.0201 -66.0201 -66.0200 -66.0200 -66.0192 -66.0192
   -30.4009 -30.3986 -30.3954 -30.3916 -30.3843 -30.3819 -30.3740 -30.3726
   -30.3723 -30.3722 -30.3562 -30.3560 -30.3529 -30.3512 -30.3472 -30.3462
   -30.2910 -30.2883 -30.2846 -30.2843 -30.2782 -30.2732 -30.2722 -30.2683
   -20.1807 -20.1807 -20.1805 -20.1805 -20.1802 -20.1801 -20.1800 -20.1800
   -20.1604 -20.1604 -20.1601 -20.1600 -20.1596 -20.1595 -20.1592 -20.1592
   -20.1589 -20.1589 -20.1587 -20.1587 -20.1585 -20.1584 -20.1582 -20.1582
   -20.1538 -20.1537 -20.1534 -20.1533 -20.1531 -20.1531 -20.1528 -20.1528
   -20.1472 -20.1469 -20.1468 -20.1465 -20.1434 -20.1431 -20.1430 -20.1426
   -20.1418 -20.1416 -20.1409 -20.1405 -20.1371 -20.1366 -20.1361 -20.1357
   -20.1340 -20.1339 -20.1329 -20.1327 -20.1312 -20.1309 -20.1299 -20.1298
    -9.5876  -9.5865  -9.2207  -9.2084  -9.1234  -9.1102  -8.8541  -8.8519
    -8.3944  -8.3943  -8.3434  -8.3433  -8.3297  -8.3294  -8.3221  -8.3208
    -7.7981  -7.7662  -7.6826  -7.6720  -7.6434  -7.6303  -7.5664  -7.5313
     1.4345   1.4398   1.4566   1.4700   1.7039   1.7179   1.9028   1.9031
     2.6722   2.6729   3.1705   3.1738   3.2658   3.2898   3.3057   3.3312
     3.4022   3.4184   3.4418   3.4450   3.6645   3.6965   3.7212   3.7442
     3.8598   3.8609   4.5097   4.5474   4.8179   4.9498   5.0556   5.1670
     5.2201   5.2317   5.2913   5.3630   5.4559   5.4641   5.6218   5.6348
     5.8654   5.8784   5.8885   5.8964   6.1297   6.1608   6.2206   6.2293
     6.4561   6.4654   6.5146   6.5171   6.7335   6.7811   6.9437   6.9963
     7.0788   7.0930   7.1626   7.1670   7.2276   7.2585   7.5819   7.5966
     7.6230   7.6326   7.6518   7.6629   7.6682   7.6715   7.9776   7.9778
     9.9184   9.9371  11.4017  11.4540  11.4572  11.4689  11.5433  11.5538
    11.6043  11.6502  12.3213  12.4377  12.5501  12.7147  12.8720  12.9003
    13.3345  13.3573  13.3582  13.3698  13.4777  13.5199  13.7232  13.7285
    15.4473  15.5114  15.7535  15.7891  15.7961  15.8709  16.0582  16.0935
    16.7540  16.7602  18.0078  18.0462  18.1725

          k = 0.0000-0.4837 0.3333 ( 61880 PWs)   bands (ev):

   -66.0208 -66.0208 -66.0203 -66.0203 -66.0198 -66.0198 -66.0194 -66.0194
   -30.3994 -30.3964 -30.3927 -30.3858 -30.3843 -30.3784 -30.3743 -30.3734
   -30.3678 -30.3653 -30.3578 -30.3577 -30.3433 -30.3400 -30.3384 -30.3348
   -30.3068 -30.3037 -30.2967 -30.2929 -30.2837 -30.2803 -30.2714 -30.2693
   -20.1807 -20.1806 -20.1806 -20.1804 -20.1803 -20.1801 -20.1801 -20.1800
   -20.1603 -20.1602 -20.1601 -20.1599 -20.1598 -20.1595 -20.1594 -20.1592
   -20.1589 -20.1588 -20.1587 -20.1586 -20.1585 -20.1584 -20.1583 -20.1582
   -20.1537 -20.1536 -20.1535 -20.1532 -20.1532 -20.1531 -20.1529 -20.1529
   -20.1472 -20.1470 -20.1458 -20.1453 -20.1438 -20.1427 -20.1427 -20.1426
   -20.1417 -20.1415 -20.1415 -20.1399 -20.1383 -20.1373 -20.1364 -20.1359
   -20.1337 -20.1334 -20.1331 -20.1322 -20.1319 -20.1306 -20.1306 -20.1300
    -9.4680  -9.4634  -9.2663  -9.2548  -8.8944  -8.8798  -8.7248  -8.7161
    -8.4306  -8.4286  -8.3702  -8.3690  -8.3230  -8.3222  -8.2982  -8.2980
    -8.0697  -8.0452  -7.9746  -7.9512  -7.6467  -7.6109  -7.5878  -7.5524
     1.4659   1.4775   1.4813   1.4893   2.3692   2.3859   2.5341   2.5407
     2.9207   2.9236   3.1802   3.1879   3.2471   3.2800   3.3266   3.3286
     3.4459   3.4502   3.5191   3.5384   3.6391   3.6765   3.8612   3.8690
     3.9218   3.9280   3.9689   3.9875   4.4918   4.5153   4.6789   4.7045
     4.8652   4.9090   4.9564   5.0314   5.2894   5.2943   5.3406   5.3665
     5.5135   5.5153   5.7895   5.8034   6.2461   6.2609   6.2662   6.3203
     6.5842   6.5891   6.6202   6.7125   6.7360   6.7648   6.8738   6.9218
     7.1526   7.1782   7.2429   7.2690   7.2730   7.2990   7.5600   7.6082
     7.6203   7.6326   7.6508   7.6548   7.6623   7.6775   7.9010   7.9018
    10.5883  10.6394  11.4054  11.4550  11.4681  11.4918  11.8578  11.8618
    11.8850  11.9491  12.0063  12.1206  12.6072  12.7661  12.8080  12.8348
    12.9367  12.9421  13.1565  13.1846  13.4806  13.5207  13.6036  13.6448
    15.4941  15.5752  15.6985  15.7652  16.3685  16.4008  16.7627  16.7970
    16.9559  16.9706  17.5422  17.5779  18.0634

          k = 0.0000-0.4837-0.5000 ( 61860 PWs)   bands (ev):

   -66.0205 -66.0205 -66.0205 -66.0205 -66.0196 -66.0196 -66.0196 -66.0196
   -30.3978 -30.3978 -30.3884 -30.3884 -30.3782 -30.3782 -30.3754 -30.3753
   -30.3616 -30.3616 -30.3603 -30.3603 -30.3268 -30.3268 -30.3238 -30.3238
   -30.3183 -30.3183 -30.3144 -30.3144 -30.2824 -30.2824 -30.2704 -30.2704
   -20.1806 -20.1806 -20.1804 -20.1804 -20.1803 -20.1802 -20.1801 -20.1801
   -20.1603 -20.1603 -20.1600 -20.1600 -20.1597 -20.1597 -20.1593 -20.1593
   -20.1589 -20.1589 -20.1586 -20.1586 -20.1585 -20.1584 -20.1583 -20.1583
   -20.1537 -20.1536 -20.1534 -20.1534 -20.1530 -20.1530 -20.1530 -20.1530
   -20.1471 -20.1471 -20.1446 -20.1446 -20.1439 -20.1439 -20.1422 -20.1422
   -20.1421 -20.1421 -20.1399 -20.1399 -20.1387 -20.1387 -20.1362 -20.1362
   -20.1334 -20.1334 -20.1327 -20.1327 -20.1315 -20.1315 -20.1303 -20.1303
    -9.3492  -9.3492  -9.3384  -9.3384  -8.6074  -8.6074  -8.5783  -8.5783
    -8.5074  -8.5074  -8.4824  -8.4824  -8.3026  -8.3025  -8.2575  -8.2575
    -8.2369  -8.2369  -8.1952  -8.1952  -7.6173  -7.6173  -7.5816  -7.5816
     1.4777   1.4778   1.4891   1.4891   3.0593   3.0593   3.1517   3.1517
     3.1920   3.1921   3.2475   3.2475   3.2733   3.2733   3.3383   3.3383
     3.3824   3.3824   3.5037   3.5037   3.5728   3.5728   3.5918   3.5918
     3.7143   3.7143   3.9392   3.9392   4.3191   4.3192   4.4232   4.4232
     4.4695   4.4695   4.5533   4.5533   5.2812   5.2812   5.3431   5.3431
     5.5957   5.5957   5.6788   5.6789   6.3210   6.3210   6.3332   6.3332
     6.6104   6.6104   6.6257   6.6257   6.6864   6.6864   6.7285   6.7285
     7.3605   7.3605   7.3814   7.3815   7.4582   7.4582   7.5367   7.5367
     7.6286   7.6286   7.6623   7.6623   7.7118   7.7118   7.7437   7.7437
    11.2730  11.2730  11.4036  11.4036  11.4859  11.4859  11.5251  11.5251
    12.2769  12.2769  12.3113  12.3113  12.4329  12.4329  12.4671  12.4671
    12.8865  12.8865  13.0343  13.0343  13.5070  13.5070  13.5530  13.5530
    15.6011  15.6011  15.6734  15.6734  16.9762  16.9762  17.0658  17.0659
    17.4395  17.4395  17.5349  17.5349  17.5988

          k = 0.1667 0.0000 0.1667 ( 61828 PWs)   bands (ev):

   -66.0211 -66.0206 -66.0203 -66.0203 -66.0198 -66.0198 -66.0195 -66.0190
   -30.4199 -30.4130 -30.4129 -30.4055 -30.3867 -30.3765 -30.3759 -30.3716
   -30.3692 -30.3599 -30.3593 -30.3565 -30.3416 -30.3320 -30.3318 -30.3215
   -30.2911 -30.2903 -30.2889 -30.2888 -30.2770 -30.2768 -30.2754 -30.2707
   -20.1808 -20.1806 -20.1806 -20.1805 -20.1802 -20.1801 -20.1801 -20.1799
   -20.1610 -20.1605 -20.1605 -20.1601 -20.1599 -20.1596 -20.1596 -20.1594
   -20.1592 -20.1591 -20.1591 -20.1588 -20.1585 -20.1580 -20.1580 -20.1574
   -20.1557 -20.1553 -20.1552 -20.1549 -20.1512 -20.1507 -20.1507 -20.1502
   -20.1470 -20.1466 -20.1465 -20.1465 -20.1432 -20.1432 -20.1426 -20.1426
   -20.1422 -20.1415 -20.1407 -20.1407 -20.1371 -20.1371 -20.1362 -20.1362
   -20.1339 -20.1337 -20.1328 -20.1328 -20.1311 -20.1311 -20.1300 -20.1300
    -9.7457  -9.4106  -9.3741  -9.3726  -9.0388  -9.0368  -9.0146  -8.8289
    -8.8064  -8.7715  -8.7322  -8.7304  -7.8492  -7.7865  -7.7619  -7.7387
    -7.7317  -7.7083  -7.6847  -7.6554  -7.6312  -7.6206  -7.6137  -7.5829
     1.5254   1.5482   1.5537   1.6091   1.6104   1.6493   1.7113   1.7252
     1.8349   1.8486   2.0026   2.1778   2.6991   2.7422   2.7631   2.8165
     2.8626   2.8912   4.2469   4.2728   4.4657   4.4672   4.5594   4.6111
     4.6131   4.6588   4.6653   4.7387   4.8668   4.9140   5.3266   5.3594
     5.3777   5.4475   5.4494   5.6371   5.6688   5.6995   5.7131   5.7828
     5.8266   5.8585   5.8756   5.9577   5.9971   6.1610   6.2667   6.3327
     6.4591   6.6119   6.6564   6.7232   6.8013   6.8349   6.8965   6.9033
     6.9298   6.9494   6.9683   6.9897   7.0087   7.0416   7.1050   7.1759
     7.3023   7.3383   7.9472   7.9572   8.0993   8.1035   8.1390   8.2047
    10.0883  10.1225  10.1930  10.2690  10.3906  10.4043  12.3404  12.3419
    12.4449  12.4539  12.6051  12.6052  12.6978  12.8331  12.8338  12.8513
    13.0809  13.1646  13.3258  13.4403  13.7327  13.8510  13.9158  14.0549
    14.7143  14.9368  14.9445  15.3051  15.6067  15.6129  15.6990  16.4210
    16.4224  17.0625  17.0628  17.2743  17.7095

          k = 0.1667 0.0000 0.3333 ( 61834 PWs)   bands (ev):

   -66.0210 -66.0205 -66.0204 -66.0202 -66.0199 -66.0197 -66.0196 -66.0191
   -30.4179 -30.4141 -30.4108 -30.4067 -30.3818 -30.3772 -30.3651 -30.3636
   -30.3617 -30.3600 -30.3449 -30.3444 -30.3439 -30.3360 -30.3268 -30.3179
   -30.3061 -30.3037 -30.2968 -30.2918 -30.2887 -30.2841 -30.2762 -30.2736
   -20.1808 -20.1806 -20.1805 -20.1804 -20.1803 -20.1802 -20.1801 -20.1800
   -20.1609 -20.1606 -20.1604 -20.1600 -20.1600 -20.1597 -20.1596 -20.1594
   -20.1593 -20.1592 -20.1591 -20.1589 -20.1583 -20.1581 -20.1578 -20.1575
   -20.1556 -20.1554 -20.1552 -20.1549 -20.1511 -20.1508 -20.1506 -20.1503
   -20.1468 -20.1466 -20.1457 -20.1454 -20.1436 -20.1429 -20.1427 -20.1423
   -20.1419 -20.1414 -20.1412 -20.1401 -20.1382 -20.1374 -20.1369 -20.1364
   -20.1336 -20.1333 -20.1330 -20.1323 -20.1318 -20.1309 -20.1307 -20.1303
    -9.6325  -9.4236  -9.2773  -9.2383  -9.0781  -9.0475  -8.7941  -8.7748
    -8.7436  -8.6799  -8.6649  -8.6108  -8.0964  -8.0592  -8.0224  -7.9971
    -7.7825  -7.7370  -7.7222  -7.6798  -7.6552  -7.6303  -7.6217  -7.5939
     1.5348   1.5437   1.6207   1.6410   1.7261   1.7382   1.8074   1.8463
     2.3983   2.4501   2.5519   2.6396   2.7652   2.8561   2.9632   2.9977
     3.0829   3.1277   3.8883   3.9691   4.0424   4.1135   4.1637   4.4243
     4.4783   4.5863   4.6203   4.6385   4.7033   4.8564   4.8670   4.9807
     5.1677   5.2369   5.2775   5.3229   5.3646   5.5670   5.6914   5.7475
     5.8413   5.8956   5.9271   5.9967   6.0093   6.0871   6.1841   6.1991
     6.4882   6.5735   6.6126   6.6388   6.6971   6.7698   6.8429   6.8831
     6.8896   6.9713   6.9847   7.0237   7.1449   7.1843   7.2661   7.3261
     7.3897   7.4236   7.8671   7.8843   7.9866   8.0193   8.1521   8.1722
    10.2573  10.2632  10.6907  10.7570  10.9118  11.0210  12.0208  12.1227
    12.2085  12.4192  12.4912  12.5735  12.7046  12.8129  12.8455  12.9301
    13.0448  13.1747  13.2278  13.3025  13.6476  13.7021  13.8871  13.9149
    14.7902  14.9187  15.1380  15.5957  15.6017  15.8659  16.0278  16.3248
    16.5385  17.2354  17.5241  17.5913  17.7225

          k = 0.1667 0.0000-0.5000 ( 61802 PWs)   bands (ev):

   -66.0207 -66.0207 -66.0202 -66.0202 -66.0199 -66.0199 -66.0194 -66.0194
   -30.4159 -30.4159 -30.4086 -30.4085 -30.3790 -30.3790 -30.3623 -30.3623
   -30.3511 -30.3511 -30.3461 -30.3461 -30.3254 -30.3254 -30.3240 -30.3240
   -30.3138 -30.3138 -30.3086 -30.3086 -30.2875 -30.2875 -30.2751 -30.2751
   -20.1807 -20.1807 -20.1804 -20.1804 -20.1803 -20.1803 -20.1800 -20.1800
   -20.1608 -20.1608 -20.1603 -20.1602 -20.1598 -20.1598 -20.1595 -20.1595
   -20.1593 -20.1593 -20.1590 -20.1590 -20.1582 -20.1582 -20.1577 -20.1577
   -20.1555 -20.1555 -20.1551 -20.1551 -20.1510 -20.1509 -20.1505 -20.1505
   -20.1467 -20.1467 -20.1445 -20.1445 -20.1440 -20.1440 -20.1422 -20.1422
   -20.1419 -20.1419 -20.1399 -20.1398 -20.1388 -20.1388 -20.1366 -20.1366
   -20.1333 -20.1333 -20.1326 -20.1326 -20.1316 -20.1316 -20.1306 -20.1306
    -9.5118  -9.5117  -9.1541  -9.1541  -9.1163  -9.1163  -8.7601  -8.7601
    -8.4469  -8.4469  -8.4210  -8.4209  -8.3907  -8.3907  -8.3471  -8.3471
    -7.7589  -7.7589  -7.7009  -7.7009  -7.6465  -7.6465  -7.6085  -7.6085
     1.5377   1.5377   1.6330   1.6330   1.7407   1.7407   1.8466   1.8466
     2.7929   2.7930   3.1294   3.1294   3.2015   3.2015   3.3129   3.3129
     3.3760   3.3760   3.4867   3.4867   3.7137   3.7137   3.8821   3.8821
     3.8998   3.8999   4.5393   4.5393   4.6405   4.6405   5.0464   5.0464
     5.1426   5.1426   5.2070   5.2070   5.4055   5.4055   5.7935   5.7935
     5.8333   5.8333   5.9248   5.9248   5.9944   5.9944   6.1670   6.1670
     6.4324   6.4324   6.5777   6.5777   6.7026   6.7026   6.8923   6.8924
     6.9485   6.9485   7.0338   7.0338   7.0912   7.0912   7.6196   7.6196
     7.6667   7.6667   7.7460   7.7460   7.7894   7.7894   8.1619   8.1619
    10.2679  10.2679  11.3951  11.3951  11.4812  11.4812  11.6065  11.6065
    11.7712  11.7712  12.6360  12.6360  12.8366  12.8366  12.8729  12.8729
    13.0513  13.0513  13.3615  13.3615  13.4117  13.4117  13.8806  13.8806
    14.8735  14.8735  15.4073  15.4073  16.0070  16.0070  16.1411  16.1411
    16.8275  16.8275  17.9999  18.0000  18.1327

          k = 0.1667 0.1612 0.1667 ( 61853 PWs)   bands (ev):

   -66.0211 -66.0206 -66.0203 -66.0203 -66.0198 -66.0198 -66.0195 -66.0190
   -30.4164 -30.4092 -30.4091 -30.4011 -30.3876 -30.3771 -30.3764 -30.3714
   -30.3694 -30.3595 -30.3589 -30.3556 -30.3456 -30.3353 -30.3351 -30.3252
   -30.2910 -30.2904 -30.2890 -30.2889 -30.2773 -30.2771 -30.2752 -30.2713
   -20.1808 -20.1805 -20.1805 -20.1805 -20.1802 -20.1801 -20.1801 -20.1799
   -20.1609 -20.1604 -20.1604 -20.1601 -20.1598 -20.1596 -20.1596 -20.1593
   -20.1592 -20.1590 -20.1590 -20.1588 -20.1585 -20.1581 -20.1580 -20.1575
   -20.1555 -20.1550 -20.1550 -20.1546 -20.1516 -20.1510 -20.1510 -20.1506
   -20.1470 -20.1466 -20.1465 -20.1465 -20.1432 -20.1432 -20.1426 -20.1426
   -20.1422 -20.1415 -20.1407 -20.1407 -20.1371 -20.1371 -20.1362 -20.1362
   -20.1339 -20.1337 -20.1328 -20.1328 -20.1311 -20.1311 -20.1300 -20.1300
    -9.7102  -9.4233  -9.3294  -9.3278  -9.0475  -9.0454  -8.9367  -8.8274
    -8.8077  -8.7264  -8.6969  -8.6953  -7.8736  -7.7989  -7.7799  -7.7680
    -7.7537  -7.7533  -7.7264  -7.7158  -7.6857  -7.6638  -7.6444  -7.6333
     1.6042   1.6053   1.6485   1.6617   1.6951   1.7237   1.7259   1.8723
     1.9717   1.9875   2.0097   2.2578   2.7165   2.8096   2.8108   2.8411
     2.9383   2.9588   4.1826   4.1883   4.3094   4.3335   4.5072   4.5444
     4.5950   4.6166   4.6208   4.7509   4.7954   4.8261   5.1669   5.2894
     5.3172   5.4342   5.4352   5.4735   5.5044   5.5930   5.6440   5.7099
     5.8632   5.8704   5.9607   5.9706   5.9973   6.0668   6.2654   6.3168
     6.4960   6.5485   6.5885   6.7745   6.7797   6.8396   6.8546   6.8566
     6.8928   6.9939   7.0139   7.0141   7.0529   7.0944   7.1278   7.1727
     7.3108   7.3395   7.9406   7.9580   8.0713   8.0780   8.1048   8.1390
    10.1306  10.1427  10.3891  10.4422  10.5426  10.5549  12.3423  12.3460
    12.3913  12.4150  12.5848  12.5871  12.6694  12.6909  12.7266  12.8836
    13.0378  13.1274  13.3134  13.4466  13.7582  13.8029  13.8872  13.9680
    14.8955  15.1375  15.1383  15.4235  15.6097  15.6109  16.0815  16.3898
    16.3926  16.9730  17.1761  17.1899  17.7740

          k = 0.1667 0.1612 0.3333 ( 61837 PWs)   bands (ev):

   -66.0209 -66.0205 -66.0205 -66.0201 -66.0200 -66.0197 -66.0196 -66.0192
   -30.4142 -30.4103 -30.4067 -30.4023 -30.3826 -30.3779 -30.3658 -30.3641
   -30.3617 -30.3599 -30.3482 -30.3445 -30.3439 -30.3388 -30.3292 -30.3212
   -30.3062 -30.3038 -30.2970 -30.2924 -30.2889 -30.2842 -30.2765 -30.2741
   -20.1807 -20.1806 -20.1805 -20.1804 -20.1802 -20.1802 -20.1801 -20.1800
   -20.1608 -20.1605 -20.1603 -20.1600 -20.1599 -20.1597 -20.1595 -20.1593
   -20.1593 -20.1591 -20.1590 -20.1589 -20.1584 -20.1581 -20.1579 -20.1576
   -20.1554 -20.1551 -20.1550 -20.1547 -20.1515 -20.1511 -20.1510 -20.1507
   -20.1468 -20.1466 -20.1457 -20.1454 -20.1436 -20.1428 -20.1427 -20.1423
   -20.1419 -20.1414 -20.1412 -20.1401 -20.1382 -20.1374 -20.1369 -20.1364
   -20.1336 -20.1333 -20.1330 -20.1323 -20.1318 -20.1309 -20.1307 -20.1303
    -9.5933  -9.3794  -9.2897  -9.1799  -9.0874  -8.9704  -8.8008  -8.7513
    -8.7086  -8.6804  -8.6487  -8.5895  -8.0975  -8.0649  -8.0288  -8.0002
    -7.8050  -7.7791  -7.7485  -7.7362  -7.7109  -7.7077  -7.6882  -7.6600
     1.6547   1.6676   1.7242   1.7350   1.8462   1.8526   1.9288   1.9812
     2.3994   2.4572   2.5540   2.6526   2.8407   2.9244   2.9869   3.0697
     3.0810   3.1880   3.8990   3.9750   4.0416   4.0819   4.2064   4.3028
     4.3766   4.4920   4.5645   4.6212   4.6669   4.7859   4.8192   4.9443
     5.0386   5.0776   5.1054   5.2587   5.3309   5.3620   5.4952   5.6607
     5.7610   5.8097   5.8754   5.9494   6.0129   6.0189   6.1290   6.1630
     6.4737   6.5943   6.6627   6.7331   6.7853   6.8053   6.8318   6.9040
     6.9445   6.9839   7.0427   7.0883   7.1431   7.1877   7.2759   7.3258
     7.3998   7.4387   7.8646   7.8822   7.9671   7.9972   8.1066   8.1169
    10.4336  10.4444  10.7239  10.7747  11.0276  11.1110  12.0229  12.1340
    12.2206  12.4565  12.4982  12.5645  12.6792  12.6999  12.8006  12.8382
    12.9173  13.1211  13.2182  13.2892  13.5762  13.6185  13.8465  13.8588
    15.0154  15.1217  15.4275  15.6890  15.8669  15.9683  16.0582  16.3035
    16.6454  17.2021  17.3852  17.5789  17.6728

          k = 0.1667 0.1612-0.5000 ( 61824 PWs)   bands (ev):

   -66.0207 -66.0207 -66.0202 -66.0202 -66.0199 -66.0199 -66.0194 -66.0194
   -30.4121 -30.4121 -30.4043 -30.4042 -30.3797 -30.3797 -30.3620 -30.3620
   -30.3540 -30.3539 -30.3476 -30.3476 -30.3257 -30.3257 -30.3240 -30.3240
   -30.3147 -30.3147 -30.3105 -30.3104 -30.2876 -30.2876 -30.2754 -30.2754
   -20.1807 -20.1806 -20.1804 -20.1803 -20.1803 -20.1803 -20.1800 -20.1800
   -20.1607 -20.1606 -20.1601 -20.1601 -20.1598 -20.1598 -20.1594 -20.1594
   -20.1592 -20.1592 -20.1590 -20.1590 -20.1583 -20.1582 -20.1578 -20.1578
   -20.1553 -20.1553 -20.1549 -20.1548 -20.1513 -20.1513 -20.1508 -20.1508
   -20.1467 -20.1467 -20.1445 -20.1445 -20.1440 -20.1440 -20.1423 -20.1422
   -20.1419 -20.1419 -20.1399 -20.1398 -20.1388 -20.1388 -20.1366 -20.1366
   -20.1333 -20.1333 -20.1326 -20.1326 -20.1316 -20.1316 -20.1306 -20.1306
    -9.4692  -9.4692  -9.1649  -9.1649  -9.0441  -9.0441  -8.7258  -8.7258
    -8.4512  -8.4512  -8.4250  -8.4250  -8.3895  -8.3895  -8.3407  -8.3407
    -7.7933  -7.7933  -7.7320  -7.7320  -7.7144  -7.7144  -7.6842  -7.6842
     1.6616   1.6616   1.7380   1.7380   1.8578   1.8578   1.9769   1.9769
     2.8643   2.8643   3.1421   3.1421   3.2222   3.2222   3.3217   3.3217
     3.3803   3.3803   3.5058   3.5058   3.7069   3.7069   3.9108   3.9108
     3.9374   3.9374   4.4208   4.4208   4.5695   4.5695   4.8819   4.8819
     5.0516   5.0516   5.1444   5.1444   5.2111   5.2111   5.5999   5.5999
     5.7824   5.7824   5.8363   5.8363   5.9569   5.9569   6.0444   6.0444
     6.5733   6.5734   6.7087   6.7087   6.7713   6.7713   6.8634   6.8634
     6.9916   6.9916   7.0334   7.0334   7.1380   7.1380   7.6226   7.6226
     7.6614   7.6615   7.7431   7.7431   7.7818   7.7818   8.1120   8.1120
    10.4519  10.4519  11.4097  11.4097  11.4873  11.4873  11.6822  11.6822
    11.8307  11.8307  12.6518  12.6518  12.7058  12.7058  12.8510  12.8510
    13.0350  13.0350  13.2445  13.2445  13.3265  13.3265  13.8369  13.8370
    15.0875  15.0875  15.7447  15.7447  16.0937  16.0937  16.1566  16.1566
    16.8668  16.8668  17.8674  17.8674  18.0961

          k = 0.1667 0.3225 0.1667 ( 61869 PWs)   bands (ev):

   -66.0210 -66.0207 -66.0202 -66.0202 -66.0199 -66.0199 -66.0194 -66.0191
   -30.4075 -30.3997 -30.3995 -30.3909 -30.3891 -30.3793 -30.3787 -30.3708
   -30.3698 -30.3580 -30.3571 -30.3567 -30.3523 -30.3436 -30.3434 -30.3345
   -30.2910 -30.2906 -30.2891 -30.2890 -30.2779 -30.2778 -30.2748 -30.2727
   -20.1807 -20.1806 -20.1805 -20.1805 -20.1802 -20.1802 -20.1801 -20.1800
   -20.1606 -20.1603 -20.1602 -20.1601 -20.1596 -20.1596 -20.1594 -20.1592
   -20.1591 -20.1589 -20.1589 -20.1587 -20.1586 -20.1583 -20.1582 -20.1578
   -20.1548 -20.1544 -20.1543 -20.1539 -20.1525 -20.1520 -20.1520 -20.1516
   -20.1469 -20.1467 -20.1465 -20.1465 -20.1432 -20.1432 -20.1426 -20.1426
   -20.1421 -20.1417 -20.1407 -20.1407 -20.1371 -20.1371 -20.1362 -20.1362
   -20.1339 -20.1338 -20.1328 -20.1328 -20.1311 -20.1311 -20.1300 -20.1300
    -9.6245  -9.4631  -9.2272  -9.2252  -9.0758  -9.0736  -8.8232  -8.8119
    -8.7161  -8.5826  -8.5722  -8.5707  -8.0787  -8.0241  -8.0234  -7.9993
    -7.8014  -7.7890  -7.7526  -7.7335  -7.7026  -7.6884  -7.6508  -7.6391
     1.6052   1.6057   1.6964   1.7038   1.7190   1.7270   1.9359   1.9973
     2.4617   2.5812   2.5855   2.7292   2.7389   2.8049   3.0341   3.0760
     3.1560   3.1655   3.8332   3.8753   3.8900   3.9269   4.1872   4.4797
     4.4974   4.5620   4.5744   4.6273   4.6636   4.8791   4.9002   4.9547
     5.0006   5.0643   5.2155   5.2419   5.4700   5.4797   5.4941   5.5298
     5.7972   5.8142   5.8388   5.8709   5.9580   5.9685   6.2887   6.3256
     6.5103   6.5646   6.6231   6.7305   6.8391   6.8721   6.9114   6.9134
     7.0093   7.0166   7.1064   7.1134   7.2226   7.2375   7.2591   7.2703
     7.3663   7.3693   7.8738   7.9207   7.9410   7.9586   7.9667   7.9952
    10.1598  10.1625  10.8964  10.9077  10.9830  11.0161  12.0760  12.1056
    12.2015  12.2252  12.3795  12.3810  12.5864  12.5913  12.8143  12.9770
    13.0612  13.1477  13.2945  13.4413  13.5949  13.5988  13.7356  13.7812
    15.3920  15.5462  15.5636  15.6643  15.6898  15.9456  16.2783  16.2823
    16.4622  17.0383  17.4772  17.5540  17.6405

          k = 0.1667 0.3225 0.3333 ( 61867 PWs)   bands (ev):

   -66.0208 -66.0206 -66.0204 -66.0201 -66.0200 -66.0197 -66.0196 -66.0193
   -30.4048 -30.4007 -30.3958 -30.3905 -30.3859 -30.3803 -30.3706 -30.3641
   -30.3621 -30.3593 -30.3582 -30.3463 -30.3438 -30.3423 -30.3345 -30.3289
   -30.3065 -30.3040 -30.2975 -30.2933 -30.2891 -30.2845 -30.2772 -30.2749
   -20.1807 -20.1805 -20.1805 -20.1804 -20.1803 -20.1802 -20.1801 -20.1800
   -20.1605 -20.1603 -20.1601 -20.1600 -20.1598 -20.1596 -20.1595 -20.1593
   -20.1591 -20.1589 -20.1588 -20.1587 -20.1586 -20.1583 -20.1582 -20.1579
   -20.1547 -20.1544 -20.1543 -20.1540 -20.1524 -20.1521 -20.1519 -20.1517
   -20.1468 -20.1466 -20.1457 -20.1454 -20.1437 -20.1428 -20.1427 -20.1423
   -20.1420 -20.1414 -20.1412 -20.1401 -20.1383 -20.1374 -20.1369 -20.1364
   -20.1336 -20.1333 -20.1330 -20.1323 -20.1318 -20.1309 -20.1307 -20.1303
    -9.4991  -9.3293  -9.2767  -9.1183  -9.0374  -8.8320  -8.7528  -8.7128
    -8.6851  -8.5855  -8.5500  -8.5053  -8.1502  -8.1216  -8.0668  -8.0276
    -8.0158  -7.9894  -7.9585  -7.9068  -7.7627  -7.7260  -7.7050  -7.6694
     1.7103   1.7231   1.7280   1.7371   2.3051   2.3567   2.3916   2.4984
     2.5144   2.6139   2.6255   2.8013   2.9946   3.0622   3.0759   3.1514
     3.3036   3.3741   3.8108   3.8615   3.9002   3.9689   4.0144   4.0863
     4.1393   4.3027   4.5065   4.5348   4.5700   4.6097   4.6482   4.7820
     4.8570   4.9258   4.9341   4.9897   5.0410   5.0873   5.2021   5.3144
     5.4355   5.4607   5.5376   5.7655   5.8617   5.9610   6.1501   6.1624
     6.6484   6.6864   6.7418   6.8207   6.8956   6.9091   6.9964   7.0691
     7.1050   7.1350   7.1668   7.1848   7.2145   7.2700   7.3149   7.3743
     7.4413   7.4818   7.8157   7.8540   7.8907   7.8993   7.9399   7.9642
    10.7072  10.7531  10.9376  10.9859  11.3643  11.4216  11.9963  12.0978
    12.1471  12.2493  12.3369  12.4001  12.5679  12.6322  12.6901  12.7339
    12.9123  13.0782  13.1537  13.2512  13.3453  13.4422  13.6543  13.6764
    15.5159  15.6013  15.8056  16.0902  16.1393  16.1877  16.2372  16.8680
    16.9159  17.0156  17.1162  17.7073  17.7923

          k = 0.1667 0.3225-0.5000 ( 61860 PWs)   bands (ev):

   -66.0206 -66.0206 -66.0203 -66.0203 -66.0198 -66.0198 -66.0195 -66.0195
   -30.4025 -30.4025 -30.3927 -30.3927 -30.3824 -30.3824 -30.3633 -30.3632
   -30.3604 -30.3604 -30.3519 -30.3519 -30.3263 -30.3263 -30.3240 -30.3240
   -30.3169 -30.3169 -30.3135 -30.3135 -30.2878 -30.2878 -30.2761 -30.2761
   -20.1806 -20.1806 -20.1804 -20.1804 -20.1803 -20.1803 -20.1801 -20.1801
   -20.1604 -20.1604 -20.1600 -20.1600 -20.1598 -20.1598 -20.1594 -20.1594
   -20.1590 -20.1590 -20.1588 -20.1588 -20.1584 -20.1584 -20.1580 -20.1580
   -20.1546 -20.1546 -20.1542 -20.1542 -20.1523 -20.1522 -20.1518 -20.1518
   -20.1467 -20.1467 -20.1446 -20.1445 -20.1440 -20.1440 -20.1423 -20.1423
   -20.1419 -20.1419 -20.1399 -20.1398 -20.1388 -20.1388 -20.1366 -20.1366
   -20.1333 -20.1333 -20.1326 -20.1326 -20.1316 -20.1316 -20.1306 -20.1306
    -9.3685  -9.3684  -9.2001  -9.2001  -8.8476  -8.8476  -8.6173  -8.6173
    -8.4806  -8.4805  -8.4375  -8.4375  -8.3760  -8.3760  -8.3143  -8.3143
    -8.0199  -8.0199  -7.9789  -7.9789  -7.7345  -7.7345  -7.6979  -7.6979
     1.7245   1.7245   1.7401   1.7401   2.4633   2.4633   2.5734   2.5734
     3.0593   3.0593   3.1744   3.1744   3.2463   3.2464   3.3512   3.3512
     3.3897   3.3897   3.5669   3.5669   3.6770   3.6770   3.8701   3.8701
     4.0575   4.0576   4.1546   4.1546   4.2950   4.2950   4.5165   4.5165
     4.8205   4.8205   4.9678   4.9678   5.0919   5.0919   5.1398   5.1398
     5.2319   5.2319   5.6232   5.6232   5.9374   5.9374   5.9948   5.9948
     6.7386   6.7386   6.8538   6.8538   6.9120   6.9120   6.9431   6.9432
     7.1586   7.1586   7.1933   7.1933   7.2870   7.2870   7.6108   7.6108
     7.6502   7.6502   7.7035   7.7035   7.7422   7.7422   7.9459   7.9459
    10.9268  10.9269  11.4325  11.4325  11.5006  11.5006  11.8704  11.8704
    12.0312  12.0312  12.3108  12.3108  12.6669  12.6669  12.7304  12.7304
    12.9303  12.9303  12.9964  12.9964  13.2569  13.2569  13.6395  13.6395
    15.5686  15.5686  16.0284  16.0284  16.5078  16.5078  16.6671  16.6671
    17.0087  17.0087  17.5231  17.5232  18.0184

          k = 0.1667-0.4837 0.1667 ( 61896 PWs)   bands (ev):

   -66.0209 -66.0209 -66.0201 -66.0201 -66.0201 -66.0200 -66.0193 -66.0192
   -30.3978 -30.3978 -30.3920 -30.3920 -30.3824 -30.3824 -30.3728 -30.3728
   -30.3703 -30.3702 -30.3534 -30.3534 -30.3517 -30.3516 -30.3448 -30.3448
   -30.2908 -30.2908 -30.2891 -30.2891 -30.2781 -30.2781 -30.2740 -30.2740
   -20.1807 -20.1807 -20.1805 -20.1805 -20.1802 -20.1802 -20.1800 -20.1800
   -20.1604 -20.1604 -20.1600 -20.1600 -20.1596 -20.1596 -20.1592 -20.1592
   -20.1589 -20.1589 -20.1587 -20.1587 -20.1584 -20.1584 -20.1582 -20.1582
   -20.1537 -20.1537 -20.1534 -20.1533 -20.1531 -20.1531 -20.1528 -20.1528
   -20.1468 -20.1468 -20.1465 -20.1465 -20.1432 -20.1432 -20.1426 -20.1426
   -20.1419 -20.1419 -20.1407 -20.1407 -20.1371 -20.1371 -20.1362 -20.1362
   -20.1338 -20.1338 -20.1328 -20.1328 -20.1311 -20.1311 -20.1300 -20.1300
    -9.5321  -9.5321  -9.1385  -9.1385  -9.1254  -9.1254  -8.8175  -8.8175
    -8.4019  -8.4018  -8.3421  -8.3420  -8.3315  -8.3315  -8.3186  -8.3186
    -7.7979  -7.7979  -7.7437  -7.7437  -7.6968  -7.6968  -7.6461  -7.6461
     1.6052   1.6052   1.7041   1.7041   1.7261   1.7261   1.9861   1.9861
     2.7619   2.7619   3.1787   3.1787   3.2786   3.2786   3.3203   3.3203
     3.4439   3.4439   3.4758   3.4758   3.7153   3.7153   3.7408   3.7408
     3.8787   3.8787   4.5379   4.5379   4.6186   4.6186   5.0266   5.0266
     5.1284   5.1284   5.1995   5.1995   5.2618   5.2618   5.5728   5.5728
     5.6190   5.6190   5.8445   5.8445   5.9070   5.9070   6.3191   6.3191
     6.6149   6.6149   6.6237   6.6237   6.8683   6.8683   6.9523   6.9523
     6.9944   6.9944   7.1550   7.1550   7.2922   7.2922   7.5862   7.5862
     7.6278   7.6278   7.6489   7.6489   7.6745   7.6745   7.9680   7.9680
    10.1669  10.1669  11.4908  11.4908  11.5585  11.5585  11.5669  11.5669
    11.6641  11.6641  12.3779  12.3779  12.5924  12.5925  12.9379  12.9379
    13.2857  13.2857  13.3372  13.3372  13.3666  13.3666  13.6585  13.6585
    15.5783  15.5783  15.9004  15.9004  16.0413  16.0413  16.0877  16.0877
    16.8132  16.8132  18.0174  18.0175  18.0572

          k = 0.1667-0.4837 0.3333 ( 61866 PWs)   bands (ev):

   -66.0207 -66.0207 -66.0202 -66.0202 -66.0199 -66.0199 -66.0194 -66.0194
   -30.3961 -30.3930 -30.3915 -30.3847 -30.3839 -30.3789 -30.3747 -30.3740
   -30.3637 -30.3627 -30.3548 -30.3534 -30.3435 -30.3388 -30.3385 -30.3345
   -30.3066 -30.3041 -30.2977 -30.2936 -30.2892 -30.2847 -30.2775 -30.2752
   -20.1806 -20.1806 -20.1805 -20.1804 -20.1803 -20.1801 -20.1801 -20.1801
   -20.1603 -20.1602 -20.1601 -20.1599 -20.1597 -20.1595 -20.1594 -20.1593
   -20.1589 -20.1588 -20.1587 -20.1586 -20.1585 -20.1584 -20.1583 -20.1583
   -20.1537 -20.1536 -20.1535 -20.1532 -20.1532 -20.1531 -20.1529 -20.1529
   -20.1468 -20.1466 -20.1458 -20.1454 -20.1437 -20.1428 -20.1427 -20.1423
   -20.1420 -20.1414 -20.1413 -20.1401 -20.1383 -20.1374 -20.1369 -20.1364
   -20.1336 -20.1333 -20.1330 -20.1323 -20.1318 -20.1309 -20.1307 -20.1303
    -9.4021  -9.3982  -9.1854  -9.1734  -8.9105  -8.8961  -8.6992  -8.6924
    -8.4432  -8.4409  -8.3615  -8.3600  -8.3236  -8.3199  -8.3015  -8.3001
    -8.0624  -8.0379  -7.9829  -7.9604  -7.7618  -7.7293  -7.7042  -7.6723
     1.7163   1.7264   1.7313   1.7379   2.3752   2.3911   2.5243   2.5302
     3.0158   3.0179   3.1868   3.1913   3.2701   3.2897   3.3275   3.3375
     3.4489   3.4560   3.5806   3.5929   3.6865   3.7206   3.8497   3.8670
     3.9260   3.9381   4.0139   4.0864   4.4528   4.5080   4.6624   4.7027
     4.7586   4.8225   4.9024   4.9812   5.0587   5.1007   5.1190   5.1616
     5.2600   5.3014   5.4719   5.5516   5.8753   5.8938   6.1506   6.1640
     6.7114   6.7450   6.7687   6.7949   6.9130   6.9540   7.0504   7.0909
     7.1887   7.2199   7.2502   7.2866   7.3038   7.3162   7.5622   7.6050
     7.6142   7.6241   7.6398   7.6549   7.6729   7.6877   7.8966   7.9008
    10.7324  10.7683  11.5056  11.5564  11.5763  11.5883  11.8668  11.8733
    11.8883  11.9486  12.0690  12.1766  12.5552  12.7265  12.7981  12.8252
    12.9330  12.9531  13.0994  13.1376  13.3370  13.3762  13.4804  13.5414
    15.7201  15.7703  15.9668  15.9995  16.4242  16.4532  16.7427  16.7910
    16.9960  17.0070  17.5798  17.6254  17.9562

          k = 0.1667-0.4837-0.5000 ( 61828 PWs)   bands (ev):

   -66.0205 -66.0205 -66.0205 -66.0205 -66.0197 -66.0197 -66.0196 -66.0196
   -30.3944 -30.3944 -30.3868 -30.3868 -30.3786 -30.3786 -30.3759 -30.3759
   -30.3577 -30.3577 -30.3569 -30.3569 -30.3266 -30.3266 -30.3238 -30.3238
   -30.3183 -30.3183 -30.3147 -30.3146 -30.2879 -30.2879 -30.2764 -30.2764
   -20.1806 -20.1806 -20.1804 -20.1804 -20.1803 -20.1803 -20.1801 -20.1801
   -20.1602 -20.1602 -20.1600 -20.1600 -20.1597 -20.1597 -20.1594 -20.1594
   -20.1588 -20.1588 -20.1586 -20.1586 -20.1585 -20.1585 -20.1583 -20.1583
   -20.1536 -20.1536 -20.1534 -20.1534 -20.1531 -20.1531 -20.1530 -20.1530
   -20.1467 -20.1467 -20.1446 -20.1446 -20.1440 -20.1439 -20.1423 -20.1423
   -20.1419 -20.1419 -20.1399 -20.1398 -20.1388 -20.1388 -20.1366 -20.1366
   -20.1333 -20.1333 -20.1326 -20.1326 -20.1316 -20.1316 -20.1306 -20.1306
    -9.2732  -9.2732  -9.2619  -9.2619  -8.6254  -8.6254  -8.5975  -8.5975
    -8.4905  -8.4905  -8.4660  -8.4660  -8.2994  -8.2994  -8.2566  -8.2566
    -8.2375  -8.2375  -8.1980  -8.1980  -7.7337  -7.7337  -7.7010  -7.7010
     1.7313   1.7313   1.7411   1.7411   3.0690   3.0690   3.1447   3.1447
     3.1945   3.1945   3.2528   3.2528   3.2921   3.2921   3.3731   3.3731
     3.4010   3.4010   3.5585   3.5585   3.6220   3.6220   3.6426   3.6426
     3.7537   3.7537   3.9648   3.9649   4.3245   4.3245   4.4107   4.4107
     4.4740   4.4740   4.5422   4.5422   4.9752   4.9753   5.1210   5.1210
     5.2709   5.2709   5.4165   5.4166   5.9397   5.9397   5.9615   5.9615
     6.8095   6.8095   6.8600   6.8600   6.9232   6.9232   6.9728   6.9728
     7.3598   7.3598   7.3799   7.3799   7.4901   7.4901   7.5373   7.5373
     7.6191   7.6191   7.6638   7.6638   7.7179   7.7179   7.7555   7.7555
    11.3566  11.3567  11.4730  11.4730  11.5825  11.5825  11.6456  11.6456
    12.2851  12.2851  12.3147  12.3147  12.4408  12.4408  12.4637  12.4637
    12.8551  12.8551  12.9596  12.9596  13.3556  13.3556  13.4263  13.4263
    15.8629  15.8629  15.9045  15.9045  17.0281  17.0281  17.1170  17.1171
    17.4423  17.4423  17.5437  17.5438  17.6064

          k = 0.3333 0.0000 0.3333 ( 61810 PWs)   bands (ev):

   -66.0208 -66.0203 -66.0203 -66.0202 -66.0199 -66.0198 -66.0198 -66.0193
   -30.4159 -30.4121 -30.4118 -30.4079 -30.3726 -30.3658 -30.3644 -30.3555
   -30.3527 -30.3474 -30.3458 -30.3441 -30.3400 -30.3314 -30.3306 -30.3149
   -30.3087 -30.3068 -30.3046 -30.3025 -30.2926 -30.2915 -30.2905 -30.2851
   -20.1807 -20.1805 -20.1805 -20.1804 -20.1803 -20.1802 -20.1802 -20.1800
   -20.1608 -20.1605 -20.1605 -20.1602 -20.1599 -20.1597 -20.1596 -20.1594
   -20.1593 -20.1592 -20.1591 -20.1590 -20.1582 -20.1580 -20.1579 -20.1576
   -20.1556 -20.1553 -20.1552 -20.1550 -20.1510 -20.1507 -20.1507 -20.1504
   -20.1459 -20.1455 -20.1455 -20.1453 -20.1433 -20.1433 -20.1431 -20.1424
   -20.1412 -20.1412 -20.1405 -20.1404 -20.1381 -20.1381 -20.1376 -20.1375
   -20.1332 -20.1331 -20.1325 -20.1325 -20.1316 -20.1316 -20.1310 -20.1309
    -9.5077  -9.2896  -9.2850  -9.1001  -9.0840  -8.8387  -8.8303  -8.6839
    -8.6311  -8.6254  -8.6179  -8.5909  -8.1403  -8.0922  -8.0685  -8.0520
    -8.0373  -8.0193  -7.9520  -7.9179  -7.6627  -7.6334  -7.6332  -7.6050
     1.5846   1.6057   1.6113   1.6315   2.2951   2.2957   2.3880   2.4261
     2.4426   2.4918   2.6348   2.7418   2.9741   3.0283   3.0508   3.0992
     3.3157   3.3616   3.8564   3.9450   4.0324   4.0365   4.1536   4.1870
     4.1945   4.1955   4.4183   4.4292   4.5050   4.6049   4.6348   4.7325
     4.8312   4.9626   5.1255   5.1335   5.1505   5.2445   5.3084   5.5175
     5.5803   5.6001   5.6426   5.8349   6.0645   6.0706   6.0792   6.2075
     6.5723   6.6012   6.6165   6.6282   6.6411   6.6775   6.6932   6.7025
     7.0665   7.2402   7.2622   7.2643   7.3001   7.3283   7.3919   7.4383
     7.4624   7.5299   7.8226   7.8273   7.9692   7.9825   8.0754   8.0785
    10.8004  10.8499  10.8553  10.9571  11.1986  11.3029  12.1674  12.1720
    12.2078  12.2494  12.2817  12.3447  12.4969  12.5103  12.9806  13.0159
    13.0203  13.0411  13.1133  13.1233  13.6186  13.6188  13.7172  13.7534
    14.8891  15.0947  15.1071  15.5091  16.0205  16.3491  16.3597  16.8694
    16.9192  17.2147  17.2258  17.8264  17.8346

          k = 0.3333 0.0000-0.5000 ( 61856 PWs)   bands (ev):

   -66.0206 -66.0206 -66.0201 -66.0201 -66.0200 -66.0200 -66.0196 -66.0195
   -30.4137 -30.4137 -30.4097 -30.4097 -30.3673 -30.3673 -30.3531 -30.3531
   -30.3474 -30.3474 -30.3416 -30.3416 -30.3262 -30.3262 -30.3233 -30.3233
   -30.3181 -30.3181 -30.3070 -30.3070 -30.3009 -30.3009 -30.2895 -30.2895
   -20.1806 -20.1806 -20.1804 -20.1804 -20.1803 -20.1803 -20.1801 -20.1801
   -20.1607 -20.1607 -20.1603 -20.1603 -20.1598 -20.1598 -20.1595 -20.1595
   -20.1593 -20.1593 -20.1591 -20.1591 -20.1581 -20.1581 -20.1578 -20.1578
   -20.1554 -20.1554 -20.1552 -20.1552 -20.1509 -20.1509 -20.1506 -20.1506
   -20.1456 -20.1456 -20.1443 -20.1443 -20.1441 -20.1441 -20.1429 -20.1429
   -20.1409 -20.1409 -20.1397 -20.1397 -20.1391 -20.1391 -20.1378 -20.1378
   -20.1328 -20.1328 -20.1324 -20.1324 -20.1318 -20.1318 -20.1313 -20.1313
    -9.3776  -9.3776  -9.1593  -9.1593  -8.9278  -8.9278  -8.6493  -8.6493
    -8.4917  -8.4916  -8.4165  -8.4165  -8.3718  -8.3718  -8.3403  -8.3403
    -8.0308  -8.0308  -7.9965  -7.9965  -7.6487  -7.6486  -7.6198  -7.6198
     1.5969   1.5969   1.6222   1.6223   2.4190   2.4191   2.4554   2.4554
     3.0017   3.0017   3.1438   3.1438   3.1986   3.1986   3.3438   3.3438
     3.4035   3.4035   3.6559   3.6559   3.8389   3.8389   3.9189   3.9189
     3.9846   3.9846   4.0946   4.0946   4.3184   4.3184   4.4989   4.4989
     4.8537   4.8537   5.0481   5.0481   5.1588   5.1588   5.2774   5.2775
     5.4209   5.4209   5.7121   5.7121   6.1024   6.1024   6.1935   6.1935
     6.5038   6.5038   6.5461   6.5461   6.6489   6.6489   6.6609   6.6609
     7.2333   7.2333   7.3495   7.3495   7.4118   7.4118   7.6280   7.6280
     7.6725   7.6725   7.7653   7.7653   7.7911   7.7911   8.0490   8.0491
    10.8770  10.8770  11.5415  11.5415  11.6107  11.6107  11.7520  11.7520
    11.9099  11.9099  12.2661  12.2661  12.6025  12.6025  12.7592  12.7592
    13.0292  13.0292  13.3338  13.3339  13.3527  13.3527  13.6851  13.6851
    15.0193  15.0193  15.3423  15.3423  16.4528  16.4528  16.7869  16.7870
    17.1228  17.1228  17.6252  17.6252  18.1175

          k = 0.3333 0.1612 0.3333 ( 61849 PWs)   bands (ev):

   -66.0208 -66.0203 -66.0203 -66.0203 -66.0198 -66.0198 -66.0198 -66.0193
   -30.4119 -30.4080 -30.4077 -30.4036 -30.3741 -30.3672 -30.3659 -30.3553
   -30.3529 -30.3506 -30.3461 -30.3440 -30.3397 -30.3330 -30.3324 -30.3179
   -30.3086 -30.3070 -30.3047 -30.3029 -30.2925 -30.2921 -30.2913 -30.2862
   -20.1807 -20.1805 -20.1805 -20.1804 -20.1803 -20.1802 -20.1802 -20.1800
   -20.1607 -20.1604 -20.1604 -20.1600 -20.1599 -20.1597 -20.1596 -20.1594
   -20.1592 -20.1591 -20.1591 -20.1590 -20.1583 -20.1580 -20.1580 -20.1577
   -20.1553 -20.1551 -20.1550 -20.1548 -20.1514 -20.1511 -20.1511 -20.1508
   -20.1459 -20.1455 -20.1455 -20.1454 -20.1433 -20.1433 -20.1431 -20.1425
   -20.1412 -20.1412 -20.1405 -20.1404 -20.1381 -20.1381 -20.1376 -20.1375
   -20.1332 -20.1331 -20.1325 -20.1325 -20.1316 -20.1316 -20.1310 -20.1310
    -9.4619  -9.2331  -9.2279  -9.1131  -9.0083  -8.8486  -8.8403  -8.6493
    -8.6164  -8.6082  -8.6062  -8.5889  -8.1539  -8.0897  -8.0703  -8.0552
    -8.0362  -8.0247  -7.9508  -7.9200  -7.7628  -7.7348  -7.7341  -7.7068
     1.8117   1.8330   1.8393   1.8662   2.2944   2.2973   2.3899   2.4321
     2.4434   2.4988   2.6369   2.7482   3.0476   3.1066   3.1318   3.1552
[...]
    10.9981  10.9981  11.5873  11.5873  11.6798  11.6798  11.7647  11.7647
    11.9410  11.9410  12.3088  12.3088  12.5987  12.5987  12.7638  12.7638
    12.8878  12.8879  13.2099  13.2099  13.2314  13.2314  13.5902  13.5902
    15.3306  15.3307  15.6922  15.6922  16.5279  16.5279  16.7842  16.7842
    17.1352  17.1352  17.6428  17.6428  17.9862

          k = 0.3333 0.3225 0.3333 ( 61859 PWs)   bands (ev):

   -66.0207 -66.0204 -66.0202 -66.0202 -66.0199 -66.0199 -66.0197 -66.0195
   -30.4016 -30.3973 -30.3968 -30.3918 -30.3793 -30.3724 -30.3714 -30.3609
   -30.3548 -30.3534 -30.3460 -30.3441 -30.3394 -30.3365 -30.3352 -30.3250
   -30.3083 -30.3074 -30.3048 -30.3037 -30.2932 -30.2927 -30.2917 -30.2884
   -20.1806 -20.1805 -20.1805 -20.1804 -20.1802 -20.1802 -20.1802 -20.1801
   -20.1604 -20.1602 -20.1601 -20.1599 -20.1598 -20.1597 -20.1596 -20.1594
   -20.1590 -20.1589 -20.1589 -20.1587 -20.1585 -20.1583 -20.1582 -20.1580
   -20.1546 -20.1544 -20.1543 -20.1541 -20.1523 -20.1520 -20.1520 -20.1518
   -20.1458 -20.1455 -20.1455 -20.1454 -20.1433 -20.1433 -20.1430 -20.1426
   -20.1412 -20.1412 -20.1405 -20.1405 -20.1381 -20.1381 -20.1376 -20.1376
   -20.1332 -20.1331 -20.1325 -20.1325 -20.1316 -20.1316 -20.1310 -20.1310
    -9.3508  -9.1562  -9.0939  -9.0881  -8.8846  -8.8749  -8.7943  -8.6124
    -8.5992  -8.5314  -8.5219  -8.5143  -8.2371  -8.1115  -8.0990  -8.0651
    -8.0624  -8.0317  -8.0004  -7.9642  -7.9532  -7.9306  -7.9255  -7.9159
     2.2687   2.2743   2.3096   2.3330   2.3585   2.3824   2.4374   2.5143
     2.5838   2.6459   2.6604   2.8401   3.2209   3.2928   3.3237   3.3572
     3.3711   3.4002   3.8302   3.8465   3.9376   3.9784   4.0707   4.1575
     4.1715   4.2294   4.2440   4.3799   4.3887   4.4530   4.5288   4.5920
     4.6493   4.6835   4.7160   4.7545   4.8231   4.9262   4.9307   4.9936
     5.0118   5.0199   5.2827   5.3825   5.4291   5.4611   5.5710   5.5914
     6.8884   6.9182   6.9534   6.9938   7.0613   7.1185   7.1323   7.1461
     7.1977   7.2395   7.2646   7.3103   7.3384   7.3569   7.4227   7.4499
     7.5125   7.5586   7.7859   7.8022   7.8487   7.8809   7.8835   7.9287
    11.0904  11.1224  11.3117  11.3446  11.4439  11.5301  12.1709  12.2003
    12.2410  12.2862  12.3033  12.3514  12.4970  12.5074  12.6545  12.6599
    12.7085  12.7574  12.9475  13.0907  13.2422  13.2859  13.3349  13.4413
    15.9584  16.0980  16.0987  16.3661  16.3723  16.4114  16.7914  16.9361
    16.9668  17.1398  17.3281  17.3300  17.8869

          k = 0.3333 0.3225-0.5000 ( 61858 PWs)   bands (ev):

   -66.0204 -66.0204 -66.0202 -66.0201 -66.0200 -66.0200 -66.0197 -66.0197
   -30.3990 -30.3990 -30.3940 -30.3939 -30.3746 -30.3745 -30.3648 -30.3647
   -30.3477 -30.3477 -30.3435 -30.3434 -30.3269 -30.3269 -30.3227 -30.3227
   -30.3193 -30.3193 -30.3128 -30.3128 -30.3014 -30.3014 -30.2918 -30.2918
   -20.1805 -20.1805 -20.1804 -20.1803 -20.1803 -20.1803 -20.1802 -20.1802
   -20.1603 -20.1603 -20.1600 -20.1600 -20.1598 -20.1598 -20.1595 -20.1595
   -20.1590 -20.1590 -20.1588 -20.1588 -20.1584 -20.1583 -20.1581 -20.1581
   -20.1545 -20.1545 -20.1543 -20.1542 -20.1522 -20.1522 -20.1519 -20.1519
   -20.1456 -20.1456 -20.1444 -20.1444 -20.1440 -20.1440 -20.1430 -20.1430
   -20.1409 -20.1409 -20.1397 -20.1397 -20.1391 -20.1391 -20.1378 -20.1378
   -20.1328 -20.1328 -20.1324 -20.1324 -20.1318 -20.1318 -20.1313 -20.1313
    -9.1953  -9.1953  -8.9809  -8.9809  -8.8984  -8.8984  -8.5578  -8.5577
    -8.5233  -8.5233  -8.4062  -8.4062  -8.3555  -8.3555  -8.3217  -8.3216
    -8.0546  -8.0546  -8.0267  -8.0267  -7.9829  -7.9829  -7.9372  -7.9372
     2.3250   2.3250   2.3842   2.3842   2.5039   2.5039   2.6031   2.6031
     3.1680   3.1680   3.2058   3.2058   3.2954   3.2954   3.3722   3.3722
     3.4579   3.4579   3.7501   3.7501   3.8443   3.8443   3.9524   3.9524
     4.0351   4.0351   4.1792   4.1792   4.2325   4.2325   4.3976   4.3976
     4.4622   4.4622   4.6243   4.6243   4.7184   4.7184   4.9625   4.9625
     5.0447   5.0447   5.1170   5.1170   5.1574   5.1574   5.4366   5.4366
     6.9539   6.9539   7.0283   7.0283   7.0956   7.0956   7.1596   7.1596
     7.2818   7.2818   7.3499   7.3499   7.4488   7.4488   7.6140   7.6141
     7.6495   7.6495   7.7124   7.7124   7.7518   7.7518   7.8927   7.8927
    11.3309  11.3309  11.6697  11.6697  11.7558  11.7558  11.9251  11.9251
    12.0837  12.0837  12.4002  12.4002  12.5092  12.5092  12.5733  12.5733
    12.7862  12.7862  12.8993  12.8993  12.9419  12.9419  13.3243  13.3243
    16.0784  16.0784  16.5444  16.5444  16.7473  16.7474  16.8051  16.8052
    17.1902  17.1902  17.5715  17.5715  17.8170

          k = 0.3333-0.4837 0.3333 ( 61822 PWs)   bands (ev):

   -66.0205 -66.0205 -66.0201 -66.0201 -66.0201 -66.0200 -66.0196 -66.0196
   -30.3893 -30.3893 -30.3856 -30.3856 -30.3806 -30.3806 -30.3759 -30.3759
   -30.3541 -30.3541 -30.3450 -30.3450 -30.3395 -30.3395 -30.3319 -30.3319
   -30.3079 -30.3079 -30.3045 -30.3045 -30.2935 -30.2935 -30.2904 -30.2904
   -20.1805 -20.1805 -20.1804 -20.1804 -20.1803 -20.1802 -20.1802 -20.1802
   -20.1602 -20.1602 -20.1600 -20.1600 -20.1597 -20.1597 -20.1595 -20.1595
   -20.1588 -20.1588 -20.1586 -20.1586 -20.1585 -20.1585 -20.1584 -20.1584
   -20.1535 -20.1535 -20.1533 -20.1533 -20.1532 -20.1532 -20.1530 -20.1530
   -20.1457 -20.1457 -20.1454 -20.1454 -20.1433 -20.1433 -20.1428 -20.1428
   -20.1412 -20.1412 -20.1405 -20.1405 -20.1381 -20.1381 -20.1376 -20.1376
   -20.1331 -20.1331 -20.1325 -20.1325 -20.1316 -20.1316 -20.1310 -20.1310
    -9.2353  -9.2353  -8.9637  -8.9637  -8.9487  -8.9487  -8.6086  -8.6086
    -8.4929  -8.4929  -8.3379  -8.3379  -8.3239  -8.3239  -8.2996  -8.2996
    -8.0528  -8.0528  -8.0224  -8.0224  -8.0085  -8.0085  -7.9324  -7.9324
     2.2868   2.2868   2.3661   2.3661   2.4297   2.4297   2.6053   2.6053
     3.1917   3.1917   3.2360   3.2360   3.3014   3.3014   3.3891   3.3891
     3.4596   3.4596   3.7112   3.7112   3.8090   3.8090   3.8461   3.8462
     3.9526   3.9526   4.1714   4.1714   4.2894   4.2894   4.4929   4.4929
     4.6178   4.6178   4.6904   4.6904   4.7863   4.7863   4.8933   4.8933
     4.9876   4.9876   5.0882   5.0882   5.1125   5.1125   5.5623   5.5623
     6.9957   6.9957   7.1278   7.1278   7.1655   7.1655   7.2171   7.2171
     7.2726   7.2726   7.3251   7.3251   7.4045   7.4045   7.5819   7.5819
     7.6073   7.6073   7.6568   7.6568   7.6991   7.6991   7.8551   7.8551
    11.1397  11.1397  11.7614  11.7614  11.8600  11.8600  11.9062  11.9062
    11.9889  11.9889  12.2625  12.2625  12.3702  12.3702  12.7569  12.7569
    12.8644  12.8644  12.9424  12.9424  12.9904  12.9904  13.2515  13.2515
    16.3215  16.3215  16.5736  16.5736  16.6987  16.6987  16.7945  16.7945
    17.1316  17.1316  17.6606  17.6606  17.7322

          k = 0.3333-0.4837-0.5000 ( 61820 PWs)   bands (ev):

   -66.0203 -66.0203 -66.0203 -66.0203 -66.0198 -66.0198 -66.0198 -66.0198
   -30.3873 -30.3873 -30.3838 -30.3838 -30.3797 -30.3797 -30.3777 -30.3777
   -30.3477 -30.3477 -30.3442 -30.3442 -30.3272 -30.3272 -30.3221 -30.3221
   -30.3202 -30.3202 -30.3146 -30.3146 -30.3016 -30.3016 -30.2925 -30.2925
   -20.1805 -20.1805 -20.1804 -20.1804 -20.1803 -20.1803 -20.1802 -20.1802
   -20.1601 -20.1601 -20.1599 -20.1599 -20.1598 -20.1598 -20.1596 -20.1596
   -20.1587 -20.1587 -20.1586 -20.1586 -20.1585 -20.1585 -20.1584 -20.1584
   -20.1535 -20.1534 -20.1534 -20.1533 -20.1532 -20.1532 -20.1531 -20.1531
   -20.1456 -20.1455 -20.1444 -20.1444 -20.1440 -20.1440 -20.1430 -20.1430
   -20.1409 -20.1409 -20.1397 -20.1397 -20.1391 -20.1391 -20.1378 -20.1378
   -20.1328 -20.1328 -20.1324 -20.1324 -20.1318 -20.1318 -20.1313 -20.1313
    -9.0700  -9.0700  -9.0572  -9.0572  -8.6867  -8.6866  -8.6615  -8.6615
    -8.4334  -8.4334  -8.4120  -8.4120  -8.2918  -8.2917  -8.2592  -8.2591
    -8.2347  -8.2347  -8.2059  -8.2059  -8.0096  -8.0096  -7.9857  -7.9857
     2.3981   2.3981   2.4077   2.4077   3.0883   3.0883   3.1274   3.1274
     3.2037   3.2038   3.2631   3.2631   3.3197   3.3197   3.3822   3.3822
     3.5086   3.5086   3.6003   3.6003   3.7497   3.7497   3.7887   3.7887
     3.9340   3.9340   4.0784   4.0784   4.3114   4.3114   4.3485   4.3485
     4.4375   4.4375   4.4784   4.4784   4.5778   4.5778   4.6511   4.6511
     4.7759   4.7759   4.9160   4.9160   5.1594   5.1594   5.1839   5.1839
     7.0771   7.0772   7.1686   7.1687   7.2528   7.2528   7.2630   7.2630
     7.3609   7.3609   7.4056   7.4056   7.5251   7.5251   7.5432   7.5432
     7.6167   7.6167   7.6783   7.6784   7.7220   7.7220   7.7698   7.7698
    11.6154  11.6154  11.6988  11.6988  11.8738  11.8738  11.9681  11.9681
    12.2772  12.2772  12.3213  12.3213  12.4096  12.4096  12.4761  12.4761
    12.6039  12.6039  12.7180  12.7180  12.9762  12.9762  13.0706  13.0706
    16.5738  16.5738  16.6159  16.6159  17.1671  17.1671  17.2634  17.2634
    17.4272  17.4273  17.5491  17.5492  17.6367

          k =-0.5000 0.0000-0.5000 ( 62004 PWs)   bands (ev):

   -66.0203 -66.0203 -66.0203 -66.0203 -66.0198 -66.0198 -66.0198 -66.0198
   -30.4117 -30.4117 -30.4114 -30.4114 -30.3579 -30.3579 -30.3568 -30.3568
   -30.3338 -30.3338 -30.3316 -30.3316 -30.3314 -30.3314 -30.3281 -30.3281
   -30.3171 -30.3171 -30.3143 -30.3143 -30.3030 -30.3030 -30.3011 -30.3011
   -20.1805 -20.1805 -20.1805 -20.1805 -20.1802 -20.1802 -20.1802 -20.1802
   -20.1605 -20.1605 -20.1605 -20.1605 -20.1597 -20.1597 -20.1596 -20.1596
   -20.1593 -20.1593 -20.1592 -20.1592 -20.1579 -20.1579 -20.1579 -20.1579
   -20.1553 -20.1553 -20.1553 -20.1553 -20.1508 -20.1508 -20.1507 -20.1507
   -20.1446 -20.1446 -20.1444 -20.1444 -20.1440 -20.1440 -20.1437 -20.1437
   -20.1396 -20.1396 -20.1395 -20.1395 -20.1393 -20.1393 -20.1393 -20.1393
   -20.1322 -20.1322 -20.1321 -20.1321 -20.1321 -20.1321 -20.1320 -20.1320
    -9.2470  -9.2470  -9.2412  -9.2412  -8.6544  -8.6544  -8.6363  -8.6363
    -8.4829  -8.4829  -8.4629  -8.4629  -8.3072  -8.3072  -8.2834  -8.2834
    -8.2742  -8.2742  -8.2517  -8.2517  -7.6351  -7.6351  -7.6348  -7.6348
     1.6080   1.6080   1.6144   1.6144   3.0303   3.0303   3.0984   3.0984
     3.1484   3.1484   3.1795   3.1795   3.2758   3.2758   3.3443   3.3443
     3.4219   3.4219   3.5442   3.5442   3.7745   3.7745   3.8303   3.8303
     3.8867   3.8867   3.8878   3.8878   4.3212   4.3212   4.3673   4.3673
     4.4012   4.4012   4.4260   4.4260   5.1000   5.1000   5.1617   5.1617
     5.4969   5.4969   5.5820   5.5820   6.1865   6.1865   6.2039   6.2039
     6.5056   6.5056   6.5273   6.5273   6.5529   6.5529   6.5572   6.5572
     7.5027   7.5028   7.5201   7.5201   7.5447   7.5447   7.6289   7.6289
     7.6890   7.6891   7.6953   7.6953   7.8236   7.8236   7.9226   7.9226
    11.5143  11.5143  11.5520  11.5520  11.6724  11.6724  11.6841  11.6841
    12.1589  12.1589  12.1949  12.1949  12.2771  12.2771  12.3067  12.3067
    13.2473  13.2473  13.2822  13.2822  13.3797  13.3797  13.4324  13.4324
    15.2024  15.2024  15.2214  15.2214  16.8824  16.8825  16.9669  16.9669
    17.6976  17.6977  17.7266  17.7266  17.8545

          k =-0.5000 0.1612-0.5000 ( 61856 PWs)   bands (ev):

   -66.0203 -66.0203 -66.0203 -66.0203 -66.0198 -66.0198 -66.0198 -66.0198
   -30.4075 -30.4075 -30.4072 -30.4072 -30.3605 -30.3605 -30.3594 -30.3594
   -30.3337 -30.3337 -30.3318 -30.3318 -30.3312 -30.3312 -30.3284 -30.3284
   -30.3168 -30.3168 -30.3140 -30.3140 -30.3050 -30.3050 -30.3030 -30.3030
   -20.1805 -20.1805 -20.1805 -20.1805 -20.1802 -20.1802 -20.1802 -20.1802
   -20.1604 -20.1604 -20.1603 -20.1603 -20.1597 -20.1597 -20.1596 -20.1596
   -20.1592 -20.1592 -20.1591 -20.1591 -20.1580 -20.1580 -20.1580 -20.1580
   -20.1551 -20.1551 -20.1550 -20.1550 -20.1511 -20.1511 -20.1511 -20.1511
   -20.1446 -20.1446 -20.1444 -20.1444 -20.1441 -20.1441 -20.1437 -20.1437
   -20.1396 -20.1396 -20.1395 -20.1395 -20.1393 -20.1393 -20.1393 -20.1393
   -20.1322 -20.1322 -20.1321 -20.1321 -20.1321 -20.1321 -20.1320 -20.1320
    -9.1828  -9.1828  -9.1763  -9.1763  -8.6680  -8.6679  -8.6501  -8.6501
    -8.4670  -8.4669  -8.4476  -8.4476  -8.3053  -8.3053  -8.2824  -8.2824
    -8.2757  -8.2757  -8.2527  -8.2526  -7.7376  -7.7376  -7.7371  -7.7371
     1.8434   1.8434   1.8500   1.8500   3.0430   3.0430   3.1155   3.1155
     3.1563   3.1563   3.1983   3.1983   3.2823   3.2823   3.3769   3.3769
     3.4181   3.4181   3.5410   3.5410   3.8215   3.8215   3.8754   3.8754
     3.9221   3.9221   3.9381   3.9381   4.3144   4.3144   4.3477   4.3478
     4.4026   4.4026   4.4250   4.4250   4.8729   4.8729   4.9246   4.9246
     5.2442   5.2442   5.3121   5.3121   5.8789   5.8789   5.8973   5.8973
     6.6943   6.6943   6.7232   6.7232   6.7721   6.7722   6.7728   6.7729
     7.5019   7.5019   7.5137   7.5137   7.5525   7.5525   7.6271   7.6272
     7.6831   7.6832   7.6874   7.6874   7.8233   7.8233   7.8962   7.8962
    11.5939  11.5939  11.6320  11.6320  11.7374  11.7374  11.7496  11.7496
    12.1621  12.1621  12.1961  12.1961  12.2893  12.2893  12.3146  12.3147
    13.1220  13.1220  13.1459  13.1459  13.2666  13.2666  13.3024  13.3024
    15.5504  15.5504  15.5687  15.5687  16.9432  16.9432  17.0149  17.0149
    17.6611  17.6611  17.7124  17.7124  17.8627

          k =-0.5000 0.3225-0.5000 ( 61796 PWs)   bands (ev):

   -66.0202 -66.0202 -66.0202 -66.0202 -66.0199 -66.0199 -66.0199 -66.0199
   -30.3963 -30.3963 -30.3958 -30.3958 -30.3686 -30.3686 -30.3677 -30.3677
   -30.3334 -30.3334 -30.3324 -30.3324 -30.3307 -30.3307 -30.3291 -30.3290
   -30.3157 -30.3157 -30.3129 -30.3129 -30.3092 -30.3092 -30.3070 -30.3070
   -20.1804 -20.1804 -20.1804 -20.1804 -20.1803 -20.1803 -20.1803 -20.1803
   -20.1602 -20.1602 -20.1601 -20.1601 -20.1597 -20.1597 -20.1597 -20.1597
   -20.1589 -20.1589 -20.1589 -20.1589 -20.1583 -20.1583 -20.1582 -20.1582
   -20.1544 -20.1544 -20.1544 -20.1544 -20.1521 -20.1521 -20.1520 -20.1520
   -20.1445 -20.1445 -20.1442 -20.1442 -20.1442 -20.1442 -20.1439 -20.1439
   -20.1396 -20.1395 -20.1395 -20.1395 -20.1393 -20.1393 -20.1393 -20.1393
   -20.1321 -20.1321 -20.1321 -20.1321 -20.1321 -20.1321 -20.1321 -20.1321
    -9.0160  -9.0160  -9.0066  -9.0066  -8.7162  -8.7162  -8.7000  -8.7000
    -8.4088  -8.4088  -8.3909  -8.3909  -8.3008  -8.3007  -8.2800  -8.2799
    -8.2787  -8.2787  -8.2546  -8.2546  -7.9849  -7.9849  -7.9836  -7.9836
     2.4671   2.4671   2.4716   2.4716   3.0666   3.0666   3.1476   3.1476
     3.1741   3.1741   3.2224   3.2224   3.3122   3.3122   3.4058   3.4058
     3.4594   3.4594   3.5224   3.5224   3.9436   3.9436   3.9456   3.9456
     4.0578   4.0578   4.0924   4.0924   4.2145   4.2145   4.2570   4.2570
     4.4029   4.4029   4.4282   4.4282   4.4967   4.4967   4.5656   4.5656
     4.8099   4.8099   4.8641   4.8641   5.1471   5.1471   5.1712   5.1712
     7.0167   7.0167   7.0559   7.0559   7.1371   7.1371   7.1520   7.1520
     7.4826   7.4826   7.4911   7.4912   7.5373   7.5373   7.6049   7.6049
     7.6596   7.6596   7.6802   7.6802   7.7806   7.7806   7.8238   7.8238
    11.8179  11.8179  11.8443  11.8443  11.9132  11.9132  11.9240  11.9240
    12.1761  12.1761  12.2061  12.2061  12.3508  12.3508  12.3539  12.3539
    12.7823  12.7823  12.8073  12.8073  12.9479  12.9479  12.9742  12.9742
    16.4213  16.4213  16.4524  16.4524  17.1138  17.1138  17.1381  17.1382
    17.5308  17.5308  17.6629  17.6629  17.8864

          k =-0.5000-0.4837-0.5000 ( 61816 PWs)   bands (ev):

   -66.0201 -66.0201 -66.0201 -66.0201 -66.0201 -66.0200 -66.0200 -66.0200
   -30.3826 -30.3826 -30.3811 -30.3811 -30.3811 -30.3811 -30.3807 -30.3807
   -30.3330 -30.3330 -30.3330 -30.3330 -30.3299 -30.3299 -30.3298 -30.3298
   -30.3141 -30.3141 -30.3124 -30.3124 -30.3106 -30.3106 -30.3106 -30.3106
   -20.1804 -20.1803 -20.1803 -20.1803 -20.1803 -20.1803 -20.1803 -20.1803
   -20.1600 -20.1600 -20.1598 -20.1598 -20.1598 -20.1598 -20.1598 -20.1598
   -20.1586 -20.1586 -20.1586 -20.1586 -20.1586 -20.1586 -20.1585 -20.1585
   -20.1533 -20.1533 -20.1533 -20.1533 -20.1533 -20.1533 -20.1533 -20.1533
   -20.1443 -20.1443 -20.1443 -20.1443 -20.1441 -20.1441 -20.1440 -20.1440
   -20.1395 -20.1395 -20.1395 -20.1395 -20.1393 -20.1393 -20.1393 -20.1393
   -20.1321 -20.1321 -20.1321 -20.1321 -20.1321 -20.1321 -20.1321 -20.1321
    -8.8477  -8.8477  -8.8169  -8.8169  -8.8168  -8.8168  -8.8125  -8.8125
    -8.3146  -8.3146  -8.3016  -8.3016  -8.3016  -8.3015  -8.2729  -8.2729
    -8.2517  -8.2516  -8.2294  -8.2294  -8.2294  -8.2294  -8.1935  -8.1935
     3.0361   3.0361   3.0361   3.0362   3.0832   3.0832   3.1360   3.1360
     3.2714   3.2714   3.2920   3.2920   3.3716   3.3717   3.3717   3.3717
     3.3968   3.3969   3.5833   3.5833   3.5833   3.5833   3.6689   3.6689
     4.2389   4.2389   4.2747   4.2747   4.2747   4.2747   4.3337   4.3338
     4.4197   4.4197   4.4488   4.4488   4.4645   4.4645   4.4645   4.4646
     4.5545   4.5546   4.5768   4.5768   4.5768   4.5768   4.6346   4.6346
     7.1779   7.1780   7.2894   7.2894   7.2894   7.2894   7.4011   7.4011
     7.4405   7.4405   7.4405   7.4405   7.4802   7.4802   7.5410   7.5410
     7.6826   7.6827   7.6936   7.6936   7.6936   7.6936   7.7700   7.7701
    12.0028  12.0028  12.0119  12.0119  12.0289  12.0289  12.0289  12.0289
    12.2608  12.2608  12.3536  12.3536  12.3536  12.3536  12.4227  12.4227
    12.5595  12.5595  12.6050  12.6050  12.6050  12.6050  12.6511  12.6511
    17.1609  17.1610  17.2886  17.2887  17.2929  17.2929  17.2929  17.2929
    17.5533  17.5533  17.5533  17.5533  17.6677

     the Fermi energy is     9.8976 ev

!    total energy              =   -6260.96904529 Ry
     Harris-Foulkes estimate   =   -6260.96904530 Ry
     estimated scf accuracy    <          3.7E-09 Ry

     The total energy is the sum of the following terms:

     one-electron contribution =   -4689.60682784 Ry
     hartree contribution      =    2583.51910431 Ry
     xc contribution           =    -965.88911925 Ry
     ewald contribution        =   -3188.99218449 Ry
     smearing contrib. (-TS)   =      -0.00001802 Ry

     convergence has been achieved in  13 iterations

     Writing output data file Landau_12.save
 
     init_run     :     24.53s CPU     25.61s WALL (       1 calls)
     electrons    :    982.98s CPU   1001.30s WALL (       1 calls)

     Called by init_run:
     wfcinit      :     22.67s CPU     23.61s WALL (       1 calls)
     potinit      :      0.69s CPU      0.72s WALL (       1 calls)

     Called by electrons:
     c_bands      :    859.53s CPU    876.31s WALL (      13 calls)
     sum_band     :    115.75s CPU    116.32s WALL (      13 calls)
     v_of_rho     :      2.08s CPU      2.10s WALL (      14 calls)
     mix_rho      :      4.80s CPU      5.40s WALL (      13 calls)

     Called by c_bands:
     init_us_2    :     10.70s CPU     11.18s WALL (      27 calls)
     cegterg      :    731.88s CPU    748.45s WALL (      13 calls)

     Called by sum_band:

     Called by *egterg:
     h_psi        :    578.17s CPU    580.82s WALL (      61 calls)
     g_psi        :      2.24s CPU      2.25s WALL (      47 calls)
     cdiaghg      :      8.61s CPU      8.68s WALL (      60 calls)

     Called by h_psi:
     h_psi:pot    :    573.52s CPU    576.02s WALL (      61 calls)
     h_psi:calbec :     68.49s CPU     70.24s WALL (      61 calls)
     vloc_psi     :    434.00s CPU    434.45s WALL (      61 calls)
     add_vuspsi   :     71.03s CPU     71.33s WALL (      61 calls)

     General routines
     calbec       :     68.49s CPU     70.23s WALL (      61 calls)
     fft          :      1.31s CPU      1.32s WALL (      56 calls)
     fftw         :    427.50s CPU    427.74s WALL (   16847 calls)
 
     Parallel routines
 
     PWSCF        : 16m49.50s CPU    17m15.05s WALL

 
   This run was terminated on:  19:25:28  26Mar2020            

=------------------------------------------------------------------------------=
   JOB DONE.
=------------------------------------------------------------------------------=
