
     Program PWSCF v.6.4.1 starts on 22Nov2019 at 13: 4:17 

     This program is part of the open-source Quantum ESPRESSO suite
     for quantum simulation of materials; please cite
         "P. Giannozzi et al., J. Phys.:Condens. Matter 21 395502 (2009);
         "P. Giannozzi et al., J. Phys.:Condens. Matter 29 465901 (2017);
          URL http://www.quantum-espresso.org", 
     in publications or presentations arising from this work. More details at
     http://www.quantum-espresso.org/quote

     Parallel version (MPI), running on    40 processors

     MPI processes distributed on     3 nodes
     K-points division:     npool     =      40
     Reading input from scf.in

     Current dimensions of program PWSCF are:
     Max number of different atomic species (ntypx) = 10
     Max number of k-points (npk) =  40000
     Max angular momentum in pseudopotentials (lmaxx) =  3

     Subspace diagonalization in iterative solution of the eigenvalue problem:
     a serial algorithm will be used

     Message from routine setup:
     using ibrav=0 with symmetry is DISCOURAGED, use correct ibrav instead
 
     G-vector sticks info
     --------------------
     sticks:   dense  smooth     PW     G-vecs:    dense   smooth      PW
     Sum        7749    7749   2079               502781   502781   69669
 


     bravais-lattice index     =            0
     lattice parameter (alat)  =      13.9324  a.u.
     unit-cell volume          =    2829.5608 (a.u.)^3
     number of atoms/cell      =           32
     number of atomic types    =            2
     number of electrons       =       368.84
     number of Kohn-Sham states=          221
     kinetic-energy cutoff     =     120.0000  Ry
     charge density cutoff     =     480.0000  Ry
     convergence threshold     =      1.0E-08
     mixing beta               =       0.7000
     number of iterations used =            8  plain     mixing
     Exchange-correlation      = SLA PW NOGX NOGC ( 1  4  0  0 0 0)

     celldm(1)=  13.932412  celldm(2)=   0.000000  celldm(3)=   0.000000
     celldm(4)=   0.000000  celldm(5)=   0.000000  celldm(6)=   0.000000

     crystal axes: (cart. coord. in units of alat)
               a(1) = (   1.000000   0.000000   0.000000 )  
               a(2) = (   0.000000   1.046097   0.000000 )  
               a(3) = (   0.000000   0.000000   1.000157 )  

     reciprocal axes: (cart. coord. in units 2 pi/alat)
               b(1) = (  1.000000  0.000000  0.000000 )  
               b(2) = (  0.000000  0.955934  0.000000 )  
               b(3) = (  0.000000  0.000000  0.999843 )  


     PseudoPot. # 1 for W  read from file:
     /cluster/scratch/mnoe/QE/pps/W_ONCV_LDA-4.0.upf
     MD5 check sum: ba0307d5d4cd419d6f1d13dc49d7c13a
     Pseudo is Norm-conserving + core correction, Zval = 28.0
     Generated using ONCVPSP code by D. R. Hamann
     Using radial grid of 1380 points,  8 beta functions with: 
                l(1) =   0
                l(2) =   0
                l(3) =   1
                l(4) =   1
                l(5) =   2
                l(6) =   2
                l(7) =   3
                l(8) =   3

     PseudoPot. # 2 for O  read from file:
     /cluster/scratch/mnoe/QE/pps/O_ONCV_LDA-3.0.upf
     MD5 check sum: b55cdb4f45ae2203d24ad12cf8d61a31
     Pseudo is Norm-conserving + core correction, Zval =  6.0
     Generated using ONCVPSP code by D. R. Hamann
     Using radial grid of  926 points,  5 beta functions with: 
                l(1) =   0
                l(2) =   0
                l(3) =   1
                l(4) =   1
                l(5) =   2

     atomic species   valence    mass     pseudopotential
        W             28.00   183.84000     W ( 1.00)
        O              6.00    15.99940     O ( 1.00)

      8 Sym. Ops., with inversion, found ( 6 have fractional translation)



   Cartesian axes

     site n.     atom                  positions (alat units)
         1           W   tau(   1) = (   0.2467600   0.2973397   0.0030605  )
         2           W   tau(   2) = (   0.7532400   0.7487574   0.9970962  )
         3           W   tau(   3) = (   0.2532400   0.2257089   0.5031388  )
         4           W   tau(   4) = (   0.7467600   0.8203883   0.4970179  )
         5           W   tau(   5) = (   0.7532400   0.2973397   0.4970179  )
         6           W   tau(   6) = (   0.2467600   0.7487574   0.5031388  )
         7           W   tau(   7) = (   0.7467600   0.2257089   0.9970962  )
         8           W   tau(   8) = (   0.2532400   0.8203883   0.0030605  )
         9           O   tau(   9) = (   0.2440300   0.0134091   0.0009501  )
        10           O   tau(  10) = (   0.7559700   1.0326881   0.9992066  )
        11           O   tau(  11) = (   0.2559700   0.5096395   0.5010285  )
        12           O   tau(  12) = (   0.7440300   0.5364576   0.4991282  )
        13           O   tau(  13) = (   0.7559700   0.0134091   0.4991282  )
        14           O   tau(  14) = (   0.2440300   1.0326881   0.5010285  )
        15           O   tau(  15) = (   0.7440300   0.5096395   0.9992066  )
        16           O   tau(  16) = (   0.2559700   0.5364576   0.0009501  )
        17           O   tau(  17) = (   0.5008800   0.2551117   0.4618995  )
        18           O   tau(  18) = (   0.4991200   0.7909854   0.5382572  )
        19           O   tau(  19) = (   0.9991200   0.2679368   0.9619779  )
        20           O   tau(  20) = (   0.0008800   0.7781603   0.0381789  )
        21           O   tau(  21) = (   0.4991200   0.2551117   0.0381789  )
        22           O   tau(  22) = (   0.5008800   0.7909854   0.9619779  )
        23           O   tau(  23) = (   0.0008800   0.2679368   0.5382572  )
        24           O   tau(  24) = (   0.9991200   0.7781603   0.4618995  )
        25           O   tau(  25) = (   0.7118272   0.2601225   0.7487773  )
        26           O   tau(  26) = (   0.2881729   0.7859747   0.2513794  )
        27           O   tau(  27) = (   0.7881729   0.2629261   0.2486991  )
        28           O   tau(  28) = (   0.2118271   0.7831711   0.7514578  )
        29           O   tau(  29) = (   0.2881729   0.2601225   0.7514578  )
        30           O   tau(  30) = (   0.7118272   0.7859747   0.2486991  )
        31           O   tau(  31) = (   0.2118271   0.2629261   0.2513794  )
        32           O   tau(  32) = (   0.7881729   0.7831711   0.7487773  )

     number of k points=    64  gaussian smearing, width (Ry)=  0.0007
                       cart. coord. in units 2pi/alat
        k(    1) = (   0.0000000   0.0000000   0.0000000), wk =   0.0092593
        k(    2) = (   0.0000000   0.0000000   0.1666405), wk =   0.0185185
        k(    3) = (   0.0000000   0.0000000   0.3332811), wk =   0.0185185
        k(    4) = (   0.0000000   0.0000000  -0.4999216), wk =   0.0092593
        k(    5) = (   0.0000000   0.1593224   0.0000000), wk =   0.0185185
        k(    6) = (   0.0000000   0.1593224   0.1666405), wk =   0.0370370
        k(    7) = (   0.0000000   0.1593224   0.3332811), wk =   0.0370370
        k(    8) = (   0.0000000   0.1593224  -0.4999216), wk =   0.0185185
        k(    9) = (   0.0000000   0.3186447   0.0000000), wk =   0.0185185
        k(   10) = (   0.0000000   0.3186447   0.1666405), wk =   0.0370370
        k(   11) = (   0.0000000   0.3186447   0.3332811), wk =   0.0370370
        k(   12) = (   0.0000000   0.3186447  -0.4999216), wk =   0.0185185
        k(   13) = (   0.0000000  -0.4779671   0.0000000), wk =   0.0092593
        k(   14) = (   0.0000000  -0.4779671   0.1666405), wk =   0.0185185
        k(   15) = (   0.0000000  -0.4779671   0.3332811), wk =   0.0185185
        k(   16) = (   0.0000000  -0.4779671  -0.4999216), wk =   0.0092593
        k(   17) = (   0.1666667   0.0000000   0.0000000), wk =   0.0185185
        k(   18) = (   0.1666667   0.0000000   0.1666405), wk =   0.0370370
        k(   19) = (   0.1666667   0.0000000   0.3332811), wk =   0.0370370
        k(   20) = (   0.1666667   0.0000000  -0.4999216), wk =   0.0185185
        k(   21) = (   0.1666667   0.1593224   0.0000000), wk =   0.0370370
        k(   22) = (   0.1666667   0.1593224   0.1666405), wk =   0.0740741
        k(   23) = (   0.1666667   0.1593224   0.3332811), wk =   0.0740741
        k(   24) = (   0.1666667   0.1593224  -0.4999216), wk =   0.0370370
        k(   25) = (   0.1666667   0.3186447   0.0000000), wk =   0.0370370
        k(   26) = (   0.1666667   0.3186447   0.1666405), wk =   0.0740741
        k(   27) = (   0.1666667   0.3186447   0.3332811), wk =   0.0740741
        k(   28) = (   0.1666667   0.3186447  -0.4999216), wk =   0.0370370
        k(   29) = (   0.1666667  -0.4779671   0.0000000), wk =   0.0185185
        k(   30) = (   0.1666667  -0.4779671   0.1666405), wk =   0.0370370
        k(   31) = (   0.1666667  -0.4779671   0.3332811), wk =   0.0370370
        k(   32) = (   0.1666667  -0.4779671  -0.4999216), wk =   0.0185185
        k(   33) = (   0.3333333   0.0000000   0.0000000), wk =   0.0185185
        k(   34) = (   0.3333333   0.0000000   0.1666405), wk =   0.0370370
        k(   35) = (   0.3333333   0.0000000   0.3332811), wk =   0.0370370
        k(   36) = (   0.3333333   0.0000000  -0.4999216), wk =   0.0185185
        k(   37) = (   0.3333333   0.1593224   0.0000000), wk =   0.0370370
        k(   38) = (   0.3333333   0.1593224   0.1666405), wk =   0.0740741
        k(   39) = (   0.3333333   0.1593224   0.3332811), wk =   0.0740741
        k(   40) = (   0.3333333   0.1593224  -0.4999216), wk =   0.0370370
        k(   41) = (   0.3333333   0.3186447   0.0000000), wk =   0.0370370
        k(   42) = (   0.3333333   0.3186447   0.1666405), wk =   0.0740741
        k(   43) = (   0.3333333   0.3186447   0.3332811), wk =   0.0740741
        k(   44) = (   0.3333333   0.3186447  -0.4999216), wk =   0.0370370
        k(   45) = (   0.3333333  -0.4779671   0.0000000), wk =   0.0185185
        k(   46) = (   0.3333333  -0.4779671   0.1666405), wk =   0.0370370
        k(   47) = (   0.3333333  -0.4779671   0.3332811), wk =   0.0370370
        k(   48) = (   0.3333333  -0.4779671  -0.4999216), wk =   0.0185185
        k(   49) = (  -0.5000000   0.0000000   0.0000000), wk =   0.0092593
        k(   50) = (  -0.5000000   0.0000000   0.1666405), wk =   0.0185185
        k(   51) = (  -0.5000000   0.0000000   0.3332811), wk =   0.0185185
        k(   52) = (  -0.5000000   0.0000000  -0.4999216), wk =   0.0092593
        k(   53) = (  -0.5000000   0.1593224   0.0000000), wk =   0.0185185
        k(   54) = (  -0.5000000   0.1593224   0.1666405), wk =   0.0370370
        k(   55) = (  -0.5000000   0.1593224   0.3332811), wk =   0.0370370
        k(   56) = (  -0.5000000   0.1593224  -0.4999216), wk =   0.0185185
        k(   57) = (  -0.5000000   0.3186447   0.0000000), wk =   0.0185185
        k(   58) = (  -0.5000000   0.3186447   0.1666405), wk =   0.0370370
        k(   59) = (  -0.5000000   0.3186447   0.3332811), wk =   0.0370370
        k(   60) = (  -0.5000000   0.3186447  -0.4999216), wk =   0.0185185
        k(   61) = (  -0.5000000  -0.4779671   0.0000000), wk =   0.0092593
        k(   62) = (  -0.5000000  -0.4779671   0.1666405), wk =   0.0185185
        k(   63) = (  -0.5000000  -0.4779671   0.3332811), wk =   0.0185185
        k(   64) = (  -0.5000000  -0.4779671  -0.4999216), wk =   0.0092593

     Dense  grid:   502781 G-vectors     FFT dimensions: ( 100, 108, 100)

     Estimated max dynamical RAM per process >       3.15 GB

     Estimated total dynamical RAM >     126.14 GB

     Initial potential from superposition of free atoms

     starting charge  367.99656, renormalised to  368.84000
     Starting wfcs are  232 randomized atomic wfcs

     total cpu time spent up to now is       50.6 secs

     Self-consistent Calculation

     iteration #  1     ecut=   120.00 Ry     beta= 0.70
     Davidson diagonalization with overlap
     ethr =  1.00E-02,  avg # of iterations =  5.2

     total cpu time spent up to now is      217.0 secs

     total energy              =   -6253.19665247 Ry
     Harris-Foulkes estimate   =   -6264.16452031 Ry
     estimated scf accuracy    <      13.78760039 Ry

     iteration #  2     ecut=   120.00 Ry     beta= 0.70
     Davidson diagonalization with overlap
     ethr =  3.74E-03,  avg # of iterations =  3.6

     total cpu time spent up to now is      383.1 secs

     total energy              =   -6250.21515783 Ry
     Harris-Foulkes estimate   =   -6270.12658752 Ry
     estimated scf accuracy    <      52.73585731 Ry

     iteration #  3     ecut=   120.00 Ry     beta= 0.70
     Davidson diagonalization with overlap
     ethr =  3.74E-03,  avg # of iterations =  3.4

     total cpu time spent up to now is      537.2 secs

     total energy              =   -6260.51065369 Ry
     Harris-Foulkes estimate   =   -6260.77133089 Ry
     estimated scf accuracy    <       0.88658770 Ry

     iteration #  4     ecut=   120.00 Ry     beta= 0.70
     Davidson diagonalization with overlap
     ethr =  2.40E-04,  avg # of iterations =  3.1

     total cpu time spent up to now is      666.0 secs

     total energy              =   -6260.48838040 Ry
     Harris-Foulkes estimate   =   -6260.56971436 Ry
     estimated scf accuracy    <       0.22500012 Ry

     iteration #  5     ecut=   120.00 Ry     beta= 0.70
     Davidson diagonalization with overlap
     ethr =  6.10E-05,  avg # of iterations =  4.7

     total cpu time spent up to now is      801.4 secs

     total energy              =   -6260.50366392 Ry
     Harris-Foulkes estimate   =   -6260.52847357 Ry
     estimated scf accuracy    <       0.05875844 Ry

     iteration #  6     ecut=   120.00 Ry     beta= 0.70
     Davidson diagonalization with overlap
     ethr =  1.59E-05,  avg # of iterations =  5.5

     total cpu time spent up to now is      945.7 secs

     total energy              =   -6260.51502262 Ry
     Harris-Foulkes estimate   =   -6260.51843756 Ry
     estimated scf accuracy    <       0.00838990 Ry

     iteration #  7     ecut=   120.00 Ry     beta= 0.70
     Davidson diagonalization with overlap
     ethr =  2.27E-06,  avg # of iterations =  5.3

     total cpu time spent up to now is     1084.7 secs

     total energy              =   -6260.51635857 Ry
     Harris-Foulkes estimate   =   -6260.51638716 Ry
     estimated scf accuracy    <       0.00004705 Ry

     iteration #  8     ecut=   120.00 Ry     beta= 0.70
     Davidson diagonalization with overlap
     ethr =  1.28E-08,  avg # of iterations =  4.0

     total cpu time spent up to now is     1268.3 secs

     total energy              =   -6260.51639895 Ry
     Harris-Foulkes estimate   =   -6260.51640994 Ry
     estimated scf accuracy    <       0.00005594 Ry

     iteration #  9     ecut=   120.00 Ry     beta= 0.70
     Davidson diagonalization with overlap
     ethr =  1.28E-08,  avg # of iterations =  1.0

     total cpu time spent up to now is     1384.9 secs

     total energy              =   -6260.51639301 Ry
     Harris-Foulkes estimate   =   -6260.51640140 Ry
     estimated scf accuracy    <       0.00002459 Ry

     iteration # 10     ecut=   120.00 Ry     beta= 0.70
     Davidson diagonalization with overlap
     ethr =  6.67E-09,  avg # of iterations =  2.0

     total cpu time spent up to now is     1507.6 secs

     total energy              =   -6260.51639548 Ry
     Harris-Foulkes estimate   =   -6260.51639634 Ry
     estimated scf accuracy    <       0.00000196 Ry

     iteration # 11     ecut=   120.00 Ry     beta= 0.70
     Davidson diagonalization with overlap
     ethr =  5.30E-10,  avg # of iterations =  3.0

     total cpu time spent up to now is     1645.2 secs

     total energy              =   -6260.51639592 Ry
     Harris-Foulkes estimate   =   -6260.51639603 Ry
     estimated scf accuracy    <       0.00000031 Ry

     iteration # 12     ecut=   120.00 Ry     beta= 0.70
     Davidson diagonalization with overlap
     ethr =  8.42E-11,  avg # of iterations =  2.0

     total cpu time spent up to now is     1766.1 secs

     total energy              =   -6260.51639589 Ry
     Harris-Foulkes estimate   =   -6260.51639594 Ry
     estimated scf accuracy    <       0.00000008 Ry

     iteration # 13     ecut=   120.00 Ry     beta= 0.70
     Davidson diagonalization with overlap
     ethr =  2.21E-11,  avg # of iterations =  2.8

     total cpu time spent up to now is     1921.4 secs

     End of self-consistent calculation

          k = 0.0000 0.0000 0.0000 ( 62887 PWs)   bands (ev):

   -66.1282 -66.1278 -66.1273 -66.1273 -66.1269 -66.1269 -66.1265 -66.1260
   -30.5745 -30.5714 -30.5713 -30.5684 -30.5114 -30.5086 -30.5083 -30.5057
   -30.4658 -30.4655 -30.4620 -30.4606 -30.4604 -30.4604 -30.4571 -30.4562
   -30.3709 -30.3707 -30.3680 -30.3676 -30.3668 -30.3665 -30.3637 -30.3632
   -20.2817 -20.2815 -20.2815 -20.2813 -20.2760 -20.2758 -20.2757 -20.2755
   -20.2736 -20.2735 -20.2735 -20.2735 -20.2734 -20.2734 -20.2733 -20.2733
   -20.2693 -20.2692 -20.2689 -20.2688 -20.2680 -20.2679 -20.2678 -20.2676
   -20.2663 -20.2661 -20.2660 -20.2659 -20.2651 -20.2650 -20.2648 -20.2646
   -20.2559 -20.2557 -20.2556 -20.2555 -20.2555 -20.2554 -20.2552 -20.2552
   -20.2203 -20.2203 -20.2200 -20.2199 -20.2187 -20.2187 -20.2184 -20.2184
   -20.2150 -20.2150 -20.2147 -20.2147 -20.2135 -20.2134 -20.2131 -20.2131
   -10.0353  -9.7050  -9.6350  -9.6349  -9.3116  -9.3098  -9.2371  -9.0775
    -9.0607  -8.9751  -8.9519  -8.9514  -7.9587  -7.8972  -7.8957  -7.8435
    -7.8253  -7.8242  -7.7984  -7.7977  -7.7211  -7.7205  -7.6978  -7.6975
     1.1299   1.1304   1.2099   1.2119   1.2310   1.2410   1.2453   1.4625
     1.4637   1.4668   1.5179   1.6843   2.4007   2.4474   2.4496   2.4913
     2.5621   2.5649   4.0664   4.0713   4.2783   4.2867   4.7086   4.7101
     4.7134   4.7263   4.7459   4.7482   4.8568   4.8583   4.9725   5.3636
     5.3688   5.4416   5.4596   5.4773   5.4944   5.4979   5.4999   5.7201
     5.7273   5.8001   5.8004   5.8556   5.8804   6.0185   6.0210   6.0828
     6.0861   6.2397   6.2483   6.4411   6.4418   6.6483   6.6554   6.6852
     6.6894   6.7873   6.9807   6.9867   7.0218   7.0236   7.2430   7.2474
     7.2720   7.2756   7.9864   7.9951   8.0346   8.0439   8.0810   8.0904
     9.1648   9.1654   9.8439   9.8455   9.8731   9.8738  12.3067  12.3075
    12.3478  12.3571  12.3979  12.4005  12.4473  12.4538  13.0734  13.1363
    13.2410  13.2943  13.3318  13.3414  13.6571  14.0481  14.1458  14.1464
    14.1699  14.2105  14.3029  14.6613  15.0962  15.1052  15.4800  15.8244
    15.8300  16.6524  16.9684  16.9752  17.2167

          k = 0.0000 0.0000 0.1666 ( 62847 PWs)   bands (ev):

   -66.1281 -66.1277 -66.1274 -66.1273 -66.1270 -66.1268 -66.1265 -66.1261
   -30.5744 -30.5717 -30.5712 -30.5686 -30.5114 -30.5089 -30.5083 -30.5059
   -30.4651 -30.4616 -30.4607 -30.4582 -30.4565 -30.4557 -30.4539 -30.4508
   -30.3772 -30.3744 -30.3730 -30.3704 -30.3701 -30.3673 -30.3666 -30.3636
   -20.2817 -20.2815 -20.2815 -20.2813 -20.2760 -20.2758 -20.2758 -20.2756
   -20.2736 -20.2735 -20.2735 -20.2735 -20.2734 -20.2734 -20.2734 -20.2733
   -20.2693 -20.2692 -20.2687 -20.2686 -20.2680 -20.2680 -20.2677 -20.2674
   -20.2664 -20.2662 -20.2661 -20.2661 -20.2651 -20.2650 -20.2649 -20.2648
   -20.2558 -20.2557 -20.2556 -20.2555 -20.2555 -20.2554 -20.2552 -20.2552
   -20.2200 -20.2200 -20.2198 -20.2198 -20.2185 -20.2185 -20.2184 -20.2184
   -20.2154 -20.2153 -20.2146 -20.2146 -20.2138 -20.2138 -20.2133 -20.2132
    -9.9919  -9.6528  -9.6497  -9.5793  -9.3212  -9.2458  -9.2233  -9.0425
    -9.0208  -8.9595  -8.9548  -8.9174  -7.9637  -7.9451  -7.9324  -7.9008
    -7.8827  -7.8486  -7.8468  -7.8255  -7.8162  -7.7916  -7.7273  -7.7045
     1.1919   1.2111   1.2176   1.2491   1.3003   1.3475   1.4544   1.4610
     1.4996   1.5858   1.6944   1.8189   2.4544   2.4824   2.5377   2.5551
     2.5791   2.6547   4.0162   4.0610   4.2640   4.2889   4.2910   4.3932
     4.5309   4.6099   4.7131   4.7939   4.7977   4.8562   4.9618   5.2585
     5.3222   5.3565   5.4529   5.4805   5.4840   5.4910   5.4964   5.5810
     5.6424   5.6718   5.7245   5.8300   5.8903   6.0247   6.0397   6.1301
     6.2500   6.4209   6.4330   6.4670   6.5089   6.5382   6.6335   6.6841
     6.7373   6.7812   6.9033   6.9099   6.9723   7.0197   7.0305   7.0325
     7.0775   7.1313   7.9567   7.9628   8.0074   8.0450   8.0488   8.0820
     9.5139   9.5366   9.8457   9.8728  10.1423  10.1551  12.2211  12.2662
    12.3056  12.3819  12.3992  12.4177  12.4553  12.5546  12.9878  13.0351
    13.0992  13.2932  13.3279  13.3322  13.7941  13.9952  14.0145  14.0462
    14.1726  14.2991  14.3726  14.7653  15.1597  15.1893  15.4454  15.8069
    16.1756  16.6690  16.8293  17.1522  17.1776

          k = 0.0000 0.0000 0.3333 ( 62738 PWs)   bands (ev):

   -66.1280 -66.1275 -66.1275 -66.1271 -66.1271 -66.1267 -66.1267 -66.1263
   -30.5740 -30.5724 -30.5709 -30.5693 -30.5111 -30.5096 -30.5081 -30.5066
   -30.4642 -30.4617 -30.4600 -30.4575 -30.4414 -30.4385 -30.4367 -30.4337
   -30.3945 -30.3916 -30.3900 -30.3871 -30.3696 -30.3674 -30.3666 -30.3644
   -20.2816 -20.2815 -20.2815 -20.2814 -20.2760 -20.2758 -20.2758 -20.2757
   -20.2736 -20.2735 -20.2735 -20.2734 -20.2734 -20.2734 -20.2734 -20.2733
   -20.2693 -20.2692 -20.2682 -20.2681 -20.2680 -20.2678 -20.2672 -20.2669
   -20.2667 -20.2666 -20.2665 -20.2660 -20.2655 -20.2652 -20.2650 -20.2650
   -20.2557 -20.2556 -20.2556 -20.2555 -20.2554 -20.2553 -20.2553 -20.2552
   -20.2196 -20.2196 -20.2190 -20.2190 -20.2188 -20.2188 -20.2175 -20.2175
   -20.2164 -20.2164 -20.2148 -20.2148 -20.2143 -20.2143 -20.2136 -20.2135
    -9.8872  -9.6955  -9.5337  -9.4516  -9.3572  -9.2754  -8.9959  -8.9717
    -8.9640  -8.8780  -8.8441  -8.7886  -8.2420  -8.2418  -8.1863  -8.1640
    -7.9328  -7.9105  -7.8791  -7.8557  -7.7974  -7.7730  -7.7459  -7.7227
     1.2039   1.2091   1.2589   1.2692   1.4014   1.4084   1.4367   1.4496
     2.1931   2.2153   2.3447   2.4008   2.4734   2.5482   2.7168   2.7766
     2.8368   2.8959   3.7011   3.7787   3.8060   3.8659   4.0511   4.1364
     4.2088   4.3523   4.5249   4.6888   4.7246   4.7372   4.9177   4.9225
     5.0512   5.0801   5.1301   5.2795   5.3999   5.4106   5.5534   5.5743
     5.6198   5.6329   5.7230   5.8873   5.9139   6.0686   6.2158   6.2242
     6.2258   6.2546   6.3649   6.4022   6.4458   6.4618   6.5440   6.6804
     6.6959   6.7094   6.7632   6.9081   6.9886   7.0014   7.0285   7.0792
     7.2357   7.2647   7.7927   7.8419   7.8887   7.9035   8.0731   8.0836
     9.8504   9.8614  10.2493  10.3056  10.8011  10.8531  11.7843  11.8250
    12.1306  12.4563  12.4612  12.5363  12.5671  12.6134  12.6380  12.8180
    13.0296  13.1763  13.1973  13.3391  13.6383  13.6674  13.9812  14.0401
    14.2120  14.2869  14.7590  15.0615  15.3325  15.3744  15.6659  15.7334
    16.0935  17.0884  17.2041  17.3994  17.4016

          k = 0.0000 0.0000-0.4999 ( 62856 PWs)   bands (ev):

   -66.1278 -66.1278 -66.1273 -66.1273 -66.1269 -66.1269 -66.1265 -66.1265
   -30.5733 -30.5733 -30.5702 -30.5702 -30.5104 -30.5104 -30.5074 -30.5074
   -30.4629 -30.4629 -30.4587 -30.4587 -30.4180 -30.4180 -30.4150 -30.4150
   -30.4133 -30.4133 -30.4104 -30.4104 -30.3685 -30.3685 -30.3655 -30.3655
   -20.2816 -20.2816 -20.2814 -20.2814 -20.2759 -20.2759 -20.2758 -20.2757
   -20.2735 -20.2735 -20.2735 -20.2735 -20.2734 -20.2734 -20.2734 -20.2734
   -20.2692 -20.2692 -20.2681 -20.2680 -20.2674 -20.2674 -20.2672 -20.2672
   -20.2667 -20.2667 -20.2662 -20.2662 -20.2657 -20.2657 -20.2650 -20.2650
   -20.2557 -20.2557 -20.2556 -20.2555 -20.2553 -20.2553 -20.2552 -20.2552
   -20.2192 -20.2192 -20.2192 -20.2192 -20.2177 -20.2177 -20.2177 -20.2177
   -20.2162 -20.2162 -20.2162 -20.2162 -20.2140 -20.2139 -20.2139 -20.2139
    -9.7764  -9.7764  -9.4249  -9.4249  -9.3386  -9.3386  -8.9773  -8.9773
    -8.6036  -8.6036  -8.5966  -8.5966  -8.5813  -8.5813  -8.5226  -8.5225
    -7.9232  -7.9232  -7.8677  -7.8677  -7.7716  -7.7715  -7.7478  -7.7478
     1.2067   1.2068   1.2697   1.2697   1.4190   1.4190   1.4373   1.4373
     2.4984   2.4984   2.8841   2.8841   2.9984   2.9984   3.0793   3.0793
     3.2119   3.2119   3.2729   3.2729   3.3530   3.3530   3.7204   3.7204
     3.8244   3.8244   4.3056   4.3057   4.6598   4.6598   4.8640   4.8641
     5.1631   5.1631   5.2363   5.2363   5.2572   5.2572   5.5975   5.5976
     5.6794   5.6794   5.8121   5.8121   6.0579   6.0579   6.1251   6.1251
     6.2143   6.2143   6.3177   6.3177   6.3479   6.3479   6.4875   6.4875
     6.6834   6.6834   6.7419   6.7419   7.0163   7.0164   7.4660   7.4660
     7.5483   7.5483   7.6284   7.6284   7.6490   7.6490   8.0827   8.0828
     9.8566   9.8566  11.0667  11.0668  11.1231  11.1231  11.5514  11.5514
    11.6851  11.6851  12.4894  12.4894  12.7744  12.7744  12.8549  12.8549
    12.9550  12.9550  13.2148  13.2148  13.3898  13.3898  14.0274  14.0274
    14.2616  14.2616  15.1126  15.1126  15.5226  15.5226  15.5943  15.5943
    16.4744  16.4744  17.5760  17.5760  17.7727

          k = 0.0000 0.1593 0.0000 ( 62793 PWs)   bands (ev):

   -66.1282 -66.1278 -66.1273 -66.1273 -66.1269 -66.1269 -66.1265 -66.1261
   -30.5703 -30.5672 -30.5671 -30.5642 -30.5156 -30.5128 -30.5125 -30.5099
   -30.4656 -30.4653 -30.4622 -30.4609 -30.4602 -30.4601 -30.4573 -30.4565
   -30.3707 -30.3705 -30.3682 -30.3678 -30.3667 -30.3663 -30.3639 -30.3634
   -20.2813 -20.2811 -20.2811 -20.2809 -20.2764 -20.2762 -20.2761 -20.2759
   -20.2736 -20.2735 -20.2735 -20.2735 -20.2735 -20.2734 -20.2734 -20.2733
   -20.2693 -20.2691 -20.2688 -20.2687 -20.2681 -20.2680 -20.2679 -20.2677
   -20.2662 -20.2661 -20.2659 -20.2658 -20.2651 -20.2651 -20.2648 -20.2647
   -20.2559 -20.2557 -20.2556 -20.2555 -20.2555 -20.2554 -20.2552 -20.2552
   -20.2203 -20.2203 -20.2200 -20.2199 -20.2187 -20.2187 -20.2184 -20.2184
   -20.2150 -20.2150 -20.2147 -20.2147 -20.2135 -20.2134 -20.2131 -20.2131
   -10.0014  -9.7179  -9.5930  -9.5928  -9.3201  -9.3184  -9.1607  -9.0764
    -9.0618  -8.9310  -8.9162  -8.9158  -8.0571  -8.0007  -7.9995  -7.9548
    -7.8235  -7.8234  -7.8003  -7.7997  -7.7196  -7.7194  -7.6994  -7.6993
     1.1299   1.1303   1.2277   1.2307   1.2410   1.2453   1.3766   1.5173
     1.6403   1.6939   1.6963   1.8553   2.4067   2.4846   2.5207   2.5226
     2.6315   2.6348   3.9139   3.9197   4.0024   4.0093   4.6840   4.7089
     4.7134   4.7383   4.7432   4.7885   4.8210   4.8374   4.8377   5.1640
     5.1682   5.3923   5.3925   5.5193   5.5713   5.5732   5.5835   5.5920
     5.7293   5.7326   5.8175   5.8220   5.8972   6.0147   6.0153   6.0847
     6.0884   6.2151   6.2271   6.4646   6.4682   6.6771   6.6819   6.7317
     6.7358   6.8017   6.8017   6.9317   6.9338   6.9745   7.2476   7.2512
     7.2719   7.2748   7.9807   7.9842   7.9880   7.9915   8.0038   8.0090
     9.1650   9.1659  10.0348  10.0362  10.0782  10.0794  12.1664  12.1770
    12.2888  12.2945  12.3581  12.3610  12.3973  12.3990  13.0868  13.1401
    13.2698  13.3158  13.3468  13.3556  13.9205  14.0202  14.0477  14.0530
    14.1121  14.4770  14.5043  14.8575  15.0964  15.1039  15.7914  15.7963
    15.8851  16.3154  17.1230  17.1297  17.2943

          k = 0.0000 0.1593 0.1666 ( 62828 PWs)   bands (ev):

   -66.1281 -66.1277 -66.1274 -66.1272 -66.1270 -66.1269 -66.1265 -66.1261
   -30.5702 -30.5675 -30.5670 -30.5645 -30.5156 -30.5131 -30.5125 -30.5102
   -30.4649 -30.4617 -30.4605 -30.4582 -30.4569 -30.4559 -30.4537 -30.4510
   -30.3770 -30.3746 -30.3728 -30.3703 -30.3702 -30.3676 -30.3664 -30.3638
   -20.2813 -20.2811 -20.2811 -20.2809 -20.2764 -20.2762 -20.2761 -20.2760
   -20.2736 -20.2735 -20.2735 -20.2735 -20.2734 -20.2734 -20.2734 -20.2733
   -20.2692 -20.2691 -20.2686 -20.2685 -20.2681 -20.2680 -20.2677 -20.2675
   -20.2663 -20.2661 -20.2660 -20.2660 -20.2651 -20.2650 -20.2650 -20.2648
   -20.2558 -20.2557 -20.2556 -20.2555 -20.2555 -20.2554 -20.2552 -20.2552
   -20.2200 -20.2200 -20.2198 -20.2198 -20.2185 -20.2185 -20.2184 -20.2184
   -20.2154 -20.2153 -20.2146 -20.2146 -20.2138 -20.2138 -20.2133 -20.2132
    -9.9567  -9.6658  -9.6076  -9.5328  -9.3300  -9.2320  -9.1695  -9.0397
    -9.0219  -8.9192  -8.9184  -8.8863  -8.0587  -8.0117  -7.9990  -7.9620
    -7.9434  -7.9155  -7.8471  -7.8257  -7.8150  -7.7934  -7.7262  -7.7061
     1.2114   1.2176   1.2330   1.2491   1.4470   1.4702   1.4994   1.6543
     1.6916   1.6936   1.7269   1.9218   2.4905   2.5269   2.5713   2.6124
     2.6265   2.7232   3.8956   3.9263   3.9940   4.0329   4.3200   4.3901
     4.5642   4.5894   4.6709   4.7820   4.7873   4.8228   4.8493   5.1311
     5.1684   5.2323   5.2605   5.4153   5.4862   5.5121   5.5520   5.6380
     5.6531   5.6944   5.7659   5.7683   5.8007   6.0213   6.0773   6.1278
     6.1461   6.4116   6.4226   6.4584   6.5586   6.6475   6.6523   6.7241
     6.7557   6.7730   6.8774   6.9088   6.9210   6.9380   7.0203   7.0287
     7.0879   7.1338   7.9410   7.9582   7.9615   7.9756   7.9865   8.0028
     9.5185   9.5362  10.0404  10.0781  10.2971  10.3227  12.1600  12.2401
    12.2444  12.2675  12.2977  12.3355  12.4124  12.4795  13.0089  13.0634
    13.1132  13.3094  13.3334  13.3458  13.8930  13.9221  13.9889  14.0194
    14.1809  14.4982  14.6658  14.9484  15.1587  15.1903  15.7734  15.8506
    16.1401  16.4709  16.8062  17.2843  17.3665

          k = 0.0000 0.1593 0.3333 ( 62792 PWs)   bands (ev):

   -66.1279 -66.1276 -66.1275 -66.1271 -66.1271 -66.1267 -66.1267 -66.1263
   -30.5698 -30.5682 -30.5667 -30.5651 -30.5153 -30.5138 -30.5123 -30.5108
   -30.4639 -30.4614 -30.4603 -30.4578 -30.4413 -30.4387 -30.4365 -30.4339
   -30.3943 -30.3918 -30.3898 -30.3873 -30.3694 -30.3672 -30.3668 -30.3646
   -20.2813 -20.2812 -20.2811 -20.2810 -20.2764 -20.2762 -20.2762 -20.2760
   -20.2736 -20.2735 -20.2735 -20.2735 -20.2734 -20.2734 -20.2734 -20.2733
   -20.2692 -20.2691 -20.2682 -20.2681 -20.2680 -20.2678 -20.2672 -20.2670
   -20.2666 -20.2665 -20.2664 -20.2660 -20.2656 -20.2653 -20.2651 -20.2650
   -20.2557 -20.2556 -20.2556 -20.2555 -20.2554 -20.2553 -20.2553 -20.2552
   -20.2196 -20.2196 -20.2190 -20.2190 -20.2188 -20.2188 -20.2175 -20.2175
   -20.2164 -20.2164 -20.2148 -20.2148 -20.2143 -20.2143 -20.2136 -20.2135
    -9.8490  -9.6538  -9.5462  -9.3920  -9.3668  -9.1997  -8.9809  -8.9712
    -8.9286  -8.8800  -8.8280  -8.7706  -8.2504  -8.2399  -8.2064  -8.1618
    -8.0242  -8.0077  -7.9806  -7.9554  -7.7964  -7.7748  -7.7449  -7.7244
     1.2392   1.2474   1.2589   1.2691   1.5840   1.6108   1.6889   1.6924
     2.1915   2.2244   2.3467   2.4165   2.5454   2.6126   2.7323   2.8319
     2.8523   2.9537   3.6989   3.7726   3.7993   3.8055   3.9998   4.0034
     4.1122   4.1999   4.5398   4.6296   4.7114   4.7456   4.7632   4.8048
     4.9185   5.0256   5.0335   5.0543   5.2618   5.3387   5.4188   5.5371
     5.6111   5.6733   5.7428   5.7844   5.8498   6.0396   6.1036   6.2460
     6.2603   6.4016   6.4257   6.4432   6.5263   6.5681   6.5946   6.6659
     6.6924   6.7597   6.7988   6.9017   6.9326   6.9514   7.0250   7.0678
     7.2292   7.2593   7.7850   7.8358   7.8372   7.8644   7.9980   8.0036
    10.0441  10.0657  10.2562  10.3091  10.9147  10.9510  11.7853  11.8228
    12.0811  12.3040  12.4832  12.4947  12.4997  12.5758  12.5953  12.7257
    13.0221  13.1861  13.2067  13.3453  13.5373  13.5814  14.0134  14.0185
    14.3648  14.4821  15.1034  15.2209  15.3623  15.6894  15.7012  15.7370
    16.2307  16.9256  17.0441  17.2674  17.6314

          k = 0.0000 0.1593-0.4999 ( 62786 PWs)   bands (ev):

   -66.1277 -66.1277 -66.1274 -66.1273 -66.1269 -66.1269 -66.1265 -66.1265
   -30.5691 -30.5691 -30.5660 -30.5660 -30.5146 -30.5146 -30.5117 -30.5117
   -30.4627 -30.4627 -30.4590 -30.4590 -30.4178 -30.4178 -30.4152 -30.4152
   -30.4132 -30.4131 -30.4106 -30.4106 -30.3683 -30.3683 -30.3657 -30.3657
   -20.2812 -20.2812 -20.2811 -20.2811 -20.2763 -20.2763 -20.2761 -20.2761
   -20.2735 -20.2735 -20.2735 -20.2735 -20.2734 -20.2734 -20.2734 -20.2734
   -20.2692 -20.2691 -20.2681 -20.2681 -20.2673 -20.2673 -20.2672 -20.2672
   -20.2667 -20.2667 -20.2663 -20.2663 -20.2657 -20.2657 -20.2651 -20.2651
   -20.2557 -20.2556 -20.2556 -20.2556 -20.2553 -20.2553 -20.2552 -20.2552
   -20.2192 -20.2192 -20.2192 -20.2192 -20.2177 -20.2177 -20.2177 -20.2177
   -20.2162 -20.2162 -20.2162 -20.2162 -20.2140 -20.2139 -20.2139 -20.2139
    -9.7357  -9.7357  -9.4359  -9.4359  -9.2668  -9.2668  -8.9434  -8.9434
    -8.6119  -8.6119  -8.6034  -8.6034  -8.5768  -8.5768  -8.5165  -8.5165
    -8.0200  -8.0200  -7.9707  -7.9707  -7.7705  -7.7705  -7.7495  -7.7495
     1.2464   1.2464   1.2695   1.2695   1.6059   1.6059   1.6948   1.6948
     2.5682   2.5682   2.9072   2.9072   3.0434   3.0434   3.0697   3.0697
     3.2176   3.2176   3.2668   3.2668   3.3423   3.3423   3.7206   3.7206
     3.8709   3.8709   4.1141   4.1141   4.5765   4.5765   4.6926   4.6927
     4.9535   4.9535   5.2064   5.2064   5.2152   5.2152   5.3991   5.3991
     5.6082   5.6082   5.7654   5.7654   6.0459   6.0459   6.1999   6.1999
     6.2350   6.2350   6.3749   6.3749   6.4716   6.4716   6.5320   6.5320
     6.7053   6.7054   6.7993   6.7993   6.9212   6.9213   7.4748   7.4748
     7.5418   7.5418   7.5964   7.5964   7.6236   7.6236   8.0037   8.0037
    10.0584  10.0585  11.0708  11.0708  11.1213  11.1213  11.6181  11.6181
    11.7481  11.7481  12.3435  12.3435  12.7414  12.7414  12.8672  12.8672
    12.8789  12.8789  13.1230  13.1230  13.3694  13.3694  14.0157  14.0157
    14.4476  14.4477  15.4833  15.4833  15.5680  15.5680  15.6835  15.6835
    16.5253  16.5253  17.3740  17.3740  17.9392

          k = 0.0000 0.3186 0.0000 ( 62811 PWs)   bands (ev):

   -66.1281 -66.1279 -66.1272 -66.1272 -66.1270 -66.1270 -66.1264 -66.1262
   -30.5587 -30.5558 -30.5556 -30.5528 -30.5271 -30.5243 -30.5241 -30.5214
   -30.4651 -30.4647 -30.4626 -30.4618 -30.4596 -30.4594 -30.4580 -30.4573
   -30.3702 -30.3699 -30.3687 -30.3684 -30.3662 -30.3659 -30.3643 -30.3639
   -20.2803 -20.2801 -20.2801 -20.2799 -20.2774 -20.2772 -20.2772 -20.2770
   -20.2736 -20.2736 -20.2735 -20.2735 -20.2734 -20.2734 -20.2733 -20.2733
   -20.2690 -20.2689 -20.2686 -20.2685 -20.2683 -20.2682 -20.2680 -20.2679
   -20.2660 -20.2659 -20.2657 -20.2656 -20.2654 -20.2653 -20.2651 -20.2649
   -20.2558 -20.2558 -20.2556 -20.2555 -20.2555 -20.2554 -20.2552 -20.2552
   -20.2203 -20.2203 -20.2200 -20.2199 -20.2187 -20.2187 -20.2184 -20.2184
   -20.2150 -20.2150 -20.2147 -20.2147 -20.2135 -20.2134 -20.2131 -20.2131
    -9.9186  -9.7581  -9.4962  -9.4956  -9.3485  -9.3469  -9.0733  -9.0649
    -8.9446  -8.7926  -8.7924  -8.7919  -8.3094  -8.2601  -8.2592  -8.2346
    -7.8191  -7.8186  -7.8053  -7.8048  -7.7155  -7.7154  -7.7038  -7.7037
     1.1300   1.1302   1.2375   1.2409   1.2412   1.2450   1.4856   1.5148
     2.2167   2.3634   2.3669   2.4229   2.4679   2.5243   2.7351   2.7399
     2.8346   2.8409   3.5214   3.5288   3.5459   3.5532   4.0276   4.3440
     4.3489   4.6253   4.7155   4.7214   4.7437   4.7496   4.9275   4.9310
     4.9636   4.9672   5.2908   5.2925   5.5141   5.5156   5.6123   5.6147
     5.7936   5.7939   5.8541   5.8560   6.0028   6.0048   6.0141   6.0951
     6.0990   6.1622   6.1771   6.4788   6.5327   6.5371   6.7738   6.7783
     6.8393   6.9353   6.9645   6.9662   6.9794   6.9825   7.2540   7.2559
     7.2738   7.2756   7.7542   7.7574   7.7782   7.7818   7.9926   7.9948
     9.1655   9.1662  10.5300  10.5359  10.5950  10.5988  11.7564  11.7673
    11.8526  11.8580  12.3759  12.3797  12.3942  12.3963  13.1146  13.1424
    13.3716  13.3982  13.4234  13.4318  13.8119  13.8126  13.8203  13.8327
    14.5594  15.0184  15.0246  15.0972  15.1012  15.5152  15.6797  15.6833
    15.7300  16.8955  17.0707  17.6362  17.6424

          k = 0.0000 0.3186 0.1666 ( 62820 PWs)   bands (ev):

   -66.1280 -66.1278 -66.1273 -66.1272 -66.1271 -66.1269 -66.1264 -66.1262
   -30.5586 -30.5560 -30.5555 -30.5530 -30.5271 -30.5246 -30.5241 -30.5217
   -30.4642 -30.4623 -30.4597 -30.4579 -30.4577 -30.4565 -30.4532 -30.4516
   -30.3765 -30.3751 -30.3723 -30.3708 -30.3696 -30.3681 -30.3659 -30.3644
   -20.2803 -20.2801 -20.2801 -20.2799 -20.2774 -20.2772 -20.2772 -20.2770
   -20.2736 -20.2736 -20.2735 -20.2735 -20.2735 -20.2734 -20.2734 -20.2733
   -20.2690 -20.2689 -20.2684 -20.2684 -20.2682 -20.2682 -20.2678 -20.2677
   -20.2660 -20.2659 -20.2659 -20.2658 -20.2654 -20.2653 -20.2653 -20.2651
   -20.2558 -20.2557 -20.2556 -20.2555 -20.2555 -20.2554 -20.2552 -20.2552
   -20.2200 -20.2200 -20.2198 -20.2198 -20.2185 -20.2185 -20.2184 -20.2184
   -20.2154 -20.2154 -20.2146 -20.2146 -20.2138 -20.2138 -20.2133 -20.2132
    -9.8708  -9.7063  -9.5101  -9.4240  -9.3593  -9.2613  -9.0349  -9.0252
    -8.9532  -8.7963  -8.7845  -8.7744  -8.3117  -8.2674  -8.2561  -8.2395
    -7.9386  -7.9250  -7.8429  -7.8310  -7.8108  -7.7982  -7.7222  -7.7105
     1.2161   1.2174   1.2446   1.2488   1.4891   1.4986   1.6508   1.6906
     2.2194   2.3438   2.3664   2.5011   2.5200   2.5546   2.7407   2.8294
     2.8405   2.9354   3.5273   3.5471   3.5612   3.5872   4.0210   4.3146
     4.3450   4.3600   4.4086   4.6286   4.6587   4.7494   4.7862   4.8016
     4.9312   4.9793   5.0964   5.2322   5.3260   5.3836   5.5227   5.5551
     5.6101   5.6668   5.7048   5.7757   5.9595   6.0315   6.0789   6.1238
     6.1828   6.3822   6.4210   6.5253   6.5337   6.7615   6.7736   6.8443
     6.8802   6.8906   6.9450   6.9726   6.9755   6.9860   7.0278   7.0362
     7.1125   7.1468   7.7320   7.7528   7.7566   7.7660   7.9662   7.9681
     9.5258   9.5345  10.5420  10.5968  10.7203  10.7713  11.7673  11.8531
    11.8575  11.9375  12.2475  12.2616  12.4313  12.4524  13.0594  13.1331
    13.1737  13.3688  13.3798  13.4205  13.6498  13.7086  13.8109  13.8191
    14.6940  15.0148  15.1539  15.1989  15.2736  15.5875  15.6613  15.8916
    16.0194  16.8579  17.1475  17.2136  17.4228

          k = 0.0000 0.3186 0.3333 ( 62803 PWs)   bands (ev):

   -66.1279 -66.1276 -66.1274 -66.1272 -66.1270 -66.1268 -66.1266 -66.1264
   -30.5583 -30.5567 -30.5552 -30.5537 -30.5268 -30.5253 -30.5238 -30.5224
   -30.4632 -30.4612 -30.4607 -30.4586 -30.4408 -30.4393 -30.4360 -30.4345
   -30.3938 -30.3923 -30.3893 -30.3879 -30.3689 -30.3673 -30.3667 -30.3652
   -20.2803 -20.2801 -20.2801 -20.2800 -20.2774 -20.2773 -20.2772 -20.2771
   -20.2736 -20.2735 -20.2735 -20.2735 -20.2735 -20.2734 -20.2734 -20.2734
   -20.2690 -20.2689 -20.2683 -20.2683 -20.2678 -20.2677 -20.2673 -20.2672
   -20.2664 -20.2663 -20.2662 -20.2658 -20.2658 -20.2655 -20.2653 -20.2653
   -20.2557 -20.2557 -20.2556 -20.2555 -20.2554 -20.2553 -20.2552 -20.2552
   -20.2196 -20.2196 -20.2190 -20.2190 -20.2188 -20.2188 -20.2175 -20.2175
   -20.2164 -20.2164 -20.2148 -20.2148 -20.2143 -20.2143 -20.2136 -20.2135
    -9.7564  -9.5858  -9.5558  -9.3983  -9.2427  -9.0144  -8.9857  -8.9232
    -8.8861  -8.8081  -8.7439  -8.6992  -8.3603  -8.3301  -8.2538  -8.2472
    -8.2336  -8.1752  -8.1553  -8.1070  -7.7922  -7.7795  -7.7408  -7.7288
     1.2536   1.2585   1.2637   1.2686   2.0898   2.1692   2.1864   2.2414
     2.3438   2.3679   2.3826   2.5917   2.7550   2.7621   2.7808   2.8467
     3.0810   3.1443   3.5099   3.5284   3.5954   3.6413   3.7743   3.7912
     4.0055   4.1912   4.2802   4.2932   4.3677   4.4952   4.5887   4.7117
     4.7339   4.7574   4.8933   4.9495   5.0353   5.0852   5.1187   5.2601
     5.2705   5.4952   5.5682   5.7293   6.0361   6.0892   6.1707   6.2527
     6.3462   6.4884   6.5349   6.5351   6.5918   6.7147   6.7329   6.7446
     6.7985   6.9184   6.9346   6.9450   6.9517   7.0590   7.0853   7.1100
     7.2108   7.2395   7.6512   7.6581   7.7392   7.7638   7.8392   7.8600
    10.2697  10.2823  10.5621  10.5918  11.2259  11.2465  11.7464  11.7976
    11.8167  11.8869  12.1483  12.1904  12.5915  12.6130  12.6367  12.6551
    12.9589  13.1454  13.2053  13.3455  13.4166  13.4624  13.8077  13.8179
    14.8474  14.9858  15.3139  15.5937  15.6946  15.8779  15.9031  16.4017
    16.6399  16.7254  16.8931  17.4159  17.5524

          k = 0.0000 0.3186-0.4999 ( 62822 PWs)   bands (ev):

   -66.1277 -66.1276 -66.1274 -66.1274 -66.1268 -66.1268 -66.1266 -66.1266
   -30.5576 -30.5576 -30.5546 -30.5546 -30.5261 -30.5261 -30.5232 -30.5232
   -30.4619 -30.4619 -30.4599 -30.4599 -30.4173 -30.4173 -30.4158 -30.4158
   -30.4126 -30.4126 -30.4112 -30.4112 -30.3678 -30.3678 -30.3663 -30.3663
   -20.2802 -20.2802 -20.2800 -20.2800 -20.2774 -20.2774 -20.2772 -20.2772
   -20.2735 -20.2735 -20.2735 -20.2735 -20.2734 -20.2734 -20.2734 -20.2734
   -20.2689 -20.2689 -20.2683 -20.2683 -20.2671 -20.2671 -20.2670 -20.2670
   -20.2667 -20.2667 -20.2665 -20.2665 -20.2657 -20.2657 -20.2653 -20.2653
   -20.2556 -20.2556 -20.2556 -20.2556 -20.2553 -20.2553 -20.2552 -20.2552
   -20.2192 -20.2192 -20.2192 -20.2192 -20.2177 -20.2177 -20.2177 -20.2177
   -20.2162 -20.2162 -20.2162 -20.2162 -20.2140 -20.2139 -20.2139 -20.2139
    -9.6384  -9.6384  -9.4715  -9.4715  -9.0693  -9.0693  -8.8352  -8.8352
    -8.6592  -8.6592  -8.6217  -8.6216  -8.5578  -8.5578  -8.4933  -8.4933
    -8.2531  -8.2531  -8.2160  -8.2160  -7.7664  -7.7664  -7.7541  -7.7541
     1.2636   1.2636   1.2691   1.2691   2.2257   2.2257   2.3619   2.3619
     2.7705   2.7705   2.9715   2.9715   3.0382   3.0382   3.1552   3.1552
     3.2332   3.2332   3.2409   3.2409   3.3081   3.3081   3.5323   3.5323
     3.9882   3.9882   4.0154   4.0154   4.0372   4.0372   4.2648   4.2648
     4.7314   4.7314   4.8358   4.8358   5.0019   5.0019   5.1687   5.1687
     5.3113   5.3113   5.6448   5.6448   6.1755   6.1755   6.2322   6.2322
     6.3837   6.3837   6.4452   6.4452   6.4792   6.4793   6.6985   6.6985
     6.9115   6.9116   6.9472   6.9472   7.0247   7.0247   7.4484   7.4484
     7.4897   7.4897   7.5157   7.5157   7.5703   7.5703   7.7783   7.7783
    10.5669  10.5669  11.0802  11.0803  11.1177  11.1177  11.6931  11.6931
    11.9417  11.9417  12.0518  12.0518  12.5683  12.5683  12.6173  12.6173
    12.8867  12.8867  12.9710  12.9710  13.4153  13.4153  13.8120  13.8120
    14.9311  14.9311  15.4765  15.4765  16.1262  16.1262  16.4201  16.4201
    16.7518  16.7518  16.9882  16.9882  17.8374

          k = 0.0000-0.4780 0.0000 ( 62922 PWs)   bands (ev):

   -66.1280 -66.1280 -66.1271 -66.1271 -66.1271 -66.1271 -66.1263 -66.1263
   -30.5429 -30.5429 -30.5401 -30.5401 -30.5399 -30.5399 -30.5371 -30.5371
   -30.4645 -30.4645 -30.4626 -30.4626 -30.4588 -30.4588 -30.4584 -30.4584
   -30.3695 -30.3695 -30.3692 -30.3692 -30.3658 -30.3657 -30.3644 -30.3644
   -20.2789 -20.2788 -20.2787 -20.2787 -20.2786 -20.2786 -20.2785 -20.2785
   -20.2736 -20.2736 -20.2735 -20.2735 -20.2734 -20.2734 -20.2733 -20.2733
   -20.2687 -20.2687 -20.2685 -20.2685 -20.2682 -20.2682 -20.2682 -20.2682
   -20.2657 -20.2657 -20.2657 -20.2656 -20.2654 -20.2654 -20.2652 -20.2652
   -20.2558 -20.2558 -20.2556 -20.2556 -20.2555 -20.2555 -20.2552 -20.2552
   -20.2203 -20.2203 -20.2200 -20.2199 -20.2187 -20.2187 -20.2184 -20.2184
   -20.2150 -20.2150 -20.2147 -20.2147 -20.2135 -20.2134 -20.2131 -20.2131
    -9.8275  -9.8275  -9.4051  -9.4051  -9.4039  -9.4039  -9.0691  -9.0691
    -8.6326  -8.6326  -8.5601  -8.5601  -8.5595  -8.5595  -8.5512  -8.5512
    -7.8132  -7.8132  -7.8108  -7.8108  -7.7097  -7.7097  -7.7096  -7.7096
     1.1301   1.1301   1.2402   1.2402   1.2441   1.2441   1.5079   1.5079
     2.4452   2.4452   3.0400   3.0400   3.0797   3.0797   3.1397   3.1397
     3.1401   3.1401   3.1447   3.1447   3.3354   3.3354   3.3420   3.3420
     3.5320   3.5320   4.7277   4.7277   4.7331   4.7331   5.1133   5.1134
     5.1218   5.1218   5.2241   5.2241   5.2277   5.2277   5.6777   5.6777
     5.6804   5.6804   5.9681   5.9681   5.9707   5.9707   6.1153   6.1153
     6.1271   6.1271   6.2156   6.2156   6.6381   6.6381   6.6427   6.6427
     6.8895   6.8895   7.2492   7.2492   7.2513   7.2513   7.3801   7.3801
     7.3818   7.3818   7.4244   7.4244   7.4256   7.4256   7.9937   7.9937
     9.1660   9.1661  11.1618  11.1618  11.1712  11.1712  11.2384  11.2384
    11.2498  11.2498  12.3877  12.3878  12.3908  12.3908  13.1349  13.1349
    13.5546  13.5546  13.5758  13.5758  13.5897  13.5897  13.5987  13.5987
    15.0982  15.0982  15.1289  15.1289  15.4448  15.4448  15.4478  15.4478
    16.4008  16.4008  17.6686  18.0059  18.0066

          k = 0.0000-0.4780 0.1666 ( 62812 PWs)   bands (ev):

   -66.1279 -66.1279 -66.1272 -66.1272 -66.1271 -66.1271 -66.1263 -66.1263
   -30.5428 -30.5428 -30.5403 -30.5403 -30.5398 -30.5398 -30.5374 -30.5374
   -30.4632 -30.4632 -30.4587 -30.4587 -30.4573 -30.4573 -30.4524 -30.4524
   -30.3758 -30.3758 -30.3716 -30.3715 -30.3689 -30.3689 -30.3651 -30.3651
   -20.2789 -20.2788 -20.2787 -20.2787 -20.2787 -20.2786 -20.2785 -20.2785
   -20.2736 -20.2736 -20.2735 -20.2735 -20.2734 -20.2734 -20.2734 -20.2733
   -20.2687 -20.2687 -20.2686 -20.2685 -20.2681 -20.2681 -20.2680 -20.2680
   -20.2658 -20.2658 -20.2656 -20.2656 -20.2655 -20.2655 -20.2654 -20.2653
   -20.2558 -20.2558 -20.2556 -20.2556 -20.2554 -20.2554 -20.2552 -20.2552
   -20.2200 -20.2200 -20.2198 -20.2198 -20.2185 -20.2185 -20.2184 -20.2184
   -20.2154 -20.2154 -20.2146 -20.2146 -20.2138 -20.2138 -20.2133 -20.2132
    -9.7770  -9.7770  -9.4174  -9.4174  -9.3222  -9.3222  -9.0298  -9.0298
    -8.6397  -8.6397  -8.5653  -8.5653  -8.5522  -8.5522  -8.5491  -8.5491
    -7.9321  -7.9321  -7.8371  -7.8371  -7.8046  -7.8046  -7.7164  -7.7164
     1.2171   1.2171   1.2478   1.2478   1.4964   1.4964   1.6819   1.6819
     2.5317   2.5317   3.0487   3.0487   3.0817   3.0817   3.1328   3.1328
     3.1451   3.1451   3.1841   3.1841   3.3383   3.3383   3.3920   3.3920
     3.5597   3.5597   4.3676   4.3676   4.7855   4.7855   4.8830   4.8831
     5.0210   5.0210   5.1060   5.1061   5.2407   5.2407   5.4188   5.4188
     5.6508   5.6508   5.6776   5.6776   6.0285   6.0285   6.1153   6.1153
     6.3342   6.3342   6.4041   6.4041   6.6302   6.6303   6.8178   6.8178
     6.9376   6.9376   7.0224   7.0224   7.0812   7.0812   7.3681   7.3681
     7.3879   7.3879   7.4015   7.4015   7.4149   7.4149   7.9669   7.9669
     9.5311   9.5311  11.1758  11.1758  11.2415  11.2415  11.2941  11.2941
    11.3651  11.3651  12.2553  12.2553  12.4432  12.4432  13.1166  13.1167
    13.3707  13.3707  13.4708  13.4708  13.5807  13.5807  13.5949  13.5949
    15.1084  15.1084  15.3450  15.3450  15.4304  15.4304  15.7588  15.7588
    16.4738  16.4738  17.6553  17.6553  17.7087

          k = 0.0000-0.4780 0.3333 ( 62776 PWs)   bands (ev):

   -66.1278 -66.1278 -66.1273 -66.1273 -66.1269 -66.1269 -66.1265 -66.1265
   -30.5425 -30.5425 -30.5410 -30.5410 -30.5396 -30.5395 -30.5381 -30.5381
   -30.4622 -30.4622 -30.4597 -30.4597 -30.4401 -30.4400 -30.4353 -30.4352
   -30.3930 -30.3930 -30.3886 -30.3886 -30.3681 -30.3681 -30.3660 -30.3659
   -20.2789 -20.2788 -20.2787 -20.2787 -20.2787 -20.2786 -20.2786 -20.2785
   -20.2736 -20.2736 -20.2735 -20.2735 -20.2735 -20.2734 -20.2734 -20.2734
   -20.2687 -20.2686 -20.2686 -20.2686 -20.2676 -20.2676 -20.2675 -20.2675
   -20.2662 -20.2662 -20.2660 -20.2660 -20.2656 -20.2656 -20.2655 -20.2655
   -20.2557 -20.2557 -20.2556 -20.2556 -20.2554 -20.2553 -20.2552 -20.2552
   -20.2196 -20.2196 -20.2190 -20.2190 -20.2188 -20.2188 -20.2175 -20.2175
   -20.2164 -20.2164 -20.2148 -20.2148 -20.2143 -20.2143 -20.2136 -20.2135
    -9.6575  -9.6574  -9.4601  -9.4601  -9.0947  -9.0947  -8.8979  -8.8979
    -8.6756  -8.6755  -8.5864  -8.5864  -8.5374  -8.5374  -8.5230  -8.5229
    -8.2214  -8.2214  -8.1427  -8.1427  -7.7859  -7.7859  -7.7349  -7.7349
     1.2573   1.2573   1.2674   1.2674   2.1742   2.1742   2.3240   2.3240
     2.7817   2.7817   3.0563   3.0564   3.0910   3.0910   3.1254   3.1254
     3.1393   3.1393   3.2603   3.2603   3.3297   3.3297   3.5457   3.5457
     3.6205   3.6205   3.7786   3.7786   4.4170   4.4170   4.5498   4.5498
     4.7333   4.7333   4.7777   4.7777   5.0640   5.0640   5.1441   5.1441
     5.2812   5.2812   5.5651   5.5652   6.0864   6.0864   6.2393   6.2393
     6.4564   6.4564   6.5559   6.5559   6.6088   6.6088   6.7500   6.7500
     6.9614   6.9614   7.0965   7.0965   7.1270   7.1270   7.3458   7.3458
     7.3695   7.3695   7.3905   7.3905   7.4174   7.4174   7.8437   7.8437
    10.2807  10.2807  11.1898  11.1898  11.2258  11.2258  11.6777  11.6777
    11.7227  11.7227  11.8124  11.8124  12.6122  12.6122  12.7870  12.7870
    12.8839  12.8839  13.2441  13.2442  13.5710  13.5710  13.5897  13.5897
    15.1735  15.1735  15.3755  15.3755  15.9680  15.9680  16.5518  16.5518
    16.7406  16.7406  17.1410  17.1410  17.8125

          k = 0.0000-0.4780-0.4999 ( 62844 PWs)   bands (ev):

   -66.1276 -66.1275 -66.1275 -66.1275 -66.1267 -66.1267 -66.1267 -66.1267
   -30.5418 -30.5418 -30.5418 -30.5418 -30.5389 -30.5389 -30.5389 -30.5389
   -30.4609 -30.4609 -30.4609 -30.4609 -30.4166 -30.4165 -30.4165 -30.4165
   -30.4119 -30.4119 -30.4119 -30.4119 -30.3670 -30.3670 -30.3670 -30.3670
   -20.2788 -20.2788 -20.2788 -20.2788 -20.2786 -20.2786 -20.2786 -20.2786
   -20.2735 -20.2735 -20.2735 -20.2735 -20.2734 -20.2734 -20.2734 -20.2734
   -20.2686 -20.2686 -20.2686 -20.2686 -20.2669 -20.2669 -20.2669 -20.2669
   -20.2668 -20.2667 -20.2667 -20.2667 -20.2656 -20.2656 -20.2656 -20.2656
   -20.2556 -20.2556 -20.2556 -20.2556 -20.2553 -20.2553 -20.2553 -20.2553
   -20.2192 -20.2192 -20.2192 -20.2192 -20.2177 -20.2177 -20.2177 -20.2177
   -20.2162 -20.2162 -20.2162 -20.2162 -20.2140 -20.2139 -20.2139 -20.2139
    -9.5391  -9.5391  -9.5391  -9.5391  -8.8171  -8.8170  -8.8170  -8.8170
    -8.6856  -8.6856  -8.6856  -8.6856  -8.4774  -8.4774  -8.4774  -8.4774
    -8.4215  -8.4215  -8.4214  -8.4214  -7.7603  -7.7603  -7.7603  -7.7603
     1.2677   1.2677   1.2677   1.2677   2.9270   2.9270   2.9270   2.9270
     3.0366   3.0366   3.0366   3.0366   3.1061   3.1061   3.1061   3.1061
     3.2096   3.2096   3.2096   3.2096   3.3455   3.3455   3.3455   3.3455
     3.4752   3.4752   3.4752   3.4752   4.2357   4.2357   4.2357   4.2357
     4.3340   4.3340   4.3341   4.3341   5.1076   5.1076   5.1076   5.1076
     5.4078   5.4078   5.4078   5.4078   6.2244   6.2244   6.2244   6.2244
     6.4537   6.4537   6.4537   6.4537   6.5673   6.5673   6.5674   6.5674
     7.2258   7.2258   7.2258   7.2258   7.2816   7.2816   7.2816   7.2816
     7.3556   7.3556   7.3556   7.3556   7.5841   7.5841   7.5841   7.5841
    11.0706  11.0707  11.0707  11.0707  11.2357  11.2357  11.2357  11.2357
    12.2356  12.2356  12.2357  12.2357  12.2652  12.2652  12.2653  12.2653
    12.9101  12.9101  12.9101  12.9101  13.5779  13.5779  13.5779  13.5779
    15.2828  15.2828  15.2828  15.2829  16.5984  16.5984  16.5984  16.5984
    17.3313  17.3313  17.3313  17.3314  17.4404

          k = 0.1667 0.0000 0.0000 ( 62851 PWs)   bands (ev):

   -66.1281 -66.1277 -66.1274 -66.1273 -66.1270 -66.1268 -66.1265 -66.1261
   -30.5744 -30.5716 -30.5713 -30.5686 -30.5113 -30.5086 -30.5085 -30.5059
   -30.4653 -30.4619 -30.4607 -30.4588 -30.4574 -30.4548 -30.4538 -30.4500
   -30.3770 -30.3740 -30.3727 -30.3706 -30.3699 -30.3677 -30.3666 -30.3640
   -20.2817 -20.2815 -20.2815 -20.2813 -20.2760 -20.2758 -20.2757 -20.2756
   -20.2736 -20.2735 -20.2735 -20.2735 -20.2735 -20.2734 -20.2734 -20.2733
   -20.2691 -20.2690 -20.2688 -20.2688 -20.2678 -20.2678 -20.2677 -20.2676
   -20.2665 -20.2663 -20.2660 -20.2659 -20.2653 -20.2652 -20.2647 -20.2646
   -20.2558 -20.2557 -20.2556 -20.2555 -20.2555 -20.2554 -20.2553 -20.2552
   -20.2202 -20.2202 -20.2196 -20.2196 -20.2188 -20.2188 -20.2181 -20.2181
   -20.2151 -20.2151 -20.2149 -20.2149 -20.2136 -20.2136 -20.2134 -20.2134
    -9.9919  -9.6531  -9.6497  -9.5795  -9.3231  -9.2459  -9.2215  -9.0429
    -9.0205  -8.9590  -8.9553  -8.9168  -7.9689  -7.9358  -7.9345  -7.8993
    -7.8868  -7.8469  -7.8450  -7.8266  -7.8173  -7.7913  -7.7279  -7.7042
     1.1909   1.2093   1.2151   1.2448   1.2994   1.3477   1.4545   1.4578
     1.5034   1.5896   1.6971   1.8205   2.4556   2.4827   2.5355   2.5578
     2.5792   2.6526   4.0137   4.0644   4.2580   4.2872   4.2961   4.3921
     4.5269   4.6064   4.7280   4.7915   4.8059   4.8447   4.9552   5.2624
     5.3348   5.3547   5.4506   5.4721   5.4783   5.4903   5.5085   5.5801
     5.6405   5.6789   5.7197   5.8294   5.8976   6.0215   6.0385   6.1329
     6.2558   6.4212   6.4297   6.4552   6.5176   6.5412   6.6277   6.6797
     6.7230   6.7957   6.8876   6.9237   6.9765   7.0237   7.0263   7.0340
     7.0774   7.1283   7.9545   7.9629   8.0019   8.0364   8.0579   8.0910
     9.5134   9.5392   9.8474   9.8704  10.1463  10.1500  12.2321  12.2641
    12.2876  12.3746  12.4153  12.4157  12.4498  12.5595  12.9701  13.0059
    13.2102  13.2233  13.3331  13.3414  13.7814  13.9820  14.0359  14.1439
    14.1453  14.2051  14.3984  14.7655  15.1597  15.1868  15.4450  15.8016
    16.1798  16.6641  16.8284  17.1590  17.2643

          k = 0.1667 0.0000 0.1666 ( 62829 PWs)   bands (ev):

   -66.1281 -66.1276 -66.1273 -66.1273 -66.1269 -66.1269 -66.1266 -66.1262
   -30.5743 -30.5716 -30.5715 -30.5689 -30.5113 -30.5089 -30.5086 -30.5062
   -30.4591 -30.4587 -30.4553 -30.4551 -30.4543 -30.4532 -30.4511 -30.4503
   -30.3770 -30.3768 -30.3742 -30.3737 -30.3733 -30.3729 -30.3702 -30.3697
   -20.2817 -20.2815 -20.2815 -20.2813 -20.2760 -20.2758 -20.2758 -20.2756
   -20.2736 -20.2735 -20.2735 -20.2735 -20.2734 -20.2734 -20.2734 -20.2733
   -20.2691 -20.2690 -20.2686 -20.2686 -20.2678 -20.2678 -20.2677 -20.2674
   -20.2665 -20.2663 -20.2662 -20.2661 -20.2653 -20.2652 -20.2649 -20.2648
   -20.2558 -20.2557 -20.2556 -20.2555 -20.2555 -20.2554 -20.2553 -20.2552
   -20.2199 -20.2199 -20.2195 -20.2195 -20.2185 -20.2185 -20.2182 -20.2182
   -20.2153 -20.2152 -20.2150 -20.2150 -20.2139 -20.2139 -20.2136 -20.2136
    -9.9466  -9.5960  -9.5940  -9.5939  -9.2549  -9.2349  -9.2331  -9.0028
    -8.9857  -8.9506  -8.9210  -8.9203  -7.9742  -7.9395  -7.9323  -7.9290
    -7.9279  -7.8909  -7.8838  -7.8698  -7.8503  -7.8502  -7.8325  -7.8108
     1.2798   1.3396   1.3397   1.3888   1.3895   1.4462   1.5038   1.5075
     1.5874   1.5911   1.7829   1.9035   2.5419   2.5430   2.5579   2.6317
     2.6698   2.6721   4.0046   4.0179   4.2190   4.2196   4.3936   4.3949
     4.4582   4.4607   4.5626   4.5668   4.5747   4.6414   4.9450   5.2084
     5.2685   5.2690   5.3461   5.4081   5.4194   5.5325   5.5355   5.6087
     5.6091   5.6499   5.6524   5.6716   5.7073   5.9056   6.2453   6.4008
     6.4234   6.4588   6.5003   6.5018   6.5214   6.5401   6.5416   6.5967
     6.6129   6.7406   6.7435   6.7960   6.8308   6.9208   6.9222   7.0126
     7.1649   7.2149   7.9298   7.9395   8.0025   8.0334   8.0375   8.0457
     9.7506   9.8043  10.1021  10.1480  10.1506  10.2056  12.2764  12.2842
    12.3037  12.3049  12.3469  12.3877  12.5359  12.5418  12.9752  12.9962
    13.0286  13.1134  13.2195  13.3854  13.8720  13.9524  13.9922  14.0332
    14.0584  14.3652  14.3913  14.8759  15.2856  15.2958  15.4117  16.1491
    16.1534  16.8157  16.8192  16.9701  17.3098

          k = 0.1667 0.0000 0.3333 ( 62815 PWs)   bands (ev):

   -66.1279 -66.1275 -66.1275 -66.1272 -66.1271 -66.1268 -66.1267 -66.1263
   -30.5739 -30.5723 -30.5711 -30.5696 -30.5110 -30.5095 -30.5083 -30.5069
   -30.4577 -30.4553 -30.4539 -30.4513 -30.4411 -30.4381 -30.4370 -30.4340
   -30.3942 -30.3913 -30.3904 -30.3874 -30.3759 -30.3737 -30.3728 -30.3707
   -20.2816 -20.2815 -20.2815 -20.2814 -20.2760 -20.2759 -20.2758 -20.2757
   -20.2736 -20.2735 -20.2735 -20.2735 -20.2734 -20.2734 -20.2734 -20.2733
   -20.2691 -20.2690 -20.2682 -20.2681 -20.2678 -20.2677 -20.2673 -20.2669
   -20.2667 -20.2666 -20.2666 -20.2661 -20.2655 -20.2653 -20.2652 -20.2652
   -20.2557 -20.2556 -20.2556 -20.2555 -20.2554 -20.2553 -20.2553 -20.2552
   -20.2193 -20.2193 -20.2189 -20.2189 -20.2185 -20.2185 -20.2176 -20.2176
   -20.2163 -20.2163 -20.2150 -20.2149 -20.2147 -20.2147 -20.2139 -20.2139
    -9.8375  -9.6402  -9.4655  -9.4627  -9.2854  -9.2701  -8.9840  -8.9575
    -8.9298  -8.8568  -8.8382  -8.7935  -8.2351  -8.2349  -8.2006  -8.1736
    -7.9390  -7.9248  -7.9117  -7.8855  -7.8824  -7.8636  -7.8582  -7.8441
     1.2938   1.3227   1.3917   1.4280   1.5180   1.5222   1.5680   1.5957
     2.1977   2.2198   2.3387   2.3983   2.5592   2.6265   2.7792   2.7922
     2.9238   2.9386   3.7366   3.7905   3.8461   3.8764   4.0402   4.1756
     4.1771   4.3320   4.4381   4.4992   4.5164   4.6594   4.6995   4.8024
     4.9114   5.0144   5.0711   5.1480   5.2587   5.3002   5.4871   5.5829
     5.6343   5.6494   5.6725   5.7236   5.7290   5.9191   6.0143   6.0841
     6.2993   6.3388   6.3475   6.4516   6.4877   6.5191   6.5263   6.6073
     6.6840   6.8087   6.8163   6.8297   7.0350   7.0801   7.1111   7.1232
     7.2437   7.2890   7.8001   7.8301   7.8908   7.9036   8.0358   8.0397
    10.1149  10.1424  10.3998  10.4500  10.8059  10.8698  11.8435  11.8804
    12.1763  12.4260  12.4563  12.4789  12.5371  12.5696  12.6877  12.7895
    12.9467  13.0638  13.0672  13.2434  13.6202  13.6386  13.9478  13.9749
    14.2042  14.3679  14.7461  15.1858  15.3027  15.6228  15.7956  16.0728
    16.2199  17.0682  17.2141  17.3334  17.3953

          k = 0.1667 0.0000-0.4999 ( 62810 PWs)   bands (ev):

   -66.1277 -66.1277 -66.1273 -66.1273 -66.1270 -66.1270 -66.1265 -66.1265
   -30.5732 -30.5732 -30.5704 -30.5704 -30.5104 -30.5104 -30.5077 -30.5077
   -30.4565 -30.4565 -30.4525 -30.4525 -30.4177 -30.4176 -30.4147 -30.4147
   -30.4137 -30.4136 -30.4107 -30.4107 -30.3748 -30.3748 -30.3718 -30.3717
   -20.2816 -20.2816 -20.2815 -20.2814 -20.2760 -20.2759 -20.2758 -20.2758
   -20.2735 -20.2735 -20.2735 -20.2735 -20.2734 -20.2734 -20.2734 -20.2734
   -20.2690 -20.2690 -20.2679 -20.2679 -20.2674 -20.2674 -20.2672 -20.2672
   -20.2668 -20.2668 -20.2662 -20.2662 -20.2658 -20.2658 -20.2652 -20.2652
   -20.2556 -20.2556 -20.2555 -20.2555 -20.2553 -20.2553 -20.2552 -20.2552
   -20.2189 -20.2189 -20.2189 -20.2189 -20.2176 -20.2176 -20.2176 -20.2176
   -20.2163 -20.2163 -20.2163 -20.2163 -20.2143 -20.2143 -20.2143 -20.2143
    -9.7227  -9.7227  -9.3506  -9.3506  -9.3418  -9.3418  -8.9429  -8.9429
    -8.6191  -8.6191  -8.5949  -8.5948  -8.5674  -8.5674  -8.5253  -8.5253
    -7.9302  -7.9302  -7.8908  -7.8908  -7.8710  -7.8709  -7.8653  -7.8653
     1.3061   1.3061   1.4097   1.4097   1.5292   1.5293   1.5977   1.5978
     2.5800   2.5800   2.8901   2.8901   2.9694   2.9694   3.1098   3.1098
     3.2131   3.2131   3.3618   3.3618   3.4251   3.4251   3.7347   3.7347
     3.8179   3.8179   4.2695   4.2695   4.4390   4.4390   4.8358   4.8358
     4.9570   4.9571   4.9952   4.9953   5.1787   5.1787   5.5737   5.5737
     5.6892   5.6892   5.7072   5.7072   5.7918   5.7918   5.8706   5.8706
     6.2250   6.2250   6.2819   6.2819   6.5131   6.5131   6.6151   6.6151
     6.7536   6.7536   6.8872   6.8872   6.9549   6.9549   7.5044   7.5044
     7.5589   7.5589   7.6362   7.6362   7.6517   7.6517   8.0406   8.0407
    10.1363  10.1363  11.1486  11.1486  11.2041  11.2041  11.5683  11.5683
    11.6947  11.6947  12.5575  12.5575  12.6922  12.6922  12.7282  12.7282
    12.9252  12.9252  13.1864  13.1864  13.2755  13.2755  13.9614  13.9614
    14.3168  14.3168  15.0903  15.0903  15.6506  15.6506  15.9106  15.9106
    16.6055  16.6055  17.5850  17.5857  17.6311

          k = 0.1667 0.1593 0.0000 ( 62817 PWs)   bands (ev):

   -66.1281 -66.1277 -66.1274 -66.1272 -66.1270 -66.1269 -66.1265 -66.1261
   -30.5701 -30.5674 -30.5671 -30.5645 -30.5155 -30.5128 -30.5128 -30.5102
   -30.4651 -30.4621 -30.4605 -30.4585 -30.4577 -30.4550 -30.4536 -30.4503
   -30.3768 -30.3742 -30.3725 -30.3704 -30.3701 -30.3679 -30.3665 -30.3642
   -20.2813 -20.2811 -20.2811 -20.2809 -20.2764 -20.2762 -20.2761 -20.2760
   -20.2736 -20.2735 -20.2735 -20.2735 -20.2735 -20.2734 -20.2734 -20.2733
   -20.2691 -20.2689 -20.2688 -20.2687 -20.2679 -20.2679 -20.2678 -20.2677
   -20.2664 -20.2662 -20.2659 -20.2658 -20.2653 -20.2652 -20.2648 -20.2647
   -20.2558 -20.2557 -20.2556 -20.2555 -20.2555 -20.2554 -20.2552 -20.2552
   -20.2202 -20.2202 -20.2196 -20.2196 -20.2188 -20.2188 -20.2181 -20.2181
   -20.2151 -20.2151 -20.2149 -20.2149 -20.2136 -20.2136 -20.2134 -20.2134
    -9.9568  -9.6660  -9.6078  -9.5328  -9.3318  -9.2303  -9.1695  -9.0399
    -9.0217  -8.9196  -8.9182  -8.8858  -8.0591  -8.0112  -7.9997  -7.9622
    -7.9416  -7.9157  -7.8465  -7.8257  -7.8156  -7.7932  -7.7264  -7.7060
     1.2096   1.2150   1.2301   1.2448   1.4486   1.4702   1.5032   1.6549
     1.6867   1.6988   1.7297   1.9226   2.4898   2.5295   2.5707   2.6108
     2.6295   2.7206   3.8908   3.9293   3.9904   4.0390   4.3180   4.3895
     4.5661   4.5663   4.7258   4.7712   4.7750   4.8150   4.8419   5.1332
     5.1754   5.2259   5.2651   5.4169   5.4859   5.5083   5.5502   5.6442
     5.6475   5.7013   5.7642   5.7677   5.8052   6.0210   6.0729   6.1297
     6.1523   6.4083   6.4185   6.4563   6.5604   6.6384   6.6562   6.7202
     6.7489   6.7808   6.8714   6.9156   6.9207   6.9422   7.0240   7.0324
     7.0857   7.1311   7.9350   7.9509   7.9694   7.9703   7.9943   8.0074
     9.5182   9.5376  10.0391  10.0745  10.3013  10.3214  12.1535  12.2358
    12.2562  12.2662  12.2934  12.3386  12.4101  12.4802  13.0036  13.0172
    13.2245  13.2415  13.3417  13.3541  13.8700  13.9051  14.0458  14.0518
    14.1475  14.4729  14.6735  14.9485  15.1596  15.1875  15.7671  15.8518
    16.1438  16.4699  16.8026  17.2892  17.3667

          k = 0.1667 0.1593 0.1666 ( 62847 PWs)   bands (ev):

   -66.1280 -66.1277 -66.1273 -66.1273 -66.1269 -66.1269 -66.1266 -66.1262
   -30.5700 -30.5674 -30.5673 -30.5647 -30.5155 -30.5131 -30.5128 -30.5104
   -30.4589 -30.4585 -30.4555 -30.4551 -30.4541 -30.4533 -30.4513 -30.4506
   -30.3768 -30.3766 -30.3744 -30.3739 -30.3732 -30.3727 -30.3704 -30.3699
   -20.2813 -20.2811 -20.2811 -20.2810 -20.2764 -20.2762 -20.2762 -20.2760
   -20.2736 -20.2735 -20.2735 -20.2735 -20.2735 -20.2734 -20.2734 -20.2733
   -20.2690 -20.2689 -20.2686 -20.2685 -20.2679 -20.2678 -20.2677 -20.2675
   -20.2664 -20.2662 -20.2661 -20.2660 -20.2653 -20.2652 -20.2650 -20.2649
   -20.2558 -20.2557 -20.2556 -20.2555 -20.2555 -20.2554 -20.2552 -20.2552
   -20.2199 -20.2199 -20.2195 -20.2195 -20.2185 -20.2185 -20.2182 -20.2182
   -20.2153 -20.2152 -20.2150 -20.2150 -20.2139 -20.2139 -20.2136 -20.2136
    -9.9099  -9.6088  -9.5477  -9.5476  -9.2438  -9.2421  -9.1786  -9.0016
    -8.9868  -8.9094  -8.8897  -8.8892  -8.0626  -8.0105  -8.0095  -7.9700
    -7.9366  -7.9350  -7.9101  -7.9091  -7.8729  -7.8482  -7.8320  -7.8126
     1.3885   1.3889   1.4478   1.4494   1.4835   1.5035   1.5077   1.6554
     1.7243   1.7272   1.7822   1.9800   2.5721   2.6159   2.6183   2.6611
     2.7074   2.7313   3.8893   3.9188   4.0113   4.0138   4.3800   4.3845
     4.4568   4.4612   4.5374   4.5813   4.5955   4.6286   4.7201   5.1296
     5.1400   5.1726   5.1819   5.3029   5.3065   5.4990   5.5027   5.5319
     5.6500   5.6531   5.7124   5.7188   5.7254   5.7959   6.2641   6.2997
     6.3017   6.4611   6.4950   6.5345   6.5432   6.5788   6.6284   6.6655
     6.6713   6.7607   6.7733   6.7761   6.8787   6.8918   6.8954   7.0191
     7.1659   7.2157   7.9156   7.9313   7.9527   7.9628   7.9685   7.9775
     9.7647   9.8018  10.2628  10.3136  10.3218  10.3546  12.2154  12.2514
    12.2793  12.2815  12.2924  12.2989  12.4040  12.4078  13.0038  13.0109
    13.0552  13.1285  13.2181  13.3924  13.8633  13.8748  13.8906  13.9498
    14.2697  14.6589  14.6687  15.0429  15.2864  15.2948  15.8170  16.1148
    16.1184  16.5932  16.9308  16.9338  17.3136

          k = 0.1667 0.1593 0.3333 ( 62808 PWs)   bands (ev):

   -66.1279 -66.1275 -66.1275 -66.1271 -66.1271 -66.1268 -66.1267 -66.1263
   -30.5697 -30.5681 -30.5669 -30.5654 -30.5152 -30.5137 -30.5126 -30.5111
   -30.4575 -30.4550 -30.4541 -30.4516 -30.4409 -30.4384 -30.4368 -30.4342
   -30.3940 -30.3915 -30.3902 -30.3876 -30.3757 -30.3735 -30.3730 -30.3709
   -20.2813 -20.2812 -20.2811 -20.2810 -20.2764 -20.2762 -20.2762 -20.2761
   -20.2736 -20.2735 -20.2735 -20.2735 -20.2734 -20.2734 -20.2734 -20.2734
   -20.2690 -20.2689 -20.2681 -20.2680 -20.2679 -20.2677 -20.2673 -20.2670
   -20.2666 -20.2665 -20.2665 -20.2661 -20.2656 -20.2653 -20.2653 -20.2652
   -20.2557 -20.2556 -20.2556 -20.2555 -20.2554 -20.2553 -20.2553 -20.2552
   -20.2193 -20.2193 -20.2189 -20.2189 -20.2185 -20.2185 -20.2176 -20.2176
   -20.2163 -20.2163 -20.2150 -20.2149 -20.2147 -20.2147 -20.2139 -20.2139
    -9.7968  -9.5943  -9.4755  -9.4062  -9.2799  -9.2098  -8.9935  -8.9336
    -8.8986  -8.8584  -8.8238  -8.7751  -8.2437  -8.2331  -8.2213  -8.1714
    -8.0228  -8.0110  -7.9853  -7.9608  -7.9161  -7.8925  -7.8654  -7.8448
     1.4509   1.4545   1.5175   1.5217   1.6087   1.6129   1.6967   1.7255
     2.1961   2.2288   2.3396   2.4125   2.6325   2.6942   2.8215   2.8556
     2.9338   2.9667   3.7291   3.7746   3.8050   3.8669   3.9864   4.0556
     4.1223   4.2073   4.4632   4.5301   4.5419   4.6227   4.6523   4.6829
     4.8064   4.8449   4.8871   5.0446   5.1418   5.1802   5.2254   5.5322
     5.5478   5.5717   5.6671   5.6991   5.7480   5.7720   6.0267   6.0831
     6.2453   6.4028   6.4450   6.5118   6.5632   6.5851   6.6185   6.6716
     6.7274   6.8129   6.8249   6.8691   7.0256   7.0762   7.1026   7.1313
     7.2375   7.2836   7.7864   7.8245   7.8383   7.8583   7.9638   7.9688
    10.2586  10.3093  10.4162  10.4635  10.9189  10.9655  11.8439  11.8774
    12.1398  12.3826  12.4109  12.4578  12.4723  12.5179  12.6220  12.6728
    12.9632  13.0509  13.0702  13.2541  13.5112  13.5424  13.8768  13.8971
    14.4930  14.6480  15.0934  15.3231  15.6152  15.7089  15.8082  16.0401
    16.3365  16.9817  17.0259  17.2779  17.3848

          k = 0.1667 0.1593-0.4999 ( 62794 PWs)   bands (ev):

   -66.1277 -66.1277 -66.1273 -66.1273 -66.1269 -66.1269 -66.1266 -66.1266
   -30.5690 -30.5690 -30.5663 -30.5663 -30.5146 -30.5145 -30.5119 -30.5119
   -30.4562 -30.4562 -30.4528 -30.4528 -30.4175 -30.4175 -30.4149 -30.4149
   -30.4135 -30.4135 -30.4109 -30.4109 -30.3746 -30.3746 -30.3720 -30.3720
   -20.2812 -20.2812 -20.2811 -20.2811 -20.2763 -20.2763 -20.2762 -20.2762
   -20.2735 -20.2735 -20.2735 -20.2735 -20.2734 -20.2734 -20.2734 -20.2734
   -20.2690 -20.2689 -20.2679 -20.2679 -20.2673 -20.2673 -20.2672 -20.2672
   -20.2668 -20.2668 -20.2663 -20.2663 -20.2658 -20.2658 -20.2653 -20.2653
   -20.2556 -20.2556 -20.2555 -20.2555 -20.2553 -20.2553 -20.2552 -20.2552
   -20.2189 -20.2189 -20.2189 -20.2189 -20.2176 -20.2176 -20.2176 -20.2176
   -20.2163 -20.2163 -20.2163 -20.2163 -20.2143 -20.2143 -20.2143 -20.2143
    -9.6785  -9.6784  -9.3533  -9.3533  -9.2790  -9.2790  -8.9123  -8.9123
    -8.6286  -8.6286  -8.5980  -8.5980  -8.5649  -8.5649  -8.5197  -8.5197
    -8.0202  -8.0202  -7.9769  -7.9769  -7.8911  -7.8910  -7.8688  -7.8687
     1.4535   1.4535   1.5286   1.5286   1.6182   1.6182   1.7239   1.7239
     2.6502   2.6502   2.9141   2.9141   3.0017   3.0017   3.1093   3.1093
     3.2119   3.2119   3.3631   3.3631   3.4179   3.4179   3.7369   3.7369
     3.8645   3.8645   4.1161   4.1161   4.4667   4.4667   4.6038   4.6038
     4.8530   4.8530   4.9382   4.9382   5.0055   5.0055   5.3560   5.3560
     5.5970   5.5970   5.6704   5.6704   5.7702   5.7702   5.7937   5.7937
     6.3554   6.3554   6.4976   6.4976   6.5105   6.5105   6.6557   6.6557
     6.8099   6.8099   6.8483   6.8483   6.9798   6.9799   7.4989   7.4989
     7.5515   7.5515   7.6051   7.6051   7.6270   7.6270   7.9674   7.9675
    10.3020  10.3020  11.1526  11.1526  11.2035  11.2035  11.6357  11.6357
    11.7576  11.7576  12.4111  12.4111  12.6753  12.6753  12.7172  12.7172
    12.8983  12.8983  13.0827  13.0827  13.2218  13.2218  13.8829  13.8829
    14.6021  14.6021  15.4689  15.4689  15.7845  15.7845  15.8864  15.8865
    16.6433  16.6433  17.3963  17.3963  17.6524

          k = 0.1667 0.3186 0.0000 ( 62817 PWs)   bands (ev):

   -66.1280 -66.1278 -66.1273 -66.1272 -66.1271 -66.1270 -66.1264 -66.1262
   -30.5586 -30.5559 -30.5557 -30.5530 -30.5270 -30.5243 -30.5243 -30.5217
   -30.4645 -30.4628 -30.4600 -30.4583 -30.4578 -30.4558 -30.4530 -30.4511
   -30.3763 -30.3747 -30.3720 -30.3706 -30.3699 -30.3685 -30.3660 -30.3647
   -20.2803 -20.2801 -20.2801 -20.2799 -20.2774 -20.2772 -20.2772 -20.2770
   -20.2736 -20.2736 -20.2735 -20.2735 -20.2734 -20.2734 -20.2734 -20.2733
   -20.2688 -20.2687 -20.2686 -20.2685 -20.2681 -20.2680 -20.2680 -20.2679
   -20.2662 -20.2661 -20.2657 -20.2656 -20.2656 -20.2655 -20.2651 -20.2649
   -20.2558 -20.2557 -20.2555 -20.2555 -20.2555 -20.2554 -20.2552 -20.2552
   -20.2202 -20.2202 -20.2196 -20.2196 -20.2188 -20.2188 -20.2181 -20.2181
   -20.2151 -20.2151 -20.2149 -20.2149 -20.2136 -20.2136 -20.2134 -20.2134
    -9.8710  -9.7065  -9.5107  -9.4236  -9.3608  -9.2598  -9.0349  -9.0250
    -8.9533  -8.7963  -8.7844  -8.7743  -8.3116  -8.2667  -8.2568  -8.2396
    -7.9382  -7.9246  -7.8430  -7.8308  -7.8110  -7.7981  -7.7222  -7.7104
     1.2140   1.2150   1.2410   1.2447   1.4920   1.5020   1.6529   1.6930
     2.2193   2.3434   2.3663   2.5033   2.5165   2.5545   2.7457   2.8303
     2.8418   2.9301   3.5184   3.5385   3.5730   3.5934   4.0212   4.3090
     4.3465   4.3627   4.4131   4.6265   4.6592   4.7509   4.7792   4.8009
     4.9326   4.9751   5.0997   5.2349   5.3255   5.3856   5.5236   5.5529
     5.6115   5.6669   5.7041   5.7760   5.9632   6.0317   6.0768   6.1298
     6.1814   6.3692   6.4216   6.5222   6.5402   6.7655   6.7681   6.8426
     6.8814   6.8908   6.9487   6.9580   6.9783   6.9981   7.0326   7.0367
     7.1119   7.1441   7.7289   7.7499   7.7597   7.7702   7.9664   7.9683
     9.5259   9.5350  10.5360  10.5907  10.7279  10.7731  11.7564  11.8477
    11.8683  11.9421  12.2492  12.2629  12.4279  12.4510  13.0597  13.0856
    13.2448  13.3315  13.3950  13.4286  13.6516  13.6970  13.8124  13.8306
    14.6947  15.0103  15.1484  15.1941  15.2798  15.5868  15.6580  15.8900
    16.0216  16.8577  17.1443  17.2155  17.7450

          k = 0.1667 0.3186 0.1666 ( 62813 PWs)   bands (ev):

   -66.1280 -66.1277 -66.1272 -66.1272 -66.1270 -66.1270 -66.1265 -66.1263
   -30.5585 -30.5559 -30.5558 -30.5533 -30.5270 -30.5245 -30.5243 -30.5220
   -30.4584 -30.4580 -30.4560 -30.4555 -30.4535 -30.4531 -30.4519 -30.4514
   -30.3763 -30.3760 -30.3749 -30.3745 -30.3727 -30.3724 -30.3708 -30.3704
   -20.2803 -20.2801 -20.2801 -20.2799 -20.2774 -20.2773 -20.2772 -20.2771
   -20.2736 -20.2736 -20.2735 -20.2735 -20.2735 -20.2734 -20.2734 -20.2733
   -20.2688 -20.2687 -20.2684 -20.2683 -20.2681 -20.2680 -20.2678 -20.2677
   -20.2662 -20.2661 -20.2659 -20.2658 -20.2656 -20.2655 -20.2652 -20.2651
   -20.2558 -20.2557 -20.2555 -20.2555 -20.2555 -20.2554 -20.2552 -20.2552
   -20.2199 -20.2199 -20.2195 -20.2195 -20.2185 -20.2185 -20.2182 -20.2182
   -20.2153 -20.2152 -20.2150 -20.2150 -20.2139 -20.2139 -20.2136 -20.2136
    -9.8202  -9.6500  -9.4389  -9.4384  -9.2739  -9.2724  -8.9985  -8.9902
    -8.9621  -8.7784  -8.7780  -8.7774  -8.3157  -8.2640  -8.2633  -8.2436
    -7.9320  -7.9319  -7.9181  -7.9178  -7.8691  -7.8558  -7.8282  -7.8169
     1.3886   1.3889   1.4928   1.4956   1.5028   1.5061   1.7256   1.7784
     2.2216   2.3439   2.3467   2.4949   2.5961   2.6489   2.8409   2.8452
     2.9228   2.9338   3.5546   3.5564   3.5706   3.6107   4.0153   4.3311
     4.3355   4.4026   4.4057   4.4718   4.4774   4.6226   4.6326   4.7180
     4.7678   4.7718   5.0531   5.0834   5.3031   5.3274   5.3314   5.3411
     5.5645   5.5862   5.6571   5.6591   5.7209   5.7225   6.3359   6.3473
     6.3554   6.4570   6.4801   6.5513   6.6149   6.6452   6.7563   6.7639
     6.8419   6.8459   6.8917   6.9043   6.9811   6.9933   6.9985   7.0437
     7.1810   7.2241   7.7242   7.7337   7.7345   7.7607   7.9410   7.9452
     9.7823   9.7977  10.6964  10.7511  10.7727  10.7812  11.8345  11.8804
    11.9362  11.9395  12.2963  12.2982  12.3251  12.3261  13.0380  13.0914
    13.1701  13.2057  13.2352  13.4273  13.6311  13.6458  13.6519  13.7469
    14.8608  15.2496  15.2658  15.2920  15.3038  15.6513  15.9955  15.9989
    16.0131  16.8222  17.2111  17.2809  17.2831

          k = 0.1667 0.3186 0.3333 ( 62794 PWs)   bands (ev):

   -66.1278 -66.1276 -66.1274 -66.1272 -66.1271 -66.1269 -66.1266 -66.1264
   -30.5582 -30.5566 -30.5555 -30.5540 -30.5267 -30.5252 -30.5241 -30.5226
   -30.4568 -30.4549 -30.4543 -30.4524 -30.4404 -30.4389 -30.4363 -30.4348
   -30.3935 -30.3920 -30.3896 -30.3882 -30.3752 -30.3736 -30.3730 -30.3714
   -20.2803 -20.2802 -20.2801 -20.2800 -20.2774 -20.2773 -20.2773 -20.2771
   -20.2736 -20.2735 -20.2735 -20.2735 -20.2735 -20.2734 -20.2734 -20.2734
   -20.2688 -20.2687 -20.2682 -20.2681 -20.2678 -20.2677 -20.2673 -20.2672
   -20.2664 -20.2663 -20.2663 -20.2660 -20.2658 -20.2655 -20.2655 -20.2655
   -20.2557 -20.2556 -20.2555 -20.2555 -20.2554 -20.2553 -20.2552 -20.2552
   -20.2193 -20.2193 -20.2189 -20.2189 -20.2185 -20.2185 -20.2176 -20.2176
   -20.2163 -20.2163 -20.2150 -20.2150 -20.2147 -20.2147 -20.2139 -20.2139
    -9.6978  -9.5167  -9.4853  -9.3127  -9.2578  -9.0279  -8.9962  -8.8917
    -8.8633  -8.7889  -8.7403  -8.7030  -8.3731  -8.3241  -8.2551  -8.2518
    -8.2265  -8.1711  -8.1643  -8.1121  -7.9125  -7.8995  -7.8620  -7.8499
     1.5052   1.5122   1.5167   1.5210   2.0933   2.1626   2.1911   2.2373
     2.3364   2.3487   2.3846   2.5686   2.8460   2.8520   2.9049   2.9402
     3.0814   3.1436   3.5368   3.5520   3.5954   3.6379   3.8392   3.8954
     4.0020   4.1958   4.2760   4.2988   4.3592   4.4915   4.5345   4.5915
     4.6222   4.6881   4.7383   4.7669   4.8347   4.8714   5.0635   5.0836
     5.2247   5.2540   5.3637   5.5330   5.6876   5.7340   6.0631   6.0832
     6.4563   6.5499   6.5829   6.6754   6.7240   6.7319   6.8447   6.8536
     6.8779   6.9362   6.9461   6.9934   7.0325   7.0947   7.1129   7.1776
     7.2252   7.2633   7.6461   7.6550   7.7241   7.7409   7.8302   7.8481
    10.4003  10.4256  10.7499  10.7681  11.2332  11.2573  11.8218  11.8505
    11.8714  11.9942  12.1521  12.1828  12.4594  12.5288  12.6227  12.6604
    12.9352  13.0651  13.1045  13.2770  13.3071  13.3419  13.6463  13.6834
    15.0789  15.2388  15.5806  15.7911  15.8715  15.9097  15.9623  16.4617
    16.6859  16.6983  16.8934  17.4341  17.4667

          k = 0.1667 0.3186-0.4999 ( 62802 PWs)   bands (ev):

   -66.1276 -66.1276 -66.1274 -66.1274 -66.1269 -66.1268 -66.1266 -66.1266
   -30.5575 -30.5575 -30.5548 -30.5548 -30.5260 -30.5260 -30.5235 -30.5234
   -30.4556 -30.4556 -30.4536 -30.4536 -30.4170 -30.4170 -30.4155 -30.4155
   -30.4130 -30.4129 -30.4115 -30.4115 -30.3741 -30.3741 -30.3725 -30.3725
   -20.2802 -20.2802 -20.2801 -20.2801 -20.2774 -20.2774 -20.2772 -20.2772
   -20.2735 -20.2735 -20.2735 -20.2735 -20.2734 -20.2734 -20.2734 -20.2734
   -20.2687 -20.2687 -20.2681 -20.2681 -20.2671 -20.2671 -20.2670 -20.2670
   -20.2668 -20.2667 -20.2665 -20.2665 -20.2659 -20.2659 -20.2655 -20.2655
   -20.2556 -20.2556 -20.2555 -20.2555 -20.2553 -20.2553 -20.2553 -20.2552
   -20.2189 -20.2189 -20.2189 -20.2189 -20.2176 -20.2176 -20.2176 -20.2176
   -20.2163 -20.2163 -20.2163 -20.2163 -20.2143 -20.2143 -20.2143 -20.2143
    -9.5719  -9.5719  -9.3906  -9.3906  -9.0826  -9.0826  -8.8126  -8.8126
    -8.6754  -8.6754  -8.6120  -8.6120  -8.5503  -8.5502  -8.4972  -8.4972
    -8.2507  -8.2507  -8.2206  -8.2206  -7.8874  -7.8874  -7.8748  -7.8748
     1.5162   1.5162   1.5278   1.5278   2.2281   2.2281   2.3432   2.3432
     2.8515   2.8515   2.9826   2.9827   3.0324   3.0324   3.1493   3.1493
     3.2016   3.2016   3.3568   3.3568   3.3970   3.3970   3.5782   3.5782
     3.9910   3.9910   4.0163   4.0163   4.0300   4.0300   4.2742   4.2743
     4.6462   4.6462   4.7233   4.7233   4.8927   4.8927   4.9352   4.9352
     5.0348   5.0348   5.4350   5.4350   5.7907   5.7907   5.8023   5.8023
     6.5857   6.5857   6.6993   6.6993   6.7503   6.7503   6.7812   6.7812
     6.9030   6.9030   6.9546   6.9546   7.0976   7.0976   7.4459   7.4459
     7.4889   7.4889   7.5350   7.5350   7.5824   7.5824   7.7587   7.7587
    10.7379  10.7379  11.1615  11.1615  11.2048  11.2048  11.7535  11.7535
    11.9508  11.9508  12.0872  12.0873  12.5513  12.5513  12.5935  12.5935
    12.7925  12.7925  12.8959  12.8959  13.2412  13.2412  13.6583  13.6583
    15.1832  15.1833  15.7936  15.7936  16.1966  16.1966  16.4078  16.4078
    16.8169  16.8169  17.0362  17.0362  17.6651

          k = 0.1667-0.4780 0.0000 ( 62816 PWs)   bands (ev):

   -66.1279 -66.1279 -66.1272 -66.1272 -66.1271 -66.1271 -66.1263 -66.1263
   -30.5428 -30.5428 -30.5401 -30.5401 -30.5400 -30.5400 -30.5374 -30.5374
   -30.4636 -30.4636 -30.4592 -30.4591 -30.4569 -30.4569 -30.4521 -30.4521
   -30.3755 -30.3755 -30.3713 -30.3713 -30.3692 -30.3692 -30.3654 -30.3654
   -20.2789 -20.2788 -20.2787 -20.2787 -20.2786 -20.2786 -20.2785 -20.2785
   -20.2736 -20.2736 -20.2735 -20.2735 -20.2734 -20.2734 -20.2734 -20.2733
   -20.2686 -20.2686 -20.2683 -20.2683 -20.2682 -20.2682 -20.2682 -20.2681
   -20.2659 -20.2659 -20.2658 -20.2658 -20.2654 -20.2654 -20.2653 -20.2652
   -20.2558 -20.2558 -20.2555 -20.2555 -20.2555 -20.2555 -20.2552 -20.2552
   -20.2202 -20.2202 -20.2196 -20.2196 -20.2188 -20.2188 -20.2181 -20.2181
   -20.2151 -20.2151 -20.2149 -20.2149 -20.2136 -20.2136 -20.2134 -20.2134
    -9.7772  -9.7772  -9.4186  -9.4186  -9.3211  -9.3211  -9.0297  -9.0297
    -8.6398  -8.6398  -8.5651  -8.5651  -8.5526  -8.5526  -8.5487  -8.5487
    -7.9317  -7.9317  -7.8371  -7.8371  -7.8046  -7.8046  -7.7163  -7.7163
     1.2148   1.2148   1.2439   1.2439   1.4997   1.4997   1.6843   1.6843
     2.5316   2.5316   3.0433   3.0433   3.0830   3.0830   3.1349   3.1349
     3.1485   3.1485   3.1841   3.1841   3.3349   3.3349   3.3950   3.3950
     3.5591   3.5591   4.3692   4.3692   4.7716   4.7716   4.8942   4.8942
     5.0214   5.0214   5.1056   5.1056   5.2405   5.2405   5.4206   5.4206
     5.6501   5.6501   5.6772   5.6772   6.0290   6.0290   6.1177   6.1177
     6.3352   6.3352   6.3974   6.3974   6.6335   6.6335   6.8158   6.8158
     6.9382   6.9382   7.0260   7.0260   7.0793   7.0793   7.3668   7.3668
     7.3886   7.3886   7.4007   7.4007   7.4175   7.4175   7.9671   7.9671
     9.5314   9.5314  11.1669  11.1670  11.2318  11.2318  11.3037  11.3037
    11.3723  11.3723  12.2571  12.2571  12.4407  12.4407  13.1103  13.1103
    13.3731  13.3731  13.4944  13.4944  13.5634  13.5634  13.5978  13.5978
    15.1122  15.1122  15.3389  15.3389  15.4280  15.4280  15.7593  15.7593
    16.4736  16.4736  17.6558  17.6559  17.7088

          k = 0.1667-0.4780 0.1666 ( 62818 PWs)   bands (ev):

   -66.1279 -66.1279 -66.1271 -66.1271 -66.1271 -66.1271 -66.1264 -66.1264
   -30.5428 -30.5427 -30.5403 -30.5402 -30.5401 -30.5401 -30.5377 -30.5377
   -30.4579 -30.4579 -30.4561 -30.4561 -30.4527 -30.4527 -30.4523 -30.4523
   -30.3756 -30.3756 -30.3753 -30.3752 -30.3722 -30.3722 -30.3709 -30.3709
   -20.2789 -20.2789 -20.2787 -20.2787 -20.2787 -20.2787 -20.2785 -20.2785
   -20.2736 -20.2736 -20.2735 -20.2735 -20.2734 -20.2734 -20.2734 -20.2734
   -20.2685 -20.2685 -20.2684 -20.2683 -20.2681 -20.2681 -20.2680 -20.2680
   -20.2659 -20.2659 -20.2658 -20.2658 -20.2655 -20.2655 -20.2654 -20.2654
   -20.2557 -20.2557 -20.2555 -20.2555 -20.2554 -20.2554 -20.2552 -20.2552
   -20.2199 -20.2199 -20.2195 -20.2195 -20.2185 -20.2185 -20.2182 -20.2182
   -20.2153 -20.2152 -20.2150 -20.2150 -20.2139 -20.2139 -20.2136 -20.2136
    -9.7226  -9.7226  -9.3361  -9.3360  -9.3350  -9.3349  -8.9943  -8.9943
    -8.6480  -8.6479  -8.5581  -8.5576  -8.5574  -8.5573  -8.5462  -8.5461
    -7.9265  -7.9263  -7.9241  -7.9240  -7.8629  -7.8628  -7.8226  -7.8226
     1.3886   1.3888   1.5000   1.5006   1.5036   1.5041   1.7676   1.7677
     2.6199   2.6201   3.0521   3.0533   3.0827   3.0889   3.1316   3.1325
     3.1487   3.1488   3.2258   3.2298   3.3879   3.3897   3.3917   3.3962
     3.5800   3.5807   4.4117   4.4153   4.4521   4.4566   4.8441   4.8488
     4.9115   4.9139   5.0083   5.0126   5.0493   5.0531   5.3730   5.3745
[...]
    11.9440  11.9440  11.9440  11.9440  12.0973  12.0973  12.0973  12.0973
    12.9447  12.9447  12.9447  12.9447  13.1072  13.1072  13.1072  13.1072
    15.2555  15.2555  15.2555  15.2555  16.5483  16.5483  16.5483  16.5483
    17.5317  17.5317  17.5317  17.5317  17.8045

          k =-0.5000 0.3186 0.0000 ( 62814 PWs)   bands (ev):

   -66.1277 -66.1277 -66.1274 -66.1274 -66.1268 -66.1268 -66.1266 -66.1266
   -30.5575 -30.5575 -30.5546 -30.5546 -30.5259 -30.5259 -30.5233 -30.5233
   -30.4622 -30.4622 -30.4605 -30.4605 -30.4170 -30.4170 -30.4154 -30.4154
   -30.4124 -30.4124 -30.4108 -30.4108 -30.3680 -30.3680 -30.3666 -30.3666
   -20.2802 -20.2802 -20.2800 -20.2800 -20.2774 -20.2774 -20.2772 -20.2772
   -20.2736 -20.2736 -20.2735 -20.2735 -20.2734 -20.2734 -20.2734 -20.2734
   -20.2685 -20.2685 -20.2681 -20.2681 -20.2674 -20.2674 -20.2672 -20.2672
   -20.2668 -20.2668 -20.2667 -20.2667 -20.2656 -20.2656 -20.2650 -20.2650
   -20.2556 -20.2556 -20.2555 -20.2555 -20.2553 -20.2553 -20.2553 -20.2553
   -20.2195 -20.2195 -20.2195 -20.2195 -20.2175 -20.2175 -20.2174 -20.2174
   -20.2159 -20.2159 -20.2159 -20.2159 -20.2142 -20.2142 -20.2142 -20.2142
    -9.6390  -9.6390  -9.4729  -9.4729  -9.0697  -9.0697  -8.8358  -8.8358
    -8.6581  -8.6581  -8.6211  -8.6211  -8.5567  -8.5567  -8.4928  -8.4928
    -8.2523  -8.2523  -8.2161  -8.2161  -7.7665  -7.7665  -7.7541  -7.7541
     1.2599   1.2599   1.2652   1.2652   2.2249   2.2249   2.3614   2.3614
     2.7767   2.7767   2.9662   2.9662   3.0359   3.0360   3.1585   3.1585
     3.2101   3.2101   3.2821   3.2821   3.2937   3.2937   3.5307   3.5307
     3.9855   3.9855   4.0015   4.0015   4.0561   4.0561   4.2702   4.2702
     4.7298   4.7298   4.8284   4.8284   5.0018   5.0018   5.1709   5.1709
     5.3119   5.3119   5.6455   5.6455   6.1768   6.1768   6.2317   6.2317
     6.3844   6.3844   6.4486   6.4486   6.4779   6.4779   6.7007   6.7007
     6.9082   6.9082   6.9474   6.9474   7.0230   7.0230   7.4473   7.4473
     7.4851   7.4851   7.5231   7.5231   7.5716   7.5716   7.7805   7.7805
    10.5629  10.5629  11.0813  11.0813  11.1160  11.1160  11.6784  11.6784
    11.9418  11.9418  12.0547  12.0547  12.5696  12.5696  12.6258  12.6258
    12.8866  12.8866  12.9777  12.9777  13.4184  13.4184  13.8220  13.8220
    14.9266  14.9266  15.4721  15.4721  16.1260  16.1260  16.4179  16.4179
    16.7423  16.7423  16.9887  16.9887  17.8305

          k =-0.5000 0.3186 0.1666 ( 62804 PWs)   bands (ev):

   -66.1276 -66.1276 -66.1274 -66.1274 -66.1269 -66.1269 -66.1266 -66.1266
   -30.5574 -30.5574 -30.5549 -30.5549 -30.5259 -30.5259 -30.5235 -30.5235
   -30.4558 -30.4558 -30.4542 -30.4542 -30.4167 -30.4167 -30.4150 -30.4150
   -30.4127 -30.4127 -30.4111 -30.4111 -30.3743 -30.3743 -30.3729 -30.3729
   -20.2802 -20.2802 -20.2801 -20.2800 -20.2774 -20.2774 -20.2772 -20.2772
   -20.2736 -20.2736 -20.2735 -20.2735 -20.2734 -20.2734 -20.2734 -20.2734
   -20.2683 -20.2683 -20.2680 -20.2680 -20.2674 -20.2674 -20.2672 -20.2672
   -20.2668 -20.2668 -20.2668 -20.2668 -20.2658 -20.2658 -20.2652 -20.2652
   -20.2556 -20.2556 -20.2555 -20.2555 -20.2553 -20.2553 -20.2553 -20.2553
   -20.2192 -20.2192 -20.2192 -20.2192 -20.2173 -20.2173 -20.2173 -20.2173
   -20.2160 -20.2160 -20.2160 -20.2160 -20.2146 -20.2146 -20.2146 -20.2146
    -9.5724  -9.5724  -9.3919  -9.3918  -9.0829  -9.0829  -8.8132  -8.8132
    -8.6744  -8.6744  -8.6114  -8.6114  -8.5493  -8.5493  -8.4966  -8.4966
    -8.2499  -8.2499  -8.2206  -8.2206  -7.8877  -7.8877  -7.8750  -7.8750
     1.5131   1.5131   1.5243   1.5243   2.2275   2.2275   2.3431   2.3431
     2.8574   2.8574   2.9786   2.9786   3.0291   3.0291   3.1503   3.1503
     3.2034   3.2034   3.3640   3.3640   3.3936   3.3936   3.5766   3.5766
     3.9860   3.9860   4.0024   4.0024   4.0516   4.0516   4.2786   4.2786
     4.6439   4.6439   4.7187   4.7187   4.8925   4.8925   4.9367   4.9367
     5.0360   5.0360   5.4354   5.4354   5.7899   5.7899   5.8022   5.8022
     6.5865   6.5865   6.7036   6.7036   6.7513   6.7513   6.7823   6.7823
     6.8986   6.8986   6.9546   6.9546   7.0958   7.0958   7.4449   7.4449
     7.4869   7.4869   7.5392   7.5392   7.5830   7.5830   7.7603   7.7603
    10.7354  10.7354  11.1616  11.1616  11.2028  11.2028  11.7398  11.7398
    11.9512  11.9512  12.0900  12.0900  12.5515  12.5515  12.6031  12.6031
    12.7939  12.7939  12.9017  12.9017  13.2416  13.2416  13.6637  13.6637
    15.1824  15.1824  15.7906  15.7906  16.1964  16.1964  16.4068  16.4068
    16.8085  16.8085  17.0367  17.0367  17.6614

          k =-0.5000 0.3186 0.3333 ( 62810 PWs)   bands (ev):

   -66.1274 -66.1274 -66.1272 -66.1272 -66.1270 -66.1270 -66.1268 -66.1268
   -30.5571 -30.5571 -30.5556 -30.5556 -30.5256 -30.5256 -30.5242 -30.5242
   -30.4386 -30.4386 -30.4370 -30.4370 -30.4159 -30.4159 -30.4142 -30.4142
   -30.4135 -30.4135 -30.4120 -30.4120 -30.3914 -30.3914 -30.3900 -30.3900
   -20.2802 -20.2802 -20.2801 -20.2801 -20.2774 -20.2774 -20.2773 -20.2773
   -20.2735 -20.2735 -20.2735 -20.2735 -20.2735 -20.2735 -20.2734 -20.2734
   -20.2679 -20.2679 -20.2677 -20.2677 -20.2674 -20.2674 -20.2670 -20.2670
   -20.2668 -20.2668 -20.2668 -20.2668 -20.2663 -20.2663 -20.2657 -20.2657
   -20.2555 -20.2555 -20.2554 -20.2554 -20.2553 -20.2553 -20.2553 -20.2553
   -20.2183 -20.2183 -20.2183 -20.2183 -20.2171 -20.2171 -20.2171 -20.2171
   -20.2163 -20.2163 -20.2163 -20.2163 -20.2156 -20.2156 -20.2156 -20.2156
    -9.4049  -9.4049  -9.1704  -9.1704  -9.1292  -9.1292  -8.7429  -8.7429
    -8.7192  -8.7192  -8.5784  -8.5784  -8.5303  -8.5303  -8.5057  -8.5057
    -8.2635  -8.2635  -8.2338  -8.2338  -8.1804  -8.1804  -8.1409  -8.1409
     2.1180   2.1180   2.2109   2.2109   2.2370   2.2370   2.3749   2.3749
     2.9581   2.9582   3.0173   3.0173   3.0711   3.0711   3.1471   3.1471
     3.2152   3.2152   3.5147   3.5147   3.6463   3.6463   3.7142   3.7142
     3.9696   3.9696   4.0137   4.0137   4.0479   4.0479   4.1748   4.1748
     4.2455   4.2455   4.4002   4.4002   4.5348   4.5348   4.7620   4.7620
     4.8637   4.8637   4.9277   4.9277   4.9692   4.9692   5.2048   5.2048
     6.7654   6.7654   6.8130   6.8130   6.8638   6.8638   6.9267   6.9267
     7.0794   7.0794   7.1914   7.1914   7.3242   7.3242   7.4265   7.4265
     7.4774   7.4774   7.5665   7.5665   7.5878   7.5878   7.7037   7.7037
    11.1842  11.1842  11.4144  11.4144  11.4921  11.4921  11.8317  11.8317
    11.9873  11.9873  12.2534  12.2534  12.3294  12.3294  12.3766  12.3766
    12.6666  12.6666  12.7424  12.7424  12.8065  12.8065  13.2505  13.2505
    15.7835  15.7835  16.3423  16.3423  16.4073  16.4073  16.6191  16.6191
    17.0557  17.0557  17.1291  17.1291  17.3648

          k =-0.5000 0.3186-0.4999 ( 62808 PWs)   bands (ev):

   -66.1272 -66.1272 -66.1272 -66.1272 -66.1270 -66.1270 -66.1270 -66.1270
   -30.5564 -30.5564 -30.5564 -30.5564 -30.5250 -30.5250 -30.5250 -30.5250
   -30.4166 -30.4166 -30.4165 -30.4165 -30.4151 -30.4150 -30.4150 -30.4150
   -30.4131 -30.4131 -30.4131 -30.4131 -30.4116 -30.4116 -30.4116 -30.4116
   -20.2802 -20.2802 -20.2802 -20.2802 -20.2774 -20.2773 -20.2773 -20.2773
   -20.2735 -20.2735 -20.2735 -20.2735 -20.2735 -20.2735 -20.2735 -20.2734
   -20.2676 -20.2676 -20.2675 -20.2675 -20.2672 -20.2672 -20.2671 -20.2671
   -20.2667 -20.2667 -20.2667 -20.2667 -20.2663 -20.2663 -20.2663 -20.2663
   -20.2554 -20.2554 -20.2554 -20.2554 -20.2554 -20.2553 -20.2553 -20.2553
   -20.2171 -20.2171 -20.2171 -20.2171 -20.2170 -20.2170 -20.2170 -20.2170
   -20.2166 -20.2166 -20.2166 -20.2166 -20.2165 -20.2165 -20.2165 -20.2165
    -9.2321  -9.2321  -9.2321  -9.2321  -8.8973  -8.8973  -8.8973  -8.8973
    -8.5747  -8.5747  -8.5747  -8.5747  -8.4656  -8.4656  -8.4656  -8.4656
    -8.4506  -8.4506  -8.4506  -8.4506  -8.2214  -8.2214  -8.2214  -8.2214
     2.2414   2.2414   2.2414   2.2415   2.9089   2.9089   2.9089   2.9090
     3.0155   3.0155   3.0155   3.0155   3.1167   3.1167   3.1167   3.1167
     3.1956   3.1956   3.1956   3.1956   3.9030   3.9030   3.9030   3.9030
     3.9432   3.9432   3.9432   3.9432   3.9991   3.9991   3.9991   3.9991
     4.2243   4.2243   4.2243   4.2243   4.2563   4.2563   4.2563   4.2563
     4.6385   4.6385   4.6385   4.6385   4.9416   4.9416   4.9416   4.9416
     6.8233   6.8233   6.8233   6.8233   6.8959   6.8959   6.8959   6.8960
     7.3244   7.3244   7.3244   7.3244   7.3999   7.3999   7.3999   7.3999
     7.5245   7.5245   7.5245   7.5245   7.6247   7.6247   7.6247   7.6247
    11.7164  11.7164  11.7164  11.7164  11.7463  11.7463  11.7463  11.7463
    11.9982  11.9982  11.9982  11.9982  12.1929  12.1929  12.1929  12.1929
    12.6232  12.6232  12.6232  12.6232  12.8017  12.8017  12.8017  12.8017
    16.1995  16.1995  16.1995  16.1995  16.7454  16.7454  16.7454  16.7454
    17.2696  17.2696  17.2696  17.2696  17.8168

          k =-0.5000-0.4780 0.0000 ( 62836 PWs)   bands (ev):

   -66.1275 -66.1275 -66.1275 -66.1275 -66.1267 -66.1267 -66.1267 -66.1267
   -30.5418 -30.5418 -30.5416 -30.5416 -30.5390 -30.5390 -30.5389 -30.5389
   -30.4613 -30.4613 -30.4613 -30.4613 -30.4163 -30.4163 -30.4161 -30.4161
   -30.4117 -30.4117 -30.4115 -30.4115 -30.3673 -30.3673 -30.3673 -30.3673
   -20.2788 -20.2788 -20.2788 -20.2788 -20.2786 -20.2786 -20.2786 -20.2786
   -20.2736 -20.2736 -20.2736 -20.2736 -20.2734 -20.2734 -20.2734 -20.2734
   -20.2683 -20.2683 -20.2683 -20.2683 -20.2671 -20.2671 -20.2671 -20.2671
   -20.2671 -20.2671 -20.2670 -20.2670 -20.2653 -20.2653 -20.2653 -20.2653
   -20.2556 -20.2556 -20.2556 -20.2556 -20.2553 -20.2553 -20.2553 -20.2553
   -20.2195 -20.2195 -20.2195 -20.2195 -20.2175 -20.2175 -20.2174 -20.2174
   -20.2159 -20.2159 -20.2159 -20.2159 -20.2142 -20.2142 -20.2142 -20.2142
    -9.5411  -9.5411  -9.5391  -9.5391  -8.8213  -8.8213  -8.8127  -8.8127
    -8.6888  -8.6888  -8.6820  -8.6820  -8.4836  -8.4835  -8.4695  -8.4695
    -8.4276  -8.4276  -8.4144  -8.4144  -7.7604  -7.7604  -7.7603  -7.7603
     1.2630   1.2630   1.2649   1.2649   2.9044   2.9044   2.9501   2.9501
     3.0326   3.0326   3.0619   3.0620   3.0844   3.0845   3.0853   3.0854
     3.2213   3.2213   3.2448   3.2448   3.3105   3.3105   3.3628   3.3628
     3.4184   3.4184   3.5344   3.5344   4.2226   4.2226   4.2462   4.2463
     4.3127   4.3127   4.3502   4.3502   5.0998   5.0998   5.1162   5.1162
     5.3970   5.3970   5.4190   5.4190   6.2216   6.2216   6.2259   6.2259
     6.4569   6.4569   6.4574   6.4574   6.5589   6.5589   6.5766   6.5766
     7.2083   7.2083   7.2354   7.2354   7.2443   7.2443   7.3198   7.3198
     7.3375   7.3375   7.3820   7.3820   7.5832   7.5832   7.5844   7.5844
    11.0691  11.0691  11.0817  11.0817  11.2144  11.2144  11.2292  11.2292
    12.2043  12.2043  12.2432  12.2432  12.2727  12.2727  12.2925  12.2925
    12.9126  12.9126  12.9135  12.9135  13.5784  13.5784  13.5892  13.5892
    15.2793  15.2793  15.2821  15.2821  16.5791  16.5791  16.6135  16.6135
    17.3132  17.3133  17.3387  17.3388  17.4268

          k =-0.5000-0.4780 0.1666 ( 62808 PWs)   bands (ev):

   -66.1275 -66.1275 -66.1275 -66.1275 -66.1268 -66.1268 -66.1267 -66.1267
   -30.5417 -30.5417 -30.5416 -30.5416 -30.5393 -30.5393 -30.5391 -30.5391
   -30.4550 -30.4550 -30.4550 -30.4550 -30.4160 -30.4160 -30.4158 -30.4158
   -30.4120 -30.4120 -30.4118 -30.4118 -30.3736 -30.3736 -30.3736 -30.3736
   -20.2788 -20.2788 -20.2788 -20.2788 -20.2786 -20.2786 -20.2786 -20.2786
   -20.2736 -20.2736 -20.2736 -20.2736 -20.2734 -20.2734 -20.2734 -20.2734
   -20.2681 -20.2681 -20.2681 -20.2681 -20.2671 -20.2671 -20.2671 -20.2671
   -20.2671 -20.2671 -20.2670 -20.2670 -20.2655 -20.2655 -20.2655 -20.2655
   -20.2555 -20.2555 -20.2555 -20.2555 -20.2553 -20.2553 -20.2553 -20.2553
   -20.2192 -20.2192 -20.2192 -20.2192 -20.2173 -20.2173 -20.2173 -20.2173
   -20.2160 -20.2160 -20.2160 -20.2160 -20.2146 -20.2146 -20.2146 -20.2146
    -9.4652  -9.4652  -9.4629  -9.4629  -8.8372  -8.8372  -8.8286  -8.8286
    -8.6734  -8.6733  -8.6658  -8.6658  -8.4813  -8.4813  -8.4673  -8.4673
    -8.4296  -8.4296  -8.4168  -8.4168  -7.8817  -7.8817  -7.8814  -7.8814
     1.5205   1.5205   1.5230   1.5230   2.9067   2.9067   2.9499   2.9499
     3.0173   3.0173   3.0298   3.0298   3.1015   3.1015   3.1468   3.1468
     3.2220   3.2220   3.3007   3.3007   3.3827   3.3827   3.4224   3.4224
     3.4614   3.4614   3.5684   3.5684   4.2257   4.2257   4.2477   4.2478
     4.3060   4.3060   4.3433   4.3433   4.7903   4.7903   4.9369   4.9369
     5.0638   5.0638   5.1970   5.1970   5.7912   5.7912   5.8002   5.8002
     6.6728   6.6728   6.7164   6.7164   6.7813   6.7813   6.8218   6.8218
     7.2089   7.2089   7.2109   7.2109   7.2692   7.2692   7.3128   7.3128
     7.3394   7.3394   7.3951   7.3951   7.5816   7.5816   7.6028   7.6028
    11.1333  11.1333  11.1678  11.1678  11.3228  11.3228  11.3825  11.3825
    12.2033  12.2033  12.2457  12.2457  12.2740  12.2740  12.2976  12.2976
    12.7732  12.7732  12.8466  12.8466  13.3890  13.3890  13.4387  13.4387
    15.5744  15.5744  15.5986  15.5986  16.6474  16.6474  16.6829  16.6829
    17.3094  17.3094  17.3505  17.3506  17.4130

          k =-0.5000-0.4780 0.3333 ( 62776 PWs)   bands (ev):

   -66.1273 -66.1273 -66.1273 -66.1273 -66.1269 -66.1269 -66.1269 -66.1269
   -30.5414 -30.5414 -30.5413 -30.5413 -30.5400 -30.5400 -30.5398 -30.5398
   -30.4378 -30.4378 -30.4378 -30.4378 -30.4151 -30.4151 -30.4149 -30.4149
   -30.4129 -30.4129 -30.4127 -30.4127 -30.3907 -30.3907 -30.3907 -30.3907
   -20.2788 -20.2788 -20.2788 -20.2788 -20.2787 -20.2787 -20.2787 -20.2787
   -20.2735 -20.2735 -20.2735 -20.2735 -20.2735 -20.2734 -20.2734 -20.2734
   -20.2677 -20.2677 -20.2677 -20.2677 -20.2671 -20.2671 -20.2671 -20.2671
   -20.2670 -20.2670 -20.2670 -20.2670 -20.2660 -20.2660 -20.2660 -20.2660
   -20.2555 -20.2555 -20.2554 -20.2554 -20.2553 -20.2553 -20.2553 -20.2553
   -20.2183 -20.2183 -20.2183 -20.2183 -20.2171 -20.2171 -20.2171 -20.2171
   -20.2163 -20.2163 -20.2163 -20.2163 -20.2156 -20.2156 -20.2156 -20.2156
    -9.2637  -9.2636  -9.2602  -9.2602  -8.8942  -8.8942  -8.8860  -8.8860
    -8.6153  -8.6153  -8.6080  -8.6080  -8.4751  -8.4750  -8.4638  -8.4638
    -8.4329  -8.4329  -8.4232  -8.4232  -8.1719  -8.1719  -8.1710  -8.1710
     2.1987   2.1987   2.2036   2.2036   2.9135   2.9135   2.9393   2.9393
     3.0020   3.0020   3.0116   3.0117   3.1465   3.1465   3.1724   3.1724
     3.2774   3.2774   3.3042   3.3042   3.5235   3.5235   3.5356   3.5356
     3.6998   3.6998   3.7402   3.7402   4.2132   4.2132   4.2216   4.2217
     4.2592   4.2592   4.3086   4.3086   4.3790   4.3790   4.4885   4.4885
     4.5820   4.5820   4.7170   4.7170   4.9799   4.9799   4.9914   4.9914
     6.9432   6.9432   6.9883   6.9883   7.0924   7.0924   7.1052   7.1052
     7.1908   7.1908   7.2243   7.2243   7.2509   7.2509   7.2983   7.2984
     7.4076   7.4077   7.4578   7.4578   7.5834   7.5834   7.6039   7.6039
    11.3803  11.3803  11.4170  11.4170  11.6800  11.6800  11.7554  11.7554
    12.1559  12.1559  12.2281  12.2281  12.2663  12.2663  12.2957  12.2957
    12.4500  12.4500  12.5724  12.5724  12.9237  12.9237  13.0028  13.0028
    16.3397  16.3398  16.4002  16.4002  16.8665  16.8665  16.8826  16.8826
    17.2278  17.2279  17.3448  17.3448  17.3945

          k =-0.5000-0.4780-0.4999 ( 62728 PWs)   bands (ev):

   -66.1271 -66.1271 -66.1271 -66.1271 -66.1271 -66.1271 -66.1271 -66.1271
   -30.5408 -30.5408 -30.5408 -30.5408 -30.5406 -30.5406 -30.5406 -30.5406
   -30.4163 -30.4163 -30.4163 -30.4163 -30.4150 -30.4150 -30.4150 -30.4150
   -30.4132 -30.4131 -30.4131 -30.4131 -30.4119 -30.4119 -30.4119 -30.4119
   -20.2788 -20.2788 -20.2788 -20.2788 -20.2788 -20.2788 -20.2787 -20.2787
   -20.2735 -20.2735 -20.2735 -20.2735 -20.2735 -20.2735 -20.2735 -20.2735
   -20.2674 -20.2674 -20.2674 -20.2673 -20.2672 -20.2672 -20.2672 -20.2671
   -20.2667 -20.2667 -20.2667 -20.2667 -20.2665 -20.2665 -20.2665 -20.2665
   -20.2554 -20.2554 -20.2554 -20.2554 -20.2554 -20.2554 -20.2554 -20.2553
   -20.2171 -20.2171 -20.2171 -20.2171 -20.2170 -20.2170 -20.2170 -20.2170
   -20.2166 -20.2166 -20.2166 -20.2166 -20.2165 -20.2165 -20.2165 -20.2165
    -9.0329  -9.0329  -9.0329  -9.0329  -9.0267  -9.0267  -9.0267  -9.0267
    -8.4810  -8.4810  -8.4810  -8.4810  -8.4711  -8.4711  -8.4710  -8.4710
    -8.4340  -8.4340  -8.4340  -8.4340  -8.4289  -8.4289  -8.4289  -8.4289
     2.9039   2.9039   2.9039   2.9039   2.9275   2.9275   2.9275   2.9275
     3.0205   3.0205   3.0205   3.0205   3.0498   3.0498   3.0498   3.0498
     3.3257   3.3257   3.3257   3.3257   3.3716   3.3716   3.3717   3.3717
     4.0853   4.0853   4.0853   4.0853   4.0988   4.0988   4.0988   4.0988
     4.2784   4.2784   4.2784   4.2784   4.2859   4.2859   4.2859   4.2859
     4.3756   4.3756   4.3756   4.3756   4.3895   4.3895   4.3895   4.3896
     7.0906   7.0907   7.0907   7.0907   7.1539   7.1539   7.1539   7.1539
     7.2371   7.2371   7.2371   7.2371   7.2470   7.2470   7.2470   7.2470
     7.5377   7.5377   7.5377   7.5377   7.5526   7.5526   7.5526   7.5526
    11.7901  11.7901  11.7901  11.7901  11.7971  11.7971  11.7971  11.7971
    12.2002  12.2002  12.2002  12.2002  12.2602  12.2602  12.2602  12.2602
    12.4443  12.4443  12.4443  12.4443  12.4734  12.4734  12.4734  12.4734
    16.9401  16.9401  16.9401  16.9401  16.9764  16.9765  16.9765  16.9765
    17.3509  17.3509  17.3511  17.3511  17.3726

     the Fermi energy is     9.7959 ev

!    total energy              =   -6260.51639591 Ry
     Harris-Foulkes estimate   =   -6260.51639591 Ry
     estimated scf accuracy    <          4.3E-09 Ry

     The total energy is the sum of the following terms:

     one-electron contribution =   -4759.50400521 Ry
     hartree contribution      =    2617.09781725 Ry
     xc contribution           =    -966.60978080 Ry
     ewald contribution        =   -3151.50038203 Ry
     smearing contrib. (-TS)   =      -0.00004511 Ry

     convergence has been achieved in  13 iterations

     Writing output data file Landau_7.save/
 
     init_run     :     48.53s CPU     50.29s WALL (       1 calls)
     electrons    :   1843.77s CPU   1870.95s WALL (       1 calls)

     Called by init_run:
     wfcinit      :     44.93s CPU     46.55s WALL (       1 calls)
     potinit      :      1.47s CPU      1.51s WALL (       1 calls)
     hinit0       :      1.88s CPU      1.92s WALL (       1 calls)

     Called by electrons:
     c_bands      :   1607.03s CPU   1632.37s WALL (      13 calls)
     sum_band     :    228.99s CPU    229.96s WALL (      13 calls)
     v_of_rho     :      2.28s CPU      2.35s WALL (      14 calls)
     mix_rho      :      4.75s CPU      5.41s WALL (      13 calls)

     Called by c_bands:
     init_us_2    :     18.66s CPU     19.00s WALL (      54 calls)
     cegterg      :   1460.11s CPU   1484.06s WALL (      26 calls)

     Called by sum_band:

     Called by *egterg:
     h_psi        :   1147.28s CPU   1159.44s WALL (     121 calls)
     g_psi        :      4.49s CPU      4.49s WALL (      93 calls)
     cdiaghg      :     17.41s CPU     17.48s WALL (     119 calls)

     Called by h_psi:
     h_psi:pot    :   1143.62s CPU   1148.87s WALL (     121 calls)
     h_psi:calbec :    138.61s CPU    141.88s WALL (     121 calls)
     vloc_psi     :    861.18s CPU    862.54s WALL (     121 calls)
     add_vuspsi   :    143.82s CPU    144.45s WALL (     121 calls)

     General routines
     calbec       :    138.61s CPU    141.88s WALL (     121 calls)
     fft          :      0.93s CPU      0.93s WALL (      42 calls)
     ffts         :      0.29s CPU      0.29s WALL (      13 calls)
     fftw         :    844.50s CPU    845.45s WALL (   33866 calls)
 
     Parallel routines
 
     PWSCF        :  31m33.07s CPU  32m 9.79s WALL

 
   This run was terminated on:  13:36:27  22Nov2019            

=------------------------------------------------------------------------------=
   JOB DONE.
=------------------------------------------------------------------------------=
