
     Program PWSCF v.6.4.1 starts on 16Dec2019 at 17: 3: 2 

     This program is part of the open-source Quantum ESPRESSO suite
     for quantum simulation of materials; please cite
         "P. Giannozzi et al., J. Phys.:Condens. Matter 21 395502 (2009);
         "P. Giannozzi et al., J. Phys.:Condens. Matter 29 465901 (2017);
          URL http://www.quantum-espresso.org", 
     in publications or presentations arising from this work. More details at
     http://www.quantum-espresso.org/quote

     Parallel version (MPI), running on    40 processors

     MPI processes distributed on     3 nodes
     K-points division:     npool     =      40
     Reading input from scf.in

     Current dimensions of program PWSCF are:
     Max number of different atomic species (ntypx) = 10
     Max number of k-points (npk) =  40000
     Max angular momentum in pseudopotentials (lmaxx) =  3

     Subspace diagonalization in iterative solution of the eigenvalue problem:
     a serial algorithm will be used

     Message from routine setup:
     using ibrav=0 with symmetry is DISCOURAGED, use correct ibrav instead
 
     G-vector sticks info
     --------------------
     sticks:   dense  smooth     PW     G-vecs:    dense   smooth      PW
     Sum        7707    7707   2061               503737   503737   69867
 


     bravais-lattice index     =            0
     lattice parameter (alat)  =      14.0732  a.u.
     unit-cell volume          =    2837.1936 (a.u.)^3
     number of atoms/cell      =           32
     number of atomic types    =            2
     number of electrons       =       368.40
     number of Kohn-Sham states=          221
     kinetic-energy cutoff     =     120.0000  Ry
     charge density cutoff     =     480.0000  Ry
     convergence threshold     =      1.0E-08
     mixing beta               =       0.7000
     number of iterations used =            8  plain     mixing
     Exchange-correlation      = SLA PW NOGX NOGC ( 1  4  0  0 0 0)

     celldm(1)=  14.073194  celldm(2)=   0.000000  celldm(3)=   0.000000
     celldm(4)=   0.000000  celldm(5)=   0.000000  celldm(6)=   0.000000

     crystal axes: (cart. coord. in units of alat)
               a(1) = (   1.000000   0.000000   0.000000 )  
               a(2) = (   0.000000   1.019270   0.000000 )  
               a(3) = (   0.000000   0.000000   0.998669 )  

     reciprocal axes: (cart. coord. in units 2 pi/alat)
               b(1) = (  1.000000  0.000000  0.000000 )  
               b(2) = (  0.000000  0.981094  0.000000 )  
               b(3) = (  0.000000  0.000000  1.001332 )  


     PseudoPot. # 1 for W  read from file:
     /cluster/scratch/mnoe/QE/pps/W_ONCV_LDA-4.0.upf
     MD5 check sum: ba0307d5d4cd419d6f1d13dc49d7c13a
     Pseudo is Norm-conserving + core correction, Zval = 28.0
     Generated using ONCVPSP code by D. R. Hamann
     Using radial grid of 1380 points,  8 beta functions with: 
                l(1) =   0
                l(2) =   0
                l(3) =   1
                l(4) =   1
                l(5) =   2
                l(6) =   2
                l(7) =   3
                l(8) =   3

     PseudoPot. # 2 for O  read from file:
     /cluster/scratch/mnoe/QE/pps/O_ONCV_LDA-3.0.upf
     MD5 check sum: b55cdb4f45ae2203d24ad12cf8d61a31
     Pseudo is Norm-conserving + core correction, Zval =  6.0
     Generated using ONCVPSP code by D. R. Hamann
     Using radial grid of  926 points,  5 beta functions with: 
                l(1) =   0
                l(2) =   0
                l(3) =   1
                l(4) =   1
                l(5) =   2

     atomic species   valence    mass     pseudopotential
        W             28.00   183.84000     W ( 1.00)
        O              6.00    15.99940     O ( 1.00)

      8 Sym. Ops., with inversion, found ( 6 have fractional translation)



   Cartesian axes

     site n.     atom                  positions (alat units)
         1           W   tau(   1) = (   0.2379800   0.2962912   0.0113449  )
         2           W   tau(   2) = (   0.7620200   0.7229788   0.9873245  )
         3           W   tau(   3) = (   0.2620200   0.2133438   0.5106795  )
         4           W   tau(   4) = (   0.7379800   0.8059261   0.4879898  )
         5           W   tau(   5) = (   0.7620200   0.2962912   0.4879898  )
         6           W   tau(   6) = (   0.2379800   0.7229788   0.5106795  )
         7           W   tau(   7) = (   0.7379800   0.2133438   0.9873245  )
         8           W   tau(   8) = (   0.2620200   0.8059261   0.0113449  )
         9           O   tau(   9) = (   0.2278200   0.0255099   0.0035253  )
        10           O   tau(  10) = (   0.7721800   0.9937601   0.9951440  )
        11           O   tau(  11) = (   0.2721800   0.4841251   0.5028600  )
        12           O   tau(  12) = (   0.7278200   0.5351449   0.4958094  )
        13           O   tau(  13) = (   0.7721800   0.0255099   0.4958094  )
        14           O   tau(  14) = (   0.2278200   0.9937601   0.5028600  )
        15           O   tau(  15) = (   0.7278200   0.4841251   0.9951440  )
        16           O   tau(  16) = (   0.2721800   0.5351449   0.0035253  )
        17           O   tau(  17) = (   0.5032900   0.2316189   0.4945189  )
        18           O   tau(  18) = (   0.4967100   0.7876511   0.5041505  )
        19           O   tau(  19) = (   0.9967100   0.2780161   0.9938536  )
        20           O   tau(  20) = (   0.0032899   0.7412538   0.0048158  )
        21           O   tau(  21) = (   0.4967100   0.2316189   0.0048158  )
        22           O   tau(  22) = (   0.5032900   0.7876511   0.9938536  )
        23           O   tau(  23) = (   0.0032899   0.2780161   0.5041505  )
        24           O   tau(  24) = (   0.9967100   0.7412538   0.4945189  )
        25           O   tau(  25) = (   0.7451779   0.2497517   0.7440187  )
        26           O   tau(  26) = (   0.2548222   0.7695183   0.2546507  )
        27           O   tau(  27) = (   0.7548222   0.2598833   0.2446840  )
        28           O   tau(  28) = (   0.2451779   0.7593867   0.7539854  )
        29           O   tau(  29) = (   0.2548222   0.2497517   0.7539854  )
        30           O   tau(  30) = (   0.7451779   0.7695183   0.2446840  )
        31           O   tau(  31) = (   0.2451779   0.2598833   0.2546507  )
        32           O   tau(  32) = (   0.7548222   0.7593867   0.7440187  )

     number of k points=    64  gaussian smearing, width (Ry)=  0.0007
                       cart. coord. in units 2pi/alat
        k(    1) = (   0.0000000   0.0000000   0.0000000), wk =   0.0092593
        k(    2) = (   0.0000000   0.0000000   0.1668887), wk =   0.0185185
        k(    3) = (   0.0000000   0.0000000   0.3337775), wk =   0.0185185
        k(    4) = (   0.0000000   0.0000000  -0.5006662), wk =   0.0092593
        k(    5) = (   0.0000000   0.1635157   0.0000000), wk =   0.0185185
        k(    6) = (   0.0000000   0.1635157   0.1668887), wk =   0.0370370
        k(    7) = (   0.0000000   0.1635157   0.3337775), wk =   0.0370370
        k(    8) = (   0.0000000   0.1635157  -0.5006662), wk =   0.0185185
        k(    9) = (   0.0000000   0.3270314   0.0000000), wk =   0.0185185
        k(   10) = (   0.0000000   0.3270314   0.1668887), wk =   0.0370370
        k(   11) = (   0.0000000   0.3270314   0.3337775), wk =   0.0370370
        k(   12) = (   0.0000000   0.3270314  -0.5006662), wk =   0.0185185
        k(   13) = (   0.0000000  -0.4905472   0.0000000), wk =   0.0092593
        k(   14) = (   0.0000000  -0.4905472   0.1668887), wk =   0.0185185
        k(   15) = (   0.0000000  -0.4905472   0.3337775), wk =   0.0185185
        k(   16) = (   0.0000000  -0.4905472  -0.5006662), wk =   0.0092593
        k(   17) = (   0.1666667   0.0000000   0.0000000), wk =   0.0185185
        k(   18) = (   0.1666667   0.0000000   0.1668887), wk =   0.0370370
        k(   19) = (   0.1666667   0.0000000   0.3337775), wk =   0.0370370
        k(   20) = (   0.1666667   0.0000000  -0.5006662), wk =   0.0185185
        k(   21) = (   0.1666667   0.1635157   0.0000000), wk =   0.0370370
        k(   22) = (   0.1666667   0.1635157   0.1668887), wk =   0.0740741
        k(   23) = (   0.1666667   0.1635157   0.3337775), wk =   0.0740741
        k(   24) = (   0.1666667   0.1635157  -0.5006662), wk =   0.0370370
        k(   25) = (   0.1666667   0.3270314   0.0000000), wk =   0.0370370
        k(   26) = (   0.1666667   0.3270314   0.1668887), wk =   0.0740741
        k(   27) = (   0.1666667   0.3270314   0.3337775), wk =   0.0740741
        k(   28) = (   0.1666667   0.3270314  -0.5006662), wk =   0.0370370
        k(   29) = (   0.1666667  -0.4905472   0.0000000), wk =   0.0185185
        k(   30) = (   0.1666667  -0.4905472   0.1668887), wk =   0.0370370
        k(   31) = (   0.1666667  -0.4905472   0.3337775), wk =   0.0370370
        k(   32) = (   0.1666667  -0.4905472  -0.5006662), wk =   0.0185185
        k(   33) = (   0.3333333   0.0000000   0.0000000), wk =   0.0185185
        k(   34) = (   0.3333333   0.0000000   0.1668887), wk =   0.0370370
        k(   35) = (   0.3333333   0.0000000   0.3337775), wk =   0.0370370
        k(   36) = (   0.3333333   0.0000000  -0.5006662), wk =   0.0185185
        k(   37) = (   0.3333333   0.1635157   0.0000000), wk =   0.0370370
        k(   38) = (   0.3333333   0.1635157   0.1668887), wk =   0.0740741
        k(   39) = (   0.3333333   0.1635157   0.3337775), wk =   0.0740741
        k(   40) = (   0.3333333   0.1635157  -0.5006662), wk =   0.0370370
        k(   41) = (   0.3333333   0.3270314   0.0000000), wk =   0.0370370
        k(   42) = (   0.3333333   0.3270314   0.1668887), wk =   0.0740741
        k(   43) = (   0.3333333   0.3270314   0.3337775), wk =   0.0740741
        k(   44) = (   0.3333333   0.3270314  -0.5006662), wk =   0.0370370
        k(   45) = (   0.3333333  -0.4905472   0.0000000), wk =   0.0185185
        k(   46) = (   0.3333333  -0.4905472   0.1668887), wk =   0.0370370
        k(   47) = (   0.3333333  -0.4905472   0.3337775), wk =   0.0370370
        k(   48) = (   0.3333333  -0.4905472  -0.5006662), wk =   0.0185185
        k(   49) = (  -0.5000000   0.0000000   0.0000000), wk =   0.0092593
        k(   50) = (  -0.5000000   0.0000000   0.1668887), wk =   0.0185185
        k(   51) = (  -0.5000000   0.0000000   0.3337775), wk =   0.0185185
        k(   52) = (  -0.5000000   0.0000000  -0.5006662), wk =   0.0092593
        k(   53) = (  -0.5000000   0.1635157   0.0000000), wk =   0.0185185
        k(   54) = (  -0.5000000   0.1635157   0.1668887), wk =   0.0370370
        k(   55) = (  -0.5000000   0.1635157   0.3337775), wk =   0.0370370
        k(   56) = (  -0.5000000   0.1635157  -0.5006662), wk =   0.0185185
        k(   57) = (  -0.5000000   0.3270314   0.0000000), wk =   0.0185185
        k(   58) = (  -0.5000000   0.3270314   0.1668887), wk =   0.0370370
        k(   59) = (  -0.5000000   0.3270314   0.3337775), wk =   0.0370370
        k(   60) = (  -0.5000000   0.3270314  -0.5006662), wk =   0.0185185
        k(   61) = (  -0.5000000  -0.4905472   0.0000000), wk =   0.0092593
        k(   62) = (  -0.5000000  -0.4905472   0.1668887), wk =   0.0185185
        k(   63) = (  -0.5000000  -0.4905472   0.3337775), wk =   0.0185185
        k(   64) = (  -0.5000000  -0.4905472  -0.5006662), wk =   0.0092593

     Dense  grid:   503737 G-vectors     FFT dimensions: ( 100, 108, 100)

     Estimated max dynamical RAM per process >       3.16 GB

     Estimated total dynamical RAM >     126.47 GB

     Initial potential from superposition of free atoms

     starting charge  367.99656, renormalised to  368.40000
     Starting wfcs are  232 randomized atomic wfcs

     total cpu time spent up to now is       51.2 secs

     Self-consistent Calculation

     iteration #  1     ecut=   120.00 Ry     beta= 0.70
     Davidson diagonalization with overlap
     ethr =  1.00E-02,  avg # of iterations =  5.1

     total cpu time spent up to now is      218.1 secs

     total energy              =   -6253.41900948 Ry
     Harris-Foulkes estimate   =   -6264.36077158 Ry
     estimated scf accuracy    <      13.79960498 Ry

     iteration #  2     ecut=   120.00 Ry     beta= 0.70
     Davidson diagonalization with overlap
     ethr =  3.75E-03,  avg # of iterations =  3.6

     total cpu time spent up to now is      383.2 secs

     total energy              =   -6250.26224246 Ry
     Harris-Foulkes estimate   =   -6270.70138933 Ry
     estimated scf accuracy    <      54.76444428 Ry

     iteration #  3     ecut=   120.00 Ry     beta= 0.70
     Davidson diagonalization with overlap
     ethr =  3.75E-03,  avg # of iterations =  3.4

     total cpu time spent up to now is      536.5 secs

     total energy              =   -6260.74870995 Ry
     Harris-Foulkes estimate   =   -6261.01960011 Ry
     estimated scf accuracy    <       0.91186844 Ry

     iteration #  4     ecut=   120.00 Ry     beta= 0.70
     Davidson diagonalization with overlap
     ethr =  2.48E-04,  avg # of iterations =  3.4

     total cpu time spent up to now is      661.1 secs

     total energy              =   -6260.72693230 Ry
     Harris-Foulkes estimate   =   -6260.80942056 Ry
     estimated scf accuracy    <       0.22524225 Ry

     iteration #  5     ecut=   120.00 Ry     beta= 0.70
     Davidson diagonalization with overlap
     ethr =  6.11E-05,  avg # of iterations =  4.9

     total cpu time spent up to now is      798.8 secs

     total energy              =   -6260.74569648 Ry
     Harris-Foulkes estimate   =   -6260.76829614 Ry
     estimated scf accuracy    <       0.05314489 Ry

     iteration #  6     ecut=   120.00 Ry     beta= 0.70
     Davidson diagonalization with overlap
     ethr =  1.44E-05,  avg # of iterations =  5.8

     total cpu time spent up to now is      943.2 secs

     total energy              =   -6260.75603882 Ry
     Harris-Foulkes estimate   =   -6260.75918293 Ry
     estimated scf accuracy    <       0.00834927 Ry

     iteration #  7     ecut=   120.00 Ry     beta= 0.70
     Davidson diagonalization with overlap
     ethr =  2.27E-06,  avg # of iterations =  5.8

     total cpu time spent up to now is     1081.1 secs

     total energy              =   -6260.75709935 Ry
     Harris-Foulkes estimate   =   -6260.75720810 Ry
     estimated scf accuracy    <       0.00019019 Ry

     iteration #  8     ecut=   120.00 Ry     beta= 0.70
     Davidson diagonalization with overlap
     ethr =  5.16E-08,  avg # of iterations =  3.4

     total cpu time spent up to now is     1248.5 secs

     total energy              =   -6260.75718339 Ry
     Harris-Foulkes estimate   =   -6260.75720098 Ry
     estimated scf accuracy    <       0.00007600 Ry

     iteration #  9     ecut=   120.00 Ry     beta= 0.70
     Davidson diagonalization with overlap
     ethr =  2.06E-08,  avg # of iterations =  2.0

     total cpu time spent up to now is     1371.6 secs

     total energy              =   -6260.75718324 Ry
     Harris-Foulkes estimate   =   -6260.75719180 Ry
     estimated scf accuracy    <       0.00003934 Ry

     iteration # 10     ecut=   120.00 Ry     beta= 0.70
     Davidson diagonalization with overlap
     ethr =  1.07E-08,  avg # of iterations =  1.7

     total cpu time spent up to now is     1489.8 secs

     total energy              =   -6260.75718016 Ry
     Harris-Foulkes estimate   =   -6260.75718559 Ry
     estimated scf accuracy    <       0.00001287 Ry

     iteration # 11     ecut=   120.00 Ry     beta= 0.70
     Davidson diagonalization with overlap
     ethr =  3.49E-09,  avg # of iterations =  2.9

     total cpu time spent up to now is     1615.2 secs

     total energy              =   -6260.75718280 Ry
     Harris-Foulkes estimate   =   -6260.75718286 Ry
     estimated scf accuracy    <       0.00000014 Ry

     iteration # 12     ecut=   120.00 Ry     beta= 0.70
     Davidson diagonalization with overlap
     ethr =  3.67E-11,  avg # of iterations =  2.6

     total cpu time spent up to now is     1777.1 secs

     total energy              =   -6260.75718284 Ry
     Harris-Foulkes estimate   =   -6260.75718286 Ry
     estimated scf accuracy    <       0.00000003 Ry

     iteration # 13     ecut=   120.00 Ry     beta= 0.70
     Davidson diagonalization with overlap
     ethr =  8.08E-12,  avg # of iterations =  2.6

     total cpu time spent up to now is     1923.6 secs

     End of self-consistent calculation

          k = 0.0000 0.0000 0.0000 ( 62907 PWs)   bands (ev):

   -66.2567 -66.2561 -66.2560 -66.2560 -66.2555 -66.2554 -66.2554 -66.2548
   -30.6405 -30.6363 -30.6257 -30.6231 -30.6217 -30.6178 -30.6130 -30.6048
   -30.6014 -30.6011 -30.5939 -30.5876 -30.5604 -30.5579 -30.5452 -30.5373
   -30.5370 -30.5353 -30.5305 -30.5192 -30.5158 -30.5144 -30.5099 -30.5058
   -20.4149 -20.4148 -20.4147 -20.4146 -20.4143 -20.4141 -20.4141 -20.4140
   -20.4026 -20.4025 -20.4025 -20.4024 -20.4022 -20.4021 -20.4020 -20.4020
   -20.3937 -20.3934 -20.3928 -20.3924 -20.3914 -20.3912 -20.3911 -20.3906
   -20.3890 -20.3884 -20.3884 -20.3882 -20.3875 -20.3874 -20.3874 -20.3871
   -20.3866 -20.3865 -20.3859 -20.3858 -20.3849 -20.3846 -20.3839 -20.3837
   -20.3835 -20.3834 -20.3832 -20.3830 -20.3792 -20.3788 -20.3786 -20.3782
   -20.3724 -20.3723 -20.3721 -20.3721 -20.3714 -20.3714 -20.3712 -20.3711
   -10.1139  -9.7350  -9.7330  -9.7099  -9.3576  -9.3339  -9.3108  -9.0601
    -9.0290  -8.9602  -8.9596  -8.9552  -8.0137  -7.9317  -7.9299  -7.8958
    -7.8953  -7.8758  -7.8631  -7.8607  -7.8208  -7.7920  -7.7723  -7.7575
     1.0950   1.0964   1.1245   1.1525   1.1748   1.1929   1.2684   1.2989
     1.3143   1.3682   1.4029   1.5139   2.3267   2.3478   2.3876   2.4199
     2.4216   2.5413   3.9648   4.0391   4.1387   4.2432   4.4981   4.5292
     4.5535   4.5890   4.6011   4.6971   4.7267   4.7408   5.0625   5.4202
     5.4292   5.4527   5.4574   5.5377   5.5491   5.6259   5.7052   5.7262
     5.7802   5.7897   5.8399   5.8482   5.8679   5.8841   6.0499   6.0592
     6.0728   6.2862   6.3186   6.3387   6.3395   6.5701   6.5933   6.6397
     6.6442   6.6591   6.9787   6.9797   6.9877   6.9983   7.0120   7.0220
     7.0393   7.0427   8.0580   8.0952   8.2247   8.2339   8.2442   8.2574
     9.1985   9.2152   9.5897   9.6489   9.7255   9.8022  12.3791  12.4561
    12.4746  12.5243  12.5420  12.5732  12.6127  12.6291  12.6920  12.8765
    13.0923  13.1341  13.2381  13.3933  13.6970  13.8503  13.9394  14.0176
    14.0208  14.0584  14.3432  14.5676  14.5860  14.6116  15.2815  15.4026
    15.6196  16.3092  16.8036  16.8825  16.9401

          k = 0.0000 0.0000 0.1669 ( 62927 PWs)   bands (ev):

   -66.2566 -66.2561 -66.2560 -66.2560 -66.2555 -66.2554 -66.2554 -66.2549
   -30.6402 -30.6366 -30.6256 -30.6226 -30.6220 -30.6182 -30.6112 -30.6018
   -30.5999 -30.5961 -30.5891 -30.5834 -30.5601 -30.5583 -30.5471 -30.5382
   -30.5368 -30.5349 -30.5338 -30.5209 -30.5188 -30.5179 -30.5143 -30.5082
   -20.4149 -20.4148 -20.4147 -20.4146 -20.4143 -20.4142 -20.4142 -20.4140
   -20.4026 -20.4025 -20.4025 -20.4024 -20.4022 -20.4021 -20.4020 -20.4020
   -20.3937 -20.3934 -20.3928 -20.3924 -20.3914 -20.3913 -20.3911 -20.3906
   -20.3890 -20.3884 -20.3884 -20.3882 -20.3874 -20.3874 -20.3874 -20.3871
   -20.3865 -20.3865 -20.3860 -20.3859 -20.3847 -20.3845 -20.3836 -20.3836
   -20.3835 -20.3833 -20.3829 -20.3828 -20.3795 -20.3791 -20.3789 -20.3785
   -20.3723 -20.3723 -20.3720 -20.3720 -20.3715 -20.3715 -20.3712 -20.3712
   -10.0739  -9.7488  -9.6801  -9.6597  -9.3430  -9.3211  -9.2746  -9.0277
    -8.9947  -8.9571  -8.9469  -8.9280  -8.0549  -8.0256  -7.9898  -7.9785
    -7.9419  -7.9352  -7.9048  -7.8663  -7.8311  -7.7955  -7.7914  -7.7607
     1.1211   1.1685   1.1938   1.2127   1.2292   1.2669   1.2917   1.3635
     1.4393   1.4937   1.5639   1.6501   2.3300   2.3846   2.4326   2.4990
     2.5068   2.6220   3.9398   4.0008   4.1296   4.1957   4.2615   4.2945
     4.4182   4.4618   4.6059   4.6074   4.6090   4.7173   5.0697   5.2795
     5.3848   5.3905   5.4713   5.4970   5.5186   5.5353   5.6008   5.6070
     5.6967   5.7211   5.7981   5.8697   5.8736   5.9533   6.0569   6.0882
     6.1290   6.3118   6.4250   6.4834   6.4891   6.5317   6.5938   6.6421
     6.6862   6.7640   6.8049   6.8163   6.8437   6.8740   6.8875   6.9226
     7.0035   7.0099   8.0614   8.0908   8.1550   8.1729   8.1772   8.1990
     9.5306   9.5473   9.6627   9.7996   9.9168  10.0184  12.3905  12.4105
    12.4495  12.5250  12.5279  12.5723  12.5739  12.5742  12.7311  12.8745
    12.8795  12.9149  13.2966  13.3907  13.6593  13.7268  13.8305  13.9099
    14.2243  14.2754  14.5187  14.5841  14.6294  14.7180  15.3839  15.5865
    15.6991  16.4944  16.6124  16.9570  17.0294

          k = 0.0000 0.0000 0.3338 ( 62943 PWs)   bands (ev):

   -66.2565 -66.2562 -66.2559 -66.2559 -66.2556 -66.2556 -66.2553 -66.2550
   -30.6395 -30.6374 -30.6251 -30.6229 -30.6215 -30.6190 -30.6078 -30.6031
   -30.5867 -30.5827 -30.5759 -30.5710 -30.5600 -30.5590 -30.5539 -30.5445
   -30.5439 -30.5351 -30.5345 -30.5335 -30.5256 -30.5241 -30.5177 -30.5125
   -20.4148 -20.4146 -20.4146 -20.4145 -20.4144 -20.4143 -20.4143 -20.4142
   -20.4026 -20.4025 -20.4025 -20.4024 -20.4022 -20.4021 -20.4020 -20.4020
   -20.3936 -20.3935 -20.3927 -20.3925 -20.3914 -20.3913 -20.3910 -20.3907
   -20.3889 -20.3885 -20.3884 -20.3883 -20.3874 -20.3874 -20.3873 -20.3872
   -20.3864 -20.3864 -20.3861 -20.3860 -20.3844 -20.3843 -20.3838 -20.3837
   -20.3826 -20.3823 -20.3822 -20.3820 -20.3803 -20.3800 -20.3798 -20.3795
   -20.3722 -20.3721 -20.3718 -20.3718 -20.3716 -20.3716 -20.3714 -20.3714
    -9.9762  -9.7927  -9.5538  -9.5436  -9.3737  -9.3565  -9.0385  -8.9850
    -8.9625  -8.8705  -8.8436  -8.8139  -8.3167  -8.2962  -8.2862  -8.2623
    -7.9657  -7.9447  -7.8986  -7.8752  -7.8283  -7.8048  -7.7911  -7.7695
     1.1281   1.1541   1.2446   1.2469   1.2635   1.2757   1.3147   1.3532
     2.0945   2.1190   2.1977   2.2272   2.3371   2.3907   2.6571   2.6994
     2.7553   2.8556   3.6322   3.7014   3.7823   3.9040   3.9305   3.9632
     4.1333   4.1353   4.4730   4.6012   4.6294   4.6521   4.8410   4.9511
     5.0469   5.0884   5.2257   5.2842   5.3478   5.4776   5.6183   5.6272
     5.7007   5.7018   5.8503   5.9019   5.9199   6.0547   6.0587   6.1332
     6.1407   6.1758   6.2880   6.3335   6.3346   6.4265   6.4541   6.6060
     6.6326   6.6542   6.7493   6.7744   7.0032   7.0102   7.0906   7.1026
     7.1829   7.2188   7.9373   7.9651   7.9857   8.0119   8.0692   8.0832
     9.6964   9.7664  10.2711  10.2782  10.6574  10.7108  11.8466  11.8679
    12.2966  12.3391  12.5731  12.5745  12.6651  12.6985  12.7040  12.7396
    12.7783  12.9087  13.3404  13.3570  13.3824  13.3982  13.4868  13.5416
    14.5173  14.5775  14.8080  14.9085  15.0029  15.2219  15.3201  15.4741
    16.0631  16.7250  16.9197  17.1085  17.2929

          k = 0.0000 0.0000-0.5007 ( 62938 PWs)   bands (ev):

   -66.2563 -66.2563 -66.2558 -66.2558 -66.2557 -66.2557 -66.2551 -66.2551
   -30.6385 -30.6385 -30.6240 -30.6240 -30.6202 -30.6202 -30.6051 -30.6051
   -30.5697 -30.5697 -30.5657 -30.5657 -30.5583 -30.5583 -30.5562 -30.5562
   -30.5529 -30.5529 -30.5318 -30.5318 -30.5307 -30.5307 -30.5157 -30.5157
   -20.4146 -20.4146 -20.4145 -20.4145 -20.4145 -20.4144 -20.4143 -20.4143
   -20.4026 -20.4026 -20.4025 -20.4025 -20.4021 -20.4021 -20.4020 -20.4020
   -20.3936 -20.3936 -20.3926 -20.3926 -20.3914 -20.3914 -20.3909 -20.3909
   -20.3887 -20.3887 -20.3883 -20.3883 -20.3874 -20.3874 -20.3872 -20.3872
   -20.3862 -20.3862 -20.3862 -20.3862 -20.3841 -20.3841 -20.3840 -20.3840
   -20.3813 -20.3813 -20.3813 -20.3813 -20.3809 -20.3809 -20.3809 -20.3809
   -20.3719 -20.3719 -20.3719 -20.3719 -20.3716 -20.3716 -20.3716 -20.3716
    -9.8706  -9.8706  -9.4368  -9.4368  -9.4310  -9.4310  -8.9709  -8.9709
    -8.6912  -8.6912  -8.6224  -8.6224  -8.6056  -8.6056  -8.5812  -8.5812
    -7.9570  -7.9569  -7.8871  -7.8871  -7.8172  -7.8172  -7.7810  -7.7810
     1.1393   1.1393   1.2586   1.2586   1.2593   1.2593   1.3400   1.3400
     2.3443   2.3443   2.7494   2.7494   2.8089   2.8089   2.9829   2.9829
     3.0392   3.0393   3.1449   3.1449   3.3862   3.3862   3.7897   3.7897
     3.8088   3.8088   4.1280   4.1280   4.6047   4.6047   5.0033   5.0033
     5.0734   5.0735   5.1973   5.1973   5.2303   5.2303   5.6702   5.6702
     5.7643   5.7643   5.8979   5.8979   5.9719   5.9720   6.0135   6.0135
     6.1264   6.1265   6.2439   6.2439   6.2612   6.2612   6.4577   6.4577
     6.6390   6.6390   6.7108   6.7108   7.0075   7.0075   7.5697   7.5697
     7.5979   7.5979   7.6533   7.6533   7.6763   7.6763   8.0759   8.0759
     9.7355   9.7355  11.0918  11.0918  11.1085  11.1085  11.5118  11.5118
    11.5452  11.5452  12.5733  12.5733  12.7899  12.7899  12.9893  12.9893
    13.0090  13.0090  13.0776  13.0776  13.1268  13.1268  13.3667  13.3667
    14.5619  14.5619  15.1819  15.1819  15.2367  15.2367  15.4910  15.4910
    16.1430  16.1430  17.4294  17.4294  17.6427

          k = 0.0000 0.1635 0.0000 ( 63006 PWs)   bands (ev):

   -66.2566 -66.2561 -66.2560 -66.2560 -66.2555 -66.2555 -66.2554 -66.2549
   -30.6379 -30.6337 -30.6236 -30.6214 -30.6184 -30.6170 -30.6118 -30.6048
   -30.6010 -30.5988 -30.5938 -30.5862 -30.5634 -30.5613 -30.5491 -30.5420
   -30.5367 -30.5348 -30.5312 -30.5214 -30.5159 -30.5151 -30.5099 -30.5068
   -20.4149 -20.4148 -20.4147 -20.4146 -20.4142 -20.4141 -20.4141 -20.4140
   -20.4026 -20.4025 -20.4024 -20.4024 -20.4022 -20.4021 -20.4021 -20.4020
   -20.3936 -20.3933 -20.3928 -20.3925 -20.3911 -20.3909 -20.3908 -20.3903
   -20.3891 -20.3885 -20.3883 -20.3883 -20.3874 -20.3873 -20.3872 -20.3871
   -20.3866 -20.3866 -20.3859 -20.3858 -20.3849 -20.3847 -20.3840 -20.3839
   -20.3839 -20.3837 -20.3835 -20.3834 -20.3792 -20.3788 -20.3786 -20.3782
   -20.3724 -20.3723 -20.3721 -20.3721 -20.3714 -20.3714 -20.3712 -20.3711
   -10.0736  -9.7260  -9.6880  -9.6846  -9.3681  -9.3454  -9.2280  -9.0580
    -9.0311  -8.9219  -8.9183  -8.9154  -8.0623  -7.9760  -7.9497  -7.9303
    -7.9164  -7.8960  -7.8794  -7.8656  -7.8630  -7.8609  -7.8588  -7.8152
     1.0945   1.0960   1.1842   1.1933   1.2363   1.2677   1.2816   1.4019
     1.4952   1.5359   1.5691   1.6755   2.3987   2.4037   2.4531   2.4604
     2.4998   2.5374   3.7860   3.8647   3.8869   3.9799   4.4984   4.5231
     4.5414   4.5436   4.5796   4.7333   4.7933   4.7995   4.9478   5.1458
     5.2163   5.4686   5.5064   5.5182   5.5390   5.5468   5.5537   5.5690
     5.7577   5.8580   5.8632   5.8967   5.9294   5.9300   6.0538   6.0686
     6.0848   6.2448   6.2753   6.3643   6.4394   6.5609   6.6013   6.6252
     6.6838   6.7098   6.8504   6.8823   6.9623   6.9780   6.9826   7.0067
     7.0094   7.0138   8.0063   8.0394   8.1426   8.1706   8.2273   8.2430
     9.2041   9.2231   9.8077   9.9012   9.9246  10.0306  12.2263  12.2811
    12.3921  12.3975  12.4765  12.5046  12.6118  12.6144  12.7291  12.9074
    13.1147  13.1636  13.3192  13.4623  13.7444  13.8415  13.8732  13.9597
    14.0916  14.2387  14.3207  14.5425  14.6417  14.8124  15.2572  15.3724
    16.0289  16.0433  17.0031  17.0894  17.1687

          k = 0.0000 0.1635 0.1669 ( 62995 PWs)   bands (ev):

   -66.2566 -66.2561 -66.2560 -66.2559 -66.2555 -66.2554 -66.2554 -66.2549
   -30.6377 -30.6340 -30.6231 -30.6212 -30.6187 -30.6174 -30.6096 -30.6000
   -30.5992 -30.5960 -30.5891 -30.5824 -30.5630 -30.5617 -30.5506 -30.5414
   -30.5380 -30.5344 -30.5342 -30.5210 -30.5210 -30.5189 -30.5143 -30.5094
   -20.4148 -20.4148 -20.4147 -20.4146 -20.4143 -20.4142 -20.4142 -20.4140
   -20.4026 -20.4025 -20.4024 -20.4024 -20.4022 -20.4021 -20.4021 -20.4020
   -20.3936 -20.3934 -20.3928 -20.3925 -20.3911 -20.3909 -20.3907 -20.3903
   -20.3890 -20.3885 -20.3884 -20.3883 -20.3874 -20.3873 -20.3872 -20.3871
   -20.3865 -20.3865 -20.3860 -20.3859 -20.3848 -20.3847 -20.3840 -20.3839
   -20.3836 -20.3833 -20.3832 -20.3830 -20.3795 -20.3791 -20.3789 -20.3786
   -20.3723 -20.3723 -20.3720 -20.3720 -20.3715 -20.3715 -20.3712 -20.3712
   -10.0322  -9.7002  -9.6759  -9.6292  -9.3549  -9.2851  -9.2385  -9.0247
    -8.9967  -8.9207  -8.9043  -8.8942  -8.0939  -8.0235  -8.0182  -7.9765
    -7.9762  -7.9477  -7.9072  -7.9039  -7.8933  -7.8696  -7.8688  -7.8610
     1.1777   1.1929   1.2331   1.2661   1.3648   1.3772   1.4395   1.5104
     1.5624   1.5631   1.5902   1.7414   2.4038   2.4570   2.4865   2.5409
     2.5785   2.6164   3.7843   3.8515   3.9050   3.9565   4.2406   4.2898
     4.4696   4.5265   4.5319   4.5945   4.6056   4.7411   4.9623   5.1088
     5.1866   5.2871   5.3795   5.4247   5.4388   5.4973   5.5016   5.5473
     5.6557   5.8248   5.8310   5.8938   5.8984   5.9906   6.0166   6.0477
     6.1511   6.4078   6.4135   6.4318   6.4574   6.5625   6.5938   6.6847
     6.6978   6.7693   6.8035   6.8323   6.8497   6.8803   6.8871   6.8932
     6.9214   6.9679   8.0102   8.0337   8.0931   8.1187   8.1580   8.1772
     9.5345   9.5508   9.9140  10.0257  10.0864  10.1803  12.2974  12.3543
    12.3651  12.3986  12.4144  12.4336  12.5306  12.5553  12.7692  12.9077
    12.9086  12.9460  13.3641  13.4626  13.6714  13.7222  13.7381  13.8052
    14.3325  14.4927  14.5100  14.6134  14.6642  14.9126  15.3522  15.6748
    15.9952  16.2093  16.7841  17.0890  17.1427

          k = 0.0000 0.1635 0.3338 ( 62982 PWs)   bands (ev):

   -66.2565 -66.2561 -66.2560 -66.2558 -66.2556 -66.2555 -66.2553 -66.2550
   -30.6370 -30.6348 -30.6220 -30.6205 -30.6196 -30.6182 -30.6057 -30.6005
   -30.5870 -30.5829 -30.5760 -30.5706 -30.5633 -30.5618 -30.5564 -30.5445
   -30.5439 -30.5394 -30.5346 -30.5330 -30.5278 -30.5239 -30.5198 -30.5143
   -20.4147 -20.4146 -20.4146 -20.4145 -20.4144 -20.4143 -20.4143 -20.4142
   -20.4026 -20.4025 -20.4024 -20.4024 -20.4022 -20.4021 -20.4021 -20.4020
   -20.3936 -20.3934 -20.3927 -20.3926 -20.3911 -20.3910 -20.3907 -20.3904
   -20.3889 -20.3885 -20.3884 -20.3883 -20.3873 -20.3873 -20.3872 -20.3871
   -20.3864 -20.3864 -20.3861 -20.3860 -20.3846 -20.3845 -20.3842 -20.3841
   -20.3826 -20.3825 -20.3823 -20.3822 -20.3803 -20.3801 -20.3798 -20.3795
   -20.3722 -20.3721 -20.3718 -20.3718 -20.3717 -20.3716 -20.3714 -20.3714
    -9.9314  -9.7441  -9.5595  -9.4909  -9.3864  -9.2752  -9.0495  -8.9618
    -8.9268  -8.8731  -8.8241  -8.7923  -8.3314  -8.2962  -8.2932  -8.2591
    -7.9996  -7.9836  -7.9067  -7.9012  -7.8978  -7.8827  -7.8777  -7.8704
     1.2107   1.2268   1.2458   1.2626   1.4555   1.4752   1.5443   1.5582
     2.0957   2.1279   2.1969   2.2411   2.4112   2.4594   2.7114   2.7696
     2.7894   2.8490   3.6286   3.6297   3.7747   3.8207   3.8923   3.9462
     3.9839   4.0682   4.4727   4.5109   4.6365   4.6466   4.7905   4.9020
     4.9125   4.9388   4.9983   5.0350   5.3394   5.3446   5.3620   5.5892
     5.7180   5.7426   5.8575   5.8645   5.8804   5.9081   5.9404   6.0356
     6.2733   6.3078   6.3450   6.4116   6.4357   6.5346   6.5506   6.5891
     6.6203   6.6287   6.8103   6.8568   6.8891   6.8988   7.0964   7.1292
     7.1836   7.2253   7.9302   7.9438   7.9523   7.9525   8.0180   8.0397
     9.9330   9.9959  10.2719  10.2862  10.7583  10.8141  11.8494  11.8668
    12.3214  12.3670  12.4125  12.4265  12.5315  12.5776  12.6993  12.7045
    12.8190  12.9174  13.3534  13.3636  13.4031  13.4145  13.4213  13.4578
    14.5588  14.6116  14.8963  15.1253  15.1538  15.2902  15.3325  15.8781
    16.2161  16.6927  16.7136  17.0186  17.3462

          k = 0.0000 0.1635-0.5007 ( 62950 PWs)   bands (ev):

   -66.2563 -66.2563 -66.2558 -66.2558 -66.2557 -66.2557 -66.2552 -66.2552
   -30.6359 -30.6359 -30.6208 -30.6208 -30.6194 -30.6194 -30.6027 -30.6027
   -30.5709 -30.5709 -30.5672 -30.5672 -30.5584 -30.5584 -30.5574 -30.5574
   -30.5528 -30.5528 -30.5354 -30.5354 -30.5303 -30.5303 -30.5177 -30.5177
   -20.4146 -20.4146 -20.4145 -20.4145 -20.4144 -20.4144 -20.4143 -20.4143
   -20.4025 -20.4025 -20.4024 -20.4024 -20.4022 -20.4022 -20.4021 -20.4021
   -20.3935 -20.3935 -20.3927 -20.3927 -20.3911 -20.3911 -20.3906 -20.3906
   -20.3887 -20.3887 -20.3884 -20.3884 -20.3873 -20.3873 -20.3872 -20.3872
   -20.3863 -20.3863 -20.3862 -20.3862 -20.3844 -20.3844 -20.3843 -20.3843
   -20.3814 -20.3814 -20.3813 -20.3813 -20.3810 -20.3810 -20.3809 -20.3809
   -20.3719 -20.3719 -20.3719 -20.3719 -20.3716 -20.3716 -20.3716 -20.3716
    -9.8231  -9.8231  -9.4512  -9.4512  -9.3553  -9.3553  -8.9375  -8.9375
    -8.7032  -8.7032  -8.6272  -8.6272  -8.5990  -8.5990  -8.5725  -8.5725
    -7.9952  -7.9952  -7.8992  -7.8992  -7.8897  -7.8897  -7.8812  -7.8812
     1.2198   1.2198   1.2575   1.2575   1.4716   1.4716   1.5529   1.5529
     2.4163   2.4163   2.7789   2.7789   2.8435   2.8435   2.9720   2.9720
     3.0310   3.0310   3.1617   3.1618   3.3720   3.3720   3.8203   3.8203
     3.8591   3.8592   3.9396   3.9396   4.5041   4.5041   4.8346   4.8346
     4.8849   4.8849   5.1424   5.1424   5.1481   5.1481   5.4671   5.4671
     5.6878   5.6878   5.8379   5.8379   5.9100   5.9100   5.9859   5.9859
     6.1848   6.1848   6.3728   6.3728   6.4521   6.4521   6.5527   6.5527
     6.5820   6.5820   6.7948   6.7948   6.8884   6.8884   7.5838   7.5838
     7.5915   7.5915   7.6294   7.6295   7.6466   7.6466   8.0255   8.0255
     9.9699   9.9699  11.0923  11.0923  11.1093  11.1093  11.5731  11.5731
    11.6073  11.6073  12.4060  12.4060  12.8106  12.8106  12.9115  12.9115
    12.9752  12.9752  12.9899  12.9899  13.0614  13.0614  13.4397  13.4397
    14.5982  14.5982  15.1576  15.1576  15.6060  15.6060  15.6578  15.6578
    16.2462  16.2462  17.2105  17.2105  17.6632

          k = 0.0000 0.3270 0.0000 ( 63016 PWs)   bands (ev):

   -66.2565 -66.2562 -66.2559 -66.2559 -66.2556 -66.2556 -66.2553 -66.2550
   -30.6326 -30.6282 -30.6251 -30.6202 -30.6105 -30.6089 -30.6050 -30.6043
   -30.6008 -30.5929 -30.5901 -30.5808 -30.5726 -30.5717 -30.5603 -30.5541
   -30.5359 -30.5332 -30.5328 -30.5261 -30.5163 -30.5161 -30.5100 -30.5085
   -20.4149 -20.4148 -20.4147 -20.4146 -20.4142 -20.4141 -20.4141 -20.4140
   -20.4025 -20.4024 -20.4024 -20.4023 -20.4023 -20.4022 -20.4021 -20.4021
   -20.3934 -20.3931 -20.3930 -20.3926 -20.3902 -20.3902 -20.3899 -20.3894
   -20.3892 -20.3887 -20.3885 -20.3884 -20.3871 -20.3870 -20.3868 -20.3868
   -20.3866 -20.3866 -20.3860 -20.3859 -20.3852 -20.3852 -20.3849 -20.3849
   -20.3841 -20.3841 -20.3838 -20.3838 -20.3791 -20.3789 -20.3785 -20.3783
   -20.3724 -20.3724 -20.3721 -20.3721 -20.3714 -20.3714 -20.3712 -20.3711
    -9.9737  -9.7759  -9.5778  -9.5696  -9.4026  -9.3829  -9.0526  -9.0369
    -8.9933  -8.7924  -8.7900  -8.7723  -8.3012  -8.2294  -8.2199  -8.1854
    -7.9382  -7.9326  -7.8948  -7.8858  -7.8823  -7.8722  -7.8536  -7.8361
     1.0942   1.0951   1.1939   1.1941   1.2580   1.2660   1.3758   1.3988
     2.0975   2.2035   2.2504   2.3459   2.4468   2.4910   2.6437   2.6699
     2.6982   2.7462   3.3837   3.4069   3.4782   3.5038   3.9885   4.2998
     4.3457   4.5046   4.5321   4.5481   4.5787   4.6195   4.9678   4.9819
     4.9839   5.0066   5.3478   5.3698   5.5187   5.5190   5.5599   5.5815
     5.8099   5.8234   5.8569   5.8688   5.9068   5.9320   5.9718   5.9901
     6.1142   6.1782   6.2079   6.4196   6.4907   6.5165   6.6798   6.7629
     6.7630   6.8561   6.9583   6.9589   6.9814   7.0015   7.0104   7.0162
     7.0165   7.0503   7.8112   7.8347   7.8788   7.9102   8.2303   8.2393
     9.2151   9.2283  10.3740  10.4586  10.5092  10.5937  11.7566  11.8076
    11.9190  11.9347  12.4809  12.4934  12.6107  12.6142  12.8427  13.0201
    13.1610  13.2699  13.3069  13.4190  13.6594  13.7229  13.8167  13.8488
    14.2975  14.3027  14.5380  14.6623  14.8608  15.1718  15.2786  15.4928
    15.5118  16.9199  17.0332  17.6221  17.7185

          k = 0.0000 0.3270 0.1669 ( 63022 PWs)   bands (ev):

   -66.2565 -66.2562 -66.2559 -66.2558 -66.2556 -66.2555 -66.2553 -66.2550
   -30.6323 -30.6285 -30.6247 -30.6205 -30.6101 -30.6059 -30.6042 -30.6004
   -30.5961 -30.5908 -30.5884 -30.5781 -30.5721 -30.5719 -30.5613 -30.5533
   -30.5373 -30.5352 -30.5328 -30.5257 -30.5212 -30.5206 -30.5141 -30.5118
   -20.4148 -20.4148 -20.4147 -20.4146 -20.4143 -20.4142 -20.4141 -20.4141
   -20.4025 -20.4024 -20.4024 -20.4023 -20.4023 -20.4022 -20.4021 -20.4021
   -20.3934 -20.3931 -20.3930 -20.3927 -20.3903 -20.3902 -20.3899 -20.3895
   -20.3891 -20.3887 -20.3885 -20.3884 -20.3871 -20.3870 -20.3869 -20.3868
   -20.3866 -20.3865 -20.3860 -20.3859 -20.3853 -20.3852 -20.3850 -20.3849
   -20.3837 -20.3837 -20.3834 -20.3834 -20.3794 -20.3792 -20.3789 -20.3786
   -20.3723 -20.3723 -20.3720 -20.3720 -20.3715 -20.3715 -20.3712 -20.3712
    -9.9290  -9.7264  -9.5843  -9.5086  -9.3936  -9.3204  -9.0186  -9.0040
    -9.0024  -8.7947  -8.7742  -8.7653  -8.3136  -8.2407  -8.2194  -8.1896
    -8.0174  -7.9900  -7.9711  -7.9476  -7.9269  -7.9137  -7.8886  -7.8754
     1.1861   1.1909   1.2560   1.2642   1.4325   1.4397   1.5305   1.5602
     2.1033   2.1977   2.2472   2.3430   2.5255   2.5592   2.6510   2.6737
     2.7848   2.8261   3.4076   3.4534   3.4735   3.4997   3.9773   4.2417
     4.2580   4.3195   4.3489   4.5433   4.5854   4.6424   4.7023   4.7242
     4.9760   5.0316   5.1938   5.3022   5.3110   5.3297   5.5193   5.5229
     5.5717   5.6741   5.7369   5.8121   5.8535   5.8746   5.9547   6.0273
     6.2485   6.3645   6.4407   6.4429   6.5605   6.6840   6.7227   6.7596
     6.7911   6.8073   6.8254   6.8683   6.8973   6.9157   6.9713   7.0099
     7.0598   7.0782   7.8159   7.8279   7.8517   7.8767   8.1633   8.1741
     9.5428   9.5533  10.5173  10.5624  10.5890  10.6389  11.8443  11.8955
    11.9200  11.9353  12.4084  12.4126  12.5349  12.5458  12.8852  13.0113
    13.0184  13.0572  13.3122  13.4177  13.4987  13.5507  13.7003  13.7229
    14.4992  14.5389  14.6532  14.8158  15.0461  15.2531  15.5862  15.5886
    15.6725  16.9939  17.0128  17.2059  17.3050

          k = 0.0000 0.3270 0.3338 ( 63004 PWs)   bands (ev):

   -66.2564 -66.2561 -66.2560 -66.2558 -66.2557 -66.2554 -66.2554 -66.2551
   -30.6315 -30.6293 -30.6237 -30.6213 -30.6086 -30.6058 -30.5993 -30.5922
   -30.5885 -30.5844 -30.5760 -30.5734 -30.5692 -30.5685 -30.5647 -30.5505
   -30.5442 -30.5439 -30.5346 -30.5318 -30.5315 -30.5244 -30.5230 -30.5179
   -20.4147 -20.4147 -20.4146 -20.4145 -20.4144 -20.4143 -20.4143 -20.4142
   -20.4025 -20.4024 -20.4024 -20.4023 -20.4023 -20.4022 -20.4021 -20.4021
   -20.3934 -20.3932 -20.3929 -20.3927 -20.3903 -20.3902 -20.3899 -20.3896
   -20.3890 -20.3887 -20.3886 -20.3885 -20.3871 -20.3870 -20.3869 -20.3869
   -20.3865 -20.3864 -20.3862 -20.3860 -20.3853 -20.3853 -20.3851 -20.3850
   -20.3827 -20.3827 -20.3824 -20.3823 -20.3803 -20.3801 -20.3798 -20.3796
   -20.3722 -20.3721 -20.3719 -20.3718 -20.3717 -20.3716 -20.3714 -20.3714
    -9.8208  -9.6271  -9.6097  -9.4280  -9.3344  -9.0884  -9.0460  -8.9192
    -8.8808  -8.8051  -8.7290  -8.7086  -8.4290  -8.3550  -8.2834  -8.2484
    -8.2212  -8.2010  -8.1584  -8.1267  -7.9226  -7.9083  -7.8979  -7.8844
     1.2342   1.2432   1.2514   1.2604   1.9821   2.0464   2.0939   2.1231
     2.1907   2.2408   2.2794   2.4171   2.6194   2.6617   2.7585   2.8376
     2.9892   3.0070   3.4030   3.4477   3.4973   3.5045   3.7389   3.7512
     3.9635   4.1666   4.2250   4.2555   4.3020   4.4677   4.5253   4.6778
     4.7646   4.7918   4.8974   4.9191   4.9999   5.0623   5.2079   5.2470
     5.2583   5.4167   5.6219   5.7732   5.8943   5.9124   6.0131   6.0519
     6.3657   6.3809   6.4012   6.4735   6.4959   6.5956   6.6508   6.6809
     6.7788   6.9324   6.9455   6.9927   7.0130   7.0703   7.1018   7.1726
     7.2200   7.2296   7.7507   7.7636   7.8014   7.8260   7.9561   7.9814
    10.2538  10.2723  10.5441  10.5799  11.0731  11.1321  11.8325  11.8607
    11.9272  11.9622  12.1264  12.1635  12.4921  12.5210  12.7018  12.7038
    12.9288  13.0122  13.0757  13.1366  13.3150  13.3914  13.4007  13.4419
    14.6709  14.8042  14.8582  15.1967  15.3670  15.8139  15.9269  16.1854
    16.5822  16.6010  16.8623  17.3275  17.3865

          k = 0.0000 0.3270-0.5007 ( 62992 PWs)   bands (ev):

   -66.2562 -66.2562 -66.2559 -66.2559 -66.2556 -66.2556 -66.2553 -66.2553
   -30.6304 -30.6304 -30.6225 -30.6225 -30.6071 -30.6071 -30.5949 -30.5949
   -30.5770 -30.5770 -30.5729 -30.5729 -30.5590 -30.5590 -30.5588 -30.5588
   -30.5522 -30.5522 -30.5436 -30.5436 -30.5288 -30.5288 -30.5221 -30.5221
   -20.4146 -20.4146 -20.4145 -20.4145 -20.4144 -20.4144 -20.4143 -20.4143
   -20.4025 -20.4025 -20.4023 -20.4023 -20.4022 -20.4022 -20.4021 -20.4021
   -20.3933 -20.3933 -20.3928 -20.3928 -20.3902 -20.3902 -20.3898 -20.3898
   -20.3888 -20.3888 -20.3886 -20.3886 -20.3871 -20.3871 -20.3869 -20.3869
   -20.3863 -20.3863 -20.3862 -20.3862 -20.3853 -20.3853 -20.3851 -20.3851
   -20.3815 -20.3815 -20.3814 -20.3814 -20.3810 -20.3810 -20.3810 -20.3810
   -20.3719 -20.3719 -20.3719 -20.3719 -20.3716 -20.3716 -20.3716 -20.3716
    -9.7070  -9.7070  -9.4975  -9.4975  -9.1498  -9.1497  -8.8327  -8.8327
    -8.7531  -8.7531  -8.6449  -8.6449  -8.5713  -8.5713  -8.5383  -8.5383
    -8.2184  -8.2184  -8.1736  -8.1736  -7.9104  -7.9104  -7.8966  -7.8966
     1.2456   1.2456   1.2551   1.2551   2.1048   2.1048   2.2311   2.2311
     2.6154   2.6154   2.8641   2.8641   2.9332   2.9332   2.9367   2.9367
     3.0078   3.0078   3.2085   3.2085   3.3248   3.3248   3.5140   3.5140
     3.9752   3.9752   3.9848   3.9848   4.0267   4.0267   4.2350   4.2350
     4.8129   4.8129   4.9279   4.9279   4.9896   4.9896   5.0794   5.0794
     5.2079   5.2079   5.6957   5.6957   5.9592   5.9592   5.9880   5.9880
     6.3304   6.3304   6.4012   6.4012   6.4465   6.4465   6.6669   6.6669
     6.9068   6.9068   6.9891   6.9891   7.0667   7.0667   7.5350   7.5351
     7.5449   7.5449   7.5597   7.5597   7.6105   7.6105   7.8459   7.8459
    10.5426  10.5426  11.0909  11.0910  11.1148  11.1148  11.7629  11.7629
    11.8016  11.8016  11.9712  11.9712  12.5525  12.5525  12.6011  12.6011
    12.9259  12.9259  12.9890  12.9890  13.0821  13.0821  13.4036  13.4036
    14.7551  14.7551  15.0803  15.0803  16.0228  16.0228  16.5066  16.5066
    16.6615  16.6615  16.8000  16.8000  17.7198

          k = 0.0000-0.4905 0.0000 ( 63074 PWs)   bands (ev):

   -66.2564 -66.2564 -66.2557 -66.2557 -66.2557 -66.2557 -66.2551 -66.2551
   -30.6279 -30.6279 -30.6233 -30.6233 -30.6062 -30.6062 -30.6021 -30.6021
   -30.5875 -30.5875 -30.5856 -30.5856 -30.5759 -30.5759 -30.5692 -30.5692
   -30.5346 -30.5345 -30.5304 -30.5304 -30.5165 -30.5165 -30.5096 -30.5096
   -20.4148 -20.4148 -20.4147 -20.4147 -20.4142 -20.4142 -20.4141 -20.4140
   -20.4024 -20.4024 -20.4023 -20.4023 -20.4022 -20.4022 -20.4022 -20.4022
   -20.3932 -20.3932 -20.3929 -20.3929 -20.3895 -20.3895 -20.3893 -20.3893
   -20.3890 -20.3890 -20.3886 -20.3886 -20.3867 -20.3867 -20.3863 -20.3863
   -20.3863 -20.3863 -20.3862 -20.3862 -20.3860 -20.3860 -20.3857 -20.3857
   -20.3842 -20.3842 -20.3839 -20.3839 -20.3790 -20.3790 -20.3784 -20.3784
   -20.3724 -20.3724 -20.3721 -20.3721 -20.3714 -20.3714 -20.3712 -20.3712
    -9.8619  -9.8619  -9.4708  -9.4708  -9.4562  -9.4562  -9.0447  -9.0447
    -8.6540  -8.6540  -8.5484  -8.5484  -8.5429  -8.5429  -8.5201  -8.5201
    -7.9373  -7.9373  -7.8902  -7.8902  -7.8806  -7.8806  -7.8459  -7.8459
     1.0944   1.0944   1.1949   1.1949   1.2634   1.2634   1.3927   1.3927
     2.4668   2.4668   2.8388   2.8388   2.9116   2.9116   2.9353   2.9353
     2.9951   2.9951   3.1466   3.1466   3.3573   3.3573   3.3660   3.3660
     3.5233   3.5233   4.5208   4.5208   4.5504   4.5504   5.1599   5.1599
     5.2174   5.2174   5.2486   5.2486   5.2715   5.2715   5.6384   5.6385
     5.6898   5.6898   5.8525   5.8525   5.8997   5.8997   5.9716   5.9716
     6.1920   6.1920   6.2350   6.2350   6.5221   6.5221   6.6094   6.6094
     6.8375   6.8375   6.9716   6.9716   7.0038   7.0038   7.4529   7.4529
     7.4553   7.4553   7.4728   7.4728   7.5000   7.5000   8.2347   8.2347
     9.2245   9.2245  11.0838  11.0838  11.1247  11.1247  11.2434  11.2434
    11.3106  11.3106  12.4868  12.4868  12.6126  12.6126  13.0233  13.0233
    13.2136  13.2136  13.4280  13.4280  13.4661  13.4661  13.8399  13.8399
    14.3059  14.3059  14.9569  14.9569  14.9885  14.9885  15.1099  15.1099
    16.3123  16.3123  17.5793  17.5793  17.8329

          k = 0.0000-0.4905 0.1669 ( 62990 PWs)   bands (ev):

   -66.2563 -66.2563 -66.2558 -66.2558 -66.2557 -66.2557 -66.2552 -66.2552
   -30.6276 -30.6276 -30.6236 -30.6236 -30.6023 -30.6023 -30.5987 -30.5987
   -30.5878 -30.5878 -30.5836 -30.5836 -30.5765 -30.5765 -30.5677 -30.5677
   -30.5364 -30.5364 -30.5300 -30.5300 -30.5213 -30.5213 -30.5134 -30.5134
   -20.4148 -20.4148 -20.4146 -20.4146 -20.4142 -20.4142 -20.4141 -20.4141
   -20.4024 -20.4024 -20.4023 -20.4023 -20.4022 -20.4022 -20.4022 -20.4022
   -20.3932 -20.3932 -20.3929 -20.3929 -20.3895 -20.3895 -20.3893 -20.3893
   -20.3890 -20.3890 -20.3887 -20.3887 -20.3866 -20.3866 -20.3864 -20.3864
   -20.3863 -20.3863 -20.3863 -20.3863 -20.3861 -20.3861 -20.3858 -20.3858
   -20.3838 -20.3838 -20.3835 -20.3835 -20.3793 -20.3793 -20.3788 -20.3787
   -20.3723 -20.3723 -20.3720 -20.3720 -20.3715 -20.3715 -20.3712 -20.3712
    -9.8141  -9.8141  -9.4689  -9.4689  -9.3922  -9.3922  -9.0102  -9.0102
    -8.6654  -8.6654  -8.5542  -8.5542  -8.5365  -8.5364  -8.5180  -8.5180
    -8.0076  -8.0076  -7.9625  -7.9625  -7.9217  -7.9217  -7.8838  -7.8838
     1.1886   1.1886   1.2615   1.2615   1.4387   1.4387   1.5534   1.5534
     2.5477   2.5477   2.8481   2.8482   2.9039   2.9039   2.9460   2.9460
     3.0525   3.0525   3.1343   3.1343   3.3564   3.3564   3.4036   3.4036
     3.5445   3.5445   4.2610   4.2610   4.5708   4.5708   4.9582   4.9582
     5.0207   5.0207   5.1749   5.1749   5.2873   5.2873   5.4133   5.4133
     5.5699   5.5699   5.6190   5.6190   5.8747   5.8747   6.0052   6.0052
     6.3471   6.3471   6.4259   6.4259   6.5299   6.5299   6.7821   6.7821
     6.8113   6.8113   6.8359   6.8359   6.9497   6.9497   7.4408   7.4408
     7.4665   7.4665   7.4693   7.4693   7.4920   7.4920   8.1690   8.1690
     9.5501   9.5501  11.1847  11.1847  11.2216  11.2216  11.2596  11.2596
    11.3425  11.3425  12.4106  12.4106  12.5403  12.5403  13.0581  13.0581
    13.2093  13.2093  13.2447  13.2447  13.2861  13.2861  13.7153  13.7153
    14.5042  14.5042  15.0754  15.0754  15.1223  15.1223  15.3992  15.3992
    16.4090  16.4090  17.5296  17.5297  17.6165

          k = 0.0000-0.4905 0.3338 ( 62998 PWs)   bands (ev):

   -66.2562 -66.2562 -66.2559 -66.2559 -66.2556 -66.2556 -66.2553 -66.2553
   -30.6268 -30.6267 -30.6245 -30.6244 -30.5946 -30.5946 -30.5914 -30.5914
   -30.5887 -30.5887 -30.5789 -30.5789 -30.5748 -30.5747 -30.5621 -30.5621
   -30.5440 -30.5440 -30.5340 -30.5340 -30.5286 -30.5286 -30.5211 -30.5211
   -20.4147 -20.4147 -20.4145 -20.4145 -20.4144 -20.4143 -20.4142 -20.4142
   -20.4024 -20.4024 -20.4023 -20.4023 -20.4022 -20.4022 -20.4022 -20.4022
   -20.3931 -20.3931 -20.3930 -20.3930 -20.3894 -20.3894 -20.3893 -20.3893
   -20.3891 -20.3891 -20.3888 -20.3888 -20.3865 -20.3865 -20.3864 -20.3864
   -20.3863 -20.3863 -20.3863 -20.3863 -20.3861 -20.3861 -20.3859 -20.3859
   -20.3828 -20.3828 -20.3824 -20.3824 -20.3802 -20.3802 -20.3797 -20.3797
   -20.3721 -20.3721 -20.3719 -20.3719 -20.3717 -20.3716 -20.3714 -20.3714
    -9.6995  -9.6995  -9.5078  -9.5078  -9.1775  -9.1775  -8.8944  -8.8944
    -8.7206  -8.7206  -8.5810  -8.5810  -8.5124  -8.5124  -8.5067  -8.5067
    -8.2607  -8.2607  -8.2231  -8.2231  -7.9171  -7.9171  -7.8929  -7.8929
     1.2398   1.2398   1.2573   1.2573   2.0820   2.0820   2.1715   2.1715
     2.7639   2.7639   2.8543   2.8543   2.9233   2.9233   2.9722   2.9722
     3.1139   3.1139   3.1569   3.1569   3.3308   3.3309   3.4885   3.4885
     3.5849   3.5849   3.7454   3.7454   4.4297   4.4297   4.5367   4.5367
     4.7107   4.7107   4.8211   4.8212   4.9251   4.9251   5.1442   5.1442
     5.3237   5.3237   5.5270   5.5270   5.9117   5.9117   6.0498   6.0498
     6.4050   6.4050   6.4519   6.4519   6.5298   6.5298   6.5803   6.5803
     7.0094   7.0094   7.1152   7.1153   7.1676   7.1676   7.4143   7.4143
     7.4339   7.4339   7.4620   7.4620   7.4997   7.4997   7.9672   7.9672
    10.2692  10.2692  11.2460  11.2460  11.2613  11.2613  11.5807  11.5807
    11.6373  11.6373  11.8759  11.8759  12.7034  12.7034  12.7444  12.7444
    12.7748  12.7748  13.1461  13.1461  13.2036  13.2036  13.4049  13.4049
    14.7857  14.7857  15.0326  15.0326  15.7100  15.7100  16.3312  16.3312
    16.7398  16.7398  17.0114  17.0114  17.6840

          k = 0.0000-0.4905-0.5007 ( 62968 PWs)   bands (ev):

   -66.2561 -66.2561 -66.2560 -66.2560 -66.2554 -66.2554 -66.2554 -66.2554
   -30.6256 -30.6256 -30.6256 -30.6256 -30.5910 -30.5910 -30.5909 -30.5909
   -30.5831 -30.5831 -30.5831 -30.5831 -30.5592 -30.5592 -30.5592 -30.5592
   -30.5499 -30.5499 -30.5499 -30.5498 -30.5261 -30.5261 -30.5261 -30.5261
   -20.4145 -20.4145 -20.4145 -20.4145 -20.4144 -20.4144 -20.4144 -20.4144
   -20.4023 -20.4023 -20.4023 -20.4023 -20.4022 -20.4022 -20.4022 -20.4022
   -20.3930 -20.3930 -20.3930 -20.3930 -20.3893 -20.3893 -20.3893 -20.3893
   -20.3890 -20.3890 -20.3890 -20.3890 -20.3865 -20.3864 -20.3864 -20.3864
   -20.3864 -20.3863 -20.3863 -20.3863 -20.3860 -20.3860 -20.3860 -20.3860
   -20.3815 -20.3815 -20.3815 -20.3815 -20.3810 -20.3810 -20.3810 -20.3810
   -20.3719 -20.3719 -20.3719 -20.3719 -20.3716 -20.3716 -20.3716 -20.3716
    -9.5839  -9.5839  -9.5839  -9.5839  -8.9005  -8.9005  -8.9005  -8.9005
    -8.7002  -8.7002  -8.7002  -8.7002  -8.4630  -8.4630  -8.4630  -8.4630
    -8.4325  -8.4325  -8.4325  -8.4325  -7.9053  -7.9053  -7.9053  -7.9053
     1.2517   1.2517   1.2517   1.2517   2.7359   2.7359   2.7359   2.7359
     2.8425   2.8425   2.8425   2.8425   3.0494   3.0494   3.0494   3.0494
     3.1269   3.1269   3.1269   3.1269   3.3124   3.3124   3.3124   3.3124
     3.4436   3.4436   3.4436   3.4436   4.2935   4.2935   4.2936   4.2936
     4.3550   4.3550   4.3550   4.3550   5.0439   5.0439   5.0439   5.0439
     5.3956   5.3956   5.3956   5.3956   5.9873   5.9873   5.9873   5.9873
     6.3873   6.3873   6.3873   6.3873   6.5104   6.5104   6.5104   6.5104
     7.3184   7.3184   7.3184   7.3184   7.3421   7.3421   7.3421   7.3421
     7.3780   7.3780   7.3780   7.3781   7.6590   7.6590   7.6590   7.6590
    11.0650  11.0650  11.0650  11.0650  11.2954  11.2954  11.2954  11.2954
    12.1280  12.1280  12.1280  12.1280  12.1845  12.1846  12.1846  12.1846
    12.9773  12.9773  12.9773  12.9773  13.2173  13.2173  13.2173  13.2173
    14.9426  14.9426  14.9427  14.9427  16.3984  16.3984  16.3984  16.3984
    17.3496  17.3496  17.3496  17.3496  17.4239

          k = 0.1667 0.0000 0.0000 ( 62929 PWs)   bands (ev):

   -66.2566 -66.2561 -66.2560 -66.2560 -66.2555 -66.2554 -66.2554 -66.2549
   -30.6383 -30.6343 -30.6262 -30.6222 -30.6185 -30.6138 -30.6104 -30.6043
   -30.6014 -30.5980 -30.5944 -30.5859 -30.5634 -30.5605 -30.5448 -30.5416
   -30.5399 -30.5368 -30.5326 -30.5217 -30.5155 -30.5140 -30.5106 -30.5070
   -20.4149 -20.4148 -20.4147 -20.4146 -20.4142 -20.4141 -20.4141 -20.4140
   -20.4026 -20.4025 -20.4025 -20.4024 -20.4022 -20.4021 -20.4021 -20.4020
   -20.3934 -20.3931 -20.3924 -20.3921 -20.3914 -20.3913 -20.3910 -20.3905
   -20.3889 -20.3885 -20.3883 -20.3883 -20.3878 -20.3878 -20.3874 -20.3870
   -20.3868 -20.3866 -20.3861 -20.3860 -20.3849 -20.3846 -20.3839 -20.3837
   -20.3835 -20.3834 -20.3831 -20.3830 -20.3792 -20.3787 -20.3787 -20.3782
   -20.3724 -20.3723 -20.3721 -20.3721 -20.3714 -20.3714 -20.3712 -20.3711
   -10.0747  -9.7475  -9.6847  -9.6626  -9.3668  -9.3220  -9.2533  -9.0321
    -8.9937  -8.9619  -8.9433  -8.9235  -8.0902  -8.0298  -8.0265  -7.9938
    -7.9062  -7.9061  -7.8794  -7.8642  -7.8199  -7.8004  -7.7760  -7.7613
     1.1170   1.1483   1.1520   1.1927   1.1960   1.2290   1.2925   1.3098
     1.5057   1.5462   1.6061   1.6749   2.3534   2.4125   2.4167   2.4630
     2.5039   2.6228   3.9523   3.9796   4.1442   4.1788   4.2278   4.2684
     4.3717   4.3852   4.6073   4.6418   4.7517   4.7582   5.0143   5.2496
     5.3861   5.4162   5.4499   5.5016   5.5084   5.5718   5.6008   5.6594
     5.6766   5.7991   5.8388   5.8695   5.8731   5.9582   6.0336   6.1244
     6.1902   6.3206   6.3702   6.3926   6.4782   6.4988   6.5277   6.5706
     6.5917   6.7134   6.8529   6.8672   6.8750   6.8868   6.9294   6.9646
     7.0393   7.0578   8.0159   8.0469   8.1534   8.1752   8.2338   8.2541
     9.4874   9.5175   9.5994   9.7407   9.9672  10.0754  12.2653  12.2767
    12.4300  12.4548  12.6037  12.6067  12.6257  12.6692  12.6794  12.7314
    13.1072  13.1329  13.3945  13.4880  13.6436  13.7429  13.9719  13.9892
    14.0169  14.0569  14.4205  14.6450  14.6471  14.7073  15.2608  15.5864
    15.7559  16.4818  16.5399  17.0286  17.0330

          k = 0.1667 0.0000 0.1669 ( 62969 PWs)   bands (ev):

   -66.2566 -66.2560 -66.2560 -66.2560 -66.2555 -66.2555 -66.2554 -66.2549
   -30.6381 -30.6346 -30.6261 -30.6225 -30.6180 -30.6139 -30.6084 -30.5996
   -30.5984 -30.5964 -30.5896 -30.5822 -30.5631 -30.5609 -30.5467 -30.5426
   -30.5394 -30.5363 -30.5357 -30.5213 -30.5206 -30.5175 -30.5152 -30.5096
   -20.4149 -20.4147 -20.4147 -20.4146 -20.4143 -20.4142 -20.4142 -20.4140
   -20.4026 -20.4025 -20.4025 -20.4024 -20.4022 -20.4021 -20.4021 -20.4020
   -20.3934 -20.3931 -20.3924 -20.3921 -20.3915 -20.3913 -20.3910 -20.3905
   -20.3889 -20.3885 -20.3884 -20.3883 -20.3878 -20.3878 -20.3873 -20.3870
   -20.3868 -20.3866 -20.3861 -20.3861 -20.3847 -20.3845 -20.3836 -20.3835
   -20.3835 -20.3833 -20.3829 -20.3828 -20.3795 -20.3791 -20.3790 -20.3786
   -20.3723 -20.3722 -20.3720 -20.3720 -20.3714 -20.3714 -20.3712 -20.3712
   -10.0331  -9.6980  -9.6948  -9.6086  -9.3329  -9.2837  -9.2625  -8.9945
    -8.9642  -8.9369  -8.9298  -8.9250  -8.1047  -8.0457  -8.0306  -8.0158
    -8.0065  -7.9989  -7.9696  -7.9505  -7.8348  -7.8037  -7.7951  -7.7646
     1.1571   1.2120   1.2200   1.2848   1.3386   1.3406   1.4393   1.4894
     1.5098   1.5472   1.6708   1.7476   2.4152   2.4338   2.4683   2.4963
     2.5862   2.7045   3.9271   3.9433   4.1106   4.1269   4.3063   4.3089
     4.3519   4.3656   4.3693   4.4243   4.4597   4.5258   5.0137   5.2156
     5.2452   5.3311   5.3889   5.4039   5.5064   5.5507   5.5996   5.6201
     5.6210   5.6787   5.6953   5.7931   5.8615   6.0286   6.0750   6.1193
     6.2117   6.4335   6.4546   6.4729   6.4804   6.5211   6.5453   6.5579
     6.6280   6.6323   6.6859   6.7980   6.8256   6.9138   6.9279   6.9539
     6.9914   6.9968   8.0191   8.0416   8.0960   8.1153   8.1755   8.1976
     9.7640   9.7754   9.9031   9.9583  10.0593  10.0715  12.3262  12.3303
    12.4444  12.4571  12.4844  12.5236  12.6326  12.6380  12.6400  12.7434
    12.8966  12.9186  13.4319  13.4775  13.5487  13.6187  13.8500  13.9083
    14.2070  14.2707  14.5553  14.7343  14.7469  14.8300  15.5501  15.6826
    15.7382  16.6261  16.6652  16.7417  17.1135

          k = 0.1667 0.0000 0.3338 ( 62991 PWs)   bands (ev):

   -66.2565 -66.2561 -66.2559 -66.2559 -66.2556 -66.2556 -66.2553 -66.2550
   -30.6374 -30.6354 -30.6255 -30.6234 -30.6169 -30.6146 -30.6047 -30.5997
   -30.5864 -30.5830 -30.5764 -30.5705 -30.5621 -30.5621 -30.5537 -30.5469
   -30.5461 -30.5379 -30.5346 -30.5343 -30.5261 -30.5252 -30.5200 -30.5144
   -20.4147 -20.4146 -20.4146 -20.4145 -20.4144 -20.4143 -20.4143 -20.4142
   -20.4026 -20.4026 -20.4025 -20.4025 -20.4022 -20.4021 -20.4021 -20.4020
   -20.3933 -20.3932 -20.3924 -20.3922 -20.3915 -20.3914 -20.3909 -20.3906
   -20.3888 -20.3885 -20.3885 -20.3884 -20.3878 -20.3878 -20.3873 -20.3871
   -20.3867 -20.3866 -20.3862 -20.3862 -20.3844 -20.3843 -20.3838 -20.3837
   -20.3826 -20.3823 -20.3823 -20.3820 -20.3803 -20.3800 -20.3798 -20.3796
   -20.3721 -20.3721 -20.3719 -20.3718 -20.3716 -20.3716 -20.3714 -20.3714
    -9.9316  -9.7423  -9.5686  -9.4800  -9.3691  -9.2940  -9.0482  -8.9486
    -8.9313  -8.8512  -8.8404  -8.8161  -8.3275  -8.2943  -8.2871  -8.2685
    -8.0543  -8.0353  -8.0106  -7.9879  -7.8346  -7.8128  -7.7950  -7.7734
     1.1699   1.2021   1.2370   1.2686   1.4862   1.4979   1.5126   1.5426
     2.0995   2.1200   2.2007   2.2325   2.4206   2.4659   2.6633   2.6969
     2.8384   2.9410   3.6468   3.6966   3.8514   3.8957   3.9564   3.9961
     4.0652   4.1046   4.3640   4.3811   4.4499   4.5887   4.6340   4.7155
     4.9876   5.0596   5.1092   5.1845   5.2774   5.3174   5.5436   5.6282
     5.6610   5.7176   5.7648   5.7771   5.8240   5.8662   5.9154   6.0395
     6.2263   6.3239   6.3297   6.3741   6.3776   6.4976   6.5157   6.5249
     6.6275   6.8044   6.8362   6.8439   6.8984   6.9222   7.1119   7.1494
     7.1816   7.2505   7.9050   7.9225   7.9869   7.9983   8.0275   8.0546
     9.9826  10.0461  10.4121  10.4181  10.6631  10.7160  11.9103  11.9246
    12.3097  12.3355  12.5045  12.5244  12.6085  12.6370  12.6447  12.6692
    12.7373  12.8156  13.2206  13.2417  13.4712  13.4867  13.5168  13.5409
    14.4928  14.5861  14.7997  15.1085  15.1916  15.3501  15.4456  15.6828
    16.1694  16.7044  17.0241  17.0321  17.1456

          k = 0.1667 0.0000-0.5007 ( 62920 PWs)   bands (ev):

   -66.2563 -66.2563 -66.2558 -66.2558 -66.2557 -66.2557 -66.2552 -66.2552
   -30.6365 -30.6365 -30.6245 -30.6245 -30.6157 -30.6157 -30.6017 -30.6017
   -30.5697 -30.5696 -30.5660 -30.5660 -30.5596 -30.5596 -30.5589 -30.5589
   -30.5527 -30.5527 -30.5345 -30.5345 -30.5313 -30.5313 -30.5179 -30.5179
   -20.4146 -20.4146 -20.4145 -20.4145 -20.4145 -20.4144 -20.4143 -20.4143
   -20.4026 -20.4026 -20.4025 -20.4025 -20.4022 -20.4022 -20.4021 -20.4021
   -20.3933 -20.3933 -20.3923 -20.3923 -20.3915 -20.3915 -20.3908 -20.3908
   -20.3886 -20.3886 -20.3884 -20.3884 -20.3878 -20.3878 -20.3872 -20.3872
   -20.3865 -20.3865 -20.3862 -20.3862 -20.3840 -20.3840 -20.3840 -20.3840
   -20.3813 -20.3813 -20.3813 -20.3813 -20.3810 -20.3809 -20.3809 -20.3809
   -20.3719 -20.3719 -20.3718 -20.3718 -20.3716 -20.3716 -20.3716 -20.3716
    -9.8223  -9.8222  -9.4450  -9.4450  -9.3615  -9.3615  -8.9385  -8.9385
    -8.7018  -8.7017  -8.6155  -8.6155  -8.6023  -8.6022  -8.5844  -8.5844
    -8.0469  -8.0469  -8.0010  -8.0010  -7.8246  -7.8245  -7.7849  -7.7849
     1.1839   1.1839   1.2518   1.2518   1.5021   1.5021   1.5355   1.5355
     2.4243   2.4243   2.7490   2.7490   2.7991   2.7991   2.9838   2.9839
     3.0243   3.0244   3.2500   3.2500   3.4612   3.4612   3.7990   3.7990
     3.8016   3.8017   4.0831   4.0831   4.3661   4.3661   4.8482   4.8482
     4.9439   4.9439   4.9959   4.9959   5.1625   5.1625   5.5877   5.5878
     5.7017   5.7017   5.7364   5.7364   5.8354   5.8354   5.9642   5.9642
     6.1688   6.1688   6.2609   6.2609   6.4460   6.4460   6.5115   6.5115
     6.7145   6.7145   6.8452   6.8452   6.8898   6.8898   7.5747   7.5747
     7.5818   7.5818   7.6588   7.6588   7.6767   7.6768   8.0351   8.0351
    10.0184  10.0184  11.1767  11.1767  11.1956  11.1956  11.5182  11.5182
    11.5483  11.5483  12.6264  12.6264  12.6570  12.6570  12.8186  12.8186
    12.8752  12.8752  13.0754  13.0754  13.1135  13.1135  13.4936  13.4936
    14.5647  14.5647  15.2177  15.2177  15.5087  15.5087  15.5977  15.5977
    16.2750  16.2750  17.3663  17.3663  17.6005

          k = 0.1667 0.1635 0.0000 ( 62998 PWs)   bands (ev):

   -66.2566 -66.2561 -66.2560 -66.2559 -66.2555 -66.2554 -66.2554 -66.2549
   -30.6354 -30.6314 -30.6219 -30.6190 -30.6176 -30.6141 -30.6098 -30.6044
   -30.6013 -30.5958 -30.5944 -30.5846 -30.5661 -30.5636 -30.5486 -30.5414
   -30.5412 -30.5393 -30.5336 -30.5241 -30.5156 -30.5148 -30.5106 -30.5079
   -20.4149 -20.4148 -20.4147 -20.4146 -20.4142 -20.4141 -20.4141 -20.4140
   -20.4026 -20.4025 -20.4025 -20.4024 -20.4022 -20.4021 -20.4021 -20.4020
   -20.3933 -20.3930 -20.3925 -20.3921 -20.3911 -20.3910 -20.3907 -20.3902
   -20.3890 -20.3886 -20.3884 -20.3883 -20.3877 -20.3877 -20.3873 -20.3870
   -20.3868 -20.3866 -20.3861 -20.3860 -20.3849 -20.3847 -20.3840 -20.3839
   -20.3838 -20.3837 -20.3835 -20.3833 -20.3792 -20.3788 -20.3786 -20.3782
   -20.3724 -20.3723 -20.3721 -20.3721 -20.3714 -20.3714 -20.3712 -20.3711
   -10.0332  -9.7007  -9.6797  -9.6309  -9.3774  -9.2653  -9.2390  -9.0275
    -8.9958  -8.9243  -8.9021  -8.8909  -8.1113  -8.0437  -8.0319  -8.0122
    -7.9492  -7.9464  -7.9043  -7.9011  -7.8774  -7.8623  -7.8601  -7.8183
     1.1487   1.1518   1.1835   1.1931   1.3710   1.4041   1.4896   1.5274
     1.5355   1.6048   1.6312   1.7525   2.4306   2.4815   2.4978   2.5035
     2.5481   2.6203   3.7817   3.8134   3.9161   3.9949   4.1944   4.2590
     4.3887   4.4248   4.5955   4.6412   4.8028   4.8186   4.8237   5.1351
     5.1667   5.2823   5.2843   5.4231   5.4592   5.4868   5.5135   5.6265
     5.6784   5.8229   5.8758   5.9050   5.9451   5.9782   6.0526   6.1141
     6.1577   6.3016   6.3091   6.3471   6.4737   6.5556   6.5968   6.6231
     6.6314   6.7679   6.8119   6.8525   6.8698   6.8705   6.9343   6.9453
     6.9784   7.0217   7.9703   7.9981   8.1453   8.1548   8.1559   8.1845
     9.5156   9.5182   9.8174   9.9226  10.1653  10.2637  12.1945  12.2628
    12.2955  12.3372  12.4580  12.4584  12.6492  12.6601  12.6624  12.7622
    13.1356  13.1638  13.4357  13.4912  13.6640  13.7415  13.8892  13.9588
    14.0913  14.2423  14.4283  14.6522  14.7554  14.9009  15.2386  15.7231
    15.9927  16.1989  16.7237  17.1011  17.2020

          k = 0.1667 0.1635 0.1669 ( 62974 PWs)   bands (ev):

   -66.2565 -66.2560 -66.2560 -66.2560 -66.2555 -66.2555 -66.2554 -66.2549
   -30.6352 -30.6317 -30.6218 -30.6185 -30.6179 -30.6144 -30.6074 -30.5997
   -30.5965 -30.5961 -30.5896 -30.5812 -30.5657 -30.5639 -30.5502 -30.5423
   -30.5408 -30.5389 -30.5364 -30.5237 -30.5207 -30.5186 -30.5152 -30.5108
   -20.4148 -20.4147 -20.4147 -20.4146 -20.4143 -20.4142 -20.4142 -20.4140
   -20.4026 -20.4025 -20.4025 -20.4024 -20.4022 -20.4021 -20.4021 -20.4020
   -20.3933 -20.3930 -20.3925 -20.3922 -20.3911 -20.3910 -20.3907 -20.3902
   -20.3889 -20.3886 -20.3884 -20.3883 -20.3877 -20.3877 -20.3873 -20.3870
   -20.3868 -20.3866 -20.3862 -20.3861 -20.3848 -20.3847 -20.3840 -20.3839
   -20.3836 -20.3833 -20.3832 -20.3830 -20.3795 -20.3791 -20.3790 -20.3786
   -20.3723 -20.3723 -20.3720 -20.3720 -20.3714 -20.3714 -20.3712 -20.3712
    -9.9900  -9.6472  -9.6429  -9.6241  -9.2948  -9.2748  -9.2498  -8.9923
    -8.9659  -8.8972  -8.8947  -8.8921  -8.1314  -8.0494  -8.0449  -8.0272
    -8.0179  -8.0046  -7.9686  -7.9593  -7.9196  -7.8989  -7.8918  -7.8702
     1.3325   1.3359   1.3647   1.3855   1.4039   1.4410   1.4910   1.5319
     1.5833   1.6257   1.6719   1.8087   2.4894   2.5125   2.5369   2.5736
     2.6018   2.6997   3.7786   3.8035   3.9244   3.9556   4.2809   4.3018
     4.3309   4.3395   4.4057   4.4306   4.5115   4.5765   4.8266   5.1013
     5.1368   5.2363   5.2495   5.2580   5.3657   5.4581   5.4650   5.4832
     5.5204   5.6386   5.8658   5.8942   5.9517   5.9958   6.0507   6.0668
     6.2605   6.3405   6.3478   6.4316   6.4730   6.5665   6.6051   6.6249
     6.6805   6.7036   6.7363   6.8198   6.8619   6.8735   6.9243   6.9397
     6.9863   7.0250   7.9736   7.9921   8.0954   8.0966   8.1017   8.1306
     9.7734   9.7780  10.0822  10.1376  10.2242  10.2596  12.2656  12.3215
    12.3608  12.3844  12.4285  12.4496  12.4766  12.4936  12.6790  12.7669
    12.9279  12.9495  13.4601  13.4857  13.5554  13.6176  13.7517  13.8046
    14.3454  14.5136  14.6415  14.7542  14.7937  14.9981  15.6519  15.7072
    15.9616  16.3324  16.8248  16.8804  17.3013

          k = 0.1667 0.1635 0.3338 ( 62997 PWs)   bands (ev):

   -66.2564 -66.2561 -66.2559 -66.2559 -66.2556 -66.2556 -66.2554 -66.2551
   -30.6346 -30.6325 -30.6211 -30.6188 -30.6174 -30.6151 -30.6030 -30.5975
   -30.5867 -30.5831 -30.5766 -30.5700 -30.5652 -30.5645 -30.5561 -30.5468
   -30.5462 -30.5389 -30.5374 -30.5344 -30.5274 -30.5259 -30.5224 -30.5163
   -20.4147 -20.4146 -20.4146 -20.4145 -20.4144 -20.4143 -20.4143 -20.4142
   -20.4026 -20.4025 -20.4025 -20.4024 -20.4022 -20.4022 -20.4021 -20.4021
   -20.3932 -20.3931 -20.3924 -20.3922 -20.3912 -20.3911 -20.3906 -20.3903
   -20.3888 -20.3886 -20.3885 -20.3884 -20.3877 -20.3877 -20.3872 -20.3871
   -20.3867 -20.3865 -20.3862 -20.3862 -20.3846 -20.3845 -20.3841 -20.3840
   -20.3826 -20.3824 -20.3823 -20.3822 -20.3803 -20.3800 -20.3798 -20.3796
   -20.3721 -20.3721 -20.3719 -20.3718 -20.3716 -20.3716 -20.3714 -20.3714
    -9.8847  -9.6902  -9.5064  -9.4957  -9.3075  -9.2875  -9.0595  -8.9266
    -8.8994  -8.8533  -8.8219  -8.7945  -8.3444  -8.2962  -8.2911  -8.2651
    -8.0599  -8.0465  -8.0169  -7.9973  -7.9268  -7.9088  -7.9032  -7.8841
     1.3741   1.3903   1.4596   1.4757   1.5006   1.5196   1.5734   1.6170
     2.0996   2.1288   2.1993   2.2455   2.4953   2.5378   2.7339   2.7687
     2.8530   2.9349   3.6215   3.6292   3.8430   3.8543   3.9039   3.9606
     3.9932   4.0554   4.3595   4.4160   4.4326   4.5724   4.6306   4.6905
     4.7946   4.8582   4.9758   4.9993   5.1111   5.1731   5.3237   5.4890
     5.5064   5.6639   5.6977   5.7913   5.8189   5.8607   5.8997   5.9229
     6.1966   6.3777   6.4073   6.4497   6.5028   6.5787   6.5851   6.6225
     6.6690   6.8138   6.8577   6.8622   6.8748   6.9688   7.1066   7.1585
     7.1819   7.2499   7.9076   7.9112   7.9313   7.9403   7.9826   8.0117
    10.1686  10.2325  10.4132  10.4292  10.7653  10.8180  11.9120  11.9235
    12.3396  12.3702  12.4572  12.4700  12.5031  12.5111  12.5610  12.5875
    12.7139  12.7852  13.2188  13.2440  13.3777  13.4194  13.4914  13.5235
    14.6224  14.7037  15.1274  15.1843  15.2508  15.4107  15.6556  15.8492
    16.3036  16.6734  16.7650  17.1012  17.1605

          k = 0.1667 0.1635-0.5007 ( 62938 PWs)   bands (ev):

   -66.2563 -66.2563 -66.2558 -66.2558 -66.2557 -66.2557 -66.2552 -66.2552
   -30.6336 -30.6336 -30.6200 -30.6200 -30.6162 -30.6162 -30.5997 -30.5997
   -30.5710 -30.5710 -30.5676 -30.5676 -30.5601 -30.5601 -30.5594 -30.5594
   -30.5526 -30.5526 -30.5350 -30.5350 -30.5340 -30.5340 -30.5202 -30.5202
   -20.4146 -20.4146 -20.4145 -20.4145 -20.4144 -20.4144 -20.4143 -20.4143
   -20.4026 -20.4026 -20.4025 -20.4025 -20.4022 -20.4022 -20.4021 -20.4021
   -20.3932 -20.3932 -20.3923 -20.3923 -20.3911 -20.3911 -20.3905 -20.3905
   -20.3886 -20.3886 -20.3885 -20.3885 -20.3877 -20.3877 -20.3871 -20.3871
   -20.3866 -20.3866 -20.3863 -20.3863 -20.3843 -20.3843 -20.3843 -20.3842
   -20.3814 -20.3814 -20.3813 -20.3813 -20.3810 -20.3810 -20.3809 -20.3809
   -20.3719 -20.3719 -20.3718 -20.3718 -20.3716 -20.3716 -20.3716 -20.3716
    -9.7718  -9.7718  -9.3773  -9.3773  -9.3685  -9.3685  -8.9078  -8.9078
    -8.7144  -8.7144  -8.6199  -8.6199  -8.5958  -8.5957  -8.5757  -8.5757
    -8.0559  -8.0559  -8.0098  -8.0098  -7.9187  -7.9187  -7.8952  -7.8952
     1.3818   1.3818   1.4718   1.4718   1.5146   1.5146   1.6074   1.6074
     2.4961   2.4961   2.7788   2.7788   2.8334   2.8334   2.9734   2.9734
     3.0182   3.0182   3.2638   3.2638   3.4486   3.4486   3.8309   3.8309
     3.8497   3.8497   3.9311   3.9311   4.3725   4.3725   4.7189   4.7189
     4.7933   4.7933   4.9008   4.9008   4.9564   4.9564   5.4466   5.4466
     5.5624   5.5624   5.6107   5.6108   5.7288   5.7288   5.9090   5.9090
     6.3327   6.3327   6.4284   6.4284   6.5465   6.5465   6.5691   6.5691
     6.7058   6.7058   6.8589   6.8589   6.9101   6.9101   7.5737   7.5737
     7.5813   7.5813   7.6309   7.6309   7.6490   7.6490   7.9903   7.9903
    10.2081  10.2081  11.1778  11.1778  11.1948  11.1948  11.5788  11.5788
    11.6111  11.6111  12.4653  12.4653  12.6817  12.6817  12.8115  12.8115
    12.8745  12.8745  12.9454  12.9454  12.9843  12.9843  13.5096  13.5096
    14.6859  14.6859  15.4861  15.4861  15.5970  15.5970  15.7407  15.7407
    16.3552  16.3552  17.2226  17.2226  17.5475

          k = 0.1667 0.3270 0.0000 ( 63015 PWs)   bands (ev):

   -66.2565 -66.2562 -66.2559 -66.2558 -66.2556 -66.2556 -66.2553 -66.2550
   -30.6291 -30.6251 -30.6205 -30.6159 -30.6110 -30.6080 -30.6049 -30.6047
   -30.6011 -30.5936 -30.5881 -30.5793 -30.5745 -30.5732 -30.5596 -30.5533
   -30.5402 -30.5378 -30.5360 -30.5295 -30.5160 -30.5158 -30.5107 -30.5096
   -20.4149 -20.4148 -20.4147 -20.4146 -20.4142 -20.4141 -20.4141 -20.4140
   -20.4025 -20.4024 -20.4024 -20.4023 -20.4023 -20.4022 -20.4022 -20.4021
   -20.3931 -20.3928 -20.3926 -20.3923 -20.3903 -20.3902 -20.3899 -20.3894
   -20.3891 -20.3889 -20.3886 -20.3883 -20.3875 -20.3873 -20.3869 -20.3869
   -20.3868 -20.3865 -20.3862 -20.3860 -20.3852 -20.3851 -20.3849 -20.3849
   -20.3841 -20.3841 -20.3838 -20.3838 -20.3791 -20.3789 -20.3786 -20.3783
   -20.3724 -20.3723 -20.3721 -20.3721 -20.3714 -20.3714 -20.3712 -20.3712
    -9.9305  -9.7295  -9.5902  -9.5052  -9.4127  -9.3036  -9.0210  -9.0034
    -9.0018  -8.7948  -8.7744  -8.7649  -8.3129  -8.2331  -8.2286  -8.1938
    -8.0373  -8.0255  -7.9912  -7.9747  -7.8985  -7.8804  -7.8570  -7.8393
     1.1515   1.1517   1.1936   1.1940   1.4860   1.4990   1.5636   1.5969
     2.1043   2.1970   2.2402   2.3338   2.5209   2.5698   2.7008   2.7314
     2.7519   2.7580   3.3818   3.3876   3.5242   3.5451   3.9760   4.2101
     4.2139   4.3067   4.3595   4.5612   4.6200   4.6461   4.7206   4.7484
     4.9630   5.0094   5.1622   5.2862   5.2933   5.3528   5.5041   5.5424
     5.5874   5.6278   5.6685   5.8841   5.9001   5.9804   6.0319   6.0792
     6.1834   6.2954   6.3104   6.4442   6.5901   6.6387   6.7301   6.7731
     6.8089   6.8351   6.8568   6.8634   6.8729   6.9159   6.9815   7.0243
     7.0636   7.1087   7.7905   7.8108   7.8847   7.9034   8.1597   8.1720
     9.5252   9.5317  10.3801  10.4511  10.6829  10.7532  11.7547  11.8038
    11.9964  12.0093  12.2876  12.3027  12.6579  12.6612  12.7789  12.8802
    13.2114  13.2688  13.3039  13.3537  13.6724  13.6830  13.7334  13.7444
    14.3465  14.4279  14.6678  14.7209  15.0917  15.1580  15.5728  15.6189
    15.6668  16.9887  17.0031  17.1863  17.3069

          k = 0.1667 0.3270 0.1669 ( 62996 PWs)   bands (ev):

   -66.2564 -66.2561 -66.2559 -66.2559 -66.2556 -66.2556 -66.2553 -66.2551
   -30.6289 -30.6254 -30.6201 -30.6162 -30.6105 -30.6057 -30.6041 -30.6001
   -30.5964 -30.5894 -30.5884 -30.5768 -30.5739 -30.5735 -30.5606 -30.5525
   -30.5414 -30.5383 -30.5370 -30.5291 -30.5210 -30.5203 -30.5151 -30.5131
   -20.4148 -20.4148 -20.4147 -20.4146 -20.4143 -20.4142 -20.4141 -20.4141
   -20.4025 -20.4024 -20.4024 -20.4023 -20.4023 -20.4022 -20.4022 -20.4021
   -20.3931 -20.3928 -20.3926 -20.3923 -20.3903 -20.3902 -20.3899 -20.3894
   -20.3890 -20.3888 -20.3886 -20.3883 -20.3875 -20.3873 -20.3870 -20.3869
   -20.3868 -20.3865 -20.3863 -20.3860 -20.3852 -20.3852 -20.3850 -20.3849
   -20.3837 -20.3837 -20.3834 -20.3834 -20.3794 -20.3792 -20.3789 -20.3787
   -20.3723 -20.3723 -20.3720 -20.3720 -20.3715 -20.3714 -20.3712 -20.3712
    -9.8834  -9.6759  -9.5243  -9.5174  -9.3313  -9.3139  -9.0172  -8.9861
    -8.9713  -8.7791  -8.7760  -8.7588  -8.3277  -8.2401  -8.2314  -8.1970
    -8.0382  -8.0351  -8.0011  -8.0003  -7.9850  -7.9757  -7.9605  -7.9418
     1.3353   1.3373   1.4313   1.4379   1.4882   1.5016   1.6206   1.6635
     2.1096   2.1954   2.2329   2.3277   2.6029   2.6421   2.7445   2.7601
     2.7877   2.8249   3.4038   3.4225   3.5303   3.5388   3.9659   4.2416
     4.2779   4.3004   4.3210   4.3440   4.3814   4.6221   4.6529   4.7261
     4.7617   4.7740   5.1236   5.1684   5.2551   5.2877   5.3227   5.3432
     5.5138   5.5289   5.6087   5.6522   5.6997   5.7410   6.0698   6.0863
     6.3630   6.4208   6.4702   6.5752   6.5919   6.6262   6.6735   6.7374
     6.7912   6.8138   6.8985   6.9113   6.9171   6.9731   6.9918   7.0214
     7.0881   7.1225   7.7935   7.8038   7.8552   7.8726   8.1010   8.1143
     9.7790   9.7864  10.5627  10.6192  10.7075  10.7492  11.8412  11.8889
    12.0014  12.0099  12.3398  12.3552  12.4615  12.4644  12.8077  12.8829
    13.0333  13.0598  13.3093  13.3540  13.5044  13.5329  13.5973  13.6046
    14.6710  14.6841  14.7809  14.9970  15.1058  15.5581  15.6077  15.6572
    15.7965  16.9543  17.0839  17.2290  17.2566

          k = 0.1667 0.3270 0.3338 ( 62973 PWs)   bands (ev):

   -66.2563 -66.2560 -66.2560 -66.2558 -66.2557 -66.2555 -66.2555 -66.2552
   -30.6282 -30.6261 -30.6192 -30.6170 -30.6091 -30.6063 -30.5978 -30.5902
   -30.5883 -30.5847 -30.5768 -30.5747 -30.5712 -30.5678 -30.5642 -30.5498
   -30.5466 -30.5462 -30.5357 -30.5343 -30.5314 -30.5277 -30.5252 -30.5202
   -20.4147 -20.4147 -20.4146 -20.4145 -20.4144 -20.4143 -20.4143 -20.4142
   -20.4025 -20.4024 -20.4024 -20.4024 -20.4023 -20.4022 -20.4022 -20.4021
   -20.3930 -20.3929 -20.3925 -20.3924 -20.3903 -20.3902 -20.3898 -20.3895
   -20.3889 -20.3888 -20.3887 -20.3885 -20.3874 -20.3873 -20.3870 -20.3869
   -20.3867 -20.3865 -20.3863 -20.3861 -20.3853 -20.3852 -20.3851 -20.3850
   -20.3827 -20.3827 -20.3824 -20.3824 -20.3803 -20.3801 -20.3798 -20.3797
   -20.3721 -20.3721 -20.3719 -20.3719 -20.3716 -20.3716 -20.3714 -20.3714
    -9.7684  -9.5640  -9.5474  -9.3506  -9.3486  -9.0999  -9.0594  -8.8908
    -8.8610  -8.7867  -8.7257  -8.7110  -8.4466  -8.3520  -8.2813  -8.2541
    -8.2277  -8.2049  -8.1598  -8.1320  -8.0243  -8.0075  -7.9981  -7.9841
     1.4668   1.4764   1.4870   1.4989   1.9857   2.0403   2.0960   2.1267
     2.1919   2.2245   2.2770   2.4028   2.7081   2.7502   2.8394   2.9244
     2.9893   3.0082   3.4004   3.4284   3.5200   3.5513   3.8183   3.8318
     3.9571   4.1646   4.2138   4.2350   4.2943   4.4232   4.4406   4.6088
     4.6536   4.6937   4.7294   4.7823   4.8379   4.8843   5.0507   5.1300
     5.2014   5.2839   5.3638   5.5432   5.5698   5.6823   5.8180   5.8257
     6.4452   6.5301   6.5696   6.6170   6.6993   6.7313   6.7511   6.8063
     6.8390   6.9422   6.9631   7.0131   7.0285   7.0877   7.1364   7.1721
     7.2307   7.2460   7.7489   7.7543   7.7836   7.8069   7.9166   7.9438
    10.3925  10.4122  10.7054  10.7371  11.0816  11.1336  11.8922  11.9159
    11.9954  12.0367  12.1306  12.1655  12.4865  12.5065  12.5210  12.5575
    12.8405  12.8805  13.0776  13.1194  13.2192  13.2463  13.3549  13.3953
    14.8990  15.0346  15.1599  15.4309  15.5667  15.8073  15.9602  16.2525
    16.5604  16.6688  16.8329  17.3412  17.3864

          k = 0.1667 0.3270-0.5007 ( 62976 PWs)   bands (ev):

   -66.2562 -66.2562 -66.2559 -66.2559 -66.2556 -66.2556 -66.2553 -66.2553
   -30.6272 -30.6272 -30.6181 -30.6181 -30.6076 -30.6076 -30.5930 -30.5930
   -30.5778 -30.5778 -30.5728 -30.5728 -30.5606 -30.5606 -30.5599 -30.5599
   -30.5519 -30.5519 -30.5430 -30.5430 -30.5325 -30.5325 -30.5251 -30.5251
   -20.4146 -20.4146 -20.4145 -20.4145 -20.4144 -20.4144 -20.4144 -20.4144
   -20.4025 -20.4025 -20.4024 -20.4024 -20.4023 -20.4023 -20.4022 -20.4022
   -20.3929 -20.3929 -20.3925 -20.3925 -20.3903 -20.3903 -20.3897 -20.3897
   -20.3888 -20.3888 -20.3886 -20.3886 -20.3874 -20.3874 -20.3869 -20.3869
   -20.3866 -20.3866 -20.3862 -20.3862 -20.3852 -20.3852 -20.3850 -20.3850
   -20.3815 -20.3815 -20.3814 -20.3814 -20.3811 -20.3811 -20.3810 -20.3810
   -20.3719 -20.3719 -20.3719 -20.3719 -20.3716 -20.3716 -20.3716 -20.3716
    -9.6475  -9.6475  -9.4243  -9.4243  -9.1650  -9.1650  -8.8108  -8.8108
    -8.7663  -8.7663  -8.6361  -8.6361  -8.5686  -8.5686  -8.5411  -8.5411
    -8.2202  -8.2202  -8.1818  -8.1818  -8.0130  -8.0130  -7.9953  -7.9953
     1.4811   1.4811   1.4956   1.4956   2.1098   2.1098   2.2118   2.2118
     2.6913   2.6913   2.8647   2.8647   2.9223   2.9223   2.9419   2.9419
     3.0057   3.0058   3.2952   3.2952   3.4055   3.4055   3.5522   3.5522
     3.9644   3.9644   3.9932   3.9932   4.0185   4.0185   4.2410   4.2410
     4.6695   4.6695   4.8151   4.8151   4.8506   4.8506   4.9084   4.9084
     4.9997   4.9997   5.4382   5.4382   5.6196   5.6196   5.7009   5.7009
     6.5532   6.5532   6.5986   6.5986   6.6806   6.6806   6.7616   6.7616
     6.9270   6.9270   6.9950   6.9951   7.1054   7.1054   7.5261   7.5261
     7.5352   7.5352   7.5634   7.5634   7.6000   7.6000   7.8255   7.8255
    10.7000  10.7000  11.1770  11.1770  11.2002  11.2002  11.7739  11.7739
    11.8082  11.8082  12.0346  12.0346  12.5463  12.5463  12.6001  12.6001
    12.7797  12.7797  12.8402  12.8402  12.9477  12.9477  13.3703  13.3703
    14.9933  14.9933  15.4077  15.4077  16.1141  16.1141  16.4921  16.4921
    16.7014  16.7014  16.8543  16.8543  17.5848

          k = 0.1667-0.4905 0.0000 ( 63022 PWs)   bands (ev):

   -66.2563 -66.2563 -66.2558 -66.2558 -66.2557 -66.2557 -66.2552 -66.2552
   -30.6238 -30.6238 -30.6193 -30.6193 -30.6058 -30.6058 -30.6024 -30.6024
   -30.5885 -30.5885 -30.5868 -30.5868 -30.5747 -30.5747 -30.5680 -30.5680
   -30.5385 -30.5385 -30.5344 -30.5344 -30.5162 -30.5162 -30.5105 -30.5105
   -20.4148 -20.4148 -20.4147 -20.4147 -20.4142 -20.4142 -20.4141 -20.4141
   -20.4024 -20.4024 -20.4023 -20.4023 -20.4023 -20.4023 -20.4022 -20.4022
   -20.3929 -20.3928 -20.3925 -20.3925 -20.3895 -20.3895 -20.3894 -20.3894
   -20.3891 -20.3891 -20.3886 -20.3886 -20.3872 -20.3872 -20.3866 -20.3866
   -20.3863 -20.3863 -20.3862 -20.3862 -20.3859 -20.3859 -20.3857 -20.3856
   -20.3842 -20.3842 -20.3839 -20.3839 -20.3790 -20.3790 -20.3785 -20.3784
   -20.3724 -20.3724 -20.3721 -20.3721 -20.3714 -20.3714 -20.3712 -20.3712
    -9.8164  -9.8164  -9.4821  -9.4821  -9.3813  -9.3813  -9.0103  -9.0103
    -8.6659  -8.6659  -8.5513  -8.5512  -8.5410  -8.5410  -8.5170  -8.5170
    -8.0359  -8.0359  -7.9885  -7.9885  -7.8904  -7.8904  -7.8493  -7.8493
     1.1516   1.1516   1.1946   1.1946   1.4956   1.4957   1.5891   1.5891
     2.5458   2.5458   2.8392   2.8392   2.9161   2.9161   2.9294   2.9294
     3.0548   3.0548   3.1504   3.1504   3.3546   3.3547   3.4064   3.4064
     3.5408   3.5408   4.2283   4.2283   4.6013   4.6013   4.9361   4.9361
     5.0123   5.0123   5.1881   5.1881   5.2982   5.2982   5.3731   5.3731
     5.5369   5.5369   5.6627   5.6627   5.9143   5.9143   6.0760   6.0760
     6.3145   6.3145   6.3540   6.3540   6.5826   6.5826   6.7379   6.7379
     6.8330   6.8330   6.8633   6.8633   6.9347   6.9347   7.4442   7.4442
     7.4589   7.4589   7.4848   7.4848   7.5005   7.5005   8.1659   8.1659
     9.5316   9.5316  11.0877  11.0877  11.1268  11.1268  11.3468  11.3468
    11.4135  11.4135  12.2941  12.2941  12.6595  12.6595  12.9888  12.9888
    13.1132  13.1132  13.4284  13.4284  13.4618  13.4618  13.7253  13.7253
    14.4200  14.4200  14.9847  14.9847  15.1167  15.1167  15.4201  15.4201
    16.3969  16.3970  17.5168  17.5168  17.6447

          k = 0.1667-0.4905 0.1669 ( 63072 PWs)   bands (ev):

   -66.2563 -66.2563 -66.2557 -66.2557 -66.2557 -66.2557 -66.2552 -66.2552
   -30.6235 -30.6235 -30.6196 -30.6196 -30.6020 -30.6019 -30.5990 -30.5989
   -30.5888 -30.5888 -30.5848 -30.5848 -30.5754 -30.5754 -30.5666 -30.5666
   -30.5400 -30.5400 -30.5340 -30.5340 -30.5210 -30.5210 -30.5146 -30.5146
   -20.4148 -20.4148 -20.4146 -20.4146 -20.4142 -20.4142 -20.4141 -20.4141
   -20.4024 -20.4024 -20.4023 -20.4023 -20.4023 -20.4023 -20.4022 -20.4022
   -20.3928 -20.3928 -20.3926 -20.3925 -20.3895 -20.3895 -20.3894 -20.3894
   -20.3891 -20.3891 -20.3886 -20.3886 -20.3871 -20.3871 -20.3867 -20.3867
   -20.3863 -20.3863 -20.3863 -20.3862 -20.3859 -20.3859 -20.3857 -20.3857
   -20.3838 -20.3838 -20.3835 -20.3835 -20.3793 -20.3793 -20.3788 -20.3788
   -20.3723 -20.3723 -20.3720 -20.3720 -20.3715 -20.3715 -20.3712 -20.3712
    -9.7652  -9.7651  -9.4058  -9.4051  -9.3931  -9.3925  -8.9790  -8.9790
    -8.6784  -8.6782  -8.5478  -8.5474  -8.5438  -8.5434  -8.5146  -8.5143
    -8.0396  -8.0392  -8.0047  -7.9983  -7.9949  -7.9864  -7.9549  -7.9522
     1.3358   1.3365   1.4366   1.4379   1.4980   1.4980   1.6542   1.6544
     2.6239   2.6289   2.8451   2.8570   2.9130   2.9170   2.9436   2.9440
     3.0927   3.1019   3.1388   3.1484   3.3837   3.3965   3.4021   3.4132
     3.5570   3.5580   4.2879   4.2886   4.3264   4.3337   4.8773   4.9321
     4.9424   4.9750   5.0132   5.0418   5.0621   5.0643   5.3371   5.3493
[...]
    11.8848  11.8848  11.8848  11.8849  11.9676  11.9676  11.9676  11.9676
    12.9169  12.9169  12.9169  12.9169  13.0477  13.0477  13.0477  13.0477
    15.3789  15.3789  15.3789  15.3789  16.4473  16.4473  16.4473  16.4473
    17.3425  17.3427  17.3428  17.3429  17.4085

          k =-0.5000 0.3270 0.0000 ( 62996 PWs)   bands (ev):

   -66.2562 -66.2562 -66.2559 -66.2559 -66.2556 -66.2556 -66.2553 -66.2553
   -30.6157 -30.6157 -30.6113 -30.6113 -30.6032 -30.6032 -30.6002 -30.6002
   -30.5931 -30.5930 -30.5898 -30.5898 -30.5678 -30.5678 -30.5631 -30.5631
   -30.5524 -30.5524 -30.5455 -30.5455 -30.5138 -30.5138 -30.5134 -30.5134
   -20.4148 -20.4148 -20.4147 -20.4147 -20.4142 -20.4142 -20.4141 -20.4141
   -20.4025 -20.4025 -20.4025 -20.4024 -20.4023 -20.4023 -20.4022 -20.4022
   -20.3912 -20.3912 -20.3910 -20.3910 -20.3904 -20.3904 -20.3902 -20.3902
   -20.3892 -20.3892 -20.3888 -20.3888 -20.3882 -20.3882 -20.3878 -20.3878
   -20.3865 -20.3865 -20.3864 -20.3864 -20.3851 -20.3851 -20.3848 -20.3848
   -20.3840 -20.3839 -20.3839 -20.3839 -20.3788 -20.3788 -20.3786 -20.3786
   -20.3722 -20.3722 -20.3722 -20.3722 -20.3713 -20.3713 -20.3713 -20.3713
    -9.7136  -9.7136  -9.5139  -9.5139  -9.1559  -9.1559  -8.8414  -8.8414
    -8.7471  -8.7471  -8.6483  -8.6483  -8.5770  -8.5770  -8.5453  -8.5453
    -8.2156  -8.2155  -8.1748  -8.1748  -7.8788  -7.8788  -7.8603  -7.8603
     1.1884   1.1884   1.1934   1.1934   2.1055   2.1055   2.2238   2.2238
     2.7007   2.7007   2.8229   2.8229   2.9177   2.9177   2.9770   2.9771
     3.0295   3.0295   3.2473   3.2474   3.2763   3.2763   3.4401   3.4401
     3.9273   3.9273   3.9477   3.9478   4.1023   4.1023   4.2978   4.2978
     4.7875   4.7875   4.8884   4.8884   4.9582   4.9582   5.1078   5.1078
     5.2267   5.2267   5.7348   5.7349   6.0066   6.0066   6.0412   6.0412
     6.3404   6.3404   6.4039   6.4039   6.4675   6.4675   6.7113   6.7114
     6.8833   6.8833   6.9589   6.9589   7.0437   7.0437   7.5150   7.5150
     7.5313   7.5313   7.5716   7.5716   7.5970   7.5970   7.9115   7.9115
    10.3940  10.3940  11.0192  11.0192  11.0409  11.0409  11.7015  11.7015
    11.7855  11.7855  11.8987  11.8988  12.6147  12.6147  12.6680  12.6680
    13.0553  13.0553  13.0858  13.0858  13.2764  13.2764  13.7144  13.7144
    14.5661  14.5661  14.9704  14.9704  16.0300  16.0300  16.4266  16.4266
    16.5463  16.5463  16.8178  16.8178  17.6551

          k =-0.5000 0.3270 0.1669 ( 62986 PWs)   bands (ev):

   -66.2562 -66.2561 -66.2559 -66.2559 -66.2556 -66.2556 -66.2553 -66.2553
   -30.6154 -30.6154 -30.6116 -30.6116 -30.5986 -30.5986 -30.5960 -30.5960
   -30.5926 -30.5926 -30.5899 -30.5899 -30.5684 -30.5684 -30.5621 -30.5621
   -30.5537 -30.5537 -30.5449 -30.5449 -30.5188 -30.5187 -30.5177 -30.5177
   -20.4148 -20.4147 -20.4147 -20.4147 -20.4142 -20.4142 -20.4141 -20.4141
   -20.4025 -20.4025 -20.4025 -20.4025 -20.4023 -20.4023 -20.4022 -20.4022
   -20.3912 -20.3912 -20.3911 -20.3911 -20.3904 -20.3904 -20.3902 -20.3902
   -20.3892 -20.3892 -20.3888 -20.3888 -20.3882 -20.3882 -20.3878 -20.3878
   -20.3865 -20.3865 -20.3865 -20.3865 -20.3851 -20.3851 -20.3849 -20.3849
   -20.3836 -20.3836 -20.3835 -20.3835 -20.3792 -20.3792 -20.3789 -20.3789
   -20.3722 -20.3722 -20.3721 -20.3721 -20.3713 -20.3713 -20.3713 -20.3713
    -9.6524  -9.6524  -9.4384  -9.4384  -9.1703  -9.1703  -8.8203  -8.8203
    -8.7590  -8.7589  -8.6394  -8.6394  -8.5745  -8.5745  -8.5478  -8.5477
    -8.2195  -8.2195  -8.1787  -8.1787  -7.9891  -7.9890  -7.9648  -7.9648
     1.4307   1.4307   1.4408   1.4409   2.1110   2.1110   2.2111   2.2111
     2.7689   2.7689   2.8330   2.8330   2.9023   2.9023   2.9794   2.9795
     3.0281   3.0282   3.3241   3.3241   3.3610   3.3610   3.4829   3.4829
     3.9212   3.9212   3.9545   3.9545   4.0943   4.0943   4.3013   4.3013
     4.6753   4.6753   4.7609   4.7609   4.8687   4.8687   4.9177   4.9177
     4.9790   4.9790   5.4601   5.4601   5.6310   5.6311   5.7528   5.7528
     6.5708   6.5708   6.6555   6.6555   6.7132   6.7132   6.7773   6.7773
     6.8871   6.8871   6.9610   6.9610   7.0842   7.0842   7.5071   7.5071
     7.5277   7.5277   7.5688   7.5688   7.5869   7.5869   7.8814   7.8814
    10.5760  10.5760  11.1117  11.1117  11.1352  11.1352  11.7312  11.7312
    11.8021  11.8021  11.9471  11.9471  12.6122  12.6122  12.6664  12.6664
    12.8881  12.8881  12.9206  12.9206  13.0787  13.0787  13.5458  13.5458
    14.9170  14.9170  15.3658  15.3658  16.1248  16.1248  16.4289  16.4289
    16.5827  16.5827  16.8701  16.8702  17.5263

          k =-0.5000 0.3270 0.3338 ( 62964 PWs)   bands (ev):

   -66.2560 -66.2560 -66.2558 -66.2557 -66.2557 -66.2557 -66.2554 -66.2554
   -30.6146 -30.6146 -30.6124 -30.6124 -30.5928 -30.5928 -30.5910 -30.5910
   -30.5852 -30.5852 -30.5846 -30.5846 -30.5704 -30.5704 -30.5585 -30.5585
   -30.5580 -30.5580 -30.5427 -30.5426 -30.5318 -30.5318 -30.5281 -30.5281
   -20.4146 -20.4146 -20.4146 -20.4146 -20.4143 -20.4143 -20.4143 -20.4143
   -20.4025 -20.4025 -20.4025 -20.4025 -20.4023 -20.4023 -20.4023 -20.4023
   -20.3912 -20.3912 -20.3911 -20.3911 -20.3904 -20.3904 -20.3902 -20.3902
   -20.3891 -20.3891 -20.3889 -20.3889 -20.3881 -20.3881 -20.3879 -20.3879
   -20.3865 -20.3865 -20.3865 -20.3865 -20.3851 -20.3851 -20.3849 -20.3849
   -20.3825 -20.3825 -20.3825 -20.3825 -20.3800 -20.3800 -20.3799 -20.3799
   -20.3720 -20.3720 -20.3720 -20.3720 -20.3715 -20.3715 -20.3715 -20.3715
    -9.4972  -9.4972  -9.2359  -9.2359  -9.2176  -9.2176  -8.8214  -8.8214
    -8.7306  -8.7306  -8.6069  -8.6069  -8.5670  -8.5670  -8.5538  -8.5538
    -8.3032  -8.3032  -8.2554  -8.2554  -8.1840  -8.1840  -8.1396  -8.1396
     1.9912   1.9912   2.0928   2.0928   2.1315   2.1315   2.2587   2.2587
     2.8163   2.8164   2.8611   2.8611   2.9723   2.9724   2.9819   2.9819
     3.0400   3.0401   3.4195   3.4195   3.5866   3.5866   3.6353   3.6353
     3.8944   3.8944   3.9795   3.9795   4.0639   4.0639   4.2074   4.2074
     4.2445   4.2446   4.4346   4.4346   4.5336   4.5336   4.7678   4.7678
     4.8044   4.8044   4.8501   4.8501   4.9796   4.9796   5.2702   5.2703
     6.7924   6.7924   6.8535   6.8535   6.8801   6.8801   6.9564   6.9564
     7.0708   7.0708   7.1177   7.1177   7.2331   7.2331   7.4654   7.4654
     7.5075   7.5075   7.5507   7.5507   7.5812   7.5813   7.7859   7.7859
    11.0690  11.0690  11.3924  11.3924  11.4268  11.4268  11.7588  11.7588
    11.8337  11.8337  12.1622  12.1622  12.4241  12.4241  12.4363  12.4363
    12.5525  12.5525  12.6784  12.6784  12.6880  12.6880  13.1232  13.1232
    15.6947  15.6947  16.2710  16.2710  16.3651  16.3651  16.4607  16.4607
    16.7693  16.7693  17.0028  17.0028  17.1397

          k =-0.5000 0.3270-0.5007 ( 62944 PWs)   bands (ev):

   -66.2559 -66.2559 -66.2559 -66.2559 -66.2556 -66.2556 -66.2556 -66.2556
   -30.6135 -30.6135 -30.6135 -30.6135 -30.5917 -30.5917 -30.5917 -30.5917
   -30.5752 -30.5752 -30.5752 -30.5752 -30.5696 -30.5696 -30.5695 -30.5695
   -30.5475 -30.5475 -30.5475 -30.5475 -30.5376 -30.5376 -30.5376 -30.5376
   -20.4145 -20.4145 -20.4145 -20.4145 -20.4144 -20.4144 -20.4144 -20.4144
   -20.4025 -20.4025 -20.4025 -20.4025 -20.4023 -20.4023 -20.4023 -20.4023
   -20.3912 -20.3912 -20.3912 -20.3912 -20.3903 -20.3903 -20.3903 -20.3903
   -20.3890 -20.3890 -20.3890 -20.3890 -20.3881 -20.3881 -20.3880 -20.3880
   -20.3865 -20.3865 -20.3865 -20.3865 -20.3851 -20.3850 -20.3850 -20.3850
   -20.3813 -20.3813 -20.3813 -20.3813 -20.3812 -20.3812 -20.3812 -20.3812
   -20.3718 -20.3718 -20.3718 -20.3718 -20.3717 -20.3717 -20.3717 -20.3717
    -9.3295  -9.3295  -9.3295  -9.3295  -8.9778  -8.9778  -8.9778  -8.9778
    -8.5858  -8.5858  -8.5858  -8.5858  -8.5235  -8.5235  -8.5235  -8.5235
    -8.5026  -8.5025  -8.5025  -8.5025  -8.1755  -8.1755  -8.1755  -8.1755
     2.1187   2.1187   2.1188   2.1188   2.7354   2.7354   2.7354   2.7354
     2.8638   2.8638   2.8638   2.8638   2.9371   2.9371   2.9371   2.9371
     3.1162   3.1162   3.1162   3.1163   3.8226   3.8226   3.8226   3.8226
     3.9062   3.9062   3.9062   3.9062   4.0386   4.0386   4.0386   4.0386
     4.1258   4.1258   4.1258   4.1258   4.2928   4.2928   4.2928   4.2928
     4.6548   4.6549   4.6549   4.6549   5.0145   5.0145   5.0145   5.0145
     6.8638   6.8638   6.8638   6.8638   6.9264   6.9264   6.9264   6.9264
     7.2996   7.2996   7.2997   7.2997   7.4090   7.4090   7.4090   7.4090
     7.4702   7.4702   7.4702   7.4702   7.6443   7.6443   7.6443   7.6443
    11.6274  11.6274  11.6274  11.6274  11.8218  11.8218  11.8218  11.8218
    11.9169  11.9169  11.9170  11.9170  12.0116  12.0116  12.0116  12.0116
    12.5715  12.5715  12.5715  12.5715  12.7094  12.7094  12.7094  12.7094
    16.2349  16.2349  16.2349  16.2349  16.6836  16.6836  16.6836  16.6836
    17.1475  17.1475  17.1475  17.1475  17.4131

          k =-0.5000-0.4905 0.0000 ( 62976 PWs)   bands (ev):

   -66.2561 -66.2560 -66.2560 -66.2560 -66.2554 -66.2554 -66.2554 -66.2554
   -30.6053 -30.6053 -30.6046 -30.6046 -30.6008 -30.6008 -30.5993 -30.5993
   -30.5987 -30.5987 -30.5972 -30.5972 -30.5628 -30.5628 -30.5608 -30.5608
   -30.5571 -30.5571 -30.5550 -30.5550 -30.5140 -30.5140 -30.5138 -30.5138
   -20.4148 -20.4148 -20.4147 -20.4147 -20.4141 -20.4141 -20.4141 -20.4141
   -20.4024 -20.4024 -20.4024 -20.4024 -20.4023 -20.4023 -20.4023 -20.4023
   -20.3909 -20.3909 -20.3906 -20.3906 -20.3906 -20.3906 -20.3904 -20.3904
   -20.3888 -20.3888 -20.3887 -20.3887 -20.3880 -20.3880 -20.3879 -20.3879
   -20.3861 -20.3861 -20.3859 -20.3859 -20.3859 -20.3858 -20.3857 -20.3857
   -20.3841 -20.3841 -20.3840 -20.3840 -20.3787 -20.3787 -20.3787 -20.3787
   -20.3722 -20.3722 -20.3722 -20.3722 -20.3713 -20.3713 -20.3713 -20.3713
    -9.6008  -9.6008  -9.5906  -9.5906  -8.9263  -8.9263  -8.8798  -8.8798
    -8.7221  -8.7221  -8.6856  -8.6856  -8.4943  -8.4943  -8.4650  -8.4650
    -8.4342  -8.4342  -8.4093  -8.4093  -7.8709  -7.8709  -7.8704  -7.8704
     1.1893   1.1893   1.1941   1.1941   2.7548   2.7548   2.8091   2.8091
     2.8274   2.8274   2.8460   2.8461   3.0010   3.0010   3.0764   3.0765
     3.0911   3.0911   3.2266   3.2266   3.2586   3.2586   3.2986   3.2987
     3.3279   3.3279   3.5851   3.5851   4.2116   4.2116   4.2849   4.2849
     4.3086   4.3086   4.3709   4.3709   5.0362   5.0362   5.0866   5.0866
     5.3506   5.3506   5.4872   5.4872   6.0135   6.0135   6.0234   6.0234
     6.4120   6.4120   6.4358   6.4358   6.5227   6.5227   6.5641   6.5641
     7.1392   7.1392   7.1893   7.1893   7.3658   7.3658   7.3791   7.3791
     7.4529   7.4529   7.4964   7.4964   7.6346   7.6346   7.6642   7.6642
    10.9138  10.9138  11.0151  11.0151  11.1151  11.1151  11.2340  11.2340
    12.0147  12.0147  12.1477  12.1477  12.2741  12.2741  12.3218  12.3218
    13.0520  13.0520  13.0875  13.0875  13.4628  13.4628  13.4649  13.4649
    14.8180  14.8180  14.8436  14.8436  16.3080  16.3080  16.4732  16.4732
    17.2047  17.2047  17.2602  17.2603  17.3351

          k =-0.5000-0.4905 0.1669 ( 62980 PWs)   bands (ev):

   -66.2560 -66.2560 -66.2560 -66.2560 -66.2555 -66.2555 -66.2555 -66.2555
   -30.6041 -30.6041 -30.6028 -30.6028 -30.6003 -30.6003 -30.5980 -30.5980
   -30.5959 -30.5959 -30.5958 -30.5958 -30.5636 -30.5636 -30.5616 -30.5616
   -30.5563 -30.5562 -30.5542 -30.5542 -30.5187 -30.5187 -30.5186 -30.5186
   -20.4147 -20.4147 -20.4147 -20.4147 -20.4142 -20.4142 -20.4142 -20.4142
   -20.4024 -20.4024 -20.4024 -20.4024 -20.4023 -20.4023 -20.4023 -20.4023
   -20.3909 -20.3909 -20.3907 -20.3907 -20.3906 -20.3906 -20.3904 -20.3904
   -20.3887 -20.3887 -20.3887 -20.3887 -20.3881 -20.3881 -20.3880 -20.3880
   -20.3861 -20.3861 -20.3860 -20.3860 -20.3859 -20.3859 -20.3858 -20.3858
   -20.3836 -20.3836 -20.3836 -20.3836 -20.3791 -20.3791 -20.3791 -20.3790
   -20.3722 -20.3722 -20.3722 -20.3721 -20.3714 -20.3713 -20.3713 -20.3713
    -9.5311  -9.5311  -9.5194  -9.5194  -8.9413  -8.9413  -8.8959  -8.8959
    -8.7078  -8.7078  -8.6723  -8.6723  -8.4924  -8.4924  -8.4672  -8.4672
    -8.4320  -8.4320  -8.4121  -8.4121  -7.9803  -7.9803  -7.9795  -7.9795
     1.4354   1.4354   1.4410   1.4410   2.7639   2.7639   2.8115   2.8115
     2.8281   2.8281   2.8379   2.8379   3.0027   3.0027   3.0595   3.0595
     3.1583   3.1583   3.2521   3.2521   3.3006   3.3006   3.3460   3.3461
     3.3952   3.3952   3.6200   3.6200   4.2151   4.2151   4.2777   4.2777
     4.3117   4.3117   4.3605   4.3606   4.8041   4.8041   4.8470   4.8470
     5.0832   5.0832   5.1989   5.1989   5.6511   5.6511   5.6544   5.6544
     6.6557   6.6557   6.6810   6.6810   6.7225   6.7225   6.7691   6.7691
     7.1365   7.1365   7.1989   7.1989   7.3600   7.3600   7.3798   7.3799
     7.4459   7.4459   7.4989   7.4989   7.6148   7.6148   7.6554   7.6554
    11.0196  11.0196  11.1119  11.1119  11.2288  11.2288  11.3417  11.3417
    12.0255  12.0255  12.1477  12.1477  12.2793  12.2793  12.3168  12.3168
    12.8854  12.8854  12.9188  12.9188  13.2732  13.2732  13.2817  13.2817
    15.2100  15.2100  15.2230  15.2230  16.3947  16.3947  16.5516  16.5516
    17.1906  17.1906  17.2481  17.2482  17.3282

          k =-0.5000-0.4905 0.3338 ( 62956 PWs)   bands (ev):

   -66.2559 -66.2559 -66.2559 -66.2559 -66.2556 -66.2556 -66.2556 -66.2556
   -30.6028 -30.6028 -30.6010 -30.6010 -30.6007 -30.6007 -30.5986 -30.5986
   -30.5853 -30.5853 -30.5848 -30.5848 -30.5664 -30.5664 -30.5646 -30.5646
   -30.5530 -30.5530 -30.5512 -30.5512 -30.5310 -30.5310 -30.5306 -30.5306
   -20.4146 -20.4146 -20.4146 -20.4146 -20.4143 -20.4143 -20.4143 -20.4143
   -20.4024 -20.4024 -20.4024 -20.4024 -20.4024 -20.4024 -20.4023 -20.4023
   -20.3909 -20.3909 -20.3907 -20.3907 -20.3906 -20.3906 -20.3905 -20.3904
   -20.3886 -20.3886 -20.3885 -20.3885 -20.3882 -20.3882 -20.3881 -20.3881
   -20.3861 -20.3861 -20.3861 -20.3861 -20.3859 -20.3859 -20.3859 -20.3859
   -20.3826 -20.3826 -20.3826 -20.3826 -20.3800 -20.3800 -20.3800 -20.3800
   -20.3720 -20.3720 -20.3720 -20.3720 -20.3715 -20.3715 -20.3715 -20.3715
    -9.3467  -9.3467  -9.3297  -9.3297  -8.9980  -8.9980  -8.9572  -8.9572
    -8.6537  -8.6537  -8.6228  -8.6228  -8.4879  -8.4878  -8.4732  -8.4732
    -8.4266  -8.4266  -8.4213  -8.4213  -8.2375  -8.2375  -8.2351  -8.2351
     2.0755   2.0755   2.0881   2.0881   2.7792   2.7792   2.8043   2.8043
     2.8267   2.8267   2.8367   2.8368   3.0289   3.0289   3.0603   3.0603
     3.1975   3.1975   3.2846   3.2846   3.4004   3.4004   3.4184   3.4184
     3.6443   3.6443   3.7650   3.7650   4.2119   4.2119   4.2491   4.2491
     4.2833   4.2833   4.3121   4.3122   4.4079   4.4079   4.4455   4.4455
     4.6030   4.6030   4.7262   4.7262   4.8933   4.8933   4.9038   4.9038
     6.9449   6.9449   7.0071   7.0071   7.0268   7.0269   7.0704   7.0704
     7.1480   7.1480   7.2355   7.2355   7.3253   7.3253   7.4131   7.4131
     7.4191   7.4191   7.5054   7.5054   7.5715   7.5715   7.6191   7.6191
    11.3375  11.3375  11.3957  11.3957  11.5723  11.5723  11.6641  11.6641
    12.0288  12.0288  12.1522  12.1522  12.2613  12.2614  12.3027  12.3028
    12.4582  12.4582  12.5251  12.5251  12.7953  12.7953  12.8085  12.8085
    16.0971  16.0971  16.1552  16.1552  16.6593  16.6593  16.7812  16.7812
    17.1090  17.1090  17.1151  17.1151  17.3575

          k =-0.5000-0.4905-0.5007 ( 62904 PWs)   bands (ev):

   -66.2557 -66.2557 -66.2557 -66.2557 -66.2557 -66.2557 -66.2557 -66.2557
   -30.6017 -30.6017 -30.6017 -30.6017 -30.5997 -30.5997 -30.5997 -30.5997
   -30.5735 -30.5735 -30.5735 -30.5735 -30.5719 -30.5719 -30.5719 -30.5719
   -30.5449 -30.5449 -30.5449 -30.5449 -30.5435 -30.5435 -30.5435 -30.5435
   -20.4145 -20.4145 -20.4145 -20.4145 -20.4144 -20.4144 -20.4144 -20.4144
   -20.4024 -20.4024 -20.4024 -20.4024 -20.4024 -20.4024 -20.4024 -20.4023
   -20.3908 -20.3908 -20.3908 -20.3908 -20.3905 -20.3905 -20.3905 -20.3905
   -20.3884 -20.3884 -20.3884 -20.3884 -20.3883 -20.3883 -20.3883 -20.3883
   -20.3861 -20.3861 -20.3861 -20.3861 -20.3859 -20.3859 -20.3859 -20.3859
   -20.3813 -20.3813 -20.3813 -20.3813 -20.3813 -20.3813 -20.3812 -20.3812
   -20.3718 -20.3718 -20.3718 -20.3717 -20.3717 -20.3717 -20.3717 -20.3717
    -9.1339  -9.1339  -9.1339  -9.1339  -9.1041  -9.1041  -9.1041  -9.1041
    -8.5286  -8.5285  -8.5285  -8.5285  -8.5092  -8.5092  -8.5091  -8.5091
    -8.4513  -8.4513  -8.4513  -8.4513  -8.4062  -8.4062  -8.4062  -8.4062
     2.6543   2.6543   2.6543   2.6543   2.7761   2.7761   2.7761   2.7762
     2.8750   2.8750   2.8750   2.8750   3.0525   3.0525   3.0525   3.0525
     3.1758   3.1758   3.1758   3.1758   3.3250   3.3250   3.3250   3.3251
     4.0371   4.0371   4.0371   4.0371   4.1023   4.1023   4.1023   4.1023
     4.2113   4.2113   4.2113   4.2113   4.2677   4.2677   4.2677   4.2677
     4.3876   4.3876   4.3876   4.3876   4.4717   4.4717   4.4717   4.4717
     7.0601   7.0601   7.0601   7.0601   7.1922   7.1922   7.1922   7.1922
     7.2492   7.2492   7.2492   7.2493   7.3321   7.3321   7.3321   7.3321
     7.4832   7.4832   7.4832   7.4832   7.5598   7.5598   7.5598   7.5598
    11.7544  11.7544  11.7544  11.7544  11.8657  11.8657  11.8657  11.8657
    12.0726  12.0726  12.0726  12.0726  12.1891  12.1891  12.1891  12.1891
    12.2666  12.2666  12.2666  12.2666  12.3754  12.3754  12.3754  12.3754
    16.7263  16.7263  16.7263  16.7264  16.8784  16.8785  16.8785  16.8785
    17.3477  17.3477  17.3477  17.3477  17.4328

     the Fermi energy is     9.5410 ev

!    total energy              =   -6260.75718285 Ry
     Harris-Foulkes estimate   =   -6260.75718285 Ry
     estimated scf accuracy    <          1.1E-09 Ry

     The total energy is the sum of the following terms:

     one-electron contribution =   -4769.01598887 Ry
     hartree contribution      =    2620.26105138 Ry
     xc contribution           =    -966.14954348 Ry
     ewald contribution        =   -3145.85267044 Ry
     smearing contrib. (-TS)   =      -0.00003144 Ry

     convergence has been achieved in  13 iterations

     Writing output data file chempot_4.save/
 
     init_run     :     37.90s CPU     39.43s WALL (       1 calls)
     electrons    :   1851.50s CPU   1872.59s WALL (       1 calls)

     Called by init_run:
     wfcinit      :     34.39s CPU     35.79s WALL (       1 calls)
     potinit      :      1.38s CPU      1.41s WALL (       1 calls)
     hinit0       :      1.86s CPU      1.90s WALL (       1 calls)

     Called by electrons:
     c_bands      :   1615.03s CPU   1634.37s WALL (      13 calls)
     sum_band     :    228.17s CPU    229.20s WALL (      13 calls)
     v_of_rho     :      1.85s CPU      1.90s WALL (      14 calls)
     mix_rho      :      2.76s CPU      3.26s WALL (      13 calls)

     Called by c_bands:
     init_us_2    :      9.62s CPU     10.31s WALL (      54 calls)
     cegterg      :   1115.28s CPU   1133.15s WALL (      26 calls)

     Called by sum_band:

     Called by *egterg:
     h_psi        :    862.48s CPU    871.49s WALL (     123 calls)
     g_psi        :      3.84s CPU      3.85s WALL (      95 calls)
     cdiaghg      :     15.27s CPU     15.34s WALL (     121 calls)

     Called by h_psi:
     h_psi:pot    :    859.96s CPU    863.24s WALL (     123 calls)
     h_psi:calbec :    108.08s CPU    110.41s WALL (     123 calls)
     vloc_psi     :    637.56s CPU    638.20s WALL (     123 calls)
     add_vuspsi   :    114.32s CPU    114.62s WALL (     123 calls)

     General routines
     calbec       :    108.08s CPU    110.41s WALL (     123 calls)
     fft          :      0.80s CPU      0.80s WALL (      42 calls)
     ffts         :      0.26s CPU      0.26s WALL (      13 calls)
     fftw         :    654.04s CPU    654.39s WALL (   34100 calls)
 
     Parallel routines
 
     PWSCF        :  31m40.79s CPU  32m11.59s WALL

 
   This run was terminated on:  17:35:14  16Dec2019            

=------------------------------------------------------------------------------=
   JOB DONE.
=------------------------------------------------------------------------------=
