
     Program PWSCF v.6.2 (svn rev. 14038) starts on 29Apr2019 at 16:53:58 

     This program is part of the open-source Quantum ESPRESSO suite
     for quantum simulation of materials; please cite
         "P. Giannozzi et al., J. Phys.:Condens. Matter 21 395502 (2009);
         "P. Giannozzi et al., J. Phys.:Condens. Matter 29 465901 (2017);
          URL http://www.quantum-espresso.org", 
     in publications or presentations arising from this work. More details at
     http://www.quantum-espresso.org/quote

     Parallel version (MPI), running on    64 processors

     MPI processes distributed on    10 nodes
     K-points division:     npool     =      64
     Reading input from rscf.in

     Current dimensions of program PWSCF are:
     Max number of different atomic species (ntypx) = 10
     Max number of k-points (npk) =  40000
     Max angular momentum in pseudopotentials (lmaxx) =  3

     Subspace diagonalization in iterative solution of the eigenvalue problem:
     a serial algorithm will be used

 
     G-vector sticks info
     --------------------
     sticks:   dense  smooth     PW     G-vecs:    dense   smooth      PW
     Sum        7747    7747   2077               498127   498127   69057
 


     bravais-lattice index     =            0
     lattice parameter (alat)  =      13.8397  a.u.
     unit-cell volume          =    2804.9816 (a.u.)^3
     number of atoms/cell      =           32
     number of atomic types    =            2
     number of electrons       =       368.00
     number of Kohn-Sham states=          221
     kinetic-energy cutoff     =     120.0000  Ry
     charge density cutoff     =     480.0000  Ry
     convergence threshold     =      1.0E-08
     mixing beta               =       0.7000
     number of iterations used =            8  plain     mixing
     Exchange-correlation      = SLA PW NOGX NOGC ( 1  4  0  0 0 0)
     nstep                     =           50


     celldm(1)=  13.839685  celldm(2)=   0.000000  celldm(3)=   0.000000
     celldm(4)=   0.000000  celldm(5)=   0.000000  celldm(6)=   0.000000

     crystal axes: (cart. coord. in units of alat)
               a(1) = (   1.000000   0.000000   0.000000 )  
               a(2) = (   0.000000   1.058160   0.000000 )  
               a(3) = (   0.000000   0.000000   1.000000 )  

     reciprocal axes: (cart. coord. in units 2 pi/alat)
               b(1) = (  1.000000  0.000000  0.000000 )  
               b(2) = (  0.000000  0.945037  0.000000 )  
               b(3) = (  0.000000  0.000000  1.000000 )  


     PseudoPot. # 1 for W  read from file:
     /cluster/scratch/mnoe/QE/pps/W_ONCV_LDA-4.0.upf
     MD5 check sum: ba0307d5d4cd419d6f1d13dc49d7c13a
     Pseudo is Norm-conserving + core correction, Zval = 28.0
     Generated using ONCVPSP code by D. R. Hamann
     Using radial grid of 1380 points,  8 beta functions with: 
                l(1) =   0
                l(2) =   0
                l(3) =   1
                l(4) =   1
                l(5) =   2
                l(6) =   2
                l(7) =   3
                l(8) =   3

     PseudoPot. # 2 for O  read from file:
     /cluster/scratch/mnoe/QE/pps/O_ONCV_LDA-3.0.upf
     MD5 check sum: a1bd6164e7280c17a38c229939bfbd54
     Pseudo is Norm-conserving + core correction, Zval =  6.0
     Generated using ONCVPSP code by D. R. Hamann
     Using radial grid of  926 points,  5 beta functions with: 
                l(1) =   0
                l(2) =   0
                l(3) =   1
                l(4) =   1
                l(5) =   2

     atomic species   valence    mass     pseudopotential
        W             28.00   183.84000     W ( 1.00)
        O              6.00    15.99940     O ( 1.00)

      8 Sym. Ops., with inversion, found ( 6 have fractional translation)



   Cartesian axes

     site n.     atom                  positions (alat units)
         1           W   tau(   1) = (   0.2449100   0.2982530   0.0048000  )
         2           W   tau(   2) = (   0.7550900   0.7599071   0.9952000  )
         3           W   tau(   3) = (   0.2550900   0.2308271   0.5048000  )
         4           W   tau(   4) = (   0.7449100   0.8273330   0.4952000  )
         5           W   tau(   5) = (   0.7550900   0.2982530   0.4952000  )
         6           W   tau(   6) = (   0.2449100   0.7599071   0.5048000  )
         7           W   tau(   7) = (   0.7449100   0.2308271   0.9952000  )
         8           W   tau(   8) = (   0.2550900   0.8273330   0.0048000  )
         9           O   tau(   9) = (   0.2406200   0.0088039   0.0014900  )
        10           O   tau(  10) = (   0.7593800   1.0493562   0.9985100  )
        11           O   tau(  11) = (   0.2593800   0.5202761   0.5014900  )
        12           O   tau(  12) = (   0.7406200   0.5378839   0.4985100  )
        13           O   tau(  13) = (   0.7593800   0.0088039   0.4985100  )
        14           O   tau(  14) = (   0.2406200   1.0493562   0.5014900  )
        15           O   tau(  15) = (   0.7406200   0.5202761   0.9985100  )
        16           O   tau(  16) = (   0.2593800   0.5378839   0.0014900  )
        17           O   tau(  17) = (   0.5013900   0.2543499   0.4495400  )
        18           O   tau(  18) = (   0.4986100   0.8038101   0.5504600  )
        19           O   tau(  19) = (   0.9986100   0.2747301   0.9495400  )
        20           O   tau(  20) = (   0.0013900   0.7834300   0.0504600  )
        21           O   tau(  21) = (   0.4986100   0.2543499   0.0504600  )
        22           O   tau(  22) = (   0.5013900   0.8038101   0.9495400  )
        23           O   tau(  23) = (   0.0013900   0.2747301   0.5504600  )
        24           O   tau(  24) = (   0.9986100   0.7834300   0.4495400  )
        25           O   tau(  25) = (   0.6995400   0.2623179   0.7478900  )
        26           O   tau(  26) = (   0.3004600   0.7958422   0.2521100  )
        27           O   tau(  27) = (   0.8004600   0.2667621   0.2478900  )
        28           O   tau(  28) = (   0.1995400   0.7913979   0.7521100  )
        29           O   tau(  29) = (   0.3004600   0.2623179   0.7521100  )
        30           O   tau(  30) = (   0.6995400   0.7958422   0.2478900  )
        31           O   tau(  31) = (   0.1995400   0.2667621   0.2521100  )
        32           O   tau(  32) = (   0.8004600   0.7913979   0.7478900  )

     number of k points=    64  gaussian smearing, width (Ry)=  0.0007
                       cart. coord. in units 2pi/alat
        k(    1) = (   0.0000000   0.0000000   0.0000000), wk =   0.0092593
        k(    2) = (   0.0000000   0.0000000   0.1666667), wk =   0.0185185
        k(    3) = (   0.0000000   0.0000000   0.3333333), wk =   0.0185185
        k(    4) = (   0.0000000   0.0000000  -0.5000000), wk =   0.0092593
        k(    5) = (   0.0000000   0.1575061   0.0000000), wk =   0.0185185
        k(    6) = (   0.0000000   0.1575061   0.1666667), wk =   0.0370370
        k(    7) = (   0.0000000   0.1575061   0.3333333), wk =   0.0370370
        k(    8) = (   0.0000000   0.1575061  -0.5000000), wk =   0.0185185
        k(    9) = (   0.0000000   0.3150122   0.0000000), wk =   0.0185185
        k(   10) = (   0.0000000   0.3150122   0.1666667), wk =   0.0370370
        k(   11) = (   0.0000000   0.3150122   0.3333333), wk =   0.0370370
        k(   12) = (   0.0000000   0.3150122  -0.5000000), wk =   0.0185185
        k(   13) = (   0.0000000  -0.4725183   0.0000000), wk =   0.0092593
        k(   14) = (   0.0000000  -0.4725183   0.1666667), wk =   0.0185185
        k(   15) = (   0.0000000  -0.4725183   0.3333333), wk =   0.0185185
        k(   16) = (   0.0000000  -0.4725183  -0.5000000), wk =   0.0092593
        k(   17) = (   0.1666667   0.0000000   0.1666667), wk =   0.0370370
        k(   18) = (   0.1666667   0.0000000   0.3333333), wk =   0.0370370
        k(   19) = (   0.1666667   0.0000000  -0.5000000), wk =   0.0185185
        k(   20) = (   0.1666667   0.1575061   0.1666667), wk =   0.0740741
        k(   21) = (   0.1666667   0.1575061   0.3333333), wk =   0.0740741
        k(   22) = (   0.1666667   0.1575061  -0.5000000), wk =   0.0370370
        k(   23) = (   0.1666667   0.3150122   0.1666667), wk =   0.0740741
        k(   24) = (   0.1666667   0.3150122   0.3333333), wk =   0.0740741
        k(   25) = (   0.1666667   0.3150122  -0.5000000), wk =   0.0370370
        k(   26) = (   0.1666667  -0.4725183   0.1666667), wk =   0.0370370
        k(   27) = (   0.1666667  -0.4725183   0.3333333), wk =   0.0370370
        k(   28) = (   0.1666667  -0.4725183  -0.5000000), wk =   0.0185185
        k(   29) = (   0.3333333   0.0000000   0.3333333), wk =   0.0370370
        k(   30) = (   0.3333333   0.0000000  -0.5000000), wk =   0.0185185
        k(   31) = (   0.3333333   0.1575061   0.3333333), wk =   0.0740741
        k(   32) = (   0.3333333   0.1575061  -0.5000000), wk =   0.0370370
        k(   33) = (   0.3333333   0.3150122   0.3333333), wk =   0.0740741
        k(   34) = (   0.3333333   0.3150122  -0.5000000), wk =   0.0370370
        k(   35) = (   0.3333333  -0.4725183   0.3333333), wk =   0.0370370
        k(   36) = (   0.3333333  -0.4725183  -0.5000000), wk =   0.0185185
        k(   37) = (  -0.5000000   0.0000000  -0.5000000), wk =   0.0092593
        k(   38) = (  -0.5000000   0.1575061  -0.5000000), wk =   0.0185185
        k(   39) = (  -0.5000000   0.3150122  -0.5000000), wk =   0.0185185
        k(   40) = (  -0.5000000  -0.4725183  -0.5000000), wk =   0.0092593
        k(   41) = (   0.1666667   0.0000000   0.0000000), wk =   0.0185185
        k(   42) = (   0.3333333   0.0000000   0.0000000), wk =   0.0185185
        k(   43) = (  -0.5000000   0.0000000   0.0000000), wk =   0.0092593
        k(   44) = (   0.1666667  -0.1575061   0.0000000), wk =   0.0370370
        k(   45) = (   0.3333333  -0.1575061   0.0000000), wk =   0.0370370
        k(   46) = (  -0.5000000  -0.1575061   0.0000000), wk =   0.0185185
        k(   47) = (   0.1666667  -0.3150122   0.0000000), wk =   0.0370370
        k(   48) = (   0.3333333  -0.3150122   0.0000000), wk =   0.0370370
        k(   49) = (  -0.5000000  -0.3150122   0.0000000), wk =   0.0185185
        k(   50) = (   0.1666667   0.4725183   0.0000000), wk =   0.0185185
        k(   51) = (   0.3333333   0.4725183   0.0000000), wk =   0.0185185
        k(   52) = (  -0.5000000   0.4725183   0.0000000), wk =   0.0092593
        k(   53) = (   0.3333333   0.0000000   0.1666667), wk =   0.0370370
        k(   54) = (  -0.5000000   0.0000000   0.1666667), wk =   0.0185185
        k(   55) = (   0.3333333  -0.1575061   0.1666667), wk =   0.0740741
        k(   56) = (  -0.5000000  -0.1575061   0.1666667), wk =   0.0370370
        k(   57) = (   0.3333333  -0.3150122   0.1666667), wk =   0.0740741
        k(   58) = (  -0.5000000  -0.3150122   0.1666667), wk =   0.0370370
        k(   59) = (   0.3333333   0.4725183   0.1666667), wk =   0.0370370
        k(   60) = (  -0.5000000   0.4725183   0.1666667), wk =   0.0185185
        k(   61) = (  -0.5000000   0.0000000   0.3333333), wk =   0.0185185
        k(   62) = (  -0.5000000  -0.1575061   0.3333333), wk =   0.0370370
        k(   63) = (  -0.5000000  -0.3150122   0.3333333), wk =   0.0370370
        k(   64) = (  -0.5000000   0.4725183   0.3333333), wk =   0.0185185

     Dense  grid:   498127 G-vectors     FFT dimensions: ( 100, 108, 100)

     Estimated max dynamical RAM per process >       2.74 GB

     Estimated total dynamical RAM >     175.05 GB

     Initial potential from superposition of free atoms

     starting charge  367.99656, renormalised to  368.00000
     Starting wfc are  232 randomized atomic wfcs

     total cpu time spent up to now is       42.9 secs

     Self-consistent Calculation

     iteration #  1     ecut=   120.00 Ry     beta= 0.70
     Davidson diagonalization with overlap
     ethr =  1.00E-02,  avg # of iterations =  5.0

     total cpu time spent up to now is      115.9 secs

     total energy              =   -6253.97559775 Ry
     Harris-Foulkes estimate   =   -6264.58413529 Ry
     estimated scf accuracy    <      13.43131624 Ry

     iteration #  2     ecut=   120.00 Ry     beta= 0.70
     Davidson diagonalization with overlap
     ethr =  3.65E-03,  avg # of iterations =  3.5

     total cpu time spent up to now is      186.6 secs

     total energy              =   -6250.77856444 Ry
     Harris-Foulkes estimate   =   -6270.86808305 Ry
     estimated scf accuracy    <      54.11074187 Ry

     iteration #  3     ecut=   120.00 Ry     beta= 0.70
     Davidson diagonalization with overlap
     ethr =  3.65E-03,  avg # of iterations =  3.3

     total cpu time spent up to now is      251.6 secs

     total energy              =   -6261.08568743 Ry
     Harris-Foulkes estimate   =   -6261.38613362 Ry
     estimated scf accuracy    <       0.97933536 Ry

     iteration #  4     ecut=   120.00 Ry     beta= 0.70
     Davidson diagonalization with overlap
     ethr =  2.66E-04,  avg # of iterations =  2.9

     total cpu time spent up to now is      306.7 secs

     total energy              =   -6261.09804054 Ry
     Harris-Foulkes estimate   =   -6261.16972542 Ry
     estimated scf accuracy    <       0.24513110 Ry

     iteration #  5     ecut=   120.00 Ry     beta= 0.70
     Davidson diagonalization with overlap
     ethr =  6.66E-05,  avg # of iterations =  4.7

     total cpu time spent up to now is      365.0 secs

     total energy              =   -6261.09218386 Ry
     Harris-Foulkes estimate   =   -6261.12769348 Ry
     estimated scf accuracy    <       0.07771046 Ry

     iteration #  6     ecut=   120.00 Ry     beta= 0.70
     Davidson diagonalization with overlap
     ethr =  2.11E-05,  avg # of iterations =  5.3

     total cpu time spent up to now is      427.2 secs

     total energy              =   -6261.10947700 Ry
     Harris-Foulkes estimate   =   -6261.11148658 Ry
     estimated scf accuracy    <       0.00551762 Ry

     iteration #  7     ecut=   120.00 Ry     beta= 0.70
     Davidson diagonalization with overlap
     ethr =  1.50E-06,  avg # of iterations =  4.5

     total cpu time spent up to now is      487.4 secs

     total energy              =   -6261.11013405 Ry
     Harris-Foulkes estimate   =   -6261.11022969 Ry
     estimated scf accuracy    <       0.00020510 Ry

     iteration #  8     ecut=   120.00 Ry     beta= 0.70
     Davidson diagonalization with overlap
     ethr =  5.57E-08,  avg # of iterations =  3.1

     total cpu time spent up to now is      556.5 secs

     total energy              =   -6261.11019450 Ry
     Harris-Foulkes estimate   =   -6261.11020262 Ry
     estimated scf accuracy    <       0.00002378 Ry

     iteration #  9     ecut=   120.00 Ry     beta= 0.70
     Davidson diagonalization with overlap
     ethr =  6.46E-09,  avg # of iterations =  2.7

     total cpu time spent up to now is      617.7 secs

     total energy              =   -6261.11019737 Ry
     Harris-Foulkes estimate   =   -6261.11020047 Ry
     estimated scf accuracy    <       0.00001425 Ry

     iteration # 10     ecut=   120.00 Ry     beta= 0.70
     Davidson diagonalization with overlap
     ethr =  3.87E-09,  avg # of iterations =  1.9

     total cpu time spent up to now is      671.7 secs

     total energy              =   -6261.11019601 Ry
     Harris-Foulkes estimate   =   -6261.11019831 Ry
     estimated scf accuracy    <       0.00000516 Ry

     iteration # 11     ecut=   120.00 Ry     beta= 0.70
     Davidson diagonalization with overlap
     ethr =  1.40E-09,  avg # of iterations =  2.7

     total cpu time spent up to now is      731.5 secs

     total energy              =   -6261.11019712 Ry
     Harris-Foulkes estimate   =   -6261.11019717 Ry
     estimated scf accuracy    <       0.00000013 Ry

     iteration # 12     ecut=   120.00 Ry     beta= 0.70
     Davidson diagonalization with overlap
     ethr =  3.49E-11,  avg # of iterations =  2.0

     total cpu time spent up to now is      794.8 secs

     total energy              =   -6261.11019713 Ry
     Harris-Foulkes estimate   =   -6261.11019715 Ry
     estimated scf accuracy    <       0.00000003 Ry

     iteration # 13     ecut=   120.00 Ry     beta= 0.70
     Davidson diagonalization with overlap
     ethr =  7.30E-12,  avg # of iterations =  2.2

     total cpu time spent up to now is      850.2 secs

     End of self-consistent calculation

          k = 0.0000 0.0000 0.0000 ( 62239 PWs)   bands (ev):

   -66.1747 -66.1743 -66.1737 -66.1736 -66.1733 -66.1733 -66.1726 -66.1723
   -30.5623 -30.5582 -30.5578 -30.5540 -30.5262 -30.5211 -30.5206 -30.5205
   -30.5177 -30.5162 -30.5148 -30.5138 -30.4974 -30.4970 -30.4957 -30.4947
   -30.4230 -30.4207 -30.4199 -30.4191 -30.4169 -30.4169 -30.4152 -30.4124
   -20.3359 -20.3358 -20.3358 -20.3357 -20.3357 -20.3357 -20.3356 -20.3356
   -20.3171 -20.3168 -20.3168 -20.3165 -20.3141 -20.3139 -20.3136 -20.3135
   -20.3131 -20.3129 -20.3128 -20.3126 -20.3124 -20.3124 -20.3123 -20.3118
   -20.3117 -20.3113 -20.3110 -20.3110 -20.3107 -20.3106 -20.3105 -20.3102
   -20.3038 -20.3037 -20.3034 -20.3034 -20.3032 -20.3029 -20.3028 -20.3027
   -20.2992 -20.2990 -20.2990 -20.2989 -20.2988 -20.2987 -20.2986 -20.2985
   -20.2951 -20.2949 -20.2949 -20.2948 -20.2947 -20.2942 -20.2938 -20.2936
    -9.9490  -9.6787  -9.5055  -9.4971  -9.2532  -9.2366  -9.0547  -9.0468
    -9.0422  -8.8585  -8.8375  -8.8326  -7.8532  -7.7954  -7.7863  -7.7824
    -7.7823  -7.7680  -7.7640  -7.7299  -7.6411  -7.6324  -7.6191  -7.6127
     1.1888   1.1894   1.2679   1.2794   1.2850   1.3005   1.3908   1.6381
     1.6520   1.6588   1.6629   1.8648   2.3791   2.4535   2.5908   2.5927
     2.7405   2.7406   4.1257   4.1448   4.3403   4.3699   4.8267   4.8276
     4.8291   4.8496   4.8563   4.8611   5.0570   5.0611   5.0920   5.4474
     5.4644   5.5054   5.5339   5.5363   5.5364   5.5849   5.6178   5.8172
     5.8331   5.8794   5.8816   5.9205   5.9655   6.0134   6.0250   6.0970
     6.1028   6.2359   6.2453   6.5600   6.5723   6.8075   6.8284   6.8378
     6.8506   6.8639   6.9939   7.0105   7.0645   7.0797   7.3583   7.3778
     7.4029   7.4223   7.7659   7.7800   8.0600   8.0767   8.1285   8.1460
     9.2742   9.2774   9.9991  10.0071  10.0350  10.0439  12.2113  12.2462
    12.2472  12.2999  12.3104  12.3233  12.4879  12.5010  12.7843  12.8344
    13.2287  13.2451  13.3711  13.3955  13.7236  14.0258  14.1265  14.1319
    14.1799  14.3337  14.4200  14.9097  15.4029  15.4166  15.4323  16.0268
    16.0288  16.7838  17.0175  17.0290  17.4978

          k = 0.0000 0.0000 0.1667 ( 62262 PWs)   bands (ev):

   -66.1746 -66.1742 -66.1737 -66.1736 -66.1733 -66.1732 -66.1727 -66.1723
   -30.5622 -30.5585 -30.5578 -30.5543 -30.5222 -30.5191 -30.5185 -30.5165
   -30.5151 -30.5142 -30.5128 -30.5080 -30.4974 -30.4961 -30.4951 -30.4944
   -30.4297 -30.4274 -30.4255 -30.4231 -30.4196 -30.4166 -30.4157 -30.4128
   -20.3359 -20.3358 -20.3358 -20.3357 -20.3357 -20.3357 -20.3356 -20.3356
   -20.3171 -20.3168 -20.3168 -20.3166 -20.3140 -20.3138 -20.3135 -20.3134
   -20.3132 -20.3129 -20.3128 -20.3127 -20.3125 -20.3124 -20.3123 -20.3118
   -20.3116 -20.3113 -20.3110 -20.3110 -20.3107 -20.3106 -20.3106 -20.3103
   -20.3037 -20.3034 -20.3034 -20.3030 -20.3029 -20.3027 -20.3027 -20.3025
   -20.2994 -20.2992 -20.2992 -20.2990 -20.2987 -20.2986 -20.2985 -20.2983
   -20.2953 -20.2952 -20.2951 -20.2950 -20.2947 -20.2946 -20.2939 -20.2939
    -9.9010  -9.6238  -9.5144  -9.4414  -9.2514  -9.1636  -9.0557  -9.0153
    -9.0015  -8.8483  -8.8372  -8.8100  -7.9160  -7.9051  -7.8480  -7.7901
    -7.7806  -7.7716  -7.7708  -7.7523  -7.7462  -7.7333  -7.6422  -7.6224
     1.2758   1.2852   1.2879   1.3068   1.4558   1.4732   1.5372   1.6510
     1.6552   1.7061   1.8030   1.9759   2.4671   2.5450   2.6021   2.6795
     2.7321   2.8283   4.0829   4.1247   4.3552   4.3619   4.3666   4.4621
     4.6859   4.8049   4.8184   4.8936   4.8967   5.0483   5.0781   5.2827
     5.3376   5.4353   5.5057   5.5292   5.5728   5.6249   5.6300   5.6335
     5.7178   5.7683   5.8212   5.9211   5.9761   6.0630   6.1027   6.1405
     6.2505   6.3900   6.4724   6.5612   6.6757   6.7093   6.7943   6.8275
     6.8426   6.8439   6.9608   7.0043   7.0089   7.0879   7.1468   7.1506
     7.1958   7.2621   7.7867   7.7888   8.0356   8.0761   8.1034   8.1300
     9.6158   9.6416  10.0062  10.0321  10.2640  10.3194  12.1479  12.2090
    12.2724  12.2960  12.3037  12.3620  12.5039  12.5832  12.8457  12.8477
    13.0375  13.2368  13.2748  13.3720  13.8327  13.9864  14.0059  14.0240
    14.1907  14.4144  14.4533  15.0206  15.3981  15.4333  15.4691  15.9987
    16.3347  16.7786  16.9539  17.2058  17.5491

          k = 0.0000 0.0000 0.3333 ( 62268 PWs)   bands (ev):

   -66.1744 -66.1740 -66.1739 -66.1735 -66.1734 -66.1730 -66.1729 -66.1725
   -30.5616 -30.5594 -30.5573 -30.5552 -30.5202 -30.5179 -30.5175 -30.5151
   -30.5070 -30.5043 -30.4986 -30.4964 -30.4948 -30.4899 -30.4897 -30.4869
   -30.4475 -30.4455 -30.4431 -30.4410 -30.4188 -30.4166 -30.4158 -30.4136
   -20.3359 -20.3358 -20.3358 -20.3357 -20.3357 -20.3357 -20.3356 -20.3356
   -20.3171 -20.3169 -20.3168 -20.3167 -20.3138 -20.3136 -20.3133 -20.3133
   -20.3132 -20.3130 -20.3128 -20.3128 -20.3127 -20.3125 -20.3122 -20.3119
   -20.3116 -20.3114 -20.3110 -20.3109 -20.3107 -20.3107 -20.3107 -20.3104
   -20.3036 -20.3035 -20.3029 -20.3028 -20.3022 -20.3020 -20.3016 -20.3014
   -20.2999 -20.2999 -20.2996 -20.2995 -20.2982 -20.2982 -20.2980 -20.2977
   -20.2963 -20.2960 -20.2960 -20.2955 -20.2949 -20.2945 -20.2943 -20.2941
    -9.7843  -9.5675  -9.4965  -9.2962  -9.2897  -9.0862  -8.9202  -8.9087
    -8.8572  -8.8502  -8.7831  -8.7010  -8.2164  -8.2139  -8.1103  -8.0905
    -7.8271  -7.8004  -7.7669  -7.7433  -7.7425  -7.7246  -7.6689  -7.6492
     1.2956   1.3083   1.3232   1.3468   1.5813   1.6005   1.6354   1.6387
     2.2286   2.2649   2.4368   2.5171   2.6269   2.7203   2.7212   2.8130
     2.9199   3.0595   3.7419   3.8356   3.8536   3.9341   4.1984   4.2463
     4.3017   4.5234   4.5320   4.7831   4.7996   4.8137   4.9341   5.0203
     5.1699   5.1722   5.1979   5.3484   5.4561   5.4657   5.6451   5.6778
     5.7263   5.7636   5.7996   5.9809   6.0036   6.1463   6.2211   6.2831
     6.3250   6.4033   6.5227   6.5531   6.5772   6.5778   6.6021   6.7553
     6.8267   6.8457   6.8467   6.9855   7.0279   7.0359   7.0824   7.1172
     7.3167   7.3579   7.7334   7.7525   7.9072   7.9668   8.1122   8.1321
     9.9931  10.0235  10.3301  10.4098  10.8699  10.9821  11.7889  11.8405
    12.0752  12.4277  12.4478  12.4932  12.5268  12.5662  12.6782  12.8300
    12.8451  13.0731  13.1521  13.3824  13.6566  13.6840  13.9787  14.0191
    14.2682  14.3962  14.7661  15.2881  15.2982  15.5746  15.8623  15.9130
    16.2573  17.1731  17.3736  17.4924  17.7777

          k = 0.0000 0.0000-0.5000 ( 62264 PWs)   bands (ev):

   -66.1742 -66.1742 -66.1738 -66.1738 -66.1731 -66.1731 -66.1728 -66.1728
   -30.5606 -30.5606 -30.5564 -30.5564 -30.5188 -30.5188 -30.5165 -30.5165
   -30.5009 -30.5009 -30.4987 -30.4987 -30.4709 -30.4709 -30.4702 -30.4702
   -30.4665 -30.4665 -30.4655 -30.4655 -30.4177 -30.4177 -30.4147 -30.4147
   -20.3358 -20.3358 -20.3358 -20.3357 -20.3357 -20.3357 -20.3356 -20.3356
   -20.3170 -20.3170 -20.3167 -20.3167 -20.3136 -20.3136 -20.3133 -20.3133
   -20.3131 -20.3131 -20.3130 -20.3130 -20.3126 -20.3126 -20.3121 -20.3121
   -20.3115 -20.3115 -20.3109 -20.3109 -20.3108 -20.3108 -20.3106 -20.3106
   -20.3036 -20.3036 -20.3028 -20.3028 -20.3009 -20.3009 -20.3009 -20.3009
   -20.3004 -20.3004 -20.3004 -20.3004 -20.2974 -20.2974 -20.2973 -20.2972
   -20.2971 -20.2971 -20.2967 -20.2967 -20.2947 -20.2947 -20.2944 -20.2944
    -9.6595  -9.6595  -9.3758  -9.3758  -9.1556  -9.1556  -8.8715  -8.8715
    -8.5793  -8.5792  -8.5497  -8.5496  -8.5299  -8.5298  -8.4497  -8.4496
    -7.8144  -7.8144  -7.7549  -7.7549  -7.7059  -7.7059  -7.6864  -7.6864
     1.3047   1.3047   1.3423   1.3423   1.6184   1.6184   1.6218   1.6218
     2.6580   2.6580   2.9597   2.9597   3.0930   3.0931   3.1403   3.1404
     3.2676   3.2676   3.3062   3.3062   3.4491   3.4491   3.7656   3.7656
     3.8988   3.8988   4.4475   4.4475   4.7329   4.7329   4.9160   4.9160
     5.2425   5.2425   5.3182   5.3183   5.3325   5.3325   5.6895   5.6895
     5.7537   5.7537   5.9457   5.9457   6.1606   6.1606   6.2551   6.2551
     6.3028   6.3028   6.4396   6.4396   6.4913   6.4913   6.5304   6.5304
     6.7803   6.7803   6.8353   6.8353   7.0619   7.0619   7.4762   7.4763
     7.5324   7.5324   7.6800   7.6801   7.7176   7.7176   8.1291   8.1291
    10.0104  10.0104  11.1181  11.1181  11.1926  11.1926  11.5555  11.5555
    11.7716  11.7716  12.5385  12.5385  12.6318  12.6318  12.7605  12.7605
    12.8967  12.8967  13.2381  13.2381  13.4420  13.4420  14.0111  14.0111
    14.3558  14.3558  15.0806  15.0806  15.7214  15.7214  15.7665  15.7665
    16.6256  16.6256  17.8453  17.8453  18.1604

          k = 0.0000 0.1575 0.0000 ( 62231 PWs)   bands (ev):

   -66.1746 -66.1743 -66.1736 -66.1736 -66.1733 -66.1733 -66.1726 -66.1723
   -30.5586 -30.5545 -30.5540 -30.5502 -30.5265 -30.5212 -30.5209 -30.5208
   -30.5173 -30.5172 -30.5149 -30.5134 -30.5009 -30.5008 -30.4988 -30.4978
   -30.4229 -30.4208 -30.4197 -30.4190 -30.4171 -30.4170 -30.4150 -30.4126
   -20.3359 -20.3358 -20.3358 -20.3357 -20.3357 -20.3357 -20.3356 -20.3356
   -20.3168 -20.3165 -20.3165 -20.3162 -20.3142 -20.3138 -20.3136 -20.3134
   -20.3132 -20.3129 -20.3127 -20.3127 -20.3124 -20.3124 -20.3123 -20.3118
   -20.3117 -20.3114 -20.3113 -20.3110 -20.3109 -20.3108 -20.3107 -20.3104
   -20.3038 -20.3036 -20.3034 -20.3034 -20.3032 -20.3029 -20.3029 -20.3028
   -20.2992 -20.2990 -20.2990 -20.2989 -20.2988 -20.2987 -20.2986 -20.2985
   -20.2951 -20.2949 -20.2948 -20.2948 -20.2947 -20.2943 -20.2938 -20.2936
    -9.9217  -9.6899  -9.4725  -9.4631  -9.2603  -9.2440  -9.0538  -9.0430
    -8.9739  -8.8112  -8.7965  -8.7924  -7.9406  -7.8836  -7.8805  -7.8352
    -7.7938  -7.7871  -7.7698  -7.7657  -7.6397  -7.6321  -7.6210  -7.6142
     1.1888   1.1893   1.2734   1.2794   1.2921   1.3005   1.5067   1.6374
     1.8352   1.8852   1.8910   2.0524   2.3839   2.4483   2.6626   2.6638
     2.8074   2.8086   3.9946   4.0161   4.0842   4.1090   4.7679   4.8259
     4.8310   4.8412   4.8504   4.9217   4.9767   5.0102   5.0148   5.2875
     5.2980   5.4695   5.4699   5.6059   5.6165   5.6217   5.6399   5.6708
     5.8055   5.8143   5.8879   5.8955   5.9600   6.0213   6.0288   6.1018
     6.1043   6.2252   6.2433   6.5815   6.5954   6.8153   6.8428   6.8592
     6.8723   6.8836   6.8837   6.9925   6.9927   6.9978   7.3676   7.3844
     7.4047   7.4210   7.7706   7.7792   8.0229   8.0359   8.0527   8.0645
     9.2748   9.2785  10.1974  10.2010  10.2055  10.2074  12.1336  12.1544
    12.2597  12.2647  12.2998  12.3118  12.3343  12.3453  12.7905  12.8336
    13.2616  13.2759  13.3766  13.3984  13.9340  13.9900  14.0309  14.0428
    14.2065  14.6102  14.6412  15.0687  15.4030  15.4145  15.8335  15.9925
    15.9960  16.4991  17.1484  17.1609  17.5140

          k = 0.0000 0.1575 0.1667 ( 62237 PWs)   bands (ev):

   -66.1746 -66.1742 -66.1737 -66.1736 -66.1734 -66.1732 -66.1727 -66.1723
   -30.5585 -30.5548 -30.5540 -30.5505 -30.5232 -30.5188 -30.5186 -30.5175
   -30.5155 -30.5138 -30.5128 -30.5081 -30.5012 -30.4994 -30.4982 -30.4974
   -30.4295 -30.4275 -30.4253 -30.4233 -30.4194 -30.4168 -30.4155 -30.4130
   -20.3359 -20.3358 -20.3358 -20.3357 -20.3357 -20.3357 -20.3356 -20.3356
   -20.3168 -20.3165 -20.3165 -20.3162 -20.3141 -20.3138 -20.3136 -20.3134
   -20.3133 -20.3129 -20.3128 -20.3128 -20.3125 -20.3124 -20.3124 -20.3118
   -20.3117 -20.3114 -20.3113 -20.3110 -20.3109 -20.3109 -20.3107 -20.3105
   -20.3036 -20.3034 -20.3034 -20.3030 -20.3029 -20.3028 -20.3027 -20.3025
   -20.2994 -20.2992 -20.2992 -20.2990 -20.2987 -20.2986 -20.2985 -20.2983
   -20.2953 -20.2952 -20.2951 -20.2950 -20.2947 -20.2946 -20.2939 -20.2939
    -9.8726  -9.6350  -9.4805  -9.4041  -9.2590  -9.1709  -9.0142  -9.0024
    -8.9827  -8.8025  -8.7970  -8.7732  -7.9449  -7.9155  -7.9145  -7.8823
    -7.8624  -7.8443  -7.7736  -7.7704  -7.7538  -7.7471  -7.6419  -7.6239
     1.2815   1.2851   1.2969   1.3067   1.5104   1.5370   1.6077   1.8022
     1.8435   1.8844   1.9013   2.1034   2.4728   2.5395   2.6728   2.7531
     2.7995   2.8962   3.9839   4.0085   4.0974   4.1209   4.3944   4.4590
     4.7261   4.7508   4.7541   4.8863   4.8873   4.9679   5.0193   5.2431
     5.2446   5.2914   5.3349   5.4868   5.5727   5.5812   5.6328   5.7100
     5.7139   5.7535   5.8314   5.8612   5.8659   6.0786   6.0950   6.1726
     6.1934   6.3722   6.4517   6.5834   6.7175   6.7760   6.8058   6.8158
     6.8530   6.8825   6.9457   6.9574   7.0078   7.0155   7.1475   7.1509
     7.2144   7.2613   7.7881   7.7893   7.9970   8.0253   8.0273   8.0549
     9.6212   9.6440  10.2006  10.2066  10.4260  10.4553  12.1193  12.1984
    12.2003  12.2225  12.3076  12.3121  12.3487  12.4604  12.8476  12.8532
    13.0722  13.2651  13.2773  13.3754  13.8881  13.9158  13.9653  13.9887
    14.2931  14.6339  14.7538  15.1659  15.4321  15.4697  15.8002  15.9650
    16.2996  16.6589  16.9042  17.3173  17.5762

          k = 0.0000 0.1575 0.3333 ( 62284 PWs)   bands (ev):

   -66.1744 -66.1740 -66.1739 -66.1735 -66.1734 -66.1730 -66.1729 -66.1725
   -30.5579 -30.5557 -30.5536 -30.5514 -30.5212 -30.5185 -30.5175 -30.5148
   -30.5089 -30.5062 -30.5023 -30.4994 -30.4949 -30.4914 -30.4900 -30.4882
   -30.4474 -30.4457 -30.4430 -30.4412 -30.4186 -30.4164 -30.4160 -30.4138
   -20.3359 -20.3358 -20.3358 -20.3357 -20.3357 -20.3357 -20.3356 -20.3356
   -20.3168 -20.3166 -20.3165 -20.3163 -20.3139 -20.3136 -20.3134 -20.3134
   -20.3132 -20.3130 -20.3129 -20.3128 -20.3127 -20.3125 -20.3123 -20.3120
   -20.3117 -20.3115 -20.3113 -20.3110 -20.3109 -20.3109 -20.3107 -20.3106
   -20.3036 -20.3035 -20.3029 -20.3028 -20.3022 -20.3020 -20.3016 -20.3015
   -20.2999 -20.2999 -20.2996 -20.2995 -20.2982 -20.2982 -20.2980 -20.2977
   -20.2963 -20.2961 -20.2960 -20.2956 -20.2949 -20.2946 -20.2943 -20.2942
    -9.7534  -9.5338  -9.5072  -9.3045  -9.2382  -9.0140  -8.9163  -8.9062
    -8.8587  -8.8104  -8.7527  -8.6782  -8.2219  -8.2118  -8.1238  -8.0885
    -7.9147  -7.8927  -7.8645  -7.8387  -7.7448  -7.7262  -7.6689  -7.6507
     1.3094   1.3231   1.3298   1.3466   1.7703   1.7969   1.8747   1.8831
     2.2272   2.2792   2.4381   2.5378   2.6968   2.7301   2.7760   2.8162
     2.9945   3.1206   3.7420   3.8296   3.8469   3.8853   4.1059   4.1168
     4.2562   4.3728   4.5505   4.6944   4.7656   4.7857   4.8133   4.9084
     5.0472   5.1408   5.1632   5.1678   5.3848   5.4183   5.4776   5.6280
     5.6951   5.7512   5.8000   5.8461   5.9548   6.1291   6.1864   6.2225
     6.3549   6.5439   6.5671   6.5747   6.5929   6.6673   6.7141   6.7801
     6.8242   6.8297   6.9201   6.9526   6.9972   7.0258   7.0675   7.1050
     7.3114   7.3505   7.7362   7.7509   7.8744   7.9076   8.0450   8.0578
    10.1807  10.2033  10.3389  10.4173  10.9820  11.0704  11.7899  11.8380
    12.0435  12.3593  12.3989  12.4672  12.4733  12.5391  12.6333  12.7346
    12.8264  13.0704  13.1638  13.3770  13.5584  13.6004  13.9826  13.9860
    14.4833  14.6166  15.1106  15.4158  15.5635  15.6935  15.8816  15.8844
    16.3838  17.1262  17.1459  17.4233  17.7819

          k = 0.0000 0.1575-0.5000 ( 62234 PWs)   bands (ev):

   -66.1741 -66.1741 -66.1738 -66.1738 -66.1731 -66.1731 -66.1728 -66.1728
   -30.5569 -30.5569 -30.5526 -30.5526 -30.5198 -30.5198 -30.5161 -30.5161
   -30.5044 -30.5044 -30.5015 -30.5015 -30.4711 -30.4711 -30.4703 -30.4703
   -30.4666 -30.4666 -30.4656 -30.4656 -30.4175 -30.4175 -30.4149 -30.4149
   -20.3358 -20.3358 -20.3358 -20.3358 -20.3357 -20.3357 -20.3356 -20.3356
   -20.3167 -20.3167 -20.3164 -20.3164 -20.3136 -20.3136 -20.3133 -20.3133
   -20.3132 -20.3132 -20.3129 -20.3129 -20.3126 -20.3126 -20.3121 -20.3121
   -20.3116 -20.3116 -20.3112 -20.3112 -20.3108 -20.3108 -20.3108 -20.3108
   -20.3035 -20.3035 -20.3029 -20.3029 -20.3009 -20.3009 -20.3009 -20.3009
   -20.3004 -20.3004 -20.3004 -20.3004 -20.2974 -20.2974 -20.2973 -20.2973
   -20.2971 -20.2971 -20.2968 -20.2968 -20.2946 -20.2946 -20.2944 -20.2944
    -9.6267  -9.6267  -9.3852  -9.3852  -9.0885  -9.0885  -8.8354  -8.8354
    -8.5825  -8.5825  -8.5432  -8.5432  -8.5385  -8.5384  -8.4425  -8.4425
    -7.9057  -7.9057  -7.8530  -7.8530  -7.7065  -7.7065  -7.6880  -7.6880
     1.3246   1.3246   1.3422   1.3422   1.7996   1.7996   1.8852   1.8852
     2.7248   2.7248   2.9757   2.9757   3.0858   3.0858   3.1786   3.1786
     3.2783   3.2783   3.3033   3.3033   3.4389   3.4389   3.7693   3.7694
     3.9494   3.9494   4.2581   4.2581   4.6179   4.6179   4.7668   4.7668
     5.0892   5.0892   5.2973   5.2973   5.3013   5.3014   5.5030   5.5030
     5.7103   5.7103   5.8249   5.8249   6.1555   6.1555   6.3022   6.3022
     6.3325   6.3325   6.4582   6.4582   6.5238   6.5238   6.6726   6.6726
     6.8460   6.8460   6.8594   6.8594   6.9803   6.9803   7.4854   7.4854
     7.5268   7.5268   7.6564   7.6565   7.6859   7.6859   8.0565   8.0565
    10.1995  10.1995  11.1235  11.1235  11.1903  11.1903  11.6197  11.6197
    11.8307  11.8307  12.4126  12.4126  12.6124  12.6124  12.7622  12.7622
    12.8389  12.8389  13.1387  13.1387  13.4105  13.4105  13.9834  13.9834
    14.5793  14.5793  15.4504  15.4504  15.7420  15.7420  15.8596  15.8597
    16.6664  16.6664  17.6500  17.6500  18.1368

          k = 0.0000 0.3150 0.0000 ( 62175 PWs)   bands (ev):

   -66.1746 -66.1744 -66.1736 -66.1735 -66.1734 -66.1734 -66.1725 -66.1723
   -30.5489 -30.5445 -30.5439 -30.5398 -30.5289 -30.5224 -30.5218 -30.5215
   -30.5214 -30.5160 -30.5151 -30.5123 -30.5113 -30.5094 -30.5063 -30.5048
   -30.4225 -30.4213 -30.4191 -30.4185 -30.4176 -30.4174 -30.4146 -30.4132
   -20.3359 -20.3359 -20.3358 -20.3357 -20.3357 -20.3357 -20.3356 -20.3356
   -20.3160 -20.3156 -20.3156 -20.3153 -20.3144 -20.3139 -20.3136 -20.3136
   -20.3132 -20.3132 -20.3129 -20.3126 -20.3125 -20.3124 -20.3122 -20.3121
   -20.3121 -20.3118 -20.3116 -20.3114 -20.3113 -20.3111 -20.3108 -20.3107
   -20.3037 -20.3036 -20.3034 -20.3033 -20.3031 -20.3030 -20.3030 -20.3029
   -20.2991 -20.2990 -20.2990 -20.2990 -20.2988 -20.2987 -20.2986 -20.2985
   -20.2950 -20.2949 -20.2948 -20.2948 -20.2947 -20.2944 -20.2938 -20.2937
    -9.8552  -9.7240  -9.3980  -9.3861  -9.2836  -9.2679  -9.0515  -9.0453
    -8.7682  -8.6655  -8.6608  -8.6589  -8.1768  -8.1309  -8.1287  -8.1031
    -7.7895  -7.7857  -7.7738  -7.7703  -7.6358  -7.6290  -7.6252  -7.6182
     1.1888   1.1891   1.2777   1.2793   1.2977   1.3003   1.6025   1.6345
     2.3887   2.3988   2.4343   2.5346   2.5432   2.7045   2.8723   2.8780
     3.0022   3.0107   3.6245   3.6490   3.6622   3.6877   4.1474   4.4701
     4.4818   4.7538   4.8286   4.8367   4.8566   4.8647   5.0704   5.0776
     5.0890   5.0983   5.3842   5.3892   5.6026   5.6052   5.6655   5.6730
     5.8517   5.8557   5.8799   5.8908   6.0199   6.0203   6.0663   6.1200
     6.1253   6.1900   6.2201   6.5190   6.6429   6.6526   6.8574   6.8590
     6.9035   6.9709   7.0899   7.0923   7.1102   7.1181   7.3820   7.3883
     7.4137   7.4204   7.7690   7.7744   7.8282   7.8298   7.8576   7.8626
     9.2763   9.2790  10.6491  10.6591  10.6960  10.6992  11.7703  11.7950
    11.9119  11.9212  12.2746  12.2874  12.2968  12.3061  12.8048  12.8293
    13.3678  13.3755  13.4349  13.4553  13.7929  13.8028  13.8045  13.8311
    14.7690  15.1817  15.1863  15.4036  15.4103  15.6462  15.8766  15.8834
    15.9523  16.8229  17.2286  17.6003  17.6142

          k = 0.0000 0.3150 0.1667 ( 62260 PWs)   bands (ev):

   -66.1745 -66.1743 -66.1736 -66.1735 -66.1734 -66.1733 -66.1726 -66.1724
   -30.5487 -30.5448 -30.5439 -30.5401 -30.5273 -30.5218 -30.5205 -30.5182
   -30.5170 -30.5127 -30.5125 -30.5116 -30.5082 -30.5063 -30.5051 -30.5039
   -30.4292 -30.4280 -30.4249 -30.4237 -30.4188 -30.4174 -30.4150 -30.4136
   -20.3359 -20.3358 -20.3358 -20.3357 -20.3357 -20.3357 -20.3356 -20.3356
   -20.3160 -20.3156 -20.3156 -20.3153 -20.3144 -20.3139 -20.3136 -20.3136
   -20.3132 -20.3132 -20.3128 -20.3127 -20.3125 -20.3124 -20.3123 -20.3121
   -20.3121 -20.3119 -20.3117 -20.3115 -20.3112 -20.3111 -20.3108 -20.3108
   -20.3035 -20.3034 -20.3033 -20.3031 -20.3030 -20.3029 -20.3027 -20.3025
   -20.2993 -20.2992 -20.2992 -20.2991 -20.2986 -20.2986 -20.2984 -20.2983
   -20.2952 -20.2952 -20.2950 -20.2950 -20.2948 -20.2948 -20.2940 -20.2939
    -9.8037  -9.6694  -9.4034  -9.3198  -9.2835  -9.1949  -9.0114  -9.0047
    -8.7768  -8.6641  -8.6599  -8.6472  -8.1774  -8.1398  -8.1260  -8.1099
    -7.9102  -7.8966  -7.7718  -7.7677  -7.7571  -7.7530  -7.6388  -7.6280
     1.2841   1.2850   1.3035   1.3064   1.5301   1.5365   1.7567   1.7989
     2.3927   2.4858   2.5147   2.5251   2.5410   2.6932   2.8803   2.9795
     2.9949   3.1049   3.6505   3.6643   3.6782   3.7068   4.1372   4.4117
     4.4163   4.4868   4.5151   4.7574   4.7918   4.8795   4.9076   4.9087
     5.0632   5.1055   5.1807   5.2840   5.4276   5.4599   5.6069   5.6077
     5.6702   5.7475   5.7693   5.8365   6.0205   6.0894   6.0963   6.1193
     6.2591   6.3951   6.4138   6.5820   6.6389   6.8413   6.8813   6.9222
     6.9603   6.9709   7.0677   7.0818   7.0857   7.1064   7.1493   7.1654
     7.2578   7.2707   7.7762   7.7835   7.8067   7.8310   7.8395   7.8479
     9.6310   9.6434  10.6634  10.7008  10.8305  10.8648  11.7924  11.8668
    11.9227  11.9871  12.1897  12.2052  12.3362  12.3651  12.8547  12.8628
    13.1847  13.3255  13.3554  13.4310  13.6541  13.7046  13.7927  13.8015
    14.8963  15.1743  15.3902  15.4261  15.4740  15.7166  15.8514  16.1184
    16.1790  16.7861  17.2918  17.3190  17.7125

          k = 0.0000 0.3150 0.3333 ( 62269 PWs)   bands (ev):

   -66.1743 -66.1741 -66.1738 -66.1736 -66.1733 -66.1731 -66.1728 -66.1726
   -30.5481 -30.5457 -30.5433 -30.5411 -30.5255 -30.5228 -30.5166 -30.5165
   -30.5137 -30.5128 -30.5105 -30.5063 -30.4952 -30.4940 -30.4903 -30.4899
   -30.4471 -30.4461 -30.4427 -30.4416 -30.4180 -30.4166 -30.4159 -30.4144
   -20.3358 -20.3358 -20.3358 -20.3357 -20.3357 -20.3357 -20.3356 -20.3356
   -20.3159 -20.3157 -20.3156 -20.3154 -20.3142 -20.3137 -20.3137 -20.3134
   -20.3133 -20.3130 -20.3129 -20.3128 -20.3125 -20.3125 -20.3123 -20.3121
   -20.3120 -20.3120 -20.3118 -20.3116 -20.3112 -20.3110 -20.3109 -20.3108
   -20.3034 -20.3033 -20.3031 -20.3030 -20.3022 -20.3021 -20.3016 -20.3015
   -20.2999 -20.2999 -20.2996 -20.2995 -20.2982 -20.2982 -20.2979 -20.2978
   -20.2962 -20.2961 -20.2959 -20.2957 -20.2948 -20.2946 -20.2943 -20.2942
    -9.6792  -9.5408  -9.4563  -9.3310  -9.1158  -8.9430  -8.8845  -8.8631
    -8.8100  -8.6807  -8.6351  -8.5904  -8.2608  -8.2313  -8.2051  -8.1353
    -8.1198  -8.0923  -8.0819  -8.0173  -7.7420  -7.7306  -7.6658  -7.6549
     1.3188   1.3228   1.3416   1.3461   2.1620   2.2231   2.2855   2.4084
     2.4356   2.5211   2.5424   2.7276   2.7793   2.7870   2.9015   2.9812
     3.2208   3.3089   3.6265   3.6491   3.6996   3.7581   3.8271   3.8313
     4.1168   4.3173   4.3871   4.4302   4.4764   4.5830   4.6058   4.7612
     4.7906   4.8498   5.0083   5.0927   5.1707   5.1999   5.2061   5.3693
     5.3761   5.5675   5.6589   5.7984   6.1095   6.1639   6.2043   6.2362
     6.4313   6.5899   6.6097   6.6433   6.6745   6.8050   6.8112   6.8204
     6.9086   6.9575   7.0341   7.0584   7.0755   7.1283   7.1666   7.1826
     7.2838   7.3350   7.7202   7.7384   7.7392   7.7481   7.8322   7.8466
    10.3571  10.3749  10.6755  10.7080  11.2868  11.3376  11.7471  11.8310
    11.8385  11.9523  12.1618  12.2031  12.4950  12.5667  12.5990  12.6922
    12.7969  13.0884  13.1277  13.3378  13.4267  13.4771  13.7892  13.7978
    15.0465  15.1493  15.5193  15.7765  15.8986  15.9259  15.9725  16.6446
    16.6593  16.7997  16.9799  17.5020  17.6017

          k = 0.0000 0.3150-0.5000 ( 62306 PWs)   bands (ev):

   -66.1741 -66.1741 -66.1739 -66.1739 -66.1730 -66.1730 -66.1729 -66.1729
   -30.5470 -30.5470 -30.5423 -30.5423 -30.5241 -30.5241 -30.5150 -30.5150
   -30.5143 -30.5143 -30.5079 -30.5079 -30.4713 -30.4713 -30.4707 -30.4707
   -30.4667 -30.4667 -30.4660 -30.4660 -30.4170 -30.4169 -30.4155 -30.4155
   -20.3358 -20.3358 -20.3358 -20.3358 -20.3357 -20.3357 -20.3357 -20.3357
   -20.3158 -20.3158 -20.3155 -20.3155 -20.3139 -20.3139 -20.3135 -20.3135
   -20.3131 -20.3131 -20.3128 -20.3128 -20.3126 -20.3126 -20.3122 -20.3122
   -20.3120 -20.3120 -20.3118 -20.3118 -20.3111 -20.3111 -20.3109 -20.3109
   -20.3034 -20.3034 -20.3030 -20.3030 -20.3009 -20.3009 -20.3009 -20.3009
   -20.3004 -20.3004 -20.3004 -20.3004 -20.2974 -20.2974 -20.2973 -20.2973
   -20.2970 -20.2970 -20.2968 -20.2968 -20.2946 -20.2946 -20.2944 -20.2944
    -9.5493  -9.5493  -9.4153  -9.4153  -8.9070  -8.9070  -8.7306  -8.7306
    -8.5951  -8.5951  -8.5738  -8.5737  -8.5117  -8.5117  -8.4137  -8.4137
    -8.1340  -8.1340  -8.0924  -8.0923  -7.7035  -7.7035  -7.6923  -7.6923
     1.3368   1.3368   1.3417   1.3417   2.3920   2.3920   2.5287   2.5287
     2.9143   2.9143   3.0229   3.0229   3.0645   3.0645   3.2435   3.2435
     3.2935   3.2935   3.3382   3.3383   3.4008   3.4008   3.6415   3.6415
     4.0776   4.0776   4.1035   4.1035   4.1330   4.1330   4.3613   4.3613
     4.8196   4.8196   4.9401   4.9401   5.1486   5.1486   5.2766   5.2766
     5.4114   5.4115   5.7294   5.7295   6.2557   6.2557   6.3100   6.3100
     6.4573   6.4574   6.4970   6.4970   6.5574   6.5574   6.7604   6.7604
     7.0502   7.0502   7.0569   7.0569   7.0968   7.0968   7.4965   7.4966
     7.5129   7.5129   7.5621   7.5621   7.5917   7.5917   7.8401   7.8401
    10.6781  10.6781  11.1364  11.1364  11.1861  11.1861  11.6991  11.6991
    12.0107  12.0107  12.1364  12.1364  12.5101  12.5101  12.6221  12.6221
    12.7803  12.7803  12.9337  12.9337  13.4264  13.4264  13.7915  13.7915
    15.1075  15.1075  15.6569  15.6569  16.2814  16.2815  16.4047  16.4047
    16.8205  16.8205  17.2763  17.2764  17.9088

          k = 0.0000-0.4725 0.0000 ( 62212 PWs)   bands (ev):

   -66.1745 -66.1745 -66.1735 -66.1735 -66.1735 -66.1734 -66.1725 -66.1724
   -30.5370 -30.5370 -30.5316 -30.5316 -30.5308 -30.5308 -30.5256 -30.5256
   -30.5219 -30.5219 -30.5146 -30.5145 -30.5128 -30.5128 -30.5099 -30.5099
   -30.4219 -30.4219 -30.4184 -30.4184 -30.4179 -30.4179 -30.4139 -30.4139
   -20.3359 -20.3359 -20.3358 -20.3357 -20.3357 -20.3357 -20.3356 -20.3356
   -20.3150 -20.3150 -20.3146 -20.3146 -20.3144 -20.3144 -20.3141 -20.3141
   -20.3132 -20.3132 -20.3128 -20.3128 -20.3126 -20.3126 -20.3125 -20.3125
   -20.3120 -20.3120 -20.3118 -20.3118 -20.3112 -20.3112 -20.3108 -20.3108
   -20.3036 -20.3036 -20.3032 -20.3032 -20.3031 -20.3031 -20.3030 -20.3030
   -20.2990 -20.2990 -20.2990 -20.2990 -20.2988 -20.2988 -20.2986 -20.2986
   -20.2949 -20.2949 -20.2948 -20.2948 -20.2946 -20.2946 -20.2938 -20.2938
    -9.7815  -9.7815  -9.3284  -9.3284  -9.3141  -9.3141  -9.0484  -9.0484
    -8.4755  -8.4755  -8.4231  -8.4231  -8.4218  -8.4218  -8.4192  -8.4191
    -7.7848  -7.7848  -7.7752  -7.7752  -7.6306  -7.6306  -7.6237  -7.6237
     1.1889   1.1889   1.2790   1.2790   1.2996   1.2996   1.6268   1.6268
     2.4155   2.4155   3.1445   3.1445   3.2071   3.2071   3.2691   3.2691
     3.2866   3.2866   3.3017   3.3018   3.4991   3.4991   3.5157   3.5158
     3.6930   3.6930   4.8387   4.8388   4.8462   4.8462   5.2247   5.2247
     5.2471   5.2471   5.3314   5.3314   5.3432   5.3433   5.7348   5.7348
     5.7429   5.7429   5.9770   5.9770   5.9975   5.9975   6.1419   6.1419
     6.1577   6.1577   6.2763   6.2763   6.7369   6.7369   6.7428   6.7428
     6.9386   6.9386   7.3727   7.3727   7.3847   7.3847   7.4657   7.4657
     7.4675   7.4676   7.5465   7.5465   7.5487   7.5487   7.7780   7.7780
     9.2780   9.2780  11.2266  11.2266  11.2460  11.2460  11.3114  11.3114
    11.3364  11.3364  12.2891  12.2891  12.3004  12.3004  12.8195  12.8195
    13.5438  13.5438  13.5674  13.5674  13.5864  13.5864  13.6078  13.6078
    15.3590  15.3590  15.4109  15.4110  15.6312  15.6312  15.6401  15.6401
    16.5181  16.5181  18.0247  18.0352  18.0373

          k = 0.0000-0.4725 0.1667 ( 62246 PWs)   bands (ev):

   -66.1744 -66.1744 -66.1735 -66.1735 -66.1734 -66.1734 -66.1725 -66.1725
   -30.5365 -30.5365 -30.5320 -30.5320 -30.5306 -30.5306 -30.5259 -30.5259
   -30.5176 -30.5175 -30.5109 -30.5109 -30.5102 -30.5102 -30.5077 -30.5077
   -30.4286 -30.4286 -30.4243 -30.4243 -30.4181 -30.4181 -30.4143 -30.4143
   -20.3359 -20.3359 -20.3357 -20.3357 -20.3357 -20.3357 -20.3356 -20.3356
   -20.3150 -20.3150 -20.3146 -20.3146 -20.3145 -20.3145 -20.3142 -20.3141
   -20.3132 -20.3132 -20.3128 -20.3128 -20.3125 -20.3125 -20.3125 -20.3125
   -20.3121 -20.3121 -20.3118 -20.3118 -20.3112 -20.3112 -20.3109 -20.3109
   -20.3034 -20.3034 -20.3031 -20.3031 -20.3031 -20.3031 -20.3026 -20.3026
   -20.2993 -20.2993 -20.2991 -20.2991 -20.2986 -20.2986 -20.2984 -20.2984
   -20.2952 -20.2952 -20.2949 -20.2949 -20.2949 -20.2949 -20.2940 -20.2939
    -9.7279  -9.7279  -9.3306  -9.3306  -9.2425  -9.2425  -9.0080  -9.0080
    -8.4811  -8.4811  -8.4292  -8.4292  -8.4192  -8.4192  -8.4161  -8.4161
    -7.9041  -7.9041  -7.7678  -7.7678  -7.7574  -7.7574  -7.6335  -7.6335
     1.2847   1.2847   1.3057   1.3057   1.5349   1.5349   1.7894   1.7894
     2.5059   2.5059   3.1589   3.1589   3.2068   3.2068   3.2803   3.2803
     3.2948   3.2948   3.3242   3.3242   3.5079   3.5080   3.5517   3.5517
     3.7207   3.7207   4.4391   4.4391   4.8876   4.8876   4.9865   4.9865
     5.1484   5.1484   5.2106   5.2106   5.3498   5.3498   5.4785   5.4785
     5.7111   5.7111   5.7540   5.7540   6.0979   6.0979   6.1042   6.1042
     6.3849   6.3850   6.4166   6.4166   6.7291   6.7291   6.9131   6.9131
     6.9989   6.9989   7.1431   7.1431   7.2052   7.2052   7.4532   7.4533
     7.4762   7.4762   7.5132   7.5132   7.5320   7.5320   7.7935   7.7935
     9.6388   9.6388  11.2497  11.2497  11.3242  11.3242  11.3575  11.3575
    11.4384  11.4384  12.1981  12.1981  12.3508  12.3509  12.8642  12.8642
    13.3734  13.3734  13.4577  13.4577  13.5764  13.5764  13.5847  13.5847
    15.3668  15.3668  15.5916  15.5916  15.6199  15.6199  15.9070  15.9070
    16.5790  16.5790  17.9010  17.9011  17.9946

          k = 0.0000-0.4725 0.3333 ( 62268 PWs)   bands (ev):

   -66.1742 -66.1742 -66.1737 -66.1737 -66.1732 -66.1732 -66.1727 -66.1727
   -30.5355 -30.5355 -30.5329 -30.5329 -30.5296 -30.5296 -30.5269 -30.5269
   -30.5144 -30.5144 -30.5113 -30.5113 -30.4951 -30.4951 -30.4905 -30.4905
   -30.4467 -30.4466 -30.4422 -30.4422 -30.4173 -30.4173 -30.4151 -30.4151
   -20.3358 -20.3358 -20.3357 -20.3357 -20.3357 -20.3357 -20.3356 -20.3356
   -20.3149 -20.3149 -20.3146 -20.3146 -20.3145 -20.3145 -20.3143 -20.3142
   -20.3130 -20.3130 -20.3127 -20.3127 -20.3126 -20.3126 -20.3124 -20.3124
   -20.3122 -20.3122 -20.3120 -20.3120 -20.3111 -20.3111 -20.3109 -20.3109
   -20.3033 -20.3033 -20.3031 -20.3031 -20.3021 -20.3021 -20.3016 -20.3015
   -20.2999 -20.2999 -20.2995 -20.2995 -20.2982 -20.2982 -20.2978 -20.2978
   -20.2962 -20.2962 -20.2958 -20.2958 -20.2947 -20.2947 -20.2943 -20.2943
    -9.5998  -9.5998  -9.3810  -9.3810  -9.0036  -9.0036  -8.8710  -8.8710
    -8.5181  -8.5181  -8.4594  -8.4594  -8.4131  -8.4131  -8.3942  -8.3942
    -8.1886  -8.1886  -8.0679  -8.0679  -7.7365  -7.7365  -7.6605  -7.6605
     1.3217   1.3217   1.3449   1.3449   2.2136   2.2136   2.4163   2.4163
     2.7676   2.7676   3.1745   3.1745   3.2162   3.2162   3.2745   3.2745
     3.2823   3.2823   3.4071   3.4071   3.4934   3.4934   3.6940   3.6940
     3.7758   3.7758   3.8186   3.8186   4.4886   4.4886   4.6497   4.6497
     4.7805   4.7805   4.8444   4.8444   5.2015   5.2015   5.2697   5.2697
     5.3923   5.3923   5.6386   5.6386   6.1608   6.1608   6.2415   6.2415
     6.5272   6.5272   6.6460   6.6460   6.7048   6.7048   6.8406   6.8406
     7.0006   7.0006   7.1860   7.1860   7.1904   7.1904   7.4312   7.4312
     7.4684   7.4684   7.4964   7.4964   7.5100   7.5100   7.7509   7.7509
    10.3723  10.3723  11.2610  11.2610  11.3087  11.3087  11.7333  11.7333
    11.7798  11.7798  11.8294  11.8294  12.5178  12.5178  12.7061  12.7062
    12.9094  12.9094  13.1642  13.1642  13.5663  13.5663  13.5803  13.5803
    15.3891  15.3891  15.5579  15.5579  16.2156  16.2157  16.6140  16.6140
    16.7838  16.7838  17.3920  17.3920  17.8262

          k = 0.0000-0.4725-0.5000 ( 62284 PWs)   bands (ev):

   -66.1740 -66.1740 -66.1740 -66.1740 -66.1730 -66.1730 -66.1729 -66.1729
   -30.5342 -30.5342 -30.5342 -30.5342 -30.5282 -30.5282 -30.5282 -30.5282
   -30.5127 -30.5127 -30.5127 -30.5127 -30.4711 -30.4711 -30.4711 -30.4711
   -30.4664 -30.4664 -30.4664 -30.4664 -30.4162 -30.4162 -30.4162 -30.4162
   -20.3358 -20.3358 -20.3358 -20.3358 -20.3357 -20.3357 -20.3357 -20.3357
   -20.3147 -20.3147 -20.3147 -20.3147 -20.3144 -20.3144 -20.3144 -20.3144
   -20.3129 -20.3129 -20.3129 -20.3129 -20.3125 -20.3125 -20.3125 -20.3125
   -20.3122 -20.3122 -20.3122 -20.3122 -20.3110 -20.3110 -20.3110 -20.3110
   -20.3032 -20.3032 -20.3032 -20.3032 -20.3009 -20.3009 -20.3009 -20.3009
   -20.3004 -20.3004 -20.3004 -20.3004 -20.2973 -20.2973 -20.2973 -20.2973
   -20.2969 -20.2969 -20.2969 -20.2969 -20.2945 -20.2945 -20.2945 -20.2945
    -9.4704  -9.4704  -9.4704  -9.4704  -8.6923  -8.6923  -8.6923  -8.6923
    -8.6275  -8.6275  -8.6275  -8.6275  -8.3810  -8.3810  -8.3810  -8.3810
    -8.3201  -8.3200  -8.3200  -8.3200  -7.6980  -7.6980  -7.6980  -7.6980
     1.3404   1.3404   1.3404   1.3405   2.9855   2.9855   2.9856   2.9856
     3.1347   3.1347   3.1347   3.1347   3.2352   3.2352   3.2352   3.2352
     3.2775   3.2775   3.2775   3.2775   3.4588   3.4588   3.4588   3.4588
     3.6245   3.6245   3.6245   3.6245   4.3149   4.3150   4.3150   4.3150
     4.4314   4.4315   4.4315   4.4315   5.2319   5.2319   5.2319   5.2319
     5.5060   5.5060   5.5060   5.5060   6.3015   6.3015   6.3015   6.3016
     6.5034   6.5034   6.5034   6.5034   6.6477   6.6477   6.6477   6.6477
     7.2871   7.2871   7.2872   7.2872   7.3742   7.3742   7.3742   7.3742
     7.4647   7.4647   7.4647   7.4647   7.5745   7.5745   7.5745   7.5745
    11.1297  11.1297  11.1297  11.1297  11.3158  11.3158  11.3158  11.3158
    12.2580  12.2580  12.2580  12.2580  12.3039  12.3039  12.3039  12.3039
    12.8184  12.8184  12.8184  12.8184  13.5695  13.5695  13.5695  13.5695
    15.4722  15.4722  15.4722  15.4722  16.8882  16.8882  16.8882  16.8882
    17.2802  17.2803  17.2803  17.2803  17.4093

          k = 0.1667 0.0000 0.1667 ( 62234 PWs)   bands (ev):

   -66.1745 -66.1741 -66.1737 -66.1736 -66.1733 -66.1733 -66.1728 -66.1724
   -30.5620 -30.5584 -30.5581 -30.5547 -30.5206 -30.5164 -30.5148 -30.5137
   -30.5132 -30.5094 -30.5077 -30.5077 -30.4978 -30.4965 -30.4930 -30.4927
   -30.4294 -30.4272 -30.4269 -30.4252 -30.4242 -30.4226 -30.4219 -30.4191
   -20.3359 -20.3358 -20.3358 -20.3357 -20.3357 -20.3357 -20.3356 -20.3356
   -20.3171 -20.3169 -20.3168 -20.3166 -20.3140 -20.3138 -20.3135 -20.3134
   -20.3132 -20.3129 -20.3127 -20.3127 -20.3125 -20.3123 -20.3122 -20.3117
   -20.3117 -20.3114 -20.3110 -20.3110 -20.3107 -20.3107 -20.3106 -20.3103
   -20.3035 -20.3033 -20.3030 -20.3030 -20.3028 -20.3025 -20.3024 -20.3022
   -20.2995 -20.2993 -20.2991 -20.2990 -20.2988 -20.2987 -20.2984 -20.2981
   -20.2956 -20.2954 -20.2952 -20.2951 -20.2951 -20.2946 -20.2943 -20.2940
    -9.8518  -9.5663  -9.4586  -9.4515  -9.1785  -9.1625  -9.0651  -8.9768
    -8.9638  -8.8386  -8.8149  -8.8091  -7.9139  -7.9060  -7.8852  -7.8820
    -7.8424  -7.8053  -7.7853  -7.7797  -7.7677  -7.7483  -7.7364  -7.7327
     1.4461   1.4476   1.4600   1.4709   1.4807   1.5439   1.5630   1.6470
     1.7046   1.7167   1.8953   2.0553   2.5566   2.6406   2.6878   2.6902
     2.8060   2.8375   4.0696   4.0823   4.3071   4.3144   4.4736   4.4764
     4.5208   4.5251   4.6846   4.6967   4.7564   4.8361   5.0513   5.2306
     5.2842   5.3021   5.3694   5.4933   5.5099   5.6163   5.6221   5.6972
     5.6999   5.7321   5.7341   5.7533   5.8134   5.9991   6.3170   6.4086
     6.4266   6.4584   6.5245   6.6573   6.6747   6.6886   6.7008   6.7220
     6.7406   6.8537   6.8638   6.8760   6.8950   6.9777   6.9855   7.1060
     7.2854   7.3499   7.7873   7.7888   8.0267   8.0748   8.0899   8.1044
     9.8420   9.9079  10.2553  10.2623  10.2824  10.3702  12.2034  12.2246
    12.2352  12.2434  12.3003  12.3496  12.5764  12.5878  12.8528  12.8880
    13.0262  13.0889  13.1811  13.3325  13.8639  13.9258  13.9828  14.0205
    14.1207  14.4450  14.4806  15.1449  15.3643  15.5150  15.5287  16.2990
    16.3017  16.9430  16.9463  17.0943  17.5960

          k = 0.1667 0.0000 0.3333 ( 62265 PWs)   bands (ev):

   -66.1743 -66.1739 -66.1738 -66.1735 -66.1734 -66.1731 -66.1730 -66.1726
   -30.5614 -30.5593 -30.5577 -30.5556 -30.5161 -30.5145 -30.5098 -30.5085
   -30.5068 -30.5030 -30.4990 -30.4947 -30.4940 -30.4902 -30.4895 -30.4866
   -30.4472 -30.4452 -30.4434 -30.4414 -30.4253 -30.4231 -30.4223 -30.4201
   -20.3359 -20.3358 -20.3358 -20.3357 -20.3357 -20.3357 -20.3357 -20.3356
   -20.3171 -20.3169 -20.3168 -20.3167 -20.3138 -20.3136 -20.3134 -20.3133
   -20.3133 -20.3130 -20.3129 -20.3127 -20.3127 -20.3124 -20.3121 -20.3118
   -20.3117 -20.3115 -20.3110 -20.3110 -20.3108 -20.3107 -20.3107 -20.3104
   -20.3032 -20.3032 -20.3026 -20.3025 -20.3020 -20.3018 -20.3017 -20.3014
   -20.2999 -20.2998 -20.2995 -20.2995 -20.2983 -20.2983 -20.2979 -20.2976
   -20.2965 -20.2962 -20.2960 -20.2955 -20.2952 -20.2950 -20.2945 -20.2945
    -9.7293  -9.5049  -9.4251  -9.3060  -9.2085  -9.0969  -8.9246  -8.8826
    -8.8335  -8.8221  -8.7786  -8.7078  -8.2053  -8.2033  -8.1267  -8.1025
    -7.8753  -7.8555  -7.8171  -7.8100  -7.7730  -7.7713  -7.7693  -7.7457
     1.4615   1.4719   1.5799   1.5902   1.5965   1.6292   1.6736   1.7172
     2.2356   2.2721   2.4205   2.5061   2.7126   2.7938   2.8357   2.9268
     2.9269   3.0640   3.7842   3.8678   3.9049   3.9130   4.1834   4.2754
     4.2814   4.4990   4.5047   4.5658   4.6280   4.7171   4.7581   4.8923
     5.0061   5.0355   5.0923   5.1870   5.2886   5.3700   5.5620   5.6552
     5.7008   5.7375   5.7706   5.8251   5.8462   6.0058   6.1334   6.1731
     6.4291   6.4431   6.5048   6.5743   6.5825   6.6606   6.6733   6.6999
     6.7905   6.8713   6.8755   6.8920   7.1136   7.1186   7.1618   7.2234
     7.3303   7.3798   7.7421   7.7568   7.9258   7.9690   8.0814   8.0926
    10.2446  10.2528  10.4921  10.5503  10.8793  10.9999  11.8462  11.8908
    12.1231  12.3629  12.3889  12.4956  12.5173  12.5890  12.7334  12.8142
    12.8275  13.0126  13.0407  13.2638  13.6376  13.6520  13.9171  13.9492
    14.2721  14.4537  14.7519  15.2581  15.4453  15.7645  15.9428  16.2042
    16.4040  17.1417  17.4202  17.4764  17.5541

          k = 0.1667 0.0000-0.5000 ( 62322 PWs)   bands (ev):

   -66.1741 -66.1741 -66.1737 -66.1737 -66.1732 -66.1732 -66.1728 -66.1728
   -30.5604 -30.5604 -30.5567 -30.5567 -30.5149 -30.5149 -30.5093 -30.5093
   -30.5012 -30.5012 -30.4966 -30.4966 -30.4706 -30.4706 -30.4699 -30.4699
   -30.4668 -30.4668 -30.4658 -30.4658 -30.4242 -30.4242 -30.4212 -30.4212
   -20.3358 -20.3358 -20.3357 -20.3357 -20.3357 -20.3357 -20.3356 -20.3356
   -20.3170 -20.3170 -20.3168 -20.3168 -20.3136 -20.3136 -20.3133 -20.3133
   -20.3131 -20.3131 -20.3130 -20.3130 -20.3125 -20.3125 -20.3120 -20.3120
   -20.3116 -20.3116 -20.3109 -20.3109 -20.3109 -20.3109 -20.3106 -20.3106
   -20.3032 -20.3032 -20.3025 -20.3025 -20.3009 -20.3009 -20.3008 -20.3008
   -20.3004 -20.3004 -20.3004 -20.3004 -20.2976 -20.2976 -20.2974 -20.2974
   -20.2971 -20.2971 -20.2967 -20.2967 -20.2950 -20.2950 -20.2947 -20.2947
    -9.5991  -9.5991  -9.2924  -9.2924  -9.1689  -9.1689  -8.8423  -8.8423
    -8.5753  -8.5753  -8.5686  -8.5686  -8.5141  -8.5140  -8.4523  -8.4523
    -7.8443  -7.8443  -7.8192  -7.8192  -7.7879  -7.7878  -7.7581  -7.7581
     1.4655   1.4655   1.5998   1.5998   1.6111   1.6111   1.7163   1.7163
     2.7361   2.7361   2.9750   2.9751   3.0639   3.0639   3.1805   3.1805
     3.2810   3.2810   3.3897   3.3897   3.5035   3.5036   3.7833   3.7834
     3.8911   3.8911   4.4102   4.4102   4.5528   4.5528   4.8705   4.8705
     5.0123   5.0123   5.0473   5.0473   5.2421   5.2421   5.6331   5.6331
     5.7770   5.7770   5.8015   5.8015   5.8727   5.8728   5.9832   5.9832
     6.3568   6.3568   6.4598   6.4598   6.6730   6.6730   6.7201   6.7201
     6.8160   6.8160   6.9565   6.9565   7.0103   7.0104   7.5194   7.5194
     7.5580   7.5581   7.6944   7.6944   7.7232   7.7232   8.0917   8.0917
    10.2656  10.2656  11.1966  11.1966  11.2696  11.2696  11.5784  11.5784
    11.7829  11.7829  12.5818  12.5818  12.5982  12.5982  12.6716  12.6716
    12.8795  12.8795  13.2179  13.2179  13.3353  13.3353  13.9323  13.9323
    14.3954  14.3954  15.0576  15.0576  15.8720  15.8720  16.0287  16.0287
    16.7184  16.7184  17.8522  17.8523  17.9172

          k = 0.1667 0.1575 0.1667 ( 62255 PWs)   bands (ev):

   -66.1745 -66.1742 -66.1736 -66.1736 -66.1733 -66.1733 -66.1727 -66.1724
   -30.5583 -30.5547 -30.5544 -30.5509 -30.5214 -30.5171 -30.5154 -30.5139
   -30.5136 -30.5097 -30.5078 -30.5074 -30.5016 -30.4997 -30.4956 -30.4954
   -30.4293 -30.4273 -30.4267 -30.4251 -30.4244 -30.4228 -30.4217 -30.4193
   -20.3359 -20.3358 -20.3358 -20.3357 -20.3357 -20.3357 -20.3356 -20.3356
   -20.3168 -20.3165 -20.3165 -20.3163 -20.3141 -20.3137 -20.3136 -20.3134
   -20.3133 -20.3129 -20.3128 -20.3127 -20.3125 -20.3123 -20.3122 -20.3117
   -20.3117 -20.3114 -20.3113 -20.3111 -20.3110 -20.3109 -20.3107 -20.3105
   -20.3035 -20.3033 -20.3030 -20.3029 -20.3028 -20.3025 -20.3024 -20.3022
   -20.2995 -20.2993 -20.2990 -20.2990 -20.2988 -20.2987 -20.2983 -20.2982
   -20.2956 -20.2954 -20.2952 -20.2951 -20.2951 -20.2946 -20.2943 -20.2940
    -9.8222  -9.5775  -9.4215  -9.4133  -9.1860  -9.1702  -8.9926  -8.9759
    -8.9642  -8.7938  -8.7780  -8.7730  -7.9519  -7.9108  -7.9093  -7.9024
    -7.8877  -7.8597  -7.8578  -7.8533  -7.7938  -7.7673  -7.7518  -7.7349
     1.4470   1.4481   1.5146   1.5287   1.5439   1.5616   1.6376   1.8448
     1.8901   1.8999   1.9045   2.1513   2.5636   2.6355   2.7611   2.7626
     2.8772   2.9014   3.9731   3.9990   4.1074   4.1218   4.4474   4.4587
     4.5217   4.5281   4.6813   4.7092   4.7341   4.8002   4.8623   5.1885
     5.2069   5.2541   5.2764   5.3453   5.3558   5.5699   5.5764   5.6300
     5.7204   5.7303   5.7729   5.7912   5.7944   5.8650   6.3116   6.3665
     6.3756   6.4393   6.5172   6.6514   6.6804   6.7100   6.7746   6.7899
     6.7948   6.8283   6.8833   6.8868   6.9500   6.9651   6.9810   7.1125
     7.2903   7.3482   7.7876   7.7893   7.9770   8.0202   8.0229   8.0285
     9.8582   9.9075  10.4071  10.4246  10.4369  10.5031  12.1720  12.1967
    12.2300  12.2344  12.2443  12.2647  12.4386  12.4465  12.8682  12.8785
    13.0609  13.1109  13.1854  13.3356  13.8453  13.8548  13.8859  13.9391
    14.3693  14.7453  14.7569  15.2767  15.5160  15.5273  15.7677  16.2643
    16.2687  16.7840  17.0489  17.0549  17.6311

          k = 0.1667 0.1575 0.3333 ( 62260 PWs)   bands (ev):

   -66.1743 -66.1740 -66.1738 -66.1735 -66.1734 -66.1731 -66.1729 -66.1726
   -30.5577 -30.5556 -30.5539 -30.5518 -30.5176 -30.5156 -30.5099 -30.5090
   -30.5081 -30.5040 -30.5027 -30.4968 -30.4945 -30.4910 -30.4903 -30.4879
   -30.4471 -30.4454 -30.4433 -30.4415 -30.4251 -30.4229 -30.4225 -30.4203
   -20.3359 -20.3358 -20.3358 -20.3357 -20.3357 -20.3357 -20.3357 -20.3356
   -20.3168 -20.3166 -20.3165 -20.3163 -20.3139 -20.3135 -20.3134 -20.3134
   -20.3132 -20.3130 -20.3130 -20.3127 -20.3126 -20.3124 -20.3121 -20.3119
   -20.3117 -20.3115 -20.3113 -20.3110 -20.3110 -20.3109 -20.3108 -20.3107
   -20.3032 -20.3031 -20.3026 -20.3026 -20.3020 -20.3018 -20.3016 -20.3015
   -20.2999 -20.2998 -20.2995 -20.2995 -20.2983 -20.2983 -20.2979 -20.2976
   -20.2965 -20.2962 -20.2960 -20.2956 -20.2952 -20.2950 -20.2945 -20.2945
    -9.6963  -9.4674  -9.4362  -9.2551  -9.2168  -9.0250  -8.9324  -8.8707
    -8.8345  -8.7862  -8.7482  -8.6846  -8.2109  -8.2013  -8.1409  -8.1003
    -7.9166  -7.9002  -7.8752  -7.8608  -7.8461  -7.8358  -7.7888  -7.7707
     1.5377   1.5552   1.5794   1.5960   1.7844   1.7968   1.8701   1.8997
     2.2344   2.2861   2.4216   2.5246   2.7839   2.8299   2.8759   2.9256
     3.0004   3.1219   3.7811   3.8532   3.8815   3.8982   4.0990   4.1629
     4.2579   4.3794   4.5104   4.5770   4.6429   4.6809   4.7184   4.7849
     4.8804   4.9169   4.9569   5.1507   5.1897   5.2305   5.3323   5.6082
     5.6238   5.6513   5.7485   5.7801   5.8198   5.8396   6.1288   6.1716
     6.3712   6.5240   6.5258   6.6380   6.6980   6.7018   6.7266   6.7670
     6.8494   6.8652   6.9115   6.9447   7.1087   7.1128   7.1585   7.2293
     7.3216   7.3732   7.7435   7.7543   7.8806   7.9097   8.0185   8.0241
    10.3635  10.4073  10.5242  10.5715  10.9906  11.0861  11.8467  11.8872
    12.1001  12.3444  12.3942  12.4285  12.4463  12.5498  12.6698  12.7077
    12.8182  13.0179  13.0362  13.2619  13.5343  13.5578  13.8567  13.8812
    14.5711  14.7335  15.0991  15.5308  15.6803  15.7594  15.9566  16.1737
    16.5106  17.1039  17.2029  17.4771  17.5241

          k = 0.1667 0.1575-0.5000 ( 62292 PWs)   bands (ev):

   -66.1741 -66.1741 -66.1737 -66.1737 -66.1732 -66.1732 -66.1728 -66.1728
   -30.5567 -30.5567 -30.5529 -30.5529 -30.5163 -30.5163 -30.5091 -30.5091
   -30.5047 -30.5047 -30.4988 -30.4988 -30.4708 -30.4708 -30.4700 -30.4700
   -30.4669 -30.4669 -30.4659 -30.4659 -30.4240 -30.4240 -30.4214 -30.4214
   -20.3358 -20.3358 -20.3357 -20.3357 -20.3357 -20.3357 -20.3357 -20.3356
   -20.3167 -20.3167 -20.3164 -20.3164 -20.3136 -20.3136 -20.3133 -20.3133
   -20.3132 -20.3132 -20.3130 -20.3130 -20.3125 -20.3125 -20.3120 -20.3120
   -20.3116 -20.3116 -20.3112 -20.3112 -20.3109 -20.3109 -20.3108 -20.3108
   -20.3032 -20.3032 -20.3025 -20.3025 -20.3009 -20.3008 -20.3008 -20.3008
   -20.3004 -20.3004 -20.3004 -20.3004 -20.2976 -20.2976 -20.2974 -20.2974
   -20.2970 -20.2970 -20.2967 -20.2967 -20.2950 -20.2950 -20.2947 -20.2947
    -9.5631  -9.5631  -9.3021  -9.3021  -9.1023  -9.1023  -8.8091  -8.8090
    -8.5783  -8.5783  -8.5703  -8.5702  -8.5145  -8.5144  -8.4456  -8.4455
    -7.9079  -7.9079  -7.8630  -7.8630  -7.8255  -7.8255  -7.8040  -7.8040
     1.5503   1.5503   1.5992   1.5992   1.8077   1.8077   1.8973   1.8973
     2.8019   2.8019   2.9929   2.9930   3.0723   3.0724   3.1998   3.1999
     3.2837   3.2837   3.3976   3.3976   3.4951   3.4951   3.7890   3.7891
     3.9417   3.9417   4.2616   4.2616   4.5435   4.5435   4.6805   4.6805
     4.9226   4.9226   5.0010   5.0010   5.0980   5.0980   5.4474   5.4474
     5.6946   5.6946   5.7466   5.7466   5.8515   5.8515   5.8711   5.8711
     6.4776   6.4776   6.6112   6.6112   6.6574   6.6574   6.7779   6.7779
     6.8993   6.8993   6.9141   6.9141   7.0385   7.0385   7.5203   7.5203
     7.5529   7.5529   7.6655   7.6655   7.6907   7.6907   8.0241   8.0241
    10.4235  10.4235  11.2025  11.2025  11.2685  11.2685  11.6441  11.6441
    11.8417  11.8417  12.4767  12.4767  12.5705  12.5705  12.6513  12.6513
    12.8573  12.8573  13.1136  13.1136  13.2797  13.2797  13.8639  13.8639
    14.6849  14.6849  15.4319  15.4319  15.9788  15.9788  16.0166  16.0166
    16.7508  16.7508  17.6656  17.6656  17.9399

          k = 0.1667 0.3150 0.1667 ( 62249 PWs)   bands (ev):

   -66.1744 -66.1742 -66.1736 -66.1735 -66.1734 -66.1734 -66.1727 -66.1725
   -30.5484 -30.5446 -30.5442 -30.5405 -30.5257 -30.5206 -30.5202 -30.5145
   -30.5143 -30.5120 -30.5099 -30.5075 -30.5068 -30.5060 -30.5010 -30.5007
   -30.4289 -30.4278 -30.4262 -30.4248 -30.4246 -30.4233 -30.4213 -30.4199
   -20.3359 -20.3358 -20.3358 -20.3357 -20.3357 -20.3357 -20.3356 -20.3356
   -20.3160 -20.3157 -20.3156 -20.3154 -20.3143 -20.3139 -20.3136 -20.3135
   -20.3133 -20.3132 -20.3128 -20.3126 -20.3124 -20.3123 -20.3123 -20.3121
   -20.3121 -20.3118 -20.3117 -20.3114 -20.3113 -20.3112 -20.3109 -20.3108
   -20.3034 -20.3033 -20.3030 -20.3028 -20.3028 -20.3026 -20.3025 -20.3024
   -20.2994 -20.2993 -20.2990 -20.2990 -20.2988 -20.2988 -20.2983 -20.2982
   -20.2956 -20.2955 -20.2952 -20.2951 -20.2950 -20.2947 -20.2942 -20.2941
    -9.7504  -9.6123  -9.3373  -9.3264  -9.2106  -9.1955  -8.9735  -8.9672
    -8.7859  -8.6542  -8.6522  -8.6497  -8.1796  -8.1365  -8.1347  -8.1164
    -7.8999  -7.8938  -7.8835  -7.8784  -7.7910  -7.7782  -7.7492  -7.7390
     1.4471   1.4478   1.5363   1.5431   1.5536   1.5613   1.8366   1.8905
     2.3947   2.5123   2.5196   2.5803   2.6084   2.6899   2.9816   2.9865
     3.0903   3.1004   3.6610   3.6749   3.6977   3.7394   4.1296   4.4321
     4.4407   4.4686   4.4759   4.5614   4.5758   4.7480   4.7707   4.8551
     4.9059   4.9186   5.1224   5.1407   5.3507   5.3813   5.4266   5.4286
     5.6252   5.6480   5.7251   5.7319   5.7952   5.7981   6.3474   6.3862
     6.4302   6.4398   6.5005   6.6270   6.7342   6.7442   6.8658   6.8745
     6.9197   6.9245   6.9945   7.0145   7.0870   7.0985   7.1109   7.1513
     7.3163   7.3515   7.7741   7.7791   7.8043   7.8084   7.8205   7.8494
     9.8815   9.9037  10.8087  10.8467  10.8673  10.8917  11.8502  11.8995
    11.9872  11.9924  12.2372  12.2428  12.2740  12.2790  12.8745  12.8912
    13.1750  13.1977  13.2429  13.3807  13.6231  13.6422  13.6547  13.7372
    15.0467  15.3662  15.3830  15.5221  15.5260  15.7862  16.1445  16.1504
    16.2415  16.7511  17.3380  17.4091  17.4162

          k = 0.1667 0.3150 0.3333 ( 62265 PWs)   bands (ev):

   -66.1742 -66.1740 -66.1737 -66.1735 -66.1734 -66.1732 -66.1729 -66.1727
   -30.5478 -30.5455 -30.5437 -30.5414 -30.5236 -30.5210 -30.5169 -30.5131
   -30.5096 -30.5073 -30.5061 -30.5019 -30.4947 -30.4935 -30.4906 -30.4900
   -30.4469 -30.4458 -30.4430 -30.4420 -30.4246 -30.4231 -30.4224 -30.4209
   -20.3358 -20.3358 -20.3357 -20.3357 -20.3357 -20.3357 -20.3356 -20.3356
   -20.3159 -20.3157 -20.3156 -20.3154 -20.3142 -20.3138 -20.3137 -20.3134
   -20.3134 -20.3130 -20.3129 -20.3127 -20.3125 -20.3124 -20.3122 -20.3121
   -20.3120 -20.3119 -20.3118 -20.3116 -20.3112 -20.3111 -20.3110 -20.3109
   -20.3031 -20.3030 -20.3027 -20.3027 -20.3020 -20.3019 -20.3016 -20.3015
   -20.2999 -20.2998 -20.2995 -20.2995 -20.2983 -20.2983 -20.2978 -20.2977
   -20.2964 -20.2963 -20.2959 -20.2957 -20.2951 -20.2950 -20.2946 -20.2946
    -9.6170  -9.4709  -9.3807  -9.2443  -9.1337  -8.9599  -8.8545  -8.8426
    -8.8169  -8.6654  -8.6304  -8.5958  -8.2554  -8.2419  -8.1952  -8.1347
    -8.1254  -8.0938  -8.0888  -8.0231  -7.8623  -7.8501  -7.7876  -7.7766
     1.5690   1.5784   1.5878   1.5953   2.1676   2.2302   2.2751   2.4061
     2.4200   2.5195   2.5253   2.7108   2.8572   2.9213   2.9999   3.0797
     3.2239   3.3065   3.6523   3.6713   3.7020   3.7632   3.8707   3.9486
     4.1117   4.3192   4.3897   4.4228   4.4637   4.5623   4.5823   4.6380
     4.6902   4.8089   4.8251   4.8779   4.9310   4.9896   5.1382   5.1472
     5.3197   5.3317   5.4603   5.6058   5.7586   5.8063   6.1571   6.1728
     6.5224   6.6043   6.6299   6.7418   6.8136   6.8392   6.9158   6.9679
     7.0053   7.0194   7.0497   7.0657   7.1368   7.1697   7.1891   7.2655
     7.2949   7.3577   7.7256   7.7272   7.7412   7.7505   7.8127   7.8364
    10.4784  10.5147  10.8564  10.8754  11.2984  11.3511  11.8226  11.8609
    11.9056  12.0558  12.1637  12.1915  12.4021  12.5011  12.6175  12.6983
    12.7975  13.0169  13.0848  13.3009  13.3090  13.3576  13.6398  13.6787
    15.2359  15.3498  15.7294  15.8923  15.9691  16.0334  16.0791  16.6299
    16.7032  16.8431  16.9938  17.5342  17.6576

          k = 0.1667 0.3150-0.5000 ( 62264 PWs)   bands (ev):

   -66.1740 -66.1740 -66.1738 -66.1738 -66.1731 -66.1731 -66.1729 -66.1729
   -30.5467 -30.5467 -30.5426 -30.5426 -30.5221 -30.5221 -30.5147 -30.5147
   -30.5083 -30.5083 -30.5034 -30.5034 -30.4709 -30.4709 -30.4704 -30.4704
   -30.4670 -30.4670 -30.4663 -30.4663 -30.4235 -30.4235 -30.4220 -30.4220
   -20.3358 -20.3358 -20.3358 -20.3358 -20.3357 -20.3357 -20.3357 -20.3357
   -20.3158 -20.3158 -20.3155 -20.3155 -20.3139 -20.3139 -20.3136 -20.3136
   -20.3131 -20.3131 -20.3128 -20.3128 -20.3125 -20.3125 -20.3121 -20.3121
   -20.3120 -20.3120 -20.3118 -20.3118 -20.3111 -20.3111 -20.3110 -20.3110
   -20.3030 -20.3030 -20.3027 -20.3027 -20.3008 -20.3008 -20.3008 -20.3008
   -20.3004 -20.3004 -20.3004 -20.3004 -20.2975 -20.2975 -20.2974 -20.2974
   -20.2970 -20.2970 -20.2968 -20.2968 -20.2949 -20.2949 -20.2948 -20.2948
    -9.4781  -9.4781  -9.3335  -9.3334  -8.9229  -8.9228  -8.7118  -8.7118
    -8.5988  -8.5987  -8.5800  -8.5799  -8.4986  -8.4985  -8.4176  -8.4176
    -8.1314  -8.1314  -8.0982  -8.0982  -7.8247  -7.8247  -7.8131  -7.8131
     1.5881   1.5881   1.5983   1.5983   2.3944   2.3944   2.5088   2.5088
     2.9723   2.9723   3.0524   3.0524   3.0787   3.0788   3.2511   3.2512
     3.2941   3.2941   3.4293   3.4293   3.4625   3.4625   3.6847   3.6847
     4.0790   4.0790   4.1052   4.1052   4.1240   4.1240   4.3711   4.3711
     4.7446   4.7446   4.8167   4.8167   4.9968   4.9968   5.0368   5.0368
     5.1269   5.1269   5.5260   5.5260   5.8666   5.8666   5.8804   5.8804
     6.6644   6.6644   6.7794   6.7794   6.8213   6.8213   6.8659   6.8659
     7.0222   7.0222   7.0705   7.0705   7.1716   7.1716   7.5120   7.5120
     7.5377   7.5377   7.5676   7.5676   7.6013   7.6013   7.8219   7.8219
    10.8361  10.8361  11.2155  11.2155  11.2704  11.2704  11.7596  11.7596
    12.0213  12.0213  12.1733  12.1733  12.4943  12.4943  12.5795  12.5795
    12.7513  12.7513  12.8916  12.8916  13.2678  13.2678  13.6520  13.6520
    15.3090  15.3090  15.9229  15.9229  16.3252  16.3252  16.4211  16.4211
    16.8769  16.8769  17.3134  17.3134  17.8549

          k = 0.1667-0.4725 0.1667 ( 62220 PWs)   bands (ev):

   -66.1743 -66.1743 -66.1735 -66.1735 -66.1735 -66.1734 -66.1726 -66.1726
   -30.5358 -30.5358 -30.5315 -30.5315 -30.5309 -30.5309 -30.5263 -30.5262
   -30.5147 -30.5146 -30.5094 -30.5094 -30.5062 -30.5061 -30.5039 -30.5039
   -30.4283 -30.4283 -30.4256 -30.4255 -30.4240 -30.4240 -30.4206 -30.4206
   -20.3359 -20.3359 -20.3358 -20.3357 -20.3357 -20.3357 -20.3356 -20.3356
   -20.3150 -20.3150 -20.3146 -20.3146 -20.3145 -20.3145 -20.3142 -20.3142
   -20.3131 -20.3131 -20.3128 -20.3128 -20.3125 -20.3125 -20.3124 -20.3124
   -20.3121 -20.3121 -20.3118 -20.3118 -20.3113 -20.3113 -20.3109 -20.3109
   -20.3033 -20.3033 -20.3029 -20.3029 -20.3027 -20.3027 -20.3025 -20.3025
   -20.2994 -20.2994 -20.2990 -20.2990 -20.2988 -20.2988 -20.2983 -20.2983
   -20.2955 -20.2955 -20.2952 -20.2951 -20.2949 -20.2949 -20.2942 -20.2942
    -9.6720  -9.6720  -9.2593  -9.2592  -9.2457  -9.2456  -8.9703  -8.9703
    -8.4887  -8.4885  -8.4251  -8.4247  -8.4222  -8.4219  -8.4163  -8.4160
    -7.8949  -7.8944  -7.8847  -7.8845  -7.7852  -7.7852  -7.7442  -7.7442
     1.4471   1.4477   1.5410   1.5420   1.5591   1.5598   1.8789   1.8794
     2.5988   2.5993   3.1634   3.1637   3.2063   3.2186   3.2741   3.2825
     3.2998   3.3001   3.3665   3.3793   3.5453   3.5468   3.5579   3.5618
     3.7398   3.7411   4.4727   4.4831   4.5199   4.5294   4.9392   4.9462
     5.0169   5.0179   5.1244   5.1355   5.1735   5.1837   5.4247   5.4249
     5.4607   5.4631   5.7283   5.7415   5.7628   5.7726   6.3947   6.4091
     6.4564   6.4785   6.5359   6.5387   6.7355   6.7445   6.9017   6.9042
     6.9105   6.9198   7.0736   7.0750   7.2688   7.2702   7.4542   7.4560
     7.4632   7.4671   7.4932   7.4976   7.5455   7.5457   7.7929   7.7938
     9.8955   9.8959  11.3357  11.3442  11.3809  11.3972  11.4292  11.4393
    11.4511  11.4528  12.2408  12.2469  12.2619  12.2686  12.8892  12.8896
    13.3619  13.3708  13.3711  13.3838  13.4070  13.4117  13.5339  13.5346
    15.5154  15.5163  15.6577  15.6631  15.8745  15.8843  15.8892  15.8947
    16.6347  16.6350  17.8862  17.8981  17.9293

          k = 0.1667-0.4725 0.3333 ( 62252 PWs)   bands (ev):

   -66.1742 -66.1741 -66.1736 -66.1736 -66.1733 -66.1733 -66.1728 -66.1728
   -30.5348 -30.5348 -30.5323 -30.5323 -30.5299 -30.5299 -30.5272 -30.5272
   -30.5084 -30.5084 -30.5054 -30.5053 -30.4947 -30.4946 -30.4907 -30.4907
   -30.4464 -30.4464 -30.4425 -30.4425 -30.4239 -30.4239 -30.4216 -30.4216
   -20.3358 -20.3358 -20.3357 -20.3357 -20.3357 -20.3357 -20.3356 -20.3356
   -20.3149 -20.3149 -20.3146 -20.3146 -20.3145 -20.3145 -20.3143 -20.3143
   -20.3130 -20.3130 -20.3127 -20.3127 -20.3126 -20.3126 -20.3123 -20.3123
   -20.3123 -20.3122 -20.3119 -20.3119 -20.3112 -20.3112 -20.3110 -20.3110
   -20.3029 -20.3029 -20.3028 -20.3028 -20.3020 -20.3020 -20.3016 -20.3016
   -20.2999 -20.2999 -20.2995 -20.2995 -20.2983 -20.2983 -20.2978 -20.2978
   -20.2963 -20.2963 -20.2958 -20.2958 -20.2951 -20.2951 -20.2946 -20.2946
    -9.5327  -9.5327  -9.2978  -9.2976  -9.0218  -9.0213  -8.8448  -8.8448
    -8.5300  -8.5296  -8.4522  -8.4497  -8.4119  -8.4103  -8.3991  -8.3989
    -8.1793  -8.1784  -8.0781  -8.0774  -7.8570  -7.8565  -7.7826  -7.7823
     1.5757   1.5766   1.5927   1.5941   2.2202   2.2213   2.4021   2.4029
     2.8682   2.8746   3.1777   3.1821   3.2148   3.2308   3.2674   3.2742
     3.2908   3.3103   3.4420   3.4600   3.5384   3.5492   3.6760   3.6844
     3.7742   3.7868   3.8806   3.9438   4.4581   4.5059   4.6041   4.6078
     4.6685   4.7335   4.7567   4.7908   4.9821   4.9949   5.0096   5.0867
     5.1589   5.2211   5.3245   5.4102   5.7641   5.7817   6.1675   6.1718
     6.5978   6.6088   6.6974   6.7149   6.8577   6.8629   7.0060   7.0584
     7.0859   7.1242   7.1730   7.1927   7.2052   7.2146   7.4268   7.4413
     7.4561   7.4677   7.4778   7.4998   7.5065   7.5345   7.7547   7.7571
    10.5051  10.5079  11.3760  11.3828  11.4262  11.4299  11.7399  11.7433
    11.7599  11.7877  11.8716  11.9210  12.4040  12.4583  12.7021  12.7258
    12.9052  12.9346  13.0753  13.1488  13.3811  13.4036  13.4371  13.4897
    15.6123  15.6283  15.8150  15.8271  16.2482  16.2701  16.5872  16.6124
    16.8208  16.8244  17.4186  17.4543  17.7791

          k = 0.1667-0.4725-0.5000 ( 62232 PWs)   bands (ev):

   -66.1739 -66.1739 -66.1739 -66.1739 -66.1730 -66.1730 -66.1730 -66.1730
   -30.5336 -30.5336 -30.5336 -30.5336 -30.5286 -30.5286 -30.5285 -30.5285
   -30.5066 -30.5066 -30.5066 -30.5066 -30.4708 -30.4708 -30.4708 -30.4708
   -30.4668 -30.4668 -30.4667 -30.4667 -30.4228 -30.4228 -30.4228 -30.4228
   -20.3358 -20.3358 -20.3358 -20.3358 -20.3357 -20.3357 -20.3357 -20.3357
   -20.3147 -20.3147 -20.3147 -20.3147 -20.3144 -20.3144 -20.3144 -20.3144
   -20.3128 -20.3128 -20.3128 -20.3128 -20.3125 -20.3125 -20.3125 -20.3125
   -20.3121 -20.3121 -20.3121 -20.3121 -20.3111 -20.3111 -20.3111 -20.3111
   -20.3029 -20.3029 -20.3029 -20.3029 -20.3008 -20.3008 -20.3008 -20.3008
   -20.3004 -20.3004 -20.3004 -20.3004 -20.2975 -20.2975 -20.2975 -20.2975
   -20.2969 -20.2969 -20.2969 -20.2969 -20.2949 -20.2949 -20.2949 -20.2949
    -9.3922  -9.3922  -9.3921  -9.3921  -8.7162  -8.7162  -8.7133  -8.7133
    -8.6095  -8.6094  -8.6045  -8.6045  -8.3807  -8.3807  -8.3753  -8.3753
    -8.3249  -8.3249  -8.3210  -8.3210  -7.8196  -7.8196  -7.8191  -7.8191
     1.5951   1.5951   1.5966   1.5966   2.9845   2.9845   2.9905   2.9905
     3.1192   3.1192   3.1488   3.1489   3.2354   3.2354   3.2599   3.2599
     3.3023   3.3023   3.3656   3.3656   3.5031   3.5031   3.5139   3.5139
     3.6480   3.6480   3.6661   3.6661   4.3122   4.3123   4.3194   4.3194
     4.4203   4.4203   4.4270   4.4270   4.8745   4.8745   5.0552   5.0552
     5.1423   5.1423   5.3085   5.3085   5.8678   5.8678   5.8790   5.8790
     6.7471   6.7471   6.7722   6.7722   6.8624   6.8624   6.8945   6.8945
     7.2703   7.2703   7.3157   7.3157   7.3617   7.3617   7.3898   7.3898
     7.4561   7.4561   7.4869   7.4869   7.5751   7.5751   7.6034   7.6034
    11.1868  11.1868  11.2122  11.2122  11.4168  11.4168  11.4709  11.4709
    12.2437  12.2437  12.2677  12.2677  12.3049  12.3049  12.3190  12.3190
    12.7216  12.7216  12.7895  12.7895  13.3945  13.3945  13.4386  13.4386
    15.7222  15.7222  15.7398  15.7398  16.9378  16.9378  16.9432  16.9433
    17.2869  17.2870  17.3011  17.3011  17.3885

          k = 0.3333 0.0000 0.3333 ( 62316 PWs)   bands (ev):

   -66.1742 -66.1738 -66.1737 -66.1736 -66.1733 -66.1733 -66.1731 -66.1728
   -30.5608 -30.5587 -30.5586 -30.5565 -30.5104 -30.5071 -30.5065 -30.5002
   -30.4961 -30.4949 -30.4924 -30.4908 -30.4894 -30.4894 -30.4837 -30.4815
   -30.4469 -30.4452 -30.4449 -30.4429 -30.4423 -30.4402 -30.4394 -30.4371
   -20.3358 -20.3358 -20.3358 -20.3357 -20.3357 -20.3357 -20.3357 -20.3356
   -20.3171 -20.3169 -20.3169 -20.3168 -20.3138 -20.3135 -20.3135 -20.3133
   -20.3133 -20.3130 -20.3130 -20.3128 -20.3124 -20.3122 -20.3118 -20.3118
   -20.3117 -20.3116 -20.3112 -20.3110 -20.3110 -20.3108 -20.3107 -20.3105
   -20.3026 -20.3025 -20.3021 -20.3020 -20.3019 -20.3017 -20.3011 -20.3008
   -20.3003 -20.3001 -20.2991 -20.2991 -20.2988 -20.2988 -20.2976 -20.2973
   -20.2971 -20.2969 -20.2960 -20.2959 -20.2959 -20.2954 -20.2953 -20.2950
    -9.5950  -9.3579  -9.3542  -9.2465  -9.1334  -8.9739  -8.9602  -8.7658
    -8.7553  -8.7424  -8.7243  -8.7165  -8.2367  -8.1835  -8.1761  -8.1725
    -8.1605  -8.1590  -8.0526  -8.0334  -7.8057  -7.7808  -7.7802  -7.7556
     1.5283   1.5688   1.5698   1.6104   2.1461   2.1528   2.2525   2.2668
     2.2895   2.3030   2.5032   2.6056   2.9386   2.9414   2.9835   3.0233
     3.2139   3.2372   3.7803   3.7972   3.8912   3.9151   4.1068   4.1078
     4.1547   4.1548   4.2386   4.3378   4.4086   4.4186   4.4933   4.5189
     4.8281   4.8512   4.9293   4.9676   5.0414   5.0489   5.1757   5.4142
     5.4310   5.4964   5.4986   5.6368   5.8881   5.8933   5.8956   6.0442
     6.4673   6.4697   6.4937   6.4942   6.5250   6.5567   6.5581   6.6165
     6.9954   7.1740   7.1807   7.1969   7.2015   7.3044   7.3489   7.3641
     7.4052   7.4943   7.7046   7.7128   7.8949   7.9666   7.9749   8.0145
    10.7137  10.8630  10.8632  10.9048  10.9612  11.1967  12.0150  12.0238
    12.0629  12.0687  12.1631  12.2718  12.5038  12.5237  12.7055  12.7818
    12.8054  12.8153  12.9603  13.0291  13.5436  13.6118  13.6216  13.7154
    14.4366  14.7043  14.7057  15.1618  15.8340  16.2741  16.3154  16.7418
    16.7426  17.1420  17.1452  17.7389  17.7773

          k = 0.3333 0.0000-0.5000 ( 62288 PWs)   bands (ev):

   -66.1739 -66.1739 -66.1735 -66.1735 -66.1734 -66.1734 -66.1730 -66.1730
   -30.5598 -30.5598 -30.5576 -30.5576 -30.5077 -30.5077 -30.5022 -30.5022
   -30.4912 -30.4912 -30.4862 -30.4862 -30.4699 -30.4699 -30.4690 -30.4690
   -30.4673 -30.4673 -30.4666 -30.4666 -30.4420 -30.4420 -30.4387 -30.4387
   -20.3358 -20.3358 -20.3357 -20.3357 -20.3357 -20.3357 -20.3357 -20.3357
   -20.3170 -20.3170 -20.3169 -20.3169 -20.3135 -20.3135 -20.3133 -20.3133
   -20.3132 -20.3132 -20.3131 -20.3131 -20.3123 -20.3123 -20.3118 -20.3118
   -20.3117 -20.3117 -20.3111 -20.3111 -20.3109 -20.3109 -20.3107 -20.3107
   -20.3023 -20.3023 -20.3018 -20.3018 -20.3010 -20.3010 -20.3008 -20.3008
   -20.3001 -20.3001 -20.2999 -20.2999 -20.2982 -20.2982 -20.2978 -20.2978
   -20.2969 -20.2969 -20.2965 -20.2965 -20.2958 -20.2958 -20.2955 -20.2955
    -9.4518  -9.4518  -9.2134  -9.2134  -9.0627  -9.0626  -8.7394  -8.7393
    -8.6249  -8.6248  -8.5527  -8.5527  -8.4891  -8.4890  -8.4543  -8.4542
    -8.1265  -8.1265  -8.1196  -8.1196  -7.7937  -7.7937  -7.7681  -7.7681
     1.5485   1.5485   1.5907   1.5907   2.2833   2.2833   2.3092   2.3092
     2.9184   2.9185   3.0140   3.0140   3.0487   3.0487   3.2033   3.2033
     3.3122   3.3122   3.5769   3.5769   3.7200   3.7200   3.8520   3.8520
     3.8769   3.8769   4.0593   4.0593   4.2015   4.2015   4.3555   4.3555
     4.7008   4.7008   4.9136   4.9136   5.0278   5.0278   5.1185   5.1185
[...]
   -20.2879 -20.2879 -20.2878 -20.2878 -20.2874 -20.2874 -20.2874 -20.2874
   -20.2792 -20.2792 -20.2791 -20.2790 -20.2769 -20.2769 -20.2768 -20.2768
   -20.2762 -20.2762 -20.2762 -20.2762 -20.2738 -20.2738 -20.2738 -20.2738
   -20.2733 -20.2733 -20.2732 -20.2732 -20.2709 -20.2709 -20.2706 -20.2706
    -9.4655  -9.4655  -9.3179  -9.3179  -8.9185  -8.9185  -8.7035  -8.7035
    -8.5703  -8.5703  -8.5528  -8.5528  -8.4746  -8.4746  -8.3949  -8.3949
    -8.1225  -8.1225  -8.0911  -8.0911  -7.8077  -7.8076  -7.7958  -7.7957
     1.5978   1.5978   1.6082   1.6082   2.3921   2.3921   2.5089   2.5089
     2.9932   2.9932   3.0713   3.0713   3.0862   3.0862   3.2768   3.2768
     3.3145   3.3145   3.4590   3.4590   3.4895   3.4895   3.6959   3.6959
     4.0708   4.0708   4.1029   4.1029   4.1796   4.1796   4.3949   4.3949
     4.7493   4.7493   4.8163   4.8163   5.0063   5.0063   5.0510   5.0510
     5.1505   5.1505   5.5311   5.5311   5.8832   5.8832   5.8980   5.8980
     6.6835   6.6835   6.8025   6.8026   6.8455   6.8455   6.8854   6.8855
     7.0289   7.0289   7.0895   7.0895   7.1820   7.1820   7.5222   7.5222
     7.5441   7.5441   7.6015   7.6015   7.6294   7.6294   7.8402   7.8402
    10.8610  10.8611  11.2404  11.2404  11.2869  11.2869  11.7520  11.7520
    12.0458  12.0458  12.2066  12.2066  12.5170  12.5170  12.6245  12.6245
    12.7782  12.7782  12.9273  12.9273  13.2910  13.2910  13.6904  13.6904
    15.3477  15.3477  15.9408  15.9408  16.3734  16.3734  16.4604  16.4604
    16.8767  16.8767  17.3338  17.3338  17.8799

          k = 0.3334 0.4732 0.1666 ( 62174 PWs)   bands (ev):

   -66.1515 -66.1515 -66.1510 -66.1510 -66.1506 -66.1506 -66.1501 -66.1501
   -30.5180 -30.5180 -30.5154 -30.5153 -30.5142 -30.5142 -30.5115 -30.5115
   -30.4889 -30.4889 -30.4862 -30.4861 -30.4692 -30.4692 -30.4653 -30.4653
   -30.4209 -30.4209 -30.4171 -30.4171 -30.4036 -30.4036 -30.4013 -30.4013
   -20.3120 -20.3120 -20.3120 -20.3119 -20.3119 -20.3118 -20.3118 -20.3118
   -20.2912 -20.2912 -20.2910 -20.2910 -20.2908 -20.2908 -20.2906 -20.2906
   -20.2892 -20.2892 -20.2890 -20.2890 -20.2885 -20.2885 -20.2883 -20.2883
   -20.2883 -20.2882 -20.2878 -20.2878 -20.2876 -20.2876 -20.2873 -20.2873
   -20.2793 -20.2793 -20.2790 -20.2789 -20.2780 -20.2779 -20.2775 -20.2775
   -20.2760 -20.2759 -20.2753 -20.2753 -20.2747 -20.2747 -20.2740 -20.2740
   -20.2726 -20.2726 -20.2721 -20.2721 -20.2709 -20.2709 -20.2706 -20.2706
    -9.5145  -9.5144  -9.2845  -9.2843  -8.9950  -8.9947  -8.8189  -8.8189
    -8.5273  -8.5262  -8.4467  -8.4449  -8.4063  -8.4051  -8.3946  -8.3945
    -8.1514  -8.1507  -8.0516  -8.0507  -7.8396  -7.8394  -7.7651  -7.7647
     1.5856   1.5857   1.6046   1.6051   2.2493   2.2502   2.4338   2.4362
     2.8930   2.8951   3.1757   3.1775   3.2206   3.2287   3.2726   3.2953
     3.3217   3.3254   3.4410   3.4808   3.5276   3.5606   3.6985   3.7020
     3.7850   3.7977   3.9008   3.9685   4.4458   4.4898   4.6331   4.6389
     4.6887   4.7170   4.8106   4.8121   4.9795   5.0191   5.0272   5.0860
     5.1636   5.2214   5.3448   5.4203   5.7810   5.7980   6.1894   6.1901
     6.6282   6.6422   6.7138   6.7246   6.8779   6.8825   7.0152   7.0719
     7.1149   7.1378   7.1845   7.2121   7.2277   7.2279   7.4379   7.4578
     7.4702   7.4911   7.5003   7.5171   7.5275   7.5586   7.7733   7.7770
    10.5289  10.5332  11.3900  11.4086  11.4267  11.4357  11.7835  11.7838
    11.8047  11.8113  11.8918  11.9462  12.4220  12.4742  12.7181  12.7390
    12.9353  12.9618  13.1143  13.1899  13.4070  13.4358  13.4605  13.5131
    15.6405  15.6602  15.8470  15.8635  16.2483  16.2736  16.6136  16.6400
    16.8662  16.8686  17.4496  17.4910  17.8589

          k =-0.5001 0.4732 0.1666 ( 62164 PWs)   bands (ev):

   -66.1512 -66.1512 -66.1512 -66.1512 -66.1504 -66.1503 -66.1503 -66.1503
   -30.5168 -30.5168 -30.5165 -30.5165 -30.5130 -30.5130 -30.5126 -30.5126
   -30.4875 -30.4875 -30.4874 -30.4874 -30.4455 -30.4455 -30.4450 -30.4450
   -30.4415 -30.4415 -30.4411 -30.4411 -30.4025 -30.4025 -30.4025 -30.4025
   -20.3120 -20.3120 -20.3120 -20.3120 -20.3118 -20.3118 -20.3118 -20.3118
   -20.2911 -20.2911 -20.2911 -20.2911 -20.2907 -20.2907 -20.2907 -20.2907
   -20.2891 -20.2891 -20.2891 -20.2891 -20.2884 -20.2884 -20.2884 -20.2884
   -20.2880 -20.2880 -20.2879 -20.2879 -20.2875 -20.2875 -20.2875 -20.2875
   -20.2791 -20.2791 -20.2791 -20.2791 -20.2768 -20.2768 -20.2768 -20.2768
   -20.2763 -20.2763 -20.2762 -20.2762 -20.2738 -20.2738 -20.2738 -20.2738
   -20.2732 -20.2732 -20.2732 -20.2732 -20.2708 -20.2708 -20.2708 -20.2708
    -9.3791  -9.3791  -9.3758  -9.3758  -8.7042  -8.7042  -8.6909  -8.6909
    -8.5905  -8.5905  -8.5788  -8.5788  -8.3794  -8.3794  -8.3570  -8.3569
    -8.3186  -8.3186  -8.2980  -8.2980  -7.8022  -7.8022  -7.8018  -7.8018
     1.6038   1.6038   1.6076   1.6076   2.9777   2.9777   3.0327   3.0327
     3.1435   3.1435   3.1548   3.1548   3.2195   3.2195   3.2695   3.2695
     3.3271   3.3271   3.4555   3.4555   3.4736   3.4736   3.5459   3.5459
     3.5857   3.5857   3.7590   3.7590   4.3078   4.3078   4.3392   4.3392
     4.3968   4.3968   4.4570   4.4570   4.8916   4.8916   5.0725   5.0725
     5.1533   5.1533   5.3132   5.3132   5.8842   5.8842   5.8979   5.8979
     6.7613   6.7613   6.8032   6.8032   6.8834   6.8834   6.9186   6.9186
     7.2803   7.2803   7.3094   7.3094   7.3669   7.3669   7.4342   7.4342
     7.4601   7.4601   7.5290   7.5290   7.5931   7.5931   7.6205   7.6205
    11.2205  11.2205  11.2489  11.2489  11.4125  11.4125  11.4710  11.4710
    12.2500  12.2500  12.3000  12.3000  12.3241  12.3241  12.3822  12.3822
    12.7487  12.7487  12.8172  12.8172  13.4235  13.4235  13.4699  13.4699
    15.7512  15.7512  15.7714  15.7714  16.9312  16.9312  16.9839  16.9840
    17.2996  17.2997  17.3535  17.3537  17.4243

          k =-0.5001 0.0000 0.3332 ( 62196 PWs)   bands (ev):

   -66.1512 -66.1512 -66.1508 -66.1508 -66.1507 -66.1507 -66.1503 -66.1503
   -30.5444 -30.5444 -30.5424 -30.5424 -30.4897 -30.4896 -30.4855 -30.4855
   -30.4692 -30.4692 -30.4687 -30.4687 -30.4458 -30.4458 -30.4441 -30.4441
   -30.4414 -30.4414 -30.4405 -30.4405 -30.4210 -30.4210 -30.4191 -30.4191
   -20.3120 -20.3120 -20.3119 -20.3119 -20.3119 -20.3119 -20.3118 -20.3118
   -20.2934 -20.2934 -20.2932 -20.2932 -20.2898 -20.2898 -20.2896 -20.2896
   -20.2893 -20.2893 -20.2890 -20.2890 -20.2883 -20.2883 -20.2881 -20.2881
   -20.2876 -20.2876 -20.2874 -20.2874 -20.2871 -20.2871 -20.2869 -20.2869
   -20.2783 -20.2783 -20.2782 -20.2782 -20.2771 -20.2771 -20.2770 -20.2770
   -20.2759 -20.2759 -20.2757 -20.2757 -20.2743 -20.2743 -20.2742 -20.2742
   -20.2731 -20.2731 -20.2728 -20.2728 -20.2719 -20.2719 -20.2714 -20.2714
    -9.4455  -9.4455  -9.2142  -9.2142  -9.0451  -9.0451  -8.7329  -8.7329
    -8.5947  -8.5947  -8.5261  -8.5261  -8.4609  -8.4609  -8.4274  -8.4274
    -8.1085  -8.1085  -8.1026  -8.1026  -7.7832  -7.7832  -7.7585  -7.7585
     1.5402   1.5402   1.5827   1.5827   2.2957   2.2957   2.3232   2.3232
     2.9339   2.9339   3.0294   3.0294   3.0579   3.0579   3.2264   3.2264
     3.3373   3.3373   3.6094   3.6094   3.7403   3.7403   3.8656   3.8656
     3.8872   3.8872   4.0698   4.0698   4.2184   4.2184   4.3802   4.3802
     4.7182   4.7182   4.9273   4.9273   5.0648   5.0648   5.1313   5.1313
     5.2868   5.2868   5.5278   5.5278   5.9245   5.9245   6.0214   6.0214
     6.4191   6.4191   6.4380   6.4380   6.4888   6.4888   6.5949   6.5949
     7.1829   7.1829   7.3188   7.3188   7.4072   7.4072   7.5573   7.5573
     7.5872   7.5872   7.7160   7.7160   7.7585   7.7585   8.0038   8.0038
    10.9032  10.9032  11.4343  11.4343  11.5255  11.5255  11.6237  11.6238
    11.8710  11.8710  12.2658  12.2658  12.3860  12.3860  12.6420  12.6420
    12.8581  12.8581  13.2149  13.2149  13.2566  13.2566  13.6646  13.6646
    14.6562  14.6562  15.0343  15.0343  16.3070  16.3070  16.7222  16.7222
    17.0647  17.0647  17.5114  17.5114  17.9483

          k =-0.5001-0.1577 0.3332 ( 62254 PWs)   bands (ev):

   -66.1512 -66.1512 -66.1509 -66.1508 -66.1507 -66.1507 -66.1504 -66.1503
   -30.5406 -30.5406 -30.5386 -30.5386 -30.4928 -30.4928 -30.4892 -30.4892
   -30.4696 -30.4696 -30.4689 -30.4689 -30.4457 -30.4456 -30.4440 -30.4440
   -30.4418 -30.4418 -30.4408 -30.4408 -30.4210 -30.4210 -30.4193 -30.4193
   -20.3120 -20.3120 -20.3119 -20.3119 -20.3119 -20.3119 -20.3118 -20.3118
   -20.2930 -20.2930 -20.2929 -20.2929 -20.2899 -20.2898 -20.2895 -20.2895
   -20.2894 -20.2894 -20.2890 -20.2890 -20.2883 -20.2883 -20.2881 -20.2881
   -20.2877 -20.2877 -20.2875 -20.2875 -20.2874 -20.2874 -20.2871 -20.2871
   -20.2783 -20.2783 -20.2782 -20.2782 -20.2771 -20.2770 -20.2770 -20.2770
   -20.2759 -20.2759 -20.2758 -20.2758 -20.2743 -20.2743 -20.2742 -20.2742
   -20.2731 -20.2731 -20.2729 -20.2729 -20.2719 -20.2719 -20.2714 -20.2714
    -9.3981  -9.3981  -9.1483  -9.1483  -9.0558  -9.0558  -8.7088  -8.7088
    -8.6022  -8.6022  -8.5237  -8.5237  -8.4597  -8.4597  -8.4235  -8.4235
    -8.1074  -8.1074  -8.1069  -8.1069  -7.8771  -7.8771  -7.8524  -7.8524
     1.7659   1.7660   1.8094   1.8094   2.2949   2.2949   2.3333   2.3333
     2.9771   2.9771   3.0652   3.0652   3.0758   3.0758   3.2377   3.2377
     3.3390   3.3390   3.6253   3.6253   3.7381   3.7381   3.8570   3.8570
     3.9313   3.9313   4.1012   4.1012   4.2163   4.2163   4.3874   4.3874
     4.5910   4.5911   4.7097   4.7097   5.0136   5.0136   5.0540   5.0540
     5.1027   5.1027   5.3231   5.3231   5.7141   5.7141   5.7967   5.7968
     6.5518   6.5518   6.5837   6.5837   6.6440   6.6440   6.7677   6.7677
     7.1874   7.1874   7.3112   7.3112   7.4043   7.4043   7.5542   7.5542
     7.5816   7.5816   7.6894   7.6894   7.7308   7.7308   7.9479   7.9479
    11.0035  11.0035  11.4530  11.4530  11.5356  11.5356  11.6841  11.6841
    11.9220  11.9220  12.2844  12.2844  12.3824  12.3824  12.6511  12.6511
    12.7403  12.7403  13.0971  13.0971  13.1402  13.1402  13.5601  13.5601
    15.0205  15.0205  15.4146  15.4146  16.3921  16.3921  16.7225  16.7225
    17.0688  17.0688  17.5229  17.5230  17.8115

          k =-0.5001-0.3155 0.3332 ( 62186 PWs)   bands (ev):

   -66.1511 -66.1511 -66.1509 -66.1509 -66.1506 -66.1506 -66.1504 -66.1504
   -30.5301 -30.5301 -30.5280 -30.5280 -30.5022 -30.5022 -30.4995 -30.4995
   -30.4699 -30.4699 -30.4693 -30.4693 -30.4452 -30.4452 -30.4438 -30.4438
   -30.4425 -30.4424 -30.4414 -30.4414 -30.4207 -30.4207 -30.4197 -30.4197
   -20.3120 -20.3120 -20.3119 -20.3119 -20.3119 -20.3119 -20.3119 -20.3118
   -20.2922 -20.2921 -20.2920 -20.2920 -20.2902 -20.2902 -20.2898 -20.2898
   -20.2893 -20.2893 -20.2888 -20.2888 -20.2885 -20.2885 -20.2882 -20.2882
   -20.2879 -20.2879 -20.2878 -20.2878 -20.2875 -20.2875 -20.2875 -20.2875
   -20.2783 -20.2783 -20.2782 -20.2782 -20.2770 -20.2770 -20.2770 -20.2770
   -20.2759 -20.2759 -20.2758 -20.2758 -20.2743 -20.2743 -20.2742 -20.2742
   -20.2731 -20.2731 -20.2729 -20.2729 -20.2718 -20.2718 -20.2715 -20.2715
    -9.2831  -9.2831  -9.0925  -9.0925  -8.9709  -8.9709  -8.6573  -8.6573
    -8.6082  -8.6082  -8.5179  -8.5179  -8.4501  -8.4501  -8.4036  -8.4036
    -8.1527  -8.1527  -8.1137  -8.1137  -8.0956  -8.0956  -8.0438  -8.0438
     2.2205   2.2205   2.2917   2.2917   2.4020   2.4020   2.5212   2.5213
     3.0428   3.0429   3.0915   3.0916   3.2038   3.2039   3.2770   3.2770
     3.3675   3.3675   3.6211   3.6211   3.7170   3.7170   3.8074   3.8074
     4.0458   4.0458   4.1172   4.1172   4.1755   4.1755   4.2565   4.2565
     4.3501   4.3502   4.4760   4.4760   4.6441   4.6441   4.8642   4.8643
     4.9678   4.9678   5.0359   5.0359   5.0763   5.0763   5.3091   5.3091
     6.8684   6.8684   6.9238   6.9238   6.9894   6.9894   7.0487   7.0487
     7.1968   7.1968   7.2954   7.2954   7.4042   7.4042   7.5188   7.5188
     7.5553   7.5553   7.6221   7.6221   7.6535   7.6535   7.7867   7.7867
    11.2686  11.2686  11.4834  11.4834  11.5698  11.5698  11.8514  11.8514
    12.0873  12.0873  12.3119  12.3119  12.3726  12.3726  12.3779  12.3779
    12.7205  12.7205  12.8169  12.8170  12.9012  12.9012  13.3069  13.3069
    15.8567  15.8567  16.3426  16.3427  16.6458  16.6458  16.7121  16.7121
    17.0977  17.0977  17.4007  17.4007  17.6825

          k =-0.5001 0.4732 0.3332 ( 62120 PWs)   bands (ev):

   -66.1510 -66.1510 -66.1510 -66.1510 -66.1505 -66.1505 -66.1505 -66.1505
   -30.5162 -30.5162 -30.5158 -30.5158 -30.5139 -30.5139 -30.5135 -30.5135
   -30.4698 -30.4698 -30.4697 -30.4697 -30.4446 -30.4446 -30.4441 -30.4441
   -30.4424 -30.4424 -30.4420 -30.4420 -30.4203 -30.4203 -30.4202 -30.4202
   -20.3120 -20.3120 -20.3119 -20.3119 -20.3119 -20.3119 -20.3119 -20.3118
   -20.2910 -20.2910 -20.2910 -20.2910 -20.2908 -20.2908 -20.2908 -20.2908
   -20.2890 -20.2890 -20.2890 -20.2890 -20.2886 -20.2886 -20.2886 -20.2885
   -20.2879 -20.2879 -20.2879 -20.2878 -20.2876 -20.2876 -20.2876 -20.2876
   -20.2783 -20.2782 -20.2782 -20.2782 -20.2770 -20.2770 -20.2770 -20.2770
   -20.2759 -20.2759 -20.2759 -20.2759 -20.2743 -20.2743 -20.2743 -20.2743
   -20.2730 -20.2730 -20.2730 -20.2730 -20.2717 -20.2716 -20.2716 -20.2716
    -9.1691  -9.1691  -9.1641  -9.1641  -8.7699  -8.7699  -8.7571  -8.7571
    -8.5327  -8.5327  -8.5207  -8.5207  -8.3723  -8.3723  -8.3553  -8.3553
    -8.3201  -8.3201  -8.3061  -8.3061  -8.0922  -8.0922  -8.0910  -8.0910
     2.2791   2.2791   2.2864   2.2864   2.9920   2.9920   3.0268   3.0268
     3.1381   3.1381   3.1456   3.1456   3.2706   3.2706   3.2844   3.2844
     3.4106   3.4106   3.4529   3.4529   3.6394   3.6394   3.6772   3.6772
     3.7826   3.7826   3.8780   3.8780   4.2668   4.2668   4.2952   4.2952
     4.3516   4.3516   4.4170   4.4170   4.4896   4.4896   4.5979   4.5979
     4.6790   4.6791   4.8335   4.8335   5.0795   5.0795   5.1012   5.1012
     7.0278   7.0278   7.0915   7.0915   7.1949   7.1949   7.2071   7.2071
     7.2867   7.2867   7.3282   7.3283   7.3749   7.3749   7.4172   7.4172
     7.4972   7.4972   7.5678   7.5678   7.6159   7.6160   7.6462   7.6462
    11.4461  11.4461  11.4744  11.4744  11.7633  11.7633  11.8349  11.8349
    12.1966  12.1966  12.2379  12.2379  12.3383  12.3383  12.3806  12.3806
    12.5228  12.5228  12.6229  12.6229  12.9914  12.9914  13.0669  13.0669
    16.4718  16.4718  16.5186  16.5186  17.0847  17.0847  17.1266  17.1267
    17.3123  17.3124  17.3765  17.3773  17.4067

     the Fermi energy is     9.1706 ev

!    total energy              =   -6261.11033319 Ry
     Harris-Foulkes estimate   =   -6261.11033319 Ry
     estimated scf accuracy    <          8.3E-11 Ry

     The total energy is the sum of the following terms:

     one-electron contribution =   -4715.80253398 Ry
     hartree contribution      =    2594.88233043 Ry
     xc contribution           =    -965.66859104 Ry
     ewald contribution        =   -3174.52153860 Ry
     smearing contrib. (-TS)   =      -0.00000000 Ry

     convergence has been achieved in  14 iterations

     Forces acting on atoms (cartesian axes, Ry/au):

     atom    1 type  1   force =    -0.00166309   -0.00084947    0.00102430
     atom    2 type  1   force =     0.00166309    0.00084947   -0.00102430
     atom    3 type  1   force =     0.00166309    0.00084947    0.00102430
     atom    4 type  1   force =    -0.00166309   -0.00084947   -0.00102430
     atom    5 type  1   force =     0.00166309   -0.00084947   -0.00102430
     atom    6 type  1   force =    -0.00166309    0.00084947    0.00102430
     atom    7 type  1   force =    -0.00166309    0.00084947   -0.00102430
     atom    8 type  1   force =     0.00166309   -0.00084947    0.00102430
     atom    9 type  2   force =    -0.00034545    0.00053251    0.00023630
     atom   10 type  2   force =     0.00034545   -0.00053251   -0.00023630
     atom   11 type  2   force =     0.00034545   -0.00053251    0.00023630
     atom   12 type  2   force =    -0.00034545    0.00053251   -0.00023630
     atom   13 type  2   force =     0.00034545    0.00053251   -0.00023630
     atom   14 type  2   force =    -0.00034545   -0.00053251    0.00023630
     atom   15 type  2   force =    -0.00034545   -0.00053251   -0.00023630
     atom   16 type  2   force =     0.00034545    0.00053251    0.00023630
     atom   17 type  2   force =    -0.00081086    0.00012436    0.00038096
     atom   18 type  2   force =     0.00081086   -0.00012436   -0.00038096
     atom   19 type  2   force =     0.00081086   -0.00012436    0.00038096
     atom   20 type  2   force =    -0.00081086    0.00012436   -0.00038096
     atom   21 type  2   force =     0.00081086    0.00012436   -0.00038096
     atom   22 type  2   force =    -0.00081086   -0.00012436    0.00038096
     atom   23 type  2   force =    -0.00081086   -0.00012436   -0.00038096
     atom   24 type  2   force =     0.00081086    0.00012436    0.00038096
     atom   25 type  2   force =     0.00002378   -0.00088012    0.00049732
     atom   26 type  2   force =    -0.00002378    0.00088012   -0.00049732
     atom   27 type  2   force =    -0.00002378    0.00088012    0.00049732
     atom   28 type  2   force =     0.00002378   -0.00088012   -0.00049732
     atom   29 type  2   force =    -0.00002378   -0.00088012   -0.00049732
     atom   30 type  2   force =     0.00002378    0.00088012    0.00049732
     atom   31 type  2   force =     0.00002378    0.00088012   -0.00049732
     atom   32 type  2   force =    -0.00002378   -0.00088012    0.00049732

     Total force =     0.000000     Total SCF correction =     0.000000


     Computing stress (Cartesian axis) and pressure

          total   stress  (Ry/bohr**3)                   (kbar)     P=   -0.03
  -0.00000015   0.00000000   0.00000000         -0.02      0.00      0.00
   0.00000000  -0.00000044   0.00000000          0.00     -0.07      0.00
   0.00000000   0.00000000  -0.00000002          0.00      0.00     -0.00


     Writing output data file Landau_11.save
 
     init_run     :     61.05s CPU     62.59s WALL (       2 calls)
     electrons    :   4290.96s CPU   4361.45s WALL (       5 calls)
     update_pot   :     85.86s CPU     85.98s WALL (       3 calls)
     forces       :    117.43s CPU    118.89s WALL (       5 calls)
     stress       :    656.85s CPU    665.13s WALL (       5 calls)

     Called by init_run:
     wfcinit      :     35.30s CPU     36.58s WALL (       2 calls)
     potinit      :     11.73s CPU     11.80s WALL (       2 calls)

     Called by electrons:
     c_bands      :   3747.93s CPU   3813.45s WALL (      67 calls)
     sum_band     :    490.33s CPU    492.41s WALL (      67 calls)
     v_of_rho     :      9.12s CPU      9.21s WALL (      71 calls)
     mix_rho      :     16.86s CPU     18.84s WALL (      67 calls)

     Called by c_bands:
     init_us_2    :     33.15s CPU     35.08s WALL (     136 calls)
     cegterg      :   3046.66s CPU   3111.31s WALL (      67 calls)

     Called by sum_band:

     Called by *egterg:
     h_psi        :   2340.06s CPU   2346.39s WALL (     249 calls)
     g_psi        :     10.16s CPU     10.19s WALL (     180 calls)
     cdiaghg      :     31.30s CPU     31.34s WALL (     243 calls)

     Called by h_psi:
     h_psi:pot    :   2322.29s CPU   2328.29s WALL (     249 calls)
     h_psi:calbec :    270.86s CPU    275.06s WALL (     249 calls)
     vloc_psi     :   1763.62s CPU   1764.98s WALL (     249 calls)
     add_vuspsi   :    287.81s CPU    288.25s WALL (     249 calls)

     General routines
     calbec       :    311.16s CPU    315.92s WALL (     274 calls)
     fft          :      6.24s CPU      6.25s WALL (     324 calls)
     fftw         :   1777.22s CPU   1777.91s WALL (   87635 calls)
 
     Parallel routines
 
     PWSCF        :     1h26m CPU        1h28m WALL

 
   This run was terminated on:  18:22:23  29Apr2019            

=------------------------------------------------------------------------------=
   JOB DONE.
=------------------------------------------------------------------------------=
