
     Program PWSCF v.6.2 (svn rev. 14038) starts on 12Mar2020 at 19:23:10 

     This program is part of the open-source Quantum ESPRESSO suite
     for quantum simulation of materials; please cite
         "P. Giannozzi et al., J. Phys.:Condens. Matter 21 395502 (2009);
         "P. Giannozzi et al., J. Phys.:Condens. Matter 29 465901 (2017);
          URL http://www.quantum-espresso.org", 
     in publications or presentations arising from this work. More details at
     http://www.quantum-espresso.org/quote

     Parallel version (MPI), running on    40 processors

     MPI processes distributed on     4 nodes
     K-points division:     npool     =      40
     Reading input from rscf.in

     Current dimensions of program PWSCF are:
     Max number of different atomic species (ntypx) = 10
     Max number of k-points (npk) =  40000
     Max angular momentum in pseudopotentials (lmaxx) =  3

     Subspace diagonalization in iterative solution of the eigenvalue problem:
     a serial algorithm will be used

 
     G-vector sticks info
     --------------------
     sticks:   dense  smooth     PW     G-vecs:    dense   smooth      PW
     Sum        7747    7747   2077               498127   498127   69057
 


     bravais-lattice index     =            0
     lattice parameter (alat)  =      13.8397  a.u.
     unit-cell volume          =    2804.9816 (a.u.)^3
     number of atoms/cell      =           32
     number of atomic types    =            2
     number of electrons       =       368.00
     number of Kohn-Sham states=          221
     kinetic-energy cutoff     =     120.0000  Ry
     charge density cutoff     =     480.0000  Ry
     convergence threshold     =      1.0E-08
     mixing beta               =       0.7000
     number of iterations used =            8  plain     mixing
     Exchange-correlation      = SLA PW NOGX NOGC ( 1  4  0  0 0 0)
     nstep                     =           50


     celldm(1)=  13.839685  celldm(2)=   0.000000  celldm(3)=   0.000000
     celldm(4)=   0.000000  celldm(5)=   0.000000  celldm(6)=   0.000000

     crystal axes: (cart. coord. in units of alat)
               a(1) = (   1.000000   0.000000   0.000000 )  
               a(2) = (   0.000000   1.058160   0.000000 )  
               a(3) = (   0.000000   0.000000   1.000000 )  

     reciprocal axes: (cart. coord. in units 2 pi/alat)
               b(1) = (  1.000000  0.000000  0.000000 )  
               b(2) = (  0.000000  0.945037  0.000000 )  
               b(3) = (  0.000000  0.000000  1.000000 )  


     PseudoPot. # 1 for W  read from file:
     /cluster/scratch/mnoe/QE/pps/W_ONCV_LDA-4.0.upf
     MD5 check sum: ba0307d5d4cd419d6f1d13dc49d7c13a
     Pseudo is Norm-conserving + core correction, Zval = 28.0
     Generated using ONCVPSP code by D. R. Hamann
     Using radial grid of 1380 points,  8 beta functions with: 
                l(1) =   0
                l(2) =   0
                l(3) =   1
                l(4) =   1
                l(5) =   2
                l(6) =   2
                l(7) =   3
                l(8) =   3

     PseudoPot. # 2 for O  read from file:
     /cluster/scratch/mnoe/QE/pps/O_ONCV_LDA-3.0.upf
     MD5 check sum: a1bd6164e7280c17a38c229939bfbd54
     Pseudo is Norm-conserving + core correction, Zval =  6.0
     Generated using ONCVPSP code by D. R. Hamann
     Using radial grid of  926 points,  5 beta functions with: 
                l(1) =   0
                l(2) =   0
                l(3) =   1
                l(4) =   1
                l(5) =   2

     atomic species   valence    mass     pseudopotential
        W             28.00   183.84000     W ( 1.00)
        O              6.00    15.99940     O ( 1.00)

      8 Sym. Ops., with inversion, found ( 6 have fractional translation)



   Cartesian axes

     site n.     atom                  positions (alat units)
         1           W   tau(   1) = (   0.2486100   0.2976242   0.0013100  )
         2           W   tau(   2) = (   0.7513900   0.7605359   0.9986900  )
         3           W   tau(   3) = (   0.2513900   0.2314559   0.5013100  )
         4           W   tau(   4) = (   0.7486100   0.8267042   0.4986900  )
         5           W   tau(   5) = (   0.7513900   0.2976242   0.4986900  )
         6           W   tau(   6) = (   0.2486100   0.7605359   0.5013100  )
         7           W   tau(   7) = (   0.7486100   0.2314559   0.9986900  )
         8           W   tau(   8) = (   0.2513900   0.8267042   0.0013100  )
         9           O   tau(   9) = (   0.2474400   0.0086326   0.0004100  )
        10           O   tau(  10) = (   0.7525600   1.0495275   0.9995900  )
        11           O   tau(  11) = (   0.2525600   0.5204475   0.5004100  )
        12           O   tau(  12) = (   0.7474400   0.5377126   0.4995900  )
        13           O   tau(  13) = (   0.7525600   0.0086326   0.4995900  )
        14           O   tau(  14) = (   0.2474400   1.0495275   0.5004100  )
        15           O   tau(  15) = (   0.7474400   0.5204475   0.9995900  )
        16           O   tau(  16) = (   0.2525600   0.5377126   0.0004100  )
        17           O   tau(  17) = (   0.5003800   0.2617571   0.4509931  )
        18           O   tau(  18) = (   0.4996200   0.7964030   0.5490068  )
        19           O   tau(  19) = (   0.9996200   0.2673230   0.9509932  )
        20           O   tau(  20) = (   0.0003800   0.7908371   0.0490069  )
        21           O   tau(  21) = (   0.4996200   0.2617571   0.0490069  )
        22           O   tau(  22) = (   0.5003800   0.7964030   0.9509932  )
        23           O   tau(  23) = (   0.0003800   0.2673230   0.5490068  )
        24           O   tau(  24) = (   0.9996200   0.7908371   0.4509931  )
        25           O   tau(  25) = (   0.7009932   0.2639369   0.7494200  )
        26           O   tau(  26) = (   0.2990068   0.7942232   0.2505800  )
        27           O   tau(  27) = (   0.7990068   0.2651432   0.2494199  )
        28           O   tau(  28) = (   0.2009932   0.7930169   0.7505800  )
        29           O   tau(  29) = (   0.2990068   0.2639369   0.7505800  )
        30           O   tau(  30) = (   0.7009932   0.7942232   0.2494199  )
        31           O   tau(  31) = (   0.2009932   0.2651432   0.2505800  )
        32           O   tau(  32) = (   0.7990068   0.7930169   0.7494200  )

     number of k points=    64  gaussian smearing, width (Ry)=  0.0007
                       cart. coord. in units 2pi/alat
        k(    1) = (   0.0000000   0.0000000   0.0000000), wk =   0.0092593
        k(    2) = (   0.0000000   0.0000000   0.1666667), wk =   0.0185185
        k(    3) = (   0.0000000   0.0000000   0.3333333), wk =   0.0185185
        k(    4) = (   0.0000000   0.0000000  -0.5000000), wk =   0.0092593
        k(    5) = (   0.0000000   0.1575061   0.0000000), wk =   0.0185185
        k(    6) = (   0.0000000   0.1575061   0.1666667), wk =   0.0370370
        k(    7) = (   0.0000000   0.1575061   0.3333333), wk =   0.0370370
        k(    8) = (   0.0000000   0.1575061  -0.5000000), wk =   0.0185185
        k(    9) = (   0.0000000   0.3150122   0.0000000), wk =   0.0185185
        k(   10) = (   0.0000000   0.3150122   0.1666667), wk =   0.0370370
        k(   11) = (   0.0000000   0.3150122   0.3333333), wk =   0.0370370
        k(   12) = (   0.0000000   0.3150122  -0.5000000), wk =   0.0185185
        k(   13) = (   0.0000000  -0.4725183   0.0000000), wk =   0.0092593
        k(   14) = (   0.0000000  -0.4725183   0.1666667), wk =   0.0185185
        k(   15) = (   0.0000000  -0.4725183   0.3333333), wk =   0.0185185
        k(   16) = (   0.0000000  -0.4725183  -0.5000000), wk =   0.0092593
        k(   17) = (   0.1666667   0.0000000   0.1666667), wk =   0.0370370
        k(   18) = (   0.1666667   0.0000000   0.3333333), wk =   0.0370370
        k(   19) = (   0.1666667   0.0000000  -0.5000000), wk =   0.0185185
        k(   20) = (   0.1666667   0.1575061   0.1666667), wk =   0.0740741
        k(   21) = (   0.1666667   0.1575061   0.3333333), wk =   0.0740741
        k(   22) = (   0.1666667   0.1575061  -0.5000000), wk =   0.0370370
        k(   23) = (   0.1666667   0.3150122   0.1666667), wk =   0.0740741
        k(   24) = (   0.1666667   0.3150122   0.3333333), wk =   0.0740741
        k(   25) = (   0.1666667   0.3150122  -0.5000000), wk =   0.0370370
        k(   26) = (   0.1666667  -0.4725183   0.1666667), wk =   0.0370370
        k(   27) = (   0.1666667  -0.4725183   0.3333333), wk =   0.0370370
        k(   28) = (   0.1666667  -0.4725183  -0.5000000), wk =   0.0185185
        k(   29) = (   0.3333333   0.0000000   0.3333333), wk =   0.0370370
        k(   30) = (   0.3333333   0.0000000  -0.5000000), wk =   0.0185185
        k(   31) = (   0.3333333   0.1575061   0.3333333), wk =   0.0740741
        k(   32) = (   0.3333333   0.1575061  -0.5000000), wk =   0.0370370
        k(   33) = (   0.3333333   0.3150122   0.3333333), wk =   0.0740741
        k(   34) = (   0.3333333   0.3150122  -0.5000000), wk =   0.0370370
        k(   35) = (   0.3333333  -0.4725183   0.3333333), wk =   0.0370370
        k(   36) = (   0.3333333  -0.4725183  -0.5000000), wk =   0.0185185
        k(   37) = (  -0.5000000   0.0000000  -0.5000000), wk =   0.0092593
        k(   38) = (  -0.5000000   0.1575061  -0.5000000), wk =   0.0185185
        k(   39) = (  -0.5000000   0.3150122  -0.5000000), wk =   0.0185185
        k(   40) = (  -0.5000000  -0.4725183  -0.5000000), wk =   0.0092593
        k(   41) = (   0.1666667   0.0000000   0.0000000), wk =   0.0185185
        k(   42) = (   0.3333333   0.0000000   0.0000000), wk =   0.0185185
        k(   43) = (  -0.5000000   0.0000000   0.0000000), wk =   0.0092593
        k(   44) = (   0.1666667  -0.1575061   0.0000000), wk =   0.0370370
        k(   45) = (   0.3333333  -0.1575061   0.0000000), wk =   0.0370370
        k(   46) = (  -0.5000000  -0.1575061   0.0000000), wk =   0.0185185
        k(   47) = (   0.1666667  -0.3150122   0.0000000), wk =   0.0370370
        k(   48) = (   0.3333333  -0.3150122   0.0000000), wk =   0.0370370
        k(   49) = (  -0.5000000  -0.3150122   0.0000000), wk =   0.0185185
        k(   50) = (   0.1666667   0.4725183   0.0000000), wk =   0.0185185
        k(   51) = (   0.3333333   0.4725183   0.0000000), wk =   0.0185185
        k(   52) = (  -0.5000000   0.4725183   0.0000000), wk =   0.0092593
        k(   53) = (   0.3333333   0.0000000   0.1666667), wk =   0.0370370
        k(   54) = (  -0.5000000   0.0000000   0.1666667), wk =   0.0185185
        k(   55) = (   0.3333333  -0.1575061   0.1666667), wk =   0.0740741
        k(   56) = (  -0.5000000  -0.1575061   0.1666667), wk =   0.0370370
        k(   57) = (   0.3333333  -0.3150122   0.1666667), wk =   0.0740741
        k(   58) = (  -0.5000000  -0.3150122   0.1666667), wk =   0.0370370
        k(   59) = (   0.3333333   0.4725183   0.1666667), wk =   0.0370370
        k(   60) = (  -0.5000000   0.4725183   0.1666667), wk =   0.0185185
        k(   61) = (  -0.5000000   0.0000000   0.3333333), wk =   0.0185185
        k(   62) = (  -0.5000000  -0.1575061   0.3333333), wk =   0.0370370
        k(   63) = (  -0.5000000  -0.3150122   0.3333333), wk =   0.0370370
        k(   64) = (  -0.5000000   0.4725183   0.3333333), wk =   0.0185185

     Dense  grid:   498127 G-vectors     FFT dimensions: ( 100, 108, 100)

     Estimated max dynamical RAM per process >       3.15 GB

     Estimated total dynamical RAM >     125.81 GB

     Initial potential from superposition of free atoms

     starting charge  367.99656, renormalised to  368.00000
     Starting wfc are  232 randomized atomic wfcs

     total cpu time spent up to now is       69.0 secs

     Self-consistent Calculation

     iteration #  1     ecut=   120.00 Ry     beta= 0.70
     Davidson diagonalization with overlap
     ethr =  1.00E-02,  avg # of iterations =  5.0

     total cpu time spent up to now is      250.4 secs

     total energy              =   -6253.99097245 Ry
     Harris-Foulkes estimate   =   -6264.58792331 Ry
     estimated scf accuracy    <      13.42044043 Ry

     iteration #  2     ecut=   120.00 Ry     beta= 0.70
     Davidson diagonalization with overlap
     ethr =  3.65E-03,  avg # of iterations =  3.5

     total cpu time spent up to now is      426.7 secs

     total energy              =   -6250.84599696 Ry
     Harris-Foulkes estimate   =   -6270.79761723 Ry
     estimated scf accuracy    <      53.62124290 Ry

     iteration #  3     ecut=   120.00 Ry     beta= 0.70
     Davidson diagonalization with overlap
     ethr =  3.65E-03,  avg # of iterations =  3.3

     total cpu time spent up to now is      592.9 secs

     total energy              =   -6261.08515094 Ry
     Harris-Foulkes estimate   =   -6261.38357800 Ry
     estimated scf accuracy    <       0.97276582 Ry

     iteration #  4     ecut=   120.00 Ry     beta= 0.70
     Davidson diagonalization with overlap
     ethr =  2.64E-04,  avg # of iterations =  3.2

     total cpu time spent up to now is      730.7 secs

     total energy              =   -6261.09657577 Ry
     Harris-Foulkes estimate   =   -6261.16756098 Ry
     estimated scf accuracy    <       0.24128482 Ry

     iteration #  5     ecut=   120.00 Ry     beta= 0.70
     Davidson diagonalization with overlap
     ethr =  6.56E-05,  avg # of iterations =  4.4

     total cpu time spent up to now is      874.8 secs

     total energy              =   -6261.09132403 Ry
     Harris-Foulkes estimate   =   -6261.12621338 Ry
     estimated scf accuracy    <       0.07647464 Ry

     iteration #  6     ecut=   120.00 Ry     beta= 0.70
     Davidson diagonalization with overlap
     ethr =  2.08E-05,  avg # of iterations =  4.9

     total cpu time spent up to now is     1028.6 secs

     total energy              =   -6261.10829252 Ry
     Harris-Foulkes estimate   =   -6261.11034831 Ry
     estimated scf accuracy    <       0.00557586 Ry

     iteration #  7     ecut=   120.00 Ry     beta= 0.70
     Davidson diagonalization with overlap
     ethr =  1.52E-06,  avg # of iterations =  4.2

     total cpu time spent up to now is     1178.9 secs

     total energy              =   -6261.10898454 Ry
     Harris-Foulkes estimate   =   -6261.10906790 Ry
     estimated scf accuracy    <       0.00017189 Ry

     iteration #  8     ecut=   120.00 Ry     beta= 0.70
     Davidson diagonalization with overlap
     ethr =  4.67E-08,  avg # of iterations =  3.1

     total cpu time spent up to now is     1354.6 secs

     total energy              =   -6261.10904453 Ry
     Harris-Foulkes estimate   =   -6261.10904844 Ry
     estimated scf accuracy    <       0.00001796 Ry

     iteration #  9     ecut=   120.00 Ry     beta= 0.70
     Davidson diagonalization with overlap
     ethr =  4.88E-09,  avg # of iterations =  2.0

     total cpu time spent up to now is     1495.2 secs

     total energy              =   -6261.10904201 Ry
     Harris-Foulkes estimate   =   -6261.10904611 Ry
     estimated scf accuracy    <       0.00001080 Ry

     iteration # 10     ecut=   120.00 Ry     beta= 0.70
     Davidson diagonalization with overlap
     ethr =  2.94E-09,  avg # of iterations =  2.0

     total cpu time spent up to now is     1627.8 secs

     total energy              =   -6261.10904354 Ry
     Harris-Foulkes estimate   =   -6261.10904367 Ry
     estimated scf accuracy    <       0.00000030 Ry

     iteration # 11     ecut=   120.00 Ry     beta= 0.70
     Davidson diagonalization with overlap
     ethr =  8.22E-11,  avg # of iterations =  3.0

     total cpu time spent up to now is     1797.4 secs

     total energy              =   -6261.10904362 Ry
     Harris-Foulkes estimate   =   -6261.10904366 Ry
     estimated scf accuracy    <       0.00000011 Ry

     iteration # 12     ecut=   120.00 Ry     beta= 0.70
     Davidson diagonalization with overlap
     ethr =  3.08E-11,  avg # of iterations =  2.1

     total cpu time spent up to now is     1933.3 secs

     total energy              =   -6261.10904362 Ry
     Harris-Foulkes estimate   =   -6261.10904363 Ry
     estimated scf accuracy    <       0.00000003 Ry

     iteration # 13     ecut=   120.00 Ry     beta= 0.70
     Davidson diagonalization with overlap
     ethr =  7.15E-12,  avg # of iterations =  2.6

     total cpu time spent up to now is     2094.8 secs

     End of self-consistent calculation

          k = 0.0000 0.0000 0.0000 ( 62239 PWs)   bands (ev):

   -66.1742 -66.1738 -66.1732 -66.1732 -66.1728 -66.1728 -66.1721 -66.1718
   -30.5615 -30.5581 -30.5581 -30.5547 -30.5258 -30.5252 -30.5224 -30.5223
   -30.5204 -30.5199 -30.5171 -30.5170 -30.5018 -30.4994 -30.4992 -30.4969
   -30.4240 -30.4237 -30.4213 -30.4210 -30.4195 -30.4193 -30.4169 -30.4166
   -20.3335 -20.3334 -20.3334 -20.3333 -20.3333 -20.3333 -20.3333 -20.3332
   -20.3152 -20.3150 -20.3149 -20.3147 -20.3104 -20.3103 -20.3101 -20.3100
   -20.3099 -20.3098 -20.3096 -20.3095 -20.3095 -20.3093 -20.3092 -20.3091
   -20.3088 -20.3087 -20.3086 -20.3086 -20.3081 -20.3081 -20.3078 -20.3078
   -20.3016 -20.3015 -20.3012 -20.3011 -20.3010 -20.3008 -20.3007 -20.3006
   -20.2995 -20.2995 -20.2993 -20.2992 -20.2992 -20.2992 -20.2989 -20.2988
   -20.2934 -20.2934 -20.2928 -20.2928 -20.2928 -20.2928 -20.2923 -20.2922
    -9.9629  -9.6973  -9.5206  -9.5200  -9.2723  -9.2711  -9.0791  -9.0667
    -9.0581  -8.8724  -8.8534  -8.8530  -7.8399  -7.7847  -7.7838  -7.7803
    -7.7800  -7.7587  -7.7584  -7.7282  -7.6361  -7.6355  -7.6147  -7.6143
     1.1433   1.1435   1.2358   1.2371   1.2507   1.2523   1.3598   1.6016
     1.6347   1.6352   1.6415   1.8385   2.3642   2.4380   2.5763   2.5764
     2.7226   2.7226   4.1323   4.1338   4.3353   4.3375   4.8065   4.8066
     4.8343   4.8348   4.8533   4.8561   5.0353   5.0356   5.0605   5.4575
     5.4588   5.5098   5.5126   5.5328   5.5330   5.5771   5.5801   5.8303
     5.8315   5.8807   5.8809   5.9218   5.9730   6.0346   6.0353   6.1040
     6.1044   6.2505   6.2512   6.5508   6.5517   6.8185   6.8200   6.8480
     6.8490   6.8665   7.0092   7.0248   7.0826   7.0837   7.3697   7.3711
     7.4091   7.4105   7.8021   7.8159   8.0786   8.0799   8.1500   8.1513
     9.2146   9.2194   9.9590   9.9596   9.9922   9.9928  12.2512  12.2560
    12.2793  12.2865  12.3236  12.3254  12.4833  12.4844  12.9064  12.9138
    13.2319  13.2343  13.3982  13.4001  13.7819  14.1458  14.1522  14.1566
    14.1582  14.3360  14.3469  14.9068  15.4160  15.4272  15.4526  16.0694
    16.0695  16.8462  17.0776  17.0785  17.4905

          k = 0.0000 0.0000 0.1667 ( 62262 PWs)   bands (ev):

   -66.1741 -66.1737 -66.1732 -66.1731 -66.1728 -66.1727 -66.1722 -66.1718
   -30.5616 -30.5584 -30.5582 -30.5551 -30.5249 -30.5220 -30.5202 -30.5197
   -30.5174 -30.5153 -30.5147 -30.5101 -30.5006 -30.4995 -30.4986 -30.4972
   -30.4307 -30.4281 -30.4262 -30.4236 -30.4234 -30.4207 -30.4196 -30.4169
   -20.3335 -20.3334 -20.3334 -20.3333 -20.3333 -20.3333 -20.3333 -20.3332
   -20.3152 -20.3150 -20.3149 -20.3147 -20.3103 -20.3103 -20.3100 -20.3099
   -20.3099 -20.3097 -20.3097 -20.3095 -20.3094 -20.3093 -20.3092 -20.3090
   -20.3089 -20.3087 -20.3087 -20.3086 -20.3082 -20.3080 -20.3079 -20.3078
   -20.3015 -20.3013 -20.3012 -20.3009 -20.3009 -20.3007 -20.3006 -20.3006
   -20.2994 -20.2993 -20.2991 -20.2991 -20.2990 -20.2990 -20.2989 -20.2988
   -20.2938 -20.2933 -20.2932 -20.2932 -20.2929 -20.2928 -20.2927 -20.2923
    -9.9150  -9.6432  -9.5367  -9.4553  -9.2852  -9.1816  -9.0668  -9.0392
    -9.0244  -8.8616  -8.8575  -8.8259  -7.9075  -7.8926  -7.8418  -7.7840
    -7.7749  -7.7718  -7.7683  -7.7491  -7.7477  -7.7316  -7.6450  -7.6236
     1.2271   1.2363   1.2403   1.2585   1.4296   1.4435   1.5121   1.6276
     1.6337   1.6897   1.7745   1.9518   2.4521   2.5295   2.5857   2.6652
     2.7141   2.8105   4.0767   4.1333   4.3235   4.3465   4.3564   4.4424
     4.6732   4.7747   4.8468   4.8779   4.8897   5.0223   5.0416   5.2782
     5.3350   5.4352   5.4966   5.5245   5.5767   5.5967   5.6238   5.6316
     5.7236   5.7835   5.8230   5.9193   5.9857   6.0907   6.1030   6.1201
     6.2704   6.4029   6.4799   6.5409   6.6838   6.7149   6.7902   6.8381
     6.8409   6.8412   6.9731   7.0035   7.0195   7.0930   7.1366   7.1386
     7.1883   7.2512   7.8161   7.8187   8.0393   8.0962   8.1082   8.1508
     9.5716   9.6029   9.9607   9.9898  10.2254  10.2748  12.1788  12.2247
    12.2529  12.3059  12.3435  12.3602  12.4869  12.5798  12.9109  12.9651
    13.0320  13.2262  13.2854  13.3982  13.9067  14.0084  14.0272  14.1444
    14.1549  14.3409  14.4606  15.0192  15.4182  15.4527  15.4831  16.0415
    16.3852  16.8151  17.0168  17.2693  17.5413

          k = 0.0000 0.0000 0.3333 ( 62268 PWs)   bands (ev):

   -66.1739 -66.1735 -66.1734 -66.1730 -66.1729 -66.1725 -66.1724 -66.1720
   -30.5612 -30.5593 -30.5579 -30.5559 -30.5239 -30.5212 -30.5211 -30.5184
   -30.5063 -30.5050 -30.5006 -30.4983 -30.4966 -30.4934 -30.4916 -30.4913
   -30.4488 -30.4464 -30.4443 -30.4418 -30.4226 -30.4204 -30.4199 -30.4177
   -20.3334 -20.3334 -20.3334 -20.3333 -20.3333 -20.3333 -20.3333 -20.3332
   -20.3152 -20.3151 -20.3149 -20.3148 -20.3102 -20.3100 -20.3100 -20.3099
   -20.3097 -20.3096 -20.3096 -20.3096 -20.3094 -20.3093 -20.3092 -20.3091
   -20.3089 -20.3088 -20.3087 -20.3086 -20.3084 -20.3081 -20.3080 -20.3078
   -20.3015 -20.3013 -20.3009 -20.3007 -20.3005 -20.3005 -20.3005 -20.3003
   -20.2997 -20.2996 -20.2994 -20.2993 -20.2981 -20.2980 -20.2978 -20.2977
   -20.2950 -20.2945 -20.2945 -20.2941 -20.2932 -20.2929 -20.2927 -20.2924
    -9.7995  -9.5881  -9.5191  -9.3278  -9.3011  -9.0970  -8.9427  -8.9230
    -8.8745  -8.8701  -8.7940  -8.7160  -8.2141  -8.2124  -8.1129  -8.0945
    -7.8195  -7.7941  -7.7658  -7.7443  -7.7409  -7.7219  -7.6711  -7.6495
     1.2486   1.2615   1.2746   1.2963   1.5553   1.5782   1.6121   1.6168
     2.2132   2.2503   2.4217   2.5013   2.6106   2.7011   2.7071   2.7973
     2.9069   3.0422   3.7289   3.8156   3.8407   3.9411   4.1834   4.2436
     4.2756   4.4867   4.5355   4.7913   4.8141   4.8204   4.9255   4.9802
     5.1453   5.1594   5.1752   5.3488   5.4420   5.4596   5.6573   5.6580
     5.7415   5.7599   5.7986   5.9811   6.0105   6.1503   6.2467   6.2863
     6.3103   6.4002   6.5048   6.5529   6.5693   6.5804   6.6598   6.7179
     6.8292   6.8357   6.8508   6.9844   7.0069   7.0476   7.0868   7.1018
     7.3186   7.3546   7.7477   7.7687   7.9144   7.9698   8.1329   8.1522
     9.9639   9.9829  10.3061  10.3712  10.8464  10.9517  11.7984  11.8401
    12.0705  12.4575  12.4577  12.4972  12.5122  12.5855  12.6751  12.8444
    12.9111  13.0945  13.1671  13.4044  13.6757  13.6871  14.1052  14.1405
    14.1851  14.3213  14.7811  15.3036  15.3076  15.6079  15.8868  15.9558
    16.2795  17.2405  17.4021  17.5580  17.8491

          k = 0.0000 0.0000-0.5000 ( 62264 PWs)   bands (ev):

   -66.1737 -66.1737 -66.1733 -66.1733 -66.1727 -66.1726 -66.1723 -66.1723
   -30.5604 -30.5604 -30.5570 -30.5570 -30.5226 -30.5226 -30.5197 -30.5197
   -30.5022 -30.5022 -30.5003 -30.5002 -30.4731 -30.4731 -30.4715 -30.4715
   -30.4686 -30.4686 -30.4667 -30.4667 -30.4215 -30.4215 -30.4188 -30.4188
   -20.3334 -20.3334 -20.3333 -20.3333 -20.3333 -20.3333 -20.3333 -20.3332
   -20.3152 -20.3151 -20.3149 -20.3149 -20.3101 -20.3101 -20.3098 -20.3098
   -20.3096 -20.3096 -20.3095 -20.3095 -20.3095 -20.3095 -20.3093 -20.3093
   -20.3088 -20.3088 -20.3086 -20.3086 -20.3085 -20.3085 -20.3079 -20.3079
   -20.3014 -20.3014 -20.3008 -20.3008 -20.3001 -20.3001 -20.3001 -20.3001
   -20.2999 -20.2999 -20.2998 -20.2998 -20.2966 -20.2966 -20.2963 -20.2963
   -20.2962 -20.2962 -20.2959 -20.2959 -20.2931 -20.2931 -20.2925 -20.2925
    -9.6774  -9.6774  -9.4035  -9.4035  -9.1660  -9.1660  -8.8917  -8.8917
    -8.5863  -8.5862  -8.5559  -8.5559  -8.5397  -8.5397  -8.4605  -8.4605
    -7.8075  -7.8075  -7.7534  -7.7534  -7.7074  -7.7074  -7.6853  -7.6853
     1.2582   1.2582   1.2929   1.2929   1.5945   1.5945   1.5995   1.5995
     2.6422   2.6422   2.9529   2.9529   3.0864   3.0864   3.1362   3.1362
     3.2434   3.2434   3.3072   3.3072   3.4240   3.4240   3.7570   3.7570
     3.8857   3.8857   4.4117   4.4117   4.7597   4.7597   4.8849   4.8849
     5.2383   5.2383   5.3020   5.3020   5.3140   5.3140   5.7041   5.7041
     5.7434   5.7434   5.9469   5.9469   6.1666   6.1666   6.2477   6.2477
     6.3138   6.3138   6.4462   6.4462   6.4880   6.4880   6.5020   6.5020
     6.7834   6.7834   6.8336   6.8336   7.0682   7.0682   7.4754   7.4754
     7.5357   7.5357   7.6911   7.6911   7.7147   7.7148   8.1494   8.1494
     9.9732   9.9732  11.1111  11.1111  11.1752  11.1752  11.5467  11.5467
    11.7563  11.7563  12.5260  12.5260  12.6761  12.6761  12.7741  12.7741
    12.9255  12.9255  13.2437  13.2437  13.4524  13.4525  14.1342  14.1342
    14.2782  14.2782  15.0989  15.0989  15.7348  15.7348  15.8076  15.8076
    16.6572  16.6572  17.8533  17.8533  18.1855

          k = 0.0000 0.1575 0.0000 ( 62231 PWs)   bands (ev):

   -66.1742 -66.1738 -66.1731 -66.1731 -66.1728 -66.1728 -66.1721 -66.1718
   -30.5576 -30.5542 -30.5542 -30.5509 -30.5256 -30.5250 -30.5227 -30.5225
   -30.5202 -30.5196 -30.5174 -30.5172 -30.5057 -30.5033 -30.5031 -30.5008
   -30.4238 -30.4235 -30.4215 -30.4212 -30.4194 -30.4191 -30.4171 -30.4168
   -20.3335 -20.3334 -20.3334 -20.3333 -20.3333 -20.3333 -20.3333 -20.3332
   -20.3149 -20.3146 -20.3146 -20.3143 -20.3104 -20.3103 -20.3103 -20.3099
   -20.3099 -20.3099 -20.3098 -20.3098 -20.3097 -20.3095 -20.3093 -20.3092
   -20.3088 -20.3087 -20.3086 -20.3085 -20.3082 -20.3081 -20.3079 -20.3078
   -20.3016 -20.3015 -20.3011 -20.3011 -20.3010 -20.3008 -20.3007 -20.3006
   -20.2995 -20.2995 -20.2993 -20.2992 -20.2992 -20.2992 -20.2989 -20.2988
   -20.2933 -20.2933 -20.2928 -20.2928 -20.2927 -20.2927 -20.2923 -20.2923
    -9.9359  -9.7082  -9.4878  -9.4871  -9.2794  -9.2782  -9.0782  -9.0676
    -8.9846  -8.8243  -8.8114  -8.8111  -7.9350  -7.8803  -7.8800  -7.8348
    -7.7830  -7.7826  -7.7605  -7.7602  -7.6347  -7.6342  -7.6162  -7.6157
     1.1433   1.1434   1.2425   1.2439   1.2507   1.2523   1.4728   1.6009
     1.8168   1.8700   1.8704   2.0317   2.3690   2.4329   2.6475   2.6475
     2.7898   2.7899   3.9991   4.0007   4.0792   4.0810   4.8085   4.8089
     4.8138   4.8286   4.8292   4.9170   4.9231   4.9950   4.9954   5.2831
     5.2839   5.4508   5.4508   5.6091   5.6095   5.6266   5.6477   5.6516
     5.8105   5.8112   5.8991   5.8997   5.9607   6.0380   6.0384   6.1105
     6.1107   6.2418   6.2432   6.5725   6.5736   6.8369   6.8491   6.8503
     6.8764   6.8816   6.8818   6.9975   6.9979   7.0005   7.3776   7.3788
     7.4088   7.4100   7.8071   7.8153   8.0379   8.0389   8.0687   8.0697
     9.2148   9.2190  10.1612  10.1614  10.1654  10.1656  12.1528  12.1545
    12.2723  12.2728  12.3226  12.3234  12.3287  12.3296  12.9073  12.9136
    13.2674  13.2693  13.4065  13.4082  14.0400  14.0550  14.0638  14.0682
    14.1396  14.6163  14.6191  15.0659  15.4164  15.4259  15.8564  16.0350
    16.0352  16.5451  17.2091  17.2100  17.5208

          k = 0.0000 0.1575 0.1667 ( 62237 PWs)   bands (ev):

   -66.1741 -66.1737 -66.1732 -66.1731 -66.1729 -66.1727 -66.1722 -66.1719
   -30.5577 -30.5546 -30.5543 -30.5512 -30.5246 -30.5223 -30.5200 -30.5197
   -30.5177 -30.5155 -30.5149 -30.5103 -30.5042 -30.5034 -30.5023 -30.5011
   -30.4305 -30.4282 -30.4260 -30.4238 -30.4233 -30.4209 -30.4194 -30.4171
   -20.3334 -20.3334 -20.3334 -20.3333 -20.3333 -20.3333 -20.3333 -20.3332
   -20.3149 -20.3146 -20.3146 -20.3144 -20.3103 -20.3103 -20.3102 -20.3100
   -20.3099 -20.3098 -20.3098 -20.3098 -20.3096 -20.3095 -20.3093 -20.3091
   -20.3089 -20.3087 -20.3087 -20.3085 -20.3083 -20.3081 -20.3080 -20.3079
   -20.3015 -20.3013 -20.3012 -20.3009 -20.3009 -20.3008 -20.3007 -20.3006
   -20.2994 -20.2993 -20.2991 -20.2990 -20.2990 -20.2990 -20.2989 -20.2989
   -20.2938 -20.2933 -20.2933 -20.2932 -20.2929 -20.2928 -20.2927 -20.2923
    -9.8870  -9.6541  -9.5039  -9.4182  -9.2924  -9.1887  -9.0378  -9.0253
    -8.9933  -8.8156  -8.8151  -8.7882  -7.9355  -7.9132  -7.9059  -7.8798
    -7.8583  -7.8440  -7.7710  -7.7669  -7.7507  -7.7457  -7.6437  -7.6251
     1.2324   1.2362   1.2487   1.2585   1.4825   1.5119   1.5810   1.7736
     1.8249   1.8639   1.8868   2.0831   2.4576   2.5240   2.6565   2.7383
     2.7817   2.8779   3.9715   4.0159   4.0695   4.1144   4.3753   4.4403
     4.7185   4.7278   4.7960   4.8699   4.8727   4.9235   5.0007   5.2408
     5.2499   5.2873   5.2982   5.4730   5.5717   5.5783   5.6391   5.6988
     5.7197   5.7616   5.8355   5.8650   5.8761   6.0993   6.1017   6.1548
     6.2007   6.3945   6.4529   6.5627   6.7188   6.7858   6.8025   6.8211
     6.8465   6.8892   6.9544   6.9594   7.0079   7.0136   7.1363   7.1386
     7.2053   7.2511   7.8185   7.8190   8.0002   8.0319   8.0410   8.0699
     9.5767   9.6014  10.1620  10.1665  10.3943  10.4164  12.1352  12.1904
    12.2223  12.2348  12.3154  12.3218  12.3330  12.4602  12.9123  12.9637
    13.0723  13.2610  13.2924  13.4045  13.9084  13.9359  14.0459  14.0617
    14.2550  14.6140  14.7638  15.1653  15.4522  15.4838  15.8229  16.0077
    16.3486  16.7022  16.9394  17.3812  17.5857

          k = 0.0000 0.1575 0.3333 ( 62284 PWs)   bands (ev):

   -66.1739 -66.1736 -66.1734 -66.1730 -66.1729 -66.1725 -66.1724 -66.1720
   -30.5574 -30.5554 -30.5541 -30.5521 -30.5237 -30.5214 -30.5210 -30.5187
   -30.5085 -30.5076 -30.5044 -30.5022 -30.4968 -30.4951 -30.4921 -30.4918
   -30.4487 -30.4466 -30.4441 -30.4420 -30.4224 -30.4202 -30.4201 -30.4179
   -20.3334 -20.3334 -20.3334 -20.3333 -20.3333 -20.3333 -20.3333 -20.3332
   -20.3149 -20.3147 -20.3146 -20.3144 -20.3102 -20.3102 -20.3100 -20.3100
   -20.3099 -20.3099 -20.3097 -20.3097 -20.3096 -20.3094 -20.3093 -20.3091
   -20.3089 -20.3089 -20.3086 -20.3086 -20.3085 -20.3082 -20.3080 -20.3079
   -20.3014 -20.3012 -20.3010 -20.3007 -20.3005 -20.3005 -20.3004 -20.3003
   -20.2997 -20.2996 -20.2994 -20.2993 -20.2980 -20.2979 -20.2978 -20.2977
   -20.2950 -20.2945 -20.2945 -20.2941 -20.2932 -20.2929 -20.2927 -20.2924
    -9.7692  -9.5554  -9.5295  -9.3357  -9.2495  -9.0242  -8.9305  -8.9278
    -8.8761  -8.8288  -8.7633  -8.6928  -8.2198  -8.2103  -8.1261  -8.0924
    -7.9114  -7.8893  -7.8647  -7.8387  -7.7433  -7.7235  -7.6699  -7.6510
     1.2614   1.2746   1.2805   1.2962   1.7514   1.7766   1.8560   1.8618
     2.2118   2.2654   2.4228   2.5225   2.6807   2.7155   2.7575   2.8001
     2.9812   3.1034   3.7282   3.8108   3.8320   3.8911   4.0798   4.1124
     4.2428   4.3408   4.5535   4.7359   4.7615   4.8014   4.8028   4.8680
     5.0354   5.1105   5.1392   5.1619   5.3661   5.4053   5.4708   5.6253
     5.6970   5.7473   5.8078   5.8567   5.9602   6.1291   6.1881   6.2443
     6.3394   6.5269   6.5641   6.5646   6.6440   6.6722   6.6890   6.7870
     6.8118   6.8282   6.9154   6.9551   6.9972   7.0241   7.0529   7.0900
     7.3116   7.3485   7.7516   7.7671   7.8807   7.9103   8.0610   8.0723
    10.1608  10.1647  10.3145  10.3726  10.9619  11.0436  11.8001  11.8377
    12.0316  12.3434  12.4249  12.4816  12.4849  12.5498  12.6301  12.7356
    12.8994  13.0966  13.1872  13.4023  13.5812  13.5965  14.0483  14.0577
    14.4657  14.5973  15.1290  15.4232  15.5975  15.7165  15.9069  15.9245
    16.4048  17.1724  17.1960  17.4528  17.8066

          k = 0.0000 0.1575-0.5000 ( 62234 PWs)   bands (ev):

   -66.1736 -66.1736 -66.1733 -66.1733 -66.1726 -66.1726 -66.1723 -66.1723
   -30.5565 -30.5565 -30.5532 -30.5532 -30.5223 -30.5223 -30.5200 -30.5200
   -30.5059 -30.5059 -30.5039 -30.5039 -30.4731 -30.4731 -30.4717 -30.4717
   -30.4686 -30.4686 -30.4669 -30.4669 -30.4213 -30.4213 -30.4190 -30.4190
   -20.3334 -20.3334 -20.3333 -20.3333 -20.3333 -20.3333 -20.3333 -20.3332
   -20.3148 -20.3148 -20.3145 -20.3145 -20.3101 -20.3101 -20.3100 -20.3100
   -20.3099 -20.3098 -20.3095 -20.3095 -20.3095 -20.3095 -20.3092 -20.3092
   -20.3089 -20.3089 -20.3086 -20.3086 -20.3085 -20.3085 -20.3080 -20.3080
   -20.3013 -20.3013 -20.3008 -20.3008 -20.3001 -20.3001 -20.3001 -20.3001
   -20.2999 -20.2999 -20.2998 -20.2998 -20.2966 -20.2966 -20.2963 -20.2963
   -20.2962 -20.2962 -20.2959 -20.2959 -20.2930 -20.2930 -20.2926 -20.2926
    -9.6453  -9.6453  -9.4125  -9.4125  -9.0984  -9.0984  -8.8544  -8.8544
    -8.5896  -8.5896  -8.5494  -8.5494  -8.5482  -8.5482  -8.4533  -8.4533
    -7.9021  -7.9021  -7.8529  -7.8529  -7.7062  -7.7062  -7.6868  -7.6868
     1.2761   1.2761   1.2928   1.2928   1.7810   1.7810   1.8652   1.8652
     2.7095   2.7095   2.9688   2.9688   3.0789   3.0790   3.1792   3.1792
     3.2494   3.2494   3.3047   3.3047   3.4134   3.4134   3.7599   3.7599
     3.9360   3.9360   4.2270   4.2270   4.6437   4.6438   4.7449   4.7449
     5.0773   5.0773   5.2825   5.2825   5.2841   5.2841   5.4889   5.4889
     5.7090   5.7090   5.8344   5.8344   6.1638   6.1638   6.3122   6.3122
     6.3242   6.3242   6.4663   6.4663   6.4926   6.4926   6.6737   6.6737
     6.8513   6.8513   6.8548   6.8548   6.9791   6.9791   7.4862   7.4862
     7.5299   7.5299   7.6661   7.6661   7.6835   7.6835   8.0717   8.0717
    10.1652  10.1652  11.1161  11.1162  11.1727  11.1727  11.6116  11.6116
    11.8176  11.8176  12.3978  12.3978  12.6512  12.6512  12.7804  12.7804
    12.8646  12.8646  13.1462  13.1462  13.4244  13.4244  14.0526  14.0526
    14.5611  14.5611  15.4719  15.4719  15.7833  15.7833  15.8732  15.8732
    16.6980  16.6980  17.6568  17.6568  18.1672

          k = 0.0000 0.3150 0.0000 ( 62175 PWs)   bands (ev):

   -66.1741 -66.1739 -66.1731 -66.1731 -66.1729 -66.1729 -66.1721 -66.1719
   -30.5470 -30.5437 -30.5436 -30.5404 -30.5252 -30.5243 -30.5236 -30.5230
   -30.5199 -30.5190 -30.5188 -30.5177 -30.5159 -30.5138 -30.5130 -30.5114
   -30.4233 -30.4231 -30.4220 -30.4217 -30.4189 -30.4186 -30.4176 -30.4173
   -20.3334 -20.3334 -20.3333 -20.3333 -20.3333 -20.3333 -20.3333 -20.3332
   -20.3139 -20.3136 -20.3136 -20.3133 -20.3112 -20.3109 -20.3109 -20.3106
   -20.3103 -20.3102 -20.3100 -20.3099 -20.3098 -20.3097 -20.3095 -20.3094
   -20.3086 -20.3086 -20.3084 -20.3084 -20.3083 -20.3082 -20.3080 -20.3080
   -20.3015 -20.3014 -20.3012 -20.3010 -20.3010 -20.3010 -20.3008 -20.3007
   -20.2995 -20.2995 -20.2992 -20.2992 -20.2992 -20.2992 -20.2989 -20.2989
   -20.2932 -20.2932 -20.2929 -20.2929 -20.2927 -20.2926 -20.2924 -20.2924
    -9.8703  -9.7416  -9.4144  -9.4135  -9.3022  -9.3011  -9.0760  -9.0698
    -8.7769  -8.6759  -8.6728  -8.6726  -8.1774  -8.1323  -8.1322  -8.1059
    -7.7783  -7.7780  -7.7653  -7.7650  -7.6308  -7.6303  -7.6201  -7.6197
     1.1433   1.1434   1.2479   1.2494   1.2505   1.2521   1.5662   1.5981
     2.3821   2.3834   2.4190   2.5303   2.5310   2.6956   2.8568   2.8572
     2.9859   2.9865   3.6205   3.6224   3.6640   3.6659   4.1478   4.4701
     4.4710   4.7516   4.8147   4.8153   4.8404   4.8410   5.0549   5.0555
     5.0852   5.0859   5.3684   5.3687   5.6035   5.6037   5.6615   5.6621
     5.8582   5.8585   5.8908   5.8916   6.0316   6.0317   6.0739   6.1306
     6.1310   6.2070   6.2093   6.5180   6.6346   6.6353   6.8527   6.8528
     6.9040   6.9755   7.0946   7.0947   7.1091   7.1097   7.3876   7.3882
     7.4113   7.4119   7.8096   7.8132   7.8322   7.8322   7.8633   7.8637
     9.2155   9.2180  10.6248  10.6256  10.6697  10.6700  11.7755  11.7773
    11.9025  11.9032  12.2964  12.2973  12.3191  12.3197  12.9093  12.9128
    13.3787  13.3798  13.4702  13.4718  13.8222  13.8229  13.8523  13.8544
    14.7851  15.2003  15.2007  15.4176  15.4229  15.6452  15.9178  15.9183
    15.9853  16.8565  17.2416  17.6620  17.6630

          k = 0.0000 0.3150 0.1667 ( 62260 PWs)   bands (ev):

   -66.1740 -66.1738 -66.1731 -66.1730 -66.1729 -66.1728 -66.1721 -66.1719
   -30.5471 -30.5440 -30.5438 -30.5407 -30.5240 -30.5236 -30.5206 -30.5194
   -30.5191 -30.5182 -30.5159 -30.5134 -30.5120 -30.5117 -30.5107 -30.5101
   -30.4300 -30.4287 -30.4255 -30.4243 -30.4228 -30.4214 -30.4189 -30.4176
   -20.3334 -20.3334 -20.3334 -20.3333 -20.3333 -20.3333 -20.3333 -20.3332
   -20.3139 -20.3136 -20.3136 -20.3134 -20.3112 -20.3109 -20.3109 -20.3106
   -20.3102 -20.3101 -20.3099 -20.3098 -20.3098 -20.3097 -20.3094 -20.3093
   -20.3087 -20.3085 -20.3085 -20.3084 -20.3084 -20.3082 -20.3081 -20.3080
   -20.3014 -20.3012 -20.3011 -20.3010 -20.3010 -20.3008 -20.3008 -20.3007
   -20.2994 -20.2993 -20.2991 -20.2991 -20.2990 -20.2990 -20.2989 -20.2989
   -20.2937 -20.2934 -20.2932 -20.2931 -20.2929 -20.2929 -20.2927 -20.2924
    -9.8191  -9.6876  -9.4301  -9.3349  -9.3159  -9.2123  -9.0348  -9.0278
    -8.7854  -8.6776  -8.6702  -8.6594  -8.1778  -8.1414  -8.1291  -8.1128
    -7.9015  -7.8881  -7.7670  -7.7631  -7.7550  -7.7515  -7.6398  -7.6291
     1.2351   1.2361   1.2552   1.2582   1.5038   1.5112   1.7280   1.7703
     2.3851   2.4715   2.5059   2.5097   2.5312   2.6827   2.8647   2.9615
     2.9785   3.0830   3.6236   3.6568   3.6656   3.7047   4.1399   4.3967
     4.3990   4.4844   4.5029   4.7546   4.7813   4.8628   4.8897   4.8930
     5.0515   5.0921   5.1593   5.2788   5.4215   5.4474   5.6043   5.6075
     5.6689   5.7538   5.7750   5.8403   6.0344   6.0951   6.1088   6.1239
     6.2464   6.4112   6.4121   6.5822   6.6244   6.8390   6.8769   6.9220
     6.9616   6.9710   7.0682   7.0877   7.0994   7.1021   7.1389   7.1401
     7.2460   7.2612   7.8048   7.8106   7.8166   7.8341   7.8430   7.8536
     9.5856   9.5978  10.6305  10.6699  10.8105  10.8389  11.7762  11.8729
    11.9045  11.9802  12.2029  12.2196  12.3474  12.3790  12.9229  12.9572
    13.1929  13.3471  13.3689  13.4657  13.6701  13.7201  13.8208  13.8488
    14.9179  15.1929  15.4116  15.4483  15.4886  15.7162  15.8931  16.1483
    16.2220  16.8195  17.3074  17.3469  17.7777

          k = 0.0000 0.3150 0.3333 ( 62269 PWs)   bands (ev):

   -66.1738 -66.1736 -66.1733 -66.1731 -66.1728 -66.1726 -66.1723 -66.1721
   -30.5469 -30.5449 -30.5436 -30.5416 -30.5230 -30.5227 -30.5203 -30.5201
   -30.5171 -30.5160 -30.5143 -30.5127 -30.4972 -30.4972 -30.4928 -30.4922
   -30.4483 -30.4471 -30.4437 -30.4425 -30.4219 -30.4206 -30.4197 -30.4184
   -20.3334 -20.3334 -20.3334 -20.3333 -20.3333 -20.3333 -20.3333 -20.3332
   -20.3139 -20.3137 -20.3136 -20.3135 -20.3112 -20.3110 -20.3109 -20.3107
   -20.3101 -20.3098 -20.3098 -20.3098 -20.3095 -20.3095 -20.3094 -20.3091
   -20.3090 -20.3088 -20.3087 -20.3085 -20.3084 -20.3083 -20.3081 -20.3080
   -20.3013 -20.3011 -20.3010 -20.3008 -20.3006 -20.3005 -20.3004 -20.3003
   -20.2997 -20.2996 -20.2994 -20.2993 -20.2980 -20.2979 -20.2979 -20.2978
   -20.2949 -20.2946 -20.2944 -20.2942 -20.2931 -20.2928 -20.2928 -20.2925
    -9.6964  -9.5620  -9.4808  -9.3610  -9.1273  -8.9568  -8.9042  -8.8808
    -8.8183  -8.6945  -8.6447  -8.6028  -8.2595  -8.2341  -8.2036  -8.1368
    -8.1229  -8.0932  -8.0858  -8.0210  -7.7393  -7.7278  -7.6660  -7.6550
     1.2703   1.2743   1.2915   1.2958   2.1457   2.2076   2.2695   2.3980
     2.4199   2.5117   2.5325   2.7174   2.7639   2.7720   2.8858   2.9641
     3.2068   3.2914   3.6018   3.6280   3.7148   3.7414   3.8052   3.8164
     4.1169   4.3019   4.3877   4.4136   4.4980   4.5603   4.6084   4.7579
     4.7830   4.8373   4.9890   5.0746   5.1473   5.1887   5.1936   5.3554
     5.3670   5.5587   5.6573   5.8013   6.1228   6.1711   6.2066   6.2494
     6.4178   6.5890   6.6258   6.6342   6.6816   6.7979   6.8069   6.8177
     6.8913   6.9523   7.0266   7.0560   7.0702   7.1287   7.1627   7.1775
     7.2814   7.3342   7.7296   7.7414   7.7542   7.7587   7.8391   7.8529
    10.3316  10.3536  10.6470  10.6666  11.2737  11.3181  11.7625  11.8059
    11.8309  11.9351  12.1693  12.2060  12.5105  12.5808  12.6236  12.6911
    12.8514  13.1204  13.1551  13.3715  13.4591  13.4693  13.8252  13.8428
    15.0695  15.1692  15.5547  15.8185  15.9288  15.9353  15.9932  16.6656
    16.6923  16.8133  17.0380  17.5295  17.6381

          k = 0.0000 0.3150-0.5000 ( 62306 PWs)   bands (ev):

   -66.1736 -66.1736 -66.1734 -66.1734 -66.1726 -66.1726 -66.1724 -66.1724
   -30.5460 -30.5460 -30.5427 -30.5427 -30.5217 -30.5217 -30.5214 -30.5214
   -30.5157 -30.5157 -30.5141 -30.5141 -30.4731 -30.4731 -30.4721 -30.4721
   -30.4684 -30.4684 -30.4673 -30.4673 -30.4208 -30.4208 -30.4195 -30.4195
   -20.3334 -20.3334 -20.3334 -20.3333 -20.3333 -20.3333 -20.3333 -20.3333
   -20.3138 -20.3138 -20.3136 -20.3135 -20.3111 -20.3111 -20.3108 -20.3108
   -20.3099 -20.3099 -20.3096 -20.3096 -20.3094 -20.3094 -20.3091 -20.3091
   -20.3091 -20.3091 -20.3087 -20.3087 -20.3084 -20.3084 -20.3081 -20.3081
   -20.3012 -20.3012 -20.3009 -20.3009 -20.3001 -20.3001 -20.3001 -20.3001
   -20.2999 -20.2999 -20.2998 -20.2998 -20.2965 -20.2965 -20.2963 -20.2963
   -20.2962 -20.2962 -20.2960 -20.2960 -20.2929 -20.2929 -20.2927 -20.2927
    -9.5702  -9.5702  -9.4414  -9.4414  -8.9152  -8.9152  -8.7459  -8.7459
    -8.6019  -8.6019  -8.5837  -8.5837  -8.5176  -8.5176  -8.4242  -8.4242
    -8.1354  -8.1353  -8.0961  -8.0961  -7.7022  -7.7022  -7.6910  -7.6910
     1.2877   1.2877   1.2924   1.2924   2.3827   2.3827   2.5174   2.5174
     2.9032   2.9032   3.0153   3.0153   3.0553   3.0553   3.2485   3.2485
     3.2977   3.2977   3.3043   3.3043   3.3729   3.3729   3.6214   3.6214
     4.0619   4.0619   4.1078   4.1078   4.1163   4.1163   4.3607   4.3607
     4.8088   4.8088   4.9215   4.9215   5.1372   5.1372   5.2593   5.2593
     5.3948   5.3948   5.7287   5.7287   6.2720   6.2720   6.3239   6.3239
     6.4468   6.4468   6.4951   6.4951   6.5361   6.5362   6.7592   6.7592
     7.0430   7.0430   7.0595   7.0595   7.0963   7.0963   7.4996   7.4996
     7.5148   7.5148   7.5673   7.5674   7.5923   7.5923   7.8469   7.8469
    10.6517  10.6517  11.1289  11.1289  11.1666  11.1666  11.6813  11.6813
    12.0040  12.0040  12.1298  12.1298  12.5323  12.5323  12.6359  12.6359
    12.8024  12.8024  12.9509  12.9509  13.4507  13.4508  13.8345  13.8345
    15.1288  15.1288  15.6980  15.6980  16.2950  16.2950  16.4301  16.4301
    16.8583  16.8583  17.2787  17.2787  17.9588

          k = 0.0000-0.4725 0.0000 ( 62212 PWs)   bands (ev):

   -66.1740 -66.1740 -66.1730 -66.1730 -66.1730 -66.1730 -66.1720 -66.1719
   -30.5328 -30.5328 -30.5293 -30.5293 -30.5291 -30.5291 -30.5259 -30.5259
   -30.5240 -30.5239 -30.5228 -30.5228 -30.5184 -30.5184 -30.5179 -30.5179
   -30.4226 -30.4226 -30.4224 -30.4224 -30.4182 -30.4182 -30.4179 -30.4179
   -20.3334 -20.3334 -20.3333 -20.3333 -20.3333 -20.3333 -20.3332 -20.3332
   -20.3125 -20.3125 -20.3123 -20.3122 -20.3122 -20.3122 -20.3120 -20.3120
   -20.3101 -20.3101 -20.3101 -20.3100 -20.3096 -20.3096 -20.3096 -20.3096
   -20.3085 -20.3085 -20.3084 -20.3084 -20.3083 -20.3083 -20.3081 -20.3081
   -20.3013 -20.3013 -20.3012 -20.3012 -20.3009 -20.3009 -20.3009 -20.3009
   -20.2995 -20.2995 -20.2992 -20.2992 -20.2992 -20.2992 -20.2989 -20.2989
   -20.2931 -20.2931 -20.2931 -20.2931 -20.2925 -20.2925 -20.2925 -20.2925
    -9.7979  -9.7979  -9.3461  -9.3461  -9.3450  -9.3450  -9.0729  -9.0729
    -8.4809  -8.4809  -8.4301  -8.4301  -8.4300  -8.4300  -8.4258  -8.4258
    -7.7720  -7.7720  -7.7714  -7.7713  -7.6255  -7.6255  -7.6250  -7.6250
     1.1433   1.1433   1.2499   1.2499   1.2514   1.2514   1.5904   1.5904
     2.4004   2.4004   3.1833   3.1833   3.1909   3.1909   3.2512   3.2512
     3.2891   3.2891   3.2906   3.2906   3.4715   3.4715   3.4729   3.4729
     3.6775   3.6775   4.8243   4.8243   4.8248   4.8248   5.2180   5.2180
     5.2196   5.2196   5.3333   5.3333   5.3342   5.3342   5.7358   5.7359
     5.7364   5.7364   5.9955   5.9955   5.9970   5.9970   6.1630   6.1630
     6.1644   6.1644   6.2609   6.2609   6.7298   6.7298   6.7302   6.7302
     6.9403   6.9403   7.3786   7.3786   7.3795   7.3795   7.4717   7.4717
     7.4719   7.4719   7.5439   7.5439   7.5440   7.5440   7.8124   7.8124
     9.2166   9.2166  11.2184  11.2184  11.2198  11.2198  11.3034  11.3034
    11.3053  11.3053  12.3114  12.3114  12.3122  12.3122  12.9114  12.9114
    13.5704  13.5704  13.5724  13.5724  13.6267  13.6267  13.6283  13.6283
    15.3898  15.3899  15.4199  15.4199  15.6664  15.6664  15.6670  15.6670
    16.5263  16.5263  17.9943  18.0937  18.0938

          k = 0.0000-0.4725 0.1667 ( 62246 PWs)   bands (ev):

   -66.1739 -66.1739 -66.1730 -66.1730 -66.1729 -66.1729 -66.1720 -66.1720
   -30.5331 -30.5330 -30.5299 -30.5299 -30.5297 -30.5297 -30.5263 -30.5263
   -30.5229 -30.5229 -30.5183 -30.5183 -30.5161 -30.5161 -30.5112 -30.5112
   -30.4294 -30.4294 -30.4249 -30.4249 -30.4221 -30.4221 -30.4183 -30.4182
   -20.3334 -20.3334 -20.3333 -20.3333 -20.3333 -20.3333 -20.3333 -20.3332
   -20.3125 -20.3125 -20.3123 -20.3123 -20.3123 -20.3123 -20.3120 -20.3120
   -20.3100 -20.3100 -20.3100 -20.3100 -20.3096 -20.3096 -20.3095 -20.3095
   -20.3086 -20.3086 -20.3084 -20.3084 -20.3084 -20.3083 -20.3082 -20.3082
   -20.3012 -20.3012 -20.3010 -20.3010 -20.3009 -20.3009 -20.3007 -20.3007
   -20.2993 -20.2993 -20.2991 -20.2991 -20.2990 -20.2990 -20.2989 -20.2989
   -20.2935 -20.2935 -20.2931 -20.2930 -20.2930 -20.2930 -20.2926 -20.2925
    -9.7448  -9.7448  -9.3607  -9.3607  -9.2590  -9.2590  -9.0312  -9.0312
    -8.4865  -8.4865  -8.4365  -8.4365  -8.4257  -8.4257  -8.4242  -8.4241
    -7.8954  -7.8954  -7.7616  -7.7616  -7.7570  -7.7570  -7.6345  -7.6345
     1.2358   1.2358   1.2575   1.2575   1.5094   1.5094   1.7608   1.7608
     2.4907   2.4907   3.1917   3.1917   3.2057   3.2057   3.2501   3.2501
     3.2838   3.2838   3.3295   3.3295   3.4696   3.4696   3.5231   3.5231
     3.7037   3.7037   4.4210   4.4210   4.8746   4.8746   4.9718   4.9718
     5.1382   5.1382   5.1981   5.1981   5.3450   5.3450   5.4736   5.4736
     5.7086   5.7086   5.7603   5.7603   6.1084   6.1084   6.1116   6.1116
     6.3906   6.3906   6.4108   6.4108   6.7194   6.7195   6.9104   6.9104
     7.0010   7.0010   7.1360   7.1360   7.1980   7.1980   7.4576   7.4576
     7.4785   7.4785   7.5096   7.5096   7.5293   7.5293   7.8211   7.8211
     9.5927   9.5927  11.2248  11.2248  11.2980  11.2980  11.3490  11.3490
    11.4268  11.4268  12.2126  12.2126  12.3639  12.3640  12.9426  12.9426
    13.3912  13.3912  13.4924  13.4924  13.5781  13.5781  13.6228  13.6228
    15.3984  15.3984  15.6117  15.6117  15.6490  15.6490  15.9416  15.9416
    16.5891  16.5891  17.9058  17.9059  18.0498

          k = 0.0000-0.4725 0.3333 ( 62268 PWs)   bands (ev):

   -66.1737 -66.1737 -66.1732 -66.1732 -66.1727 -66.1727 -66.1722 -66.1722
   -30.5327 -30.5327 -30.5306 -30.5306 -30.5295 -30.5295 -30.5272 -30.5272
   -30.5219 -30.5219 -30.5193 -30.5193 -30.4976 -30.4975 -30.4927 -30.4927
   -30.4477 -30.4477 -30.4431 -30.4431 -30.4213 -30.4213 -30.4191 -30.4191
   -20.3334 -20.3334 -20.3334 -20.3333 -20.3333 -20.3333 -20.3333 -20.3333
   -20.3125 -20.3125 -20.3124 -20.3124 -20.3123 -20.3123 -20.3121 -20.3121
   -20.3099 -20.3099 -20.3097 -20.3097 -20.3097 -20.3097 -20.3093 -20.3092
   -20.3089 -20.3088 -20.3086 -20.3086 -20.3083 -20.3083 -20.3082 -20.3082
   -20.3012 -20.3012 -20.3010 -20.3010 -20.3006 -20.3006 -20.3004 -20.3004
   -20.2997 -20.2997 -20.2994 -20.2994 -20.2979 -20.2979 -20.2978 -20.2978
   -20.2948 -20.2948 -20.2943 -20.2943 -20.2930 -20.2929 -20.2927 -20.2927
    -9.6191  -9.6191  -9.4088  -9.4088  -9.0163  -9.0163  -8.8893  -8.8893
    -8.5231  -8.5230  -8.4669  -8.4669  -8.4194  -8.4194  -8.4024  -8.4024
    -8.1873  -8.1873  -8.0718  -8.0718  -7.7336  -7.7336  -7.6605  -7.6605
     1.2733   1.2733   1.2947   1.2947   2.1977   2.1977   2.4003   2.4003
     2.7530   2.7530   3.2008   3.2008   3.2318   3.2318   3.2410   3.2410
     3.2655   3.2655   3.4073   3.4073   3.4569   3.4569   3.6764   3.6764
     3.7576   3.7576   3.7975   3.7975   4.4786   4.4786   4.6385   4.6386
     4.7809   4.7809   4.8323   4.8323   5.1824   5.1824   5.2543   5.2544
     5.3850   5.3850   5.6339   5.6339   6.1706   6.1706   6.2493   6.2493
     6.5234   6.5234   6.6630   6.6630   6.6881   6.6881   6.8337   6.8337
     6.9825   6.9825   7.1879   7.1879   7.1912   7.1913   7.4347   7.4347
     7.4680   7.4680   7.4982   7.4982   7.5055   7.5055   7.7666   7.7666
    10.3464  10.3464  11.2394  11.2394  11.2787  11.2787  11.7315  11.7315
    11.7737  11.7737  11.8251  11.8251  12.5347  12.5348  12.7415  12.7415
    12.9183  12.9183  13.1992  13.1992  13.5889  13.5889  13.6155  13.6155
    15.4240  15.4240  15.5948  15.5948  16.2317  16.2317  16.6606  16.6606
    16.8046  16.8046  17.3900  17.3900  17.8801

          k = 0.0000-0.4725-0.5000 ( 62284 PWs)   bands (ev):

   -66.1735 -66.1735 -66.1735 -66.1735 -66.1725 -66.1725 -66.1725 -66.1725
   -30.5317 -30.5317 -30.5317 -30.5317 -30.5284 -30.5284 -30.5284 -30.5284
   -30.5206 -30.5206 -30.5206 -30.5206 -30.4727 -30.4727 -30.4727 -30.4727
   -30.4679 -30.4679 -30.4679 -30.4679 -30.4202 -30.4202 -30.4202 -30.4202
   -20.3334 -20.3334 -20.3334 -20.3334 -20.3333 -20.3333 -20.3333 -20.3333
   -20.3125 -20.3125 -20.3125 -20.3125 -20.3122 -20.3122 -20.3122 -20.3122
   -20.3098 -20.3098 -20.3098 -20.3098 -20.3092 -20.3092 -20.3092 -20.3092
   -20.3089 -20.3089 -20.3089 -20.3089 -20.3083 -20.3083 -20.3083 -20.3083
   -20.3011 -20.3011 -20.3011 -20.3011 -20.3001 -20.3001 -20.3001 -20.3001
   -20.2999 -20.2998 -20.2998 -20.2998 -20.2964 -20.2964 -20.2964 -20.2964
   -20.2961 -20.2961 -20.2961 -20.2961 -20.2928 -20.2928 -20.2928 -20.2928
    -9.4943  -9.4943  -9.4943  -9.4943  -8.6991  -8.6991  -8.6991  -8.6991
    -8.6382  -8.6382  -8.6382  -8.6382  -8.3862  -8.3862  -8.3862  -8.3862
    -8.3285  -8.3285  -8.3285  -8.3285  -7.6967  -7.6967  -7.6967  -7.6967
     1.2912   1.2912   1.2912   1.2912   2.9884   2.9884   2.9884   2.9884
     3.1354   3.1354   3.1355   3.1355   3.2212   3.2212   3.2212   3.2212
     3.2687   3.2687   3.2687   3.2687   3.4324   3.4324   3.4324   3.4324
     3.6106   3.6106   3.6106   3.6106   4.3020   4.3020   4.3020   4.3020
     4.4150   4.4150   4.4150   4.4150   5.2164   5.2164   5.2164   5.2164
     5.4966   5.4966   5.4966   5.4966   6.3163   6.3163   6.3163   6.3163
     6.4959   6.4959   6.4959   6.4959   6.6371   6.6371   6.6371   6.6371
     7.2908   7.2908   7.2908   7.2908   7.3749   7.3749   7.3749   7.3749
     7.4613   7.4613   7.4613   7.4613   7.5796   7.5796   7.5796   7.5796
    11.1305  11.1305  11.1305  11.1305  11.2757  11.2757  11.2757  11.2757
    12.2681  12.2681  12.2681  12.2681  12.3027  12.3027  12.3027  12.3027
    12.8424  12.8424  12.8424  12.8424  13.6033  13.6033  13.6033  13.6033
    15.5091  15.5092  15.5092  15.5092  16.8834  16.8834  16.8834  16.8834
    17.3313  17.3313  17.3314  17.3314  17.4615

          k = 0.1667 0.0000 0.1667 ( 62234 PWs)   bands (ev):

   -66.1740 -66.1736 -66.1732 -66.1732 -66.1728 -66.1728 -66.1723 -66.1719
   -30.5616 -30.5585 -30.5585 -30.5554 -30.5194 -30.5189 -30.5162 -30.5149
   -30.5147 -30.5136 -30.5108 -30.5103 -30.4996 -30.4989 -30.4986 -30.4976
   -30.4304 -30.4301 -30.4278 -30.4275 -30.4265 -30.4262 -30.4239 -30.4236
   -20.3334 -20.3334 -20.3334 -20.3333 -20.3333 -20.3333 -20.3333 -20.3332
   -20.3152 -20.3150 -20.3150 -20.3148 -20.3103 -20.3102 -20.3100 -20.3099
   -20.3098 -20.3097 -20.3097 -20.3094 -20.3094 -20.3093 -20.3091 -20.3090
   -20.3089 -20.3088 -20.3087 -20.3086 -20.3082 -20.3081 -20.3079 -20.3079
   -20.3014 -20.3012 -20.3011 -20.3010 -20.3008 -20.3007 -20.3005 -20.3001
   -20.2992 -20.2991 -20.2990 -20.2990 -20.2990 -20.2989 -20.2989 -20.2987
   -20.2939 -20.2937 -20.2933 -20.2933 -20.2933 -20.2931 -20.2928 -20.2928
    -9.8648  -9.5840  -9.4720  -9.4715  -9.1959  -9.1947  -9.0760  -8.9999
    -8.9871  -8.8527  -8.8305  -8.8301  -7.8995  -7.8988  -7.8805  -7.8802
    -7.8486  -7.7986  -7.7783  -7.7775  -7.7719  -7.7555  -7.7353  -7.7348
     1.4073   1.4074   1.4336   1.4415   1.4422   1.5186   1.5201   1.6256
     1.6878   1.6886   1.8633   2.0289   2.5425   2.6253   2.6738   2.6739
     2.7883   2.8184   4.0723   4.0853   4.2916   4.2921   4.4633   4.4635
     4.5084   4.5087   4.6847   4.6857   4.7320   4.8100   5.0235   5.2230
     5.2773   5.2991   5.3601   5.4915   5.4930   5.6154   5.6158   5.6976
     5.6977   5.7369   5.7371   5.7597   5.8205   5.9951   6.3297   6.4345
     6.4373   6.5093   6.5163   6.6572   6.6621   6.6971   6.7019   6.7136
     6.7158   6.8430   6.8434   6.8705   6.8851   6.9883   6.9889   7.1029
     7.2825   7.3437   7.8146   7.8160   8.0403   8.0846   8.1081   8.1092
     9.8066   9.8717  10.2261  10.2279  10.2344  10.3256  12.2306  12.2324
    12.2591  12.2596  12.3033  12.3451  12.5718  12.5727  12.9410  12.9819
    13.0277  13.0491  13.1847  13.3501  13.9747  13.9842  14.0035  14.0462
    14.0581  14.4523  14.4554  15.1424  15.3848  15.5409  15.5554  16.3521
    16.3523  16.9870  16.9873  17.1564  17.5902

          k = 0.1667 0.0000 0.3333 ( 62265 PWs)   bands (ev):

   -66.1739 -66.1735 -66.1733 -66.1730 -66.1730 -66.1726 -66.1725 -66.1721
   -30.5613 -30.5594 -30.5582 -30.5563 -30.5180 -30.5159 -30.5138 -30.5116
   -30.5061 -30.5042 -30.4996 -30.4987 -30.4963 -30.4934 -30.4920 -30.4913
   -30.4485 -30.4461 -30.4446 -30.4421 -30.4293 -30.4271 -30.4266 -30.4244
   -20.3334 -20.3334 -20.3333 -20.3333 -20.3333 -20.3333 -20.3333 -20.3332
   -20.3152 -20.3151 -20.3150 -20.3148 -20.3101 -20.3100 -20.3099 -20.3099
   -20.3097 -20.3097 -20.3096 -20.3094 -20.3094 -20.3092 -20.3091 -20.3091
   -20.3090 -20.3088 -20.3087 -20.3087 -20.3084 -20.3082 -20.3081 -20.3079
   -20.3013 -20.3013 -20.3009 -20.3008 -20.3005 -20.3004 -20.3001 -20.2998
   -20.2995 -20.2994 -20.2993 -20.2992 -20.2981 -20.2979 -20.2978 -20.2976
   -20.2950 -20.2946 -20.2945 -20.2941 -20.2937 -20.2934 -20.2931 -20.2929
    -9.7431  -9.5233  -9.4457  -9.3170  -9.2384  -9.1074  -8.9383  -8.9052
    -8.8514  -8.8427  -8.7897  -8.7224  -8.2035  -8.2023  -8.1290  -8.1061
    -7.8699  -7.8561  -7.8207  -7.7992  -7.7841  -7.7737  -7.7689  -7.7441
     1.4300   1.4373   1.5369   1.5509   1.5683   1.6081   1.6378   1.6872
     2.2200   2.2572   2.4061   2.4907   2.6968   2.7765   2.8212   2.9112
     2.9127   3.0458   3.7798   3.8491   3.8873   3.9190   4.1698   4.2536
     4.2767   4.4693   4.5226   4.5536   4.6305   4.6881   4.7426   4.8936
     4.9684   5.0367   5.0752   5.1804   5.2742   5.3679   5.5510   5.6525
     5.7069   5.7413   5.7694   5.8301   5.8462   6.0029   6.1386   6.1791
     6.4290   6.4447   6.5082   6.5738   6.6056   6.6326   6.6745   6.6895
     6.7998   6.8628   6.8667   6.8866   7.1218   7.1279   7.1431   7.2143
     7.3270   7.3799   7.7566   7.7714   7.9329   7.9721   8.0990   8.1104
    10.2182  10.2323  10.4631  10.5125  10.8548  10.9692  11.8540  11.8914
    12.1211  12.3849  12.4013  12.5056  12.5350  12.5726  12.7292  12.8256
    12.8978  13.0044  13.0559  13.2744  13.6506  13.6648  13.9954  14.0180
    14.2353  14.4279  14.7668  15.2777  15.4499  15.8089  15.9819  16.2559
    16.4260  17.2109  17.4529  17.5165  17.6094

          k = 0.1667 0.0000-0.5000 ( 62322 PWs)   bands (ev):

   -66.1736 -66.1736 -66.1732 -66.1732 -66.1727 -66.1727 -66.1723 -66.1723
   -30.5604 -30.5604 -30.5574 -30.5573 -30.5168 -30.5168 -30.5128 -30.5128
   -30.5011 -30.5011 -30.5005 -30.5005 -30.4728 -30.4728 -30.4712 -30.4712
   -30.4689 -30.4689 -30.4670 -30.4670 -30.4282 -30.4282 -30.4255 -30.4255
   -20.3334 -20.3334 -20.3333 -20.3333 -20.3333 -20.3333 -20.3333 -20.3333
   -20.3152 -20.3152 -20.3149 -20.3149 -20.3100 -20.3100 -20.3098 -20.3098
   -20.3096 -20.3096 -20.3095 -20.3095 -20.3093 -20.3093 -20.3093 -20.3093
   -20.3088 -20.3088 -20.3087 -20.3087 -20.3085 -20.3085 -20.3080 -20.3080
   -20.3012 -20.3012 -20.3009 -20.3008 -20.3000 -20.3000 -20.2999 -20.2999
   -20.2997 -20.2997 -20.2995 -20.2995 -20.2966 -20.2966 -20.2963 -20.2963
   -20.2962 -20.2962 -20.2959 -20.2959 -20.2935 -20.2935 -20.2930 -20.2930
    -9.6151  -9.6151  -9.3182  -9.3182  -9.1789  -9.1789  -8.8627  -8.8627
    -8.5799  -8.5799  -8.5778  -8.5778  -8.5236  -8.5236  -8.4633  -8.4633
    -7.8349  -7.8349  -7.8261  -7.8261  -7.7914  -7.7914  -7.7566  -7.7566
     1.4327   1.4327   1.5555   1.5555   1.5900   1.5900   1.6835   1.6835
     2.7219   2.7219   2.9679   2.9679   3.0560   3.0560   3.1759   3.1760
     3.2689   3.2689   3.3832   3.3832   3.4768   3.4768   3.7733   3.7733
     3.8784   3.8784   4.3824   4.3824   4.5541   4.5541   4.8571   4.8571
     5.0057   5.0057   5.0223   5.0223   5.2318   5.2318   5.6327   5.6327
     5.7728   5.7728   5.8038   5.8038   5.8735   5.8735   5.9825   5.9825
     6.3554   6.3555   6.4565   6.4565   6.6732   6.6732   6.7300   6.7300
     6.7965   6.7965   6.9582   6.9582   7.0116   7.0117   7.5207   7.5207
     7.5601   7.5602   7.7027   7.7027   7.7215   7.7215   8.1096   8.1096
    10.2371  10.2371  11.1884  11.1884  11.2526  11.2526  11.5697  11.5697
    11.7672  11.7672  12.5910  12.5911  12.6303  12.6303  12.6748  12.6748
    12.8988  12.8988  13.2214  13.2214  13.3390  13.3390  14.0034  14.0034
    14.3676  14.3676  15.0758  15.0758  15.8857  15.8857  16.0815  16.0815
    16.7600  16.7600  17.8746  17.8748  17.9081

          k = 0.1667 0.1575 0.1667 ( 62255 PWs)   bands (ev):

   -66.1740 -66.1737 -66.1731 -66.1731 -66.1728 -66.1728 -66.1723 -66.1719
   -30.5577 -30.5547 -30.5546 -30.5515 -30.5194 -30.5188 -30.5168 -30.5151
   -30.5147 -30.5135 -30.5111 -30.5105 -30.5029 -30.5026 -30.5022 -30.5015
   -30.4302 -30.4299 -30.4280 -30.4277 -30.4263 -30.4260 -30.4241 -30.4238
   -20.3334 -20.3334 -20.3334 -20.3333 -20.3333 -20.3333 -20.3333 -20.3332
   -20.3149 -20.3146 -20.3146 -20.3144 -20.3103 -20.3102 -20.3101 -20.3100
   -20.3100 -20.3099 -20.3098 -20.3096 -20.3096 -20.3095 -20.3092 -20.3092
   -20.3088 -20.3088 -20.3087 -20.3086 -20.3082 -20.3082 -20.3080 -20.3079
   -20.3014 -20.3012 -20.3011 -20.3011 -20.3008 -20.3007 -20.3005 -20.3001
   -20.2992 -20.2991 -20.2990 -20.2990 -20.2990 -20.2989 -20.2989 -20.2987
   -20.2938 -20.2937 -20.2934 -20.2933 -20.2932 -20.2932 -20.2928 -20.2928
    -9.8355  -9.5950  -9.4351  -9.4345  -9.2032  -9.2021  -9.0033  -8.9991
    -8.9872  -8.8070  -8.7928  -8.7924  -7.9386  -7.9086  -7.9085  -7.8942
    -7.8931  -7.8555  -7.8539  -7.8534  -7.7962  -7.7680  -7.7544  -7.7368
     1.4073   1.4074   1.4863   1.4874   1.5184   1.5198   1.6100   1.8254
     1.8624   1.8819   1.8823   2.1292   2.5492   2.6201   2.7465   2.7466
     2.8593   2.8824   3.9723   4.0018   4.0943   4.0953   4.4415   4.4423
     4.5115   4.5120   4.6889   4.7208   4.7285   4.7743   4.7966   5.1909
     5.1996   5.2513   5.2533   5.3344   5.3401   5.5748   5.5753   5.6378
     5.7245   5.7253   5.7792   5.7927   5.7929   5.8702   6.3468   6.3630
     6.3647   6.5014   6.5086   6.6525   6.6564   6.7101   6.7652   6.7896
     6.7899   6.8296   6.8655   6.8657   6.9539   6.9678   6.9694   7.1086
     7.2864   7.3423   7.8151   7.8168   7.9873   8.0308   8.0326   8.0332
     9.8216   9.8689  10.3800  10.3962  10.3974  10.4612  12.1927  12.2306
    12.2389  12.2430  12.2467  12.2500  12.4335  12.4341  12.9304  12.9891
    13.0688  13.0794  13.1935  13.3562  13.8896  13.9010  13.9038  13.9698
    14.3628  14.7574  14.7583  15.2750  15.5418  15.5545  15.7911  16.3171
    16.3174  16.8290  17.0906  17.0910  17.6399

          k = 0.1667 0.1575 0.3333 ( 62260 PWs)   bands (ev):

   -66.1738 -66.1735 -66.1733 -66.1730 -66.1729 -66.1726 -66.1724 -66.1721
   -30.5574 -30.5555 -30.5544 -30.5524 -30.5180 -30.5164 -30.5139 -30.5119
   -30.5081 -30.5066 -30.5031 -30.5025 -30.4965 -30.4950 -30.4922 -30.4921
   -30.4484 -30.4463 -30.4444 -30.4423 -30.4291 -30.4269 -30.4268 -30.4246
   -20.3334 -20.3334 -20.3334 -20.3333 -20.3333 -20.3333 -20.3333 -20.3332
   -20.3149 -20.3147 -20.3146 -20.3145 -20.3103 -20.3101 -20.3100 -20.3100
   -20.3099 -20.3098 -20.3097 -20.3096 -20.3095 -20.3093 -20.3092 -20.3091
   -20.3089 -20.3089 -20.3087 -20.3086 -20.3085 -20.3082 -20.3081 -20.3080
   -20.3013 -20.3012 -20.3010 -20.3008 -20.3005 -20.3004 -20.3000 -20.2998
   -20.2995 -20.2995 -20.2993 -20.2992 -20.2981 -20.2979 -20.2978 -20.2976
   -20.2950 -20.2945 -20.2945 -20.2942 -20.2936 -20.2933 -20.2932 -20.2929
    -9.7105  -9.4868  -9.4564  -9.2660  -9.2463  -9.0348  -8.9461  -8.8925
    -8.8526  -8.8052  -8.7590  -8.6987  -8.2091  -8.2003  -8.1430  -8.1039
    -7.9099  -7.8978  -7.8743  -7.8662  -7.8462  -7.8359  -7.7952  -7.7743
     1.4974   1.5136   1.5367   1.5507   1.7644   1.7755   1.8496   1.8780
     2.2187   2.2719   2.4070   2.5097   2.7684   2.8158   2.8578   2.9098
     2.9863   3.1041   3.7759   3.8405   3.8791   3.8821   4.0793   4.1520
     4.2447   4.3497   4.5367   4.5689   4.6541   4.6690   4.7163   4.7432
     4.8833   4.8926   4.9332   5.1470   5.1802   5.2182   5.3133   5.6077
     5.6176   5.6632   5.7360   5.7804   5.8273   5.8442   6.1352   6.1786
     6.3657   6.5199   6.5235   6.6391   6.6988   6.7030   6.7349   6.7516
     6.8479   6.8665   6.9014   6.9365   7.1156   7.1211   7.1359   7.2219
     7.3176   7.3738   7.7581   7.7688   7.8869   7.9128   8.0323   8.0359
    10.3422  10.3975  10.4863  10.5297  10.9696  11.0590  11.8550  11.8881
    12.0921  12.3643  12.4063  12.4245  12.4542  12.5550  12.6693  12.7055
    12.8886  13.0378  13.0410  13.2761  13.5463  13.5684  13.9010  13.9276
    14.5731  14.7364  15.1178  15.5405  15.7008  15.8039  15.9940  16.2245
    16.5317  17.1708  17.2341  17.5078  17.5598

          k = 0.1667 0.1575-0.5000 ( 62292 PWs)   bands (ev):

   -66.1736 -66.1736 -66.1732 -66.1732 -66.1727 -66.1727 -66.1724 -66.1724
   -30.5566 -30.5566 -30.5535 -30.5535 -30.5170 -30.5170 -30.5130 -30.5130
   -30.5045 -30.5045 -30.5042 -30.5042 -30.4729 -30.4728 -30.4714 -30.4713
   -30.4689 -30.4689 -30.4672 -30.4672 -30.4280 -30.4280 -30.4257 -30.4257
   -20.3334 -20.3334 -20.3333 -20.3333 -20.3333 -20.3333 -20.3333 -20.3333
   -20.3148 -20.3148 -20.3146 -20.3146 -20.3102 -20.3102 -20.3099 -20.3099
   -20.3099 -20.3099 -20.3095 -20.3095 -20.3094 -20.3094 -20.3092 -20.3092
   -20.3089 -20.3089 -20.3087 -20.3087 -20.3086 -20.3085 -20.3080 -20.3080
   -20.3012 -20.3012 -20.3009 -20.3009 -20.3000 -20.3000 -20.2999 -20.2999
   -20.2997 -20.2997 -20.2995 -20.2995 -20.2966 -20.2966 -20.2963 -20.2963
   -20.2962 -20.2962 -20.2959 -20.2959 -20.2935 -20.2935 -20.2930 -20.2930
    -9.5798  -9.5798  -9.3275  -9.3275  -9.1118  -9.1117  -8.8284  -8.8284
    -8.5826  -8.5826  -8.5802  -8.5802  -8.5234  -8.5234  -8.4564  -8.4564
    -7.9028  -7.9028  -7.8629  -7.8629  -7.8309  -7.8309  -7.8064  -7.8064
     1.5098   1.5098   1.5553   1.5553   1.7886   1.7886   1.8754   1.8754
     2.7887   2.7887   2.9856   2.9856   3.0648   3.0648   3.1966   3.1966
     3.2721   3.2721   3.3886   3.3886   3.4683   3.4683   3.7783   3.7783
     3.9287   3.9287   4.2332   4.2332   4.5737   4.5737   4.6450   4.6450
     4.9175   4.9175   4.9832   4.9832   5.0795   5.0795   5.4337   5.4337
     5.6951   5.6951   5.7446   5.7446   5.8580   5.8580   5.8674   5.8674
     6.4758   6.4758   6.6141   6.6141   6.6535   6.6535   6.7779   6.7779
     6.8877   6.8877   6.9144   6.9144   7.0393   7.0393   7.5216   7.5216
     7.5547   7.5547   7.6728   7.6728   7.6898   7.6898   8.0372   8.0372
    10.3969  10.3969  11.1940  11.1940  11.2513  11.2513  11.6363  11.6363
    11.8283  11.8283  12.4631  12.4631  12.6100  12.6100  12.6670  12.6670
    12.8767  12.8767  13.1176  13.1176  13.2846  13.2846  13.9104  13.9104
    14.6875  14.6875  15.4539  15.4539  16.0009  16.0009  16.0612  16.0612
    16.7915  16.7915  17.6758  17.6758  17.9415

          k = 0.1667 0.3150 0.1667 ( 62249 PWs)   bands (ev):

   -66.1739 -66.1737 -66.1731 -66.1731 -66.1729 -66.1729 -66.1722 -66.1720
   -30.5472 -30.5442 -30.5441 -30.5410 -30.5215 -30.5199 -30.5198 -30.5156
   -30.5152 -30.5133 -30.5132 -30.5121 -30.5113 -30.5110 -30.5095 -30.5090
   -30.4298 -30.4295 -30.4284 -30.4282 -30.4258 -30.4256 -30.4245 -30.4243
   -20.3334 -20.3334 -20.3334 -20.3333 -20.3333 -20.3333 -20.3333 -20.3332
   -20.3139 -20.3137 -20.3136 -20.3134 -20.3112 -20.3109 -20.3109 -20.3106
   -20.3101 -20.3100 -20.3098 -20.3097 -20.3097 -20.3096 -20.3094 -20.3093
   -20.3087 -20.3086 -20.3085 -20.3085 -20.3084 -20.3083 -20.3081 -20.3081
   -20.3013 -20.3012 -20.3011 -20.3010 -20.3008 -20.3008 -20.3004 -20.3002
   -20.2992 -20.2991 -20.2990 -20.2990 -20.2990 -20.2990 -20.2988 -20.2988
   -20.2937 -20.2936 -20.2935 -20.2933 -20.2932 -20.2932 -20.2929 -20.2929
    -9.7645  -9.6290  -9.3518  -9.3509  -9.2274  -9.2263  -8.9968  -8.9905
    -8.7943  -8.6647  -8.6642  -8.6640  -8.1798  -8.1381  -8.1379  -8.1191
    -7.8917  -7.8912  -7.8777  -7.8773  -7.7921  -7.7789  -7.7508  -7.7406
     1.4072   1.4073   1.5099   1.5111   1.5177   1.5190   1.8050   1.8588
     2.3864   2.5068   2.5074   2.5650   2.5938   2.6791   2.9678   2.9682
     3.0719   3.0806   3.6642   3.6657   3.6732   3.7216   4.1328   4.4312
     4.4318   4.4592   4.4597   4.5524   4.5536   4.7437   4.7505   4.8440
     4.8916   4.8926   5.1051   5.1312   5.3409   5.3785   5.4192   5.4193
     5.6251   5.6489   5.7331   5.7336   5.8013   5.8015   6.3824   6.3859
     6.4254   6.4888   6.4946   6.6219   6.6955   6.7248   6.8646   6.8654
     6.9199   6.9203   6.9894   7.0090   7.0908   7.0997   7.1007   7.1424
     7.3094   7.3463   7.8007   7.8038   7.8092   7.8132   7.8221   7.8565
     9.8425   9.8633  10.7851  10.8370  10.8405  10.8516  11.8489  11.8959
    11.9779  11.9784  12.2506  12.2510  12.2863  12.2866  12.9322  12.9827
    13.1918  13.1944  13.2575  13.4074  13.6594  13.6624  13.6676  13.7604
    15.0702  15.4037  15.4051  15.5447  15.5517  15.7873  16.1951  16.1955
    16.2723  16.7845  17.3662  17.4374  17.4379

          k = 0.1667 0.3150 0.3333 ( 62265 PWs)   bands (ev):

   -66.1738 -66.1736 -66.1732 -66.1731 -66.1729 -66.1727 -66.1724 -66.1722
   -30.5470 -30.5450 -30.5439 -30.5419 -30.5206 -30.5198 -30.5163 -30.5141
   -30.5134 -30.5130 -30.5116 -30.5103 -30.4969 -30.4969 -30.4931 -30.4926
   -30.4480 -30.4468 -30.4440 -30.4428 -30.4287 -30.4273 -30.4264 -30.4251
   -20.3334 -20.3334 -20.3334 -20.3333 -20.3333 -20.3333 -20.3333 -20.3333
   -20.3139 -20.3137 -20.3136 -20.3135 -20.3112 -20.3110 -20.3109 -20.3107
   -20.3099 -20.3098 -20.3097 -20.3096 -20.3095 -20.3094 -20.3094 -20.3091
   -20.3090 -20.3088 -20.3086 -20.3086 -20.3085 -20.3084 -20.3082 -20.3081
   -20.3012 -20.3012 -20.3010 -20.3009 -20.3005 -20.3004 -20.3000 -20.2998
   -20.2995 -20.2995 -20.2993 -20.2992 -20.2980 -20.2979 -20.2978 -20.2977
   -20.2949 -20.2946 -20.2945 -20.2942 -20.2935 -20.2933 -20.2932 -20.2930
    -9.6325  -9.4901  -9.4031  -9.2727  -9.1446  -8.9730  -8.8744  -8.8594
    -8.8265  -8.6798  -8.6401  -8.6079  -8.2514  -8.2478  -8.1941  -8.1360
    -8.1289  -8.0967  -8.0901  -8.0265  -7.8636  -7.8510  -7.7917  -7.7804
     1.5268   1.5359   1.5430   1.5501   2.1511   2.2145   2.2590   2.3950
     2.4052   2.5065   2.5186   2.7006   2.8422   2.9080   2.9846   3.0632
     3.2090   3.2887   3.6398   3.6478   3.7167   3.7368   3.8551   3.9335
     4.1118   4.3052   4.3874   4.4108   4.4862   4.5571   4.5842   4.6050
     4.6728   4.7822   4.8194   4.8726   4.9115   4.9667   5.1265   5.1386
     5.3139   5.3218   5.4513   5.6023   5.7599   5.8097   6.1640   6.1802
     6.5179   6.6025   6.6264   6.7441   6.8081   6.8354   6.9176   6.9622
     7.0050   7.0236   7.0462   7.0596   7.1386   7.1540   7.1839   7.2655
     7.2883   7.3573   7.7292   7.7331   7.7525   7.7642   7.8163   7.8428
    10.4561  10.4926  10.8332  10.8393  11.2849  11.3313  11.8451  11.8615
    11.8678  12.0408  12.1716  12.1946  12.4141  12.5079  12.6387  12.6998
    12.8459  13.0428  13.1126  13.3251  13.3292  13.3520  13.6671  13.7100
    15.2672  15.3825  15.7749  15.9229  16.0048  16.0525  16.1163  16.6639
    16.7254  16.8651  17.0442  17.5664  17.6864

          k = 0.1667 0.3150-0.5000 ( 62264 PWs)   bands (ev):

   -66.1735 -66.1735 -66.1733 -66.1733 -66.1726 -66.1726 -66.1724 -66.1724
   -30.5461 -30.5461 -30.5430 -30.5430 -30.5200 -30.5200 -30.5145 -30.5145
   -30.5136 -30.5136 -30.5112 -30.5112 -30.4728 -30.4728 -30.4718 -30.4718
   -30.4687 -30.4687 -30.4676 -30.4676 -30.4275 -30.4275 -30.4262 -30.4262
   -20.3334 -20.3334 -20.3333 -20.3333 -20.3333 -20.3333 -20.3333 -20.3333
   -20.3138 -20.3138 -20.3136 -20.3136 -20.3111 -20.3111 -20.3109 -20.3109
   -20.3098 -20.3098 -20.3095 -20.3095 -20.3094 -20.3094 -20.3091 -20.3091
   -20.3090 -20.3090 -20.3087 -20.3087 -20.3085 -20.3085 -20.3082 -20.3082
   -20.3011 -20.3011 -20.3009 -20.3009 -20.3000 -20.3000 -20.2999 -20.2999
   -20.2996 -20.2996 -20.2995 -20.2995 -20.2965 -20.2965 -20.2963 -20.2963
   -20.2962 -20.2962 -20.2960 -20.2960 -20.2934 -20.2934 -20.2931 -20.2931
    -9.4970  -9.4970  -9.3576  -9.3576  -8.9306  -8.9306  -8.7274  -8.7274
    -8.6047  -8.6047  -8.5902  -8.5902  -8.5056  -8.5056  -8.4280  -8.4280
    -8.1328  -8.1328  -8.1018  -8.1018  -7.8274  -7.8274  -7.8155  -7.8155
     1.5448   1.5448   1.5545   1.5545   2.3848   2.3848   2.4975   2.4975
     2.9673   2.9673   3.0489   3.0489   3.0622   3.0622   3.2512   3.2512
     3.2860   3.2860   3.4120   3.4120   3.4353   3.4353   3.6646   3.6646
     4.0660   4.0660   4.1065   4.1065   4.1098   4.1099   4.3684   4.3684
     4.7329   4.7329   4.7984   4.7984   4.9854   4.9854   5.0179   5.0179
     5.1096   5.1096   5.5178   5.5178   5.8679   5.8679   5.8814   5.8814
     6.6646   6.6646   6.7823   6.7823   6.8231   6.8231   6.8588   6.8588
     7.0167   7.0167   7.0677   7.0677   7.1704   7.1704   7.5129   7.5129
     7.5378   7.5379   7.5731   7.5731   7.6030   7.6030   7.8270   7.8270
    10.8163  10.8163  11.2071  11.2071  11.2503  11.2503  11.7452  11.7452
    12.0138  12.0138  12.1657  12.1657  12.5154  12.5154  12.5977  12.5977
    12.7648  12.7649  12.9023  12.9023  13.2830  13.2830  13.6840  13.6840
    15.3412  15.3412  15.9769  15.9769  16.3485  16.3485  16.4374  16.4374
    16.9198  16.9198  17.3183  17.3183  17.8834

          k = 0.1667-0.4725 0.1667 ( 62220 PWs)   bands (ev):

   -66.1738 -66.1738 -66.1730 -66.1730 -66.1730 -66.1730 -66.1721 -66.1721
   -30.5332 -30.5332 -30.5302 -30.5302 -30.5301 -30.5301 -30.5266 -30.5266
   -30.5160 -30.5160 -30.5153 -30.5153 -30.5119 -30.5119 -30.5108 -30.5108
   -30.4291 -30.4291 -30.4288 -30.4288 -30.4252 -30.4252 -30.4249 -30.4249
   -20.3334 -20.3334 -20.3333 -20.3333 -20.3333 -20.3333 -20.3333 -20.3332
   -20.3125 -20.3125 -20.3123 -20.3123 -20.3123 -20.3123 -20.3120 -20.3120
   -20.3100 -20.3100 -20.3099 -20.3099 -20.3096 -20.3096 -20.3095 -20.3095
   -20.3086 -20.3085 -20.3085 -20.3085 -20.3084 -20.3084 -20.3082 -20.3082
   -20.3012 -20.3012 -20.3010 -20.3010 -20.3009 -20.3009 -20.3003 -20.3003
   -20.2991 -20.2991 -20.2990 -20.2990 -20.2990 -20.2990 -20.2988 -20.2988
   -20.2936 -20.2936 -20.2934 -20.2934 -20.2931 -20.2931 -20.2930 -20.2930
    -9.6875  -9.6875  -9.2751  -9.2750  -9.2741  -9.2740  -8.9936  -8.9936
    -8.4937  -8.4936  -8.4308  -8.4305  -8.4304  -8.4302  -8.4245  -8.4244
    -7.8856  -7.8853  -7.8848  -7.8846  -7.7861  -7.7861  -7.7457  -7.7457
     1.4072   1.4072   1.5155   1.5160   1.5169   1.5173   1.8473   1.8473
     2.5841   2.5841   3.2024   3.2059   3.2100   3.2154   3.2496   3.2507
     3.2865   3.2870   3.3668   3.3678   3.5171   3.5182   3.5231   3.5243
     3.7235   3.7236   4.4639   4.4646   4.5098   4.5105   4.9281   4.9288
     5.0047   5.0049   5.1185   5.1194   5.1643   5.1651   5.4192   5.4193
     5.4575   5.4576   5.7402   5.7412   5.7719   5.7726   6.4424   6.4476
     6.4640   6.4703   6.5331   6.5336   6.7023   6.7032   6.8970   6.8972
     6.9090   6.9097   7.0741   7.0742   7.2667   7.2668   7.4594   7.4595
     7.4696   7.4702   7.4870   7.4876   7.5410   7.5410   7.8190   7.8191
     9.8554   9.8554  11.3272  11.3278  11.3807  11.3820  11.4184  11.4203
    11.4214  11.4226  12.2552  12.2556  12.2764  12.2769  12.9587  12.9587
    13.3902  13.3911  13.4032  13.4048  13.4233  13.4240  13.5475  13.5475
    15.5473  15.5474  15.6885  15.6889  15.9190  15.9198  15.9294  15.9299
    16.6461  16.6461  17.9153  17.9329  17.9367

          k = 0.1667-0.4725 0.3333 ( 62252 PWs)   bands (ev):

   -66.1737 -66.1737 -66.1732 -66.1731 -66.1728 -66.1728 -66.1723 -66.1723
   -30.5330 -30.5330 -30.5310 -30.5310 -30.5298 -30.5298 -30.5275 -30.5275
   -30.5146 -30.5146 -30.5122 -30.5122 -30.4972 -30.4972 -30.4930 -30.4930
   -30.4474 -30.4474 -30.4434 -30.4434 -30.4280 -30.4280 -30.4258 -30.4257
   -20.3334 -20.3334 -20.3333 -20.3333 -20.3333 -20.3333 -20.3333 -20.3333
   -20.3125 -20.3125 -20.3124 -20.3124 -20.3123 -20.3123 -20.3121 -20.3121
   -20.3098 -20.3098 -20.3096 -20.3096 -20.3095 -20.3095 -20.3093 -20.3093
   -20.3088 -20.3088 -20.3086 -20.3086 -20.3084 -20.3084 -20.3083 -20.3083
   -20.3011 -20.3011 -20.3010 -20.3010 -20.3005 -20.3005 -20.2999 -20.2999
   -20.2995 -20.2995 -20.2993 -20.2993 -20.2980 -20.2980 -20.2978 -20.2978
   -20.2948 -20.2948 -20.2944 -20.2943 -20.2934 -20.2934 -20.2931 -20.2931
    -9.5501  -9.5501  -9.3237  -9.3236  -9.0338  -9.0334  -8.8637  -8.8636
    -8.5348  -8.5341  -8.4599  -8.4582  -8.4172  -8.4162  -8.4079  -8.4079
    -8.1783  -8.1776  -8.0818  -8.0811  -7.8579  -7.8575  -7.7864  -7.7861
     1.5332   1.5342   1.5477   1.5490   2.2044   2.2050   2.3863   2.3875
     2.8553   2.8595   3.2100   3.2130   3.2277   3.2372   3.2394   3.2459
     3.2723   3.3013   3.4229   3.4628   3.4933   3.5215   3.6564   3.6661
     3.7594   3.7734   3.8583   3.9231   4.4504   4.4995   4.5929   4.5957
     4.6584   4.7186   4.7445   4.7824   4.9769   4.9854   4.9954   5.0683
     5.1470   5.2034   5.3189   5.4001   5.7667   5.7835   6.1754   6.1779
     6.5976   6.6046   6.6962   6.7115   6.8517   6.8590   7.0056   7.0680
     7.0801   7.1034   7.1707   7.1939   7.2093   7.2140   7.4309   7.4405
     7.4581   7.4686   7.4761   7.4958   7.5017   7.5302   7.7698   7.7715
    10.4803  10.4835  11.3574  11.3726  11.3927  11.4044  11.7358  11.7494
    11.7512  11.7720  11.8680  11.9193  12.4164  12.4697  12.7324  12.7595
    12.9154  12.9447  13.0990  13.1823  13.4022  13.4295  13.4536  13.5088
    15.6574  15.6754  15.8625  15.8789  16.2652  16.2916  16.6351  16.6601
    16.8390  16.8434  17.4163  17.4543  17.8486

          k = 0.1667-0.4725-0.5000 ( 62232 PWs)   bands (ev):

   -66.1734 -66.1734 -66.1734 -66.1734 -66.1725 -66.1725 -66.1725 -66.1725
   -30.5321 -30.5321 -30.5321 -30.5321 -30.5287 -30.5287 -30.5287 -30.5287
   -30.5134 -30.5134 -30.5134 -30.5134 -30.4724 -30.4723 -30.4723 -30.4723
   -30.4682 -30.4682 -30.4682 -30.4682 -30.4269 -30.4269 -30.4269 -30.4269
   -20.3334 -20.3334 -20.3334 -20.3334 -20.3333 -20.3333 -20.3333 -20.3333
   -20.3125 -20.3125 -20.3125 -20.3125 -20.3122 -20.3122 -20.3122 -20.3122
   -20.3097 -20.3097 -20.3097 -20.3096 -20.3092 -20.3092 -20.3092 -20.3092
   -20.3089 -20.3089 -20.3089 -20.3089 -20.3084 -20.3083 -20.3083 -20.3083
   -20.3010 -20.3010 -20.3010 -20.3010 -20.3000 -20.3000 -20.2999 -20.2999
   -20.2996 -20.2996 -20.2996 -20.2996 -20.2964 -20.2964 -20.2964 -20.2964
   -20.2961 -20.2961 -20.2961 -20.2961 -20.2933 -20.2933 -20.2933 -20.2933
    -9.4141  -9.4141  -9.4140  -9.4140  -8.7223  -8.7223  -8.7197  -8.7197
    -8.6206  -8.6206  -8.6162  -8.6162  -8.3859  -8.3858  -8.3808  -8.3808
    -8.3334  -8.3334  -8.3295  -8.3295  -7.8220  -7.8220  -7.8215  -7.8215
     1.5515   1.5515   1.5528   1.5528   2.9880   2.9880   2.9943   2.9943
     3.1207   3.1207   3.1493   3.1493   3.2151   3.2151   3.2552   3.2552
     3.2830   3.2830   3.3783   3.3783   3.4616   3.4616   3.4922   3.4922
     3.6335   3.6335   3.6486   3.6486   4.2988   4.2988   4.3075   4.3075
     4.4045   4.4045   4.4102   4.4102   4.8615   4.8615   5.0353   5.0353
     5.1334   5.1334   5.2913   5.2913   5.8693   5.8693   5.8792   5.8792
     6.7469   6.7469   6.7761   6.7761   6.8572   6.8572   6.8911   6.8911
     7.2731   7.2731   7.3166   7.3166   7.3605   7.3606   7.3933   7.3933
     7.4493   7.4493   7.4832   7.4832   7.5798   7.5798   7.6073   7.6073
    11.1830  11.1830  11.2124  11.2124  11.3813  11.3813  11.4383  11.4383
    12.2514  12.2514  12.2787  12.2787  12.3056  12.3056  12.3167  12.3167
    12.7394  12.7394  12.8078  12.8078  13.4190  13.4190  13.4638  13.4638
    15.7697  15.7697  15.7892  15.7892  16.9351  16.9351  16.9449  16.9450
    17.3370  17.3371  17.3511  17.3512  17.4407

          k = 0.3333 0.0000 0.3333 ( 62316 PWs)   bands (ev):

   -66.1737 -66.1733 -66.1732 -66.1732 -66.1728 -66.1728 -66.1727 -66.1723
   -30.5610 -30.5591 -30.5591 -30.5571 -30.5080 -30.5060 -30.5059 -30.4997
   -30.4966 -30.4955 -30.4952 -30.4945 -30.4933 -30.4927 -30.4915 -30.4894
   -30.4482 -30.4472 -30.4457 -30.4453 -30.4450 -30.4448 -30.4429 -30.4426
   -20.3334 -20.3334 -20.3334 -20.3333 -20.3333 -20.3333 -20.3333 -20.3333
   -20.3152 -20.3151 -20.3150 -20.3149 -20.3100 -20.3099 -20.3098 -20.3098
   -20.3098 -20.3097 -20.3096 -20.3095 -20.3091 -20.3091 -20.3091 -20.3090
   -20.3090 -20.3089 -20.3089 -20.3088 -20.3084 -20.3083 -20.3082 -20.3082
   -20.3012 -20.3010 -20.3007 -20.3007 -20.3005 -20.3005 -20.2998 -20.2998
   -20.2991 -20.2987 -20.2983 -20.2983 -20.2980 -20.2979 -20.2975 -20.2972
   -20.2953 -20.2948 -20.2947 -20.2947 -20.2946 -20.2942 -20.2942 -20.2941
    -9.6056  -9.3677  -9.3674  -9.2614  -9.1432  -8.9860  -8.9850  -8.7775
    -8.7763  -8.7617  -8.7385  -8.7380  -8.2393  -8.1836  -8.1800  -8.1798
    -8.1686  -8.1683  -8.0602  -8.0414  -7.8038  -7.7787  -7.7787  -7.7536
     1.5061   1.5470   1.5471   1.5891   2.1185   2.1260   2.2368   2.2379
     2.2742   2.2752   2.4861   2.5884   2.9273   2.9276   2.9659   3.0091
     3.1941   3.2227   3.7953   3.7997   3.8791   3.8816   4.1016   4.1017
     4.1431   4.1431   4.2163   4.3113   4.4066   4.4078   4.4638   4.5012
     4.8486   4.8531   4.8893   4.9449   5.0356   5.0363   5.1535   5.4108
     5.4121   5.4848   5.4861   5.6349   5.8925   5.8943   5.8944   6.0438
     6.4652   6.4731   6.4960   6.4961   6.5169   6.5559   6.5560   6.6257
     6.9923   7.1820   7.1825   7.1999   7.2002   7.3078   7.3471   7.3484
     7.3968   7.4959   7.7184   7.7258   7.9026   7.9784   7.9791   8.0231
    10.7094  10.8454  10.8637  10.8677  10.9277  11.1652  12.0255  12.0262
    12.0729  12.0734  12.1872  12.2797  12.5217  12.5232  12.7212  12.7877
    12.8029  12.8036  12.9505  13.0247  13.5630  13.6327  13.6334  13.7305
    14.4445  14.7190  14.7191  15.1819  15.8327  16.3385  16.3855  16.7683
    16.7684  17.2076  17.2079  17.7969  17.8519

          k = 0.3333 0.0000-0.5000 ( 62288 PWs)   bands (ev):

   -66.1734 -66.1734 -66.1730 -66.1730 -66.1729 -66.1729 -66.1725 -66.1725
   -30.5601 -30.5601 -30.5582 -30.5582 -30.5064 -30.5064 -30.5015 -30.5015
   -30.4946 -30.4946 -30.4925 -30.4925 -30.4720 -30.4720 -30.4703 -30.4703
   -30.4697 -30.4697 -30.4679 -30.4679 -30.4463 -30.4463 -30.4438 -30.4438
   -20.3334 -20.3334 -20.3333 -20.3333 -20.3333 -20.3333 -20.3333 -20.3333
   -20.3151 -20.3151 -20.3150 -20.3150 -20.3099 -20.3099 -20.3097 -20.3097
   -20.3096 -20.3096 -20.3095 -20.3095 -20.3093 -20.3093 -20.3090 -20.3090
   -20.3090 -20.3090 -20.3087 -20.3087 -20.3085 -20.3085 -20.3082 -20.3082
   -20.3009 -20.3009 -20.3007 -20.3007 -20.3002 -20.3002 -20.3002 -20.3002
   -20.2985 -20.2985 -20.2982 -20.2981 -20.2967 -20.2967 -20.2963 -20.2963
   -20.2963 -20.2962 -20.2959 -20.2959 -20.2947 -20.2947 -20.2943 -20.2943
    -9.4634  -9.4634  -9.2225  -9.2225  -9.0826  -9.0826  -8.7591  -8.7591
    -8.6300  -8.6299  -8.5607  -8.5607  -8.4998  -8.4998  -8.4663  -8.4663
    -8.1364  -8.1363  -8.1310  -8.1310  -7.7916  -7.7916  -7.7663  -7.7663
     1.5263   1.5263   1.5696   1.5696   2.2536   2.2536   2.2807   2.2807
     2.9143   2.9143   3.0031   3.0031   3.0372   3.0372   3.1962   3.1963
     3.3022   3.3022   3.5794   3.5794   3.6974   3.6975   3.8317   3.8317
     3.8659   3.8659   4.0456   4.0456   4.1838   4.1838   4.3393   4.3393
     4.6855   4.6855   4.8968   4.8968   5.0217   5.0217   5.0956   5.0956
[...]
   -20.3432 -20.3432 -20.3429 -20.3429 -20.3428 -20.3428 -20.3425 -20.3425
   -20.3352 -20.3352 -20.3351 -20.3351 -20.3341 -20.3341 -20.3341 -20.3341
   -20.3337 -20.3337 -20.3335 -20.3335 -20.3307 -20.3307 -20.3305 -20.3305
   -20.3303 -20.3303 -20.3301 -20.3301 -20.3275 -20.3275 -20.3273 -20.3273
    -9.5102  -9.5102  -9.3628  -9.3628  -8.9689  -8.9689  -8.7547  -8.7547
    -8.6182  -8.6182  -8.5991  -8.5991  -8.5233  -8.5233  -8.4467  -8.4467
    -8.1721  -8.1721  -8.1413  -8.1413  -7.8455  -7.8455  -7.8337  -7.8337
     1.5401   1.5401   1.5508   1.5508   2.3425   2.3425   2.4559   2.4559
     2.9492   2.9492   3.0342   3.0342   3.0510   3.0510   3.2389   3.2389
     3.2749   3.2749   3.4037   3.4037   3.4258   3.4258   3.6489   3.6489
     4.0375   4.0375   4.0705   4.0705   4.0960   4.0960   4.3424   4.3424
     4.6999   4.6999   4.7671   4.7671   4.9535   4.9535   4.9908   4.9908
     5.0920   5.0920   5.4819   5.4819   5.8469   5.8469   5.8585   5.8585
     6.6461   6.6461   6.7604   6.7604   6.8054   6.8054   6.8404   6.8404
     6.9916   6.9916   7.0422   7.0422   7.1467   7.1467   7.4897   7.4897
     7.5181   7.5181   7.5499   7.5499   7.5811   7.5811   7.8013   7.8013
    10.7870  10.7870  11.1709  11.1709  11.2134  11.2134  11.7130  11.7130
    11.9773  11.9773  12.1376  12.1376  12.4782  12.4782  12.5643  12.5643
    12.7241  12.7241  12.8651  12.8651  13.2394  13.2394  13.6460  13.6460
    15.2998  15.2998  15.9122  15.9122  16.3321  16.3321  16.4161  16.4161
    16.8598  16.8598  17.2816  17.2816  17.8501

          k = 0.3329 0.4730 0.1664 ( 62344 PWs)   bands (ev):

   -66.2063 -66.2062 -66.2058 -66.2058 -66.2054 -66.2054 -66.2049 -66.2049
   -30.5690 -30.5690 -30.5671 -30.5671 -30.5661 -30.5661 -30.5641 -30.5641
   -30.5408 -30.5408 -30.5383 -30.5383 -30.5232 -30.5232 -30.5190 -30.5190
   -30.4740 -30.4740 -30.4701 -30.4701 -30.4553 -30.4553 -30.4531 -30.4531
   -20.3676 -20.3676 -20.3675 -20.3675 -20.3675 -20.3675 -20.3675 -20.3674
   -20.3467 -20.3467 -20.3466 -20.3466 -20.3465 -20.3465 -20.3463 -20.3463
   -20.3441 -20.3441 -20.3438 -20.3438 -20.3438 -20.3438 -20.3434 -20.3434
   -20.3430 -20.3430 -20.3427 -20.3427 -20.3427 -20.3427 -20.3426 -20.3426
   -20.3353 -20.3353 -20.3350 -20.3350 -20.3346 -20.3346 -20.3339 -20.3339
   -20.3337 -20.3337 -20.3334 -20.3333 -20.3322 -20.3321 -20.3319 -20.3319
   -20.3289 -20.3289 -20.3285 -20.3285 -20.3275 -20.3275 -20.3273 -20.3273
    -9.5572  -9.5572  -9.3318  -9.3316  -9.0453  -9.0449  -8.8684  -8.8683
    -8.5772  -8.5764  -8.4977  -8.4961  -8.4579  -8.4569  -8.4472  -8.4472
    -8.1940  -8.1934  -8.0987  -8.0982  -7.8756  -7.8752  -7.8047  -7.8044
     1.5291   1.5300   1.5451   1.5463   2.1965   2.1971   2.3754   2.3767
     2.8584   2.8625   3.1806   3.1809   3.2023   3.2036   3.2141   3.2173
     3.2514   3.2792   3.3987   3.4425   3.4551   3.4876   3.6278   3.6383
     3.7248   3.7389   3.8541   3.9200   4.4185   4.4658   4.5736   4.5792
     4.6295   4.6910   4.7236   4.7545   4.9413   4.9630   4.9699   5.0281
     5.1078   5.1644   5.2976   5.3724   5.7427   5.7591   6.1591   6.1610
     6.5857   6.5926   6.6734   6.6879   6.8319   6.8384   6.9886   7.0502
     7.0656   7.0861   7.1449   7.1699   7.1879   7.1911   7.4040   7.4155
     7.4297   7.4465   7.4501   7.4697   7.4770   7.5061   7.7511   7.7529
    10.4477  10.4511  11.3313  11.3475  11.3643  11.3772  11.7088  11.7195
    11.7252  11.7418  11.8280  11.8806  12.3723  12.4254  12.6902  12.7166
    12.8777  12.9064  13.0575  13.1399  13.3600  13.3878  13.4107  13.4652
    15.5977  15.6152  15.8076  15.8244  16.2153  16.2407  16.5877  16.6134
    16.8263  16.8302  17.3917  17.4331  17.8383

          k =-0.4993 0.4730 0.1664 ( 62300 PWs)   bands (ev):

   -66.2060 -66.2060 -66.2060 -66.2060 -66.2052 -66.2051 -66.2051 -66.2051
   -30.5682 -30.5682 -30.5681 -30.5681 -30.5653 -30.5653 -30.5652 -30.5652
   -30.5396 -30.5396 -30.5396 -30.5396 -30.4987 -30.4987 -30.4985 -30.4985
   -30.4946 -30.4946 -30.4945 -30.4945 -30.4542 -30.4542 -30.4542 -30.4542
   -20.3676 -20.3675 -20.3675 -20.3675 -20.3675 -20.3675 -20.3675 -20.3675
   -20.3467 -20.3467 -20.3467 -20.3466 -20.3464 -20.3464 -20.3464 -20.3464
   -20.3440 -20.3439 -20.3439 -20.3439 -20.3434 -20.3434 -20.3433 -20.3433
   -20.3430 -20.3430 -20.3430 -20.3430 -20.3426 -20.3426 -20.3426 -20.3426
   -20.3351 -20.3351 -20.3351 -20.3351 -20.3341 -20.3341 -20.3341 -20.3341
   -20.3336 -20.3336 -20.3336 -20.3336 -20.3306 -20.3306 -20.3306 -20.3306
   -20.3302 -20.3302 -20.3302 -20.3302 -20.3274 -20.3274 -20.3274 -20.3274
    -9.4224  -9.4224  -9.4216  -9.4215  -8.7472  -8.7472  -8.7430  -8.7429
    -8.6357  -8.6357  -8.6304  -8.6304  -8.4223  -8.4223  -8.4147  -8.4146
    -8.3641  -8.3641  -8.3577  -8.3576  -7.8400  -7.8400  -7.8396  -7.8396
     1.5475   1.5475   1.5491   1.5491   2.9662   2.9662   2.9839   2.9839
     3.1022   3.1022   3.1251   3.1251   3.1899   3.1899   3.2501   3.2501
     3.2526   3.2526   3.3607   3.3607   3.4474   3.4474   3.4775   3.4775
     3.5872   3.5872   3.6382   3.6382   4.2673   4.2673   4.2799   4.2799
     4.3664   4.3664   4.3845   4.3846   4.8376   4.8376   5.0101   5.0101
     5.1040   5.1040   5.2598   5.2598   5.8482   5.8482   5.8580   5.8580
     6.7282   6.7282   6.7597   6.7597   6.8387   6.8387   6.8741   6.8741
     7.2490   7.2490   7.2888   7.2889   7.3327   7.3328   7.3714   7.3714
     7.4227   7.4228   7.4623   7.4623   7.5601   7.5601   7.5868   7.5868
    11.1498  11.1498  11.1771  11.1771  11.3534  11.3534  11.4081  11.4081
    12.2146  12.2146  12.2458  12.2458  12.2685  12.2685  12.2895  12.2895
    12.6957  12.6957  12.7638  12.7638  13.3771  13.3771  13.4218  13.4218
    15.7125  15.7125  15.7319  15.7319  16.8997  16.8997  16.9159  16.9159
    17.3014  17.3014  17.3215  17.3215  17.4095

          k =-0.4993 0.0000 0.3329 ( 62350 PWs)   bands (ev):

   -66.2060 -66.2060 -66.2056 -66.2056 -66.2055 -66.2055 -66.2051 -66.2051
   -30.5970 -30.5970 -30.5952 -30.5952 -30.5400 -30.5400 -30.5371 -30.5371
   -30.5215 -30.5215 -30.5200 -30.5200 -30.4988 -30.4988 -30.4967 -30.4967
   -30.4961 -30.4961 -30.4941 -30.4940 -30.4734 -30.4734 -30.4708 -30.4708
   -20.3676 -20.3676 -20.3675 -20.3675 -20.3675 -20.3675 -20.3675 -20.3674
   -20.3494 -20.3494 -20.3492 -20.3492 -20.3440 -20.3440 -20.3440 -20.3440
   -20.3438 -20.3438 -20.3436 -20.3436 -20.3434 -20.3434 -20.3433 -20.3432
   -20.3432 -20.3432 -20.3429 -20.3429 -20.3427 -20.3427 -20.3425 -20.3425
   -20.3350 -20.3350 -20.3349 -20.3349 -20.3344 -20.3344 -20.3343 -20.3343
   -20.3326 -20.3326 -20.3322 -20.3322 -20.3308 -20.3308 -20.3304 -20.3304
   -20.3304 -20.3304 -20.3300 -20.3300 -20.3289 -20.3289 -20.3284 -20.3283
    -9.4922  -9.4922  -9.2655  -9.2655  -9.0887  -9.0887  -8.7836  -8.7836
    -8.6395  -8.6395  -8.5716  -8.5716  -8.5106  -8.5106  -8.4793  -8.4793
    -8.1508  -8.1508  -8.1447  -8.1447  -7.8297  -7.8297  -7.8050  -7.8050
     1.4778   1.4778   1.5197   1.5197   2.2457   2.2457   2.2724   2.2724
     2.8928   2.8928   2.9848   2.9848   3.0212   3.0212   3.1806   3.1806
     3.2905   3.2905   3.5698   3.5698   3.6894   3.6894   3.8207   3.8207
     3.8397   3.8397   4.0168   4.0168   4.1597   4.1597   4.3286   4.3286
     4.6768   4.6768   4.8852   4.8852   5.0077   5.0077   5.0800   5.0800
     5.2298   5.2298   5.4852   5.4852   5.8807   5.8807   5.9720   5.9720
     6.3787   6.3787   6.3951   6.3952   6.4454   6.4454   6.5559   6.5559
     7.1404   7.1404   7.2784   7.2784   7.3660   7.3660   7.5306   7.5306
     7.5545   7.5545   7.6723   7.6723   7.7211   7.7211   7.9638   7.9639
    10.8250  10.8250  11.3774  11.3774  11.4556  11.4556  11.5774  11.5774
    11.7920  11.7920  12.2076  12.2076  12.3375  12.3375  12.5806  12.5806
    12.7962  12.7962  13.1538  13.1538  13.1936  13.1936  13.6153  13.6153
    14.6036  14.6036  14.9865  14.9865  16.2571  16.2571  16.7054  16.7054
    17.0539  17.0539  17.4620  17.4620  17.9002

          k =-0.4993-0.1577 0.3329 ( 62404 PWs)   bands (ev):

   -66.2060 -66.2060 -66.2057 -66.2056 -66.2055 -66.2055 -66.2052 -66.2052
   -30.5931 -30.5931 -30.5913 -30.5913 -30.5435 -30.5435 -30.5409 -30.5409
   -30.5217 -30.5217 -30.5202 -30.5202 -30.4987 -30.4987 -30.4967 -30.4967
   -30.4962 -30.4962 -30.4942 -30.4942 -30.4732 -30.4732 -30.4710 -30.4710
   -20.3676 -20.3676 -20.3675 -20.3675 -20.3675 -20.3675 -20.3675 -20.3674
   -20.3490 -20.3490 -20.3489 -20.3488 -20.3443 -20.3443 -20.3441 -20.3441
   -20.3439 -20.3439 -20.3436 -20.3436 -20.3434 -20.3434 -20.3433 -20.3433
   -20.3432 -20.3432 -20.3430 -20.3430 -20.3428 -20.3428 -20.3426 -20.3425
   -20.3350 -20.3350 -20.3349 -20.3349 -20.3344 -20.3344 -20.3343 -20.3343
   -20.3326 -20.3326 -20.3322 -20.3322 -20.3308 -20.3308 -20.3304 -20.3304
   -20.3304 -20.3304 -20.3300 -20.3300 -20.3288 -20.3288 -20.3284 -20.3284
    -9.4442  -9.4442  -9.1989  -9.1989  -9.0993  -9.0993  -8.7595  -8.7594
    -8.6474  -8.6474  -8.5693  -8.5693  -8.5093  -8.5093  -8.4754  -8.4754
    -8.1498  -8.1498  -8.1492  -8.1492  -7.9246  -7.9246  -7.8998  -7.8998
     1.7065   1.7065   1.7486   1.7486   2.2449   2.2449   2.2824   2.2824
     2.9392   2.9392   3.0195   3.0195   3.0390   3.0390   3.1910   3.1910
     3.2914   3.2914   3.5848   3.5848   3.6864   3.6864   3.8123   3.8123
     3.8865   3.8865   4.0470   4.0470   4.1606   4.1606   4.3359   4.3359
     4.5484   4.5484   4.6617   4.6618   4.9537   4.9537   5.0035   5.0035
     5.0535   5.0535   5.2769   5.2769   5.6661   5.6661   5.7473   5.7473
     6.5097   6.5097   6.5445   6.5445   6.6024   6.6024   6.7271   6.7271
     7.1437   7.1437   7.2697   7.2697   7.3645   7.3645   7.5258   7.5258
     7.5490   7.5490   7.6438   7.6438   7.6903   7.6904   7.9081   7.9081
    10.9293  10.9293  11.3930  11.3930  11.4652  11.4652  11.6402  11.6402
    11.8448  11.8448  12.2266  12.2266  12.3342  12.3342  12.5923  12.5923
    12.6743  12.6743  13.0349  13.0349  13.0763  13.0763  13.5097  13.5097
    14.9726  14.9726  15.3719  15.3719  16.3430  16.3430  16.7052  16.7052
    17.0577  17.0577  17.4735  17.4735  17.7593

          k =-0.4993-0.3154 0.3329 ( 62362 PWs)   bands (ev):

   -66.2059 -66.2059 -66.2057 -66.2057 -66.2054 -66.2054 -66.2052 -66.2052
   -30.5825 -30.5824 -30.5806 -30.5806 -30.5536 -30.5536 -30.5515 -30.5515
   -30.5217 -30.5217 -30.5207 -30.5207 -30.4983 -30.4983 -30.4971 -30.4971
   -30.4960 -30.4960 -30.4948 -30.4947 -30.4728 -30.4728 -30.4715 -30.4715
   -20.3676 -20.3675 -20.3675 -20.3675 -20.3675 -20.3675 -20.3675 -20.3675
   -20.3480 -20.3480 -20.3479 -20.3479 -20.3453 -20.3453 -20.3451 -20.3451
   -20.3438 -20.3438 -20.3435 -20.3435 -20.3434 -20.3434 -20.3433 -20.3433
   -20.3431 -20.3431 -20.3431 -20.3431 -20.3429 -20.3429 -20.3427 -20.3427
   -20.3350 -20.3350 -20.3349 -20.3349 -20.3344 -20.3343 -20.3343 -20.3343
   -20.3325 -20.3325 -20.3323 -20.3323 -20.3307 -20.3307 -20.3305 -20.3305
   -20.3303 -20.3303 -20.3301 -20.3301 -20.3287 -20.3287 -20.3285 -20.3285
    -9.3275  -9.3275  -9.1356  -9.1356  -9.0196  -9.0196  -8.7021  -8.7021
    -8.6593  -8.6593  -8.5643  -8.5643  -8.4993  -8.4993  -8.4556  -8.4556
    -8.1996  -8.1996  -8.1610  -8.1610  -8.1405  -8.1405  -8.0898  -8.0898
     2.1697   2.1697   2.2414   2.2414   2.3496   2.3496   2.4699   2.4699
     3.0090   3.0090   3.0571   3.0571   3.1546   3.1546   3.2304   3.2304
     3.3194   3.3194   3.5738   3.5738   3.6711   3.6711   3.7601   3.7601
     4.0297   4.0297   4.0615   4.0615   4.1029   4.1029   4.2095   4.2095
     4.2950   4.2950   4.4242   4.4242   4.5818   4.5818   4.8105   4.8105
     4.9282   4.9282   4.9732   4.9732   5.0249   5.0249   5.2589   5.2589
     6.8323   6.8323   6.8881   6.8882   6.9466   6.9466   7.0098   7.0098
     7.1493   7.1493   7.2496   7.2496   7.3697   7.3697   7.4804   7.4804
     7.5180   7.5180   7.5802   7.5802   7.6107   7.6107   7.7471   7.7472
    11.2025  11.2025  11.4169  11.4169  11.5021  11.5021  11.8112  11.8112
    12.0152  12.0152  12.2569  12.2569  12.3091  12.3091  12.3249  12.3249
    12.6536  12.6536  12.7503  12.7503  12.8397  12.8397  13.2536  13.2536
    15.8195  15.8195  16.3172  16.3172  16.6039  16.6039  16.6819  16.6819
    17.0860  17.0860  17.3516  17.3516  17.6297

          k =-0.4993 0.4730 0.3329 ( 62324 PWs)   bands (ev):

   -66.2058 -66.2058 -66.2058 -66.2058 -66.2053 -66.2053 -66.2053 -66.2053
   -30.5680 -30.5680 -30.5679 -30.5679 -30.5661 -30.5661 -30.5660 -30.5660
   -30.5213 -30.5213 -30.5213 -30.5213 -30.4978 -30.4978 -30.4977 -30.4977
   -30.4955 -30.4955 -30.4953 -30.4953 -30.4722 -30.4722 -30.4722 -30.4722
   -20.3675 -20.3675 -20.3675 -20.3675 -20.3675 -20.3675 -20.3675 -20.3675
   -20.3467 -20.3467 -20.3466 -20.3466 -20.3465 -20.3465 -20.3465 -20.3465
   -20.3437 -20.3437 -20.3436 -20.3436 -20.3433 -20.3433 -20.3433 -20.3433
   -20.3431 -20.3431 -20.3431 -20.3431 -20.3429 -20.3429 -20.3429 -20.3429
   -20.3350 -20.3350 -20.3349 -20.3349 -20.3343 -20.3343 -20.3343 -20.3343
   -20.3324 -20.3324 -20.3324 -20.3324 -20.3306 -20.3306 -20.3306 -20.3306
   -20.3302 -20.3302 -20.3302 -20.3302 -20.3286 -20.3286 -20.3286 -20.3286
    -9.2105  -9.2105  -9.2092  -9.2092  -8.8108  -8.8108  -8.8073  -8.8072
    -8.5777  -8.5777  -8.5731  -8.5731  -8.4163  -8.4163  -8.4092  -8.4092
    -8.3699  -8.3699  -8.3639  -8.3639  -8.1347  -8.1347  -8.1336  -8.1336
     2.2310   2.2310   2.2342   2.2342   2.9705   2.9705   2.9824   2.9824
     3.0956   3.0956   3.1045   3.1045   3.2391   3.2391   3.2664   3.2664
     3.3430   3.3430   3.3724   3.3724   3.6150   3.6150   3.6273   3.6273
     3.7418   3.7418   3.7870   3.7870   4.2227   4.2227   4.2523   4.2523
     4.3039   4.3039   4.3615   4.3615   4.4280   4.4280   4.5334   4.5335
     4.6245   4.6245   4.7761   4.7761   5.0353   5.0353   5.0494   5.0494
     7.0104   7.0104   7.0376   7.0376   7.1620   7.1620   7.1648   7.1648
     7.2504   7.2504   7.2934   7.2934   7.3090   7.3090   7.3783   7.3783
     7.4572   7.4572   7.5186   7.5186   7.5852   7.5852   7.6058   7.6058
    11.3794  11.3794  11.4099  11.4099  11.7086  11.7086  11.7756  11.7756
    12.1442  12.1442  12.1887  12.1887  12.2876  12.2876  12.2985  12.2985
    12.4536  12.4536  12.5534  12.5534  12.9343  12.9343  13.0101  13.0101
    16.4488  16.4488  16.4938  16.4938  17.0575  17.0575  17.0676  17.0676
    17.3062  17.3063  17.3539  17.3544  17.3762

     the Fermi energy is     9.0877 ev

!    total energy              =   -6261.10938120 Ry
     Harris-Foulkes estimate   =   -6261.10938120 Ry
     estimated scf accuracy    <          8.5E-11 Ry

     The total energy is the sum of the following terms:

     one-electron contribution =   -4728.88297765 Ry
     hartree contribution      =    2600.74449374 Ry
     xc contribution           =    -965.66928077 Ry
     ewald contribution        =   -3167.30161652 Ry
     smearing contrib. (-TS)   =      -0.00000000 Ry

     convergence has been achieved in  14 iterations

     Forces acting on atoms (cartesian axes, Ry/au):

     atom    1 type  1   force =    -0.00065505    0.00152519    0.00045733
     atom    2 type  1   force =     0.00065505   -0.00152519   -0.00045733
     atom    3 type  1   force =     0.00065505   -0.00152519    0.00045733
     atom    4 type  1   force =    -0.00065505    0.00152519   -0.00045733
     atom    5 type  1   force =     0.00065505    0.00152519   -0.00045733
     atom    6 type  1   force =    -0.00065505   -0.00152519    0.00045733
     atom    7 type  1   force =    -0.00065505   -0.00152519   -0.00045733
     atom    8 type  1   force =     0.00065505    0.00152519    0.00045733
     atom    9 type  2   force =    -0.00009865   -0.00073664    0.00005563
     atom   10 type  2   force =     0.00009865    0.00073664   -0.00005563
     atom   11 type  2   force =     0.00009865    0.00073664    0.00005563
     atom   12 type  2   force =    -0.00009865   -0.00073664   -0.00005563
     atom   13 type  2   force =     0.00009865   -0.00073664   -0.00005563
     atom   14 type  2   force =    -0.00009865    0.00073664    0.00005563
     atom   15 type  2   force =    -0.00009865    0.00073664   -0.00005563
     atom   16 type  2   force =     0.00009865   -0.00073664    0.00005563
     atom   17 type  2   force =    -0.00032230    0.00001397   -0.00028767
     atom   18 type  2   force =     0.00032230   -0.00001397    0.00028767
     atom   19 type  2   force =     0.00032230   -0.00001397   -0.00028767
     atom   20 type  2   force =    -0.00032230    0.00001397    0.00028767
     atom   21 type  2   force =     0.00032230    0.00001397    0.00028767
     atom   22 type  2   force =    -0.00032230   -0.00001397   -0.00028767
     atom   23 type  2   force =    -0.00032230   -0.00001397    0.00028767
     atom   24 type  2   force =     0.00032230    0.00001397   -0.00028767
     atom   25 type  2   force =    -0.00031525   -0.00023745    0.00028362
     atom   26 type  2   force =     0.00031525    0.00023745   -0.00028362
     atom   27 type  2   force =     0.00031525    0.00023745    0.00028362
     atom   28 type  2   force =    -0.00031525   -0.00023745   -0.00028362
     atom   29 type  2   force =     0.00031525   -0.00023745   -0.00028362
     atom   30 type  2   force =    -0.00031525    0.00023745    0.00028362
     atom   31 type  2   force =    -0.00031525    0.00023745   -0.00028362
     atom   32 type  2   force =     0.00031525   -0.00023745    0.00028362

     Total force =     0.000000     Total SCF correction =     0.000000


     Computing stress (Cartesian axis) and pressure

          total   stress  (Ry/bohr**3)                   (kbar)     P=    0.03
   0.00000035   0.00000000   0.00000000          0.05      0.00      0.00
   0.00000000  -0.00000009   0.00000000          0.00     -0.01      0.00
   0.00000000   0.00000000   0.00000038          0.00      0.00      0.06


     Writing output data file Landau_3.save
 
     init_run     :    114.23s CPU    117.12s WALL (       2 calls)
     electrons    :  11894.92s CPU  12123.85s WALL (       6 calls)
     update_pot   :    115.56s CPU    115.72s WALL (       4 calls)
     forces       :    211.67s CPU    214.32s WALL (       6 calls)
     stress       :   1853.06s CPU   1872.75s WALL (       6 calls)

     Called by init_run:
     wfcinit      :     89.26s CPU     91.87s WALL (       2 calls)
     potinit      :     11.02s CPU     11.09s WALL (       2 calls)

     Called by electrons:
     c_bands      :  10400.33s CPU  10618.07s WALL (      79 calls)
     sum_band     :   1431.01s CPU   1437.31s WALL (      79 calls)
     v_of_rho     :     12.19s CPU     12.36s WALL (      83 calls)
     mix_rho      :     28.73s CPU     32.49s WALL (      79 calls)

     Called by c_bands:
     init_us_2    :    138.40s CPU    141.92s WALL (     344 calls)
     cegterg      :   8786.73s CPU   8994.51s WALL (     158 calls)

     Called by sum_band:

     Called by *egterg:
     h_psi        :   6839.49s CPU   6864.81s WALL (     594 calls)
     g_psi        :     26.85s CPU     26.89s WALL (     432 calls)
     cdiaghg      :     83.60s CPU     83.78s WALL (     578 calls)

     Called by h_psi:
     h_psi:pot    :   6790.32s CPU   6814.87s WALL (     594 calls)
     h_psi:calbec :    774.33s CPU    792.55s WALL (     594 calls)
     vloc_psi     :   5208.25s CPU   5212.71s WALL (     594 calls)
     add_vuspsi   :    807.73s CPU    809.61s WALL (     594 calls)

     General routines
     calbec       :    895.20s CPU    913.61s WALL (     654 calls)
     fft          :      8.65s CPU      8.67s WALL (     382 calls)
     fftw         :   5007.85s CPU   5010.51s WALL (  201338 calls)
 
     Parallel routines
 
     PWSCF        :     3h56m CPU        4h 0m WALL

 
   This run was terminated on:  23:24: 5  12Mar2020            

=------------------------------------------------------------------------------=
   JOB DONE.
=------------------------------------------------------------------------------=
