
     Program PWSCF v.6.4.1 starts on 20Nov2019 at 13: 2:16 

     This program is part of the open-source Quantum ESPRESSO suite
     for quantum simulation of materials; please cite
         "P. Giannozzi et al., J. Phys.:Condens. Matter 21 395502 (2009);
         "P. Giannozzi et al., J. Phys.:Condens. Matter 29 465901 (2017);
          URL http://www.quantum-espresso.org", 
     in publications or presentations arising from this work. More details at
     http://www.quantum-espresso.org/quote

     Parallel version (MPI), running on    40 processors

     MPI processes distributed on     3 nodes
     K-points division:     npool     =      40
     Reading input from scf.in

     Current dimensions of program PWSCF are:
     Max number of different atomic species (ntypx) = 10
     Max number of k-points (npk) =  40000
     Max angular momentum in pseudopotentials (lmaxx) =  3

     Subspace diagonalization in iterative solution of the eigenvalue problem:
     a serial algorithm will be used

     Message from routine setup:
     using ibrav=0 with symmetry is DISCOURAGED, use correct ibrav instead
 
     G-vector sticks info
     --------------------
     sticks:   dense  smooth     PW     G-vecs:    dense   smooth      PW
     Sum        3761    3761   1033               253237   253237   36101
 


     bravais-lattice index     =            0
     lattice parameter (alat)  =       9.9177  a.u.
     unit-cell volume          =    1425.4603 (a.u.)^3
     number of atoms/cell      =           16
     number of atomic types    =            2
     number of electrons       =       184.50
     number of Kohn-Sham states=          111
     kinetic-energy cutoff     =     120.0000  Ry
     charge density cutoff     =     480.0000  Ry
     convergence threshold     =      1.0E-08
     mixing beta               =       0.7000
     number of iterations used =            8  plain     mixing
     Exchange-correlation      = SLA PW NOGX NOGC ( 1  4  0  0 0 0)

     celldm(1)=   9.917729  celldm(2)=   0.000000  celldm(3)=   0.000000
     celldm(4)=   0.000000  celldm(5)=   0.000000  celldm(6)=   0.000000

     crystal axes: (cart. coord. in units of alat)
               a(1) = (   1.000000   0.000000   0.000000 )  
               a(2) = (   0.000000   1.000000   0.000000 )  
               a(3) = (   0.000000   0.000000   1.461229 )  

     reciprocal axes: (cart. coord. in units 2 pi/alat)
               b(1) = (  1.000000  0.000000  0.000000 )  
               b(2) = (  0.000000  1.000000  0.000000 )  
               b(3) = (  0.000000  0.000000  0.684355 )  


     PseudoPot. # 1 for W  read from file:
     /cluster/scratch/mnoe/QE/pps/W_ONCV_LDA-4.0.upf
     MD5 check sum: ba0307d5d4cd419d6f1d13dc49d7c13a
     Pseudo is Norm-conserving + core correction, Zval = 28.0
     Generated using ONCVPSP code by D. R. Hamann
     Using radial grid of 1380 points,  8 beta functions with: 
                l(1) =   0
                l(2) =   0
                l(3) =   1
                l(4) =   1
                l(5) =   2
                l(6) =   2
                l(7) =   3
                l(8) =   3

     PseudoPot. # 2 for O  read from file:
     /cluster/scratch/mnoe/QE/pps/O_ONCV_LDA-3.0.upf
     MD5 check sum: b55cdb4f45ae2203d24ad12cf8d61a31
     Pseudo is Norm-conserving + core correction, Zval =  6.0
     Generated using ONCVPSP code by D. R. Hamann
     Using radial grid of  926 points,  5 beta functions with: 
                l(1) =   0
                l(2) =   0
                l(3) =   1
                l(4) =   1
                l(5) =   2

     atomic species   valence    mass     pseudopotential
        W             28.00   183.84000     W ( 1.00)
        O              6.00    15.99940     O ( 1.00)

     16 Sym. Ops., with inversion, found (14 have fractional translation)



   Cartesian axes

     site n.     atom                  positions (alat units)
         1           W   tau(   1) = (   0.2500000   0.2500000   0.3092978  )
         2           W   tau(   2) = (   0.7500000   0.7500000   1.1519316  )
         3           W   tau(   3) = (   0.7500000   0.7500000   0.4213169  )
         4           W   tau(   4) = (   0.2500000   0.2500000   1.0399124  )
         5           O   tau(   5) = (   0.2500000   0.2500000   0.7006056  )
         6           O   tau(   6) = (   0.7500000   0.7500000   0.7606237  )
         7           O   tau(   7) = (   0.7500000   0.7500000   0.0300091  )
         8           O   tau(   8) = (   0.2500000   0.2500000   1.4312203  )
         9           O   tau(   9) = (   0.4827628   0.5172371   0.3653073  )
        10           O   tau(  10) = (   0.5172372   0.4827629   1.0959220  )
        11           O   tau(  11) = (   0.0172372   0.9827629   0.3653073  )
        12           O   tau(  12) = (   0.9827628   0.0172372   1.0959220  )
        13           O   tau(  13) = (   0.9827629   0.4827628   0.3653073  )
        14           O   tau(  14) = (   0.0172372   0.5172372   1.0959220  )
        15           O   tau(  15) = (   0.5172371   0.0172372   0.3653073  )
        16           O   tau(  16) = (   0.4827629   0.9827628   1.0959220  )

     number of k points=    40  gaussian smearing, width (Ry)=  0.0007
                       cart. coord. in units 2pi/alat
        k(    1) = (   0.0000000   0.0000000   0.0000000), wk =   0.0092593
        k(    2) = (   0.0000000   0.0000000   0.1140592), wk =   0.0185185
        k(    3) = (   0.0000000   0.0000000   0.2281184), wk =   0.0185185
        k(    4) = (   0.0000000   0.0000000  -0.3421776), wk =   0.0092593
        k(    5) = (   0.0000000   0.1666667   0.0000000), wk =   0.0370370
        k(    6) = (   0.0000000   0.1666667   0.1140592), wk =   0.0740741
        k(    7) = (   0.0000000   0.1666667   0.2281184), wk =   0.0740741
        k(    8) = (   0.0000000   0.1666667  -0.3421776), wk =   0.0370370
        k(    9) = (   0.0000000   0.3333333   0.0000000), wk =   0.0370370
        k(   10) = (   0.0000000   0.3333333   0.1140592), wk =   0.0740741
        k(   11) = (   0.0000000   0.3333333   0.2281184), wk =   0.0740741
        k(   12) = (   0.0000000   0.3333333  -0.3421776), wk =   0.0370370
        k(   13) = (   0.0000000  -0.5000000   0.0000000), wk =   0.0185185
        k(   14) = (   0.0000000  -0.5000000   0.1140592), wk =   0.0370370
        k(   15) = (   0.0000000  -0.5000000   0.2281184), wk =   0.0370370
        k(   16) = (   0.0000000  -0.5000000  -0.3421776), wk =   0.0185185
        k(   17) = (   0.1666667   0.1666667   0.0000000), wk =   0.0370370
        k(   18) = (   0.1666667   0.1666667   0.1140592), wk =   0.0740741
        k(   19) = (   0.1666667   0.1666667   0.2281184), wk =   0.0740741
        k(   20) = (   0.1666667   0.1666667  -0.3421776), wk =   0.0370370
        k(   21) = (   0.1666667   0.3333333   0.0000000), wk =   0.0740741
        k(   22) = (   0.1666667   0.3333333   0.1140592), wk =   0.1481481
        k(   23) = (   0.1666667   0.3333333   0.2281184), wk =   0.1481481
        k(   24) = (   0.1666667   0.3333333  -0.3421776), wk =   0.0740741
        k(   25) = (   0.1666667  -0.5000000   0.0000000), wk =   0.0370370
        k(   26) = (   0.1666667  -0.5000000   0.1140592), wk =   0.0740741
        k(   27) = (   0.1666667  -0.5000000   0.2281184), wk =   0.0740741
        k(   28) = (   0.1666667  -0.5000000  -0.3421776), wk =   0.0370370
        k(   29) = (   0.3333333   0.3333333   0.0000000), wk =   0.0370370
        k(   30) = (   0.3333333   0.3333333   0.1140592), wk =   0.0740741
        k(   31) = (   0.3333333   0.3333333   0.2281184), wk =   0.0740741
        k(   32) = (   0.3333333   0.3333333  -0.3421776), wk =   0.0370370
        k(   33) = (   0.3333333  -0.5000000   0.0000000), wk =   0.0370370
        k(   34) = (   0.3333333  -0.5000000   0.1140592), wk =   0.0740741
        k(   35) = (   0.3333333  -0.5000000   0.2281184), wk =   0.0740741
        k(   36) = (   0.3333333  -0.5000000  -0.3421776), wk =   0.0370370
        k(   37) = (  -0.5000000  -0.5000000   0.0000000), wk =   0.0092593
        k(   38) = (  -0.5000000  -0.5000000   0.1140592), wk =   0.0185185
        k(   39) = (  -0.5000000  -0.5000000   0.2281184), wk =   0.0185185
        k(   40) = (  -0.5000000  -0.5000000  -0.3421776), wk =   0.0092593

     Dense  grid:   253237 G-vectors     FFT dimensions: (  72,  72, 108)

     Estimated max dynamical RAM per process >     793.76 MB

     Estimated total dynamical RAM >      31.01 GB

     Initial potential from superposition of free atoms

     starting charge  183.99828, renormalised to  184.50000
     Starting wfcs are  116 randomized atomic wfcs

     total cpu time spent up to now is        6.5 secs

     Self-consistent Calculation

     iteration #  1     ecut=   120.00 Ry     beta= 0.70
     Davidson diagonalization with overlap
     ethr =  1.00E-02,  avg # of iterations =  4.7

     total cpu time spent up to now is       24.6 secs

     total energy              =   -3126.47218870 Ry
     Harris-Foulkes estimate   =   -3132.05025515 Ry
     estimated scf accuracy    <       7.00005052 Ry

     iteration #  2     ecut=   120.00 Ry     beta= 0.70
     Davidson diagonalization with overlap
     ethr =  3.79E-03,  avg # of iterations =  3.3

     total cpu time spent up to now is       42.3 secs

     total energy              =   -3124.98529381 Ry
     Harris-Foulkes estimate   =   -3135.08275204 Ry
     estimated scf accuracy    <      26.72387368 Ry

     iteration #  3     ecut=   120.00 Ry     beta= 0.70
     Davidson diagonalization with overlap
     ethr =  3.79E-03,  avg # of iterations =  3.2

     total cpu time spent up to now is       58.6 secs

     total energy              =   -3130.18662780 Ry
     Harris-Foulkes estimate   =   -3130.31641570 Ry
     estimated scf accuracy    <       0.44995616 Ry

     iteration #  4     ecut=   120.00 Ry     beta= 0.70
     Davidson diagonalization with overlap
     ethr =  2.44E-04,  avg # of iterations =  2.9

     total cpu time spent up to now is       72.9 secs

     total energy              =   -3130.16990851 Ry
     Harris-Foulkes estimate   =   -3130.21491459 Ry
     estimated scf accuracy    <       0.11799574 Ry

     iteration #  5     ecut=   120.00 Ry     beta= 0.70
     Davidson diagonalization with overlap
     ethr =  6.40E-05,  avg # of iterations =  3.8

     total cpu time spent up to now is       87.8 secs

     total energy              =   -3130.18123553 Ry
     Harris-Foulkes estimate   =   -3130.19242926 Ry
     estimated scf accuracy    <       0.02744723 Ry

     iteration #  6     ecut=   120.00 Ry     beta= 0.70
     Davidson diagonalization with overlap
     ethr =  1.49E-05,  avg # of iterations =  3.7

     total cpu time spent up to now is      103.5 secs

     total energy              =   -3130.18604199 Ry
     Harris-Foulkes estimate   =   -3130.18791902 Ry
     estimated scf accuracy    <       0.00448823 Ry

     iteration #  7     ecut=   120.00 Ry     beta= 0.70
     Davidson diagonalization with overlap
     ethr =  2.43E-06,  avg # of iterations =  4.2

     total cpu time spent up to now is      118.1 secs

     total energy              =   -3130.18681806 Ry
     Harris-Foulkes estimate   =   -3130.18682416 Ry
     estimated scf accuracy    <       0.00001246 Ry

     iteration #  8     ecut=   120.00 Ry     beta= 0.70
     Davidson diagonalization with overlap
     ethr =  6.75E-09,  avg # of iterations =  4.0

     total cpu time spent up to now is      139.0 secs

     total energy              =   -3130.18683154 Ry
     Harris-Foulkes estimate   =   -3130.18683623 Ry
     estimated scf accuracy    <       0.00002650 Ry

     iteration #  9     ecut=   120.00 Ry     beta= 0.70
     Davidson diagonalization with overlap
     ethr =  6.75E-09,  avg # of iterations =  2.2

     total cpu time spent up to now is      152.8 secs

     total energy              =   -3130.18682768 Ry
     Harris-Foulkes estimate   =   -3130.18683256 Ry
     estimated scf accuracy    <       0.00001359 Ry

     iteration # 10     ecut=   120.00 Ry     beta= 0.70
     Davidson diagonalization with overlap
     ethr =  6.75E-09,  avg # of iterations =  2.0

     total cpu time spent up to now is      166.2 secs

     total energy              =   -3130.18682936 Ry
     Harris-Foulkes estimate   =   -3130.18682962 Ry
     estimated scf accuracy    <       0.00000057 Ry

     iteration # 11     ecut=   120.00 Ry     beta= 0.70
     Davidson diagonalization with overlap
     ethr =  3.08E-10,  avg # of iterations =  2.6

     total cpu time spent up to now is      181.4 secs

     total energy              =   -3130.18682945 Ry
     Harris-Foulkes estimate   =   -3130.18682948 Ry
     estimated scf accuracy    <       0.00000003 Ry

     iteration # 12     ecut=   120.00 Ry     beta= 0.70
     Davidson diagonalization with overlap
     ethr =  1.89E-11,  avg # of iterations =  2.0

     total cpu time spent up to now is      197.2 secs

     End of self-consistent calculation

          k = 0.0000 0.0000 0.0000 ( 31679 PWs)   bands (ev):

   -66.2248 -66.2243 -66.2234 -66.2230 -30.6510 -30.6463 -30.5815 -30.5780
   -30.5563 -30.5563 -30.5523 -30.5523 -30.4740 -30.4740 -30.4707 -30.4707
   -20.3757 -20.3757 -20.3694 -20.3693 -20.3693 -20.3692 -20.3692 -20.3692
   -20.3640 -20.3640 -20.3627 -20.3627 -20.3611 -20.3611 -20.3597 -20.3597
   -20.3584 -20.3583 -20.3582 -20.3582 -20.3251 -20.3251 -20.3251 -20.3251
   -20.3224 -20.3224 -20.3224 -20.3224 -10.1544  -9.7696  -9.3901  -9.1352
    -9.1127  -9.0518  -8.0162  -7.8970  -7.8500  -7.8500  -7.8254  -7.8254
     1.0125   1.0125   1.0578   1.2681   1.3545   1.4685   2.3751   2.3751
     2.3760   2.4847   3.9782   3.9782   4.6483   4.6483   4.8639   5.4636
     5.4636   5.4953   5.4953   5.6680   5.6680   5.7977   5.8369   6.4923
     6.4923   6.7079   6.9795   7.0021   7.0874   7.0874   7.1025   7.1025
     8.0917   8.0917   8.2002   8.2057   8.9275   8.9320   9.5464   9.5464
    12.3268  12.3268  13.2381  13.2381  13.4790  13.5360  13.5435  14.1062
    14.1062  14.4283  14.4305  14.4826  15.4718  16.4093  16.9994

          k = 0.0000 0.0000 0.1141 ( 31691 PWs)   bands (ev):

   -66.2248 -66.2243 -66.2234 -66.2230 -30.6464 -30.6418 -30.5862 -30.5827
   -30.5560 -30.5560 -30.5526 -30.5526 -30.4737 -30.4737 -30.4710 -30.4710
   -20.3753 -20.3753 -20.3698 -20.3697 -20.3693 -20.3692 -20.3692 -20.3692
   -20.3640 -20.3640 -20.3628 -20.3628 -20.3610 -20.3610 -20.3598 -20.3598
   -20.3584 -20.3583 -20.3582 -20.3582 -20.3251 -20.3251 -20.3251 -20.3251
   -20.3224 -20.3224 -20.3224 -20.3224 -10.1153  -9.7844  -9.3097  -9.1337
    -9.1142  -9.0088  -8.1234  -8.0154  -7.8484  -7.8484  -7.8271  -7.8271
     1.0125   1.0125   1.2264   1.3539   1.4448   1.6404   2.3831   2.4464
     2.4464   2.4772   3.7948   3.7948   4.6185   4.6902   4.6902   5.3634
     5.3634   5.4607   5.4919   5.4919   5.8407   5.8426   5.8426   6.5067
     6.5067   6.7255   6.8112   6.9607   7.0872   7.0872   7.1001   7.1001
     8.0115   8.0115   8.2007   8.2058   8.9280   8.9319   9.7769   9.7769
    12.1613  12.1613  13.2662  13.2662  13.5365  13.5430  13.7559  14.0110
    14.0110  14.4287  14.4306  14.7109  15.8861  16.0666  16.8435

          k = 0.0000 0.0000 0.2281 ( 31654 PWs)   bands (ev):

   -66.2247 -66.2244 -66.2233 -66.2231 -30.6338 -30.6294 -30.5991 -30.5952
   -30.5553 -30.5553 -30.5533 -30.5533 -30.4731 -30.4731 -30.4715 -30.4715
   -20.3742 -20.3741 -20.3710 -20.3709 -20.3693 -20.3692 -20.3692 -20.3692
   -20.3637 -20.3637 -20.3630 -20.3630 -20.3608 -20.3608 -20.3601 -20.3601
   -20.3584 -20.3583 -20.3582 -20.3582 -20.3251 -20.3251 -20.3251 -20.3251
   -20.3224 -20.3224 -20.3224 -20.3224 -10.0188  -9.8309  -9.1296  -9.1184
    -9.0817  -8.8713  -8.3977  -8.3077  -7.8439  -7.8439  -7.8316  -7.8316
     1.0126   1.0126   1.3293   1.3517   2.0498   2.3469   2.4026   2.4569
     2.6552   2.6552   3.3957   3.3957   3.9208   4.5227   4.8415   4.8415
     5.2444   5.2444   5.5216   5.5216   5.7674   5.7674   5.9675   6.4642
     6.7741   6.8455   6.8455   6.9099   7.0873   7.0873   7.0997   7.0997
     7.7592   7.7592   8.2019   8.2051   8.9292   8.9315  10.3475  10.3475
    11.7000  11.7000  13.3636  13.3636  13.5379  13.5417  13.7850  13.7850
    14.2880  14.4295  14.4306  15.4032  15.4701  16.8825  16.9228

          k = 0.0000 0.0000-0.3422 ( 31746 PWs)   bands (ev):

   -66.2246 -66.2246 -66.2232 -66.2232 -30.6165 -30.6165 -30.6123 -30.6123
   -30.5543 -30.5543 -30.5543 -30.5543 -30.4723 -30.4723 -30.4723 -30.4723
   -20.3726 -20.3726 -20.3725 -20.3725 -20.3692 -20.3692 -20.3692 -20.3692
   -20.3634 -20.3634 -20.3634 -20.3634 -20.3604 -20.3604 -20.3604 -20.3604
   -20.3584 -20.3584 -20.3582 -20.3582 -20.3251 -20.3251 -20.3251 -20.3251
   -20.3224 -20.3224 -20.3224 -20.3224  -9.9120  -9.9120  -9.1240  -9.1240
    -8.7497  -8.7497  -8.6290  -8.6289  -7.8378  -7.8378  -7.8378  -7.8378
     1.0126   1.0126   1.3462   1.3462   2.4296   2.4296   2.9700   2.9700
     2.9846   2.9846   2.9846   2.9846   3.3868   3.3868   5.0613   5.0613
     5.0613   5.0613   5.6007   5.6007   5.6007   5.6007   6.1747   6.1747
     6.8414   6.8414   7.0856   7.0856   7.0856   7.0856   7.3510   7.3510
     7.3510   7.3510   8.2035   8.2035   8.9306   8.9306  11.0470  11.0470
    11.0470  11.0470  13.5398  13.5398  13.5432  13.5432  13.5432  13.5432
    14.4302  14.4302  14.8586  14.8586  16.2608  16.2608  17.4050

          k = 0.0000 0.1667 0.0000 ( 31665 PWs)   bands (ev):

   -66.2247 -66.2242 -66.2235 -66.2230 -30.6510 -30.6468 -30.5821 -30.5785
   -30.5508 -30.5501 -30.5469 -30.5467 -30.4795 -30.4794 -30.4762 -30.4762
   -20.3758 -20.3757 -20.3694 -20.3693 -20.3693 -20.3693 -20.3692 -20.3692
   -20.3639 -20.3638 -20.3626 -20.3625 -20.3615 -20.3613 -20.3602 -20.3599
   -20.3583 -20.3582 -20.3580 -20.3580 -20.3250 -20.3249 -20.3249 -20.3249
   -20.3226 -20.3226 -20.3226 -20.3226 -10.0720  -9.6643  -9.4091  -9.0644
    -9.0419  -9.0257  -8.0525  -7.9967  -7.9572  -7.9457  -7.9329  -7.9036
     1.0931   1.2509   1.2673   1.2694   1.6238   1.7052   2.4456   2.4514
     2.5541   2.6551   3.9254   3.9622   4.3295   4.4159   4.8496   5.1606
     5.2029   5.3094   5.3950   5.6713   5.6820   5.8592   6.1892   6.3468
     6.3507   6.4228   6.4398   6.6965   6.8320   6.9260   7.0146   7.0544
     8.0179   8.0617   8.0860   8.0899   9.5661   9.5884   9.8470   9.9408
    12.3796  12.4124  12.9792  12.9811  13.4289  13.4774  13.7696  13.9254
    13.9510  14.6846  14.8197  14.8277  15.4031  16.7350  16.9485

          k = 0.0000 0.1667 0.1141 ( 31649 PWs)   bands (ev):

   -66.2247 -66.2243 -66.2235 -66.2231 -30.6464 -30.6423 -30.5867 -30.5831
   -30.5505 -30.5499 -30.5471 -30.5470 -30.4793 -30.4791 -30.4765 -30.4764
   -20.3754 -20.3753 -20.3699 -20.3697 -20.3693 -20.3693 -20.3692 -20.3692
   -20.3639 -20.3637 -20.3627 -20.3626 -20.3614 -20.3612 -20.3603 -20.3600
   -20.3583 -20.3582 -20.3580 -20.3580 -20.3250 -20.3249 -20.3249 -20.3249
   -20.3226 -20.3226 -20.3226 -20.3226 -10.0299  -9.6793  -9.3288  -9.0629
    -9.0434  -8.9858  -8.1418  -8.0335  -7.9949  -7.9556  -7.9535  -7.9345
     1.2674   1.2693   1.3192   1.4715   1.6228   1.7711   2.5139   2.5186
     2.5686   2.6490   3.7728   3.8149   4.3679   4.4580   4.6006   5.1541
     5.1567   5.2234   5.2534   5.4698   5.7607   5.8181   6.2188   6.3712
     6.3960   6.4079   6.4327   6.7517   6.8065   6.9339   7.0139   7.0615
     7.9442   7.9790   8.0827   8.0929   9.5712   9.5846  10.0327  10.1151
    12.2207  12.2568  13.0063  13.0133  13.4218  13.4789  13.8256  13.8620
    14.0567  14.8198  14.8251  14.8892  15.8173  16.3466  17.0037

          k = 0.0000 0.1667 0.2281 ( 31643 PWs)   bands (ev):

   -66.2246 -66.2243 -66.2234 -66.2232 -30.6338 -30.6298 -30.5993 -30.5957
   -30.5498 -30.5494 -30.5479 -30.5476 -30.4787 -30.4786 -30.4771 -30.4770
   -20.3742 -20.3742 -20.3711 -20.3709 -20.3693 -20.3692 -20.3692 -20.3692
   -20.3636 -20.3634 -20.3629 -20.3628 -20.3612 -20.3609 -20.3605 -20.3602
   -20.3583 -20.3582 -20.3580 -20.3580 -20.3250 -20.3249 -20.3249 -20.3249
   -20.3226 -20.3226 -20.3226 -20.3226  -9.9260  -9.7269  -9.1011  -9.0588
    -9.0475  -8.8562  -8.4122  -8.3140  -7.9897  -7.9724  -7.9512  -7.9390
     1.2678   1.2689   1.5763   1.6192   2.0550   2.3150   2.5702   2.6260
     2.7361   2.7547   3.4042   3.4503   3.9127   4.5225   4.5366   4.6199
     5.0210   5.0638   5.2172   5.2479   5.5272   5.5543   6.3084   6.3991
     6.4271   6.5964   6.7926   6.8145   6.9076   6.9481   7.0242   7.0863
     7.7060   7.7377   8.0844   8.0914   9.5767   9.5816  10.5197  10.5863
    11.7755  11.8193  13.0997  13.1191  13.3857  13.4768  13.5983  13.6668
    14.6018  14.8200  14.8218  15.5571  15.7525  16.8476  17.0509

          k = 0.0000 0.1667-0.3422 ( 31644 PWs)   bands (ev):

   -66.2245 -66.2245 -66.2233 -66.2233 -30.6166 -30.6166 -30.6128 -30.6128
   -30.5488 -30.5488 -30.5485 -30.5485 -30.4779 -30.4779 -30.4778 -30.4778
   -20.3727 -20.3727 -20.3726 -20.3726 -20.3692 -20.3692 -20.3692 -20.3692
   -20.3633 -20.3633 -20.3631 -20.3631 -20.3608 -20.3608 -20.3606 -20.3606
   -20.3582 -20.3582 -20.3580 -20.3580 -20.3250 -20.3249 -20.3249 -20.3249
   -20.3226 -20.3226 -20.3226 -20.3226  -9.8118  -9.8118  -9.0532  -9.0532
    -8.7685  -8.7685  -8.6234  -8.6233  -7.9822  -7.9822  -7.9451  -7.9451
     1.2683   1.2684   1.6100   1.6100   2.5971   2.5971   2.9649   2.9649
     2.9897   2.9898   3.0557   3.0557   3.4297   3.4297   4.7958   4.7959
     4.8604   4.8604   5.3006   5.3006   5.3251   5.3251   6.3955   6.3955
     6.4672   6.4672   6.9433   6.9433   7.0193   7.0193   7.3128   7.3128
     7.3532   7.3532   8.0881   8.0881   9.5796   9.5797  11.1564  11.1564
    11.2105  11.2105  13.2494  13.2494  13.3193  13.3194  13.5410  13.5410
    14.8202  14.8202  15.1589  15.1589  16.4245  16.4245  17.4558

          k = 0.0000 0.3333 0.0000 ( 31672 PWs)   bands (ev):

   -66.2245 -66.2240 -66.2238 -66.2233 -30.6506 -30.6480 -30.5823 -30.5798
   -30.5358 -30.5345 -30.5320 -30.5316 -30.4947 -30.4941 -30.4913 -30.4910
   -20.3758 -20.3758 -20.3695 -20.3694 -20.3693 -20.3693 -20.3692 -20.3692
   -20.3636 -20.3631 -20.3624 -20.3623 -20.3618 -20.3617 -20.3610 -20.3603
   -20.3579 -20.3579 -20.3578 -20.3577 -20.3245 -20.3245 -20.3245 -20.3245
   -20.3232 -20.3232 -20.3231 -20.3231  -9.8599  -9.4767  -9.3641  -8.9294
    -8.8626  -8.8399  -8.4230  -8.3470  -8.2296  -8.2058  -7.9680  -7.9216
     1.1329   1.2116   1.9483   1.9698   2.3010   2.3311   2.6324   2.6698
     3.0852   3.1811   3.6669   3.6871   3.8714   3.9561   4.4062   4.4423
     4.8210   4.8959   5.2080   5.2660   5.2806   5.6549   5.7471   5.9008
     6.1091   6.1855   6.2080   6.5173   6.8413   7.0868   7.1605   7.3372
     7.7679   7.7823   7.8310   7.9430  10.5637  10.6049  10.6883  10.8070
    12.2855  12.3256  12.6614  12.7363  12.7865  12.8233  13.4845  13.5749
    14.3323  15.1926  15.3057  16.0674  16.0760  17.2279  17.2839

          k = 0.0000 0.3333 0.1141 ( 31623 PWs)   bands (ev):

   -66.2244 -66.2240 -66.2237 -66.2233 -30.6460 -30.6435 -30.5868 -30.5844
   -30.5356 -30.5344 -30.5323 -30.5319 -30.4944 -30.4939 -30.4915 -30.4912
   -20.3754 -20.3754 -20.3700 -20.3699 -20.3693 -20.3693 -20.3692 -20.3692
   -20.3635 -20.3630 -20.3625 -20.3623 -20.3618 -20.3616 -20.3611 -20.3604
   -20.3579 -20.3579 -20.3578 -20.3577 -20.3245 -20.3245 -20.3245 -20.3245
   -20.3232 -20.3232 -20.3231 -20.3231  -9.8074  -9.3985  -9.3797  -8.8999
    -8.8611  -8.8414  -8.4472  -8.3431  -8.2280  -8.2074  -8.0676  -8.0240
     1.3809   1.4585   1.9499   1.9686   2.2990   2.3414   2.7083   2.7325
     3.0902   3.1753   3.6053   3.6555   3.9039   4.0013   4.4171   4.4545
     4.5559   4.7175   4.9360   5.2482   5.2626   5.4449   5.5017   5.7147
     6.2681   6.3255   6.5362   6.5869   6.8497   7.0791   7.1703   7.3285
     7.7382   7.7707   7.8012   7.8888  10.6302  10.6322  10.7316  10.8920
    12.3194  12.3195  12.5547  12.5994  12.7866  12.8246  13.3715  13.4674
    14.6839  15.4332  15.6074  16.0680  16.0752  16.9169  17.2996

          k = 0.0000 0.3333 0.2281 ( 31620 PWs)   bands (ev):

   -66.2243 -66.2241 -66.2236 -66.2234 -30.6335 -30.6311 -30.5993 -30.5969
   -30.5349 -30.5340 -30.5330 -30.5325 -30.4938 -30.4934 -30.4921 -30.4918
   -20.3743 -20.3742 -20.3711 -20.3711 -20.3693 -20.3693 -20.3692 -20.3692
   -20.3633 -20.3628 -20.3627 -20.3622 -20.3619 -20.3614 -20.3613 -20.3607
   -20.3579 -20.3579 -20.3578 -20.3577 -20.3245 -20.3245 -20.3245 -20.3245
   -20.3232 -20.3232 -20.3231 -20.3231  -9.6758  -9.4317  -9.1783  -8.8570
    -8.8455  -8.7984  -8.5735  -8.3302  -8.3168  -8.2237  -8.2135  -8.2118
     1.9542   1.9650   2.0246   2.0734   2.2901   2.4385   2.9113   2.9439
     3.1011   3.1599   3.3815   3.4759   3.8960   4.0770   4.1589   4.3302
     4.4720   4.4984   4.6323   4.7403   4.9940   5.1448   5.2639   5.2689
     6.7211   6.7440   6.7990   6.8670   6.8728   7.0562   7.2121   7.2921
     7.5620   7.6491   7.7916   7.8114  10.6561  10.6595  11.0263  11.1912
    12.0209  12.1523  12.5055  12.5658  12.7849  12.8312  13.1065  13.2100
    15.3612  15.9600  16.0702  16.0730  16.4107  16.6081  17.2966

          k = 0.0000 0.3333-0.3422 ( 31604 PWs)   bands (ev):

   -66.2242 -66.2242 -66.2235 -66.2235 -30.6164 -30.6164 -30.6140 -30.6140
   -30.5339 -30.5339 -30.5333 -30.5333 -30.4930 -30.4930 -30.4926 -30.4926
   -20.3727 -20.3727 -20.3727 -20.3727 -20.3693 -20.3692 -20.3692 -20.3692
   -20.3630 -20.3630 -20.3625 -20.3625 -20.3616 -20.3616 -20.3610 -20.3610
   -20.3579 -20.3579 -20.3577 -20.3577 -20.3245 -20.3245 -20.3245 -20.3245
   -20.3232 -20.3232 -20.3231 -20.3231  -9.5321  -9.5321  -8.8670  -8.8670
    -8.8494  -8.8494  -8.5979  -8.5979  -8.3005  -8.3004  -8.2177  -8.2177
     1.9598   1.9598   2.2611   2.2611   2.9146   2.9146   3.0086   3.0086
     3.1410   3.1410   3.2083   3.2083   3.4937   3.4937   4.3422   4.3422
     4.3990   4.3990   4.6265   4.6265   4.7105   4.7105   5.2580   5.2580
     6.8272   6.8272   6.9976   6.9976   7.1721   7.1721   7.2404   7.2404
     7.3676   7.3676   7.7960   7.7960  10.6622  10.6622  11.5062  11.5062
    11.6587  11.6587  12.6539  12.6539  12.7961  12.7961  12.9755  12.9755
    15.8919  15.8919  16.0731  16.0731  16.8338  16.8338  17.3809

          k = 0.0000-0.5000 0.0000 ( 31638 PWs)   bands (ev):

   -66.2241 -66.2241 -66.2236 -66.2236 -30.6495 -30.6495 -30.5813 -30.5813
   -30.5153 -30.5153 -30.5142 -30.5142 -30.5117 -30.5117 -30.5113 -30.5113
   -20.3758 -20.3758 -20.3695 -20.3695 -20.3693 -20.3693 -20.3692 -20.3692
   -20.3631 -20.3631 -20.3624 -20.3624 -20.3618 -20.3618 -20.3610 -20.3610
   -20.3577 -20.3577 -20.3577 -20.3577 -20.3239 -20.3239 -20.3239 -20.3239
   -20.3238 -20.3238 -20.3238 -20.3238  -9.6260  -9.6260  -8.9194  -8.9194
    -8.7076  -8.7076  -8.5627  -8.5627  -8.5392  -8.5392  -7.9459  -7.9459
     1.1697   1.1697   2.6821   2.6821   2.7801   2.7801   2.9203   2.9203
     3.0999   3.0999   3.6868   3.6868   3.7591   3.7591   3.9999   3.9999
     4.0978   4.0978   4.8321   4.8321   5.3970   5.3970   5.8479   5.8480
     6.0103   6.0103   6.2657   6.2657   7.3899   7.3899   7.3903   7.3904
     7.4647   7.4647   7.7071   7.7071  11.4139  11.4139  11.5616  11.5616
    11.8334  11.8334  11.8436  11.8436  12.9975  12.9975  13.1245  13.1245
    14.8343  14.8343  16.2573  16.2573  17.4139  17.4139  17.6543

          k = 0.0000-0.5000 0.1141 ( 31626 PWs)   bands (ev):

   -66.2241 -66.2241 -66.2237 -66.2237 -30.6449 -30.6449 -30.5859 -30.5859
   -30.5150 -30.5150 -30.5140 -30.5140 -30.5119 -30.5119 -30.5115 -30.5115
   -20.3754 -20.3754 -20.3700 -20.3700 -20.3693 -20.3693 -20.3692 -20.3692
   -20.3630 -20.3630 -20.3623 -20.3623 -20.3619 -20.3619 -20.3611 -20.3611
   -20.3577 -20.3577 -20.3577 -20.3577 -20.3239 -20.3239 -20.3239 -20.3239
   -20.3238 -20.3238 -20.3238 -20.3238  -9.5574  -9.5574  -8.9368  -8.9368
    -8.6943  -8.6942  -8.5612  -8.5611  -8.5407  -8.5407  -8.0494  -8.0494
     1.4193   1.4193   2.7065   2.7065   2.8215   2.8216   2.9113   2.9113
     3.0846   3.0846   3.7340   3.7340   3.7971   3.7972   3.9959   3.9959
     4.0973   4.0973   4.5759   4.5759   5.0525   5.0525   5.5823   5.5823
     6.3536   6.3536   6.4195   6.4195   7.3733   7.3733   7.3801   7.3802
     7.4571   7.4572   7.6744   7.6744  11.4679  11.4679  11.6127  11.6127
    11.8467  11.8467  11.8608  11.8608  12.8629  12.8629  12.9956  12.9956
    15.2288  15.2288  16.3314  16.3314  17.3009  17.3009  17.6643

          k = 0.0000-0.5000 0.2281 ( 31616 PWs)   bands (ev):

   -66.2240 -66.2240 -66.2238 -66.2238 -30.6325 -30.6325 -30.5984 -30.5984
   -30.5144 -30.5144 -30.5136 -30.5136 -30.5126 -30.5126 -30.5121 -30.5121
   -20.3743 -20.3743 -20.3711 -20.3711 -20.3693 -20.3693 -20.3692 -20.3692
   -20.3627 -20.3627 -20.3622 -20.3622 -20.3620 -20.3620 -20.3614 -20.3614
   -20.3577 -20.3577 -20.3577 -20.3577 -20.3239 -20.3239 -20.3239 -20.3239
   -20.3238 -20.3238 -20.3238 -20.3238  -9.3737  -9.3737  -9.0021  -9.0021
    -8.6449  -8.6449  -8.5571  -8.5571  -8.5447  -8.5447  -8.2924  -8.2924
     2.0847   2.0847   2.7658   2.7658   2.8821   2.8821   2.9370   2.9370
     3.0283   3.0283   3.8574   3.8574   3.9047   3.9047   3.9207   3.9207
     4.1094   4.1094   4.1232   4.1232   4.5728   4.5728   4.8823   4.8823
     6.7822   6.7822   6.8199   6.8199   7.2891   7.2892   7.3341   7.3341
     7.4585   7.4585   7.5827   7.5827  11.6068  11.6068  11.7014  11.7014
    11.9133  11.9133  11.9746  11.9746  12.5277  12.5277  12.6684  12.6684
    16.1510  16.1510  16.5706  16.5706  17.0430  17.0430  17.6726

          k = 0.0000-0.5000-0.3422 ( 31648 PWs)   bands (ev):

   -66.2239 -66.2239 -66.2239 -66.2239 -30.6155 -30.6155 -30.6155 -30.6154
   -30.5135 -30.5135 -30.5135 -30.5135 -30.5129 -30.5129 -30.5128 -30.5128
   -20.3727 -20.3727 -20.3727 -20.3727 -20.3693 -20.3692 -20.3692 -20.3692
   -20.3624 -20.3624 -20.3624 -20.3624 -20.3617 -20.3617 -20.3617 -20.3617
   -20.3577 -20.3577 -20.3577 -20.3577 -20.3239 -20.3239 -20.3239 -20.3239
   -20.3238 -20.3238 -20.3238 -20.3238  -9.1527  -9.1527  -9.1527  -9.1527
    -8.5530  -8.5530  -8.5530  -8.5530  -8.5200  -8.5199  -8.5199  -8.5199
     2.8086   2.8086   2.8086   2.8086   2.8484   2.8484   2.8484   2.8484
     3.2191   3.2191   3.2191   3.2192   4.0267   4.0267   4.0267   4.0267
     4.1793   4.1793   4.1793   4.1793   4.3090   4.3090   4.3090   4.3090
     7.0922   7.0922   7.0922   7.0922   7.1715   7.1715   7.1715   7.1715
     7.4926   7.4926   7.4927   7.4927  11.7057  11.7057  11.7057  11.7057
    12.1410  12.1410  12.1410  12.1410  12.2862  12.2862  12.2862  12.2862
    16.7274  16.7274  16.7274  16.7274  17.3746  17.3746  17.3746

          k = 0.1667 0.1667 0.0000 ( 31651 PWs)   bands (ev):

   -66.2246 -66.2241 -66.2236 -66.2231 -30.6508 -30.6472 -30.5819 -30.5789
   -30.5575 -30.5535 -30.5340 -30.5307 -30.4955 -30.4922 -30.4729 -30.4697
   -20.3758 -20.3757 -20.3695 -20.3694 -20.3693 -20.3692 -20.3692 -20.3692
   -20.3641 -20.3634 -20.3627 -20.3621 -20.3620 -20.3611 -20.3607 -20.3597
   -20.3582 -20.3581 -20.3580 -20.3579 -20.3255 -20.3255 -20.3241 -20.3241
   -20.3236 -20.3236 -20.3220 -20.3220 -10.0167  -9.6059  -9.4312  -9.0719
    -8.9379  -8.9087  -8.3067  -8.2771  -7.9869  -7.9092  -7.8658  -7.8405
     1.0561   1.1426   1.2253   1.2408   2.1993   2.2178   2.3595   2.6451
     2.7310   2.8170   3.7268   3.7645   4.0761   4.4799   4.6341   4.8345
     5.1256   5.3319   5.3957   5.6286   5.7338   5.8712   6.0507   6.1558
     6.2900   6.3386   6.3969   6.5415   6.6629   6.8016   7.0018   7.1989
     7.8489   7.9384   7.9419   8.0956   9.5827  10.0734  10.1006  10.6497
    12.2135  12.4568  12.6368  13.2350  13.2436  13.2742  13.5540  13.8082
    14.1068  14.8849  14.9598  15.3174  15.3201  17.1635  17.2092

          k = 0.1667 0.1667 0.1141 ( 31653 PWs)   bands (ev):

   -66.2246 -66.2242 -66.2236 -66.2232 -30.6462 -30.6426 -30.5865 -30.5835
   -30.5572 -30.5538 -30.5338 -30.5309 -30.4953 -30.4925 -30.4727 -30.4699
   -20.3754 -20.3753 -20.3699 -20.3698 -20.3693 -20.3693 -20.3692 -20.3692
   -20.3640 -20.3633 -20.3628 -20.3622 -20.3619 -20.3610 -20.3608 -20.3598
   -20.3582 -20.3581 -20.3580 -20.3579 -20.3255 -20.3255 -20.3241 -20.3241
   -20.3236 -20.3236 -20.3220 -20.3220  -9.9731  -9.6202  -9.3517  -9.0468
    -8.9404  -8.8939  -8.3273  -8.2745  -8.0843  -8.0179  -7.8642  -7.8422
     1.1215   1.1425   1.3929   1.5077   2.1982   2.2313   2.4290   2.6894
     2.7614   2.8107   3.6533   3.7395   3.9658   4.4940   4.5784   4.6902
     4.8811   5.2823   5.3382   5.4881   5.5789   5.8285   6.1857   6.2607
     6.2711   6.3900   6.4787   6.5480   6.6663   6.8477   6.8936   7.1955
     7.8069   7.9286   7.9305   8.0188   9.8038  10.0758  10.1043  10.7592
    12.1275  12.4305  12.4885  13.2102  13.2659  13.2832  13.4689  14.0110
    14.0572  14.9477  15.0645  15.3701  15.7319  16.6801  17.1614

          k = 0.1667 0.1667 0.2281 ( 31669 PWs)   bands (ev):

   -66.2245 -66.2243 -66.2235 -66.2232 -30.6337 -30.6302 -30.5992 -30.5961
   -30.5565 -30.5545 -30.5333 -30.5316 -30.4947 -30.4931 -30.4721 -30.4705
   -20.3742 -20.3742 -20.3711 -20.3710 -20.3693 -20.3692 -20.3692 -20.3692
   -20.3637 -20.3631 -20.3630 -20.3624 -20.3617 -20.3611 -20.3608 -20.3601
   -20.3582 -20.3581 -20.3580 -20.3579 -20.3255 -20.3255 -20.3241 -20.3241
   -20.3236 -20.3236 -20.3220 -20.3220  -9.8659  -9.6662  -9.1267  -8.9936
    -8.9479  -8.8166  -8.4742  -8.3210  -8.2667  -8.2021  -7.8596  -7.8469
     1.1377   1.1420   2.0263   2.0784   2.1913   2.4005   2.6317   2.7304
     2.7976   2.9441   3.3898   3.4298   3.9057   4.0947   4.4143   4.5457
     4.7296   4.8550   5.0738   5.1890   5.3864   5.7096   6.2792   6.3635
     6.3879   6.5060   6.6436   6.6467   6.8271   6.8494   7.0186   7.1757
     7.6292   7.7257   7.9345   7.9540  10.0808  10.0816  10.3848  11.0822
    11.7068  12.0876  12.5428  13.0566  13.2921  13.3088  13.3972  13.7873
    14.4917  14.9017  15.3708  15.8347  16.1331  16.7424  17.3027

          k = 0.1667 0.1667-0.3422 ( 31632 PWs)   bands (ev):

   -66.2244 -66.2244 -66.2234 -66.2234 -30.6164 -30.6164 -30.6132 -30.6132
   -30.5555 -30.5555 -30.5324 -30.5324 -30.4939 -30.4939 -30.4713 -30.4713
   -20.3727 -20.3727 -20.3726 -20.3726 -20.3692 -20.3692 -20.3692 -20.3692
   -20.3634 -20.3634 -20.3627 -20.3627 -20.3614 -20.3614 -20.3604 -20.3604
   -20.3581 -20.3581 -20.3580 -20.3579 -20.3255 -20.3255 -20.3241 -20.3241
   -20.3236 -20.3236 -20.3220 -20.3220  -9.7501  -9.7501  -8.9625  -8.9625
    -8.8010  -8.8010  -8.6127  -8.6127  -8.2508  -8.2508  -7.8532  -7.8532
     1.1409   1.1409   2.1715   2.1715   2.7526   2.7526   2.9642   2.9642
     2.9803   2.9803   3.0870   3.0870   3.4556   3.4556   4.3775   4.3775
     4.6925   4.6925   5.0579   5.0579   5.4831   5.4831   6.3750   6.3750
     6.4272   6.4272   6.6318   6.6318   7.0974   7.0974   7.3101   7.3101
     7.3182   7.3182   7.9434   7.9434  10.0848  10.0848  11.0672  11.0672
    11.5658  11.5658  12.7778  12.7778  13.2995  13.2995  13.5508  13.5508
    14.7776  14.7776  15.6667  15.6667  16.6781  16.6781  17.5308

          k = 0.1667 0.3333 0.0000 ( 31640 PWs)   bands (ev):

   -66.2244 -66.2239 -66.2238 -66.2233 -30.6502 -30.6481 -30.5817 -30.5800
   -30.5525 -30.5488 -30.5167 -30.5134 -30.5128 -30.5095 -30.4776 -30.4744
   -20.3758 -20.3758 -20.3695 -20.3694 -20.3693 -20.3693 -20.3692 -20.3692
   -20.3639 -20.3628 -20.3627 -20.3625 -20.3616 -20.3615 -20.3612 -20.3599
   -20.3580 -20.3579 -20.3579 -20.3578 -20.3257 -20.3257 -20.3246 -20.3246
   -20.3231 -20.3231 -20.3219 -20.3219  -9.8637  -9.5093  -9.4234  -9.0231
    -8.7211  -8.6628  -8.6447  -8.6249  -8.0029  -7.9994  -7.9491  -7.9245
     1.1237   1.2121   1.4075   1.4491   2.4178   2.7295   2.7928   2.9927
     3.0753   3.2811   3.3160   3.7018   3.7627   4.0280   4.3637   4.8045
     4.8636   4.9488   5.1213   5.6029   5.6256   5.6550   5.6950   5.8216
     6.1058   6.1188   6.3602   6.5310   6.7192   6.8091   6.8736   7.5157
     7.5595   7.6027   7.6037   8.0466   9.9278  11.0102  11.0407  11.5196
    11.5388  12.4393  12.7466  12.7598  12.9368  13.0681  13.1144  13.9393
    14.1005  15.0622  15.4673  15.6306  16.3917  17.3491  17.3690

          k = 0.1667 0.3333 0.1141 ( 31640 PWs)   bands (ev):

   -66.2244 -66.2240 -66.2238 -66.2234 -30.6457 -30.6436 -30.5863 -30.5845
   -30.5523 -30.5491 -30.5165 -30.5137 -30.5126 -30.5098 -30.4774 -30.4746
   -20.3754 -20.3754 -20.3699 -20.3699 -20.3693 -20.3693 -20.3692 -20.3692
   -20.3638 -20.3628 -20.3626 -20.3625 -20.3616 -20.3616 -20.3612 -20.3600
   -20.3580 -20.3579 -20.3579 -20.3578 -20.3257 -20.3257 -20.3246 -20.3246
   -20.3231 -20.3231 -20.3219 -20.3219  -9.8141  -9.4366  -9.4343  -8.9939
    -8.7341  -8.6671  -8.6401  -8.6182  -8.0852  -8.0382  -7.9976  -7.9674
     1.3161   1.4072   1.4315   1.5426   2.4903   2.7590   2.8326   2.9813
     3.0678   3.2776   3.3139   3.7062   3.8082   3.8902   4.4216   4.5433
     4.8018   4.8523   4.8987   5.3025   5.5503   5.5883   5.6592   5.7901
     6.2571   6.3612   6.4161   6.5568   6.7348   6.7849   6.9056   7.5013
     7.5458   7.5766   7.5884   7.9679  10.1049  11.0111  11.0409  11.5863
    11.6110  12.2790  12.7382  12.7407  12.8909  12.9573  13.0671  13.8391
    14.3883  15.4485  15.6036  15.6185  16.4481  17.1484  17.3948

          k = 0.1667 0.3333 0.2281 ( 31624 PWs)   bands (ev):

   -66.2243 -66.2240 -66.2237 -66.2235 -30.6332 -30.6312 -30.5988 -30.5971
   -30.5517 -30.5498 -30.5159 -30.5143 -30.5120 -30.5104 -30.4768 -30.4752
   -20.3743 -20.3742 -20.3711 -20.3710 -20.3693 -20.3693 -20.3692 -20.3692
   -20.3636 -20.3629 -20.3624 -20.3624 -20.3618 -20.3618 -20.3610 -20.3603
   -20.3580 -20.3579 -20.3579 -20.3578 -20.3257 -20.3257 -20.3246 -20.3246
   -20.3231 -20.3231 -20.3219 -20.3219  -9.6924  -9.4800  -9.2282  -8.8973
    -8.7912  -8.6851  -8.6213  -8.5920  -8.3238  -8.2953  -7.9928  -7.9783
     1.3950   1.4060   2.0679   2.1805   2.7039   2.8410   2.9204   2.9611
     3.0352   3.2524   3.3095   3.4427   3.9132   3.9311   3.9635   4.1932
     4.5867   4.6731   4.8001   4.8538   4.9038   5.3862   5.6623   5.6971
     6.5326   6.6200   6.6979   6.7174   6.7905   6.8673   7.0436   7.4115
     7.4531   7.5232   7.5792   7.7524  10.5709  11.0128  11.0447  11.7391
    11.8175  11.9029  12.5251  12.5708  12.7653  12.8196  13.1478  13.5997
    14.9223  15.5106  16.0227  16.3854  16.7140  16.7768  17.4417

          k = 0.1667 0.3333-0.3422 ( 31660 PWs)   bands (ev):

   -66.2242 -66.2242 -66.2236 -66.2236 -30.6160 -30.6160 -30.6141 -30.6141
   -30.5508 -30.5507 -30.5151 -30.5151 -30.5112 -30.5112 -30.4760 -30.4760
   -20.3727 -20.3727 -20.3727 -20.3726 -20.3692 -20.3692 -20.3692 -20.3692
   -20.3632 -20.3632 -20.3621 -20.3621 -20.3621 -20.3621 -20.3607 -20.3607
   -20.3580 -20.3580 -20.3579 -20.3579 -20.3257 -20.3257 -20.3246 -20.3246
   -20.3231 -20.3231 -20.3219 -20.3219  -9.5653  -9.5653  -8.9642  -8.9639
    -8.7531  -8.7522  -8.5455  -8.5432  -8.5141  -8.5122  -7.9860  -7.9858
     1.4030   1.4036   2.8104   2.8140   2.8746   2.8778   2.9710   2.9926
     3.1126   3.1369   3.2853   3.2879   3.3560   3.3647   4.1898   4.1943
     4.2645   4.2647   4.7220   4.7976   5.0144   5.0854   5.6684   5.6721
     6.6292   6.6703   6.6826   6.7240   7.1904   7.1951   7.2075   7.2513
     7.2807   7.3065   7.6006   7.6097  10.9872  11.0061  11.2183  11.2497
    12.1245  12.1432  12.1818  12.1870  12.7570  12.8052  13.3240  13.3572
    15.2957  15.3104  16.4053  16.4176  17.2790  17.3409  17.3696

          k = 0.1667-0.5000 0.0000 ( 31630 PWs)   bands (ev):

   -66.2241 -66.2241 -66.2236 -66.2236 -30.6493 -30.6493 -30.5811 -30.5811
   -30.5374 -30.5374 -30.5341 -30.5341 -30.4922 -30.4922 -30.4890 -30.4890
   -20.3758 -20.3758 -20.3695 -20.3695 -20.3693 -20.3693 -20.3692 -20.3692
   -20.3634 -20.3634 -20.3622 -20.3622 -20.3619 -20.3619 -20.3606 -20.3606
   -20.3579 -20.3579 -20.3578 -20.3578 -20.3254 -20.3254 -20.3253 -20.3253
   -20.3223 -20.3223 -20.3223 -20.3223  -9.6653  -9.6653  -9.1175  -9.1175
    -8.8886  -8.8886  -8.3052  -8.3052  -8.3015  -8.3015  -7.9451  -7.9451
     1.1731   1.1731   2.0927   2.0927   2.1003   2.1003   2.6277   2.6277
     3.6943   3.6943   3.8811   3.8811   4.0533   4.0533   4.1933   4.1933
     4.6656   4.6656   4.9937   4.9937   5.4017   5.4017   5.7072   5.7072
     6.1629   6.1629   6.3984   6.3984   7.0726   7.0726   7.1050   7.1050
     7.1856   7.1856   7.8879   7.8879  10.6703  10.6703  11.9472  11.9472
    11.9833  11.9833  12.3815  12.3815  12.6701  12.6701  13.5355  13.5355
    14.6237  14.6237  16.3603  16.3603  16.8125  16.8125  17.5776

          k = 0.1667-0.5000 0.1141 ( 31642 PWs)   bands (ev):

   -66.2241 -66.2241 -66.2237 -66.2237 -30.6447 -30.6447 -30.5857 -30.5857
   -30.5373 -30.5373 -30.5344 -30.5344 -30.4920 -30.4920 -30.4892 -30.4892
   -20.3754 -20.3754 -20.3699 -20.3699 -20.3693 -20.3693 -20.3692 -20.3692
   -20.3634 -20.3634 -20.3622 -20.3622 -20.3619 -20.3618 -20.3607 -20.3607
   -20.3579 -20.3579 -20.3578 -20.3578 -20.3254 -20.3254 -20.3253 -20.3253
   -20.3223 -20.3223 -20.3223 -20.3223  -9.6030  -9.6030  -9.1299  -9.1299
    -8.8695  -8.8695  -8.3123  -8.3123  -8.3012  -8.3012  -8.0462  -8.0462
     1.4196   1.4196   2.0932   2.0932   2.1054   2.1054   2.7002   2.7002
     3.6403   3.6403   3.9228   3.9228   4.0677   4.0677   4.1413   4.1413
     4.6726   4.6726   4.7859   4.7860   5.0937   5.0937   5.6740   5.6740
     6.2350   6.2350   6.5733   6.5733   7.0679   7.0679   7.1021   7.1021
     7.1886   7.1886   7.8272   7.8272  10.7827  10.7827  11.9449  11.9449
    11.9819  11.9819  12.4278  12.4278  12.5232  12.5232  13.4199  13.4199
    14.9754  14.9754  16.4428  16.4428  16.7706  16.7706  17.5374

          k = 0.1667-0.5000 0.2281 ( 31656 PWs)   bands (ev):

   -66.2240 -66.2240 -66.2238 -66.2238 -30.6323 -30.6323 -30.5981 -30.5981
   -30.5367 -30.5367 -30.5350 -30.5350 -30.4914 -30.4914 -30.4898 -30.4898
   -20.3743 -20.3743 -20.3711 -20.3711 -20.3693 -20.3693 -20.3692 -20.3692
   -20.3631 -20.3631 -20.3625 -20.3625 -20.3616 -20.3616 -20.3609 -20.3609
   -20.3578 -20.3578 -20.3578 -20.3578 -20.3254 -20.3254 -20.3253 -20.3253
   -20.3223 -20.3223 -20.3223 -20.3223  -9.4442  -9.4442  -9.1743  -9.1743
    -8.7976  -8.7976  -8.3934  -8.3934  -8.2947  -8.2947  -8.2334  -8.2334
     1.9784   1.9784   2.0882   2.0882   2.2282   2.2282   2.9176   2.9176
     3.4163   3.4163   3.9680   3.9680   4.0163   4.0163   4.1922   4.1922
     4.2619   4.2619   4.7001   4.7001   4.7548   4.7548   5.1412   5.1412
     6.6659   6.6659   6.8424   6.8424   7.0380   7.0380   7.0964   7.0964
     7.2149   7.2150   7.6438   7.6438  11.1053  11.1053  11.9222  11.9222
    11.9712  11.9712  12.1616  12.1616  12.5722  12.5722  13.1372  13.1372
    15.7261  15.7261  16.5841  16.5841  16.7487  16.7487  17.3792

          k = 0.1667-0.5000-0.3422 ( 31644 PWs)   bands (ev):

   -66.2239 -66.2239 -66.2239 -66.2239 -30.6152 -30.6152 -30.6152 -30.6152
   -30.5359 -30.5359 -30.5359 -30.5359 -30.4906 -30.4906 -30.4906 -30.4906
   -20.3727 -20.3727 -20.3727 -20.3727 -20.3693 -20.3692 -20.3692 -20.3692
   -20.3628 -20.3628 -20.3628 -20.3628 -20.3613 -20.3613 -20.3613 -20.3613
   -20.3578 -20.3578 -20.3578 -20.3578 -20.3254 -20.3254 -20.3254 -20.3253
   -20.3223 -20.3223 -20.3223 -20.3223  -9.2757  -9.2757  -9.2756  -9.2756
    -8.6302  -8.6302  -8.6297  -8.6297  -8.2817  -8.2817  -8.2813  -8.2813
     2.0745   2.0745   2.0752   2.0752   2.9571   2.9571   2.9595   2.9595
     3.3477   3.3478   3.3615   3.3615   3.9875   3.9875   4.0353   4.0353
     4.4922   4.4922   4.5206   4.5206   4.7883   4.7883   4.7886   4.7886
     6.9314   6.9314   6.9466   6.9466   7.0254   7.0254   7.0659   7.0659
     7.3622   7.3622   7.3818   7.3818  11.5562  11.5562  11.5880  11.5880
    11.9594  11.9594  12.0226  12.0226  12.8061  12.8061  12.8343  12.8343
    16.2847  16.2847  16.3222  16.3222  17.0846  17.0846  17.1484

          k = 0.3333 0.3333 0.0000 ( 31644 PWs)   bands (ev):

   -66.2243 -66.2239 -66.2238 -66.2235 -30.6495 -30.6484 -30.5806 -30.5803
   -30.5599 -30.5559 -30.5386 -30.5353 -30.4911 -30.4879 -30.4707 -30.4676
   -20.3758 -20.3757 -20.3694 -20.3694 -20.3693 -20.3692 -20.3692 -20.3692
   -20.3641 -20.3634 -20.3627 -20.3621 -20.3620 -20.3612 -20.3607 -20.3596
   -20.3581 -20.3581 -20.3580 -20.3580 -20.3264 -20.3264 -20.3258 -20.3258
   -20.3219 -20.3219 -20.3211 -20.3211  -9.8382  -9.6097  -9.4447  -9.0739
    -9.0505  -8.8781  -8.3195  -8.3188  -7.9645  -7.9326  -7.8971  -7.8702
     1.0762   1.1467   1.2047   1.2615   2.0892   2.0917   2.3185   2.6257
     3.6287   3.7280   3.9263   3.9408   4.0567   4.6172   4.6468   4.8513
     4.9041   5.0096   5.2299   5.5176   5.5287   5.5467   5.8389   5.9444
     6.1735   6.1926   6.2777   6.2939   6.5198   6.6695   6.9824   7.0134
     7.0466   7.1424   7.8795   8.0916   9.6392  10.6775  11.6876  11.7175
    12.3587  12.3606  12.5960  12.6251  12.7182  13.1834  13.5429  13.9146
    14.1080  14.6749  15.3625  15.9457  16.8750  16.9751  17.5759

          k = 0.3333 0.3333 0.1141 ( 31641 PWs)   bands (ev):

   -66.2243 -66.2239 -66.2238 -66.2235 -30.6449 -30.6439 -30.5853 -30.5848
   -30.5596 -30.5562 -30.5384 -30.5355 -30.4909 -30.4881 -30.4705 -30.4678
   -20.3753 -20.3753 -20.3698 -20.3698 -20.3693 -20.3693 -20.3692 -20.3692
   -20.3640 -20.3633 -20.3627 -20.3622 -20.3619 -20.3611 -20.3607 -20.3598
   -20.3581 -20.3581 -20.3580 -20.3580 -20.3264 -20.3264 -20.3258 -20.3258
   -20.3219 -20.3219 -20.3211 -20.3211  -9.7910  -9.5459  -9.4558  -9.0847
    -9.0165  -8.8599  -8.3291  -8.3164  -8.0696  -8.0396  -7.8953  -7.8720
     1.1258   1.1467   1.4243   1.4975   2.0872   2.0993   2.3916   2.7009
     3.6220   3.7229   3.8205   3.8543   3.9924   4.6175   4.6957   4.7701
     4.8607   4.8746   4.9469   5.1686   5.6766   5.7396   5.7996   5.9246
     5.9596   6.2678   6.3221   6.4916   6.4948   6.7256   6.9004   7.0172
     7.0381   7.1407   7.8175   8.0045   9.8612  10.7933  11.6879  11.7161
    12.1965  12.4031  12.4896  12.6305  12.6727  13.2107  13.4314  14.0101
    14.1697  15.0168  15.3318  16.0934  16.8300  17.0637  17.6036

          k = 0.3333 0.3333 0.2281 ( 31633 PWs)   bands (ev):

   -66.2242 -66.2239 -66.2238 -66.2236 -30.6324 -30.6314 -30.5980 -30.5973
   -30.5589 -30.5569 -30.5379 -30.5362 -30.4903 -30.4887 -30.4699 -30.4684
   -20.3742 -20.3742 -20.3710 -20.3710 -20.3693 -20.3692 -20.3692 -20.3692
   -20.3637 -20.3632 -20.3630 -20.3624 -20.3617 -20.3611 -20.3607 -20.3600
   -20.3581 -20.3581 -20.3580 -20.3580 -20.3264 -20.3264 -20.3258 -20.3258
   -20.3219 -20.3219 -20.3211 -20.3211  -9.6782  -9.4927  -9.3842  -9.1239
    -8.8989  -8.7887  -8.4142  -8.3274  -8.3093  -8.2422  -7.8905  -7.8770
     1.1418   1.1464   1.9692   2.0809   2.2012   2.2257   2.6061   2.9278
     3.3701   3.4854   3.6831   3.7099   4.1803   4.1860   4.2447   4.6416
     4.6996   4.8030   4.8411   4.9657   5.1574   5.5410   5.9457   5.9562
     6.1222   6.2549   6.4033   6.6868   6.6889   6.8692   6.9118   7.0152
     7.0729   7.1536   7.6262   7.7514  10.4124  11.1209  11.6628  11.7123
    11.7728  12.1109  12.5458  12.6389  12.6520  13.1110  13.3493  13.7771
    14.6544  15.2287  15.7606  16.4843  16.6821  17.2963  17.4094

          k = 0.3333 0.3333-0.3422 ( 31630 PWs)   bands (ev):

   -66.2240 -66.2240 -66.2237 -66.2237 -30.6152 -30.6152 -30.6144 -30.6144
   -30.5579 -30.5579 -30.5371 -30.5371 -30.4895 -30.4895 -30.4691 -30.4691
   -20.3726 -20.3726 -20.3726 -20.3726 -20.3692 -20.3692 -20.3692 -20.3692
   -20.3634 -20.3634 -20.3628 -20.3628 -20.3613 -20.3613 -20.3604 -20.3604
   -20.3581 -20.3581 -20.3580 -20.3580 -20.3264 -20.3264 -20.3258 -20.3258
   -20.3219 -20.3219 -20.3211 -20.3211  -9.5656  -9.5656  -9.2176  -9.2175
    -8.6762  -8.6762  -8.6120  -8.6119  -8.2951  -8.2951  -7.8838  -7.8838
     1.1453   1.1453   2.0672   2.0672   2.9456   2.9456   2.9666   2.9666
     3.1813   3.1813   3.3868   3.3868   3.6931   3.6931   4.4680   4.4680
     4.7279   4.7279   4.8626   4.8626   5.2238   5.2238   5.9618   5.9618
     6.2161   6.2161   6.5289   6.5289   6.9310   6.9310   7.0287   7.0287
     7.3054   7.3054   7.3888   7.3888  11.0885  11.0885  11.6049  11.6049
    11.7089  11.7090  12.6432  12.6432  12.7979  12.7979  13.5281  13.5281
    15.0200  15.0200  16.3705  16.3705  16.9170  16.9170  17.6924

          k = 0.3333-0.5000 0.0000 ( 31614 PWs)   bands (ev):

   -66.2241 -66.2241 -66.2236 -66.2236 -30.6489 -30.6489 -30.5804 -30.5804
   -30.5545 -30.5545 -30.5509 -30.5509 -30.4757 -30.4757 -30.4725 -30.4725
   -20.3757 -20.3757 -20.3694 -20.3694 -20.3693 -20.3693 -20.3692 -20.3692
   -20.3639 -20.3639 -20.3625 -20.3625 -20.3614 -20.3614 -20.3600 -20.3600
   -20.3581 -20.3581 -20.3581 -20.3581 -20.3265 -20.3265 -20.3264 -20.3264
   -20.3212 -20.3212 -20.3211 -20.3211  -9.7441  -9.7441  -9.3289  -9.3289
    -9.0089  -9.0089  -8.0259  -8.0259  -8.0152  -8.0152  -7.9400  -7.9400
     1.1641   1.1641   1.4010   1.4010   1.4512   1.4512   2.3943   2.3943
     4.0639   4.0639   4.2946   4.2946   4.3494   4.3494   4.4538   4.4538
     5.3312   5.3312   5.4870   5.4870   5.5183   5.5183   5.5992   5.5992
     6.3693   6.3693   6.4379   6.4379   6.4973   6.4973   6.6177   6.6177
     6.8875   6.8875   8.0395   8.0395   9.9639   9.9639  12.2744  12.2744
    12.2944  12.2944  12.4394  12.4394  12.9646  12.9646  13.9411  13.9411
    14.1705  14.1705  15.8408  15.8408  16.6660  16.6660  17.4985

          k = 0.3333-0.5000 0.1141 ( 31652 PWs)   bands (ev):

   -66.2241 -66.2241 -66.2237 -66.2237 -30.6443 -30.6443 -30.5850 -30.5850
   -30.5543 -30.5543 -30.5512 -30.5512 -30.4755 -30.4755 -30.4727 -30.4727
   -20.3753 -20.3753 -20.3698 -20.3698 -20.3693 -20.3693 -20.3692 -20.3692
   -20.3638 -20.3638 -20.3626 -20.3626 -20.3613 -20.3613 -20.3601 -20.3601
   -20.3581 -20.3581 -20.3581 -20.3581 -20.3264 -20.3264 -20.3264 -20.3264
   -20.3212 -20.3212 -20.3211 -20.3211  -9.6925  -9.6925  -9.3393  -9.3393
    -8.9786  -8.9786  -8.0791  -8.0791  -8.0237  -8.0237  -7.9886  -7.9886
     1.3245   1.3245   1.4007   1.4007   1.5476   1.5476   2.4695   2.4695
     3.8652   3.8652   4.2953   4.2954   4.3343   4.3343   4.4964   4.4964
     5.0368   5.0368   5.4326   5.4326   5.5202   5.5202   5.7495   5.7495
     6.1975   6.1975   6.4902   6.4902   6.5888   6.5888   6.6570   6.6570
     6.8500   6.8500   7.9581   7.9581  10.1424  10.1424  12.2461  12.2461
    12.2827  12.2828  12.3192  12.3192  13.0000  13.0000  13.8372  13.8372
    14.4542  14.4542  15.8067  15.8067  16.7931  16.7931  17.5699

          k = 0.3333-0.5000 0.2281 ( 31656 PWs)   bands (ev):

   -66.2240 -66.2240 -66.2238 -66.2238 -30.6318 -30.6318 -30.5975 -30.5975
   -30.5537 -30.5537 -30.5519 -30.5519 -30.4749 -30.4749 -30.4733 -30.4733
   -20.3742 -20.3742 -20.3710 -20.3710 -20.3693 -20.3692 -20.3692 -20.3692
   -20.3636 -20.3636 -20.3629 -20.3629 -20.3610 -20.3610 -20.3603 -20.3603
   -20.3581 -20.3581 -20.3581 -20.3581 -20.3264 -20.3264 -20.3264 -20.3264
   -20.3212 -20.3212 -20.3211 -20.3211  -9.5689  -9.5689  -9.3748  -9.3748
    -8.8695  -8.8695  -8.3426  -8.3426  -8.0186  -8.0186  -8.0031  -8.0031
     1.3889   1.3889   1.3996   1.3996   2.1783   2.1783   2.6968   2.6968
     3.4267   3.4267   4.2344   4.2344   4.3038   4.3038   4.3379   4.3379
     4.6680   4.6680   5.2746   5.2746   5.5320   5.5320   5.6437   5.6437
     6.3054   6.3054   6.4702   6.4702   6.6687   6.6687   6.7866   6.7866
     6.9267   6.9267   7.7165   7.7165  10.6134  10.6134  11.8298  11.8298
    12.2827  12.2827  12.2986  12.2986  13.1142  13.1142  13.5877  13.5877
    15.0179  15.0179  15.6918  15.6918  17.1312  17.1312  17.6744

          k = 0.3333-0.5000-0.3422 ( 31656 PWs)   bands (ev):

   -66.2239 -66.2239 -66.2239 -66.2239 -30.6147 -30.6147 -30.6147 -30.6147
   -30.5528 -30.5528 -30.5528 -30.5528 -30.4741 -30.4741 -30.4741 -30.4741
   -20.3726 -20.3726 -20.3726 -20.3726 -20.3692 -20.3692 -20.3692 -20.3692
   -20.3632 -20.3632 -20.3632 -20.3632 -20.3607 -20.3607 -20.3607 -20.3607
   -20.3581 -20.3581 -20.3581 -20.3581 -20.3264 -20.3264 -20.3264 -20.3264
   -20.3212 -20.3212 -20.3211 -20.3211  -9.4484  -9.4484  -9.4484  -9.4484
    -8.6474  -8.6474  -8.6473  -8.6473  -8.0114  -8.0114  -8.0113  -8.0113
     1.3970   1.3970   1.3972   1.3972   2.9538   2.9538   2.9560   2.9560
     3.2408   3.2408   3.2426   3.2426   4.3093   4.3093   4.3289   4.3290
     4.9463   4.9463   4.9652   4.9652   5.5554   5.5554   5.5638   5.5638
     6.4175   6.4175   6.4240   6.4240   6.7318   6.7318   6.7365   6.7365
     7.3364   7.3364   7.3412   7.3412  11.2287  11.2287  11.2310  11.2310
    12.2843  12.2843  12.2963  12.2963  13.3133  13.3133  13.3219  13.3219
    15.4487  15.4487  15.4565  15.4565  17.4378  17.4514  17.4565

          k =-0.5000-0.5000 0.0000 ( 31560 PWs)   bands (ev):

   -66.2241 -66.2241 -66.2236 -66.2236 -30.6486 -30.6486 -30.5798 -30.5798
   -30.5611 -30.5611 -30.5571 -30.5571 -30.4697 -30.4697 -30.4665 -30.4665
   -20.3757 -20.3757 -20.3693 -20.3693 -20.3692 -20.3692 -20.3692 -20.3692
   -20.3641 -20.3641 -20.3627 -20.3627 -20.3611 -20.3611 -20.3596 -20.3596
   -20.3583 -20.3583 -20.3582 -20.3582 -20.3268 -20.3268 -20.3268 -20.3268
   -20.3207 -20.3207 -20.3207 -20.3207  -9.7827  -9.7827  -9.4060  -9.4060
    -9.0424  -9.0423  -7.9513  -7.9513  -7.9127  -7.9127  -7.8848  -7.8848
     1.0902   1.0902   1.1420   1.1420   1.2766   1.2766   2.3036   2.3036
     4.1472   4.1472   4.5398   4.5398   4.5964   4.5964   4.6420   4.6420
     5.3387   5.3387   5.3584   5.3584   5.7817   5.7817   5.8784   5.8784
     6.1398   6.1398   6.2455   6.2455   6.3242   6.3242   6.5223   6.5223
     7.0088   7.0088   8.0882   8.0882   9.6611   9.6611  12.3589  12.3589
    12.4040  12.4040  12.4316  12.4316  13.1885  13.1885  13.9362  13.9362
    14.1097  14.1097  15.4407  15.4407  16.8662  16.8662  17.4656

          k =-0.5000-0.5000 0.1141 ( 31628 PWs)   bands (ev):

   -66.2241 -66.2241 -66.2237 -66.2237 -30.6441 -30.6441 -30.5844 -30.5844
   -30.5608 -30.5608 -30.5574 -30.5574 -30.4694 -30.4694 -30.4667 -30.4667
   -20.3753 -20.3753 -20.3697 -20.3697 -20.3693 -20.3693 -20.3692 -20.3692
   -20.3640 -20.3640 -20.3628 -20.3628 -20.3610 -20.3610 -20.3597 -20.3597
   -20.3583 -20.3583 -20.3583 -20.3582 -20.3268 -20.3268 -20.3268 -20.3268
   -20.3207 -20.3207 -20.3207 -20.3207  -9.7354  -9.7354  -9.4160  -9.4160
    -9.0077  -9.0077  -8.0623  -8.0623  -7.9109  -7.9109  -7.8867  -7.8867
     1.1248   1.1248   1.1420   1.1420   1.5013   1.5013   2.3778   2.3778
     3.8783   3.8783   4.5436   4.5436   4.5920   4.5920   4.7061   4.7061
     5.0582   5.0582   5.5180   5.5180   5.7542   5.7542   5.8804   5.8804
     6.1237   6.1237   6.1849   6.1849   6.3516   6.3516   6.6019   6.6019
     6.8999   6.8999   8.0001   8.0001   9.8823   9.8823  12.1943  12.1943
    12.4089  12.4089  12.4306  12.4306  13.2212  13.2212  14.0098  14.0098
    14.1921  14.1921  15.4091  15.4091  17.0533  17.0533  17.5003

          k =-0.5000-0.5000 0.2281 ( 31680 PWs)   bands (ev):

   -66.2240 -66.2240 -66.2238 -66.2238 -30.6316 -30.6316 -30.5971 -30.5971
   -30.5601 -30.5601 -30.5581 -30.5581 -30.4689 -30.4689 -30.4673 -30.4673
   -20.3741 -20.3741 -20.3709 -20.3709 -20.3692 -20.3692 -20.3692 -20.3692
   -20.3638 -20.3638 -20.3630 -20.3630 -20.3608 -20.3608 -20.3600 -20.3600
   -20.3583 -20.3583 -20.3583 -20.3583 -20.3268 -20.3268 -20.3268 -20.3268
   -20.3207 -20.3207 -20.3207 -20.3207  -9.6240  -9.6240  -9.4494  -9.4494
    -8.8861  -8.8861  -8.3376  -8.3375  -7.9058  -7.9058  -7.8919  -7.8919
     1.1380   1.1380   1.1418   1.1418   2.1974   2.1974   2.5963   2.5963
     3.3968   3.3968   4.2377   4.2377   4.5541   4.5541   4.5845   4.5845
     4.8904   4.8904   5.4635   5.4635   5.8361   5.8361   5.8854   5.8854
     6.0764   6.0764   6.1320   6.1320   6.4304   6.4304   6.7120   6.7120
     6.9013   6.9013   7.7412   7.7412  10.4314  10.4314  11.7421  11.7421
    12.4167  12.4167  12.4276  12.4276  13.3269  13.3269  13.7716  13.7716
    14.6941  14.6941  15.3029  15.3029  17.5982  17.6451  17.6452

          k =-0.5000-0.5000-0.3422 ( 31680 PWs)   bands (ev):

   -66.2239 -66.2239 -66.2239 -66.2239 -30.6144 -30.6144 -30.6144 -30.6144
   -30.5591 -30.5591 -30.5591 -30.5591 -30.4681 -30.4681 -30.4681 -30.4681
   -20.3726 -20.3726 -20.3726 -20.3726 -20.3692 -20.3692 -20.3692 -20.3692
   -20.3634 -20.3634 -20.3634 -20.3634 -20.3604 -20.3604 -20.3604 -20.3604
   -20.3583 -20.3583 -20.3583 -20.3583 -20.3268 -20.3268 -20.3268 -20.3268
   -20.3207 -20.3207 -20.3207 -20.3207  -9.5166  -9.5166  -9.5165  -9.5165
    -8.6503  -8.6503  -8.6503  -8.6503  -7.8989  -7.8989  -7.8989  -7.8989
     1.1410   1.1410   1.1410   1.1410   2.9457   2.9457   2.9457   2.9457
     3.1872   3.1872   3.1872   3.1872   4.5687   4.5687   4.5687   4.5687
     5.1674   5.1674   5.1674   5.1674   5.8852   5.8852   5.8852   5.8852
     6.0957   6.0957   6.0957   6.0958   6.5525   6.5525   6.5525   6.5525
     7.3424   7.3424   7.3424   7.3424  11.1078  11.1078  11.1078  11.1078
    12.4230  12.4230  12.4230  12.4230  13.5167  13.5167  13.5167  13.5167
    15.0837  15.0837  15.0837  15.0837  17.7439  17.7439  17.7439

     the Fermi energy is     9.5858 ev

!    total energy              =   -3130.18682946 Ry
     Harris-Foulkes estimate   =   -3130.18682946 Ry
     estimated scf accuracy    <          1.2E-09 Ry

     The total energy is the sum of the following terms:

     one-electron contribution =   -2397.54538136 Ry
     hartree contribution      =    1316.90256283 Ry
     xc contribution           =    -483.40410422 Ry
     ewald contribution        =   -1566.13984549 Ry
     smearing contrib. (-TS)   =      -0.00006122 Ry

     convergence has been achieved in  12 iterations

     Writing output data file Landau_19.save/
 
     init_run     :      4.70s CPU      4.99s WALL (       1 calls)
     electrons    :    188.47s CPU    190.73s WALL (       1 calls)

     Called by init_run:
     wfcinit      :      3.76s CPU      3.97s WALL (       1 calls)
     potinit      :      0.33s CPU      0.36s WALL (       1 calls)
     hinit0       :      0.50s CPU      0.52s WALL (       1 calls)

     Called by electrons:
     c_bands      :    157.74s CPU    159.70s WALL (      12 calls)
     sum_band     :     26.81s CPU     26.91s WALL (      12 calls)
     v_of_rho     :      0.85s CPU      0.88s WALL (      13 calls)
     mix_rho      :      1.15s CPU      1.28s WALL (      12 calls)

     Called by c_bands:
     init_us_2    :      1.15s CPU      1.30s WALL (      25 calls)
     cegterg      :    107.82s CPU    109.70s WALL (      12 calls)

     Called by sum_band:

     Called by *egterg:
     h_psi        :     91.16s CPU     92.02s WALL (      47 calls)
     g_psi        :      0.47s CPU      0.47s WALL (      34 calls)
     cdiaghg      :      1.07s CPU      1.09s WALL (      46 calls)

     Called by h_psi:
     h_psi:pot    :     90.82s CPU     91.02s WALL (      47 calls)
     h_psi:calbec :      6.94s CPU      7.01s WALL (      47 calls)
     vloc_psi     :     75.93s CPU     76.04s WALL (      47 calls)
     add_vuspsi   :      7.95s CPU      7.97s WALL (      47 calls)

     General routines
     calbec       :      6.94s CPU      7.01s WALL (      47 calls)
     fft          :      0.34s CPU      0.34s WALL (      39 calls)
     ffts         :      0.11s CPU      0.11s WALL (      12 calls)
     fftw         :     76.41s CPU     76.46s WALL (    8028 calls)
 
     Parallel routines
 
     PWSCF        :   3m15.50s CPU   3m18.44s WALL

 
   This run was terminated on:  13: 5:34  20Nov2019            

=------------------------------------------------------------------------------=
   JOB DONE.
=------------------------------------------------------------------------------=
