
     Program PWSCF v.6.2 (svn rev. 14038) starts on 25Mar2020 at 23:13:39 

     This program is part of the open-source Quantum ESPRESSO suite
     for quantum simulation of materials; please cite
         "P. Giannozzi et al., J. Phys.:Condens. Matter 21 395502 (2009);
         "P. Giannozzi et al., J. Phys.:Condens. Matter 29 465901 (2017);
          URL http://www.quantum-espresso.org", 
     in publications or presentations arising from this work. More details at
     http://www.quantum-espresso.org/quote

     Parallel version (MPI), running on    40 processors

     MPI processes distributed on     6 nodes
     K-points division:     npool     =      40
     Reading input from scf.in

     Current dimensions of program PWSCF are:
     Max number of different atomic species (ntypx) = 10
     Max number of k-points (npk) =  40000
     Max angular momentum in pseudopotentials (lmaxx) =  3

     Subspace diagonalization in iterative solution of the eigenvalue problem:
     a serial algorithm will be used

 
     G-vector sticks info
     --------------------
     sticks:   dense  smooth     PW     G-vecs:    dense   smooth      PW
     Sum        7737    7737   2079               501249   501249   69545
 


     bravais-lattice index     =            0
     lattice parameter (alat)  =      13.9380  a.u.
     unit-cell volume          =    2821.6751 (a.u.)^3
     number of atoms/cell      =           32
     number of atomic types    =            2
     number of electrons       =       369.00
     number of Kohn-Sham states=          222
     kinetic-energy cutoff     =     120.0000  Ry
     charge density cutoff     =     480.0000  Ry
     convergence threshold     =      1.0E-08
     mixing beta               =       0.7000
     number of iterations used =            8  plain     mixing
     Exchange-correlation      = SLA PW NOGX NOGC ( 1  4  0  0 0 0)

     celldm(1)=  13.938039  celldm(2)=   0.000000  celldm(3)=   0.000000
     celldm(4)=   0.000000  celldm(5)=   0.000000  celldm(6)=   0.000000

     crystal axes: (cart. coord. in units of alat)
               a(1) = (   1.000000   0.000000   0.000000 )  
               a(2) = (   0.000000   1.041281   0.000000 )  
               a(3) = (   0.000000   0.000000   1.000769 )  

     reciprocal axes: (cart. coord. in units 2 pi/alat)
               b(1) = (  1.000000  0.000000  0.000000 )  
               b(2) = (  0.000000  0.960355  0.000000 )  
               b(3) = (  0.000000  0.000000  0.999231 )  


     PseudoPot. # 1 for W  read from file:
     /cluster/scratch/mnoe/QE/pps/W_ONCV_LDA-4.0.upf
     MD5 check sum: ba0307d5d4cd419d6f1d13dc49d7c13a
     Pseudo is Norm-conserving + core correction, Zval = 28.0
     Generated using ONCVPSP code by D. R. Hamann
     Using radial grid of 1380 points,  8 beta functions with: 
                l(1) =   0
                l(2) =   0
                l(3) =   1
                l(4) =   1
                l(5) =   2
                l(6) =   2
                l(7) =   3
                l(8) =   3

     PseudoPot. # 2 for O  read from file:
     /cluster/scratch/mnoe/QE/pps/O_ONCV_LDA-3.0.upf
     MD5 check sum: a1bd6164e7280c17a38c229939bfbd54
     Pseudo is Norm-conserving + core correction, Zval =  6.0
     Generated using ONCVPSP code by D. R. Hamann
     Using radial grid of  926 points,  5 beta functions with: 
                l(1) =   0
                l(2) =   0
                l(3) =   1
                l(4) =   1
                l(5) =   2

     atomic species   valence    mass     pseudopotential
        W             28.00   183.84000     W ( 1.00)
        O              6.00    15.99940     O ( 1.00)

      4 Sym. Ops. (no inversion) found ( 3 have fractional translation)



   Cartesian axes

     site n.     atom                  positions (alat units)
         1           W   tau(   1) = (   0.2385283   0.2902282   0.0026783  )
         2           W   tau(   2) = (   0.7533283   0.7510531  -0.0113085  )
         3           W   tau(   3) = (   0.2614717   0.2304125   0.5030629  )
         4           W   tau(   4) = (   0.7466717   0.8108688   0.4890761  )
         5           W   tau(   5) = (   0.7614717   0.2902282   0.4977063  )
         6           W   tau(   6) = (   0.2466717   0.7510531   0.5116931  )
         7           W   tau(   7) = (   0.7385283   0.2304125  -0.0026783  )
         8           W   tau(   8) = (   0.2533283   0.8108688   0.0113085  )
         9           O   tau(   9) = (   0.2350824   0.0077733  -0.0057871  )
        10           O   tau(  10) = (   0.7623864  -0.0077733  -0.0101344  )
        11           O   tau(  11) = (   0.2649176   0.5128673   0.4945975  )
        12           O   tau(  12) = (   0.7376136   0.5284140   0.4902501  )
        13           O   tau(  13) = (   0.7649175   0.0077733   0.5061717  )
        14           O   tau(  14) = (   0.2376136  -0.0077733   0.5105190  )
        15           O   tau(  15) = (   0.7350824   0.5128673   0.0057871  )
        16           O   tau(  16) = (   0.2623864   0.5284140   0.0101344  )
        17           O   tau(  17) = (   0.5038116   0.2438841   0.4575643  )
        18           O   tau(  18) = (   0.4997636   0.7936889   0.5432048  )
        19           O   tau(  19) = (  -0.0038116   0.2767566   0.9579489  )
        20           O   tau(  20) = (   0.0002364   0.7682330   0.0428202  )
        21           O   tau(  21) = (   0.4961884   0.2438841   0.0428202  )
        22           O   tau(  22) = (   0.5002364   0.7936889   0.9579489  )
        23           O   tau(  23) = (   0.0038116   0.2767566   0.5432048  )
        24           O   tau(  24) = (  -0.0002364   0.7682330   0.4575643  )
        25           O   tau(  25) = (   0.7072127   0.2656348   0.7486867  )
        26           O   tau(  26) = (   0.2927873   0.7926397   0.2544429  )
        27           O   tau(  27) = (   0.7927874   0.2550059   0.2483022  )
        28           O   tau(  28) = (   0.2072127   0.7692822   0.7548275  )
        29           O   tau(  29) = (   0.2927873   0.2656348   0.7524670  )
        30           O   tau(  30) = (   0.7072127   0.7926397   0.2459417  )
        31           O   tau(  31) = (   0.2072127   0.2550059   0.2520824  )
        32           O   tau(  32) = (   0.7927874   0.7692822   0.7463263  )

     number of k points=    64  gaussian smearing, width (Ry)=  0.0007
                       cart. coord. in units 2pi/alat
        k(    1) = (   0.0000000   0.0000000   0.0000000), wk =   0.0092593
        k(    2) = (   0.0000000   0.0000000   0.1665386), wk =   0.0185185
        k(    3) = (   0.0000000   0.0000000   0.3330771), wk =   0.0185185
        k(    4) = (   0.0000000   0.0000000  -0.4996157), wk =   0.0092593
        k(    5) = (   0.0000000   0.1600592   0.0000000), wk =   0.0185185
        k(    6) = (   0.0000000   0.1600592   0.1665386), wk =   0.0370370
        k(    7) = (   0.0000000   0.1600592   0.3330771), wk =   0.0370370
        k(    8) = (   0.0000000   0.1600592  -0.4996157), wk =   0.0185185
        k(    9) = (   0.0000000   0.3201184   0.0000000), wk =   0.0185185
        k(   10) = (   0.0000000   0.3201184   0.1665386), wk =   0.0370370
        k(   11) = (   0.0000000   0.3201184   0.3330771), wk =   0.0370370
        k(   12) = (   0.0000000   0.3201184  -0.4996157), wk =   0.0185185
        k(   13) = (   0.0000000  -0.4801777   0.0000000), wk =   0.0092593
        k(   14) = (   0.0000000  -0.4801777   0.1665386), wk =   0.0185185
        k(   15) = (   0.0000000  -0.4801777   0.3330771), wk =   0.0185185
        k(   16) = (   0.0000000  -0.4801777  -0.4996157), wk =   0.0092593
        k(   17) = (   0.1666667   0.0000000   0.0000000), wk =   0.0185185
        k(   18) = (   0.1666667   0.0000000   0.1665386), wk =   0.0370370
        k(   19) = (   0.1666667   0.0000000   0.3330771), wk =   0.0370370
        k(   20) = (   0.1666667   0.0000000  -0.4996157), wk =   0.0185185
        k(   21) = (   0.1666667   0.1600592   0.0000000), wk =   0.0370370
        k(   22) = (   0.1666667   0.1600592   0.1665386), wk =   0.0740741
        k(   23) = (   0.1666667   0.1600592   0.3330771), wk =   0.0740741
        k(   24) = (   0.1666667   0.1600592  -0.4996157), wk =   0.0370370
        k(   25) = (   0.1666667   0.3201184   0.0000000), wk =   0.0370370
        k(   26) = (   0.1666667   0.3201184   0.1665386), wk =   0.0740741
        k(   27) = (   0.1666667   0.3201184   0.3330771), wk =   0.0740741
        k(   28) = (   0.1666667   0.3201184  -0.4996157), wk =   0.0370370
        k(   29) = (   0.1666667  -0.4801777   0.0000000), wk =   0.0185185
        k(   30) = (   0.1666667  -0.4801777   0.1665386), wk =   0.0370370
        k(   31) = (   0.1666667  -0.4801777   0.3330771), wk =   0.0370370
        k(   32) = (   0.1666667  -0.4801777  -0.4996157), wk =   0.0185185
        k(   33) = (   0.3333333   0.0000000   0.0000000), wk =   0.0185185
        k(   34) = (   0.3333333   0.0000000   0.1665386), wk =   0.0370370
        k(   35) = (   0.3333333   0.0000000   0.3330771), wk =   0.0370370
        k(   36) = (   0.3333333   0.0000000  -0.4996157), wk =   0.0185185
        k(   37) = (   0.3333333   0.1600592   0.0000000), wk =   0.0370370
        k(   38) = (   0.3333333   0.1600592   0.1665386), wk =   0.0740741
        k(   39) = (   0.3333333   0.1600592   0.3330771), wk =   0.0740741
        k(   40) = (   0.3333333   0.1600592  -0.4996157), wk =   0.0370370
        k(   41) = (   0.3333333   0.3201184   0.0000000), wk =   0.0370370
        k(   42) = (   0.3333333   0.3201184   0.1665386), wk =   0.0740741
        k(   43) = (   0.3333333   0.3201184   0.3330771), wk =   0.0740741
        k(   44) = (   0.3333333   0.3201184  -0.4996157), wk =   0.0370370
        k(   45) = (   0.3333333  -0.4801777   0.0000000), wk =   0.0185185
        k(   46) = (   0.3333333  -0.4801777   0.1665386), wk =   0.0370370
        k(   47) = (   0.3333333  -0.4801777   0.3330771), wk =   0.0370370
        k(   48) = (   0.3333333  -0.4801777  -0.4996157), wk =   0.0185185
        k(   49) = (  -0.5000000   0.0000000   0.0000000), wk =   0.0092593
        k(   50) = (  -0.5000000   0.0000000   0.1665386), wk =   0.0185185
        k(   51) = (  -0.5000000   0.0000000   0.3330771), wk =   0.0185185
        k(   52) = (  -0.5000000   0.0000000  -0.4996157), wk =   0.0092593
        k(   53) = (  -0.5000000   0.1600592   0.0000000), wk =   0.0185185
        k(   54) = (  -0.5000000   0.1600592   0.1665386), wk =   0.0370370
        k(   55) = (  -0.5000000   0.1600592   0.3330771), wk =   0.0370370
        k(   56) = (  -0.5000000   0.1600592  -0.4996157), wk =   0.0185185
        k(   57) = (  -0.5000000   0.3201184   0.0000000), wk =   0.0185185
        k(   58) = (  -0.5000000   0.3201184   0.1665386), wk =   0.0370370
        k(   59) = (  -0.5000000   0.3201184   0.3330771), wk =   0.0370370
        k(   60) = (  -0.5000000   0.3201184  -0.4996157), wk =   0.0185185
        k(   61) = (  -0.5000000  -0.4801777   0.0000000), wk =   0.0092593
        k(   62) = (  -0.5000000  -0.4801777   0.1665386), wk =   0.0185185
        k(   63) = (  -0.5000000  -0.4801777   0.3330771), wk =   0.0185185
        k(   64) = (  -0.5000000  -0.4801777  -0.4996157), wk =   0.0092593

     Dense  grid:   501249 G-vectors     FFT dimensions: ( 100, 108, 100)

     Estimated max dynamical RAM per process >       3.16 GB

     Estimated total dynamical RAM >     126.23 GB

     Initial potential from superposition of free atoms

     starting charge  367.99656, renormalised to  369.00000
     Starting wfc are  232 randomized atomic wfcs

     total cpu time spent up to now is       45.8 secs

     Self-consistent Calculation

     iteration #  1     ecut=   120.00 Ry     beta= 0.70
     Davidson diagonalization with overlap
     ethr =  1.00E-02,  avg # of iterations =  5.7

     total cpu time spent up to now is      212.1 secs

     total energy              =   -6253.08430181 Ry
     Harris-Foulkes estimate   =   -6264.06833331 Ry
     estimated scf accuracy    <      13.79027745 Ry

     iteration #  2     ecut=   120.00 Ry     beta= 0.70
     Davidson diagonalization with overlap
     ethr =  3.74E-03,  avg # of iterations =  3.7

     total cpu time spent up to now is      378.3 secs

     total energy              =   -6250.16142405 Ry
     Harris-Foulkes estimate   =   -6269.92188807 Ry
     estimated scf accuracy    <      52.13890762 Ry

     iteration #  3     ecut=   120.00 Ry     beta= 0.70
     Davidson diagonalization with overlap
     ethr =  3.74E-03,  avg # of iterations =  3.5

     total cpu time spent up to now is      528.1 secs

     total energy              =   -6260.39363714 Ry
     Harris-Foulkes estimate   =   -6260.65173123 Ry
     estimated scf accuracy    <       0.88045278 Ry

     iteration #  4     ecut=   120.00 Ry     beta= 0.70
     Davidson diagonalization with overlap
     ethr =  2.39E-04,  avg # of iterations =  3.6

     total cpu time spent up to now is      652.1 secs

     total energy              =   -6260.37746574 Ry
     Harris-Foulkes estimate   =   -6260.45357410 Ry
     estimated scf accuracy    <       0.23551491 Ry

     iteration #  5     ecut=   120.00 Ry     beta= 0.70
     Davidson diagonalization with overlap
     ethr =  6.38E-05,  avg # of iterations =  5.6

     total cpu time spent up to now is      787.3 secs

     total energy              =   -6260.37686315 Ry
     Harris-Foulkes estimate   =   -6260.42360539 Ry
     estimated scf accuracy    <       0.12473753 Ry

     iteration #  6     ecut=   120.00 Ry     beta= 0.70
     Davidson diagonalization with overlap
     ethr =  3.38E-05,  avg # of iterations =  5.5

     total cpu time spent up to now is      919.4 secs

     total energy              =   -6260.39379466 Ry
     Harris-Foulkes estimate   =   -6260.40398809 Ry
     estimated scf accuracy    <       0.03622891 Ry

     iteration #  7     ecut=   120.00 Ry     beta= 0.70
     Davidson diagonalization with overlap
     ethr =  9.82E-06,  avg # of iterations =  4.4

     total cpu time spent up to now is     1052.0 secs

     total energy              =   -6260.39890280 Ry
     Harris-Foulkes estimate   =   -6260.40026851 Ry
     estimated scf accuracy    <       0.01112170 Ry

     iteration #  8     ecut=   120.00 Ry     beta= 0.70
     Davidson diagonalization with overlap
     ethr =  3.01E-06,  avg # of iterations =  2.5

     total cpu time spent up to now is     1179.4 secs

     total energy              =   -6260.39776306 Ry
     Harris-Foulkes estimate   =   -6260.39909806 Ry
     estimated scf accuracy    <       0.00570607 Ry

     iteration #  9     ecut=   120.00 Ry     beta= 0.70
     Davidson diagonalization with overlap
     ethr =  1.55E-06,  avg # of iterations =  4.9

     total cpu time spent up to now is     1309.0 secs

     total energy              =   -6260.39799760 Ry
     Harris-Foulkes estimate   =   -6260.39833108 Ry
     estimated scf accuracy    <       0.00124781 Ry

     iteration # 10     ecut=   120.00 Ry     beta= 0.70
     Davidson diagonalization with overlap
     ethr =  3.38E-07,  avg # of iterations =  3.1

     total cpu time spent up to now is     1437.7 secs

     total energy              =   -6260.39817945 Ry
     Harris-Foulkes estimate   =   -6260.39823710 Ry
     estimated scf accuracy    <       0.00050196 Ry

     iteration # 11     ecut=   120.00 Ry     beta= 0.70
     Davidson diagonalization with overlap
     ethr =  1.36E-07,  avg # of iterations =  1.1

     total cpu time spent up to now is     1555.6 secs

     total energy              =   -6260.39819929 Ry
     Harris-Foulkes estimate   =   -6260.39820462 Ry
     estimated scf accuracy    <       0.00002202 Ry

     iteration # 12     ecut=   120.00 Ry     beta= 0.70
     Davidson diagonalization with overlap
     ethr =  5.97E-09,  avg # of iterations =  2.4

     total cpu time spent up to now is     1676.7 secs

     total energy              =   -6260.39820041 Ry
     Harris-Foulkes estimate   =   -6260.39820338 Ry
     estimated scf accuracy    <       0.00001430 Ry

     iteration # 13     ecut=   120.00 Ry     beta= 0.70
     Davidson diagonalization with overlap
     ethr =  3.88E-09,  avg # of iterations =  1.1

     total cpu time spent up to now is     1797.4 secs

     total energy              =   -6260.39820204 Ry
     Harris-Foulkes estimate   =   -6260.39820332 Ry
     estimated scf accuracy    <       0.00001455 Ry

     iteration # 14     ecut=   120.00 Ry     beta= 0.70
     Davidson diagonalization with overlap
     ethr =  3.88E-09,  avg # of iterations =  1.0

     total cpu time spent up to now is     1913.5 secs

     total energy              =   -6260.39820254 Ry
     Harris-Foulkes estimate   =   -6260.39820259 Ry
     estimated scf accuracy    <       0.00000035 Ry

     iteration # 15     ecut=   120.00 Ry     beta= 0.70
     Davidson diagonalization with overlap
     ethr =  9.59E-11,  avg # of iterations =  2.0

     total cpu time spent up to now is     2030.1 secs

     End of self-consistent calculation

          k = 0.0000 0.0000 0.0000 ( 62583 PWs)   bands (ev):

   -66.0515 -66.0507 -66.0506 -66.0506 -66.0498 -66.0497 -66.0497 -66.0489
   -30.4959 -30.4908 -30.4905 -30.4855 -30.4418 -30.4323 -30.4320 -30.4216
   -30.4111 -30.3998 -30.3985 -30.3982 -30.3857 -30.3829 -30.3817 -30.3792
   -30.3163 -30.3135 -30.3130 -30.3103 -30.2906 -30.2895 -30.2859 -30.2845
   -20.1989 -20.1986 -20.1984 -20.1981 -20.1948 -20.1947 -20.1942 -20.1940
   -20.1932 -20.1931 -20.1928 -20.1926 -20.1921 -20.1920 -20.1915 -20.1913
   -20.1877 -20.1873 -20.1873 -20.1870 -20.1864 -20.1860 -20.1856 -20.1851
   -20.1847 -20.1846 -20.1843 -20.1836 -20.1829 -20.1828 -20.1827 -20.1820
   -20.1732 -20.1727 -20.1726 -20.1725 -20.1722 -20.1719 -20.1718 -20.1714
   -20.1448 -20.1436 -20.1434 -20.1427 -20.1423 -20.1416 -20.1416 -20.1412
   -20.1394 -20.1381 -20.1376 -20.1374 -20.1374 -20.1368 -20.1358 -20.1355
    -9.9775  -9.6680  -9.5710  -9.5706  -9.2657  -9.2600  -9.1788  -9.0447
    -9.0313  -8.9536  -8.9230  -8.9216  -7.9051  -7.8365  -7.8316  -7.7996
    -7.7938  -7.7771  -7.7457  -7.7346  -7.6842  -7.6812  -7.6266  -7.6258
     1.1961   1.2025   1.2547   1.2622   1.3047   1.3052   1.3163   1.5059
     1.5433   1.5535   1.5872   1.7919   2.4160   2.5021   2.5078   2.5306
     2.6521   2.6628   4.1649   4.1809   4.3749   4.4040   4.6852   4.7381
     4.7489   4.7599   4.7826   4.7839   4.9361   4.9391   5.0951   5.4088
     5.4096   5.4281   5.4344   5.5232   5.5280   5.5708   5.5902   5.7764
     5.7845   5.8009   5.8184   5.8403   5.9417   6.0280   6.0391   6.0960
     6.0994   6.2669   6.2881   6.4311   6.4334   6.7499   6.7926   6.8155
     6.8450   6.8602   6.9481   6.9949   7.0172   7.0299   7.2263   7.2419
     7.3201   7.3349   7.8822   7.8977   8.0122   8.0412   8.0646   8.1138
     9.3596   9.3784   9.8795   9.8858   9.8953   9.8963  12.3166  12.3292
    12.3790  12.3818  12.4892  12.5004  12.5410  12.5935  12.8202  12.9859
    13.1912  13.2638  13.2838  13.3522  13.7798  13.9716  14.0690  14.1279
    14.3302  14.4963  14.5760  14.7311  15.3319  15.3434  15.5783  16.0194
    16.0389  16.8512  17.0298  17.0525  17.1864  17.3848

          k = 0.0000 0.0000 0.1665 ( 62639 PWs)   bands (ev):

   -66.0514 -66.0506 -66.0506 -66.0505 -66.0498 -66.0497 -66.0497 -66.0489
   -30.4955 -30.4911 -30.4902 -30.4859 -30.4405 -30.4327 -30.4305 -30.4220
   -30.4081 -30.3986 -30.3959 -30.3949 -30.3840 -30.3796 -30.3785 -30.3751
   -30.3226 -30.3192 -30.3126 -30.3117 -30.2969 -30.2913 -30.2892 -30.2854
   -20.1989 -20.1986 -20.1985 -20.1981 -20.1948 -20.1946 -20.1942 -20.1941
   -20.1932 -20.1931 -20.1928 -20.1926 -20.1921 -20.1920 -20.1915 -20.1913
   -20.1876 -20.1872 -20.1871 -20.1871 -20.1862 -20.1860 -20.1856 -20.1849
   -20.1848 -20.1848 -20.1844 -20.1836 -20.1830 -20.1828 -20.1827 -20.1821
   -20.1732 -20.1727 -20.1726 -20.1725 -20.1722 -20.1719 -20.1718 -20.1714
   -20.1445 -20.1434 -20.1431 -20.1426 -20.1422 -20.1417 -20.1413 -20.1412
   -20.1398 -20.1385 -20.1379 -20.1375 -20.1373 -20.1370 -20.1359 -20.1357
    -9.9331  -9.6150  -9.5860  -9.5138  -9.2722  -9.1871  -9.1777  -9.0092
    -8.9929  -8.9362  -8.9254  -8.8879  -7.9421  -7.8878  -7.8709  -7.8402
    -7.8380  -7.7996  -7.7863  -7.7804  -7.7554  -7.7309  -7.6886  -7.6332
     1.2552   1.2623   1.2961   1.3200   1.3817   1.4019   1.5005   1.5500
     1.5547   1.6672   1.7614   1.9198   2.5003   2.5206   2.5961   2.6088
     2.6435   2.7497   4.0926   4.1677   4.3293   4.3908   4.4034   4.4265
     4.5329   4.7049   4.7087   4.8108   4.8171   4.9384   5.0798   5.2363
     5.3215   5.3898   5.4276   5.5163   5.5412   5.5495   5.5877   5.5995
     5.6900   5.7618   5.8288   5.8341   5.9602   5.9960   6.0855   6.0991
     6.2638   6.3611   6.4213   6.4924   6.6580   6.6975   6.7019   6.7567
     6.8069   6.8528   6.8847   6.9257   6.9977   7.0273   7.0601   7.0828
     7.0964   7.1830   7.8735   7.8802   7.9980   8.0327   8.0452   8.0897
     9.6839   9.7016   9.8843   9.8998  10.1523  10.1858  12.2517  12.3085
    12.3776  12.3956  12.4253  12.5302  12.5706  12.6583  12.8188  12.9127
    13.0412  13.2676  13.2745  13.3403  13.8389  13.9705  13.9767  14.0187
    14.3502  14.5716  14.6006  14.8412  15.3790  15.4084  15.5453  16.0108
    16.3452  16.7396  17.0232  17.2173  17.2746  17.4325

          k = 0.0000 0.0000 0.3331 ( 62550 PWs)   bands (ev):

   -66.0513 -66.0508 -66.0504 -66.0503 -66.0500 -66.0499 -66.0495 -66.0491
   -30.4946 -30.4920 -30.4893 -30.4868 -30.4380 -30.4339 -30.4276 -30.4232
   -30.4037 -30.3997 -30.3844 -30.3829 -30.3805 -30.3797 -30.3620 -30.3578
   -30.3397 -30.3359 -30.3178 -30.3132 -30.3116 -30.3043 -30.2884 -30.2862
   -20.1988 -20.1986 -20.1985 -20.1982 -20.1947 -20.1945 -20.1943 -20.1942
   -20.1932 -20.1931 -20.1927 -20.1927 -20.1921 -20.1920 -20.1914 -20.1914
   -20.1874 -20.1871 -20.1867 -20.1866 -20.1859 -20.1858 -20.1857 -20.1853
   -20.1852 -20.1848 -20.1846 -20.1835 -20.1834 -20.1831 -20.1827 -20.1823
   -20.1730 -20.1727 -20.1726 -20.1723 -20.1723 -20.1720 -20.1717 -20.1715
   -20.1436 -20.1429 -20.1424 -20.1422 -20.1420 -20.1416 -20.1415 -20.1409
   -20.1403 -20.1395 -20.1390 -20.1377 -20.1371 -20.1370 -20.1362 -20.1362
    -9.8266  -9.6326  -9.4933  -9.3851  -9.3104  -9.2151  -8.9683  -8.9357
    -8.9278  -8.8536  -8.8085  -8.7547  -8.2355  -8.1780  -8.1535  -8.0984
    -7.8747  -7.8504  -7.8125  -7.7894  -7.7648  -7.7102  -7.7089  -7.6535
     1.2632   1.2663   1.3301   1.3439   1.4628   1.4889   1.5055   1.5434
     2.2472   2.3037   2.4154   2.5004   2.5441   2.6301   2.7484   2.8447
     2.8572   2.9874   3.7227   3.8035   3.8428   3.9871   4.0515   4.2820
     4.3542   4.4985   4.5113   4.6678   4.6840   4.7613   4.9068   5.0234
     5.0707   5.0936   5.1762   5.3045   5.3753   5.4516   5.6247   5.6527
     5.7128   5.7156   5.8033   5.8822   5.9891   6.1298   6.1738   6.1936
     6.3046   6.3282   6.4003   6.4282   6.5111   6.5190   6.5707   6.7400
     6.7707   6.8472   6.8483   6.9393   6.9849   7.0323   7.0344   7.1092
     7.2297   7.2723   7.7644   7.7859   7.8655   7.9110   8.0639   8.0811
     9.8638   9.8797  10.3889  10.4636  10.7816  10.8609  11.8601  11.9357
    12.1094  12.3797  12.5318  12.5835  12.6000  12.6722  12.7336  12.8802
    12.8946  13.1749  13.2076  13.2907  13.6394  13.6854  13.9686  13.9711
    14.4535  14.5574  14.9168  15.1388  15.4384  15.5638  15.8366  15.9208
    16.1678  17.2198  17.3264  17.5200  17.5718  17.5733

          k = 0.0000 0.0000-0.4996 ( 62704 PWs)   bands (ev):

   -66.0510 -66.0510 -66.0502 -66.0502 -66.0501 -66.0501 -66.0493 -66.0493
   -30.4933 -30.4933 -30.4880 -30.4880 -30.4357 -30.4357 -30.4250 -30.4250
   -30.4013 -30.4013 -30.3819 -30.3819 -30.3624 -30.3624 -30.3585 -30.3585
   -30.3389 -30.3388 -30.3348 -30.3348 -30.3098 -30.3098 -30.2873 -30.2873
   -20.1987 -20.1987 -20.1984 -20.1984 -20.1945 -20.1945 -20.1944 -20.1944
   -20.1931 -20.1931 -20.1927 -20.1927 -20.1921 -20.1921 -20.1914 -20.1914
   -20.1872 -20.1872 -20.1861 -20.1861 -20.1860 -20.1859 -20.1856 -20.1856
   -20.1852 -20.1852 -20.1840 -20.1840 -20.1833 -20.1833 -20.1825 -20.1825
   -20.1729 -20.1729 -20.1724 -20.1724 -20.1721 -20.1721 -20.1716 -20.1716
   -20.1424 -20.1424 -20.1423 -20.1423 -20.1420 -20.1419 -20.1409 -20.1409
   -20.1403 -20.1403 -20.1390 -20.1390 -20.1367 -20.1367 -20.1366 -20.1366
    -9.7144  -9.7144  -9.3811  -9.3811  -9.2750  -9.2750  -8.9501  -8.9501
    -8.5880  -8.5880  -8.5557  -8.5557  -8.5325  -8.5325  -8.4752  -8.4752
    -7.8638  -7.8638  -7.8014  -7.8014  -7.7368  -7.7368  -7.6817  -7.6817
     1.2651   1.2651   1.3421   1.3421   1.4770   1.4770   1.5351   1.5351
     2.5756   2.5756   2.9947   2.9947   3.0971   3.0971   3.1413   3.1413
     3.2516   3.2516   3.2985   3.2985   3.4717   3.4717   3.7386   3.7386
     3.7826   3.7827   4.4457   4.4457   4.6242   4.6242   4.9175   4.9175
     5.1687   5.1687   5.2545   5.2545   5.2954   5.2954   5.6726   5.6726
     5.7417   5.7417   5.9174   5.9174   6.0522   6.0522   6.1910   6.1910
     6.2439   6.2439   6.3239   6.3239   6.4338   6.4338   6.5235   6.5235
     6.7634   6.7634   6.8444   6.8444   7.0134   7.0134   7.4691   7.4691
     7.5301   7.5301   7.6139   7.6139   7.6518   7.6518   8.0774   8.0775
     9.8728   9.8728  11.1751  11.1751  11.2584  11.2584  11.5124  11.5124
    11.6577  11.6577  12.6113  12.6113  12.7400  12.7400  12.8927  12.8927
    12.9333  12.9333  13.2585  13.2585  13.3908  13.3908  13.9695  13.9695
    14.5267  14.5267  15.2341  15.2341  15.5850  15.5850  15.7860  15.7860
    16.6168  16.6168  17.7432  17.7433  17.8774  17.8774

          k = 0.0000 0.1601 0.0000 ( 62633 PWs)   bands (ev):

   -66.0515 -66.0507 -66.0506 -66.0506 -66.0498 -66.0498 -66.0497 -66.0489
   -30.4918 -30.4866 -30.4863 -30.4813 -30.4445 -30.4356 -30.4351 -30.4259
   -30.4107 -30.4008 -30.4000 -30.3989 -30.3856 -30.3833 -30.3818 -30.3795
   -30.3164 -30.3133 -30.3130 -30.3105 -30.2906 -30.2895 -30.2858 -30.2846
   -20.1986 -20.1983 -20.1981 -20.1977 -20.1950 -20.1948 -20.1943 -20.1941
   -20.1932 -20.1931 -20.1928 -20.1926 -20.1923 -20.1922 -20.1917 -20.1915
   -20.1876 -20.1873 -20.1872 -20.1870 -20.1864 -20.1861 -20.1857 -20.1851
   -20.1847 -20.1846 -20.1843 -20.1836 -20.1830 -20.1828 -20.1827 -20.1821
   -20.1732 -20.1727 -20.1726 -20.1725 -20.1722 -20.1719 -20.1718 -20.1714
   -20.1448 -20.1436 -20.1434 -20.1427 -20.1423 -20.1416 -20.1416 -20.1412
   -20.1394 -20.1381 -20.1376 -20.1374 -20.1374 -20.1368 -20.1358 -20.1355
    -9.9450  -9.6799  -9.5303  -9.5299  -9.2725  -9.2670  -9.1016  -9.0436
    -9.0310  -8.9086  -8.8857  -8.8847  -7.9983  -7.9404  -7.9362  -7.8904
    -7.8029  -7.7968  -7.7463  -7.7362  -7.6850  -7.6826  -7.6276  -7.6267
     1.1969   1.2021   1.2690   1.2804   1.3115   1.3225   1.4395   1.5868
     1.7069   1.7683   1.7764   1.9472   2.4224   2.5013   2.5761   2.6072
     2.7239   2.7360   4.0187   4.0382   4.0916   4.1153   4.6495   4.7317
     4.7472   4.7721   4.7809   4.8227   4.8904   4.8907   4.9625   5.2470
     5.2597   5.3988   5.3996   5.5570   5.6066   5.6143   5.6215   5.6639
     5.7177   5.7308   5.8449   5.9077   5.9204   6.0355   6.0379   6.0927
     6.1017   6.2607   6.2771   6.4577   6.4679   6.7262   6.7947   6.8114
     6.8295   6.8668   6.8834   6.9392   6.9449   6.9473   7.2289   7.2444
     7.3233   7.3379   7.8829   7.8961   7.9770   8.0009   8.0023   8.0362
     9.3653   9.3787  10.0802  10.0813  10.0980  10.0989  12.1974  12.2329
    12.3726  12.3751  12.3882  12.4220  12.4825  12.4959  12.8445  13.0018
    13.2077  13.2639  13.2819  13.3675  13.8974  13.9424  14.0021  14.0276
    14.4165  14.7291  14.7714  14.9123  15.3311  15.3398  15.9838  15.9899
    16.0072  16.5164  17.1730  17.1955  17.2518  17.4500

          k = 0.0000 0.1601 0.1665 ( 62623 PWs)   bands (ev):

   -66.0514 -66.0506 -66.0506 -66.0505 -66.0499 -66.0497 -66.0497 -66.0489
   -30.4914 -30.4869 -30.4860 -30.4816 -30.4434 -30.4360 -30.4339 -30.4263
   -30.4077 -30.3993 -30.3972 -30.3957 -30.3842 -30.3798 -30.3786 -30.3751
   -30.3227 -30.3192 -30.3126 -30.3118 -30.2969 -30.2913 -30.2892 -30.2854
   -20.1986 -20.1983 -20.1981 -20.1978 -20.1949 -20.1947 -20.1943 -20.1942
   -20.1932 -20.1931 -20.1928 -20.1926 -20.1923 -20.1922 -20.1917 -20.1916
   -20.1875 -20.1871 -20.1871 -20.1870 -20.1862 -20.1860 -20.1857 -20.1850
   -20.1848 -20.1847 -20.1844 -20.1836 -20.1830 -20.1829 -20.1828 -20.1822
   -20.1732 -20.1727 -20.1726 -20.1725 -20.1723 -20.1719 -20.1718 -20.1714
   -20.1445 -20.1434 -20.1431 -20.1426 -20.1422 -20.1417 -20.1413 -20.1412
   -20.1398 -20.1385 -20.1379 -20.1375 -20.1373 -20.1370 -20.1359 -20.1357
    -9.8993  -9.6269  -9.5451  -9.4684  -9.2796  -9.1847  -9.1099  -9.0062
    -8.9913  -8.8957  -8.8884  -8.8556  -8.0025  -7.9523  -7.9373  -7.9154
    -7.8982  -7.8612  -7.8121  -7.7911  -7.7538  -7.7321  -7.6900  -7.6341
     1.2704   1.2826   1.3017   1.3267   1.4958   1.5379   1.5613   1.7132
     1.7599   1.7747   1.8060   2.0191   2.5086   2.5881   2.5950   2.6861
     2.7163   2.8224   3.9967   4.0341   4.1046   4.1363   4.3593   4.4223
     4.5595   4.6223   4.6965   4.8010   4.8113   4.9004   4.9457   5.1677
     5.2079   5.2983   5.3183   5.4076   5.4853   5.5540   5.6060   5.6740
     5.7126   5.7422   5.8057   5.8529   5.8802   6.0384   6.0712   6.1004
     6.2221   6.3294   6.4543   6.4686   6.6572   6.7222   6.7282   6.7684
     6.7920   6.8704   6.8929   6.9136   6.9448   6.9589   7.0619   7.0845
     7.0992   7.1880   7.8725   7.8800   7.9597   7.9830   7.9843   8.0181
     9.6958   9.7117  10.0822  10.1019  10.3179  10.3428  12.2004  12.2620
    12.2847  12.3743  12.3939  12.4201  12.4755  12.5631  12.8499  12.9387
    13.0409  13.2648  13.2703  13.3485  13.8492  13.8913  13.9417  13.9639
    14.5011  14.7644  14.8812  15.0038  15.3782  15.4078  15.9447  15.9855
    16.3139  16.6671  16.8674  17.3284  17.3443  17.5233

          k = 0.0000 0.1601 0.3331 ( 62634 PWs)   bands (ev):

   -66.0512 -66.0508 -66.0505 -66.0503 -66.0500 -66.0499 -66.0495 -66.0491
   -30.4905 -30.4879 -30.4850 -30.4825 -30.4411 -30.4371 -30.4314 -30.4274
   -30.4040 -30.4004 -30.3845 -30.3835 -30.3807 -30.3801 -30.3620 -30.3578
   -30.3398 -30.3360 -30.3178 -30.3132 -30.3116 -30.3043 -30.2884 -30.2863
   -20.1985 -20.1982 -20.1982 -20.1979 -20.1948 -20.1946 -20.1945 -20.1943
   -20.1932 -20.1931 -20.1927 -20.1927 -20.1923 -20.1922 -20.1917 -20.1916
   -20.1873 -20.1870 -20.1867 -20.1866 -20.1859 -20.1858 -20.1857 -20.1853
   -20.1852 -20.1847 -20.1846 -20.1835 -20.1834 -20.1831 -20.1827 -20.1824
   -20.1730 -20.1727 -20.1726 -20.1723 -20.1723 -20.1720 -20.1717 -20.1715
   -20.1436 -20.1429 -20.1424 -20.1422 -20.1420 -20.1416 -20.1415 -20.1409
   -20.1403 -20.1395 -20.1390 -20.1377 -20.1372 -20.1370 -20.1362 -20.1362
    -9.7896  -9.5920  -9.5047  -9.3252  -9.3185  -9.1385  -8.9423  -8.9327
    -8.8987  -8.8528  -8.7965  -8.7369  -8.2380  -8.1813  -8.1625  -8.1037
    -7.9678  -7.9479  -7.9174  -7.8919  -7.7674  -7.7112  -7.7106  -7.6545
     1.2897   1.3021   1.3377   1.3533   1.6679   1.6811   1.7494   1.7698
     2.2473   2.3108   2.4175   2.5143   2.6184   2.6971   2.7590   2.8501
     2.9270   3.0543   3.7264   3.8170   3.8354   3.9293   4.0988   4.1400
     4.1482   4.3015   4.5252   4.6177   4.6491   4.7429   4.7791   4.8788
     4.9469   5.0676   5.1078   5.1447   5.3287   5.3429   5.4722   5.6087
     5.6712   5.7422   5.7745   5.8526   5.8976   6.0648   6.1482   6.2202
     6.2660   6.4068   6.4371   6.5089   6.5638   6.6141   6.6875   6.7456
     6.7843   6.8140   6.8698   6.9032   6.9425   6.9761   7.0719   7.1029
     7.2292   7.2709   7.7682   7.7816   7.8342   7.8630   8.0014   8.0140
    10.0726  10.0835  10.3996  10.4695  10.8967  10.9567  11.8605  11.9360
    12.0935  12.4105  12.4252  12.4852  12.5473  12.6344  12.6566  12.7887
    12.9046  13.1732  13.1993  13.2767  13.5312  13.6001  13.9400  13.9539
    14.6597  14.7516  15.2560  15.2757  15.5582  15.8281  15.8633  15.9063
    16.2916  17.1011  17.1812  17.3927  17.5723  17.7737

          k = 0.0000 0.1601-0.4996 ( 62626 PWs)   bands (ev):

   -66.0510 -66.0510 -66.0502 -66.0502 -66.0501 -66.0501 -66.0493 -66.0493
   -30.4892 -30.4891 -30.4838 -30.4838 -30.4389 -30.4389 -30.4292 -30.4292
   -30.4019 -30.4019 -30.3821 -30.3821 -30.3626 -30.3626 -30.3587 -30.3587
   -30.3389 -30.3389 -30.3348 -30.3348 -30.3098 -30.3098 -30.2873 -30.2873
   -20.1984 -20.1984 -20.1980 -20.1980 -20.1946 -20.1946 -20.1945 -20.1945
   -20.1931 -20.1931 -20.1927 -20.1927 -20.1923 -20.1923 -20.1916 -20.1916
   -20.1872 -20.1872 -20.1861 -20.1861 -20.1859 -20.1859 -20.1857 -20.1857
   -20.1852 -20.1852 -20.1840 -20.1840 -20.1833 -20.1833 -20.1826 -20.1826
   -20.1729 -20.1729 -20.1724 -20.1724 -20.1721 -20.1721 -20.1716 -20.1716
   -20.1424 -20.1424 -20.1423 -20.1423 -20.1419 -20.1419 -20.1409 -20.1409
   -20.1403 -20.1403 -20.1390 -20.1390 -20.1367 -20.1367 -20.1366 -20.1366
    -9.6749  -9.6749  -9.3908  -9.3908  -9.2023  -9.2023  -8.9141  -8.9141
    -8.5898  -8.5898  -8.5625  -8.5625  -8.5310  -8.5310  -8.4711  -8.4711
    -7.9612  -7.9611  -7.9070  -7.9070  -7.7389  -7.7389  -7.6827  -7.6827
     1.2988   1.2988   1.3506   1.3506   1.6845   1.6845   1.7674   1.7674
     2.6471   2.6471   3.0108   3.0108   3.1211   3.1211   3.1531   3.1531
     3.2648   3.2648   3.2955   3.2955   3.4650   3.4650   3.7510   3.7510
     3.8319   3.8319   4.2183   4.2183   4.5460   4.5460   4.7312   4.7312
     5.0004   5.0004   5.2193   5.2193   5.2850   5.2850   5.4624   5.4624
     5.6832   5.6832   5.8206   5.8206   6.0645   6.0645   6.2276   6.2276
     6.2900   6.2900   6.3632   6.3632   6.5069   6.5069   6.6290   6.6290
     6.8222   6.8222   6.8333   6.8333   6.9281   6.9281   7.4803   7.4803
     7.5238   7.5238   7.5952   7.5952   7.6289   7.6289   8.0112   8.0112
    10.0825  10.0825  11.1815  11.1815  11.2590  11.2590  11.5821  11.5821
    11.7191  11.7191  12.4556  12.4556  12.7303  12.7303  12.8616  12.8617
    12.9109  12.9109  13.1505  13.1505  13.3445  13.3445  13.9422  13.9422
    14.7254  14.7254  15.5881  15.5881  15.7194  15.7194  15.7913  15.7913
    16.6680  16.6681  17.5359  17.5359  17.8964  18.0278

          k = 0.0000 0.3201 0.0000 ( 62734 PWs)   bands (ev):

   -66.0514 -66.0507 -66.0505 -66.0505 -66.0498 -66.0498 -66.0496 -66.0489
   -30.4808 -30.4753 -30.4750 -30.4696 -30.4530 -30.4453 -30.4447 -30.4376
   -30.4094 -30.4035 -30.4026 -30.4003 -30.3853 -30.3841 -30.3818 -30.3798
   -30.3165 -30.3130 -30.3130 -30.3109 -30.2907 -30.2896 -30.2856 -30.2849
   -20.1978 -20.1975 -20.1972 -20.1968 -20.1954 -20.1951 -20.1948 -20.1945
   -20.1932 -20.1931 -20.1928 -20.1927 -20.1926 -20.1926 -20.1922 -20.1921
   -20.1875 -20.1873 -20.1871 -20.1867 -20.1864 -20.1863 -20.1860 -20.1853
   -20.1845 -20.1845 -20.1842 -20.1835 -20.1832 -20.1830 -20.1829 -20.1822
   -20.1732 -20.1727 -20.1726 -20.1725 -20.1722 -20.1719 -20.1718 -20.1714
   -20.1448 -20.1436 -20.1434 -20.1427 -20.1423 -20.1416 -20.1416 -20.1412
   -20.1394 -20.1381 -20.1376 -20.1374 -20.1374 -20.1368 -20.1358 -20.1355
    -9.8663  -9.7170  -9.4409  -9.4387  -9.2943  -9.2898  -9.0406  -9.0328
    -8.8830  -8.7636  -8.7561  -8.7552  -8.2500  -8.2048  -8.2015  -8.1775
    -7.8033  -7.7970  -7.7466  -7.7401  -7.6844  -7.6823  -7.6294  -7.6287
     1.1974   1.2011   1.2754   1.2885   1.3172   1.3286   1.5519   1.5847
     2.2928   2.4236   2.4349   2.4388   2.4842   2.5802   2.7925   2.8433
     2.9351   2.9563   3.5989   3.6266   3.6457   3.6704   4.1048   4.4238
     4.4424   4.6958   4.7349   4.7564   4.7703   4.7890   4.9736   4.9896
     4.9971   5.0181   5.3034   5.3137   5.5231   5.5305   5.6625   5.6722
     5.8639   5.8743   5.8796   5.8835   5.9469   6.0347   6.0536   6.1058
     6.1250   6.2133   6.2367   6.4660   6.5208   6.5314   6.7762   6.7871
     6.8320   6.9224   7.0607   7.0611   7.0637   7.0646   7.2337   7.2489
     7.3285   7.3430   7.7777   7.7985   7.8119   7.8248   7.9000   7.9010
     9.3724   9.3785  10.5737  10.5914  10.6235  10.6440  11.8068  11.8422
    11.9219  11.9626  12.3827  12.3999  12.4846  12.4993  12.9088  13.0170
    13.2898  13.3270  13.3451  13.4236  13.7490  13.7556  13.7780  13.7969
    14.8411  15.2503  15.2628  15.3308  15.3325  15.5859  15.8890  15.9009
    15.9428  16.9878  17.1936  17.4455  17.6613  17.6812

          k = 0.0000 0.3201 0.1665 ( 62652 PWs)   bands (ev):

   -66.0514 -66.0507 -66.0506 -66.0505 -66.0499 -66.0497 -66.0497 -66.0490
   -30.4803 -30.4756 -30.4746 -30.4699 -30.4522 -30.4456 -30.4439 -30.4379
   -30.4068 -30.4006 -30.4000 -30.3971 -30.3845 -30.3802 -30.3787 -30.3752
   -30.3228 -30.3191 -30.3127 -30.3119 -30.2969 -30.2912 -30.2893 -30.2855
   -20.1977 -20.1974 -20.1972 -20.1969 -20.1953 -20.1950 -20.1948 -20.1945
   -20.1932 -20.1931 -20.1928 -20.1927 -20.1926 -20.1926 -20.1922 -20.1921
   -20.1873 -20.1871 -20.1870 -20.1867 -20.1863 -20.1862 -20.1860 -20.1851
   -20.1847 -20.1847 -20.1843 -20.1835 -20.1832 -20.1830 -20.1830 -20.1823
   -20.1732 -20.1727 -20.1726 -20.1725 -20.1723 -20.1719 -20.1718 -20.1714
   -20.1445 -20.1434 -20.1431 -20.1426 -20.1422 -20.1417 -20.1413 -20.1412
   -20.1398 -20.1385 -20.1379 -20.1375 -20.1373 -20.1370 -20.1359 -20.1357
    -9.8176  -9.6643  -9.4536  -9.3663  -9.3031  -9.2075  -9.0022  -8.9919
    -8.8911  -8.7599  -8.7563  -8.7380  -8.2504  -8.2119  -8.1987  -8.1836
    -7.9224  -7.8658  -7.8133  -7.7931  -7.7547  -7.7345  -7.6898  -7.6361
     1.2738   1.2915   1.3037   1.3331   1.5308   1.5733   1.7107   1.7624
     2.2965   2.4113   2.4330   2.5250   2.5719   2.5778   2.8127   2.9194
     2.9345   3.0459   3.6235   3.6401   3.6629   3.7007   4.0920   4.3769
     4.3812   4.4391   4.4651   4.6760   4.6982   4.7771   4.8097   4.8383
     4.9794   5.0256   5.1059   5.2649   5.3238   5.4100   5.5336   5.6286
     5.6627   5.7426   5.7894   5.8591   6.0024   6.0357   6.1046   6.1188
     6.1979   6.3301   6.4341   6.5083   6.5379   6.7591   6.7640   6.8714
     6.8940   6.9299   7.0049   7.0151   7.0375   7.0564   7.0864   7.1247
     7.1366   7.2071   7.7651   7.7886   7.7945   7.8044   7.8852   7.8907
     9.7039   9.7203  10.5956  10.6357  10.7508  10.7993  11.8393  11.8936
    11.9467  12.0187  12.2795  12.3694  12.4534  12.5474  12.9329  12.9897
    13.1268  13.2760  13.3246  13.3763  13.6159  13.6762  13.7465  13.7839
    14.9635  15.2505  15.3612  15.4147  15.4905  15.6531  15.8743  16.0999
    16.2059  16.9524  17.2386  17.2908  17.5143  17.7690

          k = 0.0000 0.3201 0.3331 ( 62636 PWs)   bands (ev):

   -66.0512 -66.0507 -66.0505 -66.0503 -66.0501 -66.0498 -66.0496 -66.0491
   -30.4793 -30.4766 -30.4735 -30.4709 -30.4503 -30.4467 -30.4423 -30.4390
   -30.4046 -30.4016 -30.3853 -30.3841 -30.3811 -30.3808 -30.3620 -30.3579
   -30.3399 -30.3361 -30.3179 -30.3133 -30.3117 -30.3043 -30.2885 -30.2863
   -20.1976 -20.1973 -20.1973 -20.1970 -20.1952 -20.1950 -20.1949 -20.1947
   -20.1932 -20.1931 -20.1927 -20.1927 -20.1926 -20.1926 -20.1922 -20.1921
   -20.1871 -20.1868 -20.1866 -20.1866 -20.1861 -20.1861 -20.1857 -20.1852
   -20.1851 -20.1847 -20.1846 -20.1835 -20.1834 -20.1832 -20.1829 -20.1825
   -20.1730 -20.1727 -20.1726 -20.1723 -20.1723 -20.1720 -20.1717 -20.1715
   -20.1436 -20.1429 -20.1424 -20.1422 -20.1420 -20.1416 -20.1415 -20.1409
   -20.1403 -20.1395 -20.1390 -20.1377 -20.1372 -20.1370 -20.1362 -20.1362
    -9.7014  -9.5408  -9.4998  -9.3448  -9.1784  -8.9622  -8.9218  -8.8877
    -8.8520  -8.7720  -8.7159  -8.6638  -8.2987  -8.2772  -8.2102  -8.1968
    -8.1896  -8.1310  -8.1145  -8.0508  -7.7674  -7.7135  -7.7104  -7.6566
     1.3005   1.3137   1.3449   1.3610   2.1478   2.2298   2.2458   2.3218
     2.4080   2.4437   2.4634   2.6733   2.7826   2.8168   2.8401   2.9196
     3.1649   3.2594   3.6034   3.6283   3.7035   3.7696   3.8209   3.8381
     4.0637   4.1940   4.3141   4.3540   4.4042   4.5311   4.5789   4.6994
     4.7687   4.7922   4.9345   4.9983   5.0916   5.1544   5.1834   5.2733
     5.3414   5.5452   5.5950   5.8041   6.1003   6.1206   6.1540   6.2629
     6.3497   6.4393   6.5087   6.5995   6.6321   6.7143   6.7377   6.7922
     6.8745   6.9413   6.9889   7.0031   7.0288   7.0876   7.1280   7.1745
     7.2317   7.2732   7.6840   7.6972   7.7544   7.7847   7.8016   7.8357
    10.4019  10.4352  10.6086  10.6546  11.2181  11.2601  11.7981  11.8901
    11.9395  11.9818  12.1707  12.2506  12.5643  12.6031  12.6334  12.7088
    12.9342  13.0739  13.1968  13.2776  13.3268  13.4783  13.7417  13.7636
    15.0995  15.2238  15.4981  15.7889  15.8040  16.0282  16.0484  16.5770
    16.6957  16.8285  17.0453  17.5305  17.6098  17.6661

          k = 0.0000 0.3201-0.4996 ( 62638 PWs)   bands (ev):

   -66.0510 -66.0510 -66.0503 -66.0503 -66.0501 -66.0501 -66.0494 -66.0494
   -30.4779 -30.4779 -30.4722 -30.4722 -30.4484 -30.4484 -30.4405 -30.4405
   -30.4030 -30.4030 -30.3824 -30.3824 -30.3630 -30.3630 -30.3589 -30.3589
   -30.3389 -30.3389 -30.3349 -30.3349 -30.3099 -30.3099 -30.2874 -30.2874
   -20.1975 -20.1975 -20.1972 -20.1972 -20.1951 -20.1951 -20.1948 -20.1948
   -20.1931 -20.1931 -20.1927 -20.1927 -20.1926 -20.1926 -20.1922 -20.1922
   -20.1869 -20.1869 -20.1862 -20.1862 -20.1859 -20.1859 -20.1857 -20.1857
   -20.1851 -20.1851 -20.1841 -20.1841 -20.1833 -20.1833 -20.1827 -20.1827
   -20.1729 -20.1729 -20.1724 -20.1724 -20.1721 -20.1721 -20.1716 -20.1716
   -20.1424 -20.1424 -20.1423 -20.1423 -20.1420 -20.1419 -20.1409 -20.1409
   -20.1403 -20.1403 -20.1390 -20.1390 -20.1367 -20.1367 -20.1366 -20.1366
    -9.5828  -9.5828  -9.4220  -9.4219  -9.0024  -9.0024  -8.7988  -8.7988
    -8.6103  -8.6103  -8.5873  -8.5873  -8.5203  -8.5203  -8.4525  -8.4525
    -8.2029  -8.2029  -8.1605  -8.1605  -7.7388  -7.7388  -7.6848  -7.6848
     1.3113   1.3113   1.3586   1.3586   2.2981   2.2981   2.4252   2.4252
     2.8532   2.8532   3.0549   3.0549   3.1071   3.1071   3.2158   3.2158
     3.2830   3.2830   3.3228   3.3228   3.4412   3.4412   3.6422   3.6422
     3.9664   3.9664   4.0015   4.0015   4.0874   4.0874   4.2964   4.2964
     4.7806   4.7806   4.8811   4.8811   5.0546   5.0546   5.1932   5.1932
     5.3681   5.3681   5.6961   5.6962   6.2044   6.2044   6.2554   6.2554
     6.4058   6.4059   6.4582   6.4582   6.5079   6.5079   6.6976   6.6976
     7.0010   7.0010   7.0142   7.0142   7.0590   7.0591   7.4767   7.4767
     7.4930   7.4930   7.5275   7.5275   7.5687   7.5687   7.8090   7.8090
    10.6091  10.6091  11.1936  11.1936  11.2610  11.2610  11.7150  11.7150
    11.9150  11.9150  12.1013  12.1013  12.6022  12.6022  12.6105  12.6105
    12.9101  12.9101  12.9795  12.9795  13.3498  13.3498  13.7451  13.7451
    15.1740  15.1740  15.6638  15.6638  16.1825  16.1825  16.5523  16.5523
    16.8771  16.8771  17.1428  17.1428  17.9171  17.9171

          k = 0.0000-0.4802 0.0000 ( 62674 PWs)   bands (ev):

   -66.0514 -66.0507 -66.0505 -66.0505 -66.0499 -66.0498 -66.0496 -66.0489
   -30.4666 -30.4660 -30.4623 -30.4621 -30.4577 -30.4567 -30.4538 -30.4533
   -30.4075 -30.4065 -30.4033 -30.4008 -30.3850 -30.3847 -30.3819 -30.3800
   -30.3165 -30.3130 -30.3128 -30.3112 -30.2907 -30.2896 -30.2853 -30.2853
   -20.1971 -20.1969 -20.1963 -20.1961 -20.1958 -20.1954 -20.1954 -20.1950
   -20.1932 -20.1931 -20.1930 -20.1928 -20.1926 -20.1925 -20.1925 -20.1925
   -20.1874 -20.1873 -20.1871 -20.1864 -20.1864 -20.1864 -20.1863 -20.1853
   -20.1845 -20.1845 -20.1841 -20.1835 -20.1833 -20.1832 -20.1829 -20.1823
   -20.1732 -20.1727 -20.1725 -20.1725 -20.1722 -20.1719 -20.1718 -20.1714
   -20.1448 -20.1436 -20.1434 -20.1427 -20.1423 -20.1416 -20.1416 -20.1412
   -20.1394 -20.1381 -20.1376 -20.1374 -20.1374 -20.1368 -20.1358 -20.1355
    -9.7818  -9.7806  -9.3810  -9.3765  -9.3209  -9.3182  -9.0368  -9.0362
    -8.5695  -8.5694  -8.5165  -8.5142  -8.5112  -8.5111  -8.5110  -8.5089
    -7.8016  -7.7975  -7.7456  -7.7433  -7.6838  -7.6816  -7.6303  -7.6297
     1.1977   1.2006   1.2765   1.2899   1.3185   1.3301   1.5769   1.5785
     2.4606   2.4617   3.0293   3.0342   3.1240   3.1329   3.1735   3.1831
     3.2568   3.2668   3.2717   3.2817   3.3969   3.4288   3.5184   3.5332
     3.6264   3.6266   4.7436   4.7542   4.7648   4.7727   5.1229   5.1527
     5.1549   5.1801   5.2486   5.2495   5.2631   5.2636   5.7415   5.7458
     5.7533   5.7557   5.9282   5.9367   6.0392   6.0403   6.0935   6.1096
     6.1404   6.1742   6.2348   6.2461   6.5891   6.5990   6.6727   6.6851
     6.8777   6.8797   7.2292   7.2431   7.3165   7.3259   7.4139   7.4173
     7.4641   7.4683   7.4724   7.4767   7.5045   7.5112   7.8971   7.8972
     9.3765   9.3766  11.1783  11.2086  11.2433  11.2547  11.2731  11.2789
    11.3325  11.3569  12.3867  12.4042  12.4868  12.5022  12.9811  12.9834
    13.4587  13.4755  13.4998  13.5049  13.5201  13.5264  13.5820  13.5941
    15.2907  15.3173  15.3747  15.3994  15.6230  15.6314  15.7076  15.7154
    16.4981  16.4983  17.7561  17.7568  18.0429  18.0439

          k = 0.0000-0.4802 0.1665 ( 62600 PWs)   bands (ev):

   -66.0513 -66.0507 -66.0506 -66.0504 -66.0499 -66.0498 -66.0497 -66.0490
   -30.4658 -30.4657 -30.4624 -30.4614 -30.4582 -30.4565 -30.4542 -30.4536
   -30.4059 -30.4018 -30.4012 -30.3976 -30.3846 -30.3803 -30.3788 -30.3753
   -30.3228 -30.3191 -30.3127 -30.3120 -30.2969 -30.2912 -30.2893 -30.2856
   -20.1970 -20.1968 -20.1964 -20.1961 -20.1958 -20.1955 -20.1954 -20.1951
   -20.1932 -20.1931 -20.1929 -20.1928 -20.1926 -20.1925 -20.1925 -20.1925
   -20.1872 -20.1871 -20.1870 -20.1864 -20.1864 -20.1863 -20.1862 -20.1852
   -20.1847 -20.1846 -20.1842 -20.1834 -20.1833 -20.1831 -20.1831 -20.1823
   -20.1732 -20.1727 -20.1726 -20.1725 -20.1723 -20.1719 -20.1718 -20.1714
   -20.1445 -20.1434 -20.1431 -20.1426 -20.1422 -20.1417 -20.1413 -20.1412
   -20.1398 -20.1385 -20.1379 -20.1375 -20.1373 -20.1370 -20.1359 -20.1357
    -9.7326  -9.7268  -9.3903  -9.3328  -9.2963  -9.2376  -8.9998  -8.9935
    -8.5755  -8.5753  -8.5224  -8.5169  -8.5103  -8.5093  -8.5064  -8.5015
    -7.9222  -7.8669  -7.8128  -7.7931  -7.7552  -7.7358  -7.6891  -7.6372
     1.2742   1.2929   1.3039   1.3346   1.5339   1.5762   1.7363   1.7634
     2.5477   2.5495   3.0354   3.0455   3.1350   3.1525   3.1797   3.1966
     3.2559   3.2717   3.2772   3.3170   3.4132   3.4757   3.5194   3.5639
     3.6555   3.6616   4.3959   4.4010   4.7612   4.8127   4.8830   4.9551
     5.0402   5.0435   5.1319   5.1461   5.2651   5.2768   5.4584   5.4818
     5.7212   5.7212   5.7532   5.7630   6.0173   6.0976   6.1079   6.1351
     6.3119   6.3166   6.3374   6.4471   6.5807   6.6642   6.7853   6.8666
     6.9350   6.9550   7.0435   7.0615   7.0908   7.1565   7.4045   7.4247
     7.4544   7.4585   7.4643   7.4729   7.4951   7.4986   7.8841   7.8844
     9.7061   9.7227  11.2115  11.2726  11.2781  11.2913  11.3536  11.3631
    11.3839  11.4487  12.2811  12.3697  12.4562  12.5490  13.0080  13.0110
    13.2979  13.3221  13.3630  13.3859  13.4972  13.5008  13.5771  13.6100
    15.2860  15.3560  15.5389  15.5979  15.6112  15.6999  15.9228  15.9937
    16.5658  16.5703  17.7142  17.7360  17.7965  17.7985

          k = 0.0000-0.4802 0.3331 ( 62660 PWs)   bands (ev):

   -66.0512 -66.0507 -66.0505 -66.0503 -66.0501 -66.0498 -66.0496 -66.0492
   -30.4651 -30.4636 -30.4631 -30.4595 -30.4594 -30.4561 -30.4555 -30.4543
   -30.4048 -30.4021 -30.3858 -30.3842 -30.3813 -30.3811 -30.3621 -30.3580
   -30.3400 -30.3361 -30.3180 -30.3133 -30.3117 -30.3043 -30.2885 -30.2864
   -20.1969 -20.1967 -20.1965 -20.1963 -20.1958 -20.1956 -20.1954 -20.1952
   -20.1932 -20.1931 -20.1929 -20.1928 -20.1926 -20.1925 -20.1925 -20.1925
   -20.1868 -20.1868 -20.1866 -20.1865 -20.1864 -20.1862 -20.1857 -20.1852
   -20.1851 -20.1848 -20.1846 -20.1836 -20.1834 -20.1833 -20.1830 -20.1826
   -20.1730 -20.1727 -20.1726 -20.1723 -20.1723 -20.1720 -20.1717 -20.1715
   -20.1436 -20.1429 -20.1424 -20.1422 -20.1420 -20.1416 -20.1415 -20.1409
   -20.1403 -20.1395 -20.1390 -20.1377 -20.1372 -20.1370 -20.1362 -20.1362
    -9.6201  -9.5955  -9.4327  -9.3789  -9.0618  -9.0091  -8.8726  -8.8524
    -8.6104  -8.6061  -8.5430  -8.5381  -8.5002  -8.4984  -8.4819  -8.4720
    -8.2130  -8.1610  -8.1228  -8.0719  -7.7667  -7.7146  -7.7097  -7.6577
     1.3021   1.3152   1.3466   1.3625   2.2190   2.2573   2.3780   2.4134
     2.7999   2.8018   3.0368   3.0720   3.1413   3.1899   3.1946   3.2139
     3.2367   3.2611   3.3324   3.3701   3.4348   3.4971   3.6491   3.6828
     3.7347   3.7470   3.8069   3.8270   4.3818   4.3837   4.5365   4.5554
     4.7194   4.7671   4.8085   4.8513   5.1187   5.1572   5.1612   5.1729
     5.3120   5.3419   5.6251   5.6412   6.1380   6.1509   6.1601   6.2851
     6.4362   6.4483   6.4911   6.5852   6.6250   6.6633   6.7220   6.8230
     6.9829   7.0075   7.0890   7.1181   7.1515   7.1599   7.3736   7.4103
     7.4333   7.4476   7.4550   7.4606   7.4823   7.4956   7.7908   7.7951
    10.4137  10.4499  11.2222  11.2605  11.2894  11.3273  11.6710  11.7127
    11.7238  11.7844  11.8865  11.9528  12.6206  12.6948  12.7667  12.7672
    12.8294  12.8639  13.1570  13.2051  13.4927  13.4947  13.5362  13.5594
    15.3345  15.4212  15.5480  15.6339  16.1122  16.1729  16.6914  16.7375
    16.8211  16.8371  17.2237  17.2261  17.8846  17.8910

          k = 0.0000-0.4802-0.4996 ( 62668 PWs)   bands (ev):

   -66.0510 -66.0509 -66.0503 -66.0503 -66.0500 -66.0500 -66.0494 -66.0494
   -30.4642 -30.4642 -30.4613 -30.4613 -30.4573 -30.4573 -30.4553 -30.4553
   -30.4035 -30.4035 -30.3826 -30.3826 -30.3631 -30.3631 -30.3590 -30.3590
   -30.3389 -30.3389 -30.3349 -30.3349 -30.3099 -30.3099 -30.2875 -30.2875
   -20.1967 -20.1967 -20.1965 -20.1965 -20.1957 -20.1957 -20.1953 -20.1953
   -20.1931 -20.1931 -20.1929 -20.1929 -20.1926 -20.1926 -20.1925 -20.1925
   -20.1866 -20.1866 -20.1865 -20.1865 -20.1859 -20.1859 -20.1857 -20.1857
   -20.1851 -20.1851 -20.1842 -20.1842 -20.1834 -20.1834 -20.1828 -20.1828
   -20.1729 -20.1729 -20.1724 -20.1724 -20.1721 -20.1721 -20.1716 -20.1716
   -20.1424 -20.1424 -20.1423 -20.1423 -20.1420 -20.1419 -20.1409 -20.1409
   -20.1403 -20.1403 -20.1390 -20.1390 -20.1367 -20.1367 -20.1366 -20.1366
    -9.5089  -9.5089  -9.4650  -9.4650  -8.7662  -8.7662  -8.7343  -8.7343
    -8.6525  -8.6525  -8.6340  -8.6340  -8.4560  -8.4560  -8.4301  -8.4301
    -8.3956  -8.3955  -8.3634  -8.3634  -7.7381  -7.7381  -7.6860  -7.6860
     1.3131   1.3131   1.3604   1.3604   2.9417   2.9417   3.0241   3.0241
     3.1009   3.1009   3.1296   3.1296   3.1393   3.1393   3.1903   3.1903
     3.2674   3.2674   3.2986   3.2986   3.4050   3.4050   3.4569   3.4569
     3.5392   3.5392   3.6472   3.6472   4.2222   4.2222   4.2599   4.2599
     4.3142   4.3142   4.3666   4.3666   5.1256   5.1256   5.1462   5.1462
     5.4470   5.4470   5.4926   5.4926   6.2486   6.2486   6.2545   6.2545
     6.4462   6.4462   6.5045   6.5045   6.5421   6.5421   6.5918   6.5918
     7.2335   7.2335   7.2657   7.2657   7.2767   7.2767   7.3730   7.3730
     7.4062   7.4062   7.4496   7.4496   7.5693   7.5693   7.5952   7.5952
    11.1399  11.1399  11.1951  11.1951  11.3181  11.3181  11.3541  11.3541
    12.2067  12.2067  12.2083  12.2083  12.2798  12.2798  12.2973  12.2973
    12.8974  12.8974  12.9554  12.9554  13.4975  13.4975  13.5087  13.5087
    15.4458  15.4458  15.5355  15.5356  16.6916  16.6916  16.7359  16.7360
    17.4080  17.4080  17.4388  17.4388  17.5700  17.5700

          k = 0.1667 0.0000 0.0000 ( 62639 PWs)   bands (ev):

   -66.0514 -66.0506 -66.0506 -66.0505 -66.0498 -66.0497 -66.0497 -66.0489
   -30.4955 -30.4908 -30.4904 -30.4859 -30.4405 -30.4324 -30.4309 -30.4220
   -30.4086 -30.4001 -30.3962 -30.3931 -30.3838 -30.3821 -30.3777 -30.3729
   -30.3193 -30.3175 -30.3160 -30.3127 -30.2957 -30.2916 -30.2903 -30.2858
   -20.1989 -20.1986 -20.1984 -20.1981 -20.1948 -20.1947 -20.1942 -20.1940
   -20.1932 -20.1930 -20.1928 -20.1927 -20.1921 -20.1919 -20.1915 -20.1914
   -20.1876 -20.1873 -20.1872 -20.1868 -20.1864 -20.1859 -20.1854 -20.1849
   -20.1848 -20.1845 -20.1844 -20.1838 -20.1831 -20.1829 -20.1827 -20.1821
   -20.1732 -20.1727 -20.1725 -20.1725 -20.1722 -20.1719 -20.1719 -20.1714
   -20.1447 -20.1435 -20.1434 -20.1424 -20.1421 -20.1417 -20.1413 -20.1409
   -20.1393 -20.1383 -20.1379 -20.1376 -20.1373 -20.1371 -20.1362 -20.1357
    -9.9333  -9.6159  -9.5858  -9.5147  -9.2780  -9.1874  -9.1721  -9.0109
    -8.9917  -8.9345  -8.9269  -8.8861  -7.9436  -7.8821  -7.8663  -7.8443
    -7.8355  -7.7961  -7.7902  -7.7806  -7.7542  -7.7326  -7.6917  -7.6341
     1.2494   1.2552   1.2901   1.3084   1.3796   1.4029   1.5007   1.5398
     1.5661   1.6793   1.7697   1.9251   2.4985   2.5273   2.5945   2.6042
     2.6538   2.7409   4.0848   4.1797   4.3223   4.3688   4.4270   4.4275
     4.5241   4.6922   4.7381   4.7951   4.8158   4.9287   5.0685   5.2671
     5.3385   5.3728   5.4387   5.5101   5.5390   5.5623   5.5733   5.6033
     5.6909   5.7834   5.8145   5.8291   5.9737   5.9913   6.0862   6.0943
     6.3008   6.3331   6.4172   6.4786   6.6787   6.6932   6.7076   6.7409
     6.8210   6.8373   6.8774   6.9330   6.9936   7.0083   7.0710   7.0769
     7.1115   7.1732   7.8746   7.8801   7.9736   8.0277   8.0610   8.1095
     9.6897   9.7084   9.8918   9.8942  10.1475  10.1810  12.2673  12.2793
    12.3900  12.3935  12.4277  12.5253  12.5564  12.6686  12.7743  12.9692
    13.0552  13.2743  13.2862  13.3169  13.8064  13.9145  14.0676  14.0866
    14.3114  14.4920  14.6426  14.8427  15.3789  15.3997  15.5439  15.9918
    16.3620  16.7245  17.0204  17.2406  17.2745  17.4316

          k = 0.1667 0.0000 0.1665 ( 62649 PWs)   bands (ev):

   -66.0514 -66.0506 -66.0506 -66.0505 -66.0498 -66.0498 -66.0497 -66.0490
   -30.4952 -30.4907 -30.4905 -30.4862 -30.4391 -30.4313 -30.4309 -30.4224
   -30.4048 -30.3955 -30.3943 -30.3932 -30.3790 -30.3770 -30.3751 -30.3732
   -30.3223 -30.3202 -30.3188 -30.3169 -30.2966 -30.2955 -30.2925 -30.2911
   -20.1989 -20.1986 -20.1984 -20.1981 -20.1948 -20.1946 -20.1942 -20.1941
   -20.1932 -20.1930 -20.1928 -20.1927 -20.1921 -20.1920 -20.1915 -20.1914
   -20.1875 -20.1872 -20.1871 -20.1868 -20.1863 -20.1858 -20.1855 -20.1849
   -20.1848 -20.1847 -20.1845 -20.1837 -20.1831 -20.1829 -20.1828 -20.1822
   -20.1731 -20.1726 -20.1725 -20.1725 -20.1722 -20.1719 -20.1719 -20.1714
   -20.1444 -20.1432 -20.1432 -20.1423 -20.1420 -20.1414 -20.1413 -20.1410
   -20.1397 -20.1386 -20.1379 -20.1378 -20.1376 -20.1372 -20.1363 -20.1360
    -9.8870  -9.5578  -9.5297  -9.5288  -9.1961  -9.1901  -9.1844  -8.9689
    -8.9610  -8.9230  -8.8921  -8.8901  -7.9511  -7.9146  -7.8768  -7.8684
    -7.8579  -7.8513  -7.8374  -7.8082  -7.8014  -7.7840  -7.7637  -7.7471
     1.3571   1.3957   1.3968   1.4594   1.4630   1.4951   1.5590   1.5705
     1.6697   1.6815   1.8533   2.0042   2.5825   2.5993   2.6251   2.6882
     2.7224   2.7557   4.0816   4.1022   4.3198   4.3214   4.4383   4.4487
     4.4782   4.4943   4.5485   4.5888   4.6744   4.7342   5.0521   5.1919
     5.2329   5.2854   5.3072   5.4699   5.4881   5.5346   5.5505   5.6647
     5.6686   5.7071   5.7260   5.7562   5.8084   5.9876   6.2038   6.3168
     6.3388   6.4797   6.5318   6.6244   6.6375   6.6410   6.6710   6.7010
     6.7078   6.7618   6.7830   6.8306   6.8461   6.9261   6.9417   7.0265
     7.1941   7.2306   7.8629   7.8647   7.9863   8.0236   8.0297   8.0700
     9.9050   9.9513  10.1249  10.1397  10.1783  10.2541  12.3084  12.3178
    12.3310  12.3591  12.4319  12.4508  12.6211  12.6718  12.7865  12.8754
    13.0267  13.1028  13.2801  13.3471  13.8342  13.8927  13.9781  13.9900
    14.3386  14.5943  14.6363  14.9620  15.4772  15.4832  15.5133  16.3101
    16.3301  16.8824  16.8975  17.1647  17.3620  17.4775

          k = 0.1667 0.0000 0.3331 ( 62630 PWs)   bands (ev):

   -66.0512 -66.0507 -66.0504 -66.0504 -66.0500 -66.0499 -66.0496 -66.0491
   -30.4942 -30.4917 -30.4896 -30.4871 -30.4365 -30.4324 -30.4280 -30.4236
   -30.3989 -30.3947 -30.3836 -30.3811 -30.3764 -30.3739 -30.3616 -30.3581
   -30.3393 -30.3363 -30.3213 -30.3178 -30.3133 -30.3069 -30.2947 -30.2926
   -20.1988 -20.1986 -20.1985 -20.1982 -20.1947 -20.1945 -20.1943 -20.1942
   -20.1931 -20.1931 -20.1928 -20.1927 -20.1921 -20.1920 -20.1915 -20.1914
   -20.1873 -20.1870 -20.1867 -20.1866 -20.1859 -20.1857 -20.1856 -20.1853
   -20.1852 -20.1848 -20.1845 -20.1836 -20.1833 -20.1832 -20.1828 -20.1825
   -20.1730 -20.1726 -20.1725 -20.1724 -20.1723 -20.1720 -20.1718 -20.1715
   -20.1435 -20.1427 -20.1423 -20.1421 -20.1417 -20.1413 -20.1413 -20.1407
   -20.1403 -20.1396 -20.1389 -20.1379 -20.1375 -20.1373 -20.1366 -20.1365
    -9.7757  -9.5762  -9.4222  -9.3992  -9.2255  -9.2230  -8.9420  -8.9305
    -8.9012  -8.8337  -8.7980  -8.7606  -8.2283  -8.1700  -8.1651  -8.1126
    -7.9076  -7.8704  -7.8501  -7.8353  -7.8162  -7.8091  -7.7929  -7.7766
     1.3694   1.3861   1.4557   1.4829   1.5813   1.5898   1.6600   1.6880
     2.2520   2.3093   2.4061   2.4953   2.6287   2.7085   2.8388   2.8590
     2.9591   2.9953   3.7549   3.8297   3.9087   3.9558   4.0463   4.2964
     4.3187   4.4376   4.4645   4.4997   4.5284   4.6953   4.7300   4.8486
     4.9744   5.0051   5.0420   5.1707   5.2038   5.3478   5.5493   5.5723
     5.7001   5.7244   5.7438   5.8111   5.8199   5.9741   6.0573   6.1039
     6.3550   6.4074   6.4636   6.4855   6.5048   6.6471   6.6539   6.6738
     6.6934   6.8235   6.8418   6.8475   7.0484   7.0730   7.1259   7.1656
     7.2439   7.2928   7.7692   7.7832   7.8777   7.9118   8.0282   8.0397
    10.1304  10.1331  10.5283  10.6041  10.7881  10.8871  11.9207  11.9894
    12.1427  12.3864  12.4613  12.5064  12.5885  12.6493  12.7778  12.8050
    12.8742  13.0904  13.1256  13.2452  13.6266  13.6497  13.8926  13.9161
    14.4722  14.6158  14.9053  15.2792  15.4100  15.7717  15.9313  16.2171
    16.3184  17.1815  17.3128  17.4402  17.5355  17.6098

          k = 0.1667 0.0000-0.4996 ( 62676 PWs)   bands (ev):

   -66.0510 -66.0510 -66.0502 -66.0502 -66.0502 -66.0502 -66.0494 -66.0494
   -30.4929 -30.4929 -30.4884 -30.4884 -30.4342 -30.4342 -30.4255 -30.4255
   -30.3963 -30.3963 -30.3760 -30.3760 -30.3618 -30.3618 -30.3588 -30.3588
   -30.3389 -30.3389 -30.3352 -30.3352 -30.3156 -30.3156 -30.2937 -30.2937
   -20.1987 -20.1987 -20.1984 -20.1984 -20.1945 -20.1945 -20.1944 -20.1944
   -20.1931 -20.1931 -20.1927 -20.1927 -20.1921 -20.1920 -20.1915 -20.1915
   -20.1871 -20.1871 -20.1861 -20.1861 -20.1859 -20.1859 -20.1855 -20.1855
   -20.1853 -20.1852 -20.1839 -20.1839 -20.1834 -20.1834 -20.1827 -20.1827
   -20.1728 -20.1728 -20.1724 -20.1724 -20.1722 -20.1722 -20.1716 -20.1716
   -20.1423 -20.1423 -20.1421 -20.1421 -20.1415 -20.1415 -20.1410 -20.1410
   -20.1402 -20.1402 -20.1391 -20.1391 -20.1371 -20.1371 -20.1370 -20.1370
    -9.6594  -9.6594  -9.2984  -9.2984  -9.2865  -9.2865  -8.9160  -8.9160
    -8.5944  -8.5944  -8.5564  -8.5564  -8.5263  -8.5263  -8.4766  -8.4766
    -7.8882  -7.8882  -7.8366  -7.8366  -7.8056  -7.8056  -7.8015  -7.8015
     1.3762   1.3762   1.4704   1.4704   1.5945   1.5945   1.6917   1.6917
     2.6564   2.6564   3.0058   3.0058   3.0698   3.0698   3.1832   3.1832
     3.2602   3.2602   3.3745   3.3746   3.5240   3.5240   3.7576   3.7576
     3.7773   3.7773   4.3835   4.3835   4.4615   4.4615   4.8750   4.8750
     4.9678   4.9678   5.0056   5.0057   5.1897   5.1898   5.6264   5.6264
     5.6934   5.6934   5.7803   5.7803   5.8475   5.8475   5.9685   5.9685
     6.2883   6.2883   6.3963   6.3963   6.5853   6.5853   6.6760   6.6760
     6.7857   6.7857   6.9032   6.9032   6.9616   6.9616   7.5035   7.5035
     7.5473   7.5473   7.6253   7.6253   7.6555   7.6555   8.0370   8.0370
    10.1385  10.1385  11.2550  11.2550  11.3377  11.3377  11.5268  11.5268
    11.6741  11.6741  12.6260  12.6260  12.6769  12.6769  12.7959  12.7959
    12.9266  12.9266  13.2384  13.2384  13.3059  13.3059  13.8997  13.8997
    14.5705  14.5705  15.2133  15.2133  15.7309  15.7309  16.0596  16.0596
    16.7238  16.7238  17.7019  17.7021  17.7916  17.7920

          k = 0.1667 0.1601 0.0000 ( 62634 PWs)   bands (ev):

   -66.0514 -66.0506 -66.0506 -66.0505 -66.0498 -66.0497 -66.0497 -66.0489
   -30.4914 -30.4867 -30.4862 -30.4816 -30.4433 -30.4355 -30.4344 -30.4263
   -30.4084 -30.4012 -30.3974 -30.3937 -30.3838 -30.3822 -30.3780 -30.3731
   -30.3193 -30.3175 -30.3161 -30.3128 -30.2958 -30.2916 -30.2903 -30.2858
   -20.1986 -20.1983 -20.1981 -20.1978 -20.1949 -20.1948 -20.1943 -20.1941
   -20.1932 -20.1930 -20.1928 -20.1927 -20.1923 -20.1922 -20.1918 -20.1916
   -20.1876 -20.1873 -20.1872 -20.1867 -20.1864 -20.1859 -20.1855 -20.1850
   -20.1847 -20.1845 -20.1844 -20.1837 -20.1832 -20.1830 -20.1827 -20.1822
   -20.1732 -20.1727 -20.1725 -20.1725 -20.1722 -20.1719 -20.1719 -20.1714
   -20.1447 -20.1435 -20.1434 -20.1424 -20.1421 -20.1417 -20.1413 -20.1409
   -20.1393 -20.1383 -20.1379 -20.1376 -20.1373 -20.1371 -20.1362 -20.1357
    -9.8996  -9.6278  -9.5455  -9.4687  -9.2850  -9.1793  -9.1101  -9.0068
    -8.9906  -8.8946  -8.8895  -8.8542  -8.0035  -7.9503  -7.9393  -7.9097
    -7.8984  -7.8593  -7.8092  -7.7945  -7.7527  -7.7337  -7.6925  -7.6351
     1.2616   1.2716   1.2963   1.3157   1.5017   1.5392   1.5715   1.7143
     1.7583   1.7767   1.8156   2.0221   2.5074   2.5888   2.6011   2.6797
     2.7279   2.8121   3.9811   4.0426   4.0956   4.1556   4.3552   4.4239
     4.5409   4.6131   4.7609   4.7755   4.8186   4.8917   4.9092   5.2004
     5.2133   5.2783   5.3268   5.4153   5.4867   5.5452   5.5989   5.6754
     5.7161   5.7520   5.8106   5.8489   5.8902   6.0256   6.0831   6.0972
     6.2286   6.3296   6.4476   6.4535   6.6573   6.7124   6.7297   6.7690
     6.7882   6.8713   6.8856   6.9197   6.9430   6.9670   7.0734   7.0747
     7.1139   7.1778   7.8726   7.8805   7.9398   7.9706   8.0068   8.0335
     9.6975   9.7156  10.0815  10.0943  10.3232  10.3409  12.1716  12.2823
    12.3036  12.3797  12.3843  12.4116  12.4721  12.5589  12.8100  12.9724
    13.0716  13.2730  13.2816  13.3258  13.8203  13.8520  14.0004  14.0062
    14.4866  14.7264  14.8953  15.0049  15.3800  15.3983  15.9303  15.9818
    16.3286  16.6639  16.8559  17.3351  17.3547  17.5260

          k = 0.1667 0.1601 0.1665 ( 62644 PWs)   bands (ev):

   -66.0513 -66.0506 -66.0506 -66.0506 -66.0498 -66.0498 -66.0498 -66.0490
   -30.4910 -30.4866 -30.4863 -30.4819 -30.4422 -30.4347 -30.4343 -30.4267
   -30.4044 -30.3963 -30.3953 -30.3939 -30.3789 -30.3772 -30.3753 -30.3734
   -30.3224 -30.3201 -30.3188 -30.3171 -30.2966 -30.2955 -30.2925 -30.2912
   -20.1986 -20.1983 -20.1981 -20.1978 -20.1949 -20.1947 -20.1943 -20.1942
   -20.1932 -20.1930 -20.1928 -20.1927 -20.1923 -20.1922 -20.1918 -20.1916
   -20.1874 -20.1872 -20.1871 -20.1867 -20.1863 -20.1859 -20.1855 -20.1849
   -20.1849 -20.1847 -20.1845 -20.1837 -20.1832 -20.1830 -20.1829 -20.1823
   -20.1731 -20.1726 -20.1725 -20.1725 -20.1722 -20.1719 -20.1719 -20.1714
   -20.1444 -20.1432 -20.1432 -20.1423 -20.1420 -20.1414 -20.1413 -20.1410
   -20.1397 -20.1386 -20.1379 -20.1378 -20.1376 -20.1372 -20.1363 -20.1360
    -9.8515  -9.5698  -9.4841  -9.4834  -9.1974  -9.1919  -9.1188  -8.9676
    -8.9564  -8.8854  -8.8596  -8.8580  -8.0080  -7.9518  -7.9485  -7.9114
    -7.9082  -7.9015  -7.8575  -7.8493  -7.8292  -7.8116  -7.7623  -7.7490
     1.4533   1.4611   1.4979   1.5038   1.5534   1.5663   1.5775   1.7138
     1.8042   1.8142   1.8536   2.0796   2.5950   2.6716   2.6801   2.7045
     2.7983   2.8236   3.9959   4.0079   4.1211   4.1398   4.3990   4.4116
     4.4772   4.4903   4.5359   4.5976   4.6237   4.6790   4.8639   5.1148
     5.1605   5.2289   5.2541   5.3203   5.3481   5.4801   5.4872   5.5897
     5.7172   5.7264   5.7766   5.8047   5.8058   5.8794   6.2228   6.2680
     6.3335   6.3907   6.5057   6.5949   6.6367   6.6620   6.6975   6.7095
     6.7503   6.7916   6.8311   6.8475   6.9027   6.9157   6.9462   7.0306
     7.1967   7.2302   7.8599   7.8650   7.9389   7.9675   7.9797   7.9984
     9.9316   9.9609  10.2856  10.3092  10.3433  10.3988  12.2319  12.2726
    12.3230  12.3293  12.3989  12.4136  12.4830  12.5196  12.8229  12.9132
    13.0084  13.0868  13.2797  13.3449  13.8121  13.8216  13.8768  13.9160
    14.5788  14.8736  14.8929  15.1049  15.4797  15.4809  15.9169  16.2824
    16.2981  16.7847  16.9930  17.0027  17.4114  17.5897

          k = 0.1667 0.1601 0.3331 ( 62617 PWs)   bands (ev):

   -66.0512 -66.0507 -66.0504 -66.0504 -66.0500 -66.0499 -66.0496 -66.0492
   -30.4901 -30.4875 -30.4854 -30.4829 -30.4398 -30.4359 -30.4318 -30.4278
   -30.3990 -30.3952 -30.3842 -30.3814 -30.3767 -30.3741 -30.3617 -30.3581
   -30.3394 -30.3363 -30.3213 -30.3178 -30.3134 -30.3069 -30.2948 -30.2926
   -20.1985 -20.1982 -20.1982 -20.1979 -20.1948 -20.1946 -20.1945 -20.1943
   -20.1931 -20.1931 -20.1928 -20.1927 -20.1923 -20.1922 -20.1917 -20.1917
   -20.1872 -20.1869 -20.1867 -20.1865 -20.1859 -20.1857 -20.1857 -20.1852
   -20.1852 -20.1848 -20.1845 -20.1836 -20.1834 -20.1833 -20.1829 -20.1825
   -20.1730 -20.1726 -20.1725 -20.1724 -20.1723 -20.1720 -20.1718 -20.1715
   -20.1435 -20.1427 -20.1423 -20.1421 -20.1417 -20.1413 -20.1413 -20.1407
   -20.1403 -20.1396 -20.1389 -20.1379 -20.1375 -20.1373 -20.1366 -20.1365
    -9.7362  -9.5312  -9.4340  -9.3398  -9.2318  -9.1485  -8.9487  -8.9031
    -8.8687  -8.8321  -8.7889  -8.7424  -8.2311  -8.1757  -8.1727  -8.1172
    -7.9687  -7.9507  -7.9246  -7.8977  -7.8827  -7.8333  -7.8269  -7.7768
     1.5058   1.5165   1.5863   1.5968   1.6784   1.6905   1.7675   1.8133
     2.2523   2.3163   2.4075   2.5076   2.7041   2.7781   2.8606   2.9325
     2.9564   3.0558   3.7611   3.8446   3.8946   3.9118   4.0972   4.1277
     4.1990   4.3177   4.4313   4.5118   4.5351   4.6233   4.7021   4.7663
     4.8256   4.8734   4.9189   5.0776   5.1457   5.2093   5.3035   5.5321
     5.6003   5.6262   5.7364   5.7759   5.8303   5.8441   6.0400   6.0965
     6.3119   6.4469   6.5033   6.5744   6.6248   6.6475   6.6665   6.7338
     6.7640   6.8307   6.8722   6.9110   7.0408   7.0787   7.1229   7.1687
     7.2433   7.2920   7.7691   7.7784   7.8377   7.8631   7.9705   7.9781
    10.2898  10.3081  10.5494  10.6144  10.9026  10.9763  11.9208  11.9894
    12.1367  12.4197  12.4341  12.4848  12.4987  12.5525  12.6761  12.7482
    12.8413  13.0487  13.1149  13.2456  13.5152  13.5499  13.8328  13.8524
    14.7550  14.8756  15.2500  15.3938  15.7642  15.8171  15.9449  16.2032
    16.4115  17.1491  17.1577  17.3709  17.4928  17.6141

          k = 0.1667 0.1601-0.4996 ( 62624 PWs)   bands (ev):

   -66.0510 -66.0509 -66.0502 -66.0502 -66.0502 -66.0502 -66.0494 -66.0494
   -30.4888 -30.4888 -30.4841 -30.4841 -30.4376 -30.4376 -30.4296 -30.4296
   -30.3967 -30.3967 -30.3761 -30.3761 -30.3620 -30.3620 -30.3590 -30.3590
   -30.3389 -30.3389 -30.3353 -30.3353 -30.3156 -30.3156 -30.2937 -30.2937
   -20.1984 -20.1984 -20.1981 -20.1981 -20.1946 -20.1946 -20.1945 -20.1945
   -20.1931 -20.1931 -20.1927 -20.1927 -20.1922 -20.1922 -20.1917 -20.1917
   -20.1870 -20.1870 -20.1861 -20.1861 -20.1859 -20.1859 -20.1855 -20.1855
   -20.1852 -20.1852 -20.1840 -20.1840 -20.1835 -20.1834 -20.1827 -20.1827
   -20.1728 -20.1728 -20.1724 -20.1724 -20.1722 -20.1722 -20.1716 -20.1716
   -20.1423 -20.1423 -20.1421 -20.1421 -20.1415 -20.1415 -20.1410 -20.1410
   -20.1402 -20.1402 -20.1391 -20.1391 -20.1371 -20.1371 -20.1370 -20.1370
    -9.6162  -9.6162  -9.3083  -9.3083  -9.2144  -9.2143  -8.8835  -8.8835
    -8.5980  -8.5980  -8.5621  -8.5621  -8.5236  -8.5236  -8.4731  -8.4731
    -7.9626  -7.9626  -7.9142  -7.9142  -7.8566  -7.8566  -7.8039  -7.8039
     1.5118   1.5118   1.6001   1.6001   1.6911   1.6911   1.8094   1.8094
     2.7281   2.7281   3.0233   3.0234   3.0953   3.0953   3.1911   3.1911
     3.2641   3.2641   3.3837   3.3837   3.5186   3.5186   3.7715   3.7715
     3.8251   3.8251   4.2296   4.2296   4.4308   4.4308   4.6664   4.6664
     4.8647   4.8647   4.9747   4.9747   5.0347   5.0347   5.4163   5.4163
     5.6532   5.6532   5.6836   5.6836   5.8411   5.8411   5.8661   5.8661
     6.4150   6.4150   6.5640   6.5640   6.5931   6.5931   6.6836   6.6836
     6.8547   6.8547   6.8772   6.8772   6.9937   6.9937   7.5028   7.5028
     7.5408   7.5408   7.6042   7.6042   7.6326   7.6326   7.9760   7.9760
    10.3119  10.3119  11.2631  11.2631  11.3396  11.3396  11.5970  11.5970
    11.7336  11.7336  12.5129  12.5129  12.6405  12.6405  12.7748  12.7748
    12.9123  12.9123  13.1237  13.1237  13.2282  13.2282  13.8352  13.8352
    14.8402  14.8402  15.5879  15.5879  15.8488  15.8488  16.0437  16.0437
    16.7629  16.7629  17.5483  17.5483  17.7663  17.7664

          k = 0.1667 0.3201 0.0000 ( 62649 PWs)   bands (ev):

   -66.0514 -66.0507 -66.0506 -66.0505 -66.0499 -66.0498 -66.0497 -66.0490
   -30.4803 -30.4754 -30.4748 -30.4699 -30.4521 -30.4451 -30.4445 -30.4380
   -30.4078 -30.4029 -30.4000 -30.3947 -30.3837 -30.3822 -30.3784 -30.3734
   -30.3193 -30.3173 -30.3162 -30.3131 -30.2958 -30.2916 -30.2904 -30.2859
   -20.1978 -20.1975 -20.1972 -20.1969 -20.1953 -20.1951 -20.1947 -20.1945
   -20.1932 -20.1930 -20.1928 -20.1927 -20.1926 -20.1926 -20.1923 -20.1921
   -20.1874 -20.1873 -20.1871 -20.1865 -20.1864 -20.1861 -20.1858 -20.1852
   -20.1846 -20.1845 -20.1843 -20.1837 -20.1834 -20.1832 -20.1828 -20.1823
   -20.1732 -20.1727 -20.1725 -20.1725 -20.1722 -20.1719 -20.1719 -20.1714
   -20.1447 -20.1435 -20.1434 -20.1424 -20.1421 -20.1417 -20.1413 -20.1409
   -20.1393 -20.1383 -20.1379 -20.1376 -20.1373 -20.1371 -20.1362 -20.1357
    -9.8180  -9.6650  -9.4558  -9.3647  -9.3077  -9.2031  -9.0018  -8.9916
    -8.8914  -8.7597  -8.7559  -8.7380  -8.2503  -8.2092  -8.2012  -8.1839
    -7.9183  -7.8637  -7.8110  -7.7961  -7.7536  -7.7362  -7.6920  -7.6369
     1.2644   1.2786   1.2981   1.3218   1.5413   1.5825   1.7172   1.7704
     2.2965   2.4107   2.4322   2.5255   2.5715   2.5738   2.8277   2.9107
     2.9523   3.0274   3.5989   3.6322   3.6747   3.7232   4.0923   4.3645
     4.3856   4.4508   4.4752   4.6808   4.6893   4.7645   4.8103   4.8363
     4.9745   5.0080   5.1217   5.2674   5.3239   5.4214   5.5340   5.6202
     5.6693   5.7438   5.7897   5.8567   6.0026   6.0431   6.1043   6.1341
     6.1866   6.3072   6.4265   6.5051   6.5471   6.7570   6.7735   6.8643
     6.8989   6.9275   7.0022   7.0173   7.0415   7.0548   7.1035   7.1173
     7.1455   7.1989   7.7566   7.7837   7.7993   7.8178   7.8864   7.8906
     9.7053   9.7223  10.5781  10.6206  10.7716  10.8038  11.8039  11.9144
    11.9466  12.0308  12.2914  12.3798  12.4381  12.5352  12.9047  12.9939
    13.1656  13.2812  13.3415  13.3673  13.6158  13.6496  13.7740  13.7815
    14.9717  15.2433  15.3505  15.3975  15.5016  15.6519  15.8629  16.0953
    16.2149  16.9520  17.2175  17.3075  17.5147  17.7859

          k = 0.1667 0.3201 0.1665 ( 62645 PWs)   bands (ev):

   -66.0513 -66.0506 -66.0505 -66.0505 -66.0498 -66.0498 -66.0497 -66.0490
   -30.4799 -30.4752 -30.4749 -30.4703 -30.4513 -30.4448 -30.4443 -30.4383
   -30.4032 -30.3984 -30.3973 -30.3951 -30.3787 -30.3777 -30.3755 -30.3737
   -30.3225 -30.3197 -30.3189 -30.3176 -30.2967 -30.2956 -30.2923 -30.2915
   -20.1977 -20.1975 -20.1972 -20.1969 -20.1953 -20.1951 -20.1948 -20.1946
   -20.1932 -20.1930 -20.1928 -20.1927 -20.1926 -20.1926 -20.1923 -20.1922
   -20.1873 -20.1871 -20.1870 -20.1865 -20.1862 -20.1861 -20.1858 -20.1850
   -20.1847 -20.1847 -20.1844 -20.1837 -20.1834 -20.1832 -20.1830 -20.1824
   -20.1731 -20.1726 -20.1725 -20.1725 -20.1722 -20.1719 -20.1719 -20.1715
   -20.1444 -20.1432 -20.1432 -20.1423 -20.1420 -20.1414 -20.1413 -20.1410
   -20.1397 -20.1386 -20.1379 -20.1378 -20.1376 -20.1372 -20.1363 -20.1360
    -9.7660  -9.6077  -9.3816  -9.3797  -9.2211  -9.2166  -8.9644  -8.9569
    -8.8998  -8.7495  -8.7424  -8.7415  -8.2521  -8.2084  -8.2058  -8.1895
    -7.9161  -7.9109  -7.8597  -7.8539  -7.8298  -7.8198  -7.7609  -7.7529
     1.4560   1.4602   1.5345   1.5450   1.5787   1.5877   1.7901   1.8493
     2.2996   2.4103   2.4199   2.5624   2.6158   2.6690   2.8977   2.9443
     3.0213   3.0399   3.6365   3.6565   3.6828   3.7355   4.0810   4.3918
     4.4048   4.4251   4.4383   4.5012   4.5232   4.6711   4.6905   4.7638
     4.7933   4.8193   5.0514   5.0865   5.3165   5.3326   5.3421   5.3883
     5.6387   5.6493   5.7216   5.7300   5.8064   5.8203   6.2609   6.2882
     6.3452   6.4247   6.4922   6.5882   6.6858   6.7152   6.7461   6.7644
     6.8674   6.8793   6.9502   6.9598   7.0447   7.0582   7.0814   7.0931
     7.2226   7.2389   7.7547   7.7644   7.7824   7.7999   7.8707   7.8795
     9.9569   9.9664  10.7294  10.7634  10.7982  10.8358  11.8816  11.9318
    12.0012  12.0410  12.3362  12.3462  12.4232  12.4314  12.9229  12.9840
    13.0798  13.1361  13.2819  13.3463  13.5756  13.5997  13.6482  13.7114
    15.1275  15.4179  15.4603  15.4879  15.5305  15.7090  16.1747  16.1856
    16.2222  16.9188  17.2801  17.3327  17.3885  17.5760

          k = 0.1667 0.3201 0.3331 ( 62626 PWs)   bands (ev):

   -66.0511 -66.0507 -66.0504 -66.0504 -66.0500 -66.0499 -66.0496 -66.0492
   -30.4788 -30.4761 -30.4739 -30.4712 -30.4495 -30.4459 -30.4427 -30.4394
   -30.3992 -30.3961 -30.3854 -30.3820 -30.3770 -30.3744 -30.3617 -30.3582
   -30.3396 -30.3364 -30.3214 -30.3179 -30.3134 -30.3069 -30.2948 -30.2927
   -20.1976 -20.1974 -20.1973 -20.1971 -20.1952 -20.1950 -20.1949 -20.1947
   -20.1931 -20.1931 -20.1927 -20.1927 -20.1926 -20.1926 -20.1922 -20.1922
   -20.1870 -20.1867 -20.1866 -20.1865 -20.1860 -20.1859 -20.1858 -20.1852
   -20.1851 -20.1847 -20.1847 -20.1836 -20.1835 -20.1834 -20.1831 -20.1826
   -20.1730 -20.1726 -20.1725 -20.1724 -20.1723 -20.1720 -20.1718 -20.1715
   -20.1435 -20.1427 -20.1423 -20.1421 -20.1417 -20.1413 -20.1413 -20.1407
   -20.1403 -20.1396 -20.1389 -20.1379 -20.1375 -20.1373 -20.1366 -20.1365
    -9.6413  -9.4716  -9.4273  -9.2594  -9.1939  -8.9763  -8.9321  -8.8558
    -8.8292  -8.7533  -8.7118  -8.6682  -8.3079  -8.2736  -8.2091  -8.1966
    -8.1897  -8.1295  -8.1203  -8.0576  -7.8877  -7.8348  -7.8314  -7.7790
     1.5549   1.5668   1.5982   1.6117   2.1515   2.2221   2.2509   2.3201
     2.3984   2.4295   2.4659   2.6511   2.8771   2.9220   2.9461   3.0121
     3.1703   3.2558   3.6349   3.6630   3.6977   3.7802   3.8677   3.9336
     4.0564   4.2016   4.3047   4.3624   4.3819   4.5030   4.5411   4.6049
     4.6883   4.7350   4.7604   4.8101   4.8594   4.9308   5.0563   5.1471
     5.2830   5.3011   5.3720   5.5950   5.7483   5.8194   6.0783   6.0960
     6.4890   6.5395   6.5953   6.6778   6.7285   6.7692   6.8831   6.9128
     6.9463   6.9700   6.9931   7.0262   7.0799   7.1280   7.1574   7.2017
     7.2531   7.2931   7.6846   7.6876   7.7451   7.7774   7.7863   7.8243
    10.5384  10.5688  10.7843  10.8182  11.2267  11.2720  11.8736  11.9387
    11.9856  12.0800  12.1735  12.2467  12.5096  12.5803  12.6022  12.6282
    12.9107  13.0278  13.0627  13.2397  13.2760  13.3555  13.6078  13.6414
    15.3180  15.4456  15.7230  15.8786  16.0234  16.0442  16.1348  16.6366
    16.7523  16.7995  17.0374  17.5019  17.5913  17.6399

          k = 0.1667 0.3201-0.4996 ( 62624 PWs)   bands (ev):

   -66.0509 -66.0509 -66.0502 -66.0502 -66.0501 -66.0501 -66.0494 -66.0494
   -30.4774 -30.4774 -30.4725 -30.4725 -30.4476 -30.4475 -30.4409 -30.4409
   -30.3975 -30.3975 -30.3764 -30.3764 -30.3624 -30.3624 -30.3592 -30.3592
   -30.3390 -30.3390 -30.3353 -30.3353 -30.3156 -30.3156 -30.2938 -30.2938
   -20.1975 -20.1975 -20.1972 -20.1972 -20.1951 -20.1951 -20.1948 -20.1948
   -20.1931 -20.1931 -20.1927 -20.1927 -20.1926 -20.1926 -20.1922 -20.1922
   -20.1868 -20.1868 -20.1862 -20.1861 -20.1859 -20.1859 -20.1857 -20.1856
   -20.1852 -20.1852 -20.1841 -20.1841 -20.1835 -20.1835 -20.1829 -20.1829
   -20.1728 -20.1728 -20.1724 -20.1724 -20.1722 -20.1722 -20.1716 -20.1716
   -20.1423 -20.1423 -20.1421 -20.1421 -20.1415 -20.1415 -20.1410 -20.1410
   -20.1402 -20.1402 -20.1391 -20.1391 -20.1371 -20.1371 -20.1370 -20.1370
    -9.5143  -9.5143  -9.3411  -9.3411  -9.0158  -9.0158  -8.7769  -8.7769
    -8.6261  -8.6261  -8.5787  -8.5787  -8.5120  -8.5120  -8.4562  -8.4561
    -8.1999  -8.1999  -8.1656  -8.1656  -7.8602  -7.8602  -7.8067  -7.8067
     1.5675   1.5675   1.6141   1.6141   2.3011   2.3011   2.4109   2.4109
     2.9313   2.9313   3.0720   3.0720   3.1132   3.1132   3.2297   3.2297
     3.2732   3.2732   3.4151   3.4151   3.4959   3.4959   3.6885   3.6885
     3.9643   3.9643   4.0044   4.0044   4.0826   4.0826   4.3053   4.3053
     4.6777   4.6777   4.7826   4.7826   4.9392   4.9392   4.9550   4.9550
     5.0808   5.0808   5.4628   5.4628   5.8369   5.8369   5.8711   5.8711
     6.5933   6.5933   6.7099   6.7099   6.7718   6.7718   6.8023   6.8023
     6.9797   6.9797   7.0245   7.0245   7.1282   7.1282   7.4758   7.4758
     7.5020   7.5020   7.5424   7.5424   7.5801   7.5801   7.7888   7.7888
    10.7684  10.7684  11.2778  11.2778  11.3448  11.3448  11.7585  11.7585
    11.9272  11.9272  12.1424  12.1424  12.5751  12.5751  12.6006  12.6006
    12.8360  12.8360  12.9221  12.9221  13.1960  13.1960  13.6102  13.6102
    15.4025  15.4025  15.9436  15.9436  16.2543  16.2543  16.5386  16.5386
    16.9286  16.9286  17.1844  17.1844  17.7609  17.7609

          k = 0.1667-0.4802 0.0000 ( 62608 PWs)   bands (ev):

   -66.0513 -66.0507 -66.0506 -66.0504 -66.0499 -66.0498 -66.0497 -66.0490
   -30.4664 -30.4650 -30.4626 -30.4612 -30.4575 -30.4571 -30.4541 -30.4538
   -30.4074 -30.4036 -30.4013 -30.3952 -30.3837 -30.3823 -30.3786 -30.3735
   -30.3194 -30.3172 -30.3162 -30.3133 -30.2959 -30.2916 -30.2904 -30.2859
   -20.1971 -20.1969 -20.1963 -20.1961 -20.1958 -20.1955 -20.1954 -20.1950
   -20.1931 -20.1930 -20.1929 -20.1928 -20.1927 -20.1926 -20.1925 -20.1925
   -20.1874 -20.1873 -20.1870 -20.1864 -20.1863 -20.1862 -20.1861 -20.1852
   -20.1845 -20.1844 -20.1842 -20.1836 -20.1835 -20.1833 -20.1829 -20.1823
   -20.1732 -20.1727 -20.1725 -20.1725 -20.1722 -20.1719 -20.1719 -20.1714
   -20.1447 -20.1435 -20.1434 -20.1424 -20.1421 -20.1417 -20.1413 -20.1409
   -20.1393 -20.1383 -20.1379 -20.1376 -20.1373 -20.1371 -20.1362 -20.1357
    -9.7343  -9.7262  -9.3948  -9.3356  -9.2921  -9.2351  -8.9988  -8.9936
    -8.5757  -8.5757  -8.5221  -8.5171  -8.5102  -8.5076  -8.5062  -8.5026
    -7.9181  -7.8651  -7.8103  -7.7962  -7.7540  -7.7375  -7.6914  -7.6378
     1.2647   1.2797   1.2983   1.3232   1.5450   1.5854   1.7432   1.7716
     2.5481   2.5485   3.0288   3.0433   3.1294   3.1574   3.1828   3.1979
     3.2541   3.2651   3.2802   3.3411   3.4016   3.4785   3.5183   3.5686
     3.6534   3.6586   4.4043   4.4088   4.7365   4.7609   4.9270   4.9682
     5.0462   5.0475   5.1255   5.1417   5.2597   5.2723   5.4690   5.4909
     5.7156   5.7163   5.7552   5.7623   6.0116   6.0993   6.1065   6.1550
     6.2964   6.3139   6.3334   6.4378   6.5869   6.6730   6.7840   6.8624
     6.9392   6.9557   7.0505   7.0568   7.1021   7.1484   7.4031   7.4257
     7.4512   7.4567   7.4716   7.4749   7.4907   7.5062   7.8851   7.8851
     9.7075   9.7245  11.1832  11.2421  11.2529  11.2928  11.3589  11.3916
    11.3997  11.4708  12.2941  12.3812  12.4407  12.5357  12.9954  13.0015
    13.3061  13.3235  13.3761  13.4493  13.5148  13.5202  13.5203  13.5874
    15.3034  15.3647  15.5235  15.5781  15.6045  15.6922  15.9240  15.9953
    16.5657  16.5695  17.7182  17.7393  17.7967  17.7976

          k = 0.1667-0.4802 0.1665 ( 62654 PWs)   bands (ev):

   -66.0513 -66.0506 -66.0505 -66.0505 -66.0499 -66.0498 -66.0497 -66.0491
   -30.4655 -30.4648 -30.4617 -30.4615 -30.4580 -30.4570 -30.4545 -30.4540
   -30.4017 -30.4006 -30.3980 -30.3955 -30.3783 -30.3782 -30.3756 -30.3739
   -30.3225 -30.3195 -30.3190 -30.3179 -30.2967 -30.2956 -30.2919 -30.2919
   -20.1970 -20.1968 -20.1964 -20.1961 -20.1958 -20.1955 -20.1955 -20.1951
   -20.1931 -20.1930 -20.1929 -20.1928 -20.1926 -20.1926 -20.1925 -20.1925
   -20.1872 -20.1871 -20.1869 -20.1863 -20.1862 -20.1862 -20.1861 -20.1851
[...]
    12.0384  12.0384  12.0507  12.0507  12.1739  12.1739  12.1820  12.1820
    12.9707  12.9707  12.9966  12.9966  13.1500  13.1501  13.1736  13.1736
    15.3882  15.3882  15.3884  15.3884  16.6425  16.6425  16.6826  16.6826
    17.6148  17.6148  17.6489  17.6490  17.8695  17.8695

          k =-0.5000 0.3201 0.0000 ( 62638 PWs)   bands (ev):

   -66.0510 -66.0510 -66.0503 -66.0503 -66.0501 -66.0501 -66.0494 -66.0494
   -30.4777 -30.4777 -30.4723 -30.4723 -30.4480 -30.4480 -30.4407 -30.4407
   -30.4051 -30.4051 -30.3853 -30.3853 -30.3588 -30.3588 -30.3567 -30.3567
   -30.3379 -30.3378 -30.3327 -30.3327 -30.3140 -30.3140 -30.2883 -30.2883
   -20.1976 -20.1976 -20.1970 -20.1970 -20.1952 -20.1952 -20.1946 -20.1946
   -20.1930 -20.1929 -20.1928 -20.1928 -20.1925 -20.1925 -20.1924 -20.1924
   -20.1874 -20.1874 -20.1866 -20.1866 -20.1854 -20.1854 -20.1851 -20.1851
   -20.1846 -20.1846 -20.1843 -20.1843 -20.1842 -20.1842 -20.1826 -20.1826
   -20.1728 -20.1728 -20.1723 -20.1723 -20.1722 -20.1722 -20.1718 -20.1718
   -20.1441 -20.1441 -20.1425 -20.1425 -20.1403 -20.1403 -20.1402 -20.1402
   -20.1392 -20.1391 -20.1387 -20.1387 -20.1385 -20.1385 -20.1366 -20.1366
    -9.5850  -9.5850  -9.4260  -9.4260  -9.0038  -9.0037  -8.8004  -8.8004
    -8.6063  -8.6063  -8.5845  -8.5845  -8.5162  -8.5161  -8.4501  -8.4501
    -8.2002  -8.2002  -8.1609  -8.1609  -7.7415  -7.7415  -7.6861  -7.6861
     1.2986   1.2986   1.3475   1.3475   2.2963   2.2963   2.4222   2.4222
     2.8726   2.8726   3.0398   3.0398   3.0987   3.0987   3.2216   3.2216
     3.2710   3.2710   3.3471   3.3472   3.4487   3.4487   3.6376   3.6376
     3.9504   3.9504   3.9879   3.9879   4.1263   4.1263   4.3162   4.3162
     4.7775   4.7775   4.8552   4.8552   5.0537   5.0537   5.1975   5.1975
     5.3689   5.3689   5.6961   5.6961   6.2061   6.2061   6.2493   6.2493
     6.4072   6.4072   6.4598   6.4598   6.5132   6.5132   6.7033   6.7033
     6.9939   6.9939   7.0191   7.0191   7.0536   7.0536   7.4698   7.4698
     7.4860   7.4860   7.5427   7.5428   7.5762   7.5762   7.8176   7.8176
    10.5973  10.5973  11.1973  11.1973  11.2622  11.2622  11.6740  11.6740
    11.9200  11.9200  12.1082  12.1082  12.6095  12.6095  12.6343  12.6343
    12.9079  12.9079  13.0017  13.0017  13.3427  13.3427  13.7652  13.7652
    15.1679  15.1679  15.6496  15.6496  16.1811  16.1811  16.5465  16.5465
    16.8428  16.8428  17.1480  17.1480  17.9034  17.9034

          k =-0.5000 0.3201 0.1665 ( 62626 PWs)   bands (ev):

   -66.0509 -66.0509 -66.0502 -66.0502 -66.0501 -66.0501 -66.0494 -66.0494
   -30.4773 -30.4773 -30.4726 -30.4726 -30.4472 -30.4472 -30.4411 -30.4411
   -30.3996 -30.3996 -30.3795 -30.3795 -30.3581 -30.3581 -30.3569 -30.3569
   -30.3377 -30.3377 -30.3330 -30.3330 -30.3200 -30.3200 -30.2946 -30.2946
   -20.1976 -20.1976 -20.1971 -20.1971 -20.1952 -20.1952 -20.1947 -20.1947
   -20.1929 -20.1929 -20.1928 -20.1928 -20.1925 -20.1925 -20.1924 -20.1924
   -20.1872 -20.1872 -20.1865 -20.1865 -20.1854 -20.1854 -20.1851 -20.1851
   -20.1846 -20.1846 -20.1843 -20.1843 -20.1842 -20.1842 -20.1828 -20.1828
   -20.1728 -20.1728 -20.1722 -20.1722 -20.1722 -20.1722 -20.1718 -20.1718
   -20.1438 -20.1438 -20.1422 -20.1422 -20.1403 -20.1403 -20.1401 -20.1401
   -20.1393 -20.1393 -20.1390 -20.1390 -20.1386 -20.1386 -20.1369 -20.1369
    -9.5162  -9.5162  -9.3449  -9.3449  -9.0169  -9.0169  -8.7788  -8.7788
    -8.6225  -8.6224  -8.5756  -8.5756  -8.5082  -8.5082  -8.4538  -8.4537
    -8.1975  -8.1975  -8.1657  -8.1657  -7.8634  -7.8634  -7.8085  -7.8085
     1.5563   1.5563   1.6043   1.6043   2.2999   2.2999   2.4090   2.4090
     2.9492   2.9492   3.0589   3.0590   3.1030   3.1031   3.2350   3.2350
     3.2756   3.2756   3.4273   3.4273   3.4999   3.4999   3.6845   3.6845
     3.9456   3.9456   3.9952   3.9952   4.1219   4.1219   4.3202   4.3202
     4.6688   4.6688   4.7693   4.7693   4.9389   4.9389   4.9574   4.9574
     5.0831   5.0831   5.4621   5.4621   5.8335   5.8335   5.8685   5.8685
     6.5941   6.5941   6.7180   6.7180   6.7767   6.7767   6.8045   6.8045
     6.9722   6.9722   7.0274   7.0274   7.1223   7.1223   7.4693   7.4693
     7.4953   7.4953   7.5544   7.5544   7.5856   7.5856   7.7952   7.7952
    10.7605  10.7605  11.2788  11.2788  11.3442  11.3442  11.7217  11.7217
    11.9328  11.9328  12.1476  12.1476  12.5931  12.5931  12.6151  12.6151
    12.8384  12.8384  12.9397  12.9397  13.1847  13.1847  13.6214  13.6214
    15.4035  15.4035  15.9327  15.9327  16.2522  16.2522  16.5361  16.5361
    16.8984  16.8984  17.1896  17.1896  17.7493  17.7493

          k =-0.5000 0.3201 0.3331 ( 62620 PWs)   bands (ev):

   -66.0507 -66.0507 -66.0503 -66.0503 -66.0500 -66.0500 -66.0496 -66.0496
   -30.4762 -30.4762 -30.4735 -30.4735 -30.4455 -30.4455 -30.4421 -30.4421
   -30.3839 -30.3839 -30.3665 -30.3665 -30.3583 -30.3583 -30.3528 -30.3528
   -30.3409 -30.3409 -30.3344 -30.3344 -30.3325 -30.3325 -30.3117 -30.3117
   -20.1975 -20.1975 -20.1972 -20.1972 -20.1951 -20.1951 -20.1948 -20.1948
   -20.1929 -20.1929 -20.1929 -20.1928 -20.1925 -20.1925 -20.1924 -20.1924
   -20.1867 -20.1867 -20.1861 -20.1861 -20.1856 -20.1856 -20.1853 -20.1853
   -20.1848 -20.1847 -20.1844 -20.1844 -20.1840 -20.1840 -20.1832 -20.1832
   -20.1726 -20.1726 -20.1723 -20.1723 -20.1721 -20.1721 -20.1719 -20.1719
   -20.1429 -20.1429 -20.1414 -20.1414 -20.1406 -20.1406 -20.1399 -20.1399
   -20.1395 -20.1395 -20.1394 -20.1394 -20.1389 -20.1389 -20.1378 -20.1378
    -9.3429  -9.3428  -9.1229  -9.1229  -9.0625  -9.0625  -8.7042  -8.7042
    -8.6744  -8.6744  -8.5446  -8.5446  -8.4912  -8.4912  -8.4598  -8.4598
    -8.2106  -8.2106  -8.1839  -8.1839  -8.1428  -8.1428  -8.0872  -8.0872
     2.1742   2.1742   2.2725   2.2725   2.3188   2.3188   2.4563   2.4563
     3.0495   3.0496   3.1006   3.1006   3.1624   3.1624   3.2480   3.2480
     3.3181   3.3181   3.6093   3.6093   3.6896   3.6896   3.7912   3.7912
     3.9193   3.9193   4.0232   4.0232   4.0984   4.0984   4.1865   4.1865
     4.2880   4.2880   4.4480   4.4480   4.5524   4.5524   4.7880   4.7880
     4.8917   4.8917   4.9725   4.9725   5.0206   5.0206   5.2752   5.2752
     6.7995   6.7995   6.8657   6.8657   6.9275   6.9275   6.9817   6.9817
     7.1155   7.1155   7.2205   7.2205   7.3206   7.3206   7.4554   7.4554
     7.4996   7.4996   7.5717   7.5718   7.5921   7.5921   7.7306   7.7307
    11.1973  11.1973  11.5197  11.5197  11.6096  11.6096  11.8005  11.8005
    11.9859  11.9860  12.2935  12.2935  12.3714  12.3714  12.4532  12.4532
    12.6868  12.6868  12.7822  12.7822  12.8163  12.8163  13.2439  13.2439
    15.9703  15.9703  16.4342  16.4342  16.4863  16.4863  16.7281  16.7281
    17.1153  17.1153  17.2624  17.2624  17.4860  17.4860

          k =-0.5000 0.3201-0.4996 ( 62620 PWs)   bands (ev):

   -66.0505 -66.0505 -66.0505 -66.0505 -66.0498 -66.0498 -66.0498 -66.0498
   -30.4749 -30.4749 -30.4748 -30.4748 -30.4437 -30.4437 -30.4436 -30.4436
   -30.3624 -30.3624 -30.3622 -30.3622 -30.3596 -30.3596 -30.3596 -30.3596
   -30.3350 -30.3350 -30.3348 -30.3348 -30.3340 -30.3340 -30.3338 -30.3338
   -20.1974 -20.1974 -20.1974 -20.1974 -20.1950 -20.1950 -20.1950 -20.1950
   -20.1929 -20.1929 -20.1929 -20.1929 -20.1925 -20.1925 -20.1925 -20.1924
   -20.1862 -20.1862 -20.1860 -20.1860 -20.1857 -20.1857 -20.1856 -20.1856
   -20.1848 -20.1848 -20.1845 -20.1845 -20.1837 -20.1837 -20.1836 -20.1836
   -20.1725 -20.1725 -20.1724 -20.1724 -20.1720 -20.1720 -20.1720 -20.1720
   -20.1417 -20.1417 -20.1417 -20.1416 -20.1406 -20.1406 -20.1404 -20.1404
   -20.1393 -20.1393 -20.1393 -20.1393 -20.1390 -20.1390 -20.1388 -20.1388
    -9.1676  -9.1676  -9.1636  -9.1636  -8.8522  -8.8522  -8.8402  -8.8402
    -8.5631  -8.5631  -8.5407  -8.5407  -8.4274  -8.4274  -8.4147  -8.4147
    -8.4144  -8.4144  -8.3896  -8.3896  -8.1699  -8.1699  -8.1680  -8.1680
     2.3093   2.3093   2.3107   2.3107   2.9920   2.9920   3.0106   3.0106
     3.0908   3.0908   3.0925   3.0925   3.2113   3.2113   3.2458   3.2458
     3.3117   3.3118   3.3186   3.3186   3.8385   3.8385   3.8722   3.8722
     3.9204   3.9204   3.9548   3.9548   4.0299   4.0299   4.0422   4.0422
     4.2535   4.2535   4.2941   4.2941   4.3308   4.3308   4.3353   4.3353
     4.6544   4.6544   4.6552   4.6552   5.0000   5.0000   5.0040   5.0040
     6.8591   6.8591   6.8839   6.8839   6.9544   6.9544   6.9758   6.9758
     7.3463   7.3463   7.3565   7.3565   7.4062   7.4062   7.4357   7.4357
     7.5246   7.5246   7.5268   7.5268   7.6321   7.6321   7.6490   7.6490
    11.7103  11.7103  11.7495  11.7495  11.7773  11.7773  11.8145  11.8145
    12.0551  12.0551  12.0637  12.0637  12.2342  12.2342  12.2402  12.2402
    12.6344  12.6344  12.6553  12.6553  12.8302  12.8303  12.8470  12.8470
    16.3324  16.3324  16.3347  16.3347  16.8256  16.8256  16.8558  16.8559
    17.3632  17.3632  17.4187  17.4187  17.8731  17.8733

          k =-0.5000-0.4802 0.0000 ( 62656 PWs)   bands (ev):

   -66.0510 -66.0509 -66.0503 -66.0503 -66.0500 -66.0500 -66.0494 -66.0494
   -30.4645 -30.4645 -30.4604 -30.4604 -30.4570 -30.4570 -30.4559 -30.4559
   -30.4057 -30.4057 -30.3854 -30.3854 -30.3590 -30.3589 -30.3567 -30.3567
   -30.3379 -30.3379 -30.3327 -30.3327 -30.3140 -30.3140 -30.2884 -30.2884
   -20.1970 -20.1970 -20.1962 -20.1962 -20.1957 -20.1957 -20.1953 -20.1952
   -20.1929 -20.1929 -20.1929 -20.1929 -20.1927 -20.1927 -20.1927 -20.1927
   -20.1873 -20.1873 -20.1866 -20.1866 -20.1852 -20.1852 -20.1851 -20.1851
   -20.1848 -20.1848 -20.1843 -20.1843 -20.1842 -20.1842 -20.1827 -20.1827
   -20.1728 -20.1728 -20.1723 -20.1723 -20.1722 -20.1721 -20.1718 -20.1718
   -20.1441 -20.1441 -20.1425 -20.1425 -20.1403 -20.1403 -20.1402 -20.1402
   -20.1392 -20.1391 -20.1387 -20.1387 -20.1385 -20.1385 -20.1366 -20.1366
    -9.5131  -9.5131  -9.4672  -9.4672  -8.7666  -8.7665  -8.7338  -8.7338
    -8.6521  -8.6521  -8.6323  -8.6323  -8.4566  -8.4565  -8.4229  -8.4229
    -8.3963  -8.3963  -8.3589  -8.3589  -7.7409  -7.7409  -7.6871  -7.6871
     1.3000   1.3000   1.3492   1.3492   2.9281   2.9281   3.0293   3.0293
     3.0961   3.0961   3.1037   3.1037   3.1714   3.1714   3.1758   3.1758
     3.3012   3.3012   3.3260   3.3260   3.3896   3.3896   3.4439   3.4439
     3.5098   3.5098   3.7064   3.7064   4.2066   4.2067   4.2682   4.2682
     4.2906   4.2906   4.3751   4.3751   5.1184   5.1184   5.1506   5.1506
     5.4405   5.4405   5.4969   5.4969   6.2427   6.2427   6.2487   6.2487
     6.4591   6.4591   6.5128   6.5128   6.5402   6.5402   6.5957   6.5957
     7.2257   7.2257   7.2428   7.2428   7.2742   7.2742   7.3902   7.3902
     7.4089   7.4089   7.4755   7.4755   7.5693   7.5693   7.5949   7.5949
    11.1440  11.1440  11.2026  11.2026  11.2980  11.2981  11.3115  11.3115
    12.1925  12.1925  12.2152  12.2152  12.3094  12.3094  12.3155  12.3155
    12.9042  12.9042  12.9664  12.9664  13.4975  13.4975  13.5223  13.5223
    15.4416  15.4416  15.5303  15.5303  16.6733  16.6733  16.7367  16.7367
    17.3898  17.3898  17.4346  17.4346  17.5440  17.5440

          k =-0.5000-0.4802 0.1665 ( 62664 PWs)   bands (ev):

   -66.0509 -66.0509 -66.0502 -66.0502 -66.0501 -66.0501 -66.0495 -66.0495
   -30.4636 -30.4636 -30.4602 -30.4602 -30.4572 -30.4572 -30.4563 -30.4563
   -30.4000 -30.4000 -30.3796 -30.3796 -30.3582 -30.3582 -30.3570 -30.3570
   -30.3378 -30.3378 -30.3331 -30.3331 -30.3201 -30.3201 -30.2946 -30.2946
   -20.1969 -20.1969 -20.1963 -20.1963 -20.1957 -20.1956 -20.1953 -20.1953
   -20.1929 -20.1929 -20.1929 -20.1929 -20.1927 -20.1927 -20.1927 -20.1927
   -20.1872 -20.1872 -20.1864 -20.1864 -20.1852 -20.1852 -20.1851 -20.1851
   -20.1848 -20.1848 -20.1843 -20.1843 -20.1843 -20.1843 -20.1829 -20.1828
   -20.1728 -20.1728 -20.1722 -20.1722 -20.1722 -20.1722 -20.1718 -20.1718
   -20.1438 -20.1438 -20.1422 -20.1422 -20.1403 -20.1403 -20.1401 -20.1401
   -20.1393 -20.1393 -20.1390 -20.1390 -20.1386 -20.1386 -20.1369 -20.1369
    -9.4342  -9.4342  -9.3915  -9.3915  -8.7828  -8.7828  -8.7506  -8.7506
    -8.6356  -8.6356  -8.6169  -8.6169  -8.4538  -8.4538  -8.4212  -8.4212
    -8.3980  -8.3980  -8.3613  -8.3613  -7.8630  -7.8630  -7.8095  -7.8095
     1.5601   1.5601   1.6075   1.6075   2.9389   2.9389   3.0353   3.0353
     3.0879   3.0879   3.1006   3.1006   3.1765   3.1765   3.2159   3.2159
     3.3052   3.3052   3.4130   3.4130   3.4209   3.4209   3.5098   3.5098
     3.5470   3.5470   3.7336   3.7336   4.2115   4.2115   4.2610   4.2610
     4.2888   4.2888   4.3669   4.3669   4.8163   4.8163   4.9509   4.9509
     5.1139   5.1139   5.2424   5.2424   5.8339   5.8339   5.8547   5.8547
     6.6587   6.6587   6.7422   6.7422   6.7895   6.7895   6.8436   6.8436
     7.2201   7.2201   7.2370   7.2370   7.3065   7.3065   7.3787   7.3787
     7.4075   7.4075   7.4793   7.4793   7.5711   7.5711   7.6085   7.6085
    11.2252  11.2252  11.2920  11.2920  11.3791  11.3791  11.4538  11.4538
    12.1967  12.1967  12.2191  12.2191  12.3073  12.3073  12.3215  12.3215
    12.8106  12.8106  12.8958  12.8958  13.3257  13.3257  13.3825  13.3825
    15.7273  15.7273  15.8076  15.8076  16.7371  16.7371  16.7959  16.7959
    17.3845  17.3846  17.4406  17.4407  17.5401  17.5401

          k =-0.5000-0.4802 0.3331 ( 62616 PWs)   bands (ev):

   -66.0507 -66.0507 -66.0503 -66.0503 -66.0501 -66.0501 -66.0496 -66.0496
   -30.4616 -30.4616 -30.4597 -30.4597 -30.4580 -30.4580 -30.4575 -30.4575
   -30.3841 -30.3841 -30.3666 -30.3666 -30.3583 -30.3583 -30.3529 -30.3529
   -30.3410 -30.3410 -30.3345 -30.3344 -30.3325 -30.3325 -30.3117 -30.3117
   -20.1968 -20.1968 -20.1964 -20.1964 -20.1956 -20.1956 -20.1954 -20.1954
   -20.1929 -20.1929 -20.1928 -20.1928 -20.1927 -20.1927 -20.1927 -20.1927
   -20.1867 -20.1867 -20.1861 -20.1861 -20.1855 -20.1855 -20.1853 -20.1853
   -20.1849 -20.1848 -20.1845 -20.1845 -20.1841 -20.1841 -20.1832 -20.1832
   -20.1726 -20.1726 -20.1723 -20.1723 -20.1721 -20.1721 -20.1719 -20.1719
   -20.1429 -20.1429 -20.1414 -20.1414 -20.1406 -20.1406 -20.1399 -20.1399
   -20.1395 -20.1395 -20.1394 -20.1394 -20.1389 -20.1389 -20.1378 -20.1378
    -9.2220  -9.2220  -9.1915  -9.1915  -8.8385  -8.8385  -8.8114  -8.8114
    -8.5772  -8.5772  -8.5622  -8.5622  -8.4467  -8.4467  -8.4199  -8.4199
    -8.3998  -8.3997  -8.3669  -8.3669  -8.1531  -8.1531  -8.1041  -8.1041
     2.2472   2.2472   2.2892   2.2892   2.9611   2.9611   3.0190   3.0190
     3.0854   3.0854   3.1143   3.1143   3.2094   3.2094   3.2320   3.2320
     3.3753   3.3753   3.4194   3.4194   3.5828   3.5828   3.6511   3.6511
     3.7603   3.7603   3.8550   3.8550   4.1811   4.1811   4.2113   4.2113
     4.2647   4.2647   4.3201   4.3201   4.4074   4.4074   4.4935   4.4935
     4.6210   4.6210   4.7493   4.7493   5.0287   5.0287   5.0515   5.0515
     6.9307   6.9307   7.0257   7.0257   7.1126   7.1126   7.1304   7.1304
     7.2231   7.2231   7.2650   7.2651   7.3322   7.3322   7.3574   7.3574
     7.4310   7.4310   7.5062   7.5062   7.5731   7.5731   7.6133   7.6133
    11.4825  11.4825  11.5393  11.5393  11.6984  11.6984  11.7981  11.7981
    12.1773  12.1773  12.2367  12.2367  12.2723  12.2723  12.3337  12.3337
    12.4934  12.4934  12.6289  12.6289  12.8980  12.8980  12.9863  12.9863
    16.4829  16.4829  16.5646  16.5646  16.9340  16.9340  16.9689  16.9689
    17.3163  17.3163  17.4323  17.4323  17.5242  17.5242

          k =-0.5000-0.4802-0.4996 ( 62624 PWs)   bands (ev):

   -66.0505 -66.0505 -66.0505 -66.0505 -66.0498 -66.0498 -66.0498 -66.0498
   -30.4596 -30.4596 -30.4594 -30.4594 -30.4589 -30.4588 -30.4588 -30.4588
   -30.3620 -30.3620 -30.3615 -30.3615 -30.3606 -30.3605 -30.3602 -30.3602
   -30.3348 -30.3348 -30.3347 -30.3346 -30.3343 -30.3343 -30.3341 -30.3341
   -20.1967 -20.1966 -20.1966 -20.1966 -20.1955 -20.1955 -20.1955 -20.1955
   -20.1929 -20.1929 -20.1928 -20.1928 -20.1927 -20.1927 -20.1927 -20.1927
   -20.1861 -20.1861 -20.1859 -20.1859 -20.1857 -20.1857 -20.1856 -20.1855
   -20.1849 -20.1849 -20.1846 -20.1846 -20.1838 -20.1838 -20.1836 -20.1836
   -20.1725 -20.1725 -20.1724 -20.1724 -20.1720 -20.1720 -20.1720 -20.1720
   -20.1417 -20.1417 -20.1417 -20.1416 -20.1406 -20.1406 -20.1404 -20.1404
   -20.1393 -20.1393 -20.1393 -20.1393 -20.1390 -20.1390 -20.1388 -20.1388
    -8.9816  -8.9816  -8.9666  -8.9666  -8.9625  -8.9624  -8.9622  -8.9622
    -8.4713  -8.4713  -8.4327  -8.4327  -8.4320  -8.4320  -8.4245  -8.4245
    -8.4067  -8.4067  -8.3976  -8.3976  -8.3760  -8.3760  -8.3643  -8.3643
     2.9480   2.9481   2.9533   2.9533   2.9798   2.9798   2.9862   2.9862
     3.1478   3.1478   3.1528   3.1528   3.1870   3.1870   3.2035   3.2035
     3.3092   3.3092   3.3976   3.3976   3.4450   3.4450   3.4813   3.4813
     4.0981   4.0981   4.1172   4.1172   4.1205   4.1205   4.1284   4.1284
     4.2745   4.2745   4.2923   4.2923   4.3043   4.3043   4.3258   4.3258
     4.3939   4.3939   4.4211   4.4211   4.4300   4.4300   4.4442   4.4442
     7.0567   7.0567   7.1176   7.1176   7.1606   7.1606   7.2487   7.2487
     7.2890   7.2890   7.2973   7.2973   7.3103   7.3103   7.3124   7.3124
     7.5302   7.5302   7.5392   7.5392   7.5572   7.5572   7.5835   7.5836
    11.8779  11.8779  11.8804  11.8804  11.8893  11.8893  11.8964  11.8964
    12.1441  12.1441  12.1932  12.1932  12.2398  12.2398  12.3275  12.3275
    12.4298  12.4298  12.4762  12.4762  12.5029  12.5029  12.5190  12.5191
    17.0355  17.0355  17.0584  17.0584  17.0887  17.0887  17.1377  17.1377
    17.4343  17.4343  17.4498  17.4499  17.4713  17.4713

     the Fermi energy is     9.9576 ev

!    total energy              =   -6260.39820256 Ry
     Harris-Foulkes estimate   =   -6260.39820257 Ry
     estimated scf accuracy    <          9.4E-09 Ry

     The total energy is the sum of the following terms:

     one-electron contribution =   -4746.40662086 Ry
     hartree contribution      =    2611.54733990 Ry
     xc contribution           =    -966.77028972 Ry
     ewald contribution        =   -3158.76858246 Ry
     smearing contrib. (-TS)   =      -0.00004942 Ry

     convergence has been achieved in  15 iterations

     Writing output data file Landau_8.save
 
     init_run     :     41.34s CPU     43.43s WALL (       1 calls)
     electrons    :   1946.93s CPU   1984.49s WALL (       1 calls)

     Called by init_run:
     wfcinit      :     37.73s CPU     39.71s WALL (       1 calls)
     potinit      :      1.42s CPU      1.45s WALL (       1 calls)

     Called by electrons:
     c_bands      :   1695.35s CPU   1730.84s WALL (      15 calls)
     sum_band     :    240.72s CPU    241.90s WALL (      15 calls)
     v_of_rho     :      2.04s CPU      2.08s WALL (      16 calls)
     mix_rho      :      3.38s CPU      3.98s WALL (      15 calls)

     Called by c_bands:
     init_us_2    :     12.94s CPU     13.62s WALL (      62 calls)
     cegterg      :   1237.69s CPU   1271.52s WALL (      30 calls)

     Called by sum_band:

     Called by *egterg:
     h_psi        :    980.43s CPU    985.07s WALL (     116 calls)
     g_psi        :      3.88s CPU      3.89s WALL (      84 calls)
     cdiaghg      :     13.10s CPU     13.14s WALL (     114 calls)

     Called by h_psi:
     h_psi:pot    :    973.74s CPU    978.04s WALL (     116 calls)
     h_psi:calbec :    118.12s CPU    120.99s WALL (     116 calls)
     vloc_psi     :    730.75s CPU    731.64s WALL (     116 calls)
     add_vuspsi   :    124.86s CPU    125.42s WALL (     116 calls)

     General routines
     calbec       :    118.12s CPU    120.99s WALL (     116 calls)
     fft          :      1.26s CPU      1.26s WALL (      64 calls)
     fftw         :    748.82s CPU    749.17s WALL (   36666 calls)
 
     Parallel routines
 
     PWSCF        : 33m13.28s CPU    33m54.67s WALL

 
   This run was terminated on:  23:47:34  25Mar2020            

=------------------------------------------------------------------------------=
   JOB DONE.
=------------------------------------------------------------------------------=
