
     Program PWSCF v.6.4.1 starts on 16Dec2019 at 21:49:50 

     This program is part of the open-source Quantum ESPRESSO suite
     for quantum simulation of materials; please cite
         "P. Giannozzi et al., J. Phys.:Condens. Matter 21 395502 (2009);
         "P. Giannozzi et al., J. Phys.:Condens. Matter 29 465901 (2017);
          URL http://www.quantum-espresso.org", 
     in publications or presentations arising from this work. More details at
     http://www.quantum-espresso.org/quote

     Parallel version (MPI), running on    40 processors

     MPI processes distributed on     5 nodes
     K-points division:     npool     =      40
     Reading input from scf.in

     Current dimensions of program PWSCF are:
     Max number of different atomic species (ntypx) = 10
     Max number of k-points (npk) =  40000
     Max angular momentum in pseudopotentials (lmaxx) =  3

     Subspace diagonalization in iterative solution of the eigenvalue problem:
     a serial algorithm will be used

     Message from routine setup:
     using ibrav=0 with symmetry is DISCOURAGED, use correct ibrav instead
 
     G-vector sticks info
     --------------------
     sticks:   dense  smooth     PW     G-vecs:    dense   smooth      PW
     Sum        3745    3745   1005               252669   252669   35617
 


     bravais-lattice index     =            0
     lattice parameter (alat)  =       9.8920  a.u.
     unit-cell volume          =    1422.3228 (a.u.)^3
     number of atoms/cell      =           16
     number of atomic types    =            2
     number of electrons       =       184.30
     number of Kohn-Sham states=          111
     kinetic-energy cutoff     =     120.0000  Ry
     charge density cutoff     =     480.0000  Ry
     convergence threshold     =      1.0E-08
     mixing beta               =       0.7000
     number of iterations used =            8  plain     mixing
     Exchange-correlation      = SLA PW NOGX NOGC ( 1  4  0  0 0 0)

     celldm(1)=   9.892001  celldm(2)=   0.000000  celldm(3)=   0.000000
     celldm(4)=   0.000000  celldm(5)=   0.000000  celldm(6)=   0.000000

     crystal axes: (cart. coord. in units of alat)
               a(1) = (   1.000000   0.000000   0.000000 )  
               a(2) = (   0.000000   1.000000   0.000000 )  
               a(3) = (   0.000000   0.000000   1.469419 )  

     reciprocal axes: (cart. coord. in units 2 pi/alat)
               b(1) = (  1.000000  0.000000  0.000000 )  
               b(2) = (  0.000000  1.000000  0.000000 )  
               b(3) = (  0.000000  0.000000  0.680541 )  


     PseudoPot. # 1 for W  read from file:
     /cluster/scratch/mnoe/QE/pps/W_ONCV_LDA-4.0.upf
     MD5 check sum: ba0307d5d4cd419d6f1d13dc49d7c13a
     Pseudo is Norm-conserving + core correction, Zval = 28.0
     Generated using ONCVPSP code by D. R. Hamann
     Using radial grid of 1380 points,  8 beta functions with: 
                l(1) =   0
                l(2) =   0
                l(3) =   1
                l(4) =   1
                l(5) =   2
                l(6) =   2
                l(7) =   3
                l(8) =   3

     PseudoPot. # 2 for O  read from file:
     /cluster/scratch/mnoe/QE/pps/O_ONCV_LDA-3.0.upf
     MD5 check sum: b55cdb4f45ae2203d24ad12cf8d61a31
     Pseudo is Norm-conserving + core correction, Zval =  6.0
     Generated using ONCVPSP code by D. R. Hamann
     Using radial grid of  926 points,  5 beta functions with: 
                l(1) =   0
                l(2) =   0
                l(3) =   1
                l(4) =   1
                l(5) =   2

     atomic species   valence    mass     pseudopotential
        W             28.00   183.84000     W ( 1.00)
        O              6.00    15.99940     O ( 1.00)

     16 Sym. Ops., with inversion, found (14 have fractional translation)



   Cartesian axes

     site n.     atom                  positions (alat units)
         1           W   tau(   1) = (   0.2500000   0.2500000   0.3140245  )
         2           W   tau(   2) = (   0.7500000   0.7500000   1.1553946  )
         3           W   tau(   3) = (   0.7500000   0.7500000   0.4206851  )
         4           W   tau(   4) = (   0.2500000   0.2500000   1.0487340  )
         5           O   tau(   5) = (   0.2500000   0.2500000   0.7101966  )
         6           O   tau(   6) = (   0.7500000   0.7500000   0.7592225  )
         7           O   tau(   7) = (   0.7500000   0.7500000   0.0245129  )
         8           O   tau(   8) = (   0.2500000   0.2500000   1.4449062  )
         9           O   tau(   9) = (   0.4722303   0.5277696   0.3673548  )
        10           O   tau(  10) = (   0.5277697   0.4722304   1.1020643  )
        11           O   tau(  11) = (   0.0277696   0.9722304   0.3673548  )
        12           O   tau(  12) = (   0.9722303   0.0277697   1.1020643  )
        13           O   tau(  13) = (   0.9722304   0.4722303   0.3673548  )
        14           O   tau(  14) = (   0.0277697   0.5277697   1.1020643  )
        15           O   tau(  15) = (   0.5277696   0.0277696   0.3673548  )
        16           O   tau(  16) = (   0.4722304   0.9722303   1.1020643  )

     number of k points=    60  gaussian smearing, width (Ry)=  0.0007
                       cart. coord. in units 2pi/alat
        k(    1) = (   0.0000000   0.0000000   0.0000000), wk =   0.0041152
        k(    2) = (   0.0000000   0.0000000   0.1134235), wk =   0.0082305
        k(    3) = (   0.0000000   0.0000000   0.2268470), wk =   0.0082305
        k(    4) = (   0.0000000   0.0000000  -0.3402705), wk =   0.0041152
        k(    5) = (   0.0000000   0.1111111   0.0000000), wk =   0.0164609
        k(    6) = (   0.0000000   0.1111111   0.1134235), wk =   0.0329218
        k(    7) = (   0.0000000   0.1111111   0.2268470), wk =   0.0329218
        k(    8) = (   0.0000000   0.1111111  -0.3402705), wk =   0.0164609
        k(    9) = (   0.0000000   0.2222222   0.0000000), wk =   0.0164609
        k(   10) = (   0.0000000   0.2222222   0.1134235), wk =   0.0329218
        k(   11) = (   0.0000000   0.2222222   0.2268470), wk =   0.0329218
        k(   12) = (   0.0000000   0.2222222  -0.3402705), wk =   0.0164609
        k(   13) = (   0.0000000   0.3333333   0.0000000), wk =   0.0164609
        k(   14) = (   0.0000000   0.3333333   0.1134235), wk =   0.0329218
        k(   15) = (   0.0000000   0.3333333   0.2268470), wk =   0.0329218
        k(   16) = (   0.0000000   0.3333333  -0.3402705), wk =   0.0164609
        k(   17) = (   0.0000000   0.4444444   0.0000000), wk =   0.0164609
        k(   18) = (   0.0000000   0.4444444   0.1134235), wk =   0.0329218
        k(   19) = (   0.0000000   0.4444444   0.2268470), wk =   0.0329218
        k(   20) = (   0.0000000   0.4444444  -0.3402705), wk =   0.0164609
        k(   21) = (   0.1111111   0.1111111   0.0000000), wk =   0.0164609
        k(   22) = (   0.1111111   0.1111111   0.1134235), wk =   0.0329218
        k(   23) = (   0.1111111   0.1111111   0.2268470), wk =   0.0329218
        k(   24) = (   0.1111111   0.1111111  -0.3402705), wk =   0.0164609
        k(   25) = (   0.1111111   0.2222222   0.0000000), wk =   0.0329218
        k(   26) = (   0.1111111   0.2222222   0.1134235), wk =   0.0658436
        k(   27) = (   0.1111111   0.2222222   0.2268470), wk =   0.0658436
        k(   28) = (   0.1111111   0.2222222  -0.3402705), wk =   0.0329218
        k(   29) = (   0.1111111   0.3333333   0.0000000), wk =   0.0329218
        k(   30) = (   0.1111111   0.3333333   0.1134235), wk =   0.0658436
        k(   31) = (   0.1111111   0.3333333   0.2268470), wk =   0.0658436
        k(   32) = (   0.1111111   0.3333333  -0.3402705), wk =   0.0329218
        k(   33) = (   0.1111111   0.4444444   0.0000000), wk =   0.0329218
        k(   34) = (   0.1111111   0.4444444   0.1134235), wk =   0.0658436
        k(   35) = (   0.1111111   0.4444444   0.2268470), wk =   0.0658436
        k(   36) = (   0.1111111   0.4444444  -0.3402705), wk =   0.0329218
        k(   37) = (   0.2222222   0.2222222   0.0000000), wk =   0.0164609
        k(   38) = (   0.2222222   0.2222222   0.1134235), wk =   0.0329218
        k(   39) = (   0.2222222   0.2222222   0.2268470), wk =   0.0329218
        k(   40) = (   0.2222222   0.2222222  -0.3402705), wk =   0.0164609
        k(   41) = (   0.2222222   0.3333333   0.0000000), wk =   0.0329218
        k(   42) = (   0.2222222   0.3333333   0.1134235), wk =   0.0658436
        k(   43) = (   0.2222222   0.3333333   0.2268470), wk =   0.0658436
        k(   44) = (   0.2222222   0.3333333  -0.3402705), wk =   0.0329218
        k(   45) = (   0.2222222   0.4444444   0.0000000), wk =   0.0329218
        k(   46) = (   0.2222222   0.4444444   0.1134235), wk =   0.0658436
        k(   47) = (   0.2222222   0.4444444   0.2268470), wk =   0.0658436
        k(   48) = (   0.2222222   0.4444444  -0.3402705), wk =   0.0329218
        k(   49) = (   0.3333333   0.3333333   0.0000000), wk =   0.0164609
        k(   50) = (   0.3333333   0.3333333   0.1134235), wk =   0.0329218
        k(   51) = (   0.3333333   0.3333333   0.2268470), wk =   0.0329218
        k(   52) = (   0.3333333   0.3333333  -0.3402705), wk =   0.0164609
        k(   53) = (   0.3333333   0.4444444   0.0000000), wk =   0.0329218
        k(   54) = (   0.3333333   0.4444444   0.1134235), wk =   0.0658436
        k(   55) = (   0.3333333   0.4444444   0.2268470), wk =   0.0658436
        k(   56) = (   0.3333333   0.4444444  -0.3402705), wk =   0.0329218
        k(   57) = (   0.4444444   0.4444444   0.0000000), wk =   0.0164609
        k(   58) = (   0.4444444   0.4444444   0.1134235), wk =   0.0329218
        k(   59) = (   0.4444444   0.4444444   0.2268470), wk =   0.0329218
        k(   60) = (   0.4444444   0.4444444  -0.3402705), wk =   0.0164609

     Dense  grid:   252669 G-vectors     FFT dimensions: (  72,  72, 108)

     Estimated max dynamical RAM per process >     899.05 MB

     Estimated total dynamical RAM >      35.12 GB

     Initial potential from superposition of free atoms

     starting charge  183.99828, renormalised to  184.30000
     Starting wfcs are  116 randomized atomic wfcs

     total cpu time spent up to now is       10.3 secs

     Self-consistent Calculation

     iteration #  1     ecut=   120.00 Ry     beta= 0.70
     Davidson diagonalization with overlap
     ethr =  1.00E-02,  avg # of iterations =  4.9

     total cpu time spent up to now is       43.6 secs

     total energy              =   -3126.68859457 Ry
     Harris-Foulkes estimate   =   -3132.15196211 Ry
     estimated scf accuracy    <       6.88077268 Ry

     iteration #  2     ecut=   120.00 Ry     beta= 0.70
     Davidson diagonalization with overlap
     ethr =  3.73E-03,  avg # of iterations =  3.5

     total cpu time spent up to now is       75.7 secs

     total energy              =   -3125.16974825 Ry
     Harris-Foulkes estimate   =   -3135.20611842 Ry
     estimated scf accuracy    <      26.71306987 Ry

     iteration #  3     ecut=   120.00 Ry     beta= 0.70
     Davidson diagonalization with overlap
     ethr =  3.73E-03,  avg # of iterations =  3.3

     total cpu time spent up to now is      105.2 secs

     total energy              =   -3130.33583059 Ry
     Harris-Foulkes estimate   =   -3130.46878287 Ry
     estimated scf accuracy    <       0.45068136 Ry

     iteration #  4     ecut=   120.00 Ry     beta= 0.70
     Davidson diagonalization with overlap
     ethr =  2.45E-04,  avg # of iterations =  2.5

     total cpu time spent up to now is      128.8 secs

     total energy              =   -3130.32341915 Ry
     Harris-Foulkes estimate   =   -3130.36557624 Ry
     estimated scf accuracy    <       0.11193895 Ry

     iteration #  5     ecut=   120.00 Ry     beta= 0.70
     Davidson diagonalization with overlap
     ethr =  6.07E-05,  avg # of iterations =  4.3

     total cpu time spent up to now is      155.5 secs

     total energy              =   -3130.33382273 Ry
     Harris-Foulkes estimate   =   -3130.34478365 Ry
     estimated scf accuracy    <       0.02665385 Ry

     iteration #  6     ecut=   120.00 Ry     beta= 0.70
     Davidson diagonalization with overlap
     ethr =  1.45E-05,  avg # of iterations =  4.2

     total cpu time spent up to now is      183.3 secs

     total energy              =   -3130.33857180 Ry
     Harris-Foulkes estimate   =   -3130.34025625 Ry
     estimated scf accuracy    <       0.00413358 Ry

     iteration #  7     ecut=   120.00 Ry     beta= 0.70
     Davidson diagonalization with overlap
     ethr =  2.24E-06,  avg # of iterations =  4.3

     total cpu time spent up to now is      209.4 secs

     total energy              =   -3130.33924878 Ry
     Harris-Foulkes estimate   =   -3130.33925673 Ry
     estimated scf accuracy    <       0.00001351 Ry

     iteration #  8     ecut=   120.00 Ry     beta= 0.70
     Davidson diagonalization with overlap
     ethr =  7.33E-09,  avg # of iterations =  4.0

     total cpu time spent up to now is      247.1 secs

     total energy              =   -3130.33926217 Ry
     Harris-Foulkes estimate   =   -3130.33926613 Ry
     estimated scf accuracy    <       0.00001758 Ry

     iteration #  9     ecut=   120.00 Ry     beta= 0.70
     Davidson diagonalization with overlap
     ethr =  7.33E-09,  avg # of iterations =  1.0

     total cpu time spent up to now is      269.8 secs

     total energy              =   -3130.33926074 Ry
     Harris-Foulkes estimate   =   -3130.33926321 Ry
     estimated scf accuracy    <       0.00000681 Ry

     iteration # 10     ecut=   120.00 Ry     beta= 0.70
     Davidson diagonalization with overlap
     ethr =  3.70E-09,  avg # of iterations =  3.0

     total cpu time spent up to now is      294.4 secs

     total energy              =   -3130.33926166 Ry
     Harris-Foulkes estimate   =   -3130.33926175 Ry
     estimated scf accuracy    <       0.00000018 Ry

     iteration # 11     ecut=   120.00 Ry     beta= 0.70
     Davidson diagonalization with overlap
     ethr =  9.74E-11,  avg # of iterations =  2.7

     total cpu time spent up to now is      322.3 secs

     total energy              =   -3130.33926168 Ry
     Harris-Foulkes estimate   =   -3130.33926170 Ry
     estimated scf accuracy    <       0.00000003 Ry

     iteration # 12     ecut=   120.00 Ry     beta= 0.70
     Davidson diagonalization with overlap
     ethr =  1.89E-11,  avg # of iterations =  2.1

     total cpu time spent up to now is      351.2 secs

     End of self-consistent calculation

          k = 0.0000 0.0000 0.0000 ( 31615 PWs)   bands (ev):

   -66.2738 -66.2733 -66.2723 -66.2719 -30.6884 -30.6832 -30.6222 -30.6182
   -30.6057 -30.6057 -30.6019 -30.6019 -30.5206 -30.5206 -30.5176 -30.5176
   -20.4250 -20.4249 -20.4249 -20.4248 -20.4232 -20.4230 -20.4171 -20.4168
   -20.4121 -20.4121 -20.4110 -20.4110 -20.4094 -20.4094 -20.4083 -20.4083
   -20.4065 -20.4064 -20.4061 -20.4061 -20.3844 -20.3844 -20.3844 -20.3844
   -20.3809 -20.3809 -20.3809 -20.3809 -10.1339  -9.7847  -9.3458  -9.1586
    -9.1390  -9.0531  -8.0167  -7.9027  -7.8379  -7.8379  -7.8141  -7.8141
     0.9975   0.9978   1.0941   1.3232   1.3666   1.5147   2.3470   2.4313
     2.4313   2.4456   3.9821   3.9821   4.7081   4.7081   4.8781   5.4368
     5.4368   5.4386   5.4386   5.6594   5.6594   5.7982   5.8244   6.5333
     6.5333   6.7129   6.9513   6.9571   7.1107   7.1107   7.1315   7.1315
     8.0305   8.0305   8.0740   8.0754   8.9469   8.9489   9.6291   9.6291
    12.2687  12.2687  13.2328  13.2328  13.2741  13.2779  13.5150  14.0706
    14.0706  14.5587  14.6820  14.6867  15.4171  16.4759  17.1035

          k = 0.0000 0.0000 0.1134 ( 31579 PWs)   bands (ev):

   -66.2738 -66.2734 -66.2723 -66.2719 -30.6840 -30.6789 -30.6266 -30.6226
   -30.6054 -30.6054 -30.6022 -30.6022 -30.5204 -30.5204 -30.5178 -30.5178
   -20.4250 -20.4249 -20.4249 -20.4248 -20.4228 -20.4226 -20.4175 -20.4173
   -20.4120 -20.4120 -20.4110 -20.4110 -20.4094 -20.4094 -20.4084 -20.4084
   -20.4065 -20.4064 -20.4061 -20.4061 -20.3844 -20.3844 -20.3844 -20.3844
   -20.3809 -20.3809 -20.3809 -20.3809 -10.0982  -9.7982  -9.2674  -9.1573
    -9.1403  -9.0089  -8.1203  -8.0178  -7.8363  -7.8363  -7.8157  -7.8157
     0.9975   0.9978   1.2419   1.3660   1.4982   1.6988   2.3535   2.4388
     2.5015   2.5015   3.8149   3.8149   4.6325   4.7234   4.7234   5.3305
     5.3305   5.4574   5.4849   5.4849   5.7929   5.7929   5.8397   6.5555
     6.5555   6.7287   6.7707   6.9352   7.1123   7.1123   7.1304   7.1304
     7.9628   7.9628   8.0753   8.0755   8.9472   8.9489   9.8409   9.8409
    12.1139  12.1139  13.2554  13.2554  13.2744  13.2777  13.8130  13.9771
    13.9771  14.6824  14.6864  14.7646  15.8274  16.1512  17.1629

          k = 0.0000 0.0000 0.2268 ( 31591 PWs)   bands (ev):

   -66.2737 -66.2735 -66.2722 -66.2720 -30.6720 -30.6671 -30.6389 -30.6346
   -30.6047 -30.6047 -30.6029 -30.6029 -30.5199 -30.5199 -30.5183 -30.5183
   -20.4249 -20.4249 -20.4249 -20.4248 -20.4217 -20.4215 -20.4187 -20.4184
   -20.4118 -20.4118 -20.4112 -20.4112 -20.4092 -20.4092 -20.4086 -20.4086
   -20.4065 -20.4064 -20.4061 -20.4061 -20.3844 -20.3844 -20.3844 -20.3844
   -20.3809 -20.3809 -20.3809 -20.3809 -10.0105  -9.8406  -9.1537  -9.1439
    -9.0453  -8.8686  -8.3846  -8.3045  -7.8320  -7.8320  -7.8201  -7.8201
     0.9976   0.9977   1.3392   1.3638   2.0934   2.3711   2.3948   2.4204
     2.7071   2.7071   3.4327   3.4327   3.9378   4.5363   4.8464   4.8464
     5.2238   5.2238   5.5179   5.5180   5.7391   5.7391   5.9618   6.4369
     6.7719   6.8661   6.8661   6.8911   7.1147   7.1147   7.1313   7.1313
     7.7328   7.7328   8.0757   8.0761   8.9477   8.9487  10.3783  10.3783
    11.6753  11.6753  13.2750  13.2769  13.3442  13.3442  13.7550  13.7550
    14.3824  14.6834  14.6857  15.4245  15.5685  16.8529  16.9392

          k = 0.0000 0.0000-0.3403 ( 31634 PWs)   bands (ev):

   -66.2736 -66.2736 -66.2721 -66.2721 -30.6555 -30.6555 -30.6509 -30.6508
   -30.6038 -30.6038 -30.6038 -30.6038 -30.5191 -30.5191 -30.5191 -30.5191
   -20.4249 -20.4249 -20.4249 -20.4249 -20.4202 -20.4202 -20.4200 -20.4200
   -20.4115 -20.4115 -20.4115 -20.4115 -20.4089 -20.4089 -20.4089 -20.4089
   -20.4065 -20.4065 -20.4061 -20.4061 -20.3844 -20.3844 -20.3844 -20.3844
   -20.3809 -20.3809 -20.3809 -20.3809  -9.9140  -9.9140  -9.1488  -9.1488
    -8.7231  -8.7231  -8.6248  -8.6248  -7.8261  -7.8261  -7.8261  -7.8261
     0.9977   0.9977   1.3578   1.3579   2.3956   2.3956   2.9976   2.9976
     3.0309   3.0309   3.0309   3.0309   3.4178   3.4178   5.0496   5.0496
     5.0496   5.0496   5.5924   5.5924   5.5924   5.5924   6.1604   6.1604
     6.8313   6.8313   7.1131   7.1131   7.1131   7.1131   7.3480   7.3480
     7.3480   7.3480   8.0760   8.0760   8.9483   8.9483  11.0482  11.0482
    11.0482  11.0482  13.2760  13.2760  13.5179  13.5179  13.5179  13.5179
    14.6846  14.6846  14.9625  14.9625  16.2897  16.2897  17.5358

          k = 0.0000 0.1111 0.0000 ( 31617 PWs)   bands (ev):

   -66.2738 -66.2733 -66.2723 -66.2719 -30.6884 -30.6835 -30.6226 -30.6184
   -30.6031 -30.6026 -30.5994 -30.5993 -30.5232 -30.5231 -30.5201 -30.5201
   -20.4250 -20.4249 -20.4249 -20.4248 -20.4232 -20.4230 -20.4171 -20.4169
   -20.4120 -20.4120 -20.4109 -20.4109 -20.4096 -20.4095 -20.4084 -20.4083
   -20.4065 -20.4064 -20.4061 -20.4060 -20.3843 -20.3843 -20.3843 -20.3843
   -20.3810 -20.3810 -20.3810 -20.3810 -10.0951  -9.7368  -9.3538  -9.1261
    -9.1064  -9.0425  -8.0210  -7.9069  -7.9057  -7.8880  -7.8826  -7.8645
     1.1141   1.1143   1.1197   1.3154   1.4888   1.6127   2.4134   2.4625
     2.4796   2.5223   3.9582   3.9740   4.5461   4.6000   4.8694   5.3023
     5.3327   5.3513   5.3900   5.6474   5.6573   5.8336   5.9980   6.4651
     6.4705   6.7421   6.7635   6.8355   6.8588   6.8786   7.0655   7.0957
     7.9950   8.0245   8.0354   8.0426   9.2691   9.2863   9.7582   9.8053
    12.2884  12.3049  13.0682  13.1138  13.2878  13.3797  13.6501  13.9894
    14.0204  14.6511  14.7850  14.7883  15.3866  16.6257  17.1435

          k = 0.0000 0.1111 0.1134 ( 31574 PWs)   bands (ev):

   -66.2737 -66.2733 -66.2723 -66.2719 -30.6840 -30.6791 -30.6270 -30.6228
   -30.6029 -30.6024 -30.5997 -30.5996 -30.5230 -30.5229 -30.5203 -30.5203
   -20.4250 -20.4249 -20.4249 -20.4248 -20.4228 -20.4226 -20.4175 -20.4173
   -20.4120 -20.4119 -20.4110 -20.4109 -20.4095 -20.4094 -20.4085 -20.4084
   -20.4065 -20.4064 -20.4061 -20.4060 -20.3843 -20.3843 -20.3843 -20.3843
   -20.3810 -20.3810 -20.3810 -20.3810 -10.0581  -9.7504  -9.2754  -9.1247
    -9.1077  -8.9996  -8.1228  -8.0240  -7.9052  -7.8865  -7.8826  -7.8661
     1.1141   1.1143   1.3031   1.4881   1.5098   1.7396   2.4255   2.5122
     2.5376   2.5435   3.8056   3.8248   4.5603   4.6152   4.6233   5.2323
     5.2500   5.3544   5.3659   5.4619   5.7546   5.7831   6.0345   6.4897
     6.4916   6.7149   6.7651   6.7879   6.8486   6.8877   7.0658   7.0953
     7.9326   7.9519   8.0352   8.0379   9.2731   9.2848   9.9514   9.9923
    12.1378  12.1557  13.0828  13.1427  13.2839  13.3864  13.8932  13.9290
    13.9489  14.7847  14.7882  14.8458  15.7971  16.2833  17.2254

          k = 0.0000 0.1111 0.2268 ( 31581 PWs)   bands (ev):

   -66.2736 -66.2734 -66.2722 -66.2720 -30.6720 -30.6673 -30.6390 -30.6348
   -30.6022 -30.6019 -30.6003 -30.6002 -30.5224 -30.5224 -30.5209 -30.5209
   -20.4249 -20.4249 -20.4249 -20.4248 -20.4217 -20.4215 -20.4187 -20.4184
   -20.4117 -20.4117 -20.4112 -20.4111 -20.4093 -20.4093 -20.4087 -20.4087
   -20.4064 -20.4064 -20.4061 -20.4060 -20.3843 -20.3843 -20.3843 -20.3843
   -20.3810 -20.3810 -20.3810 -20.3810  -9.9674  -9.7932  -9.1212  -9.1113
    -9.0533  -8.8626  -8.3880  -8.3082  -7.9008  -7.8881  -7.8822  -7.8705
     1.1141   1.1142   1.4526   1.4853   2.0955   2.3770   2.4463   2.4972
     2.7443   2.7535   3.4369   3.4588   3.9336   4.5387   4.6931   4.7424
     5.1150   5.1382   5.3725   5.3964   5.6319   5.6391   6.1370   6.4910
     6.7607   6.7721   6.8202   6.8429   6.8943   6.9190   7.0722   7.0998
     7.7065   7.7237   8.0347   8.0375   9.2780   9.2828  10.4535  10.4855
    11.7079  11.7290  13.1417  13.2316  13.2729  13.4176  13.6650  13.7199
    14.5245  14.7851  14.7876  15.4904  15.6997  16.8201  17.0095

          k = 0.0000 0.1111-0.3403 ( 31588 PWs)   bands (ev):

   -66.2735 -66.2735 -66.2721 -66.2721 -30.6555 -30.6555 -30.6511 -30.6511
   -30.6013 -30.6013 -30.6011 -30.6011 -30.5217 -30.5217 -30.5216 -30.5216
   -20.4249 -20.4249 -20.4249 -20.4249 -20.4202 -20.4202 -20.4200 -20.4200
   -20.4114 -20.4114 -20.4114 -20.4114 -20.4091 -20.4090 -20.4090 -20.4090
   -20.4064 -20.4064 -20.4061 -20.4061 -20.3843 -20.3843 -20.3843 -20.3843
   -20.3810 -20.3810 -20.3810 -20.3810  -9.8680  -9.8680  -9.1162  -9.1162
    -8.7301  -8.7301  -8.6228  -8.6228  -7.8946  -7.8946  -7.8764  -7.8764
     1.1142   1.1142   1.4778   1.4778   2.4712   2.4712   2.9967   2.9967
     3.0298   3.0298   3.0640   3.0640   3.4388   3.4388   4.9175   4.9175
     4.9559   4.9559   5.4475   5.4475   5.4686   5.4686   6.2962   6.2962
     6.7711   6.7711   6.8971   6.8971   7.0596   7.0596   7.3243   7.3243
     7.3486   7.3486   8.0362   8.0362   9.2809   9.2809  11.0961  11.0961
    11.1220  11.1220  13.2202  13.2202  13.4181  13.4181  13.5216  13.5216
    14.7863  14.7863  15.1003  15.1003  16.3574  16.3574  17.5650

          k = 0.0000 0.2222 0.0000 ( 31609 PWs)   bands (ev):

   -66.2736 -66.2732 -66.2725 -66.2720 -30.6883 -30.6841 -30.6232 -30.6191
   -30.5958 -30.5945 -30.5921 -30.5919 -30.5306 -30.5304 -30.5275 -30.5274
   -20.4250 -20.4249 -20.4249 -20.4248 -20.4232 -20.4231 -20.4172 -20.4169
   -20.4119 -20.4117 -20.4108 -20.4107 -20.4098 -20.4096 -20.4088 -20.4085
   -20.4063 -20.4062 -20.4059 -20.4059 -20.3841 -20.3841 -20.3840 -20.3840
   -20.3814 -20.3813 -20.3813 -20.3813  -9.9852  -9.5963  -9.3797  -9.0306
    -9.0107  -9.0075  -8.1285  -8.0938  -8.0274  -8.0044  -7.9755  -7.9141
     1.1591   1.2949   1.4467   1.4499   1.8279   1.9152   2.5518   2.5553
     2.6808   2.7559   3.8639   3.8918   4.2625   4.3424   4.8433   4.9206
     4.9718   5.1205   5.2472   5.6356   5.6791   5.8546   6.0655   6.0718
     6.2932   6.3382   6.4146   6.5399   6.6958   7.0261   7.0608   7.0869
     7.8889   7.9166   7.9542   7.9914   9.8985   9.9587  10.1067  10.2583
    12.3347  12.3892  12.8193  12.8431  13.1342  13.2557  13.7668  13.8468
    13.9557  14.9341  15.2528  15.2584  15.2945  17.0118  17.2409

          k = 0.0000 0.2222 0.1134 ( 31591 PWs)   bands (ev):

   -66.2736 -66.2732 -66.2724 -66.2721 -30.6839 -30.6798 -30.6275 -30.6235
   -30.5956 -30.5945 -30.5924 -30.5921 -30.5304 -30.5302 -30.5277 -30.5276
   -20.4250 -20.4249 -20.4249 -20.4248 -20.4228 -20.4227 -20.4176 -20.4174
   -20.4118 -20.4116 -20.4109 -20.4107 -20.4098 -20.4096 -20.4089 -20.4086
   -20.4063 -20.4062 -20.4059 -20.4059 -20.3841 -20.3841 -20.3840 -20.3840
   -20.3814 -20.3813 -20.3813 -20.3813  -9.9440  -9.6102  -9.3017  -9.0293
    -9.0120  -8.9687  -8.1796  -8.0918  -8.0600  -8.0259  -8.0060  -7.9984
     1.3891   1.4469   1.4497   1.5221   1.8268   1.9573   2.6080   2.6250
     2.7019   2.7510   3.7584   3.8128   4.2576   4.3571   4.5952   4.9187
     4.9495   5.0128   5.1030   5.4705   5.6280   5.7497   6.0556   6.0754
     6.3330   6.3846   6.4543   6.6744   6.7171   7.0138   7.0715   7.0948
     7.8496   7.8942   7.9240   7.9421   9.9146   9.9522  10.2616  10.3916
    12.2071  12.2695  12.8206  12.8531  13.1267  13.2603  13.6654  13.7560
    14.2800  15.0940  15.2528  15.2579  15.7052  16.6243  17.2542

          k = 0.0000 0.2222 0.2268 ( 31539 PWs)   bands (ev):

   -66.2735 -66.2733 -66.2724 -66.2721 -30.6720 -30.6680 -30.6393 -30.6355
   -30.5949 -30.5941 -30.5931 -30.5927 -30.5299 -30.5297 -30.5283 -30.5282
   -20.4249 -20.4249 -20.4249 -20.4249 -20.4217 -20.4216 -20.4187 -20.4185
   -20.4116 -20.4114 -20.4110 -20.4108 -20.4097 -20.4094 -20.4091 -20.4088
   -20.4063 -20.4062 -20.4059 -20.4059 -20.3841 -20.3841 -20.3840 -20.3840
   -20.3814 -20.3813 -20.3813 -20.3813  -9.8431  -9.6543  -9.0807  -9.0256
    -9.0156  -8.8423  -8.4155  -8.3164  -8.0860  -8.0595  -8.0217  -8.0102
     1.4474   1.4490   1.7505   1.8224   2.1019   2.3608   2.6707   2.7313
     2.8532   2.8653   3.4415   3.5180   3.9217   4.3885   4.4650   4.5484
     4.8488   4.8711   5.0168   5.0263   5.3423   5.4030   6.0589   6.0753
     6.4740   6.6144   6.7925   6.8066   6.8902   6.9958   7.0919   7.1282
     7.6436   7.6941   7.9158   7.9231   9.9328   9.9469  10.6780  10.7835
    11.8114  11.8861  12.8816  12.9370  13.0981  13.2755  13.4307  13.5509
    14.9062  15.2529  15.2565  15.6793  16.0513  16.7191  17.2040

          k = 0.0000 0.2222-0.3403 ( 31558 PWs)   bands (ev):

   -66.2734 -66.2734 -66.2723 -66.2722 -30.6556 -30.6556 -30.6517 -30.6517
   -30.5940 -30.5940 -30.5935 -30.5935 -30.5291 -30.5291 -30.5289 -30.5289
   -20.4249 -20.4249 -20.4249 -20.4249 -20.4202 -20.4202 -20.4201 -20.4201
   -20.4113 -20.4113 -20.4111 -20.4111 -20.4094 -20.4094 -20.4091 -20.4091
   -20.4063 -20.4063 -20.4059 -20.4059 -20.3841 -20.3841 -20.3840 -20.3840
   -20.3814 -20.3814 -20.3813 -20.3813  -9.7340  -9.7340  -9.0207  -9.0207
    -8.7582  -8.7582  -8.6149  -8.6149  -8.0764  -8.0764  -8.0160  -8.0160
     1.4482   1.4482   1.8092   1.8092   2.6970   2.6970   2.9929   2.9929
     3.0348   3.0348   3.1537   3.1537   3.4919   3.4919   4.6280   4.6280
     4.7100   4.7100   5.0923   5.0923   5.1195   5.1195   6.0689   6.0689
     6.5603   6.5603   6.9637   6.9637   7.0501   7.0502   7.2859   7.2859
     7.3527   7.3527   7.9184   7.9184   9.9418   9.9418  11.2459  11.2459
    11.3354  11.3354  12.9914  12.9914  13.1466  13.1466  13.3796  13.3796
    15.2542  15.2542  15.4757  15.4757  16.5475  16.5475  17.6034

          k = 0.0000 0.3333 0.0000 ( 31582 PWs)   bands (ev):

   -66.2734 -66.2730 -66.2727 -66.2722 -30.6879 -30.6851 -30.6231 -30.6201
   -30.5845 -30.5830 -30.5810 -30.5806 -30.5420 -30.5414 -30.5388 -30.5386
   -20.4250 -20.4249 -20.4249 -20.4248 -20.4232 -20.4231 -20.4172 -20.4171
   -20.4117 -20.4112 -20.4107 -20.4106 -20.4099 -20.4099 -20.4093 -20.4088
   -20.4061 -20.4061 -20.4059 -20.4058 -20.3837 -20.3837 -20.3836 -20.3836
   -20.3819 -20.3819 -20.3818 -20.3818  -9.8260  -9.4306  -9.3729  -8.9365
    -8.8789  -8.8586  -8.4155  -8.3475  -8.2278  -8.2055  -7.9737  -7.9271
     1.1883   1.2679   1.9468   1.9636   2.3040   2.3565   2.6846   2.7254
     3.0769   3.1569   3.6530   3.6637   3.9368   4.0206   4.3863   4.4092
     4.8193   4.8528   5.1410   5.2772   5.2868   5.5902   5.7297   5.8823
     6.1562   6.2317   6.2401   6.4955   6.8334   7.0968   7.1765   7.3331
     7.7121   7.7282   7.8056   7.9124  10.5671  10.5958  10.6942  10.8697
    12.2247  12.2388  12.6735  12.7152  12.7472  12.8255  13.4574  13.5758
    14.3120  15.1391  15.4096  16.0795  16.1016  17.3555  17.4037

          k = 0.0000 0.3333 0.1134 ( 31569 PWs)   bands (ev):

   -66.2734 -66.2730 -66.2726 -66.2723 -30.6835 -30.6807 -30.6274 -30.6245
   -30.5843 -30.5829 -30.5812 -30.5808 -30.5418 -30.5412 -30.5390 -30.5388
   -20.4250 -20.4249 -20.4249 -20.4248 -20.4228 -20.4227 -20.4176 -20.4175
   -20.4116 -20.4112 -20.4107 -20.4106 -20.4100 -20.4098 -20.4094 -20.4089
   -20.4061 -20.4061 -20.4059 -20.4058 -20.3837 -20.3837 -20.3836 -20.3836
   -20.3819 -20.3819 -20.3818 -20.3818  -9.7769  -9.3871  -9.3543  -8.9056
    -8.8776  -8.8599  -8.4373  -8.3438  -8.2264  -8.2070  -8.0716  -8.0267
     1.4305   1.5084   1.9480   1.9627   2.3032   2.3678   2.7598   2.7852
     3.0826   3.1515   3.6095   3.6521   3.9521   4.0483   4.3952   4.4198
     4.5612   4.6787   4.8945   5.2634   5.2702   5.4125   5.4938   5.6836
     6.3004   6.3408   6.5491   6.5687   6.8431   7.0882   7.1838   7.3232
     7.6936   7.7195   7.7658   7.8573  10.6024  10.6510  10.7459  10.9454
    12.2170  12.2646  12.5704  12.6247  12.7128  12.8304  13.3469  13.4733
    14.6740  15.4959  15.5769  16.0811  16.0997  17.0274  17.4352

          k = 0.0000 0.3333 0.2268 ( 31564 PWs)   bands (ev):

   -66.2733 -66.2731 -66.2726 -66.2723 -30.6716 -30.6689 -30.6392 -30.6364
   -30.5837 -30.5826 -30.5819 -30.5813 -30.5412 -30.5408 -30.5396 -30.5393
   -20.4249 -20.4249 -20.4249 -20.4249 -20.4218 -20.4216 -20.4187 -20.4186
   -20.4114 -20.4110 -20.4108 -20.4105 -20.4101 -20.4097 -20.4096 -20.4091
   -20.4061 -20.4061 -20.4059 -20.4058 -20.3837 -20.3837 -20.3836 -20.3836
   -20.3819 -20.3819 -20.3818 -20.3818  -9.6552  -9.4342  -9.1396  -8.8740
    -8.8635  -8.8002  -8.5538  -8.3314  -8.3166  -8.2223  -8.2153  -8.2111
     1.9513   1.9598   2.0444   2.1137   2.2966   2.4760   2.9502   2.9930
     3.1023   3.1375   3.4111   3.5106   3.9073   4.0885   4.1648   4.3305
     4.4552   4.4567   4.6117   4.7274   4.9862   5.1289   5.2806   5.2845
     6.6986   6.7299   6.7951   6.8659   6.8816   7.0659   7.2173   7.2842
     7.5383   7.6252   7.7397   7.7605  10.6458  10.6666  11.0428  11.2198
    11.9857  12.1226  12.5114  12.5168  12.7036  12.8541  13.0874  13.2314
    15.4237  15.9739  16.0867  16.0944  16.5219  16.5443  17.3997

          k = 0.0000 0.3333-0.3403 ( 31558 PWs)   bands (ev):

   -66.2732 -66.2732 -66.2725 -66.2724 -30.6554 -30.6554 -30.6527 -30.6527
   -30.5828 -30.5828 -30.5820 -30.5820 -30.5404 -30.5404 -30.5401 -30.5401
   -20.4249 -20.4249 -20.4249 -20.4249 -20.4203 -20.4203 -20.4201 -20.4201
   -20.4111 -20.4111 -20.4107 -20.4107 -20.4099 -20.4099 -20.4094 -20.4094
   -20.4061 -20.4061 -20.4059 -20.4058 -20.3837 -20.3837 -20.3836 -20.3836
   -20.3819 -20.3819 -20.3818 -20.3818  -9.5247  -9.5247  -8.8711  -8.8711
    -8.8324  -8.8323  -8.5961  -8.5961  -8.3025  -8.3025  -8.2167  -8.2167
     1.9557   1.9557   2.2687   2.2687   2.9425   2.9425   3.0288   3.0288
     3.1386   3.1386   3.2565   3.2565   3.5293   3.5293   4.3152   4.3152
     4.3833   4.3833   4.6146   4.6146   4.7096   4.7096   5.2744   5.2744
     6.8061   6.8061   7.0083   7.0083   7.1493   7.1493   7.2336   7.2336
     7.3650   7.3650   7.7416   7.7416  10.6629  10.6629  11.5050  11.5050
    11.6651  11.6651  12.5877  12.5877  12.7680  12.7680  13.0074  13.0074
    15.9956  15.9956  16.0948  16.0948  16.8214  16.8214  17.5179

          k = 0.0000 0.4444 0.0000 ( 31574 PWs)   bands (ev):

   -66.2732 -66.2729 -66.2727 -66.2725 -30.6871 -30.6861 -30.6224 -30.6213
   -30.5707 -30.5693 -30.5673 -30.5668 -30.5559 -30.5549 -30.5526 -30.5522
   -20.4249 -20.4249 -20.4249 -20.4249 -20.4232 -20.4232 -20.4172 -20.4172
   -20.4114 -20.4110 -20.4108 -20.4106 -20.4100 -20.4098 -20.4096 -20.4091
   -20.4059 -20.4059 -20.4059 -20.4058 -20.3831 -20.3831 -20.3830 -20.3830
   -20.3825 -20.3825 -20.3824 -20.3824  -9.6564  -9.5192  -9.0834  -8.8085
    -8.7577  -8.6752  -8.6670  -8.5981  -8.4555  -8.4337  -7.9595  -7.9430
     1.2137   1.2399   2.5046   2.5928   2.7345   2.7481   2.8137   2.9232
     3.2341   3.3218   3.6492   3.6624   3.7182   3.7596   3.8222   3.9095
     4.3631   4.4767   4.8020   4.8514   5.2339   5.4367   5.7974   5.8613
     6.0816   6.0870   6.2263   6.3276   7.2083   7.2683   7.3515   7.4838
     7.4893   7.5892   7.5948   7.7787  11.1508  11.2012  11.3987  11.5493
    11.7642  11.7752  12.1272  12.2229  12.8432  12.9714  13.1285  13.2682
    14.6421  14.9205  16.0294  16.6520  17.1155  17.2182  17.5249

          k = 0.0000 0.4444 0.1134 ( 31561 PWs)   bands (ev):

   -66.2732 -66.2729 -66.2728 -66.2725 -30.6828 -30.6818 -30.6267 -30.6257
   -30.5705 -30.5692 -30.5675 -30.5670 -30.5557 -30.5548 -30.5528 -30.5525
   -20.4249 -20.4249 -20.4249 -20.4249 -20.4228 -20.4228 -20.4176 -20.4176
   -20.4113 -20.4109 -20.4107 -20.4105 -20.4100 -20.4098 -20.4096 -20.4092
   -20.4059 -20.4059 -20.4059 -20.4058 -20.3831 -20.3831 -20.3830 -20.3830
   -20.3825 -20.3825 -20.3824 -20.3824  -9.5959  -9.4483  -9.0984  -8.7891
    -8.7734  -8.6749  -8.6672  -8.5902  -8.4541  -8.4352  -8.0601  -8.0441
     1.4578   1.4837   2.5133   2.5894   2.7574   2.7637   2.8756   2.9351
     3.2219   3.3023   3.6507   3.6940   3.7678   3.7745   3.8560   3.9383
     4.3242   4.4750   4.5509   4.6398   4.9327   5.1443   5.5368   5.6034
     6.3371   6.3771   6.4234   6.4622   7.1986   7.2591   7.3495   7.4680
     7.4756   7.5653   7.5756   7.7364  11.2175  11.2483  11.4109  11.5838
    11.8175  11.8185  12.1310  12.2376  12.7065  12.8397  13.0043  13.1508
    15.0284  15.3178  16.1160  16.7020  17.1000  17.2254  17.3448

          k = 0.0000 0.4444 0.2268 ( 31549 PWs)   bands (ev):

   -66.2731 -66.2728 -66.2728 -66.2726 -30.6709 -30.6700 -30.6385 -30.6375
   -30.5698 -30.5689 -30.5681 -30.5676 -30.5551 -30.5544 -30.5534 -30.5530
   -20.4249 -20.4249 -20.4249 -20.4249 -20.4217 -20.4217 -20.4187 -20.4187
   -20.4111 -20.4107 -20.4105 -20.4105 -20.4101 -20.4100 -20.4099 -20.4095
   -20.4059 -20.4059 -20.4058 -20.4058 -20.3831 -20.3831 -20.3830 -20.3830
   -20.3825 -20.3825 -20.3824 -20.3824  -9.4399  -9.2547  -9.1516  -8.8394
    -8.7181  -8.6735  -8.6684  -8.5591  -8.4505  -8.4391  -8.3030  -8.2767
     2.1142   2.1256   2.5345   2.5782   2.7802   2.8201   2.9928   3.0450
     3.1791   3.2157   3.6460   3.7128   3.8967   3.9047   3.9115   3.9971
     4.0508   4.0559   4.4469   4.4621   4.5046   4.6877   4.8146   4.9542
     6.7517   6.7819   6.7946   6.8396   7.1502   7.2254   7.3501   7.3828
     7.3941   7.5243   7.5418   7.6233  11.3295  11.3404  11.5197  11.7422
    11.9103  11.9633  12.1556  12.3082  12.3677  12.5024  12.6994  12.8595
    15.9242  16.2880  16.3936  16.8357  16.9618  17.0809  17.2548

          k = 0.0000 0.4444-0.3403 ( 31574 PWs)   bands (ev):

   -66.2730 -66.2730 -66.2727 -66.2727 -30.6547 -30.6547 -30.6538 -30.6538
   -30.5690 -30.5690 -30.5682 -30.5682 -30.5543 -30.5543 -30.5537 -30.5537
   -20.4249 -20.4249 -20.4249 -20.4249 -20.4203 -20.4203 -20.4202 -20.4202
   -20.4108 -20.4108 -20.4104 -20.4104 -20.4102 -20.4102 -20.4098 -20.4098
   -20.4059 -20.4059 -20.4058 -20.4058 -20.3831 -20.3831 -20.3830 -20.3830
   -20.3825 -20.3825 -20.3824 -20.3824  -9.2660  -9.2660  -9.0098  -9.0098
    -8.6709  -8.6709  -8.5581  -8.5581  -8.4728  -8.4727  -8.4441  -8.4441
     2.5584   2.5584   2.7068   2.7068   2.9104   2.9104   3.0746   3.0746
     3.1445   3.1445   3.3719   3.3719   3.7174   3.7174   4.1120   4.1120
     4.1938   4.1938   4.2678   4.2678   4.3732   4.3732   4.5068   4.5068
     7.0000   7.0000   7.1053   7.1053   7.1428   7.1428   7.1923   7.1923
     7.4185   7.4185   7.5530   7.5530  11.3615  11.3615  11.8215  11.8215
    12.0508  12.0508  12.1165  12.1165  12.3387  12.3387  12.5437  12.5437
    16.5689  16.5689  16.9528  16.9528  17.1213  17.1213  17.3292

          k = 0.1111 0.1111 0.0000 ( 31591 PWs)   bands (ev):

   -66.2737 -66.2733 -66.2724 -66.2719 -30.6883 -30.6837 -30.6227 -30.6187
   -30.6062 -30.6025 -30.5946 -30.5915 -30.5310 -30.5280 -30.5201 -30.5171
   -20.4250 -20.4249 -20.4249 -20.4248 -20.4232 -20.4230 -20.4171 -20.4169
   -20.4121 -20.4118 -20.4110 -20.4107 -20.4098 -20.4094 -20.4087 -20.4083
   -20.4064 -20.4063 -20.4060 -20.4060 -20.3846 -20.3846 -20.3839 -20.3839
   -20.3815 -20.3815 -20.3807 -20.3807 -10.0623  -9.6988  -9.3623  -9.1054
    -9.0667  -9.0168  -8.0730  -8.0526  -7.9814  -7.9084  -7.8470  -7.8229
     1.0652   1.1096   1.2060   1.3093   1.7166   1.7975   2.4213   2.4855
     2.5871   2.5973   3.9057   3.9386   4.3215   4.6920   4.8600   4.9830
     5.2196   5.3942   5.4049   5.6243   5.6795   5.8430   6.0540   6.2937
     6.4957   6.5966   6.7100   6.7218   6.8541   6.9306   6.9458   6.9623
     7.9246   7.9873   7.9980   8.0451   9.5473   9.5725   9.6394  10.1675
    12.2374  12.4044  12.7895  13.2322  13.2431  13.3155  13.7495  13.8252
    14.0705  14.7387  14.8704  14.9514  15.3537  16.8074  17.1826

          k = 0.1111 0.1111 0.1134 ( 31585 PWs)   bands (ev):

   -66.2737 -66.2733 -66.2724 -66.2720 -30.6839 -30.6793 -30.6270 -30.6230
   -30.6060 -30.6028 -30.5944 -30.5917 -30.5308 -30.5282 -30.5199 -30.5173
   -20.4250 -20.4249 -20.4249 -20.4248 -20.4228 -20.4226 -20.4175 -20.4173
   -20.4120 -20.4117 -20.4110 -20.4108 -20.4097 -20.4094 -20.4088 -20.4083
   -20.4064 -20.4063 -20.4060 -20.4060 -20.3846 -20.3846 -20.3839 -20.3839
   -20.3815 -20.3815 -20.3807 -20.3807 -10.0243  -9.7123  -9.2841  -9.0977
    -9.0682  -8.9813  -8.1412  -8.0509  -8.0480  -7.9938  -7.8454  -7.8245
     1.0982   1.1095   1.3934   1.5331   1.7157   1.8570   2.4901   2.4979
     2.5922   2.6518   3.7874   3.8116   4.2966   4.6122   4.7267   4.9909
     5.0599   5.3191   5.4126   5.4706   5.6946   5.7806   6.0893   6.3789
     6.5000   6.6366   6.7045   6.7140   6.8573   6.8736   6.9533   6.9570
     7.8789   7.9544   7.9862   7.9978   9.5512   9.5682   9.8550  10.3126
    12.0994  12.2579  12.8116  13.2278  13.2576  13.3261  13.7346  13.9765
    14.0299  14.8673  14.9277  14.9616  15.7638  16.4371  17.2987

          k = 0.1111 0.1111 0.2268 ( 31592 PWs)   bands (ev):

   -66.2736 -66.2734 -66.2723 -66.2721 -30.6720 -30.6675 -30.6391 -30.6350
   -30.6053 -30.6034 -30.5939 -30.5923 -30.5303 -30.5287 -30.5194 -30.5178
   -20.4249 -20.4249 -20.4249 -20.4248 -20.4217 -20.4215 -20.4187 -20.4185
   -20.4118 -20.4115 -20.4112 -20.4109 -20.4096 -20.4092 -20.4090 -20.4086
   -20.4064 -20.4063 -20.4060 -20.4060 -20.3846 -20.3846 -20.3839 -20.3839
   -20.3815 -20.3815 -20.3807 -20.3807  -9.9314  -9.7549  -9.0871  -9.0725
    -9.0621  -8.8538  -8.3962  -8.3124  -8.0461  -8.0286  -7.8410  -7.8289
     1.1069   1.1093   1.6659   1.7121   2.0982   2.3785   2.5209   2.5679
     2.7024   2.8626   3.4262   3.4852   3.9290   4.4228   4.5334   4.8518
     4.9050   5.0140   5.2332   5.3657   5.4753   5.7132   6.1859   6.5134
     6.6800   6.6962   6.7528   6.8172   6.8709   6.8733   6.9924   7.0195
     7.6802   7.7162   7.9845   7.9907   9.5577   9.5657  10.3911  10.7189
    11.6775  11.8473  12.9013  13.1832  13.3397  13.3449  13.5393  13.7544
    14.5398  14.8550  15.0195  15.5682  15.8634  16.7822  17.0923

          k = 0.1111 0.1111-0.3403 ( 31576 PWs)   bands (ev):

   -66.2735 -66.2735 -66.2722 -66.2722 -30.6555 -30.6555 -30.6513 -30.6513
   -30.6044 -30.6044 -30.5932 -30.5932 -30.5295 -30.5295 -30.5186 -30.5186
   -20.4249 -20.4249 -20.4249 -20.4249 -20.4202 -20.4202 -20.4200 -20.4200
   -20.4115 -20.4115 -20.4112 -20.4112 -20.4093 -20.4093 -20.4089 -20.4089
   -20.4064 -20.4064 -20.4060 -20.4060 -20.3846 -20.3846 -20.3839 -20.3839
   -20.3815 -20.3815 -20.3807 -20.3807  -9.8302  -9.8302  -9.0788  -9.0788
    -8.7393  -8.7392  -8.6202  -8.6202  -8.0388  -8.0388  -7.8350  -7.8350
     1.1087   1.1087   1.7025   1.7025   2.5449   2.5449   2.9962   2.9962
     3.0245   3.0245   3.0894   3.0894   3.4621   3.4621   4.6711   4.6711
     5.0161   5.0161   5.1669   5.1669   5.5431   5.5431   6.3331   6.3331
     6.6976   6.6976   6.8352   6.8352   6.9713   6.9713   7.3222   7.3223
     7.3342   7.3342   7.9876   7.9876   9.5625   9.5625  11.0573  11.0573
    11.2819  11.2819  13.0560  13.0560  13.3891  13.3891  13.5218  13.5218
    14.8049  14.8049  15.3214  15.3214  16.4383  16.4383  17.5990

          k = 0.1111 0.2222 0.0000 ( 31547 PWs)   bands (ev):

   -66.2736 -66.2731 -66.2725 -66.2721 -30.6881 -30.6843 -30.6229 -30.6193
   -30.6039 -30.6004 -30.5827 -30.5797 -30.5427 -30.5396 -30.5222 -30.5192
   -20.4250 -20.4249 -20.4249 -20.4248 -20.4232 -20.4231 -20.4172 -20.4170
   -20.4120 -20.4114 -20.4110 -20.4104 -20.4101 -20.4095 -20.4091 -20.4083
   -20.4063 -20.4062 -20.4059 -20.4059 -20.3847 -20.3847 -20.3833 -20.3833
   -20.3822 -20.3822 -20.3807 -20.3806  -9.9688  -9.5867  -9.3902  -9.0626
    -8.9510  -8.9216  -8.3040  -8.2767  -7.9916  -7.9168  -7.9119  -7.8877
     1.1250   1.2489   1.2924   1.3204   2.2047   2.2430   2.4518   2.6725
     2.7796   2.8259   3.7289   3.7433   4.1626   4.4501   4.5239   4.8346
     5.0614   5.2006   5.2842   5.6112   5.6926   5.8606   6.0152   6.1608
     6.2137   6.3200   6.3628   6.4763   6.8022   6.8857   6.9202   7.2050
     7.7881   7.8474   7.8790   8.0344   9.7878  10.1429  10.1791  10.6937
    12.1331  12.5140  12.5684  13.0598  13.0793  13.1936  13.5448  13.9309
    13.9999  15.0103  15.2159  15.2536  15.4771  17.2274  17.2919

          k = 0.1111 0.2222 0.1134 ( 31568 PWs)   bands (ev):

   -66.2736 -66.2732 -66.2725 -66.2721 -30.6838 -30.6799 -30.6272 -30.6237
   -30.6037 -30.6007 -30.5826 -30.5800 -30.5425 -30.5399 -30.5220 -30.5194
   -20.4250 -20.4249 -20.4249 -20.4248 -20.4228 -20.4227 -20.4176 -20.4174
   -20.4120 -20.4114 -20.4110 -20.4105 -20.4101 -20.4094 -20.4092 -20.4084
   -20.4063 -20.4062 -20.4060 -20.4059 -20.3847 -20.3847 -20.3833 -20.3833
   -20.3822 -20.3822 -20.3807 -20.3806  -9.9276  -9.6000  -9.3127  -9.0391
    -8.9531  -8.9050  -8.3229  -8.2743  -8.0864  -8.0227  -7.9108  -7.8891
     1.2173   1.2487   1.4521   1.5543   2.2043   2.2579   2.5206   2.7051
     2.8187   2.8219   3.6725   3.7204   4.0469   4.4640   4.5753   4.5828
     4.8338   5.1811   5.2126   5.4780   5.5440   5.7637   6.0728   6.1602
     6.2847   6.3756   6.4790   6.5373   6.8095   6.8260   6.9458   7.2005
     7.7606   7.8391   7.8560   7.9595   9.9712  10.1485  10.1856  10.7982
    12.0738  12.4357  12.4705  13.0387  13.0845  13.2121  13.4516  13.9053
    14.2175  15.1738  15.2064  15.5031  15.6632  16.8026  17.3277

          k = 0.1111 0.2222 0.2268 ( 31552 PWs)   bands (ev):

   -66.2735 -66.2733 -66.2724 -66.2722 -30.6718 -30.6681 -30.6391 -30.6356
   -30.6031 -30.6013 -30.5821 -30.5806 -30.5419 -30.5404 -30.5215 -30.5200
   -20.4249 -20.4249 -20.4249 -20.4249 -20.4217 -20.4216 -20.4187 -20.4185
   -20.4117 -20.4111 -20.4111 -20.4106 -20.4099 -20.4094 -20.4093 -20.4087
   -20.4062 -20.4062 -20.4060 -20.4059 -20.3847 -20.3847 -20.3833 -20.3833
   -20.3822 -20.3822 -20.3807 -20.3806  -9.8271  -9.6423  -9.0936  -8.9947
    -8.9593  -8.8189  -8.4604  -8.3207  -8.2667  -8.2027  -7.9063  -7.8939
     1.2424   1.2481   2.0423   2.1137   2.1990   2.4355   2.7159   2.7512
     2.8130   2.9999   3.4228   3.4813   3.9185   4.1089   4.4142   4.5159
     4.6926   4.7472   5.0451   5.0925   5.2724   5.5821   6.1302   6.1595
     6.3910   6.5962   6.7080   6.7751   6.8368   6.8727   7.0478   7.1798
     7.6014   7.6889   7.8452   7.8625  10.1502  10.1614  10.4967  11.1074
    11.7175  12.0675  12.5307  12.9499  13.1038  13.2586  13.2949  13.6822
    14.7291  15.1660  15.5450  15.8261  16.2693  16.6645  17.3256

          k = 0.1111 0.2222-0.3403 ( 31538 PWs)   bands (ev):

   -66.2734 -66.2734 -66.2723 -66.2723 -30.6555 -30.6554 -30.6519 -30.6519
   -30.6023 -30.6022 -30.5814 -30.5814 -30.5412 -30.5412 -30.5207 -30.5207
   -20.4249 -20.4249 -20.4249 -20.4249 -20.4202 -20.4202 -20.4201 -20.4201
   -20.4114 -20.4114 -20.4109 -20.4109 -20.4097 -20.4097 -20.4090 -20.4090
   -20.4062 -20.4062 -20.4060 -20.4059 -20.3847 -20.3847 -20.3833 -20.3833
   -20.3822 -20.3822 -20.3807 -20.3806  -9.7197  -9.7197  -8.9711  -8.9710
    -8.7768  -8.7765  -8.6095  -8.6092  -8.2514  -8.2512  -7.9003  -7.9001
     1.2464   1.2469   2.1794   2.1800   2.7621   2.7645   2.9865   2.9921
     3.0228   3.0375   3.1400   3.1624   3.4943   3.4993   4.3504   4.3697
     4.6597   4.6721   4.9302   4.9775   5.3274   5.3727   6.1522   6.1524
     6.4888   6.5100   6.7817   6.7984   7.0848   7.0868   7.2814   7.2967
     7.3174   7.3313   7.8497   7.8511  10.1589  10.1605  11.1209  11.1287
    11.5675  11.5747  12.7229  12.7476  13.1182  13.1994  13.4177  13.4741
    15.0397  15.0505  15.8063  15.8214  16.6759  16.6766  17.8665

          k = 0.1111 0.3333 0.0000 ( 31588 PWs)   bands (ev):

   -66.2734 -66.2730 -66.2727 -66.2722 -30.6877 -30.6851 -30.6228 -30.6202
   -30.5965 -30.5934 -30.5686 -30.5657 -30.5567 -30.5537 -30.5292 -30.5262
   -20.4250 -20.4249 -20.4249 -20.4248 -20.4232 -20.4231 -20.4172 -20.4171
   -20.4119 -20.4110 -20.4110 -20.4105 -20.4101 -20.4095 -20.4095 -20.4086
   -20.4061 -20.4061 -20.4059 -20.4059 -20.3845 -20.3845 -20.3829 -20.3829
   -20.3826 -20.3826 -20.3809 -20.3809  -9.8298  -9.4450  -9.4071  -9.0025
    -8.7701  -8.7545  -8.5918  -8.5226  -8.0748  -8.0676  -7.9689  -7.9284
     1.1822   1.2684   1.5895   1.6237   2.5243   2.7053   2.7633   2.8538
     3.1612   3.2058   3.3092   3.5864   3.9029   4.0507   4.2209   4.7304
     4.8254   4.8925   5.0962   5.4809   5.4849   5.5729   5.7048   5.8474
     6.1345   6.1767   6.3214   6.6377   6.6688   6.9283   7.0211   7.4731
     7.5929   7.6336   7.6961   7.9772  10.1662  10.8181  10.8605  11.2793
    11.7554  12.4969  12.5991  12.6955  12.8154  13.0014  13.2100  13.8006
    14.2122  15.0840  15.4653  15.8623  16.2644  17.4246  17.5079

          k = 0.1111 0.3333 0.1134 ( 31566 PWs)   bands (ev):

   -66.2734 -66.2730 -66.2727 -66.2723 -30.6833 -30.6808 -30.6271 -30.6246
   -30.5964 -30.5936 -30.5685 -30.5659 -30.5566 -30.5540 -30.5290 -30.5264
   -20.4250 -20.4249 -20.4249 -20.4248 -20.4228 -20.4227 -20.4176 -20.4175
   -20.4118 -20.4109 -20.4109 -20.4105 -20.4101 -20.4096 -20.4096 -20.4087
   -20.4061 -20.4061 -20.4059 -20.4059 -20.3845 -20.3845 -20.3829 -20.3829
   -20.3826 -20.3826 -20.3809 -20.3809  -9.7824  -9.4199  -9.3701  -8.9750
    -8.7731  -8.7483  -8.6052  -8.5177  -8.1034  -8.0732  -8.0535  -8.0151
     1.4038   1.4950   1.5890   1.6675   2.5902   2.7222   2.7812   2.8834
     3.1644   3.1985   3.2952   3.6129   3.9324   3.9392   4.2734   4.5377
     4.7254   4.7634   4.8870   5.3360   5.4490   5.4844   5.5172   5.7211
     6.3382   6.3483   6.4246   6.6875   6.7007   6.9177   7.0367   7.4492
     7.5768   7.6273   7.6714   7.9064  10.3134  10.8216  10.8628  11.3546
    11.8094  12.3546  12.5760  12.6850  12.7813  12.9572  13.0996  13.7002
    14.5363  15.4692  15.6077  15.8446  16.2911  17.1682  17.4631

          k = 0.1111 0.3333 0.2268 ( 31566 PWs)   bands (ev):

   -66.2733 -66.2731 -66.2726 -66.2724 -30.6714 -30.6690 -30.6389 -30.6365
   -30.5959 -30.5943 -30.5680 -30.5665 -30.5561 -30.5545 -30.5285 -30.5270
   -20.4249 -20.4249 -20.4249 -20.4249 -20.4217 -20.4216 -20.4187 -20.4186
   -20.4116 -20.4110 -20.4107 -20.4104 -20.4102 -20.4098 -20.4095 -20.4089
   -20.4061 -20.4061 -20.4059 -20.4059 -20.3845 -20.3845 -20.3829 -20.3829
   -20.3826 -20.3826 -20.3809 -20.3809  -9.6663  -9.4623  -9.1616  -8.8919
    -8.7831  -8.7182  -8.6697  -8.4999  -8.3204  -8.2862  -8.0683  -8.0522
     1.5705   1.5873   2.1070   2.1992   2.7225   2.7648   2.8715   2.9963
     3.1555   3.1777   3.2554   3.4695   3.9065   3.9165   4.0461   4.2223
     4.4390   4.7052   4.7190   4.7916   4.8778   5.2710   5.4868   5.5250
     6.6305   6.6897   6.7546   6.7941   6.8591   6.9126   7.1113   7.3677
     7.4716   7.5788   7.6463   7.7262  10.6904  10.8277  10.8948  11.5848
    11.8100  12.1207  12.3585  12.6040  12.7049  12.8777  13.0160  13.4607
    15.1599  15.7717  16.0153  16.4179  16.4784  16.7539  17.4740

          k = 0.1111 0.3333-0.3403 ( 31568 PWs)   bands (ev):

   -66.2732 -66.2732 -66.2725 -66.2725 -30.6552 -30.6552 -30.6528 -30.6528
   -30.5951 -30.5951 -30.5673 -30.5673 -30.5553 -30.5553 -30.5277 -30.5277
   -20.4249 -20.4249 -20.4249 -20.4249 -20.4203 -20.4202 -20.4201 -20.4201
   -20.4113 -20.4112 -20.4104 -20.4104 -20.4101 -20.4101 -20.4092 -20.4092
   -20.4061 -20.4061 -20.4059 -20.4059 -20.3845 -20.3845 -20.3829 -20.3829
   -20.3826 -20.3826 -20.3809 -20.3809  -9.5447  -9.5447  -8.8819  -8.8801
    -8.8106  -8.8079  -8.5801  -8.5785  -8.4497  -8.4486  -8.0615  -8.0612
     1.5829   1.5841   2.6968   2.6969   2.9233   2.9280   3.0141   3.0487
     3.1185   3.1492   3.2446   3.2569   3.4215   3.4408   4.1754   4.2022
     4.2967   4.3097   4.5930   4.7121   4.8925   4.9926   5.4901   5.4943
     6.7117   6.7334   6.8513   6.8754   7.1642   7.1738   7.2148   7.2479
     7.3045   7.3335   7.6501   7.6581  10.8220  10.8302  11.2982  11.3285
    11.9436  11.9606  12.3195  12.3648  12.6937  12.8060  13.1679  13.2338
    15.5640  15.5905  16.3772  16.4092  17.0495  17.0727  17.5111

          k = 0.1111 0.4444 0.0000 ( 31593 PWs)   bands (ev):

   -66.2732 -66.2729 -66.2727 -66.2725 -30.6870 -30.6861 -30.6222 -30.6213
   -30.5853 -30.5823 -30.5715 -30.5686 -30.5539 -30.5509 -30.5402 -30.5372
   -20.4249 -20.4249 -20.4249 -20.4249 -20.4232 -20.4232 -20.4172 -20.4171
   -20.4116 -20.4112 -20.4106 -20.4104 -20.4101 -20.4100 -20.4093 -20.4089
   -20.4060 -20.4059 -20.4059 -20.4059 -20.3842 -20.3842 -20.3836 -20.3836
   -20.3819 -20.3819 -20.3813 -20.3813  -9.6741  -9.5383  -9.1704  -8.9045
    -8.8916  -8.7448  -8.5393  -8.5344  -8.2963  -8.2926  -7.9586  -7.9433
     1.2140   1.2415   2.0928   2.1010   2.6031   2.6776   2.6866   2.8229
     3.3206   3.6207   3.6906   3.7682   3.7916   3.9032   4.0550   4.1854
     4.4209   4.7427   4.8272   4.9676   5.2620   5.4303   5.7357   5.7920
     6.1316   6.1689   6.2579   6.4152   7.0365   7.1193   7.2057   7.3454
     7.3743   7.4557   7.7025   7.8686  10.6718  11.2165  11.4886  11.5459
    11.8589  12.1120  12.1814  12.4105  12.6568  12.8992  13.2090  13.5173
    14.5431  14.8444  16.0693  16.5956  16.9026  17.1625  17.4730

          k = 0.1111 0.4444 0.1134 ( 31570 PWs)   bands (ev):

   -66.2731 -66.2729 -66.2728 -66.2725 -30.6827 -30.6818 -30.6265 -30.6256
   -30.5852 -30.5826 -30.5714 -30.5688 -30.5537 -30.5511 -30.5400 -30.5374
   -20.4249 -20.4249 -20.4249 -20.4249 -20.4228 -20.4228 -20.4176 -20.4175
   -20.4115 -20.4111 -20.4105 -20.4104 -20.4101 -20.4100 -20.4094 -20.4090
   -20.4060 -20.4059 -20.4059 -20.4059 -20.3842 -20.3842 -20.3836 -20.3836
   -20.3819 -20.3819 -20.3813 -20.3813  -9.6168  -9.4703  -9.1829  -8.9055
    -8.8821  -8.7335  -8.5436  -8.5314  -8.3000  -8.2943  -8.0583  -8.0433
     1.4561   1.4832   2.0913   2.1091   2.6153   2.6821   2.7472   2.8790
     3.3050   3.6014   3.7019   3.7596   3.8075   3.9580   4.0656   4.1929
     4.3447   4.5813   4.7502   4.7821   4.9998   5.1365   5.5686   5.6453
     6.2920   6.3155   6.4589   6.5721   7.0371   7.1106   7.2092   7.3352
     7.3675   7.4441   7.6612   7.8098  10.7813  11.2943  11.4918  11.5496
    11.9118  12.1146  12.1814  12.4523  12.5131  12.7683  13.0859  13.4062
    14.9042  15.2285  16.1616  16.6028  16.9171  17.1730  17.3771

          k = 0.1111 0.4444 0.2268 ( 31557 PWs)   bands (ev):

   -66.2731 -66.2728 -66.2728 -66.2726 -30.6708 -30.6699 -30.6384 -30.6375
   -30.5847 -30.5832 -30.5709 -30.5694 -30.5532 -30.5517 -30.5395 -30.5380
   -20.4249 -20.4249 -20.4249 -20.4249 -20.4217 -20.4217 -20.4187 -20.4187
   -20.4113 -20.4109 -20.4106 -20.4103 -20.4102 -20.4099 -20.4096 -20.4092
   -20.4060 -20.4059 -20.4059 -20.4059 -20.3842 -20.3842 -20.3836 -20.3836
   -20.3819 -20.3819 -20.3813 -20.3813  -9.4728  -9.2893  -9.2266  -8.9536
    -8.8067  -8.6897  -8.5632  -8.5206  -8.3684  -8.2960  -8.2870  -8.2311
     1.9937   2.0861   2.1121   2.2554   2.6555   2.6659   2.9507   3.0377
     3.2406   3.4255   3.6845   3.7489   3.9425   3.9858   4.0825   4.1113
     4.1659   4.2591   4.3720   4.6233   4.7560   4.7714   4.9066   5.1288
     6.6958   6.7268   6.8118   6.8513   7.0272   7.0838   7.2327   7.2813
     7.3366   7.4285   7.5367   7.6394  11.0899  11.4692  11.5148  11.5924
    12.0539  12.0858  12.1773  12.1826  12.4531  12.5808  12.7836  13.1354
    15.6864  16.1348  16.4580  16.5403  16.9971  17.1658  17.2228

          k = 0.1111 0.4444-0.3403 ( 31578 PWs)   bands (ev):

   -66.2730 -66.2729 -66.2727 -66.2727 -30.6546 -30.6546 -30.6537 -30.6537
   -30.5840 -30.5840 -30.5702 -30.5701 -30.5525 -30.5525 -30.5388 -30.5388
   -20.4249 -20.4249 -20.4249 -20.4249 -20.4202 -20.4202 -20.4202 -20.4202
   -20.4110 -20.4110 -20.4106 -20.4106 -20.4100 -20.4100 -20.4096 -20.4095
   -20.4060 -20.4060 -20.4059 -20.4059 -20.3842 -20.3842 -20.3836 -20.3836
   -20.3819 -20.3819 -20.3813 -20.3813  -9.3213  -9.3211  -9.0798  -9.0795
    -8.6604  -8.6587  -8.5712  -8.5710  -8.4795  -8.4791  -8.2767  -8.2761
     2.0739   2.0754   2.6178   2.6182   2.9531   2.9533   3.0076   3.0121
     3.2589   3.2830   3.4049   3.4104   3.7384   3.7634   4.1183   4.1419
     4.2062   4.3092   4.3681   4.3897   4.4877   4.5814   4.8194   4.8249
     6.9176   6.9400   6.9956   7.0025   7.1121   7.1378   7.1416   7.2041
     7.3360   7.3717   7.4516   7.4749  11.4065  11.4891  11.5794  11.6785
    11.9108  11.9660  12.1148  12.2620  12.3949  12.4383  12.8041  12.8607
    16.2424  16.2914  16.7908  16.8919  16.9773  17.1269  17.2625

          k = 0.2222 0.2222 0.0000 ( 31562 PWs)   bands (ev):

   -66.2735 -66.2730 -66.2726 -66.2722 -30.6878 -30.6847 -30.6222 -30.6198
   -30.6077 -30.6039 -30.5681 -30.5652 -30.5573 -30.5543 -30.5188 -30.5158
   -20.4250 -20.4249 -20.4249 -20.4248 -20.4232 -20.4231 -20.4171 -20.4170
   -20.4121 -20.4111 -20.4111 -20.4104 -20.4101 -20.4095 -20.4093 -20.4082
   -20.4062 -20.4061 -20.4060 -20.4060 -20.3851 -20.3851 -20.3831 -20.3831
   -20.3824 -20.3824 -20.3802 -20.3802  -9.9176  -9.5453  -9.4246  -9.0672
    -8.7907  -8.7634  -8.5707  -8.5120  -7.9849  -7.9226  -7.8699  -7.8449
     1.0749   1.1388   1.2825   1.2839   2.3875   2.7374   2.7908   2.8482
     2.9808   3.0275   3.3026   3.5762   3.9144   4.1322   4.6164   4.8102
     5.0710   5.1957   5.2450   5.5834   5.6751   5.7966   6.0124   6.0491
     6.1796   6.2138   6.2450   6.4940   6.5619   6.7160   6.9731   7.4574
     7.5667   7.6511   7.7083   8.0568   9.6639  10.6379  10.6797  11.2622
    11.7288  12.3817  12.8067  12.8752  12.9320  13.2466  13.2509  13.9250
    14.0704  15.1289  15.2553  15.2573  15.9886  17.3927  17.4859

          k = 0.2222 0.2222 0.1134 ( 31570 PWs)   bands (ev):

   -66.2735 -66.2731 -66.2726 -66.2722 -30.6834 -30.6804 -30.6266 -30.6242
   -30.6074 -30.6042 -30.5680 -30.5654 -30.5571 -30.5545 -30.5186 -30.5160
   -20.4250 -20.4249 -20.4249 -20.4248 -20.4228 -20.4227 -20.4176 -20.4174
   -20.4120 -20.4111 -20.4110 -20.4104 -20.4101 -20.4096 -20.4093 -20.4083
   -20.4062 -20.4061 -20.4060 -20.4060 -20.3851 -20.3851 -20.3831 -20.3831
   -20.3824 -20.3824 -20.3802 -20.3802  -9.8757  -9.5574  -9.3492  -9.0350
    -8.7943  -8.7562  -8.5830  -8.5074  -8.0850  -8.0295  -7.8683  -7.8466
     1.1178   1.1387   1.4614   1.5577   2.4574   2.7566   2.8303   2.8416
     2.9943   3.0207   3.2844   3.6021   3.9415   3.9568   4.5492   4.6332
     4.8367   5.1688   5.1893   5.3890   5.5211   5.7626   6.0301   6.1716
     6.1895   6.2708   6.4271   6.4708   6.5918   6.7730   6.8685   7.4339
     7.5665   7.6443   7.6826   7.9744   9.8761  10.6411  10.6791  11.3380
    11.7771  12.2406  12.6928  12.8407  12.9430  13.1595  13.2578  13.9755
    14.1857  15.2359  15.4027  15.5396  16.0440  17.1094  17.5202

          k = 0.2222 0.2222 0.2268 ( 31541 PWs)   bands (ev):

   -66.2734 -66.2732 -66.2725 -66.2723 -30.6714 -30.6685 -30.6387 -30.6361
   -30.6068 -30.6049 -30.5675 -30.5660 -30.5566 -30.5551 -30.5181 -30.5166
   -20.4249 -20.4249 -20.4249 -20.4249 -20.4217 -20.4216 -20.4187 -20.4186
   -20.4118 -20.4112 -20.4108 -20.4103 -20.4102 -20.4098 -20.4092 -20.4085
   -20.4062 -20.4062 -20.4060 -20.4060 -20.3851 -20.3851 -20.3831 -20.3831
   -20.3824 -20.3824 -20.3802 -20.3802  -9.7747  -9.5964  -9.1389  -8.9396
    -8.8071  -8.7216  -8.6449  -8.4910  -8.3245  -8.2772  -7.8637  -7.8513
     1.1336   1.1384   2.1026   2.2260   2.6569   2.8210   2.8222   2.9155
     3.0013   3.0528   3.2219   3.4157   3.8984   3.9209   4.0561   4.2154
     4.7209   4.7849   4.8872   5.1092   5.2629   5.6253   6.1404   6.1846
     6.3487   6.3698   6.4810   6.6342   6.8273   6.8615   6.9893   7.3537
     7.4836   7.5958   7.6556   7.7606  10.4013  10.6485  10.6839  11.5690
    11.6650  12.0999  12.3634  12.6635  12.9585  13.0254  13.3385  13.7513
    14.6595  15.1594  15.8639  16.3124  16.5008  16.6550  17.6487

          k = 0.2222 0.2222-0.3403 ( 31566 PWs)   bands (ev):

   -66.2733 -66.2733 -66.2724 -66.2724 -30.6551 -30.6551 -30.6523 -30.6523
   -30.6058 -30.6058 -30.5667 -30.5667 -30.5558 -30.5558 -30.5173 -30.5173
   -20.4249 -20.4249 -20.4249 -20.4249 -20.4202 -20.4202 -20.4201 -20.4201
   -20.4115 -20.4115 -20.4105 -20.4105 -20.4101 -20.4101 -20.4089 -20.4089
   -20.4062 -20.4062 -20.4060 -20.4060 -20.3851 -20.3851 -20.3831 -20.3831
   -20.3824 -20.3824 -20.3802 -20.3802  -9.6695  -9.6695  -8.8557  -8.8557
    -8.8402  -8.8402  -8.5840  -8.5840  -8.4433  -8.4433  -7.8575  -7.8575
     1.1372   1.1372   2.7348   2.7348   2.9190   2.9190   2.9621   2.9621
     3.0380   3.0380   3.1726   3.1726   3.3891   3.3891   4.1899   4.1899
     4.3098   4.3098   5.0304   5.0304   5.3731   5.3731   6.1778   6.1778
     6.4302   6.4302   6.5005   6.5005   7.1637   7.1637   7.2546   7.2546
     7.2926   7.2926   7.6687   7.6687  10.6524  10.6524  11.0856  11.0856
    11.9398  11.9398  12.3499  12.3499  12.9771  12.9771  13.5124  13.5124
    14.9872  14.9873  16.2458  16.2458  17.0449  17.0449  17.5770

          k = 0.2222 0.3333 0.0000 ( 31579 PWs)   bands (ev):

   -66.2733 -66.2729 -66.2728 -66.2723 -30.6872 -30.6853 -30.6220 -30.6205
   -30.6055 -30.6021 -30.5725 -30.5696 -30.5529 -30.5500 -30.5208 -30.5178
   -20.4250 -20.4249 -20.4249 -20.4248 -20.4232 -20.4231 -20.4171 -20.4170
   -20.4121 -20.4113 -20.4106 -20.4106 -20.4099 -20.4098 -20.4092 -20.4083
   -20.4061 -20.4061 -20.4060 -20.4060 -20.3852 -20.3852 -20.3840 -20.3839
   -20.3816 -20.3816 -20.3801 -20.3801  -9.8303  -9.4904  -9.4531  -9.0437
    -8.8448  -8.7274  -8.5668  -8.5534  -7.9791  -7.9386  -7.9319  -7.9110
     1.1382   1.2546   1.2677   1.3527   2.4126   2.5980   2.6810   2.8344
     3.2816   3.3970   3.5186   3.7328   3.8722   4.1609   4.5003   4.7935
     4.9148   4.9523   5.1444   5.5403   5.6191   5.6546   5.7907   5.8239
     6.1282   6.1732   6.4240   6.4773   6.5195   6.7352   6.8739   7.3083
     7.3697   7.4632   7.6848   8.0368   9.8161  11.2118  11.2143  11.2596
    11.8349  12.3882  12.6245  12.6497  12.9389  12.9870  13.2723  13.9974
    14.0418  14.9174  15.5530  15.6626  16.6219  17.4540  17.5489

          k = 0.2222 0.3333 0.1134 ( 31577 PWs)   bands (ev):

   -66.2733 -66.2729 -66.2727 -66.2723 -30.6829 -30.6810 -30.6263 -30.6248
   -30.6053 -30.6023 -30.5723 -30.5698 -30.5528 -30.5502 -30.5206 -30.5180
   -20.4249 -20.4249 -20.4249 -20.4248 -20.4228 -20.4227 -20.4175 -20.4175
   -20.4120 -20.4112 -20.4107 -20.4106 -20.4100 -20.4098 -20.4093 -20.4084
   -20.4061 -20.4061 -20.4060 -20.4060 -20.3852 -20.3852 -20.3840 -20.3839
   -20.3816 -20.3816 -20.3801 -20.3801  -9.7858  -9.4641  -9.4206  -9.0105
    -8.8555  -8.7173  -8.5722  -8.5499  -8.0785  -8.0399  -7.9365  -7.9136
     1.2194   1.2545   1.4753   1.5597   2.4841   2.6095   2.6759   2.8964
     3.2809   3.3933   3.4919   3.7852   3.8050   4.0572   4.5440   4.5462
     4.8509   4.8955   4.9252   5.2463   5.5710   5.6832   5.7484   5.8304
     6.1483   6.4196   6.4345   6.4898   6.5600   6.7735   6.8284   7.3106
     7.3623   7.4452   7.6418   7.9554  10.0094  11.2153  11.2466  11.3086
    11.8923  12.2306  12.5885  12.6538  12.8359  12.9643  13.2098  13.9001
    14.3186  15.2921  15.5247  15.8084  16.6834  17.3169  17.5764

          k = 0.2222 0.3333 0.2268 ( 31569 PWs)   bands (ev):

   -66.2732 -66.2730 -66.2727 -66.2724 -30.6710 -30.6691 -30.6383 -30.6367
   -30.6048 -30.6030 -30.5719 -30.5704 -30.5522 -30.5507 -30.5200 -30.5185
   -20.4249 -20.4249 -20.4249 -20.4249 -20.4217 -20.4216 -20.4187 -20.4186
   -20.4117 -20.4112 -20.4107 -20.4103 -20.4102 -20.4098 -20.4092 -20.4086
   -20.4061 -20.4061 -20.4060 -20.4060 -20.3852 -20.3852 -20.3839 -20.3839
   -20.3816 -20.3816 -20.3801 -20.3801  -9.6792  -9.5006  -9.2340  -8.9010
    -8.8963  -8.6773  -8.5972  -8.5370  -8.3209  -8.2935  -7.9319  -7.9189
     1.2469   1.2539   2.1034   2.2333   2.6490   2.6541   2.7033   3.0693
     3.2575   3.3695   3.3882   3.4895   3.9552   3.9987   4.0832   4.2008
     4.5936   4.6948   4.8857   4.9120   4.9731   5.4573   5.8301   5.8378
     6.3670   6.4992   6.5213   6.6715   6.7886   6.8746   6.9723   7.2921
     7.3351   7.4091   7.5057   7.7223  10.5060  11.2183  11.2475  11.5218
    11.8250  12.0704  12.3554  12.6425  12.7182  12.7486  13.2427  13.6686
    14.8434  15.4270  16.1788  16.2235  16.9430  17.0035  17.5831

          k = 0.2222 0.3333-0.3403 ( 31588 PWs)   bands (ev):

   -66.2731 -66.2731 -66.2725 -66.2725 -30.6546 -30.6546 -30.6529 -30.6529
   -30.6039 -30.6039 -30.5712 -30.5711 -30.5515 -30.5515 -30.5193 -30.5193
   -20.4249 -20.4249 -20.4249 -20.4249 -20.4202 -20.4202 -20.4201 -20.4201
   -20.4114 -20.4114 -20.4105 -20.4105 -20.4100 -20.4100 -20.4090 -20.4089
   -20.4061 -20.4061 -20.4060 -20.4060 -20.3852 -20.3852 -20.3839 -20.3839
   -20.3816 -20.3816 -20.3801 -20.3801  -9.5717  -9.5716  -9.0190  -9.0187
    -8.7132  -8.7121  -8.5593  -8.5585  -8.4913  -8.4910  -7.9256  -7.9254
     1.2519   1.2525   2.6070   2.6073   2.9691   2.9759   2.9892   3.0077
     3.1967   3.2134   3.3229   3.3669   3.4370   3.4548   4.1780   4.1817
     4.3561   4.3570   4.8003   4.8859   5.0969   5.1825   5.8342   5.8411
     6.4578   6.4775   6.5950   6.6141   7.1377   7.1390   7.1577   7.2080
     7.2612   7.2867   7.4523   7.4708  11.0948  11.1279  11.2440  11.2896
    11.9516  11.9620  12.3628  12.3657  12.6735  12.7042  13.4078  13.4327
    15.2148  15.2273  16.6418  16.6470  17.0723  17.0934  17.4818

          k = 0.2222 0.4444 0.0000 ( 31581 PWs)   bands (ev):

   -66.2732 -66.2730 -66.2727 -66.2725 -30.6867 -30.6860 -30.6218 -30.6212
   -30.5981 -30.5950 -30.5866 -30.5837 -30.5389 -30.5359 -30.5278 -30.5248
   -20.4249 -20.4249 -20.4249 -20.4248 -20.4232 -20.4231 -20.4171 -20.4171
   -20.4119 -20.4116 -20.4106 -20.4103 -20.4102 -20.4099 -20.4089 -20.4086
   -20.4060 -20.4060 -20.4060 -20.4060 -20.3851 -20.3851 -20.3846 -20.3846
   -20.3809 -20.3808 -20.3804 -20.3803  -9.7146  -9.5918  -9.3020  -9.0953
    -8.9888  -8.8884  -8.3198  -8.3195  -8.1004  -8.0914  -7.9550  -7.9441
     1.2087   1.2438   1.5851   1.6289   2.0840   2.0964   2.5100   2.6675
     3.6744   3.8377   3.9304   3.9857   4.0718   4.2302   4.3860   4.4912
     4.6483   4.9678   5.2232   5.2952   5.3885   5.4200   5.6263   5.6691
     6.2219   6.3266   6.3308   6.5764   6.7473   6.7714   6.8904   7.0494
     7.0565   7.1660   7.8567   7.9719  10.1903  10.6848  11.7723  11.8012
    12.2575  12.2623  12.3775  12.4842  12.6659  12.7820  13.5176  13.7966
    14.3057  14.6286  16.1208  16.2089  16.8897  16.8913  17.2823

          k = 0.2222 0.4444 0.1134 ( 31574 PWs)   bands (ev):

   -66.2731 -66.2729 -66.2727 -66.2725 -30.6823 -30.6817 -30.6261 -30.6255
   -30.5979 -30.5952 -30.5865 -30.5839 -30.5387 -30.5361 -30.5276 -30.5250
   -20.4249 -20.4249 -20.4249 -20.4249 -20.4228 -20.4227 -20.4175 -20.4175
   -20.4118 -20.4115 -20.4107 -20.4104 -20.4101 -20.4098 -20.4090 -20.4086
   -20.4060 -20.4060 -20.4060 -20.4060 -20.3851 -20.3851 -20.3846 -20.3846
   -20.3809 -20.3809 -20.3804 -20.3803  -9.6639  -9.5316  -9.3125  -9.1056
    -8.9602  -8.8689  -8.3278  -8.3176  -8.1173  -8.0986  -8.0505  -8.0302
     1.4168   1.4756   1.5846   1.6784   2.0823   2.1053   2.5838   2.7410
     3.6504   3.8091   3.8622   3.9630   4.0295   4.2667   4.3873   4.4292
     4.6559   4.7811   4.9561   5.1300   5.2838   5.2996   5.6432   5.7076
     6.1976   6.3013   6.5440   6.6822   6.7552   6.7667   6.9065   7.0457
     7.0485   7.1628   7.7958   7.8978  10.3426  10.7989  11.7717  11.7989
    12.2502  12.2579  12.3355  12.4191  12.5323  12.8222  13.4042  13.6925
    14.6179  14.9773  16.0877  16.3190  16.8476  16.9612  17.3329

          k = 0.2222 0.4444 0.2268 ( 31583 PWs)   bands (ev):

   -66.2730 -66.2728 -66.2728 -66.2726 -30.6704 -30.6698 -30.6379 -30.6374
   -30.5975 -30.5959 -30.5861 -30.5845 -30.5382 -30.5367 -30.5270 -30.5255
   -20.4249 -20.4249 -20.4249 -20.4249 -20.4217 -20.4217 -20.4187 -20.4186
   -20.4116 -20.4113 -20.4109 -20.4106 -20.4099 -20.4096 -20.4092 -20.4089
   -20.4060 -20.4060 -20.4060 -20.4060 -20.3851 -20.3851 -20.3846 -20.3846
   -20.3809 -20.3809 -20.3804 -20.3803  -9.5420  -9.3808  -9.3480  -9.1425
    -8.8577  -8.7934  -8.4030  -8.3357  -8.3105  -8.2449  -8.0936  -8.0760
     1.5642   1.5829   1.9798   2.0767   2.2173   2.2594   2.8072   2.9619
     3.4499   3.4789   3.8141   3.8640   4.1752   4.2039   4.2474   4.3218
     4.3955   4.5432   4.6855   4.7371   5.1293   5.1465   5.3137   5.4637
     6.5002   6.6165   6.7243   6.7729   6.8180   6.8649   6.9928   7.0403
     7.0548   7.1673   7.6100   7.6786  10.7567  11.1214  11.7580  11.7800
    11.9398  12.0769  12.2584  12.3314  12.5605  12.9392  13.1323  13.4420
    15.2493  15.7431  15.9728  16.6199  16.7421  17.1732  17.4311

          k = 0.2222 0.4444-0.3403 ( 31574 PWs)   bands (ev):

   -66.2729 -66.2729 -66.2727 -66.2727 -30.6542 -30.6542 -30.6536 -30.6536
   -30.5967 -30.5967 -30.5853 -30.5853 -30.5375 -30.5375 -30.5263 -30.5263
   -20.4249 -20.4249 -20.4249 -20.4249 -20.4202 -20.4202 -20.4202 -20.4202
   -20.4112 -20.4112 -20.4109 -20.4109 -20.4096 -20.4096 -20.4092 -20.4092
   -20.4060 -20.4060 -20.4060 -20.4060 -20.3851 -20.3851 -20.3846 -20.3846
   -20.3809 -20.3809 -20.3804 -20.3803  -9.4220  -9.4218  -9.2286  -9.2284
    -8.6521  -8.6512  -8.6131  -8.6129  -8.2977  -8.2973  -8.0864  -8.0861
     1.5783   1.5792   2.0638   2.0645   2.9875   2.9889   2.9946   3.0011
     3.2921   3.3141   3.4006   3.4082   3.8139   3.8640   4.2913   4.3368
     4.5052   4.5112   4.7579   4.7870   4.8261   4.8574   5.3392   5.3482
     6.6569   6.6578   6.7964   6.7965   6.9323   6.9674   7.0072   7.0395
     7.2986   7.3212   7.3440   7.3684  11.3029  11.3232  11.5804  11.6022
    11.7799  11.8334  12.2570  12.3133  12.7881  12.8162  13.1538  13.1842
    15.7118  15.7353  16.3557  16.3935  17.0729  17.1352  17.4259

          k = 0.3333 0.3333 0.0000 ( 31624 PWs)   bands (ev):

   -66.2732 -66.2729 -66.2728 -66.2724 -30.6867 -30.6855 -30.6211 -30.6208
   -30.6093 -30.6056 -30.5871 -30.5843 -30.5384 -30.5354 -30.5174 -30.5144
   -20.4249 -20.4249 -20.4249 -20.4248 -20.4232 -20.4231 -20.4171 -20.4170
   -20.4122 -20.4116 -20.4108 -20.4103 -20.4102 -20.4096 -20.4089 -20.4082
   -20.4061 -20.4061 -20.4061 -20.4061 -20.3856 -20.3856 -20.3848 -20.3848
   -20.3807 -20.3807 -20.3797 -20.3797  -9.8073  -9.5677  -9.4539  -9.0764
    -9.0515  -8.8824  -8.3287  -8.3284  -7.9683  -7.9382  -7.8960  -7.8700
     1.0824   1.1330   1.2601   1.3035   2.0789   2.0918   2.3622   2.6651
     3.6183   3.7156   3.9513   3.9817   4.0826   4.6236   4.6397   4.8367
     4.9134   4.9952   5.2234   5.5062   5.5249   5.5341   5.8127   5.9508
     6.1554   6.2358   6.2428   6.3106   6.5580   6.6446   6.9353   6.9837
     7.0152   7.1548   7.8530   8.0563   9.6884  10.6830  11.6616  11.6940
    12.3482  12.3538  12.5031  12.5272  12.7074  13.1314  13.5341  13.9756
    14.0706  14.6505  15.4637  15.9997  16.9187  17.0314  17.6047

          k = 0.3333 0.3333 0.1134 ( 31590 PWs)   bands (ev):

   -66.2732 -66.2728 -66.2728 -66.2724 -30.6823 -30.6812 -30.6255 -30.6251
   -30.6091 -30.6058 -30.5870 -30.5845 -30.5382 -30.5356 -30.5172 -30.5146
   -20.4249 -20.4249 -20.4249 -20.4248 -20.4228 -20.4227 -20.4175 -20.4174
   -20.4121 -20.4115 -20.4109 -20.4104 -20.4101 -20.4095 -20.4090 -20.4083
   -20.4061 -20.4061 -20.4061 -20.4061 -20.3856 -20.3856 -20.3848 -20.3848
   -20.3807 -20.3807 -20.3797 -20.3797  -9.7640  -9.5069  -9.4639  -9.0861
    -9.0157  -8.8633  -8.3372  -8.3262  -8.0704  -8.0430  -7.8943  -7.8718
     1.1146   1.1329   1.4745   1.5499   2.0771   2.1008   2.4345   2.7399
     3.6144   3.7106   3.8602   3.8805   4.0153   4.6109   4.6800   4.7402
     4.8827   4.8890   4.9648   5.1732   5.6361   5.7366   5.7496   5.9353
     5.9819   6.2257   6.3370   6.5001   6.5397   6.7062   6.8785   6.9731
     7.0052   7.1500   7.7916   7.9711   9.9027  10.7988  11.6623  11.6922
    12.1876  12.3985  12.4328  12.5380  12.6295  13.1545  13.4306  13.9736
    14.2364  14.9941  15.4328  16.1453  16.8744  17.1059  17.7006

          k = 0.3333 0.3333 0.2268 ( 31563 PWs)   bands (ev):

   -66.2731 -66.2729 -66.2727 -66.2725 -30.6704 -30.6694 -30.6376 -30.6369
   -30.6084 -30.6065 -30.5866 -30.5851 -30.5377 -30.5362 -30.5167 -30.5152
   -20.4249 -20.4249 -20.4249 -20.4249 -20.4217 -20.4216 -20.4186 -20.4186
   -20.4118 -20.4114 -20.4110 -20.4106 -20.4099 -20.4094 -20.4091 -20.4085
   -20.4061 -20.4061 -20.4061 -20.4061 -20.3856 -20.3856 -20.3848 -20.3848
   -20.3807 -20.3807 -20.3797 -20.3797  -9.6620  -9.4970  -9.3551  -9.1210
    -8.8935  -8.7883  -8.4125  -8.3216  -8.3194  -8.2497  -7.8896  -7.8766
     1.1283   1.1327   1.9750   2.0715   2.2430   2.2576   2.6465   2.9658
     3.3996   3.5197   3.6775   3.6993   4.1913   4.2014   4.2673   4.6218
     4.6685   4.8048   4.8752   4.9752   5.1641   5.5183   5.9395   5.9662
     6.1081   6.2215   6.4128   6.6733   6.7005   6.8718   6.8852   6.9909
     7.0506   7.1436   7.6031   7.7236  10.4381  11.1216  11.6491  11.6875
    11.7639  12.0952  12.5306  12.5629  12.5765  13.0789  13.3331  13.7432
    14.7396  15.3291  15.7540  16.5537  16.7254  17.3972  17.4096

          k = 0.3333 0.3333-0.3403 ( 31552 PWs)   bands (ev):

   -66.2730 -66.2730 -66.2726 -66.2726 -30.6540 -30.6540 -30.6532 -30.6531
   -30.6075 -30.6075 -30.5859 -30.5859 -30.5370 -30.5369 -30.5159 -30.5159
   -20.4249 -20.4249 -20.4249 -20.4249 -20.4202 -20.4202 -20.4201 -20.4201
   -20.4115 -20.4115 -20.4109 -20.4109 -20.4096 -20.4096 -20.4088 -20.4088
   -20.4061 -20.4061 -20.4061 -20.4061 -20.3856 -20.3856 -20.3848 -20.3848
   -20.3807 -20.3807 -20.3797 -20.3797  -9.5618  -9.5618  -9.2040  -9.2040
    -8.6680  -8.6680  -8.6055  -8.6055  -8.3055  -8.3055  -7.8831  -7.8831
     1.1317   1.1317   2.0587   2.0587   2.9813   2.9813   2.9987   2.9987
     3.2079   3.2079   3.4227   3.4227   3.6844   3.6844   4.4673   4.4673
     4.6979   4.6979   4.9065   4.9065   5.2134   5.2134   5.9685   5.9685
     6.1930   6.1930   6.5296   6.5296   6.9004   6.9004   7.0256   7.0256
     7.2896   7.2896   7.3669   7.3669  11.0956  11.0956  11.6070  11.6071
    11.6837  11.6837  12.5605  12.5605  12.7876  12.7876  13.4979  13.4979
    15.1173  15.1173  16.3974  16.3974  17.0170  17.0170  17.7893

          k = 0.3333 0.4444 0.0000 ( 31557 PWs)   bands (ev):

   -66.2731 -66.2730 -66.2727 -66.2725 -30.6862 -30.6858 -30.6210 -30.6210
   -30.6069 -30.6035 -30.5990 -30.5960 -30.5268 -30.5238 -30.5195 -30.5165
   -20.4249 -20.4249 -20.4248 -20.4248 -20.4231 -20.4231 -20.4170 -20.4170
   -20.4121 -20.4119 -20.4108 -20.4106 -20.4099 -20.4096 -20.4085 -20.4082
   -20.4062 -20.4062 -20.4061 -20.4061 -20.3857 -20.3857 -20.3854 -20.3854
   -20.3800 -20.3800 -20.3797 -20.3797  -9.7499  -9.6631  -9.3913  -9.2632
    -9.0316  -8.9798  -8.1168  -8.1065  -7.9683  -7.9608  -7.9449  -7.9285
     1.1550   1.2347   1.2460   1.3605   1.5768   1.6233   2.3907   2.4970
     3.9939   4.1018   4.1324   4.1819   4.2724   4.4953   4.5755   4.6086
     5.2630   5.3008   5.3035   5.4277   5.4887   5.5164   5.6716   5.7325
     6.2830   6.3062   6.3541   6.4745   6.4880   6.5693   6.6033   6.8053
     6.8100   6.9335   7.9679   8.0340   9.8352  10.1988  12.0524  12.0779
    12.3384  12.3447  12.3806  12.5030  12.7787  13.0546  13.7995  13.9976
    14.0798  14.3367  15.6903  16.2090  16.4535  16.9971  17.4168

          k = 0.3333 0.4444 0.1134 ( 31580 PWs)   bands (ev):

   -66.2731 -66.2730 -66.2727 -66.2726 -30.6819 -30.6815 -30.6253 -30.6253
   -30.6067 -30.6037 -30.5989 -30.5963 -30.5266 -30.5240 -30.5193 -30.5167
   -20.4249 -20.4249 -20.4249 -20.4249 -20.4227 -20.4227 -20.4174 -20.4174
   -20.4120 -20.4118 -20.4108 -20.4107 -20.4098 -20.4095 -20.4086 -20.4083
   -20.4062 -20.4062 -20.4061 -20.4061 -20.3857 -20.3857 -20.3854 -20.3854
   -20.3800 -20.3800 -20.3797 -20.3797  -9.7046  -9.6118  -9.4008  -9.2726
    -8.9973  -8.9513  -8.1286  -8.1150  -8.0674  -8.0354  -7.9590  -7.9349
     1.2161   1.2459   1.4248   1.5590   1.5763   1.6766   2.4642   2.5722
     3.8650   3.9068   4.0874   4.1268   4.3253   4.5052   4.5692   4.6347
     5.0226   5.0639   5.2468   5.2701   5.5709   5.6745   5.7079   5.7374
     6.0916   6.2755   6.4061   6.4757   6.5617   6.6205   6.6851   6.7963
     6.8225   6.8686   7.8928   7.9509  10.0299  10.3528  12.0527  12.0739
    12.2246  12.2820  12.3447  12.4103  12.8178  13.0900  13.6937  13.8978
    14.3545  14.6429  15.6574  16.1736  16.5868  17.1082  17.4864

          k = 0.3333 0.4444 0.2268 ( 31576 PWs)   bands (ev):

   -66.2730 -66.2729 -66.2728 -66.2726 -30.6700 -30.6696 -30.6373 -30.6371
   -30.6062 -30.6044 -30.5985 -30.5969 -30.5261 -30.5246 -30.5188 -30.5173
   -20.4249 -20.4249 -20.4249 -20.4249 -20.4216 -20.4216 -20.4186 -20.4186
   -20.4118 -20.4116 -20.4111 -20.4109 -20.4095 -20.4093 -20.4089 -20.4086
   -20.4062 -20.4062 -20.4062 -20.4061 -20.3857 -20.3857 -20.3854 -20.3854
   -20.3800 -20.3800 -20.3797 -20.3797  -9.5984  -9.4896  -9.4325  -9.3048
    -8.8773  -8.8468  -8.3470  -8.3297  -8.1098  -8.0913  -7.9543  -7.9408
     1.2391   1.2454   1.5565   1.5746   2.2136   2.2322   2.6840   2.8013
     3.4332   3.4843   4.0795   4.1092   4.2479   4.2715   4.4789   4.5263
     4.5865   4.8025   5.0985   5.2795   5.3943   5.4673   5.7444   5.7755
     6.1759   6.2948   6.4455   6.5514   6.5937   6.7382   6.8083   6.8237
     6.9049   6.9589   7.6680   7.7066  10.5299  10.7697  11.7730  11.8952
    12.0615  12.0815  12.3524  12.3761  12.9404  13.1993  13.4405  13.6594
    14.8987  15.2778  15.5465  16.0499  16.9680  17.4256  17.6756

          k = 0.3333 0.4444-0.3403 ( 31580 PWs)   bands (ev):

   -66.2729 -66.2729 -66.2728 -66.2728 -30.6536 -30.6536 -30.6534 -30.6534
   -30.6053 -30.6053 -30.5978 -30.5978 -30.5253 -30.5253 -30.5180 -30.5180
   -20.4249 -20.4249 -20.4249 -20.4249 -20.4201 -20.4201 -20.4201 -20.4201
   -20.4115 -20.4114 -20.4112 -20.4112 -20.4092 -20.4092 -20.4089 -20.4089
   -20.4062 -20.4062 -20.4062 -20.4062 -20.3857 -20.3857 -20.3854 -20.3854
   -20.3800 -20.3800 -20.3797 -20.3797  -9.4963  -9.4963  -9.3733  -9.3733
    -8.6473  -8.6470  -8.6294  -8.6293  -8.1023  -8.1021  -7.9477  -7.9476
     1.2438   1.2441   1.5704   1.5707   2.9826   2.9848   2.9908   2.9939
     3.2363   3.2401   3.3153   3.3181   4.0888   4.1109   4.5131   4.5459
     4.8018   4.8186   5.0573   5.0971   5.3187   5.3343   5.7519   5.7645
     6.2647   6.2700   6.5409   6.5498   6.6381   6.6497   6.8337   6.8398
     7.3074   7.3138   7.3309   7.3383  11.1622  11.1649  11.3357  11.3388
    12.0630  12.0774  12.3555  12.3719  13.1467  13.1569  13.3985  13.4093
    15.3120  15.3205  15.7766  15.7865  17.3654  17.3862  17.6885

          k = 0.4444 0.4444 0.0000 ( 31556 PWs)   bands (ev):

   -66.2731 -66.2730 -66.2726 -66.2726 -30.6859 -30.6858 -30.6206 -30.6203
   -30.6104 -30.6074 -30.6066 -30.6040 -30.5190 -30.5165 -30.5160 -30.5135
   -20.4249 -20.4249 -20.4248 -20.4248 -20.4231 -20.4231 -20.4170 -20.4170
   -20.4122 -20.4121 -20.4108 -20.4108 -20.4096 -20.4095 -20.4082 -20.4081
   -20.4063 -20.4063 -20.4062 -20.4062 -20.3860 -20.3860 -20.3859 -20.3859
   -20.3795 -20.3795 -20.3794 -20.3794  -9.7565  -9.7252  -9.4169  -9.3735
    -9.0428  -9.0270  -7.9698  -7.9666  -7.9568  -7.9331  -7.9127  -7.8863
     1.0881   1.1259   1.1635   1.2418   1.3194   1.3652   2.3452   2.3823
     4.1549   4.1729   4.3612   4.4383   4.5496   4.6067   4.6392   4.6588
     5.3238   5.3808   5.3856   5.3926   5.6485   5.7093   5.7625   5.8939
     6.0977   6.2052   6.2477   6.3052   6.3410   6.4885   6.4955   6.5617
     6.9124   6.9822   8.0324   8.0539   9.7029   9.8414  12.2425  12.2767
    12.3300  12.3434  12.3443  12.4040  13.0567  13.1541  13.9941  14.0002
    14.0700  14.0925  15.5413  15.7274  16.7243  16.9499  17.5410

          k = 0.4444 0.4444 0.1134 ( 31564 PWs)   bands (ev):

   -66.2730 -66.2730 -66.2727 -66.2726 -30.6815 -30.6814 -30.6249 -30.6247
   -30.6102 -30.6073 -30.6069 -30.6043 -30.5188 -30.5163 -30.5161 -30.5137
   -20.4249 -20.4249 -20.4248 -20.4248 -20.4227 -20.4227 -20.4174 -20.4174
   -20.4121 -20.4120 -20.4109 -20.4109 -20.4095 -20.4094 -20.4083 -20.4082
   -20.4063 -20.4063 -20.4062 -20.4062 -20.3860 -20.3860 -20.3859 -20.3859
   -20.3795 -20.3795 -20.3794 -20.3794  -9.7131  -9.6799  -9.4261  -9.3826
    -9.0063  -8.9925  -8.0674  -8.0627  -7.9680  -7.9434  -7.9111  -7.8882
     1.1109   1.1259   1.2147   1.2417   1.5525   1.5651   2.4184   2.4565
     3.8931   3.9136   4.3791   4.4363   4.5985   4.6095   4.6325   4.7208
     5.0605   5.0776   5.4885   5.5870   5.6510   5.6935   5.7345   5.8961
     6.0885   6.1050   6.2469   6.2481   6.3667   6.5071   6.5847   6.6432
     6.8476   6.8808   7.9489   7.9678   9.9173  10.0363  12.1816  12.2113
    12.2502  12.2757  12.3392  12.3753  13.0915  13.1877  13.8994  13.9738
    14.2550  14.3634  15.5091  15.6939  16.8816  17.1110  17.5964

          k = 0.4444 0.4444 0.2268 ( 31611 PWs)   bands (ev):

   -66.2730 -66.2729 -66.2727 -66.2727 -30.6696 -30.6695 -30.6368 -30.6368
   -30.6095 -30.6076 -30.6067 -30.6050 -30.5183 -30.5168 -30.5157 -30.5142
   -20.4249 -20.4249 -20.4249 -20.4249 -20.4216 -20.4216 -20.4185 -20.4185
   -20.4119 -20.4118 -20.4112 -20.4111 -20.4093 -20.4092 -20.4086 -20.4085
   -20.4063 -20.4063 -20.4062 -20.4062 -20.3860 -20.3860 -20.3859 -20.3859
   -20.3795 -20.3795 -20.3794 -20.3794  -9.6124  -9.5743  -9.4563  -9.4130
    -8.8804  -8.8714  -8.3348  -8.3303  -7.9631  -7.9495  -7.9064  -7.8931
     1.1220   1.1257   1.2353   1.2413   2.2301   2.2416   2.6340   2.6785
     3.4220   3.4427   4.2455   4.2596   4.3994   4.4371   4.6041   4.6307
     4.7842   4.9008   5.3638   5.4667   5.7307   5.7366   5.8507   5.9030
     6.0271   6.0817   6.1867   6.2343   6.4406   6.5645   6.7006   6.7431
     6.8961   6.9137   7.7025   7.7153  10.4527  10.5363  11.7386  11.7787
    12.2595  12.2723  12.3526  12.3679  13.2023  13.2949  13.6586  13.7386
    14.7730  14.9133  15.4007  15.5810  17.3250  17.6417  17.7239

          k = 0.4444 0.4444-0.3403 ( 31584 PWs)   bands (ev):

   -66.2729 -66.2728 -66.2728 -66.2728 -30.6532 -30.6532 -30.6532 -30.6532
   -30.6085 -30.6085 -30.6059 -30.6059 -30.5175 -30.5175 -30.5150 -30.5150
   -20.4249 -20.4249 -20.4249 -20.4249 -20.4201 -20.4201 -20.4201 -20.4201
   -20.4115 -20.4115 -20.4115 -20.4115 -20.4089 -20.4089 -20.4088 -20.4088
   -20.4063 -20.4063 -20.4063 -20.4063 -20.3860 -20.3860 -20.3859 -20.3859
   -20.3795 -20.3795 -20.3794 -20.3794  -9.5165  -9.5165  -9.4744  -9.4744
    -8.6428  -8.6428  -8.6375  -8.6375  -7.9564  -7.9564  -7.8998  -7.8998
     1.1249   1.1249   1.2399   1.2399   2.9781   2.9781   2.9830   2.9830
     3.2155   3.2155   3.2417   3.2417   4.4175   4.4175   4.6155   4.6155
     5.0580   5.0580   5.1722   5.1722   5.7394   5.7394   5.9025   5.9025
     6.0661   6.0661   6.2039   6.2039   6.5544   6.5544   6.6490   6.6490
     7.3205   7.3205   7.3300   7.3300  11.1146  11.1146  11.1729  11.1729
    12.2670  12.2670  12.3617  12.3617  13.3968  13.3968  13.4870  13.4870
    15.1759  15.1759  15.3438  15.3438  17.6941  17.6941  17.8650

     the Fermi energy is     9.5543 ev

!    total energy              =   -3130.33926168 Ry
     Harris-Foulkes estimate   =   -3130.33926168 Ry
     estimated scf accuracy    <          5.4E-10 Ry

     The total energy is the sum of the following terms:

     one-electron contribution =   -2391.43371236 Ry
     hartree contribution      =    1313.46839334 Ry
     xc contribution           =    -483.17831857 Ry
     ewald contribution        =   -1569.19560324 Ry
     smearing contrib. (-TS)   =      -0.00002084 Ry

     convergence has been achieved in  12 iterations

     Writing output data file chempot_6.save/
 
     init_run     :      9.40s CPU     10.04s WALL (       1 calls)
     electrons    :    334.58s CPU    340.93s WALL (       1 calls)

     Called by init_run:
     wfcinit      :      8.64s CPU      9.17s WALL (       1 calls)
     potinit      :      0.26s CPU      0.29s WALL (       1 calls)
     hinit0       :      0.40s CPU      0.44s WALL (       1 calls)

     Called by electrons:
     c_bands      :    293.10s CPU    298.91s WALL (      12 calls)
     sum_band     :     38.80s CPU     39.05s WALL (      12 calls)
     v_of_rho     :      0.73s CPU      0.76s WALL (      13 calls)
     mix_rho      :      1.31s CPU      1.50s WALL (      12 calls)

     Called by c_bands:
     init_us_2    :      2.22s CPU      2.33s WALL (      50 calls)
     cegterg      :    256.41s CPU    262.01s WALL (      24 calls)

     Called by sum_band:

     Called by *egterg:
     h_psi        :    205.64s CPU    208.41s WALL (      91 calls)
     g_psi        :      0.41s CPU      0.41s WALL (      65 calls)
     cdiaghg      :      2.65s CPU      2.69s WALL (      89 calls)

     Called by h_psi:
     h_psi:pot    :    204.99s CPU    206.15s WALL (      91 calls)
     h_psi:calbec :     21.60s CPU     22.01s WALL (      91 calls)
     vloc_psi     :    160.46s CPU    161.05s WALL (      91 calls)
     add_vuspsi   :     22.93s CPU     23.09s WALL (      91 calls)

     General routines
     calbec       :     21.60s CPU     22.01s WALL (      91 calls)
     fft          :      0.37s CPU      0.38s WALL (      39 calls)
     ffts         :      0.13s CPU      0.13s WALL (      12 calls)
     fftw         :    166.69s CPU    167.17s WALL (   15958 calls)
 
     Parallel routines
 
     PWSCF        :   5m44.76s CPU   5m52.09s WALL

 
   This run was terminated on:  21:55:42  16Dec2019            

=------------------------------------------------------------------------------=
   JOB DONE.
=------------------------------------------------------------------------------=
