
     Program PWSCF v.6.2 (svn rev. 14038) starts on 17Sep2019 at 11:58: 9 

     This program is part of the open-source Quantum ESPRESSO suite
     for quantum simulation of materials; please cite
         "P. Giannozzi et al., J. Phys.:Condens. Matter 21 395502 (2009);
         "P. Giannozzi et al., J. Phys.:Condens. Matter 29 465901 (2017);
          URL http://www.quantum-espresso.org", 
     in publications or presentations arising from this work. More details at
     http://www.quantum-espresso.org/quote

     Parallel version (MPI), running on    40 processors

     MPI processes distributed on     5 nodes
     K-points division:     npool     =      40
     Reading input from scf.in

     Current dimensions of program PWSCF are:
     Max number of different atomic species (ntypx) = 10
     Max number of k-points (npk) =  40000
     Max angular momentum in pseudopotentials (lmaxx) =  3

     Subspace diagonalization in iterative solution of the eigenvalue problem:
     a serial algorithm will be used

 
     G-vector sticks info
     --------------------
     sticks:   dense  smooth     PW     G-vecs:    dense   smooth      PW
     Sum        7729    7729   2073               497093   497093   68913
 


     bravais-lattice index     =            0
     lattice parameter (alat)  =      13.8446  a.u.
     unit-cell volume          =    2798.7122 (a.u.)^3
     number of atoms/cell      =           32
     number of atomic types    =            2
     number of electrons       =       368.36
     number of Kohn-Sham states=          221
     kinetic-energy cutoff     =     120.0000  Ry
     charge density cutoff     =     480.0000  Ry
     convergence threshold     =      1.0E-08
     mixing beta               =       0.7000
     number of iterations used =            8  plain     mixing
     Exchange-correlation      = SLA PW NOGX NOGC ( 1  4  0  0 0 0)

     celldm(1)=  13.844585  celldm(2)=   0.000000  celldm(3)=   0.000000
     celldm(4)=   0.000000  celldm(5)=   0.000000  celldm(6)=   0.000000

     crystal axes: (cart. coord. in units of alat)
               a(1) = (   1.000000   0.000000   0.000000 )  
               a(2) = (   0.000000   1.054674   0.000000 )  
               a(3) = (   0.000000   0.000000   1.000000 )  

     reciprocal axes: (cart. coord. in units 2 pi/alat)
               b(1) = (  1.000000  0.000000  0.000000 )  
               b(2) = (  0.000000  0.948160  0.000000 )  
               b(3) = (  0.000000  0.000000  1.000000 )  


     PseudoPot. # 1 for W  read from file:
     /cluster/scratch/mnoe/QE/pps/W_ONCV_LDA-4.0.upf
     MD5 check sum: ba0307d5d4cd419d6f1d13dc49d7c13a
     Pseudo is Norm-conserving + core correction, Zval = 28.0
     Generated using ONCVPSP code by D. R. Hamann
     Using radial grid of 1380 points,  8 beta functions with: 
                l(1) =   0
                l(2) =   0
                l(3) =   1
                l(4) =   1
                l(5) =   2
                l(6) =   2
                l(7) =   3
                l(8) =   3

     PseudoPot. # 2 for O  read from file:
     /cluster/scratch/mnoe/QE/pps/O_ONCV_LDA-3.0.upf
     MD5 check sum: ca1549d10c4e927e51167f6fca52ae32
     Pseudo is Norm-conserving + core correction, Zval =  6.0
     Generated using ONCVPSP code by D. R. Hamann
     Using radial grid of  926 points,  5 beta functions with: 
                l(1) =   0
                l(2) =   0
                l(3) =   1
                l(4) =   1
                l(5) =   2

     atomic species   valence    mass     pseudopotential
        W             28.00   183.84000     W ( 1.00)
        O              6.00    15.99940     O ( 1.00)

      8 Sym. Ops. (no inversion) found ( 4 have fractional translation)



   Cartesian axes

     site n.     atom                  positions (alat units)
         1           W   tau(   1) = (   0.2598900   0.2972705   0.2502900  )
         2           W   tau(   2) = (  -0.2502899   0.7574039  -0.7401100  )
         3           W   tau(   3) = (   0.2401100   0.2300667   0.7502900  )
         4           W   tau(   4) = (   0.7502900   0.8246077   0.7598900  )
         5           W   tau(   5) = (   0.7401100   0.2972705   0.7497100  )
         6           W   tau(   6) = (   0.2502900   0.7574039   0.7401100  )
         7           W   tau(   7) = (  -0.2401100   0.2300667  -0.7502899  )
         8           W   tau(   8) = (   0.2497100   0.8246077   0.2401100  )
         9           O   tau(   9) = (   0.2608700   0.0087749   0.2578900  )
        10           O   tau(  10) = (  -0.2578899   1.0458995  -0.7391300  )
        11           O   tau(  11) = (   0.2391300   0.5185623   0.7578900  )
        12           O   tau(  12) = (   0.7578900   0.5361121   0.7608700  )
        13           O   tau(  13) = (   0.7391300   0.0087749   0.7421100  )
        14           O   tau(  14) = (   0.2578900   1.0458995   0.7391300  )
        15           O   tau(  15) = (  -0.2391300   0.5185623  -0.7578899  )
        16           O   tau(  16) = (   0.2421100   0.5361121   0.2391300  )
        17           O   tau(  17) = (   0.4965000   0.2760399   0.6995400  )
        18           O   tau(  18) = (   0.4992800   0.7830641   0.8004600  )
        19           O   tau(  19) = (  -0.9965000   0.2512973   1.1995400  )
        20           O   tau(  20) = (   0.0007200   0.7989474   0.3004600  )
        21           O   tau(  21) = (   0.5035000   0.2760399   0.3004600  )
        22           O   tau(  22) = (   0.5007200   0.7830641   1.1995400  )
        23           O   tau(  23) = (  -0.0035000   0.2512973   0.8004600  )
        24           O   tau(  24) = (  -1.0007200   0.7989474   0.6995400  )
        25           O   tau(  25) = (   0.6995400   0.2557269   2.0007200  )
        26           O   tau(  26) = (   0.3004600   0.7786345   0.4965000  )
        27           O   tau(  27) = (   0.8004600   0.2716103   0.5007200  )
        28           O   tau(  28) = (   0.1995400   0.8033770   1.9965000  )
        29           O   tau(  29) = (   0.3004600   0.2557269   0.9992800  )
        30           O   tau(  30) = (   0.6995400   0.7786345   0.5035000  )
        31           O   tau(  31) = (   0.1995400   0.2716103   0.4992800  )
        32           O   tau(  32) = (   0.8004600   0.8033770   1.0035000  )

     number of k points=    40  gaussian smearing, width (Ry)=  0.0007
                       cart. coord. in units 2pi/alat
        k(    1) = (   0.0000000   0.0000000   0.0000000), wk =   0.0092593
        k(    2) = (   0.0000000   0.0000000   0.1666667), wk =   0.0370370
        k(    3) = (   0.0000000   0.0000000   0.3333333), wk =   0.0370370
        k(    4) = (   0.0000000   0.0000000  -0.5000000), wk =   0.0185185
        k(    5) = (   0.0000000   0.1580267   0.0000000), wk =   0.0185185
        k(    6) = (   0.0000000   0.1580267   0.1666667), wk =   0.0740741
        k(    7) = (   0.0000000   0.1580267   0.3333333), wk =   0.0740741
        k(    8) = (   0.0000000   0.1580267  -0.5000000), wk =   0.0370370
        k(    9) = (   0.0000000   0.3160533   0.0000000), wk =   0.0185185
        k(   10) = (   0.0000000   0.3160533   0.1666667), wk =   0.0740741
        k(   11) = (   0.0000000   0.3160533   0.3333333), wk =   0.0740741
        k(   12) = (   0.0000000   0.3160533  -0.5000000), wk =   0.0370370
        k(   13) = (   0.0000000  -0.4740800   0.0000000), wk =   0.0092593
        k(   14) = (   0.0000000  -0.4740800   0.1666667), wk =   0.0370370
        k(   15) = (   0.0000000  -0.4740800   0.3333333), wk =   0.0370370
        k(   16) = (   0.0000000  -0.4740800  -0.5000000), wk =   0.0185185
        k(   17) = (   0.1666667   0.0000000   0.1666667), wk =   0.0370370
        k(   18) = (   0.1666667   0.0000000   0.3333333), wk =   0.0740741
        k(   19) = (   0.1666667   0.0000000  -0.5000000), wk =   0.0370370
        k(   20) = (   0.1666667   0.1580267   0.1666667), wk =   0.0740741
        k(   21) = (   0.1666667   0.1580267   0.3333333), wk =   0.1481481
        k(   22) = (   0.1666667   0.1580267  -0.5000000), wk =   0.0740741
        k(   23) = (   0.1666667   0.3160533   0.1666667), wk =   0.0740741
        k(   24) = (   0.1666667   0.3160533   0.3333333), wk =   0.1481481
        k(   25) = (   0.1666667   0.3160533  -0.5000000), wk =   0.0740741
        k(   26) = (   0.1666667  -0.4740800   0.1666667), wk =   0.0370370
        k(   27) = (   0.1666667  -0.4740800   0.3333333), wk =   0.0740741
        k(   28) = (   0.1666667  -0.4740800  -0.5000000), wk =   0.0370370
        k(   29) = (   0.3333333   0.0000000   0.3333333), wk =   0.0370370
        k(   30) = (   0.3333333   0.0000000  -0.5000000), wk =   0.0370370
        k(   31) = (   0.3333333   0.1580267   0.3333333), wk =   0.0740741
        k(   32) = (   0.3333333   0.1580267  -0.5000000), wk =   0.0740741
        k(   33) = (   0.3333333   0.3160533   0.3333333), wk =   0.0740741
        k(   34) = (   0.3333333   0.3160533  -0.5000000), wk =   0.0740741
        k(   35) = (   0.3333333  -0.4740800   0.3333333), wk =   0.0370370
        k(   36) = (   0.3333333  -0.4740800  -0.5000000), wk =   0.0370370
        k(   37) = (  -0.5000000   0.0000000  -0.5000000), wk =   0.0092593
        k(   38) = (  -0.5000000   0.1580267  -0.5000000), wk =   0.0185185
        k(   39) = (  -0.5000000   0.3160533  -0.5000000), wk =   0.0185185
        k(   40) = (  -0.5000000  -0.4740800  -0.5000000), wk =   0.0092593

     Dense  grid:   497093 G-vectors     FFT dimensions: ( 100, 108, 100)

     Estimated max dynamical RAM per process >       2.71 GB

     Estimated total dynamical RAM >     108.45 GB

     Initial potential from superposition of free atoms

     starting charge  367.99656, renormalised to  368.36000
     Starting wfc are  232 randomized atomic wfcs

     total cpu time spent up to now is       26.0 secs

     Self-consistent Calculation

     iteration #  1     ecut=   120.00 Ry     beta= 0.70
     Davidson diagonalization with overlap
     ethr =  1.00E-02,  avg # of iterations =  4.9

     total cpu time spent up to now is      114.8 secs

     total energy              =   -6253.67124550 Ry
     Harris-Foulkes estimate   =   -6264.38440620 Ry
     estimated scf accuracy    <      13.52417427 Ry

     iteration #  2     ecut=   120.00 Ry     beta= 0.70
     Davidson diagonalization with overlap
     ethr =  3.67E-03,  avg # of iterations =  3.5

     total cpu time spent up to now is      201.3 secs

     total energy              =   -6250.58990382 Ry
     Harris-Foulkes estimate   =   -6270.48487696 Ry
     estimated scf accuracy    <      53.15593347 Ry

     iteration #  3     ecut=   120.00 Ry     beta= 0.70
     Davidson diagonalization with overlap
     ethr =  3.67E-03,  avg # of iterations =  3.4

     total cpu time spent up to now is      284.2 secs

     total energy              =   -6260.83817262 Ry
     Harris-Foulkes estimate   =   -6261.11879169 Ry
     estimated scf accuracy    <       0.92633213 Ry

     iteration #  4     ecut=   120.00 Ry     beta= 0.70
     Davidson diagonalization with overlap
     ethr =  2.51E-04,  avg # of iterations =  2.9

     total cpu time spent up to now is      351.0 secs

     total energy              =   -6260.84086007 Ry
     Harris-Foulkes estimate   =   -6260.91159043 Ry
     estimated scf accuracy    <       0.23139216 Ry

     iteration #  5     ecut=   120.00 Ry     beta= 0.70
     Davidson diagonalization with overlap
     ethr =  6.28E-05,  avg # of iterations =  4.8

     total cpu time spent up to now is      422.5 secs

     total energy              =   -6260.83914587 Ry
     Harris-Foulkes estimate   =   -6260.87160382 Ry
     estimated scf accuracy    <       0.07124179 Ry

     iteration #  6     ecut=   120.00 Ry     beta= 0.70
     Davidson diagonalization with overlap
     ethr =  1.93E-05,  avg # of iterations =  5.3

     total cpu time spent up to now is      499.2 secs

     total energy              =   -6260.85487392 Ry
     Harris-Foulkes estimate   =   -6260.85719513 Ry
     estimated scf accuracy    <       0.00614163 Ry

     iteration #  7     ecut=   120.00 Ry     beta= 0.70
     Davidson diagonalization with overlap
     ethr =  1.67E-06,  avg # of iterations =  5.8

     total cpu time spent up to now is      570.6 secs

     total energy              =   -6260.85567384 Ry
     Harris-Foulkes estimate   =   -6260.85575253 Ry
     estimated scf accuracy    <       0.00014880 Ry

     iteration #  8     ecut=   120.00 Ry     beta= 0.70
     Davidson diagonalization with overlap
     ethr =  4.04E-08,  avg # of iterations =  3.2

     total cpu time spent up to now is      658.9 secs

     total energy              =   -6260.85573539 Ry
     Harris-Foulkes estimate   =   -6260.85574201 Ry
     estimated scf accuracy    <       0.00003028 Ry

     iteration #  9     ecut=   120.00 Ry     beta= 0.70
     Davidson diagonalization with overlap
     ethr =  8.22E-09,  avg # of iterations =  2.0

     total cpu time spent up to now is      724.3 secs

     total energy              =   -6260.85573219 Ry
     Harris-Foulkes estimate   =   -6260.85573727 Ry
     estimated scf accuracy    <       0.00001376 Ry

     iteration # 10     ecut=   120.00 Ry     beta= 0.70
     Davidson diagonalization with overlap
     ethr =  3.73E-09,  avg # of iterations =  2.0

     total cpu time spent up to now is      790.2 secs

     total energy              =   -6260.85573404 Ry
     Harris-Foulkes estimate   =   -6260.85573435 Ry
     estimated scf accuracy    <       0.00000074 Ry

     iteration # 11     ecut=   120.00 Ry     beta= 0.70
     Davidson diagonalization with overlap
     ethr =  2.02E-10,  avg # of iterations =  3.0

     total cpu time spent up to now is      871.7 secs

     total energy              =   -6260.85573422 Ry
     Harris-Foulkes estimate   =   -6260.85573428 Ry
     estimated scf accuracy    <       0.00000017 Ry

     iteration # 12     ecut=   120.00 Ry     beta= 0.70
     Davidson diagonalization with overlap
     ethr =  4.53E-11,  avg # of iterations =  1.7

     total cpu time spent up to now is      935.8 secs

     total energy              =   -6260.85573421 Ry
     Harris-Foulkes estimate   =   -6260.85573423 Ry
     estimated scf accuracy    <       0.00000004 Ry

     iteration # 13     ecut=   120.00 Ry     beta= 0.70
     Davidson diagonalization with overlap
     ethr =  1.03E-11,  avg # of iterations =  2.9

     total cpu time spent up to now is     1017.6 secs

     End of self-consistent calculation

          k = 0.0000 0.0000 0.0000 ( 62119 PWs)   bands (ev):

   -66.0458 -66.0454 -66.0448 -66.0448 -66.0444 -66.0444 -66.0438 -66.0434
   -30.4715 -30.4668 -30.4668 -30.4623 -30.4222 -30.4132 -30.4131 -30.4033
   -30.3996 -30.3876 -30.3876 -30.3863 -30.3797 -30.3783 -30.3740 -30.3740
   -30.2997 -30.2997 -30.2976 -30.2953 -30.2800 -30.2800 -30.2758 -30.2746
   -20.1979 -20.1978 -20.1977 -20.1977 -20.1976 -20.1976 -20.1975 -20.1975
   -20.1920 -20.1917 -20.1917 -20.1914 -20.1868 -20.1864 -20.1864 -20.1860
   -20.1825 -20.1825 -20.1821 -20.1821 -20.1815 -20.1815 -20.1808 -20.1807
   -20.1803 -20.1799 -20.1792 -20.1792 -20.1785 -20.1785 -20.1780 -20.1777
   -20.1700 -20.1698 -20.1693 -20.1693 -20.1685 -20.1685 -20.1680 -20.1678
   -20.1556 -20.1556 -20.1549 -20.1548 -20.1542 -20.1542 -20.1535 -20.1535
   -20.1496 -20.1496 -20.1484 -20.1484 -20.1484 -20.1484 -20.1471 -20.1470
    -9.8953  -9.6051  -9.4539  -9.4539  -9.1665  -9.1665  -9.0321  -8.9734
    -8.9614  -8.8262  -8.7931  -8.7931  -7.8265  -7.7520  -7.7519  -7.7350
    -7.7309  -7.6960  -7.6949  -7.6845  -7.5834  -7.5834  -7.5387  -7.5387
     1.2903   1.2926   1.3584   1.3584   1.3953   1.3953   1.4391   1.6823
     1.6870   1.6870   1.7249   1.9315   2.4499   2.5290   2.6091   2.6337
     2.7731   2.7731   4.1930   4.1930   4.4295   4.4306   4.8221   4.8823
     4.8944   4.8944   4.9217   4.9217   5.0978   5.0978   5.1630   5.4806
     5.4807   5.5601   5.5601   5.5953   5.5953   5.6722   5.6722   5.8684
     5.8684   5.9204   5.9241   5.9522   6.0098   6.0538   6.0659   6.1712
     6.1747   6.2982   6.3058   6.6057   6.6058   6.8586   6.8586   6.8853
     6.8885   6.8917   7.0373   7.0587   7.1150   7.1150   7.3987   7.3987
     7.4856   7.4856   7.8230   7.8382   8.1062   8.1062   8.1529   8.1897
     9.4310   9.4325  10.0893  10.0978  10.1265  10.1265  12.3212  12.3212
    12.3585  12.3585  12.4576  12.4576  12.5824  12.6303  12.8276  12.9147
    13.2718  13.3639  13.4479  13.4479  13.8032  14.1192  14.1192  14.2021
    14.3166  14.5375  14.5375  14.9306  15.5093  15.5211  15.5570  16.1166
    16.1166  16.8572  17.0951  17.0951  17.5081

          k = 0.0000 0.0000 0.1667 ( 62108 PWs)   bands (ev):

   -66.0457 -66.0453 -66.0449 -66.0447 -66.0444 -66.0443 -66.0438 -66.0434
   -30.4713 -30.4671 -30.4666 -30.4627 -30.4209 -30.4135 -30.4117 -30.4037
   -30.3966 -30.3880 -30.3841 -30.3823 -30.3785 -30.3744 -30.3723 -30.3672
   -30.3063 -30.3031 -30.2994 -30.2970 -30.2865 -30.2816 -30.2797 -30.2756
   -20.1978 -20.1977 -20.1977 -20.1977 -20.1976 -20.1976 -20.1976 -20.1975
   -20.1920 -20.1917 -20.1917 -20.1914 -20.1868 -20.1865 -20.1864 -20.1861
   -20.1825 -20.1824 -20.1821 -20.1820 -20.1816 -20.1815 -20.1808 -20.1808
   -20.1802 -20.1798 -20.1792 -20.1791 -20.1785 -20.1784 -20.1781 -20.1777
   -20.1699 -20.1697 -20.1694 -20.1692 -20.1686 -20.1685 -20.1681 -20.1679
   -20.1555 -20.1553 -20.1548 -20.1544 -20.1543 -20.1539 -20.1536 -20.1531
   -20.1501 -20.1496 -20.1489 -20.1488 -20.1484 -20.1483 -20.1475 -20.1472
    -9.8489  -9.5516  -9.4711  -9.3943  -9.1814  -9.0783  -9.0409  -8.9354
    -8.9206  -8.8133  -8.7979  -8.7612  -7.8738  -7.8168  -7.8069  -7.7559
    -7.7549  -7.7233  -7.7019  -7.6984  -7.6800  -7.6668  -7.5931  -7.5484
     1.3571   1.3608   1.3869   1.4007   1.5041   1.5382   1.6420   1.6747
     1.6809   1.7702   1.8953   2.0542   2.5364   2.6202   2.6290   2.7119
     2.7643   2.8625   4.1260   4.1908   4.4200   4.4218   4.4514   4.5308
     4.6943   4.8441   4.8521   4.9469   4.9599   5.0869   5.1429   5.3524
     5.4297   5.4682   5.5479   5.5758   5.6169   5.6723   5.6840   5.6912
     5.7831   5.8063   5.8550   5.9669   6.0331   6.1147   6.1438   6.1701
     6.3338   6.4094   6.5336   6.5903   6.7273   6.7524   6.8198   6.8440
     6.8814   6.9136   6.9960   7.0237   7.0803   7.1174   7.2106   7.2291
     7.2468   7.3259   7.8430   7.8473   8.0662   8.1212   8.1238   8.1797
     9.7552   9.7829  10.0991  10.1239  10.3457  10.4043  12.2540  12.2983
    12.3749  12.3851  12.4088  12.4965  12.6040  12.7054  12.8676  12.9353
    13.1384  13.3033  13.3634  13.4493  13.8805  14.0374  14.1157  14.1175
    14.3054  14.5318  14.6130  15.0410  15.5221  15.5390  15.5647  16.0880
    16.4168  16.8329  17.0238  17.2801  17.5769

          k = 0.0000 0.0000 0.3333 ( 62132 PWs)   bands (ev):

   -66.0455 -66.0451 -66.0450 -66.0446 -66.0445 -66.0441 -66.0440 -66.0436
   -30.4704 -30.4681 -30.4658 -30.4636 -30.4184 -30.4146 -30.4089 -30.4048
   -30.3928 -30.3890 -30.3783 -30.3754 -30.3701 -30.3670 -30.3543 -30.3492
   -30.3240 -30.3205 -30.3059 -30.3017 -30.2985 -30.2944 -30.2789 -30.2766
   -20.1978 -20.1977 -20.1977 -20.1977 -20.1976 -20.1976 -20.1976 -20.1975
   -20.1920 -20.1918 -20.1917 -20.1915 -20.1868 -20.1866 -20.1864 -20.1862
   -20.1825 -20.1822 -20.1822 -20.1817 -20.1817 -20.1813 -20.1810 -20.1810
   -20.1800 -20.1795 -20.1794 -20.1788 -20.1788 -20.1783 -20.1782 -20.1779
   -20.1698 -20.1695 -20.1695 -20.1690 -20.1688 -20.1683 -20.1683 -20.1680
   -20.1553 -20.1546 -20.1545 -20.1542 -20.1539 -20.1533 -20.1528 -20.1520
   -20.1512 -20.1501 -20.1499 -20.1493 -20.1489 -20.1485 -20.1481 -20.1474
    -9.7360  -9.5239  -9.4267  -9.2564  -9.2268  -9.0708  -8.8631  -8.8270
    -8.8110  -8.7784  -8.7215  -8.6386  -8.1643  -8.1197  -8.0507  -8.0059
    -7.7921  -7.7665  -7.7322  -7.7079  -7.6941  -7.6507  -7.6198  -7.5752
     1.3670   1.3779   1.4154   1.4386   1.6228   1.6263   1.6587   1.6693
     2.3189   2.3620   2.5278   2.6094   2.6552   2.7542   2.7869   2.8859
     2.9524   3.1008   3.8064   3.8853   3.9123   4.0052   4.2185   4.3358
     4.3797   4.5791   4.5857   4.8100   4.8220   4.8741   5.0124   5.0795
     5.2103   5.2489   5.3134   5.3942   5.5168   5.5370   5.6741   5.7243
     5.7590   5.8044   5.8360   6.0252   6.0567   6.2088   6.2455   6.3124
     6.4022   6.4333   6.5663   6.5728   6.5864   6.6240   6.6849   6.8082
     6.8679   6.8871   6.8936   7.0435   7.0692   7.0997   7.1204   7.1851
     7.3655   7.3991   7.7901   7.8084   7.9420   7.9965   8.1559   8.1766
    10.0859  10.1157  10.4486  10.5394  10.9411  11.0644  11.8916  11.9619
    12.1418  12.5121  12.5419  12.5665  12.6257  12.6794  12.7756  12.9366
    12.9576  13.1547  13.2376  13.4614  13.7309  13.7635  14.0886  14.1132
    14.3833  14.5132  14.8906  15.3256  15.4100  15.6773  15.9311  15.9999
    16.3020  17.2409  17.4156  17.5551  17.8394

          k = 0.0000 0.0000-0.5000 ( 62128 PWs)   bands (ev):

   -66.0453 -66.0453 -66.0449 -66.0449 -66.0443 -66.0443 -66.0439 -66.0439
   -30.4693 -30.4693 -30.4648 -30.4647 -30.4163 -30.4163 -30.4066 -30.4066
   -30.3906 -30.3906 -30.3767 -30.3767 -30.3478 -30.3478 -30.3441 -30.3441
   -30.3299 -30.3299 -30.3250 -30.3250 -30.2972 -30.2972 -30.2778 -30.2778
   -20.1978 -20.1978 -20.1977 -20.1977 -20.1976 -20.1976 -20.1975 -20.1975
   -20.1919 -20.1919 -20.1916 -20.1916 -20.1867 -20.1867 -20.1863 -20.1863
   -20.1824 -20.1824 -20.1819 -20.1819 -20.1813 -20.1813 -20.1812 -20.1812
   -20.1797 -20.1797 -20.1791 -20.1791 -20.1785 -20.1785 -20.1781 -20.1781
   -20.1696 -20.1696 -20.1691 -20.1691 -20.1686 -20.1686 -20.1682 -20.1682
   -20.1549 -20.1549 -20.1542 -20.1542 -20.1528 -20.1528 -20.1518 -20.1518
   -20.1514 -20.1514 -20.1505 -20.1504 -20.1490 -20.1489 -20.1477 -20.1477
    -9.6146  -9.6146  -9.3068  -9.3068  -9.1358  -9.1358  -8.8303  -8.8303
    -8.5112  -8.5112  -8.4665  -8.4664  -8.4544  -8.4543  -8.3729  -8.3728
    -7.7807  -7.7807  -7.7205  -7.7205  -7.6567  -7.6567  -7.6125  -7.6125
     1.3743   1.3743   1.4332   1.4332   1.6428   1.6428   1.6571   1.6571
     2.6884   2.6884   3.0248   3.0248   3.1644   3.1644   3.1960   3.1960
     3.3294   3.3294   3.3929   3.3929   3.5498   3.5499   3.8360   3.8360
     3.9319   3.9320   4.5069   4.5069   4.7620   4.7620   4.9793   4.9793
     5.2880   5.2880   5.3916   5.3916   5.4193   5.4193   5.7166   5.7166
     5.8000   5.8000   5.9892   5.9892   6.1942   6.1942   6.3076   6.3076
     6.3473   6.3473   6.4861   6.4861   6.5251   6.5251   6.5991   6.5991
     6.8304   6.8304   6.8747   6.8747   7.0963   7.0963   7.5316   7.5316
     7.5893   7.5893   7.7220   7.7220   7.7539   7.7539   8.1726   8.1726
    10.1026  10.1026  11.2254  11.2254  11.3174  11.3175  11.6171  11.6171
    11.8450  11.8450  12.6405  12.6405  12.7337  12.7337  12.8660  12.8660
    12.9833  12.9833  13.3389  13.3389  13.5262  13.5262  14.1073  14.1073
    14.4726  14.4726  15.2002  15.2002  15.7443  15.7443  15.8725  15.8725
    16.6786  16.6786  17.8762  17.8763  18.1833

          k = 0.0000 0.1580 0.0000 ( 62087 PWs)   bands (ev):

   -66.0458 -66.0454 -66.0448 -66.0448 -66.0444 -66.0444 -66.0438 -66.0434
   -30.4678 -30.4629 -30.4629 -30.4584 -30.4246 -30.4160 -30.4159 -30.4073
   -30.3992 -30.3886 -30.3886 -30.3880 -30.3797 -30.3784 -30.3741 -30.3741
   -30.2997 -30.2997 -30.2975 -30.2955 -30.2800 -30.2800 -30.2758 -30.2747
   -20.1979 -20.1978 -20.1977 -20.1977 -20.1976 -20.1976 -20.1975 -20.1975
   -20.1917 -20.1914 -20.1913 -20.1911 -20.1872 -20.1868 -20.1868 -20.1864
   -20.1825 -20.1825 -20.1821 -20.1821 -20.1815 -20.1815 -20.1808 -20.1807
   -20.1803 -20.1800 -20.1792 -20.1792 -20.1785 -20.1785 -20.1780 -20.1777
   -20.1700 -20.1698 -20.1693 -20.1693 -20.1685 -20.1685 -20.1680 -20.1679
   -20.1556 -20.1556 -20.1549 -20.1548 -20.1542 -20.1542 -20.1535 -20.1535
   -20.1496 -20.1496 -20.1484 -20.1484 -20.1484 -20.1484 -20.1471 -20.1470
    -9.8658  -9.6169  -9.4168  -9.4168  -9.1737  -9.1737  -8.9725  -8.9620
    -8.9581  -8.7804  -8.7555  -8.7555  -7.9126  -7.8504  -7.8504  -7.8019
    -7.7388  -7.7347  -7.6963  -7.6860  -7.5842  -7.5841  -7.5394  -7.5394
     1.2906   1.2923   1.3656   1.3656   1.3988   1.3988   1.5713   1.7241
     1.8623   1.9161   1.9161   2.0966   2.4551   2.5235   2.6809   2.7075
     2.8421   2.8421   4.0616   4.0616   4.1574   4.1586   4.7701   4.8909
     4.8909   4.9143   4.9143   4.9446   5.0405   5.0421   5.0421   5.3457
     5.3457   5.5292   5.5292   5.6310   5.6772   5.6916   5.6916   5.7190
     5.8496   5.8521   5.9312   5.9313   5.9901   6.0675   6.0774   6.1692
     6.1748   6.2977   6.2980   6.6300   6.6300   6.8277   6.8891   6.8891
     6.9192   6.9259   6.9477   7.0345   7.0438   7.0438   7.4043   7.4043
     7.4881   7.4881   7.8270   7.8371   8.0683   8.0683   8.0826   8.1086
     9.4333   9.4338  10.2872  10.2894  10.2934  10.2934  12.2392  12.2392
    12.3475  12.3475  12.4273  12.4453  12.4453  12.4682  12.8377  12.9139
    13.3064  13.3896  13.4478  13.4478  13.9809  14.0732  14.0732  14.1071
    14.3601  14.7630  14.7630  15.0994  15.5089  15.5181  15.9573  16.0840
    16.0840  16.5596  17.2287  17.2287  17.5625

          k = 0.0000 0.1580 0.1667 ( 62106 PWs)   bands (ev):

   -66.0457 -66.0453 -66.0448 -66.0447 -66.0445 -66.0443 -66.0438 -66.0435
   -30.4674 -30.4633 -30.4627 -30.4587 -30.4234 -30.4163 -30.4148 -30.4077
   -30.3964 -30.3890 -30.3854 -30.3831 -30.3786 -30.3745 -30.3724 -30.3673
   -30.3063 -30.3030 -30.2994 -30.2970 -30.2865 -30.2816 -30.2797 -30.2756
   -20.1978 -20.1978 -20.1977 -20.1977 -20.1976 -20.1976 -20.1975 -20.1975
   -20.1916 -20.1914 -20.1913 -20.1911 -20.1872 -20.1868 -20.1868 -20.1864
   -20.1825 -20.1824 -20.1821 -20.1820 -20.1815 -20.1815 -20.1808 -20.1808
   -20.1802 -20.1799 -20.1793 -20.1791 -20.1786 -20.1784 -20.1781 -20.1778
   -20.1699 -20.1697 -20.1694 -20.1692 -20.1686 -20.1685 -20.1681 -20.1679
   -20.1555 -20.1553 -20.1548 -20.1544 -20.1543 -20.1539 -20.1536 -20.1531
   -20.1501 -20.1496 -20.1489 -20.1488 -20.1484 -20.1483 -20.1475 -20.1472
    -9.8183  -9.5633  -9.4342  -9.3526  -9.1889  -9.0856  -8.9669  -8.9338
    -8.9209  -8.7697  -8.7601  -8.7282  -7.9191  -7.8699  -7.8507  -7.8432
    -7.8097  -7.8035  -7.7280  -7.7091  -7.6807  -7.6651  -7.5939  -7.5492
     1.3650   1.3699   1.3900   1.4047   1.5969   1.6455   1.6658   1.8711
     1.8927   1.9132   1.9396   2.1610   2.5428   2.6143   2.7012   2.7867
     2.8340   2.9312   4.0269   4.0722   4.1520   4.1957   4.4532   4.5273
     4.7007   4.7707   4.8529   4.9362   4.9470   5.0062   5.0525   5.2952
     5.3030   5.3792   5.4028   5.5447   5.6265   5.6293   5.6808   5.7357
     5.7935   5.8028   5.8705   5.9042   5.9133   6.1220   6.1576   6.1788
     6.2899   6.3989   6.5120   6.6176   6.7548   6.8037   6.8441   6.8504
     6.8922   6.9297   6.9892   7.0069   7.0468   7.0733   7.2119   7.2344
     7.2510   7.3293   7.8441   7.8471   8.0305   8.0564   8.0701   8.1020
     9.7616   9.7873  10.2887  10.2945  10.5091  10.5425  12.2087  12.2713
    12.3148  12.3599  12.3803  12.4480  12.4564  12.5765  12.8832  12.9341
    13.1673  13.3153  13.3747  13.4470  13.9295  13.9655  14.0680  14.0719
    14.4288  14.7572  14.8866  15.1948  15.5387  15.5635  15.9206  16.0582
    16.3822  16.7146  16.9604  17.3909  17.6246

          k = 0.0000 0.1580 0.3333 ( 62153 PWs)   bands (ev):

   -66.0455 -66.0452 -66.0450 -66.0446 -66.0445 -66.0441 -66.0440 -66.0436
   -30.4666 -30.4642 -30.4619 -30.4596 -30.4211 -30.4174 -30.4125 -30.4088
   -30.3933 -30.3900 -30.3786 -30.3755 -30.3704 -30.3673 -30.3544 -30.3493
   -30.3241 -30.3205 -30.3059 -30.3017 -30.2985 -30.2944 -30.2789 -30.2766
   -20.1978 -20.1977 -20.1977 -20.1977 -20.1976 -20.1976 -20.1976 -20.1975
   -20.1916 -20.1915 -20.1913 -20.1912 -20.1871 -20.1869 -20.1867 -20.1865
   -20.1824 -20.1822 -20.1822 -20.1817 -20.1817 -20.1813 -20.1810 -20.1809
   -20.1800 -20.1796 -20.1794 -20.1788 -20.1788 -20.1783 -20.1782 -20.1779
   -20.1698 -20.1695 -20.1695 -20.1690 -20.1688 -20.1683 -20.1683 -20.1680
   -20.1553 -20.1546 -20.1545 -20.1542 -20.1539 -20.1533 -20.1528 -20.1520
   -20.1512 -20.1501 -20.1499 -20.1493 -20.1489 -20.1485 -20.1481 -20.1474
    -9.7028  -9.4874  -9.4379  -9.2350  -9.2008  -8.9975  -8.8454  -8.8318
    -8.7791  -8.7729  -8.7004  -8.6195  -8.1667  -8.1222  -8.0619  -8.0097
    -7.8792  -7.8592  -7.8307  -7.8039  -7.6964  -7.6516  -7.6209  -7.5760
     1.3819   1.4028   1.4204   1.4451   1.8008   1.8257   1.9025   1.9104
     2.3189   2.3722   2.5308   2.6260   2.7272   2.7974   2.8150   2.8846
     3.0284   3.1622   3.8065   3.8836   3.9038   3.9532   4.1721   4.2003
     4.2746   4.4139   4.6006   4.7517   4.7749   4.8663   4.8880   4.9442
     5.0884   5.2052   5.2188   5.2708   5.4327   5.4796   5.5494   5.6666
     5.7417   5.7873   5.8408   5.8857   6.0032   6.1666   6.2311   6.2978
     6.3913   6.5586   6.5816   6.6229   6.6726   6.7072   6.7529   6.8385
     6.8602   6.8882   6.9589   7.0008   7.0462   7.0733   7.1279   7.1791
     7.3623   7.3952   7.7927   7.8057   7.9120   7.9450   8.0884   8.1015
    10.2716  10.2913  10.4592  10.5453  11.0544  11.1531  11.8921  11.9609
    12.1142  12.4548  12.5042  12.5443  12.5933  12.6065  12.7184  12.8480
    12.9347  13.1493  13.2514  13.4500  13.6362  13.6809  14.0667  14.0689
    14.6088  14.7391  15.2241  15.4511  15.6724  15.8046  15.9493  15.9783
    16.4277  17.1803  17.2029  17.4705  17.8234

          k = 0.0000 0.1580-0.5000 ( 62084 PWs)   bands (ev):

   -66.0453 -66.0453 -66.0449 -66.0449 -66.0443 -66.0443 -66.0439 -66.0439
   -30.4654 -30.4654 -30.4608 -30.4608 -30.4191 -30.4191 -30.4104 -30.4104
   -30.3914 -30.3914 -30.3769 -30.3769 -30.3479 -30.3479 -30.3442 -30.3442
   -30.3299 -30.3299 -30.3250 -30.3250 -30.2972 -30.2972 -30.2778 -30.2778
   -20.1978 -20.1978 -20.1977 -20.1977 -20.1976 -20.1976 -20.1975 -20.1975
   -20.1915 -20.1915 -20.1912 -20.1912 -20.1870 -20.1870 -20.1867 -20.1867
   -20.1823 -20.1823 -20.1819 -20.1819 -20.1813 -20.1813 -20.1812 -20.1811
   -20.1797 -20.1797 -20.1792 -20.1792 -20.1785 -20.1785 -20.1781 -20.1781
   -20.1696 -20.1696 -20.1691 -20.1691 -20.1686 -20.1686 -20.1682 -20.1682
   -20.1549 -20.1549 -20.1542 -20.1542 -20.1528 -20.1528 -20.1518 -20.1518
   -20.1514 -20.1514 -20.1505 -20.1504 -20.1489 -20.1489 -20.1477 -20.1477
    -9.5791  -9.5791  -9.3165  -9.3165  -9.0667  -9.0667  -8.7947  -8.7947
    -8.5128  -8.5127  -8.4677  -8.4677  -8.4583  -8.4582  -8.3678  -8.3677
    -7.8727  -7.8727  -7.8197  -7.8197  -7.6583  -7.6583  -7.6133  -7.6133
     1.3966   1.3966   1.4390   1.4390   1.8257   1.8257   1.9127   1.9127
     2.7574   2.7574   3.0408   3.0408   3.1584   3.1584   3.2363   3.2363
     3.3371   3.3371   3.3924   3.3924   3.5408   3.5409   3.8372   3.8372
     3.9809   3.9810   4.3058   4.3058   4.6732   4.6732   4.8080   4.8081
     5.1282   5.1282   5.3621   5.3621   5.3828   5.3829   5.5517   5.5517
     5.7508   5.7508   5.8648   5.8648   6.1949   6.1949   6.3430   6.3430
     6.3911   6.3911   6.5112   6.5112   6.5824   6.5824   6.7128   6.7128
     6.8894   6.8894   6.8992   6.8992   7.0252   7.0252   7.5403   7.5404
     7.5823   7.5824   7.7018   7.7018   7.7283   7.7284   8.0995   8.0995
    10.2875  10.2875  11.2318  11.2318  11.3159  11.3159  11.6814  11.6814
    11.9040  11.9040  12.5141  12.5142  12.7120  12.7120  12.8676  12.8676
    12.9302  12.9302  13.2380  13.2380  13.4872  13.4872  14.0661  14.0661
    14.7021  14.7021  15.5588  15.5588  15.8271  15.8271  15.9160  15.9160
    16.7184  16.7184  17.6798  17.6799  18.1648

          k = 0.0000 0.3161 0.0000 ( 62079 PWs)   bands (ev):

   -66.0457 -66.0455 -66.0447 -66.0447 -66.0445 -66.0445 -66.0437 -66.0435
   -30.4575 -30.4525 -30.4525 -30.4476 -30.4321 -30.4246 -30.4246 -30.4181
   -30.3979 -30.3919 -30.3902 -30.3902 -30.3795 -30.3788 -30.3744 -30.3743
   -30.2997 -30.2997 -30.2971 -30.2960 -30.2801 -30.2801 -30.2756 -30.2750
   -20.1978 -20.1978 -20.1977 -20.1977 -20.1976 -20.1976 -20.1975 -20.1975
   -20.1907 -20.1904 -20.1904 -20.1901 -20.1881 -20.1877 -20.1877 -20.1874
   -20.1824 -20.1824 -20.1820 -20.1820 -20.1815 -20.1815 -20.1807 -20.1807
   -20.1803 -20.1801 -20.1792 -20.1792 -20.1786 -20.1786 -20.1780 -20.1778
   -20.1700 -20.1699 -20.1693 -20.1693 -20.1685 -20.1685 -20.1680 -20.1679
   -20.1556 -20.1556 -20.1549 -20.1548 -20.1542 -20.1542 -20.1535 -20.1535
   -20.1496 -20.1496 -20.1484 -20.1484 -20.1484 -20.1484 -20.1471 -20.1471
    -9.7938  -9.6531  -9.3337  -9.3337  -9.1967  -9.1967  -8.9702  -8.9639
    -8.7494  -8.6374  -8.6275  -8.6275  -8.1497  -8.1005  -8.1005  -8.0738
    -7.7399  -7.7350  -7.6961  -7.6897  -7.5838  -7.5838  -7.5410  -7.5409
     1.2908   1.2917   1.3696   1.3696   1.4020   1.4020   1.6855   1.7211
     2.4151   2.4693   2.5087   2.5637   2.5637   2.7312   2.8912   2.9322
     3.0468   3.0468   3.6796   3.6902   3.7233   3.7233   4.1871   4.5210
     4.5210   4.7930   4.8953   4.8953   4.9271   4.9271   5.1102   5.1102
     5.1137   5.1269   5.4397   5.4397   5.6317   5.6358   5.7424   5.7424
     5.9046   5.9046   5.9256   5.9314   6.0729   6.0762   6.1043   6.1783
     6.1932   6.2753   6.2766   6.5626   6.6870   6.6870   6.9097   6.9097
     6.9488   7.0158   7.1284   7.1320   7.1567   7.1567   7.4121   7.4121
     7.4934   7.4934   7.8171   7.8269   7.8740   7.8795   7.9018   7.9018
     9.4350   9.4365  10.7424  10.7424  10.7788  10.7955  11.8795  11.8795
    12.0016  12.0346  12.3613  12.3614  12.4452  12.4452  12.8619  12.9069
    13.4169  13.4767  13.5012  13.5012  13.8583  13.8793  13.8793  13.8826
    14.8525  15.2973  15.2973  15.5073  15.5116  15.7113  15.9735  15.9735
    16.0053  16.9446  17.2959  17.6879  17.6879

          k = 0.0000 0.3161 0.1667 ( 62120 PWs)   bands (ev):

   -66.0456 -66.0454 -66.0448 -66.0446 -66.0445 -66.0444 -66.0437 -66.0435
   -30.4572 -30.4528 -30.4522 -30.4480 -30.4312 -30.4250 -30.4240 -30.4185
   -30.3958 -30.3906 -30.3882 -30.3844 -30.3786 -30.3747 -30.3725 -30.3675
   -30.3063 -30.3030 -30.2994 -30.2972 -30.2866 -30.2816 -30.2798 -30.2757
   -20.1978 -20.1978 -20.1977 -20.1977 -20.1976 -20.1976 -20.1975 -20.1975
   -20.1907 -20.1904 -20.1904 -20.1901 -20.1881 -20.1878 -20.1877 -20.1874
   -20.1824 -20.1823 -20.1821 -20.1819 -20.1815 -20.1814 -20.1808 -20.1807
   -20.1802 -20.1800 -20.1793 -20.1791 -20.1787 -20.1785 -20.1781 -20.1779
   -20.1699 -20.1698 -20.1694 -20.1692 -20.1686 -20.1685 -20.1680 -20.1679
   -20.1555 -20.1553 -20.1548 -20.1544 -20.1543 -20.1539 -20.1536 -20.1531
   -20.1501 -20.1496 -20.1489 -20.1488 -20.1484 -20.1483 -20.1475 -20.1472
    -9.7437  -9.5997  -9.3509  -9.2582  -9.2127  -9.1096  -8.9307  -8.9225
    -8.7579  -8.6324  -8.6307  -8.6114  -8.1502  -8.1087  -8.0973  -8.0803
    -7.8556  -7.8115  -7.7286  -7.7112  -7.6822  -7.6663  -7.5936  -7.5507
     1.3672   1.3746   1.3912   1.4083   1.6196   1.6529   1.8413   1.8931
     2.4185   2.5404   2.5550   2.5690   2.5993   2.7212   2.9164   3.0125
     3.0431   3.1411   3.6842   3.7086   3.7308   3.7728   4.1758   4.4606
     4.4837   4.5361   4.5772   4.7926   4.8184   4.9172   4.9502   4.9750
     5.1080   5.1287   5.2380   5.3653   5.4629   5.5239   5.6397   5.6728
     5.7304   5.8177   5.8307   5.8838   6.0681   6.1101   6.1738   6.1926
     6.3048   6.4030   6.4931   6.6224   6.6789   6.8904   6.9055   6.9781
     7.0024   7.0196   7.1052   7.1222   7.1361   7.1490   7.2228   7.2451
     7.2824   7.3451   7.8175   7.8317   7.8633   7.8774   7.8848   7.8925
     9.7715   9.7899  10.7463  10.7843  10.9231  10.9539  11.8759  11.9707
    12.0197  12.0953  12.2762  12.3511  12.4168  12.4981  12.9148  12.9350
    13.2688  13.3664  13.4487  13.4974  13.7230  13.7615  13.8736  13.8765
    14.9838  15.2880  15.4720  15.5534  15.5653  15.7767  15.9470  16.1669
    16.2645  16.9075  17.3416  17.3915  17.7904

          k = 0.0000 0.3161 0.3333 ( 62117 PWs)   bands (ev):

   -66.0454 -66.0452 -66.0449 -66.0447 -66.0444 -66.0442 -66.0439 -66.0437
   -30.4562 -30.4537 -30.4513 -30.4489 -30.4295 -30.4261 -30.4226 -30.4195
   -30.3942 -30.3915 -30.3791 -30.3757 -30.3709 -30.3678 -30.3545 -30.3494
   -30.3241 -30.3205 -30.3060 -30.3018 -30.2985 -30.2944 -30.2790 -30.2767
   -20.1978 -20.1977 -20.1977 -20.1977 -20.1976 -20.1976 -20.1976 -20.1975
   -20.1907 -20.1905 -20.1903 -20.1902 -20.1881 -20.1879 -20.1877 -20.1875
   -20.1824 -20.1822 -20.1821 -20.1817 -20.1816 -20.1813 -20.1810 -20.1809
   -20.1800 -20.1797 -20.1795 -20.1789 -20.1789 -20.1784 -20.1782 -20.1780
   -20.1698 -20.1695 -20.1695 -20.1690 -20.1688 -20.1684 -20.1683 -20.1681
   -20.1553 -20.1546 -20.1545 -20.1542 -20.1539 -20.1533 -20.1528 -20.1520
   -20.1512 -20.1501 -20.1499 -20.1493 -20.1489 -20.1485 -20.1481 -20.1474
    -9.6227  -9.4730  -9.4038  -9.2612  -9.0653  -8.8638  -8.8096  -8.7893
    -8.7805  -8.6476  -8.5994  -8.5435  -8.2083  -8.1879  -8.1311  -8.1010
    -8.0892  -8.0491  -8.0111  -7.9550  -7.6964  -7.6533  -7.6206  -7.5776
     1.3886   1.4116   1.4251   1.4504   2.2365   2.3135   2.3463   2.4464
     2.5195   2.5655   2.5757   2.7878   2.8333   2.8584   2.9434   3.0243
     3.2566   3.3495   3.6659   3.6822   3.7724   3.8286   3.8968   3.9110
     4.1492   4.3374   4.4474   4.4801   4.5219   4.6170   4.6535   4.8261
     4.8767   4.8907   5.0469   5.1184   5.2266   5.2570   5.2848   5.4214
     5.4340   5.6382   5.6928   5.8429   6.1653   6.2116   6.2318   6.3262
     6.4689   6.5910   6.6382   6.7127   6.7595   6.8389   6.8519   6.8952
     6.9694   7.0123   7.0804   7.0932   7.1202   7.1747   7.1989   7.2437
     7.3470   7.3889   7.7526   7.7836   7.7997   7.8125   7.8754   7.8902
    10.4763  10.5085  10.7590  10.7936  11.3624  11.4237  11.8374  11.9194
    11.9700  12.0492  12.2632  12.3022  12.5915  12.6606  12.6999  12.7355
    12.9142  13.1401  13.2438  13.4145  13.4927  13.5501  13.8648  13.8726
    15.1472  15.2602  15.6051  15.8658  15.9840  16.0147  16.0378  16.6757
    16.7785  16.8491  17.0545  17.5724  17.6527

          k = 0.0000 0.3161-0.5000 ( 62172 PWs)   bands (ev):

   -66.0452 -66.0452 -66.0450 -66.0450 -66.0442 -66.0442 -66.0440 -66.0440
   -30.4550 -30.4550 -30.4501 -30.4501 -30.4276 -30.4276 -30.4209 -30.4209
   -30.3929 -30.3929 -30.3772 -30.3771 -30.3481 -30.3481 -30.3444 -30.3444
   -30.3300 -30.3300 -30.3251 -30.3251 -30.2972 -30.2972 -30.2778 -30.2778
   -20.1978 -20.1978 -20.1977 -20.1977 -20.1976 -20.1976 -20.1975 -20.1975
   -20.1906 -20.1906 -20.1903 -20.1903 -20.1880 -20.1880 -20.1876 -20.1876
   -20.1823 -20.1823 -20.1819 -20.1819 -20.1813 -20.1813 -20.1811 -20.1811
   -20.1797 -20.1797 -20.1793 -20.1793 -20.1785 -20.1785 -20.1782 -20.1782
   -20.1696 -20.1696 -20.1692 -20.1692 -20.1686 -20.1686 -20.1682 -20.1682
   -20.1549 -20.1549 -20.1542 -20.1542 -20.1528 -20.1528 -20.1518 -20.1518
   -20.1514 -20.1514 -20.1505 -20.1504 -20.1490 -20.1489 -20.1478 -20.1477
    -9.4958  -9.4957  -9.3471  -9.3471  -8.8778  -8.8778  -8.6861  -8.6861
    -8.5228  -8.5227  -8.5024  -8.5023  -8.4424  -8.4423  -8.3461  -8.3461
    -8.1013  -8.1013  -8.0586  -8.0586  -7.6582  -7.6582  -7.6150  -7.6150
     1.4057   1.4057   1.4445   1.4445   2.4175   2.4175   2.5575   2.5575
     2.9572   2.9572   3.0854   3.0854   3.1370   3.1370   3.3061   3.3061
     3.3615   3.3616   3.4093   3.4093   3.5087   3.5087   3.6975   3.6975
     4.1003   4.1003   4.1296   4.1296   4.2133   4.2133   4.4120   4.4120
     4.8660   4.8660   4.9731   4.9731   5.1783   5.1783   5.3440   5.3440
     5.4876   5.4877   5.7684   5.7684   6.3004   6.3004   6.3570   6.3570
     6.5140   6.5140   6.5765   6.5765   6.6008   6.6008   6.8065   6.8065
     7.0863   7.0863   7.1024   7.1024   7.1347   7.1347   7.5452   7.5452
     7.5619   7.5620   7.6210   7.6210   7.6503   7.6504   7.8825   7.8825
    10.7622  10.7622  11.2460  11.2460  11.3128  11.3129  11.7688  11.7688
    12.0856  12.0856  12.2276  12.2276  12.6069  12.6069  12.7143  12.7144
    12.8832  12.8832  13.0348  13.0348  13.4941  13.4941  13.8661  13.8661
    15.2141  15.2141  15.7440  15.7440  16.3406  16.3406  16.5090  16.5090
    16.8750  16.8750  17.3067  17.3067  17.9702

          k = 0.0000-0.4741 0.0000 ( 62010 PWs)   bands (ev):

   -66.0456 -66.0456 -66.0446 -66.0446 -66.0446 -66.0446 -66.0436 -66.0436
   -30.4442 -30.4442 -30.4404 -30.4404 -30.4360 -30.4360 -30.4329 -30.4329
   -30.3955 -30.3955 -30.3909 -30.3909 -30.3792 -30.3792 -30.3744 -30.3744
   -30.2997 -30.2997 -30.2965 -30.2965 -30.2801 -30.2801 -30.2753 -30.2753
   -20.1978 -20.1978 -20.1977 -20.1977 -20.1976 -20.1976 -20.1975 -20.1975
   -20.1894 -20.1894 -20.1891 -20.1891 -20.1890 -20.1890 -20.1887 -20.1887
   -20.1824 -20.1824 -20.1820 -20.1820 -20.1815 -20.1814 -20.1807 -20.1807
   -20.1803 -20.1803 -20.1793 -20.1792 -20.1786 -20.1786 -20.1779 -20.1779
   -20.1699 -20.1699 -20.1693 -20.1693 -20.1685 -20.1685 -20.1679 -20.1679
   -20.1556 -20.1556 -20.1548 -20.1548 -20.1542 -20.1542 -20.1535 -20.1535
   -20.1496 -20.1496 -20.1484 -20.1484 -20.1484 -20.1484 -20.1471 -20.1471
    -9.7144  -9.7144  -9.2741  -9.2741  -9.2267  -9.2267  -8.9670  -8.9670
    -8.4519  -8.4519  -8.3960  -8.3960  -8.3925  -8.3925  -8.3921  -8.3921
    -7.7370  -7.7370  -7.6938  -7.6938  -7.5833  -7.5833  -7.5417  -7.5417
     1.2911   1.2911   1.3703   1.3703   1.4028   1.4028   1.7128   1.7128
     2.4888   2.4888   3.1394   3.1394   3.2459   3.2459   3.2621   3.2621
     3.3582   3.3583   3.3677   3.3677   3.5070   3.5070   3.6077   3.6077
     3.7356   3.7357   4.9042   4.9042   4.9100   4.9100   5.2669   5.2669
     5.2871   5.2871   5.3601   5.3601   5.3679   5.3679   5.7980   5.7980
     5.8111   5.8111   5.9992   5.9992   6.0809   6.0809   6.1840   6.1840
     6.2303   6.2303   6.3331   6.3331   6.7496   6.7496   6.8212   6.8212
     6.9839   6.9839   7.4008   7.4008   7.4541   7.4541   7.4876   7.4876
     7.5246   7.5246   7.5897   7.5897   7.5983   7.5983   7.8375   7.8375
     9.4365   9.4365  11.3034  11.3034  11.3552  11.3552  11.3887  11.3887
    11.4482  11.4482  12.3663  12.3663  12.4471  12.4471  12.8888  12.8888
    13.6017  13.6017  13.6526  13.6526  13.6558  13.6558  13.6572  13.6572
    15.4093  15.4094  15.5182  15.5182  15.7022  15.7022  15.7677  15.7677
    16.5949  16.5949  18.0328  18.0329  18.1341

          k = 0.0000-0.4741 0.1667 ( 62102 PWs)   bands (ev):

   -66.0455 -66.0455 -66.0447 -66.0446 -66.0445 -66.0445 -66.0436 -66.0436
   -30.4440 -30.4433 -30.4407 -30.4397 -30.4364 -30.4360 -30.4333 -30.4332
   -30.3954 -30.3913 -30.3898 -30.3849 -30.3786 -30.3748 -30.3726 -30.3676
   -30.3063 -30.3029 -30.2994 -30.2972 -30.2866 -30.2816 -30.2798 -30.2757
   -20.1978 -20.1978 -20.1977 -20.1977 -20.1976 -20.1976 -20.1975 -20.1975
   -20.1894 -20.1894 -20.1892 -20.1891 -20.1890 -20.1890 -20.1888 -20.1888
   -20.1824 -20.1823 -20.1821 -20.1819 -20.1815 -20.1814 -20.1807 -20.1807
   -20.1802 -20.1801 -20.1793 -20.1791 -20.1787 -20.1786 -20.1780 -20.1780
   -20.1699 -20.1698 -20.1694 -20.1692 -20.1686 -20.1685 -20.1680 -20.1680
   -20.1555 -20.1553 -20.1548 -20.1544 -20.1543 -20.1539 -20.1536 -20.1531
   -20.1501 -20.1496 -20.1489 -20.1488 -20.1484 -20.1483 -20.1475 -20.1472
    -9.6648  -9.6594  -9.2904  -9.2438  -9.1894  -9.1430  -8.9286  -8.9241
    -8.4578  -8.4577  -8.4032  -8.3992  -8.3920  -8.3911  -8.3878  -8.3846
    -7.8557  -7.8128  -7.7281  -7.7112  -7.6830  -7.6671  -7.5931  -7.5515
     1.3675   1.3754   1.3914   1.4092   1.6222   1.6548   1.8703   1.8911
     2.5782   2.5789   3.1394   3.1521   3.2483   3.2681   3.2739   3.2794
     3.3430   3.3651   3.3714   3.4204   3.5022   3.5681   3.6028   3.6474
     3.7626   3.7661   4.5054   4.5120   4.8976   4.9297   5.0400   5.0784
     5.1797   5.1826   5.2471   5.2598   5.3706   5.3832   5.5340   5.5609
     5.7696   5.7777   5.8194   5.8300   6.0969   6.1659   6.1660   6.1993
     6.3975   6.4257   6.4495   6.5046   6.7374   6.8091   6.9232   6.9901
     7.0395   7.0523   7.1980   7.2155   7.2378   7.2872   7.4768   7.4955
     7.5185   7.5317   7.5444   7.5670   7.5732   7.5886   7.8515   7.8530
     9.7757   9.7900  11.3077  11.3576  11.3817  11.4096  11.4625  11.4814
    11.5102  11.5671  12.2785  12.3507  12.4191  12.4957  12.9338  12.9363
    13.4337  13.4513  13.5053  13.5363  13.6320  13.6491  13.6505  13.6745
    15.4306  15.4924  15.6234  15.6773  15.6830  15.7533  15.9713  16.0264
    16.6544  16.6570  17.9134  17.9378  18.1060

          k = 0.0000-0.4741 0.3333 ( 62140 PWs)   bands (ev):

   -66.0453 -66.0453 -66.0448 -66.0448 -66.0443 -66.0443 -66.0438 -66.0438
   -30.4435 -30.4416 -30.4413 -30.4380 -30.4376 -30.4356 -30.4344 -30.4339
   -30.3946 -30.3922 -30.3794 -30.3758 -30.3711 -30.3680 -30.3546 -30.3495
   -30.3242 -30.3205 -30.3060 -30.3019 -30.2986 -30.2944 -30.2790 -30.2767
   -20.1978 -20.1978 -20.1977 -20.1977 -20.1976 -20.1976 -20.1976 -20.1975
   -20.1894 -20.1894 -20.1892 -20.1891 -20.1891 -20.1890 -20.1889 -20.1888
   -20.1824 -20.1822 -20.1821 -20.1816 -20.1816 -20.1813 -20.1809 -20.1809
   -20.1800 -20.1798 -20.1795 -20.1790 -20.1789 -20.1784 -20.1782 -20.1781
   -20.1698 -20.1695 -20.1695 -20.1690 -20.1688 -20.1684 -20.1683 -20.1681
   -20.1553 -20.1546 -20.1545 -20.1542 -20.1539 -20.1533 -20.1528 -20.1520
   -20.1512 -20.1501 -20.1499 -20.1493 -20.1489 -20.1485 -20.1481 -20.1474
    -9.5466  -9.5264  -9.3400  -9.2964  -8.9548  -8.9128  -8.7982  -8.7826
    -8.4938  -8.4902  -8.4281  -8.4251  -8.3835  -8.3832  -8.3639  -8.3570
    -8.1380  -8.0987  -8.0171  -7.9781  -7.6959  -7.6543  -7.6202  -7.5784
     1.3898   1.4129   1.4262   1.4515   2.2910   2.3199   2.4934   2.5217
     2.8371   2.8384   3.1391   3.1720   3.2509   3.2808   3.2810   3.3148
     3.3396   3.3542   3.4274   3.4807   3.5029   3.5841   3.7412   3.7662
     3.8246   3.8349   3.8857   3.9032   4.5156   4.5185   4.6891   4.7050
     4.8002   4.8319   4.9150   4.9389   5.2585   5.2912   5.3036   5.3078
     5.4174   5.4443   5.6989   5.7036   6.2193   6.2290   6.2324   6.3469
     6.5562   6.5724   6.6298   6.7234   6.7704   6.7844   6.8557   6.9338
     7.0507   7.0918   7.2003   7.2131   7.2400   7.2509   7.4536   7.4959
     7.5058   7.5226   7.5391   7.5489   7.5542   7.5712   7.8086   7.8100
    10.4858  10.5151  11.3199  11.3578  11.3775  11.4169  11.8092  11.8438
    11.8497  11.8981  11.9171  11.9712  12.5922  12.6549  12.7777  12.7891
    12.9721  12.9931  13.2349  13.2720  13.6324  13.6337  13.6436  13.6619
    15.4477  15.5154  15.6225  15.6895  16.2288  16.2792  16.6825  16.7196
    16.8560  16.8688  17.4242  17.4279  17.9329

          k = 0.0000-0.4741-0.5000 ( 62168 PWs)   bands (ev):

   -66.0451 -66.0451 -66.0451 -66.0451 -66.0441 -66.0441 -66.0441 -66.0441
   -30.4425 -30.4425 -30.4393 -30.4393 -30.4361 -30.4361 -30.4348 -30.4348
   -30.3935 -30.3935 -30.3773 -30.3773 -30.3482 -30.3482 -30.3445 -30.3445
   -30.3300 -30.3300 -30.3252 -30.3252 -30.2972 -30.2972 -30.2779 -30.2779
   -20.1977 -20.1977 -20.1977 -20.1977 -20.1976 -20.1976 -20.1976 -20.1975
   -20.1893 -20.1893 -20.1893 -20.1892 -20.1890 -20.1890 -20.1889 -20.1889
   -20.1823 -20.1823 -20.1818 -20.1818 -20.1813 -20.1813 -20.1811 -20.1811
   -20.1798 -20.1798 -20.1793 -20.1793 -20.1785 -20.1785 -20.1783 -20.1783
   -20.1696 -20.1696 -20.1692 -20.1692 -20.1686 -20.1686 -20.1682 -20.1682
   -20.1549 -20.1549 -20.1542 -20.1542 -20.1528 -20.1528 -20.1518 -20.1518
   -20.1514 -20.1514 -20.1505 -20.1504 -20.1490 -20.1489 -20.1478 -20.1477
    -9.4259  -9.4259  -9.3903  -9.3903  -8.6575  -8.6574  -8.6285  -8.6285
    -8.5692  -8.5691  -8.5494  -8.5494  -8.3533  -8.3533  -8.3280  -8.3280
    -8.2843  -8.2843  -8.2548  -8.2547  -7.6577  -7.6577  -7.6159  -7.6159
     1.4071   1.4071   1.4458   1.4458   3.0049   3.0049   3.0732   3.0732
     3.1822   3.1823   3.2051   3.2051   3.2377   3.2377   3.2552   3.2553
     3.3707   3.3708   3.3879   3.3879   3.4879   3.4879   3.5456   3.5456
     3.6102   3.6102   3.7695   3.7695   4.3385   4.3385   4.3763   4.3763
     4.4384   4.4384   4.4991   4.4992   5.2674   5.2674   5.2900   5.2901
     5.5453   5.5453   5.5808   5.5808   6.3440   6.3440   6.3525   6.3525
     6.5520   6.5521   6.5983   6.5983   6.6620   6.6620   6.7208   6.7208
     7.3091   7.3092   7.3441   7.3442   7.3554   7.3554   7.4779   7.4780
     7.4881   7.4881   7.5510   7.5510   7.6188   7.6188   7.6383   7.6383
    11.2215  11.2215  11.2610  11.2610  11.3885  11.3885  11.4246  11.4246
    12.3020  12.3021  12.3459  12.3459  12.3848  12.3848  12.4264  12.4264
    12.8975  12.8975  12.9445  12.9445  13.6304  13.6304  13.6463  13.6463
    15.5308  15.5308  15.6009  15.6009  16.8803  16.8803  16.9378  16.9378
    17.3428  17.3429  17.3917  17.3917  17.4927

          k = 0.1667 0.0000 0.1667 ( 62122 PWs)   bands (ev):

   -66.0457 -66.0452 -66.0448 -66.0448 -66.0444 -66.0444 -66.0439 -66.0435
   -30.4710 -30.4669 -30.4669 -30.4630 -30.4195 -30.4121 -30.4119 -30.4041
   -30.3928 -30.3837 -30.3830 -30.3816 -30.3726 -30.3714 -30.3676 -30.3673
   -30.3060 -30.3059 -30.3045 -30.3022 -30.2863 -30.2862 -30.2827 -30.2814
   -20.1978 -20.1977 -20.1977 -20.1977 -20.1976 -20.1976 -20.1976 -20.1975
   -20.1920 -20.1917 -20.1917 -20.1915 -20.1868 -20.1865 -20.1865 -20.1861
   -20.1824 -20.1824 -20.1820 -20.1820 -20.1815 -20.1815 -20.1809 -20.1809
   -20.1801 -20.1797 -20.1792 -20.1791 -20.1785 -20.1785 -20.1781 -20.1778
   -20.1699 -20.1697 -20.1693 -20.1693 -20.1685 -20.1685 -20.1681 -20.1680
   -20.1552 -20.1552 -20.1544 -20.1544 -20.1539 -20.1539 -20.1532 -20.1532
   -20.1500 -20.1500 -20.1490 -20.1490 -20.1487 -20.1487 -20.1477 -20.1476
    -9.8004  -9.4932  -9.4117  -9.4110  -9.0941  -9.0929  -9.0501  -8.8961
    -8.8847  -8.8035  -8.7667  -8.7660  -7.8782  -7.8460  -7.8126  -7.8017
    -7.7947  -7.7635  -7.7555  -7.7199  -7.7129  -7.7020  -7.6754  -7.6603
     1.4937   1.5285   1.5328   1.5490   1.5535   1.6474   1.6491   1.6672
     1.7716   1.7718   1.9807   2.1319   2.6252   2.7059   2.7155   2.7317
     2.8388   2.8728   4.1255   4.1270   4.3836   4.3859   4.5247   4.5285
     4.5832   4.5985   4.6971   4.7441   4.8078   4.8793   5.1229   5.3011
     5.3260   5.3775   5.4182   5.5408   5.5581   5.6686   5.6760   5.7433
     5.7435   5.7864   5.7889   5.8043   5.8420   6.0536   6.3501   6.4032
     6.4503   6.5343   6.5928   6.6923   6.7250   6.7338   6.7348   6.7688
     6.8009   6.9013   6.9128   6.9191   6.9577   7.0239   7.0388   7.1521
     7.3423   7.4031   7.8463   7.8463   8.0644   8.1108   8.1143   8.1505
     9.9720  10.0377  10.3392  10.3443  10.3756  10.4627  12.3064  12.3067
    12.3387  12.3512  12.4230  12.4538  12.6697  12.7162  12.8904  12.9620
    13.0868  13.2130  13.2659  13.4098  13.9166  13.9966  14.0579  14.0707
    14.2833  14.6048  14.6050  15.1607  15.4887  15.6157  15.6244  16.3783
    16.3871  16.9916  17.0034  17.1683  17.6238

          k = 0.1667 0.0000 0.3333 ( 62115 PWs)   bands (ev):

   -66.0455 -66.0451 -66.0450 -66.0446 -66.0445 -66.0442 -66.0441 -66.0437
   -30.4702 -30.4678 -30.4662 -30.4639 -30.4169 -30.4131 -30.4093 -30.4052
   -30.3877 -30.3841 -30.3732 -30.3702 -30.3673 -30.3668 -30.3540 -30.3495
   -30.3237 -30.3209 -30.3075 -30.3050 -30.3029 -30.2981 -30.2855 -30.2831
   -20.1978 -20.1977 -20.1977 -20.1977 -20.1976 -20.1976 -20.1976 -20.1975
   -20.1919 -20.1918 -20.1917 -20.1915 -20.1868 -20.1866 -20.1864 -20.1862
   -20.1824 -20.1822 -20.1821 -20.1817 -20.1817 -20.1814 -20.1811 -20.1810
   -20.1799 -20.1794 -20.1793 -20.1789 -20.1787 -20.1783 -20.1783 -20.1779
   -20.1697 -20.1694 -20.1694 -20.1690 -20.1688 -20.1684 -20.1683 -20.1681
   -20.1549 -20.1542 -20.1542 -20.1541 -20.1534 -20.1532 -20.1529 -20.1521
   -20.1511 -20.1501 -20.1500 -20.1497 -20.1492 -20.1487 -20.1485 -20.1479
    -9.6825  -9.4641  -9.3553  -9.2722  -9.1398  -9.0812  -8.8451  -8.8237
    -8.7801  -8.7565  -8.7144  -8.6461  -8.1538  -8.1087  -8.0650  -8.0212
    -7.8299  -7.7884  -7.7754  -7.7628  -7.7358  -7.7266  -7.7112  -7.6971
     1.5038   1.5214   1.6150   1.6502   1.6637   1.6818   1.7496   1.7783
     2.3255   2.3697   2.5095   2.5959   2.7409   2.8304   2.8968   2.9585
     3.0020   3.1081   3.8439   3.9060   3.9752   3.9821   4.2082   4.3527
     4.3669   4.5415   4.5579   4.5938   4.6690   4.7965   4.8263   4.9636
     5.0695   5.1074   5.1664   5.2577   5.3303   5.4457   5.6024   5.7057
     5.7339   5.8031   5.8088   5.8558   5.8857   6.0561   6.1798   6.2236
     6.4472   6.5075   6.5395   6.6003   6.6327   6.7090   6.7113   6.7427
     6.8242   6.9163   6.9183   6.9439   7.1546   7.1920   7.2017   7.2916
     7.3804   7.4209   7.7982   7.8115   7.9602   7.9989   8.1240   8.1371
    10.3355  10.3437  10.6035  10.6763  10.9512  11.0858  11.9483  12.0112
    12.1862  12.4556  12.5009  12.5524  12.6155  12.6936  12.8297  12.9143
    12.9415  13.0861  13.1512  13.3489  13.7151  13.7319  14.0089  14.0369
    14.4032  14.5784  14.8777  15.3812  15.4674  15.8588  16.0135  16.2805
    16.4482  17.2072  17.4562  17.5207  17.6187

          k = 0.1667 0.0000-0.5000 ( 62174 PWs)   bands (ev):

   -66.0452 -66.0452 -66.0448 -66.0448 -66.0444 -66.0443 -66.0439 -66.0439
   -30.4690 -30.4690 -30.4651 -30.4651 -30.4147 -30.4147 -30.4069 -30.4069
   -30.3855 -30.3855 -30.3704 -30.3704 -30.3473 -30.3473 -30.3445 -30.3445
   -30.3297 -30.3297 -30.3253 -30.3253 -30.3035 -30.3035 -30.2843 -30.2843
   -20.1978 -20.1978 -20.1977 -20.1977 -20.1976 -20.1976 -20.1975 -20.1975
   -20.1919 -20.1919 -20.1916 -20.1916 -20.1867 -20.1867 -20.1863 -20.1863
   -20.1823 -20.1823 -20.1819 -20.1819 -20.1814 -20.1814 -20.1812 -20.1812
   -20.1796 -20.1796 -20.1791 -20.1791 -20.1786 -20.1786 -20.1781 -20.1781
   -20.1695 -20.1695 -20.1691 -20.1691 -20.1686 -20.1686 -20.1683 -20.1683
   -20.1546 -20.1546 -20.1538 -20.1538 -20.1527 -20.1527 -20.1517 -20.1517
   -20.1515 -20.1515 -20.1505 -20.1505 -20.1494 -20.1494 -20.1482 -20.1482
    -9.5565  -9.5565  -9.2240  -9.2240  -9.1486  -9.1486  -8.7992  -8.7992
    -8.5137  -8.5136  -8.4790  -8.4789  -8.4399  -8.4398  -8.3750  -8.3749
    -7.8031  -7.8031  -7.7586  -7.7586  -7.7308  -7.7308  -7.7234  -7.7234
     1.5108   1.5108   1.6336   1.6336   1.6830   1.6830   1.7833   1.7833
     2.7677   2.7678   3.0406   3.0406   3.1287   3.1287   3.2485   3.2485
     3.3502   3.3502   3.4625   3.4625   3.5994   3.5994   3.8554   3.8555
     3.9245   3.9246   4.4694   4.4694   4.5805   4.5805   4.9394   4.9395
     5.0790   5.0791   5.1126   5.1126   5.3169   5.3170   5.6705   5.6705
     5.8280   5.8280   5.8414   5.8414   5.9327   5.9327   6.0290   6.0290
     6.3942   6.3942   6.4886   6.4886   6.7078   6.7078   6.7526   6.7527
     6.8675   6.8675   7.0081   7.0081   7.0661   7.0662   7.5704   7.5705
     7.6124   7.6125   7.7364   7.7364   7.7608   7.7609   8.1347   8.1347
    10.3542  10.3542  11.3027  11.3027  11.3930  11.3931  11.6386  11.6386
    11.8592  11.8592  12.6716  12.6716  12.7116  12.7116  12.7739  12.7739
    12.9703  12.9703  13.3193  13.3193  13.4261  13.4261  14.0202  14.0202
    14.5214  14.5214  15.1791  15.1791  15.8966  15.8966  16.1199  16.1199
    16.7732  16.7732  17.8748  17.8754  17.9418

          k = 0.1667 0.1580 0.1667 ( 62117 PWs)   bands (ev):

   -66.0456 -66.0453 -66.0448 -66.0448 -66.0444 -66.0444 -66.0439 -66.0435
   -30.4671 -30.4630 -30.4630 -30.4591 -30.4222 -30.4152 -30.4151 -30.4081
   -30.3924 -30.3846 -30.3836 -30.3827 -30.3726 -30.3715 -30.3677 -30.3675
   -30.3060 -30.3059 -30.3044 -30.3024 -30.2863 -30.2862 -30.2826 -30.2815
   -20.1978 -20.1977 -20.1977 -20.1977 -20.1976 -20.1976 -20.1976 -20.1975
   -20.1916 -20.1914 -20.1914 -20.1911 -20.1872 -20.1868 -20.1868 -20.1865
   -20.1824 -20.1824 -20.1820 -20.1820 -20.1815 -20.1815 -20.1809 -20.1808
   -20.1801 -20.1798 -20.1792 -20.1792 -20.1785 -20.1785 -20.1781 -20.1778
   -20.1698 -20.1697 -20.1693 -20.1693 -20.1685 -20.1685 -20.1681 -20.1680
   -20.1552 -20.1552 -20.1544 -20.1544 -20.1539 -20.1539 -20.1532 -20.1532
   -20.1500 -20.1500 -20.1490 -20.1490 -20.1487 -20.1487 -20.1476 -20.1476
    -9.7684  -9.5050  -9.3703  -9.3696  -9.1016  -9.1005  -8.9762  -8.8952
    -8.8847  -8.7608  -8.7334  -8.7327  -7.9242  -7.8677  -7.8663  -7.8409
    -7.8311  -7.8189  -7.7984  -7.7913  -7.7330  -7.7163  -7.6742  -7.6618
     1.5452   1.5480   1.6001   1.6009   1.6518   1.6521   1.6862   1.8712
     1.9351   1.9370   1.9807   2.2134   2.6333   2.7103   2.7793   2.8065
     2.9116   2.9374   4.0313   4.0452   4.1757   4.1855   4.5045   4.5076
     4.5839   4.5985   4.6838   4.7460   4.7839   4.8223   4.9418   5.2360
     5.2597   5.3147   5.3350   5.4209   5.4264   5.6151   5.6184   5.6739
     5.7832   5.7977   5.8151   5.8356   5.8458   5.9038   6.3540   6.3639
     6.4464   6.4647   6.5813   6.6925   6.7366   6.7577   6.8201   6.8204
     6.8492   6.8757   6.9333   6.9442   6.9968   7.0124   7.0430   7.1582
     7.3470   7.4011   7.8462   7.8464   8.0162   8.0496   8.0611   8.0755
     9.9914  10.0405  10.4896  10.5027  10.5297  10.5952  12.2652  12.2900
    12.3117  12.3203  12.3855  12.3979  12.5322  12.5702  12.9103  12.9585
    13.1141  13.2241  13.2652  13.4098  13.9150  13.9165  13.9633  14.0069
    14.5087  14.8781  14.8817  15.2991  15.6173  15.6222  15.8897  16.3479
    16.3529  16.8397  17.1052  17.1079  17.6780

          k = 0.1667 0.1580 0.3333 ( 62133 PWs)   bands (ev):

   -66.0455 -66.0451 -66.0449 -66.0446 -66.0446 -66.0442 -66.0441 -66.0437
   -30.4663 -30.4639 -30.4623 -30.4600 -30.4199 -30.4162 -30.4128 -30.4091
   -30.3879 -30.3847 -30.3737 -30.3703 -30.3676 -30.3670 -30.3541 -30.3496
   -30.3237 -30.3209 -30.3075 -30.3050 -30.3029 -30.2981 -30.2855 -30.2831
   -20.1978 -20.1977 -20.1977 -20.1977 -20.1976 -20.1976 -20.1976 -20.1975
   -20.1916 -20.1914 -20.1913 -20.1912 -20.1871 -20.1869 -20.1868 -20.1866
   -20.1823 -20.1822 -20.1821 -20.1817 -20.1816 -20.1814 -20.1811 -20.1810
   -20.1799 -20.1795 -20.1793 -20.1789 -20.1788 -20.1784 -20.1783 -20.1780
   -20.1697 -20.1694 -20.1694 -20.1690 -20.1688 -20.1684 -20.1683 -20.1681
   -20.1549 -20.1542 -20.1542 -20.1541 -20.1534 -20.1532 -20.1529 -20.1521
   -20.1511 -20.1501 -20.1500 -20.1497 -20.1492 -20.1487 -20.1485 -20.1479
    -9.6469  -9.4236  -9.3668  -9.2171  -9.1482  -9.0081  -8.8524  -8.8047
    -8.7563  -8.7462  -8.6951  -8.6264  -8.1564  -8.1114  -8.0774  -8.0241
    -7.8805  -7.8630  -7.8387  -7.8109  -7.8081  -7.7685  -7.7387  -7.6969
     1.6074   1.6241   1.6678   1.6874   1.8191   1.8275   1.9036   1.9351
     2.3257   2.3796   2.5117   2.6103   2.8141   2.8861   2.9224   2.9965
     3.0363   3.1651   3.8422   3.9053   3.9349   3.9712   4.1738   4.2246
     4.2904   4.4240   4.5417   4.6163   4.6820   4.7331   4.8038   4.8419
     4.9555   4.9843   5.0318   5.1880   5.2685   5.3003   5.3809   5.6453
     5.6724   5.6987   5.7978   5.8317   5.8638   5.8840   6.1726   6.2219
     6.4244   6.5527   6.5816   6.6705   6.7219   6.7476   6.7644   6.8280
     6.8888   6.9128   6.9556   6.9897   7.1499   7.1861   7.2022   7.2943
     7.3748   7.4176   7.7995   7.8079   7.9187   7.9474   8.0611   8.0674
    10.4611  10.4971  10.6342  10.6909  11.0636  11.1714  11.9486  12.0095
    12.1673  12.4418  12.4892  12.5336  12.5614  12.6034  12.7559  12.8225
    12.9227  13.0875  13.1409  13.3423  13.6146  13.6386  13.9398  13.9644
    14.6989  14.8578  15.2159  15.5699  15.7875  15.8576  16.0239  16.2568
    16.5517  17.1707  17.2460  17.5154  17.5707

          k = 0.1667 0.1580-0.5000 ( 62146 PWs)   bands (ev):

   -66.0452 -66.0452 -66.0448 -66.0448 -66.0443 -66.0443 -66.0440 -66.0440
   -30.4651 -30.4651 -30.4612 -30.4612 -30.4178 -30.4178 -30.4108 -30.4108
   -30.3861 -30.3861 -30.3705 -30.3705 -30.3474 -30.3474 -30.3446 -30.3446
   -30.3297 -30.3297 -30.3254 -30.3254 -30.3036 -30.3035 -30.2844 -30.2844
   -20.1978 -20.1978 -20.1977 -20.1977 -20.1976 -20.1976 -20.1975 -20.1975
   -20.1915 -20.1915 -20.1913 -20.1913 -20.1870 -20.1870 -20.1867 -20.1867
   -20.1822 -20.1822 -20.1819 -20.1819 -20.1814 -20.1814 -20.1812 -20.1812
   -20.1796 -20.1796 -20.1791 -20.1791 -20.1786 -20.1786 -20.1782 -20.1782
   -20.1695 -20.1695 -20.1691 -20.1691 -20.1686 -20.1686 -20.1683 -20.1683
   -20.1546 -20.1546 -20.1538 -20.1538 -20.1527 -20.1527 -20.1517 -20.1517
   -20.1515 -20.1515 -20.1505 -20.1505 -20.1494 -20.1494 -20.1482 -20.1482
    -9.5177  -9.5177  -9.2340  -9.2340  -9.0800  -9.0800  -8.7667  -8.7667
    -8.5153  -8.5153  -8.4839  -8.4838  -8.4396  -8.4396  -8.3704  -8.3703
    -7.8740  -7.8740  -7.8274  -7.8274  -7.7749  -7.7749  -7.7325  -7.7325
     1.6181   1.6181   1.6876   1.6876   1.8350   1.8350   1.9341   1.9341
     2.8361   2.8361   3.0583   3.0584   3.1412   3.1413   3.2671   3.2672
     3.3535   3.3535   3.4694   3.4694   3.5917   3.5918   3.8586   3.8586
     3.9733   3.9733   4.3132   4.3132   4.5769   4.5769   4.7342   4.7343
     4.9755   4.9756   5.0780   5.0781   5.1681   5.1681   5.4922   5.4922
     5.7335   5.7335   5.7947   5.7947   5.9013   5.9013   5.9337   5.9337
     6.5161   6.5161   6.6473   6.6473   6.6938   6.6938   6.8138   6.8139
     6.9404   6.9404   6.9777   6.9778   7.0910   7.0910   7.5710   7.5710
     7.6059   7.6059   7.7118   7.7119   7.7344   7.7344   8.0667   8.0667
    10.5092  10.5092  11.3102  11.3102  11.3925  11.3925  11.7046  11.7046
    11.9175  11.9175  12.5760  12.5760  12.6717  12.6717  12.7544  12.7544
    12.9523  12.9523  13.2133  13.2133  13.3622  13.3622  13.9465  13.9465
    14.8099  14.8100  15.5479  15.5479  16.0068  16.0068  16.1109  16.1109
    16.8043  16.8043  17.6947  17.6947  17.9571

          k = 0.1667 0.3161 0.1667 ( 62105 PWs)   bands (ev):

   -66.0456 -66.0453 -66.0447 -66.0447 -66.0445 -66.0445 -66.0438 -66.0436
   -30.4568 -30.4525 -30.4525 -30.4483 -30.4304 -30.4244 -30.4243 -30.4188
   -30.3914 -30.3869 -30.3848 -30.3846 -30.3724 -30.3718 -30.3679 -30.3678
   -30.3060 -30.3060 -30.3040 -30.3029 -30.2863 -30.2863 -30.2824 -30.2818
   -20.1978 -20.1978 -20.1977 -20.1977 -20.1976 -20.1976 -20.1975 -20.1975
   -20.1907 -20.1904 -20.1904 -20.1901 -20.1881 -20.1878 -20.1878 -20.1875
   -20.1823 -20.1823 -20.1820 -20.1820 -20.1815 -20.1815 -20.1808 -20.1808
   -20.1801 -20.1799 -20.1792 -20.1792 -20.1786 -20.1786 -20.1781 -20.1779
   -20.1698 -20.1697 -20.1693 -20.1693 -20.1686 -20.1685 -20.1681 -20.1680
   -20.1552 -20.1552 -20.1544 -20.1544 -20.1539 -20.1539 -20.1532 -20.1532
   -20.1500 -20.1500 -20.1490 -20.1490 -20.1487 -20.1487 -20.1476 -20.1476
    -9.6905  -9.5419  -9.2761  -9.2753  -9.1264  -9.1253  -8.8928  -8.8867
    -8.7668  -8.6248  -8.6164  -8.6159  -8.1521  -8.1053  -8.1052  -8.0863
    -7.8471  -7.8441  -7.8037  -7.7982  -7.7326  -7.7234  -7.6726  -7.6652
     1.5464   1.5474   1.6250   1.6255   1.6598   1.6602   1.9151   1.9757
     2.4212   2.5414   2.5445   2.6520   2.6717   2.7318   3.0006   3.0382
     3.1318   3.1385   3.7174   3.7188   3.7415   3.7949   4.1659   4.4860
     4.4868   4.5297   4.5390   4.6258   4.6317   4.7877   4.8070   4.8865
     4.9391   4.9549   5.1775   5.1948   5.4217   5.4470   5.4576   5.4792
     5.6760   5.6955   5.7975   5.7997   5.8539   5.8618   6.3731   6.4051
     6.4698   6.4977   6.5628   6.6762   6.8107   6.8207   6.8911   6.9030
     6.9774   6.9831   7.0395   7.0605   7.1355   7.1360   7.1612   7.1994
     7.3719   7.4029   7.8153   7.8277   7.8493   7.8664   7.8692   7.8930
    10.0179  10.0397  10.8927  10.9286  10.9505  10.9901  11.9471  11.9891
    12.0759  12.1074  12.3307  12.3350  12.4079  12.4086  12.9496  12.9565
    13.2298  13.2809  13.3189  13.4465  13.6928  13.7051  13.7384  13.8114
    15.1320  15.4719  15.4876  15.6175  15.6287  15.8421  16.2337  16.2349
    16.2940  16.8729  17.3947  17.4606  17.4831

          k = 0.1667 0.3161 0.3333 ( 62129 PWs)   bands (ev):

   -66.0454 -66.0452 -66.0449 -66.0447 -66.0445 -66.0443 -66.0440 -66.0438
   -30.4559 -30.4534 -30.4516 -30.4492 -30.4287 -30.4254 -30.4229 -30.4198
   -30.3885 -30.3858 -30.3746 -30.3703 -30.3681 -30.3673 -30.3542 -30.3497
   -30.3238 -30.3209 -30.3076 -30.3051 -30.3030 -30.2981 -30.2855 -30.2832
   -20.1978 -20.1977 -20.1977 -20.1977 -20.1976 -20.1976 -20.1976 -20.1975
   -20.1907 -20.1905 -20.1904 -20.1902 -20.1881 -20.1879 -20.1877 -20.1876
   -20.1823 -20.1821 -20.1820 -20.1817 -20.1816 -20.1814 -20.1810 -20.1810
   -20.1799 -20.1796 -20.1794 -20.1789 -20.1789 -20.1785 -20.1783 -20.1781
   -20.1697 -20.1695 -20.1694 -20.1690 -20.1688 -20.1684 -20.1683 -20.1681
   -20.1549 -20.1542 -20.1542 -20.1541 -20.1534 -20.1532 -20.1529 -20.1521
   -20.1511 -20.1501 -20.1500 -20.1497 -20.1492 -20.1487 -20.1485 -20.1479
    -9.5612  -9.4033  -9.3298  -9.1757  -9.0830  -8.8807  -8.8029  -8.7778
    -8.7551  -8.6307  -8.5948  -8.5491  -8.2114  -8.1883  -8.1246  -8.1003
    -8.0935  -8.0449  -8.0213  -7.9626  -7.8150  -7.7727  -7.7408  -7.6987
     1.6398   1.6598   1.6756   1.6968   2.2417   2.3197   2.3382   2.4424
     2.5035   2.5541   2.5689   2.7622   2.9257   2.9906   3.0387   3.1211
     3.2610   3.3476   3.6936   3.7118   3.7725   3.8334   3.9416   4.0177
     4.1427   4.3436   4.4457   4.4722   4.5028   4.5884   4.6201   4.7156
     4.7969   4.8429   4.8827   4.9203   4.9877   5.0495   5.1942   5.2035
     5.3726   5.3914   5.4971   5.6515   5.8243   5.8665   6.2034   6.2231
     6.5866   6.6579   6.6758   6.7761   6.8505   6.8892   6.9620   7.0116
     7.0467   7.0661   7.0885   7.1193   7.1851   7.2125   7.2412   7.3118
     7.3622   7.4129   7.7562   7.7713   7.8052   7.8136   7.8550   7.8806
    10.5996  10.6424  10.9392  10.9598  11.3749  11.4383  11.9160  11.9661
    12.0119  12.1519  12.2639  12.2941  12.5067  12.6091  12.7015  12.7452
    12.9123  13.0880  13.1757  13.3710  13.3881  13.4372  13.7172  13.7566
    15.3370  15.4614  15.7990  16.0133  16.0504  16.0721  16.1655  16.7333
    16.7520  16.8952  17.0617  17.6003  17.7066

          k = 0.1667 0.3161-0.5000 ( 62150 PWs)   bands (ev):

   -66.0451 -66.0451 -66.0449 -66.0449 -66.0442 -66.0442 -66.0440 -66.0440
   -30.4547 -30.4547 -30.4504 -30.4504 -30.4269 -30.4269 -30.4213 -30.4213
   -30.3871 -30.3870 -30.3707 -30.3707 -30.3476 -30.3476 -30.3447 -30.3447
   -30.3298 -30.3298 -30.3255 -30.3255 -30.3036 -30.3036 -30.2844 -30.2844
   -20.1977 -20.1977 -20.1977 -20.1977 -20.1976 -20.1976 -20.1976 -20.1976
   -20.1906 -20.1906 -20.1903 -20.1903 -20.1880 -20.1880 -20.1877 -20.1877
   -20.1822 -20.1822 -20.1818 -20.1818 -20.1813 -20.1813 -20.1812 -20.1812
   -20.1796 -20.1796 -20.1792 -20.1792 -20.1786 -20.1786 -20.1783 -20.1783
   -20.1695 -20.1695 -20.1691 -20.1691 -20.1686 -20.1686 -20.1683 -20.1683
   -20.1546 -20.1546 -20.1538 -20.1538 -20.1527 -20.1527 -20.1517 -20.1517
   -20.1515 -20.1515 -20.1505 -20.1505 -20.1494 -20.1494 -20.1482 -20.1482
    -9.4259  -9.4259  -9.2662  -9.2662  -8.8928  -8.8928  -8.6659  -8.6659
    -8.5327  -8.5327  -8.5037  -8.5036  -8.4293  -8.4292  -8.3501  -8.3500
    -8.0984  -8.0983  -8.0639  -8.0639  -7.7781  -7.7781  -7.7353  -7.7353
     1.6581   1.6581   1.6967   1.6967   2.4208   2.4208   2.5389   2.5389
     3.0226   3.0226   3.1147   3.1148   3.1467   3.1468   3.3191   3.3191
     3.3635   3.3635   3.4947   3.4947   3.5611   3.5611   3.7447   3.7447
     4.0948   4.0948   4.1350   4.1350   4.2079   4.2079   4.4195   4.4195
     4.7861   4.7861   4.8620   4.8620   5.0410   5.0410   5.0942   5.0942
     5.1977   5.1977   5.5656   5.5657   5.9270   5.9270   5.9431   5.9431
     6.7031   6.7031   6.8228   6.8228   6.8758   6.8758   6.9166   6.9166
     7.0626   7.0626   7.1164   7.1165   7.2128   7.2128   7.5567   7.5567
     7.5809   7.5809   7.6304   7.6304   7.6618   7.6619   7.8643   7.8643
    10.9201  10.9201  11.3265  11.3265  11.3935  11.3935  11.8264  11.8264
    12.0977  12.0977  12.2660  12.2660  12.5919  12.5919  12.6759  12.6759
    12.8535  12.8535  12.9923  12.9923  13.3384  13.3384  13.7285  13.7285
    15.4168  15.4168  16.0010  16.0011  16.4045  16.4045  16.5046  16.5046
    16.9308  16.9308  17.3439  17.3439  17.8985

          k = 0.1667-0.4741 0.1667 ( 62104 PWs)   bands (ev):

   -66.0455 -66.0454 -66.0446 -66.0446 -66.0446 -66.0446 -66.0437 -66.0437
   -30.4432 -30.4432 -30.4400 -30.4400 -30.4364 -30.4364 -30.4336 -30.4336
   -30.3895 -30.3895 -30.3852 -30.3852 -30.3722 -30.3721 -30.3679 -30.3679
   -30.3060 -30.3060 -30.3035 -30.3035 -30.2864 -30.2863 -30.2822 -30.2821
   -20.1978 -20.1978 -20.1977 -20.1977 -20.1976 -20.1976 -20.1975 -20.1975
   -20.1894 -20.1894 -20.1892 -20.1891 -20.1890 -20.1890 -20.1888 -20.1888
   -20.1823 -20.1823 -20.1819 -20.1819 -20.1815 -20.1815 -20.1808 -20.1808
   -20.1801 -20.1800 -20.1792 -20.1792 -20.1787 -20.1787 -20.1781 -20.1781
   -20.1698 -20.1698 -20.1693 -20.1693 -20.1686 -20.1685 -20.1681 -20.1680
   -20.1552 -20.1552 -20.1544 -20.1544 -20.1539 -20.1539 -20.1532 -20.1532
   -20.1500 -20.1500 -20.1490 -20.1490 -20.1487 -20.1487 -20.1476 -20.1476
    -9.6058  -9.6058  -9.2060  -9.2060  -9.1605  -9.1605  -8.8896  -8.8896
    -8.4651  -8.4651  -8.3977  -8.3977  -8.3919  -8.3919  -8.3865  -8.3864
    -7.8458  -7.8458  -7.8022  -7.8022  -7.7284  -7.7284  -7.6693  -7.6692
     1.5468   1.5468   1.6280   1.6280   1.6620   1.6620   1.9635   1.9635
     2.6716   2.6716   3.1546   3.1546   3.2708   3.2708   3.2785   3.2785
     3.3492   3.3492   3.4378   3.4378   3.5651   3.5651   3.6440   3.6440
     3.7853   3.7853   4.5405   4.5405   4.5926   4.5926   4.9841   4.9842
     5.0535   5.0536   5.1595   5.1596   5.2116   5.2117   5.4893   5.4893
     5.5279   5.5279   5.8027   5.8027   5.8369   5.8369   6.4125   6.4125
     6.5374   6.5374   6.5814   6.5815   6.8232   6.8232   6.9215   6.9215
     6.9854   6.9854   7.1192   7.1192   7.3228   7.3228   7.4817   7.4817
     7.5200   7.5200   7.5398   7.5398   7.5945   7.5945   7.8528   7.8529
    10.0328  10.0328  11.4206  11.4207  11.4809  11.4809  11.5142  11.5142
    11.5672  11.5672  12.3315  12.3315  12.4024  12.4024  12.9659  12.9659
    13.4247  13.4247  13.4434  13.4434  13.4757  13.4757  13.6178  13.6178
    15.6011  15.6011  15.7195  15.7195  15.9532  15.9532  16.0103  16.0103
    16.7112  16.7112  17.9228  17.9236  17.9586

          k = 0.1667-0.4741 0.3333 ( 62132 PWs)   bands (ev):

   -66.0453 -66.0453 -66.0448 -66.0448 -66.0444 -66.0444 -66.0439 -66.0439
   -30.4426 -30.4413 -30.4407 -30.4383 -30.4375 -30.4360 -30.4347 -30.4343
   -30.3887 -30.3862 -30.3750 -30.3703 -30.3683 -30.3674 -30.3542 -30.3498
   -30.3238 -30.3209 -30.3077 -30.3051 -30.3031 -30.2981 -30.2856 -30.2832
   -20.1978 -20.1978 -20.1977 -20.1977 -20.1977 -20.1976 -20.1976 -20.1975
   -20.1894 -20.1893 -20.1892 -20.1891 -20.1891 -20.1890 -20.1889 -20.1889
   -20.1823 -20.1821 -20.1820 -20.1817 -20.1816 -20.1813 -20.1810 -20.1810
   -20.1799 -20.1797 -20.1794 -20.1789 -20.1789 -20.1785 -20.1783 -20.1782
   -20.1697 -20.1695 -20.1694 -20.1690 -20.1688 -20.1684 -20.1683 -20.1682
   -20.1549 -20.1542 -20.1542 -20.1541 -20.1534 -20.1532 -20.1529 -20.1521
   -20.1511 -20.1501 -20.1500 -20.1497 -20.1492 -20.1487 -20.1485 -20.1479
    -9.4775  -9.4619  -9.2570  -9.2148  -8.9725  -8.9315  -8.7706  -8.7585
    -8.5049  -8.5014  -8.4202  -8.4156  -8.3821  -8.3800  -8.3679  -8.3621
    -8.1282  -8.0885  -8.0270  -7.9899  -7.8148  -7.7738  -7.7405  -7.6996
     1.6432   1.6624   1.6778   1.6987   2.2977   2.3277   2.4781   2.5054
     2.9389   2.9429   3.1556   3.1810   3.2625   3.2818   3.2852   3.3074
     3.3452   3.3607   3.4827   3.5284   3.5590   3.6282   3.7301   3.7565
     3.8276   3.8384   3.9494   4.0170   4.4784   4.5235   4.6650   4.6739
     4.7221   4.7626   4.8391   4.8710   5.0179   5.0577   5.0757   5.1226
     5.1983   5.2590   5.3924   5.4689   5.8279   5.8481   6.2129   6.2236
     6.6624   6.6830   6.7194   6.7619   6.8795   6.9298   7.0551   7.1152
     7.1302   7.1841   7.1988   7.2417   7.2568   7.2619   7.4546   7.4934
     7.4986   7.5107   7.5296   7.5463   7.5672   7.5886   7.8121   7.8151
    10.6233  10.6434  11.4409  11.4726  11.4988  11.5315  11.8131  11.8453
    11.8597  11.8883  11.9777  12.0436  12.5020  12.5774  12.7815  12.8060
    12.9765  13.0094  13.1594  13.2352  13.4499  13.4768  13.5119  13.5664
    15.6756  15.7386  15.8865  15.9457  16.2723  16.3280  16.6618  16.7097
    16.8947  16.9039  17.4477  17.4932  17.8545

          k = 0.1667-0.4741-0.5000 ( 62088 PWs)   bands (ev):

   -66.0450 -66.0450 -66.0450 -66.0450 -66.0441 -66.0441 -66.0441 -66.0441
   -30.4418 -30.4418 -30.4392 -30.4392 -30.4364 -30.4364 -30.4352 -30.4352
   -30.3875 -30.3875 -30.3708 -30.3708 -30.3477 -30.3477 -30.3448 -30.3448
   -30.3298 -30.3298 -30.3255 -30.3255 -30.3036 -30.3036 -30.2844 -30.2844
   -20.1977 -20.1977 -20.1977 -20.1977 -20.1976 -20.1976 -20.1976 -20.1976
   -20.1893 -20.1893 -20.1892 -20.1892 -20.1890 -20.1890 -20.1890 -20.1889
   -20.1822 -20.1822 -20.1818 -20.1818 -20.1813 -20.1813 -20.1812 -20.1812
   -20.1796 -20.1796 -20.1793 -20.1793 -20.1786 -20.1786 -20.1784 -20.1783
   -20.1695 -20.1695 -20.1691 -20.1691 -20.1686 -20.1686 -20.1683 -20.1683
   -20.1546 -20.1546 -20.1538 -20.1538 -20.1527 -20.1527 -20.1517 -20.1517
   -20.1515 -20.1515 -20.1505 -20.1505 -20.1494 -20.1494 -20.1482 -20.1482
    -9.3473  -9.3473  -9.3142  -9.3142  -8.6778  -8.6777  -8.6496  -8.6495
    -8.5499  -8.5499  -8.5307  -8.5307  -8.3504  -8.3504  -8.3255  -8.3255
    -8.2866  -8.2866  -8.2573  -8.2572  -7.7779  -7.7779  -7.7363  -7.7363
     1.6617   1.6617   1.6991   1.6991   3.0120   3.0120   3.0768   3.0769
     3.1729   3.1729   3.1960   3.1960   3.2510   3.2510   3.3133   3.3133
     3.3657   3.3657   3.4701   3.4701   3.5319   3.5319   3.6012   3.6012
     3.6466   3.6466   3.7972   3.7972   4.3416   4.3416   4.3733   4.3734
     4.4322   4.4322   4.4912   4.4913   4.9313   4.9313   5.1102   5.1102
     5.1942   5.1943   5.3568   5.3569   5.9278   5.9278   5.9440   5.9440
     6.7714   6.7714   6.8374   6.8374   6.9114   6.9114   6.9553   6.9553
     7.3059   7.3060   7.3340   7.3340   7.3928   7.3928   7.4641   7.4641
     7.4939   7.4939   7.5556   7.5556   7.6313   7.6313   7.6606   7.6607
    11.2898  11.2898  11.3357  11.3358  11.4969  11.4969  11.5662  11.5662
    12.3025  12.3025  12.3507  12.3507  12.3859  12.3859  12.4338  12.4338
    12.8210  12.8210  12.8979  12.8979  13.4639  13.4639  13.5116  13.5116
    15.7883  15.7883  15.8528  15.8528  16.9350  16.9351  16.9886  16.9886
    17.3531  17.3532  17.4025  17.4026  17.4861

          k = 0.3333 0.0000 0.3333 ( 62170 PWs)   bands (ev):

   -66.0453 -66.0449 -66.0448 -66.0448 -66.0444 -66.0444 -66.0443 -66.0439
   -30.4694 -30.4671 -30.4670 -30.4648 -30.4142 -30.4104 -30.4102 -30.4063
   -30.3744 -30.3696 -30.3685 -30.3671 -30.3537 -30.3528 -30.3502 -30.3499
   -30.3237 -30.3226 -30.3224 -30.3207 -30.3034 -30.3031 -30.3015 -30.3001
   -20.1978 -20.1977 -20.1977 -20.1977 -20.1976 -20.1976 -20.1976 -20.1975
   -20.1919 -20.1918 -20.1918 -20.1916 -20.1867 -20.1865 -20.1865 -20.1863
   -20.1822 -20.1821 -20.1818 -20.1818 -20.1816 -20.1816 -20.1812 -20.1812
   -20.1796 -20.1792 -20.1791 -20.1790 -20.1786 -20.1786 -20.1785 -20.1781
   -20.1695 -20.1693 -20.1691 -20.1691 -20.1687 -20.1686 -20.1685 -20.1683
   -20.1539 -20.1539 -20.1533 -20.1533 -20.1530 -20.1529 -20.1523 -20.1523
   -20.1509 -20.1509 -20.1504 -20.1503 -20.1497 -20.1497 -20.1491 -20.1490
    -9.5522  -9.3236  -9.3217  -9.1748  -9.1165  -8.8967  -8.8912  -8.7259
    -8.6808  -8.6664  -8.6653  -8.6567  -8.1764  -8.1274  -8.1213  -8.1030
    -8.0849  -8.0728  -7.9806  -7.9592  -7.7706  -7.7456  -7.7456  -7.7209
     1.5553   1.5939   1.5949   1.6323   2.2387   2.2446   2.3377   2.3491
     2.3859   2.3921   2.5817   2.6856   2.9572   2.9852   3.0206   3.0676
     3.2783   3.3095   3.8180   3.8468   3.9673   3.9768   4.1540   4.1790
     4.1824   4.2005   4.3073   4.3897   4.4671   4.4960   4.5840   4.5959
     4.8632   4.9366   5.0020   5.0390   5.0897   5.1164   5.2311   5.4694
     5.4798   5.5641   5.5662   5.6792   5.9181   5.9309   5.9314   6.0947
     6.4946   6.4981   6.5217   6.5250   6.5613   6.5891   6.6087   6.6547
     7.0310   7.2075   7.2283   7.2531   7.2734   7.3543   7.4052   7.4145
     7.4607   7.5323   7.7619   7.7711   7.9332   7.9894   8.0247   8.0514
    10.8046  10.9192  10.9648  10.9814  11.0898  11.2993  12.1162  12.1255
    12.1708  12.1805  12.2425  12.3443  12.5757  12.5894  12.8215  12.8883
    12.8976  12.9374  13.0636  13.1271  13.6253  13.6997  13.7038  13.8026
    14.5710  14.8302  14.8355  15.2865  15.8472  16.3511  16.3880  16.7463
    16.8064  17.1785  17.2367  17.7812  17.8062

          k = 0.3333 0.0000-0.5000 ( 62164 PWs)   bands (ev):

   -66.0450 -66.0450 -66.0446 -66.0446 -66.0445 -66.0445 -66.0441 -66.0441
   -30.4683 -30.4683 -30.4660 -30.4660 -30.4120 -30.4120 -30.4080 -30.4080
   -30.3701 -30.3701 -30.3543 -30.3543 -30.3456 -30.3456 -30.3445 -30.3444
   -30.3303 -30.3303 -30.3264 -30.3264 -30.3194 -30.3194 -30.3022 -30.3022
   -20.1977 -20.1977 -20.1977 -20.1977 -20.1976 -20.1976 -20.1976 -20.1976
   -20.1918 -20.1918 -20.1917 -20.1917 -20.1867 -20.1866 -20.1864 -20.1864
   -20.1820 -20.1820 -20.1818 -20.1818 -20.1815 -20.1815 -20.1814 -20.1813
   -20.1793 -20.1793 -20.1789 -20.1789 -20.1787 -20.1787 -20.1783 -20.1783
   -20.1693 -20.1693 -20.1690 -20.1690 -20.1688 -20.1687 -20.1685 -20.1685
   -20.1536 -20.1536 -20.1528 -20.1528 -20.1523 -20.1523 -20.1518 -20.1517
   -20.1515 -20.1515 -20.1509 -20.1508 -20.1504 -20.1504 -20.1494 -20.1494
    -9.4164  -9.4164  -9.1914  -9.1914  -8.9955  -8.9955  -8.6912  -8.6912
    -8.5534  -8.5533  -8.4762  -8.4761  -8.4181  -8.4180  -8.3745  -8.3744
    -8.0766  -8.0766  -8.0376  -8.0376  -7.7588  -7.7588  -7.7338  -7.7338
     1.5741   1.5741   1.6140   1.6140   2.3575   2.3575   2.3977   2.3977
     2.9616   2.9616   3.0758   3.0759   3.1127   3.1127   3.2783   3.2783
     3.3859   3.3859   3.6374   3.6374   3.7929   3.7929   3.9124   3.9124
     3.9323   3.9323   4.0994   4.0994   4.2618   4.2618   4.4359   4.4359
     4.7607   4.7607   4.9709   4.9709   5.1068   5.1068   5.1841   5.1841
     5.3218   5.3218   5.5665   5.5665   5.9523   5.9523   6.0521   6.0521
     6.4416   6.4416   6.4612   6.4613   6.5133   6.5133   6.6152   6.6152
     7.2034   7.2034   7.3527   7.3527   7.4354   7.4354   7.5955   7.5956
     7.6266   7.6267   7.7427   7.7428   7.7812   7.7812   8.0197   8.0197
    10.9510  10.9510  11.5176  11.5176  11.6204  11.6204  11.6909  11.6909
    11.9393  11.9393  12.3080  12.3080  12.4807  12.4807  12.7219  12.7219
    12.9302  12.9302  13.2750  13.2750  13.3165  13.3165  13.7151  13.7151
    14.7381  14.7381  15.1067  15.1067  16.3055  16.3056  16.7653  16.7653
    17.1151  17.1151  17.5188  17.5188  17.9603

          k = 0.3333 0.1580 0.3333 ( 62127 PWs)   bands (ev):

   -66.0453 -66.0449 -66.0448 -66.0448 -66.0444 -66.0444 -66.0443 -66.0439
   -30.4655 -30.4632 -30.4631 -30.4609 -30.4175 -30.4140 -30.4138 -30.4102
   -30.3741 -30.3699 -30.3688 -30.3677 -30.3537 -30.3529 -30.3503 -30.3500
   -30.3235 -30.3226 -30.3224 -30.3209 -30.3034 -30.3031 -30.3014 -30.3003
   -20.1978 -20.1977 -20.1977 -20.1977 -20.1976 -20.1976 -20.1976 -20.1975
   -20.1916 -20.1914 -20.1914 -20.1913 -20.1871 -20.1869 -20.1869 -20.1867
   -20.1821 -20.1821 -20.1818 -20.1818 -20.1816 -20.1815 -20.1812 -20.1812
   -20.1796 -20.1793 -20.1791 -20.1790 -20.1786 -20.1786 -20.1785 -20.1781
   -20.1694 -20.1693 -20.1691 -20.1691 -20.1687 -20.1686 -20.1685 -20.1683
   -20.1539 -20.1539 -20.1533 -20.1533 -20.1530 -20.1529 -20.1523 -20.1523
   -20.1509 -20.1509 -20.1504 -20.1503 -20.1497 -20.1497 -20.1491 -20.1490
    -9.5103  -9.2706  -9.2684  -9.1870  -9.0445  -8.9057  -8.9003  -8.6953
    -8.6786  -8.6588  -8.6454  -8.6410  -8.1930  -8.1267  -8.1248  -8.1040
    -8.0863  -8.0755  -7.9805  -7.9606  -7.8628  -7.8384  -7.8384  -7.8127
     1.7795   1.8152   1.8160   1.8580   2.2395   2.2446   2.3379   2.3497
     2.3961   2.4005   2.5841   2.6951   3.0290   3.0593   3.0963   3.1134
[...]
    11.0527  11.0527  11.5382  11.5382  11.6351  11.6351  11.7467  11.7467
    11.9863  11.9863  12.3315  12.3315  12.4748  12.4748  12.7248  12.7248
    12.8115  12.8115  13.1569  13.1569  13.1995  13.1995  13.6136  13.6136
    15.0956  15.0956  15.4847  15.4847  16.3902  16.3902  16.7664  16.7664
    17.1185  17.1185  17.5275  17.5275  17.8223

          k = 0.3333 0.3161 0.3333 ( 62120 PWs)   bands (ev):

   -66.0452 -66.0450 -66.0447 -66.0447 -66.0445 -66.0445 -66.0442 -66.0440
   -30.4550 -30.4526 -30.4525 -30.4501 -30.4271 -30.4240 -30.4238 -30.4208
   -30.3734 -30.3709 -30.3692 -30.3688 -30.3536 -30.3531 -30.3504 -30.3503
   -30.3231 -30.3227 -30.3225 -30.3216 -30.3034 -30.3033 -30.3012 -30.3005
   -20.1978 -20.1977 -20.1977 -20.1977 -20.1976 -20.1976 -20.1976 -20.1976
   -20.1906 -20.1905 -20.1905 -20.1903 -20.1880 -20.1878 -20.1878 -20.1876
   -20.1821 -20.1820 -20.1818 -20.1818 -20.1815 -20.1815 -20.1812 -20.1812
   -20.1796 -20.1794 -20.1791 -20.1791 -20.1787 -20.1787 -20.1785 -20.1783
   -20.1694 -20.1693 -20.1691 -20.1691 -20.1687 -20.1687 -20.1684 -20.1683
   -20.1539 -20.1539 -20.1533 -20.1533 -20.1529 -20.1529 -20.1523 -20.1523
   -20.1509 -20.1509 -20.1504 -20.1503 -20.1497 -20.1497 -20.1491 -20.1491
    -9.4083  -9.2269  -9.1411  -9.1381  -8.9379  -8.9323  -8.8426  -8.6759
    -8.6668  -8.5756  -8.5653  -8.5616  -8.2916  -8.1691  -8.1653  -8.1109
    -8.1082  -8.0866  -8.0778  -8.0292  -8.0237  -7.9968  -7.9664  -7.9633
     2.2258   2.2300   2.2600   2.2726   2.3294   2.3418   2.3511   2.4477
     2.5660   2.5794   2.5911   2.7971   3.1953   3.2417   3.2672   3.3106
     3.3319   3.3798   3.7012   3.7158   3.7766   3.8580   4.0770   4.1082
     4.1388   4.2098   4.2135   4.3257   4.3701   4.4335   4.4356   4.5235
     4.5585   4.6094   4.6316   4.6950   4.7878   4.8812   4.9168   4.9579
     4.9753   4.9914   5.1870   5.3007   5.3502   5.3706   5.5832   5.5858
     6.8317   6.8514   6.8703   6.9284   6.9876   7.0354   7.0602   7.0816
     7.1337   7.2010   7.2311   7.2711   7.2857   7.3330   7.3932   7.3934
     7.4684   7.4979   7.7145   7.7379   7.7815   7.7926   7.7944   7.8563
    10.9647  11.0364  11.3352  11.3812  11.4048  11.5656  12.0892  12.1058
    12.1389  12.1716  12.1788  12.2949  12.4333  12.4621  12.6471  12.7038
    12.7876  12.7961  12.8509  13.1268  13.2643  13.3320  13.3372  13.4886
    15.7547  15.9626  15.9734  16.2668  16.3739  16.3797  16.6424  16.8717
    16.8936  16.9755  17.2175  17.2558  17.7257

          k = 0.3333 0.3161-0.5000 ( 62134 PWs)   bands (ev):

   -66.0449 -66.0449 -66.0447 -66.0447 -66.0444 -66.0444 -66.0442 -66.0442
   -30.4538 -30.4538 -30.4513 -30.4513 -30.4254 -30.4254 -30.4223 -30.4223
   -30.3706 -30.3706 -30.3547 -30.3547 -30.3458 -30.3458 -30.3447 -30.3447
   -30.3305 -30.3305 -30.3266 -30.3266 -30.3195 -30.3195 -30.3023 -30.3023
   -20.1977 -20.1977 -20.1977 -20.1977 -20.1976 -20.1976 -20.1976 -20.1976
   -20.1906 -20.1905 -20.1904 -20.1904 -20.1879 -20.1879 -20.1878 -20.1878
   -20.1820 -20.1819 -20.1818 -20.1817 -20.1815 -20.1815 -20.1813 -20.1813
   -20.1793 -20.1793 -20.1791 -20.1791 -20.1788 -20.1787 -20.1785 -20.1785
   -20.1692 -20.1692 -20.1690 -20.1690 -20.1687 -20.1687 -20.1685 -20.1685
   -20.1536 -20.1536 -20.1528 -20.1528 -20.1523 -20.1523 -20.1518 -20.1517
   -20.1515 -20.1515 -20.1509 -20.1508 -20.1504 -20.1504 -20.1494 -20.1494
    -9.2475  -9.2475  -9.0448  -9.0448  -8.9444  -8.9444  -8.6145  -8.6145
    -8.5717  -8.5717  -8.4711  -8.4711  -8.4051  -8.4050  -8.3583  -8.3582
    -8.1169  -8.1169  -8.0876  -8.0876  -8.0503  -8.0503  -8.0013  -8.0013
     2.2746   2.2746   2.3557   2.3557   2.4376   2.4376   2.5607   2.5607
     3.0896   3.0896   3.1465   3.1466   3.2419   3.2419   3.3259   3.3259
     3.4152   3.4152   3.6610   3.6610   3.7680   3.7680   3.8644   3.8644
     4.0652   4.0652   4.1491   4.1491   4.1947   4.1947   4.3054   4.3055
     4.3891   4.3891   4.5293   4.5293   4.6772   4.6772   4.9007   4.9007
     5.0093   5.0093   5.0759   5.0759   5.1319   5.1319   5.3498   5.3498
     6.8832   6.8832   6.9462   6.9462   7.0123   7.0123   7.0760   7.0760
     7.2269   7.2270   7.3310   7.3310   7.4338   7.4339   7.5520   7.5520
     7.5910   7.5911   7.6550   7.6550   7.6843   7.6844   7.8141   7.8141
    11.3246  11.3246  11.5729  11.5729  11.6670  11.6670  11.9181  11.9181
    12.1442  12.1442  12.3732  12.3732  12.4274  12.4274  12.4689  12.4689
    12.7759  12.7759  12.8805  12.8805  12.9633  12.9633  13.3617  13.3617
    15.9192  15.9192  16.4052  16.4052  16.6479  16.6479  16.7538  16.7539
    17.1449  17.1449  17.4070  17.4070  17.6911

          k = 0.3333-0.4741 0.3333 ( 62092 PWs)   bands (ev):

   -66.0451 -66.0451 -66.0446 -66.0446 -66.0446 -66.0446 -66.0441 -66.0441
   -30.4408 -30.4408 -30.4390 -30.4390 -30.4372 -30.4372 -30.4354 -30.4354
   -30.3722 -30.3722 -30.3694 -30.3693 -30.3534 -30.3534 -30.3504 -30.3504
   -30.3227 -30.3227 -30.3223 -30.3223 -30.3034 -30.3034 -30.3009 -30.3009
   -20.1977 -20.1977 -20.1977 -20.1977 -20.1976 -20.1976 -20.1976 -20.1976
   -20.1893 -20.1893 -20.1892 -20.1892 -20.1891 -20.1891 -20.1890 -20.1890
   -20.1820 -20.1820 -20.1818 -20.1818 -20.1815 -20.1815 -20.1812 -20.1811
   -20.1795 -20.1795 -20.1791 -20.1791 -20.1788 -20.1788 -20.1784 -20.1784
   -20.1694 -20.1694 -20.1691 -20.1691 -20.1687 -20.1687 -20.1684 -20.1684
   -20.1539 -20.1539 -20.1533 -20.1533 -20.1529 -20.1529 -20.1523 -20.1523
   -20.1509 -20.1509 -20.1504 -20.1504 -20.1497 -20.1497 -20.1491 -20.1491
    -9.3012  -9.3012  -9.0285  -9.0284  -8.9917  -8.9917  -8.6753  -8.6753
    -8.5495  -8.5495  -8.3919  -8.3918  -8.3824  -8.3824  -8.3665  -8.3665
    -8.1048  -8.1048  -8.0714  -8.0714  -8.0609  -8.0609  -7.9678  -7.9678
     2.2378   2.2378   2.3164   2.3164   2.3491   2.3491   2.5599   2.5599
     3.1663   3.1664   3.1969   3.1969   3.2822   3.2822   3.3147   3.3147
     3.3865   3.3865   3.6048   3.6048   3.7040   3.7041   3.7389   3.7390
     3.8481   3.8481   4.1283   4.1283   4.2520   4.2520   4.4656   4.4656
     4.5804   4.5805   4.6847   4.6847   4.7655   4.7655   4.8224   4.8224
     4.9288   4.9289   5.0332   5.0333   5.0547   5.0547   5.5775   5.5775
     6.9495   6.9495   7.0747   7.0747   7.1203   7.1203   7.1858   7.1858
     7.2646   7.2646   7.2989   7.2989   7.3346   7.3346   7.4628   7.4629
     7.4932   7.4933   7.5602   7.5602   7.6075   7.6076   7.7826   7.7826
    11.0196  11.0196  11.7407  11.7407  11.7920  11.7920  11.8602  11.8602
    11.9525  11.9525  12.1629  12.1629  12.2788  12.2788  12.6720  12.6720
    12.9457  12.9457  13.0106  13.0106  13.0568  13.0568  13.2772  13.2772
    16.3416  16.3416  16.4466  16.4467  16.6117  16.6117  16.6770  16.6770
    17.0245  17.0245  17.5310  17.5310  17.6126

          k = 0.3333-0.4741-0.5000 ( 62048 PWs)   bands (ev):

   -66.0448 -66.0448 -66.0448 -66.0448 -66.0443 -66.0443 -66.0443 -66.0443
   -30.4400 -30.4400 -30.4388 -30.4388 -30.4371 -30.4371 -30.4364 -30.4364
   -30.3707 -30.3707 -30.3548 -30.3548 -30.3459 -30.3459 -30.3448 -30.3448
   -30.3305 -30.3305 -30.3266 -30.3266 -30.3195 -30.3195 -30.3023 -30.3023
   -20.1977 -20.1977 -20.1977 -20.1977 -20.1976 -20.1976 -20.1976 -20.1976
   -20.1893 -20.1893 -20.1892 -20.1892 -20.1891 -20.1891 -20.1890 -20.1890
   -20.1819 -20.1819 -20.1817 -20.1817 -20.1814 -20.1814 -20.1813 -20.1813
   -20.1793 -20.1793 -20.1791 -20.1791 -20.1787 -20.1787 -20.1786 -20.1786
   -20.1692 -20.1692 -20.1690 -20.1690 -20.1687 -20.1687 -20.1685 -20.1685
   -20.1536 -20.1536 -20.1528 -20.1528 -20.1523 -20.1523 -20.1518 -20.1517
   -20.1515 -20.1515 -20.1509 -20.1508 -20.1504 -20.1504 -20.1494 -20.1494
    -9.1357  -9.1356  -9.1120  -9.1120  -8.7409  -8.7409  -8.7175  -8.7175
    -8.4885  -8.4884  -8.4737  -8.4736  -8.3432  -8.3431  -8.3221  -8.3220
    -8.2906  -8.2905  -8.2634  -8.2634  -8.0626  -8.0626  -8.0247  -8.0247
     2.3332   2.3332   2.3660   2.3660   3.0267   3.0267   3.0701   3.0701
     3.1669   3.1669   3.1928   3.1928   3.3026   3.3026   3.3320   3.3320
     3.4440   3.4441   3.4889   3.4890   3.6766   3.6766   3.7336   3.7336
     3.8428   3.8428   3.9254   3.9254   4.2912   4.2912   4.3322   4.3323
     4.3974   4.3974   4.4516   4.4516   4.5275   4.5275   4.6347   4.6347
     4.7144   4.7144   4.8740   4.8741   5.1315   5.1315   5.1535   5.1535
     7.0343   7.0343   7.1122   7.1122   7.2198   7.2198   7.2387   7.2387
     7.3198   7.3198   7.3543   7.3543   7.4092   7.4093   7.4538   7.4538
     7.5261   7.5261   7.5962   7.5962   7.6546   7.6547   7.6857   7.6858
    11.5248  11.5248  11.5647  11.5647  11.8354  11.8354  11.9171  11.9171
    12.2578  12.2578  12.3068  12.3068  12.3924  12.3924  12.4328  12.4328
    12.5861  12.5861  12.6907  12.6907  13.0474  13.0474  13.1253  13.1253
    16.5069  16.5069  16.5691  16.5691  17.0902  17.0903  17.1290  17.1290
    17.3521  17.3522  17.4173  17.4176  17.4747

          k =-0.5000 0.0000-0.5000 ( 62228 PWs)   bands (ev):

   -66.0448 -66.0448 -66.0448 -66.0448 -66.0444 -66.0444 -66.0444 -66.0444
   -30.4672 -30.4672 -30.4671 -30.4671 -30.4098 -30.4098 -30.4096 -30.4096
   -30.3493 -30.3493 -30.3493 -30.3493 -30.3455 -30.3455 -30.3449 -30.3449
   -30.3272 -30.3271 -30.3264 -30.3264 -30.3257 -30.3257 -30.3253 -30.3253
   -20.1977 -20.1977 -20.1977 -20.1977 -20.1976 -20.1976 -20.1976 -20.1976
   -20.1918 -20.1918 -20.1918 -20.1918 -20.1866 -20.1866 -20.1866 -20.1866
   -20.1819 -20.1819 -20.1817 -20.1817 -20.1817 -20.1817 -20.1815 -20.1815
   -20.1791 -20.1791 -20.1790 -20.1790 -20.1786 -20.1786 -20.1786 -20.1786
   -20.1690 -20.1690 -20.1689 -20.1689 -20.1688 -20.1688 -20.1688 -20.1687
   -20.1523 -20.1523 -20.1522 -20.1522 -20.1522 -20.1522 -20.1521 -20.1521
   -20.1511 -20.1511 -20.1510 -20.1510 -20.1510 -20.1510 -20.1509 -20.1509
    -9.2790  -9.2790  -9.2765  -9.2765  -8.7173  -8.7173  -8.7014  -8.7013
    -8.5309  -8.5309  -8.5091  -8.5091  -8.3453  -8.3453  -8.3276  -8.3276
    -8.3244  -8.3244  -8.3009  -8.3009  -7.7469  -7.7469  -7.7468  -7.7468
     1.5935   1.5935   1.5950   1.5950   2.9815   2.9815   2.9898   2.9898
     3.1409   3.1410   3.1492   3.1492   3.1915   3.1915   3.2200   3.2200
     3.4124   3.4125   3.4182   3.4182   3.7931   3.7931   3.8507   3.8508
     3.8796   3.8796   3.9524   3.9524   4.2691   4.2691   4.2809   4.2810
     4.3649   4.3649   4.3902   4.3902   4.9699   4.9699   4.9802   4.9803
     5.4153   5.4153   5.4270   5.4270   6.0386   6.0386   6.0394   6.0394
     6.4330   6.4330   6.4371   6.4371   6.4711   6.4711   6.4847   6.4847
     7.5056   7.5056   7.5140   7.5140   7.5508   7.5508   7.5786   7.5786
     7.6673   7.6673   7.6784   7.6784   7.8443   7.8444   7.8781   7.8781
    11.5825  11.5825  11.6174  11.6174  11.7014  11.7014  11.7268  11.7268
    12.0548  12.0548  12.0693  12.0693  12.2616  12.2616  12.2695  12.2695
    13.1814  13.1814  13.2091  13.2091  13.3528  13.3528  13.3780  13.3780
    14.9630  14.9630  14.9657  14.9657  16.7482  16.7483  16.7865  16.7865
    17.7433  17.7433  17.7506  17.7506  17.8984

          k =-0.5000 0.1580-0.5000 ( 62148 PWs)   bands (ev):

   -66.0448 -66.0448 -66.0448 -66.0448 -66.0444 -66.0444 -66.0444 -66.0444
   -30.4633 -30.4633 -30.4632 -30.4632 -30.4135 -30.4135 -30.4133 -30.4133
   -30.3491 -30.3491 -30.3491 -30.3491 -30.3459 -30.3458 -30.3453 -30.3453
   -30.3271 -30.3271 -30.3264 -30.3264 -30.3258 -30.3258 -30.3255 -30.3255
   -20.1977 -20.1977 -20.1977 -20.1977 -20.1976 -20.1976 -20.1976 -20.1976
   -20.1914 -20.1914 -20.1914 -20.1914 -20.1869 -20.1869 -20.1869 -20.1869
   -20.1818 -20.1818 -20.1817 -20.1817 -20.1817 -20.1816 -20.1815 -20.1815
   -20.1791 -20.1791 -20.1790 -20.1790 -20.1787 -20.1787 -20.1786 -20.1786
   -20.1690 -20.1689 -20.1689 -20.1689 -20.1688 -20.1688 -20.1688 -20.1688
   -20.1523 -20.1523 -20.1522 -20.1522 -20.1522 -20.1522 -20.1521 -20.1521
   -20.1511 -20.1511 -20.1510 -20.1510 -20.1510 -20.1510 -20.1509 -20.1509
    -9.2184  -9.2184  -9.2155  -9.2155  -8.7299  -8.7299  -8.7146  -8.7146
    -8.5168  -8.5168  -8.4948  -8.4947  -8.3444  -8.3443  -8.3273  -8.3273
    -8.3253  -8.3253  -8.3011  -8.3011  -7.8413  -7.8413  -7.8410  -7.8410
     1.8226   1.8226   1.8241   1.8241   2.9986   2.9986   3.0092   3.0092
     3.1485   3.1485   3.1531   3.1532   3.2153   3.2153   3.2439   3.2439
     3.4042   3.4043   3.4106   3.4106   3.8358   3.8358   3.8898   3.8898
     3.9259   3.9260   3.9956   3.9956   4.2535   4.2535   4.2647   4.2647
     4.3657   4.3657   4.3911   4.3911   4.7533   4.7534   4.7624   4.7624
     5.1794   5.1794   5.1872   5.1872   5.7745   5.7745   5.7755   5.7755
     6.6094   6.6095   6.6264   6.6264   6.6631   6.6631   6.6733   6.6733
     7.4971   7.4971   7.5055   7.5055   7.5423   7.5424   7.5721   7.5721
     7.6550   7.6550   7.6614   7.6614   7.8171   7.8171   7.8426   7.8427
    11.6389  11.6389  11.6714  11.6714  11.7589  11.7589  11.7842  11.7842
    12.0583  12.0583  12.0720  12.0721  12.2841  12.2841  12.2908  12.2908
    13.0552  13.0552  13.0804  13.0804  13.2371  13.2371  13.2593  13.2593
    15.3422  15.3422  15.3451  15.3451  16.8132  16.8132  16.8489  16.8489
    17.6770  17.6770  17.6985  17.6985  17.9017

          k =-0.5000 0.3161-0.5000 ( 62132 PWs)   bands (ev):

   -66.0447 -66.0447 -66.0447 -66.0447 -66.0445 -66.0445 -66.0445 -66.0445
   -30.4526 -30.4526 -30.4525 -30.4525 -30.4238 -30.4238 -30.4236 -30.4236
   -30.3485 -30.3485 -30.3485 -30.3485 -30.3467 -30.3467 -30.3463 -30.3463
   -30.3268 -30.3268 -30.3264 -30.3264 -30.3260 -30.3260 -30.3259 -30.3258
   -20.1977 -20.1977 -20.1977 -20.1977 -20.1976 -20.1976 -20.1976 -20.1976
   -20.1905 -20.1905 -20.1905 -20.1905 -20.1879 -20.1879 -20.1879 -20.1879
   -20.1817 -20.1817 -20.1816 -20.1816 -20.1816 -20.1816 -20.1815 -20.1815
   -20.1790 -20.1790 -20.1790 -20.1790 -20.1788 -20.1788 -20.1788 -20.1788
   -20.1689 -20.1689 -20.1689 -20.1689 -20.1688 -20.1688 -20.1688 -20.1688
   -20.1523 -20.1523 -20.1522 -20.1522 -20.1522 -20.1522 -20.1521 -20.1521
   -20.1511 -20.1511 -20.1510 -20.1510 -20.1510 -20.1510 -20.1509 -20.1509
    -9.0610  -9.0610  -9.0562  -9.0562  -8.7762  -8.7762  -8.7633  -8.7633
    -8.4650  -8.4650  -8.4414  -8.4413  -8.3421  -8.3420  -8.3285  -8.3285
    -8.3269  -8.3268  -8.3000  -8.2999  -8.0689  -8.0689  -8.0669  -8.0669
     2.4316   2.4316   2.4330   2.4330   3.0363   3.0364   3.0522   3.0522
     3.1447   3.1447   3.1475   3.1475   3.2894   3.2894   3.3243   3.3243
     3.3716   3.3717   3.3840   3.3840   3.9627   3.9627   4.0165   4.0165
     4.0269   4.0269   4.0520   4.0521   4.1269   4.1269   4.1690   4.1690
     4.3664   4.3664   4.4008   4.4009   4.4298   4.4298   4.4327   4.4328
     4.7747   4.7747   4.7747   4.7747   5.0919   5.0919   5.0961   5.0962
     6.9357   6.9357   6.9603   6.9603   7.0434   7.0435   7.0642   7.0642
     7.4458   7.4459   7.4520   7.4521   7.5075   7.5076   7.5378   7.5378
     7.6308   7.6308   7.6321   7.6321   7.7325   7.7325   7.7469   7.7469
    11.7856  11.7856  11.8015  11.8015  11.8924  11.8924  11.9065  11.9065
    12.1031  12.1031  12.1127  12.1127  12.3742  12.3742  12.3788  12.3788
    12.7408  12.7408  12.7613  12.7613  12.9454  12.9454  12.9602  12.9602
    16.2726  16.2726  16.2752  16.2752  16.9954  16.9954  17.0209  17.0209
    17.4808  17.4809  17.5281  17.5282  17.9076

          k =-0.5000-0.4741-0.5000 ( 62144 PWs)   bands (ev):

   -66.0446 -66.0446 -66.0446 -66.0446 -66.0446 -66.0446 -66.0446 -66.0446
   -30.4384 -30.4384 -30.4380 -30.4380 -30.4380 -30.4380 -30.4378 -30.4378
   -30.3478 -30.3478 -30.3477 -30.3477 -30.3477 -30.3477 -30.3472 -30.3472
   -30.3264 -30.3264 -30.3263 -30.3263 -30.3263 -30.3263 -30.3263 -30.3262
   -20.1977 -20.1977 -20.1977 -20.1977 -20.1977 -20.1977 -20.1976 -20.1976
   -20.1892 -20.1892 -20.1892 -20.1892 -20.1892 -20.1892 -20.1891 -20.1891
   -20.1816 -20.1816 -20.1816 -20.1816 -20.1816 -20.1816 -20.1816 -20.1816
   -20.1790 -20.1790 -20.1789 -20.1789 -20.1789 -20.1789 -20.1789 -20.1789
   -20.1689 -20.1689 -20.1689 -20.1689 -20.1689 -20.1689 -20.1689 -20.1688
   -20.1523 -20.1523 -20.1523 -20.1522 -20.1522 -20.1522 -20.1521 -20.1521
   -20.1510 -20.1510 -20.1510 -20.1510 -20.1509 -20.1509 -20.1509 -20.1509
    -8.8947  -8.8946  -8.8765  -8.8765  -8.8765  -8.8764  -8.8755  -8.8755
    -8.3776  -8.3775  -8.3475  -8.3474  -8.3474  -8.3474  -8.3454  -8.3454
    -8.2907  -8.2907  -8.2907  -8.2907  -8.2749  -8.2749  -8.2600  -8.2600
     3.0219   3.0219   3.0275   3.0275   3.0276   3.0276   3.0425   3.0426
     3.2296   3.2296   3.2342   3.2342   3.2342   3.2342   3.2558   3.2559
     3.4125   3.4125   3.5126   3.5127   3.5127   3.5127   3.5671   3.5671
     4.1933   4.1934   4.2107   4.2107   4.2159   4.2159   4.2160   4.2160
     4.4196   4.4196   4.4196   4.4196   4.4415   4.4415   4.4511   4.4511
     4.5214   4.5215   4.5439   4.5439   4.5510   4.5510   4.5511   4.5511
     7.1465   7.1465   7.2310   7.2311   7.2311   7.2311   7.3397   7.3397
     7.3851   7.3851   7.3935   7.3935   7.3935   7.3935   7.3974   7.3975
     7.6276   7.6276   7.6469   7.6469   7.6469   7.6469   7.6792   7.6792
    11.9065  11.9065  11.9084  11.9084  11.9084  11.9084  11.9175  11.9175
    12.2770  12.2770  12.3441  12.3441  12.3441  12.3441  12.4491  12.4491
    12.5797  12.5797  12.6301  12.6301  12.6301  12.6301  12.6541  12.6541
    17.1551  17.1552  17.1895  17.1895  17.1895  17.1895  17.2212  17.2213
    17.4100  17.4100  17.4101  17.4101  17.4654

     the Fermi energy is     9.7812 ev

!    total energy              =   -6260.85573422 Ry
     Harris-Foulkes estimate   =   -6260.85573422 Ry
     estimated scf accuracy    <          9.6E-10 Ry

     The total energy is the sum of the following terms:

     one-electron contribution =   -4710.92126520 Ry
     hartree contribution      =    2593.79441093 Ry
     xc contribution           =    -966.06543188 Ry
     ewald contribution        =   -3177.66340725 Ry
     smearing contrib. (-TS)   =      -0.00004082 Ry

     convergence has been achieved in  13 iterations

     Writing output data file Landau_11.save
 
     init_run     :     23.48s CPU     24.56s WALL (       1 calls)
     electrons    :    975.24s CPU    991.73s WALL (       1 calls)

     Called by init_run:
     wfcinit      :     21.60s CPU     22.52s WALL (       1 calls)
     potinit      :      0.70s CPU      0.74s WALL (       1 calls)

     Called by electrons:
     c_bands      :    850.97s CPU    866.13s WALL (      13 calls)
     sum_band     :    115.32s CPU    115.88s WALL (      13 calls)
     v_of_rho     :      1.96s CPU      2.00s WALL (      14 calls)
     mix_rho      :      4.01s CPU      4.49s WALL (      13 calls)

     Called by c_bands:
     init_us_2    :      8.10s CPU      8.55s WALL (      27 calls)
     cegterg      :    704.48s CPU    719.46s WALL (      13 calls)

     Called by sum_band:

     Called by *egterg:
     h_psi        :    552.53s CPU    554.95s WALL (      64 calls)
     g_psi        :      2.22s CPU      2.26s WALL (      50 calls)
     cdiaghg      :      8.84s CPU      8.86s WALL (      63 calls)

     Called by h_psi:
     h_psi:pot    :    548.43s CPU    550.72s WALL (      64 calls)
     h_psi:calbec :     65.58s CPU     67.17s WALL (      64 calls)
     vloc_psi     :    413.75s CPU    414.18s WALL (      64 calls)
     add_vuspsi   :     69.10s CPU     69.37s WALL (      64 calls)

     General routines
     calbec       :     65.58s CPU     67.17s WALL (      64 calls)
     fft          :      1.22s CPU      1.24s WALL (      56 calls)
     fftw         :    404.17s CPU    404.34s WALL (   16951 calls)
 
     Parallel routines
 
     PWSCF        : 16m42.39s CPU    17m 5.73s WALL

 
   This run was terminated on:  12:15:15  17Sep2019            

=------------------------------------------------------------------------------=
   JOB DONE.
=------------------------------------------------------------------------------=
