
     Program PWSCF v.6.2 (svn rev. 14038) starts on 23Mar2020 at  3: 4: 1 

     This program is part of the open-source Quantum ESPRESSO suite
     for quantum simulation of materials; please cite
         "P. Giannozzi et al., J. Phys.:Condens. Matter 21 395502 (2009);
         "P. Giannozzi et al., J. Phys.:Condens. Matter 29 465901 (2017);
          URL http://www.quantum-espresso.org", 
     in publications or presentations arising from this work. More details at
     http://www.quantum-espresso.org/quote

     Parallel version (MPI), running on    40 processors

     MPI processes distributed on     4 nodes
     K-points division:     npool     =      40
     Reading input from rscf.in

     Current dimensions of program PWSCF are:
     Max number of different atomic species (ntypx) = 10
     Max number of k-points (npk) =  40000
     Max angular momentum in pseudopotentials (lmaxx) =  3

     Subspace diagonalization in iterative solution of the eigenvalue problem:
     a serial algorithm will be used

 
     G-vector sticks info
     --------------------
     sticks:   dense  smooth     PW     G-vecs:    dense   smooth      PW
     Sum        7747    7747   2077               498127   498127   69057
 


     bravais-lattice index     =            0
     lattice parameter (alat)  =      13.8397  a.u.
     unit-cell volume          =    2804.9816 (a.u.)^3
     number of atoms/cell      =           32
     number of atomic types    =            2
     number of electrons       =       368.00
     number of Kohn-Sham states=          221
     kinetic-energy cutoff     =     120.0000  Ry
     charge density cutoff     =     480.0000  Ry
     convergence threshold     =      1.0E-08
     mixing beta               =       0.7000
     number of iterations used =            8  plain     mixing
     Exchange-correlation      = SLA PW NOGX NOGC ( 1  4  0  0 0 0)
     nstep                     =           50


     celldm(1)=  13.839685  celldm(2)=   0.000000  celldm(3)=   0.000000
     celldm(4)=   0.000000  celldm(5)=   0.000000  celldm(6)=   0.000000

     crystal axes: (cart. coord. in units of alat)
               a(1) = (   1.000000   0.000000   0.000000 )  
               a(2) = (   0.000000   1.058160   0.000000 )  
               a(3) = (   0.000000   0.000000   1.000000 )  

     reciprocal axes: (cart. coord. in units 2 pi/alat)
               b(1) = (  1.000000  0.000000  0.000000 )  
               b(2) = (  0.000000  0.945037  0.000000 )  
               b(3) = (  0.000000  0.000000  1.000000 )  


     PseudoPot. # 1 for W  read from file:
     /cluster/scratch/mnoe/QE/pps/W_ONCV_LDA-4.0.upf
     MD5 check sum: ba0307d5d4cd419d6f1d13dc49d7c13a
     Pseudo is Norm-conserving + core correction, Zval = 28.0
     Generated using ONCVPSP code by D. R. Hamann
     Using radial grid of 1380 points,  8 beta functions with: 
                l(1) =   0
                l(2) =   0
                l(3) =   1
                l(4) =   1
                l(5) =   2
                l(6) =   2
                l(7) =   3
                l(8) =   3

     PseudoPot. # 2 for O  read from file:
     /cluster/scratch/mnoe/QE/pps/O_ONCV_LDA-3.0.upf
     MD5 check sum: a1bd6164e7280c17a38c229939bfbd54
     Pseudo is Norm-conserving + core correction, Zval =  6.0
     Generated using ONCVPSP code by D. R. Hamann
     Using radial grid of  926 points,  5 beta functions with: 
                l(1) =   0
                l(2) =   0
                l(3) =   1
                l(4) =   1
                l(5) =   2

     atomic species   valence    mass     pseudopotential
        W             28.00   183.84000     W ( 1.00)
        O              6.00    15.99940     O ( 1.00)

      4 Sym. Ops. (no inversion) found ( 3 have fractional translation)



   Cartesian axes

     site n.     atom                  positions (alat units)
         1           W   tau(   1) = (   0.2284905   0.2920274   0.0050179  )
         2           W   tau(   2) = (   0.7562405   0.7661327  -0.0211871  )
         3           W   tau(   3) = (   0.2715095   0.2370527   0.5050179  )
         4           W   tau(   4) = (   0.7437595   0.8211074   0.4788129  )
         5           W   tau(   5) = (   0.7715094   0.2920274   0.4949821  )
         6           W   tau(   6) = (   0.2437595   0.7661327   0.5211871  )
         7           W   tau(   7) = (   0.7284905   0.2370527  -0.0050179  )
         8           W   tau(   8) = (   0.2562405   0.8211074   0.0211871  )
         9           O   tau(   9) = (   0.2220296   0.0071078  -0.0108425  )
        10           O   tau(  10) = (   0.7732245  -0.0071079  -0.0189875  )
        11           O   tau(  11) = (   0.2779704   0.5219722   0.4891575  )
        12           O   tau(  12) = (   0.7267754   0.5361879   0.4810125  )
        13           O   tau(  13) = (   0.7779704   0.0071078   0.5108425  )
        14           O   tau(  14) = (   0.2267754  -0.0071079   0.5189875  )
        15           O   tau(  15) = (   0.7220296   0.5219722   0.0108425  )
        16           O   tau(  16) = (   0.2732246   0.5361879   0.0189875  )
        17           O   tau(  17) = (   0.5071468   0.2332225   0.4639262  )
        18           O   tau(  18) = (   0.4995568   0.8178718   0.5360738  )
        19           O   tau(  19) = (  -0.0071468   0.2958575   0.9639262  )
        20           O   tau(  20) = (   0.0004432   0.7693684   0.0360738  )
        21           O   tau(  21) = (   0.4928532   0.2332225   0.0360738  )
        22           O   tau(  22) = (   0.5004432   0.8178718   0.9639262  )
        23           O   tau(  23) = (   0.0071468   0.2958575   0.5360738  )
        24           O   tau(  24) = (  -0.0004432   0.7693684   0.4639262  )
        25           O   tau(  25) = (   0.7139262   0.2746661   0.7464587  )
        26           O   tau(  26) = (   0.2860738   0.8158727   0.2579637  )
        27           O   tau(  27) = (   0.7860739   0.2544139   0.2464588  )
        28           O   tau(  28) = (   0.2139262   0.7713675   0.7579637  )
        29           O   tau(  29) = (   0.2860738   0.2746661   0.7535412  )
        30           O   tau(  30) = (   0.7139262   0.8158727   0.2420363  )
        31           O   tau(  31) = (   0.2139262   0.2544139   0.2535412  )
        32           O   tau(  32) = (   0.7860739   0.7713675   0.7420363  )

     number of k points=    64  gaussian smearing, width (Ry)=  0.0007
                       cart. coord. in units 2pi/alat
        k(    1) = (   0.0000000   0.0000000   0.0000000), wk =   0.0092593
        k(    2) = (   0.0000000   0.0000000   0.1666667), wk =   0.0185185
        k(    3) = (   0.0000000   0.0000000   0.3333333), wk =   0.0185185
        k(    4) = (   0.0000000   0.0000000  -0.5000000), wk =   0.0092593
        k(    5) = (   0.0000000   0.1575061   0.0000000), wk =   0.0185185
        k(    6) = (   0.0000000   0.1575061   0.1666667), wk =   0.0370370
        k(    7) = (   0.0000000   0.1575061   0.3333333), wk =   0.0370370
        k(    8) = (   0.0000000   0.1575061  -0.5000000), wk =   0.0185185
        k(    9) = (   0.0000000   0.3150122   0.0000000), wk =   0.0185185
        k(   10) = (   0.0000000   0.3150122   0.1666667), wk =   0.0370370
        k(   11) = (   0.0000000   0.3150122   0.3333333), wk =   0.0370370
        k(   12) = (   0.0000000   0.3150122  -0.5000000), wk =   0.0185185
        k(   13) = (   0.0000000  -0.4725183   0.0000000), wk =   0.0092593
        k(   14) = (   0.0000000  -0.4725183   0.1666667), wk =   0.0185185
        k(   15) = (   0.0000000  -0.4725183   0.3333333), wk =   0.0185185
        k(   16) = (   0.0000000  -0.4725183  -0.5000000), wk =   0.0092593
        k(   17) = (   0.1666667   0.0000000   0.1666667), wk =   0.0370370
        k(   18) = (   0.1666667   0.0000000   0.3333333), wk =   0.0370370
        k(   19) = (   0.1666667   0.0000000  -0.5000000), wk =   0.0185185
        k(   20) = (   0.1666667   0.1575061   0.1666667), wk =   0.0740741
        k(   21) = (   0.1666667   0.1575061   0.3333333), wk =   0.0740741
        k(   22) = (   0.1666667   0.1575061  -0.5000000), wk =   0.0370370
        k(   23) = (   0.1666667   0.3150122   0.1666667), wk =   0.0740741
        k(   24) = (   0.1666667   0.3150122   0.3333333), wk =   0.0740741
        k(   25) = (   0.1666667   0.3150122  -0.5000000), wk =   0.0370370
        k(   26) = (   0.1666667  -0.4725183   0.1666667), wk =   0.0370370
        k(   27) = (   0.1666667  -0.4725183   0.3333333), wk =   0.0370370
        k(   28) = (   0.1666667  -0.4725183  -0.5000000), wk =   0.0185185
        k(   29) = (   0.3333333   0.0000000   0.3333333), wk =   0.0370370
        k(   30) = (   0.3333333   0.0000000  -0.5000000), wk =   0.0185185
        k(   31) = (   0.3333333   0.1575061   0.3333333), wk =   0.0740741
        k(   32) = (   0.3333333   0.1575061  -0.5000000), wk =   0.0370370
        k(   33) = (   0.3333333   0.3150122   0.3333333), wk =   0.0740741
        k(   34) = (   0.3333333   0.3150122  -0.5000000), wk =   0.0370370
        k(   35) = (   0.3333333  -0.4725183   0.3333333), wk =   0.0370370
        k(   36) = (   0.3333333  -0.4725183  -0.5000000), wk =   0.0185185
        k(   37) = (  -0.5000000   0.0000000  -0.5000000), wk =   0.0092593
        k(   38) = (  -0.5000000   0.1575061  -0.5000000), wk =   0.0185185
        k(   39) = (  -0.5000000   0.3150122  -0.5000000), wk =   0.0185185
        k(   40) = (  -0.5000000  -0.4725183  -0.5000000), wk =   0.0092593
        k(   41) = (   0.1666667   0.0000000   0.0000000), wk =   0.0185185
        k(   42) = (   0.3333333   0.0000000   0.0000000), wk =   0.0185185
        k(   43) = (  -0.5000000   0.0000000   0.0000000), wk =   0.0092593
        k(   44) = (   0.1666667  -0.1575061   0.0000000), wk =   0.0370370
        k(   45) = (   0.3333333  -0.1575061   0.0000000), wk =   0.0370370
        k(   46) = (  -0.5000000  -0.1575061   0.0000000), wk =   0.0185185
        k(   47) = (   0.1666667  -0.3150122   0.0000000), wk =   0.0370370
        k(   48) = (   0.3333333  -0.3150122   0.0000000), wk =   0.0370370
        k(   49) = (  -0.5000000  -0.3150122   0.0000000), wk =   0.0185185
        k(   50) = (   0.1666667   0.4725183   0.0000000), wk =   0.0185185
        k(   51) = (   0.3333333   0.4725183   0.0000000), wk =   0.0185185
        k(   52) = (  -0.5000000   0.4725183   0.0000000), wk =   0.0092593
        k(   53) = (   0.3333333   0.0000000   0.1666667), wk =   0.0370370
        k(   54) = (  -0.5000000   0.0000000   0.1666667), wk =   0.0185185
        k(   55) = (   0.3333333  -0.1575061   0.1666667), wk =   0.0740741
        k(   56) = (  -0.5000000  -0.1575061   0.1666667), wk =   0.0370370
        k(   57) = (   0.3333333  -0.3150122   0.1666667), wk =   0.0740741
        k(   58) = (  -0.5000000  -0.3150122   0.1666667), wk =   0.0370370
        k(   59) = (   0.3333333   0.4725183   0.1666667), wk =   0.0370370
        k(   60) = (  -0.5000000   0.4725183   0.1666667), wk =   0.0185185
        k(   61) = (  -0.5000000   0.0000000   0.3333333), wk =   0.0185185
        k(   62) = (  -0.5000000  -0.1575061   0.3333333), wk =   0.0370370
        k(   63) = (  -0.5000000  -0.3150122   0.3333333), wk =   0.0370370
        k(   64) = (  -0.5000000   0.4725183   0.3333333), wk =   0.0185185

     Dense  grid:   498127 G-vectors     FFT dimensions: ( 100, 108, 100)

     Estimated max dynamical RAM per process >       3.15 GB

     Estimated total dynamical RAM >     125.81 GB

     Initial potential from superposition of free atoms

     starting charge  367.99656, renormalised to  368.00000
     Starting wfc are  232 randomized atomic wfcs

     total cpu time spent up to now is       64.8 secs

     Self-consistent Calculation

     iteration #  1     ecut=   120.00 Ry     beta= 0.70
     Davidson diagonalization with overlap
     ethr =  1.00E-02,  avg # of iterations =  5.1

     total cpu time spent up to now is      287.2 secs

     total energy              =   -6253.98679432 Ry
     Harris-Foulkes estimate   =   -6264.52307789 Ry
     estimated scf accuracy    <      13.35334047 Ry

     iteration #  2     ecut=   120.00 Ry     beta= 0.70
     Davidson diagonalization with overlap
     ethr =  3.63E-03,  avg # of iterations =  3.5

     total cpu time spent up to now is      456.0 secs

     total energy              =   -6250.71201234 Ry
     Harris-Foulkes estimate   =   -6270.64199538 Ry
     estimated scf accuracy    <      53.72983403 Ry

     iteration #  3     ecut=   120.00 Ry     beta= 0.70
     Davidson diagonalization with overlap
     ethr =  3.63E-03,  avg # of iterations =  3.5

     total cpu time spent up to now is      610.9 secs

     total energy              =   -6260.98868850 Ry
     Harris-Foulkes estimate   =   -6261.43030579 Ry
     estimated scf accuracy    <       1.38555641 Ry

     iteration #  4     ecut=   120.00 Ry     beta= 0.70
     Davidson diagonalization with overlap
     ethr =  3.77E-04,  avg # of iterations =  2.6

     total cpu time spent up to now is      742.7 secs

     total energy              =   -6261.04856456 Ry
     Harris-Foulkes estimate   =   -6261.14431827 Ry
     estimated scf accuracy    <       0.33267428 Ry

     iteration #  5     ecut=   120.00 Ry     beta= 0.70
     Davidson diagonalization with overlap
     ethr =  9.04E-05,  avg # of iterations =  4.8

     total cpu time spent up to now is      875.7 secs

     total energy              =   -6261.03026283 Ry
     Harris-Foulkes estimate   =   -6261.07668091 Ry
     estimated scf accuracy    <       0.10028188 Ry

     iteration #  6     ecut=   120.00 Ry     beta= 0.70
     Davidson diagonalization with overlap
     ethr =  2.73E-05,  avg # of iterations =  6.1

     total cpu time spent up to now is     1227.7 secs

     total energy              =   -6261.05335602 Ry
     Harris-Foulkes estimate   =   -6261.05515312 Ry
     estimated scf accuracy    <       0.00586193 Ry

     iteration #  7     ecut=   120.00 Ry     beta= 0.70
     Davidson diagonalization with overlap
     ethr =  1.59E-06,  avg # of iterations =  5.5

     total cpu time spent up to now is     1370.0 secs

     total energy              =   -6261.05357932 Ry
     Harris-Foulkes estimate   =   -6261.05429280 Ry
     estimated scf accuracy    <       0.00240132 Ry

     iteration #  8     ecut=   120.00 Ry     beta= 0.70
     Davidson diagonalization with overlap
     ethr =  6.53E-07,  avg # of iterations =  2.0

     total cpu time spent up to now is     1632.3 secs

     total energy              =   -6261.05382424 Ry
     Harris-Foulkes estimate   =   -6261.05390193 Ry
     estimated scf accuracy    <       0.00020225 Ry

     iteration #  9     ecut=   120.00 Ry     beta= 0.70
     Davidson diagonalization with overlap
     ethr =  5.50E-08,  avg # of iterations =  3.0

     total cpu time spent up to now is     1768.3 secs

     total energy              =   -6261.05385546 Ry
     Harris-Foulkes estimate   =   -6261.05387182 Ry
     estimated scf accuracy    <       0.00003759 Ry

     iteration # 10     ecut=   120.00 Ry     beta= 0.70
     Davidson diagonalization with overlap
     ethr =  1.02E-08,  avg # of iterations =  2.9

     total cpu time spent up to now is     2190.5 secs

     total energy              =   -6261.05386338 Ry
     Harris-Foulkes estimate   =   -6261.05386505 Ry
     estimated scf accuracy    <       0.00000413 Ry

     iteration # 11     ecut=   120.00 Ry     beta= 0.70
     Davidson diagonalization with overlap
     ethr =  1.12E-09,  avg # of iterations =  2.1

     total cpu time spent up to now is     2529.1 secs

     total energy              =   -6261.05386394 Ry
     Harris-Foulkes estimate   =   -6261.05386409 Ry
     estimated scf accuracy    <       0.00000031 Ry

     iteration # 12     ecut=   120.00 Ry     beta= 0.70
     Davidson diagonalization with overlap
     ethr =  8.53E-11,  avg # of iterations =  2.8

     total cpu time spent up to now is     2773.3 secs

     total energy              =   -6261.05386399 Ry
     Harris-Foulkes estimate   =   -6261.05386402 Ry
     estimated scf accuracy    <       0.00000006 Ry

     iteration # 13     ecut=   120.00 Ry     beta= 0.70
     Davidson diagonalization with overlap
     ethr =  1.71E-11,  avg # of iterations =  2.9

     total cpu time spent up to now is     3310.3 secs

     total energy              =   -6261.05386400 Ry
     Harris-Foulkes estimate   =   -6261.05386401 Ry
     estimated scf accuracy    <       0.00000003 Ry

     iteration # 14     ecut=   120.00 Ry     beta= 0.70
     Davidson diagonalization with overlap
     ethr =  9.50E-12,  avg # of iterations =  2.4

     total cpu time spent up to now is     3440.0 secs

     End of self-consistent calculation

          k = 0.0000 0.0000 0.0000 ( 62239 PWs)   bands (ev):

   -66.1591 -66.1581 -66.1580 -66.1570 -66.1555 -66.1545 -66.1545 -66.1535
   -30.6515 -30.6467 -30.6397 -30.6335 -30.5515 -30.5463 -30.5414 -30.5403
   -30.5305 -30.5262 -30.5192 -30.5174 -30.4415 -30.4360 -30.4292 -30.4251
   -30.4243 -30.4221 -30.4197 -30.4172 -30.3733 -30.3696 -30.3690 -30.3654
   -20.3128 -20.3126 -20.3125 -20.3123 -20.3085 -20.3083 -20.3080 -20.3078
   -20.2943 -20.2941 -20.2936 -20.2934 -20.2922 -20.2917 -20.2889 -20.2888
   -20.2870 -20.2867 -20.2866 -20.2866 -20.2861 -20.2859 -20.2848 -20.2845
   -20.2840 -20.2836 -20.2821 -20.2819 -20.2815 -20.2812 -20.2810 -20.2808
   -20.2803 -20.2795 -20.2771 -20.2762 -20.2755 -20.2754 -20.2748 -20.2746
   -20.2745 -20.2742 -20.2738 -20.2724 -20.2707 -20.2695 -20.2687 -20.2684
   -20.2684 -20.2678 -20.2663 -20.2657 -20.2646 -20.2635 -20.2615 -20.2602
   -10.0751  -9.8945  -9.6938  -9.6393  -9.4585  -9.3969  -9.2227  -9.2019
    -8.7047  -8.6347  -8.6327  -8.6324  -7.9866  -7.9517  -7.8723  -7.8598
    -7.7938  -7.7704  -7.6997  -7.6818  -7.5938  -7.5328  -7.5231  -7.4695
     0.8788   0.9155   0.9712   1.0638   1.1066   1.1972   1.3353   1.3897
     1.9253   1.9470   1.9670   2.0276   2.1296   2.2164   2.5910   2.6829
     2.7742   2.7743   4.0976   4.1836   4.1873   4.3072   4.3873   4.4219
     4.4956   4.5328   4.8405   5.1214   5.2282   5.2422   5.2514   5.4333
     5.4364   5.4542   5.5349   5.5476   5.5694   5.5736   5.6381   5.6797
     5.8299   5.8706   5.9247   5.9338   5.9508   5.9572   6.0277   6.0526
     6.2158   6.3333   6.4327   6.4354   6.5166   6.6346   6.8381   6.8594
     6.9079   6.9686   6.9937   7.0484   7.1136   7.1180   7.1574   7.2186
     7.2249   7.2379   7.8635   7.8845   8.0544   8.0768   8.1440   8.2061
     9.5281   9.5718   9.8549   9.8768   9.8841   9.9262  12.1907  12.3182
    12.3714  12.4898  12.5032  12.5238  12.6509  12.8284  12.8333  12.9635
    13.1693  13.2467  13.3221  13.4905  13.6271  13.7669  13.8784  14.1038
    14.3743  14.4741  14.5941  14.9214  15.2293  15.4521  15.4888  16.1733
    16.1815  16.9645  17.0907  17.1305  17.3711

          k = 0.0000 0.0000 0.1667 ( 62262 PWs)   bands (ev):

   -66.1590 -66.1582 -66.1579 -66.1571 -66.1554 -66.1545 -66.1544 -66.1536
   -30.6445 -30.6398 -30.6392 -30.6339 -30.5532 -30.5486 -30.5480 -30.5336
   -30.5310 -30.5258 -30.5199 -30.5142 -30.4479 -30.4420 -30.4288 -30.4247
   -30.4239 -30.4228 -30.4200 -30.4182 -30.3730 -30.3693 -30.3692 -30.3656
   -20.3128 -20.3126 -20.3125 -20.3123 -20.3085 -20.3082 -20.3080 -20.3078
   -20.2943 -20.2942 -20.2936 -20.2934 -20.2922 -20.2918 -20.2886 -20.2886
   -20.2869 -20.2868 -20.2867 -20.2865 -20.2861 -20.2859 -20.2850 -20.2847
   -20.2840 -20.2836 -20.2822 -20.2816 -20.2814 -20.2814 -20.2810 -20.2808
   -20.2801 -20.2792 -20.2766 -20.2765 -20.2755 -20.2751 -20.2751 -20.2745
   -20.2742 -20.2742 -20.2741 -20.2726 -20.2710 -20.2694 -20.2690 -20.2684
   -20.2683 -20.2678 -20.2667 -20.2660 -20.2645 -20.2635 -20.2614 -20.2603
   -10.0188  -9.8358  -9.6523  -9.6025  -9.4102  -9.3673  -9.1804  -9.1654
    -8.7188  -8.6401  -8.6295  -8.6241  -8.1098  -8.0133  -7.9608  -7.9245
    -7.8661  -7.8368  -7.7666  -7.6879  -7.5902  -7.5371  -7.5208  -7.4734
     0.9893   1.0568   1.0616   1.1991   1.2418   1.3789   1.4678   1.5483
     1.9211   1.9554   1.9586   2.0540   2.2192   2.3059   2.6283   2.7463
     2.7654   2.8623   4.0406   4.1022   4.1458   4.2192   4.2306   4.2927
     4.4750   4.5362   4.7161   4.8013   4.9484   5.1739   5.2335   5.2479
     5.3590   5.3923   5.4712   5.5198   5.5523   5.5814   5.6283   5.6847
     5.6893   5.8051   5.8711   5.9256   5.9899   5.9983   6.0839   6.1701
     6.2156   6.3636   6.4990   6.5398   6.6767   6.7155   6.7392   6.8014
     6.8319   6.9247   6.9378   6.9568   7.0010   7.0570   7.0825   7.1569
     7.2029   7.2155   7.8378   7.8516   8.0696   8.0745   8.1054   8.1786
     9.7656   9.8552   9.8598   9.9614  10.1503  10.2021  12.2516  12.2882
    12.4007  12.4064  12.5294  12.5825  12.6688  12.6936  12.8653  12.8817
    13.0350  13.1830  13.3361  13.5530  13.6306  13.6990  13.8733  13.9888
    14.3685  14.5137  14.5871  15.0275  15.2016  15.5360  15.5632  16.1497
    16.4960  16.8631  17.1299  17.3204  17.4594

          k = 0.0000 0.0000 0.3333 ( 62268 PWs)   bands (ev):

   -66.1588 -66.1583 -66.1578 -66.1573 -66.1552 -66.1547 -66.1543 -66.1537
   -30.6381 -30.6350 -30.6253 -30.6207 -30.5725 -30.5681 -30.5409 -30.5326
   -30.5247 -30.5214 -30.5155 -30.5025 -30.4659 -30.4590 -30.4277 -30.4244
   -30.4237 -30.4230 -30.4209 -30.4199 -30.3721 -30.3699 -30.3685 -30.3663
   -20.3127 -20.3126 -20.3126 -20.3124 -20.3084 -20.3082 -20.3081 -20.3079
   -20.2943 -20.2942 -20.2936 -20.2935 -20.2921 -20.2919 -20.2881 -20.2880
   -20.2871 -20.2870 -20.2866 -20.2862 -20.2860 -20.2860 -20.2854 -20.2851
   -20.2839 -20.2837 -20.2822 -20.2817 -20.2814 -20.2812 -20.2811 -20.2808
   -20.2794 -20.2785 -20.2773 -20.2760 -20.2756 -20.2751 -20.2749 -20.2747
   -20.2745 -20.2738 -20.2731 -20.2730 -20.2719 -20.2700 -20.2690 -20.2682
   -20.2680 -20.2679 -20.2674 -20.2667 -20.2643 -20.2637 -20.2611 -20.2605
    -9.8898  -9.6932  -9.6901  -9.4539  -9.3474  -9.1106  -9.0679  -9.0030
    -8.7830  -8.6740  -8.6110  -8.5929  -8.4254  -8.3561  -8.2554  -8.1897
    -7.9284  -7.8834  -7.7506  -7.7047  -7.5798  -7.5487  -7.5118  -7.4839
     1.0427   1.0578   1.1925   1.2043   1.8303   1.8331   1.9124   1.9425
     2.0455   2.1724   2.2066   2.3559   2.4768   2.5602   2.6690   2.7449
     2.9847   3.0933   3.4836   3.6001   3.9115   3.9489   4.1658   4.1973
     4.2729   4.3805   4.4445   4.5522   4.6796   4.8003   4.8014   4.8084
     5.0787   5.1677   5.2658   5.2662   5.3291   5.3726   5.7052   5.7137
     5.7950   5.8871   5.9174   5.9680   6.0162   6.0185   6.1765   6.2281
     6.2475   6.3347   6.3859   6.4819   6.5182   6.6649   6.6791   6.7795
     6.8946   6.9471   7.0051   7.0232   7.0333   7.0446   7.1840   7.2060
     7.2717   7.3578   7.7136   7.7202   7.9623   8.0008   8.1011   8.1286
     9.8420   9.8542  10.5123  10.6126  10.7908  10.8855  11.9816  12.0900
    12.2227  12.4122  12.4238  12.4671  12.6482  12.6530  12.7418  12.7810
    12.9775  13.2477  13.2761  13.3469  13.4882  13.6468  13.7237  13.8135
    14.4264  14.5636  14.7123  15.1132  15.2811  15.7717  16.0245  16.0568
    16.3689  17.3701  17.5369  17.6706  17.7015

          k = 0.0000 0.0000-0.5000 ( 62264 PWs)   bands (ev):

   -66.1586 -66.1586 -66.1575 -66.1575 -66.1550 -66.1550 -66.1540 -66.1540
   -30.6365 -30.6365 -30.5990 -30.5990 -30.5945 -30.5945 -30.5357 -30.5357
   -30.5231 -30.5231 -30.4907 -30.4907 -30.4819 -30.4819 -30.4261 -30.4261
   -30.4222 -30.4222 -30.4216 -30.4216 -30.3710 -30.3710 -30.3674 -30.3674
   -20.3127 -20.3126 -20.3125 -20.3125 -20.3083 -20.3083 -20.3080 -20.3080
   -20.2943 -20.2942 -20.2936 -20.2935 -20.2920 -20.2920 -20.2875 -20.2875
   -20.2874 -20.2874 -20.2862 -20.2862 -20.2858 -20.2858 -20.2856 -20.2856
   -20.2838 -20.2838 -20.2820 -20.2820 -20.2813 -20.2813 -20.2809 -20.2809
   -20.2784 -20.2784 -20.2773 -20.2773 -20.2753 -20.2753 -20.2747 -20.2747
   -20.2736 -20.2736 -20.2732 -20.2732 -20.2715 -20.2715 -20.2683 -20.2683
   -20.2681 -20.2681 -20.2674 -20.2674 -20.2640 -20.2640 -20.2608 -20.2608
    -9.7700  -9.7700  -9.5431  -9.5431  -9.0061  -9.0061  -8.8449  -8.8449
    -8.7430  -8.7430  -8.7243  -8.7243  -8.5440  -8.5440  -8.4917  -8.4917
    -7.9068  -7.9068  -7.7276  -7.7276  -7.5645  -7.5645  -7.4980  -7.4980
     1.0544   1.0544   1.2082   1.2082   1.9016   1.9017   1.9215   1.9215
     2.6839   2.6839   2.8098   2.8098   2.9218   2.9218   3.0211   3.0212
     3.0985   3.0985   3.1787   3.1787   3.3969   3.3969   3.7134   3.7134
     3.8027   3.8027   4.3497   4.3497   4.6738   4.6738   4.8970   4.8970
     5.0028   5.0029   5.1513   5.1514   5.3008   5.3008   5.7784   5.7784
     5.8586   5.8586   5.9267   5.9267   6.0242   6.0242   6.2024   6.2024
     6.2491   6.2491   6.3488   6.3488   6.4924   6.4924   6.7532   6.7532
     6.8750   6.8750   6.9871   6.9871   7.1957   7.1957   7.4227   7.4227
     7.4483   7.4483   7.6889   7.6890   7.7530   7.7530   8.1140   8.1140
     9.8503   9.8503  11.2916  11.2916  11.4196  11.4196  11.5566  11.5566
    11.6960  11.6960  12.4979  12.4979  12.6464  12.6464  12.9480  12.9480
    13.0852  13.0852  13.1636  13.1636  13.4348  13.4349  13.6986  13.6986
    14.5143  14.5143  14.9501  14.9501  15.6721  15.6721  16.0299  16.0299
    16.8579  16.8579  17.9524  17.9525  18.1034

          k = 0.0000 0.1575 0.0000 ( 62231 PWs)   bands (ev):

   -66.1590 -66.1581 -66.1580 -66.1570 -66.1555 -66.1545 -66.1545 -66.1535
   -30.6515 -30.6467 -30.6397 -30.6335 -30.5515 -30.5463 -30.5414 -30.5403
   -30.5305 -30.5263 -30.5192 -30.5174 -30.4411 -30.4355 -30.4255 -30.4248
   -30.4210 -30.4196 -30.4188 -30.4142 -30.3771 -30.3733 -30.3726 -30.3690
   -20.3128 -20.3127 -20.3125 -20.3123 -20.3085 -20.3083 -20.3080 -20.3078
   -20.2943 -20.2941 -20.2936 -20.2934 -20.2922 -20.2917 -20.2889 -20.2888
   -20.2870 -20.2867 -20.2866 -20.2866 -20.2861 -20.2859 -20.2848 -20.2845
   -20.2840 -20.2836 -20.2821 -20.2817 -20.2812 -20.2810 -20.2810 -20.2806
   -20.2803 -20.2795 -20.2771 -20.2762 -20.2757 -20.2755 -20.2751 -20.2748
   -20.2746 -20.2743 -20.2738 -20.2724 -20.2707 -20.2695 -20.2687 -20.2684
   -20.2684 -20.2678 -20.2663 -20.2657 -20.2646 -20.2635 -20.2615 -20.2602
   -10.0590  -9.9033  -9.6857  -9.6296  -9.4585  -9.3975  -9.2219  -9.2023
    -8.6371  -8.5797  -8.5777  -8.5752  -7.9880  -7.9519  -7.8732  -7.8612
    -7.7940  -7.7716  -7.7002  -7.6840  -7.6788  -7.6217  -7.6142  -7.5672
     0.8786   0.9151   0.9711   1.0641   1.1064   1.1977   1.3477   1.3933
     2.0902   2.1425   2.1601   2.1841   2.2109   2.2676   2.6595   2.7625
     2.8430   2.8484   3.9618   3.9902   4.0560   4.0975   4.3879   4.4147
     4.4894   4.5235   4.7062   5.1803   5.2086   5.2347   5.2675   5.3451
     5.3679   5.4582   5.4819   5.5043   5.5739   5.6118   5.6163   5.6194
     5.7722   5.8107   5.8612   5.9657   5.9808   6.0048   6.0504   6.0566
     6.0694   6.3105   6.4308   6.4868   6.6052   6.6820   6.8511   6.8585
     6.8645   6.8726   6.8885   6.9172   7.0912   7.1094   7.1379   7.1591
     7.1723   7.2313   7.8626   7.8832   8.0346   8.0384   8.1091   8.1327
     9.5455   9.5769  10.0457  10.0592  10.0969  10.1025  12.0727  12.1996
    12.2182  12.3533  12.5001  12.5108  12.6872  12.8315  12.8369  12.9865
    13.1746  13.2485  13.3163  13.5950  13.6596  13.8266  13.8585  14.0444
    14.4873  14.6832  14.7559  14.9973  15.4406  15.4853  15.6347  16.1431
    16.1497  16.7094  17.1853  17.2309  17.4180

          k = 0.0000 0.1575 0.1667 ( 62237 PWs)   bands (ev):

   -66.1590 -66.1582 -66.1579 -66.1571 -66.1554 -66.1545 -66.1544 -66.1536
   -30.6445 -30.6398 -30.6392 -30.6339 -30.5532 -30.5486 -30.5480 -30.5336
   -30.5310 -30.5258 -30.5199 -30.5142 -30.4476 -30.4417 -30.4252 -30.4244
   -30.4206 -30.4200 -30.4194 -30.4150 -30.3767 -30.3730 -30.3729 -30.3693
   -20.3128 -20.3126 -20.3125 -20.3123 -20.3085 -20.3082 -20.3080 -20.3078
   -20.2943 -20.2942 -20.2936 -20.2934 -20.2922 -20.2918 -20.2886 -20.2885
   -20.2869 -20.2868 -20.2867 -20.2865 -20.2861 -20.2859 -20.2850 -20.2847
   -20.2840 -20.2836 -20.2822 -20.2815 -20.2812 -20.2812 -20.2809 -20.2806
   -20.2801 -20.2792 -20.2766 -20.2765 -20.2757 -20.2754 -20.2753 -20.2747
   -20.2743 -20.2743 -20.2742 -20.2726 -20.2710 -20.2694 -20.2690 -20.2684
   -20.2683 -20.2678 -20.2667 -20.2660 -20.2645 -20.2635 -20.2614 -20.2603
   -10.0022  -9.8447  -9.6422  -9.5935  -9.4110  -9.3670  -9.1794  -9.1659
    -8.6513  -8.5856  -8.5753  -8.5684  -8.1101  -8.0141  -7.9616  -7.9258
    -7.8673  -7.8379  -7.7679  -7.6900  -7.6754  -7.6246  -7.6129  -7.5690
     0.9893   1.0560   1.0625   1.1998   1.2428   1.3800   1.4907   1.5519
     2.0990   2.1594   2.1786   2.2233   2.2774   2.3001   2.6968   2.8247
     2.8369   2.9362   3.9736   3.9898   4.0508   4.0831   4.1413   4.1725
     4.4621   4.5206   4.6507   4.8021   4.9359   5.1494   5.2105   5.2361
     5.3211   5.3453   5.4016   5.4715   5.4941   5.5398   5.6103   5.6420
     5.7540   5.7925   5.8118   5.8749   5.9716   6.0221   6.0580   6.0813
     6.2127   6.3031   6.5225   6.5995   6.7017   6.7130   6.7538   6.8006
     6.8242   6.8744   6.8889   6.9306   6.9635   6.9829   7.1251   7.1350
     7.1576   7.1819   7.8363   7.8513   8.0334   8.0423   8.0731   8.1103
     9.8339   9.8737  10.0610  10.1131  10.2892  10.3446  12.1406  12.1824
    12.2570  12.3809  12.4057  12.5679  12.6808  12.7196  12.8626  12.9181
    13.0360  13.1876  13.3344  13.5687  13.6622  13.7026  13.8791  13.9559
    14.5118  14.7343  14.7917  15.0944  15.5110  15.5708  15.6190  16.1187
    16.4649  16.8581  16.9600  17.3923  17.4964

          k = 0.0000 0.1575 0.3333 ( 62284 PWs)   bands (ev):

   -66.1588 -66.1583 -66.1577 -66.1573 -66.1552 -66.1547 -66.1543 -66.1537
   -30.6381 -30.6350 -30.6253 -30.6207 -30.5725 -30.5681 -30.5409 -30.5326
   -30.5247 -30.5214 -30.5154 -30.5025 -30.4658 -30.4589 -30.4241 -30.4235
   -30.4211 -30.4205 -30.4196 -30.4165 -30.3759 -30.3736 -30.3722 -30.3700
   -20.3127 -20.3126 -20.3126 -20.3124 -20.3084 -20.3082 -20.3081 -20.3079
   -20.2943 -20.2942 -20.2936 -20.2935 -20.2921 -20.2919 -20.2881 -20.2880
   -20.2871 -20.2869 -20.2866 -20.2862 -20.2860 -20.2860 -20.2854 -20.2851
   -20.2839 -20.2837 -20.2821 -20.2816 -20.2812 -20.2810 -20.2809 -20.2806
   -20.2794 -20.2785 -20.2773 -20.2761 -20.2758 -20.2753 -20.2751 -20.2748
   -20.2748 -20.2739 -20.2732 -20.2730 -20.2719 -20.2700 -20.2690 -20.2682
   -20.2680 -20.2679 -20.2674 -20.2667 -20.2643 -20.2637 -20.2611 -20.2605
    -9.8737  -9.6976  -9.6819  -9.4555  -9.3344  -9.1091  -9.0677  -9.0019
    -8.7220  -8.6268  -8.5597  -8.5423  -8.4212  -8.3546  -8.2538  -8.1878
    -7.9291  -7.8845  -7.7522  -7.7066  -7.6654  -7.6352  -7.6046  -7.5780
     1.0432   1.0583   1.1933   1.2053   1.9248   1.9752   2.0687   2.1165
     2.1623   2.2115   2.2526   2.4242   2.4860   2.5555   2.7365   2.8146
     3.0632   3.1612   3.4855   3.5961   3.8648   3.9250   4.0777   4.1148
     4.2385   4.3381   4.3936   4.4956   4.6106   4.6722   4.7316   4.7904
     5.0343   5.0702   5.2311   5.2571   5.3267   5.3714   5.4871   5.7399
     5.7868   5.8202   5.8685   5.8819   5.9556   6.0022   6.0824   6.0845
     6.2456   6.3747   6.4145   6.5270   6.5669   6.6903   6.7732   6.8109
     6.8273   6.8937   6.9890   7.0158   7.0391   7.0676   7.1257   7.1817
     7.2948   7.3651   7.7149   7.7200   7.9403   7.9680   8.0576   8.0736
    10.0528  10.0637  10.5248  10.6259  10.8841  10.9630  11.9762  12.0771
    12.2152  12.2975  12.3535  12.4411  12.5386  12.5886  12.7443  12.7827
    12.9725  13.2495  13.2649  13.3031  13.4079  13.6771  13.7109  13.8376
    14.6103  14.7244  15.0488  15.3229  15.5134  15.7705  16.0177  16.0881
    16.4322  17.3181  17.3264  17.6021  17.7538

          k = 0.0000 0.1575-0.5000 ( 62234 PWs)   bands (ev):

   -66.1586 -66.1586 -66.1575 -66.1575 -66.1550 -66.1550 -66.1540 -66.1540
   -30.6365 -30.6365 -30.5990 -30.5990 -30.5945 -30.5945 -30.5357 -30.5357
   -30.5231 -30.5231 -30.4907 -30.4906 -30.4819 -30.4818 -30.4229 -30.4229
   -30.4218 -30.4218 -30.4181 -30.4181 -30.3747 -30.3747 -30.3711 -30.3710
   -20.3127 -20.3126 -20.3125 -20.3125 -20.3083 -20.3082 -20.3080 -20.3080
   -20.2943 -20.2942 -20.2936 -20.2935 -20.2920 -20.2920 -20.2875 -20.2875
   -20.2874 -20.2874 -20.2862 -20.2862 -20.2859 -20.2859 -20.2857 -20.2857
   -20.2838 -20.2838 -20.2819 -20.2819 -20.2811 -20.2811 -20.2808 -20.2808
   -20.2784 -20.2784 -20.2773 -20.2773 -20.2755 -20.2755 -20.2749 -20.2749
   -20.2736 -20.2736 -20.2733 -20.2733 -20.2715 -20.2715 -20.2683 -20.2683
   -20.2681 -20.2681 -20.2674 -20.2674 -20.2640 -20.2640 -20.2608 -20.2608
    -9.7565  -9.7565  -9.5469  -9.5469  -8.9775  -8.9774  -8.8372  -8.8372
    -8.7376  -8.7376  -8.7149  -8.7149  -8.5087  -8.5087  -8.4611  -8.4611
    -7.9078  -7.9078  -7.7295  -7.7295  -7.6504  -7.6504  -7.5914  -7.5914
     1.0550   1.0550   1.2094   1.2094   2.0833   2.0833   2.1530   2.1530
     2.7453   2.7453   2.8145   2.8145   2.9224   2.9224   3.0263   3.0263
     3.1029   3.1029   3.1988   3.1988   3.4072   3.4072   3.7417   3.7417
     3.8613   3.8613   4.1865   4.1865   4.5215   4.5215   4.7482   4.7483
     4.9916   4.9916   5.1312   5.1312   5.3127   5.3127   5.5818   5.5818
     5.8489   5.8489   5.8938   5.8938   5.9638   5.9638   6.0730   6.0730
     6.2531   6.2531   6.4144   6.4144   6.5403   6.5403   6.8199   6.8199
     6.9218   6.9219   6.9630   6.9630   7.1147   7.1147   7.4300   7.4300
     7.4516   7.4516   7.6874   7.6875   7.7372   7.7372   8.0656   8.0656
    10.0633  10.0633  11.2976  11.2976  11.4298  11.4298  11.6120  11.6120
    11.7383  11.7384  12.3476  12.3476  12.6439  12.6439  12.8573  12.8573
    13.0355  13.0355  13.1371  13.1371  13.4320  13.4320  13.7241  13.7241
    14.6877  14.6877  15.3100  15.3100  15.7386  15.7386  16.0295  16.0295
    16.9037  16.9037  17.7521  17.7521  18.1177

          k = 0.0000 0.3150 0.0000 ( 62175 PWs)   bands (ev):

   -66.1590 -66.1581 -66.1580 -66.1570 -66.1555 -66.1545 -66.1545 -66.1535
   -30.6515 -30.6467 -30.6397 -30.6335 -30.5515 -30.5463 -30.5413 -30.5403
   -30.5305 -30.5263 -30.5192 -30.5174 -30.4405 -30.4347 -30.4248 -30.4198
   -30.4153 -30.4111 -30.4096 -30.4053 -30.3872 -30.3834 -30.3826 -30.3789
   -20.3128 -20.3126 -20.3125 -20.3123 -20.3085 -20.3083 -20.3080 -20.3078
   -20.2943 -20.2941 -20.2936 -20.2934 -20.2922 -20.2917 -20.2889 -20.2887
   -20.2870 -20.2867 -20.2866 -20.2865 -20.2861 -20.2859 -20.2848 -20.2846
   -20.2840 -20.2836 -20.2821 -20.2811 -20.2810 -20.2807 -20.2805 -20.2804
   -20.2799 -20.2795 -20.2770 -20.2764 -20.2762 -20.2758 -20.2755 -20.2754
   -20.2748 -20.2743 -20.2738 -20.2724 -20.2707 -20.2695 -20.2687 -20.2684
   -20.2684 -20.2678 -20.2663 -20.2657 -20.2646 -20.2635 -20.2614 -20.2602
   -10.0188  -9.9290  -9.6702  -9.6107  -9.4586  -9.3986  -9.2202  -9.2033
    -8.4533  -8.4141  -8.4116  -8.4080  -8.0103  -7.9537  -7.9022  -7.8985
    -7.8806  -7.8269  -7.8183  -7.8177  -7.7941  -7.7707  -7.7002  -7.6809
     0.8783   0.9142   0.9707   1.0644   1.1061   1.1983   1.3588   1.3994
     2.1474   2.1931   2.6020   2.7014   2.7508   2.8271   2.8672   3.0619
     3.0668   3.1026   3.6012   3.6432   3.7014   3.7427   4.2200   4.3830
     4.4082   4.4706   4.5026   4.6572   4.6964   4.9452   5.3039   5.3114
     5.3248   5.3754   5.4259   5.4368   5.5047   5.6111   5.6697   5.6874
     5.7055   5.8005   5.8235   5.9912   6.0097   6.0230   6.0475   6.0513
     6.1395   6.2050   6.3540   6.4810   6.5466   6.5828   6.7136   6.7628
     6.7983   6.8706   6.8964   6.9162   7.1438   7.1889   7.2250   7.2285
     7.2564   7.2778   7.8255   7.8757   7.9052   7.9197   7.9233   7.9463
     9.5630   9.5802  10.5087  10.5685  10.5749  10.6390  11.7025  11.8025
    11.8176  11.9257  12.5166  12.5249  12.7772  12.8425  12.8460  13.0109
    13.2288  13.2900  13.3120  13.5627  13.5673  13.6926  13.8510  13.9380
    15.0756  15.2226  15.2554  15.3079  15.4327  15.5231  16.0258  16.0493
    16.2132  16.5838  16.9860  17.5274  17.5863

          k = 0.0000 0.3150 0.1667 ( 62260 PWs)   bands (ev):

   -66.1590 -66.1581 -66.1579 -66.1571 -66.1554 -66.1545 -66.1545 -66.1536
   -30.6445 -30.6398 -30.6392 -30.6339 -30.5532 -30.5485 -30.5480 -30.5336
   -30.5310 -30.5259 -30.5199 -30.5141 -30.4472 -30.4411 -30.4244 -30.4202
   -30.4149 -30.4107 -30.4100 -30.4057 -30.3869 -30.3831 -30.3829 -30.3791
   -20.3128 -20.3126 -20.3125 -20.3123 -20.3085 -20.3082 -20.3080 -20.3078
   -20.2943 -20.2942 -20.2936 -20.2934 -20.2922 -20.2918 -20.2886 -20.2885
   -20.2869 -20.2868 -20.2866 -20.2865 -20.2861 -20.2860 -20.2850 -20.2847
   -20.2840 -20.2836 -20.2821 -20.2811 -20.2810 -20.2806 -20.2805 -20.2803
   -20.2799 -20.2793 -20.2766 -20.2766 -20.2761 -20.2759 -20.2757 -20.2753
   -20.2744 -20.2743 -20.2742 -20.2726 -20.2710 -20.2694 -20.2690 -20.2684
   -20.2683 -20.2678 -20.2667 -20.2660 -20.2645 -20.2635 -20.2614 -20.2603
    -9.9608  -9.8708  -9.6226  -9.5764  -9.4126  -9.3666  -9.1771  -9.1675
    -8.4654  -8.4246  -8.4129  -8.4033  -8.1148  -8.0239  -7.9752  -7.9416
    -7.8950  -7.8816  -7.8564  -7.8445  -7.8206  -7.7937  -7.7651  -7.6870
     0.9892   1.0551   1.0631   1.2005   1.2436   1.3810   1.5105   1.5587
     2.2367   2.2827   2.6097   2.6910   2.7441   2.8372   2.8972   3.0473
     3.1206   3.1886   3.6432   3.6848   3.7233   3.7331   4.1133   4.1210
     4.2223   4.4511   4.4900   4.6149   4.6979   4.9353   4.9386   5.0580
     5.1403   5.3230   5.3382   5.3838   5.4074   5.4414   5.6119   5.6315
     5.6887   5.7522   5.7811   5.8266   5.8824   5.9819   6.0114   6.0831
     6.2150   6.3335   6.4349   6.5527   6.6009   6.7005   6.7247   6.7663
     6.7980   6.9065   6.9110   6.9602   6.9865   7.0499   7.2295   7.2436
     7.2673   7.2806   7.8081   7.8476   7.8979   7.9046   7.9138   7.9266
     9.8607   9.8921  10.5780  10.6086  10.6876  10.7685  11.7862  11.8148
    11.8503  11.9652  12.4137  12.5779  12.6917  12.8081  12.8753  12.9963
    13.1017  13.2378  13.2496  13.4622  13.5335  13.5658  13.8458  13.9051
    15.1279  15.2257  15.3534  15.4274  15.5474  15.6338  16.0058  16.3439
    16.3778  16.5578  17.0549  17.2657  17.6585

          k = 0.0000 0.3150 0.3333 ( 62269 PWs)   bands (ev):

   -66.1588 -66.1583 -66.1577 -66.1573 -66.1552 -66.1547 -66.1543 -66.1537
   -30.6381 -30.6350 -30.6253 -30.6207 -30.5725 -30.5681 -30.5409 -30.5326
   -30.5247 -30.5214 -30.5154 -30.5024 -30.4656 -30.4587 -30.4235 -30.4211
   -30.4139 -30.4111 -30.4097 -30.4069 -30.3860 -30.3836 -30.3822 -30.3799
   -20.3127 -20.3126 -20.3125 -20.3124 -20.3084 -20.3082 -20.3081 -20.3079
   -20.2943 -20.2942 -20.2936 -20.2935 -20.2921 -20.2919 -20.2880 -20.2880
   -20.2870 -20.2869 -20.2865 -20.2862 -20.2861 -20.2860 -20.2854 -20.2851
   -20.2839 -20.2837 -20.2820 -20.2814 -20.2808 -20.2805 -20.2805 -20.2802
   -20.2794 -20.2785 -20.2773 -20.2764 -20.2762 -20.2756 -20.2754 -20.2752
   -20.2750 -20.2740 -20.2732 -20.2730 -20.2719 -20.2700 -20.2690 -20.2683
   -20.2680 -20.2680 -20.2674 -20.2667 -20.2643 -20.2637 -20.2611 -20.2605
    -9.8364  -9.7175  -9.6597  -9.4590  -9.3104  -9.1058  -9.0673  -9.0000
    -8.5706  -8.5098  -8.4079  -8.3926  -8.3869  -8.3457  -8.2408  -8.1747
    -7.9484  -7.9138  -7.8712  -7.8427  -7.8330  -7.8150  -7.7492  -7.7037
     1.0436   1.0587   1.1942   1.2063   1.9756   2.1048   2.1245   2.2265
     2.4913   2.5374   2.6345   2.6747   2.7570   2.8345   2.9533   3.0293
     3.3084   3.3692   3.4846   3.5805   3.6913   3.7137   3.7694   3.8317
     4.1216   4.2709   4.3268   4.4063   4.4999   4.5404   4.6019   4.6358
     4.7971   4.8631   4.9827   5.0698   5.2380   5.2551   5.3559   5.3998
     5.4754   5.5158   5.7548   5.8154   5.9758   6.0031   6.0500   6.1100
     6.2986   6.4019   6.4960   6.5132   6.5851   6.6398   6.6907   6.7468
     6.8852   6.9516   7.0678   7.0868   7.1660   7.1964   7.2295   7.2854
     7.3657   7.4106   7.6989   7.7247   7.8294   7.8420   7.8963   7.9102
    10.4814  10.5572  10.6006  10.7066  11.1578  11.2393  11.7955  11.8790
    12.0125  12.0591  12.1835  12.2095  12.5552  12.5862  12.7367  12.8706
    12.9750  13.0418  13.1651  13.2711  13.2860  13.5785  13.6962  13.7816
    15.1717  15.2156  15.5486  15.7649  15.8781  15.9665  16.1957  16.4653
    16.6933  16.8628  17.1524  17.3498  17.7203

          k = 0.0000 0.3150-0.5000 ( 62306 PWs)   bands (ev):

   -66.1586 -66.1586 -66.1575 -66.1575 -66.1550 -66.1550 -66.1540 -66.1540
   -30.6365 -30.6365 -30.5990 -30.5990 -30.5945 -30.5945 -30.5357 -30.5357
   -30.5231 -30.5231 -30.4906 -30.4906 -30.4817 -30.4817 -30.4223 -30.4223
   -30.4125 -30.4125 -30.4083 -30.4083 -30.3848 -30.3848 -30.3810 -30.3810
   -20.3127 -20.3126 -20.3125 -20.3125 -20.3083 -20.3083 -20.3080 -20.3080
   -20.2943 -20.2942 -20.2936 -20.2935 -20.2920 -20.2920 -20.2875 -20.2874
   -20.2874 -20.2874 -20.2861 -20.2861 -20.2859 -20.2859 -20.2857 -20.2857
   -20.2838 -20.2838 -20.2818 -20.2817 -20.2806 -20.2806 -20.2803 -20.2803
   -20.2784 -20.2784 -20.2774 -20.2774 -20.2759 -20.2759 -20.2754 -20.2754
   -20.2736 -20.2736 -20.2734 -20.2733 -20.2716 -20.2715 -20.2683 -20.2683
   -20.2681 -20.2681 -20.2674 -20.2674 -20.2640 -20.2640 -20.2608 -20.2608
    -9.7285  -9.7284  -9.5558  -9.5558  -8.9266  -8.9266  -8.8244  -8.8244
    -8.7257  -8.7256  -8.6995  -8.6995  -8.3821  -8.3821  -8.3441  -8.3441
    -7.9324  -7.9324  -7.8539  -7.8539  -7.8281  -7.8281  -7.7265  -7.7265
     1.0555   1.0555   1.2107   1.2107   2.5791   2.5791   2.6988   2.6988
     2.8345   2.8345   2.8758   2.8758   2.9677   2.9677   3.0608   3.0608
     3.1238   3.1239   3.2522   3.2522   3.4319   3.4319   3.6915   3.6916
     3.9802   3.9802   4.0288   4.0288   4.1890   4.1890   4.3696   4.3696
     4.9198   4.9198   5.0182   5.0182   5.0895   5.0895   5.2096   5.2096
     5.4487   5.4487   5.8314   5.8314   6.0171   6.0171   6.0696   6.0696
     6.2992   6.2992   6.4714   6.4714   6.5595   6.5595   6.6727   6.6728
     7.1332   7.1332   7.1572   7.1572   7.1912   7.1912   7.4242   7.4242
     7.4757   7.4757   7.6513   7.6513   7.6761   7.6761   7.9022   7.9022
    10.5853  10.5853  11.3079  11.3079  11.4462  11.4462  11.7291  11.7291
    11.8962  11.8962  12.0062  12.0062  12.5045  12.5045  12.5969  12.5969
    12.9384  12.9384  13.1259  13.1259  13.4417  13.4417  13.6349  13.6349
    15.1971  15.1971  15.7752  15.7752  16.1632  16.1632  16.2788  16.2788
    17.0418  17.0418  17.3503  17.3503  17.9331

          k = 0.0000-0.4725 0.0000 ( 62212 PWs)   bands (ev):

   -66.1590 -66.1581 -66.1580 -66.1570 -66.1555 -66.1545 -66.1545 -66.1535
   -30.6515 -30.6467 -30.6397 -30.6335 -30.5515 -30.5463 -30.5413 -30.5403
   -30.5305 -30.5263 -30.5192 -30.5174 -30.4403 -30.4344 -30.4248 -30.4198
   -30.4033 -30.3994 -30.3990 -30.3979 -30.3956 -30.3946 -30.3935 -30.3910
   -20.3128 -20.3126 -20.3125 -20.3123 -20.3085 -20.3083 -20.3080 -20.3078
   -20.2943 -20.2941 -20.2936 -20.2934 -20.2922 -20.2917 -20.2889 -20.2887
   -20.2870 -20.2867 -20.2866 -20.2865 -20.2861 -20.2860 -20.2848 -20.2846
   -20.2840 -20.2836 -20.2821 -20.2810 -20.2807 -20.2805 -20.2803 -20.2802
   -20.2796 -20.2795 -20.2769 -20.2766 -20.2765 -20.2761 -20.2758 -20.2757
   -20.2749 -20.2744 -20.2739 -20.2724 -20.2707 -20.2695 -20.2687 -20.2684
   -20.2684 -20.2678 -20.2663 -20.2657 -20.2646 -20.2635 -20.2614 -20.2602
    -9.9784  -9.9622  -9.6627  -9.6016  -9.4586  -9.3993  -9.2192  -9.2039
    -8.2103  -8.2060  -8.1647  -8.1613  -8.1529  -8.1526  -8.1374  -8.1346
    -7.9585  -7.9388  -7.8602  -7.8438  -7.7943  -7.7723  -7.7007  -7.6820
     0.8782   0.9138   0.9705   1.0645   1.1060   1.1985   1.3615   1.4017
     2.1685   2.1723   3.0142   3.0516   3.0807   3.1229   3.2847   3.3308
     3.3725   3.4289   3.4978   3.5032   3.6786   3.6929   3.8433   3.8610
     3.9504   3.9561   4.3994   4.4204   4.4852   4.5139   5.3401   5.3757
     5.3952   5.4213   5.4221   5.4623   5.5303   5.5470   5.7217   5.7420
     5.7434   5.7660   5.9284   5.9286   5.9453   5.9778   6.0649   6.0696
     6.1340   6.2427   6.2819   6.3351   6.5020   6.5282   6.6074   6.6434
     6.8315   6.8397   6.8737   6.9184   7.1508   7.2100   7.4879   7.5027
     7.5546   7.5742   7.6323   7.6465   7.6680   7.6944   7.8810   7.8914
     9.5689   9.5805  11.0139  11.0783  11.1228  11.1671  11.2361  11.3269
    11.3466  11.4231  12.5226  12.5328  12.8498  12.8506  12.8995  12.9298
    13.3636  13.3690  13.3773  13.4291  13.4734  13.4735  13.8504  13.8778
    15.3302  15.4231  15.6039  15.6437  15.6803  15.7725  15.8536  15.8947
    16.1864  16.1883  17.7109  17.7129  18.1228

          k = 0.0000-0.4725 0.1667 ( 62246 PWs)   bands (ev):

   -66.1590 -66.1581 -66.1579 -66.1571 -66.1554 -66.1545 -66.1545 -66.1536
   -30.6445 -30.6397 -30.6392 -30.6339 -30.5532 -30.5485 -30.5480 -30.5336
   -30.5310 -30.5259 -30.5199 -30.5141 -30.4471 -30.4409 -30.4245 -30.4201
   -30.4029 -30.3990 -30.3986 -30.3983 -30.3953 -30.3948 -30.3939 -30.3913
   -20.3128 -20.3126 -20.3125 -20.3123 -20.3085 -20.3082 -20.3080 -20.3078
   -20.2943 -20.2942 -20.2936 -20.2934 -20.2922 -20.2918 -20.2886 -20.2885
   -20.2869 -20.2868 -20.2866 -20.2865 -20.2861 -20.2860 -20.2850 -20.2848
   -20.2840 -20.2836 -20.2821 -20.2811 -20.2806 -20.2803 -20.2803 -20.2801
   -20.2796 -20.2793 -20.2767 -20.2766 -20.2764 -20.2762 -20.2761 -20.2756
   -20.2744 -20.2743 -20.2743 -20.2726 -20.2710 -20.2694 -20.2690 -20.2684
   -20.2683 -20.2678 -20.2667 -20.2660 -20.2645 -20.2635 -20.2614 -20.2603
    -9.9161  -9.9078  -9.6130  -9.5682  -9.4135  -9.3664  -9.1754  -9.1689
    -8.2322  -8.2112  -8.1869  -8.1768  -8.1593  -8.1563  -8.1471  -8.1429
    -8.0601  -7.9770  -7.9376  -7.9148  -7.8499  -7.8292  -7.7672  -7.6881
     0.9891   1.0548   1.0633   1.2007   1.2438   1.3813   1.5150   1.5614
     2.2573   2.2628   3.0412   3.0471   3.1355   3.1363   3.3126   3.3406
     3.4194   3.4375   3.4890   3.4926   3.6714   3.7373   3.8450   3.8702
     3.9697   3.9716   4.1327   4.1385   4.4672   4.5100   5.0268   5.1024
     5.2271   5.2666   5.3310   5.3579   5.4839   5.4922   5.5655   5.5921
     5.6981   5.7132   5.7271   5.7438   5.8756   5.9709   5.9874   6.1133
     6.2648   6.3582   6.3605   6.4545   6.5055   6.6132   6.7257   6.7650
     6.8065   6.9199   6.9334   6.9373   6.9892   7.0701   7.4935   7.4996
     7.5530   7.5705   7.6415   7.6462   7.6591   7.6883   7.8577   7.8615
     9.8652   9.8973  11.1113  11.1459  11.1684  11.2002  11.3182  11.3569
    11.4302  11.4609  12.4174  12.5859  12.6978  12.8768  12.9450  12.9662
    13.2600  13.2762  13.2861  13.3149  13.3688  13.3821  13.8440  13.8603
    15.3262  15.4986  15.5976  15.8055  15.8380  15.9408  15.9796  16.1385
    16.2487  16.2680  17.6095  17.6848  17.8277

          k = 0.0000-0.4725 0.3333 ( 62268 PWs)   bands (ev):

   -66.1588 -66.1583 -66.1577 -66.1573 -66.1552 -66.1547 -66.1543 -66.1538
   -30.6381 -30.6350 -30.6253 -30.6207 -30.5725 -30.5681 -30.5409 -30.5326
   -30.5247 -30.5214 -30.5154 -30.5024 -30.4655 -30.4585 -30.4235 -30.4210
   -30.4019 -30.3992 -30.3981 -30.3976 -30.3957 -30.3949 -30.3944 -30.3920
   -20.3127 -20.3126 -20.3125 -20.3124 -20.3084 -20.3082 -20.3081 -20.3079
   -20.2943 -20.2942 -20.2936 -20.2935 -20.2921 -20.2919 -20.2880 -20.2880
   -20.2870 -20.2869 -20.2865 -20.2862 -20.2861 -20.2860 -20.2854 -20.2852
   -20.2839 -20.2837 -20.2820 -20.2814 -20.2804 -20.2802 -20.2801 -20.2799
   -20.2794 -20.2786 -20.2774 -20.2767 -20.2764 -20.2759 -20.2756 -20.2754
   -20.2751 -20.2740 -20.2732 -20.2730 -20.2719 -20.2700 -20.2690 -20.2683
   -20.2680 -20.2680 -20.2674 -20.2667 -20.2643 -20.2637 -20.2611 -20.2605
    -9.8117  -9.7335  -9.6486  -9.4610  -9.2994  -9.1041  -9.0672  -8.9993
    -8.4924  -8.4374  -8.3346  -8.3283  -8.1805  -8.1726  -8.1457  -8.1419
    -8.1313  -8.1069  -8.0851  -8.0512  -7.9127  -7.8668  -7.7508  -7.7048
     1.0436   1.0588   1.1945   1.2066   1.9813   2.1096   2.1451   2.2341
     2.5161   2.5179   3.0405   3.0660   3.2042   3.2457   3.3439   3.3711
     3.3750   3.4454   3.4556   3.5370   3.6033   3.6268   3.6449   3.7976
     3.8543   3.9139   3.9784   4.0074   4.3811   4.3932   4.5058   4.6302
     4.7120   4.7155   4.8881   4.9137   5.0668   5.1036   5.2602   5.2628
     5.5386   5.6273   5.6863   5.7521   5.9772   6.0072   6.0564   6.1472
     6.3259   6.4090   6.4816   6.4889   6.5414   6.5506   6.5923   6.7630
     6.9224   6.9572   7.1090   7.1625   7.2693   7.2809   7.4570   7.5181
     7.5351   7.5799   7.6086   7.6464   7.6583   7.6638   7.7424   7.7764
    10.5264  10.6174  11.1323  11.1675  11.3321  11.3497  11.5344  11.6128
    11.6877  11.7927  12.0128  12.2101  12.7296  12.7400  12.7464  12.7608
    12.8744  12.9853  13.0876  13.1545  13.3882  13.4122  13.7071  13.7247
    15.3830  15.5560  15.6378  15.8049  16.2993  16.4013  16.5883  16.6219
    16.6643  16.7533  17.1839  17.2901  17.5842

          k = 0.0000-0.4725-0.5000 ( 62284 PWs)   bands (ev):

   -66.1586 -66.1586 -66.1575 -66.1575 -66.1550 -66.1550 -66.1540 -66.1540
   -30.6365 -30.6365 -30.5990 -30.5990 -30.5945 -30.5945 -30.5357 -30.5357
   -30.5231 -30.5231 -30.4906 -30.4905 -30.4817 -30.4817 -30.4223 -30.4223
   -30.4006 -30.4005 -30.3969 -30.3969 -30.3962 -30.3962 -30.3932 -30.3932
   -20.3127 -20.3126 -20.3125 -20.3125 -20.3083 -20.3083 -20.3080 -20.3080
   -20.2943 -20.2942 -20.2936 -20.2935 -20.2920 -20.2920 -20.2874 -20.2874
   -20.2874 -20.2874 -20.2861 -20.2861 -20.2860 -20.2860 -20.2857 -20.2857
   -20.2838 -20.2838 -20.2817 -20.2817 -20.2803 -20.2803 -20.2800 -20.2800
   -20.2785 -20.2785 -20.2775 -20.2775 -20.2762 -20.2762 -20.2757 -20.2757
   -20.2736 -20.2736 -20.2734 -20.2734 -20.2716 -20.2716 -20.2683 -20.2683
   -20.2681 -20.2681 -20.2674 -20.2674 -20.2640 -20.2640 -20.2608 -20.2608
    -9.7136  -9.7136  -9.5613  -9.5613  -8.9060  -8.9060  -8.8188  -8.8188
    -8.7189  -8.7189  -8.6938  -8.6938  -8.1766  -8.1766  -8.1457  -8.1457
    -8.1297  -8.1297  -8.0982  -8.0981  -7.8901  -7.8901  -7.7278  -7.7278
     1.0556   1.0556   1.2111   1.2111   2.8048   2.8048   2.8711   2.8712
     2.9155   2.9155   3.0113   3.0113   3.1207   3.1207   3.2007   3.2007
     3.3334   3.3334   3.3921   3.3921   3.4024   3.4024   3.5576   3.5576
     3.6826   3.6826   3.8612   3.8612   4.3261   4.3261   4.4108   4.4108
     4.4358   4.4358   4.5261   4.5262   4.9981   4.9981   5.1222   5.1222
     5.5742   5.5742   5.7384   5.7384   6.0394   6.0394   6.0834   6.0834
     6.3192   6.3192   6.4953   6.4953   6.5228   6.5228   6.5615   6.5615
     7.2805   7.2805   7.3179   7.3179   7.3328   7.3328   7.4099   7.4099
     7.5599   7.5599   7.5911   7.5911   7.6192   7.6192   7.7052   7.7052
    11.0982  11.0982  11.2828  11.2828  11.3775  11.3775  11.5137  11.5137
    12.0869  12.0869  12.1138  12.1138  12.2621  12.2621  12.3188  12.3188
    12.9656  12.9656  13.0979  13.0979  13.4807  13.4807  13.5252  13.5252
    15.4836  15.4836  15.7403  15.7404  16.7273  16.7273  16.7527  16.7527
    17.2434  17.2434  17.3537  17.3537  17.4141

          k = 0.1667 0.0000 0.1667 ( 62234 PWs)   bands (ev):

   -66.1589 -66.1581 -66.1580 -66.1572 -66.1554 -66.1545 -66.1545 -66.1536
   -30.6442 -30.6401 -30.6325 -30.6271 -30.5529 -30.5521 -30.5489 -30.5379
   -30.5331 -30.5191 -30.5176 -30.5134 -30.4475 -30.4425 -30.4317 -30.4284
   -30.4282 -30.4232 -30.4224 -30.4181 -30.3727 -30.3695 -30.3689 -30.3658
   -20.3128 -20.3126 -20.3125 -20.3123 -20.3085 -20.3083 -20.3080 -20.3078
   -20.2943 -20.2941 -20.2937 -20.2934 -20.2918 -20.2914 -20.2886 -20.2886
   -20.2869 -20.2868 -20.2868 -20.2866 -20.2864 -20.2862 -20.2850 -20.2847
   -20.2839 -20.2835 -20.2823 -20.2817 -20.2815 -20.2814 -20.2811 -20.2809
   -20.2800 -20.2793 -20.2765 -20.2763 -20.2754 -20.2752 -20.2751 -20.2745
   -20.2743 -20.2742 -20.2737 -20.2723 -20.2709 -20.2693 -20.2692 -20.2687
   -20.2684 -20.2681 -20.2666 -20.2660 -20.2643 -20.2634 -20.2617 -20.2606
    -9.9652  -9.7805  -9.6152  -9.5642  -9.3804  -9.3215  -9.1427  -9.1224
    -8.7343  -8.6326  -8.6299  -8.6230  -8.1122  -8.0768  -8.0214  -8.0024
    -7.9221  -7.8954  -7.8446  -7.8176  -7.5870  -7.5348  -7.5258  -7.4780
     1.1567   1.1902   1.2414   1.3209   1.3820   1.4598   1.5632   1.6651
     1.9175   1.9482   1.9694   2.0850   2.3080   2.3971   2.6891   2.7815
     2.8466   2.8666   4.0134   4.0491   4.1375   4.2063   4.2157   4.2632
     4.2758   4.3691   4.6257   4.7331   4.8319   4.9154   5.1241   5.1268
     5.1669   5.2959   5.3062   5.4872   5.5200   5.5301   5.6104   5.6300
     5.6736   5.7651   5.7986   5.9543   5.9877   6.0564   6.1249   6.2042
     6.2435   6.4872   6.5398   6.5670   6.6281   6.6997   6.7153   6.8205
     6.8299   6.8983   6.9176   6.9514   6.9646   7.0463   7.0722   7.1063
     7.1181   7.1651   7.8148   7.8253   8.0486   8.0519   8.1256   8.1731
    10.0012  10.0186  10.1127  10.1431  10.2348  10.3068  12.2140  12.3498
    12.4125  12.4403  12.4745  12.5841  12.6183  12.7287  12.7846  12.8862
    12.9852  13.0523  13.4393  13.5145  13.5815  13.6832  13.8588  13.9305
    14.3254  14.5041  14.5811  15.1719  15.1762  15.6021  15.6705  16.4454
    16.4706  17.0359  17.0544  17.2639  17.5424

          k = 0.1667 0.0000 0.3333 ( 62265 PWs)   bands (ev):

   -66.1587 -66.1583 -66.1578 -66.1573 -66.1552 -66.1547 -66.1543 -66.1538
   -30.6313 -30.6282 -30.6251 -30.6211 -30.5723 -30.5684 -30.5465 -30.5395
   -30.5181 -30.5150 -30.5148 -30.5044 -30.4655 -30.4597 -30.4309 -30.4288
   -30.4273 -30.4240 -30.4225 -30.4197 -30.3719 -30.3696 -30.3686 -30.3665
   -20.3127 -20.3126 -20.3125 -20.3124 -20.3084 -20.3082 -20.3081 -20.3079
   -20.2943 -20.2942 -20.2937 -20.2935 -20.2917 -20.2915 -20.2881 -20.2880
   -20.2871 -20.2870 -20.2866 -20.2863 -20.2863 -20.2862 -20.2854 -20.2851
   -20.2838 -20.2836 -20.2823 -20.2818 -20.2815 -20.2813 -20.2811 -20.2809
   -20.2793 -20.2785 -20.2771 -20.2760 -20.2756 -20.2751 -20.2749 -20.2746
   -20.2745 -20.2734 -20.2733 -20.2726 -20.2718 -20.2702 -20.2689 -20.2685
   -20.2682 -20.2680 -20.2674 -20.2668 -20.2641 -20.2636 -20.2614 -20.2608
    -9.8219  -9.6240  -9.6068  -9.3675  -9.3604  -9.1238  -9.0319  -8.9842
    -8.8002  -8.6615  -8.6054  -8.5997  -8.4209  -8.3643  -8.2495  -8.2049
    -8.0521  -8.0078  -7.8811  -7.8361  -7.5768  -7.5463  -7.5166  -7.4886
     1.3028   1.3220   1.4360   1.4667   1.8287   1.8307   1.9073   1.9537
     2.0470   2.1740   2.2026   2.3564   2.5785   2.6620   2.7578   2.8319
     2.9973   3.0876   3.5361   3.6716   3.8786   3.9637   4.1595   4.1825
     4.2237   4.3208   4.4303   4.4734   4.5212   4.6522   4.6983   4.7287
     4.9131   4.9412   5.0222   5.0679   5.1182   5.3070   5.5233   5.6427
     5.6630   5.7328   5.8021   5.8421   6.0110   6.0819   6.1328   6.2198
     6.3499   6.4338   6.5503   6.6356   6.6581   6.6872   6.7821   6.8413
     6.8675   6.8935   6.9377   7.0125   7.0280   7.0775   7.1136   7.1507
     7.2882   7.3620   7.7036   7.7103   7.9726   7.9995   8.0792   8.1070
    10.1022  10.1070  10.6431  10.7459  10.8036  10.9351  12.0509  12.1331
    12.2499  12.3766  12.4328  12.5180  12.5777  12.6558  12.6852  12.7723
    12.9145  13.0457  13.3204  13.3736  13.4819  13.5324  13.7013  13.7113
    14.3938  14.5521  14.6971  15.0861  15.4697  15.9782  16.1227  16.3056
    16.5818  17.3076  17.5669  17.6271  17.6975

          k = 0.1667 0.0000-0.5000 ( 62322 PWs)   bands (ev):

   -66.1585 -66.1585 -66.1576 -66.1576 -66.1549 -66.1549 -66.1541 -66.1541
   -30.6297 -30.6297 -30.5987 -30.5987 -30.5949 -30.5948 -30.5422 -30.5422
   -30.5165 -30.5165 -30.4903 -30.4903 -30.4829 -30.4829 -30.4298 -30.4298
   -30.4257 -30.4257 -30.4213 -30.4213 -30.3707 -30.3707 -30.3675 -30.3675
   -20.3126 -20.3126 -20.3125 -20.3125 -20.3082 -20.3082 -20.3080 -20.3080
   -20.2942 -20.2942 -20.2936 -20.2936 -20.2916 -20.2916 -20.2875 -20.2875
   -20.2874 -20.2874 -20.2864 -20.2864 -20.2859 -20.2859 -20.2857 -20.2857
   -20.2837 -20.2837 -20.2821 -20.2821 -20.2813 -20.2813 -20.2810 -20.2810
   -20.2783 -20.2783 -20.2773 -20.2773 -20.2752 -20.2752 -20.2747 -20.2747
   -20.2733 -20.2733 -20.2730 -20.2730 -20.2717 -20.2717 -20.2684 -20.2684
   -20.2682 -20.2682 -20.2675 -20.2675 -20.2639 -20.2638 -20.2611 -20.2611
    -9.6890  -9.6890  -9.4625  -9.4625  -9.0234  -9.0234  -8.8266  -8.8265
    -8.7545  -8.7545  -8.7145  -8.7145  -8.5393  -8.5393  -8.4960  -8.4960
    -8.0338  -8.0337  -7.8587  -7.8587  -7.5618  -7.5618  -7.5028  -7.5028
     1.3193   1.3193   1.4677   1.4677   1.8958   1.8958   1.9319   1.9319
     2.7550   2.7550   2.8602   2.8602   2.9461   2.9461   3.0331   3.0331
     3.0992   3.0992   3.2304   3.2304   3.4341   3.4341   3.7286   3.7286
     3.7924   3.7924   4.3391   4.3391   4.5722   4.5722   4.7366   4.7366
     4.7756   4.7756   4.9302   4.9303   5.0877   5.0877   5.5831   5.5831
     5.7018   5.7018   5.7275   5.7275   6.0498   6.0498   6.2218   6.2218
     6.3779   6.3779   6.5518   6.5518   6.6933   6.6933   6.7583   6.7583
     6.8949   6.8949   6.9475   6.9475   7.0918   7.0918   7.4354   7.4354
     7.4639   7.4639   7.7015   7.7015   7.7540   7.7540   8.0886   8.0886
    10.1119  10.1119  11.3786  11.3786  11.4927  11.4927  11.5673  11.5673
    11.7291  11.7291  12.5286  12.5286  12.5741  12.5741  12.9276  12.9276
    13.0712  13.0712  13.1323  13.1323  13.3047  13.3047  13.6402  13.6402
    14.4927  14.4927  14.9276  14.9276  15.8781  15.8781  16.2814  16.2814
    16.9546  16.9546  17.8891  17.8891  18.0437

          k = 0.1667 0.1575 0.1667 ( 62255 PWs)   bands (ev):

   -66.1589 -66.1581 -66.1580 -66.1572 -66.1554 -66.1545 -66.1545 -66.1536
   -30.6442 -30.6401 -30.6325 -30.6271 -30.5529 -30.5521 -30.5489 -30.5379
   -30.5331 -30.5191 -30.5176 -30.5134 -30.4473 -30.4422 -30.4316 -30.4277
   -30.4247 -30.4202 -30.4191 -30.4150 -30.3764 -30.3732 -30.3726 -30.3694
   -20.3128 -20.3126 -20.3125 -20.3123 -20.3085 -20.3083 -20.3080 -20.3078
   -20.2943 -20.2941 -20.2937 -20.2934 -20.2918 -20.2914 -20.2886 -20.2886
   -20.2869 -20.2868 -20.2867 -20.2866 -20.2864 -20.2862 -20.2850 -20.2847
   -20.2839 -20.2835 -20.2823 -20.2815 -20.2814 -20.2812 -20.2809 -20.2807
   -20.2800 -20.2793 -20.2765 -20.2763 -20.2756 -20.2754 -20.2753 -20.2747
   -20.2744 -20.2743 -20.2737 -20.2723 -20.2709 -20.2693 -20.2692 -20.2687
   -20.2684 -20.2681 -20.2666 -20.2660 -20.2643 -20.2634 -20.2617 -20.2606
    -9.9483  -9.7892  -9.6059  -9.5530  -9.3804  -9.3220  -9.1420  -9.1226
    -8.6670  -8.5781  -8.5761  -8.5697  -8.1130  -8.0769  -8.0226  -8.0027
    -7.9228  -7.8969  -7.8461  -7.8189  -7.6734  -7.6248  -7.6164  -7.5718
     1.1572   1.1897   1.2425   1.3232   1.3834   1.4625   1.6016   1.6674
     2.1028   2.1554   2.1779   2.2749   2.3179   2.3940   2.7606   2.8617
     2.9225   2.9347   3.9337   3.9706   4.0576   4.1194   4.1814   4.1960
     4.2195   4.2490   4.5780   4.7467   4.8578   4.9317   5.0567   5.1047
     5.1397   5.2758   5.2972   5.3460   5.4211   5.4688   5.5038   5.5968
     5.6650   5.7976   5.8380   5.8809   5.9237   5.9863   6.0592   6.1348
     6.2867   6.4362   6.5154   6.5408   6.6327   6.7339   6.7501   6.7907
     6.8057   6.8846   6.9016   6.9472   6.9597   6.9981   7.1003   7.1291
     7.1559   7.1829   7.8134   7.8254   8.0164   8.0211   8.0809   8.1064
    10.0649  10.0807  10.2626  10.2729  10.3542  10.4264  12.1177  12.2436
    12.2860  12.3982  12.4574  12.4817  12.6374  12.7279  12.7916  12.9184
    12.9775  13.0456  13.4127  13.5114  13.6054  13.6789  13.8492  13.8823
    14.5211  14.7671  14.8034  15.2396  15.5556  15.6107  15.6837  16.4178
    16.4395  16.9603  17.1190  17.1386  17.5639

          k = 0.1667 0.1575 0.3333 ( 62260 PWs)   bands (ev):

   -66.1587 -66.1583 -66.1578 -66.1573 -66.1552 -66.1547 -66.1543 -66.1538
   -30.6313 -30.6282 -30.6251 -30.6211 -30.5723 -30.5684 -30.5465 -30.5395
   -30.5181 -30.5150 -30.5148 -30.5044 -30.4654 -30.4595 -30.4308 -30.4285
   -30.4236 -30.4205 -30.4193 -30.4164 -30.3756 -30.3733 -30.3723 -30.3701
   -20.3127 -20.3126 -20.3125 -20.3124 -20.3084 -20.3082 -20.3081 -20.3079
   -20.2943 -20.2942 -20.2937 -20.2935 -20.2917 -20.2915 -20.2881 -20.2880
   -20.2871 -20.2870 -20.2866 -20.2863 -20.2863 -20.2862 -20.2854 -20.2851
   -20.2838 -20.2836 -20.2822 -20.2817 -20.2813 -20.2811 -20.2809 -20.2807
   -20.2793 -20.2785 -20.2771 -20.2761 -20.2757 -20.2753 -20.2750 -20.2748
   -20.2747 -20.2735 -20.2733 -20.2727 -20.2718 -20.2702 -20.2689 -20.2685
   -20.2682 -20.2680 -20.2674 -20.2668 -20.2641 -20.2636 -20.2614 -20.2608
    -9.8044  -9.6321  -9.5942  -9.3685  -9.3474  -9.1227  -9.0316  -8.9833
    -8.7397  -8.6155  -8.5545  -8.5500  -8.4170  -8.3634  -8.2479  -8.2023
    -8.0522  -8.0079  -7.8826  -7.8378  -7.6639  -7.6349  -7.6079  -7.5810
     1.3054   1.3248   1.4376   1.4698   1.9246   1.9737   2.0707   2.1126
     2.1644   2.2066   2.2504   2.4187   2.5855   2.6627   2.8253   2.9041
     3.0743   3.1550   3.5371   3.6670   3.8396   3.9476   4.0783   4.1336
     4.2301   4.2788   4.3544   4.4011   4.4768   4.6084   4.6587   4.7239
     4.8586   4.8834   4.9719   5.0425   5.1060   5.1491   5.4373   5.5063
     5.6401   5.7236   5.7408   5.8004   5.8750   5.9820   6.0323   6.0826
     6.3206   6.4561   6.5902   6.6760   6.6963   6.7352   6.7876   6.8203
     6.8328   6.8876   7.0003   7.0337   7.0517   7.0756   7.1498   7.1849
     7.3007   7.3728   7.7033   7.7103   7.9429   7.9655   8.0398   8.0547
    10.2667  10.2818  10.6730  10.7626  10.8947  10.9969  12.0444  12.1246
    12.2460  12.3131  12.3768  12.4571  12.5380  12.5958  12.6324  12.7324
    12.9070  13.0308  13.2612  13.3496  13.4222  13.5042  13.7021  13.7094
    14.6306  14.7733  15.0371  15.4285  15.5715  15.9773  16.1403  16.3127
    16.6178  17.2779  17.3681  17.6167  17.6829

          k = 0.1667 0.1575-0.5000 ( 62292 PWs)   bands (ev):

   -66.1585 -66.1585 -66.1576 -66.1576 -66.1549 -66.1549 -66.1541 -66.1541
   -30.6297 -30.6297 -30.5987 -30.5987 -30.5948 -30.5948 -30.5422 -30.5422
   -30.5165 -30.5165 -30.4903 -30.4902 -30.4828 -30.4828 -30.4296 -30.4296
   -30.4221 -30.4221 -30.4179 -30.4179 -30.3744 -30.3744 -30.3712 -30.3712
   -20.3126 -20.3126 -20.3125 -20.3125 -20.3082 -20.3082 -20.3080 -20.3080
   -20.2942 -20.2942 -20.2936 -20.2936 -20.2916 -20.2916 -20.2875 -20.2875
   -20.2874 -20.2874 -20.2864 -20.2864 -20.2859 -20.2859 -20.2857 -20.2857
   -20.2837 -20.2837 -20.2820 -20.2820 -20.2811 -20.2811 -20.2808 -20.2808
   -20.2783 -20.2783 -20.2774 -20.2773 -20.2754 -20.2754 -20.2749 -20.2749
   -20.2733 -20.2733 -20.2730 -20.2730 -20.2717 -20.2717 -20.2684 -20.2684
   -20.2682 -20.2682 -20.2675 -20.2675 -20.2639 -20.2638 -20.2611 -20.2611
    -9.6739  -9.6739  -9.4667  -9.4667  -8.9941  -8.9941  -8.8198  -8.8198
    -8.7515  -8.7515  -8.7037  -8.7037  -8.5040  -8.5039  -8.4659  -8.4659
    -8.0339  -8.0339  -7.8604  -7.8604  -7.6496  -7.6495  -7.5946  -7.5946
     1.3226   1.3226   1.4711   1.4711   2.0847   2.0847   2.1484   2.1484
     2.8057   2.8057   2.8698   2.8698   2.9519   2.9519   3.0408   3.0408
     3.1060   3.1060   3.2484   3.2484   3.4449   3.4449   3.7574   3.7574
     3.8511   3.8511   4.2018   4.2018   4.4778   4.4778   4.6713   4.6713
     4.7416   4.7416   4.8676   4.8676   5.0128   5.0128   5.5262   5.5262
     5.5853   5.5853   5.6885   5.6885   5.9142   5.9142   6.0502   6.0502
     6.4455   6.4455   6.5879   6.5879   6.7305   6.7306   6.7890   6.7890
     6.9042   6.9042   6.9830   6.9830   7.1254   7.1254   7.4369   7.4369
     7.4657   7.4657   7.6921   7.6921   7.7377   7.7377   8.0447   8.0447
    10.2854  10.2854  11.3887  11.3887  11.5046  11.5046  11.6234  11.6234
    11.7656  11.7656  12.3986  12.3986  12.5686  12.5686  12.8502  12.8503
    13.0121  13.0121  13.0744  13.0744  13.2958  13.2958  13.6412  13.6412
    14.7248  14.7248  15.2933  15.2933  15.9403  15.9403  16.2712  16.2712
    16.9904  16.9904  17.7584  17.7584  17.9940

          k = 0.1667 0.3150 0.1667 ( 62249 PWs)   bands (ev):

   -66.1589 -66.1581 -66.1580 -66.1572 -66.1554 -66.1545 -66.1545 -66.1536
   -30.6442 -30.6401 -30.6325 -30.6271 -30.5529 -30.5521 -30.5488 -30.5380
   -30.5330 -30.5191 -30.5175 -30.5134 -30.4469 -30.4416 -30.4316 -30.4273
   -30.4146 -30.4107 -30.4097 -30.4058 -30.3866 -30.3832 -30.3826 -30.3793
   -20.3128 -20.3126 -20.3125 -20.3123 -20.3085 -20.3083 -20.3080 -20.3078
   -20.2943 -20.2941 -20.2937 -20.2934 -20.2917 -20.2914 -20.2886 -20.2885
   -20.2869 -20.2868 -20.2867 -20.2866 -20.2864 -20.2863 -20.2850 -20.2848
   -20.2839 -20.2835 -20.2823 -20.2813 -20.2810 -20.2807 -20.2804 -20.2802
   -20.2799 -20.2793 -20.2766 -20.2764 -20.2761 -20.2758 -20.2758 -20.2752
   -20.2746 -20.2744 -20.2738 -20.2723 -20.2709 -20.2693 -20.2692 -20.2687
   -20.2684 -20.2681 -20.2666 -20.2660 -20.2644 -20.2634 -20.2617 -20.2606
    -9.9064  -9.8149  -9.5880  -9.5313  -9.3803  -9.3232  -9.1403  -9.1234
    -8.4809  -8.4190  -8.4151  -8.4105  -8.1221  -8.0791  -8.0345  -8.0069
    -7.9315  -7.9153  -7.8902  -7.8679  -7.8421  -7.8361  -7.8180  -7.7801
     1.1576   1.1887   1.2436   1.3254   1.3846   1.4652   1.6345   1.6738
     2.3268   2.3712   2.6157   2.6870   2.7248   2.8172   2.9759   3.1309
     3.1483   3.1950   3.6341   3.6849   3.7490   3.8063   4.1227   4.1479
     4.1853   4.1998   4.2352   4.6162   4.6445   4.8894   4.9150   5.0222
     5.0607   5.1009   5.1297   5.1381   5.3210   5.3774   5.4065   5.4444
     5.6481   5.6698   5.7521   5.7739   5.8501   5.8676   5.8959   5.9548
     6.3733   6.4308   6.4590   6.5683   6.6250   6.6636   6.7640   6.8020
     6.9171   6.9361   6.9606   6.9781   7.0195   7.0339   7.2256   7.2466
     7.2908   7.3040   7.7910   7.8236   7.8818   7.8967   7.9076   7.9273
    10.1079  10.1200  10.6719  10.6993  10.7636  10.8388  11.7812  11.8678
    11.9096  12.0111  12.4624  12.4765  12.6919  12.7356  12.8401  12.9929
    13.0287  13.1005  13.2863  13.4043  13.4639  13.5205  13.8006  13.8098
    15.2535  15.3566  15.4187  15.4941  15.5933  15.7481  16.2913  16.3223
    16.4812  16.5357  17.1041  17.3605  17.3898

          k = 0.1667 0.3150 0.3333 ( 62265 PWs)   bands (ev):

   -66.1587 -66.1583 -66.1578 -66.1573 -66.1552 -66.1547 -66.1543 -66.1538
   -30.6313 -30.6282 -30.6251 -30.6210 -30.5723 -30.5684 -30.5465 -30.5395
   -30.5180 -30.5150 -30.5148 -30.5044 -30.4652 -30.4593 -30.4307 -30.4282
   -30.4136 -30.4108 -30.4097 -30.4069 -30.3857 -30.3833 -30.3823 -30.3800
   -20.3127 -20.3126 -20.3125 -20.3124 -20.3084 -20.3082 -20.3081 -20.3079
   -20.2943 -20.2942 -20.2937 -20.2935 -20.2917 -20.2915 -20.2881 -20.2880
   -20.2870 -20.2869 -20.2866 -20.2864 -20.2863 -20.2862 -20.2854 -20.2852
   -20.2838 -20.2835 -20.2821 -20.2816 -20.2808 -20.2806 -20.2804 -20.2802
   -20.2794 -20.2786 -20.2772 -20.2764 -20.2761 -20.2757 -20.2753 -20.2752
   -20.2749 -20.2735 -20.2734 -20.2727 -20.2718 -20.2702 -20.2689 -20.2685
   -20.2682 -20.2680 -20.2674 -20.2668 -20.2641 -20.2636 -20.2614 -20.2608
    -9.7631  -9.6547  -9.5695  -9.3718  -9.3224  -9.1205  -9.0310  -8.9818
    -8.5879  -8.5021  -8.4044  -8.3978  -8.3898  -8.3572  -8.2355  -8.1859
    -8.0561  -8.0123  -7.9069  -7.8814  -7.8650  -7.8434  -7.8237  -7.7947
     1.3078   1.3275   1.4388   1.4726   1.9772   2.1081   2.1252   2.2224
     2.5869   2.6120   2.6537   2.6810   2.7317   2.8285   3.0388   3.1270
     3.3160   3.3648   3.5307   3.6442   3.6891   3.7561   3.8108   3.8688
     4.1024   4.2112   4.2958   4.3515   4.3970   4.4920   4.5481   4.6240
     4.7187   4.7821   4.8474   4.9343   5.0303   5.0614   5.1107   5.1835
     5.3430   5.4319   5.4644   5.6610   5.6888   5.8120   5.8737   5.9001
     6.4014   6.5025   6.6148   6.7091   6.7569   6.7799   6.8307   6.8549
     6.9468   7.0140   7.0782   7.1016   7.1686   7.2043   7.2560   7.3141
     7.3665   7.4149   7.6892   7.7140   7.8253   7.8359   7.8910   7.9013
    10.6256  10.6828  10.7766  10.8569  11.1693  11.2529  11.8693  11.9341
    12.0513  12.1000  12.1909  12.2634  12.5601  12.5875  12.6421  12.7751
    12.9189  13.0219  13.0608  13.1501  13.3192  13.3985  13.6237  13.6515
    15.3309  15.3770  15.7043  15.8384  16.0086  16.1667  16.2850  16.4486
    16.8004  16.9300  17.1397  17.3732  17.6888

          k = 0.1667 0.3150-0.5000 ( 62264 PWs)   bands (ev):

   -66.1585 -66.1585 -66.1576 -66.1576 -66.1549 -66.1549 -66.1541 -66.1541
   -30.6297 -30.6297 -30.5987 -30.5987 -30.5948 -30.5948 -30.5422 -30.5422
   -30.5165 -30.5165 -30.4902 -30.4902 -30.4827 -30.4827 -30.4294 -30.4294
   -30.4122 -30.4122 -30.4084 -30.4083 -30.3845 -30.3845 -30.3812 -30.3811
   -20.3126 -20.3126 -20.3125 -20.3125 -20.3082 -20.3082 -20.3080 -20.3080
   -20.2942 -20.2942 -20.2936 -20.2936 -20.2916 -20.2916 -20.2875 -20.2875
   -20.2874 -20.2874 -20.2864 -20.2864 -20.2860 -20.2860 -20.2857 -20.2857
   -20.2837 -20.2837 -20.2819 -20.2819 -20.2806 -20.2806 -20.2803 -20.2803
   -20.2784 -20.2784 -20.2774 -20.2774 -20.2759 -20.2759 -20.2754 -20.2754
   -20.2733 -20.2733 -20.2731 -20.2731 -20.2717 -20.2717 -20.2684 -20.2684
   -20.2682 -20.2682 -20.2675 -20.2675 -20.2639 -20.2638 -20.2611 -20.2611
    -9.6425  -9.6425  -9.4768  -9.4768  -8.9409  -8.9409  -8.8076  -8.8076
    -8.7452  -8.7452  -8.6859  -8.6859  -8.3780  -8.3780  -8.3515  -8.3515
    -8.0387  -8.0387  -7.8908  -7.8908  -7.8576  -7.8576  -7.8104  -7.8104
     1.3255   1.3255   1.4741   1.4741   2.5849   2.5849   2.6801   2.6801
     2.8652   2.8652   2.9175   2.9175   3.0028   3.0028   3.0870   3.0870
     3.1608   3.1608   3.2941   3.2941   3.4694   3.4694   3.7339   3.7339
     3.9745   3.9745   4.0340   4.0340   4.1824   4.1824   4.3708   4.3708
     4.7006   4.7006   4.7756   4.7756   4.9870   4.9871   5.1231   5.1231
     5.1625   5.1625   5.5189   5.5189   5.7165   5.7165   5.8780   5.8780
     6.5124   6.5124   6.6526   6.6526   6.7230   6.7230   6.8657   6.8657
     7.1190   7.1190   7.1748   7.1748   7.2360   7.2361   7.4318   7.4318
     7.4850   7.4850   7.6475   7.6475   7.6767   7.6767   7.8934   7.8934
    10.7364  10.7364  11.4052  11.4052  11.5248  11.5248  11.7679  11.7679
    11.9122  11.9122  12.0458  12.0458  12.4911  12.4911  12.5938  12.5938
    12.8673  12.8674  13.0378  13.0378  13.2988  13.2988  13.5149  13.5149
    15.3624  15.3624  15.9956  15.9956  16.2440  16.2440  16.3441  16.3441
    17.0982  17.0982  17.3986  17.3986  17.8656

          k = 0.1667-0.4725 0.1667 ( 62220 PWs)   bands (ev):

   -66.1589 -66.1581 -66.1580 -66.1572 -66.1554 -66.1545 -66.1545 -66.1536
   -30.6442 -30.6401 -30.6325 -30.6271 -30.5529 -30.5521 -30.5488 -30.5380
   -30.5330 -30.5191 -30.5175 -30.5134 -30.4467 -30.4414 -30.4315 -30.4272
   -30.4026 -30.3989 -30.3986 -30.3979 -30.3952 -30.3945 -30.3941 -30.3912
   -20.3128 -20.3126 -20.3125 -20.3123 -20.3085 -20.3083 -20.3080 -20.3078
   -20.2943 -20.2941 -20.2937 -20.2934 -20.2917 -20.2914 -20.2886 -20.2885
   -20.2869 -20.2868 -20.2866 -20.2866 -20.2865 -20.2863 -20.2850 -20.2848
   -20.2839 -20.2835 -20.2822 -20.2813 -20.2806 -20.2803 -20.2802 -20.2801
   -20.2796 -20.2793 -20.2767 -20.2765 -20.2763 -20.2761 -20.2761 -20.2755
   -20.2746 -20.2744 -20.2738 -20.2723 -20.2709 -20.2693 -20.2692 -20.2687
   -20.2684 -20.2681 -20.2666 -20.2660 -20.2644 -20.2634 -20.2617 -20.2606
    -9.8648  -9.8486  -9.5794  -9.5209  -9.3803  -9.3239  -9.1393  -9.1239
    -8.2422  -8.2337  -8.1857  -8.1801  -8.1783  -8.1707  -8.1577  -8.1525
    -8.0566  -8.0349  -7.9809  -7.9621  -7.9128  -7.8869  -7.8351  -7.8116
     1.1576   1.1882   1.2438   1.3260   1.3849   1.4658   1.6412   1.6772
     2.3478   2.3520   3.0455   3.0661   3.1498   3.1792   3.3153   3.3500
     3.4365   3.4514   3.4940   3.5376   3.7102   3.7360   3.8588   3.8740
     3.9770   3.9803   4.1533   4.1780   4.2063   4.2174   4.9857   5.0082
     5.1005   5.1150   5.2199   5.2381   5.3042   5.3077   5.4205   5.4398
     5.5639   5.5799   5.6622   5.6888   5.7498   5.7648   5.8851   5.9054
     6.4073   6.4389   6.5428   6.5644   6.6058   6.6141   6.7652   6.7829
     6.9133   6.9303   6.9610   6.9849   7.0486   7.0583   7.4911   7.5009
     7.5605   7.5732   7.6374   7.6515   7.6690   7.6855   7.8329   7.8404
    10.1160  10.1277  11.1355  11.1947  11.2227  11.2845  11.3545  11.4296
    11.4762  11.5323  12.4693  12.4798  12.7253  12.7418  12.9441  12.9796
    13.1669  13.2314  13.2438  13.2564  13.2829  13.3162  13.7787  13.7836
    15.5109  15.5670  15.8429  15.8918  15.9819  16.0399  16.0904  16.1294
    16.3172  16.3213  17.5855  17.6013  17.7941

          k = 0.1667-0.4725 0.3333 ( 62252 PWs)   bands (ev):

   -66.1587 -66.1582 -66.1578 -66.1573 -66.1552 -66.1547 -66.1543 -66.1538
   -30.6313 -30.6282 -30.6251 -30.6210 -30.5723 -30.5684 -30.5465 -30.5395
   -30.5180 -30.5150 -30.5148 -30.5043 -30.4651 -30.4592 -30.4306 -30.4281
   -30.4016 -30.3989 -30.3979 -30.3977 -30.3954 -30.3951 -30.3943 -30.3920
   -20.3127 -20.3126 -20.3125 -20.3124 -20.3084 -20.3082 -20.3081 -20.3079
   -20.2943 -20.2942 -20.2937 -20.2935 -20.2917 -20.2915 -20.2880 -20.2880
   -20.2870 -20.2869 -20.2865 -20.2865 -20.2864 -20.2862 -20.2854 -20.2852
   -20.2838 -20.2835 -20.2821 -20.2816 -20.2804 -20.2802 -20.2801 -20.2799
   -20.2794 -20.2786 -20.2773 -20.2767 -20.2764 -20.2760 -20.2756 -20.2754
   -20.2750 -20.2735 -20.2734 -20.2727 -20.2718 -20.2702 -20.2689 -20.2685
   -20.2682 -20.2680 -20.2674 -20.2667 -20.2641 -20.2636 -20.2614 -20.2608
    -9.7327  -9.6758  -9.5573  -9.3738  -9.3108  -9.1193  -9.0307  -8.9812
    -8.4969  -8.4396  -8.3608  -8.3247  -8.1824  -8.1720  -8.1664  -8.1523
    -8.1320  -8.1072  -8.0952  -8.0621  -8.0153  -7.9766  -7.8717  -7.8278
     1.3083   1.3281   1.4391   1.4734   1.9830   2.1131   2.1460   2.2308
     2.6134   2.6176   3.0728   3.0931   3.2132   3.2434   3.3459   3.3605
     3.4164   3.4311   3.5310   3.5676   3.6500   3.6788   3.7052   3.8236
     3.8545   3.9100   3.9789   4.0212   4.2770   4.3427   4.4042   4.5701
     4.6095   4.6700   4.8410   4.8843   4.9539   4.9656   5.0506   5.0745
     5.2552   5.3130   5.3436   5.5044   5.7044   5.7450   5.8170   5.8354
     6.4244   6.5143   6.6525   6.7155   6.7727   6.7892   6.8254   6.8892
     6.9535   7.0084   7.1171   7.1931   7.2711   7.2861   7.4674   7.5132
     7.5460   7.5775   7.6084   7.6356   7.6544   7.6842   7.7319   7.7668
    10.6857  10.7452  11.2365  11.2847  11.3974  11.4581  11.5374  11.6431
    11.6989  11.7922  12.0874  12.2650  12.6336  12.7337  12.7572  12.7799
    12.8308  12.8879  13.0298  13.0616  13.2418  13.2733  13.5862  13.6231
    15.6395  15.8249  15.8572  16.0321  16.3772  16.4643  16.6025  16.6450
    16.6667  16.7491  17.2337  17.3462  17.5353

          k = 0.1667-0.4725-0.5000 ( 62232 PWs)   bands (ev):

   -66.1585 -66.1585 -66.1576 -66.1576 -66.1549 -66.1549 -66.1541 -66.1541
   -30.6297 -30.6297 -30.5987 -30.5987 -30.5948 -30.5948 -30.5422 -30.5422
   -30.5165 -30.5165 -30.4902 -30.4901 -30.4827 -30.4827 -30.4294 -30.4294
   -30.4003 -30.4002 -30.3967 -30.3967 -30.3964 -30.3963 -30.3932 -30.3932
   -20.3126 -20.3126 -20.3125 -20.3125 -20.3082 -20.3082 -20.3080 -20.3080
   -20.2942 -20.2942 -20.2936 -20.2936 -20.2916 -20.2916 -20.2875 -20.2874
   -20.2874 -20.2874 -20.2864 -20.2864 -20.2860 -20.2860 -20.2857 -20.2857
   -20.2837 -20.2836 -20.2819 -20.2819 -20.2803 -20.2803 -20.2800 -20.2800
   -20.2784 -20.2784 -20.2775 -20.2775 -20.2762 -20.2761 -20.2757 -20.2757
   -20.2733 -20.2733 -20.2732 -20.2732 -20.2717 -20.2717 -20.2684 -20.2684
   -20.2682 -20.2682 -20.2675 -20.2675 -20.2639 -20.2639 -20.2611 -20.2611
    -9.6257  -9.6257  -9.4833  -9.4833  -8.9186  -8.9186  -8.8019  -8.8019
    -8.7415  -8.7415  -8.6792  -8.6792  -8.1778  -8.1778  -8.1515  -8.1515
    -8.1390  -8.1390  -8.1141  -8.1141  -7.9966  -7.9965  -7.8498  -7.8498
     1.3262   1.3263   1.4748   1.4748   2.8400   2.8400   2.8820   2.8820
     2.9399   2.9399   3.0200   3.0200   3.1559   3.1559   3.2258   3.2258
     3.3413   3.3413   3.4099   3.4099   3.4434   3.4434   3.5955   3.5955
     3.7172   3.7173   3.8822   3.8822   4.3171   4.3171   4.3950   4.3950
     4.4367   4.4367   4.5083   4.5083   4.7386   4.7386   4.8274   4.8274
     5.2515   5.2515   5.3981   5.3981   5.7286   5.7286   5.7659   5.7659
     6.5297   6.5297   6.6692   6.6692   6.7392   6.7392   6.8648   6.8648
     7.2807   7.2807   7.3275   7.3275   7.3518   7.3518   7.4198   7.4198
     7.5531   7.5532   7.5999   7.6000   7.6191   7.6191   7.7075   7.7075
    11.1962  11.1962  11.3723  11.3723  11.4804  11.4804  11.6104  11.6104
    12.0862  12.0862  12.1237  12.1237  12.2698  12.2698  12.3160  12.3160
    12.8953  12.8953  12.9938  12.9938  13.3257  13.3257  13.3992  13.3992
    15.7611  15.7611  15.9746  15.9746  16.7775  16.7775  16.8221  16.8222
    17.2296  17.2296  17.3374  17.3375  17.4318

          k = 0.3333 0.0000 0.3333 ( 62316 PWs)   bands (ev):

   -66.1585 -66.1581 -66.1580 -66.1575 -66.1550 -66.1545 -66.1545 -66.1540
   -30.6243 -30.6220 -30.6128 -30.6095 -30.5715 -30.5693 -30.5632 -30.5582
   -30.5136 -30.5081 -30.4998 -30.4968 -30.4644 -30.4612 -30.4496 -30.4471
   -30.4263 -30.4236 -30.4230 -30.4205 -30.3711 -30.3692 -30.3689 -30.3670
   -20.3127 -20.3126 -20.3125 -20.3124 -20.3083 -20.3082 -20.3081 -20.3080
   -20.2942 -20.2941 -20.2938 -20.2937 -20.2905 -20.2903 -20.2882 -20.2880
   -20.2875 -20.2873 -20.2870 -20.2868 -20.2865 -20.2863 -20.2854 -20.2852
   -20.2835 -20.2832 -20.2826 -20.2821 -20.2815 -20.2814 -20.2812 -20.2811
   -20.2791 -20.2787 -20.2768 -20.2762 -20.2754 -20.2752 -20.2747 -20.2746
   -20.2744 -20.2737 -20.2723 -20.2717 -20.2715 -20.2706 -20.2694 -20.2691
   -20.2687 -20.2682 -20.2673 -20.2669 -20.2637 -20.2631 -20.2622 -20.2616
    -9.6571  -9.4562  -9.4073  -9.3685  -9.1713  -9.1216  -8.9168  -8.9032
    -8.8637  -8.6279  -8.6152  -8.5841  -8.4552  -8.3893  -8.3634  -8.3279
    -8.2319  -8.1975  -8.1825  -8.1385  -7.5654  -7.5355  -7.5299  -7.5014
     1.7961   1.8142   1.8252   1.8973   1.9305   1.9528   2.0476   2.1014
     2.1822   2.2320   2.3416   2.4870   2.8487   2.9211   2.9508   3.0227
     3.0828   3.1292   3.5921   3.6713   3.8203   3.8793   3.9206   3.9866
     4.1096   4.1527   4.2132   4.2746   4.3041   4.3245   4.4308   4.4858
     4.5773   4.6982   4.8063   4.8668   4.8872   4.9421   4.9988   5.1915
     5.2404   5.3533   5.4490   5.6892   6.1651   6.1793   6.2145   6.2344
     6.5062   6.5501   6.6036   6.6710   6.7139   6.7753   6.8055   6.8406
     6.9844   7.0107   7.0304   7.0467   7.1137   7.1875   7.2190   7.2808
     7.3358   7.4590   7.6200   7.6326   7.9382   7.9446   8.0366   8.0508
    10.6610  10.6928  10.8139  10.8428  11.1857  11.2773  12.0733  12.1159
    12.2230  12.2569  12.3374  12.3703  12.5443  12.5635  12.6632  12.7655
    12.7891  12.8514  13.0809  13.2224  13.3711  13.4338  13.4927  13.5899
    14.4286  14.6429  14.6560  14.9999  15.9344  16.4934  16.5352  16.8114
    16.9828  17.2524  17.3952  17.7940  17.8131

          k = 0.3333 0.0000-0.5000 ( 62288 PWs)   bands (ev):

   -66.1583 -66.1583 -66.1578 -66.1578 -66.1547 -66.1547 -66.1542 -66.1542
   -30.6111 -30.6111 -30.5980 -30.5980 -30.5957 -30.5957 -30.5603 -30.5603
   -30.4984 -30.4984 -30.4891 -30.4891 -30.4850 -30.4850 -30.4484 -30.4484
   -30.4247 -30.4247 -30.4221 -30.4221 -30.3699 -30.3699 -30.3681 -30.3680
   -20.3126 -20.3126 -20.3125 -20.3125 -20.3082 -20.3082 -20.3081 -20.3081
   -20.2941 -20.2941 -20.2938 -20.2937 -20.2904 -20.2904 -20.2877 -20.2877
   -20.2874 -20.2874 -20.2871 -20.2871 -20.2859 -20.2859 -20.2858 -20.2858
   -20.2834 -20.2833 -20.2824 -20.2824 -20.2814 -20.2814 -20.2812 -20.2812
   -20.2781 -20.2781 -20.2775 -20.2774 -20.2751 -20.2751 -20.2747 -20.2747
   -20.2730 -20.2730 -20.2721 -20.2721 -20.2720 -20.2720 -20.2692 -20.2692
   -20.2681 -20.2681 -20.2676 -20.2676 -20.2634 -20.2634 -20.2619 -20.2619
    -9.4738  -9.4738  -9.2454  -9.2454  -9.0840  -9.0840  -8.8200  -8.8200
    -8.7381  -8.7381  -8.6808  -8.6808  -8.5272  -8.5272  -8.5083  -8.5083
    -8.3327  -8.3327  -8.1753  -8.1753  -7.5507  -7.5507  -7.5159  -7.5159
[...]
   -20.3800 -20.3800 -20.3797 -20.3796 -20.3779 -20.3779 -20.3773 -20.3773
   -20.3768 -20.3768 -20.3738 -20.3738 -20.3734 -20.3734 -20.3729 -20.3729
   -20.3716 -20.3716 -20.3688 -20.3688 -20.3676 -20.3676 -20.3673 -20.3673
   -20.3651 -20.3651 -20.3630 -20.3630 -20.3600 -20.3599 -20.3591 -20.3591
    -9.5708  -9.5708  -9.3609  -9.3609  -9.0529  -9.0528  -8.8001  -8.8001
    -8.7023  -8.7023  -8.6409  -8.6409  -8.5001  -8.5001  -8.4720  -8.4720
    -8.1898  -8.1898  -8.1568  -8.1568  -7.9988  -7.9988  -7.8235  -7.8235
     1.4408   1.4408   1.5938   1.5938   2.2393   2.2393   2.3360   2.3360
     2.9304   2.9304   2.9914   2.9914   3.0293   3.0293   3.1694   3.1694
     3.1975   3.1976   3.3750   3.3750   3.5350   3.5350   3.6945   3.6945
     3.8052   3.8053   3.9224   3.9224   4.1591   4.1591   4.3284   4.3284
     4.6418   4.6418   4.7738   4.7738   4.8925   4.8925   4.9428   4.9428
     5.0304   5.0304   5.3962   5.3962   5.6982   5.6982   5.7977   5.7977
     6.5284   6.5284   6.6356   6.6356   6.7496   6.7496   6.8047   6.8047
     6.9831   6.9831   7.0426   7.0426   7.1137   7.1137   7.4365   7.4365
     7.4653   7.4653   7.5348   7.5348   7.5719   7.5719   7.8198   7.8198
    10.6500  10.6500  11.2362  11.2362  11.3747  11.3747  11.6001  11.6001
    11.7967  11.7967  12.0786  12.0786  12.5298  12.5298  12.5684  12.5684
    12.7629  12.7630  12.8808  12.8808  13.0287  13.0287  13.4250  13.4250
    15.2976  15.2976  15.7156  15.7156  16.3163  16.3163  16.5545  16.5545
    16.7420  16.7420  17.3225  17.3225  17.7730

          k = 0.3292 0.4834 0.1642 ( 62566 PWs)   bands (ev):

   -66.2487 -66.2483 -66.2481 -66.2476 -66.2452 -66.2448 -66.2445 -66.2441
   -30.6548 -30.6526 -30.6427 -30.6383 -30.6052 -30.6004 -30.5925 -30.5898
   -30.5702 -30.5666 -30.5660 -30.5651 -30.5634 -30.5571 -30.5501 -30.5499
   -30.5472 -30.5427 -30.5330 -30.5303 -30.4923 -30.4888 -30.4803 -30.4776
   -20.4128 -20.4127 -20.4124 -20.4123 -20.4088 -20.4087 -20.4084 -20.4082
   -20.3952 -20.3949 -20.3947 -20.3944 -20.3892 -20.3889 -20.3881 -20.3879
   -20.3850 -20.3848 -20.3836 -20.3835 -20.3828 -20.3826 -20.3824 -20.3824
   -20.3802 -20.3799 -20.3795 -20.3792 -20.3780 -20.3774 -20.3770 -20.3770
   -20.3767 -20.3762 -20.3742 -20.3741 -20.3740 -20.3739 -20.3733 -20.3726
   -20.3718 -20.3714 -20.3692 -20.3690 -20.3687 -20.3685 -20.3661 -20.3659
   -20.3652 -20.3650 -20.3631 -20.3629 -20.3603 -20.3596 -20.3594 -20.3587
    -9.6120  -9.5451  -9.4512  -9.2716  -9.1749  -9.0040  -8.8679  -8.8203
    -8.6433  -8.6282  -8.5544  -8.5362  -8.5099  -8.5017  -8.4957  -8.4770
    -8.3037  -8.2487  -8.1395  -8.1009  -8.0151  -7.9747  -7.8454  -7.8034
     1.4379   1.4422   1.5829   1.5945   2.1325   2.2638   2.2698   2.3802
     2.8374   2.8474   2.9103   2.9216   3.0434   3.0891   3.1331   3.1700
     3.2314   3.2489   3.3934   3.4925   3.5335   3.6378   3.6958   3.7481
     3.7641   3.7945   3.8609   3.8943   4.2035   4.2129   4.4411   4.4791
     4.5645   4.6086   4.7537   4.8126   4.8322   4.9103   4.9183   4.9661
     5.0294   5.0892   5.2896   5.3649   5.6645   5.6871   5.8398   5.8719
     6.5145   6.5380   6.6090   6.6303   6.7067   6.8232   6.8446   6.8822
     6.9733   7.0285   7.0377   7.1216   7.1658   7.2007   7.3347   7.3985
     7.4135   7.4647   7.5116   7.5350   7.5678   7.5801   7.7439   7.7736
    10.5552  10.6369  11.1698  11.2059  11.3803  11.3995  11.6019  11.6399
    11.7456  11.8145  11.8996  12.0783  12.4401  12.5622  12.6047  12.6479
    12.6544  12.7353  12.9392  13.0119  13.0924  13.1359  13.3027  13.3386
    15.2978  15.4913  15.5738  15.8334  16.1606  16.3046  16.4685  16.6366
    16.7947  16.8306  17.3539  17.3912  17.7637

          k =-0.4938 0.4834 0.1642 ( 62588 PWs)   bands (ev):

   -66.2485 -66.2485 -66.2478 -66.2478 -66.2450 -66.2450 -66.2443 -66.2443
   -30.6537 -30.6537 -30.6231 -30.6231 -30.6185 -30.6185 -30.5911 -30.5911
   -30.5683 -30.5683 -30.5650 -30.5650 -30.5619 -30.5619 -30.5486 -30.5486
   -30.5469 -30.5469 -30.5130 -30.5130 -30.5097 -30.5097 -30.4791 -30.4790
   -20.4127 -20.4127 -20.4123 -20.4123 -20.4088 -20.4087 -20.4083 -20.4083
   -20.3950 -20.3950 -20.3947 -20.3946 -20.3891 -20.3891 -20.3881 -20.3880
   -20.3838 -20.3838 -20.3837 -20.3837 -20.3835 -20.3835 -20.3824 -20.3824
   -20.3798 -20.3798 -20.3795 -20.3795 -20.3776 -20.3776 -20.3769 -20.3769
   -20.3768 -20.3768 -20.3742 -20.3741 -20.3740 -20.3740 -20.3730 -20.3730
   -20.3716 -20.3716 -20.3688 -20.3688 -20.3676 -20.3676 -20.3673 -20.3673
   -20.3651 -20.3651 -20.3630 -20.3630 -20.3600 -20.3599 -20.3591 -20.3591
    -9.5171  -9.5171  -9.3773  -9.3773  -8.8637  -8.8636  -8.7523  -8.7523
    -8.6812  -8.6812  -8.6245  -8.6245  -8.4822  -8.4822  -8.4528  -8.4527
    -8.4058  -8.4058  -8.3578  -8.3578  -8.0017  -8.0017  -7.8243  -7.8243
     1.4439   1.4439   1.5983   1.5983   2.8112   2.8112   2.9363   2.9363
     2.9988   2.9988   3.0264   3.0264   3.1041   3.1042   3.1563   3.1563
     3.2890   3.2890   3.3596   3.3596   3.3999   3.3999   3.5116   3.5116
     3.6056   3.6056   3.8213   3.8213   4.1621   4.1621   4.2235   4.2235
     4.2813   4.2814   4.3478   4.3478   4.7703   4.7703   4.8729   4.8730
     5.0688   5.0688   5.2071   5.2071   5.7041   5.7041   5.7323   5.7323
     6.5710   6.5710   6.6614   6.6614   6.7582   6.7582   6.8279   6.8279
     7.1740   7.1740   7.2168   7.2168   7.3049   7.3049   7.3877   7.3877
     7.4570   7.4570   7.5150   7.5151   7.5333   7.5333   7.6360   7.6360
    11.1029  11.1029  11.2829  11.2829  11.3769  11.3769  11.4481  11.4481
    12.0432  12.0432  12.0870  12.0870  12.2298  12.2298  12.2712  12.2712
    12.7339  12.7339  12.8779  12.8779  13.1202  13.1202  13.1875  13.1875
    15.4571  15.4571  15.7158  15.7158  16.7415  16.7415  16.8909  16.8909
    17.3014  17.3015  17.3835  17.3836  17.4949

          k =-0.4938 0.0000 0.3284 ( 62538 PWs)   bands (ev):

   -66.2484 -66.2484 -66.2480 -66.2480 -66.2448 -66.2448 -66.2444 -66.2444
   -30.6417 -30.6417 -30.6261 -30.6261 -30.6235 -30.6235 -30.6059 -30.6059
   -30.5937 -30.5937 -30.5802 -30.5802 -30.5388 -30.5388 -30.5285 -30.5285
   -30.5267 -30.5267 -30.5106 -30.5106 -30.5091 -30.5091 -30.4937 -30.4937
   -20.4127 -20.4127 -20.4124 -20.4124 -20.4087 -20.4086 -20.4084 -20.4084
   -20.3949 -20.3949 -20.3947 -20.3947 -20.3888 -20.3888 -20.3883 -20.3882
   -20.3842 -20.3842 -20.3840 -20.3840 -20.3830 -20.3829 -20.3824 -20.3824
   -20.3806 -20.3806 -20.3802 -20.3802 -20.3782 -20.3782 -20.3781 -20.3781
   -20.3758 -20.3758 -20.3731 -20.3731 -20.3726 -20.3726 -20.3719 -20.3719
   -20.3717 -20.3717 -20.3696 -20.3695 -20.3675 -20.3675 -20.3673 -20.3673
   -20.3647 -20.3647 -20.3636 -20.3636 -20.3598 -20.3598 -20.3593 -20.3592
    -9.5717  -9.5717  -9.3663  -9.3663  -9.1278  -9.1278  -8.8384  -8.8383
    -8.7194  -8.7194  -8.5978  -8.5977  -8.5463  -8.5463  -8.4665  -8.4664
    -8.2727  -8.2727  -8.1189  -8.1189  -7.8041  -7.8041  -7.7805  -7.7805
     1.3706   1.3706   1.3915   1.3915   2.1628   2.1628   2.2967   2.2967
     2.8372   2.8372   2.9727   2.9727   3.0215   3.0216   3.1357   3.1357
     3.1968   3.1968   3.4598   3.4598   3.5750   3.5750   3.6611   3.6611
     3.8577   3.8578   3.8971   3.8971   4.1290   4.1290   4.3492   4.3493
     4.6148   4.6148   4.8331   4.8331   4.9603   4.9603   5.0162   5.0162
     5.2680   5.2681   5.5342   5.5342   5.9914   5.9914   6.0818   6.0818
     6.3378   6.3378   6.3930   6.3930   6.4715   6.4715   6.5106   6.5106
     7.0419   7.0419   7.1201   7.1201   7.2024   7.2024   7.4237   7.4237
     7.4738   7.4739   7.5634   7.5634   7.5891   7.5891   7.9083   7.9083
    10.6416  10.6416  11.2884  11.2884  11.3288  11.3288  11.5977  11.5977
    11.7511  11.7511  12.0747  12.0747  12.4777  12.4777  12.6109  12.6109
    12.8217  12.8217  13.1325  13.1325  13.1660  13.1660  13.5001  13.5001
    14.8958  14.8958  15.2352  15.2352  16.1683  16.1683  16.5701  16.5701
    16.8364  16.8364  17.3120  17.3120  17.9250

          k =-0.4938-0.1611 0.3284 ( 62532 PWs)   bands (ev):

   -66.2484 -66.2484 -66.2480 -66.2480 -66.2448 -66.2448 -66.2444 -66.2444
   -30.6409 -30.6409 -30.6244 -30.6243 -30.6229 -30.6229 -30.6051 -30.6051
   -30.5904 -30.5903 -30.5785 -30.5785 -30.5404 -30.5404 -30.5321 -30.5321
   -30.5294 -30.5294 -30.5113 -30.5113 -30.5096 -30.5096 -30.4938 -30.4938
   -20.4127 -20.4126 -20.4124 -20.4124 -20.4087 -20.4086 -20.4084 -20.4084
   -20.3949 -20.3949 -20.3947 -20.3947 -20.3888 -20.3888 -20.3883 -20.3882
   -20.3841 -20.3841 -20.3839 -20.3839 -20.3830 -20.3830 -20.3824 -20.3824
   -20.3804 -20.3804 -20.3801 -20.3801 -20.3781 -20.3781 -20.3779 -20.3779
   -20.3758 -20.3758 -20.3732 -20.3732 -20.3728 -20.3728 -20.3721 -20.3721
   -20.3719 -20.3719 -20.3696 -20.3695 -20.3675 -20.3675 -20.3673 -20.3673
   -20.3648 -20.3647 -20.3636 -20.3636 -20.3598 -20.3598 -20.3593 -20.3593
    -9.5179  -9.5179  -9.2937  -9.2937  -9.1360  -9.1360  -8.8144  -8.8144
    -8.7241  -8.7241  -8.5984  -8.5983  -8.5420  -8.5419  -8.4669  -8.4669
    -8.2726  -8.2726  -8.1219  -8.1219  -7.9110  -7.9109  -7.8878  -7.8877
     1.6001   1.6001   1.6307   1.6307   2.1659   2.1659   2.2999   2.2999
     2.8991   2.8991   2.9884   2.9884   3.0441   3.0441   3.1467   3.1468
     3.2067   3.2067   3.4915   3.4915   3.6098   3.6099   3.6790   3.6790
     3.8568   3.8568   3.9504   3.9504   4.1008   4.1008   4.3364   4.3364
     4.4944   4.4944   4.6866   4.6866   4.8635   4.8635   4.9254   4.9254
     5.0155   5.0155   5.2869   5.2869   5.7302   5.7302   5.8470   5.8470
     6.5006   6.5006   6.5428   6.5429   6.6145   6.6145   6.7169   6.7169
     7.0577   7.0577   7.1244   7.1244   7.2105   7.2105   7.4271   7.4271
     7.4703   7.4703   7.5594   7.5594   7.5898   7.5898   7.8671   7.8671
    10.7473  10.7473  11.3464  11.3464  11.4076  11.4076  11.6053  11.6053
    11.7688  11.7688  12.1157  12.1157  12.4745  12.4745  12.6067  12.6067
    12.6734  12.6734  13.0032  13.0032  13.0402  13.0402  13.3888  13.3888
    15.2250  15.2250  15.5885  15.5885  16.2379  16.2379  16.5770  16.5770
    16.8494  16.8494  17.3427  17.3428  17.7898

          k =-0.4938-0.3223 0.3284 ( 62548 PWs)   bands (ev):

   -66.2484 -66.2483 -66.2480 -66.2480 -66.2448 -66.2448 -66.2444 -66.2444
   -30.6395 -30.6395 -30.6225 -30.6225 -30.6206 -30.6206 -30.6030 -30.6030
   -30.5801 -30.5801 -30.5720 -30.5720 -30.5490 -30.5490 -30.5430 -30.5430
   -30.5329 -30.5329 -30.5121 -30.5121 -30.5102 -30.5102 -30.4940 -30.4940
   -20.4127 -20.4126 -20.4124 -20.4124 -20.4087 -20.4086 -20.4084 -20.4084
   -20.3949 -20.3949 -20.3947 -20.3947 -20.3888 -20.3888 -20.3883 -20.3882
   -20.3839 -20.3839 -20.3838 -20.3837 -20.3832 -20.3832 -20.3826 -20.3826
   -20.3800 -20.3800 -20.3798 -20.3797 -20.3777 -20.3777 -20.3774 -20.3774
   -20.3759 -20.3759 -20.3738 -20.3738 -20.3735 -20.3735 -20.3724 -20.3724
   -20.3720 -20.3720 -20.3696 -20.3696 -20.3675 -20.3675 -20.3674 -20.3673
   -20.3648 -20.3648 -20.3636 -20.3636 -20.3598 -20.3598 -20.3593 -20.3593
    -9.3902  -9.3902  -9.1649  -9.1649  -9.0988  -9.0988  -8.7521  -8.7520
    -8.7240  -8.7240  -8.6002  -8.6002  -8.5208  -8.5208  -8.4680  -8.4679
    -8.2757  -8.2757  -8.1861  -8.1861  -8.1656  -8.1656  -8.0878  -8.0878
     2.0719   2.0719   2.2119   2.2119   2.2647   2.2647   2.4008   2.4008
     2.9833   2.9833   3.0382   3.0382   3.0982   3.0982   3.1822   3.1822
     3.2805   3.2805   3.5482   3.5482   3.6517   3.6517   3.7525   3.7525
     3.8101   3.8101   3.9801   3.9801   4.0621   4.0621   4.1658   4.1658
     4.2818   4.2818   4.4593   4.4593   4.5340   4.5341   4.7535   4.7535
     4.8225   4.8225   4.9214   4.9214   4.9982   4.9982   5.2972   5.2972
     6.7768   6.7768   6.8769   6.8769   6.9240   6.9240   6.9808   6.9808
     7.0887   7.0887   7.1568   7.1569   7.2488   7.2488   7.4256   7.4256
     7.4561   7.4561   7.5344   7.5344   7.5633   7.5633   7.7390   7.7390
    11.0680  11.0680  11.4696  11.4696  11.6020  11.6020  11.6607  11.6607
    11.8738  11.8738  12.1996  12.1996  12.2944  12.2944  12.4437  12.4437
    12.6092  12.6092  12.6800  12.6800  12.7358  12.7358  13.0962  13.0962
    15.9631  15.9631  16.3469  16.3469  16.5223  16.5223  16.6503  16.6503
    16.9124  16.9124  17.3636  17.3636  17.5393

          k =-0.4938 0.4834 0.3284 ( 62512 PWs)   bands (ev):

   -66.2484 -66.2483 -66.2480 -66.2480 -66.2448 -66.2448 -66.2444 -66.2444
   -30.6389 -30.6389 -30.6220 -30.6220 -30.6193 -30.6193 -30.6019 -30.6018
   -30.5662 -30.5662 -30.5636 -30.5636 -30.5623 -30.5623 -30.5544 -30.5544
   -30.5337 -30.5337 -30.5124 -30.5124 -30.5105 -30.5104 -30.4940 -30.4940
   -20.4127 -20.4126 -20.4124 -20.4124 -20.4087 -20.4086 -20.4084 -20.4084
   -20.3949 -20.3949 -20.3947 -20.3947 -20.3888 -20.3888 -20.3883 -20.3882
   -20.3838 -20.3838 -20.3837 -20.3837 -20.3833 -20.3833 -20.3826 -20.3826
   -20.3798 -20.3798 -20.3796 -20.3796 -20.3774 -20.3774 -20.3770 -20.3770
   -20.3760 -20.3760 -20.3742 -20.3742 -20.3739 -20.3739 -20.3725 -20.3725
   -20.3721 -20.3720 -20.3696 -20.3696 -20.3675 -20.3675 -20.3674 -20.3673
   -20.3648 -20.3648 -20.3636 -20.3636 -20.3598 -20.3598 -20.3593 -20.3593
    -9.2995  -9.2995  -9.2013  -9.2013  -8.9108  -8.9108  -8.8236  -8.8236
    -8.6190  -8.6190  -8.5825  -8.5825  -8.4744  -8.4744  -8.4591  -8.4590
    -8.4017  -8.4017  -8.3644  -8.3643  -8.2632  -8.2632  -8.1065  -8.1065
     2.1255   2.1255   2.2580   2.2580   2.8498   2.8499   2.9253   2.9253
     3.0178   3.0178   3.0670   3.0670   3.0992   3.0992   3.1435   3.1435
     3.3619   3.3619   3.3999   3.3999   3.5142   3.5142   3.6954   3.6954
     3.7564   3.7565   3.9060   3.9060   4.0945   4.0945   4.1699   4.1699
     4.2537   4.2537   4.2865   4.2866   4.3925   4.3926   4.4538   4.4538
     4.6094   4.6095   4.7245   4.7245   4.9547   4.9547   4.9761   4.9761
     6.8635   6.8635   7.0099   7.0099   7.0405   7.0406   7.0754   7.0754
     7.1720   7.1720   7.2720   7.2720   7.3210   7.3210   7.3729   7.3729
     7.4431   7.4431   7.5156   7.5156   7.5232   7.5233   7.6117   7.6117
    11.4031  11.4031  11.5355  11.5355  11.6339  11.6339  11.7330  11.7330
    12.0322  12.0323  12.1209  12.1209  12.2048  12.2048  12.2895  12.2895
    12.4160  12.4160  12.5653  12.5653  12.7420  12.7420  12.8336  12.8336
    16.2858  16.2858  16.4720  16.4720  16.9123  16.9123  17.0482  17.0482
    17.2716  17.2716  17.3909  17.3910  17.4838

     the Fermi energy is     8.8191 ev

!    total energy              =   -6261.10512065 Ry
     Harris-Foulkes estimate   =   -6261.10512065 Ry
     estimated scf accuracy    <          2.9E-11 Ry

     The total energy is the sum of the following terms:

     one-electron contribution =   -4733.12887997 Ry
     hartree contribution      =    2602.26227933 Ry
     xc contribution           =    -965.66144561 Ry
     ewald contribution        =   -3164.57707440 Ry
     smearing contrib. (-TS)   =      -0.00000000 Ry

     convergence has been achieved in  16 iterations

     Forces acting on atoms (cartesian axes, Ry/au):

     atom    1 type  1   force =     0.01484274    0.00209811    0.00686595
     atom    2 type  1   force =     0.00331706   -0.00381790    0.01617495
     atom    3 type  1   force =    -0.01484274   -0.00209811    0.00686595
     atom    4 type  1   force =    -0.00331706    0.00381790    0.01617495
     atom    5 type  1   force =    -0.01484274    0.00209811   -0.00686595
     atom    6 type  1   force =    -0.00331706   -0.00381790   -0.01617495
     atom    7 type  1   force =     0.01484274   -0.00209811   -0.00686595
     atom    8 type  1   force =     0.00331706    0.00381790   -0.01617495
     atom    9 type  2   force =    -0.00096547   -0.00285642    0.00091569
     atom   10 type  2   force =    -0.00198339    0.00248393   -0.00016845
     atom   11 type  2   force =     0.00096547    0.00285642    0.00091569
     atom   12 type  2   force =     0.00198339   -0.00248393   -0.00016845
     atom   13 type  2   force =     0.00096547   -0.00285642   -0.00091569
     atom   14 type  2   force =     0.00198339    0.00248393    0.00016845
     atom   15 type  2   force =    -0.00096547    0.00285642   -0.00091569
     atom   16 type  2   force =    -0.00198339   -0.00248393    0.00016845
     atom   17 type  2   force =     0.01012615   -0.00163474   -0.00050054
     atom   18 type  2   force =     0.00317123   -0.00068747   -0.00075107
     atom   19 type  2   force =    -0.01012615    0.00163474   -0.00050054
     atom   20 type  2   force =    -0.00317123    0.00068747   -0.00075107
     atom   21 type  2   force =    -0.01012615   -0.00163474    0.00050054
     atom   22 type  2   force =    -0.00317123   -0.00068747    0.00075107
     atom   23 type  2   force =     0.01012615    0.00163474    0.00050054
     atom   24 type  2   force =     0.00317123    0.00068747    0.00075107
     atom   25 type  2   force =    -0.00176610    0.00025371    0.00434338
     atom   26 type  2   force =     0.00152652   -0.00030112    0.01029882
     atom   27 type  2   force =     0.00176610   -0.00025371    0.00434338
     atom   28 type  2   force =    -0.00152652    0.00030112    0.01029882
     atom   29 type  2   force =     0.00176610    0.00025371   -0.00434338
     atom   30 type  2   force =    -0.00152652   -0.00030112   -0.01029882
     atom   31 type  2   force =    -0.00176610   -0.00025371   -0.00434338
     atom   32 type  2   force =     0.00152652    0.00030112   -0.01029882

     Total force =     0.000000     Total SCF correction =     0.000000


     Computing stress (Cartesian axis) and pressure

          total   stress  (Ry/bohr**3)                   (kbar)     P=    0.48
   0.00000505   0.00000000   0.00000000          0.74      0.00      0.00
   0.00000000  -0.00000127   0.00000000          0.00     -0.19      0.00
   0.00000000   0.00000000   0.00000607          0.00      0.00      0.89


     Writing output data file Landau_15.save
 
     init_run     :     98.48s CPU    101.61s WALL (       2 calls)
     electrons    :  12645.12s CPU  17355.51s WALL (       6 calls)
     update_pot   :    120.17s CPU    139.82s WALL (       4 calls)
     forces       :    208.56s CPU    238.44s WALL (       6 calls)
     stress       :   1697.21s CPU   1713.41s WALL (       6 calls)

     Called by init_run:
     wfcinit      :     73.58s CPU     76.22s WALL (       2 calls)
     potinit      :     10.75s CPU     10.81s WALL (       2 calls)

     Called by electrons:
     c_bands      :  11076.17s CPU  15337.22s WALL (      89 calls)
     sum_band     :   1470.70s CPU   1694.44s WALL (      89 calls)
     v_of_rho     :     14.07s CPU     38.41s WALL (      94 calls)
     mix_rho      :     20.65s CPU    186.84s WALL (      89 calls)

     Called by c_bands:
     init_us_2    :     88.65s CPU    127.05s WALL (     384 calls)
     cegterg      :   8107.97s CPU  11945.55s WALL (     178 calls)

     Called by sum_band:

     Called by *egterg:
     h_psi        :   6101.49s CPU   8738.79s WALL (     760 calls)
     g_psi        :     27.95s CPU     31.66s WALL (     578 calls)
     cdiaghg      :    100.67s CPU    154.62s WALL (     746 calls)

     Called by h_psi:
     h_psi:pot    :   6059.78s CPU   8553.49s WALL (     760 calls)
     h_psi:calbec :    781.68s CPU   2630.26s WALL (     760 calls)
     vloc_psi     :   4479.10s CPU   5056.59s WALL (     760 calls)
     add_vuspsi   :    798.98s CPU    863.48s WALL (     760 calls)

     General routines
     calbec       :    881.52s CPU   2729.78s WALL (     820 calls)
     fft          :      8.96s CPU      8.98s WALL (     424 calls)
     fftw         :   4565.96s CPU   4981.34s WALL (  231784 calls)
 
     Parallel routines
 
     PWSCF        :     4h 6m CPU        5h26m WALL

 
   This run was terminated on:   8:30: 9  23Mar2020            

=------------------------------------------------------------------------------=
   JOB DONE.
=------------------------------------------------------------------------------=
