
     Program PWSCF v.6.2 (svn rev. 14038) starts on 12Mar2020 at 19:23:42 

     This program is part of the open-source Quantum ESPRESSO suite
     for quantum simulation of materials; please cite
         "P. Giannozzi et al., J. Phys.:Condens. Matter 21 395502 (2009);
         "P. Giannozzi et al., J. Phys.:Condens. Matter 29 465901 (2017);
          URL http://www.quantum-espresso.org", 
     in publications or presentations arising from this work. More details at
     http://www.quantum-espresso.org/quote

     Parallel version (MPI), running on    40 processors

     MPI processes distributed on     6 nodes
     K-points division:     npool     =      40
     Reading input from rscf.in

     Current dimensions of program PWSCF are:
     Max number of different atomic species (ntypx) = 10
     Max number of k-points (npk) =  40000
     Max angular momentum in pseudopotentials (lmaxx) =  3

     Subspace diagonalization in iterative solution of the eigenvalue problem:
     a serial algorithm will be used

 
     G-vector sticks info
     --------------------
     sticks:   dense  smooth     PW     G-vecs:    dense   smooth      PW
     Sum        7747    7747   2077               498127   498127   69057
 


     bravais-lattice index     =            0
     lattice parameter (alat)  =      13.8397  a.u.
     unit-cell volume          =    2804.9816 (a.u.)^3
     number of atoms/cell      =           32
     number of atomic types    =            2
     number of electrons       =       368.00
     number of Kohn-Sham states=          221
     kinetic-energy cutoff     =     120.0000  Ry
     charge density cutoff     =     480.0000  Ry
     convergence threshold     =      1.0E-08
     mixing beta               =       0.7000
     number of iterations used =            8  plain     mixing
     Exchange-correlation      = SLA PW NOGX NOGC ( 1  4  0  0 0 0)
     nstep                     =           50


     celldm(1)=  13.839685  celldm(2)=   0.000000  celldm(3)=   0.000000
     celldm(4)=   0.000000  celldm(5)=   0.000000  celldm(6)=   0.000000

     crystal axes: (cart. coord. in units of alat)
               a(1) = (   1.000000   0.000000   0.000000 )  
               a(2) = (   0.000000   1.058160   0.000000 )  
               a(3) = (   0.000000   0.000000   1.000000 )  

     reciprocal axes: (cart. coord. in units 2 pi/alat)
               b(1) = (  1.000000  0.000000  0.000000 )  
               b(2) = (  0.000000  0.945037  0.000000 )  
               b(3) = (  0.000000  0.000000  1.000000 )  


     PseudoPot. # 1 for W  read from file:
     /cluster/scratch/mnoe/QE/pps/W_ONCV_LDA-4.0.upf
     MD5 check sum: ba0307d5d4cd419d6f1d13dc49d7c13a
     Pseudo is Norm-conserving + core correction, Zval = 28.0
     Generated using ONCVPSP code by D. R. Hamann
     Using radial grid of 1380 points,  8 beta functions with: 
                l(1) =   0
                l(2) =   0
                l(3) =   1
                l(4) =   1
                l(5) =   2
                l(6) =   2
                l(7) =   3
                l(8) =   3

     PseudoPot. # 2 for O  read from file:
     /cluster/scratch/mnoe/QE/pps/O_ONCV_LDA-3.0.upf
     MD5 check sum: a1bd6164e7280c17a38c229939bfbd54
     Pseudo is Norm-conserving + core correction, Zval =  6.0
     Generated using ONCVPSP code by D. R. Hamann
     Using radial grid of  926 points,  5 beta functions with: 
                l(1) =   0
                l(2) =   0
                l(3) =   1
                l(4) =   1
                l(5) =   2

     atomic species   valence    mass     pseudopotential
        W             28.00   183.84000     W ( 1.00)
        O              6.00    15.99940     O ( 1.00)

      8 Sym. Ops., with inversion, found ( 6 have fractional translation)



   Cartesian axes

     site n.     atom                  positions (alat units)
         1           W   tau(   1) = (   0.2407500   0.2940607   0.0087400  )
         2           W   tau(   2) = (   0.7592500   0.7640994   0.9912600  )
         3           W   tau(   3) = (   0.2592500   0.2350194   0.5087400  )
         4           W   tau(   4) = (   0.7407500   0.8231407   0.4912600  )
         5           W   tau(   5) = (   0.7592500   0.2940607   0.4912600  )
         6           W   tau(   6) = (   0.2407500   0.7640994   0.5087400  )
         7           W   tau(   7) = (   0.7407500   0.2350194   0.9912600  )
         8           W   tau(   8) = (   0.2592500   0.8231407   0.0087400  )
         9           O   tau(   9) = (   0.2329400   0.0076618   0.0027200  )
        10           O   tau(  10) = (   0.7670599   1.0504983   0.9972800  )
        11           O   tau(  11) = (   0.2670600   0.5214183   0.5027200  )
        12           O   tau(  12) = (   0.7329400   0.5367418   0.4972800  )
        13           O   tau(  13) = (   0.7670599   0.0076618   0.4972800  )
        14           O   tau(  14) = (   0.2329400   1.0504983   0.5027200  )
        15           O   tau(  15) = (   0.7329400   0.5214183   0.9972800  )
        16           O   tau(  16) = (   0.2670600   0.5367418   0.0027200  )
        17           O   tau(  17) = (   0.5025300   0.2460222   0.4592276  )
        18           O   tau(  18) = (   0.4974700   0.8121379   0.5407724  )
        19           O   tau(  19) = (   0.9974700   0.2830578   0.9592277  )
        20           O   tau(  20) = (   0.0025300   0.7751023   0.0407723  )
        21           O   tau(  21) = (   0.4974700   0.2460222   0.0407723  )
        22           O   tau(  22) = (   0.5025300   0.8121379   0.9592277  )
        23           O   tau(  23) = (   0.0025300   0.2830578   0.5407724  )
        24           O   tau(  24) = (   0.9974700   0.7751023   0.4592276  )
        25           O   tau(  25) = (   0.7092276   0.2604978   0.7461599  )
        26           O   tau(  26) = (   0.2907723   0.7976622   0.2538400  )
        27           O   tau(  27) = (   0.7907724   0.2685822   0.2461600  )
        28           O   tau(  28) = (   0.2092276   0.7895779   0.7538400  )
        29           O   tau(  29) = (   0.2907723   0.2604978   0.7538400  )
        30           O   tau(  30) = (   0.7092276   0.7976622   0.2461600  )
        31           O   tau(  31) = (   0.2092276   0.2685822   0.2538400  )
        32           O   tau(  32) = (   0.7907724   0.7895779   0.7461599  )

     number of k points=    64  gaussian smearing, width (Ry)=  0.0007
                       cart. coord. in units 2pi/alat
        k(    1) = (   0.0000000   0.0000000   0.0000000), wk =   0.0092593
        k(    2) = (   0.0000000   0.0000000   0.1666667), wk =   0.0185185
        k(    3) = (   0.0000000   0.0000000   0.3333333), wk =   0.0185185
        k(    4) = (   0.0000000   0.0000000  -0.5000000), wk =   0.0092593
        k(    5) = (   0.0000000   0.1575061   0.0000000), wk =   0.0185185
        k(    6) = (   0.0000000   0.1575061   0.1666667), wk =   0.0370370
        k(    7) = (   0.0000000   0.1575061   0.3333333), wk =   0.0370370
        k(    8) = (   0.0000000   0.1575061  -0.5000000), wk =   0.0185185
        k(    9) = (   0.0000000   0.3150122   0.0000000), wk =   0.0185185
        k(   10) = (   0.0000000   0.3150122   0.1666667), wk =   0.0370370
        k(   11) = (   0.0000000   0.3150122   0.3333333), wk =   0.0370370
        k(   12) = (   0.0000000   0.3150122  -0.5000000), wk =   0.0185185
        k(   13) = (   0.0000000  -0.4725183   0.0000000), wk =   0.0092593
        k(   14) = (   0.0000000  -0.4725183   0.1666667), wk =   0.0185185
        k(   15) = (   0.0000000  -0.4725183   0.3333333), wk =   0.0185185
        k(   16) = (   0.0000000  -0.4725183  -0.5000000), wk =   0.0092593
        k(   17) = (   0.1666667   0.0000000   0.1666667), wk =   0.0370370
        k(   18) = (   0.1666667   0.0000000   0.3333333), wk =   0.0370370
        k(   19) = (   0.1666667   0.0000000  -0.5000000), wk =   0.0185185
        k(   20) = (   0.1666667   0.1575061   0.1666667), wk =   0.0740741
        k(   21) = (   0.1666667   0.1575061   0.3333333), wk =   0.0740741
        k(   22) = (   0.1666667   0.1575061  -0.5000000), wk =   0.0370370
        k(   23) = (   0.1666667   0.3150122   0.1666667), wk =   0.0740741
        k(   24) = (   0.1666667   0.3150122   0.3333333), wk =   0.0740741
        k(   25) = (   0.1666667   0.3150122  -0.5000000), wk =   0.0370370
        k(   26) = (   0.1666667  -0.4725183   0.1666667), wk =   0.0370370
        k(   27) = (   0.1666667  -0.4725183   0.3333333), wk =   0.0370370
        k(   28) = (   0.1666667  -0.4725183  -0.5000000), wk =   0.0185185
        k(   29) = (   0.3333333   0.0000000   0.3333333), wk =   0.0370370
        k(   30) = (   0.3333333   0.0000000  -0.5000000), wk =   0.0185185
        k(   31) = (   0.3333333   0.1575061   0.3333333), wk =   0.0740741
        k(   32) = (   0.3333333   0.1575061  -0.5000000), wk =   0.0370370
        k(   33) = (   0.3333333   0.3150122   0.3333333), wk =   0.0740741
        k(   34) = (   0.3333333   0.3150122  -0.5000000), wk =   0.0370370
        k(   35) = (   0.3333333  -0.4725183   0.3333333), wk =   0.0370370
        k(   36) = (   0.3333333  -0.4725183  -0.5000000), wk =   0.0185185
        k(   37) = (  -0.5000000   0.0000000  -0.5000000), wk =   0.0092593
        k(   38) = (  -0.5000000   0.1575061  -0.5000000), wk =   0.0185185
        k(   39) = (  -0.5000000   0.3150122  -0.5000000), wk =   0.0185185
        k(   40) = (  -0.5000000  -0.4725183  -0.5000000), wk =   0.0092593
        k(   41) = (   0.1666667   0.0000000   0.0000000), wk =   0.0185185
        k(   42) = (   0.3333333   0.0000000   0.0000000), wk =   0.0185185
        k(   43) = (  -0.5000000   0.0000000   0.0000000), wk =   0.0092593
        k(   44) = (   0.1666667  -0.1575061   0.0000000), wk =   0.0370370
        k(   45) = (   0.3333333  -0.1575061   0.0000000), wk =   0.0370370
        k(   46) = (  -0.5000000  -0.1575061   0.0000000), wk =   0.0185185
        k(   47) = (   0.1666667  -0.3150122   0.0000000), wk =   0.0370370
        k(   48) = (   0.3333333  -0.3150122   0.0000000), wk =   0.0370370
        k(   49) = (  -0.5000000  -0.3150122   0.0000000), wk =   0.0185185
        k(   50) = (   0.1666667   0.4725183   0.0000000), wk =   0.0185185
        k(   51) = (   0.3333333   0.4725183   0.0000000), wk =   0.0185185
        k(   52) = (  -0.5000000   0.4725183   0.0000000), wk =   0.0092593
        k(   53) = (   0.3333333   0.0000000   0.1666667), wk =   0.0370370
        k(   54) = (  -0.5000000   0.0000000   0.1666667), wk =   0.0185185
        k(   55) = (   0.3333333  -0.1575061   0.1666667), wk =   0.0740741
        k(   56) = (  -0.5000000  -0.1575061   0.1666667), wk =   0.0370370
        k(   57) = (   0.3333333  -0.3150122   0.1666667), wk =   0.0740741
        k(   58) = (  -0.5000000  -0.3150122   0.1666667), wk =   0.0370370
        k(   59) = (   0.3333333   0.4725183   0.1666667), wk =   0.0370370
        k(   60) = (  -0.5000000   0.4725183   0.1666667), wk =   0.0185185
        k(   61) = (  -0.5000000   0.0000000   0.3333333), wk =   0.0185185
        k(   62) = (  -0.5000000  -0.1575061   0.3333333), wk =   0.0370370
        k(   63) = (  -0.5000000  -0.3150122   0.3333333), wk =   0.0370370
        k(   64) = (  -0.5000000   0.4725183   0.3333333), wk =   0.0185185

     Dense  grid:   498127 G-vectors     FFT dimensions: ( 100, 108, 100)

     Estimated max dynamical RAM per process >       3.15 GB

     Estimated total dynamical RAM >     125.81 GB

     Initial potential from superposition of free atoms

     starting charge  367.99656, renormalised to  368.00000
     Starting wfc are  232 randomized atomic wfcs

     total cpu time spent up to now is       65.9 secs

     Self-consistent Calculation

     iteration #  1     ecut=   120.00 Ry     beta= 0.70
     Davidson diagonalization with overlap
     ethr =  1.00E-02,  avg # of iterations =  5.1

     total cpu time spent up to now is      248.0 secs

     total energy              =   -6254.02684381 Ry
     Harris-Foulkes estimate   =   -6264.57151352 Ry
     estimated scf accuracy    <      13.36438860 Ry

     iteration #  2     ecut=   120.00 Ry     beta= 0.70
     Davidson diagonalization with overlap
     ethr =  3.63E-03,  avg # of iterations =  3.5

     total cpu time spent up to now is      421.8 secs

     total energy              =   -6250.93708700 Ry
     Harris-Foulkes estimate   =   -6270.61727595 Ry
     estimated scf accuracy    <      52.74168722 Ry

     iteration #  3     ecut=   120.00 Ry     beta= 0.70
     Davidson diagonalization with overlap
     ethr =  3.63E-03,  avg # of iterations =  3.5

     total cpu time spent up to now is      586.2 secs

     total energy              =   -6261.05170775 Ry
     Harris-Foulkes estimate   =   -6261.40522347 Ry
     estimated scf accuracy    <       1.12692003 Ry

     iteration #  4     ecut=   120.00 Ry     beta= 0.70
     Davidson diagonalization with overlap
     ethr =  3.06E-04,  avg # of iterations =  2.7

     total cpu time spent up to now is      723.7 secs

     total energy              =   -6261.08480016 Ry
     Harris-Foulkes estimate   =   -6261.16798919 Ry
     estimated scf accuracy    <       0.28798004 Ry

     iteration #  5     ecut=   120.00 Ry     beta= 0.70
     Davidson diagonalization with overlap
     ethr =  7.83E-05,  avg # of iterations =  4.2

     total cpu time spent up to now is      864.2 secs

     total energy              =   -6261.07271633 Ry
     Harris-Foulkes estimate   =   -6261.11332708 Ry
     estimated scf accuracy    <       0.08797606 Ry

     iteration #  6     ecut=   120.00 Ry     beta= 0.70
     Davidson diagonalization with overlap
     ethr =  2.39E-05,  avg # of iterations =  5.8

     total cpu time spent up to now is     1018.9 secs

     total energy              =   -6261.09265120 Ry
     Harris-Foulkes estimate   =   -6261.09429739 Ry
     estimated scf accuracy    <       0.00491868 Ry

     iteration #  7     ecut=   120.00 Ry     beta= 0.70
     Davidson diagonalization with overlap
     ethr =  1.34E-06,  avg # of iterations =  5.8

     total cpu time spent up to now is     1166.3 secs

     total energy              =   -6261.09309629 Ry
     Harris-Foulkes estimate   =   -6261.09324643 Ry
     estimated scf accuracy    <       0.00041407 Ry

     iteration #  8     ecut=   120.00 Ry     beta= 0.70
     Davidson diagonalization with overlap
     ethr =  1.13E-07,  avg # of iterations =  3.0

     total cpu time spent up to now is     1308.7 secs

     total energy              =   -6261.09314984 Ry
     Harris-Foulkes estimate   =   -6261.09317446 Ry
     estimated scf accuracy    <       0.00005179 Ry

     iteration #  9     ecut=   120.00 Ry     beta= 0.70
     Davidson diagonalization with overlap
     ethr =  1.41E-08,  avg # of iterations =  3.0

     total cpu time spent up to now is     1455.9 secs

     total energy              =   -6261.09316331 Ry
     Harris-Foulkes estimate   =   -6261.09316543 Ry
     estimated scf accuracy    <       0.00000661 Ry

     iteration # 10     ecut=   120.00 Ry     beta= 0.70
     Davidson diagonalization with overlap
     ethr =  1.80E-09,  avg # of iterations =  2.0

     total cpu time spent up to now is     1593.6 secs

     total energy              =   -6261.09316330 Ry
     Harris-Foulkes estimate   =   -6261.09316422 Ry
     estimated scf accuracy    <       0.00000197 Ry

     iteration # 11     ecut=   120.00 Ry     beta= 0.70
     Davidson diagonalization with overlap
     ethr =  5.36E-10,  avg # of iterations =  2.8

     total cpu time spent up to now is     1738.1 secs

     total energy              =   -6261.09316372 Ry
     Harris-Foulkes estimate   =   -6261.09316374 Ry
     estimated scf accuracy    <       0.00000004 Ry

     iteration # 12     ecut=   120.00 Ry     beta= 0.70
     Davidson diagonalization with overlap
     ethr =  1.21E-11,  avg # of iterations =  2.1

     total cpu time spent up to now is     1900.2 secs

     End of self-consistent calculation

          k = 0.0000 0.0000 0.0000 ( 62239 PWs)   bands (ev):

   -66.1615 -66.1611 -66.1605 -66.1604 -66.1601 -66.1600 -66.1594 -66.1591
   -30.5643 -30.5617 -30.5584 -30.5559 -30.5539 -30.5501 -30.5486 -30.5451
   -30.4904 -30.4898 -30.4897 -30.4888 -30.4610 -30.4564 -30.4518 -30.4509
   -30.4507 -30.4457 -30.4457 -30.4390 -30.4329 -30.4267 -30.4254 -30.4197
   -20.3171 -20.3171 -20.3169 -20.3169 -20.3167 -20.3167 -20.3166 -20.3166
   -20.2953 -20.2948 -20.2946 -20.2943 -20.2941 -20.2939 -20.2934 -20.2930
   -20.2925 -20.2921 -20.2921 -20.2919 -20.2917 -20.2916 -20.2915 -20.2913
   -20.2913 -20.2913 -20.2908 -20.2905 -20.2874 -20.2868 -20.2868 -20.2865
   -20.2863 -20.2860 -20.2857 -20.2853 -20.2851 -20.2850 -20.2843 -20.2841
   -20.2794 -20.2794 -20.2789 -20.2789 -20.2775 -20.2774 -20.2762 -20.2761
   -20.2756 -20.2754 -20.2742 -20.2739 -20.2738 -20.2738 -20.2723 -20.2722
   -10.0284  -9.8161  -9.6010  -9.5682  -9.4401  -9.3913  -9.1965  -9.1801
    -8.9032  -8.7889  -8.7845  -8.7841  -7.8440  -7.8310  -7.7930  -7.7848
    -7.7212  -7.7147  -7.7060  -7.7021  -7.6741  -7.6433  -7.6430  -7.6009
     0.9561   0.9606   1.0738   1.0766   1.1364   1.1405   1.3304   1.4313
     1.7482   1.7504   1.7639   1.8522   2.2277   2.3083   2.5870   2.5935
     2.7293   2.7302   4.1022   4.1684   4.2191   4.3089   4.5785   4.5971
     4.6104   4.6298   4.8697   5.0153   5.1086   5.1230   5.1507   5.4613
     5.5060   5.5140   5.5483   5.5638   5.5799   5.5917   5.6440   5.7650
     5.8777   5.8918   5.9467   5.9568   6.0024   6.0170   6.0268   6.0836
     6.1313   6.2759   6.3055   6.3857   6.4521   6.7339   6.8998   6.9335
     6.9851   6.9999   7.0012   7.0179   7.0251   7.0499   7.1724   7.1917
     7.2223   7.2391   7.8822   7.8969   8.0678   8.1274   8.1316   8.1901
     9.2941   9.3125   9.8521   9.8622   9.8741   9.8800  12.2261  12.3062
    12.4318  12.4737  12.4850  12.4974  12.5264  12.5383  12.8805  13.1144
    13.2855  13.3289  13.3598  13.4783  13.7057  13.8697  14.1287  14.1404
    14.3025  14.3553  14.5442  14.8857  15.3749  15.4624  15.4823  16.1958
    16.1979  16.9955  17.1527  17.1868  17.3590

          k = 0.0000 0.0000 0.1667 ( 62262 PWs)   bands (ev):

   -66.1614 -66.1610 -66.1605 -66.1604 -66.1601 -66.1600 -66.1595 -66.1591
   -30.5579 -30.5559 -30.5528 -30.5519 -30.5493 -30.5491 -30.5490 -30.5455
   -30.4916 -30.4898 -30.4893 -30.4891 -30.4678 -30.4632 -30.4584 -30.4560
   -30.4504 -30.4461 -30.4453 -30.4401 -30.4325 -30.4273 -30.4251 -30.4202
   -20.3170 -20.3170 -20.3169 -20.3169 -20.3168 -20.3168 -20.3166 -20.3166
   -20.2952 -20.2948 -20.2946 -20.2942 -20.2941 -20.2939 -20.2935 -20.2931
   -20.2924 -20.2921 -20.2921 -20.2920 -20.2917 -20.2916 -20.2916 -20.2914
   -20.2913 -20.2913 -20.2908 -20.2905 -20.2875 -20.2869 -20.2869 -20.2864
   -20.2864 -20.2861 -20.2856 -20.2853 -20.2845 -20.2844 -20.2836 -20.2835
   -20.2795 -20.2793 -20.2790 -20.2788 -20.2778 -20.2778 -20.2762 -20.2761
   -20.2760 -20.2759 -20.2744 -20.2741 -20.2737 -20.2737 -20.2724 -20.2723
    -9.9747  -9.7576  -9.5834  -9.5179  -9.4030  -9.3454  -9.1554  -9.1394
    -8.9134  -8.7890  -8.7782  -8.7751  -7.9631  -7.9503  -7.8557  -7.8520
    -7.8110  -7.7770  -7.7280  -7.7019  -7.6814  -7.6479  -7.6469  -7.6044
     1.0723   1.0738   1.1383   1.1438   1.3379   1.3514   1.4417   1.5969
     1.7437   1.7556   1.7660   1.9106   2.3181   2.3990   2.6020   2.6782
     2.7207   2.8173   4.0996   4.1108   4.2357   4.2565   4.2731   4.2917
     4.6566   4.6697   4.7231   4.7905   4.8512   5.1095   5.1477   5.2710
     5.2891   5.4634   5.4711   5.5393   5.5951   5.6477   5.6681   5.6752
     5.6808   5.9150   5.9256   5.9667   6.0083   6.0231   6.0997   6.1374
     6.2151   6.3557   6.4408   6.4519   6.7257   6.7670   6.7969   6.8566
     6.8677   6.9099   6.9689   6.9803   7.0131   7.0159   7.0263   7.0506
     7.0513   7.1090   7.8676   7.8746   8.0844   8.0904   8.1342   8.1455
     9.6325   9.6486   9.8515   9.8832  10.1449  10.1755  12.2678  12.2962
    12.4031  12.4050  12.4752  12.4793  12.5475  12.6115  12.9148  12.9688
    13.1047  13.2885  13.3711  13.4768  13.7994  13.8695  13.9748  14.0101
    14.3158  14.4740  14.5390  15.0088  15.3442  15.5161  15.5673  16.1722
    16.5336  16.8895  17.1702  17.3688  17.5769

          k = 0.0000 0.0000 0.3333 ( 62268 PWs)   bands (ev):

   -66.1612 -66.1608 -66.1607 -66.1603 -66.1602 -66.1598 -66.1597 -66.1593
   -30.5530 -30.5500 -30.5498 -30.5465 -30.5378 -30.5368 -30.5329 -30.5317
   -30.4972 -30.4944 -30.4875 -30.4871 -30.4866 -30.4820 -30.4732 -30.4704
   -30.4495 -30.4471 -30.4444 -30.4416 -30.4315 -30.4285 -30.4241 -30.4214
   -20.3170 -20.3170 -20.3168 -20.3168 -20.3168 -20.3168 -20.3167 -20.3167
   -20.2951 -20.2948 -20.2946 -20.2942 -20.2941 -20.2937 -20.2936 -20.2933
   -20.2924 -20.2922 -20.2921 -20.2920 -20.2917 -20.2917 -20.2916 -20.2915
   -20.2914 -20.2913 -20.2907 -20.2906 -20.2875 -20.2871 -20.2870 -20.2866
   -20.2864 -20.2862 -20.2855 -20.2854 -20.2830 -20.2830 -20.2821 -20.2820
   -20.2799 -20.2796 -20.2791 -20.2788 -20.2787 -20.2787 -20.2774 -20.2773
   -20.2758 -20.2757 -20.2748 -20.2746 -20.2735 -20.2734 -20.2727 -20.2726
    -9.8469  -9.6309  -9.6254  -9.4397  -9.2987  -9.0754  -9.0229  -8.9890
    -8.9528  -8.8062  -8.7503  -8.7184  -8.2934  -8.2852  -8.2193  -8.1948
    -7.7989  -7.7569  -7.7466  -7.7014  -7.6916  -7.6601  -7.6390  -7.6138
     1.1434   1.1437   1.1524   1.1537   1.6613   1.6861   1.7297   1.7384
     2.0945   2.1601   2.2687   2.3722   2.5806   2.6186   2.6702   2.7020
     2.9261   3.0460   3.5910   3.6741   3.9009   3.9287   4.1793   4.1893
     4.2501   4.4454   4.4770   4.7031   4.7692   4.7913   4.8092   4.9829
     5.0460   5.0873   5.1632   5.3317   5.3663   5.4038   5.6965   5.7903
     5.8217   5.8905   5.9368   5.9570   6.0601   6.1240   6.1607   6.2612
     6.2673   6.4029   6.4427   6.4428   6.4592   6.5914   6.7067   6.7204
     6.7638   6.9409   6.9916   7.0025   7.0131   7.0208   7.0414   7.0715
     7.2588   7.3229   7.7553   7.7672   7.9450   8.0009   8.1219   8.1367
     9.8348   9.8490  10.3777  10.4429  10.8045  10.8683  11.9174  11.9733
    12.1590  12.4564  12.4830  12.5041  12.6345  12.6869  12.7085  12.8396
    12.9130  13.2584  13.3007  13.3083  13.6098  13.6920  13.8707  13.8884
    14.3999  14.5214  14.7728  15.2454  15.3101  15.7172  16.0446  16.0912
    16.3231  17.4321  17.5463  17.7101  17.7291

          k = 0.0000 0.0000-0.5000 ( 62264 PWs)   bands (ev):

   -66.1610 -66.1610 -66.1606 -66.1606 -66.1600 -66.1599 -66.1596 -66.1595
   -30.5515 -30.5515 -30.5480 -30.5480 -30.5139 -30.5139 -30.5124 -30.5124
   -30.5094 -30.5094 -30.5075 -30.5075 -30.4837 -30.4837 -30.4824 -30.4824
   -30.4483 -30.4483 -30.4431 -30.4431 -30.4301 -30.4301 -30.4228 -30.4228
   -20.3169 -20.3169 -20.3169 -20.3169 -20.3168 -20.3168 -20.3167 -20.3167
   -20.2949 -20.2949 -20.2944 -20.2944 -20.2938 -20.2938 -20.2935 -20.2935
   -20.2923 -20.2923 -20.2920 -20.2919 -20.2919 -20.2919 -20.2915 -20.2914
   -20.2914 -20.2914 -20.2906 -20.2906 -20.2873 -20.2873 -20.2868 -20.2868
   -20.2863 -20.2863 -20.2855 -20.2854 -20.2812 -20.2812 -20.2812 -20.2812
   -20.2802 -20.2802 -20.2802 -20.2802 -20.2786 -20.2786 -20.2784 -20.2784
   -20.2754 -20.2754 -20.2752 -20.2752 -20.2731 -20.2731 -20.2730 -20.2730
    -9.7183  -9.7183  -9.5093  -9.5093  -9.0656  -9.0656  -8.8603  -8.8602
    -8.6921  -8.6921  -8.6684  -8.6684  -8.6164  -8.6164  -8.5415  -8.5414
    -7.7727  -7.7727  -7.7290  -7.7290  -7.6762  -7.6762  -7.6266  -7.6266
     1.1494   1.1494   1.1611   1.1611   1.7134   1.7134   1.7190   1.7190
     2.6500   2.6500   2.9113   2.9113   3.0101   3.0101   3.0587   3.0587
     3.1382   3.1382   3.1850   3.1850   3.3663   3.3663   3.7178   3.7179
     3.8400   3.8400   4.3600   4.3600   4.7030   4.7030   4.9104   4.9104
     5.1725   5.1726   5.1848   5.1848   5.2191   5.2191   5.8036   5.8036
     5.8492   5.8492   6.0424   6.0424   6.0824   6.0824   6.2201   6.2201
     6.2324   6.2324   6.3172   6.3172   6.4737   6.4738   6.5930   6.5930
     6.8053   6.8053   7.0052   7.0052   7.0262   7.0262   7.4618   7.4618
     7.4960   7.4961   7.6758   7.6759   7.7292   7.7293   8.1348   8.1348
     9.8442   9.8442  11.2004  11.2004  11.2663  11.2663  11.5702  11.5702
    11.6956  11.6956  12.5159  12.5159  12.7663  12.7663  12.9398  12.9398
    12.9788  12.9788  13.2048  13.2049  13.4020  13.4020  13.8791  13.8791
    14.4823  14.4824  15.0594  15.0594  15.7589  15.7589  15.9418  15.9418
    16.8428  16.8428  17.9197  17.9197  18.0698

          k = 0.0000 0.1575 0.0000 ( 62231 PWs)   bands (ev):

   -66.1614 -66.1611 -66.1604 -66.1604 -66.1601 -66.1601 -66.1594 -66.1591
   -30.5641 -30.5619 -30.5582 -30.5560 -30.5536 -30.5503 -30.5483 -30.5453
   -30.4870 -30.4862 -30.4862 -30.4852 -30.4613 -30.4567 -30.4517 -30.4517
   -30.4510 -30.4465 -30.4453 -30.4386 -30.4367 -30.4302 -30.4284 -30.4225
   -20.3171 -20.3171 -20.3169 -20.3169 -20.3167 -20.3167 -20.3166 -20.3166
   -20.2952 -20.2947 -20.2945 -20.2943 -20.2940 -20.2940 -20.2935 -20.2931
   -20.2924 -20.2920 -20.2919 -20.2916 -20.2916 -20.2916 -20.2915 -20.2912
   -20.2911 -20.2910 -20.2908 -20.2906 -20.2877 -20.2872 -20.2871 -20.2867
   -20.2864 -20.2860 -20.2858 -20.2854 -20.2851 -20.2850 -20.2842 -20.2841
   -20.2794 -20.2793 -20.2789 -20.2789 -20.2775 -20.2774 -20.2762 -20.2761
   -20.2756 -20.2754 -20.2742 -20.2739 -20.2738 -20.2738 -20.2723 -20.2722
   -10.0079  -9.8256  -9.5818  -9.5470  -9.4458  -9.3976  -9.1954  -9.1812
    -8.8312  -8.7347  -8.7314  -8.7309  -7.8633  -7.8295  -7.7943  -7.7865
    -7.7794  -7.7739  -7.7596  -7.7132  -7.7052  -7.6873  -7.6858  -7.6760
     0.9563   0.9602   1.0742   1.0773   1.1391   1.1408   1.3735   1.4310
     1.9261   1.9796   1.9963   2.0978   2.2338   2.3027   2.6600   2.6639
     2.7962   2.8006   3.9592   4.0012   4.0290   4.0788   4.5811   4.5936
     4.6051   4.6251   4.7382   5.0744   5.0961   5.1181   5.1393   5.3010
     5.3280   5.4616   5.4779   5.6050   5.6171   5.6534   5.6775   5.7407
     5.7811   5.8563   5.8634   5.9689   6.0004   6.0337   6.0870   6.0897
     6.0958   6.2628   6.3231   6.4092   6.4954   6.7542   6.8033   6.8767
     6.9040   6.9196   6.9646   6.9764   6.9969   7.0062   7.1802   7.1898
     7.2324   7.2369   7.8843   7.8960   8.0372   8.0692   8.0852   8.1107
     9.3004   9.3131  10.0497  10.0525  10.0772  10.0793  12.0972  12.1855
    12.2735  12.3124  12.4888  12.5132  12.5267  12.5354  12.9077  13.1260
    13.2959  13.3387  13.3658  13.4895  13.8818  13.8838  14.0360  14.0500
    14.4072  14.6466  14.7318  15.0028  15.4620  15.4792  15.7806  16.1580
    16.1639  16.6894  17.2669  17.3045  17.5141

          k = 0.0000 0.1575 0.1667 ( 62237 PWs)   bands (ev):

   -66.1614 -66.1610 -66.1605 -66.1604 -66.1602 -66.1600 -66.1595 -66.1591
   -30.5577 -30.5560 -30.5526 -30.5518 -30.5494 -30.5493 -30.5487 -30.5457
   -30.4884 -30.4866 -30.4857 -30.4853 -30.4680 -30.4634 -30.4582 -30.4559
   -30.4514 -30.4470 -30.4449 -30.4397 -30.4364 -30.4308 -30.4281 -30.4230
   -20.3170 -20.3170 -20.3169 -20.3169 -20.3168 -20.3168 -20.3166 -20.3166
   -20.2951 -20.2947 -20.2945 -20.2943 -20.2940 -20.2939 -20.2935 -20.2931
   -20.2924 -20.2921 -20.2919 -20.2917 -20.2916 -20.2915 -20.2915 -20.2912
   -20.2912 -20.2910 -20.2908 -20.2906 -20.2877 -20.2873 -20.2872 -20.2867
   -20.2864 -20.2860 -20.2857 -20.2854 -20.2845 -20.2844 -20.2836 -20.2835
   -20.2794 -20.2793 -20.2790 -20.2789 -20.2778 -20.2778 -20.2761 -20.2761
   -20.2760 -20.2760 -20.2744 -20.2741 -20.2737 -20.2737 -20.2724 -20.2723
    -9.9535  -9.7672  -9.5619  -9.4964  -9.4095  -9.3512  -9.1543  -9.1405
    -8.8415  -8.7369  -8.7253  -8.7231  -7.9613  -7.9561  -7.8682  -7.8541
    -7.8214  -7.7790  -7.7764  -7.7740  -7.7437  -7.7038  -7.6936  -7.6833
     1.0724   1.0743   1.1415   1.1440   1.3460   1.3517   1.5117   1.5966
     1.9294   1.9823   1.9918   2.1164   2.3243   2.3934   2.6719   2.7531
     2.7879   2.8882   3.9781   3.9965   4.0523   4.0643   4.2378   4.2695
     4.6483   4.6598   4.7216   4.7544   4.8041   5.1011   5.1297   5.2051
     5.2602   5.2947   5.3917   5.4437   5.5450   5.5683   5.6805   5.7042
     5.7935   5.8210   5.8684   5.9918   6.0026   6.0202   6.0891   6.1322
     6.1859   6.2968   6.4427   6.4872   6.7363   6.7441   6.8072   6.8338
     6.8613   6.8918   6.9279   6.9581   6.9798   6.9840   6.9943   7.0332
     7.0848   7.1146   7.8685   7.8747   8.0444   8.0456   8.0719   8.0724
     9.6507   9.6537  10.0543  10.0848  10.2963  10.3299  12.1674  12.1738
    12.3132  12.3383  12.3896  12.4064  12.5625  12.5926  12.9442  12.9997
    13.1152  13.2971  13.3669  13.4779  13.8783  13.8822  13.9208  13.9239
    14.4676  14.7177  14.7981  15.1156  15.5139  15.5682  15.7516  16.1344
    16.4975  16.8467  16.9956  17.4636  17.5863

          k = 0.0000 0.1575 0.3333 ( 62284 PWs)   bands (ev):

   -66.1612 -66.1608 -66.1607 -66.1603 -66.1602 -66.1598 -66.1597 -66.1593
   -30.5527 -30.5500 -30.5498 -30.5468 -30.5377 -30.5368 -30.5328 -30.5317
   -30.4950 -30.4919 -30.4866 -30.4841 -30.4835 -30.4820 -30.4720 -30.4694
   -30.4505 -30.4480 -30.4440 -30.4412 -30.4353 -30.4322 -30.4271 -30.4243
   -20.3170 -20.3170 -20.3168 -20.3168 -20.3168 -20.3168 -20.3167 -20.3167
   -20.2950 -20.2946 -20.2945 -20.2941 -20.2941 -20.2938 -20.2937 -20.2933
   -20.2923 -20.2921 -20.2919 -20.2918 -20.2916 -20.2915 -20.2915 -20.2914
   -20.2913 -20.2912 -20.2907 -20.2906 -20.2878 -20.2874 -20.2873 -20.2869
   -20.2864 -20.2861 -20.2856 -20.2855 -20.2830 -20.2830 -20.2821 -20.2820
   -20.2799 -20.2797 -20.2791 -20.2788 -20.2787 -20.2787 -20.2774 -20.2773
   -20.2758 -20.2757 -20.2748 -20.2746 -20.2735 -20.2734 -20.2727 -20.2726
    -9.8242  -9.6347  -9.6088  -9.4467  -9.2670  -9.0813  -9.0187  -8.9905
    -8.8826  -8.7565  -8.7021  -8.6765  -8.2976  -8.2818  -8.2262  -8.1913
    -7.8232  -7.7882  -7.7589  -7.7589  -7.7377  -7.7142  -7.7108  -7.7034
     1.1477   1.1489   1.1525   1.1538   1.8506   1.8685   1.9514   1.9798
     2.0940   2.1939   2.2684   2.4106   2.5873   2.6509   2.6990   2.7711
     3.0018   3.1125   3.5928   3.6689   3.8755   3.8856   4.0660   4.0736
     4.2420   4.3346   4.4922   4.6408   4.6785   4.6921   4.7216   4.9728
     4.9827   5.0227   5.1339   5.2062   5.3375   5.4141   5.4306   5.7269
     5.7781   5.8685   5.9069   5.9411   6.0014   6.0729   6.1268   6.1359
     6.3116   6.4387   6.4453   6.4686   6.5559   6.6989   6.7017   6.7804
     6.8519   6.8857   6.9046   6.9397   6.9740   7.0055   7.0622   7.1066
     7.2609   7.3199   7.7598   7.7655   7.9124   7.9449   8.0635   8.0751
    10.0446  10.0578  10.3863  10.4496  10.9091  10.9601  11.9153  11.9716
    12.1167  12.3231  12.4118  12.4977  12.5322  12.6255  12.7317  12.7832
    12.9391  13.2612  13.2691  13.3102  13.5079  13.6340  13.8842  13.9220
    14.6044  14.7082  15.1339  15.3982  15.6559  15.7038  16.0561  16.0711
    16.4274  17.2941  17.3857  17.6008  17.7591

          k = 0.0000 0.1575-0.5000 ( 62234 PWs)   bands (ev):

   -66.1609 -66.1609 -66.1606 -66.1606 -66.1599 -66.1599 -66.1596 -66.1596
   -30.5512 -30.5512 -30.5482 -30.5482 -30.5133 -30.5133 -30.5123 -30.5123
   -30.5087 -30.5087 -30.5074 -30.5074 -30.4808 -30.4808 -30.4795 -30.4795
   -30.4493 -30.4493 -30.4427 -30.4427 -30.4338 -30.4338 -30.4257 -30.4257
   -20.3169 -20.3169 -20.3169 -20.3169 -20.3168 -20.3167 -20.3167 -20.3167
   -20.2948 -20.2948 -20.2943 -20.2943 -20.2939 -20.2939 -20.2935 -20.2935
   -20.2922 -20.2922 -20.2918 -20.2918 -20.2917 -20.2917 -20.2914 -20.2914
   -20.2913 -20.2913 -20.2906 -20.2906 -20.2876 -20.2876 -20.2872 -20.2871
   -20.2863 -20.2862 -20.2856 -20.2855 -20.2812 -20.2812 -20.2812 -20.2812
   -20.2802 -20.2802 -20.2802 -20.2802 -20.2786 -20.2786 -20.2784 -20.2784
   -20.2754 -20.2753 -20.2752 -20.2752 -20.2731 -20.2731 -20.2730 -20.2730
    -9.6954  -9.6954  -9.5174  -9.5174  -9.0094  -9.0094  -8.8282  -8.8282
    -8.6956  -8.6956  -8.6740  -8.6739  -8.5962  -8.5962  -8.5241  -8.5241
    -7.8055  -7.8055  -7.7365  -7.7365  -7.7310  -7.7310  -7.7252  -7.7252
     1.1549   1.1550   1.1612   1.1612   1.9044   1.9044   1.9755   1.9755
     2.7149   2.7149   2.9214   2.9214   3.0057   3.0057   3.0735   3.0735
     3.1359   3.1359   3.2155   3.2155   3.3588   3.3588   3.7385   3.7385
     3.8956   3.8956   4.1882   4.1882   4.5399   4.5400   4.7631   4.7631
     5.1383   5.1383   5.1501   5.1501   5.2129   5.2130   5.5422   5.5422
     5.8082   5.8082   5.9575   5.9575   6.0796   6.0796   6.2040   6.2040
     6.2773   6.2773   6.3628   6.3628   6.4691   6.4691   6.7575   6.7575
     6.8847   6.8847   6.9203   6.9203   6.9611   6.9611   7.4767   7.4767
     7.4920   7.4920   7.6580   7.6580   7.6993   7.6993   8.0732   8.0733
    10.0576  10.0576  11.2060  11.2060  11.2656  11.2656  11.6328  11.6328
    11.7521  11.7521  12.3667  12.3667  12.7456  12.7456  12.8539  12.8539
    12.9955  12.9955  13.1178  13.1178  13.3848  13.3848  13.8942  13.8942
    14.6785  14.6785  15.4412  15.4412  15.8685  15.8685  15.9140  15.9140
    16.8900  16.8900  17.7180  17.7180  18.0914

          k = 0.0000 0.3150 0.0000 ( 62175 PWs)   bands (ev):

   -66.1614 -66.1612 -66.1604 -66.1603 -66.1602 -66.1601 -66.1593 -66.1591
   -30.5636 -30.5623 -30.5577 -30.5565 -30.5529 -30.5510 -30.5477 -30.5459
   -30.4781 -30.4768 -30.4767 -30.4754 -30.4628 -30.4587 -30.4557 -30.4510
   -30.4507 -30.4490 -30.4470 -30.4440 -30.4387 -30.4372 -30.4354 -30.4288
   -20.3171 -20.3171 -20.3169 -20.3169 -20.3167 -20.3167 -20.3166 -20.3166
   -20.2950 -20.2945 -20.2945 -20.2942 -20.2941 -20.2937 -20.2936 -20.2932
   -20.2923 -20.2920 -20.2919 -20.2916 -20.2914 -20.2911 -20.2911 -20.2909
   -20.2907 -20.2906 -20.2903 -20.2901 -20.2885 -20.2881 -20.2879 -20.2876
   -20.2863 -20.2860 -20.2859 -20.2856 -20.2851 -20.2850 -20.2842 -20.2841
   -20.2793 -20.2792 -20.2790 -20.2790 -20.2774 -20.2774 -20.2762 -20.2761
   -20.2756 -20.2755 -20.2741 -20.2740 -20.2738 -20.2738 -20.2723 -20.2722
    -9.9577  -9.8543  -9.5383  -9.4990  -9.4637  -9.4171  -9.1923  -9.1842
    -8.6293  -8.5715  -8.5690  -8.5690  -8.0603  -8.0129  -8.0048  -7.9731
    -7.8259  -7.8187  -7.7957  -7.7909  -7.7088  -7.6962  -7.6933  -7.6811
     0.9569   0.9591   1.0752   1.0775   1.1413   1.1415   1.4123   1.4298
     2.2461   2.2875   2.4821   2.6031   2.6358   2.7523   2.8687   2.9000
     2.9895   3.0209   3.5754   3.6189   3.6499   3.6965   4.1819   4.5055
     4.5356   4.5885   4.5948   4.6287   4.6634   4.8382   5.1920   5.2108
     5.2397   5.2595   5.4058   5.4113   5.6686   5.6789   5.6846   5.7097
     5.8482   5.8657   5.9215   5.9860   5.9976   6.0046   6.0063   6.1042
     6.1080   6.1915   6.2852   6.4676   6.4780   6.5296   6.7353   6.7535
     6.7975   6.8851   7.1405   7.1544   7.1601   7.1640   7.1889   7.2047
     7.2388   7.2546   7.8400   7.8684   7.8805   7.9027   7.9049   7.9098
     9.3079   9.3135  10.5233  10.5645  10.5898  10.6111  11.7093  11.7918
    11.8399  11.8778  12.5075  12.5262  12.5322  12.5352  12.9834  13.1314
    13.3647  13.3974  13.4348  13.5274  13.7393  13.8185  13.8186  13.8335
    15.0014  15.2583  15.2792  15.4610  15.4649  15.4971  16.0279  16.0461
    16.1382  16.7789  17.1440  17.6686  17.7130

          k = 0.0000 0.3150 0.1667 ( 62260 PWs)   bands (ev):

   -66.1613 -66.1611 -66.1604 -66.1603 -66.1602 -66.1601 -66.1594 -66.1592
   -30.5573 -30.5562 -30.5520 -30.5514 -30.5497 -30.5497 -30.5480 -30.5463
   -30.4803 -30.4781 -30.4763 -30.4752 -30.4689 -30.4645 -30.4570 -30.4553
   -30.4549 -30.4501 -30.4467 -30.4436 -30.4398 -30.4383 -30.4350 -30.4296
   -20.3170 -20.3170 -20.3169 -20.3169 -20.3168 -20.3168 -20.3166 -20.3166
   -20.2949 -20.2945 -20.2944 -20.2942 -20.2941 -20.2938 -20.2937 -20.2933
   -20.2923 -20.2919 -20.2919 -20.2916 -20.2914 -20.2912 -20.2911 -20.2909
   -20.2908 -20.2906 -20.2903 -20.2902 -20.2886 -20.2882 -20.2880 -20.2877
   -20.2863 -20.2859 -20.2859 -20.2856 -20.2845 -20.2845 -20.2836 -20.2835
   -20.2794 -20.2792 -20.2791 -20.2790 -20.2778 -20.2778 -20.2761 -20.2761
   -20.2760 -20.2760 -20.2743 -20.2742 -20.2737 -20.2737 -20.2724 -20.2723
    -9.9016  -9.7961  -9.5132  -9.4483  -9.4295  -9.3693  -9.1513  -9.1434
    -8.6391  -8.5775  -8.5658  -8.5627  -8.0657  -8.0326  -8.0051  -7.9870
    -7.9563  -7.9269  -7.8494  -7.8277  -7.7963  -7.7843  -7.7006  -7.6884
     1.0729   1.0743   1.1444   1.1445   1.3521   1.3524   1.5716   1.5950
     2.3356   2.3780   2.4862   2.5870   2.6285   2.7451   2.8754   2.9819
     2.9949   3.1153   3.6173   3.6499   3.6758   3.6875   4.1583   4.2359
     4.2674   4.5288   4.5391   4.6462   4.7000   4.8420   4.8562   4.9642
     5.1336   5.2399   5.2694   5.3065   5.4319   5.4462   5.6331   5.6669
     5.7514   5.7541   5.8345   5.9641   6.0138   6.0215   6.0377   6.1057
     6.2108   6.3081   6.3858   6.5133   6.5402   6.7253   6.7862   6.8744
     6.8923   6.9224   6.9746   6.9904   7.0280   7.0287   7.1507   7.1862
     7.1956   7.2095   7.8355   7.8459   7.8713   7.8713   7.8848   7.9054
     9.6606   9.6612  10.5690  10.6127  10.7057  10.7684  11.7909  11.8033
    11.8778  11.9269  12.3920  12.4043  12.5812  12.5852  13.0250  13.0752
    13.1929  13.3567  13.3633  13.4648  13.6486  13.7378  13.7449  13.8268
    15.0976  15.2588  15.4843  15.5045  15.5572  15.5959  16.0069  16.3025
    16.3690  16.7468  17.2195  17.3448  17.6894

          k = 0.0000 0.3150 0.3333 ( 62269 PWs)   bands (ev):

   -66.1611 -66.1609 -66.1606 -66.1604 -66.1601 -66.1599 -66.1596 -66.1594
   -30.5521 -30.5505 -30.5491 -30.5474 -30.5374 -30.5368 -30.5324 -30.5317
   -30.4906 -30.4868 -30.4867 -30.4822 -30.4749 -30.4737 -30.4673 -30.4648
   -30.4544 -30.4517 -30.4457 -30.4427 -30.4420 -30.4399 -30.4340 -30.4311
   -20.3170 -20.3170 -20.3168 -20.3168 -20.3168 -20.3168 -20.3167 -20.3167
   -20.2948 -20.2944 -20.2943 -20.2943 -20.2939 -20.2939 -20.2938 -20.2934
   -20.2922 -20.2920 -20.2919 -20.2917 -20.2914 -20.2913 -20.2912 -20.2910
   -20.2908 -20.2905 -20.2904 -20.2903 -20.2886 -20.2882 -20.2882 -20.2879
   -20.2862 -20.2860 -20.2858 -20.2857 -20.2830 -20.2830 -20.2821 -20.2820
   -20.2799 -20.2797 -20.2790 -20.2788 -20.2788 -20.2788 -20.2774 -20.2773
   -20.2758 -20.2757 -20.2748 -20.2747 -20.2735 -20.2734 -20.2727 -20.2726
    -9.7696  -9.6628  -9.5579  -9.4684  -9.1983  -9.1005  -9.0100  -8.9949
    -8.6872  -8.6075  -8.5526  -8.5367  -8.3158  -8.2688  -8.2608  -8.1785
    -8.0330  -8.0097  -7.9859  -7.9545  -7.7767  -7.7643  -7.7209  -7.7086
     1.1517   1.1528   1.1531   1.1540   2.0634   2.0925   2.1885   2.2653
     2.4946   2.5706   2.6031   2.6297   2.6399   2.7704   2.8939   2.9652
     3.2349   3.3184   3.5651   3.6386   3.6620   3.6934   3.7312   3.7591
     4.1309   4.3034   4.4006   4.4257   4.4401   4.5642   4.5881   4.6896
     4.7485   4.9044   4.9689   5.0012   5.1903   5.2693   5.3000   5.3098
     5.4221   5.5264   5.7637   5.9299   6.1034   6.1085   6.1413   6.1524
     6.3915   6.4418   6.4721   6.5416   6.5997   6.6964   6.7018   6.7085
     6.8803   6.9603   7.0410   7.0634   7.1094   7.1595   7.1980   7.2343
     7.2575   7.3233   7.7485   7.7568   7.7742   7.7840   7.8699   7.8889
    10.3862  10.4013  10.5814  10.6378  11.2027  11.2534  11.7695  11.8784
    11.9642  11.9801  12.0991  12.1926  12.6182  12.6549  12.7439  12.7525
    12.9790  13.1008  13.2610  13.2814  13.3691  13.5731  13.7367  13.7880
    15.1859  15.2463  15.6531  15.8122  15.9392  15.9714  16.1840  16.6364
    16.7751  16.7950  17.2122  17.4987  17.7850

          k = 0.0000 0.3150-0.5000 ( 62306 PWs)   bands (ev):

   -66.1609 -66.1609 -66.1607 -66.1607 -66.1599 -66.1598 -66.1597 -66.1596
   -30.5506 -30.5506 -30.5489 -30.5488 -30.5125 -30.5124 -30.5121 -30.5121
   -30.5077 -30.5077 -30.5072 -30.5072 -30.4726 -30.4726 -30.4707 -30.4706
   -30.4531 -30.4531 -30.4440 -30.4440 -30.4414 -30.4414 -30.4326 -30.4326
   -20.3169 -20.3169 -20.3169 -20.3169 -20.3168 -20.3168 -20.3167 -20.3167
   -20.2946 -20.2946 -20.2941 -20.2941 -20.2941 -20.2940 -20.2937 -20.2937
   -20.2921 -20.2921 -20.2918 -20.2918 -20.2913 -20.2913 -20.2912 -20.2912
   -20.2906 -20.2906 -20.2904 -20.2904 -20.2884 -20.2884 -20.2881 -20.2881
   -20.2862 -20.2861 -20.2858 -20.2858 -20.2812 -20.2812 -20.2812 -20.2812
   -20.2802 -20.2802 -20.2802 -20.2802 -20.2786 -20.2785 -20.2784 -20.2784
   -20.2753 -20.2753 -20.2752 -20.2752 -20.2731 -20.2731 -20.2731 -20.2730
    -9.6414  -9.6414  -9.5422  -9.5422  -8.8744  -8.8744  -8.7614  -8.7613
    -8.7095  -8.7095  -8.6914  -8.6914  -8.5044  -8.5044  -8.4504  -8.4504
    -8.0239  -8.0239  -7.9751  -7.9751  -7.7487  -7.7487  -7.7363  -7.7363
     1.1599   1.1599   1.1614   1.1614   2.4753   2.4753   2.5996   2.5996
     2.8849   2.8850   2.9537   2.9537   3.0029   3.0029   3.1107   3.1108
     3.1321   3.1321   3.3023   3.3024   3.3319   3.3319   3.6438   3.6438
     4.0277   4.0277   4.0766   4.0767   4.0937   4.0938   4.3342   4.3343
     4.8743   4.8743   5.0167   5.0167   5.1370   5.1370   5.2003   5.2003
     5.3599   5.3599   5.8425   5.8425   6.1848   6.1848   6.2203   6.2203
     6.3723   6.3723   6.4183   6.4183   6.4788   6.4788   6.6790   6.6790
     7.0880   7.0880   7.1003   7.1003   7.1403   7.1403   7.4798   7.4798
     7.5017   7.5017   7.5774   7.5774   7.6050   7.6050   7.8782   7.8782
    10.5820  10.5820  11.2157  11.2157  11.2655  11.2655  11.7233  11.7233
    11.9322  11.9322  12.0593  12.0593  12.5637  12.5637  12.6041  12.6041
    13.0066  13.0066  13.0075  13.0075  13.4116  13.4116  13.7471  13.7472
    15.2230  15.2230  15.8194  15.8194  16.2176  16.2176  16.4131  16.4131
    17.0631  17.0632  17.3159  17.3160  18.0290

          k = 0.0000-0.4725 0.0000 ( 62212 PWs)   bands (ev):

   -66.1613 -66.1613 -66.1603 -66.1603 -66.1602 -66.1602 -66.1592 -66.1592
   -30.5630 -30.5630 -30.5571 -30.5571 -30.5519 -30.5519 -30.5468 -30.5468
   -30.4682 -30.4682 -30.4657 -30.4657 -30.4648 -30.4648 -30.4616 -30.4615
   -30.4505 -30.4505 -30.4471 -30.4471 -30.4411 -30.4411 -30.4343 -30.4343
   -20.3171 -20.3171 -20.3169 -20.3169 -20.3167 -20.3167 -20.3166 -20.3166
   -20.2947 -20.2947 -20.2943 -20.2943 -20.2939 -20.2939 -20.2934 -20.2934
   -20.2921 -20.2921 -20.2917 -20.2917 -20.2912 -20.2912 -20.2909 -20.2909
   -20.2897 -20.2897 -20.2894 -20.2894 -20.2892 -20.2891 -20.2889 -20.2889
   -20.2862 -20.2862 -20.2858 -20.2858 -20.2851 -20.2851 -20.2842 -20.2842
   -20.2791 -20.2791 -20.2791 -20.2791 -20.2774 -20.2774 -20.2762 -20.2762
   -20.2755 -20.2755 -20.2741 -20.2741 -20.2738 -20.2738 -20.2722 -20.2722
    -9.9006  -9.9006  -9.4949  -9.4949  -9.4513  -9.4513  -9.1882  -9.1882
    -8.3501  -8.3501  -8.3130  -8.3130  -8.3076  -8.3076  -8.2991  -8.2990
    -7.8221  -7.8221  -7.7950  -7.7950  -7.7028  -7.7028  -7.6877  -7.6877
     0.9579   0.9579   1.0765   1.0765   1.1418   1.1418   1.4255   1.4255
     2.2669   2.2669   3.1083   3.1083   3.1955   3.1955   3.2207   3.2207
     3.2557   3.2557   3.3891   3.3891   3.6088   3.6088   3.6280   3.6280
     3.7905   3.7905   4.5994   4.5994   4.6055   4.6055   5.3034   5.3034
     5.3417   5.3417   5.4591   5.4591   5.4925   5.4926   5.7997   5.7997
     5.8211   5.8211   5.8998   5.8998   5.9942   5.9942   6.0803   6.0803
     6.1397   6.1397   6.2416   6.2416   6.5876   6.5876   6.6088   6.6088
     6.8411   6.8411   7.1861   7.1861   7.2296   7.2296   7.5199   7.5199
     7.5269   7.5269   7.5617   7.5617   7.5742   7.5742   7.8967   7.8967
     9.3120   9.3120  11.1348  11.1348  11.2034  11.2034  11.2082  11.2082
    11.2906  11.2906  12.5204  12.5204  12.5377  12.5377  13.0776  13.0776
    13.5247  13.5247  13.5351  13.5351  13.6008  13.6008  13.6752  13.6752
    15.4474  15.4475  15.5859  15.5859  15.7519  15.7519  15.7803  15.7803
    16.3755  16.3755  17.9355  17.9791  17.9807

          k = 0.0000-0.4725 0.1667 ( 62246 PWs)   bands (ev):

   -66.1612 -66.1612 -66.1603 -66.1603 -66.1602 -66.1602 -66.1593 -66.1593
   -30.5567 -30.5567 -30.5515 -30.5515 -30.5499 -30.5499 -30.5472 -30.5472
   -30.4724 -30.4724 -30.4689 -30.4689 -30.4644 -30.4644 -30.4612 -30.4612
   -30.4542 -30.4542 -30.4499 -30.4499 -30.4408 -30.4408 -30.4352 -30.4352
   -20.3170 -20.3170 -20.3169 -20.3169 -20.3168 -20.3168 -20.3166 -20.3166
   -20.2946 -20.2946 -20.2943 -20.2943 -20.2939 -20.2939 -20.2935 -20.2935
   -20.2921 -20.2921 -20.2918 -20.2918 -20.2912 -20.2912 -20.2910 -20.2910
   -20.2897 -20.2897 -20.2894 -20.2894 -20.2892 -20.2892 -20.2890 -20.2890
   -20.2861 -20.2861 -20.2858 -20.2858 -20.2845 -20.2845 -20.2836 -20.2836
   -20.2792 -20.2792 -20.2791 -20.2791 -20.2778 -20.2778 -20.2761 -20.2761
   -20.2760 -20.2760 -20.2742 -20.2742 -20.2737 -20.2737 -20.2724 -20.2724
    -9.8432  -9.8432  -9.4645  -9.4645  -9.4018  -9.4018  -9.1474  -9.1474
    -8.3547  -8.3547  -8.3220  -8.3220  -8.3057  -8.3057  -8.3025  -8.3025
    -7.9482  -7.9482  -7.8421  -7.8421  -7.7911  -7.7911  -7.6951  -7.6951
     1.0736   1.0736   1.1449   1.1449   1.3531   1.3531   1.5895   1.5895
     2.3574   2.3574   3.1307   3.1307   3.1863   3.1863   3.2559   3.2559
     3.2935   3.2935   3.3806   3.3806   3.6140   3.6140   3.6529   3.6529
     3.8130   3.8130   4.2506   4.2506   4.6552   4.6552   5.0273   5.0273
     5.2118   5.2118   5.2948   5.2948   5.4862   5.4862   5.5024   5.5024
     5.7491   5.7491   5.7848   5.7848   6.0146   6.0146   6.1080   6.1080
     6.2968   6.2968   6.3648   6.3648   6.5889   6.5889   6.8390   6.8390
     6.9309   6.9309   6.9860   6.9860   7.0515   7.0515   7.5135   7.5135
     7.5303   7.5303   7.5521   7.5521   7.5640   7.5640   7.8792   7.8792
     9.6633   9.6633  11.2035  11.2035  11.2516  11.2516  11.2775  11.2775
    11.3575  11.3575  12.3993  12.3993  12.5866  12.5866  13.1072  13.1072
    13.3541  13.3541  13.4208  13.4208  13.5228  13.5228  13.6984  13.6984
    15.4546  15.4546  15.7352  15.7352  15.7983  15.7983  16.0654  16.0654
    16.4462  16.4462  17.8419  17.8420  17.9602

          k = 0.0000-0.4725 0.3333 ( 62268 PWs)   bands (ev):

   -66.1610 -66.1610 -66.1605 -66.1605 -66.1600 -66.1600 -66.1595 -66.1595
   -30.5513 -30.5513 -30.5482 -30.5482 -30.5370 -30.5370 -30.5320 -30.5320
   -30.4878 -30.4878 -30.4833 -30.4833 -30.4633 -30.4633 -30.4603 -30.4603
   -30.4586 -30.4586 -30.4545 -30.4545 -30.4398 -30.4398 -30.4369 -30.4369
   -20.3170 -20.3170 -20.3168 -20.3168 -20.3168 -20.3168 -20.3167 -20.3167
   -20.2945 -20.2945 -20.2941 -20.2941 -20.2941 -20.2941 -20.2937 -20.2937
   -20.2920 -20.2920 -20.2919 -20.2918 -20.2912 -20.2912 -20.2910 -20.2910
   -20.2897 -20.2897 -20.2894 -20.2894 -20.2894 -20.2894 -20.2891 -20.2891
   -20.2861 -20.2861 -20.2859 -20.2859 -20.2830 -20.2830 -20.2821 -20.2820
   -20.2798 -20.2798 -20.2789 -20.2789 -20.2788 -20.2788 -20.2774 -20.2774
   -20.2758 -20.2758 -20.2747 -20.2747 -20.2734 -20.2734 -20.2727 -20.2727
    -9.7097  -9.7097  -9.5061  -9.5061  -9.1378  -9.1378  -9.0016  -9.0016
    -8.4277  -8.4277  -8.3995  -8.3995  -8.3095  -8.3095  -8.2922  -8.2922
    -8.2142  -8.2142  -8.1359  -8.1359  -7.7713  -7.7713  -7.7154  -7.7154
     1.1528   1.1528   1.1541   1.1541   2.0877   2.0877   2.2526   2.2526
     2.6197   2.6197   3.1497   3.1497   3.2011   3.2011   3.2756   3.2756
     3.3407   3.3407   3.4257   3.4257   3.5814   3.5814   3.6651   3.6651
     3.7545   3.7545   3.8513   3.8513   4.4535   4.4535   4.5933   4.5933
     4.7714   4.7714   4.8402   4.8402   5.0767   5.0767   5.2830   5.2830
     5.5268   5.5268   5.6977   5.6977   6.1279   6.1279   6.1670   6.1670
     6.4435   6.4435   6.4993   6.4993   6.5846   6.5846   6.7062   6.7062
     6.9600   6.9600   7.1830   7.1830   7.1887   7.1887   7.4821   7.4821
     7.5080   7.5080   7.5405   7.5405   7.5571   7.5571   7.7811   7.7811
    10.4089  10.4089  11.2141  11.2141  11.2597  11.2597  11.6441  11.6441
    11.7162  11.7162  11.9665  11.9665  12.7388  12.7388  12.8212  12.8212
    12.8769  12.8769  13.2192  13.2192  13.5217  13.5217  13.6272  13.6272
    15.5198  15.5198  15.6965  15.6965  16.3614  16.3614  16.7301  16.7301
    16.7909  16.7909  17.3160  17.3160  17.8214

          k = 0.0000-0.4725-0.5000 ( 62284 PWs)   bands (ev):

   -66.1608 -66.1608 -66.1608 -66.1608 -66.1598 -66.1598 -66.1597 -66.1597
   -30.5497 -30.5497 -30.5497 -30.5497 -30.5121 -30.5121 -30.5121 -30.5121
   -30.5072 -30.5072 -30.5072 -30.5072 -30.4617 -30.4617 -30.4617 -30.4617
   -30.4576 -30.4576 -30.4576 -30.4576 -30.4385 -30.4385 -30.4384 -30.4384
   -20.3169 -20.3169 -20.3169 -20.3169 -20.3168 -20.3168 -20.3167 -20.3167
   -20.2943 -20.2943 -20.2943 -20.2943 -20.2939 -20.2939 -20.2939 -20.2939
   -20.2920 -20.2920 -20.2919 -20.2919 -20.2911 -20.2911 -20.2911 -20.2911
   -20.2896 -20.2896 -20.2896 -20.2896 -20.2893 -20.2893 -20.2893 -20.2893
   -20.2860 -20.2860 -20.2860 -20.2860 -20.2812 -20.2812 -20.2812 -20.2812
   -20.2802 -20.2802 -20.2802 -20.2802 -20.2785 -20.2785 -20.2785 -20.2785
   -20.2753 -20.2753 -20.2753 -20.2753 -20.2731 -20.2731 -20.2731 -20.2731
    -9.5847  -9.5847  -9.5847  -9.5847  -8.7582  -8.7582  -8.7582  -8.7582
    -8.7172  -8.7172  -8.7172  -8.7172  -8.2964  -8.2964  -8.2964  -8.2964
    -8.2593  -8.2593  -8.2593  -8.2593  -7.7432  -7.7432  -7.7432  -7.7432
     1.1613   1.1613   1.1613   1.1613   2.9281   2.9281   2.9281   2.9281
     3.0421   3.0421   3.0421   3.0421   3.1708   3.1708   3.1708   3.1708
     3.2789   3.2789   3.2789   3.2789   3.4509   3.4509   3.4509   3.4509
     3.6484   3.6484   3.6484   3.6484   4.3213   4.3213   4.3213   4.3213
     4.4300   4.4300   4.4300   4.4300   5.1424   5.1424   5.1424   5.1424
     5.5882   5.5882   5.5882   5.5882   6.2220   6.2220   6.2220   6.2220
     6.4150   6.4150   6.4150   6.4150   6.5418   6.5418   6.5418   6.5418
     7.3086   7.3086   7.3086   7.3086   7.4023   7.4023   7.4023   7.4023
     7.4663   7.4663   7.4663   7.4663   7.6116   7.6116   7.6116   7.6116
    11.1502  11.1502  11.1502  11.1502  11.3289  11.3289  11.3289  11.3289
    12.2191  12.2191  12.2191  12.2191  12.2644  12.2644  12.2644  12.2644
    13.0006  13.0006  13.0006  13.0006  13.5428  13.5428  13.5429  13.5429
    15.6198  15.6198  15.6198  15.6198  16.8354  16.8354  16.8354  16.8354
    17.4419  17.4419  17.4419  17.4419  17.5192

          k = 0.1667 0.0000 0.1667 ( 62234 PWs)   bands (ev):

   -66.1613 -66.1609 -66.1605 -66.1604 -66.1601 -66.1600 -66.1596 -66.1592
   -30.5572 -30.5547 -30.5521 -30.5498 -30.5469 -30.5432 -30.5422 -30.5389
   -30.4911 -30.4905 -30.4902 -30.4884 -30.4675 -30.4636 -30.4592 -30.4571
   -30.4562 -30.4542 -30.4500 -30.4452 -30.4322 -30.4269 -30.4260 -30.4212
   -20.3170 -20.3170 -20.3169 -20.3169 -20.3168 -20.3167 -20.3166 -20.3166
   -20.2952 -20.2948 -20.2946 -20.2942 -20.2942 -20.2939 -20.2935 -20.2931
   -20.2924 -20.2921 -20.2920 -20.2920 -20.2917 -20.2916 -20.2915 -20.2914
   -20.2914 -20.2913 -20.2908 -20.2906 -20.2874 -20.2870 -20.2869 -20.2864
   -20.2858 -20.2855 -20.2852 -20.2849 -20.2844 -20.2843 -20.2837 -20.2836
   -20.2798 -20.2797 -20.2793 -20.2792 -20.2777 -20.2777 -20.2763 -20.2761
   -20.2760 -20.2759 -20.2743 -20.2740 -20.2740 -20.2739 -20.2727 -20.2725
    -9.9217  -9.7007  -9.5331  -9.5034  -9.3570  -9.3100  -9.1154  -9.0986
    -8.9245  -8.7806  -8.7733  -8.7705  -7.9642  -7.9572  -7.9240  -7.9162
    -7.8757  -7.8690  -7.8360  -7.8080  -7.7017  -7.6551  -7.6512  -7.6084
     1.2313   1.2375   1.3393   1.3548   1.3871   1.4128   1.4918   1.7100
     1.7378   1.7592   1.7797   1.9721   2.4087   2.4919   2.6848   2.6928
     2.7985   2.8220   4.0720   4.0856   4.2036   4.2352   4.3287   4.3375
     4.3503   4.3892   4.6695   4.7153   4.7216   4.8535   5.0500   5.2129
     5.2310   5.2959   5.3031   5.5052   5.5688   5.5758   5.5854   5.6851
     5.6918   5.8023   5.8196   5.9302   6.0143   6.0974   6.1922   6.2542
     6.3385   6.4321   6.4965   6.6115   6.6180   6.7499   6.7511   6.7947
     6.8013   6.8570   6.8677   6.8823   6.8953   6.9499   6.9516   7.0297
     7.1155   7.1715   7.8536   7.8553   8.0536   8.0971   8.1116   8.1463
     9.8685   9.9115  10.1019  10.1487  10.1509  10.2404  12.2605  12.3372
    12.4252  12.4355  12.4391  12.4582  12.5388  12.5694  12.8333  12.9867
    13.0594  13.1359  13.3990  13.4451  13.7733  13.8248  13.9717  14.0109
    14.2553  14.4661  14.5588  15.1520  15.3121  15.6297  15.6418  16.4995
    16.5033  17.0530  17.0658  17.3049  17.5371

          k = 0.1667 0.0000 0.3333 ( 62265 PWs)   bands (ev):

   -66.1612 -66.1608 -66.1606 -66.1603 -66.1602 -66.1599 -66.1598 -66.1594
   -30.5464 -30.5438 -30.5435 -30.5400 -30.5369 -30.5364 -30.5332 -30.5320
   -30.4968 -30.4948 -30.4885 -30.4865 -30.4863 -30.4823 -30.4737 -30.4707
   -30.4558 -30.4542 -30.4498 -30.4475 -30.4311 -30.4282 -30.4251 -30.4223
   -20.3170 -20.3170 -20.3168 -20.3168 -20.3168 -20.3168 -20.3167 -20.3167
   -20.2951 -20.2948 -20.2946 -20.2943 -20.2941 -20.2938 -20.2936 -20.2933
   -20.2923 -20.2921 -20.2921 -20.2920 -20.2917 -20.2917 -20.2916 -20.2915
   -20.2914 -20.2913 -20.2908 -20.2906 -20.2875 -20.2871 -20.2870 -20.2866
   -20.2858 -20.2856 -20.2851 -20.2849 -20.2829 -20.2829 -20.2821 -20.2820
   -20.2802 -20.2798 -20.2795 -20.2790 -20.2788 -20.2788 -20.2776 -20.2774
   -20.2757 -20.2756 -20.2748 -20.2745 -20.2737 -20.2736 -20.2730 -20.2728
    -9.7838  -9.5531  -9.5513  -9.3476  -9.3149  -9.0874  -8.9912  -8.9724
    -8.9579  -8.7891  -8.7446  -8.7230  -8.2863  -8.2781  -8.2324  -8.2034
    -7.9217  -7.8954  -7.8672  -7.8402  -7.6929  -7.6655  -7.6432  -7.6179
     1.3848   1.3871   1.4195   1.4229   1.6734   1.6799   1.7233   1.7644
     2.0989   2.1637   2.2619   2.3709   2.6837   2.7065   2.7782   2.7892
     2.9335   3.0423   3.6448   3.7466   3.9077   3.9181   4.1741   4.2048
     4.2094   4.4311   4.4401   4.5275   4.5915   4.6514   4.6785   4.7884
     4.9225   4.9783   4.9959   5.1299   5.1815   5.3213   5.6090   5.6133
     5.7048   5.8379   5.8935   5.9496   5.9633   5.9900   6.0614   6.1329
     6.3875   6.4726   6.5206   6.5649   6.6420   6.6973   6.7073   6.7896
     6.8425   6.8567   6.8630   6.9103   6.9832   7.0549   7.1003   7.1357
     7.2724   7.3394   7.7560   7.7632   7.9601   8.0020   8.0904   8.0996
    10.1081  10.1132  10.5255  10.5927  10.8110  10.8906  11.9810  12.0305
    12.1999  12.4484  12.4639  12.5533  12.5875  12.5886  12.7274  12.7909
    12.8412  13.0940  13.2254  13.3171  13.5946  13.6280  13.8195  13.8476
    14.3736  14.5334  14.7576  15.2162  15.4747  15.9437  16.1359  16.4167
    16.4828  17.4028  17.5225  17.6586  17.7115

          k = 0.1667 0.0000-0.5000 ( 62322 PWs)   bands (ev):

   -66.1609 -66.1609 -66.1605 -66.1605 -66.1600 -66.1600 -66.1596 -66.1596
   -30.5449 -30.5449 -30.5415 -30.5415 -30.5136 -30.5135 -30.5120 -30.5120
   -30.5096 -30.5096 -30.5078 -30.5078 -30.4846 -30.4846 -30.4820 -30.4820
   -30.4549 -30.4549 -30.4490 -30.4490 -30.4297 -30.4297 -30.4237 -30.4237
   -20.3169 -20.3169 -20.3169 -20.3169 -20.3168 -20.3168 -20.3168 -20.3167
   -20.2949 -20.2949 -20.2945 -20.2945 -20.2939 -20.2938 -20.2935 -20.2935
   -20.2922 -20.2922 -20.2919 -20.2919 -20.2919 -20.2919 -20.2915 -20.2915
   -20.2914 -20.2914 -20.2907 -20.2907 -20.2873 -20.2873 -20.2869 -20.2868
   -20.2857 -20.2857 -20.2850 -20.2850 -20.2813 -20.2812 -20.2811 -20.2811
   -20.2803 -20.2802 -20.2802 -20.2802 -20.2789 -20.2789 -20.2787 -20.2787
   -20.2753 -20.2753 -20.2751 -20.2751 -20.2734 -20.2734 -20.2733 -20.2732
    -9.6450  -9.6450  -9.4216  -9.4216  -9.0815  -9.0815  -8.8379  -8.8379
    -8.6928  -8.6928  -8.6737  -8.6737  -8.6074  -8.6074  -8.5448  -8.5448
    -7.8953  -7.8953  -7.8675  -7.8675  -7.6794  -7.6794  -7.6307  -7.6307
     1.3921   1.3922   1.4339   1.4339   1.7083   1.7083   1.7443   1.7443
     2.7294   2.7294   2.9385   2.9386   3.0073   3.0073   3.0894   3.0895
     3.1350   3.1350   3.2649   3.2649   3.4129   3.4129   3.7328   3.7328
     3.8311   3.8311   4.3392   4.3392   4.5707   4.5707   4.7952   4.7952
     4.8796   4.8796   4.9378   4.9378   5.1253   5.1253   5.6862   5.6862
     5.7213   5.7213   5.7867   5.7867   5.9647   5.9647   6.1141   6.1141
     6.3611   6.3611   6.5693   6.5693   6.6138   6.6138   6.7709   6.7709
     6.8446   6.8446   6.8966   6.8966   6.9618   6.9618   7.4956   7.4956
     7.5146   7.5146   7.6886   7.6886   7.7313   7.7314   8.0989   8.0989
    10.1189  10.1189  11.2846  11.2846  11.3521  11.3521  11.5854  11.5854
    11.7094  11.7094  12.5734  12.5734  12.6630  12.6630  12.8620  12.8621
    12.9751  12.9751  13.1781  13.1781  13.2816  13.2816  13.8259  13.8260
    14.4794  14.4795  15.0357  15.0357  15.9247  15.9248  16.2335  16.2336
    16.9538  16.9538  17.8972  17.8972  18.0045

          k = 0.1667 0.1575 0.1667 ( 62255 PWs)   bands (ev):

   -66.1613 -66.1610 -66.1604 -66.1604 -66.1601 -66.1601 -66.1596 -66.1592
   -30.5570 -30.5548 -30.5519 -30.5499 -30.5466 -30.5434 -30.5420 -30.5391
   -30.4879 -30.4873 -30.4868 -30.4848 -30.4677 -30.4637 -30.4591 -30.4574
   -30.4564 -30.4544 -30.4498 -30.4447 -30.4360 -30.4304 -30.4293 -30.4242
   -20.3170 -20.3170 -20.3169 -20.3169 -20.3168 -20.3167 -20.3166 -20.3166
   -20.2951 -20.2947 -20.2945 -20.2943 -20.2941 -20.2940 -20.2935 -20.2932
   -20.2924 -20.2920 -20.2919 -20.2917 -20.2916 -20.2915 -20.2915 -20.2913
   -20.2912 -20.2911 -20.2909 -20.2906 -20.2877 -20.2873 -20.2872 -20.2868
   -20.2858 -20.2855 -20.2852 -20.2849 -20.2844 -20.2844 -20.2837 -20.2836
   -20.2798 -20.2797 -20.2793 -20.2792 -20.2777 -20.2777 -20.2763 -20.2761
   -20.2760 -20.2759 -20.2743 -20.2740 -20.2740 -20.2739 -20.2727 -20.2725
    -9.8998  -9.7103  -9.5114  -9.4795  -9.3629  -9.3165  -9.1142  -9.0997
    -8.8527  -8.7290  -8.7236  -8.7185  -7.9691  -7.9557  -7.9266  -7.9210
    -7.8808  -7.8752  -7.8372  -7.8117  -7.7885  -7.7466  -7.7445  -7.7042
     1.2317   1.2369   1.3485   1.3552   1.4010   1.4139   1.5894   1.7101
     1.9315   1.9793   1.9960   2.1391   2.4148   2.4869   2.7597   2.7647
     2.8711   2.8885   3.9558   3.9804   4.0676   4.0919   4.2896   4.3184
     4.3281   4.3412   4.6352   4.7115   4.7696   4.8568   4.9381   5.1493
     5.2026   5.2574   5.2816   5.3192   5.3565   5.5427   5.5495   5.6519
     5.6958   5.7728   5.9016   5.9218   5.9445   6.0393   6.1695   6.2492
     6.3375   6.3473   6.4746   6.5735   6.6430   6.7183   6.7400   6.7626
     6.7817   6.8535   6.8727   6.9046   6.9563   6.9755   6.9994   7.0406
     7.1253   7.1752   7.8528   7.8562   8.0099   8.0406   8.0587   8.0729
     9.8923   9.9202  10.2608  10.2978  10.3244  10.3851  12.1521  12.2427
    12.3343  12.3570  12.4363  12.4443  12.4797  12.4891  12.8712  13.0151
    13.0606  13.1402  13.3947  13.4394  13.7802  13.8086  13.8768  13.9322
    14.5028  14.7818  14.8163  15.2517  15.6307  15.6388  15.7211  16.4595
    16.4705  16.9571  17.1451  17.1567  17.5870

          k = 0.1667 0.1575 0.3333 ( 62260 PWs)   bands (ev):

   -66.1611 -66.1608 -66.1606 -66.1603 -66.1602 -66.1599 -66.1597 -66.1594
   -30.5462 -30.5439 -30.5433 -30.5403 -30.5368 -30.5363 -30.5330 -30.5320
   -30.4947 -30.4923 -30.4864 -30.4852 -30.4830 -30.4823 -30.4727 -30.4695
   -30.4565 -30.4548 -30.4495 -30.4470 -30.4350 -30.4318 -30.4283 -30.4255
   -20.3170 -20.3170 -20.3168 -20.3168 -20.3168 -20.3168 -20.3167 -20.3167
   -20.2950 -20.2946 -20.2946 -20.2942 -20.2941 -20.2938 -20.2937 -20.2933
   -20.2923 -20.2921 -20.2919 -20.2918 -20.2916 -20.2916 -20.2915 -20.2914
   -20.2914 -20.2912 -20.2908 -20.2907 -20.2877 -20.2874 -20.2873 -20.2870
   -20.2858 -20.2856 -20.2851 -20.2850 -20.2830 -20.2829 -20.2821 -20.2821
   -20.2801 -20.2798 -20.2794 -20.2791 -20.2788 -20.2788 -20.2776 -20.2774
   -20.2757 -20.2756 -20.2747 -20.2745 -20.2737 -20.2736 -20.2730 -20.2728
    -9.7598  -9.5613  -9.5280  -9.3547  -9.2831  -9.0936  -8.9883  -8.9669
    -8.8948  -8.7417  -8.6967  -8.6814  -8.2905  -8.2748  -8.2397  -8.1997
    -7.9223  -7.9012  -7.8685  -7.8466  -7.7821  -7.7561  -7.7388  -7.7138
     1.4010   1.4039   1.4206   1.4228   1.8527   1.8662   1.9437   1.9850
     2.0986   2.1965   2.2619   2.4060   2.6907   2.7537   2.7967   2.8597
     3.0080   3.1080   3.6441   3.7406   3.8585   3.9113   4.0620   4.1104
     4.2357   4.3390   4.4196   4.4964   4.5734   4.5991   4.6667   4.7739
     4.8404   4.8559   4.9110   5.1103   5.1247   5.1538   5.3745   5.5816
     5.6707   5.7150   5.7936   5.8968   5.9311   5.9721   6.0249   6.0379
     6.3188   6.4856   6.5496   6.6770   6.6939   6.7272   6.7357   6.7428
     6.8250   6.8890   6.9276   6.9817   6.9919   7.0783   7.0989   7.1533
     7.2692   7.3368   7.7581   7.7608   7.9162   7.9454   8.0365   8.0434
    10.2678  10.2881  10.5424  10.6034  10.9160  10.9772  11.9791  12.0268
    12.1683  12.3765  12.4063  12.4919  12.5220  12.5943  12.6567  12.7083
    12.8782  13.0741  13.2026  13.3231  13.4905  13.5468  13.8001  13.8167
    14.6547  14.7922  15.1208  15.5303  15.6505  15.9356  16.1502  16.3833
    16.5710  17.3443  17.3607  17.5811  17.7017

          k = 0.1667 0.1575-0.5000 ( 62292 PWs)   bands (ev):

   -66.1609 -66.1609 -66.1605 -66.1605 -66.1600 -66.1600 -66.1597 -66.1596
   -30.5446 -30.5446 -30.5417 -30.5417 -30.5130 -30.5130 -30.5120 -30.5119
   -30.5090 -30.5090 -30.5078 -30.5077 -30.4819 -30.4819 -30.4790 -30.4790
   -30.4555 -30.4555 -30.4485 -30.4485 -30.4335 -30.4335 -30.4270 -30.4269
   -20.3169 -20.3169 -20.3169 -20.3169 -20.3168 -20.3168 -20.3168 -20.3167
   -20.2948 -20.2948 -20.2944 -20.2944 -20.2939 -20.2939 -20.2936 -20.2936
   -20.2922 -20.2922 -20.2918 -20.2918 -20.2917 -20.2917 -20.2915 -20.2915
   -20.2913 -20.2913 -20.2907 -20.2907 -20.2876 -20.2876 -20.2872 -20.2872
   -20.2857 -20.2857 -20.2851 -20.2851 -20.2812 -20.2812 -20.2812 -20.2811
   -20.2803 -20.2802 -20.2802 -20.2802 -20.2789 -20.2789 -20.2787 -20.2787
   -20.2753 -20.2753 -20.2751 -20.2751 -20.2734 -20.2733 -20.2733 -20.2732
    -9.6199  -9.6199  -9.4299  -9.4299  -9.0259  -9.0259  -8.8083  -8.8083
    -8.6969  -8.6969  -8.6761  -8.6761  -8.5890  -8.5890  -8.5275  -8.5275
    -7.8974  -7.8973  -7.8725  -7.8725  -7.7697  -7.7697  -7.7266  -7.7266
     1.4131   1.4132   1.4335   1.4335   1.9075   1.9075   1.9748   1.9748
     2.7920   2.7920   2.9511   2.9511   3.0137   3.0137   3.0970   3.0970
     3.1380   3.1380   3.2881   3.2881   3.4061   3.4061   3.7552   3.7552
     3.8868   3.8868   4.1967   4.1967   4.4956   4.4956   4.6900   4.6900
     4.8265   4.8265   4.9035   4.9035   4.9950   4.9950   5.4934   5.4934
     5.6797   5.6797   5.7512   5.7512   5.8523   5.8523   5.9996   5.9996
     6.4606   6.4606   6.6213   6.6213   6.6838   6.6838   6.7857   6.7857
     6.8152   6.8152   6.9289   6.9289   7.0249   7.0249   7.4995   7.4995
     7.5110   7.5110   7.6642   7.6642   7.7007   7.7007   8.0424   8.0424
    10.2932  10.2932  11.2906  11.2906  11.3527  11.3527  11.6490  11.6490
    11.7650  11.7650  12.4261  12.4261  12.6601  12.6601  12.8162  12.8162
    12.9556  12.9557  13.0812  13.0812  13.2433  13.2433  13.7953  13.7953
    14.7496  14.7496  15.4206  15.4206  16.0173  16.0173  16.2086  16.2086
    16.9900  16.9900  17.7347  17.7348  17.9824

          k = 0.1667 0.3150 0.1667 ( 62249 PWs)   bands (ev):

   -66.1612 -66.1610 -66.1604 -66.1603 -66.1602 -66.1601 -66.1595 -66.1593
   -30.5565 -30.5552 -30.5514 -30.5503 -30.5458 -30.5439 -30.5414 -30.5397
   -30.4800 -30.4789 -30.4777 -30.4747 -30.4686 -30.4648 -30.4602 -30.4588
   -30.4560 -30.4549 -30.4488 -30.4463 -30.4430 -30.4394 -30.4372 -30.4316
   -20.3170 -20.3170 -20.3169 -20.3169 -20.3167 -20.3167 -20.3166 -20.3166
   -20.2949 -20.2945 -20.2944 -20.2942 -20.2941 -20.2938 -20.2937 -20.2933
   -20.2922 -20.2919 -20.2919 -20.2916 -20.2915 -20.2912 -20.2912 -20.2909
   -20.2908 -20.2906 -20.2904 -20.2902 -20.2886 -20.2882 -20.2880 -20.2877
   -20.2857 -20.2854 -20.2854 -20.2851 -20.2844 -20.2844 -20.2837 -20.2836
   -20.2797 -20.2796 -20.2794 -20.2793 -20.2777 -20.2777 -20.2762 -20.2761
   -20.2760 -20.2759 -20.2743 -20.2741 -20.2740 -20.2739 -20.2726 -20.2725
    -9.8464  -9.7392  -9.4625  -9.4256  -9.3816  -9.3369  -9.1111  -9.1027
    -8.6503  -8.5707  -8.5684  -8.5617  -8.0741  -8.0302  -8.0246  -8.0006
    -7.9508  -7.9283  -7.9157  -7.9046  -7.8640  -7.8370  -7.8230  -7.8113
     1.2325   1.2355   1.3551   1.3561   1.4115   1.4145   1.6768   1.7081
     2.4262   2.4654   2.4923   2.5825   2.6060   2.7252   2.9817   3.0015
     3.0812   3.1117   3.6114   3.6526   3.7032   3.7495   4.1505   4.2797
     4.3028   4.3037   4.3342   4.5381   4.5745   4.8200   4.8320   4.9343
     4.9747   5.0043   5.1189   5.1533   5.3204   5.3740   5.4470   5.4502
     5.7001   5.7095   5.7355   5.7567   5.8639   5.8687   6.1783   6.2122
     6.3569   6.3902   6.4379   6.5883   6.6579   6.6743   6.7738   6.8000
     6.8727   6.8837   6.9747   6.9954   7.0722   7.0747   7.1618   7.1652
     7.2286   7.2352   7.8146   7.8422   7.8472   7.8646   7.8754   7.8939
     9.9158   9.9253  10.6939  10.7258  10.7807  10.8068  11.7963  11.8755
    11.9374  11.9586  12.4386  12.4487  12.4636  12.4713  12.9763  13.0683
    13.1453  13.2116  13.3762  13.4107  13.5790  13.6442  13.6832  13.7547
    15.2515  15.4336  15.4806  15.6220  15.6466  15.6608  16.3228  16.3427
    16.4150  16.7160  17.2695  17.4430  17.4478

          k = 0.1667 0.3150 0.3333 ( 62265 PWs)   bands (ev):

   -66.1611 -66.1609 -66.1605 -66.1603 -66.1602 -66.1600 -66.1597 -66.1595
   -30.5456 -30.5443 -30.5426 -30.5408 -30.5366 -30.5363 -30.5327 -30.5320
   -30.4903 -30.4870 -30.4865 -30.4825 -30.4765 -30.4732 -30.4690 -30.4646
   -30.4593 -30.4571 -30.4481 -30.4453 -30.4452 -30.4416 -30.4363 -30.4332
   -20.3170 -20.3170 -20.3168 -20.3168 -20.3168 -20.3168 -20.3167 -20.3167
   -20.2948 -20.2944 -20.2943 -20.2943 -20.2940 -20.2939 -20.2938 -20.2935
   -20.2922 -20.2920 -20.2918 -20.2917 -20.2914 -20.2913 -20.2913 -20.2910
   -20.2908 -20.2906 -20.2905 -20.2903 -20.2886 -20.2883 -20.2882 -20.2879
   -20.2857 -20.2855 -20.2853 -20.2852 -20.2830 -20.2830 -20.2821 -20.2821
   -20.2801 -20.2799 -20.2794 -20.2792 -20.2788 -20.2788 -20.2776 -20.2775
   -20.2757 -20.2756 -20.2747 -20.2746 -20.2737 -20.2736 -20.2729 -20.2729
    -9.7018  -9.5902  -9.4720  -9.3769  -9.2137  -9.1134  -8.9820  -8.9701
    -8.7010  -8.5975  -8.5482  -8.5429  -8.3098  -8.2755  -8.2621  -8.1860
    -8.0325  -8.0181  -7.9938  -7.9654  -7.9039  -7.8853  -7.8498  -7.8343
     1.4109   1.4126   1.4231   1.4245   2.0673   2.0968   2.1829   2.2596
     2.4959   2.5761   2.6024   2.6795   2.7131   2.7984   2.9980   3.0689
     3.2375   3.3133   3.5979   3.6591   3.6918   3.7274   3.7725   3.8346
     4.1211   4.2959   4.3860   4.3904   4.4279   4.4547   4.5745   4.6098
     4.6152   4.8033   4.8432   4.8820   4.9595   5.0124   5.0832   5.1744
     5.3112   5.3879   5.4849   5.6928   5.7307   5.8656   6.0056   6.0260
     6.4451   6.5336   6.5984   6.7292   6.7643   6.7796   6.8819   6.8934
     6.9507   7.0192   7.0465   7.0692   7.1197   7.1761   7.2231   7.2418
     7.2769   7.3350   7.7412   7.7589   7.7660   7.7788   7.8546   7.8737
    10.5244  10.5448  10.7620  10.8031  11.2130  11.2631  11.8515  11.9315
    12.0114  12.0764  12.1071  12.1911  12.5858  12.6314  12.6556  12.6741
    12.9506  13.0848  13.0882  13.2491  13.3323  13.4102  13.6233  13.6553
    15.3746  15.4368  15.8897  15.9077  15.9653  16.1894  16.2997  16.6071
    16.8532  16.8618  17.2048  17.5224  17.7212

          k = 0.1667 0.3150-0.5000 ( 62264 PWs)   bands (ev):

   -66.1608 -66.1608 -66.1606 -66.1606 -66.1599 -66.1599 -66.1597 -66.1597
   -30.5439 -30.5439 -30.5423 -30.5422 -30.5122 -30.5121 -30.5118 -30.5118
   -30.5080 -30.5080 -30.5076 -30.5075 -30.4742 -30.4742 -30.4702 -30.4702
   -30.4582 -30.4582 -30.4469 -30.4469 -30.4436 -30.4436 -30.4349 -30.4349
   -20.3169 -20.3169 -20.3169 -20.3169 -20.3168 -20.3168 -20.3167 -20.3167
   -20.2946 -20.2946 -20.2942 -20.2941 -20.2941 -20.2940 -20.2937 -20.2937
   -20.2921 -20.2921 -20.2918 -20.2918 -20.2914 -20.2913 -20.2912 -20.2912
   -20.2906 -20.2906 -20.2905 -20.2905 -20.2884 -20.2884 -20.2881 -20.2881
   -20.2856 -20.2856 -20.2853 -20.2852 -20.2812 -20.2812 -20.2812 -20.2812
   -20.2803 -20.2803 -20.2802 -20.2802 -20.2788 -20.2788 -20.2787 -20.2787
   -20.2752 -20.2752 -20.2752 -20.2751 -20.2733 -20.2733 -20.2733 -20.2733
    -9.5611  -9.5611  -9.4555  -9.4555  -8.8924  -8.8924  -8.7527  -8.7527
    -8.7099  -8.7098  -8.6843  -8.6843  -8.4998  -8.4998  -8.4545  -8.4545
    -8.0251  -8.0251  -7.9880  -7.9880  -7.8777  -7.8777  -7.8593  -7.8593
     1.4277   1.4277   1.4331   1.4331   2.4780   2.4780   2.5764   2.5764
     2.9300   2.9300   2.9901   2.9901   3.0468   3.0468   3.1202   3.1202
     3.1632   3.1632   3.3560   3.3560   3.3813   3.3813   3.6858   3.6858
     4.0319   4.0319   4.0722   4.0722   4.0858   4.0858   4.3447   4.3447
     4.7401   4.7401   4.8218   4.8218   4.9635   4.9635   5.0487   5.0487
     5.0889   5.0889   5.5572   5.5572   5.7987   5.7987   5.8866   5.8866
     6.5949   6.5949   6.7105   6.7105   6.7440   6.7440   6.8077   6.8077
     7.0634   7.0634   7.1132   7.1132   7.1943   7.1943   7.4965   7.4965
     7.5136   7.5136   7.5773   7.5773   7.6072   7.6072   7.8609   7.8610
    10.7447  10.7447  11.3009  11.3009  11.3558  11.3558  11.7781  11.7781
    11.9445  11.9445  12.0911  12.0911  12.5490  12.5490  12.5966  12.5966
    12.8891  12.8891  12.9604  12.9604  13.2528  13.2528  13.6118  13.6118
    15.4168  15.4168  16.1094  16.1094  16.2985  16.2985  16.4112  16.4112
    17.1266  17.1266  17.3625  17.3625  17.9237

          k = 0.1667-0.4725 0.1667 ( 62220 PWs)   bands (ev):

   -66.1611 -66.1611 -66.1603 -66.1603 -66.1602 -66.1602 -66.1594 -66.1594
   -30.5559 -30.5558 -30.5508 -30.5508 -30.5448 -30.5448 -30.5405 -30.5405
   -30.4722 -30.4721 -30.4697 -30.4695 -30.4671 -30.4671 -30.4608 -30.4608
   -30.4578 -30.4578 -30.4496 -30.4495 -30.4450 -30.4449 -30.4388 -30.4388
   -20.3170 -20.3170 -20.3169 -20.3169 -20.3167 -20.3167 -20.3166 -20.3166
   -20.2946 -20.2946 -20.2943 -20.2943 -20.2939 -20.2939 -20.2935 -20.2935
   -20.2921 -20.2920 -20.2917 -20.2917 -20.2913 -20.2913 -20.2910 -20.2910
   -20.2897 -20.2897 -20.2895 -20.2895 -20.2892 -20.2892 -20.2890 -20.2890
   -20.2856 -20.2856 -20.2853 -20.2853 -20.2844 -20.2844 -20.2836 -20.2836
   -20.2796 -20.2796 -20.2795 -20.2795 -20.2777 -20.2777 -20.2762 -20.2762
   -20.2760 -20.2760 -20.2742 -20.2742 -20.2739 -20.2739 -20.2726 -20.2726
    -9.7867  -9.7867  -9.4150  -9.4149  -9.3733  -9.3733  -9.1069  -9.1068
    -8.3632  -8.3627  -8.3200  -8.3193  -8.3143  -8.3138  -8.3043  -8.3030
    -7.9453  -7.9441  -7.9173  -7.9171  -7.8570  -7.8569  -7.8187  -7.8184
     1.2333   1.2344   1.3560   1.3569   1.4139   1.4146   1.7006   1.7016
     2.4484   2.4495   3.1385   3.1411   3.1855   3.2073   3.2484   3.2624
     3.3475   3.3477   3.3832   3.3955   3.6390   3.6440   3.6572   3.6631
     3.8269   3.8292   4.2851   4.3105   4.3186   4.3335   4.9698   4.9881
     5.0706   5.0774   5.1875   5.2218   5.2250   5.2507   5.4350   5.4440
     5.5077   5.5080   5.7130   5.7458   5.7556   5.7745   6.2090   6.2114
     6.3989   6.4116   6.5174   6.5189   6.6407   6.6566   6.8300   6.8324
     6.8388   6.8544   7.0207   7.0234   7.1078   7.1121   7.5091   7.5103
     7.5185   7.5264   7.5417   7.5576   7.5635   7.5681   7.8621   7.8635
     9.9237   9.9250  11.2444  11.2675  11.2863  11.3181  11.3552  11.3645
    11.4103  11.4117  12.4406  12.4517  12.4625  12.4714  13.0901  13.0918
    13.3249  13.3389  13.3524  13.3525  13.3875  13.4016  13.6297  13.6318
    15.6162  15.6200  15.8475  15.8614  16.0182  16.0370  16.0491  16.0570
    16.5047  16.5067  17.8105  17.8210  17.8829

          k = 0.1667-0.4725 0.3333 ( 62252 PWs)   bands (ev):

   -66.1610 -66.1610 -66.1604 -66.1604 -66.1601 -66.1601 -66.1596 -66.1596
   -30.5449 -30.5449 -30.5417 -30.5417 -30.5364 -30.5364 -30.5323 -30.5323
   -30.4875 -30.4875 -30.4836 -30.4835 -30.4662 -30.4661 -30.4626 -30.4626
   -30.4592 -30.4592 -30.4542 -30.4541 -30.4441 -30.4441 -30.4409 -30.4409
   -20.3170 -20.3170 -20.3168 -20.3168 -20.3168 -20.3168 -20.3167 -20.3167
   -20.2945 -20.2945 -20.2941 -20.2941 -20.2941 -20.2941 -20.2937 -20.2937
   -20.2920 -20.2920 -20.2918 -20.2918 -20.2913 -20.2913 -20.2911 -20.2911
   -20.2897 -20.2897 -20.2895 -20.2895 -20.2894 -20.2894 -20.2892 -20.2892
   -20.2855 -20.2855 -20.2853 -20.2853 -20.2830 -20.2830 -20.2821 -20.2821
   -20.2800 -20.2800 -20.2793 -20.2793 -20.2788 -20.2788 -20.2775 -20.2775
   -20.2757 -20.2757 -20.2747 -20.2746 -20.2737 -20.2737 -20.2729 -20.2729
    -9.6388  -9.6388  -9.4163  -9.4162  -9.1520  -9.1517  -8.9756  -8.9755
    -8.4443  -8.4427  -8.3948  -8.3904  -8.3119  -8.3082  -8.2987  -8.2963
    -8.2103  -8.2083  -8.1418  -8.1403  -7.9000  -7.8995  -7.8458  -7.8456
     1.4129   1.4135   1.4239   1.4257   2.0914   2.0928   2.2477   2.2479
     2.7185   2.7234   3.1591   3.1740   3.2144   3.2158   3.2668   3.2933
     3.3472   3.3530   3.4647   3.4689   3.6143   3.6239   3.6848   3.7219
     3.7764   3.7794   3.8732   3.8741   4.4056   4.4142   4.5123   4.5260
     4.6186   4.6810   4.8037   4.8171   4.9643   4.9722   4.9985   5.0858
     5.2239   5.2750   5.3284   5.4427   5.7499   5.7701   6.0048   6.0231
     6.5140   6.5195   6.6699   6.6934   6.7978   6.8086   6.9017   6.9219
     6.9891   7.0473   7.1706   7.1820   7.2063   7.2201   7.4823   7.4872
     7.5004   7.5039   7.5334   7.5422   7.5469   7.5683   7.7728   7.7790
    10.5535  10.5541  11.3236  11.3244  11.3772  11.3796  11.6519  11.6557
    11.7048  11.7256  12.0131  12.0513  12.5931  12.6515  12.8147  12.8401
    12.8608  12.9014  13.0985  13.1708  13.3456  13.3642  13.4861  13.5363
    15.7711  15.7806  15.9691  15.9729  16.4168  16.4356  16.7267  16.7646
    16.7824  16.7971  17.3588  17.3719  17.7571

          k = 0.1667-0.4725-0.5000 ( 62232 PWs)   bands (ev):

   -66.1607 -66.1607 -66.1607 -66.1607 -66.1598 -66.1598 -66.1598 -66.1598
   -30.5431 -30.5431 -30.5431 -30.5431 -30.5117 -30.5117 -30.5117 -30.5117
   -30.5075 -30.5075 -30.5075 -30.5075 -30.4647 -30.4647 -30.4646 -30.4646
   -30.4572 -30.4572 -30.4572 -30.4572 -30.4427 -30.4427 -30.4427 -30.4427
   -20.3169 -20.3169 -20.3169 -20.3169 -20.3168 -20.3168 -20.3167 -20.3167
   -20.2943 -20.2943 -20.2943 -20.2943 -20.2939 -20.2939 -20.2939 -20.2939
   -20.2919 -20.2919 -20.2919 -20.2919 -20.2912 -20.2912 -20.2912 -20.2912
   -20.2896 -20.2896 -20.2896 -20.2896 -20.2894 -20.2894 -20.2893 -20.2893
   -20.2854 -20.2854 -20.2854 -20.2854 -20.2812 -20.2812 -20.2812 -20.2812
   -20.2803 -20.2803 -20.2802 -20.2802 -20.2788 -20.2788 -20.2788 -20.2788
   -20.2752 -20.2752 -20.2752 -20.2752 -20.2733 -20.2733 -20.2733 -20.2733
    -9.5002  -9.5002  -9.5001  -9.5001  -8.7789  -8.7789  -8.7769  -8.7769
    -8.7010  -8.7010  -8.6984  -8.6984  -8.2958  -8.2958  -8.2925  -8.2925
    -8.2665  -8.2665  -8.2632  -8.2632  -7.8730  -7.8730  -7.8726  -7.8726
     1.4314   1.4314   1.4324   1.4324   2.9360   2.9360   2.9410   2.9410
     3.0388   3.0388   3.0750   3.0750   3.1784   3.1784   3.2222   3.2222
     3.3111   3.3111   3.3287   3.3287   3.4726   3.4726   3.4811   3.4811
     3.6712   3.6712   3.6909   3.6909   4.3192   4.3192   4.3217   4.3217
     4.4138   4.4138   4.4263   4.4263   4.7978   4.7978   4.9042   4.9042
     5.2208   5.2208   5.3384   5.3384   5.8050   5.8050   5.8288   5.8288
     6.6648   6.6648   6.6845   6.6845   6.7901   6.7901   6.8068   6.8068
     7.2923   7.2923   7.3521   7.3521   7.3914   7.3914   7.4070   7.4071
     7.4623   7.4623   7.4891   7.4891   7.5960   7.5960   7.6278   7.6278
    11.2186  11.2186  11.2637  11.2637  11.4055  11.4055  11.4751  11.4751
    12.2200  12.2200  12.2286  12.2286  12.2529  12.2529  12.2757  12.2757
    12.8717  12.8717  12.9443  12.9443  13.3623  13.3623  13.4164  13.4164
    15.8916  15.8916  15.9022  15.9022  16.8928  16.8928  16.8942  16.8942
    17.4278  17.4279  17.4572  17.4572  17.5142

          k = 0.3333 0.0000 0.3333 ( 62316 PWs)   bands (ev):

   -66.1610 -66.1606 -66.1605 -66.1604 -66.1601 -66.1600 -66.1599 -66.1596
   -30.5375 -30.5357 -30.5346 -30.5332 -30.5283 -30.5258 -30.5236 -30.5220
   -30.4970 -30.4950 -30.4927 -30.4854 -30.4844 -30.4832 -30.4788 -30.4739
   -30.4728 -30.4699 -30.4647 -30.4605 -30.4301 -30.4272 -30.4269 -30.4241
   -20.3169 -20.3169 -20.3169 -20.3169 -20.3168 -20.3168 -20.3167 -20.3167
   -20.2950 -20.2948 -20.2947 -20.2944 -20.2940 -20.2938 -20.2936 -20.2934
   -20.2922 -20.2921 -20.2920 -20.2920 -20.2918 -20.2917 -20.2917 -20.2916
   -20.2914 -20.2912 -20.2910 -20.2908 -20.2874 -20.2871 -20.2870 -20.2867
   -20.2844 -20.2842 -20.2838 -20.2836 -20.2828 -20.2828 -20.2822 -20.2821
   -20.2810 -20.2806 -20.2804 -20.2801 -20.2787 -20.2786 -20.2780 -20.2778
   -20.2754 -20.2753 -20.2745 -20.2743 -20.2743 -20.2742 -20.2735 -20.2733
    -9.6290  -9.3720  -9.3676  -9.3486  -9.1265  -9.0860  -9.0136  -8.8853
    -8.8648  -8.7371  -8.7219  -8.7197  -8.3353  -8.2694  -8.2609  -8.2482
    -8.2321  -8.2294  -8.1497  -8.1270  -7.6846  -7.6577  -7.6546  -7.6288
     1.6312   1.6621   1.6652   1.7091   1.9837   1.9866   2.1066   2.1444
     2.1770   2.2093   2.3877   2.5015   2.9322   2.9392   2.9577   2.9858
     3.0797   3.1013   3.7136   3.7881   3.8120   3.9150   3.9491   3.9720
     4.1454   4.1504   4.1879   4.2898   4.3223   4.3281   4.4482   4.4904
     4.6999   4.7679   4.8479   4.9200   4.9255   4.9348   5.0734   5.3314
     5.3549   5.3828   5.4381   5.7091   6.0522   6.0524   6.0838   6.1464
     6.5024   6.5272   6.5413   6.5944   6.6278   6.6484   6.6611   6.6650
     6.9879   7.0869   7.0957   7.1396   7.1446   7.1688   7.2726   7.2791
     7.3050   7.4568   7.6913   7.6922   7.9190   7.9744   8.0042   8.0280
    10.6945  10.7664  10.7687  10.8373  11.0219  11.1534  12.1176  12.1403
    12.1773  12.2294  12.2419  12.2996  12.4754  12.5072  12.7405  12.7745
    12.8041  12.8937  12.9420  13.1011  13.4919  13.5518  13.5886  13.6779
    14.4629  14.7075  14.7128  15.1236  15.8887  16.5255  16.5540  16.8706
    16.8791  17.3494  17.3684  17.8335  17.8801

          k = 0.3333 0.0000-0.5000 ( 62288 PWs)   bands (ev):

   -66.1607 -66.1607 -66.1603 -66.1603 -66.1602 -66.1602 -66.1598 -66.1598
   -30.5272 -30.5271 -30.5239 -30.5239 -30.5127 -30.5127 -30.5110 -30.5110
   -30.5101 -30.5101 -30.5087 -30.5087 -30.4892 -30.4892 -30.4802 -30.4802
   -30.4731 -30.4731 -30.4637 -30.4637 -30.4287 -30.4287 -30.4255 -30.4255
   -20.3169 -20.3169 -20.3169 -20.3168 -20.3168 -20.3168 -20.3168 -20.3168
   -20.2949 -20.2949 -20.2946 -20.2946 -20.2938 -20.2938 -20.2936 -20.2936
   -20.2921 -20.2921 -20.2919 -20.2919 -20.2919 -20.2919 -20.2917 -20.2917
   -20.2913 -20.2913 -20.2909 -20.2909 -20.2872 -20.2872 -20.2870 -20.2869
   -20.2843 -20.2843 -20.2837 -20.2837 -20.2816 -20.2815 -20.2812 -20.2812
   -20.2804 -20.2804 -20.2803 -20.2803 -20.2796 -20.2795 -20.2795 -20.2795
   -20.2750 -20.2750 -20.2748 -20.2748 -20.2739 -20.2739 -20.2738 -20.2738
    -9.4574  -9.4574  -9.1800  -9.1800  -9.1364  -9.1364  -8.7630  -8.7630
    -8.7271  -8.7271  -8.6442  -8.6442  -8.5902  -8.5902  -8.5528  -8.5528
    -8.2077  -8.2077  -8.2001  -8.2001  -7.6713  -7.6713  -7.6419  -7.6419
     1.6504   1.6504   1.6928   1.6928   2.1551   2.1551   2.1976   2.1976
     2.9045   2.9045   2.9839   2.9839   3.0191   3.0191   3.1172   3.1172
     3.1799   3.1799   3.4652   3.4653   3.6048   3.6048   3.7805   3.7805
     3.8027   3.8027   4.0233   4.0233   4.1499   4.1499   4.2667   4.2667
     4.5767   4.5767   4.8263   4.8263   4.9033   4.9033   5.0106   5.0106
     5.1698   5.1698   5.5403   5.5403   6.0882   6.0882   6.1427   6.1427
     6.4775   6.4775   6.5245   6.5245   6.5921   6.5921   6.6448   6.6449
     7.1311   7.1311   7.1833   7.1833   7.2697   7.2697   7.5073   7.5073
     7.5170   7.5170   7.6870   7.6870   7.7455   7.7455   7.9832   7.9832
    10.7665  10.7665  11.4936  11.4936  11.5812  11.5812  11.6524  11.6524
[...]
   -20.4442 -20.4442 -20.4440 -20.4440 -20.4417 -20.4417 -20.4413 -20.4413
   -20.4368 -20.4368 -20.4367 -20.4366 -20.4345 -20.4345 -20.4345 -20.4344
   -20.4340 -20.4340 -20.4340 -20.4340 -20.4309 -20.4309 -20.4308 -20.4308
   -20.4283 -20.4283 -20.4282 -20.4282 -20.4267 -20.4267 -20.4264 -20.4264
    -9.5976  -9.5976  -9.4440  -9.4440  -9.0830  -9.0830  -8.8602  -8.8602
    -8.7131  -8.7131  -8.6679  -8.6678  -8.6074  -8.6074  -8.5557  -8.5557
    -8.2525  -8.2525  -8.2240  -8.2240  -7.9466  -7.9466  -7.9313  -7.9313
     1.4270   1.4270   1.4363   1.4363   2.2128   2.2128   2.3156   2.3156
     2.8924   2.8924   2.9543   2.9543   2.9887   2.9887   3.1190   3.1191
     3.1535   3.1536   3.3585   3.3585   3.3901   3.3902   3.6030   3.6030
     3.8481   3.8482   3.9035   3.9035   4.0756   4.0756   4.2600   4.2600
     4.5885   4.5885   4.6907   4.6907   4.8546   4.8546   4.8766   4.8766
     4.9816   4.9816   5.3827   5.3827   5.7119   5.7119   5.7675   5.7675
     6.5319   6.5319   6.6537   6.6537   6.6956   6.6957   6.7232   6.7232
     6.9150   6.9150   6.9768   6.9768   7.0602   7.0603   7.3991   7.3991
     7.4186   7.4186   7.4894   7.4894   7.5144   7.5144   7.7504   7.7504
    10.6070  10.6070  11.1221  11.1221  11.1694  11.1694  11.5623  11.5623
    11.7791  11.7791  12.0088  12.0088  12.4583  12.4583  12.4946  12.4946
    12.6878  12.6878  12.7900  12.7900  13.0131  13.0131  13.4721  13.4721
    15.2631  15.2631  15.7497  15.7497  16.2587  16.2587  16.4214  16.4214
    16.7555  16.7555  17.2189  17.2189  17.7585

          k = 0.3306 0.4777 0.1650 ( 62736 PWs)   bands (ev):

   -66.3064 -66.3064 -66.3059 -66.3059 -66.3056 -66.3056 -66.3052 -66.3052
   -30.6602 -30.6602 -30.6568 -30.6567 -30.6530 -30.6529 -30.6474 -30.6474
   -30.6448 -30.6447 -30.6382 -30.6382 -30.6211 -30.6210 -30.6188 -30.6188
   -30.5802 -30.5802 -30.5777 -30.5777 -30.5655 -30.5655 -30.5624 -30.5624
   -20.4710 -20.4710 -20.4710 -20.4710 -20.4707 -20.4707 -20.4707 -20.4707
   -20.4489 -20.4489 -20.4487 -20.4487 -20.4482 -20.4482 -20.4479 -20.4479
   -20.4454 -20.4454 -20.4450 -20.4450 -20.4449 -20.4449 -20.4446 -20.4445
   -20.4432 -20.4432 -20.4430 -20.4430 -20.4428 -20.4428 -20.4426 -20.4426
   -20.4369 -20.4369 -20.4365 -20.4365 -20.4360 -20.4360 -20.4358 -20.4358
   -20.4329 -20.4329 -20.4326 -20.4326 -20.4312 -20.4312 -20.4303 -20.4303
   -20.4286 -20.4286 -20.4279 -20.4279 -20.4268 -20.4268 -20.4263 -20.4263
    -9.6305  -9.6304  -9.4233  -9.4231  -9.1403  -9.1402  -8.9376  -8.9376
    -8.6794  -8.6784  -8.5983  -8.5975  -8.5575  -8.5561  -8.5488  -8.5487
    -8.2704  -8.2702  -8.2053  -8.2043  -7.9652  -7.9651  -7.9133  -7.9132
     1.4208   1.4238   1.4295   1.4320   2.1194   2.1205   2.2645   2.2682
     2.8007   2.8052   2.9933   2.9985   3.0580   3.0722   3.1232   3.1385
     3.1993   3.2083   3.3224   3.3557   3.4382   3.4550   3.6016   3.6043
     3.6616   3.6744   3.7837   3.8347   4.2295   4.2514   4.4487   4.4583
     4.5189   4.5633   4.6993   4.7224   4.7896   4.8709   4.8747   4.8944
     4.9946   5.0433   5.2338   5.2983   5.6431   5.6602   5.9595   5.9637
     6.5075   6.5257   6.5668   6.5712   6.7186   6.7194   6.8415   6.8718
     6.9591   6.9823   7.0295   7.0651   7.1035   7.1068   7.3438   7.3518
     7.3784   7.3995   7.4087   7.4323   7.4383   7.4461   7.7107   7.7143
    10.4020  10.4065  11.1843  11.2012  11.2237  11.2272  11.5995  11.6070
    11.6217  11.6359  11.8037  11.8545  12.3694  12.4166  12.5977  12.6148
    12.7010  12.7203  12.9626  13.0539  13.1554  13.1947  13.2124  13.2878
    15.4505  15.4662  15.7048  15.7166  16.1479  16.1621  16.5350  16.5582
    16.7610  16.7687  17.2896  17.3301  17.7469

          k =-0.4959 0.4777 0.1650 ( 62748 PWs)   bands (ev):

   -66.3062 -66.3062 -66.3062 -66.3062 -66.3054 -66.3054 -66.3054 -66.3054
   -30.6584 -30.6584 -30.6580 -30.6580 -30.6500 -30.6500 -30.6491 -30.6491
   -30.6408 -30.6408 -30.6403 -30.6403 -30.6021 -30.6021 -30.6012 -30.6012
   -30.5994 -30.5994 -30.5984 -30.5984 -30.5643 -30.5643 -30.5642 -30.5642
   -20.4710 -20.4710 -20.4710 -20.4710 -20.4707 -20.4707 -20.4707 -20.4707
   -20.4488 -20.4488 -20.4488 -20.4488 -20.4481 -20.4481 -20.4481 -20.4481
   -20.4451 -20.4451 -20.4451 -20.4451 -20.4448 -20.4448 -20.4448 -20.4448
   -20.4432 -20.4432 -20.4431 -20.4431 -20.4428 -20.4428 -20.4427 -20.4427
   -20.4367 -20.4367 -20.4367 -20.4367 -20.4344 -20.4344 -20.4343 -20.4343
   -20.4342 -20.4342 -20.4341 -20.4341 -20.4308 -20.4308 -20.4308 -20.4308
   -20.4283 -20.4283 -20.4282 -20.4282 -20.4266 -20.4266 -20.4266 -20.4266
    -9.5069  -9.5069  -9.5021  -9.5020  -8.8541  -8.8541  -8.8338  -8.8338
    -8.7233  -8.7233  -8.7052  -8.7052  -8.5272  -8.5272  -8.4950  -8.4950
    -8.4774  -8.4774  -8.4479  -8.4478  -7.9395  -7.9395  -7.9394  -7.9394
     1.4324   1.4324   1.4373   1.4373   2.8402   2.8402   2.9336   2.9336
     2.9738   2.9738   3.0026   3.0026   3.1042   3.1042   3.1077   3.1077
     3.2337   3.2337   3.3042   3.3042   3.3747   3.3747   3.4186   3.4186
     3.4290   3.4290   3.6838   3.6839   4.1248   4.1248   4.1842   4.1842
     4.2077   4.2077   4.2921   4.2921   4.7301   4.7301   4.8548   4.8548
     5.0366   5.0366   5.1530   5.1530   5.7163   5.7163   5.7348   5.7348
     6.6061   6.6061   6.6654   6.6654   6.7047   6.7047   6.7466   6.7466
     7.1591   7.1591   7.1827   7.1827   7.2529   7.2530   7.3168   7.3169
     7.3550   7.3550   7.4386   7.4386   7.4980   7.4981   7.5356   7.5356
    11.0853  11.0853  11.1375  11.1375  11.2066  11.2066  11.2843  11.2843
    12.0510  12.0510  12.0826  12.0826  12.1664  12.1664  12.1879  12.1879
    12.6666  12.6666  12.7372  12.7372  13.1664  13.1664  13.2239  13.2239
    15.6002  15.6002  15.6162  15.6162  16.7432  16.7432  16.8221  16.8221
    17.2727  17.2727  17.3384  17.3391  17.4068

          k =-0.4959 0.0000 0.3300 ( 62778 PWs)   bands (ev):

   -66.3062 -66.3062 -66.3058 -66.3058 -66.3058 -66.3058 -66.3053 -66.3053
   -30.6840 -30.6840 -30.6814 -30.6814 -30.6367 -30.6367 -30.6273 -30.6273
   -30.6232 -30.6232 -30.6206 -30.6206 -30.6036 -30.6036 -30.6030 -30.6030
   -30.5979 -30.5979 -30.5915 -30.5915 -30.5794 -30.5794 -30.5777 -30.5777
   -20.4709 -20.4709 -20.4709 -20.4709 -20.4708 -20.4708 -20.4708 -20.4708
   -20.4491 -20.4491 -20.4487 -20.4487 -20.4483 -20.4483 -20.4479 -20.4479
   -20.4461 -20.4461 -20.4458 -20.4458 -20.4453 -20.4453 -20.4451 -20.4451
   -20.4445 -20.4445 -20.4443 -20.4443 -20.4403 -20.4403 -20.4400 -20.4400
   -20.4356 -20.4356 -20.4355 -20.4355 -20.4347 -20.4347 -20.4344 -20.4344
   -20.4338 -20.4338 -20.4337 -20.4337 -20.4320 -20.4320 -20.4318 -20.4318
   -20.4281 -20.4281 -20.4278 -20.4278 -20.4272 -20.4272 -20.4268 -20.4268
    -9.5989  -9.5989  -9.3911  -9.3911  -9.1711  -9.1711  -8.8947  -8.8947
    -8.7200  -8.7200  -8.6472  -8.6472  -8.6043  -8.6042  -8.5832  -8.5832
    -8.2516  -8.2516  -8.2397  -8.2397  -7.8843  -7.8843  -7.8615  -7.8615
     1.3289   1.3289   1.3599   1.3599   2.1370   2.1370   2.1796   2.1796
     2.8149   2.8149   2.9197   2.9197   2.9450   2.9450   3.0918   3.0918
     3.1690   3.1691   3.4768   3.4768   3.5919   3.5919   3.6817   3.6817
     3.7269   3.7269   3.8923   3.8923   4.0547   4.0547   4.2708   4.2708
     4.5694   4.5694   4.7936   4.7936   4.9243   4.9243   4.9427   4.9427
     5.1748   5.1748   5.4453   5.4453   5.8756   5.8756   5.9614   5.9614
     6.2880   6.2880   6.3164   6.3164   6.4071   6.4071   6.4612   6.4612
     7.0162   7.0162   7.1390   7.1390   7.2077   7.2077   7.4159   7.4159
     7.4482   7.4482   7.5537   7.5537   7.5934   7.5934   7.8781   7.8781
    10.6336  10.6336  11.2599  11.2599  11.3311  11.3311  11.4561  11.4561
    11.6247  11.6247  12.1063  12.1063  12.3342  12.3342  12.4696  12.4696
    12.7151  12.7151  13.0674  13.0674  13.0992  13.0992  13.4902  13.4902
    14.6547  14.6547  15.0224  15.0224  16.1615  16.1616  16.5974  16.5974
    16.9193  16.9193  17.3090  17.3090  17.8520

          k =-0.4959-0.1592 0.3300 ( 62760 PWs)   bands (ev):

   -66.3062 -66.3062 -66.3058 -66.3058 -66.3058 -66.3058 -66.3054 -66.3054
   -30.6799 -30.6799 -30.6772 -30.6772 -30.6377 -30.6377 -30.6276 -30.6276
   -30.6262 -30.6262 -30.6223 -30.6223 -30.6034 -30.6034 -30.6028 -30.6028
   -30.5984 -30.5984 -30.5931 -30.5931 -30.5795 -30.5795 -30.5783 -30.5783
   -20.4709 -20.4709 -20.4709 -20.4709 -20.4708 -20.4708 -20.4708 -20.4708
   -20.4490 -20.4490 -20.4486 -20.4486 -20.4484 -20.4484 -20.4479 -20.4479
   -20.4458 -20.4458 -20.4455 -20.4455 -20.4453 -20.4453 -20.4451 -20.4451
   -20.4445 -20.4445 -20.4443 -20.4443 -20.4407 -20.4407 -20.4404 -20.4404
   -20.4356 -20.4356 -20.4355 -20.4355 -20.4346 -20.4346 -20.4344 -20.4344
   -20.4339 -20.4338 -20.4338 -20.4338 -20.4320 -20.4320 -20.4318 -20.4318
   -20.4281 -20.4281 -20.4278 -20.4278 -20.4272 -20.4272 -20.4268 -20.4268
    -9.5467  -9.5467  -9.3204  -9.3204  -9.1817  -9.1817  -8.8699  -8.8699
    -8.7295  -8.7295  -8.6437  -8.6437  -8.6016  -8.6016  -8.5810  -8.5810
    -8.2496  -8.2496  -8.2446  -8.2446  -7.9870  -7.9870  -7.9643  -7.9643
     1.5626   1.5626   1.5978   1.5979   2.1367   2.1367   2.1879   2.1879
     2.8733   2.8733   2.9448   2.9449   2.9663   2.9663   3.1003   3.1003
     3.1722   3.1722   3.5025   3.5025   3.6049   3.6049   3.7127   3.7127
     3.7262   3.7263   3.9342   3.9342   4.0366   4.0366   4.2779   4.2779
     4.4409   4.4409   4.5934   4.5934   4.8553   4.8553   4.8942   4.8942
     4.9342   4.9342   5.2070   5.2070   5.6257   5.6257   5.7355   5.7355
     6.4465   6.4465   6.4719   6.4719   6.5378   6.5378   6.6587   6.6587
     7.0257   7.0257   7.1345   7.1345   7.2104   7.2104   7.4144   7.4144
     7.4427   7.4427   7.5390   7.5390   7.5778   7.5778   7.8266   7.8266
    10.7399  10.7399  11.2955  11.2955  11.3887  11.3887  11.4769  11.4769
    11.6650  11.6650  12.1369  12.1369  12.3303  12.3303  12.4832  12.4832
    12.5675  12.5675  12.9395  12.9395  12.9694  12.9694  13.3732  13.3732
    15.0226  15.0226  15.4062  15.4062  16.2431  16.2432  16.5980  16.5980
    16.9272  16.9272  17.3358  17.3358  17.6908

          k =-0.4959-0.3185 0.3300 ( 62694 PWs)   bands (ev):

   -66.3061 -66.3061 -66.3059 -66.3059 -66.3057 -66.3057 -66.3055 -66.3055
   -30.6688 -30.6688 -30.6658 -30.6658 -30.6427 -30.6427 -30.6361 -30.6361
   -30.6276 -30.6276 -30.6259 -30.6259 -30.6028 -30.6028 -30.6021 -30.6021
   -30.5994 -30.5994 -30.5964 -30.5964 -30.5797 -30.5797 -30.5793 -30.5793
   -20.4709 -20.4709 -20.4709 -20.4709 -20.4708 -20.4708 -20.4708 -20.4708
   -20.4488 -20.4488 -20.4485 -20.4485 -20.4484 -20.4484 -20.4480 -20.4480
   -20.4452 -20.4452 -20.4452 -20.4452 -20.4450 -20.4450 -20.4449 -20.4449
   -20.4442 -20.4442 -20.4441 -20.4441 -20.4417 -20.4417 -20.4415 -20.4415
   -20.4356 -20.4356 -20.4355 -20.4355 -20.4345 -20.4345 -20.4344 -20.4344
   -20.4340 -20.4340 -20.4339 -20.4339 -20.4319 -20.4319 -20.4318 -20.4318
   -20.4280 -20.4280 -20.4279 -20.4279 -20.4271 -20.4271 -20.4269 -20.4269
    -9.4200  -9.4200  -9.2182  -9.2182  -9.1290  -9.1290  -8.7925  -8.7925
    -8.7614  -8.7614  -8.6383  -8.6383  -8.5888  -8.5888  -8.5633  -8.5633
    -8.2890  -8.2890  -8.2471  -8.2471  -8.2343  -8.2343  -8.1786  -8.1786
     2.0500   2.0500   2.1349   2.1349   2.2244   2.2244   2.3528   2.3528
     2.9475   2.9476   2.9876   2.9876   3.0761   3.0761   3.1327   3.1327
     3.2117   3.2117   3.5408   3.5408   3.5863   3.5864   3.6847   3.6847
     3.8228   3.8228   3.9372   3.9372   4.0604   4.0604   4.0875   4.0875
     4.2031   4.2031   4.3594   4.3594   4.4792   4.4793   4.7104   4.7104
     4.7876   4.7876   4.8871   4.8871   4.9083   4.9083   5.2044   5.2044
     6.7557   6.7557   6.8155   6.8155   6.8841   6.8841   6.9213   6.9213
     7.0507   7.0507   7.1307   7.1307   7.2298   7.2298   7.3882   7.3882
     7.4205   7.4205   7.4962   7.4962   7.5202   7.5203   7.6756   7.6756
    11.0496  11.0496  11.3563  11.3564  11.4405  11.4405  11.6406  11.6406
    11.8295  11.8295  12.1609  12.1609  12.2287  12.2287  12.3045  12.3045
    12.5363  12.5363  12.6361  12.6361  12.6557  12.6557  13.0883  13.0883
    15.8546  15.8546  16.3242  16.3242  16.4978  16.4978  16.5988  16.5988
    16.9727  16.9727  17.2945  17.2945  17.4867

          k =-0.4959 0.4777 0.3300 ( 62720 PWs)   bands (ev):

   -66.3060 -66.3060 -66.3060 -66.3060 -66.3056 -66.3056 -66.3056 -66.3056
   -30.6549 -30.6549 -30.6542 -30.6542 -30.6510 -30.6510 -30.6502 -30.6502
   -30.6277 -30.6277 -30.6274 -30.6274 -30.6023 -30.6023 -30.6016 -30.6016
   -30.5996 -30.5996 -30.5985 -30.5985 -30.5798 -30.5798 -30.5796 -30.5796
   -20.4709 -20.4709 -20.4709 -20.4709 -20.4708 -20.4708 -20.4708 -20.4708
   -20.4487 -20.4487 -20.4487 -20.4487 -20.4482 -20.4482 -20.4482 -20.4482
   -20.4451 -20.4451 -20.4451 -20.4451 -20.4448 -20.4448 -20.4448 -20.4448
   -20.4431 -20.4431 -20.4430 -20.4430 -20.4429 -20.4429 -20.4428 -20.4428
   -20.4356 -20.4356 -20.4356 -20.4356 -20.4344 -20.4344 -20.4344 -20.4344
   -20.4341 -20.4341 -20.4340 -20.4340 -20.4319 -20.4319 -20.4319 -20.4319
   -20.4280 -20.4280 -20.4280 -20.4280 -20.4270 -20.4270 -20.4270 -20.4270
    -9.2982  -9.2982  -9.2908  -9.2908  -8.9116  -8.9116  -8.8922  -8.8922
    -8.6707  -8.6707  -8.6527  -8.6527  -8.5203  -8.5203  -8.4980  -8.4980
    -8.4737  -8.4737  -8.4557  -8.4557  -8.2329  -8.2329  -8.2321  -8.2321
     2.1217   2.1217   2.1318   2.1318   2.8613   2.8613   2.9123   2.9123
     2.9994   2.9994   3.0075   3.0075   3.1102   3.1102   3.1223   3.1223
     3.3044   3.3044   3.3418   3.3418   3.4934   3.4934   3.5485   3.5485
     3.6638   3.6638   3.7896   3.7896   4.1084   4.1084   4.1223   4.1223
     4.1708   4.1708   4.2360   4.2360   4.3303   4.3303   4.4099   4.4099
     4.5495   4.5495   4.6662   4.6662   4.9132   4.9132   4.9357   4.9357
     6.8808   6.8808   6.9714   6.9714   7.0359   7.0359   7.0477   7.0477
     7.1513   7.1513   7.2100   7.2100   7.2830   7.2830   7.2905   7.2905
     7.3661   7.3661   7.4512   7.4512   7.4863   7.4863   7.5372   7.5372
    11.3382  11.3382  11.3816  11.3816  11.5344  11.5344  11.6286  11.6286
    12.0393  12.0393  12.0941  12.0941  12.1229  12.1229  12.2023  12.2023
    12.3398  12.3398  12.4784  12.4784  12.7337  12.7337  12.8178  12.8178
    16.3880  16.3880  16.4335  16.4335  16.9236  16.9236  16.9860  16.9861
    17.2513  17.2513  17.3492  17.3493  17.4009

     the Fermi energy is     8.8712 ev

!    total energy              =   -6261.11067815 Ry
     Harris-Foulkes estimate   =   -6261.11067815 Ry
     estimated scf accuracy    <          8.0E-11 Ry

     The total energy is the sum of the following terms:

     one-electron contribution =   -4750.70432044 Ry
     hartree contribution      =    2610.33850739 Ry
     xc contribution           =    -965.66793946 Ry
     ewald contribution        =   -3155.07692564 Ry
     smearing contrib. (-TS)   =      -0.00000000 Ry

     convergence has been achieved in  14 iterations

     Forces acting on atoms (cartesian axes, Ry/au):

     atom    1 type  1   force =    -0.00417642    0.00651377    0.00340405
     atom    2 type  1   force =     0.00417642   -0.00651377   -0.00340405
     atom    3 type  1   force =     0.00417642   -0.00651377    0.00340405
     atom    4 type  1   force =    -0.00417642    0.00651377   -0.00340405
     atom    5 type  1   force =     0.00417642    0.00651377   -0.00340405
     atom    6 type  1   force =    -0.00417642   -0.00651377    0.00340405
     atom    7 type  1   force =    -0.00417642   -0.00651377   -0.00340405
     atom    8 type  1   force =     0.00417642    0.00651377    0.00340405
     atom    9 type  2   force =    -0.00020996   -0.00318185   -0.00011076
     atom   10 type  2   force =     0.00020996    0.00318185    0.00011076
     atom   11 type  2   force =     0.00020996    0.00318185   -0.00011076
     atom   12 type  2   force =    -0.00020996   -0.00318185    0.00011076
     atom   13 type  2   force =     0.00020996   -0.00318185    0.00011076
     atom   14 type  2   force =    -0.00020996    0.00318185   -0.00011076
     atom   15 type  2   force =    -0.00020996    0.00318185    0.00011076
     atom   16 type  2   force =     0.00020996   -0.00318185   -0.00011076
     atom   17 type  2   force =    -0.00220295   -0.00032835   -0.00021814
     atom   18 type  2   force =     0.00220295    0.00032835    0.00021814
     atom   19 type  2   force =     0.00220295    0.00032835   -0.00021814
     atom   20 type  2   force =    -0.00220295   -0.00032835    0.00021814
     atom   21 type  2   force =     0.00220295   -0.00032835    0.00021814
     atom   22 type  2   force =    -0.00220295    0.00032835   -0.00021814
     atom   23 type  2   force =    -0.00220295    0.00032835    0.00021814
     atom   24 type  2   force =     0.00220295   -0.00032835   -0.00021814
     atom   25 type  2   force =    -0.00147165   -0.00011959    0.00251929
     atom   26 type  2   force =     0.00147165    0.00011959   -0.00251929
     atom   27 type  2   force =     0.00147165    0.00011959    0.00251929
     atom   28 type  2   force =    -0.00147165   -0.00011959   -0.00251929
     atom   29 type  2   force =     0.00147165   -0.00011959   -0.00251929
     atom   30 type  2   force =    -0.00147165    0.00011959    0.00251929
     atom   31 type  2   force =    -0.00147165    0.00011959   -0.00251929
     atom   32 type  2   force =     0.00147165   -0.00011959    0.00251929

     Total force =     0.000000     Total SCF correction =     0.000000


     Computing stress (Cartesian axis) and pressure

          total   stress  (Ry/bohr**3)                   (kbar)     P=    0.30
   0.00000308   0.00000000   0.00000000          0.45      0.00      0.00
   0.00000000  -0.00000070   0.00000000          0.00     -0.10      0.00
   0.00000000   0.00000000   0.00000366          0.00      0.00      0.54


     Writing output data file Landau_20.save
 
     init_run     :    104.39s CPU    107.83s WALL (       2 calls)
     electrons    :  13963.08s CPU  14264.02s WALL (       7 calls)
     update_pot   :    119.77s CPU    120.26s WALL (       5 calls)
     forces       :    256.68s CPU    260.83s WALL (       7 calls)
     stress       :   1994.24s CPU   2018.84s WALL (       7 calls)

     Called by init_run:
     wfcinit      :     83.97s CPU     87.07s WALL (       2 calls)
     potinit      :      8.61s CPU      8.69s WALL (       2 calls)

     Called by electrons:
     c_bands      :  12484.37s CPU  12768.43s WALL (      92 calls)
     sum_band     :   1405.38s CPU   1416.58s WALL (      92 calls)
     v_of_rho     :      9.62s CPU      9.83s WALL (      97 calls)
     mix_rho      :     15.12s CPU     19.50s WALL (      92 calls)

     Called by c_bands:
     init_us_2    :     60.02s CPU     65.12s WALL (     400 calls)
     cegterg      :  10434.88s CPU  10700.67s WALL (     184 calls)

     Called by sum_band:

     Called by *egterg:
     h_psi        :   7433.17s CPU   7489.32s WALL (     741 calls)
     g_psi        :     11.87s CPU     11.99s WALL (     553 calls)
     cdiaghg      :    127.19s CPU    127.76s WALL (     723 calls)

     Called by h_psi:
     h_psi:pot    :   7401.79s CPU   7456.42s WALL (     741 calls)
     h_psi:calbec :   1192.05s CPU   1222.79s WALL (     741 calls)
     vloc_psi     :   4979.74s CPU   4995.75s WALL (     741 calls)
     add_vuspsi   :   1229.98s CPU   1237.88s WALL (     741 calls)

     General routines
     calbec       :   1374.66s CPU   1406.30s WALL (     811 calls)
     fft          :      9.47s CPU      9.51s WALL (     446 calls)
     fftw         :   5307.06s CPU   5321.87s WALL (  237876 calls)
 
     Parallel routines
 
     PWSCF        :     4h34m CPU        4h39m WALL

 
   This run was terminated on:   0: 3:33  13Mar2020            

=------------------------------------------------------------------------------=
   JOB DONE.
=------------------------------------------------------------------------------=
