
     Program PWSCF v.6.2 (svn rev. 14038) starts on 10Sep2019 at 14:56: 9 

     This program is part of the open-source Quantum ESPRESSO suite
     for quantum simulation of materials; please cite
         "P. Giannozzi et al., J. Phys.:Condens. Matter 21 395502 (2009);
         "P. Giannozzi et al., J. Phys.:Condens. Matter 29 465901 (2017);
          URL http://www.quantum-espresso.org", 
     in publications or presentations arising from this work. More details at
     http://www.quantum-espresso.org/quote

     Parallel version (MPI), running on    40 processors

     MPI processes distributed on     3 nodes
     K-points division:     npool     =      40
     Reading input from scf.in

     Current dimensions of program PWSCF are:
     Max number of different atomic species (ntypx) = 10
     Max number of k-points (npk) =  40000
     Max angular momentum in pseudopotentials (lmaxx) =  3

     Subspace diagonalization in iterative solution of the eigenvalue problem:
     a serial algorithm will be used

 
     G-vector sticks info
     --------------------
     sticks:   dense  smooth     PW     G-vecs:    dense   smooth      PW
     Sum        7689    7689   2067               494957   494957   68693
 


     bravais-lattice index     =            0
     lattice parameter (alat)  =      13.8536  a.u.
     unit-cell volume          =    2788.6664 (a.u.)^3
     number of atoms/cell      =           32
     number of atomic types    =            2
     number of electrons       =       368.05
     number of Kohn-Sham states=          221
     kinetic-energy cutoff     =     120.0000  Ry
     charge density cutoff     =     480.0000  Ry
     convergence threshold     =      1.0E-08
     mixing beta               =       0.7000
     number of iterations used =            8  plain     mixing
     Exchange-correlation      = SLA PW NOGX NOGC ( 1  4  0  0 0 0)

     celldm(1)=  13.853581  celldm(2)=   0.000000  celldm(3)=   0.000000
     celldm(4)=   0.000000  celldm(5)=   0.000000  celldm(6)=   0.000000

     crystal axes: (cart. coord. in units of alat)
               a(1) = (   1.000000   0.000000   0.000000 )  
               a(2) = (   0.000000   1.048843   0.000000 )  
               a(3) = (   0.000000   0.000000   1.000000 )  

     reciprocal axes: (cart. coord. in units 2 pi/alat)
               b(1) = (  1.000000  0.000000  0.000000 )  
               b(2) = (  0.000000  0.953432  0.000000 )  
               b(3) = (  0.000000  0.000000  1.000000 )  


     PseudoPot. # 1 for W  read from file:
     /cluster/scratch/mnoe/QE/pps/W_ONCV_LDA-4.0.upf
     MD5 check sum: ba0307d5d4cd419d6f1d13dc49d7c13a
     Pseudo is Norm-conserving + core correction, Zval = 28.0
     Generated using ONCVPSP code by D. R. Hamann
     Using radial grid of 1380 points,  8 beta functions with: 
                l(1) =   0
                l(2) =   0
                l(3) =   1
                l(4) =   1
                l(5) =   2
                l(6) =   2
                l(7) =   3
                l(8) =   3

     PseudoPot. # 2 for O  read from file:
     /cluster/scratch/mnoe/QE/pps/O_ONCV_LDA-3.0.upf
     MD5 check sum: ca1549d10c4e927e51167f6fca52ae32
     Pseudo is Norm-conserving + core correction, Zval =  6.0
     Generated using ONCVPSP code by D. R. Hamann
     Using radial grid of  926 points,  5 beta functions with: 
                l(1) =   0
                l(2) =   0
                l(3) =   1
                l(4) =   1
                l(5) =   2

     atomic species   valence    mass     pseudopotential
        W             28.00   183.84000     W ( 1.00)
        O              6.00    15.99940     O ( 1.00)

      8 Sym. Ops. (no inversion) found ( 4 have fractional translation)



   Cartesian axes

     site n.     atom                  positions (alat units)
         1           W   tau(   1) = (   0.2661800   0.2956269   0.2504600  )
         2           W   tau(   2) = (  -0.2504600   0.7532160  -0.7338200  )
         3           W   tau(   3) = (   0.2338200   0.2287946   0.7504600  )
         4           W   tau(   4) = (   0.7504600   0.8200482   0.7661800  )
         5           W   tau(   5) = (   0.7338200   0.2956269   0.7495400  )
         6           W   tau(   6) = (   0.2504600   0.7532160   0.7338200  )
         7           W   tau(   7) = (  -0.2338200   0.2287946  -0.7504600  )
         8           W   tau(   8) = (   0.2495400   0.8200482   0.2338200  )
         9           O   tau(   9) = (   0.2678100   0.0087264   0.2629100  )
        10           O   tau(  10) = (  -0.2629101   1.0401165  -0.7321900  )
        11           O   tau(  11) = (   0.2321900   0.5156950   0.7629100  )
        12           O   tau(  12) = (   0.7629100   0.5331478   0.7678100  )
        13           O   tau(  13) = (   0.7321900   0.0087264   0.7370900  )
        14           O   tau(  14) = (   0.2629100   1.0401165   0.7321900  )
        15           O   tau(  15) = (  -0.2321900   0.5156950  -0.7629101  )
        16           O   tau(  16) = (   0.2370900   0.5331478   0.2321900  )
        17           O   tau(  17) = (   0.4942701   0.2823380   0.6995400  )
        18           O   tau(  18) = (   0.4988300   0.7737209   0.8004600  )
        19           O   tau(  19) = (  -0.9942701   0.2420834   1.1995400  )
        20           O   tau(  20) = (   0.0011699   0.7995433   0.3004600  )
        21           O   tau(  21) = (   0.5057299   0.2823380   0.3004600  )
        22           O   tau(  22) = (   0.5011700   0.7737209   1.1995400  )
        23           O   tau(  23) = (  -0.0057300   0.2420834   0.8004600  )
        24           O   tau(  24) = (  -1.0011699   0.7995433   0.6995400  )
        25           O   tau(  25) = (   0.6995400   0.2492995   2.0011699  )
        26           O   tau(  26) = (   0.3004600   0.7665048   0.4942700  )
        27           O   tau(  27) = (   0.8004600   0.2751220   0.5011699  )
        28           O   tau(  28) = (   0.1995400   0.8067594   1.9942700  )
        29           O   tau(  29) = (   0.3004600   0.2492995   0.9988300  )
        30           O   tau(  30) = (   0.6995400   0.7665048   0.5057299  )
        31           O   tau(  31) = (   0.1995400   0.2751220   0.4988300  )
        32           O   tau(  32) = (   0.8004600   0.8067594   1.0057300  )

     number of k points=    40  gaussian smearing, width (Ry)=  0.0007
                       cart. coord. in units 2pi/alat
        k(    1) = (   0.0000000   0.0000000   0.0000000), wk =   0.0092593
        k(    2) = (   0.0000000   0.0000000   0.1666667), wk =   0.0370370
        k(    3) = (   0.0000000   0.0000000   0.3333333), wk =   0.0370370
        k(    4) = (   0.0000000   0.0000000  -0.5000000), wk =   0.0185185
        k(    5) = (   0.0000000   0.1589053   0.0000000), wk =   0.0185185
        k(    6) = (   0.0000000   0.1589053   0.1666667), wk =   0.0740741
        k(    7) = (   0.0000000   0.1589053   0.3333333), wk =   0.0740741
        k(    8) = (   0.0000000   0.1589053  -0.5000000), wk =   0.0370370
        k(    9) = (   0.0000000   0.3178106   0.0000000), wk =   0.0185185
        k(   10) = (   0.0000000   0.3178106   0.1666667), wk =   0.0740741
        k(   11) = (   0.0000000   0.3178106   0.3333333), wk =   0.0740741
        k(   12) = (   0.0000000   0.3178106  -0.5000000), wk =   0.0370370
        k(   13) = (   0.0000000  -0.4767158   0.0000000), wk =   0.0092593
        k(   14) = (   0.0000000  -0.4767158   0.1666667), wk =   0.0370370
        k(   15) = (   0.0000000  -0.4767158   0.3333333), wk =   0.0370370
        k(   16) = (   0.0000000  -0.4767158  -0.5000000), wk =   0.0185185
        k(   17) = (   0.1666667   0.0000000   0.1666667), wk =   0.0370370
        k(   18) = (   0.1666667   0.0000000   0.3333333), wk =   0.0740741
        k(   19) = (   0.1666667   0.0000000  -0.5000000), wk =   0.0370370
        k(   20) = (   0.1666667   0.1589053   0.1666667), wk =   0.0740741
        k(   21) = (   0.1666667   0.1589053   0.3333333), wk =   0.1481481
        k(   22) = (   0.1666667   0.1589053  -0.5000000), wk =   0.0740741
        k(   23) = (   0.1666667   0.3178106   0.1666667), wk =   0.0740741
        k(   24) = (   0.1666667   0.3178106   0.3333333), wk =   0.1481481
        k(   25) = (   0.1666667   0.3178106  -0.5000000), wk =   0.0740741
        k(   26) = (   0.1666667  -0.4767158   0.1666667), wk =   0.0370370
        k(   27) = (   0.1666667  -0.4767158   0.3333333), wk =   0.0740741
        k(   28) = (   0.1666667  -0.4767158  -0.5000000), wk =   0.0370370
        k(   29) = (   0.3333333   0.0000000   0.3333333), wk =   0.0370370
        k(   30) = (   0.3333333   0.0000000  -0.5000000), wk =   0.0370370
        k(   31) = (   0.3333333   0.1589053   0.3333333), wk =   0.0740741
        k(   32) = (   0.3333333   0.1589053  -0.5000000), wk =   0.0740741
        k(   33) = (   0.3333333   0.3178106   0.3333333), wk =   0.0740741
        k(   34) = (   0.3333333   0.3178106  -0.5000000), wk =   0.0740741
        k(   35) = (   0.3333333  -0.4767158   0.3333333), wk =   0.0370370
        k(   36) = (   0.3333333  -0.4767158  -0.5000000), wk =   0.0370370
        k(   37) = (  -0.5000000   0.0000000  -0.5000000), wk =   0.0092593
        k(   38) = (  -0.5000000   0.1589053  -0.5000000), wk =   0.0185185
        k(   39) = (  -0.5000000   0.3178106  -0.5000000), wk =   0.0185185
        k(   40) = (  -0.5000000  -0.4767158  -0.5000000), wk =   0.0092593

     Dense  grid:   494957 G-vectors     FFT dimensions: ( 100, 108, 100)

     Estimated max dynamical RAM per process >       2.70 GB

     Estimated total dynamical RAM >     108.07 GB

     Initial potential from superposition of free atoms

     starting charge  367.99656, renormalised to  368.05000
     Starting wfc are  232 randomized atomic wfcs

     total cpu time spent up to now is       25.7 secs

     Self-consistent Calculation

     iteration #  1     ecut=   120.00 Ry     beta= 0.70
     Davidson diagonalization with overlap
     ethr =  1.00E-02,  avg # of iterations =  5.1

     total cpu time spent up to now is      112.6 secs

     total energy              =   -6253.96877377 Ry
     Harris-Foulkes estimate   =   -6264.53659441 Ry
     estimated scf accuracy    <      13.37806691 Ry

     iteration #  2     ecut=   120.00 Ry     beta= 0.70
     Davidson diagonalization with overlap
     ethr =  3.63E-03,  avg # of iterations =  3.5

     total cpu time spent up to now is      197.4 secs

     total energy              =   -6250.80186147 Ry
     Harris-Foulkes estimate   =   -6270.71650218 Ry
     estimated scf accuracy    <      53.52502993 Ry

     iteration #  3     ecut=   120.00 Ry     beta= 0.70
     Davidson diagonalization with overlap
     ethr =  3.63E-03,  avg # of iterations =  3.5

     total cpu time spent up to now is      278.8 secs

     total energy              =   -6261.05052814 Ry
     Harris-Foulkes estimate   =   -6261.34181526 Ry
     estimated scf accuracy    <       0.94528221 Ry

     iteration #  4     ecut=   120.00 Ry     beta= 0.70
     Davidson diagonalization with overlap
     ethr =  2.57E-04,  avg # of iterations =  2.4

     total cpu time spent up to now is      344.0 secs

     total energy              =   -6261.05983521 Ry
     Harris-Foulkes estimate   =   -6261.12983685 Ry
     estimated scf accuracy    <       0.23383059 Ry

     iteration #  5     ecut=   120.00 Ry     beta= 0.70
     Davidson diagonalization with overlap
     ethr =  6.35E-05,  avg # of iterations =  5.3

     total cpu time spent up to now is      416.5 secs

     total energy              =   -6261.05650194 Ry
     Harris-Foulkes estimate   =   -6261.09020357 Ry
     estimated scf accuracy    <       0.07374951 Ry

     iteration #  6     ecut=   120.00 Ry     beta= 0.70
     Davidson diagonalization with overlap
     ethr =  2.00E-05,  avg # of iterations =  5.6

     total cpu time spent up to now is      492.0 secs

     total energy              =   -6261.07286722 Ry
     Harris-Foulkes estimate   =   -6261.07491283 Ry
     estimated scf accuracy    <       0.00553221 Ry

     iteration #  7     ecut=   120.00 Ry     beta= 0.70
     Davidson diagonalization with overlap
     ethr =  1.50E-06,  avg # of iterations =  4.9

     total cpu time spent up to now is      562.7 secs

     total energy              =   -6261.07354486 Ry
     Harris-Foulkes estimate   =   -6261.07363634 Ry
     estimated scf accuracy    <       0.00018617 Ry

     iteration #  8     ecut=   120.00 Ry     beta= 0.70
     Davidson diagonalization with overlap
     ethr =  5.06E-08,  avg # of iterations =  3.1

     total cpu time spent up to now is      647.1 secs

     total energy              =   -6261.07360777 Ry
     Harris-Foulkes estimate   =   -6261.07361295 Ry
     estimated scf accuracy    <       0.00001931 Ry

     iteration #  9     ecut=   120.00 Ry     beta= 0.70
     Davidson diagonalization with overlap
     ethr =  5.25E-09,  avg # of iterations =  2.0

     total cpu time spent up to now is      715.9 secs

     total energy              =   -6261.07360808 Ry
     Harris-Foulkes estimate   =   -6261.07361020 Ry
     estimated scf accuracy    <       0.00001013 Ry

     iteration # 10     ecut=   120.00 Ry     beta= 0.70
     Davidson diagonalization with overlap
     ethr =  2.75E-09,  avg # of iterations =  1.7

     total cpu time spent up to now is      779.2 secs

     total energy              =   -6261.07360706 Ry
     Harris-Foulkes estimate   =   -6261.07360879 Ry
     estimated scf accuracy    <       0.00000402 Ry

     iteration # 11     ecut=   120.00 Ry     beta= 0.70
     Davidson diagonalization with overlap
     ethr =  1.09E-09,  avg # of iterations =  2.9

     total cpu time spent up to now is      846.8 secs

     total energy              =   -6261.07360791 Ry
     Harris-Foulkes estimate   =   -6261.07360794 Ry
     estimated scf accuracy    <       0.00000008 Ry

     iteration # 12     ecut=   120.00 Ry     beta= 0.70
     Davidson diagonalization with overlap
     ethr =  2.23E-11,  avg # of iterations =  2.0

     total cpu time spent up to now is      927.3 secs

     total energy              =   -6261.07360792 Ry
     Harris-Foulkes estimate   =   -6261.07360793 Ry
     estimated scf accuracy    <       0.00000002 Ry

     iteration # 13     ecut=   120.00 Ry     beta= 0.70
     Davidson diagonalization with overlap
     ethr =  4.53E-12,  avg # of iterations =  2.9

     total cpu time spent up to now is     1003.4 secs

     End of self-consistent calculation

          k = 0.0000 0.0000 0.0000 ( 61815 PWs)   bands (ev):

   -66.0473 -66.0469 -66.0464 -66.0463 -66.0459 -66.0459 -66.0454 -66.0449
   -30.4614 -30.4518 -30.4518 -30.4442 -30.4368 -30.4223 -30.4223 -30.4132
   -30.3810 -30.3764 -30.3764 -30.3724 -30.3707 -30.3651 -30.3647 -30.3647
   -30.3289 -30.3249 -30.3249 -30.3212 -30.2762 -30.2762 -30.2717 -30.2704
   -20.2054 -20.2053 -20.2052 -20.2052 -20.2049 -20.2049 -20.2048 -20.2047
   -20.1874 -20.1872 -20.1870 -20.1870 -20.1868 -20.1868 -20.1866 -20.1865
   -20.1853 -20.1848 -20.1848 -20.1842 -20.1822 -20.1813 -20.1813 -20.1801
   -20.1801 -20.1787 -20.1787 -20.1780 -20.1769 -20.1763 -20.1763 -20.1759
   -20.1734 -20.1727 -20.1726 -20.1726 -20.1692 -20.1692 -20.1687 -20.1687
   -20.1669 -20.1662 -20.1654 -20.1654 -20.1637 -20.1636 -20.1626 -20.1625
   -20.1616 -20.1614 -20.1611 -20.1611 -20.1581 -20.1581 -20.1577 -20.1574
    -9.8567  -9.5648  -9.4154  -9.4153  -9.1118  -9.1118  -8.9718  -8.9130
    -8.9077  -8.7661  -8.7338  -8.7338  -7.8190  -7.7576  -7.6994  -7.6968
    -7.6967  -7.6459  -7.6322  -7.6229  -7.5951  -7.5951  -7.4907  -7.4907
     1.3382   1.3472   1.3955   1.3955   1.4819   1.4819   1.5038   1.7286
     1.7473   1.7473   1.7777   1.9928   2.4761   2.5634   2.6328   2.6989
     2.8174   2.8174   4.2383   4.2383   4.4940   4.4995   4.7976   4.8767
     4.8767   4.9218   4.9218   4.9293   5.1649   5.1649   5.2779   5.5249
     5.5306   5.5873   5.5873   5.6690   5.6690   5.7789   5.7789   5.9217
     5.9267   5.9267   5.9349   5.9517   6.0077   6.0547   6.0576   6.1902
     6.2085   6.3742   6.3997   6.6153   6.6153   6.8275   6.9276   6.9276
     6.9550   6.9615   7.0365   7.1257   7.1393   7.1393   7.3226   7.3226
     7.5194   7.5194   7.8294   7.8477   8.1320   8.1320   8.1464   8.2404
     9.5743   9.5908  10.1650  10.1831  10.1999  10.1999  12.3284  12.3284
    12.3856  12.3856  12.5809  12.5809  12.6404  12.6880  12.7629  12.8505
    13.2560  13.4258  13.4306  13.4306  13.7886  14.0364  14.0364  14.1884
    14.4610  14.6771  14.6771  15.0199  15.5160  15.5221  15.6313  16.0950
    16.0950  16.8512  17.0912  17.0912  17.6341

          k = 0.0000 0.0000 0.1667 ( 61844 PWs)   bands (ev):

   -66.0473 -66.0468 -66.0464 -66.0463 -66.0460 -66.0458 -66.0454 -66.0450
   -30.4599 -30.4522 -30.4494 -30.4412 -30.4373 -30.4229 -30.4191 -30.4111
   -30.3821 -30.3775 -30.3742 -30.3711 -30.3664 -30.3651 -30.3643 -30.3590
   -30.3329 -30.3303 -30.3243 -30.3233 -30.2825 -30.2772 -30.2759 -30.2714
   -20.2054 -20.2053 -20.2052 -20.2051 -20.2049 -20.2049 -20.2048 -20.2047
   -20.1874 -20.1872 -20.1870 -20.1870 -20.1869 -20.1868 -20.1867 -20.1865
   -20.1853 -20.1848 -20.1848 -20.1843 -20.1821 -20.1813 -20.1812 -20.1801
   -20.1800 -20.1788 -20.1787 -20.1780 -20.1769 -20.1763 -20.1763 -20.1760
   -20.1732 -20.1727 -20.1725 -20.1723 -20.1693 -20.1689 -20.1686 -20.1683
   -20.1672 -20.1665 -20.1658 -20.1652 -20.1639 -20.1636 -20.1628 -20.1627
   -20.1615 -20.1613 -20.1610 -20.1610 -20.1585 -20.1581 -20.1580 -20.1575
    -9.8106  -9.5119  -9.4328  -9.3542  -9.1273  -9.0288  -8.9812  -8.8763
    -8.8697  -8.7513  -8.7389  -8.7020  -7.8963  -7.7857  -7.7627  -7.7526
    -7.7017  -7.7011  -7.6575  -7.6285  -7.6266  -7.6134  -7.6037  -7.5002
     1.3905   1.3969   1.4612   1.4862   1.5628   1.5860   1.7002   1.7220
     1.7418   1.8365   1.9428   2.1130   2.5618   2.6537   2.6630   2.7660
     2.8085   2.9068   4.1644   4.2310   4.4391   4.4893   4.5191   4.5391
     4.6860   4.8851   4.9069   4.9272   4.9375   5.1503   5.2555   5.3747
     5.5241   5.5297   5.5746   5.6189   5.6882   5.6907   5.7716   5.7806
     5.7961   5.8705   5.9130   5.9863   6.0682   6.0955   6.1409   6.2012
     6.3150   6.4357   6.5940   6.5965   6.8023   6.8154   6.8251   6.8466
     6.9491   6.9593   6.9780   7.0668   7.1114   7.1499   7.1893   7.2052
     7.3052   7.3744   7.8487   7.8581   8.0936   8.1250   8.1473   8.2267
     9.8726   9.8980  10.1870  10.1970  10.4117  10.4770  12.2596  12.3276
    12.3736  12.4431  12.4988  12.6120  12.6748  12.7430  12.8199  12.8884
    13.1471  13.3256  13.3966  13.4344  13.8354  13.9832  14.0354  14.1136
    14.4571  14.6716  14.7324  15.1254  15.5530  15.5539  15.5958  16.0650
    16.3812  16.8566  17.0123  17.2707  17.7000

          k = 0.0000 0.0000 0.3333 ( 61902 PWs)   bands (ev):

   -66.0471 -66.0466 -66.0466 -66.0461 -66.0461 -66.0456 -66.0456 -66.0452
   -30.4573 -30.4533 -30.4448 -30.4387 -30.4340 -30.4247 -30.4089 -30.4034
   -30.3862 -30.3816 -30.3706 -30.3682 -30.3663 -30.3630 -30.3494 -30.3456
   -30.3434 -30.3434 -30.3263 -30.3219 -30.2994 -30.2936 -30.2750 -30.2725
   -20.2053 -20.2052 -20.2052 -20.2051 -20.2050 -20.2049 -20.2049 -20.2048
   -20.1873 -20.1871 -20.1871 -20.1870 -20.1869 -20.1868 -20.1868 -20.1866
   -20.1852 -20.1849 -20.1846 -20.1844 -20.1819 -20.1815 -20.1809 -20.1803
   -20.1797 -20.1790 -20.1785 -20.1782 -20.1768 -20.1765 -20.1763 -20.1761
   -20.1730 -20.1727 -20.1717 -20.1713 -20.1697 -20.1683 -20.1683 -20.1681
   -20.1672 -20.1669 -20.1667 -20.1648 -20.1646 -20.1634 -20.1633 -20.1629
   -20.1613 -20.1610 -20.1609 -20.1605 -20.1593 -20.1588 -20.1580 -20.1577
    -9.6983  -9.4861  -9.3853  -9.2106  -9.1746  -9.0131  -8.8107  -8.7902
    -8.7526  -8.7432  -8.6519  -8.5789  -8.1773  -8.0644  -8.0531  -7.9475
    -7.7539  -7.7155  -7.6855  -7.6613  -7.6367  -7.6268  -7.6002  -7.5263
     1.4015   1.4113   1.4974   1.5145   1.6778   1.6885   1.7080   1.7321
     2.3420   2.4251   2.5572   2.6611   2.6938   2.7962   2.8114   2.9151
     2.9982   3.1440   3.8208   3.9197   3.9548   4.0335   4.2381   4.3844
     4.4552   4.5834   4.6450   4.8074   4.8237   4.8971   5.0560   5.1847
     5.2165   5.3018   5.4139   5.4436   5.5547   5.5847   5.7371   5.8064
     5.8271   5.8680   5.9089   6.0372   6.1210   6.1791   6.2233   6.3322
     6.4447   6.4671   6.4831   6.5996   6.6541   6.6584   6.7278   6.8546
     6.8694   6.9425   6.9441   7.0782   7.1002   7.1437   7.1574   7.2343
     7.4002   7.4446   7.8013   7.8187   7.9715   8.0182   8.1815   8.2102
    10.1445  10.1870  10.5261  10.6528  10.9817  11.1215  11.9114  12.0300
    12.1840  12.5043  12.5233  12.6223  12.7120  12.7487  12.8114  12.9144
    13.0381  13.1731  13.2582  13.4564  13.7239  13.7800  14.0338  14.0399
    14.5345  14.6540  14.9722  15.3797  15.4819  15.6990  15.9211  15.9683
    16.3649  17.1813  17.4298  17.5323  17.8140

          k = 0.0000 0.0000-0.5000 ( 61836 PWs)   bands (ev):

   -66.0469 -66.0468 -66.0464 -66.0464 -66.0459 -66.0459 -66.0454 -66.0454
   -30.4551 -30.4551 -30.4412 -30.4412 -30.4281 -30.4281 -30.3955 -30.3955
   -30.3908 -30.3908 -30.3681 -30.3681 -30.3599 -30.3599 -30.3563 -30.3563
   -30.3325 -30.3325 -30.3219 -30.3219 -30.3129 -30.3129 -30.2738 -30.2738
   -20.2053 -20.2053 -20.2051 -20.2051 -20.2050 -20.2050 -20.2048 -20.2048
   -20.1872 -20.1872 -20.1871 -20.1871 -20.1869 -20.1869 -20.1867 -20.1867
   -20.1850 -20.1850 -20.1845 -20.1845 -20.1817 -20.1817 -20.1806 -20.1806
   -20.1794 -20.1794 -20.1784 -20.1783 -20.1766 -20.1766 -20.1762 -20.1762
   -20.1728 -20.1728 -20.1706 -20.1706 -20.1699 -20.1698 -20.1678 -20.1678
   -20.1673 -20.1673 -20.1658 -20.1658 -20.1641 -20.1641 -20.1632 -20.1632
   -20.1611 -20.1611 -20.1602 -20.1602 -20.1598 -20.1598 -20.1578 -20.1578
    -9.5771  -9.5771  -9.2594  -9.2594  -9.0825  -9.0825  -8.7729  -8.7729
    -8.5062  -8.5062  -8.4451  -8.4451  -8.3928  -8.3928  -8.3101  -8.3101
    -7.7356  -7.7356  -7.6579  -7.6579  -7.6493  -7.6493  -7.5628  -7.5628
     1.4083   1.4083   1.5109   1.5109   1.6945   1.6945   1.7214   1.7214
     2.7284   2.7284   3.0522   3.0522   3.1788   3.1788   3.2349   3.2349
     3.3531   3.3531   3.4129   3.4129   3.6114   3.6115   3.8868   3.8868
     3.9488   3.9488   4.5700   4.5700   4.7719   4.7719   5.0621   5.0621
     5.3272   5.3273   5.4233   5.4233   5.4829   5.4829   5.7796   5.7796
     5.8781   5.8781   6.0606   6.0606   6.1614   6.1614   6.2955   6.2955
     6.3651   6.3651   6.4958   6.4958   6.5768   6.5768   6.6652   6.6652
     6.8810   6.8810   6.9389   6.9389   7.1132   7.1132   7.5591   7.5591
     7.6068   7.6068   7.7477   7.7477   7.7899   7.7900   8.2003   8.2003
    10.1698  10.1698  11.2700  11.2700  11.4082  11.4082  11.6386  11.6386
    11.8773  11.8773  12.6796  12.6796  12.7668  12.7668  12.9168  12.9168
    12.9970  12.9970  13.3842  13.3842  13.5444  13.5444  14.0353  14.0353
    14.6161  14.6161  15.2713  15.2713  15.7356  15.7356  15.9330  15.9330
    16.6777  16.6777  17.9618  17.9618  18.2190

          k = 0.0000 0.1589 0.0000 ( 61895 PWs)   bands (ev):

   -66.0473 -66.0469 -66.0463 -66.0463 -66.0459 -66.0459 -66.0453 -66.0449
   -30.4593 -30.4498 -30.4498 -30.4448 -30.4329 -30.4209 -30.4209 -30.4109
   -30.3844 -30.3783 -30.3782 -30.3723 -30.3709 -30.3689 -30.3661 -30.3660
   -30.3286 -30.3253 -30.3253 -30.3221 -30.2762 -30.2762 -30.2716 -30.2705
   -20.2054 -20.2053 -20.2052 -20.2052 -20.2049 -20.2049 -20.2048 -20.2047
   -20.1874 -20.1872 -20.1870 -20.1870 -20.1868 -20.1868 -20.1866 -20.1865
   -20.1851 -20.1845 -20.1845 -20.1839 -20.1823 -20.1814 -20.1814 -20.1803
   -20.1799 -20.1787 -20.1787 -20.1779 -20.1772 -20.1765 -20.1765 -20.1762
   -20.1733 -20.1727 -20.1726 -20.1726 -20.1692 -20.1692 -20.1687 -20.1687
   -20.1669 -20.1663 -20.1654 -20.1654 -20.1637 -20.1636 -20.1626 -20.1625
   -20.1616 -20.1614 -20.1611 -20.1611 -20.1581 -20.1581 -20.1577 -20.1574
    -9.8272  -9.5768  -9.3808  -9.3808  -9.1159  -9.1159  -8.9121  -8.9061
    -8.8972  -8.7217  -8.6962  -8.6962  -7.8717  -7.7879  -7.7879  -7.7581
    -7.7416  -7.7308  -7.6455  -7.6336  -7.6044  -7.6044  -7.4911  -7.4911
     1.3400   1.3464   1.4007   1.4007   1.4887   1.4887   1.6287   1.7770
     1.9127   1.9718   1.9718   2.1533   2.4822   2.5574   2.7048   2.7766
     2.8888   2.8888   4.1091   4.1092   4.2210   4.2221   4.7402   4.8682
     4.8682   4.9167   4.9167   4.9939   5.1020   5.1020   5.1684   5.4210
     5.4210   5.5893   5.5893   5.6554   5.7054   5.7615   5.7615   5.7636
     5.8756   5.8984   5.9470   5.9925   5.9925   6.0477   6.1037   6.1734
     6.1913   6.3728   6.3801   6.6468   6.6468   6.7755   6.9422   6.9422
     6.9745   6.9800   7.0325   7.0470   7.0882   7.0882   7.3252   7.3252
     7.5239   7.5239   7.8322   7.8460   8.0935   8.1009   8.1009   8.1615
     9.5826   9.5921  10.3590  10.3639  10.3639  10.3680  12.2901  12.2901
    12.3435  12.3436  12.4836  12.5653  12.5653  12.5804  12.7152  12.8508
    13.2876  13.4187  13.4187  13.4473  13.9237  14.0087  14.0087  14.0981
    14.5350  14.8689  14.8689  15.1817  15.5102  15.5209  16.0300  16.0668
    16.0668  16.5907  17.2267  17.2267  17.6587

          k = 0.0000 0.1589 0.1667 ( 61884 PWs)   bands (ev):

   -66.0472 -66.0468 -66.0464 -66.0463 -66.0460 -66.0459 -66.0454 -66.0450
   -30.4578 -30.4502 -30.4471 -30.4416 -30.4334 -30.4215 -30.4181 -30.4090
   -30.3854 -30.3793 -30.3764 -30.3711 -30.3690 -30.3664 -30.3653 -30.3599
   -30.3327 -30.3307 -30.3247 -30.3241 -30.2825 -30.2772 -30.2759 -30.2714
   -20.2054 -20.2053 -20.2052 -20.2051 -20.2050 -20.2049 -20.2048 -20.2047
   -20.1873 -20.1872 -20.1870 -20.1870 -20.1868 -20.1868 -20.1867 -20.1865
   -20.1850 -20.1846 -20.1845 -20.1840 -20.1823 -20.1815 -20.1813 -20.1804
   -20.1798 -20.1788 -20.1786 -20.1779 -20.1771 -20.1766 -20.1765 -20.1762
   -20.1732 -20.1727 -20.1725 -20.1723 -20.1693 -20.1689 -20.1686 -20.1683
   -20.1672 -20.1665 -20.1658 -20.1652 -20.1639 -20.1636 -20.1628 -20.1627
   -20.1615 -20.1613 -20.1610 -20.1610 -20.1585 -20.1581 -20.1580 -20.1575
    -9.7800  -9.5238  -9.3982  -9.3150  -9.1317  -9.0329  -8.9067  -8.8755
    -8.8660  -8.7100  -8.7011  -8.6691  -7.9109  -7.8334  -7.8003  -7.7941
    -7.7524  -7.7422  -7.7388  -7.7085  -7.6289  -7.6138  -7.6116  -7.5006
     1.3972   1.4031   1.4636   1.4943   1.6316   1.7172   1.7233   1.9199
     1.9429   1.9705   1.9965   2.2169   2.5692   2.6474   2.7359   2.8435
     2.8808   2.9774   4.0698   4.1130   4.2179   4.2619   4.4669   4.5335
     4.6764   4.8205   4.9058   4.9138   4.9333   5.1049   5.1296   5.3244
     5.3659   5.4592   5.5085   5.5903   5.6475   5.6687   5.7251   5.7682
     5.8269   5.8857   5.9248   5.9396   5.9702   6.0790   6.1704   6.1825
     6.3278   6.3839   6.5719   6.6330   6.7670   6.8382   6.8654   6.8988
     6.9247   6.9854   7.0151   7.0487   7.0917   7.1302   7.1765   7.2084
     7.3062   7.3812   7.8487   7.8573   8.0647   8.0752   8.1036   8.1516
     9.8818   9.9123  10.3610  10.3685  10.5692  10.6145  12.2445  12.2770
    12.3643  12.3793  12.4780  12.5146  12.5728  12.6717  12.7710  12.8910
    13.1653  13.3193  13.4075  13.4202  13.8827  13.9347  14.0082  14.0476
    14.5908  14.8631  14.9742  15.2685  15.5496  15.5570  15.9804  16.0524
    16.3513  16.7453  16.9881  17.3801  17.7186

          k = 0.0000 0.1589 0.3333 ( 61882 PWs)   bands (ev):

   -66.0471 -66.0467 -66.0466 -66.0462 -66.0461 -66.0457 -66.0456 -66.0452
   -30.4552 -30.4513 -30.4417 -30.4349 -30.4340 -30.4235 -30.4091 -30.4021
   -30.3890 -30.3830 -30.3722 -30.3690 -30.3674 -30.3663 -30.3496 -30.3459
   -30.3444 -30.3437 -30.3269 -30.3222 -30.2995 -30.2936 -30.2750 -30.2725
   -20.2053 -20.2052 -20.2052 -20.2051 -20.2050 -20.2049 -20.2049 -20.2048
   -20.1873 -20.1871 -20.1871 -20.1870 -20.1869 -20.1868 -20.1867 -20.1866
   -20.1849 -20.1847 -20.1844 -20.1841 -20.1820 -20.1816 -20.1811 -20.1805
   -20.1796 -20.1790 -20.1785 -20.1781 -20.1771 -20.1767 -20.1765 -20.1763
   -20.1730 -20.1727 -20.1717 -20.1713 -20.1697 -20.1683 -20.1683 -20.1681
   -20.1672 -20.1669 -20.1667 -20.1648 -20.1646 -20.1634 -20.1633 -20.1629
   -20.1613 -20.1610 -20.1609 -20.1605 -20.1593 -20.1588 -20.1580 -20.1577
    -9.6655  -9.4516  -9.3962  -9.1804  -9.1568  -8.9394  -8.8048  -8.7787
    -8.7399  -8.7145  -8.6348  -8.5608  -8.1790  -8.0707  -8.0552  -7.9555
    -7.8196  -7.7984  -7.7609  -7.7349  -7.7101  -7.6395  -7.6007  -7.5267
     1.4112   1.4270   1.5088   1.5307   1.8554   1.8799   1.9521   1.9659
     2.3451   2.4331   2.5613   2.6744   2.7671   2.8232   2.8592   2.9144
     3.0759   3.2068   3.8218   3.9236   3.9411   3.9842   4.2349   4.2637
     4.2989   4.4746   4.5927   4.7396   4.7782   4.8813   4.9370   5.0406
     5.1429   5.2314   5.2805   5.3674   5.5030   5.5276   5.5901   5.7353
     5.8042   5.8426   5.9204   5.9526   6.0101   6.1202   6.2213   6.3512
     6.4200   6.4547   6.5767   6.6739   6.7291   6.7424   6.7884   6.8663
     6.9004   6.9526   6.9810   7.0340   7.0890   7.1228   7.1780   7.2391
     7.4018   7.4450   7.8015   7.8171   7.9488   7.9805   8.1218   8.1408
    10.3224  10.3591  10.5393  10.6648  11.0924  11.2076  11.9111  12.0319
    12.1708  12.4857  12.5474  12.5690  12.5987  12.6905  12.7557  12.9060
    12.9270  13.1572  13.2651  13.4318  13.6331  13.7046  14.0071  14.0231
    14.7364  14.8458  15.2815  15.4877  15.7128  15.8454  15.9476  15.9807
    16.4861  17.1440  17.2272  17.4935  17.8433

          k = 0.0000 0.1589-0.5000 ( 61904 PWs)   bands (ev):

   -66.0468 -66.0468 -66.0464 -66.0464 -66.0458 -66.0458 -66.0454 -66.0454
   -30.4530 -30.4530 -30.4375 -30.4375 -30.4273 -30.4273 -30.3971 -30.3971
   -30.3911 -30.3911 -30.3689 -30.3689 -30.3611 -30.3611 -30.3584 -30.3584
   -30.3330 -30.3330 -30.3220 -30.3220 -30.3130 -30.3130 -30.2738 -30.2738
   -20.2053 -20.2053 -20.2051 -20.2051 -20.2050 -20.2050 -20.2048 -20.2048
   -20.1872 -20.1872 -20.1871 -20.1871 -20.1869 -20.1869 -20.1867 -20.1867
   -20.1848 -20.1848 -20.1842 -20.1842 -20.1818 -20.1818 -20.1808 -20.1808
   -20.1793 -20.1793 -20.1783 -20.1783 -20.1769 -20.1769 -20.1764 -20.1764
   -20.1728 -20.1728 -20.1706 -20.1706 -20.1698 -20.1698 -20.1678 -20.1678
   -20.1673 -20.1673 -20.1658 -20.1658 -20.1641 -20.1641 -20.1632 -20.1632
   -20.1611 -20.1611 -20.1602 -20.1602 -20.1598 -20.1598 -20.1578 -20.1578
    -9.5429  -9.5429  -9.2677  -9.2677  -9.0138  -9.0138  -8.7372  -8.7372
    -8.5058  -8.5058  -8.4497  -8.4497  -8.3912  -8.3912  -8.3075  -8.3075
    -7.8131  -7.8131  -7.7500  -7.7500  -7.6749  -7.6749  -7.5632  -7.5632
     1.4224   1.4224   1.5259   1.5259   1.8808   1.8808   1.9666   1.9666
     2.7987   2.7987   3.0661   3.0661   3.1747   3.1748   3.2701   3.2701
     3.3598   3.3598   3.4153   3.4153   3.6093   3.6093   3.8904   3.8904
     3.9985   3.9985   4.3606   4.3606   4.6912   4.6912   4.8753   4.8754
     5.1910   5.1910   5.3935   5.3935   5.4405   5.4405   5.6211   5.6211
     5.8106   5.8106   5.9393   5.9393   6.1593   6.1593   6.2913   6.2913
     6.4293   6.4293   6.5424   6.5424   6.6349   6.6349   6.7746   6.7746
     6.9301   6.9301   6.9532   6.9532   7.0670   7.0670   7.5666   7.5666
     7.5999   7.5999   7.7364   7.7364   7.7725   7.7725   8.1345   8.1345
    10.3508  10.3508  11.2772  11.2772  11.4100  11.4100  11.7031  11.7031
    11.9333  11.9333  12.5865  12.5865  12.7176  12.7177  12.9167  12.9167
    12.9476  12.9476  13.2778  13.2778  13.4938  13.4938  14.0101  14.0101
    14.8133  14.8133  15.5979  15.5979  15.8148  15.8148  16.0069  16.0069
    16.7194  16.7194  17.7728  17.7728  18.1820

          k = 0.0000 0.3178 0.0000 ( 61858 PWs)   bands (ev):

   -66.0472 -66.0470 -66.0462 -66.0462 -66.0460 -66.0460 -66.0452 -66.0450
   -30.4545 -30.4465 -30.4459 -30.4459 -30.4223 -30.4162 -30.4162 -30.4037
   -30.3941 -30.3844 -30.3844 -30.3792 -30.3719 -30.3712 -30.3679 -30.3679
   -30.3277 -30.3260 -30.3260 -30.3241 -30.2762 -30.2762 -30.2714 -30.2707
   -20.2054 -20.2053 -20.2052 -20.2052 -20.2049 -20.2049 -20.2048 -20.2047
   -20.1873 -20.1872 -20.1869 -20.1869 -20.1868 -20.1868 -20.1866 -20.1865
   -20.1844 -20.1839 -20.1838 -20.1831 -20.1828 -20.1818 -20.1818 -20.1810
   -20.1795 -20.1785 -20.1785 -20.1779 -20.1776 -20.1771 -20.1770 -20.1767
   -20.1732 -20.1728 -20.1726 -20.1726 -20.1692 -20.1692 -20.1687 -20.1687
   -20.1667 -20.1664 -20.1654 -20.1654 -20.1637 -20.1637 -20.1626 -20.1625
   -20.1615 -20.1614 -20.1611 -20.1611 -20.1581 -20.1581 -20.1577 -20.1575
    -9.7552  -9.6135  -9.3081  -9.3081  -9.1277  -9.1277  -8.9098  -8.9052
    -8.6872  -8.5791  -8.5674  -8.5674  -8.0918  -8.0364  -8.0364  -8.0057
    -7.7615  -7.7597  -7.6439  -7.6369  -7.6087  -7.6087  -7.4919  -7.4919
     1.3413   1.3445   1.4037   1.4037   1.4933   1.4933   1.7394   1.7744
     2.4543   2.4980   2.5414   2.6013   2.6013   2.7683   2.9132   3.0223
     3.1048   3.1048   3.7339   3.7565   3.7720   3.7720   4.2304   4.5847
     4.5847   4.8537   4.8743   4.8743   4.9281   4.9281   5.1639   5.1899
     5.1899   5.1992   5.5087   5.5087   5.6692   5.6724   5.8004   5.8004
     5.9003   5.9064   5.9614   5.9614   6.0315   6.1032   6.1618   6.1704
     6.2236   6.3377   6.3434   6.5901   6.6906   6.6906   6.9613   6.9613
     6.9799   7.0391   7.1808   7.1846   7.2150   7.2150   7.3338   7.3338
     7.5329   7.5329   7.8201   7.8360   7.9158   7.9372   7.9497   7.9497
     9.5925   9.5948  10.8100  10.8100  10.8339  10.8800  11.9521  11.9521
    12.0576  12.1432  12.3532  12.3532  12.5606  12.5606  12.7499  12.8380
    13.3927  13.4581  13.4581  13.5145  13.8331  13.8331  13.8387  13.8880
    14.9589  15.3391  15.3391  15.4962  15.5064  15.7978  15.9716  15.9716
    16.0732  17.0011  17.3632  17.6921  17.6921

          k = 0.0000 0.3178 0.1667 ( 61894 PWs)   bands (ev):

   -66.0472 -66.0469 -66.0463 -66.0462 -66.0461 -66.0459 -66.0453 -66.0451
   -30.4529 -30.4463 -30.4436 -30.4419 -30.4229 -30.4170 -30.4148 -30.4024
   -30.3950 -30.3850 -30.3828 -30.3786 -30.3710 -30.3683 -30.3656 -30.3613
   -30.3322 -30.3316 -30.3258 -30.3253 -30.2825 -30.2772 -30.2759 -30.2715
   -20.2054 -20.2053 -20.2052 -20.2051 -20.2050 -20.2049 -20.2048 -20.2048
   -20.1873 -20.1872 -20.1870 -20.1869 -20.1868 -20.1868 -20.1866 -20.1865
   -20.1843 -20.1839 -20.1838 -20.1831 -20.1827 -20.1819 -20.1817 -20.1810
   -20.1794 -20.1786 -20.1785 -20.1779 -20.1777 -20.1771 -20.1770 -20.1767
   -20.1731 -20.1727 -20.1726 -20.1723 -20.1694 -20.1689 -20.1686 -20.1683
   -20.1671 -20.1666 -20.1658 -20.1652 -20.1639 -20.1636 -20.1628 -20.1627
   -20.1615 -20.1613 -20.1610 -20.1610 -20.1585 -20.1581 -20.1579 -20.1576
    -9.7057  -9.5604  -9.3250  -9.2311  -9.1447  -9.0452  -8.8742  -8.8624
    -8.6963  -8.5732  -8.5718  -8.5517  -8.0937  -8.0458  -8.0339  -8.0132
    -7.8720  -7.7566  -7.7503  -7.7307  -7.6298  -7.6182  -7.6125  -7.5013
     1.3995   1.4067   1.4639   1.4994   1.6479   1.7378   1.8794   1.9525
     2.4598   2.5778   2.5838   2.6091   2.6316   2.7591   2.9526   3.0762
     3.1088   3.1946   3.7402   3.7558   3.7849   3.8352   4.2121   4.4893
     4.4942   4.5985   4.6220   4.8395   4.8598   4.9088   4.9873   5.0093
     5.1828   5.1893   5.2928   5.4431   5.4962   5.5868   5.6811   5.7278
     5.7840   5.8348   5.8690   5.9330   6.0177   6.1055   6.1841   6.2182
     6.3426   6.3789   6.5504   6.6447   6.6949   6.8892   6.9414   7.0258
     7.0403   7.0609   7.1221   7.1385   7.1869   7.1976   7.2354   7.2606
     7.3294   7.4041   7.8267   7.8455   7.9101   7.9254   7.9326   7.9446
     9.8931   9.9259  10.8127  10.8489  10.9801  11.0265  11.9445  12.0351
    12.0870  12.1892  12.2782  12.4135  12.4633  12.6064  12.8145  12.8864
    13.2567  13.3447  13.4556  13.4612  13.7008  13.7556  13.8308  13.8734
    15.0757  15.3287  15.4706  15.5467  15.5881  15.8603  15.9448  16.2251
    16.2581  16.9646  17.3859  17.4520  17.7921

          k = 0.0000 0.3178 0.3333 ( 61919 PWs)   bands (ev):

   -66.0470 -66.0467 -66.0465 -66.0463 -66.0460 -66.0458 -66.0455 -66.0453
   -30.4506 -30.4473 -30.4349 -30.4333 -30.4246 -30.4196 -30.4100 -30.3978
   -30.3976 -30.3872 -30.3774 -30.3753 -30.3696 -30.3690 -30.3499 -30.3466
   -30.3460 -30.3443 -30.3280 -30.3228 -30.2995 -30.2936 -30.2751 -30.2725
   -20.2053 -20.2052 -20.2052 -20.2051 -20.2050 -20.2049 -20.2049 -20.2048
   -20.1873 -20.1872 -20.1871 -20.1869 -20.1869 -20.1868 -20.1867 -20.1866
   -20.1842 -20.1840 -20.1836 -20.1833 -20.1825 -20.1820 -20.1816 -20.1812
   -20.1792 -20.1788 -20.1783 -20.1778 -20.1777 -20.1773 -20.1770 -20.1768
   -20.1729 -20.1727 -20.1718 -20.1713 -20.1698 -20.1683 -20.1683 -20.1681
   -20.1672 -20.1669 -20.1667 -20.1648 -20.1646 -20.1634 -20.1633 -20.1629
   -20.1613 -20.1610 -20.1609 -20.1605 -20.1593 -20.1588 -20.1580 -20.1577
    -9.5876  -9.4300  -9.3764  -9.1975  -9.0310  -8.8164  -8.7606  -8.7304
    -8.7231  -8.5886  -8.5404  -8.4857  -8.1994  -8.1434  -8.0844  -8.0489
    -8.0253  -7.9970  -7.9760  -7.8955  -7.7174  -7.6446  -7.6016  -7.5276
     1.4162   1.4334   1.5155   1.5381   2.2652   2.3608   2.3775   2.4987
     2.5536   2.6100   2.6231   2.8183   2.8586   2.8875   2.9954   3.0787
     3.3080   3.3925   3.7122   3.7326   3.8102   3.8928   3.9249   3.9672
     4.1782   4.3670   4.4822   4.5382   4.5591   4.6594   4.6761   4.8294
     4.9382   4.9684   5.1077   5.1827   5.2540   5.3150   5.3659   5.4669
     5.4960   5.6779   5.7464   5.8948   6.1307   6.1705   6.2279   6.4088
     6.4567   6.5093   6.6376   6.7485   6.7863   6.8335   6.9023   6.9557
     7.0241   7.0621   7.1283   7.1367   7.1707   7.2065   7.2464   7.3090
     7.4125   7.4532   7.7722   7.8142   7.8385   7.8578   7.9267   7.9387
    10.5463  10.6087  10.8218  10.8784  11.3986  11.4785  11.8701  11.9659
    12.0800  12.1230  12.3157  12.3640  12.6011  12.6716  12.7074  12.7789
    12.9271  13.1057  13.2675  13.3950  13.4553  13.5784  13.8267  13.8485
    15.1987  15.2988  15.5890  15.8541  16.0223  16.0678  16.0792  16.7290
    16.8340  16.9249  17.0224  17.6162  17.6684

          k = 0.0000 0.3178-0.5000 ( 61920 PWs)   bands (ev):

   -66.0467 -66.0467 -66.0465 -66.0465 -66.0457 -66.0457 -66.0455 -66.0455
   -30.4488 -30.4488 -30.4280 -30.4280 -30.4249 -30.4249 -30.4028 -30.4028
   -30.3915 -30.3915 -30.3720 -30.3720 -30.3640 -30.3640 -30.3615 -30.3615
   -30.3337 -30.3337 -30.3222 -30.3222 -30.3132 -30.3132 -30.2738 -30.2738
   -20.2053 -20.2053 -20.2051 -20.2051 -20.2050 -20.2050 -20.2048 -20.2048
   -20.1872 -20.1872 -20.1871 -20.1871 -20.1868 -20.1868 -20.1867 -20.1867
   -20.1841 -20.1841 -20.1834 -20.1834 -20.1822 -20.1822 -20.1814 -20.1814
   -20.1790 -20.1790 -20.1780 -20.1780 -20.1775 -20.1775 -20.1769 -20.1769
   -20.1728 -20.1728 -20.1706 -20.1706 -20.1698 -20.1698 -20.1678 -20.1678
   -20.1674 -20.1673 -20.1658 -20.1658 -20.1641 -20.1641 -20.1632 -20.1632
   -20.1611 -20.1611 -20.1602 -20.1602 -20.1598 -20.1598 -20.1578 -20.1578
    -9.4652  -9.4652  -9.2927  -9.2927  -8.8279  -8.8279  -8.6308  -8.6308
    -8.5050  -8.5049  -8.4727  -8.4727  -8.3795  -8.3795  -8.2936  -8.2936
    -8.0388  -8.0388  -7.9925  -7.9925  -7.6812  -7.6812  -7.5641  -7.5641
     1.4289   1.4289   1.5341   1.5341   2.4566   2.4566   2.5994   2.5994
     3.0015   3.0015   3.1049   3.1049   3.1595   3.1595   3.3280   3.3281
     3.3744   3.3744   3.4404   3.4405   3.5995   3.5995   3.7635   3.7635
     4.0994   4.0995   4.1646   4.1646   4.2939   4.2939   4.4629   4.4629
     4.9361   4.9361   5.0428   5.0428   5.2419   5.2419   5.3827   5.3827
     5.5248   5.5248   5.8233   5.8233   6.2526   6.2526   6.3019   6.3019
     6.5355   6.5355   6.6300   6.6300   6.6581   6.6581   6.8512   6.8512
     7.1400   7.1400   7.1538   7.1538   7.1800   7.1800   7.5664   7.5664
     7.5889   7.5889   7.6775   7.6775   7.7082   7.7083   7.9317   7.9317
    10.8189  10.8189  11.2931  11.2931  11.4140  11.4141  11.8183  11.8183
    12.1101  12.1101  12.2761  12.2761  12.6392  12.6392  12.7402  12.7402
    12.9117  12.9117  13.0669  13.0669  13.4767  13.4767  13.8297  13.8297
    15.2528  15.2528  15.7318  15.7318  16.4167  16.4167  16.5673  16.5673
    16.8697  16.8697  17.4064  17.4064  17.9738

          k = 0.0000-0.4767 0.0000 ( 61738 PWs)   bands (ev):

   -66.0471 -66.0471 -66.0461 -66.0461 -66.0461 -66.0461 -66.0451 -66.0451
   -30.4498 -30.4498 -30.4442 -30.4442 -30.4119 -30.4119 -30.4080 -30.4080
   -30.3922 -30.3922 -30.3896 -30.3896 -30.3716 -30.3716 -30.3685 -30.3685
   -30.3263 -30.3263 -30.3262 -30.3261 -30.2762 -30.2762 -30.2711 -30.2711
   -20.2054 -20.2053 -20.2052 -20.2052 -20.2049 -20.2049 -20.2048 -20.2047
   -20.1873 -20.1872 -20.1869 -20.1869 -20.1868 -20.1868 -20.1865 -20.1865
   -20.1835 -20.1835 -20.1833 -20.1833 -20.1822 -20.1822 -20.1820 -20.1820
   -20.1788 -20.1788 -20.1784 -20.1784 -20.1774 -20.1774 -20.1772 -20.1772
   -20.1730 -20.1730 -20.1726 -20.1726 -20.1693 -20.1692 -20.1687 -20.1687
   -20.1666 -20.1666 -20.1654 -20.1654 -20.1637 -20.1637 -20.1626 -20.1625
   -20.1615 -20.1615 -20.1611 -20.1611 -20.1581 -20.1581 -20.1576 -20.1576
    -9.6754  -9.6754  -9.2686  -9.2686  -9.1373  -9.1373  -8.9070  -8.9070
    -8.3904  -8.3904  -8.3372  -8.3372  -8.3302  -8.3301  -8.3265  -8.3265
    -7.7619  -7.7619  -7.6408  -7.6408  -7.6093  -7.6093  -7.4923  -7.4922
     1.3427   1.3427   1.4043   1.4043   1.4943   1.4943   1.7665   1.7665
     2.5192   2.5192   3.1043   3.1044   3.1971   3.1971   3.3422   3.3422
     3.4435   3.4435   3.4452   3.4452   3.5574   3.5574   3.7474   3.7474
     3.8197   3.8197   4.8777   4.8777   4.9077   4.9078   5.3329   5.3329
     5.3766   5.3766   5.4036   5.4036   5.4263   5.4263   5.8442   5.8442
     5.8726   5.8726   5.9325   5.9325   6.1284   6.1284   6.1643   6.1643
     6.2802   6.2803   6.3956   6.3956   6.7207   6.7207   6.9030   6.9030
     7.0104   7.0104   7.3254   7.3254   7.4856   7.4856   7.5096   7.5097
     7.6047   7.6047   7.6287   7.6287   7.6776   7.6776   7.8520   7.8520
     9.5958   9.5958  11.3338  11.3338  11.4162  11.4162  11.4693  11.4693
    11.5705  11.5705  12.3576  12.3576  12.5623  12.5623  12.8005  12.8005
    13.5642  13.5642  13.6055  13.6055  13.6135  13.6135  13.6953  13.6953
    15.4218  15.4218  15.5801  15.5801  15.6601  15.6601  15.8292  15.8292
    16.6610  16.6611  18.1457  18.1464  18.1696

          k = 0.0000-0.4767 0.1667 ( 61872 PWs)   bands (ev):

   -66.0471 -66.0470 -66.0462 -66.0462 -66.0461 -66.0460 -66.0452 -66.0452
   -30.4494 -30.4453 -30.4445 -30.4397 -30.4130 -30.4118 -30.4090 -30.4083
   -30.3924 -30.3903 -30.3898 -30.3875 -30.3710 -30.3690 -30.3657 -30.3618
   -30.3320 -30.3318 -30.3267 -30.3256 -30.2825 -30.2772 -30.2759 -30.2715
   -20.2053 -20.2053 -20.2052 -20.2051 -20.2050 -20.2049 -20.2048 -20.2048
   -20.1872 -20.1872 -20.1869 -20.1869 -20.1869 -20.1868 -20.1866 -20.1866
   -20.1835 -20.1834 -20.1833 -20.1832 -20.1823 -20.1822 -20.1820 -20.1820
   -20.1788 -20.1787 -20.1784 -20.1783 -20.1775 -20.1774 -20.1773 -20.1772
   -20.1730 -20.1727 -20.1727 -20.1723 -20.1694 -20.1689 -20.1686 -20.1683
   -20.1670 -20.1667 -20.1658 -20.1652 -20.1639 -20.1636 -20.1627 -20.1627
   -20.1614 -20.1614 -20.1610 -20.1610 -20.1585 -20.1581 -20.1579 -20.1576
    -9.6307  -9.6164  -9.2846  -9.1846  -9.1555  -9.0561  -8.8735  -8.8616
    -8.3966  -8.3964  -8.3458  -8.3364  -8.3327  -8.3277  -8.3258  -8.3185
    -7.8756  -7.7578  -7.7510  -7.7325  -7.6303  -7.6189  -7.6130  -7.5017
     1.3997   1.4074   1.4638   1.5005   1.6499   1.7403   1.9017   1.9577
     2.6073   2.6091   3.1029   3.1147   3.2104   3.2377   3.3448   3.3480
     3.4065   3.4503   3.4510   3.5002   3.5621   3.6288   3.7372   3.7810
     3.8440   3.8528   4.5123   4.5232   4.8738   4.8988   5.1014   5.1496
     5.2320   5.2370   5.3080   5.3371   5.4118   5.4488   5.5762   5.6418
     5.8068   5.8273   5.8337   5.8596   6.0163   6.1695   6.1720   6.2319
     6.3586   6.4529   6.4963   6.5768   6.7095   6.8897   6.9012   7.0577
     7.0690   7.0954   7.1425   7.1843   7.2840   7.3363   7.5024   7.5213
     7.5833   7.6031   7.6050   7.6165   7.6616   7.6718   7.8647   7.8687
     9.8971   9.9298  11.3371  11.4089  11.4436  11.4708  11.5351  11.5768
    11.5863  11.6825  12.2797  12.4120  12.4627  12.6054  12.8603  12.8680
    13.4081  13.4421  13.4555  13.5109  13.6027  13.6092  13.6441  13.7137
    15.4027  15.5270  15.6354  15.6552  15.7559  15.8249  15.9329  16.0730
    16.7167  16.7224  17.9627  18.0232  18.1395

          k = 0.0000-0.4767 0.3333 ( 61968 PWs)   bands (ev):

   -66.0469 -66.0469 -66.0464 -66.0463 -66.0459 -66.0459 -66.0454 -66.0454
   -30.4483 -30.4455 -30.4343 -30.4290 -30.4165 -30.4123 -30.4110 -30.4091
   -30.3924 -30.3907 -30.3835 -30.3801 -30.3705 -30.3691 -30.3500 -30.3471
   -30.3465 -30.3446 -30.3285 -30.3230 -30.2996 -30.2936 -30.2751 -30.2726
   -20.2053 -20.2053 -20.2052 -20.2051 -20.2050 -20.2049 -20.2049 -20.2048
   -20.1872 -20.1872 -20.1870 -20.1870 -20.1869 -20.1868 -20.1867 -20.1866
   -20.1835 -20.1834 -20.1831 -20.1829 -20.1825 -20.1823 -20.1822 -20.1821
   -20.1787 -20.1785 -20.1784 -20.1781 -20.1777 -20.1775 -20.1774 -20.1773
   -20.1729 -20.1727 -20.1718 -20.1713 -20.1698 -20.1683 -20.1683 -20.1681
   -20.1672 -20.1669 -20.1668 -20.1648 -20.1646 -20.1634 -20.1633 -20.1630
   -20.1613 -20.1610 -20.1609 -20.1605 -20.1593 -20.1588 -20.1580 -20.1577
    -9.5244  -9.4707  -9.3326  -9.2125  -8.9508  -8.8336  -8.7579  -8.7156
    -8.4407  -8.4286  -8.3720  -8.3656  -8.3235  -8.3234  -8.3079  -8.2902
    -8.1388  -8.0323  -8.0218  -7.9161  -7.7181  -7.6453  -7.6021  -7.5280
     1.4170   1.4343   1.5169   1.5393   2.3059   2.3864   2.5044   2.5819
     2.8615   2.8644   3.1018   3.1311   3.2497   3.3038   3.3272   3.3632
     3.4045   3.4347   3.4773   3.5112   3.6109   3.7053   3.8155   3.8609
     3.9010   3.9096   3.9251   3.9528   4.5255   4.5428   4.7088   4.7560
     4.8154   4.8790   4.9716   5.0048   5.2718   5.3535   5.3567   5.3775
     5.4562   5.5265   5.7360   5.7524   6.1488   6.2085   6.2287   6.4342
     6.4678   6.5617   6.6427   6.7213   6.8040   6.8400   6.8525   7.0075
     7.0929   7.1443   7.2061   7.2330   7.2948   7.3214   7.4786   7.5408
     7.5523   7.5914   7.6020   7.6354   7.6363   7.6591   7.8256   7.8287
    10.5576  10.6290  11.3447  11.3959  11.4795  11.5303  11.8253  11.8702
    11.9200  11.9475  11.9909  12.0810  12.5869  12.7298  12.7727  12.7861
    12.9598  13.0141  13.1945  13.2843  13.5993  13.6013  13.6190  13.6672
    15.4034  15.5705  15.5759  15.7482  16.2401  16.3653  16.6469  16.7431
    16.8958  16.9241  17.5125  17.5284  17.9476

          k = 0.0000-0.4767-0.5000 ( 61948 PWs)   bands (ev):

   -66.0466 -66.0466 -66.0466 -66.0466 -66.0456 -66.0456 -66.0456 -66.0456
   -30.4469 -30.4469 -30.4234 -30.4234 -30.4187 -30.4187 -30.4101 -30.4101
   -30.3917 -30.3917 -30.3745 -30.3745 -30.3656 -30.3656 -30.3624 -30.3624
   -30.3341 -30.3341 -30.3223 -30.3223 -30.3132 -30.3132 -30.2739 -30.2739
   -20.2053 -20.2053 -20.2052 -20.2051 -20.2050 -20.2050 -20.2048 -20.2048
   -20.1871 -20.1871 -20.1871 -20.1871 -20.1868 -20.1868 -20.1867 -20.1867
   -20.1834 -20.1834 -20.1828 -20.1827 -20.1826 -20.1825 -20.1821 -20.1821
   -20.1786 -20.1786 -20.1780 -20.1780 -20.1778 -20.1778 -20.1773 -20.1773
   -20.1728 -20.1728 -20.1706 -20.1706 -20.1698 -20.1698 -20.1678 -20.1678
   -20.1674 -20.1674 -20.1658 -20.1658 -20.1641 -20.1641 -20.1632 -20.1632
   -20.1611 -20.1611 -20.1602 -20.1602 -20.1597 -20.1597 -20.1578 -20.1578
    -9.4140  -9.4140  -9.3173  -9.3173  -8.6415  -8.6415  -8.5623  -8.5623
    -8.5389  -8.5389  -8.4863  -8.4863  -8.3064  -8.3064  -8.2641  -8.2641
    -8.2444  -8.2444  -8.1841  -8.1841  -7.6819  -7.6819  -7.5645  -7.5645
     1.4299   1.4299   1.5357   1.5357   2.9826   2.9826   3.0973   3.0973
     3.1815   3.1815   3.2149   3.2149   3.2629   3.2629   3.3124   3.3124
     3.4136   3.4136   3.4626   3.4626   3.5215   3.5215   3.5917   3.5917
     3.6985   3.6985   3.8792   3.8792   4.3789   4.3789   4.4441   4.4441
     4.4758   4.4758   4.5680   4.5680   5.3084   5.3085   5.3480   5.3480
     5.5662   5.5662   5.6497   5.6497   6.2876   6.2876   6.3010   6.3010
     6.5673   6.5674   6.6584   6.6584   6.6891   6.6892   6.7925   6.7925
     7.3265   7.3265   7.3638   7.3639   7.4016   7.4016   7.5194   7.5194
     7.5804   7.5804   7.6261   7.6261   7.6481   7.6481   7.6969   7.6969
    11.2346  11.2346  11.3427  11.3428  11.4532  11.4532  11.5565  11.5565
    12.2964  12.2964  12.3538  12.3538  12.4366  12.4367  12.4864  12.4864
    12.8847  12.8847  13.0023  13.0023  13.5970  13.5970  13.6196  13.6196
    15.4816  15.4816  15.6606  15.6606  16.9317  16.9317  17.0516  17.0517
    17.3238  17.3238  17.4104  17.4106  17.5117

          k = 0.1667 0.0000 0.1667 ( 61892 PWs)   bands (ev):

   -66.0472 -66.0467 -66.0464 -66.0463 -66.0459 -66.0459 -66.0455 -66.0450
   -30.4582 -30.4499 -30.4497 -30.4382 -30.4378 -30.4198 -30.4195 -30.4092
   -30.3831 -30.3756 -30.3752 -30.3669 -30.3645 -30.3644 -30.3599 -30.3584
   -30.3354 -30.3296 -30.3296 -30.3265 -30.2822 -30.2821 -30.2783 -30.2770
   -20.2054 -20.2053 -20.2052 -20.2052 -20.2049 -20.2049 -20.2048 -20.2048
   -20.1874 -20.1872 -20.1870 -20.1870 -20.1869 -20.1869 -20.1867 -20.1866
   -20.1852 -20.1848 -20.1848 -20.1843 -20.1820 -20.1812 -20.1812 -20.1802
   -20.1799 -20.1788 -20.1787 -20.1781 -20.1768 -20.1764 -20.1763 -20.1760
   -20.1730 -20.1723 -20.1723 -20.1723 -20.1690 -20.1690 -20.1682 -20.1681
   -20.1674 -20.1668 -20.1656 -20.1656 -20.1638 -20.1638 -20.1629 -20.1628
   -20.1614 -20.1612 -20.1609 -20.1609 -20.1584 -20.1584 -20.1581 -20.1578
    -9.7623  -9.4548  -9.3724  -9.3707  -9.0457  -9.0427  -8.9910  -8.8380
    -8.8374  -8.7391  -8.7084  -8.7064  -7.9027  -7.8663  -7.7727  -7.7712
    -7.7522  -7.7428  -7.7143  -7.6639  -7.6626  -7.6306  -7.6221  -7.6145
     1.5424   1.5755   1.5807   1.5992   1.6139   1.7024   1.7058   1.7154
     1.8386   1.8390   2.0302   2.1876   2.6499   2.7281   2.7483   2.7957
     2.8837   2.9168   4.1524   4.1689   4.4276   4.4335   4.5545   4.5578
     4.5798   4.6145   4.6851   4.7895   4.8679   4.9419   5.2324   5.3353
     5.3370   5.4342   5.4642   5.6056   5.6424   5.6789   5.7117   5.7722
     5.8130   5.8337   5.8374   5.8538   5.9074   6.1409   6.2981   6.2992
     6.3849   6.6085   6.6493   6.7486   6.7488   6.7708   6.7941   6.8246
     6.8303   6.9160   6.9512   6.9536   7.0141   7.0696   7.1029   7.1956
     7.3512   7.4009   7.8533   7.8565   8.0922   8.1118   8.1365   8.2046
    10.0773  10.1301  10.3937  10.4159  10.4574  10.5440  12.3090  12.3118
    12.3713  12.3882  12.5281  12.5507  12.7238  12.7786  12.8433  12.9128
    13.1038  13.2550  13.3181  13.4097  13.8550  13.9418  14.0172  14.0445
    14.4541  14.7243  14.7257  15.2428  15.5628  15.6011  15.6272  16.3373
    16.3540  17.0021  17.0285  17.1663  17.7532

          k = 0.1667 0.0000 0.3333 ( 61908 PWs)   bands (ev):

   -66.0470 -66.0466 -66.0465 -66.0462 -66.0461 -66.0457 -66.0457 -66.0452
   -30.4552 -30.4510 -30.4453 -30.4392 -30.4309 -30.4214 -30.4094 -30.4020
   -30.3870 -30.3797 -30.3707 -30.3646 -30.3636 -30.3592 -30.3496 -30.3466
   -30.3436 -30.3424 -30.3308 -30.3266 -30.2992 -30.2942 -30.2813 -30.2787
   -20.2053 -20.2052 -20.2052 -20.2051 -20.2050 -20.2049 -20.2049 -20.2048
   -20.1873 -20.1871 -20.1871 -20.1870 -20.1869 -20.1868 -20.1868 -20.1867
   -20.1851 -20.1849 -20.1847 -20.1844 -20.1818 -20.1814 -20.1810 -20.1804
   -20.1796 -20.1790 -20.1786 -20.1782 -20.1768 -20.1765 -20.1763 -20.1761
   -20.1727 -20.1724 -20.1716 -20.1713 -20.1695 -20.1684 -20.1683 -20.1679
   -20.1672 -20.1671 -20.1665 -20.1652 -20.1645 -20.1637 -20.1635 -20.1631
   -20.1612 -20.1609 -20.1608 -20.1605 -20.1592 -20.1588 -20.1583 -20.1580
    -9.6447  -9.4253  -9.3169  -9.2270  -9.0920  -9.0242  -8.8123  -8.7693
    -8.7227  -8.7212  -8.6425  -8.5871  -8.1675  -8.0758  -8.0429  -7.9703
    -7.8417  -7.7777  -7.7232  -7.7085  -7.6725  -7.6653  -7.6441  -7.6392
     1.5576   1.5709   1.6688   1.7002   1.7131   1.7240   1.8163   1.8471
     2.3476   2.4332   2.5394   2.6461   2.7772   2.8699   2.9232   3.0021
     3.0342   3.1503   3.8538   3.9479   4.0015   4.0176   4.2277   4.3954
     4.4275   4.5338   4.6116   4.6211   4.6997   4.8061   4.8903   4.9834
     5.1510   5.1747   5.2242   5.2870   5.3690   5.5203   5.6771   5.7152
     5.7981   5.8158   5.8872   5.9256   5.9618   6.0892   6.1700   6.1866
     6.4658   6.5590   6.5884   6.6303   6.6571   6.7597   6.7816   6.8076
     6.8310   6.9412   6.9716   6.9989   7.1752   7.1979   7.2284   7.3255
     7.4156   7.4606   7.8087   7.8190   7.9896   8.0187   8.1513   8.1753
    10.3868  10.3965  10.6829  10.7819  10.9942  11.1476  11.9719  12.0768
    12.2179  12.4589  12.5309  12.5527  12.6739  12.7715  12.8405  12.9233
    13.0250  13.1272  13.1936  13.3667  13.7165  13.7369  13.9648  13.9868
    14.5493  14.7012  14.9620  15.4556  15.5278  15.8606  15.9848  16.2299
    16.5199  17.1377  17.4884  17.5170  17.6226

          k = 0.1667 0.0000-0.5000 ( 61934 PWs)   bands (ev):

   -66.0468 -66.0468 -66.0463 -66.0463 -66.0459 -66.0459 -66.0455 -66.0455
   -30.4528 -30.4528 -30.4416 -30.4416 -30.4248 -30.4248 -30.3960 -30.3960
   -30.3895 -30.3895 -30.3645 -30.3645 -30.3603 -30.3603 -30.3544 -30.3544
   -30.3357 -30.3357 -30.3219 -30.3219 -30.3149 -30.3149 -30.2801 -30.2801
   -20.2052 -20.2052 -20.2051 -20.2051 -20.2050 -20.2050 -20.2049 -20.2048
   -20.1872 -20.1872 -20.1871 -20.1871 -20.1869 -20.1869 -20.1868 -20.1868
   -20.1850 -20.1850 -20.1845 -20.1845 -20.1816 -20.1816 -20.1807 -20.1807
   -20.1793 -20.1793 -20.1784 -20.1784 -20.1766 -20.1766 -20.1762 -20.1762
   -20.1725 -20.1725 -20.1704 -20.1704 -20.1699 -20.1699 -20.1676 -20.1676
   -20.1674 -20.1674 -20.1657 -20.1657 -20.1643 -20.1643 -20.1634 -20.1634
   -20.1610 -20.1610 -20.1601 -20.1601 -20.1598 -20.1598 -20.1581 -20.1581
    -9.5185  -9.5185  -9.1805  -9.1805  -9.0961  -9.0961  -8.7427  -8.7427
    -8.5094  -8.5094  -8.4448  -8.4448  -8.3905  -8.3904  -8.3121  -8.3121
    -7.8140  -7.8140  -7.7019  -7.7019  -7.6731  -7.6731  -7.6530  -7.6530
     1.5627   1.5627   1.6859   1.6859   1.7275   1.7275   1.8521   1.8521
     2.8055   2.8055   3.0699   3.0699   3.1580   3.1580   3.2749   3.2749
     3.3687   3.3687   3.4811   3.4811   3.6574   3.6574   3.9072   3.9072
     3.9411   3.9411   4.5229   4.5229   4.6089   4.6089   4.9998   4.9998
     5.1032   5.1032   5.1698   5.1698   5.3815   5.3815   5.7373   5.7373
     5.8242   5.8243   5.8904   5.8904   5.9547   5.9547   6.1143   6.1143
     6.4314   6.4314   6.5468   6.5468   6.7227   6.7227   6.7914   6.7914
     6.9210   6.9210   7.0351   7.0352   7.0928   7.0928   7.5899   7.5899
     7.6266   7.6266   7.7627   7.7628   7.7969   7.7969   8.1647   8.1647
    10.4093  10.4093  11.3511  11.3511  11.4807  11.4807  11.6561  11.6561
    11.8958  11.8958  12.6512  12.6512  12.7810  12.7810  12.8382  12.8382
    13.0002  13.0002  13.3688  13.3688  13.4584  13.4584  13.9695  13.9695
    14.6506  14.6506  15.2541  15.2541  15.9133  15.9133  16.1382  16.1382
    16.7573  16.7573  17.9178  17.9179  18.0573

          k = 0.1667 0.1589 0.1667 ( 61860 PWs)   bands (ev):

   -66.0472 -66.0468 -66.0463 -66.0463 -66.0459 -66.0459 -66.0455 -66.0451
   -30.4559 -30.4475 -30.4473 -30.4388 -30.4339 -30.4188 -30.4186 -30.4072
   -30.3864 -30.3776 -30.3772 -30.3691 -30.3655 -30.3647 -30.3607 -30.3596
   -30.3351 -30.3301 -30.3300 -30.3276 -30.2822 -30.2821 -30.2782 -30.2771
   -20.2054 -20.2053 -20.2052 -20.2051 -20.2049 -20.2049 -20.2048 -20.2048
   -20.1873 -20.1872 -20.1870 -20.1870 -20.1868 -20.1868 -20.1867 -20.1866
   -20.1850 -20.1845 -20.1845 -20.1840 -20.1822 -20.1814 -20.1814 -20.1804
   -20.1798 -20.1787 -20.1787 -20.1780 -20.1771 -20.1766 -20.1766 -20.1762
   -20.1730 -20.1724 -20.1723 -20.1723 -20.1690 -20.1690 -20.1682 -20.1682
   -20.1674 -20.1668 -20.1656 -20.1656 -20.1638 -20.1638 -20.1629 -20.1628
   -20.1614 -20.1612 -20.1609 -20.1609 -20.1584 -20.1584 -20.1581 -20.1578
    -9.7304  -9.4668  -9.3334  -9.3316  -9.0502  -9.0472  -8.9166  -8.8365
    -8.8335  -8.7000  -8.6751  -8.6733  -7.9204  -7.8690  -7.8204  -7.8084
    -7.7895  -7.7599  -7.7514  -7.7362  -7.7230  -7.7066  -7.6208  -7.6153
     1.5866   1.5968   1.6335   1.6355   1.7277   1.7283   1.7469   1.9215
     1.9912   1.9952   2.0312   2.2678   2.6592   2.7424   2.8014   2.8741
     2.9586   2.9833   4.0742   4.0768   4.2402   4.2552   4.5095   4.5108
     4.5773   4.6104   4.6626   4.8025   4.8351   4.8761   5.0706   5.2614
     5.2818   5.3904   5.4052   5.4877   5.4985   5.6226   5.6357   5.7036
     5.8125   5.8332   5.8605   5.9062   5.9333   5.9758   6.2666   6.2943
     6.4199   6.5222   6.6277   6.7119   6.7825   6.7994   6.8316   6.8583
     6.8985   6.9199   6.9802   6.9926   7.0476   7.0716   7.1203   7.1990
     7.3552   7.3990   7.8523   7.8564   8.0523   8.0648   8.0936   8.1322
    10.1025  10.1441  10.5489  10.5549  10.6034  10.6755  12.2957  12.3029
    12.3237  12.3489  12.4928  12.5108  12.5896  12.6795  12.8097  12.9215
    13.1077  13.2387  13.3181  13.4014  13.8699  13.8744  13.9555  13.9776
    14.6535  14.9643  14.9722  15.3679  15.5969  15.6348  15.9597  16.3157
    16.3238  16.8702  17.1309  17.1349  17.7698

          k = 0.1667 0.1589 0.3333 ( 61896 PWs)   bands (ev):

   -66.0470 -66.0466 -66.0465 -66.0461 -66.0461 -66.0457 -66.0456 -66.0452
   -30.4527 -30.4485 -30.4421 -30.4354 -30.4313 -30.4207 -30.4097 -30.4006
   -30.3899 -30.3812 -30.3727 -30.3670 -30.3644 -30.3603 -30.3499 -30.3468
   -30.3440 -30.3432 -30.3316 -30.3269 -30.2992 -30.2942 -30.2813 -30.2787
   -20.2053 -20.2052 -20.2052 -20.2051 -20.2050 -20.2049 -20.2049 -20.2048
   -20.1873 -20.1871 -20.1871 -20.1870 -20.1869 -20.1868 -20.1868 -20.1867
   -20.1849 -20.1846 -20.1844 -20.1841 -20.1820 -20.1815 -20.1811 -20.1806
   -20.1795 -20.1789 -20.1785 -20.1781 -20.1770 -20.1767 -20.1765 -20.1763
   -20.1726 -20.1724 -20.1716 -20.1713 -20.1695 -20.1684 -20.1683 -20.1679
   -20.1672 -20.1671 -20.1665 -20.1652 -20.1646 -20.1637 -20.1635 -20.1631
   -20.1612 -20.1609 -20.1608 -20.1605 -20.1592 -20.1588 -20.1583 -20.1580
    -9.6096  -9.3867  -9.3282  -9.1738  -9.0981  -8.9507  -8.8164  -8.7475
    -8.7191  -8.6883  -8.6272  -8.5683  -8.1694  -8.0825  -8.0454  -7.9777
    -7.8527  -7.8119  -7.7903  -7.7666  -7.7471  -7.7328  -7.7110  -7.6432
     1.6398   1.6541   1.7389   1.7578   1.8716   1.8830   1.9552   1.9925
     2.3508   2.4409   2.5429   2.6582   2.8515   2.9170   2.9599   3.0229
     3.0872   3.2091   3.8530   3.9507   3.9640   4.0049   4.2442   4.2553
     4.3312   4.4802   4.5213   4.6344   4.6778   4.7549   4.8623   4.9053
     5.0214   5.0345   5.1048   5.2162   5.3211   5.3582   5.4633   5.6691
     5.7241   5.7444   5.8499   5.8783   5.9347   5.9648   6.1185   6.1689
     6.4653   6.5807   6.6302   6.7070   6.7466   6.7853   6.8151   6.8905
     6.9201   6.9445   7.0093   7.0551   7.1701   7.2044   7.2263   7.3288
     7.4164   7.4613   7.8093   7.8162   7.9559   7.9813   8.0960   8.1101
    10.5185  10.5384  10.7169  10.8006  11.1034  11.2290  11.9716  12.0793
    12.2112  12.4530  12.5132  12.5871  12.6261  12.6301  12.7956  12.8852
    12.9155  13.1089  13.1752  13.3493  13.6219  13.6482  13.9117  13.9327
    14.8127  14.9487  15.2806  15.6129  15.8470  15.8755  16.0033  16.2226
    16.6156  17.1095  17.2903  17.5480  17.5904

          k = 0.1667 0.1589-0.5000 ( 61898 PWs)   bands (ev):

   -66.0468 -66.0468 -66.0464 -66.0463 -66.0459 -66.0459 -66.0455 -66.0455
   -30.4503 -30.4503 -30.4380 -30.4380 -30.4245 -30.4245 -30.3977 -30.3977
   -30.3896 -30.3896 -30.3657 -30.3657 -30.3615 -30.3615 -30.3558 -30.3558
   -30.3363 -30.3363 -30.3220 -30.3220 -30.3150 -30.3150 -30.2801 -30.2801
   -20.2052 -20.2052 -20.2051 -20.2051 -20.2050 -20.2050 -20.2049 -20.2048
   -20.1872 -20.1872 -20.1871 -20.1871 -20.1869 -20.1869 -20.1868 -20.1868
   -20.1847 -20.1847 -20.1842 -20.1842 -20.1817 -20.1817 -20.1809 -20.1809
   -20.1792 -20.1792 -20.1783 -20.1783 -20.1769 -20.1769 -20.1764 -20.1764
   -20.1725 -20.1725 -20.1705 -20.1704 -20.1699 -20.1699 -20.1677 -20.1677
   -20.1674 -20.1674 -20.1657 -20.1657 -20.1643 -20.1643 -20.1634 -20.1634
   -20.1610 -20.1610 -20.1601 -20.1601 -20.1598 -20.1598 -20.1581 -20.1581
    -9.4808  -9.4808  -9.1893  -9.1893  -9.0278  -9.0278  -8.7099  -8.7099
    -8.5096  -8.5096  -8.4501  -8.4501  -8.3873  -8.3873  -8.3099  -8.3099
    -7.8360  -7.8360  -7.7728  -7.7728  -7.7507  -7.7507  -7.6776  -7.6776
     1.6496   1.6496   1.7569   1.7569   1.8893   1.8893   1.9905   1.9905
     2.8743   2.8743   3.0857   3.0857   3.1676   3.1676   3.2945   3.2945
     3.3719   3.3719   3.4907   3.4907   3.6558   3.6558   3.9123   3.9124
     3.9898   3.9898   4.3693   4.3693   4.5848   4.5848   4.8126   4.8126
     5.0124   5.0124   5.1270   5.1270   5.2227   5.2227   5.5659   5.5659
     5.7781   5.7781   5.8162   5.8162   5.9356   5.9356   5.9680   5.9680
     6.5484   6.5484   6.6882   6.6882   6.7377   6.7377   6.8442   6.8442
     6.9815   6.9815   7.0192   7.0192   7.1254   7.1254   7.5917   7.5917
     7.6202   7.6202   7.7468   7.7468   7.7779   7.7779   8.1037   8.1037
    10.5615  10.5615  11.3602  11.3602  11.4832  11.4832  11.7222  11.7222
    11.9502  11.9502  12.6251  12.6251  12.6914  12.6914  12.8028  12.8028
    12.9825  12.9825  13.2587  13.2587  13.3846  13.3846  13.9132  13.9132
    14.9074  14.9074  15.6075  15.6075  15.9907  15.9907  16.1700  16.1700
    16.7917  16.7917  17.7765  17.7765  18.0333

          k = 0.1667 0.3178 0.1667 ( 61919 PWs)   bands (ev):

   -66.0471 -66.0469 -66.0462 -66.0462 -66.0460 -66.0460 -66.0454 -66.0452
   -30.4504 -30.4428 -30.4425 -30.4406 -30.4234 -30.4157 -30.4155 -30.4009
   -30.3958 -30.3835 -30.3832 -30.3782 -30.3657 -30.3651 -30.3617 -30.3614
   -30.3341 -30.3309 -30.3308 -30.3299 -30.2822 -30.2822 -30.2780 -30.2773
   -20.2053 -20.2053 -20.2052 -20.2051 -20.2049 -20.2049 -20.2048 -20.2048
   -20.1873 -20.1872 -20.1870 -20.1870 -20.1868 -20.1868 -20.1866 -20.1866
   -20.1843 -20.1838 -20.1838 -20.1832 -20.1826 -20.1818 -20.1818 -20.1811
   -20.1793 -20.1785 -20.1785 -20.1778 -20.1777 -20.1771 -20.1771 -20.1768
   -20.1728 -20.1725 -20.1723 -20.1723 -20.1691 -20.1690 -20.1682 -20.1682
   -20.1673 -20.1669 -20.1656 -20.1656 -20.1638 -20.1638 -20.1629 -20.1629
   -20.1614 -20.1612 -20.1609 -20.1609 -20.1584 -20.1584 -20.1580 -20.1579
    -9.6528  -9.5040  -9.2493  -9.2474  -9.0637  -9.0612  -8.8343  -8.8306
    -8.7058  -8.5663  -8.5574  -8.5559  -8.0970  -8.0429  -8.0428  -8.0204
    -7.8644  -7.8613  -7.7492  -7.7449  -7.7442  -7.7357  -7.6209  -7.6173
     1.5914   1.5951   1.6515   1.6524   1.7447   1.7453   1.9655   2.0255
     2.4644   2.5793   2.5873   2.6806   2.7067   2.7672   3.0201   3.1196
     3.1853   3.1939   3.7640   3.7678   3.7997   3.8622   4.1970   4.5028
     4.5172   4.5459   4.5574   4.6466   4.6649   4.8498   4.8783   4.9504
     4.9952   5.0296   5.2347   5.2372   5.4689   5.4862   5.4949   5.5347
     5.7366   5.7502   5.8107   5.8202   5.8793   5.9091   6.2754   6.2944
     6.5004   6.5439   6.6118   6.7114   6.8485   6.8652   6.8841   6.9158
     7.0442   7.0476   7.0945   7.1035   7.1928   7.1937   7.2326   7.2430
     7.3914   7.4062   7.8261   7.8468   7.8993   7.9092   7.9262   7.9373
    10.1352  10.1542  10.9481  10.9770  11.0069  11.0762  12.0111  12.0475
    12.1299  12.2075  12.3373  12.3489  12.5114  12.5135  12.8620  12.9219
    13.2023  13.2634  13.3517  13.4178  13.6632  13.6818  13.7494  13.8054
    15.2172  15.4772  15.5173  15.5911  15.6454  15.9243  16.2188  16.2211
    16.3622  16.9306  17.4312  17.5038  17.5478

          k = 0.1667 0.3178 0.3333 ( 61886 PWs)   bands (ev):

   -66.0469 -66.0467 -66.0464 -66.0462 -66.0461 -66.0458 -66.0456 -66.0453
   -30.4471 -30.4435 -30.4347 -30.4323 -30.4251 -30.4183 -30.4108 -30.3984
   -30.3962 -30.3854 -30.3777 -30.3752 -30.3655 -30.3616 -30.3505 -30.3472
   -30.3447 -30.3445 -30.3332 -30.3276 -30.2993 -30.2942 -30.2814 -30.2788
   -20.2053 -20.2052 -20.2052 -20.2051 -20.2050 -20.2049 -20.2049 -20.2048
   -20.1872 -20.1871 -20.1871 -20.1869 -20.1869 -20.1868 -20.1867 -20.1867
   -20.1841 -20.1839 -20.1836 -20.1833 -20.1824 -20.1820 -20.1816 -20.1812
   -20.1791 -20.1787 -20.1783 -20.1779 -20.1777 -20.1773 -20.1771 -20.1769
   -20.1726 -20.1724 -20.1717 -20.1713 -20.1695 -20.1683 -20.1683 -20.1679
   -20.1673 -20.1671 -20.1665 -20.1652 -20.1646 -20.1637 -20.1635 -20.1632
   -20.1612 -20.1609 -20.1609 -20.1605 -20.1592 -20.1588 -20.1583 -20.1580
    -9.5256  -9.3640  -9.3012  -9.1165  -9.0488  -8.8332  -8.7456  -8.7268
    -8.7005  -8.5720  -8.5353  -8.4916  -8.1954  -8.1520  -8.0787  -8.0506
    -8.0303  -8.0008  -7.9772  -7.9061  -7.8275  -7.7576  -7.7167  -7.6447
     1.6627   1.6794   1.7571   1.7779   2.2700   2.3634   2.3741   2.4959
     2.5395   2.6011   2.6143   2.7983   2.9491   3.0148   3.0820   3.1716
     3.3162   3.3909   3.7321   3.7651   3.8213   3.9001   3.9733   4.0533
     4.1690   4.3726   4.4736   4.4986   4.5475   4.6263   4.6386   4.7604
     4.8581   4.9121   4.9424   4.9848   5.0387   5.1065   5.2349   5.2657
     5.4242   5.4483   5.5405   5.7119   5.8339   5.8975   6.1439   6.1689
     6.6235   6.6728   6.7202   6.7977   6.8733   6.9411   7.0088   7.0551
     7.0853   7.1074   7.1229   7.1730   7.2142   7.2432   7.2925   7.3463
     7.4253   7.4706   7.7772   7.8130   7.8319   7.8595   7.9091   7.9267
    10.6777  10.7321  10.9955  11.0326  11.4111  11.4944  11.9433  12.0182
    12.1134  12.2163  12.3132  12.3617  12.5366  12.6623  12.7204  12.7330
    12.9277  13.0698  13.1796  13.3573  13.3877  13.4601  13.7063  13.7398
    15.3868  15.4913  15.7600  16.0193  16.0580  16.1427  16.1759  16.7833
    16.8126  16.9437  17.0564  17.6339  17.7262

          k = 0.1667 0.3178-0.5000 ( 61898 PWs)   bands (ev):

   -66.0467 -66.0467 -66.0464 -66.0464 -66.0458 -66.0458 -66.0456 -66.0456
   -30.4451 -30.4451 -30.4284 -30.4284 -30.4236 -30.4236 -30.4036 -30.4036
   -30.3896 -30.3896 -30.3696 -30.3696 -30.3645 -30.3645 -30.3575 -30.3575
   -30.3375 -30.3375 -30.3222 -30.3222 -30.3151 -30.3151 -30.2801 -30.2801
   -20.2052 -20.2052 -20.2051 -20.2051 -20.2050 -20.2050 -20.2049 -20.2049
   -20.1872 -20.1872 -20.1871 -20.1871 -20.1868 -20.1868 -20.1868 -20.1868
   -20.1840 -20.1840 -20.1835 -20.1835 -20.1822 -20.1822 -20.1814 -20.1814
   -20.1789 -20.1789 -20.1781 -20.1781 -20.1775 -20.1775 -20.1770 -20.1770
   -20.1725 -20.1725 -20.1705 -20.1705 -20.1699 -20.1699 -20.1677 -20.1677
   -20.1674 -20.1674 -20.1657 -20.1657 -20.1643 -20.1643 -20.1634 -20.1634
   -20.1610 -20.1610 -20.1601 -20.1601 -20.1597 -20.1597 -20.1581 -20.1581
    -9.3944  -9.3944  -9.2163  -9.2163  -8.8439  -8.8439  -8.6108  -8.6108
    -8.5131  -8.5131  -8.4703  -8.4703  -8.3721  -8.3721  -8.2975  -8.2975
    -8.0363  -8.0363  -7.9986  -7.9986  -7.7951  -7.7951  -7.6802  -7.6802
     1.6775   1.6775   1.7792   1.7792   2.4615   2.4615   2.5818   2.5818
     3.0551   3.0551   3.1363   3.1364   3.1767   3.1767   3.3441   3.3441
     3.3818   3.3819   3.5187   3.5187   3.6446   3.6446   3.8096   3.8096
     4.0914   4.0914   4.1721   4.1721   4.2867   4.2867   4.4675   4.4675
     4.8406   4.8406   4.9320   4.9320   5.1017   5.1017   5.1456   5.1456
     5.2427   5.2427   5.6155   5.6155   5.9193   5.9193   5.9521   5.9521
     6.7087   6.7087   6.8544   6.8544   6.9020   6.9020   6.9595   6.9595
     7.1173   7.1173   7.1681   7.1681   7.2550   7.2550   7.5824   7.5824
     7.6056   7.6056   7.6814   7.6814   7.7151   7.7151   7.9149   7.9149
    10.9681  10.9681  11.3799  11.3799  11.4905  11.4905  11.8653  11.8653
    12.1245  12.1245  12.3167  12.3167  12.6229  12.6229  12.7064  12.7064
    12.8886  12.8886  13.0271  13.0271  13.3353  13.3353  13.7075  13.7075
    15.4513  15.4513  15.9655  15.9655  16.4759  16.4759  16.5693  16.5693
    16.9188  16.9188  17.4399  17.4399  17.9322

          k = 0.1667-0.4767 0.1667 ( 61886 PWs)   bands (ev):

   -66.0470 -66.0470 -66.0461 -66.0461 -66.0461 -66.0461 -66.0453 -66.0453
   -30.4448 -30.4448 -30.4400 -30.4400 -30.4128 -30.4128 -30.4093 -30.4093
   -30.3904 -30.3904 -30.3878 -30.3878 -30.3655 -30.3655 -30.3621 -30.3621
   -30.3323 -30.3323 -30.3312 -30.3312 -30.2822 -30.2822 -30.2777 -30.2777
   -20.2053 -20.2053 -20.2052 -20.2051 -20.2049 -20.2049 -20.2048 -20.2048
   -20.1872 -20.1872 -20.1869 -20.1869 -20.1869 -20.1868 -20.1866 -20.1866
   -20.1834 -20.1834 -20.1832 -20.1832 -20.1823 -20.1823 -20.1821 -20.1821
   -20.1787 -20.1787 -20.1784 -20.1783 -20.1775 -20.1774 -20.1773 -20.1773
   -20.1727 -20.1727 -20.1723 -20.1723 -20.1691 -20.1690 -20.1682 -20.1682
   -20.1671 -20.1671 -20.1656 -20.1656 -20.1638 -20.1638 -20.1629 -20.1629
   -20.1613 -20.1613 -20.1609 -20.1609 -20.1584 -20.1584 -20.1579 -20.1579
    -9.5682  -9.5682  -9.2009  -9.2009  -9.0748  -9.0748  -8.8317  -8.8317
    -8.4044  -8.4044  -8.3411  -8.3410  -8.3291  -8.3291  -8.3213  -8.3213
    -7.8663  -7.8663  -7.7473  -7.7473  -7.7424  -7.7424  -7.6195  -7.6195
     1.5932   1.5932   1.6540   1.6540   1.7477   1.7477   2.0137   2.0137
     2.7002   2.7002   3.1186   3.1186   3.2416   3.2416   3.3481   3.3481
     3.4104   3.4105   3.5251   3.5251   3.6282   3.6282   3.7732   3.7732
     3.8690   3.8690   4.5366   4.5366   4.5994   4.5994   5.0426   5.0426
     5.1101   5.1101   5.2117   5.2118   5.2683   5.2683   5.5354   5.5354
     5.5848   5.5848   5.8150   5.8150   5.8588   5.8589   6.2954   6.2954
     6.5800   6.5801   6.6307   6.6307   6.8627   6.8627   6.9239   6.9239
     7.0656   7.0656   7.1546   7.1546   7.3286   7.3286   7.5073   7.5073
     7.5848   7.5848   7.6112   7.6112   7.6678   7.6679   7.8675   7.8675
    10.1510  10.1510  11.4498  11.4498  11.5218  11.5218  11.5954  11.5954
    11.6850  11.6850  12.3362  12.3362  12.5082  12.5082  12.9113  12.9113
    13.3873  13.3874  13.4233  13.4233  13.4532  13.4532  13.6419  13.6419
    15.5553  15.5553  15.7959  15.7960  15.9268  15.9268  16.0580  16.0580
    16.7738  16.7739  17.9675  17.9675  18.0406

          k = 0.1667-0.4767 0.3333 ( 61908 PWs)   bands (ev):

   -66.0468 -66.0468 -66.0463 -66.0463 -66.0459 -66.0459 -66.0454 -66.0454
   -30.4437 -30.4410 -30.4339 -30.4294 -30.4162 -30.4127 -30.4119 -30.4101
   -30.3903 -30.3886 -30.3836 -30.3804 -30.3661 -30.3619 -30.3507 -30.3474
   -30.3452 -30.3448 -30.3339 -30.3278 -30.2993 -30.2943 -30.2814 -30.2788
   -20.2053 -20.2052 -20.2052 -20.2051 -20.2050 -20.2049 -20.2049 -20.2048
   -20.1872 -20.1872 -20.1870 -20.1870 -20.1869 -20.1868 -20.1867 -20.1867
   -20.1834 -20.1833 -20.1831 -20.1829 -20.1825 -20.1823 -20.1822 -20.1821
   -20.1786 -20.1784 -20.1784 -20.1781 -20.1777 -20.1775 -20.1774 -20.1774
   -20.1726 -20.1724 -20.1717 -20.1713 -20.1695 -20.1683 -20.1683 -20.1679
   -20.1673 -20.1671 -20.1665 -20.1652 -20.1646 -20.1637 -20.1635 -20.1632
   -20.1612 -20.1609 -20.1609 -20.1605 -20.1592 -20.1588 -20.1583 -20.1580
    -9.4532  -9.4117  -9.2501  -9.1339  -8.9679  -8.8537  -8.7274  -8.6948
    -8.4528  -8.4412  -8.3650  -8.3550  -8.3254  -8.3197  -8.3095  -8.2954
    -8.1297  -8.0305  -8.0222  -7.9322  -7.8294  -7.7589  -7.7175  -7.6452
     1.6653   1.6817   1.7598   1.7801   2.3116   2.3944   2.4908   2.5651
     2.9625   2.9647   3.1226   3.1460   3.2655   3.3004   3.3345   3.3521
     3.4015   3.4151   3.5436   3.5986   3.6496   3.7434   3.8055   3.8550
     3.8984   3.9090   3.9919   4.0565   4.4834   4.5198   4.6927   4.7121
     4.7643   4.8086   4.8964   4.9572   5.0520   5.0957   5.1308   5.1855
     5.2475   5.3210   5.4354   5.5230   5.8324   5.8670   6.1489   6.1708
     6.6868   6.7191   6.7316   6.8081   6.8880   7.0012   7.0829   7.1252
     7.1456   7.2026   7.2249   7.2718   7.3119   7.3234   7.4814   7.5370
     7.5511   7.5821   7.5982   7.6239   7.6553   7.6662   7.8276   7.8313
    10.7008  10.7493  11.4598  11.5113  11.5837  11.6347  11.8262  11.8832
    11.9338  11.9710  12.0267  12.1393  12.5162  12.6585  12.7729  12.8064
    12.9682  13.0202  13.1473  13.2225  13.4285  13.4575  13.5209  13.5698
    15.6212  15.7656  15.8342  15.9850  16.2901  16.4105  16.6287  16.7295
    16.9401  16.9604  17.5425  17.5841  17.8790

          k = 0.1667-0.4767-0.5000 ( 61868 PWs)   bands (ev):

   -66.0466 -66.0466 -66.0465 -66.0465 -66.0457 -66.0457 -66.0457 -66.0457
   -30.4423 -30.4423 -30.4230 -30.4230 -30.4190 -30.4190 -30.4111 -30.4111
   -30.3896 -30.3896 -30.3725 -30.3725 -30.3659 -30.3659 -30.3580 -30.3580
   -30.3380 -30.3380 -30.3223 -30.3223 -30.3152 -30.3151 -30.2801 -30.2801
   -20.2052 -20.2052 -20.2051 -20.2051 -20.2050 -20.2050 -20.2049 -20.2049
   -20.1871 -20.1871 -20.1871 -20.1871 -20.1868 -20.1868 -20.1868 -20.1868
   -20.1833 -20.1833 -20.1828 -20.1827 -20.1826 -20.1826 -20.1822 -20.1822
   -20.1785 -20.1785 -20.1780 -20.1780 -20.1778 -20.1778 -20.1774 -20.1774
   -20.1725 -20.1725 -20.1705 -20.1705 -20.1699 -20.1698 -20.1677 -20.1677
   -20.1674 -20.1674 -20.1657 -20.1657 -20.1643 -20.1643 -20.1634 -20.1634
   -20.1610 -20.1610 -20.1602 -20.1601 -20.1597 -20.1597 -20.1582 -20.1581
    -9.3351  -9.3351  -9.2454  -9.2454  -8.6612  -8.6612  -8.5843  -8.5842
    -8.5185  -8.5185  -8.4699  -8.4699  -8.3031  -8.3031  -8.2625  -8.2625
    -8.2463  -8.2463  -8.1865  -8.1865  -7.7970  -7.7970  -7.6808  -7.6808
     1.6804   1.6804   1.7823   1.7823   2.9944   2.9945   3.1011   3.1011
     3.1867   3.1867   3.2076   3.2076   3.2779   3.2779   3.3431   3.3431
     3.4349   3.4349   3.5150   3.5150   3.5557   3.5557   3.6670   3.6670
     3.7292   3.7292   3.9043   3.9043   4.3810   4.3811   4.4314   4.4314
     4.4765   4.4765   4.5584   4.5584   4.9763   4.9763   5.1532   5.1532
     5.2420   5.2420   5.4148   5.4148   5.9159   5.9159   5.9450   5.9450
     6.7579   6.7579   6.8920   6.8920   6.9191   6.9191   7.0020   7.0020
     7.3314   7.3314   7.3574   7.3574   7.4354   7.4354   7.5227   7.5227
     7.5710   7.5710   7.6231   7.6232   7.6676   7.6677   7.7086   7.7087
    11.3163  11.3163  11.4148  11.4148  11.5637  11.5637  11.6730  11.6730
    12.2987  12.2987  12.3624  12.3624  12.4369  12.4369  12.4914  12.4914
    12.8346  12.8346  12.9409  12.9409  13.4466  13.4466  13.4953  13.4953
    15.7340  15.7340  15.8924  15.8924  16.9819  16.9819  17.0932  17.0933
    17.3383  17.3383  17.4180  17.4181  17.5131

          k = 0.3333 0.0000 0.3333 ( 61926 PWs)   bands (ev):

   -66.0468 -66.0464 -66.0464 -66.0463 -66.0459 -66.0459 -66.0459 -66.0454
   -30.4515 -30.4466 -30.4463 -30.4406 -30.4226 -30.4115 -30.4108 -30.3964
   -30.3903 -30.3751 -30.3749 -30.3619 -30.3543 -30.3523 -30.3504 -30.3437
   -30.3436 -30.3402 -30.3367 -30.3358 -30.2986 -30.2982 -30.2963 -30.2950
   -20.2052 -20.2052 -20.2051 -20.2051 -20.2050 -20.2050 -20.2049 -20.2049
   -20.1873 -20.1871 -20.1871 -20.1871 -20.1869 -20.1869 -20.1869 -20.1867
   -20.1850 -20.1848 -20.1847 -20.1845 -20.1816 -20.1811 -20.1811 -20.1806
   -20.1794 -20.1788 -20.1788 -20.1784 -20.1767 -20.1765 -20.1764 -20.1762
   -20.1719 -20.1714 -20.1714 -20.1712 -20.1690 -20.1690 -20.1687 -20.1681
   -20.1669 -20.1668 -20.1659 -20.1659 -20.1644 -20.1644 -20.1639 -20.1637
   -20.1609 -20.1606 -20.1605 -20.1605 -20.1591 -20.1591 -20.1590 -20.1587
    -9.5136  -9.2823  -9.2767  -9.1422  -9.0618  -8.8669  -8.8527  -8.6936
    -8.6284  -8.6110  -8.6065  -8.5881  -8.1815  -8.1359  -8.1217  -8.0982
    -8.0204  -8.0075  -7.9387  -7.9124  -7.7015  -7.6755  -7.6754  -7.6501
     1.6147   1.6489   1.6517   1.6845   2.2729   2.2763   2.3566   2.3710
     2.4521   2.4564   2.6239   2.7302   2.9712   3.0408   3.0743   3.0999
     3.3028   3.3301   3.8164   3.8804   3.9953   4.0243   4.1499   4.1900
     4.2218   4.2399   4.3503   4.4381   4.4990   4.5378   4.6437   4.6586
     4.8455   4.9562   5.0685   5.1159   5.1259   5.1662   5.2758   5.5204
     5.5381   5.5801   5.5830   5.7415   5.9959   6.0132   6.0140   6.1766
     6.5433   6.5553   6.5892   6.5953   6.5969   6.6277   6.6487   6.6905
     7.0728   7.2008   7.2406   7.2660   7.3286   7.3549   7.4393   7.4409
     7.4712   7.5605   7.7736   7.7799   7.9665   7.9913   8.0802   8.0826
    10.8348  10.9318  11.0119  11.0418  11.1920  11.3764  12.1442  12.1472
    12.2039  12.2189  12.2760  12.3700  12.5767  12.6011  12.8776  12.9364
    12.9549  13.0425  13.1333  13.1743  13.6256  13.7032  13.7157  13.8125
    14.6841  14.9176  14.9281  15.3638  15.9327  16.3140  16.3218  16.7383
    16.9053  17.0798  17.2434  17.7426  17.7602

          k = 0.3333 0.0000-0.5000 ( 61962 PWs)   bands (ev):

   -66.0466 -66.0466 -66.0461 -66.0461 -66.0461 -66.0461 -66.0456 -66.0456
   -30.4485 -30.4485 -30.4430 -30.4430 -30.4151 -30.4151 -30.3983 -30.3983
   -30.3851 -30.3851 -30.3660 -30.3660 -30.3575 -30.3575 -30.3453 -30.3453
   -30.3419 -30.3419 -30.3214 -30.3214 -30.3180 -30.3180 -30.2971 -30.2971
   -20.2052 -20.2052 -20.2051 -20.2051 -20.2050 -20.2050 -20.2049 -20.2049
   -20.1872 -20.1872 -20.1870 -20.1870 -20.1870 -20.1870 -20.1869 -20.1868
   -20.1849 -20.1849 -20.1846 -20.1846 -20.1813 -20.1813 -20.1808 -20.1808
   -20.1791 -20.1791 -20.1786 -20.1786 -20.1766 -20.1766 -20.1763 -20.1763
   -20.1715 -20.1715 -20.1702 -20.1702 -20.1700 -20.1700 -20.1686 -20.1686
   -20.1665 -20.1665 -20.1655 -20.1655 -20.1648 -20.1648 -20.1641 -20.1641
   -20.1606 -20.1606 -20.1600 -20.1600 -20.1598 -20.1598 -20.1589 -20.1589
    -9.3758  -9.3758  -9.1415  -9.1415  -8.9628  -8.9628  -8.6416  -8.6416
    -8.5392  -8.5392  -8.4297  -8.4297  -8.3905  -8.3905  -8.3132  -8.3132
    -8.0786  -8.0786  -7.9750  -7.9750  -7.6892  -7.6892  -7.6635  -7.6635
     1.6320   1.6320   1.6685   1.6685   2.3728   2.3729   2.4595   2.4595
     2.9860   2.9861   3.1107   3.1107   3.1564   3.1564   3.3066   3.3066
     3.4049   3.4049   3.6496   3.6496   3.8185   3.8185   3.9221   3.9221
     3.9914   3.9914   4.1358   4.1358   4.3064   4.3064   4.4873   4.4873
     4.7908   4.7908   5.0257   5.0257   5.1343   5.1343   5.2246   5.2246
     5.3821   5.3821   5.6320   5.6320   6.0335   6.0335   6.1374   6.1374
     6.4851   6.4851   6.5219   6.5219   6.5879   6.5879   6.6448   6.6448
     7.2328   7.2328   7.3595   7.3595   7.4395   7.4395   7.6116   7.6116
     7.6405   7.6405   7.7752   7.7753   7.8071   7.8071   8.0546   8.0546
    10.9798  10.9798  11.5581  11.5581  11.6704  11.6704  11.7314  11.7314
    11.9929  11.9929  12.3048  12.3048  12.5349  12.5349  12.7712  12.7713
    12.9982  12.9982  13.3243  13.3243  13.3648  13.3648  13.7250  13.7250
    14.8356  14.8356  15.1870  15.1870  16.3744  16.3744  16.7383  16.7383
    17.0526  17.0526  17.5678  17.5678  18.0384

          k = 0.3333 0.1589 0.3333 ( 61929 PWs)   bands (ev):

   -66.0468 -66.0464 -66.0463 -66.0463 -66.0459 -66.0459 -66.0458 -66.0454
   -30.4485 -30.4435 -30.4431 -30.4368 -30.4236 -30.4120 -30.4113 -30.3951
   -30.3930 -30.3763 -30.3761 -30.3650 -30.3544 -30.3532 -30.3510 -30.3442
   -30.3438 -30.3416 -30.3370 -30.3363 -30.2986 -30.2983 -30.2962 -30.2951
   -20.2052 -20.2052 -20.2051 -20.2051 -20.2050 -20.2050 -20.2049 -20.2049
   -20.1872 -20.1871 -20.1871 -20.1870 -20.1869 -20.1869 -20.1869 -20.1867
   -20.1847 -20.1845 -20.1845 -20.1842 -20.1817 -20.1813 -20.1813 -20.1808
   -20.1793 -20.1787 -20.1787 -20.1783 -20.1770 -20.1767 -20.1766 -20.1764
   -20.1719 -20.1714 -20.1714 -20.1713 -20.1690 -20.1690 -20.1687 -20.1681
   -20.1669 -20.1668 -20.1659 -20.1659 -20.1644 -20.1644 -20.1639 -20.1637
   -20.1608 -20.1606 -20.1605 -20.1605 -20.1591 -20.1591 -20.1590 -20.1587
    -9.4723  -9.2312  -9.2248  -9.1542  -8.9899  -8.8735  -8.8593  -8.6663
    -8.6257  -8.5919  -8.5898  -8.5770  -8.1930  -8.1354  -8.1259  -8.0972
    -8.0227  -8.0106  -7.9410  -7.9135  -7.7946  -7.7697  -7.7694  -7.7439
     1.8326   1.8668   1.8691   1.9099   2.2739   2.2774   2.3574   2.3763
     2.4595   2.4629   2.6262   2.7383   3.0429   3.1184   3.1430   3.1494
[...]
    11.0803  11.0803  11.5840  11.5840  11.7109  11.7109  11.7622  11.7622
    12.0333  12.0333  12.3336  12.3336  12.5277  12.5277  12.7736  12.7736
    12.8718  12.8718  13.2035  13.2035  13.2460  13.2460  13.6281  13.6281
    15.1766  15.1766  15.5552  15.5552  16.4512  16.4512  16.7406  16.7407
    17.0613  17.0613  17.5818  17.5818  17.9185

          k = 0.3333 0.3178 0.3333 ( 61878 PWs)   bands (ev):

   -66.0467 -66.0465 -66.0462 -66.0462 -66.0460 -66.0460 -66.0457 -66.0455
   -30.4410 -30.4358 -30.4354 -30.4267 -30.4267 -30.4137 -30.4132 -30.4010
   -30.3909 -30.3795 -30.3792 -30.3732 -30.3554 -30.3551 -30.3507 -30.3455
   -30.3443 -30.3442 -30.3375 -30.3371 -30.2985 -30.2984 -30.2960 -30.2953
   -20.2052 -20.2052 -20.2051 -20.2051 -20.2050 -20.2050 -20.2049 -20.2049
   -20.1872 -20.1871 -20.1870 -20.1870 -20.1869 -20.1869 -20.1868 -20.1867
   -20.1840 -20.1838 -20.1837 -20.1834 -20.1823 -20.1818 -20.1818 -20.1814
   -20.1789 -20.1785 -20.1785 -20.1780 -20.1776 -20.1772 -20.1772 -20.1770
   -20.1718 -20.1714 -20.1714 -20.1714 -20.1690 -20.1690 -20.1686 -20.1683
   -20.1669 -20.1668 -20.1659 -20.1659 -20.1644 -20.1644 -20.1638 -20.1638
   -20.1608 -20.1607 -20.1605 -20.1605 -20.1591 -20.1591 -20.1589 -20.1588
    -9.3722  -9.1943  -9.1092  -9.1016  -8.8975  -8.8831  -8.7875  -8.6233
    -8.6231  -8.5137  -8.5114  -8.5012  -8.2658  -8.1511  -8.1457  -8.0997
    -8.0569  -8.0509  -8.0193  -7.9828  -7.9606  -7.9566  -7.9154  -7.9037
     2.2477   2.2504   2.2850   2.3093   2.3769   2.3901   2.4054   2.5066
     2.6071   2.6299   2.6345   2.8338   3.2085   3.2542   3.2948   3.3589
     3.3951   3.4178   3.7284   3.7623   3.8468   3.9390   4.0612   4.1195
     4.1591   4.2399   4.2539   4.3530   4.4112   4.4491   4.4970   4.5928
     4.5935   4.6707   4.7065   4.7908   4.8419   4.8963   4.9288   4.9809
     5.0260   5.0790   5.2455   5.3456   5.4117   5.4558   5.5833   5.5923
     6.8421   6.8771   6.9291   6.9583   7.0282   7.0702   7.1117   7.1219
     7.1798   7.2219   7.2809   7.2893   7.3447   7.3484   7.4327   7.4350
     7.4907   7.5451   7.7510   7.7647   7.8041   7.8388   7.8597   7.8987
    11.0341  11.1107  11.3681  11.4195  11.4573  11.6269  12.1220  12.1486
    12.1799  12.2373  12.2459  12.3423  12.4758  12.5425  12.6663  12.6988
    12.8000  12.8097  12.8943  13.1520  13.2605  13.3448  13.3599  13.5079
    15.8170  15.9757  16.0067  16.2728  16.2996  16.4264  16.6763  16.8564
    16.8885  17.0390  17.2597  17.3308  17.7626

          k = 0.3333 0.3178-0.5000 ( 61882 PWs)   bands (ev):

   -66.0465 -66.0465 -66.0463 -66.0463 -66.0460 -66.0460 -66.0458 -66.0458
   -30.4376 -30.4376 -30.4298 -30.4298 -30.4187 -30.4187 -30.4062 -30.4062
   -30.3835 -30.3835 -30.3674 -30.3673 -30.3654 -30.3654 -30.3495 -30.3495
   -30.3426 -30.3426 -30.3216 -30.3216 -30.3181 -30.3181 -30.2972 -30.2972
   -20.2052 -20.2052 -20.2051 -20.2051 -20.2050 -20.2050 -20.2049 -20.2049
   -20.1871 -20.1871 -20.1870 -20.1870 -20.1869 -20.1869 -20.1868 -20.1868
   -20.1839 -20.1839 -20.1836 -20.1836 -20.1820 -20.1820 -20.1816 -20.1816
   -20.1787 -20.1787 -20.1782 -20.1782 -20.1774 -20.1774 -20.1771 -20.1771
   -20.1715 -20.1715 -20.1702 -20.1702 -20.1699 -20.1699 -20.1686 -20.1686
   -20.1665 -20.1665 -20.1655 -20.1655 -20.1648 -20.1648 -20.1641 -20.1641
   -20.1606 -20.1606 -20.1600 -20.1600 -20.1598 -20.1598 -20.1590 -20.1590
    -9.2127  -9.2127  -9.0083  -9.0082  -8.8983  -8.8983  -8.5817  -8.5817
    -8.5264  -8.5264  -8.4362  -8.4362  -8.3594  -8.3594  -8.3057  -8.3057
    -8.0900  -8.0900  -8.0328  -8.0328  -8.0026  -8.0026  -7.9386  -7.9386
     2.2968   2.2968   2.3998   2.3998   2.4879   2.4879   2.6038   2.6038
     3.1077   3.1077   3.1750   3.1750   3.2621   3.2621   3.3625   3.3625
     3.4543   3.4543   3.6948   3.6948   3.8127   3.8127   3.9154   3.9154
     4.0537   4.0537   4.1920   4.1920   4.2418   4.2418   4.3584   4.3584
     4.4481   4.4481   4.5995   4.5995   4.7289   4.7289   4.9596   4.9596
     5.0413   5.0413   5.1221   5.1221   5.1804   5.1804   5.4167   5.4167
     6.9033   6.9033   6.9967   6.9967   7.0515   7.0515   7.1263   7.1263
     7.2781   7.2781   7.3559   7.3559   7.4451   7.4451   7.5915   7.5915
     7.6191   7.6191   7.6912   7.6912   7.7259   7.7259   7.8644   7.8644
    11.3550  11.3550  11.6320  11.6320  11.7454  11.7454  11.9373  11.9373
    12.1782  12.1782  12.3949  12.3949  12.4660  12.4660  12.5327  12.5327
    12.8077  12.8077  12.9278  12.9278  12.9942  12.9942  13.3765  13.3765
    15.9602  15.9602  16.4313  16.4313  16.6569  16.6569  16.7903  16.7903
    17.1046  17.1046  17.4899  17.4899  17.7713

          k = 0.3333-0.4767 0.3333 ( 61894 PWs)   bands (ev):

   -66.0466 -66.0466 -66.0461 -66.0461 -66.0461 -66.0461 -66.0456 -66.0456
   -30.4329 -30.4329 -30.4302 -30.4302 -30.4155 -30.4155 -30.4133 -30.4133
   -30.3833 -30.3833 -30.3812 -30.3812 -30.3561 -30.3561 -30.3486 -30.3486
   -30.3446 -30.3446 -30.3376 -30.3375 -30.2985 -30.2985 -30.2957 -30.2957
   -20.2052 -20.2052 -20.2051 -20.2051 -20.2050 -20.2050 -20.2049 -20.2049
   -20.1871 -20.1871 -20.1870 -20.1870 -20.1869 -20.1869 -20.1868 -20.1868
   -20.1831 -20.1831 -20.1830 -20.1830 -20.1825 -20.1825 -20.1823 -20.1823
   -20.1783 -20.1783 -20.1782 -20.1782 -20.1777 -20.1777 -20.1776 -20.1775
   -20.1716 -20.1716 -20.1714 -20.1714 -20.1690 -20.1690 -20.1684 -20.1684
   -20.1669 -20.1669 -20.1659 -20.1659 -20.1644 -20.1644 -20.1638 -20.1638
   -20.1607 -20.1607 -20.1605 -20.1605 -20.1591 -20.1591 -20.1588 -20.1588
    -9.2674  -9.2674  -9.0214  -9.0214  -8.9199  -8.9199  -8.6243  -8.6243
    -8.4988  -8.4988  -8.3408  -8.3408  -8.3189  -8.3188  -8.3050  -8.3050
    -8.1080  -8.1080  -8.0575  -8.0574  -7.9953  -7.9953  -7.9178  -7.9178
     2.2650   2.2650   2.3292   2.3292   2.4169   2.4169   2.6030   2.6030
     3.1570   3.1570   3.1935   3.1935   3.3187   3.3187   3.3629   3.3629
     3.4074   3.4074   3.6792   3.6792   3.7908   3.7908   3.8303   3.8304
     3.9073   3.9073   4.1549   4.1549   4.2778   4.2778   4.4927   4.4927
     4.6382   4.6383   4.7274   4.7275   4.8137   4.8137   4.8808   4.8808
     4.9941   4.9942   5.0672   5.0672   5.1036   5.1036   5.5744   5.5744
     6.9557   6.9557   7.0863   7.0863   7.1620   7.1620   7.2159   7.2159
     7.2934   7.2934   7.3312   7.3312   7.3798   7.3798   7.5196   7.5196
     7.5564   7.5564   7.6168   7.6168   7.6768   7.6769   7.8002   7.8002
    11.1013  11.1013  11.7649  11.7649  11.8111  11.8111  11.9437  11.9437
    12.0228  12.0228  12.2166  12.2166  12.3462  12.3462  12.6878  12.6878
    12.9249  12.9249  13.0235  13.0235  13.0709  13.0709  13.3045  13.3045
    16.2582  16.2582  16.4849  16.4849  16.6033  16.6034  16.7040  16.7040
    17.0809  17.0809  17.6128  17.6129  17.6897

          k = 0.3333-0.4767-0.5000 ( 61832 PWs)   bands (ev):

   -66.0464 -66.0464 -66.0464 -66.0464 -66.0459 -66.0459 -66.0459 -66.0459
   -30.4316 -30.4316 -30.4222 -30.4222 -30.4198 -30.4198 -30.4144 -30.4144
   -30.3823 -30.3823 -30.3701 -30.3700 -30.3668 -30.3668 -30.3508 -30.3508
   -30.3428 -30.3428 -30.3217 -30.3216 -30.3181 -30.3181 -30.2972 -30.2972
   -20.2052 -20.2051 -20.2051 -20.2051 -20.2050 -20.2050 -20.2049 -20.2049
   -20.1871 -20.1871 -20.1870 -20.1870 -20.1869 -20.1869 -20.1869 -20.1869
   -20.1830 -20.1830 -20.1827 -20.1827 -20.1826 -20.1826 -20.1824 -20.1824
   -20.1783 -20.1783 -20.1780 -20.1780 -20.1779 -20.1778 -20.1776 -20.1776
   -20.1715 -20.1715 -20.1703 -20.1703 -20.1699 -20.1699 -20.1686 -20.1686
   -20.1665 -20.1665 -20.1655 -20.1655 -20.1648 -20.1648 -20.1641 -20.1641
   -20.1606 -20.1606 -20.1600 -20.1600 -20.1598 -20.1598 -20.1590 -20.1590
    -9.1201  -9.1201  -9.0572  -9.0572  -8.7214  -8.7214  -8.6606  -8.6606
    -8.4526  -8.4526  -8.4202  -8.4202  -8.2956  -8.2955  -8.2641  -8.2640
    -8.2467  -8.2467  -8.1922  -8.1922  -8.0636  -8.0636  -7.9602  -7.9602
     2.3414   2.3414   2.4289   2.4289   3.0185   3.0186   3.0910   3.0911
     3.1848   3.1848   3.2314   3.2314   3.3093   3.3093   3.3596   3.3596
     3.5041   3.5041   3.5495   3.5495   3.6915   3.6915   3.8134   3.8134
     3.8991   3.8991   4.0104   4.0104   4.3002   4.3002   4.3731   4.3731
     4.4675   4.4675   4.5044   4.5045   4.5941   4.5941   4.6808   4.6808
     4.7758   4.7759   4.9384   4.9384   5.1523   5.1523   5.1844   5.1844
     7.0255   7.0255   7.1597   7.1597   7.2354   7.2354   7.2627   7.2627
     7.3591   7.3591   7.3918   7.3918   7.4910   7.4910   7.5099   7.5099
     7.5729   7.5730   7.6409   7.6409   7.6804   7.6804   7.7319   7.7320
    11.5685  11.5685  11.6345  11.6345  11.8842  11.8842  11.9836  11.9836
    12.2700  12.2700  12.3457  12.3457  12.4197  12.4197  12.4810  12.4810
    12.6236  12.6236  12.7293  12.7293  13.0643  13.0643  13.1405  13.1405
    16.4595  16.4595  16.5702  16.5702  17.1157  17.1158  17.2045  17.2045
    17.3546  17.3547  17.4267  17.4269  17.5169

          k =-0.5000 0.0000-0.5000 ( 61932 PWs)   bands (ev):

   -66.0464 -66.0464 -66.0464 -66.0463 -66.0459 -66.0459 -66.0459 -66.0459
   -30.4454 -30.4454 -30.4450 -30.4450 -30.4046 -30.4046 -30.4038 -30.4038
   -30.3760 -30.3760 -30.3757 -30.3757 -30.3539 -30.3539 -30.3527 -30.3527
   -30.3212 -30.3212 -30.3201 -30.3201 -30.3198 -30.3197 -30.3192 -30.3192
   -20.2051 -20.2051 -20.2051 -20.2051 -20.2050 -20.2050 -20.2050 -20.2050
   -20.1871 -20.1871 -20.1871 -20.1871 -20.1870 -20.1870 -20.1869 -20.1869
   -20.1848 -20.1848 -20.1847 -20.1847 -20.1811 -20.1811 -20.1810 -20.1810
   -20.1789 -20.1789 -20.1788 -20.1788 -20.1765 -20.1765 -20.1764 -20.1764
   -20.1704 -20.1704 -20.1703 -20.1703 -20.1697 -20.1697 -20.1697 -20.1697
   -20.1653 -20.1653 -20.1653 -20.1653 -20.1652 -20.1652 -20.1651 -20.1651
   -20.1601 -20.1600 -20.1600 -20.1600 -20.1597 -20.1597 -20.1597 -20.1597
    -9.2359  -9.2359  -9.2287  -9.2287  -8.7062  -8.7062  -8.6653  -8.6653
    -8.5170  -8.5170  -8.4641  -8.4641  -8.3139  -8.3139  -8.2922  -8.2922
    -8.2687  -8.2687  -8.2339  -8.2339  -7.6773  -7.6773  -7.6769  -7.6769
     1.6488   1.6488   1.6529   1.6529   2.9892   2.9892   3.0085   3.0085
     3.1520   3.1520   3.1610   3.1610   3.2371   3.2371   3.2903   3.2903
     3.4598   3.4598   3.4669   3.4669   3.7688   3.7688   3.8628   3.8628
     3.8840   3.8840   4.0173   4.0173   4.2963   4.2963   4.3307   4.3307
     4.3904   4.3904   4.4560   4.4560   5.0316   5.0316   5.0585   5.0585
     5.4646   5.4646   5.4962   5.4962   6.1239   6.1239   6.1241   6.1241
     6.4919   6.4919   6.4961   6.4961   6.5198   6.5198   6.5396   6.5396
     7.5162   7.5162   7.5242   7.5242   7.5351   7.5351   7.6021   7.6021
     7.6883   7.6883   7.7224   7.7224   7.8428   7.8428   7.9330   7.9330
    11.5570  11.5570  11.6234  11.6234  11.7320  11.7320  11.7814  11.7815
    12.1096  12.1096  12.1420  12.1420  12.3191  12.3191  12.3395  12.3395
    13.2065  13.2065  13.2725  13.2725  13.3877  13.3877  13.4486  13.4486
    15.0477  15.0477  15.0520  15.0520  16.7987  16.7988  16.9081  16.9081
    17.6239  17.6239  17.6433  17.6433  17.7912

          k =-0.5000 0.1589-0.5000 ( 61992 PWs)   bands (ev):

   -66.0463 -66.0463 -66.0463 -66.0463 -66.0459 -66.0459 -66.0459 -66.0459
   -30.4419 -30.4419 -30.4415 -30.4415 -30.4063 -30.4063 -30.4055 -30.4055
   -30.3753 -30.3753 -30.3750 -30.3750 -30.3564 -30.3564 -30.3552 -30.3552
   -30.3211 -30.3211 -30.3202 -30.3202 -30.3198 -30.3198 -30.3194 -30.3194
   -20.2051 -20.2051 -20.2051 -20.2051 -20.2050 -20.2050 -20.2050 -20.2050
   -20.1871 -20.1871 -20.1870 -20.1870 -20.1870 -20.1870 -20.1869 -20.1869
   -20.1845 -20.1845 -20.1845 -20.1845 -20.1812 -20.1812 -20.1812 -20.1812
   -20.1788 -20.1788 -20.1787 -20.1787 -20.1767 -20.1767 -20.1767 -20.1767
   -20.1704 -20.1704 -20.1703 -20.1703 -20.1698 -20.1698 -20.1698 -20.1698
   -20.1653 -20.1653 -20.1653 -20.1653 -20.1652 -20.1652 -20.1652 -20.1652
   -20.1600 -20.1600 -20.1600 -20.1600 -20.1598 -20.1598 -20.1597 -20.1597
    -9.1766  -9.1766  -9.1682  -9.1682  -8.7179  -8.7179  -8.6786  -8.6786
    -8.5015  -8.5015  -8.4483  -8.4483  -8.3126  -8.3126  -8.2934  -8.2934
    -8.2691  -8.2691  -8.2337  -8.2337  -7.7730  -7.7730  -7.7722  -7.7721
     1.8750   1.8751   1.8792   1.8792   3.0043   3.0043   3.0276   3.0276
     3.1551   3.1551   3.1606   3.1606   3.2620   3.2620   3.3187   3.3188
     3.4532   3.4532   3.4608   3.4608   3.8144   3.8144   3.9048   3.9048
     3.9299   3.9299   4.0616   4.0616   4.2786   4.2786   4.3115   4.3115
     4.3908   4.3909   4.4564   4.4565   4.8162   4.8162   4.8401   4.8401
     5.2302   5.2302   5.2514   5.2514   5.8572   5.8572   5.8582   5.8582
     6.6446   6.6446   6.6853   6.6853   6.7182   6.7182   6.7429   6.7429
     7.5152   7.5152   7.5229   7.5229   7.5293   7.5293   7.6002   7.6002
     7.6799   7.6799   7.7027   7.7027   7.8267   7.8268   7.8973   7.8974
    11.6176  11.6176  11.6835  11.6835  11.7849  11.7849  11.8399  11.8399
    12.1117  12.1117  12.1416  12.1416  12.3398  12.3398  12.3570  12.3570
    13.0787  13.0787  13.1390  13.1390  13.2744  13.2744  13.3283  13.3283
    15.4162  15.4162  15.4214  15.4214  16.8613  16.8613  16.9628  16.9628
    17.5827  17.5827  17.6270  17.6270  17.7977

          k =-0.5000 0.3178-0.5000 ( 61888 PWs)   bands (ev):

   -66.0462 -66.0462 -66.0462 -66.0462 -66.0460 -66.0460 -66.0460 -66.0460
   -30.4327 -30.4327 -30.4322 -30.4322 -30.4117 -30.4117 -30.4111 -30.4111
   -30.3729 -30.3729 -30.3726 -30.3725 -30.3623 -30.3623 -30.3614 -30.3614
   -30.3208 -30.3208 -30.3203 -30.3203 -30.3200 -30.3200 -30.3198 -30.3198
   -20.2051 -20.2051 -20.2051 -20.2051 -20.2050 -20.2050 -20.2050 -20.2050
   -20.1871 -20.1871 -20.1870 -20.1870 -20.1870 -20.1870 -20.1869 -20.1869
   -20.1837 -20.1837 -20.1837 -20.1837 -20.1818 -20.1818 -20.1818 -20.1818
   -20.1785 -20.1784 -20.1784 -20.1784 -20.1773 -20.1773 -20.1773 -20.1772
   -20.1702 -20.1702 -20.1702 -20.1702 -20.1699 -20.1699 -20.1699 -20.1699
   -20.1653 -20.1653 -20.1653 -20.1652 -20.1652 -20.1652 -20.1652 -20.1652
   -20.1600 -20.1600 -20.1599 -20.1599 -20.1598 -20.1598 -20.1598 -20.1598
    -9.0249  -9.0249  -9.0111  -9.0111  -8.7602  -8.7602  -8.7267  -8.7267
    -8.4451  -8.4451  -8.3895  -8.3895  -8.3091  -8.3091  -8.2962  -8.2961
    -8.2734  -8.2734  -8.2308  -8.2308  -8.0048  -8.0048  -8.0000  -8.0000
     2.4717   2.4717   2.4752   2.4752   3.0357   3.0357   3.0667   3.0667
     3.1596   3.1596   3.1598   3.1598   3.3227   3.3227   3.3949   3.3949
     3.4258   3.4258   3.4404   3.4404   3.9398   3.9398   4.0042   4.0042
     4.0533   4.0533   4.0839   4.0839   4.1859   4.1859   4.2489   4.2489
     4.3867   4.3867   4.4629   4.4629   4.4942   4.4942   4.5139   4.5139
     4.8275   4.8275   4.8299   4.8299   5.1716   5.1716   5.1812   5.1812
     6.9587   6.9587   7.0175   7.0175   7.0766   7.0766   7.1283   7.1284
     7.4880   7.4880   7.5010   7.5010   7.5050   7.5050   7.5846   7.5846
     7.6513   7.6513   7.6584   7.6584   7.7593   7.7593   7.8000   7.8001
    11.7896  11.7896  11.8312  11.8312  11.9263  11.9263  11.9683  11.9683
    12.1388  12.1388  12.1620  12.1620  12.4224  12.4225  12.4323  12.4323
    12.7622  12.7622  12.8119  12.8119  12.9847  12.9847  13.0213  13.0213
    16.3192  16.3192  16.3247  16.3247  17.0362  17.0362  17.1067  17.1067
    17.4450  17.4450  17.5629  17.5630  17.8200

          k =-0.5000-0.4767-0.5000 ( 61904 PWs)   bands (ev):

   -66.0461 -66.0461 -66.0461 -66.0461 -66.0461 -66.0461 -66.0461 -66.0461
   -30.4220 -30.4220 -30.4207 -30.4207 -30.4207 -30.4207 -30.4205 -30.4204
   -30.3686 -30.3686 -30.3686 -30.3686 -30.3686 -30.3686 -30.3672 -30.3672
   -30.3205 -30.3204 -30.3202 -30.3202 -30.3202 -30.3202 -30.3202 -30.3202
   -20.2051 -20.2051 -20.2051 -20.2051 -20.2051 -20.2050 -20.2050 -20.2050
   -20.1870 -20.1870 -20.1870 -20.1870 -20.1870 -20.1870 -20.1870 -20.1869
   -20.1828 -20.1828 -20.1827 -20.1827 -20.1827 -20.1827 -20.1826 -20.1826
   -20.1780 -20.1780 -20.1780 -20.1779 -20.1779 -20.1779 -20.1779 -20.1779
   -20.1701 -20.1701 -20.1701 -20.1701 -20.1700 -20.1700 -20.1700 -20.1700
   -20.1653 -20.1653 -20.1653 -20.1652 -20.1652 -20.1652 -20.1652 -20.1652
   -20.1599 -20.1599 -20.1599 -20.1599 -20.1599 -20.1599 -20.1599 -20.1598
    -8.8767  -8.8767  -8.8433  -8.8433  -8.8364  -8.8364  -8.8364  -8.8364
    -8.3562  -8.3562  -8.3068  -8.3067  -8.3067  -8.3067  -8.2992  -8.2992
    -8.2410  -8.2410  -8.2410  -8.2410  -8.2062  -8.2062  -8.1838  -8.1837
     3.0168   3.0168   3.0168   3.0168   3.0196   3.0196   3.0413   3.0413
     3.2941   3.2941   3.2941   3.2941   3.3033   3.3033   3.3069   3.3069
     3.4014   3.4014   3.5624   3.5624   3.5624   3.5624   3.6285   3.6285
     4.2150   4.2150   4.2344   4.2344   4.2580   4.2580   4.2580   4.2580
     4.4601   4.4601   4.4601   4.4601   4.4782   4.4782   4.5266   4.5266
     4.6032   4.6032   4.6052   4.6052   4.6327   4.6327   4.6327   4.6327
     7.1328   7.1328   7.2512   7.2512   7.2512   7.2512   7.3890   7.3890
     7.4486   7.4486   7.4486   7.4486   7.4524   7.4524   7.4892   7.4893
     7.6389   7.6389   7.6701   7.6701   7.6702   7.6702   7.7291   7.7291
    11.9557  11.9557  11.9557  11.9557  11.9603  11.9603  11.9643  11.9643
    12.2816  12.2817  12.3565  12.3565  12.3566  12.3566  12.5264  12.5264
    12.5960  12.5960  12.6831  12.6831  12.6831  12.6831  12.7107  12.7107
    17.1710  17.1710  17.1884  17.1884  17.1884  17.1885  17.2349  17.2349
    17.4344  17.4345  17.4345  17.4345  17.5080

     the Fermi energy is     9.5897 ev

!    total energy              =   -6261.07360792 Ry
     Harris-Foulkes estimate   =   -6261.07360792 Ry
     estimated scf accuracy    <          4.5E-10 Ry

     The total energy is the sum of the following terms:

     one-electron contribution =   -4691.01929887 Ry
     hartree contribution      =    2583.77256102 Ry
     xc contribution           =    -965.71639824 Ry
     ewald contribution        =   -3188.11045462 Ry
     smearing contrib. (-TS)   =      -0.00001721 Ry

     convergence has been achieved in  13 iterations

     Writing output data file Landau_18.save
 
     init_run     :     17.94s CPU     18.86s WALL (       1 calls)
     electrons    :    963.31s CPU    977.83s WALL (       1 calls)

     Called by init_run:
     wfcinit      :     16.14s CPU     16.93s WALL (       1 calls)
     potinit      :      0.68s CPU      0.71s WALL (       1 calls)

     Called by electrons:
     c_bands      :    839.82s CPU    853.00s WALL (      13 calls)
     sum_band     :    115.40s CPU    116.10s WALL (      13 calls)
     v_of_rho     :      1.79s CPU      1.82s WALL (      14 calls)
     mix_rho      :      2.90s CPU      3.37s WALL (      13 calls)

     Called by c_bands:
     init_us_2    :      5.93s CPU      6.55s WALL (      27 calls)
     cegterg      :    557.46s CPU    570.39s WALL (      13 calls)

     Called by sum_band:

     Called by *egterg:
     h_psi        :    431.62s CPU    433.36s WALL (      64 calls)
     g_psi        :      1.87s CPU      1.87s WALL (      50 calls)
     cdiaghg      :      7.55s CPU      7.59s WALL (      63 calls)

     Called by h_psi:
     h_psi:pot    :    428.69s CPU    430.33s WALL (      64 calls)
     h_psi:calbec :     53.10s CPU     54.23s WALL (      64 calls)
     vloc_psi     :    319.18s CPU    319.46s WALL (      64 calls)
     add_vuspsi   :     56.41s CPU     56.64s WALL (      64 calls)

     General routines
     calbec       :     53.09s CPU     54.23s WALL (      64 calls)
     fft          :      1.10s CPU      1.11s WALL (      56 calls)
     fftw         :    331.04s CPU    331.18s WALL (   16945 calls)
 
     Parallel routines
 
     PWSCF        : 16m28.60s CPU    16m47.75s WALL

 
   This run was terminated on:  15:12:57  10Sep2019            

=------------------------------------------------------------------------------=
   JOB DONE.
=------------------------------------------------------------------------------=
