
     Program PWSCF v.6.2 (svn rev. 14038) starts on 28Feb2020 at 17:18: 9 

     This program is part of the open-source Quantum ESPRESSO suite
     for quantum simulation of materials; please cite
         "P. Giannozzi et al., J. Phys.:Condens. Matter 21 395502 (2009);
         "P. Giannozzi et al., J. Phys.:Condens. Matter 29 465901 (2017);
          URL http://www.quantum-espresso.org", 
     in publications or presentations arising from this work. More details at
     http://www.quantum-espresso.org/quote

     Parallel version (MPI), running on    40 processors

     MPI processes distributed on     9 nodes
     K-points division:     npool     =      40
     Reading input from rscf.in

     Current dimensions of program PWSCF are:
     Max number of different atomic species (ntypx) = 10
     Max number of k-points (npk) =  40000
     Max angular momentum in pseudopotentials (lmaxx) =  3

     Subspace diagonalization in iterative solution of the eigenvalue problem:
     a serial algorithm will be used

 
     G-vector sticks info
     --------------------
     sticks:   dense  smooth     PW     G-vecs:    dense   smooth      PW
     Sum        7747    7747   2077               498127   498127   69057
 


     bravais-lattice index     =            0
     lattice parameter (alat)  =      13.8397  a.u.
     unit-cell volume          =    2804.9816 (a.u.)^3
     number of atoms/cell      =           32
     number of atomic types    =            2
     number of electrons       =       368.00
     number of Kohn-Sham states=          221
     kinetic-energy cutoff     =     120.0000  Ry
     charge density cutoff     =     480.0000  Ry
     convergence threshold     =      1.0E-08
     mixing beta               =       0.7000
     number of iterations used =            8  plain     mixing
     Exchange-correlation      = SLA PW NOGX NOGC ( 1  4  0  0 0 0)
     nstep                     =           50


     celldm(1)=  13.839685  celldm(2)=   0.000000  celldm(3)=   0.000000
     celldm(4)=   0.000000  celldm(5)=   0.000000  celldm(6)=   0.000000

     crystal axes: (cart. coord. in units of alat)
               a(1) = (   1.000000   0.000000   0.000000 )  
               a(2) = (   0.000000   1.058160   0.000000 )  
               a(3) = (   0.000000   0.000000   1.000000 )  

     reciprocal axes: (cart. coord. in units 2 pi/alat)
               b(1) = (  1.000000  0.000000  0.000000 )  
               b(2) = (  0.000000  0.945037  0.000000 )  
               b(3) = (  0.000000  0.000000  1.000000 )  


     PseudoPot. # 1 for W  read from file:
     /cluster/scratch/mnoe/QE/pps/W_ONCV_LDA-4.0.upf
     MD5 check sum: ba0307d5d4cd419d6f1d13dc49d7c13a
     Pseudo is Norm-conserving + core correction, Zval = 28.0
     Generated using ONCVPSP code by D. R. Hamann
     Using radial grid of 1380 points,  8 beta functions with: 
                l(1) =   0
                l(2) =   0
                l(3) =   1
                l(4) =   1
                l(5) =   2
                l(6) =   2
                l(7) =   3
                l(8) =   3

     PseudoPot. # 2 for O  read from file:
     /cluster/scratch/mnoe/QE/pps/O_ONCV_LDA-3.0.upf
     MD5 check sum: a1bd6164e7280c17a38c229939bfbd54
     Pseudo is Norm-conserving + core correction, Zval =  6.0
     Generated using ONCVPSP code by D. R. Hamann
     Using radial grid of  926 points,  5 beta functions with: 
                l(1) =   0
                l(2) =   0
                l(3) =   1
                l(4) =   1
                l(5) =   2

     atomic species   valence    mass     pseudopotential
        W             28.00   183.84000     W ( 1.00)
        O              6.00    15.99940     O ( 1.00)

      8 Sym. Ops. (no inversion) found ( 4 have fractional translation)



   Cartesian axes

     site n.     atom                  positions (alat units)
         1           W   tau(   1) = (   0.2536000   0.2996904   0.2501000  )
         2           W   tau(   2) = (  -0.2501000   0.7584697  -0.7464000  )
         3           W   tau(   3) = (   0.2464000   0.2293896   0.7501000  )
         4           W   tau(   4) = (   0.7501000   0.8287704   0.7536000  )
         5           W   tau(   5) = (   0.7464000   0.2996904   0.7499000  )
         6           W   tau(   6) = (   0.2501000   0.7584697   0.7464000  )
         7           W   tau(   7) = (  -0.2464000   0.2293896  -0.7501000  )
         8           W   tau(   8) = (   0.2499000   0.8287704   0.2464000  )
         9           O   tau(   9) = (   0.2539500   0.0115238   0.2528700  )
        10           O   tau(  10) = (  -0.2528699   1.0466363  -0.7460500  )
        11           O   tau(  11) = (   0.2460500   0.5175562   0.7528700  )
        12           O   tau(  12) = (   0.7528700   0.5406038   0.7539499  )
        13           O   tau(  13) = (   0.7460500   0.0115238   0.7471300  )
        14           O   tau(  14) = (   0.2528700   1.0466363   0.7460500  )
        15           O   tau(  15) = (  -0.2460500   0.5175562  -0.7528699  )
        16           O   tau(  16) = (   0.2471300   0.5406038   0.2460500  )
        17           O   tau(  17) = (   0.4987201   0.2690478   0.7065612  )
        18           O   tau(  18) = (   0.4997400   0.7907206   0.7934388  )
        19           O   tau(  19) = (  -0.9987201   0.2600322   1.2065612  )
        20           O   tau(  20) = (   0.0002600   0.7965193   0.2934388  )
        21           O   tau(  21) = (   0.5012799   0.2690478   0.2934388  )
        22           O   tau(  22) = (   0.5002600   0.7907206   1.2065612  )
        23           O   tau(  23) = (  -0.0012800   0.2600322   0.7934388  )
        24           O   tau(  24) = (  -1.0002600   0.7965193   0.7065612  )
        25           O   tau(  25) = (   0.7065612   0.2616407   2.0002600  )
        26           O   tau(  26) = (   0.2934388   0.7891122   0.4987200  )
        27           O   tau(  27) = (   0.7934388   0.2674394   0.5002600  )
        28           O   tau(  28) = (   0.2065612   0.7981278   1.9987201  )
        29           O   tau(  29) = (   0.2934388   0.2616407   0.9997400  )
        30           O   tau(  30) = (   0.7065612   0.7891122   0.5012800  )
        31           O   tau(  31) = (   0.2065612   0.2674394   0.4997400  )
        32           O   tau(  32) = (   0.7934388   0.7981278   1.0012799  )

     number of k points=    40  gaussian smearing, width (Ry)=  0.0007
                       cart. coord. in units 2pi/alat
        k(    1) = (   0.0000000   0.0000000   0.0000000), wk =   0.0092593
        k(    2) = (   0.0000000   0.0000000   0.1666667), wk =   0.0370370
        k(    3) = (   0.0000000   0.0000000   0.3333333), wk =   0.0370370
        k(    4) = (   0.0000000   0.0000000  -0.5000000), wk =   0.0185185
        k(    5) = (   0.0000000   0.1575061   0.0000000), wk =   0.0185185
        k(    6) = (   0.0000000   0.1575061   0.1666667), wk =   0.0740741
        k(    7) = (   0.0000000   0.1575061   0.3333333), wk =   0.0740741
        k(    8) = (   0.0000000   0.1575061  -0.5000000), wk =   0.0370370
        k(    9) = (   0.0000000   0.3150122   0.0000000), wk =   0.0185185
        k(   10) = (   0.0000000   0.3150122   0.1666667), wk =   0.0740741
        k(   11) = (   0.0000000   0.3150122   0.3333333), wk =   0.0740741
        k(   12) = (   0.0000000   0.3150122  -0.5000000), wk =   0.0370370
        k(   13) = (   0.0000000  -0.4725183   0.0000000), wk =   0.0092593
        k(   14) = (   0.0000000  -0.4725183   0.1666667), wk =   0.0370370
        k(   15) = (   0.0000000  -0.4725183   0.3333333), wk =   0.0370370
        k(   16) = (   0.0000000  -0.4725183  -0.5000000), wk =   0.0185185
        k(   17) = (   0.1666667   0.0000000   0.1666667), wk =   0.0370370
        k(   18) = (   0.1666667   0.0000000   0.3333333), wk =   0.0740741
        k(   19) = (   0.1666667   0.0000000  -0.5000000), wk =   0.0370370
        k(   20) = (   0.1666667   0.1575061   0.1666667), wk =   0.0740741
        k(   21) = (   0.1666667   0.1575061   0.3333333), wk =   0.1481481
        k(   22) = (   0.1666667   0.1575061  -0.5000000), wk =   0.0740741
        k(   23) = (   0.1666667   0.3150122   0.1666667), wk =   0.0740741
        k(   24) = (   0.1666667   0.3150122   0.3333333), wk =   0.1481481
        k(   25) = (   0.1666667   0.3150122  -0.5000000), wk =   0.0740741
        k(   26) = (   0.1666667  -0.4725183   0.1666667), wk =   0.0370370
        k(   27) = (   0.1666667  -0.4725183   0.3333333), wk =   0.0740741
        k(   28) = (   0.1666667  -0.4725183  -0.5000000), wk =   0.0370370
        k(   29) = (   0.3333333   0.0000000   0.3333333), wk =   0.0370370
        k(   30) = (   0.3333333   0.0000000  -0.5000000), wk =   0.0370370
        k(   31) = (   0.3333333   0.1575061   0.3333333), wk =   0.0740741
        k(   32) = (   0.3333333   0.1575061  -0.5000000), wk =   0.0740741
        k(   33) = (   0.3333333   0.3150122   0.3333333), wk =   0.0740741
        k(   34) = (   0.3333333   0.3150122  -0.5000000), wk =   0.0740741
        k(   35) = (   0.3333333  -0.4725183   0.3333333), wk =   0.0370370
        k(   36) = (   0.3333333  -0.4725183  -0.5000000), wk =   0.0370370
        k(   37) = (  -0.5000000   0.0000000  -0.5000000), wk =   0.0092593
        k(   38) = (  -0.5000000   0.1575061  -0.5000000), wk =   0.0185185
        k(   39) = (  -0.5000000   0.3150122  -0.5000000), wk =   0.0185185
        k(   40) = (  -0.5000000  -0.4725183  -0.5000000), wk =   0.0092593

     Dense  grid:   498127 G-vectors     FFT dimensions: ( 100, 108, 100)

     Estimated max dynamical RAM per process >       2.74 GB

     Estimated total dynamical RAM >     109.40 GB

     Initial potential from superposition of free atoms

     starting charge  367.99656, renormalised to  368.00000
     Starting wfc are  232 randomized atomic wfcs

     total cpu time spent up to now is       43.8 secs

     Self-consistent Calculation

     iteration #  1     ecut=   120.00 Ry     beta= 0.70
     Davidson diagonalization with overlap
     ethr =  1.00E-02,  avg # of iterations =  5.1

     total cpu time spent up to now is      130.3 secs

     total energy              =   -6254.00721946 Ry
     Harris-Foulkes estimate   =   -6264.58680486 Ry
     estimated scf accuracy    <      13.40407164 Ry

     iteration #  2     ecut=   120.00 Ry     beta= 0.70
     Davidson diagonalization with overlap
     ethr =  3.64E-03,  avg # of iterations =  3.4

     total cpu time spent up to now is      213.3 secs

     total energy              =   -6250.94129314 Ry
     Harris-Foulkes estimate   =   -6270.70043190 Ry
     estimated scf accuracy    <      52.94619883 Ry

     iteration #  3     ecut=   120.00 Ry     beta= 0.70
     Davidson diagonalization with overlap
     ethr =  3.64E-03,  avg # of iterations =  3.5

     total cpu time spent up to now is      290.4 secs

     total energy              =   -6261.07820158 Ry
     Harris-Foulkes estimate   =   -6261.38111919 Ry
     estimated scf accuracy    <       0.98161176 Ry

     iteration #  4     ecut=   120.00 Ry     beta= 0.70
     Davidson diagonalization with overlap
     ethr =  2.67E-04,  avg # of iterations =  3.0

     total cpu time spent up to now is      354.7 secs

     total energy              =   -6261.09290133 Ry
     Harris-Foulkes estimate   =   -6261.16437184 Ry
     estimated scf accuracy    <       0.24437666 Ry

     iteration #  5     ecut=   120.00 Ry     beta= 0.70
     Davidson diagonalization with overlap
     ethr =  6.64E-05,  avg # of iterations =  4.5

     total cpu time spent up to now is      421.1 secs

     total energy              =   -6261.08657118 Ry
     Harris-Foulkes estimate   =   -6261.12184591 Ry
     estimated scf accuracy    <       0.07703866 Ry

     iteration #  6     ecut=   120.00 Ry     beta= 0.70
     Davidson diagonalization with overlap
     ethr =  2.09E-05,  avg # of iterations =  5.2

     total cpu time spent up to now is      493.3 secs

     total energy              =   -6261.10374189 Ry
     Harris-Foulkes estimate   =   -6261.10571017 Ry
     estimated scf accuracy    <       0.00533166 Ry

     iteration #  7     ecut=   120.00 Ry     beta= 0.70
     Davidson diagonalization with overlap
     ethr =  1.45E-06,  avg # of iterations =  5.0

     total cpu time spent up to now is      560.8 secs

     total energy              =   -6261.10440417 Ry
     Harris-Foulkes estimate   =   -6261.10448325 Ry
     estimated scf accuracy    <       0.00016526 Ry

     iteration #  8     ecut=   120.00 Ry     beta= 0.70
     Davidson diagonalization with overlap
     ethr =  4.49E-08,  avg # of iterations =  3.1

     total cpu time spent up to now is      643.5 secs

     total energy              =   -6261.10446176 Ry
     Harris-Foulkes estimate   =   -6261.10446549 Ry
     estimated scf accuracy    <       0.00001706 Ry

     iteration #  9     ecut=   120.00 Ry     beta= 0.70
     Davidson diagonalization with overlap
     ethr =  4.64E-09,  avg # of iterations =  2.0

     total cpu time spent up to now is      708.6 secs

     total energy              =   -6261.10446047 Ry
     Harris-Foulkes estimate   =   -6261.10446344 Ry
     estimated scf accuracy    <       0.00001073 Ry

     iteration # 10     ecut=   120.00 Ry     beta= 0.70
     Davidson diagonalization with overlap
     ethr =  2.92E-09,  avg # of iterations =  1.9

     total cpu time spent up to now is      767.5 secs

     total energy              =   -6261.10446041 Ry
     Harris-Foulkes estimate   =   -6261.10446134 Ry
     estimated scf accuracy    <       0.00000216 Ry

     iteration # 11     ecut=   120.00 Ry     beta= 0.70
     Davidson diagonalization with overlap
     ethr =  5.88E-10,  avg # of iterations =  3.0

     total cpu time spent up to now is      835.6 secs

     total energy              =   -6261.10446091 Ry
     Harris-Foulkes estimate   =   -6261.10446096 Ry
     estimated scf accuracy    <       0.00000014 Ry

     iteration # 12     ecut=   120.00 Ry     beta= 0.70
     Davidson diagonalization with overlap
     ethr =  3.85E-11,  avg # of iterations =  2.5

     total cpu time spent up to now is      908.2 secs

     total energy              =   -6261.10446091 Ry
     Harris-Foulkes estimate   =   -6261.10446093 Ry
     estimated scf accuracy    <       0.00000003 Ry

     iteration # 13     ecut=   120.00 Ry     beta= 0.70
     Davidson diagonalization with overlap
     ethr =  7.49E-12,  avg # of iterations =  3.0

     total cpu time spent up to now is      987.9 secs

     End of self-consistent calculation

          k = 0.0000 0.0000 0.0000 ( 62239 PWs)   bands (ev):

   -66.1627 -66.1623 -66.1617 -66.1617 -66.1613 -66.1613 -66.1607 -66.1603
   -30.5387 -30.5339 -30.5339 -30.5297 -30.5293 -30.5271 -30.5251 -30.5238
   -30.5229 -30.5229 -30.5192 -30.5192 -30.4760 -30.4740 -30.4740 -30.4720
   -30.4275 -30.4275 -30.4236 -30.4236 -30.4236 -30.4225 -30.4195 -30.4187
   -20.3188 -20.3188 -20.3187 -20.3187 -20.3187 -20.3187 -20.3187 -20.3186
   -20.2988 -20.2985 -20.2985 -20.2983 -20.2980 -20.2978 -20.2972 -20.2971
   -20.2967 -20.2967 -20.2964 -20.2964 -20.2955 -20.2954 -20.2953 -20.2953
   -20.2953 -20.2950 -20.2943 -20.2941 -20.2931 -20.2928 -20.2928 -20.2925
   -20.2881 -20.2879 -20.2878 -20.2878 -20.2872 -20.2869 -20.2869 -20.2867
   -20.2847 -20.2847 -20.2847 -20.2846 -20.2846 -20.2846 -20.2846 -20.2845
   -20.2805 -20.2805 -20.2802 -20.2800 -20.2796 -20.2796 -20.2794 -20.2792
    -9.9883  -9.7261  -9.5499  -9.5498  -9.3167  -9.3167  -9.1032  -9.0892
    -9.0273  -8.8405  -8.8360  -8.8360  -7.8154  -7.7903  -7.7845  -7.7670
    -7.7637  -7.7462  -7.7462  -7.6916  -7.6650  -7.6650  -7.6435  -7.6435
     1.0752   1.0753   1.1939   1.1939   1.2046   1.2046   1.3435   1.5339
     1.6427   1.6427   1.6646   1.7879   2.3374   2.4161   2.5558   2.5591
     2.6851   2.6851   4.1009   4.1009   4.2902   4.2904   4.7254   4.7254
     4.7576   4.7576   4.8903   4.9033   5.0417   5.0417   5.0505   5.4908
     5.4909   5.5486   5.5486   5.5572   5.5572   5.5847   5.5847   5.8524
     5.8524   5.9164   5.9170   5.9237   6.0059   6.0578   6.0626   6.0819
     6.0850   6.2736   6.2751   6.5238   6.5238   6.8017   6.8017   6.8265
     6.8268   6.8491   7.0151   7.0508   7.0865   7.0865   7.3117   7.3117
     7.3500   7.3500   7.9230   7.9342   8.1160   8.1160   8.1746   8.1796
     9.1780   9.1827   9.9677   9.9677   9.9686   9.9706  12.3126  12.3126
    12.3487  12.3487  12.4084  12.4084  12.4726  12.4786  13.0676  13.0906
    13.3204  13.3456  13.4493  13.4493  13.7351  14.1687  14.1687  14.2040
    14.2178  14.3259  14.3259  14.8689  15.3347  15.3450  15.4682  16.0332
    16.0332  16.8263  17.1120  17.1120  17.4430

          k = 0.0000 0.0000 0.1667 ( 62262 PWs)   bands (ev):

   -66.1626 -66.1622 -66.1618 -66.1616 -66.1614 -66.1612 -66.1608 -66.1604
   -30.5384 -30.5343 -30.5342 -30.5300 -30.5280 -30.5244 -30.5233 -30.5220
   -30.5196 -30.5179 -30.5161 -30.5120 -30.4755 -30.4746 -30.4735 -30.4726
   -30.4340 -30.4303 -30.4296 -30.4272 -30.4257 -30.4233 -30.4232 -30.4194
   -20.3188 -20.3188 -20.3187 -20.3187 -20.3187 -20.3187 -20.3187 -20.3186
   -20.2988 -20.2986 -20.2985 -20.2983 -20.2979 -20.2977 -20.2971 -20.2970
   -20.2968 -20.2966 -20.2965 -20.2963 -20.2956 -20.2954 -20.2954 -20.2953
   -20.2952 -20.2951 -20.2943 -20.2942 -20.2931 -20.2928 -20.2928 -20.2925
   -20.2881 -20.2878 -20.2877 -20.2874 -20.2871 -20.2869 -20.2868 -20.2864
   -20.2849 -20.2848 -20.2848 -20.2847 -20.2845 -20.2845 -20.2843 -20.2843
   -20.2808 -20.2805 -20.2805 -20.2801 -20.2800 -20.2797 -20.2796 -20.2792
    -9.9400  -9.6723  -9.5657  -9.4799  -9.3293  -9.2255  -9.0631  -9.0470
    -9.0367  -8.8402  -8.8309  -8.8127  -7.9175  -7.9003  -7.8227  -7.8001
    -7.7803  -7.7660  -7.7573  -7.7500  -7.7378  -7.6952  -7.6730  -7.6515
     1.1627   1.1696   1.1966   1.2093   1.4203   1.4224   1.4689   1.6331
     1.6557   1.6817   1.7101   1.8923   2.4246   2.5065   2.5653   2.6478
     2.6774   2.7734   4.0580   4.0977   4.2712   4.3017   4.3072   4.3854
     4.6884   4.7551   4.8081   4.8174   4.8923   5.0313   5.0320   5.2980
     5.3887   5.4595   5.5369   5.5410   5.5879   5.6116   5.6242   5.6646
     5.7038   5.8202   5.8514   5.9440   6.0190   6.0858   6.1067   6.1261
     6.2910   6.4111   6.4842   6.5141   6.6664   6.7000   6.7784   6.8196
     6.8201   6.8494   6.9699   6.9895   7.0338   7.0846   7.0908   7.0933
     7.1360   7.2026   7.9150   7.9169   8.0762   8.1327   8.1336   8.1780
     9.5392   9.5686   9.9677   9.9691  10.2425  10.2621  12.2426  12.2843
    12.3032  12.3834  12.4044  12.4252  12.4780  12.5852  13.0262  13.0704
    13.1640  13.3214  13.3703  13.4489  13.8625  14.0615  14.0652  14.1670
    14.2102  14.3211  14.4391  14.9810  15.3872  15.4170  15.4336  16.0085
    16.3688  16.8357  16.9991  17.3067  17.4932

          k = 0.0000 0.0000 0.3333 ( 62268 PWs)   bands (ev):

   -66.1624 -66.1620 -66.1619 -66.1615 -66.1614 -66.1611 -66.1610 -66.1606
   -30.5377 -30.5353 -30.5336 -30.5311 -30.5270 -30.5243 -30.5232 -30.5205
   -30.5052 -30.5010 -30.4979 -30.4937 -30.4764 -30.4748 -30.4735 -30.4718
   -30.4512 -30.4485 -30.4467 -30.4436 -30.4264 -30.4241 -30.4225 -30.4202
   -20.3188 -20.3188 -20.3187 -20.3187 -20.3187 -20.3187 -20.3186 -20.3186
   -20.2988 -20.2986 -20.2986 -20.2984 -20.2976 -20.2973 -20.2970 -20.2968
   -20.2967 -20.2967 -20.2962 -20.2959 -20.2959 -20.2958 -20.2955 -20.2953
   -20.2952 -20.2949 -20.2946 -20.2944 -20.2931 -20.2929 -20.2928 -20.2926
   -20.2881 -20.2879 -20.2873 -20.2870 -20.2868 -20.2867 -20.2863 -20.2860
   -20.2854 -20.2852 -20.2851 -20.2850 -20.2839 -20.2838 -20.2835 -20.2835
   -20.2818 -20.2815 -20.2810 -20.2808 -20.2804 -20.2802 -20.2795 -20.2793
    -9.8238  -9.6150  -9.5500  -9.3679  -9.3090  -9.0704  -8.9657  -8.9538
    -8.8963  -8.8530  -8.7775  -8.7180  -8.2299  -8.2217  -8.1482  -8.1243
    -7.7883  -7.7605  -7.7567  -7.7346  -7.7296  -7.7050  -7.6949  -7.6735
     1.2032   1.2089   1.2214   1.2326   1.5505   1.5944   1.6135   1.6367
     2.1773   2.2092   2.3662   2.4354   2.5862   2.6651   2.6778   2.7715
     2.8904   3.0022   3.6890   3.7740   3.8577   3.8982   4.1794   4.1957
     4.2198   4.4253   4.5503   4.7734   4.8600   4.8729   4.9216   4.9753
     5.0833   5.1322   5.1970   5.3624   5.4494   5.4683   5.6655   5.7001
     5.7614   5.7846   5.8386   5.9992   6.0425   6.1311   6.2526   6.2784
     6.3166   6.3690   6.4840   6.5374   6.5408   6.5602   6.6150   6.7397
     6.7972   6.8149   6.8215   6.9726   7.0126   7.0599   7.0914   7.1001
     7.3293   7.3606   7.7989   7.8245   7.9546   7.9940   8.1639   8.1793
     9.9659   9.9676  10.2871  10.3478  10.8828  10.9603  11.8248  11.8656
    12.1420  12.4829  12.5360  12.5539  12.5666  12.6363  12.6933  12.8577
    13.0341  13.1908  13.2649  13.4525  13.7017  13.7210  14.0888  14.1619
    14.2261  14.3057  14.7781  15.2749  15.3217  15.5768  15.8644  15.9306
    16.2843  17.2581  17.4052  17.5559  17.6350

          k = 0.0000 0.0000-0.5000 ( 62264 PWs)   bands (ev):

   -66.1622 -66.1622 -66.1618 -66.1618 -66.1612 -66.1612 -66.1608 -66.1608
   -30.5366 -30.5366 -30.5324 -30.5324 -30.5256 -30.5256 -30.5219 -30.5219
   -30.4845 -30.4845 -30.4825 -30.4825 -30.4734 -30.4734 -30.4704 -30.4704
   -30.4660 -30.4660 -30.4656 -30.4656 -30.4252 -30.4252 -30.4214 -30.4214
   -20.3188 -20.3188 -20.3187 -20.3187 -20.3187 -20.3187 -20.3186 -20.3186
   -20.2987 -20.2987 -20.2985 -20.2985 -20.2973 -20.2973 -20.2970 -20.2970
   -20.2963 -20.2963 -20.2962 -20.2962 -20.2958 -20.2958 -20.2956 -20.2956
   -20.2949 -20.2949 -20.2946 -20.2946 -20.2930 -20.2930 -20.2928 -20.2928
   -20.2880 -20.2880 -20.2871 -20.2871 -20.2860 -20.2860 -20.2859 -20.2859
   -20.2857 -20.2857 -20.2855 -20.2855 -20.2829 -20.2829 -20.2828 -20.2828
   -20.2823 -20.2823 -20.2822 -20.2822 -20.2803 -20.2803 -20.2794 -20.2794
    -9.7023  -9.7023  -9.4386  -9.4386  -9.1508  -9.1508  -8.8791  -8.8790
    -8.6052  -8.6052  -8.5793  -8.5793  -8.5636  -8.5635  -8.4829  -8.4828
    -7.7747  -7.7747  -7.7267  -7.7267  -7.7165  -7.7165  -7.7039  -7.7039
     1.2102   1.2102   1.2344   1.2344   1.5916   1.5916   1.6176   1.6176
     2.6133   2.6133   2.9132   2.9132   3.0601   3.0601   3.0899   3.0899
     3.1958   3.1958   3.2662   3.2662   3.3736   3.3736   3.7632   3.7632
     3.9104   3.9104   4.3471   4.3471   4.8077   4.8077   4.8901   4.8901
     5.2418   5.2418   5.2652   5.2652   5.3052   5.3052   5.7478   5.7478
     5.7716   5.7716   5.9601   5.9601   6.1565   6.1565   6.2330   6.2330
     6.2771   6.2771   6.4296   6.4296   6.4684   6.4684   6.4984   6.4984
     6.7997   6.7997   6.8124   6.8124   7.0765   7.0765   7.4925   7.4925
     7.5545   7.5545   7.7198   7.7198   7.7347   7.7347   8.1773   8.1773
     9.9670   9.9670  11.1109  11.1109  11.1706  11.1706  11.6096  11.6096
    11.7886  11.7886  12.5204  12.5204  12.7695  12.7695  12.8624  12.8624
    12.9971  12.9971  13.2655  13.2655  13.4893  13.4893  14.1494  14.1494
    14.2745  14.2745  15.1086  15.1086  15.7243  15.7244  15.7887  15.7887
    16.6605  16.6605  17.8134  17.8134  18.0708

          k = 0.0000 0.1575 0.0000 ( 62231 PWs)   bands (ev):

   -66.1626 -66.1623 -66.1617 -66.1617 -66.1613 -66.1613 -66.1607 -66.1604
   -30.5359 -30.5306 -30.5306 -30.5292 -30.5261 -30.5256 -30.5252 -30.5238
   -30.5222 -30.5222 -30.5193 -30.5193 -30.4800 -30.4779 -30.4779 -30.4759
   -30.4274 -30.4274 -30.4237 -30.4237 -30.4234 -30.4225 -30.4196 -30.4189
   -20.3188 -20.3188 -20.3187 -20.3187 -20.3187 -20.3187 -20.3187 -20.3186
   -20.2985 -20.2982 -20.2982 -20.2980 -20.2979 -20.2978 -20.2972 -20.2972
   -20.2967 -20.2967 -20.2964 -20.2964 -20.2954 -20.2954 -20.2953 -20.2953
   -20.2952 -20.2950 -20.2942 -20.2942 -20.2934 -20.2932 -20.2931 -20.2928
   -20.2881 -20.2879 -20.2877 -20.2877 -20.2872 -20.2870 -20.2870 -20.2867
   -20.2847 -20.2847 -20.2847 -20.2846 -20.2846 -20.2846 -20.2846 -20.2845
   -20.2804 -20.2804 -20.2802 -20.2800 -20.2796 -20.2796 -20.2794 -20.2792
    -9.9622  -9.7372  -9.5202  -9.5202  -9.3238  -9.3238  -9.1023  -9.0902
    -8.9537  -8.7914  -8.7908  -8.7908  -7.9035  -7.8457  -7.8457  -7.7984
    -7.7900  -7.7887  -7.7687  -7.7658  -7.6642  -7.6642  -7.6450  -7.6450
     1.0752   1.0753   1.1975   1.1975   1.2049   1.2049   1.4351   1.5333
     1.8239   1.8805   1.8805   2.0183   2.3426   2.4107   2.6266   2.6301
     2.7521   2.7521   3.9613   3.9613   4.0446   4.0447   4.7275   4.7275
     4.7526   4.7526   4.7933   4.9645   4.9762   5.0245   5.0245   5.2830
     5.2830   5.4825   5.4825   5.6249   5.6249   5.6512   5.6715   5.6800
     5.8509   5.8528   5.9383   5.9383   5.9637   6.0528   6.0560   6.0934
     6.0965   6.2571   6.2605   6.5467   6.5467   6.8269   6.8269   6.8488
     6.8629   6.8634   6.8753   6.9949   6.9949   7.0051   7.3175   7.3175
     7.3494   7.3494   7.9267   7.9337   8.0676   8.0676   8.0921   8.0955
     9.1784   9.1827  10.1470  10.1470  10.1702  10.1707  12.1829  12.1829
    12.3199  12.3249  12.3593  12.3593  12.4072  12.4072  13.0713  13.0906
    13.3535  13.3752  13.4625  13.4625  14.0280  14.1082  14.1082  14.1104
    14.1672  14.5779  14.5779  15.0310  15.3351  15.3437  15.8721  15.9979
    15.9979  16.5153  17.2483  17.2483  17.4777

          k = 0.0000 0.1575 0.1667 ( 62237 PWs)   bands (ev):

   -66.1626 -66.1622 -66.1617 -66.1616 -66.1614 -66.1613 -66.1608 -66.1604
   -30.5354 -30.5310 -30.5308 -30.5274 -30.5262 -30.5245 -30.5225 -30.5215
   -30.5197 -30.5179 -30.5157 -30.5120 -30.4794 -30.4784 -30.4774 -30.4764
   -30.4339 -30.4304 -30.4295 -30.4271 -30.4259 -30.4234 -30.4231 -30.4195
   -20.3188 -20.3188 -20.3187 -20.3187 -20.3187 -20.3187 -20.3187 -20.3186
   -20.2985 -20.2983 -20.2982 -20.2980 -20.2979 -20.2977 -20.2971 -20.2970
   -20.2967 -20.2965 -20.2965 -20.2963 -20.2955 -20.2955 -20.2954 -20.2953
   -20.2952 -20.2951 -20.2943 -20.2943 -20.2934 -20.2932 -20.2932 -20.2929
   -20.2881 -20.2878 -20.2877 -20.2874 -20.2871 -20.2870 -20.2868 -20.2865
   -20.2849 -20.2848 -20.2847 -20.2847 -20.2845 -20.2845 -20.2844 -20.2843
   -20.2808 -20.2805 -20.2804 -20.2801 -20.2800 -20.2797 -20.2796 -20.2793
    -9.9130  -9.6834  -9.5359  -9.4465  -9.3366  -9.2327  -9.0618  -9.0480
    -8.9632  -8.7952  -8.7831  -8.7713  -7.9222  -7.9103  -7.9007  -7.8466
    -7.8337  -7.8163  -7.7961  -7.7798  -7.7644  -7.7588  -7.6723  -7.6530
     1.1653   1.1699   1.2013   1.2096   1.4462   1.4687   1.5576   1.7093
     1.8347   1.8720   1.8927   2.0533   2.4304   2.5008   2.6358   2.7207
     2.7450   2.8408   3.9397   3.9743   4.0310   4.0773   4.3254   4.3826
     4.7252   4.7331   4.7957   4.8013   4.8118   4.9650   5.0293   5.2439
     5.2803   5.3022   5.3116   5.5029   5.5767   5.5883   5.6603   5.7075
     5.7437   5.8012   5.8794   5.8809   5.9222   6.0827   6.1142   6.1547
     6.2042   6.4099   6.4495   6.5373   6.6991   6.7730   6.7886   6.8286
     6.8361   6.8793   6.9514   6.9559   6.9942   7.0059   7.0838   7.0892
     7.1508   7.2050   7.9165   7.9176   8.0296   8.0560   8.0713   8.0950
     9.5439   9.5672  10.1498  10.1694  10.4052  10.4126  12.1684  12.2542
    12.2650  12.2884  12.3254  12.3563  12.4115  12.5003  13.0364  13.0872
    13.1840  13.3480  13.3831  13.4606  13.9493  13.9787  14.0914  14.1068
    14.2381  14.5732  14.7366  15.1307  15.3867  15.4178  15.8379  15.9738
    16.3309  16.6726  16.9625  17.4220  17.5459

          k = 0.0000 0.1575 0.3333 ( 62284 PWs)   bands (ev):

   -66.1624 -66.1621 -66.1619 -66.1616 -66.1614 -66.1611 -66.1609 -66.1606
   -30.5345 -30.5320 -30.5300 -30.5273 -30.5262 -30.5235 -30.5234 -30.5207
   -30.5052 -30.5012 -30.4979 -30.4938 -30.4801 -30.4784 -30.4770 -30.4755
   -30.4513 -30.4485 -30.4469 -30.4437 -30.4263 -30.4240 -30.4226 -30.4203
   -20.3188 -20.3188 -20.3187 -20.3187 -20.3187 -20.3187 -20.3187 -20.3186
   -20.2985 -20.2983 -20.2983 -20.2981 -20.2976 -20.2973 -20.2969 -20.2967
   -20.2967 -20.2967 -20.2962 -20.2960 -20.2958 -20.2958 -20.2955 -20.2953
   -20.2952 -20.2950 -20.2946 -20.2944 -20.2934 -20.2933 -20.2932 -20.2930
   -20.2880 -20.2878 -20.2874 -20.2870 -20.2868 -20.2866 -20.2863 -20.2860
   -20.2854 -20.2852 -20.2851 -20.2851 -20.2839 -20.2838 -20.2836 -20.2835
   -20.2817 -20.2815 -20.2811 -20.2808 -20.2804 -20.2802 -20.2796 -20.2794
    -9.7948  -9.5850  -9.5605  -9.3758  -9.2618  -8.9979  -8.9728  -8.9433
    -8.8980  -8.8092  -8.7411  -8.6903  -8.2343  -8.2204  -8.1592  -8.1221
    -7.8789  -7.8554  -7.8292  -7.8040  -7.7569  -7.7363  -7.6947  -7.6751
     1.2109   1.2201   1.2218   1.2329   1.7550   1.7876   1.8697   1.8725
     2.1761   2.2262   2.3667   2.4592   2.6558   2.6865   2.7236   2.7727
     2.9640   3.0630   3.6880   3.7691   3.8330   3.8442   4.0334   4.0570
     4.2552   4.3116   4.5662   4.7278   4.7449   4.8161   4.8520   4.9089
     5.0538   5.0682   5.0834   5.1692   5.3729   5.4198   5.4563   5.6613
     5.7269   5.7861   5.8651   5.9075   5.9599   6.1078   6.1630   6.2512
     6.3352   6.5034   6.5294   6.5342   6.5957   6.6691   6.6963   6.7561
     6.7879   6.8365   6.8809   6.9582   6.9951   7.0191   7.0614   7.0875
     7.3221   7.3548   7.8039   7.8217   7.9151   7.9338   8.0886   8.0972
    10.1499  10.1642  10.2943  10.3507  10.9960  11.0539  11.8260  11.8634
    12.0874  12.3348  12.4900  12.5200  12.5723  12.6085  12.6591  12.7650
    13.0202  13.1976  13.2796  13.4577  13.6122  13.6373  14.0983  14.1045
    14.4344  14.5573  15.1253  15.4013  15.5661  15.7289  15.8844  15.8987
    16.4108  17.1429  17.2112  17.4590  17.7841

          k = 0.0000 0.1575-0.5000 ( 62234 PWs)   bands (ev):

   -66.1622 -66.1622 -66.1618 -66.1618 -66.1612 -66.1612 -66.1608 -66.1608
   -30.5333 -30.5333 -30.5286 -30.5286 -30.5249 -30.5249 -30.5220 -30.5220
   -30.4861 -30.4861 -30.4847 -30.4847 -30.4736 -30.4736 -30.4712 -30.4712
   -30.4678 -30.4677 -30.4668 -30.4668 -30.4251 -30.4251 -30.4215 -30.4215
   -20.3188 -20.3188 -20.3187 -20.3187 -20.3187 -20.3187 -20.3186 -20.3186
   -20.2984 -20.2984 -20.2982 -20.2982 -20.2973 -20.2973 -20.2970 -20.2970
   -20.2963 -20.2963 -20.2962 -20.2962 -20.2958 -20.2958 -20.2956 -20.2956
   -20.2949 -20.2949 -20.2947 -20.2947 -20.2934 -20.2934 -20.2931 -20.2931
   -20.2879 -20.2879 -20.2872 -20.2872 -20.2860 -20.2860 -20.2859 -20.2859
   -20.2857 -20.2857 -20.2855 -20.2855 -20.2829 -20.2829 -20.2827 -20.2827
   -20.2824 -20.2824 -20.2822 -20.2822 -20.2803 -20.2803 -20.2795 -20.2795
    -9.6722  -9.6722  -9.4477  -9.4477  -9.0851  -9.0851  -8.8420  -8.8420
    -8.6086  -8.6086  -8.5873  -8.5873  -8.5549  -8.5549  -8.4736  -8.4736
    -7.8684  -7.8684  -7.8174  -7.8174  -7.7256  -7.7256  -7.7055  -7.7055
     1.2213   1.2213   1.2346   1.2346   1.7897   1.7897   1.8773   1.8773
     2.6804   2.6804   2.9306   2.9306   3.0527   3.0527   3.1281   3.1281
     3.2021   3.2021   3.2635   3.2635   3.3630   3.3630   3.7612   3.7612
     3.9604   3.9604   4.1838   4.1838   4.6460   4.6460   4.7840   4.7840
     5.0958   5.0958   5.2494   5.2494   5.2631   5.2631   5.5051   5.5052
     5.7381   5.7381   5.8890   5.8890   6.1418   6.1418   6.2792   6.2792
     6.2928   6.2928   6.4522   6.4522   6.4866   6.4866   6.6696   6.6696
     6.8291   6.8291   6.8689   6.8689   6.9799   6.9799   7.5052   7.5052
     7.5481   7.5481   7.6919   7.6919   7.7032   7.7032   8.0971   8.0971
    10.1604  10.1604  11.1150  11.1150  11.1683  11.1683  11.6723  11.6723
    11.8497  11.8497  12.3877  12.3877  12.7388  12.7388  12.8740  12.8740
    12.9225  12.9225  13.1763  13.1763  13.4737  13.4737  14.1012  14.1012
    14.5229  14.5229  15.4813  15.4813  15.7630  15.7630  15.8660  15.8660
    16.7030  16.7030  17.6164  17.6164  18.0891

          k = 0.0000 0.3150 0.0000 ( 62175 PWs)   bands (ev):

   -66.1626 -66.1624 -66.1616 -66.1616 -66.1614 -66.1614 -66.1606 -66.1604
   -30.5317 -30.5293 -30.5255 -30.5255 -30.5253 -30.5248 -30.5197 -30.5197
   -30.5184 -30.5164 -30.5164 -30.5153 -30.4907 -30.4886 -30.4886 -30.4865
   -30.4272 -30.4272 -30.4240 -30.4240 -30.4230 -30.4225 -30.4197 -30.4192
   -20.3188 -20.3188 -20.3187 -20.3187 -20.3187 -20.3187 -20.3186 -20.3186
   -20.2980 -20.2979 -20.2977 -20.2972 -20.2972 -20.2972 -20.2969 -20.2968
   -20.2966 -20.2966 -20.2965 -20.2965 -20.2955 -20.2955 -20.2953 -20.2953
   -20.2952 -20.2950 -20.2946 -20.2944 -20.2942 -20.2941 -20.2941 -20.2936
   -20.2880 -20.2878 -20.2876 -20.2876 -20.2872 -20.2871 -20.2870 -20.2869
   -20.2847 -20.2847 -20.2847 -20.2846 -20.2846 -20.2846 -20.2846 -20.2845
   -20.2803 -20.2803 -20.2801 -20.2799 -20.2798 -20.2797 -20.2795 -20.2793
    -9.8984  -9.7709  -9.4533  -9.4533  -9.3466  -9.3466  -9.0997  -9.0927
    -8.7461  -8.6455  -8.6455  -8.6408  -8.1453  -8.0982  -8.0982  -8.0696
    -7.7868  -7.7845  -7.7730  -7.7704  -7.6609  -7.6609  -7.6486  -7.6486
     1.0752   1.0752   1.2002   1.2002   1.2056   1.2056   1.5053   1.5308
     2.3566   2.3894   2.3960   2.5413   2.5413   2.7037   2.8345   2.8405
     2.9483   2.9483   3.5941   3.5955   3.6232   3.6233   4.1434   4.4767
     4.4767   4.7342   4.7342   4.7641   4.7641   4.7744   5.1023   5.1023
     5.1339   5.1358   5.4037   5.4037   5.6547   5.6554   5.6697   5.6697
     5.8909   5.8909   5.9008   5.9028   6.0394   6.0425   6.0761   6.1172
     6.1241   6.2081   6.2120   6.5356   6.6102   6.6102   6.8394   6.8394
     6.8929   6.9755   7.0906   7.0919   7.0926   7.0926   7.3254   7.3254
     7.3519   7.3519   7.8480   7.8497   7.8763   7.8763   7.9310   7.9334
     9.1794   9.1820  10.6190  10.6190  10.6756  10.6771  11.7928  11.7928
    11.8984  11.9023  12.3805  12.3805  12.4045  12.4045  13.0791  13.0896
    13.4584  13.4727  13.5324  13.5324  13.8826  13.8879  13.9065  13.9065
    14.7430  15.1533  15.1533  15.3362  15.3409  15.6127  15.8775  15.8775
    15.9471  16.8748  17.1985  17.7116  17.7116

          k = 0.0000 0.3150 0.1667 ( 62260 PWs)   bands (ev):

   -66.1625 -66.1623 -66.1617 -66.1615 -66.1615 -66.1613 -66.1607 -66.1605
   -30.5306 -30.5259 -30.5255 -30.5246 -30.5229 -30.5200 -30.5195 -30.5172
   -30.5167 -30.5157 -30.5128 -30.5114 -30.4899 -30.4890 -30.4879 -30.4869
   -30.4338 -30.4307 -30.4293 -30.4269 -30.4261 -30.4237 -30.4229 -30.4198
   -20.3188 -20.3188 -20.3187 -20.3187 -20.3187 -20.3187 -20.3187 -20.3186
   -20.2979 -20.2978 -20.2977 -20.2973 -20.2973 -20.2971 -20.2970 -20.2967
   -20.2966 -20.2965 -20.2964 -20.2963 -20.2956 -20.2954 -20.2954 -20.2952
   -20.2952 -20.2951 -20.2946 -20.2944 -20.2943 -20.2942 -20.2941 -20.2937
   -20.2880 -20.2877 -20.2877 -20.2874 -20.2871 -20.2870 -20.2869 -20.2866
   -20.2849 -20.2848 -20.2847 -20.2847 -20.2845 -20.2845 -20.2844 -20.2844
   -20.2807 -20.2804 -20.2803 -20.2802 -20.2800 -20.2798 -20.2797 -20.2794
    -9.8471  -9.7172  -9.4685  -9.3713  -9.3599  -9.2560  -9.0586  -9.0507
    -8.7554  -8.6508  -8.6357  -8.6341  -8.1473  -8.1093  -8.0954  -8.0773
    -7.9102  -7.8939  -7.7938  -7.7811  -7.7750  -7.7631  -7.6691  -7.6566
     1.1666   1.1702   1.2046   1.2103   1.4608   1.4687   1.6721   1.7063
     2.3914   2.4452   2.4856   2.5125   2.5420   2.6841   2.8438   2.9390
     2.9477   3.0481   3.5932   3.6156   3.6391   3.6636   4.1351   4.3444
     4.3550   4.4892   4.4957   4.7725   4.7956   4.8051   4.8331   4.9181
     5.0982   5.1399   5.1995   5.3002   5.4562   5.4713   5.6086   5.6556
     5.6975   5.7349   5.7789   5.8736   6.0330   6.0870   6.1046   6.1269
     6.2564   6.3976   6.4244   6.5956   6.6052   6.8284   6.8649   6.9188
     6.9573   6.9631   7.0435   7.0640   7.0749   7.0863   7.0948   7.1128
     7.1977   7.2250   7.8245   7.8472   7.8510   7.8615   7.9193   7.9238
     9.5520   9.5639  10.6246  10.6744  10.8106  10.8510  11.7926  11.8898
    11.9031  11.9841  12.2656  12.2846  12.4324  12.4620  13.0614  13.1032
    13.2761  13.4189  13.4610  13.5286  13.7251  13.7747  13.8845  13.9039
    14.8755  15.1463  15.3660  15.3967  15.4246  15.6858  15.8553  16.1102
    16.2002  16.8378  17.2684  17.3663  17.8275

          k = 0.0000 0.3150 0.3333 ( 62269 PWs)   bands (ev):

   -66.1623 -66.1621 -66.1618 -66.1616 -66.1614 -66.1612 -66.1609 -66.1607
   -30.5295 -30.5268 -30.5237 -30.5212 -30.5210 -30.5203 -30.5179 -30.5168
   -30.5057 -30.5027 -30.4974 -30.4940 -30.4904 -30.4884 -30.4858 -30.4848
   -30.4515 -30.4488 -30.4470 -30.4440 -30.4260 -30.4238 -30.4229 -30.4206
   -20.3188 -20.3188 -20.3188 -20.3187 -20.3187 -20.3187 -20.3187 -20.3186
   -20.2977 -20.2976 -20.2975 -20.2974 -20.2972 -20.2971 -20.2969 -20.2968
   -20.2967 -20.2965 -20.2961 -20.2960 -20.2959 -20.2957 -20.2954 -20.2953
   -20.2952 -20.2950 -20.2948 -20.2945 -20.2944 -20.2942 -20.2941 -20.2938
   -20.2879 -20.2877 -20.2874 -20.2871 -20.2867 -20.2866 -20.2864 -20.2861
   -20.2853 -20.2852 -20.2852 -20.2851 -20.2838 -20.2838 -20.2836 -20.2836
   -20.2816 -20.2814 -20.2812 -20.2809 -20.2803 -20.2801 -20.2797 -20.2795
    -9.7250  -9.5932  -9.5159  -9.4011  -9.1524  -8.9984  -8.9251  -8.9029
    -8.7932  -8.6703  -8.6136  -8.5872  -8.2660  -8.2399  -8.2123  -8.1154
    -8.1040  -8.0904  -8.0643  -8.0145  -7.7535  -7.7403  -7.6914  -7.6788
     1.2161   1.2224   1.2268   1.2335   2.1199   2.1713   2.2429   2.3626
     2.4036   2.5067   2.5426   2.6894   2.7384   2.7449   2.8611   2.9300
     3.1881   3.2513   3.5660   3.5943   3.6666   3.7097   3.7632   3.7715
     4.1113   4.3192   4.3954   4.4336   4.4923   4.5773   4.6233   4.7512
     4.7960   4.8764   5.0021   5.0824   5.1140   5.1939   5.2232   5.3685
     5.3734   5.5487   5.7084   5.8364   6.1090   6.1471   6.1990   6.2613
     6.4152   6.5638   6.5810   6.5987   6.6660   6.7788   6.7906   6.7982
     6.8758   6.9731   7.0221   7.0499   7.0586   7.1200   7.1654   7.1872
     7.2948   7.3376   7.7468   7.7568   7.7964   7.8203   7.8578   7.8836
    10.3089  10.3289  10.6434  10.6688  11.3024  11.3324  11.7815  11.8292
    11.8570  11.9321  12.1951  12.2303  12.5989  12.6540  12.6841  12.7421
    12.9609  13.2004  13.2382  13.4260  13.5209  13.5367  13.8867  13.9002
    15.0205  15.1235  15.5171  15.7866  15.9054  15.9275  15.9880  16.6302
    16.7094  16.8128  17.0473  17.5123  17.6567

          k = 0.0000 0.3150-0.5000 ( 62306 PWs)   bands (ev):

   -66.1621 -66.1621 -66.1619 -66.1619 -66.1611 -66.1611 -66.1609 -66.1609
   -30.5282 -30.5282 -30.5224 -30.5224 -30.5194 -30.5194 -30.5183 -30.5183
   -30.4934 -30.4934 -30.4921 -30.4921 -30.4745 -30.4745 -30.4727 -30.4727
   -30.4701 -30.4701 -30.4680 -30.4680 -30.4249 -30.4249 -30.4217 -30.4217
   -20.3188 -20.3188 -20.3187 -20.3187 -20.3187 -20.3187 -20.3187 -20.3186
   -20.2976 -20.2976 -20.2974 -20.2974 -20.2972 -20.2972 -20.2969 -20.2969
   -20.2964 -20.2964 -20.2961 -20.2961 -20.2957 -20.2957 -20.2956 -20.2956
   -20.2950 -20.2950 -20.2947 -20.2947 -20.2943 -20.2943 -20.2940 -20.2940
   -20.2878 -20.2878 -20.2872 -20.2872 -20.2860 -20.2860 -20.2859 -20.2859
   -20.2857 -20.2857 -20.2856 -20.2856 -20.2828 -20.2828 -20.2827 -20.2827
   -20.2824 -20.2824 -20.2823 -20.2823 -20.2802 -20.2802 -20.2796 -20.2796
    -9.6013  -9.6013  -9.4765  -9.4765  -8.9108  -8.9107  -8.7408  -8.7408
    -8.6227  -8.6227  -8.6178  -8.6178  -8.5115  -8.5115  -8.4355  -8.4355
    -8.1022  -8.1022  -8.0635  -8.0635  -7.7223  -7.7223  -7.7094  -7.7094
     1.2283   1.2283   1.2353   1.2353   2.3899   2.3899   2.5278   2.5278
     2.8741   2.8741   2.9814   2.9814   3.0278   3.0278   3.1996   3.1996
     3.2394   3.2394   3.2643   3.2643   3.3254   3.3254   3.5895   3.5895
     4.0777   4.0777   4.1012   4.1012   4.1421   4.1421   4.3684   4.3684
     4.8330   4.8330   4.9602   4.9602   5.1689   5.1689   5.2352   5.2352
     5.3618   5.3619   5.7708   5.7708   6.2404   6.2404   6.2857   6.2857
     6.4292   6.4292   6.4907   6.4907   6.5254   6.5254   6.7638   6.7638
     7.0271   7.0271   7.0575   7.0576   7.1100   7.1100   7.5187   7.5187
     7.5285   7.5285   7.5887   7.5887   7.6121   7.6121   7.8667   7.8667
    10.6494  10.6494  11.1254  11.1254  11.1632  11.1632  11.7199  11.7199
    12.0355  12.0355  12.1360  12.1361  12.5937  12.5937  12.6745  12.6745
    12.8967  12.8967  13.0122  13.0122  13.5168  13.5168  13.8937  13.8937
    15.0827  15.0827  15.6704  15.6704  16.2858  16.2858  16.4366  16.4366
    16.8761  16.8761  17.2369  17.2369  17.9786

          k = 0.0000-0.4725 0.0000 ( 62212 PWs)   bands (ev):

   -66.1625 -66.1625 -66.1615 -66.1615 -66.1615 -66.1615 -66.1605 -66.1605
   -30.5299 -30.5298 -30.5252 -30.5251 -30.5244 -30.5244 -30.5199 -30.5198
   -30.5051 -30.5051 -30.5037 -30.5037 -30.5022 -30.5022 -30.5009 -30.5009
   -30.4271 -30.4270 -30.4242 -30.4241 -30.4226 -30.4226 -30.4196 -30.4196
   -20.3188 -20.3188 -20.3187 -20.3187 -20.3187 -20.3187 -20.3186 -20.3186
   -20.2979 -20.2979 -20.2974 -20.2973 -20.2967 -20.2966 -20.2965 -20.2965
   -20.2960 -20.2959 -20.2959 -20.2959 -20.2958 -20.2958 -20.2956 -20.2956
   -20.2951 -20.2951 -20.2951 -20.2951 -20.2951 -20.2951 -20.2941 -20.2941
   -20.2879 -20.2879 -20.2876 -20.2876 -20.2871 -20.2871 -20.2870 -20.2870
   -20.2847 -20.2847 -20.2847 -20.2847 -20.2846 -20.2846 -20.2846 -20.2846
   -20.2803 -20.2803 -20.2800 -20.2800 -20.2798 -20.2798 -20.2794 -20.2794
    -9.8271  -9.8271  -9.3930  -9.3930  -9.3856  -9.3856  -9.0962  -9.0962
    -8.4501  -8.4501  -8.3980  -8.3980  -8.3976  -8.3976  -8.3889  -8.3889
    -7.7821  -7.7821  -7.7754  -7.7754  -7.6580  -7.6580  -7.6516  -7.6516
     1.0752   1.0752   1.2008   1.2008   1.2059   1.2059   1.5243   1.5243
     2.3761   2.3761   3.1486   3.1486   3.1710   3.1710   3.2365   3.2365
     3.2551   3.2551   3.2632   3.2633   3.4798   3.4798   3.4951   3.4951
     3.6957   3.6957   4.7435   4.7435   4.7459   4.7459   5.2640   5.2640
     5.2663   5.2664   5.3838   5.3838   5.3852   5.3852   5.7500   5.7500
     5.7506   5.7506   6.0001   6.0001   6.0096   6.0096   6.1504   6.1504
     6.1606   6.1606   6.2727   6.2727   6.7042   6.7042   6.7145   6.7145
     6.9348   6.9348   7.3186   7.3186   7.3284   7.3285   7.4777   7.4777
     7.4839   7.4839   7.5336   7.5336   7.5367   7.5367   7.9317   7.9317
     9.1808   9.1808  11.2207  11.2208  11.2277  11.2277  11.3028  11.3028
    11.3109  11.3109  12.3897  12.3897  12.4019  12.4019  13.0859  13.0859
    13.6409  13.6409  13.6510  13.6510  13.6866  13.6866  13.6887  13.6887
    15.3364  15.3364  15.3491  15.3491  15.6163  15.6163  15.6258  15.6258
    16.4881  16.4881  17.9403  18.1131  18.1132

          k = 0.0000-0.4725 0.1667 ( 62246 PWs)   bands (ev):

   -66.1624 -66.1624 -66.1616 -66.1616 -66.1614 -66.1614 -66.1606 -66.1606
   -30.5295 -30.5253 -30.5248 -30.5237 -30.5202 -30.5194 -30.5193 -30.5147
   -30.5041 -30.5036 -30.5035 -30.5026 -30.5026 -30.5013 -30.5013 -30.5009
   -30.4336 -30.4309 -30.4292 -30.4267 -30.4263 -30.4238 -30.4228 -30.4199
   -20.3188 -20.3188 -20.3187 -20.3187 -20.3187 -20.3187 -20.3186 -20.3186
   -20.2978 -20.2978 -20.2973 -20.2973 -20.2967 -20.2966 -20.2965 -20.2964
   -20.2960 -20.2960 -20.2960 -20.2959 -20.2957 -20.2957 -20.2957 -20.2956
   -20.2952 -20.2952 -20.2951 -20.2951 -20.2950 -20.2950 -20.2941 -20.2941
   -20.2879 -20.2877 -20.2876 -20.2873 -20.2871 -20.2870 -20.2869 -20.2867
   -20.2849 -20.2848 -20.2847 -20.2847 -20.2845 -20.2845 -20.2844 -20.2844
   -20.2806 -20.2803 -20.2802 -20.2802 -20.2800 -20.2798 -20.2798 -20.2795
    -9.7746  -9.7737  -9.4071  -9.3998  -9.3047  -9.2974  -9.0550  -9.0542
    -8.4569  -8.4568  -8.4054  -8.4049  -8.3929  -8.3924  -8.3891  -8.3889
    -7.9066  -7.8999  -7.7903  -7.7852  -7.7720  -7.7668  -7.6661  -7.6597
     1.1668   1.1703   1.2054   1.2107   1.4636   1.4687   1.6966   1.6997
     2.4654   2.4655   3.1497   3.1675   3.1746   3.1938   3.2335   3.2486
     3.2584   3.2624   3.2840   3.2979   3.4761   3.4918   3.5279   3.5399
     3.7179   3.7183   4.3639   4.3640   4.7998   4.8016   5.0127   5.0177
     5.1726   5.1734   5.2381   5.2399   5.3963   5.3982   5.4923   5.4945
     5.7190   5.7190   5.7394   5.7410   6.0913   6.0913   6.1165   6.1327
     6.3988   6.3994   6.4067   6.4201   6.6952   6.7057   6.8977   6.9077
     6.9925   6.9949   7.0829   7.0878   7.1413   7.1526   7.4647   7.4702
     7.4854   7.4899   7.5082   7.5127   7.5237   7.5275   7.9197   7.9198
     9.5577   9.5601  11.2258  11.2326  11.2963  11.3021  11.3567  11.3610
    11.4290  11.4368  12.2708  12.2816  12.4427  12.4543  13.0911  13.0913
    13.4562  13.4583  13.5554  13.5621  13.6499  13.6568  13.6838  13.6867
    15.3321  15.3404  15.5615  15.5685  15.6004  15.6104  15.9097  15.9174
    16.5552  16.5557  17.8826  17.8863  18.0752

          k = 0.0000-0.4725 0.3333 ( 62268 PWs)   bands (ev):

   -66.1622 -66.1622 -66.1617 -66.1617 -66.1613 -66.1612 -66.1608 -66.1608
   -30.5285 -30.5258 -30.5239 -30.5212 -30.5124 -30.5100 -30.5084 -30.5078
   -30.5054 -30.5037 -30.5026 -30.5025 -30.4952 -30.4949 -30.4925 -30.4916
   -30.4515 -30.4489 -30.4470 -30.4442 -30.4259 -30.4236 -30.4230 -30.4207
   -20.3188 -20.3188 -20.3187 -20.3187 -20.3187 -20.3187 -20.3187 -20.3186
   -20.2976 -20.2975 -20.2970 -20.2970 -20.2970 -20.2968 -20.2963 -20.2963
   -20.2963 -20.2962 -20.2959 -20.2958 -20.2958 -20.2958 -20.2956 -20.2955
   -20.2954 -20.2954 -20.2952 -20.2952 -20.2949 -20.2947 -20.2944 -20.2942
   -20.2879 -20.2877 -20.2875 -20.2872 -20.2867 -20.2865 -20.2864 -20.2862
   -20.2853 -20.2852 -20.2852 -20.2851 -20.2838 -20.2837 -20.2837 -20.2836
   -20.2816 -20.2813 -20.2812 -20.2810 -20.2802 -20.2800 -20.2797 -20.2795
    -9.6514  -9.6481  -9.4512  -9.4443  -9.0572  -9.0503  -8.9129  -8.9102
    -8.5032  -8.5022  -8.4440  -8.4437  -8.3844  -8.3843  -8.3744  -8.3737
    -8.1938  -8.1881  -8.0980  -8.0923  -7.7502  -7.7437  -7.6884  -7.6819
     1.2171   1.2227   1.2280   1.2339   2.1597   2.1644   2.3434   2.3477
     2.7252   2.7252   3.1516   3.1809   3.1909   3.2225   3.2236   3.2339
     3.2555   3.2578   3.3672   3.3787   3.4611   3.4770   3.6676   3.6707
     3.7540   3.7552   3.7564   3.7570   4.5131   4.5135   4.6531   4.6566
     4.7900   4.8011   4.8347   4.8448   5.1255   5.1320   5.2868   5.2872
     5.4281   5.4309   5.6367   5.6388   6.1468   6.1475   6.2450   6.2640
     6.5183   6.5188   6.6064   6.6278   6.6711   6.6777   6.7925   6.8046
     6.9829   6.9885   7.1882   7.1960   7.2016   7.2066   7.4405   7.4480
     7.4740   7.4790   7.5012   7.5027   7.5082   7.5115   7.8259   7.8264
    10.3199  10.3249  11.2408  11.2472  11.2785  11.2849  11.7472  11.7510
    11.7874  11.7943  11.8466  11.8550  12.6162  12.6257  12.8221  12.8234
    12.9668  12.9691  13.2833  13.2887  13.6578  13.6587  13.6790  13.6826
    15.3746  15.3844  15.5502  15.5599  16.1953  16.2021  16.6595  16.6641
    16.7926  16.7947  17.3590  17.3594  17.9013

          k = 0.0000-0.4725-0.5000 ( 62284 PWs)   bands (ev):

   -66.1620 -66.1620 -66.1620 -66.1620 -66.1610 -66.1610 -66.1610 -66.1610
   -30.5271 -30.5271 -30.5226 -30.5226 -30.5075 -30.5075 -30.5054 -30.5054
   -30.5049 -30.5049 -30.5043 -30.5043 -30.4752 -30.4752 -30.4730 -30.4730
   -30.4709 -30.4709 -30.4684 -30.4684 -30.4248 -30.4248 -30.4219 -30.4219
   -20.3188 -20.3188 -20.3188 -20.3188 -20.3187 -20.3187 -20.3187 -20.3187
   -20.2973 -20.2973 -20.2971 -20.2971 -20.2967 -20.2967 -20.2966 -20.2966
   -20.2960 -20.2960 -20.2960 -20.2960 -20.2957 -20.2957 -20.2957 -20.2956
   -20.2954 -20.2954 -20.2954 -20.2954 -20.2946 -20.2946 -20.2945 -20.2945
   -20.2878 -20.2878 -20.2873 -20.2873 -20.2860 -20.2860 -20.2858 -20.2858
   -20.2858 -20.2858 -20.2856 -20.2856 -20.2828 -20.2828 -20.2826 -20.2826
   -20.2825 -20.2825 -20.2823 -20.2823 -20.2801 -20.2801 -20.2796 -20.2796
    -9.5314  -9.5314  -9.5256  -9.5256  -8.7223  -8.7223  -8.7142  -8.7142
    -8.6550  -8.6550  -8.6494  -8.6494  -8.3624  -8.3624  -8.3535  -8.3535
    -8.3197  -8.3196  -8.3104  -8.3104  -7.7191  -7.7191  -7.7126  -7.7126
     1.2296   1.2296   1.2356   1.2356   2.9511   2.9511   2.9690   2.9690
     3.1051   3.1051   3.1112   3.1112   3.1665   3.1665   3.1915   3.1915
     3.2425   3.2425   3.2648   3.2648   3.3928   3.3928   3.4218   3.4218
     3.5643   3.5644   3.6303   3.6303   4.3241   4.3242   4.3368   4.3369
     4.4295   4.4295   4.4511   4.4511   5.2091   5.2091   5.2158   5.2159
     5.5042   5.5043   5.5129   5.5129   6.2783   6.2783   6.2807   6.2807
     6.4812   6.4812   6.4900   6.4900   6.6242   6.6242   6.6376   6.6376
     7.3022   7.3022   7.3135   7.3135   7.3592   7.3592   7.4085   7.4086
     7.4404   7.4404   7.4713   7.4713   7.6065   7.6065   7.6098   7.6098
    11.1198  11.1198  11.1272  11.1272  11.2800  11.2800  11.2859  11.2859
    12.2872  12.2872  12.3182  12.3183  12.3268  12.3268  12.3520  12.3520
    12.9262  12.9262  12.9332  12.9332  13.6669  13.6669  13.6730  13.6730
    15.4668  15.4668  15.4769  15.4769  16.8293  16.8293  16.8480  16.8481
    17.3600  17.3602  17.3736  17.3736  17.4724

          k = 0.1667 0.0000 0.1667 ( 62234 PWs)   bands (ev):

   -66.1625 -66.1621 -66.1617 -66.1617 -66.1613 -66.1613 -66.1608 -66.1605
   -30.5382 -30.5346 -30.5345 -30.5304 -30.5223 -30.5216 -30.5186 -30.5173
   -30.5165 -30.5157 -30.5130 -30.5116 -30.4749 -30.4741 -30.4740 -30.4732
   -30.4340 -30.4335 -30.4306 -30.4305 -30.4297 -30.4288 -30.4263 -30.4256
   -20.3188 -20.3188 -20.3187 -20.3187 -20.3187 -20.3187 -20.3187 -20.3186
   -20.2988 -20.2986 -20.2986 -20.2984 -20.2978 -20.2976 -20.2970 -20.2969
   -20.2966 -20.2966 -20.2963 -20.2963 -20.2955 -20.2955 -20.2954 -20.2953
   -20.2953 -20.2951 -20.2944 -20.2943 -20.2931 -20.2929 -20.2928 -20.2926
   -20.2880 -20.2877 -20.2875 -20.2874 -20.2869 -20.2868 -20.2867 -20.2862
   -20.2849 -20.2849 -20.2846 -20.2846 -20.2845 -20.2845 -20.2843 -20.2841
   -20.2810 -20.2807 -20.2806 -20.2804 -20.2801 -20.2799 -20.2798 -20.2796
    -9.8889  -9.6130  -9.4960  -9.4960  -9.2383  -9.2381  -9.0468  -9.0245
    -9.0100  -8.8225  -8.8169  -8.8168  -7.9135  -7.9073  -7.8928  -7.8891
    -7.8460  -7.8270  -7.7870  -7.7710  -7.7658  -7.7414  -7.7414  -7.6985
     1.3420   1.3424   1.4197   1.4198   1.4339   1.4738   1.4742   1.6465
     1.6763   1.6765   1.8015   1.9673   2.5137   2.6006   2.6531   2.6567
     2.7538   2.7806   4.0451   4.0675   4.2346   4.2360   4.4340   4.4360
     4.4532   4.4547   4.6918   4.7011   4.7086   4.8014   5.0122   5.2385
     5.3092   5.3239   5.4090   5.5089   5.5106   5.6335   5.6345   5.6992
     5.7025   5.7343   5.7351   5.8033   5.8551   6.0298   6.3410   6.4229
     6.4479   6.4924   6.5237   6.6252   6.6306   6.6759   6.6801   6.6989
     6.7021   6.8328   6.8333   6.8524   6.9069   6.9893   6.9913   7.0938
     7.2278   7.2891   7.9000   7.9023   8.0785   8.1162   8.1324   8.1372
     9.7816   9.8402  10.2180  10.2413  10.2474  10.3153  12.2960  12.2967
    12.3205  12.3229  12.3555  12.3940  12.5655  12.5714  13.0395  13.0638
    13.1095  13.1963  13.2172  13.4329  13.9491  14.0188  14.0487  14.0892
    14.0996  14.4309  14.4314  15.1030  15.4001  15.4971  15.5092  16.3397
    16.3407  17.0039  17.0053  17.1394  17.5411

          k = 0.1667 0.0000 0.3333 ( 62265 PWs)   bands (ev):

   -66.1624 -66.1620 -66.1619 -66.1615 -66.1615 -66.1611 -66.1610 -66.1606
   -30.5377 -30.5354 -30.5340 -30.5314 -30.5210 -30.5186 -30.5157 -30.5134
   -30.5049 -30.5011 -30.4978 -30.4940 -30.4760 -30.4752 -30.4730 -30.4723
   -30.4509 -30.4482 -30.4470 -30.4439 -30.4328 -30.4306 -30.4291 -30.4268
   -20.3188 -20.3188 -20.3187 -20.3187 -20.3187 -20.3187 -20.3187 -20.3186
   -20.2988 -20.2987 -20.2986 -20.2985 -20.2975 -20.2972 -20.2968 -20.2967
   -20.2966 -20.2965 -20.2963 -20.2960 -20.2958 -20.2957 -20.2956 -20.2953
   -20.2952 -20.2950 -20.2946 -20.2945 -20.2931 -20.2929 -20.2928 -20.2927
   -20.2879 -20.2876 -20.2873 -20.2869 -20.2868 -20.2864 -20.2863 -20.2857
   -20.2853 -20.2853 -20.2850 -20.2848 -20.2840 -20.2838 -20.2836 -20.2834
   -20.2818 -20.2815 -20.2811 -20.2808 -20.2807 -20.2805 -20.2799 -20.2797
    -9.7655  -9.5463  -9.4761  -9.3250  -9.2778  -9.0817  -8.9788  -8.9184
    -8.8739  -8.8289  -8.7733  -8.7229  -8.2213  -8.2133  -8.1631  -8.1345
    -7.8858  -7.8699  -7.8252  -7.8146  -7.7717  -7.7512  -7.7334  -7.7080
     1.4109   1.4169   1.4865   1.4900   1.5833   1.6024   1.6268   1.6669
     2.1828   2.2146   2.3549   2.4295   2.6736   2.7412   2.7889   2.8797
     2.8956   3.0061   3.7387   3.8477   3.8601   3.8848   4.1708   4.1944
     4.2255   4.4094   4.5284   4.5772   4.6452   4.6705   4.7276   4.8601
     4.9600   5.0530   5.1019   5.1762   5.3019   5.3797   5.5753   5.6693
     5.7232   5.7552   5.7936   5.8645   5.8671   6.0276   6.1012   6.1294
     6.4154   6.4450   6.5090   6.5553   6.6013   6.6338   6.6668   6.6741
     6.7892   6.8707   6.8742   6.8799   7.0884   7.1277   7.1318   7.1859
     7.3351   7.3849   7.8040   7.8194   7.9675   7.9961   8.1282   8.1370
    10.2159  10.2429  10.4480  10.4924  10.8897  10.9766  11.8829  11.9192
    12.1948  12.4495  12.4724  12.5623  12.5648  12.5978  12.7432  12.8308
    12.9995  13.0929  13.1226  13.3240  13.6770  13.6945  14.0328  14.0557
    14.2235  14.4048  14.7642  15.2920  15.4176  15.8058  15.9796  16.2537
    16.4278  17.2348  17.4520  17.5279  17.5951

          k = 0.1667 0.0000-0.5000 ( 62322 PWs)   bands (ev):

   -66.1621 -66.1621 -66.1617 -66.1617 -66.1613 -66.1613 -66.1609 -66.1609
   -30.5366 -30.5366 -30.5328 -30.5328 -30.5197 -30.5197 -30.5146 -30.5146
   -30.4843 -30.4843 -30.4824 -30.4824 -30.4732 -30.4732 -30.4705 -30.4705
   -30.4664 -30.4664 -30.4656 -30.4656 -30.4317 -30.4317 -30.4280 -30.4280
   -20.3188 -20.3188 -20.3187 -20.3187 -20.3187 -20.3187 -20.3186 -20.3186
   -20.2988 -20.2988 -20.2986 -20.2986 -20.2971 -20.2971 -20.2969 -20.2969
   -20.2962 -20.2962 -20.2961 -20.2961 -20.2959 -20.2959 -20.2956 -20.2956
   -20.2950 -20.2950 -20.2947 -20.2947 -20.2930 -20.2930 -20.2928 -20.2928
   -20.2878 -20.2877 -20.2871 -20.2871 -20.2860 -20.2860 -20.2859 -20.2859
   -20.2857 -20.2857 -20.2852 -20.2852 -20.2830 -20.2830 -20.2827 -20.2827
   -20.2824 -20.2824 -20.2822 -20.2822 -20.2806 -20.2806 -20.2798 -20.2798
    -9.6370  -9.6370  -9.3525  -9.3525  -9.1645  -9.1645  -8.8520  -8.8520
    -8.6037  -8.6037  -8.5963  -8.5963  -8.5470  -8.5470  -8.4860  -8.4860
    -7.8557  -7.8557  -7.8409  -7.8409  -7.7634  -7.7634  -7.7208  -7.7208
     1.4141   1.4141   1.4999   1.4999   1.6070   1.6070   1.6543   1.6543
     2.6942   2.6942   2.9265   2.9266   3.0196   3.0196   3.1348   3.1349
     3.2178   3.2178   3.3493   3.3493   3.4299   3.4299   3.7761   3.7761
     3.9027   3.9027   4.3199   4.3199   4.5878   4.5878   4.8500   4.8500
     4.9858   4.9858   5.0168   5.0168   5.2343   5.2343   5.6727   5.6727
     5.7685   5.7685   5.8178   5.8178   5.8602   5.8602   6.0093   6.0093
     6.3432   6.3432   6.4433   6.4433   6.6638   6.6638   6.7225   6.7225
     6.7886   6.7886   6.9489   6.9489   7.0060   7.0060   7.5356   7.5356
     7.5717   7.5718   7.7274   7.7274   7.7405   7.7406   8.1367   8.1367
    10.2412  10.2412  11.1921  11.1921  11.2508  11.2508  11.6309  11.6309
    11.7984  11.7984  12.5894  12.5894  12.7089  12.7089  12.7490  12.7490
    12.9731  12.9731  13.2377  13.2377  13.3594  13.3594  14.0420  14.0420
    14.3475  14.3475  15.0858  15.0858  15.8711  15.8711  16.0880  16.0880
    16.7801  16.7801  17.8336  17.8340  17.8844

          k = 0.1667 0.1575 0.1667 ( 62255 PWs)   bands (ev):

   -66.1625 -66.1622 -66.1617 -66.1617 -66.1613 -66.1613 -66.1608 -66.1605
   -30.5349 -30.5312 -30.5310 -30.5266 -30.5222 -30.5212 -30.5187 -30.5172
   -30.5161 -30.5154 -30.5132 -30.5115 -30.4788 -30.4779 -30.4779 -30.4770
   -30.4339 -30.4335 -30.4306 -30.4305 -30.4297 -30.4288 -30.4264 -30.4258
   -20.3188 -20.3188 -20.3187 -20.3187 -20.3187 -20.3187 -20.3187 -20.3186
   -20.2985 -20.2983 -20.2982 -20.2980 -20.2977 -20.2976 -20.2969 -20.2969
   -20.2966 -20.2966 -20.2964 -20.2963 -20.2955 -20.2955 -20.2954 -20.2953
   -20.2953 -20.2951 -20.2944 -20.2944 -20.2935 -20.2932 -20.2932 -20.2929
   -20.2880 -20.2877 -20.2875 -20.2874 -20.2869 -20.2869 -20.2868 -20.2862
   -20.2849 -20.2849 -20.2846 -20.2846 -20.2845 -20.2845 -20.2843 -20.2841
   -20.2809 -20.2807 -20.2806 -20.2804 -20.2801 -20.2799 -20.2798 -20.2796
    -9.8607  -9.6242  -9.4626  -9.4625  -9.2456  -9.2455  -9.0235  -9.0115
    -8.9728  -8.7759  -8.7756  -8.7752  -7.9270  -7.9068  -7.9045  -7.9025
    -7.8970  -7.8364  -7.8361  -7.8305  -7.8200  -7.7837  -7.7719  -7.7662
     1.3420   1.3424   1.4492   1.4493   1.4737   1.4738   1.5967   1.8006
     1.8376   1.8852   1.8853   2.0894   2.5207   2.5952   2.7255   2.7292
     2.8251   2.8445   3.9359   3.9691   4.0509   4.0534   4.4034   4.4047
     4.4558   4.4570   4.6926   4.7141   4.7519   4.7857   4.8117   5.2199
     5.2206   5.2517   5.2597   5.3494   5.3636   5.5958   5.5962   5.6605
     5.7071   5.7134   5.8222   5.8285   5.8316   5.9158   6.3406   6.3420
     6.3778   6.4850   6.5116   6.6214   6.6256   6.6817   6.7291   6.7786
     6.7812   6.8468   6.8607   6.8643   6.9442   6.9648   6.9681   7.0993
     7.2305   7.2893   7.9008   7.9017   8.0192   8.0556   8.0580   8.0590
     9.7946   9.8376  10.3703  10.4073  10.4131  10.4565  12.2291  12.2681
    12.2958  12.2991  12.3082  12.3160  12.4385  12.4425  13.0361  13.0863
    13.1471  13.2067  13.2367  13.4419  13.9300  13.9426  13.9528  14.0159
    14.3408  14.7302  14.7309  15.2393  15.4979  15.5083  15.8059  16.3034
    16.3039  16.7983  17.1102  17.1103  17.5909

          k = 0.1667 0.1575 0.3333 ( 62260 PWs)   bands (ev):

   -66.1623 -66.1620 -66.1618 -66.1615 -66.1615 -66.1611 -66.1610 -66.1607
   -30.5342 -30.5319 -30.5303 -30.5276 -30.5207 -30.5185 -30.5155 -30.5135
   -30.5049 -30.5013 -30.4977 -30.4940 -30.4796 -30.4788 -30.4766 -30.4759
   -30.4511 -30.4483 -30.4472 -30.4441 -30.4328 -30.4305 -30.4292 -30.4269
   -20.3188 -20.3188 -20.3187 -20.3187 -20.3187 -20.3187 -20.3187 -20.3186
   -20.2985 -20.2984 -20.2983 -20.2981 -20.2974 -20.2973 -20.2968 -20.2967
   -20.2966 -20.2965 -20.2962 -20.2960 -20.2958 -20.2957 -20.2955 -20.2954
   -20.2952 -20.2951 -20.2946 -20.2945 -20.2934 -20.2933 -20.2932 -20.2930
   -20.2879 -20.2876 -20.2873 -20.2869 -20.2868 -20.2864 -20.2863 -20.2857
   -20.2853 -20.2853 -20.2850 -20.2848 -20.2840 -20.2838 -20.2836 -20.2834
   -20.2818 -20.2815 -20.2811 -20.2809 -20.2806 -20.2805 -20.2799 -20.2798
    -9.7345  -9.5128  -9.4869  -9.2861  -9.2778  -9.0095  -8.9865  -8.9101
    -8.8752  -8.7886  -8.7367  -8.6950  -8.2256  -8.2122  -8.1749  -8.1321
    -7.8921  -7.8845  -7.8741  -7.8442  -7.8240  -7.8226  -7.8179  -7.7862
     1.4571   1.4634   1.4864   1.4900   1.7638   1.7867   1.8616   1.8787
     2.1816   2.2312   2.3553   2.4510   2.7448   2.7813   2.8252   2.8792
     2.9670   3.0639   3.7330   3.8189   3.8402   3.8596   4.0287   4.1048
     4.2519   4.3174   4.5359   4.5788   4.6381   4.6944   4.7107   4.7449
     4.8672   4.9109   4.9313   5.1416   5.1836   5.2323   5.3273   5.6329
     5.6482   5.6903   5.7303   5.8088   5.8661   5.8929   6.0854   6.1282
     6.3412   6.5171   6.5235   6.6377   6.6856   6.6946   6.7264   6.7418
     6.8387   6.8744   6.9004   6.9374   7.0784   7.1209   7.1240   7.1963
     7.3266   7.3788   7.8048   7.8159   7.9186   7.9360   8.0583   8.0607
    10.3383  10.4051  10.4690  10.5143  11.0021  11.0686  11.8833  11.9159
    12.1514  12.4153  12.4260  12.4740  12.5055  12.6107  12.6907  12.7212
    12.9911  13.1029  13.1312  13.3349  13.5758  13.6028  13.9476  13.9714
    14.5500  14.7094  15.1148  15.5189  15.7092  15.7998  15.9908  16.2205
    16.5346  17.1908  17.2026  17.5081  17.5742

          k = 0.1667 0.1575-0.5000 ( 62292 PWs)   bands (ev):

   -66.1621 -66.1621 -66.1618 -66.1617 -66.1612 -66.1612 -66.1609 -66.1609
   -30.5331 -30.5331 -30.5290 -30.5290 -30.5195 -30.5195 -30.5146 -30.5146
   -30.4860 -30.4860 -30.4846 -30.4846 -30.4734 -30.4733 -30.4713 -30.4713
   -30.4680 -30.4680 -30.4669 -30.4669 -30.4316 -30.4316 -30.4281 -30.4281
   -20.3188 -20.3188 -20.3187 -20.3187 -20.3187 -20.3187 -20.3186 -20.3186
   -20.2984 -20.2984 -20.2982 -20.2982 -20.2971 -20.2971 -20.2969 -20.2969
   -20.2962 -20.2962 -20.2961 -20.2961 -20.2959 -20.2959 -20.2956 -20.2956
   -20.2950 -20.2949 -20.2948 -20.2948 -20.2934 -20.2934 -20.2931 -20.2931
   -20.2877 -20.2877 -20.2871 -20.2871 -20.2860 -20.2860 -20.2859 -20.2859
   -20.2856 -20.2856 -20.2852 -20.2852 -20.2830 -20.2830 -20.2827 -20.2827
   -20.2824 -20.2824 -20.2822 -20.2822 -20.2806 -20.2806 -20.2798 -20.2798
    -9.6039  -9.6039  -9.3619  -9.3619  -9.0993  -9.0993  -8.8176  -8.8176
    -8.6090  -8.6090  -8.5992  -8.5992  -8.5414  -8.5414  -8.4770  -8.4770
    -7.8790  -7.8790  -7.8525  -7.8525  -7.8383  -7.8383  -7.8056  -7.8056
     1.4663   1.4663   1.4999   1.4999   1.7974   1.7974   1.8781   1.8781
     2.7608   2.7608   2.9457   2.9457   3.0312   3.0312   3.1489   3.1489
     3.2204   3.2205   3.3537   3.3537   3.4217   3.4217   3.7768   3.7768
     3.9529   3.9529   4.1872   4.1872   4.6033   4.6033   4.6541   4.6541
     4.9144   4.9144   4.9599   4.9599   5.0687   5.0687   5.4569   5.4569
     5.7217   5.7217   5.7540   5.7540   5.8376   5.8376   5.8880   5.8880
     6.4591   6.4591   6.6145   6.6145   6.6417   6.6417   6.7687   6.7687
     6.8688   6.8689   6.9094   6.9094   7.0372   7.0372   7.5367   7.5367
     7.5656   7.5656   7.6969   7.6969   7.7082   7.7082   8.0621   8.0621
    10.4006  10.4006  11.1964  11.1964  11.2497  11.2497  11.6954  11.6954
    11.8595  11.8595  12.4548  12.4548  12.6866  12.6866  12.7433  12.7433
    12.9401  12.9401  13.1393  13.1393  13.3182  13.3182  13.9554  13.9554
    14.6615  14.6615  15.4642  15.4642  15.9889  15.9889  16.0654  16.0654
    16.8122  16.8122  17.6394  17.6394  17.9119

          k = 0.1667 0.3150 0.1667 ( 62249 PWs)   bands (ev):

   -66.1624 -66.1622 -66.1616 -66.1616 -66.1614 -66.1614 -66.1608 -66.1606
   -30.5277 -30.5244 -30.5234 -30.5213 -30.5196 -30.5189 -30.5165 -30.5160
   -30.5139 -30.5130 -30.5128 -30.5102 -30.4892 -30.4883 -30.4883 -30.4874
   -30.4336 -30.4334 -30.4307 -30.4307 -30.4295 -30.4289 -30.4266 -30.4261
   -20.3188 -20.3188 -20.3187 -20.3187 -20.3187 -20.3187 -20.3187 -20.3186
   -20.2978 -20.2978 -20.2976 -20.2973 -20.2973 -20.2970 -20.2970 -20.2967
   -20.2965 -20.2965 -20.2964 -20.2964 -20.2955 -20.2955 -20.2954 -20.2953
   -20.2953 -20.2951 -20.2947 -20.2944 -20.2943 -20.2942 -20.2941 -20.2937
   -20.2879 -20.2877 -20.2874 -20.2874 -20.2869 -20.2869 -20.2868 -20.2864
   -20.2849 -20.2849 -20.2846 -20.2846 -20.2845 -20.2845 -20.2843 -20.2842
   -20.2808 -20.2806 -20.2805 -20.2804 -20.2801 -20.2800 -20.2799 -20.2797
    -9.7920  -9.6584  -9.3869  -9.3868  -9.2696  -9.2694  -9.0209  -9.0139
    -8.7653  -8.6392  -8.6392  -8.6306  -8.1517  -8.1062  -8.1062  -8.0841
    -7.9027  -7.9014  -7.8867  -7.8847  -7.8200  -7.8043  -7.7800  -7.7701
     1.3419   1.3422   1.4654   1.4655   1.4737   1.4738   1.7538   1.7972
     2.3928   2.5131   2.5139   2.5376   2.5718   2.6715   2.9469   2.9522
     3.0335   3.0510   3.6277   3.6330   3.6382   3.6827   4.1277   4.3986
     4.3995   4.4215   4.4215   4.5252   4.5257   4.7663   4.7833   4.8756
     4.9225   4.9248   5.1411   5.1619   5.3535   5.3836   5.4568   5.4588
     5.6555   5.6827   5.7144   5.7151   5.7980   5.7996   6.3664   6.3753
     6.4425   6.4765   6.4927   6.6064   6.6546   6.7125   6.8537   6.8557
     6.9189   6.9200   6.9930   7.0018   7.0713   7.0954   7.1011   7.1280
     7.2571   7.3005   7.8215   7.8254   7.8300   7.8501   7.9035   7.9155
     9.8131   9.8323  10.7832  10.8383  10.8510  10.8622  11.8679  11.9146
    11.9799  11.9842  12.3152  12.3158  12.3484  12.3485  13.0512  13.1085
    13.2636  13.2808  13.3134  13.4896  13.7094  13.7162  13.7252  13.8191
    15.0328  15.3713  15.3743  15.5022  15.5057  15.7577  16.1767  16.1767
    16.2341  16.8027  17.3308  17.4517  17.4530

          k = 0.1667 0.3150 0.3333 ( 62265 PWs)   bands (ev):

   -66.1623 -66.1621 -66.1618 -66.1616 -66.1614 -66.1612 -66.1609 -66.1607
   -30.5262 -30.5242 -30.5207 -30.5192 -30.5182 -30.5171 -30.5135 -30.5131
   -30.5054 -30.5025 -30.4972 -30.4942 -30.4897 -30.4889 -30.4854 -30.4852
   -30.4512 -30.4485 -30.4473 -30.4443 -30.4326 -30.4303 -30.4295 -30.4272
   -20.3188 -20.3188 -20.3187 -20.3187 -20.3187 -20.3187 -20.3187 -20.3186
   -20.2977 -20.2976 -20.2975 -20.2973 -20.2972 -20.2971 -20.2968 -20.2967
   -20.2965 -20.2964 -20.2962 -20.2961 -20.2958 -20.2957 -20.2955 -20.2954
   -20.2952 -20.2951 -20.2948 -20.2945 -20.2944 -20.2942 -20.2941 -20.2939
   -20.2878 -20.2875 -20.2874 -20.2870 -20.2868 -20.2865 -20.2862 -20.2859
   -20.2853 -20.2853 -20.2850 -20.2849 -20.2839 -20.2838 -20.2836 -20.2835
   -20.2817 -20.2814 -20.2812 -20.2809 -20.2805 -20.2804 -20.2800 -20.2799
    -9.6598  -9.5207  -9.4358  -9.3119  -9.1689  -9.0128  -8.8967  -8.8805
    -8.8043  -8.6573  -8.6093  -8.5919  -8.2599  -8.2543  -8.2049  -8.1248
    -8.1023  -8.0975  -8.0632  -8.0195  -7.8791  -7.8638  -7.8183  -7.8046
     1.4772   1.4818   1.4862   1.4903   2.1245   2.1769   2.2340   2.3519
     2.4021   2.5074   2.5179   2.6762   2.8097   2.8751   2.9623   3.0316
     3.1877   3.2492   3.6001   3.6104   3.6714   3.6988   3.8218   3.8943
     4.1060   4.3218   4.3948   4.4267   4.4758   4.5468   4.5923   4.6104
     4.6629   4.8173   4.8305   4.8995   4.9226   4.9621   5.1422   5.1532
     5.3236   5.3382   5.4877   5.6342   5.7399   5.8056   6.1128   6.1291
     6.5024   6.6039   6.6371   6.7607   6.7963   6.8298   6.9244   6.9560
     6.9794   7.0175   7.0473   7.0566   7.1039   7.1450   7.1879   7.2535
     7.3019   7.3593   7.7447   7.7500   7.7868   7.8184   7.8350   7.8734
    10.4391  10.4713  10.8334  10.8459  11.3116  11.3453  11.8652  11.8853
    11.8976  12.0428  12.1988  12.2208  12.4816  12.5608  12.6941  12.7508
    12.9436  13.1158  13.1836  13.3679  13.3931  13.4037  13.7224  13.7630
    15.2323  15.3531  15.7628  15.9235  15.9835  16.0492  16.1074  16.6805
    16.6905  16.8684  17.0512  17.5476  17.6832

          k = 0.1667 0.3150-0.5000 ( 62264 PWs)   bands (ev):

   -66.1620 -66.1620 -66.1618 -66.1618 -66.1612 -66.1612 -66.1610 -66.1610
   -30.5251 -30.5251 -30.5189 -30.5189 -30.5183 -30.5183 -30.5135 -30.5135
   -30.4929 -30.4929 -30.4922 -30.4922 -30.4743 -30.4743 -30.4725 -30.4725
   -30.4704 -30.4704 -30.4683 -30.4683 -30.4315 -30.4315 -30.4283 -30.4283
   -20.3188 -20.3188 -20.3187 -20.3187 -20.3187 -20.3187 -20.3187 -20.3187
   -20.2976 -20.2976 -20.2974 -20.2974 -20.2970 -20.2970 -20.2968 -20.2968
   -20.2963 -20.2963 -20.2960 -20.2960 -20.2958 -20.2958 -20.2957 -20.2957
   -20.2951 -20.2951 -20.2948 -20.2948 -20.2943 -20.2943 -20.2940 -20.2940
   -20.2876 -20.2876 -20.2872 -20.2872 -20.2860 -20.2860 -20.2859 -20.2859
   -20.2856 -20.2856 -20.2853 -20.2853 -20.2829 -20.2829 -20.2826 -20.2826
   -20.2825 -20.2825 -20.2823 -20.2823 -20.2805 -20.2805 -20.2799 -20.2799
    -9.5261  -9.5261  -9.3919  -9.3919  -8.9268  -8.9268  -8.7239  -8.7239
    -8.6356  -8.6356  -8.6088  -8.6087  -8.5044  -8.5044  -8.4391  -8.4391
    -8.1007  -8.1007  -8.0702  -8.0702  -7.8487  -7.8487  -7.8342  -7.8342
     1.4899   1.4899   1.4998   1.4998   2.3921   2.3921   2.5042   2.5042
     2.9371   2.9371   3.0139   3.0139   3.0341   3.0341   3.1980   3.1980
     3.2322   3.2322   3.3698   3.3698   3.3943   3.3943   3.6306   3.6306
     4.0803   4.0803   4.1005   4.1005   4.1352   4.1352   4.3760   4.3760
     4.7501   4.7501   4.8160   4.8160   5.0025   5.0025   5.0244   5.0244
     5.0911   5.0911   5.5501   5.5501   5.8385   5.8385   5.8620   5.8620
     6.6529   6.6529   6.7872   6.7872   6.8126   6.8126   6.8474   6.8474
     7.0073   7.0073   7.0639   7.0639   7.1761   7.1761   7.5262   7.5262
     7.5440   7.5440   7.5969   7.5969   7.6203   7.6203   7.8467   7.8467
    10.8195  10.8195  11.2065  11.2065  11.2497  11.2497  11.7879  11.7879
    12.0448  12.0448  12.1686  12.1686  12.5748  12.5748  12.6470  12.6470
    12.8265  12.8265  12.9481  12.9481  13.3411  13.3411  13.7373  13.7373
    15.3110  15.3110  15.9721  15.9721  16.3479  16.3479  16.4359  16.4359
    16.9471  16.9472  17.2818  17.2818  17.8773

          k = 0.1667-0.4725 0.1667 ( 62220 PWs)   bands (ev):

   -66.1623 -66.1623 -66.1615 -66.1615 -66.1615 -66.1615 -66.1607 -66.1606
   -30.5239 -30.5239 -30.5198 -30.5198 -30.5190 -30.5190 -30.5145 -30.5145
   -30.5030 -30.5030 -30.5023 -30.5023 -30.5017 -30.5017 -30.5012 -30.5012
   -30.4334 -30.4333 -30.4308 -30.4308 -30.4292 -30.4292 -30.4265 -30.4265
   -20.3188 -20.3188 -20.3187 -20.3187 -20.3187 -20.3187 -20.3186 -20.3186
   -20.2977 -20.2977 -20.2972 -20.2972 -20.2966 -20.2966 -20.2965 -20.2965
   -20.2960 -20.2960 -20.2960 -20.2960 -20.2957 -20.2957 -20.2956 -20.2956
   -20.2952 -20.2952 -20.2951 -20.2951 -20.2950 -20.2950 -20.2942 -20.2942
   -20.2878 -20.2878 -20.2873 -20.2873 -20.2870 -20.2870 -20.2866 -20.2866
   -20.2849 -20.2849 -20.2846 -20.2846 -20.2846 -20.2845 -20.2842 -20.2842
   -20.2807 -20.2807 -20.2804 -20.2804 -20.2801 -20.2801 -20.2799 -20.2798
    -9.7166  -9.7166  -9.3192  -9.3192  -9.3120  -9.3120  -9.0174  -9.0174
    -8.4653  -8.4653  -8.4001  -8.4000  -8.3994  -8.3993  -8.3881  -8.3881
    -7.8984  -7.8984  -7.8916  -7.8916  -7.8135  -7.8135  -7.7752  -7.7752
     1.3420   1.3420   1.4684   1.4684   1.4738   1.4738   1.7875   1.7875
     2.5576   2.5576   3.1689   3.1689   3.1956   3.1956   3.2423   3.2423
     3.2648   3.2648   3.3270   3.3270   3.5237   3.5237   3.5369   3.5369
     3.7360   3.7360   4.4140   4.4140   4.4531   4.4532   4.9672   4.9672
     5.0439   5.0440   5.1603   5.1604   5.1990   5.1990   5.4333   5.4333
     5.4703   5.4703   5.7248   5.7248   5.7524   5.7525   6.4313   6.4313
     6.4631   6.4631   6.5482   6.5482   6.6624   6.6625   6.8901   6.8902
     6.9042   6.9042   7.0742   7.0742   7.2181   7.2181   7.4684   7.4684
     7.4787   7.4787   7.4910   7.4910   7.5343   7.5343   7.9055   7.9055
     9.8248   9.8248  11.3341  11.3341  11.3886  11.3886  11.4227  11.4227
    11.4329  11.4329  12.3189  12.3189  12.3420  12.3420  13.0877  13.0877
    13.4538  13.4539  13.4663  13.4663  13.4811  13.4811  13.6238  13.6238
    15.5012  15.5012  15.6473  15.6473  15.8919  15.8919  15.9054  15.9054
    16.6155  16.6155  17.8950  17.9129  17.9135

          k = 0.1667-0.4725 0.3333 ( 62252 PWs)   bands (ev):

   -66.1622 -66.1622 -66.1617 -66.1617 -66.1613 -66.1613 -66.1608 -66.1608
   -30.5230 -30.5206 -30.5184 -30.5166 -30.5114 -30.5092 -30.5085 -30.5065
   -30.5041 -30.5030 -30.5029 -30.5023 -30.4949 -30.4948 -30.4927 -30.4916
   -30.4512 -30.4486 -30.4473 -30.4445 -30.4325 -30.4302 -30.4296 -30.4273
   -20.3188 -20.3188 -20.3187 -20.3187 -20.3187 -20.3187 -20.3187 -20.3186
   -20.2975 -20.2974 -20.2970 -20.2970 -20.2968 -20.2967 -20.2964 -20.2963
   -20.2962 -20.2962 -20.2960 -20.2959 -20.2958 -20.2957 -20.2956 -20.2956
   -20.2954 -20.2954 -20.2952 -20.2952 -20.2949 -20.2948 -20.2944 -20.2943
   -20.2877 -20.2875 -20.2874 -20.2871 -20.2867 -20.2865 -20.2861 -20.2860
   -20.2853 -20.2853 -20.2850 -20.2849 -20.2839 -20.2838 -20.2836 -20.2835
   -20.2816 -20.2813 -20.2813 -20.2810 -20.2805 -20.2804 -20.2801 -20.2799
    -9.5813  -9.5787  -9.3647  -9.3580  -9.0728  -9.0661  -8.8877  -8.8856
    -8.5164  -8.5153  -8.4372  -8.4355  -8.3830  -8.3817  -8.3796  -8.3794
    -8.1866  -8.1809  -8.1056  -8.1000  -7.8755  -7.8691  -7.8152  -7.8088
     1.4809   1.4843   1.4861   1.4905   2.1653   2.1701   2.3340   2.3383
     2.8251   2.8284   3.1683   3.1946   3.1994   3.2210   3.2237   3.2468
     3.2631   3.2744   3.3878   3.4236   3.4982   3.5281   3.6480   3.6523
     3.7591   3.7701   3.8290   3.8830   4.4803   4.5237   4.5716   4.5900
     4.6744   4.7254   4.7737   4.8059   4.9725   4.9834   5.0039   5.1002
     5.1741   5.2318   5.3195   5.4092   5.7488   5.7650   6.1235   6.1263
     6.5884   6.5957   6.7082   6.7266   6.8517   6.8608   6.9983   7.0380
     7.0519   7.0745   7.1761   7.1989   7.2209   7.2283   7.4385   7.4502
     7.4576   7.4775   7.4880   7.4992   7.5145   7.5254   7.8220   7.8230
    10.4596  10.4639  11.3640  11.3792  11.3988  11.4111  11.7536  11.7649
    11.7708  11.7907  11.8955  11.9447  12.4826  12.5356  12.8059  12.8390
    12.9649  12.9926  13.1607  13.2562  13.4652  13.4918  13.5122  13.5740
    15.6330  15.6543  15.8394  15.8583  16.2385  16.2679  16.6372  16.6639
    16.8259  16.8310  17.3864  17.4251  17.8623

          k = 0.1667-0.4725-0.5000 ( 62232 PWs)   bands (ev):

   -66.1619 -66.1619 -66.1619 -66.1619 -66.1611 -66.1611 -66.1611 -66.1611
   -30.5218 -30.5218 -30.5173 -30.5173 -30.5060 -30.5060 -30.5053 -30.5053
   -30.5047 -30.5047 -30.5038 -30.5038 -30.4749 -30.4749 -30.4728 -30.4728
   -30.4712 -30.4712 -30.4687 -30.4687 -30.4314 -30.4314 -30.4285 -30.4285
   -20.3188 -20.3188 -20.3187 -20.3187 -20.3187 -20.3187 -20.3187 -20.3187
   -20.2972 -20.2972 -20.2971 -20.2970 -20.2966 -20.2966 -20.2966 -20.2966
   -20.2960 -20.2960 -20.2960 -20.2960 -20.2957 -20.2957 -20.2956 -20.2956
   -20.2954 -20.2954 -20.2954 -20.2954 -20.2947 -20.2947 -20.2945 -20.2945
   -20.2876 -20.2876 -20.2872 -20.2872 -20.2860 -20.2860 -20.2859 -20.2859
   -20.2855 -20.2855 -20.2854 -20.2854 -20.2829 -20.2828 -20.2826 -20.2826
   -20.2826 -20.2826 -20.2823 -20.2823 -20.2804 -20.2804 -20.2800 -20.2800
    -9.4498  -9.4498  -9.4443  -9.4443  -8.7425  -8.7424  -8.7346  -8.7346
    -8.6378  -8.6378  -8.6314  -8.6314  -8.3601  -8.3601  -8.3500  -8.3499
    -8.3237  -8.3237  -8.3136  -8.3136  -7.8454  -7.8454  -7.8389  -7.8389
     1.4938   1.4938   1.4998   1.4998   2.9537   2.9538   2.9723   2.9723
     3.0883   3.0883   3.1137   3.1138   3.1850   3.1851   3.2243   3.2243
     3.2703   3.2703   3.3689   3.3689   3.4193   3.4193   3.4620   3.4620
     3.5957   3.5957   3.6588   3.6588   4.3243   4.3243   4.3379   4.3379
     4.4212   4.4212   4.4435   4.4436   4.8573   4.8573   5.0128   5.0128
     5.1619   5.1620   5.3047   5.3048   5.8404   5.8404   5.8514   5.8514
     6.7376   6.7377   6.7691   6.7691   6.8479   6.8479   6.8806   6.8806
     7.2903   7.2903   7.3230   7.3230   7.3662   7.3662   7.4100   7.4100
     7.4381   7.4382   7.4851   7.4851   7.6041   7.6041   7.6311   7.6312
    11.1803  11.1803  11.2113  11.2113  11.3891  11.3891  11.4461  11.4461
    12.2796  12.2796  12.3197  12.3197  12.3342  12.3342  12.3589  12.3589
    12.8054  12.8054  12.8767  12.8767  13.4786  13.4786  13.5246  13.5246
    15.7498  15.7498  15.7723  15.7723  16.8904  16.8905  16.9120  16.9120
    17.3710  17.3711  17.3896  17.3897  17.4577

          k = 0.3333 0.0000 0.3333 ( 62316 PWs)   bands (ev):

   -66.1622 -66.1618 -66.1617 -66.1617 -66.1613 -66.1613 -66.1612 -66.1608
   -30.5372 -30.5349 -30.5349 -30.5324 -30.5045 -30.5044 -30.5032 -30.4999
   -30.4978 -30.4966 -30.4960 -30.4936 -30.4770 -30.4743 -30.4742 -30.4713
   -30.4517 -30.4495 -30.4489 -30.4485 -30.4468 -30.4455 -30.4447 -30.4444
   -20.3188 -20.3188 -20.3187 -20.3187 -20.3187 -20.3187 -20.3187 -20.3186
   -20.2988 -20.2987 -20.2987 -20.2985 -20.2972 -20.2970 -20.2966 -20.2965
   -20.2964 -20.2963 -20.2961 -20.2960 -20.2959 -20.2957 -20.2955 -20.2954
   -20.2954 -20.2953 -20.2948 -20.2947 -20.2931 -20.2930 -20.2929 -20.2928
   -20.2876 -20.2872 -20.2870 -20.2870 -20.2866 -20.2865 -20.2857 -20.2857
   -20.2856 -20.2850 -20.2844 -20.2843 -20.2840 -20.2839 -20.2833 -20.2830
   -20.2822 -20.2816 -20.2815 -20.2815 -20.2811 -20.2808 -20.2808 -20.2805
    -9.6229  -9.3767  -9.3764  -9.2910  -9.1211  -9.0224  -9.0217  -8.8014
    -8.7856  -8.7547  -8.7358  -8.7353  -8.2726  -8.2068  -8.2014  -8.1957
    -8.1900  -8.1854  -8.0903  -8.0712  -7.7693  -7.7433  -7.7433  -7.7176
     1.5163   1.5600   1.5601   1.6058   2.0590   2.0693   2.1945   2.1965
     2.2272   2.2284   2.4448   2.5345   2.9014   2.9051   2.9357   2.9675
     3.1525   3.1862   3.7750   3.7855   3.8400   3.8487   4.0678   4.0705
     4.1507   4.1526   4.1875   4.3000   4.3582   4.3614   4.4825   4.5041
     4.8187   4.8307   4.9096   4.9393   5.0484   5.0535   5.1863   5.4329
     5.4360   5.4389   5.4437   5.6805   5.9180   5.9180   5.9277   6.0713
     6.4475   6.4809   6.4825   6.4959   6.4959   6.5469   6.5498   6.6431
     7.0104   7.1811   7.1838   7.1871   7.1945   7.2644   7.3480   7.3484
     7.3611   7.5007   7.7510   7.7569   7.9339   8.0000   8.0046   8.0458
    10.7249  10.8550  10.8914  10.8960  10.9242  11.1627  12.0604  12.0636
    12.1065  12.1098  12.2698  12.3537  12.5789  12.5810  12.7945  12.8000
    12.8069  12.8164  12.9442  13.0573  13.5915  13.6615  13.6618  13.7557
    14.4392  14.7167  14.7175  15.1954  15.7938  16.3866  16.4275  16.7700
    16.7773  17.2199  17.2266  17.7567  17.7801

          k = 0.3333 0.0000-0.5000 ( 62288 PWs)   bands (ev):

   -66.1619 -66.1619 -66.1615 -66.1615 -66.1615 -66.1614 -66.1611 -66.1611
   -30.5361 -30.5361 -30.5337 -30.5337 -30.5032 -30.5032 -30.4962 -30.4962
   -30.4843 -30.4843 -30.4818 -30.4818 -30.4726 -30.4726 -30.4710 -30.4710
   -30.4678 -30.4678 -30.4653 -30.4653 -30.4489 -30.4489 -30.4458 -30.4457
   -20.3188 -20.3188 -20.3187 -20.3187 -20.3187 -20.3187 -20.3187 -20.3187
   -20.2988 -20.2988 -20.2986 -20.2986 -20.2968 -20.2968 -20.2966 -20.2966
   -20.2962 -20.2962 -20.2960 -20.2960 -20.2958 -20.2958 -20.2957 -20.2957
   -20.2952 -20.2952 -20.2950 -20.2950 -20.2931 -20.2930 -20.2929 -20.2929
   -20.2873 -20.2873 -20.2869 -20.2869 -20.2863 -20.2863 -20.2861 -20.2861
   -20.2849 -20.2849 -20.2843 -20.2843 -20.2833 -20.2833 -20.2827 -20.2827
   -20.2825 -20.2825 -20.2821 -20.2821 -20.2814 -20.2814 -20.2808 -20.2807
    -9.4753  -9.4753  -9.2115  -9.2115  -9.1146  -9.1146  -8.7541  -8.7541
    -8.6550  -8.6550  -8.5734  -8.5733  -8.5246  -8.5246  -8.4917  -8.4917
    -8.1625  -8.1624  -8.1556  -8.1556  -7.7566  -7.7566  -7.7306  -7.7306
     1.5376   1.5376   1.5845   1.5845   2.2052   2.2052   2.2272   2.2272
     2.8828   2.8828   2.9619   2.9619   2.9975   2.9975   3.1522   3.1522
     3.2486   3.2486   3.5693   3.5693   3.6568   3.6568   3.7995   3.7995
     3.8852   3.8853   4.0432   4.0432   4.1693   4.1693   4.3321   4.3321
     4.6567   4.6567   4.8926   4.8926   4.9872   4.9873   5.0864   5.0864
     5.2750   5.2751   5.5470   5.5470   5.9494   5.9494   6.0366   6.0366
     6.3993   6.3993   6.4095   6.4095   6.4832   6.4832   6.5870   6.5870
     7.1776   7.1776   7.2671   7.2671   7.3695   7.3695   7.5603   7.5603
     7.5723   7.5724   7.7186   7.7186   7.7649   7.7649   8.0134   8.0134
    10.8855  10.8855  11.4353  11.4353  11.5029  11.5029  11.6708  11.6708
    11.8549  11.8549  12.3106  12.3106  12.4280  12.4280  12.6727  12.6727
    12.8155  12.8155  13.1917  13.1917  13.2279  13.2279  13.6727  13.6727
    14.6189  14.6189  15.0106  15.0106  16.2681  16.2681  16.8252  16.8252
    17.1873  17.1873  17.4659  17.4659  17.8936

          k = 0.3333 0.1575 0.3333 ( 62283 PWs)   bands (ev):

   -66.1622 -66.1618 -66.1617 -66.1617 -66.1613 -66.1613 -66.1612 -66.1608
   -30.5335 -30.5313 -30.5312 -30.5286 -30.5048 -30.5044 -30.5034 -30.4998
   -30.4978 -30.4966 -30.4962 -30.4935 -30.4805 -30.4777 -30.4775 -30.4747
   -30.4515 -30.4497 -30.4491 -30.4486 -30.4469 -30.4457 -30.4449 -30.4445
   -20.3188 -20.3188 -20.3187 -20.3187 -20.3187 -20.3187 -20.3187 -20.3186
   -20.2985 -20.2984 -20.2983 -20.2982 -20.2971 -20.2970 -20.2966 -20.2965
   -20.2965 -20.2963 -20.2961 -20.2960 -20.2958 -20.2957 -20.2955 -20.2954
   -20.2954 -20.2953 -20.2948 -20.2948 -20.2934 -20.2933 -20.2933 -20.2931
   -20.2875 -20.2872 -20.2870 -20.2870 -20.2866 -20.2866 -20.2857 -20.2857
   -20.2856 -20.2850 -20.2843 -20.2843 -20.2840 -20.2839 -20.2833 -20.2830
   -20.2822 -20.2816 -20.2815 -20.2814 -20.2810 -20.2809 -20.2808 -20.2805
    -9.5862  -9.3309  -9.3305  -9.3023  -9.0505  -9.0309  -9.0303  -8.8005
    -8.7862  -8.7165  -8.7075  -8.7070  -8.2873  -8.2041  -8.2037  -8.1993
    -8.1884  -8.1859  -8.0891  -8.0725  -7.8627  -7.8381  -7.8380  -7.8127
     1.7417   1.7783   1.7784   1.8297   2.0597   2.0688   2.1939   2.1955
[...]
   -20.4031 -20.4031 -20.4029 -20.4029 -20.4018 -20.4018 -20.4017 -20.4017
   -20.3944 -20.3944 -20.3942 -20.3942 -20.3937 -20.3937 -20.3936 -20.3936
   -20.3919 -20.3919 -20.3915 -20.3915 -20.3903 -20.3903 -20.3900 -20.3899
   -20.3898 -20.3898 -20.3895 -20.3895 -20.3886 -20.3886 -20.3882 -20.3882
    -9.3902  -9.3902  -9.1883  -9.1883  -9.0876  -9.0876  -8.7538  -8.7538
    -8.7140  -8.7140  -8.6080  -8.6080  -8.5495  -8.5495  -8.5133  -8.5133
    -8.2556  -8.2556  -8.2103  -8.2103  -8.1945  -8.1945  -8.1399  -8.1399
     2.1020   2.1020   2.1721   2.1721   2.2770   2.2770   2.3933   2.3933
     2.9393   2.9394   2.9923   2.9923   3.0752   3.0752   3.1410   3.1410
     3.2268   3.2268   3.5094   3.5094   3.6191   3.6191   3.6942   3.6942
     3.9856   3.9856   4.0200   4.0200   4.0522   4.0522   4.1770   4.1771
     4.2478   4.2478   4.3831   4.3831   4.5365   4.5365   4.7721   4.7721
     4.8702   4.8702   4.9231   4.9231   4.9586   4.9586   5.2114   5.2114
     6.7857   6.7857   6.8361   6.8361   6.8897   6.8897   6.9521   6.9521
     7.1023   7.1023   7.1853   7.1854   7.3186   7.3186   7.4373   7.4373
     7.4717   7.4717   7.5494   7.5494   7.5707   7.5707   7.7090   7.7090
    11.1488  11.1488  11.3460  11.3460  11.4339  11.4339  11.7849  11.7849
    11.9626  11.9626  12.2129  12.2129  12.2592  12.2592  12.2895  12.2895
    12.6134  12.6134  12.7028  12.7028  12.7858  12.7858  13.2121  13.2121
    15.7452  15.7452  16.2814  16.2814  16.5223  16.5224  16.5926  16.5926
    17.0112  17.0112  17.2480  17.2480  17.5114

          k = 0.3320-0.4739 0.3320 ( 62548 PWs)   bands (ev):

   -66.2646 -66.2646 -66.2641 -66.2641 -66.2641 -66.2641 -66.2637 -66.2636
   -30.6200 -30.6200 -30.6182 -30.6182 -30.6178 -30.6178 -30.6158 -30.6158
   -30.5834 -30.5834 -30.5810 -30.5810 -30.5805 -30.5805 -30.5776 -30.5776
   -30.5361 -30.5361 -30.5347 -30.5347 -30.5325 -30.5325 -30.5310 -30.5310
   -20.4264 -20.4264 -20.4263 -20.4263 -20.4263 -20.4263 -20.4263 -20.4263
   -20.4051 -20.4051 -20.4047 -20.4047 -20.4044 -20.4044 -20.4042 -20.4042
   -20.4039 -20.4039 -20.4039 -20.4039 -20.4035 -20.4035 -20.4035 -20.4034
   -20.4031 -20.4031 -20.4029 -20.4029 -20.4027 -20.4027 -20.4024 -20.4024
   -20.3946 -20.3946 -20.3941 -20.3941 -20.3939 -20.3939 -20.3932 -20.3932
   -20.3923 -20.3923 -20.3914 -20.3914 -20.3913 -20.3913 -20.3906 -20.3905
   -20.3891 -20.3891 -20.3886 -20.3886 -20.3883 -20.3883 -20.3881 -20.3881
    -9.4392  -9.4392  -9.1644  -9.1644  -9.1586  -9.1586  -8.8191  -8.8191
    -8.6898  -8.6897  -8.5193  -8.5193  -8.5173  -8.5173  -8.4925  -8.4924
    -8.2249  -8.2249  -8.2166  -8.2166  -8.2140  -8.2140  -8.1284  -8.1283
     2.0444   2.0444   2.1481   2.1481   2.1535   2.1535   2.3768   2.3769
     3.0490   3.0490   3.1101   3.1101   3.1368   3.1368   3.1571   3.1571
     3.2435   3.2435   3.4203   3.4203   3.5162   3.5162   3.5549   3.5549
     3.6806   3.6806   4.0047   4.0047   4.1144   4.1144   4.3576   4.3576
     4.4481   4.4481   4.5611   4.5611   4.6259   4.6260   4.6830   4.6830
     4.7918   4.7918   4.8787   4.8787   4.8894   4.8894   5.3997   5.3997
     6.8664   6.8664   6.9678   6.9678   6.9960   6.9960   7.0801   7.0801
     7.1248   7.1248   7.1739   7.1739   7.2105   7.2105   7.3313   7.3313
     7.3885   7.3885   7.4389   7.4389   7.4648   7.4649   7.7095   7.7095
    10.7639  10.7639  11.5879  11.5879  11.6246  11.6246  11.6743  11.6743
    11.7650  11.7650  11.9581  11.9581  12.0714  12.0714  12.5419  12.5419
    12.8239  12.8239  12.8609  12.8609  12.9080  12.9080  13.1035  13.1035
    16.1834  16.1834  16.2626  16.2626  16.4380  16.4380  16.4820  16.4820
    16.9046  16.9047  17.3954  17.3955  17.4794

          k = 0.3320-0.4739-0.4980 ( 62552 PWs)   bands (ev):

   -66.2643 -66.2643 -66.2643 -66.2643 -66.2639 -66.2639 -66.2639 -66.2639
   -30.6192 -30.6192 -30.6189 -30.6189 -30.6171 -30.6171 -30.6169 -30.6169
   -30.5819 -30.5819 -30.5795 -30.5795 -30.5595 -30.5595 -30.5574 -30.5574
   -30.5570 -30.5570 -30.5545 -30.5545 -30.5349 -30.5349 -30.5321 -30.5321
   -20.4263 -20.4263 -20.4263 -20.4263 -20.4263 -20.4263 -20.4263 -20.4263
   -20.4049 -20.4049 -20.4048 -20.4048 -20.4043 -20.4043 -20.4042 -20.4042
   -20.4040 -20.4040 -20.4039 -20.4039 -20.4035 -20.4035 -20.4035 -20.4035
   -20.4030 -20.4030 -20.4030 -20.4030 -20.4026 -20.4026 -20.4026 -20.4026
   -20.3944 -20.3944 -20.3942 -20.3942 -20.3936 -20.3936 -20.3936 -20.3936
   -20.3917 -20.3917 -20.3917 -20.3917 -20.3902 -20.3902 -20.3901 -20.3901
   -20.3897 -20.3897 -20.3896 -20.3896 -20.3885 -20.3885 -20.3883 -20.3883
    -9.2690  -9.2690  -9.2648  -9.2648  -8.8757  -8.8757  -8.8697  -8.8697
    -8.6284  -8.6284  -8.6230  -8.6230  -8.4619  -8.4619  -8.4533  -8.4532
    -8.4245  -8.4245  -8.4165  -8.4165  -8.1941  -8.1941  -8.1879  -8.1879
     2.1604   2.1604   2.1664   2.1664   2.9022   2.9022   2.9174   2.9174
     3.0145   3.0145   3.0228   3.0228   3.1671   3.1671   3.1935   3.1935
     3.2770   3.2770   3.3039   3.3039   3.5402   3.5402   3.5552   3.5552
     3.6809   3.6809   3.7223   3.7223   4.1945   4.1945   4.2210   4.2210
     4.2690   4.2690   4.3211   4.3212   4.3878   4.3878   4.4883   4.4883
     4.5841   4.5842   4.7295   4.7296   4.9639   4.9639   4.9773   4.9773
     6.9641   6.9641   6.9956   6.9956   7.1016   7.1016   7.1093   7.1093
     7.2114   7.2114   7.2416   7.2416   7.2623   7.2623   7.3204   7.3204
     7.4119   7.4119   7.4648   7.4648   7.5538   7.5538   7.5752   7.5752
    11.3114  11.3114  11.3411  11.3411  11.6606  11.6606  11.7252  11.7252
    12.0998  12.0998  12.1535  12.1535  12.2417  12.2417  12.2562  12.2562
    12.4011  12.4011  12.5052  12.5052  12.8923  12.8923  12.9665  12.9665
    16.3448  16.3448  16.3929  16.3929  16.9613  16.9613  16.9755  16.9755
    17.2514  17.2514  17.3185  17.3185  17.3309

          k =-0.4980 0.0000-0.4980 ( 62740 PWs)   bands (ev):

   -66.2643 -66.2643 -66.2643 -66.2643 -66.2639 -66.2639 -66.2639 -66.2639
   -30.6476 -30.6476 -30.6476 -30.6476 -30.5897 -30.5897 -30.5896 -30.5895
   -30.5605 -30.5605 -30.5603 -30.5603 -30.5585 -30.5585 -30.5574 -30.5574
   -30.5557 -30.5557 -30.5544 -30.5544 -30.5538 -30.5538 -30.5537 -30.5536
   -20.4264 -20.4264 -20.4264 -20.4263 -20.4263 -20.4263 -20.4263 -20.4263
   -20.4064 -20.4064 -20.4064 -20.4064 -20.4045 -20.4045 -20.4044 -20.4044
   -20.4042 -20.4042 -20.4042 -20.4042 -20.4035 -20.4034 -20.4033 -20.4033
   -20.4033 -20.4033 -20.4032 -20.4032 -20.4005 -20.4005 -20.4004 -20.4004
   -20.3941 -20.3941 -20.3941 -20.3941 -20.3939 -20.3939 -20.3939 -20.3939
   -20.3911 -20.3911 -20.3910 -20.3910 -20.3903 -20.3903 -20.3902 -20.3902
   -20.3896 -20.3896 -20.3896 -20.3896 -20.3890 -20.3890 -20.3890 -20.3889
    -9.4219  -9.4218  -9.4215  -9.4215  -8.8503  -8.8502  -8.8483  -8.8483
    -8.6509  -8.6509  -8.6479  -8.6479  -8.4947  -8.4947  -8.4925  -8.4925
    -8.4734  -8.4734  -8.4703  -8.4703  -7.8600  -7.8600  -7.8600  -7.8600
     1.4190   1.4190   1.4192   1.4192   2.8217   2.8217   2.8235   2.8235
     2.9783   2.9783   2.9830   2.9830   3.0113   3.0113   3.0190   3.0190
     3.2257   3.2258   3.2259   3.2259   3.7350   3.7350   3.7605   3.7605
     3.7637   3.7637   3.7913   3.7913   4.1030   4.1030   4.1042   4.1042
     4.1941   4.1941   4.1977   4.1977   4.8561   4.8561   4.8573   4.8573
     5.3218   5.3218   5.3234   5.3234   5.9157   5.9157   5.9159   5.9159
     6.2721   6.2722   6.2728   6.2728   6.3654   6.3654   6.3672   6.3672
     7.4103   7.4103   7.4119   7.4119   7.4370   7.4371   7.4413   7.4413
     7.5477   7.5477   7.5493   7.5493   7.7578   7.7578   7.7624   7.7624
    11.4779  11.4779  11.4879  11.4879  11.5222  11.5222  11.5304  11.5304
    11.8526  11.8526  11.8548  11.8548  12.0311  12.0311  12.0320  12.0320
    13.0332  13.0332  13.0365  13.0366  13.1895  13.1895  13.1927  13.1927
    14.8046  14.8046  14.8051  14.8051  16.6196  16.6196  16.6241  16.6241
    17.6519  17.6519  17.6521  17.6521  17.7697

          k =-0.4980 0.1580-0.4980 ( 62676 PWs)   bands (ev):

   -66.2643 -66.2643 -66.2643 -66.2643 -66.2639 -66.2639 -66.2639 -66.2639
   -30.6436 -30.6436 -30.6436 -30.6436 -30.5933 -30.5933 -30.5932 -30.5932
   -30.5603 -30.5603 -30.5602 -30.5602 -30.5586 -30.5586 -30.5576 -30.5576
   -30.5557 -30.5557 -30.5545 -30.5545 -30.5541 -30.5541 -30.5539 -30.5539
   -20.4264 -20.4264 -20.4263 -20.4263 -20.4263 -20.4263 -20.4263 -20.4263
   -20.4061 -20.4060 -20.4060 -20.4060 -20.4045 -20.4044 -20.4044 -20.4044
   -20.4042 -20.4042 -20.4042 -20.4042 -20.4034 -20.4034 -20.4034 -20.4034
   -20.4033 -20.4033 -20.4032 -20.4032 -20.4008 -20.4008 -20.4008 -20.4008
   -20.3941 -20.3941 -20.3941 -20.3941 -20.3939 -20.3939 -20.3939 -20.3939
   -20.3910 -20.3910 -20.3910 -20.3910 -20.3903 -20.3903 -20.3903 -20.3903
   -20.3895 -20.3895 -20.3895 -20.3895 -20.3890 -20.3890 -20.3890 -20.3890
    -9.3605  -9.3605  -9.3602  -9.3602  -8.8633  -8.8633  -8.8614  -8.8614
    -8.6361  -8.6361  -8.6330  -8.6330  -8.4938  -8.4938  -8.4916  -8.4916
    -8.4742  -8.4742  -8.4709  -8.4709  -7.9570  -7.9570  -7.9569  -7.9569
     1.6539   1.6539   1.6541   1.6541   2.8399   2.8399   2.8422   2.8422
     2.9910   2.9910   2.9951   2.9951   3.0285   3.0285   3.0362   3.0362
     3.2155   3.2156   3.2159   3.2159   3.7773   3.7773   3.7995   3.7995
     3.8103   3.8103   3.8346   3.8346   4.0954   4.0954   4.0966   4.0966
     4.1956   4.1956   4.1992   4.1992   4.6290   4.6291   4.6300   4.6300
     5.0701   5.0701   5.0712   5.0712   5.6479   5.6479   5.6481   5.6481
     6.5081   6.5081   6.5105   6.5105   6.5205   6.5205   6.5221   6.5221
     7.4002   7.4002   7.4022   7.4022   7.4277   7.4277   7.4325   7.4325
     7.5319   7.5319   7.5327   7.5327   7.7242   7.7243   7.7276   7.7276
    11.5271  11.5271  11.5346  11.5346  11.5784  11.5784  11.5845  11.5845
    11.8625  11.8625  11.8645  11.8645  12.0573  12.0573  12.0581  12.0581
    12.9064  12.9064  12.9095  12.9095  13.0705  13.0705  13.0733  13.0733
    15.1921  15.1921  15.1926  15.1926  16.6862  16.6863  16.6904  16.6904
    17.5806  17.5806  17.5831  17.5831  17.7724

          k =-0.4980 0.3159-0.4980 ( 62624 PWs)   bands (ev):

   -66.2642 -66.2642 -66.2642 -66.2642 -66.2640 -66.2640 -66.2640 -66.2640
   -30.6328 -30.6328 -30.6328 -30.6328 -30.6036 -30.6036 -30.6035 -30.6035
   -30.5599 -30.5599 -30.5597 -30.5597 -30.5589 -30.5589 -30.5583 -30.5583
   -30.5556 -30.5556 -30.5548 -30.5548 -30.5547 -30.5546 -30.5546 -30.5546
   -20.4263 -20.4263 -20.4263 -20.4263 -20.4263 -20.4263 -20.4263 -20.4263
   -20.4052 -20.4052 -20.4051 -20.4051 -20.4044 -20.4044 -20.4044 -20.4044
   -20.4042 -20.4042 -20.4041 -20.4041 -20.4035 -20.4035 -20.4034 -20.4034
   -20.4033 -20.4032 -20.4031 -20.4031 -20.4018 -20.4018 -20.4017 -20.4017
   -20.3940 -20.3940 -20.3940 -20.3940 -20.3939 -20.3939 -20.3939 -20.3939
   -20.3909 -20.3909 -20.3909 -20.3909 -20.3905 -20.3905 -20.3905 -20.3905
   -20.3894 -20.3894 -20.3894 -20.3894 -20.3891 -20.3891 -20.3891 -20.3891
    -9.2009  -9.2009  -9.2003  -9.2003  -8.9112  -8.9111  -8.9096  -8.9096
    -8.5814  -8.5814  -8.5778  -8.5778  -8.4916  -8.4916  -8.4898  -8.4898
    -8.4750  -8.4750  -8.4711  -8.4711  -8.1907  -8.1907  -8.1905  -8.1905
     2.2802   2.2802   2.2804   2.2804   2.8825   2.8825   2.8861   2.8861
     2.9796   2.9796   2.9801   2.9801   3.1178   3.1178   3.1243   3.1243
     3.1765   3.1765   3.1786   3.1786   3.8967   3.8967   3.9082   3.9082
     3.9293   3.9293   3.9329   3.9330   4.0025   4.0025   4.0127   4.0127
     4.2094   4.2094   4.2158   4.2158   4.2445   4.2445   4.2455   4.2455
     4.6497   4.6497   4.6499   4.6499   4.9584   4.9584   4.9590   4.9590
     6.8456   6.8457   6.8489   6.8490   6.9230   6.9230   6.9258   6.9258
     7.3376   7.3376   7.3388   7.3388   7.3902   7.3902   7.3945   7.3945
     7.5092   7.5092   7.5093   7.5093   7.6280   7.6280   7.6298   7.6298
    11.6382  11.6382  11.6400  11.6400  11.6938  11.6938  11.6956  11.6956
    11.9380  11.9380  11.9386  11.9386  12.1641  12.1641  12.1650  12.1650
    12.5888  12.5888  12.5911  12.5911  12.7706  12.7706  12.7724  12.7724
    16.1377  16.1377  16.1382  16.1382  16.8755  16.8755  16.8784  16.8784
    17.3674  17.3675  17.3732  17.3732  17.7769

          k =-0.4980-0.4739-0.4980 ( 62568 PWs)   bands (ev):

   -66.2641 -66.2641 -66.2641 -66.2641 -66.2641 -66.2641 -66.2641 -66.2641
   -30.6183 -30.6183 -30.6181 -30.6181 -30.6181 -30.6180 -30.6179 -30.6179
   -30.5594 -30.5594 -30.5594 -30.5593 -30.5591 -30.5591 -30.5589 -30.5589
   -30.5553 -30.5553 -30.5551 -30.5551 -30.5549 -30.5549 -30.5549 -30.5549
   -20.4263 -20.4263 -20.4263 -20.4263 -20.4263 -20.4263 -20.4263 -20.4263
   -20.4046 -20.4046 -20.4045 -20.4045 -20.4044 -20.4044 -20.4044 -20.4044
   -20.4040 -20.4040 -20.4040 -20.4040 -20.4036 -20.4036 -20.4036 -20.4036
   -20.4029 -20.4029 -20.4029 -20.4029 -20.4027 -20.4027 -20.4027 -20.4027
   -20.3940 -20.3940 -20.3940 -20.3940 -20.3940 -20.3940 -20.3940 -20.3939
   -20.3907 -20.3907 -20.3907 -20.3907 -20.3907 -20.3907 -20.3906 -20.3906
   -20.3893 -20.3893 -20.3893 -20.3893 -20.3893 -20.3893 -20.3893 -20.3893
    -9.0260  -9.0260  -9.0214  -9.0214  -9.0214  -9.0214  -9.0189  -9.0189
    -8.4999  -8.4999  -8.4948  -8.4948  -8.4948  -8.4948  -8.4925  -8.4925
    -8.4245  -8.4244  -8.4222  -8.4222  -8.4222  -8.4222  -8.4149  -8.4149
     2.8962   2.8963   2.8997   2.8998   2.8998   2.8998   2.9067   2.9067
     3.0201   3.0202   3.0293   3.0294   3.0294   3.0294   3.0386   3.0386
     3.3247   3.3248   3.3570   3.3570   3.3570   3.3570   3.3829   3.3829
     4.0650   4.0650   4.0745   4.0745   4.0745   4.0745   4.0812   4.0812
     4.2924   4.2924   4.2924   4.2924   4.2940   4.2940   4.2970   4.2971
     4.3809   4.3810   4.3902   4.3902   4.3902   4.3902   4.3951   4.3951
     7.1054   7.1054   7.1389   7.1390   7.1390   7.1390   7.1783   7.1783
     7.2526   7.2526   7.2566   7.2566   7.2566   7.2566   7.2574   7.2574
     7.5236   7.5236   7.5323   7.5323   7.5323   7.5323   7.5427   7.5427
    11.7124  11.7124  11.7141  11.7141  11.7141  11.7141  11.7174  11.7174
    12.1666  12.1666  12.1980  12.1980  12.1980  12.1980  12.2344  12.2344
    12.4149  12.4150  12.4326  12.4326  12.4326  12.4326  12.4458  12.4458
    17.0365  17.0365  17.0525  17.0526  17.0526  17.0526  17.0703  17.0703
    17.3196  17.3197  17.3201  17.3202  17.3202

     the Fermi energy is     8.9832 ev

!    total energy              =   -6261.10711477 Ry
     Harris-Foulkes estimate   =   -6261.10711477 Ry
     estimated scf accuracy    <          5.5E-11 Ry

     The total energy is the sum of the following terms:

     one-electron contribution =   -4743.32335292 Ry
     hartree contribution      =    2607.20259896 Ry
     xc contribution           =    -965.67746160 Ry
     ewald contribution        =   -3159.30889922 Ry
     smearing contrib. (-TS)   =      -0.00000000 Ry

     convergence has been achieved in  14 iterations

     Forces acting on atoms (cartesian axes, Ry/au):

     atom    1 type  1   force =     0.00148410    0.00184617    0.00016519
     atom    2 type  1   force =    -0.00016519   -0.00184617    0.00148410
     atom    3 type  1   force =    -0.00148410   -0.00184617    0.00016519
     atom    4 type  1   force =     0.00016519    0.00184617    0.00148410
     atom    5 type  1   force =    -0.00148410    0.00184617   -0.00016519
     atom    6 type  1   force =     0.00016519   -0.00184617   -0.00148410
     atom    7 type  1   force =     0.00148410   -0.00184617   -0.00016519
     atom    8 type  1   force =    -0.00016519    0.00184617   -0.00148410
     atom    9 type  2   force =     0.00013573   -0.01144352   -0.00009840
     atom   10 type  2   force =     0.00009840    0.01144352    0.00013573
     atom   11 type  2   force =    -0.00013573    0.01144352   -0.00009840
     atom   12 type  2   force =    -0.00009840   -0.01144352    0.00013573
     atom   13 type  2   force =    -0.00013573   -0.01144352    0.00009840
     atom   14 type  2   force =    -0.00009840    0.01144352   -0.00013573
     atom   15 type  2   force =     0.00013573    0.01144352    0.00009840
     atom   16 type  2   force =     0.00009840   -0.01144352   -0.00013573
     atom   17 type  2   force =     0.00076614    0.00046960   -0.00125413
     atom   18 type  2   force =     0.00007896    0.00015924    0.00124502
     atom   19 type  2   force =    -0.00076614   -0.00046960   -0.00125413
     atom   20 type  2   force =    -0.00007896   -0.00015924    0.00124502
     atom   21 type  2   force =    -0.00076614    0.00046960    0.00125413
     atom   22 type  2   force =    -0.00007896    0.00015924   -0.00124502
     atom   23 type  2   force =     0.00076614   -0.00046960    0.00125413
     atom   24 type  2   force =     0.00007896   -0.00015924   -0.00124502
     atom   25 type  2   force =    -0.00124502    0.00015924   -0.00007896
     atom   26 type  2   force =     0.00125413   -0.00046960    0.00076614
     atom   27 type  2   force =     0.00124502   -0.00015924   -0.00007896
     atom   28 type  2   force =    -0.00125413    0.00046960    0.00076614
     atom   29 type  2   force =     0.00124502    0.00015924    0.00007896
     atom   30 type  2   force =    -0.00125413   -0.00046960   -0.00076614
     atom   31 type  2   force =    -0.00124502   -0.00015924    0.00007896
     atom   32 type  2   force =     0.00125413    0.00046960   -0.00076614

     Total force =     0.000000     Total SCF correction =     0.000000


     Computing stress (Cartesian axis) and pressure

          total   stress  (Ry/bohr**3)                   (kbar)     P=    0.12
   0.00000126   0.00000000   0.00000000          0.19      0.00      0.00
   0.00000000  -0.00000013   0.00000000          0.00     -0.02      0.00
   0.00000000   0.00000000   0.00000126          0.00      0.00      0.19


     Writing output data file Landau_4.save
 
     init_run     :     61.77s CPU     63.82s WALL (       2 calls)
     electrons    :   6216.05s CPU   6351.39s WALL (       6 calls)
     update_pot   :     94.65s CPU     95.04s WALL (       4 calls)
     forces       :    144.37s CPU    146.97s WALL (       6 calls)
     stress       :    694.10s CPU    707.03s WALL (       6 calls)

     Called by init_run:
     wfcinit      :     42.78s CPU     44.50s WALL (       2 calls)
     potinit      :      7.81s CPU      7.90s WALL (       2 calls)

     Called by electrons:
     c_bands      :   5568.61s CPU   5693.75s WALL (      88 calls)
     sum_band     :    586.87s CPU    591.93s WALL (      88 calls)
     v_of_rho     :      9.10s CPU      9.30s WALL (      92 calls)
     mix_rho      :     14.36s CPU     17.99s WALL (      88 calls)

     Called by c_bands:
     init_us_2    :     25.53s CPU     28.53s WALL (     178 calls)
     cegterg      :   4810.08s CPU   4932.45s WALL (      88 calls)

     Called by sum_band:

     Called by *egterg:
     h_psi        :   3445.89s CPU   3469.43s WALL (     318 calls)
     g_psi        :      5.13s CPU      5.18s WALL (     228 calls)
     cdiaghg      :     51.11s CPU     51.34s WALL (     310 calls)

     Called by h_psi:
     h_psi:pot    :   3432.66s CPU   3455.76s WALL (     318 calls)
     h_psi:calbec :    558.06s CPU    569.83s WALL (     318 calls)
     vloc_psi     :   2300.57s CPU   2307.97s WALL (     318 calls)
     add_vuspsi   :    574.02s CPU    577.95s WALL (     318 calls)

     General routines
     calbec       :    636.38s CPU    649.30s WALL (     348 calls)
     fft          :      9.07s CPU      9.12s WALL (     418 calls)
     fftw         :   2502.23s CPU   2509.12s WALL (  112550 calls)
 
     Parallel routines
 
     PWSCF        :     2h 0m CPU        2h 2m WALL

 
   This run was terminated on:  19:21: 6  28Feb2020            

=------------------------------------------------------------------------------=
   JOB DONE.
=------------------------------------------------------------------------------=
