
     Program PWSCF v.6.4.1 starts on  3Dec2019 at 16: 7:49 

     This program is part of the open-source Quantum ESPRESSO suite
     for quantum simulation of materials; please cite
         "P. Giannozzi et al., J. Phys.:Condens. Matter 21 395502 (2009);
         "P. Giannozzi et al., J. Phys.:Condens. Matter 29 465901 (2017);
          URL http://www.quantum-espresso.org", 
     in publications or presentations arising from this work. More details at
     http://www.quantum-espresso.org/quote

     Parallel version (MPI), running on    40 processors

     MPI processes distributed on     8 nodes
     K-points division:     npool     =      40
     Reading input from scf.in

     Current dimensions of program PWSCF are:
     Max number of different atomic species (ntypx) = 10
     Max number of k-points (npk) =  40000
     Max angular momentum in pseudopotentials (lmaxx) =  3

     Subspace diagonalization in iterative solution of the eigenvalue problem:
     a serial algorithm will be used

     Message from routine setup:
     using ibrav=0 with symmetry is DISCOURAGED, use correct ibrav instead
 
     G-vector sticks info
     --------------------
     sticks:   dense  smooth     PW     G-vecs:    dense   smooth      PW
     Sum        3761    3761   1009               252445   252445   35589
 


     bravais-lattice index     =            0
     lattice parameter (alat)  =       9.9244  a.u.
     unit-cell volume          =    1421.2455 (a.u.)^3
     number of atoms/cell      =           16
     number of atomic types    =            2
     number of electrons       =       184.15
     number of Kohn-Sham states=          110
     kinetic-energy cutoff     =     120.0000  Ry
     charge density cutoff     =     480.0000  Ry
     convergence threshold     =      1.0E-08
     mixing beta               =       0.7000
     number of iterations used =            8  plain     mixing
     Exchange-correlation      = SLA PW NOGX NOGC ( 1  4  0  0 0 0)

     celldm(1)=   9.924367  celldm(2)=   0.000000  celldm(3)=   0.000000
     celldm(4)=   0.000000  celldm(5)=   0.000000  celldm(6)=   0.000000

     crystal axes: (cart. coord. in units of alat)
               a(1) = (   1.000000   0.000000   0.000000 )  
               a(2) = (   0.000000   1.000000   0.000000 )  
               a(3) = (   0.000000   0.000000   1.453988 )  

     reciprocal axes: (cart. coord. in units 2 pi/alat)
               b(1) = (  1.000000  0.000000  0.000000 )  
               b(2) = (  0.000000  1.000000  0.000000 )  
               b(3) = (  0.000000  0.000000  0.687764 )  


     PseudoPot. # 1 for W  read from file:
     /cluster/scratch/mnoe/QE/pps/W_ONCV_LDA-4.0.upf
     MD5 check sum: ba0307d5d4cd419d6f1d13dc49d7c13a
     Pseudo is Norm-conserving + core correction, Zval = 28.0
     Generated using ONCVPSP code by D. R. Hamann
     Using radial grid of 1380 points,  8 beta functions with: 
                l(1) =   0
                l(2) =   0
                l(3) =   1
                l(4) =   1
                l(5) =   2
                l(6) =   2
                l(7) =   3
                l(8) =   3

     PseudoPot. # 2 for O  read from file:
     /cluster/scratch/mnoe/QE/pps/O_ONCV_LDA-3.0.upf
     MD5 check sum: b55cdb4f45ae2203d24ad12cf8d61a31
     Pseudo is Norm-conserving + core correction, Zval =  6.0
     Generated using ONCVPSP code by D. R. Hamann
     Using radial grid of  926 points,  5 beta functions with: 
                l(1) =   0
                l(2) =   0
                l(3) =   1
                l(4) =   1
                l(5) =   2

     atomic species   valence    mass     pseudopotential
        W             28.00   183.84000     W ( 1.00)
        O              6.00    15.99940     O ( 1.00)

     16 Sym. Ops., with inversion, found (14 have fractional translation)



   Cartesian axes

     site n.     atom                  positions (alat units)
         1           W   tau(   1) = (   0.2500000   0.2500000   0.3028287  )
         2           W   tau(   2) = (   0.7500000   0.7500000   1.1511589  )
         3           W   tau(   3) = (   0.7500000   0.7500000   0.4241651  )
         4           W   tau(   4) = (   0.2500000   0.2500000   1.0298224  )
         5           O   tau(   5) = (   0.2500000   0.2500000   0.6877920  )
         6           O   tau(   6) = (   0.7500000   0.7500000   0.7661955  )
         7           O   tau(   7) = (   0.7500000   0.7500000   0.0392017  )
         8           O   tau(   8) = (   0.2500000   0.2500000   1.4147858  )
         9           O   tau(   9) = (   0.5003170   0.4996830   0.3634969  )
        10           O   tau(  10) = (   0.4996830   0.5003170   1.0904906  )
        11           O   tau(  11) = (  -0.0003170   1.0003170   0.3634969  )
        12           O   tau(  12) = (   1.0003169  -0.0003169   1.0904906  )
        13           O   tau(  13) = (   1.0003170   0.5003170   0.3634969  )
        14           O   tau(  14) = (  -0.0003169   0.4996830   1.0904906  )
        15           O   tau(  15) = (   0.4996830  -0.0003170   0.3634969  )
        16           O   tau(  16) = (   0.5003170   1.0003169   1.0904906  )

     number of k points=    60  gaussian smearing, width (Ry)=  0.0007
                       cart. coord. in units 2pi/alat
        k(    1) = (   0.0000000   0.0000000   0.0000000), wk =   0.0041152
        k(    2) = (   0.0000000   0.0000000   0.1146273), wk =   0.0082305
        k(    3) = (   0.0000000   0.0000000   0.2292546), wk =   0.0082305
        k(    4) = (   0.0000000   0.0000000  -0.3438819), wk =   0.0041152
        k(    5) = (   0.0000000   0.1111111   0.0000000), wk =   0.0164609
        k(    6) = (   0.0000000   0.1111111   0.1146273), wk =   0.0329218
        k(    7) = (   0.0000000   0.1111111   0.2292546), wk =   0.0329218
        k(    8) = (   0.0000000   0.1111111  -0.3438819), wk =   0.0164609
        k(    9) = (   0.0000000   0.2222222   0.0000000), wk =   0.0164609
        k(   10) = (   0.0000000   0.2222222   0.1146273), wk =   0.0329218
        k(   11) = (   0.0000000   0.2222222   0.2292546), wk =   0.0329218
        k(   12) = (   0.0000000   0.2222222  -0.3438819), wk =   0.0164609
        k(   13) = (   0.0000000   0.3333333   0.0000000), wk =   0.0164609
        k(   14) = (   0.0000000   0.3333333   0.1146273), wk =   0.0329218
        k(   15) = (   0.0000000   0.3333333   0.2292546), wk =   0.0329218
        k(   16) = (   0.0000000   0.3333333  -0.3438819), wk =   0.0164609
        k(   17) = (   0.0000000   0.4444444   0.0000000), wk =   0.0164609
        k(   18) = (   0.0000000   0.4444444   0.1146273), wk =   0.0329218
        k(   19) = (   0.0000000   0.4444444   0.2292546), wk =   0.0329218
        k(   20) = (   0.0000000   0.4444444  -0.3438819), wk =   0.0164609
        k(   21) = (   0.1111111   0.1111111   0.0000000), wk =   0.0164609
        k(   22) = (   0.1111111   0.1111111   0.1146273), wk =   0.0329218
        k(   23) = (   0.1111111   0.1111111   0.2292546), wk =   0.0329218
        k(   24) = (   0.1111111   0.1111111  -0.3438819), wk =   0.0164609
        k(   25) = (   0.1111111   0.2222222   0.0000000), wk =   0.0329218
        k(   26) = (   0.1111111   0.2222222   0.1146273), wk =   0.0658436
        k(   27) = (   0.1111111   0.2222222   0.2292546), wk =   0.0658436
        k(   28) = (   0.1111111   0.2222222  -0.3438819), wk =   0.0329218
        k(   29) = (   0.1111111   0.3333333   0.0000000), wk =   0.0329218
        k(   30) = (   0.1111111   0.3333333   0.1146273), wk =   0.0658436
        k(   31) = (   0.1111111   0.3333333   0.2292546), wk =   0.0658436
        k(   32) = (   0.1111111   0.3333333  -0.3438819), wk =   0.0329218
        k(   33) = (   0.1111111   0.4444444   0.0000000), wk =   0.0329218
        k(   34) = (   0.1111111   0.4444444   0.1146273), wk =   0.0658436
        k(   35) = (   0.1111111   0.4444444   0.2292546), wk =   0.0658436
        k(   36) = (   0.1111111   0.4444444  -0.3438819), wk =   0.0329218
        k(   37) = (   0.2222222   0.2222222   0.0000000), wk =   0.0164609
        k(   38) = (   0.2222222   0.2222222   0.1146273), wk =   0.0329218
        k(   39) = (   0.2222222   0.2222222   0.2292546), wk =   0.0329218
        k(   40) = (   0.2222222   0.2222222  -0.3438819), wk =   0.0164609
        k(   41) = (   0.2222222   0.3333333   0.0000000), wk =   0.0329218
        k(   42) = (   0.2222222   0.3333333   0.1146273), wk =   0.0658436
        k(   43) = (   0.2222222   0.3333333   0.2292546), wk =   0.0658436
        k(   44) = (   0.2222222   0.3333333  -0.3438819), wk =   0.0329218
        k(   45) = (   0.2222222   0.4444444   0.0000000), wk =   0.0329218
        k(   46) = (   0.2222222   0.4444444   0.1146273), wk =   0.0658436
        k(   47) = (   0.2222222   0.4444444   0.2292546), wk =   0.0658436
        k(   48) = (   0.2222222   0.4444444  -0.3438819), wk =   0.0329218
        k(   49) = (   0.3333333   0.3333333   0.0000000), wk =   0.0164609
        k(   50) = (   0.3333333   0.3333333   0.1146273), wk =   0.0329218
        k(   51) = (   0.3333333   0.3333333   0.2292546), wk =   0.0329218
        k(   52) = (   0.3333333   0.3333333  -0.3438819), wk =   0.0164609
        k(   53) = (   0.3333333   0.4444444   0.0000000), wk =   0.0329218
        k(   54) = (   0.3333333   0.4444444   0.1146273), wk =   0.0658436
        k(   55) = (   0.3333333   0.4444444   0.2292546), wk =   0.0658436
        k(   56) = (   0.3333333   0.4444444  -0.3438819), wk =   0.0329218
        k(   57) = (   0.4444444   0.4444444   0.0000000), wk =   0.0164609
        k(   58) = (   0.4444444   0.4444444   0.1146273), wk =   0.0329218
        k(   59) = (   0.4444444   0.4444444   0.2292546), wk =   0.0329218
        k(   60) = (   0.4444444   0.4444444  -0.3438819), wk =   0.0164609

     Dense  grid:   252445 G-vectors     FFT dimensions: (  72,  72, 108)

     Estimated max dynamical RAM per process >     892.98 MB

     Estimated total dynamical RAM >      34.88 GB

     Initial potential from superposition of free atoms

     starting charge  183.99828, renormalised to  184.15000
     Starting wfcs are  116 randomized atomic wfcs

     total cpu time spent up to now is        9.5 secs

     Self-consistent Calculation

     iteration #  1     ecut=   120.00 Ry     beta= 0.70
     Davidson diagonalization with overlap
     ethr =  1.00E-02,  avg # of iterations =  4.4

     total cpu time spent up to now is       42.0 secs

     total energy              =   -3126.69658680 Ry
     Harris-Foulkes estimate   =   -3132.21915407 Ry
     estimated scf accuracy    <       6.96723501 Ry

     iteration #  2     ecut=   120.00 Ry     beta= 0.70
     Davidson diagonalization with overlap
     ethr =  3.78E-03,  avg # of iterations =  3.2

     total cpu time spent up to now is       73.5 secs

     total energy              =   -3125.09881083 Ry
     Harris-Foulkes estimate   =   -3135.51838772 Ry
     estimated scf accuracy    <      28.04104362 Ry

     iteration #  3     ecut=   120.00 Ry     beta= 0.70
     Davidson diagonalization with overlap
     ethr =  3.78E-03,  avg # of iterations =  3.2

     total cpu time spent up to now is      102.9 secs

     total energy              =   -3130.40074409 Ry
     Harris-Foulkes estimate   =   -3130.54001696 Ry
     estimated scf accuracy    <       0.47349162 Ry

     iteration #  4     ecut=   120.00 Ry     beta= 0.70
     Davidson diagonalization with overlap
     ethr =  2.57E-04,  avg # of iterations =  2.4

     total cpu time spent up to now is      127.1 secs

     total energy              =   -3130.39022145 Ry
     Harris-Foulkes estimate   =   -3130.43210948 Ry
     estimated scf accuracy    <       0.11855593 Ry

     iteration #  5     ecut=   120.00 Ry     beta= 0.70
     Davidson diagonalization with overlap
     ethr =  6.44E-05,  avg # of iterations =  4.2

     total cpu time spent up to now is      153.7 secs

     total energy              =   -3130.39820534 Ry
     Harris-Foulkes estimate   =   -3130.41060027 Ry
     estimated scf accuracy    <       0.02888002 Ry

     iteration #  6     ecut=   120.00 Ry     beta= 0.70
     Davidson diagonalization with overlap
     ethr =  1.57E-05,  avg # of iterations =  3.6

     total cpu time spent up to now is      180.8 secs

     total energy              =   -3130.40392782 Ry
     Harris-Foulkes estimate   =   -3130.40551070 Ry
     estimated scf accuracy    <       0.00412898 Ry

     iteration #  7     ecut=   120.00 Ry     beta= 0.70
     Davidson diagonalization with overlap
     ethr =  2.24E-06,  avg # of iterations =  3.3

     total cpu time spent up to now is      206.2 secs

     total energy              =   -3130.40450082 Ry
     Harris-Foulkes estimate   =   -3130.40453894 Ry
     estimated scf accuracy    <       0.00006285 Ry

     iteration #  8     ecut=   120.00 Ry     beta= 0.70
     Davidson diagonalization with overlap
     ethr =  3.41E-08,  avg # of iterations =  3.6

     total cpu time spent up to now is      238.3 secs

     total energy              =   -3130.40453490 Ry
     Harris-Foulkes estimate   =   -3130.40454157 Ry
     estimated scf accuracy    <       0.00003375 Ry

     iteration #  9     ecut=   120.00 Ry     beta= 0.70
     Davidson diagonalization with overlap
     ethr =  1.83E-08,  avg # of iterations =  1.7

     total cpu time spent up to now is      261.2 secs

     total energy              =   -3130.40453061 Ry
     Harris-Foulkes estimate   =   -3130.40453656 Ry
     estimated scf accuracy    <       0.00001589 Ry

     iteration # 10     ecut=   120.00 Ry     beta= 0.70
     Davidson diagonalization with overlap
     ethr =  8.63E-09,  avg # of iterations =  2.0

     total cpu time spent up to now is      284.8 secs

     total energy              =   -3130.40453302 Ry
     Harris-Foulkes estimate   =   -3130.40453313 Ry
     estimated scf accuracy    <       0.00000024 Ry

     iteration # 11     ecut=   120.00 Ry     beta= 0.70
     Davidson diagonalization with overlap
     ethr =  1.31E-10,  avg # of iterations =  2.9

     total cpu time spent up to now is      314.2 secs

     total energy              =   -3130.40453309 Ry
     Harris-Foulkes estimate   =   -3130.40453311 Ry
     estimated scf accuracy    <       0.00000003 Ry

     iteration # 12     ecut=   120.00 Ry     beta= 0.70
     Davidson diagonalization with overlap
     ethr =  1.67E-11,  avg # of iterations =  2.0

     total cpu time spent up to now is      341.5 secs

     End of self-consistent calculation

          k = 0.0000 0.0000 0.0000 ( 31591 PWs)   bands (ev):

   -66.3441 -66.3436 -66.3428 -66.3423 -30.7042 -30.7003 -30.6764 -30.6764
   -30.6722 -30.6722 -30.6317 -30.6290 -30.5979 -30.5979 -30.5946 -30.5946
   -20.5054 -20.5054 -20.5053 -20.5053 -20.4889 -20.4889 -20.4889 -20.4889
   -20.4867 -20.4867 -20.4866 -20.4866 -20.4858 -20.4856 -20.4850 -20.4849
   -20.4849 -20.4848 -20.4789 -20.4788 -20.4773 -20.4773 -20.4757 -20.4757
   -20.4746 -20.4746 -20.4731 -20.4731 -10.1690  -9.7633  -9.3821  -9.1203
    -9.0955  -9.0057  -7.9425  -7.8780  -7.8780  -7.8540  -7.8540  -7.8125
     0.9864   0.9878   1.0186   1.2210   1.3346   1.4203   2.3364   2.3364
     2.3901   2.5052   3.9167   3.9167   4.6690   4.6690   4.8919   5.4740
     5.4740   5.6405   5.6405   5.7913   5.7913   5.8532   5.9070   6.4885
     6.4885   6.7434   7.0352   7.0665   7.0665   7.0853   7.0853   7.1134
     8.2322   8.2322   8.2846   8.2955   8.8159   8.8197   9.4166   9.4166
    12.3524  12.3524  13.2017  13.2017  13.4083  13.7317  13.7522  13.9581
    13.9668  14.0898  14.0898  14.5788  15.4848  16.2967

          k = 0.0000 0.0000 0.1146 ( 31582 PWs)   bands (ev):

   -66.3441 -66.3436 -66.3428 -66.3424 -30.6994 -30.6955 -30.6761 -30.6761
   -30.6725 -30.6725 -30.6366 -30.6339 -30.5977 -30.5977 -30.5948 -30.5948
   -20.5054 -20.5054 -20.5053 -20.5053 -20.4889 -20.4889 -20.4889 -20.4889
   -20.4867 -20.4867 -20.4866 -20.4866 -20.4854 -20.4852 -20.4850 -20.4849
   -20.4849 -20.4848 -20.4794 -20.4792 -20.4772 -20.4772 -20.4758 -20.4758
   -20.4745 -20.4745 -20.4732 -20.4732 -10.1283  -9.7792  -9.2989  -9.1187
    -9.0972  -8.9613  -8.0561  -7.9361  -7.8764  -7.8764  -7.8556  -7.8556
     0.9865   0.9878   1.2058   1.3338   1.4015   1.5868   2.3976   2.4076
     2.4076   2.4973   3.7379   3.7379   4.6459   4.7321   4.7321   5.4672
     5.4672   5.4831   5.4831   5.5159   5.8972   6.0091   6.0091   6.4902
     6.4902   6.7621   6.9132   7.0148   7.0660   7.0660   7.0782   7.0782
     8.1407   8.1407   8.2853   8.2947   8.8164   8.8197   9.6728   9.6728
    12.1779  12.1779  13.2338  13.2338  13.6850  13.7330  13.7508  13.9590
    13.9666  13.9937  13.9937  14.8108  15.9075  15.9976

          k = 0.0000 0.0000 0.2293 ( 31606 PWs)   bands (ev):

   -66.3440 -66.3437 -66.3427 -66.3425 -30.6862 -30.6826 -30.6753 -30.6753
   -30.6732 -30.6732 -30.6500 -30.6470 -30.5971 -30.5971 -30.5954 -30.5954
   -20.5054 -20.5054 -20.5053 -20.5053 -20.4889 -20.4889 -20.4889 -20.4889
   -20.4867 -20.4867 -20.4866 -20.4866 -20.4850 -20.4849 -20.4849 -20.4848
   -20.4841 -20.4840 -20.4807 -20.4805 -20.4769 -20.4769 -20.4761 -20.4761
   -20.4742 -20.4742 -20.4735 -20.4735 -10.0274  -9.8287  -9.1142  -9.1017
    -9.0627  -8.8195  -8.3472  -8.2384  -7.8720  -7.8720  -7.8600  -7.8600
     0.9869   0.9876   1.3102   1.3313   2.0250   2.3155   2.4183   2.4758
     2.6161   2.6161   3.3490   3.3490   3.9408   4.5489   4.9087   4.9087
     5.3266   5.3266   5.5179   5.5179   5.8431   5.8431   6.0277   6.5468
     6.8139   6.8968   6.8968   6.9597   7.0648   7.0648   7.0757   7.0757
     7.8688   7.8688   8.2873   8.2927   8.8177   8.8197  10.2855  10.2855
    11.6970  11.6970  13.3369  13.3369  13.7368  13.7471  13.7651  13.7651
    13.9612  13.9656  14.2308  15.4251  15.4861  16.9011

          k = 0.0000 0.0000-0.3439 ( 31642 PWs)   bands (ev):

   -66.3439 -66.3438 -66.3426 -66.3426 -30.6743 -30.6743 -30.6743 -30.6743
   -30.6681 -30.6681 -30.6648 -30.6648 -30.5963 -30.5963 -30.5963 -30.5963
   -20.5054 -20.5054 -20.5053 -20.5053 -20.4889 -20.4889 -20.4889 -20.4889
   -20.4866 -20.4866 -20.4866 -20.4866 -20.4849 -20.4849 -20.4848 -20.4848
   -20.4824 -20.4824 -20.4823 -20.4823 -20.4765 -20.4765 -20.4765 -20.4765
   -20.4739 -20.4739 -20.4739 -20.4739  -9.9148  -9.9148  -9.1080  -9.1080
    -8.7176  -8.7176  -8.5691  -8.5691  -7.8660  -7.8660  -7.8660  -7.8660
     0.9873   0.9873   1.3256   1.3256   2.4469   2.4469   2.9435   2.9435
     2.9435   2.9435   2.9709   2.9709   3.3831   3.3832   5.1437   5.1437
     5.1437   5.1437   5.6161   5.6161   5.6161   5.6161   6.2426   6.2426
     6.8859   6.8859   7.0627   7.0627   7.0627   7.0627   7.4372   7.4372
     7.4372   7.4372   8.2900   8.2900   8.8190   8.8190  11.0186  11.0186
    11.0186  11.0186  13.5202  13.5202  13.5203  13.5203  13.7420  13.7420
    13.9637  13.9637  14.8153  14.8153  16.3082  16.3082

          k = 0.0000 0.1111 0.0000 ( 31593 PWs)   bands (ev):

   -66.3441 -66.3436 -66.3429 -66.3424 -30.7045 -30.7005 -30.6744 -30.6740
   -30.6699 -30.6695 -30.6313 -30.6296 -30.6003 -30.5999 -30.5970 -30.5969
   -20.5054 -20.5054 -20.5053 -20.5053 -20.4889 -20.4889 -20.4888 -20.4888
   -20.4868 -20.4868 -20.4867 -20.4867 -20.4857 -20.4856 -20.4849 -20.4848
   -20.4848 -20.4847 -20.4789 -20.4788 -20.4772 -20.4771 -20.4757 -20.4756
   -20.4747 -20.4747 -20.4732 -20.4732 -10.1323  -9.7171  -9.3911  -9.0897
    -9.0649  -8.9950  -7.9768  -7.9423  -7.9251  -7.9011  -7.8892  -7.8155
     1.0340   1.0990   1.1017   1.2128   1.4554   1.5270   2.3683   2.3728
     2.4654   2.5797   3.8982   3.9193   4.4912   4.5512   4.8863   5.3345
     5.3555   5.5462   5.5967   5.8005   5.8006   5.9220   6.0580   6.4239
     6.4289   6.7233   6.7362   6.8528   6.8792   7.0243   7.0254   7.0570
     8.1953   8.2135   8.2195   8.2352   9.1605   9.1657   9.5702   9.6180
    12.3791  12.3927  13.0740  13.0764  13.5515  13.6043  13.6257  13.9273
    14.0079  14.2558  14.3140  14.6692  15.4542  16.4504

          k = 0.0000 0.1111 0.1146 ( 31563 PWs)   bands (ev):

   -66.3440 -66.3436 -66.3428 -66.3424 -30.6997 -30.6958 -30.6741 -30.6737
   -30.6702 -30.6697 -30.6362 -30.6343 -30.6001 -30.5998 -30.5972 -30.5971
   -20.5054 -20.5054 -20.5053 -20.5053 -20.4889 -20.4889 -20.4888 -20.4888
   -20.4868 -20.4868 -20.4867 -20.4867 -20.4853 -20.4852 -20.4849 -20.4848
   -20.4848 -20.4847 -20.4794 -20.4793 -20.4771 -20.4770 -20.4758 -20.4757
   -20.4746 -20.4746 -20.4733 -20.4733 -10.0903  -9.7330  -9.3080  -9.0880
    -9.0666  -8.9520  -8.0701  -7.9492  -7.9406  -7.9235  -7.9027  -7.9010
     1.0992   1.1015   1.2534   1.4215   1.4544   1.6310   2.4404   2.4436
     2.4728   2.5725   3.7299   3.7498   4.5575   4.6156   4.6384   5.3426
     5.3640   5.3665   5.4112   5.5266   5.9718   5.9927   6.0975   6.4268
     6.4447   6.7095   6.7225   6.8678   6.8911   6.9257   7.0248   7.0637
     8.1070   8.1230   8.2217   8.2362   9.1608   9.1638   9.7970   9.8388
    12.2056  12.2207  13.1095  13.1132  13.6044  13.6249  13.8281  13.8483
    13.9098  14.2562  14.2957  14.8928  15.8767  16.1343

          k = 0.0000 0.1111 0.2293 ( 31595 PWs)   bands (ev):

   -66.3439 -66.3437 -66.3428 -66.3425 -30.6870 -30.6829 -30.6736 -30.6730
   -30.6709 -30.6701 -30.6493 -30.6473 -30.5995 -30.5993 -30.5978 -30.5977
   -20.5054 -20.5054 -20.5053 -20.5053 -20.4889 -20.4889 -20.4888 -20.4888
   -20.4868 -20.4868 -20.4867 -20.4867 -20.4849 -20.4849 -20.4848 -20.4847
   -20.4841 -20.4840 -20.4807 -20.4806 -20.4768 -20.4768 -20.4760 -20.4760
   -20.4743 -20.4743 -20.4736 -20.4736  -9.9863  -9.7830  -9.0835  -9.0720
    -9.0711  -8.8134  -8.3557  -8.2415  -7.9358  -7.9202  -7.9191  -7.9071
     1.0997   1.1011   1.4232   1.4512   2.0275   2.2957   2.4930   2.5491
     2.6504   2.6643   3.3530   3.3729   3.9374   4.5491   4.7461   4.7977
     5.2205   5.2504   5.3745   5.3965   5.7240   5.7349   6.2114   6.5962
     6.7209   6.7342   6.8712   6.8933   6.9061   6.9566   7.0248   7.0769
     7.8431   7.8583   8.2260   8.2340   9.1615   9.1625  10.3634  10.3954
    11.7299  11.7488  13.2149  13.2228  13.5953  13.6224  13.6399  13.6862
    14.2577  14.2723  14.3765  15.5591  15.5598  16.9782

          k = 0.0000 0.1111-0.3439 ( 31566 PWs)   bands (ev):

   -66.3438 -66.3438 -66.3426 -66.3426 -30.6742 -30.6742 -30.6720 -30.6720
   -30.6658 -30.6658 -30.6651 -30.6651 -30.5986 -30.5986 -30.5985 -30.5985
   -20.5054 -20.5054 -20.5053 -20.5053 -20.4889 -20.4889 -20.4888 -20.4888
   -20.4868 -20.4868 -20.4867 -20.4867 -20.4849 -20.4849 -20.4848 -20.4848
   -20.4824 -20.4824 -20.4823 -20.4823 -20.4764 -20.4764 -20.4764 -20.4764
   -20.4739 -20.4739 -20.4739 -20.4739  -9.8707  -9.8707  -9.0773  -9.0773
    -8.7269  -8.7269  -8.5672  -8.5671  -7.9289  -7.9289  -7.9132  -7.9131
     1.1004   1.1004   1.4442   1.4442   2.5208   2.5208   2.9415   2.9415
     2.9743   2.9743   2.9744   2.9744   3.4000   3.4000   5.0083   5.0083
     5.0478   5.0478   5.4716   5.4716   5.4885   5.4885   6.3863   6.3863
     6.7207   6.7207   6.9455   6.9455   7.0275   7.0275   7.4188   7.4188
     7.4366   7.4366   8.2304   8.2304   9.1621   9.1621  11.0661  11.0661
    11.0906  11.0906  13.3997  13.3997  13.4106  13.4106  13.6218  13.6218
    14.2617  14.2617  14.9557  14.9557  16.3855  16.3855

          k = 0.0000 0.2222 0.0000 ( 31567 PWs)   bands (ev):

   -66.3440 -66.3434 -66.3430 -66.3425 -30.7049 -30.7012 -30.6686 -30.6673
   -30.6632 -30.6621 -30.6313 -30.6301 -30.6072 -30.6054 -30.6037 -30.6034
   -20.5054 -20.5054 -20.5053 -20.5053 -20.4888 -20.4888 -20.4887 -20.4886
   -20.4872 -20.4871 -20.4871 -20.4869 -20.4855 -20.4855 -20.4847 -20.4847
   -20.4847 -20.4846 -20.4790 -20.4790 -20.4769 -20.4768 -20.4755 -20.4754
   -20.4749 -20.4748 -20.4735 -20.4734 -10.0284  -9.5815  -9.4203  -8.9997
    -8.9750  -8.9602  -8.1588  -8.1162  -8.0560  -8.0320  -7.8991  -7.8244
     1.0592   1.1913   1.4204   1.4287   1.7921   1.8392   2.4591   2.4762
     2.6938   2.8053   3.8226   3.8824   4.1547   4.2712   4.8715   4.9633
     4.9814   5.2967   5.4555   5.8238   5.8286   5.9498   6.0121   6.0269
     6.2699   6.3485   6.4750   6.5235   6.8190   6.9982   7.0607   7.1096
     8.0541   8.0671   8.0944   8.1550   9.8334   9.8509   9.9663  10.0939
    12.4629  12.5122  12.7512  12.7866  13.2446  13.2681  13.7696  13.7845
    13.8878  14.9401  14.9663  14.9831  15.3609  16.8538

          k = 0.0000 0.2222 0.1146 ( 31547 PWs)   bands (ev):

   -66.3439 -66.3435 -66.3430 -66.3425 -30.7003 -30.6965 -30.6686 -30.6670
   -30.6635 -30.6622 -30.6358 -30.6348 -30.6070 -30.6055 -30.6040 -30.6036
   -20.5054 -20.5054 -20.5053 -20.5053 -20.4888 -20.4888 -20.4887 -20.4886
   -20.4872 -20.4871 -20.4870 -20.4869 -20.4852 -20.4851 -20.4847 -20.4847
   -20.4847 -20.4846 -20.4795 -20.4794 -20.4768 -20.4767 -20.4756 -20.4755
   -20.4748 -20.4748 -20.4736 -20.4735  -9.9824  -9.5977  -9.3378  -8.9980
    -8.9767  -8.9213  -8.1952  -8.1138  -8.0544  -8.0336  -7.9920  -7.9335
     1.3093   1.4210   1.4282   1.4371   1.7905   1.8705   2.5332   2.5451
     2.7006   2.7987   3.6888   3.7492   4.2250   4.3376   4.6173   4.9730
     4.9910   5.1076   5.2307   5.5427   5.8143   5.9160   6.0216   6.0253
     6.3268   6.3794   6.5018   6.7443   6.7945   6.9927   7.0785   7.1186
     8.0162   8.0436   8.0559   8.0973   9.8340   9.8423  10.1389  10.2552
    12.2932  12.3472  12.7918  12.8248  13.2429  13.2689  13.6696  13.6796
    14.1889  14.9667  14.9796  15.1346  15.7822  16.4893

          k = 0.0000 0.2222 0.2293 ( 31564 PWs)   bands (ev):

   -66.3438 -66.3436 -66.3429 -66.3426 -30.6879 -30.6836 -30.6688 -30.6662
   -30.6642 -30.6623 -30.6485 -30.6472 -30.6063 -30.6054 -30.6046 -30.6041
   -20.5054 -20.5054 -20.5053 -20.5053 -20.4888 -20.4888 -20.4887 -20.4886
   -20.4872 -20.4871 -20.4869 -20.4869 -20.4847 -20.4847 -20.4847 -20.4846
   -20.4840 -20.4839 -20.4807 -20.4806 -20.4766 -20.4766 -20.4758 -20.4758
   -20.4745 -20.4745 -20.4738 -20.4738  -9.8681  -9.6492  -9.1039  -8.9935
    -8.9812  -8.7934  -8.4057  -8.2484  -8.1066  -8.0620  -8.0501  -8.0381
     1.4225   1.4267   1.7221   1.7850   2.0349   2.2742   2.7188   2.7453
     2.7542   2.7964   3.3570   3.4240   3.9283   4.4283   4.5263   4.5279
     4.9722   5.0112   5.0161   5.0264   5.4138   5.4909   6.0033   6.0206
     6.5741   6.7416   6.8214   6.8790   6.9328   6.9779   7.1347   7.1408
     7.7784   7.8217   8.0607   8.0740   9.8355   9.8385  10.5963  10.6967
    11.8348  11.9012  12.9098  12.9456  13.2294  13.2722  13.4258  13.4383
    14.7686  14.9678  14.9737  15.7651  15.9185  16.8207

          k = 0.0000 0.2222-0.3439 ( 31528 PWs)   bands (ev):

   -66.3437 -66.3437 -66.3427 -66.3427 -30.6736 -30.6736 -30.6660 -30.6660
   -30.6652 -30.6652 -30.6595 -30.6595 -30.6055 -30.6055 -30.6048 -30.6048
   -20.5054 -20.5054 -20.5053 -20.5053 -20.4888 -20.4888 -20.4886 -20.4886
   -20.4871 -20.4871 -20.4869 -20.4869 -20.4847 -20.4847 -20.4846 -20.4846
   -20.4824 -20.4824 -20.4823 -20.4823 -20.4762 -20.4762 -20.4762 -20.4762
   -20.4742 -20.4742 -20.4741 -20.4741  -9.7422  -9.7422  -8.9874  -8.9874
    -8.7632  -8.7631  -8.5596  -8.5596  -8.0933  -8.0933  -8.0441  -8.0441
     1.4247   1.4247   1.7725   1.7725   2.7383   2.7383   2.9421   2.9421
     2.9855   2.9855   3.0549   3.0549   3.4415   3.4415   4.7187   4.7187
     4.7954   4.7954   5.1281   5.1281   5.1331   5.1331   6.0131   6.0131
     6.6675   6.6676   6.9497   6.9497   7.1264   7.1264   7.3845   7.3845
     7.4347   7.4347   8.0670   8.0670   9.8371   9.8371  11.2157  11.2157
    11.2984  11.2984  13.1027  13.1027  13.1551  13.1551  13.2887  13.2887
    14.9698  14.9698  15.3373  15.3373  16.5978  16.5978

          k = 0.0000 0.3333 0.0000 ( 31566 PWs)   bands (ev):

   -66.3438 -66.3433 -66.3432 -66.3427 -30.7050 -30.7023 -30.6600 -30.6569
   -30.6529 -30.6514 -30.6347 -30.6282 -30.6177 -30.6141 -30.6133 -30.6130
   -20.5054 -20.5054 -20.5053 -20.5053 -20.4887 -20.4887 -20.4885 -20.4883
   -20.4876 -20.4876 -20.4875 -20.4872 -20.4854 -20.4854 -20.4846 -20.4846
   -20.4845 -20.4845 -20.4791 -20.4791 -20.4766 -20.4764 -20.4752 -20.4752
   -20.4751 -20.4751 -20.4739 -20.4737  -9.8770  -9.4770  -9.3658  -8.8911
    -8.8564  -8.8320  -8.4431  -8.3507  -8.2446  -8.2206  -7.8884  -7.8380
     1.0825   1.1629   1.9002   1.9290   2.2731   2.2779   2.5911   2.6198
     3.0848   3.1900   3.6311   3.6617   3.8503   3.9524   4.4112   4.4696
     4.8558   4.9662   5.2387   5.2721   5.3240   5.8297   5.8752   6.0040
     6.1421   6.1495   6.2521   6.5907   6.9234   7.0894   7.1613   7.4041
     7.8250   7.8275   7.9226   8.0508  10.4987  10.5784  10.6003  10.6795
    12.2828  12.3758  12.5924  12.7049  12.7296  12.7345  13.4753  13.5276
    14.2949  15.2017  15.3913  15.9175  15.9226  17.2520

          k = 0.0000 0.3333 0.1146 ( 31527 PWs)   bands (ev):

   -66.3438 -66.3433 -66.3431 -66.3427 -30.7004 -30.6976 -30.6603 -30.6566
   -30.6532 -30.6515 -30.6386 -30.6325 -30.6174 -30.6144 -30.6137 -30.6135
   -20.5054 -20.5054 -20.5053 -20.5053 -20.4887 -20.4887 -20.4885 -20.4883
   -20.4876 -20.4876 -20.4874 -20.4872 -20.4850 -20.4850 -20.4846 -20.4846
   -20.4845 -20.4845 -20.4796 -20.4795 -20.4765 -20.4763 -20.4753 -20.4752
   -20.4751 -20.4751 -20.4740 -20.4738  -9.8235  -9.3968  -9.3824  -8.8597
    -8.8548  -8.8336  -8.4657  -8.3460  -8.2430  -8.2222  -7.9929  -7.9487
     1.3392   1.4189   1.9024   1.9273   2.2697   2.2889   2.6648   2.6829
     3.0897   3.1841   3.5547   3.5962   3.9209   4.0189   4.4265   4.4849
     4.5862   4.7950   5.0290   5.2187   5.2369   5.5392   5.5772   5.8290
     6.3156   6.3832   6.5803   6.6755   6.9312   7.0836   7.1757   7.3962
     7.8165   7.8288   7.8613   7.9916  10.5522  10.5785  10.6588  10.7942
    12.3261  12.4230  12.4425  12.5510  12.7161  12.7381  13.3587  13.4148
    14.6398  15.5326  15.6227  15.9180  15.9221  16.9135

          k = 0.0000 0.3333 0.2293 ( 31533 PWs)   bands (ev):

   -66.3437 -66.3434 -66.3430 -66.3428 -30.6880 -30.6848 -30.6626 -30.6559
   -30.6539 -30.6515 -30.6503 -30.6428 -30.6168 -30.6150 -30.6145 -30.6140
   -20.5054 -20.5054 -20.5053 -20.5053 -20.4887 -20.4887 -20.4884 -20.4883
   -20.4876 -20.4876 -20.4873 -20.4872 -20.4846 -20.4845 -20.4845 -20.4845
   -20.4840 -20.4839 -20.4807 -20.4807 -20.4762 -20.4762 -20.4755 -20.4754
   -20.4749 -20.4749 -20.4742 -20.4741  -9.6891  -9.4370  -9.1715  -8.8503
    -8.8381  -8.7523  -8.5780  -8.3298  -8.2494  -8.2386  -8.2266  -8.1719
     1.9082   1.9226   2.0081   2.0504   2.2583   2.3899   2.8624   2.8955
     3.0970   3.1688   3.3296   3.4010   3.9202   4.1272   4.2092   4.3513
     4.4840   4.5455   4.6932   4.8083   5.0485   5.1954   5.2324   5.2604
     6.8206   6.8255   6.8786   6.9294   6.9430   7.0636   7.2364   7.3617
     7.6688   7.7290   7.8330   7.8721  10.5722  10.5783  10.9747  11.1264
    12.0218  12.1437  12.4559  12.5713  12.6993  12.7527  13.0811  13.1370
    15.3117  15.9192  15.9211  16.0680  16.4012  16.6315

          k = 0.0000 0.3333-0.3439 ( 31546 PWs)   bands (ev):

   -66.3435 -66.3435 -66.3429 -66.3429 -30.6724 -30.6724 -30.6674 -30.6674
   -30.6549 -30.6549 -30.6501 -30.6501 -30.6159 -30.6159 -30.6145 -30.6145
   -20.5054 -20.5054 -20.5053 -20.5053 -20.4887 -20.4887 -20.4884 -20.4883
   -20.4876 -20.4876 -20.4872 -20.4872 -20.4846 -20.4845 -20.4845 -20.4845
   -20.4824 -20.4824 -20.4823 -20.4823 -20.4759 -20.4759 -20.4758 -20.4758
   -20.4746 -20.4746 -20.4745 -20.4745  -9.5415  -9.5415  -8.8557  -8.8556
    -8.8442  -8.8442  -8.5421  -8.5421  -8.2898  -8.2898  -8.2326  -8.2326
     1.9157   1.9157   2.2294   2.2294   2.8924   2.8924   3.0099   3.0099
     3.1250   3.1250   3.1570   3.1570   3.4641   3.4642   4.4220   4.4220
     4.4588   4.4588   4.6585   4.6585   4.7382   4.7382   5.2280   5.2280
     6.9243   6.9243   7.0128   7.0128   7.2581   7.2581   7.3330   7.3330
     7.4325   7.4325   7.8417   7.8417  10.5767  10.5767  11.4766  11.4766
    11.6171  11.6171  12.6334  12.6334  12.8211  12.8211  12.8254  12.8254
    15.8729  15.8730  15.9202  15.9202  16.8901  16.8901

          k = 0.0000 0.4444 0.0000 ( 31548 PWs)   bands (ev):

   -66.3436 -66.3434 -66.3431 -66.3429 -30.7044 -30.7035 -30.6500 -30.6441
   -30.6409 -30.6403 -30.6388 -30.6305 -30.6268 -30.6256 -30.6251 -30.6201
   -20.5054 -20.5054 -20.5053 -20.5053 -20.4884 -20.4884 -20.4882 -20.4881
   -20.4880 -20.4879 -20.4879 -20.4875 -20.4853 -20.4853 -20.4845 -20.4845
   -20.4845 -20.4844 -20.4792 -20.4792 -20.4761 -20.4759 -20.4757 -20.4755
   -20.4748 -20.4746 -20.4743 -20.4742  -9.7122  -9.5725  -9.0863  -8.7706
    -8.7673  -8.6708  -8.6465  -8.5852  -8.4592  -8.4351  -7.8724  -7.8547
     1.1066   1.1336   2.4241   2.5404   2.6488   2.6963   2.7119   2.7984
     3.1690   3.2766   3.6476   3.7204   3.7270   3.7570   3.8667   3.9867
     4.3452   4.4527   4.8602   4.9340   5.3979   5.6438   5.9371   5.9975
     6.0176   6.0614   6.2646   6.3947   7.2876   7.3326   7.3436   7.5428
     7.5776   7.6697   7.6813   7.8932  11.0881  11.2871  11.3231  11.3263
    11.7448  11.8657  12.0433  12.0911  12.8529  12.9570  13.1461  13.2431
    14.6691  14.9723  15.9974  16.6805  16.9769  16.9868

          k = 0.0000 0.4444 0.1146 ( 31555 PWs)   bands (ev):

   -66.3435 -66.3433 -66.3431 -66.3429 -30.6998 -30.6988 -30.6512 -30.6439
   -30.6435 -30.6405 -30.6389 -30.6303 -30.6286 -30.6271 -30.6258 -30.6222
   -20.5054 -20.5054 -20.5053 -20.5053 -20.4884 -20.4884 -20.4882 -20.4881
   -20.4880 -20.4879 -20.4878 -20.4875 -20.4850 -20.4850 -20.4845 -20.4845
   -20.4845 -20.4844 -20.4796 -20.4796 -20.4760 -20.4759 -20.4756 -20.4754
   -20.4749 -20.4747 -20.4744 -20.4743  -9.6481  -9.4983  -9.1036  -8.7862
    -8.7498  -8.6692  -8.6481  -8.5746  -8.4576  -8.4367  -7.9805  -7.9647
     1.3646   1.3915   2.4350   2.5350   2.6694   2.7386   2.7717   2.7891
     3.1496   3.2461   3.6514   3.7313   3.7869   3.7978   3.9015   4.0175
     4.3231   4.4511   4.6065   4.6850   5.0410   5.2504   5.6311   5.7164
     6.3697   6.4509   6.4590   6.5548   7.2805   7.3176   7.3513   7.5317
     7.5806   7.6305   7.6594   7.8497  11.1505  11.3247  11.3393  11.3703
    11.7936  11.9273  12.0385  12.0995  12.7077  12.8165  13.0145  13.1168
    15.0531  15.3773  16.0966  16.7423  16.9781  16.9866

          k = 0.0000 0.4444 0.2293 ( 31530 PWs)   bands (ev):

   -66.3435 -66.3432 -66.3432 -66.3430 -30.6873 -30.6861 -30.6570 -30.6530
   -30.6432 -30.6412 -30.6391 -30.6353 -30.6296 -30.6277 -30.6261 -30.6251
   -20.5054 -20.5054 -20.5053 -20.5053 -20.4884 -20.4884 -20.4881 -20.4880
   -20.4880 -20.4879 -20.4877 -20.4876 -20.4845 -20.4845 -20.4844 -20.4844
   -20.4839 -20.4839 -20.4807 -20.4807 -20.4758 -20.4758 -20.4753 -20.4753
   -20.4751 -20.4750 -20.4747 -20.4745  -9.4819  -9.2962  -9.1645  -8.8610
    -8.6744  -8.6647  -8.6526  -8.5351  -8.4532  -8.4411  -8.2389  -8.2170
     2.0553   2.0685   2.4619   2.5189   2.7380   2.7569   2.8488   2.9416
     3.0880   3.1398   3.6551   3.7210   3.9313   3.9600   3.9725   4.0276
     4.0980   4.1314   4.4110   4.4504   4.5726   4.7409   4.8925   5.0255
     6.8668   6.8675   6.8806   6.9112   7.2525   7.2588   7.3826   7.4746
     7.5001   7.5912   7.5962   7.7252  11.2674  11.3192  11.4664  11.6187
    11.9344  12.0104  12.1164  12.1413  12.3491  12.4544  12.6905  12.7994
    15.8815  16.3287  16.4587  16.8850  16.9343  16.9845

          k = 0.0000 0.4444-0.3439 ( 31534 PWs)   bands (ev):

   -66.3433 -66.3433 -66.3431 -66.3431 -30.6708 -30.6708 -30.6690 -30.6690
   -30.6422 -30.6422 -30.6385 -30.6385 -30.6287 -30.6287 -30.6262 -30.6262
   -20.5054 -20.5054 -20.5053 -20.5053 -20.4884 -20.4884 -20.4880 -20.4880
   -20.4880 -20.4880 -20.4876 -20.4876 -20.4845 -20.4845 -20.4844 -20.4844
   -20.4823 -20.4823 -20.4823 -20.4823 -20.4755 -20.4755 -20.4754 -20.4754
   -20.4750 -20.4750 -20.4749 -20.4749  -9.2929  -9.2929  -9.0415  -9.0415
    -8.6587  -8.6587  -8.5064  -8.5064  -8.4472  -8.4472  -8.4332  -8.4331
     2.4931   2.4931   2.6611   2.6612   2.8532   2.8532   2.9813   2.9813
     3.0982   3.0982   3.3234   3.3234   3.7137   3.7137   4.2106   4.2106
     4.2539   4.2540   4.3142   4.3142   4.4123   4.4123   4.4960   4.4960
     7.1202   7.1202   7.1586   7.1586   7.2512   7.2512   7.2813   7.2813
     7.4762   7.4762   7.6197   7.6197  11.3056  11.3056  11.8027  11.8027
    12.0085  12.0085  12.0742  12.0742  12.3356  12.3356  12.4259  12.4259
    16.4645  16.4645  16.9778  16.9778  16.9841  16.9841

          k = 0.1111 0.1111 0.0000 ( 31567 PWs)   bands (ev):

   -66.3440 -66.3435 -66.3429 -66.3424 -30.7045 -30.7008 -30.6769 -30.6728
   -30.6674 -30.6621 -30.6309 -30.6302 -30.6067 -30.6041 -30.5975 -30.5941
   -20.5054 -20.5054 -20.5053 -20.5053 -20.4891 -20.4891 -20.4886 -20.4885
   -20.4873 -20.4872 -20.4865 -20.4864 -20.4857 -20.4856 -20.4848 -20.4848
   -20.4848 -20.4847 -20.4789 -20.4789 -20.4773 -20.4769 -20.4757 -20.4754
   -20.4749 -20.4746 -20.4734 -20.4731 -10.1011  -9.6801  -9.4008  -9.0696
    -9.0277  -8.9711  -8.0966  -8.0806  -7.9140  -7.8844  -7.8600  -7.8184
     1.0176   1.0962   1.1366   1.2064   1.6798   1.7222   2.3289   2.4740
     2.5391   2.6527   3.8506   3.9212   4.1972   4.6763   4.8804   5.0101
     5.4151   5.4195   5.5924   5.7782   5.8387   5.9361   6.1086   6.2564
     6.4780   6.6388   6.6422   6.6554   6.8364   6.9119   6.9896   7.0908
     8.1296   8.1442   8.1693   8.2236   9.4417   9.4464   9.4583  10.0190
    12.3527  12.4878  12.7461  13.1986  13.4959  13.5176  13.5950  13.7437
    14.0905  14.4501  14.5422  14.7607  15.4204  16.6393

          k = 0.1111 0.1111 0.1146 ( 31566 PWs)   bands (ev):

   -66.3440 -66.3436 -66.3429 -66.3424 -30.6998 -30.6960 -30.6766 -30.6730
   -30.6673 -30.6623 -30.6357 -30.6349 -30.6067 -30.6043 -30.5972 -30.5943
   -20.5054 -20.5054 -20.5053 -20.5053 -20.4891 -20.4891 -20.4886 -20.4885
   -20.4873 -20.4872 -20.4865 -20.4864 -20.4853 -20.4852 -20.4848 -20.4848
   -20.4848 -20.4847 -20.4794 -20.4793 -20.4772 -20.4768 -20.4758 -20.4755
   -20.4748 -20.4745 -20.4735 -20.4732 -10.0582  -9.6959  -9.3179  -9.0626
    -9.0296  -8.9344  -8.1337  -8.0787  -8.0006  -7.9334  -7.8828  -7.8617
     1.0830   1.0960   1.3140   1.4519   1.6785   1.7651   2.3999   2.5452
     2.5465   2.6457   3.7171   3.7409   4.2662   4.6302   4.7390   5.0199
     5.2018   5.4256   5.4284   5.5337   5.8716   6.0052   6.1455   6.3500
     6.4568   6.6384   6.6461   6.7027   6.8327   6.9490   6.9726   7.0016
     8.0510   8.1220   8.1500   8.1777   9.4470   9.4513   9.6980  10.1834
    12.1792  12.3195  12.7918  13.2294  13.4962  13.5177  13.6450  13.8466
    13.9954  14.4410  14.5683  14.9807  15.8421  16.2957

          k = 0.1111 0.1111 0.2293 ( 31569 PWs)   bands (ev):

   -66.3439 -66.3436 -66.3428 -66.3425 -30.6871 -30.6831 -30.6759 -30.6738
   -30.6671 -30.6627 -30.6484 -30.6477 -30.6063 -30.6049 -30.5966 -30.5950
   -20.5054 -20.5054 -20.5053 -20.5053 -20.4891 -20.4891 -20.4886 -20.4885
   -20.4872 -20.4872 -20.4865 -20.4864 -20.4848 -20.4848 -20.4848 -20.4847
   -20.4841 -20.4840 -20.4807 -20.4806 -20.4769 -20.4765 -20.4761 -20.4758
   -20.4745 -20.4742 -20.4738 -20.4735  -9.9518  -9.7458  -9.0828  -9.0515
    -9.0347  -8.8048  -8.3728  -8.2453  -8.0731  -8.0461  -7.8784  -7.8662
     1.0922   1.0954   1.6339   1.6742   2.0304   2.2944   2.5661   2.5927
     2.6414   2.7634   3.3491   3.3895   3.9339   4.4658   4.5390   4.9134
     5.0188   5.0565   5.2955   5.4593   5.4646   5.8276   6.2518   6.6130
     6.6267   6.6369   6.7701   6.8229   6.8883   6.9142   7.0291   7.0582
     7.8127   7.8522   8.1586   8.1707   9.4486   9.4511  10.3009  10.6350
    11.7010  11.8645  12.9188  13.3270  13.4016  13.4952  13.5201  13.7712
    14.2398  14.4210  14.7225  15.6468  15.7237  17.0689

          k = 0.1111 0.1111-0.3439 ( 31574 PWs)   bands (ev):

   -66.3438 -66.3438 -66.3427 -66.3427 -30.6748 -30.6748 -30.6715 -30.6715
   -30.6654 -30.6654 -30.6612 -30.6612 -30.6056 -30.6056 -30.5958 -30.5958
   -20.5054 -20.5054 -20.5053 -20.5053 -20.4891 -20.4891 -20.4885 -20.4885
   -20.4872 -20.4872 -20.4864 -20.4864 -20.4848 -20.4848 -20.4847 -20.4847
   -20.4824 -20.4824 -20.4823 -20.4823 -20.4765 -20.4765 -20.4762 -20.4762
   -20.4742 -20.4742 -20.4739 -20.4739  -9.8341  -9.8341  -9.0424  -9.0423
    -8.7390  -8.7390  -8.5645  -8.5645  -8.0639  -8.0638  -7.8723  -7.8723
     1.0943   1.0943   1.6649   1.6649   2.5929   2.5929   2.9422   2.9422
     2.9643   2.9643   3.0057   3.0057   3.4164   3.4164   4.7567   4.7567
     5.1362   5.1363   5.1604   5.1604   5.5742   5.5742   6.4158   6.4158
     6.6344   6.6344   6.8086   6.8086   7.0457   7.0457   7.4171   7.4171
     7.4232   7.4232   8.1654   8.1654   9.4502   9.4502  11.0271  11.0271
    11.2496  11.2496  13.1302  13.1302  13.4672  13.4672  13.5588  13.5588
    14.3827  14.3828  15.1567  15.1567  16.4769  16.4769

          k = 0.1111 0.2222 0.0000 ( 31551 PWs)   bands (ev):

   -66.3439 -66.3434 -66.3430 -66.3425 -30.7047 -30.7014 -30.6752 -30.6707
   -30.6576 -30.6512 -30.6326 -30.6296 -30.6158 -30.6147 -30.5992 -30.5960
   -20.5054 -20.5054 -20.5053 -20.5053 -20.4892 -20.4892 -20.4883 -20.4882
   -20.4879 -20.4878 -20.4864 -20.4864 -20.4856 -20.4855 -20.4847 -20.4847
   -20.4846 -20.4846 -20.4790 -20.4790 -20.4772 -20.4764 -20.4757 -20.4752
   -20.4751 -20.4747 -20.4738 -20.4732 -10.0120  -9.5713  -9.4323  -9.0253
    -8.9192  -8.8841  -8.3311  -8.2908  -7.9439  -7.9380  -7.8920  -7.8267
     1.0483   1.1885   1.2334   1.2659   2.1634   2.1638   2.3575   2.6141
     2.7634   2.8742   3.6470   3.8701   3.9182   4.4884   4.5429   4.8662
     5.2136   5.2203   5.4358   5.7753   5.8809   5.9552   6.0232   6.1092
     6.2271   6.3362   6.3520   6.4310   6.8132   6.9128   6.9816   7.2737
     7.9603   7.9861   7.9898   8.1982   9.6272  10.0540  10.0757  10.5798
    12.3068  12.3851  12.6619  13.0835  13.1853  13.2078  13.4788  13.7937
    14.0036  14.9262  15.0281  15.2241  15.3172  17.1069

          k = 0.1111 0.2222 0.1146 ( 31564 PWs)   bands (ev):

   -66.3439 -66.3435 -66.3430 -66.3425 -30.7000 -30.6967 -30.6750 -30.6710
   -30.6577 -30.6514 -30.6367 -30.6341 -30.6162 -30.6149 -30.5990 -30.5962
   -20.5054 -20.5054 -20.5053 -20.5053 -20.4892 -20.4892 -20.4883 -20.4882
   -20.4878 -20.4878 -20.4864 -20.4864 -20.4852 -20.4851 -20.4847 -20.4847
   -20.4846 -20.4846 -20.4795 -20.4794 -20.4771 -20.4764 -20.4758 -20.4752
   -20.4751 -20.4746 -20.4739 -20.4733  -9.9658  -9.5868  -9.3504  -9.0043
    -8.9216  -8.8646  -8.3495  -8.2878  -8.0176  -7.9483  -7.9423  -7.9122
     1.1965   1.2330   1.3573   1.4659   2.1609   2.1760   2.4295   2.6811
     2.7700   2.8676   3.5736   3.7479   3.9404   4.5042   4.6071   4.6080
     4.9570   5.2279   5.2818   5.5569   5.6637   5.9769   6.0586   6.1084
     6.3530   6.3820   6.4273   6.5725   6.8092   6.9038   6.9582   7.2711
     7.9259   7.9662   7.9774   8.1166   9.8364  10.0550  10.0820  10.6945
    12.2138  12.3589  12.5023  13.1096  13.1841  13.2143  13.3653  13.9069
    14.0555  14.9149  15.1874  15.2989  15.7357  16.6837

          k = 0.1111 0.2222 0.2293 ( 31554 PWs)   bands (ev):

   -66.3438 -66.3435 -66.3429 -66.3426 -30.6875 -30.6838 -30.6743 -30.6715
   -30.6592 -30.6517 -30.6489 -30.6450 -30.6165 -30.6154 -30.5984 -30.5968
   -20.5054 -20.5054 -20.5053 -20.5053 -20.4892 -20.4892 -20.4882 -20.4882
   -20.4878 -20.4878 -20.4864 -20.4864 -20.4847 -20.4847 -20.4847 -20.4846
   -20.4840 -20.4839 -20.4807 -20.4806 -20.4768 -20.4762 -20.4761 -20.4755
   -20.4749 -20.4743 -20.4742 -20.4736  -9.8517  -9.6365  -9.1192  -8.9649
    -8.9287  -8.7715  -8.4706  -8.2781  -8.2541  -8.1778  -7.9376  -7.9241
     1.2256   1.2320   2.0016   2.0501   2.1516   2.3431   2.6424   2.7874
     2.8514   2.8844   3.3419   3.3836   3.9267   4.1457   4.4379   4.5625
     4.7865   4.8112   5.1272   5.1612   5.2610   5.6895   6.0863   6.1056
     6.4662   6.6659   6.7528   6.7968   6.8668   6.9211   7.0989   7.2529
     7.7285   7.8187   7.9775   8.0049  10.0551  10.0572  10.4105  11.0324
    11.7450  12.0806  12.5107  13.0757  13.1644  13.1919  13.2640  13.6763
    14.5027  14.8753  15.3504  15.9034  16.1407  16.7582

          k = 0.1111 0.2222-0.3439 ( 31532 PWs)   bands (ev):

   -66.3437 -66.3437 -66.3428 -66.3428 -30.6745 -30.6745 -30.6689 -30.6689
   -30.6663 -30.6663 -30.6513 -30.6513 -30.6161 -30.6161 -30.5976 -30.5976
   -20.5054 -20.5054 -20.5053 -20.5053 -20.4892 -20.4892 -20.4882 -20.4882
   -20.4878 -20.4878 -20.4864 -20.4864 -20.4847 -20.4847 -20.4846 -20.4846
   -20.4824 -20.4824 -20.4823 -20.4823 -20.4764 -20.4764 -20.4758 -20.4758
   -20.4745 -20.4745 -20.4739 -20.4739  -9.7273  -9.7272  -8.9415  -8.9415
    -8.7868  -8.7868  -8.5543  -8.5543  -8.2560  -8.2560  -7.9312  -7.9312
     1.2299   1.2299   2.1315   2.1315   2.8006   2.8007   2.9456   2.9459
     2.9747   2.9748   3.0574   3.0577   3.4358   3.4358   4.4497   4.4500
     4.7242   4.7243   5.0102   5.0110   5.3800   5.3807   6.1000   6.1000
     6.5858   6.5862   6.7738   6.7741   7.1855   7.1856   7.3831   7.3832
     7.4123   7.4124   7.9887   7.9887  10.0590  10.0590  11.0927  11.0928
    11.5367  11.5368  12.7619  12.7624  13.1835  13.1851  13.4306  13.4317
    14.7704  14.7705  15.6587  15.6589  16.7353  16.7353

          k = 0.1111 0.3333 0.0000 ( 31561 PWs)   bands (ev):

   -66.3438 -66.3433 -66.3432 -66.3427 -30.7047 -30.7024 -30.6694 -30.6640
   -30.6462 -30.6386 -30.6382 -30.6275 -30.6271 -30.6241 -30.6050 -30.6023
   -20.5054 -20.5054 -20.5053 -20.5053 -20.4892 -20.4892 -20.4884 -20.4883
   -20.4879 -20.4877 -20.4867 -20.4865 -20.4854 -20.4854 -20.4846 -20.4846
   -20.4845 -20.4845 -20.4791 -20.4791 -20.4769 -20.4760 -20.4756 -20.4755
   -20.4749 -20.4747 -20.4743 -20.4734  -9.8792  -9.4929  -9.3970  -8.9645
    -8.7488  -8.7285  -8.6105  -8.5194  -8.0949  -8.0872  -7.8868  -7.8395
     1.0814   1.1632   1.5685   1.5822   2.4529   2.6070   2.7078   2.7337
     3.1601   3.2200   3.2544   3.6975   3.8558   3.9618   4.2475   4.7753
     4.8574   4.9802   5.1560   5.4404   5.5890   5.7833   5.8590   5.9687
     6.1066   6.1321   6.3199   6.7322   6.7379   6.9270   7.0220   7.5655
     7.7195   7.7237   7.7780   8.1262  10.0543  10.7471  10.7718  11.1868
    11.7835  12.4807  12.7066  12.7353  12.7807  12.9117  13.1813  13.7966
    14.1485  15.1394  15.4647  15.6630  16.0891  17.4091

          k = 0.1111 0.3333 0.1146 ( 31542 PWs)   bands (ev):

   -66.3437 -66.3433 -66.3431 -66.3427 -30.7000 -30.6977 -30.6692 -30.6642
   -30.6471 -30.6411 -30.6384 -30.6308 -30.6277 -30.6261 -30.6049 -30.6025
   -20.5054 -20.5054 -20.5053 -20.5053 -20.4892 -20.4892 -20.4884 -20.4883
   -20.4879 -20.4877 -20.4866 -20.4865 -20.4851 -20.4850 -20.4846 -20.4846
   -20.4845 -20.4845 -20.4795 -20.4795 -20.4768 -20.4759 -20.4756 -20.4755
   -20.4748 -20.4748 -20.4744 -20.4735  -9.8271  -9.4143  -9.4121  -8.9381
    -8.7521  -8.7204  -8.6257  -8.5133  -8.1016  -8.0930  -7.9871  -7.9488
     1.3295   1.4092   1.5677   1.6086   2.5235   2.6280   2.7265   2.7563
     3.1623   3.1968   3.2494   3.7242   3.7578   3.9946   4.3137   4.5828
     4.7821   4.8266   4.9324   5.4214   5.4412   5.4906   5.6015   5.9077
     6.3245   6.3973   6.4731   6.7493   6.7872   6.9219   7.0470   7.5433
     7.7154   7.7218   7.7360   8.0512  10.2114  10.7476  10.7729  11.2683
    11.8459  12.3165  12.6896  12.7252  12.7785  12.8283  13.0546  13.6918
    14.4519  15.5407  15.6219  15.6444  16.1293  17.0798

          k = 0.1111 0.3333 0.2293 ( 31537 PWs)   bands (ev):

   -66.3436 -66.3434 -66.3430 -66.3428 -30.6876 -30.6849 -30.6690 -30.6646
   -30.6527 -30.6511 -30.6388 -30.6371 -30.6283 -30.6282 -30.6046 -30.6031
   -20.5054 -20.5054 -20.5053 -20.5053 -20.4892 -20.4892 -20.4883 -20.4883
   -20.4878 -20.4877 -20.4866 -20.4865 -20.4846 -20.4846 -20.4845 -20.4845
   -20.4840 -20.4839 -20.4807 -20.4807 -20.4766 -20.4759 -20.4757 -20.4753
   -20.4751 -20.4746 -20.4745 -20.4738  -9.6976  -9.4620  -9.1961  -8.8613
    -8.7632  -8.6961  -8.6805  -8.4909  -8.2649  -8.2333  -8.0877  -8.0638
     1.5479   1.5652   2.0440   2.1373   2.6682   2.7022   2.7610   2.8947
     3.1072   3.1732   3.2364   3.4018   3.9318   3.9457   4.1091   4.2592
     4.4983   4.7527   4.8162   4.8286   4.8906   5.3397   5.4446   5.5293
     6.7207   6.7915   6.8192   6.8516   6.9046   6.9323   7.1586   7.4650
     7.5907   7.6719   7.7308   7.8522  10.6172  10.7479  10.8043  11.5173
    11.8721  12.0342  12.3748  12.6732  12.7207  12.7732  12.9531  13.4392
    15.0087  15.5730  16.0024  16.3926  16.5272  16.6511

          k = 0.1111 0.3333-0.3439 ( 31542 PWs)   bands (ev):

   -66.3435 -66.3435 -66.3429 -66.3429 -30.6730 -30.6729 -30.6676 -30.6676
   -30.6631 -30.6630 -30.6390 -30.6390 -30.6286 -30.6286 -30.6039 -30.6039
   -20.5054 -20.5054 -20.5053 -20.5053 -20.4892 -20.4892 -20.4883 -20.4883
   -20.4878 -20.4878 -20.4865 -20.4865 -20.4846 -20.4846 -20.4845 -20.4845
   -20.4824 -20.4824 -20.4823 -20.4823 -20.4762 -20.4762 -20.4754 -20.4754
   -20.4750 -20.4750 -20.4742 -20.4742  -9.5583  -9.5583  -8.9056  -8.9056
    -8.7901  -8.7901  -8.5273  -8.5273  -8.4275  -8.4275  -8.0793  -8.0793
     1.5604   1.5604   2.6390   2.6390   2.8703   2.8703   2.9919   2.9924
     3.0763   3.0768   3.2210   3.2211   3.3812   3.3814   4.2731   4.2735
     4.3652   4.3653   4.6972   4.6989   4.9804   4.9819   5.4555   5.4556
     6.8269   6.8276   6.8661   6.8668   7.2880   7.2881   7.3219   7.3222
     7.3968   7.3971   7.7512   7.7513  10.7434  10.7436  11.2763  11.2767
    11.9151  11.9153  12.3409  12.3417  12.7237  12.7256  13.1630  13.1640
    15.3894  15.3898  16.2851  16.2856  17.1193  17.1198

          k = 0.1111 0.4444 0.0000 ( 31533 PWs)   bands (ev):

   -66.3436 -66.3434 -66.3431 -66.3429 -30.7042 -30.7034 -30.6601 -30.6537
   -30.6489 -30.6410 -30.6362 -30.6298 -30.6248 -30.6220 -30.6136 -30.6123
   -20.5054 -20.5054 -20.5053 -20.5053 -20.4891 -20.4890 -20.4888 -20.4887
   -20.4875 -20.4873 -20.4871 -20.4868 -20.4854 -20.4853 -20.4845 -20.4845
   -20.4844 -20.4844 -20.4792 -20.4792 -20.4765 -20.4760 -20.4755 -20.4752
   -20.4751 -20.4747 -20.4742 -20.4738  -9.7283  -9.5919  -9.1677  -8.8987
    -8.8695  -8.7215  -8.5341  -8.5249  -8.3019  -8.3015  -7.8718  -7.8552
     1.1082   1.1354   2.0475   2.0631   2.5180   2.5984   2.6471   2.7248
     3.2461   3.6416   3.7005   3.7479   3.7509   3.9434   4.0344   4.2315
     4.4001   4.7201   4.8918   5.0344   5.4336   5.6154   5.8469   5.9019
     6.1092   6.1660   6.3064   6.4873   7.1319   7.1439   7.2118   7.4243
     7.4567   7.4900   7.8156   8.0009  10.6027  11.1842  11.4452  11.4852
    11.7742  12.1083  12.1577  12.3392  12.6588  12.8952  13.2038  13.5148
    14.5412  14.8808  16.0500  16.5584  16.7260  17.0290

          k = 0.1111 0.4444 0.1146 ( 31534 PWs)   bands (ev):

   -66.3435 -66.3433 -66.3431 -66.3429 -30.6996 -30.6987 -30.6602 -30.6538
   -30.6497 -30.6412 -30.6387 -30.6330 -30.6249 -30.6238 -30.6140 -30.6125
   -20.5054 -20.5054 -20.5053 -20.5053 -20.4891 -20.4890 -20.4888 -20.4887
   -20.4875 -20.4873 -20.4870 -20.4869 -20.4850 -20.4850 -20.4845 -20.4845
   -20.4844 -20.4844 -20.4796 -20.4796 -20.4764 -20.4760 -20.4755 -20.4752
   -20.4751 -20.4748 -20.4743 -20.4739  -9.6671  -9.5205  -9.1824  -8.9132
    -8.8481  -8.7088  -8.5387  -8.5210  -8.3084  -8.2995  -7.9792  -7.9646
     1.3652   1.3920   2.0548   2.0608   2.5333   2.6399   2.6676   2.7793
     3.2248   3.5697   3.7057   3.7491   3.8125   4.0032   4.0574   4.2412
     4.3499   4.6409   4.7251   4.7998   5.1157   5.2306   5.6751   5.7855
     6.3089   6.3548   6.5308   6.6528   7.1287   7.1399   7.2227   7.4169
     7.4599   7.4688   7.7740   7.9402  10.7139  11.2586  11.4441  11.4905
    11.8330  12.1035  12.1573  12.3888  12.5061  12.7539  13.0728  13.3979
    14.8933  15.2681  16.1578  16.5262  16.7921  17.0572

          k = 0.1111 0.4444 0.2293 ( 31527 PWs)   bands (ev):

   -66.3434 -66.3432 -66.3432 -66.3430 -30.6871 -30.6861 -30.6615 -30.6549
   -30.6542 -30.6473 -30.6416 -30.6395 -30.6257 -30.6254 -30.6142 -30.6131
   -20.5054 -20.5054 -20.5053 -20.5053 -20.4891 -20.4890 -20.4888 -20.4887
   -20.4874 -20.4873 -20.4869 -20.4869 -20.4845 -20.4845 -20.4845 -20.4844
   -20.4839 -20.4839 -20.4807 -20.4807 -20.4762 -20.4758 -20.4755 -20.4753
   -20.4751 -20.4749 -20.4746 -20.4742  -9.5114  -9.3305  -9.2336  -8.9691
    -8.7725  -8.6604  -8.5579  -8.5061  -8.3567  -8.2919  -8.2321  -8.1926
     1.9606   2.0534   2.0538   2.1834   2.5804   2.6171   2.8719   2.9350
     3.1459   3.3470   3.7229   3.7347   3.9864   4.0012   4.1278   4.1663
     4.1799   4.3075   4.3470   4.6900   4.7451   4.8130   4.9779   5.1919
     6.7853   6.8208   6.8962   6.9288   7.1087   7.1205   7.2740   7.3793
     7.3982   7.4759   7.6436   7.7599  11.0351  11.4260  11.4381  11.5707
    12.0040  12.0354  12.1516  12.1755  12.4005  12.5383  12.7457  13.1115
    15.6105  16.1426  16.4044  16.5067  16.9989  17.0531

          k = 0.1111 0.4444-0.3439 ( 31562 PWs)   bands (ev):

   -66.3433 -66.3433 -66.3431 -66.3431 -30.6711 -30.6711 -30.6693 -30.6693
   -30.6537 -30.6537 -30.6417 -30.6417 -30.6259 -30.6259 -30.6137 -30.6137
   -20.5054 -20.5054 -20.5053 -20.5053 -20.4891 -20.4890 -20.4887 -20.4887
   -20.4873 -20.4873 -20.4869 -20.4869 -20.4845 -20.4845 -20.4844 -20.4844
   -20.4823 -20.4823 -20.4823 -20.4823 -20.4759 -20.4759 -20.4754 -20.4754
   -20.4750 -20.4750 -20.4745 -20.4745  -9.3427  -9.3427  -9.1083  -9.1083
    -8.6359  -8.6359  -8.5368  -8.5368  -8.4482  -8.4482  -8.2750  -8.2750
     2.0402   2.0402   2.5663   2.5663   2.8935   2.8935   2.9494   2.9495
     3.2190   3.2192   3.3436   3.3436   3.7498   3.7501   4.1879   4.1881
     4.3207   4.3225   4.4085   4.4093   4.5832   4.5843   4.8169   4.8169
     7.0400   7.0408   7.0474   7.0482   7.2167   7.2167   7.2471   7.2478
     7.4366   7.4369   7.5440   7.5443  11.3938  11.3951  11.5911  11.5925
    11.9047  11.9059  12.1403  12.1426  12.3729  12.3735  12.7900  12.7908
    16.1289  16.1296  16.7730  16.7748  16.9904  16.9931

          k = 0.2222 0.2222 0.0000 ( 31545 PWs)   bands (ev):

   -66.3438 -66.3433 -66.3431 -66.3426 -30.7043 -30.7019 -30.6783 -30.6741
   -30.6460 -30.6386 -30.6377 -30.6280 -30.6275 -30.6235 -30.5962 -30.5929
   -20.5054 -20.5054 -20.5053 -20.5053 -20.4896 -20.4895 -20.4886 -20.4884
   -20.4878 -20.4876 -20.4860 -20.4859 -20.4857 -20.4855 -20.4847 -20.4847
   -20.4845 -20.4845 -20.4790 -20.4790 -20.4773 -20.4760 -20.4758 -20.4756
   -20.4747 -20.4746 -20.4743 -20.4731  -9.9615  -9.5299  -9.4707  -9.0300
    -8.7681  -8.7351  -8.5893  -8.5114  -7.9027  -7.9006  -7.8753  -7.8334
     1.0303   1.1290   1.1791   1.1983   2.3119   2.6292   2.7091   2.7716
     2.9707   3.0795   3.2185   3.6862   3.9403   3.9735   4.6948   4.8597
     5.1425   5.2014   5.3480   5.7410   5.8602   5.8803   6.0596   6.1048
     6.1212   6.1429   6.2701   6.5034   6.5321   6.7422   7.0948   7.5517
     7.7174   7.7631   7.7893   8.2169   9.4926  10.5588  10.5874  11.1802
    11.7704  12.3531  12.9035  13.0019  13.0230  13.1692  13.1910  13.7347
    14.0921  14.9560  15.1825  15.2831  15.7875  17.3240

          k = 0.2222 0.2222 0.1146 ( 31534 PWs)   bands (ev):

   -66.3438 -66.3434 -66.3431 -66.3426 -30.6995 -30.6972 -30.6781 -30.6744
   -30.6471 -30.6408 -30.6379 -30.6311 -30.6282 -30.6259 -30.5960 -30.5931
   -20.5054 -20.5054 -20.5053 -20.5053 -20.4896 -20.4895 -20.4885 -20.4884
   -20.4877 -20.4876 -20.4860 -20.4859 -20.4853 -20.4851 -20.4847 -20.4847
   -20.4845 -20.4845 -20.4795 -20.4794 -20.4772 -20.4759 -20.4759 -20.4755
   -20.4748 -20.4745 -20.4743 -20.4732  -9.9146  -9.5441  -9.3915  -8.9992
    -8.7721  -8.7262  -8.6030  -8.5057  -8.0108  -7.9494  -7.8989  -7.8770
     1.1059   1.1288   1.3622   1.4631   2.3836   2.6498   2.7571   2.7631
     2.9765   3.0732   3.1936   3.7462   3.7558   4.0063   4.5911   4.7561
     4.8504   5.2091   5.2324   5.4650   5.5995   5.9781   6.0366   6.1219
     6.2162   6.3013   6.4647   6.4977   6.5269   6.8204   6.9673   7.5298
     7.7327   7.7456   7.7562   8.1289   9.7322  10.5600  10.5878  11.2600
    11.8364  12.1819  12.7546  13.0023  13.0176  13.0414  13.2275  13.9782
    13.9961  14.9359  15.4521  15.5872  15.8749  17.0156

          k = 0.2222 0.2222 0.2293 ( 31547 PWs)   bands (ev):

   -66.3437 -66.3435 -66.3430 -66.3427 -30.6867 -30.6844 -30.6773 -30.6752
   -30.6538 -30.6505 -30.6384 -30.6370 -30.6287 -30.6286 -30.5954 -30.5937
   -20.5054 -20.5054 -20.5053 -20.5053 -20.4896 -20.4895 -20.4885 -20.4885
   -20.4877 -20.4876 -20.4859 -20.4859 -20.4848 -20.4847 -20.4846 -20.4845
   -20.4840 -20.4839 -20.4807 -20.4806 -20.4769 -20.4761 -20.4757 -20.4753
   -20.4751 -20.4746 -20.4742 -20.4735  -9.7995  -9.5903  -9.1712  -8.9098
    -8.7859  -8.6842  -8.6683  -8.4848  -8.2636  -8.2226  -7.8943  -7.8817
     1.1229   1.1281   2.0395   2.1659   2.5929   2.7177   2.7354   2.8928
     2.9897   3.0570   3.1123   3.3587   3.9347   3.9362   4.1204   4.2565
     4.8219   4.8620   4.9179   5.1426   5.2503   5.7497   6.1099   6.1235
     6.3896   6.3958   6.5121   6.7254   6.8571   6.9316   7.0680   7.4519
     7.6040   7.7060   7.7575   7.8974  10.3064  10.5628  10.5991  11.5073
    11.7113  12.0305  12.3724  12.7203  13.0035  13.0100  13.3362  13.7673
    14.4076  14.8649  15.7968  16.3171  16.5441  16.5631

          k = 0.2222 0.2222-0.3439 ( 31550 PWs)   bands (ev):

   -66.3436 -66.3436 -66.3429 -66.3428 -30.6762 -30.6762 -30.6694 -30.6694
   -30.6671 -30.6671 -30.6386 -30.6386 -30.6291 -30.6291 -30.5945 -30.5945
   -20.5054 -20.5054 -20.5053 -20.5053 -20.4896 -20.4895 -20.4885 -20.4885
   -20.4876 -20.4876 -20.4859 -20.4859 -20.4848 -20.4848 -20.4845 -20.4845
   -20.4824 -20.4824 -20.4823 -20.4823 -20.4765 -20.4765 -20.4754 -20.4754
   -20.4750 -20.4750 -20.4739 -20.4739  -9.6768  -9.6768  -8.8771  -8.8771
    -8.8209  -8.8209  -8.5316  -8.5316  -8.4233  -8.4233  -7.8880  -7.8880
     1.1265   1.1265   2.6673   2.6673   2.8986   2.8986   2.9054   2.9054
     3.0529   3.0529   3.0713   3.0713   3.3406   3.3406   4.2713   4.2713
     4.3735   4.3735   5.0697   5.0697   5.4202   5.4202   6.1234   6.1234
     6.4606   6.4606   6.5492   6.5493   7.2809   7.2809   7.3517   7.3517
     7.3708   7.3708   7.7850   7.7850  10.5611  10.5611  11.0538  11.0538
    11.9067  11.9067  12.3434  12.3434  13.0056  13.0056  13.5218  13.5218
    14.7069  14.7069  16.1234  16.1234  17.1123  17.1123

          k = 0.2222 0.3333 0.0000 ( 31532 PWs)   bands (ev):

   -66.3437 -66.3432 -66.3432 -66.3427 -30.7039 -30.7025 -30.6768 -30.6723
   -30.6496 -30.6419 -30.6369 -30.6273 -30.6238 -30.6221 -30.5978 -30.5946
   -20.5054 -20.5054 -20.5053 -20.5053 -20.4897 -20.4897 -20.4891 -20.4891
   -20.4873 -20.4870 -20.4860 -20.4858 -20.4854 -20.4854 -20.4847 -20.4847
   -20.4844 -20.4844 -20.4791 -20.4790 -20.4772 -20.4760 -20.4757 -20.4756
   -20.4747 -20.4747 -20.4742 -20.4732  -9.8768  -9.5414  -9.4401  -9.0073
    -8.8537  -8.7107  -8.5564  -8.5376  -7.9619  -7.9480  -7.8827  -7.8437
     1.0690   1.1622   1.2457   1.2927   2.3406   2.5174   2.6433   2.7468
     3.2680   3.4225   3.4363   3.7735   3.9431   3.9756   4.5670   4.8919
     4.8947   4.9892   5.1852   5.7170   5.7427   5.7463   5.7813   5.9057
     6.1443   6.1831   6.4378   6.4512   6.5717   6.7752   6.9714   7.4309
     7.4487   7.5141   7.8004   8.1912   9.6723  11.1480  11.1674  11.2106
    11.7775  12.3852  12.6888  12.7116  12.8874  13.0786  13.2004  13.8959
    14.0113  14.9497  15.2889  15.6844  16.4607  17.3507

          k = 0.2222 0.3333 0.1146 ( 31521 PWs)   bands (ev):

   -66.3437 -66.3432 -66.3432 -66.3428 -30.6992 -30.6979 -30.6766 -30.6725
   -30.6501 -30.6421 -30.6400 -30.6313 -30.6240 -30.6235 -30.5976 -30.5948
   -20.5054 -20.5054 -20.5053 -20.5053 -20.4897 -20.4897 -20.4891 -20.4891
   -20.4872 -20.4870 -20.4859 -20.4858 -20.4851 -20.4851 -20.4847 -20.4847
   -20.4844 -20.4844 -20.4795 -20.4794 -20.4771 -20.4760 -20.4758 -20.4755
   -20.4748 -20.4746 -20.4743 -20.4733  -9.8272  -9.4682  -9.4532  -8.9747
    -8.8661  -8.6990  -8.5622  -8.5332  -8.0111  -7.9622  -7.9602  -7.9277
     1.2040   1.2454   1.3800   1.4636   2.4134   2.5324   2.6359   2.8051
     3.2607   3.4150   3.4179   3.7700   3.8326   4.0028   4.6161   4.6284
     4.8875   4.9004   4.9253   5.3126   5.6753   5.7223   5.7834   5.9750
     6.1765   6.4103   6.4778   6.5174   6.5661   6.8306   6.9161   7.4395
     7.4419   7.4917   7.7575   8.1053   9.8836  11.1488  11.1744  11.2876
    11.8358  12.2170  12.6838  12.7087  12.7492  13.0673  13.1138  13.9122
    14.1561  15.2621  15.3292  15.8434  16.5433  17.2203

          k = 0.2222 0.3333 0.2293 ( 31543 PWs)   bands (ev):

   -66.3436 -66.3433 -66.3431 -66.3429 -30.6866 -30.6852 -30.6759 -30.6730
   -30.6545 -30.6511 -30.6425 -30.6394 -30.6250 -30.6245 -30.5970 -30.5954
   -20.5054 -20.5054 -20.5053 -20.5053 -20.4897 -20.4897 -20.4891 -20.4891
   -20.4871 -20.4870 -20.4858 -20.4858 -20.4847 -20.4847 -20.4845 -20.4844
   -20.4840 -20.4838 -20.4807 -20.4806 -20.4768 -20.4761 -20.4758 -20.4753
   -20.4751 -20.4746 -20.4743 -20.4736  -9.7063  -9.4966  -9.2729  -8.9150
    -8.8660  -8.6531  -8.5873  -8.5165  -8.2683  -8.2302  -7.9554  -7.9412
     1.2368   1.2443   2.0444   2.1662   2.5802   2.6125   2.6312   2.9692
     3.2036   3.3122   3.4072   3.4417   4.0051   4.0174   4.1105   4.2151
     4.6846   4.7728   4.8662   4.9548   4.9740   5.5564   5.7899   5.8463
     6.4183   6.5411   6.5594   6.7663   6.8223   6.9413   7.0578   7.4089
     7.4162   7.4709   7.6189   7.8574  10.4194  11.1486  11.1763  11.5356
    11.7589  12.0223  12.3735  12.6837  12.7032  12.7429  13.2247  13.6750
    14.6326  15.1703  16.1692  16.2595  16.9048  16.9090

          k = 0.2222 0.3333-0.3439 ( 31562 PWs)   bands (ev):

   -66.3435 -66.3435 -66.3430 -66.3430 -30.6755 -30.6755 -30.6684 -30.6684
   -30.6675 -30.6675 -30.6425 -30.6425 -30.6250 -30.6250 -30.5962 -30.5962
   -20.5054 -20.5054 -20.5053 -20.5053 -20.4897 -20.4897 -20.4891 -20.4891
   -20.4871 -20.4870 -20.4858 -20.4858 -20.4847 -20.4847 -20.4845 -20.4845
   -20.4824 -20.4824 -20.4823 -20.4823 -20.4765 -20.4765 -20.4754 -20.4754
   -20.4750 -20.4750 -20.4739 -20.4739  -9.5809  -9.5809  -9.0468  -9.0468
    -8.6892  -8.6892  -8.5236  -8.5236  -8.4548  -8.4548  -7.9486  -7.9486
     1.2422   1.2422   2.5604   2.5604   2.9168   2.9170   2.9366   2.9369
     3.1729   3.1731   3.3067   3.3071   3.4126   3.4127   4.2539   4.2540
     4.4095   4.4096   4.8408   4.8418   5.2040   5.2051   5.8031   5.8032
     6.5082   6.5085   6.6625   6.6627   7.2418   7.2420   7.2626   7.2632
     7.3699   7.3701   7.5642   7.5644  11.0519  11.0524  11.2166  11.2173
    11.9257  11.9259  12.3387  12.3387  12.6990  12.6995  13.4184  13.4188
    14.9780  14.9782  16.5650  16.5651  17.0330  17.0333

          k = 0.2222 0.4444 0.0000 ( 31552 PWs)   bands (ev):

   -66.3436 -66.3434 -66.3430 -66.3429 -30.7036 -30.7032 -30.6709 -30.6655
   -30.6613 -30.6550 -30.6323 -30.6297 -30.6127 -30.6110 -30.6037 -30.6009
   -20.5054 -20.5054 -20.5053 -20.5053 -20.4898 -20.4897 -20.4896 -20.4895
   -20.4868 -20.4865 -20.4863 -20.4861 -20.4854 -20.4853 -20.4845 -20.4845
   -20.4844 -20.4844 -20.4791 -20.4791 -20.4769 -20.4765 -20.4755 -20.4752
   -20.4752 -20.4749 -20.4738 -20.4734  -9.7650  -9.6448  -9.2943  -9.0952
    -8.9544  -8.8597  -8.3219  -8.3181  -8.1127  -8.1050  -7.8703  -7.8565
     1.1100   1.1388   1.5717   1.5920   2.0490   2.0609   2.4419   2.5986
     3.6368   3.8578   3.8783   3.9404   3.9866   4.2822   4.4085   4.4742
     4.6127   5.0505   5.2391   5.2581   5.5716   5.5774   5.7390   5.7697
     6.2194   6.3110   6.4048   6.6863   6.7911   6.7975   6.9340   7.1045
     7.1655   7.1744   7.9894   8.1175  10.0871  10.6217  11.7286  11.7564
    12.2462  12.2527  12.3602  12.4878  12.6552  12.7774  13.5163  13.8032
    14.2358  14.6210  15.9109  16.2135  16.7073  16.8489

          k = 0.2222 0.4444 0.1146 ( 31544 PWs)   bands (ev):

   -66.3435 -66.3434 -66.3431 -66.3429 -30.6990 -30.6985 -30.6707 -30.6657
   -30.6613 -30.6551 -30.6366 -30.6341 -30.6129 -30.6113 -30.6036 -30.6011
   -20.5054 -20.5054 -20.5053 -20.5053 -20.4897 -20.4897 -20.4895 -20.4895
   -20.4867 -20.4865 -20.4862 -20.4861 -20.4850 -20.4850 -20.4845 -20.4845
   -20.4844 -20.4844 -20.4795 -20.4795 -20.4768 -20.4764 -20.4756 -20.4753
   -20.4751 -20.4748 -20.4739 -20.4735  -9.7097  -9.5808  -9.3067  -9.1073
    -8.9257  -8.8391  -8.3301  -8.3155  -8.1190  -8.1107  -7.9745  -7.9635
     1.3515   1.3877   1.5709   1.6212   2.0569   2.0586   2.5159   2.6709
     3.5923   3.7400   3.8552   3.9394   4.0085   4.3382   4.4124   4.4196
     4.6235   4.8267   4.9642   5.2150   5.2631   5.3712   5.7914   5.9064
     6.1998   6.2728   6.6248   6.7758   6.7851   6.8127   6.9566   7.0978
     7.1649   7.1723   7.9271   8.0403  10.2462  10.7365  11.7278  11.7554
    12.2445  12.2548  12.3316  12.3948  12.5041  12.8153  13.3969  13.6959
    14.5335  14.9637  15.8780  16.3419  16.6655  16.9342

          k = 0.2222 0.4444 0.2293 ( 31552 PWs)   bands (ev):

   -66.3434 -66.3433 -66.3432 -66.3430 -30.6865 -30.6860 -30.6704 -30.6659
   -30.6622 -30.6554 -30.6487 -30.6456 -30.6130 -30.6118 -30.6032 -30.6017
   -20.5054 -20.5054 -20.5053 -20.5053 -20.4897 -20.4897 -20.4895 -20.4895
   -20.4866 -20.4865 -20.4861 -20.4861 -20.4846 -20.4845 -20.4845 -20.4844
   -20.4839 -20.4839 -20.4807 -20.4807 -20.4766 -20.4762 -20.4759 -20.4755
   -20.4749 -20.4745 -20.4742 -20.4738  -9.5743  -9.4188  -9.3489  -9.1507
    -8.8232  -8.7604  -8.3881  -8.3072  -8.2900  -8.2005  -8.1051  -8.0790
     1.5492   1.5684   1.9497   2.0513   2.1468   2.1881   2.7401   2.8881
     3.3787   3.3959   3.8501   3.8565   4.1922   4.1963   4.2462   4.3684
     4.4032   4.5693   4.6635   4.8062   5.1990   5.2029   5.2802   5.5097
     6.5658   6.7087   6.7648   6.8493   6.8741   6.9292   7.0745   7.0829
     7.1549   7.2125   7.7349   7.8102  10.6818  11.0683  11.7097  11.7535
    11.8998  12.0799  12.2639  12.2750  12.5279  12.9375  13.1044  13.4366
    15.1090  15.6813  15.7664  16.5278  16.7001  17.1838

          k = 0.2222 0.4444-0.3439 ( 31568 PWs)   bands (ev):

   -66.3433 -66.3433 -66.3431 -66.3431 -30.6728 -30.6728 -30.6702 -30.6702
   -30.6629 -30.6629 -30.6544 -30.6543 -30.6125 -30.6125 -30.6025 -30.6025
   -20.5054 -20.5054 -20.5053 -20.5053 -20.4897 -20.4897 -20.4895 -20.4895
   -20.4865 -20.4865 -20.4861 -20.4861 -20.4845 -20.4845 -20.4845 -20.4845
   -20.4823 -20.4823 -20.4823 -20.4823 -20.4763 -20.4762 -20.4759 -20.4759
   -20.4745 -20.4745 -20.4742 -20.4742  -9.4362  -9.4362  -9.2501  -9.2501
    -8.6169  -8.6168  -8.5749  -8.5749  -8.2884  -8.2884  -8.0962  -8.0962
     1.5634   1.5635   2.0369   2.0370   2.9360   2.9360   2.9463   2.9465
     3.2607   3.2610   3.3415   3.3415   3.8501   3.8507   4.3268   4.3273
     4.5704   4.5707   4.7826   4.7828   4.8854   4.8861   5.3241   5.3242
     6.7159   6.7160   6.8770   6.8770   7.0096   7.0100   7.0912   7.0914
     7.4166   7.4168   7.4627   7.4630  11.2703  11.2707  11.5534  11.5537
    11.7581  11.7588  12.2666  12.2674  12.7776  12.7780  13.1530  13.1534
    15.5342  15.5345  16.2394  16.2399  17.0804  17.0813

          k = 0.3333 0.3333 0.0000 ( 31544 PWs)   bands (ev):

   -66.3436 -66.3433 -66.3431 -66.3428 -30.7032 -30.7027 -30.6799 -30.6757
   -30.6618 -30.6555 -30.6329 -30.6287 -30.6123 -30.6105 -30.5948 -30.5915
   -20.5054 -20.5054 -20.5053 -20.5053 -20.4901 -20.4901 -20.4897 -20.4897
   -20.4867 -20.4863 -20.4857 -20.4854 -20.4854 -20.4853 -20.4848 -20.4848
   -20.4844 -20.4844 -20.4790 -20.4789 -20.4773 -20.4765 -20.4758 -20.4752
   -20.4752 -20.4746 -20.4738 -20.4731  -9.8527  -9.6201  -9.4411  -9.0780
    -9.0166  -8.8559  -8.3284  -8.3238  -7.9187  -7.8923  -7.8848  -7.8504
     1.0488   1.1307   1.1553   1.2153   2.0474   2.0584   2.2959   2.6022
     3.6302   3.7272   3.8523   3.9575   3.9883   4.5923   4.7145   4.8481
     4.9021   5.0564   5.2621   5.6004   5.6174   5.6738   5.9036   5.9408
     6.2294   6.2431   6.3223   6.3308   6.5060   6.7196   7.0425   7.0796
     7.0997   7.1840   7.9860   8.2115   9.5347  10.6235  11.6137  11.6444
    12.3220  12.3525  12.5917  12.6111  12.6510  13.1821  13.5156  13.7890
    14.0940  14.6398  15.1645  16.0271  16.7351  16.8904

          k = 0.3333 0.3333 0.1146 ( 31527 PWs)   bands (ev):

   -66.3436 -66.3433 -66.3432 -66.3428 -30.6984 -30.6981 -30.6796 -30.6760
   -30.6618 -30.6556 -30.6374 -30.6333 -30.6125 -30.6108 -30.5946 -30.5917
   -20.5054 -20.5054 -20.5053 -20.5053 -20.4901 -20.4901 -20.4897 -20.4897
   -20.4866 -20.4863 -20.4854 -20.4853 -20.4853 -20.4851 -20.4848 -20.4848
   -20.4844 -20.4844 -20.4794 -20.4794 -20.4772 -20.4764 -20.4759 -20.4753
   -20.4751 -20.4745 -20.4739 -20.4732  -9.8042  -9.5557  -9.4531  -9.0894
    -8.9811  -8.8355  -8.3367  -8.3212  -7.9964  -7.9633  -7.9170  -7.8941
     1.1092   1.1305   1.3821   1.4510   2.0553   2.0561   2.3691   2.6759
     3.6207   3.7222   3.7451   3.8047   4.0262   4.6039   4.7654   4.8200
     4.8524   4.8617   4.9676   5.2277   5.7699   5.7979   5.9066   5.9546
     5.9851   6.3155   6.3604   6.4557   6.5506   6.7879   6.9752   7.0727
     7.0833   7.1816   7.9233   8.1217   9.7715  10.7401  11.6141  11.6431
    12.1843  12.3660  12.4964  12.5926  12.6091  13.2153  13.3949  13.9960
    14.0370  14.9783  15.1360  16.1885  16.6931  16.9842

          k = 0.3333 0.3333 0.2293 ( 31554 PWs)   bands (ev):

   -66.3435 -66.3433 -66.3432 -66.3429 -30.6855 -30.6854 -30.6789 -30.6768
   -30.6625 -30.6559 -30.6500 -30.6451 -30.6125 -30.6113 -30.5940 -30.5923
   -20.5054 -20.5054 -20.5053 -20.5053 -20.4901 -20.4901 -20.4897 -20.4897
   -20.4864 -20.4864 -20.4853 -20.4853 -20.4848 -20.4848 -20.4845 -20.4844
   -20.4840 -20.4839 -20.4807 -20.4806 -20.4770 -20.4762 -20.4762 -20.4755
   -20.4749 -20.4742 -20.4742 -20.4735  -9.6877  -9.4926  -9.3931  -9.1305
    -8.8598  -8.7566  -8.3962  -8.3127  -8.2687  -8.2025  -7.9122  -7.8990
     1.1250   1.1299   1.9460   2.0488   2.1751   2.1870   2.5836   2.8983
     3.3421   3.4415   3.6769   3.7083   4.1965   4.2270   4.2506   4.6466
     4.7729   4.8088   4.8165   5.0074   5.1976   5.6305   5.9154   5.9633
     6.1675   6.2946   6.4454   6.7233   6.7521   6.9366   6.9955   7.0485
     7.1637   7.1836   7.7286   7.8594  10.3500  11.0749  11.5957  11.6398
    11.7414  12.0898  12.5108  12.5952  12.6044  13.0988  13.3217  13.7618
    14.4985  15.0397  15.6934  16.5543  16.5866  17.3405

          k = 0.3333 0.3333-0.3439 ( 31552 PWs)   bands (ev):

   -66.3434 -66.3434 -66.3431 -66.3431 -30.6778 -30.6778 -30.6699 -30.6699
   -30.6677 -30.6677 -30.6546 -30.6546 -30.6120 -30.6120 -30.5931 -30.5931
   -20.5054 -20.5054 -20.5053 -20.5053 -20.4901 -20.4901 -20.4897 -20.4897
   -20.4864 -20.4864 -20.4853 -20.4853 -20.4848 -20.4848 -20.4844 -20.4844
   -20.4824 -20.4824 -20.4823 -20.4823 -20.4766 -20.4766 -20.4759 -20.4759
   -20.4745 -20.4745 -20.4739 -20.4739  -9.5700  -9.5700  -9.2262  -9.2262
    -8.6335  -8.6335  -8.5666  -8.5666  -8.2935  -8.2934  -7.9056  -7.9056
     1.1285   1.1286   2.0343   2.0344   2.9221   2.9221   2.9532   2.9532
     3.1800   3.1801   3.3589   3.3589   3.6898   3.6898   4.5168   4.5168
     4.7797   4.7797   4.8101   4.8101   5.3009   5.3009   5.9309   5.9309
     6.2540   6.2540   6.5785   6.5785   6.9791   6.9791   7.0996   7.0996
     7.3984   7.3984   7.4744   7.4744  11.0508  11.0508  11.5654  11.5655
    11.6371  11.6371  12.5993  12.5993  12.7673  12.7673  13.5102  13.5102
    14.8434  14.8434  16.2611  16.2611  16.9850  16.9850

          k = 0.3333 0.4444 0.0000 ( 31532 PWs)   bands (ev):

   -66.3435 -66.3434 -66.3430 -66.3429 -30.7029 -30.7028 -30.6782 -30.6736
   -30.6719 -30.6665 -30.6311 -30.6299 -30.6028 -30.6000 -30.5965 -30.5934
   -20.5054 -20.5054 -20.5053 -20.5053 -20.4902 -20.4902 -20.4901 -20.4901
   -20.4862 -20.4858 -20.4858 -20.4854 -20.4854 -20.4852 -20.4847 -20.4847
   -20.4845 -20.4845 -20.4790 -20.4789 -20.4772 -20.4769 -20.4757 -20.4755
   -20.4749 -20.4747 -20.4734 -20.4732  -9.7969  -9.7134  -9.3814  -9.2584
    -8.9979  -8.9481  -8.1237  -8.1153  -7.9775  -7.9597  -7.8698  -7.8591
     1.0952   1.1370   1.2440   1.2987   1.5686   1.5911   2.3294   2.4381
     3.9504   4.0087   4.1187   4.1318   4.2561   4.5552   4.5700   4.5879
     5.2166   5.3192   5.3359   5.5806   5.6001   5.6349   5.6865   5.8204
     6.3302   6.3849   6.4052   6.4442   6.4888   6.6665   6.7027   6.8213
     6.8601   7.0338   8.1130   8.1863   9.7018  10.1011  12.0408  12.0664
    12.3718  12.3892  12.3961  12.4837  12.7703  13.0711  13.8048  13.9329
    14.0143  14.2628  15.4129  15.9803  16.4604  16.9672

          k = 0.3333 0.4444 0.1146 ( 31548 PWs)   bands (ev):

   -66.3435 -66.3434 -66.3431 -66.3429 -30.6982 -30.6981 -30.6780 -30.6739
   -30.6717 -30.6666 -30.6359 -30.6346 -30.6027 -30.6002 -30.5963 -30.5936
   -20.5054 -20.5054 -20.5053 -20.5053 -20.4902 -20.4902 -20.4901 -20.4901
   -20.4860 -20.4858 -20.4856 -20.4854 -20.4851 -20.4851 -20.4847 -20.4847
   -20.4845 -20.4844 -20.4794 -20.4794 -20.4771 -20.4769 -20.4758 -20.4756
   -20.4748 -20.4746 -20.4735 -20.4733  -9.7466  -9.6576  -9.3928  -9.2695
    -8.9637  -8.9191  -8.1286  -8.1217  -8.0049  -7.9757  -7.9663  -7.9397
     1.2068   1.2437   1.3628   1.4613   1.5679   1.6216   2.4038   2.5136
     3.7962   3.8225   4.0881   4.1159   4.3217   4.5262   4.5650   4.6583
     5.0372   5.0613   5.2228   5.3267   5.6115   5.6904   5.8931   5.9512
     6.0549   6.3111   6.3988   6.5142   6.6037   6.6956   6.7694   6.8353
     6.8689   6.9565   8.0351   8.0992   9.9122  10.2614  12.0388  12.0651
    12.2201  12.3173  12.3817  12.3947  12.8064  13.1044  13.6956  13.9131
    14.1942  14.5570  15.3821  15.9458  16.6168  17.1039

          k = 0.3333 0.4444 0.2293 ( 31565 PWs)   bands (ev):

   -66.3434 -66.3433 -66.3431 -66.3430 -30.6857 -30.6855 -30.6773 -30.6743
   -30.6713 -30.6668 -30.6488 -30.6474 -30.6023 -30.6008 -30.5958 -30.5942
   -20.5054 -20.5054 -20.5053 -20.5053 -20.4902 -20.4902 -20.4901 -20.4901
   -20.4859 -20.4858 -20.4854 -20.4854 -20.4847 -20.4847 -20.4845 -20.4845
   -20.4840 -20.4839 -20.4806 -20.4806 -20.4769 -20.4766 -20.4761 -20.4759
   -20.4745 -20.4743 -20.4738 -20.4736  -9.6262  -9.5222  -9.4307  -9.3078
    -8.8435  -8.8130  -8.2996  -8.2760  -8.1160  -8.0885  -7.9707  -7.9559
     1.2358   1.2428   1.5464   1.5654   2.1424   2.1618   2.6255   2.7431
     3.3751   3.4237   4.0795   4.1069   4.2440   4.2710   4.4772   4.5113
     4.6008   4.8527   5.1525   5.2443   5.4741   5.5143   5.7027   5.8167
     6.2380   6.3782   6.4858   6.5858   6.6726   6.8081   6.8693   6.8936
     6.9745   7.0236   7.8001   7.8416  10.4464  10.6983  11.7514  11.8806
    12.0546  12.0614  12.3824  12.3910  12.9266  13.2133  13.4316  13.6704
    14.6919  15.1407  15.2789  15.8301  17.0096  17.4513

          k = 0.3333 0.4444-0.3439 ( 31582 PWs)   bands (ev):

   -66.3433 -66.3433 -66.3432 -66.3432 -30.6767 -30.6767 -30.6730 -30.6730
   -30.6663 -30.6663 -30.6627 -30.6627 -30.6016 -30.6015 -30.5950 -30.5950
   -20.5054 -20.5054 -20.5053 -20.5053 -20.4902 -20.4902 -20.4901 -20.4901
   -20.4858 -20.4858 -20.4854 -20.4854 -20.4847 -20.4847 -20.4845 -20.4845
   -20.4823 -20.4823 -20.4823 -20.4823 -20.4765 -20.4765 -20.4763 -20.4763
   -20.4742 -20.4742 -20.4739 -20.4739  -9.5067  -9.5067  -9.3887  -9.3887
    -8.6088  -8.6088  -8.5901  -8.5900  -8.1068  -8.1068  -7.9637  -7.9637
     1.2409   1.2409   1.5606   1.5606   2.9309   2.9310   2.9456   2.9456
     3.2052   3.2053   3.2738   3.2738   4.0928   4.0930   4.5124   4.5128
     4.8639   4.8641   5.1535   5.1540   5.3000   5.3001   5.7298   5.7299
     6.3358   6.3359   6.6213   6.6214   6.6905   6.6905   6.9005   6.9005
     7.4207   7.4207   7.4428   7.4429  11.1171  11.1171  11.2900  11.2901
    12.0567  12.0569  12.3864  12.3866  13.1435  13.1437  13.4088  13.4090
    15.0676  15.0678  15.5876  15.5877  17.3570  17.3573

          k = 0.4444 0.4444 0.0000 ( 31498 PWs)   bands (ev):

   -66.3435 -66.3435 -66.3430 -66.3429 -30.7024 -30.7023 -30.6810 -30.6788
   -30.6767 -30.6742 -30.6306 -30.6302 -30.5961 -30.5938 -30.5929 -30.5906
   -20.5054 -20.5054 -20.5053 -20.5053 -20.4905 -20.4904 -20.4904 -20.4904
   -20.4858 -20.4857 -20.4853 -20.4852 -20.4850 -20.4849 -20.4849 -20.4848
   -20.4846 -20.4846 -20.4788 -20.4788 -20.4774 -20.4772 -20.4758 -20.4757
   -20.4747 -20.4746 -20.4732 -20.4731  -9.8023  -9.7725  -9.4071  -9.3654
    -9.0099  -8.9946  -7.9836  -7.9647  -7.9304  -7.9034  -7.8727  -7.8641
     1.0645   1.1089   1.1288   1.2269   1.2426   1.3011   2.2880   2.3262
     4.0665   4.0832   4.3468   4.4127   4.5608   4.5656   4.6064   4.7141
     5.3757   5.3927   5.4542   5.5098   5.6657   5.8059   5.8405   5.9030
     6.2129   6.3078   6.3515   6.3557   6.4090   6.4467   6.5032   6.5089
     7.0148   7.0987   8.1844   8.2082   9.5558   9.7108  12.2804  12.3020
    12.3514  12.3838  12.3959  12.4152  13.0664  13.1750  13.8086  13.9423
    14.0151  14.0951  15.2319  15.4426  16.7204  16.9197

          k = 0.4444 0.4444 0.1146 ( 31537 PWs)   bands (ev):

   -66.3435 -66.3434 -66.3430 -66.3430 -30.6977 -30.6975 -30.6807 -30.6785
   -30.6770 -30.6744 -30.6354 -30.6350 -30.5959 -30.5936 -30.5931 -30.5908
   -20.5054 -20.5054 -20.5053 -20.5053 -20.4905 -20.4904 -20.4904 -20.4904
   -20.4855 -20.4853 -20.4853 -20.4851 -20.4850 -20.4849 -20.4849 -20.4848
   -20.4846 -20.4846 -20.4793 -20.4793 -20.4773 -20.4772 -20.4759 -20.4759
   -20.4746 -20.4745 -20.4733 -20.4732  -9.7538  -9.7222  -9.4180  -9.3763
    -8.9735  -8.9600  -8.0047  -7.9881  -7.9817  -7.9434  -7.9286  -7.9052
     1.1101   1.1287   1.2079   1.2423   1.4512   1.4664   2.3622   2.4012
     3.8289   3.8481   4.3570   4.4110   4.5589   4.6016   4.6279   4.7784
     5.0757   5.0905   5.5036   5.6152   5.6698   5.8442   5.8868   5.9422
     6.1306   6.2064   6.2551   6.3445   6.3843   6.5277   6.5872   6.6418
     6.9396   6.9773   8.0970   8.1177   9.7915   9.9211  12.1806  12.2164
    12.2838  12.3007  12.3971  12.4139  13.0993  13.2074  13.9129  13.9955
    14.0579  14.2031  15.2020  15.4114  16.9084  17.1142

          k = 0.4444 0.4444 0.2293 ( 31579 PWs)   bands (ev):

   -66.3434 -66.3433 -66.3431 -66.3431 -30.6850 -30.6845 -30.6799 -30.6778
   -30.6778 -30.6747 -30.6486 -30.6482 -30.5953 -30.5937 -30.5930 -30.5914
   -20.5054 -20.5054 -20.5053 -20.5053 -20.4905 -20.4905 -20.4904 -20.4904
   -20.4853 -20.4853 -20.4850 -20.4849 -20.4849 -20.4849 -20.4846 -20.4846
   -20.4840 -20.4840 -20.4806 -20.4806 -20.4770 -20.4769 -20.4762 -20.4761
   -20.4743 -20.4742 -20.4736 -20.4735  -9.6389  -9.6026  -9.4541  -9.4125
    -8.8470  -8.8379  -8.2799  -8.2745  -7.9767  -7.9617  -7.9237  -7.9102
     1.1239   1.1282   1.2348   1.2415   2.1594   2.1708   2.5805   2.6253
     3.3713   3.3923   4.2547   4.2645   4.3718   4.4028   4.5626   4.5901
     4.8226   4.9669   5.4154   5.5477   5.6830   5.8118   5.8554   5.9301
     6.0768   6.1860   6.2120   6.3229   6.4670   6.5970   6.7675   6.8156
     6.9549   6.9716   7.8374   7.8509  10.3672  10.4546  11.7177  11.7594
    12.2871  12.2971  12.4007  12.4104  13.2077  13.3126  13.6679  13.7575
    14.5336  14.7068  15.1019  15.3070  17.3768  17.7262

          k = 0.4444 0.4444-0.3439 ( 31568 PWs)   bands (ev):

   -66.3432 -66.3432 -66.3432 -66.3432 -30.6789 -30.6789 -30.6772 -30.6772
   -30.6666 -30.6666 -30.6658 -30.6658 -30.5945 -30.5945 -30.5922 -30.5922
   -20.5054 -20.5054 -20.5053 -20.5053 -20.4905 -20.4905 -20.4904 -20.4904
   -20.4853 -20.4853 -20.4849 -20.4849 -20.4849 -20.4849 -20.4846 -20.4846
   -20.4823 -20.4823 -20.4823 -20.4823 -20.4766 -20.4766 -20.4765 -20.4765
   -20.4739 -20.4739 -20.4739 -20.4739  -9.5260  -9.5260  -9.4857  -9.4857
    -8.6033  -8.6033  -8.5978  -8.5978  -7.9696  -7.9696  -7.9170  -7.9169
     1.1271   1.1271   1.2397   1.2397   2.9279   2.9279   2.9353   2.9353
     3.1849   3.1849   3.2081   3.2081   4.3882   4.3882   4.5754   4.5755
     5.1179   5.1179   5.2540   5.2540   5.7131   5.7131   5.8773   5.8773
     6.1476   6.1476   6.2821   6.2821   6.5964   6.5964   6.6982   6.6982
     7.4290   7.4290   7.4370   7.4370  11.0665  11.0665  11.1241  11.1241
    12.2922  12.2922  12.4055  12.4055  13.4040  13.4040  13.5022  13.5022
    14.8967  14.8967  15.0918  15.0918  17.6720  17.6721

     the Fermi energy is     9.1625 ev

!    total energy              =   -3130.40453309 Ry
     Harris-Foulkes estimate   =   -3130.40453310 Ry
     estimated scf accuracy    <          1.3E-09 Ry

     The total energy is the sum of the following terms:

     one-electron contribution =   -2392.67378829 Ry
     hartree contribution      =    1313.76732923 Ry
     xc contribution           =    -483.02735806 Ry
     ewald contribution        =   -1568.47067588 Ry
     smearing contrib. (-TS)   =      -0.00004010 Ry

     convergence has been achieved in  12 iterations

     Writing output data file chempot_3.save/
 
     init_run     :      8.50s CPU      9.04s WALL (       1 calls)
     electrons    :    311.58s CPU    332.03s WALL (       1 calls)

     Called by init_run:
     wfcinit      :      7.57s CPU      8.01s WALL (       1 calls)
     potinit      :      0.33s CPU      0.36s WALL (       1 calls)
     hinit0       :      0.48s CPU      0.53s WALL (       1 calls)

     Called by electrons:
     c_bands      :    269.40s CPU    287.66s WALL (      12 calls)
     sum_band     :     36.41s CPU     38.03s WALL (      12 calls)
     v_of_rho     :      0.87s CPU      0.96s WALL (      13 calls)
     mix_rho      :      1.13s CPU      1.46s WALL (      12 calls)

     Called by c_bands:
     init_us_2    :      2.86s CPU      4.19s WALL (      50 calls)
     cegterg      :    213.50s CPU    229.72s WALL (      24 calls)

     Called by sum_band:

     Called by *egterg:
     h_psi        :    179.60s CPU    189.44s WALL (      96 calls)
     g_psi        :      0.89s CPU      0.91s WALL (      70 calls)
     cdiaghg      :      2.10s CPU      2.20s WALL (      94 calls)

     Called by h_psi:
     h_psi:pot    :    178.95s CPU    187.05s WALL (      96 calls)
     h_psi:calbec :     15.06s CPU     18.90s WALL (      96 calls)
     vloc_psi     :    146.97s CPU    149.90s WALL (      96 calls)
     add_vuspsi   :     16.92s CPU     18.25s WALL (      96 calls)

     General routines
     calbec       :     15.06s CPU     18.90s WALL (      96 calls)
     fft          :      0.37s CPU      0.39s WALL (      39 calls)
     ffts         :      0.11s CPU      0.11s WALL (      12 calls)
     fftw         :    150.69s CPU    151.61s WALL (   15672 calls)
 
     Parallel routines
 
     PWSCF        :   5m20.85s CPU   5m42.18s WALL

 
   This run was terminated on:  16:13:31   3Dec2019            

=------------------------------------------------------------------------------=
   JOB DONE.
=------------------------------------------------------------------------------=
