
     Program PWSCF v.6.2 (svn rev. 14038) starts on  1May2019 at  2:26:57 

     This program is part of the open-source Quantum ESPRESSO suite
     for quantum simulation of materials; please cite
         "P. Giannozzi et al., J. Phys.:Condens. Matter 21 395502 (2009);
         "P. Giannozzi et al., J. Phys.:Condens. Matter 29 465901 (2017);
          URL http://www.quantum-espresso.org", 
     in publications or presentations arising from this work. More details at
     http://www.quantum-espresso.org/quote

     Parallel version (MPI), running on    32 processors

     MPI processes distributed on     1 nodes
     K-points division:     npool     =      32
     Reading input from rscf.in

     Current dimensions of program PWSCF are:
     Max number of different atomic species (ntypx) = 10
     Max number of k-points (npk) =  40000
     Max angular momentum in pseudopotentials (lmaxx) =  3

     Subspace diagonalization in iterative solution of the eigenvalue problem:
     a serial algorithm will be used

 
     G-vector sticks info
     --------------------
     sticks:   dense  smooth     PW     G-vecs:    dense   smooth      PW
     Sum        7747    7747   2077               498127   498127   69057
 


     bravais-lattice index     =            0
     lattice parameter (alat)  =      13.8397  a.u.
     unit-cell volume          =    2804.9816 (a.u.)^3
     number of atoms/cell      =           32
     number of atomic types    =            2
     number of electrons       =       368.00
     number of Kohn-Sham states=          221
     kinetic-energy cutoff     =     120.0000  Ry
     charge density cutoff     =     480.0000  Ry
     convergence threshold     =      1.0E-08
     mixing beta               =       0.7000
     number of iterations used =            8  plain     mixing
     Exchange-correlation      = SLA PW NOGX NOGC ( 1  4  0  0 0 0)
     nstep                     =           50


     celldm(1)=  13.839685  celldm(2)=   0.000000  celldm(3)=   0.000000
     celldm(4)=   0.000000  celldm(5)=   0.000000  celldm(6)=   0.000000

     crystal axes: (cart. coord. in units of alat)
               a(1) = (   1.000000   0.000000   0.000000 )  
               a(2) = (   0.000000   1.058160   0.000000 )  
               a(3) = (   0.000000   0.000000   1.000000 )  

     reciprocal axes: (cart. coord. in units 2 pi/alat)
               b(1) = (  1.000000  0.000000  0.000000 )  
               b(2) = (  0.000000  0.945037  0.000000 )  
               b(3) = (  0.000000  0.000000  1.000000 )  


     PseudoPot. # 1 for W  read from file:
     /cluster/scratch/mnoe/QE/pps/W_ONCV_LDA-4.0.upf
     MD5 check sum: ba0307d5d4cd419d6f1d13dc49d7c13a
     Pseudo is Norm-conserving + core correction, Zval = 28.0
     Generated using ONCVPSP code by D. R. Hamann
     Using radial grid of 1380 points,  8 beta functions with: 
                l(1) =   0
                l(2) =   0
                l(3) =   1
                l(4) =   1
                l(5) =   2
                l(6) =   2
                l(7) =   3
                l(8) =   3

     PseudoPot. # 2 for O  read from file:
     /cluster/scratch/mnoe/QE/pps/O_ONCV_LDA-3.0.upf
     MD5 check sum: a1bd6164e7280c17a38c229939bfbd54
     Pseudo is Norm-conserving + core correction, Zval =  6.0
     Generated using ONCVPSP code by D. R. Hamann
     Using radial grid of  926 points,  5 beta functions with: 
                l(1) =   0
                l(2) =   0
                l(3) =   1
                l(4) =   1
                l(5) =   2

     atomic species   valence    mass     pseudopotential
        W             28.00   183.84000     W ( 1.00)
        O              6.00    15.99940     O ( 1.00)

      8 Sym. Ops. (no inversion) found ( 4 have fractional translation)



   Cartesian axes

     site n.     atom                  positions (alat units)
         1           W   tau(   1) = (   0.2733800   0.2982530   0.2506600  )
         2           W   tau(   2) = (  -0.2506600   0.7599071  -0.7266200  )
         3           W   tau(   3) = (   0.2266200   0.2308271   0.7506600  )
         4           W   tau(   4) = (   0.7506600   0.8273330   0.7733800  )
         5           W   tau(   5) = (   0.7266200   0.2982530   0.7493400  )
         6           W   tau(   6) = (   0.2506600   0.7599071   0.7266200  )
         7           W   tau(   7) = (  -0.2266200   0.2308271  -0.7506600  )
         8           W   tau(   8) = (   0.2493400   0.8273330   0.2266200  )
         9           O   tau(   9) = (   0.2757100   0.0088039   0.2686500  )
        10           O   tau(  10) = (  -0.2686500   1.0493562  -0.7242899  )
        11           O   tau(  11) = (   0.2242899   0.5202761   0.7686500  )
        12           O   tau(  12) = (   0.7686500   0.5378839   0.7757100  )
        13           O   tau(  13) = (   0.7242900   0.0088039   0.7313500  )
        14           O   tau(  14) = (   0.2686500   1.0493562   0.7242899  )
        15           O   tau(  15) = (  -0.2242899   0.5202761  -0.7686500  )
        16           O   tau(  16) = (   0.2313500   0.5378839   0.2242900  )
        17           O   tau(  17) = (   0.4917200   0.2938828   0.6995400  )
        18           O   tau(  18) = (   0.4983000   0.7747953   0.8004600  )
        19           O   tau(  19) = (  -0.9917200   0.2351972   1.1995400  )
        20           O   tau(  20) = (   0.0017000   0.8124447   0.3004600  )
        21           O   tau(  21) = (   0.5082800   0.2938828   0.3004600  )
        22           O   tau(  22) = (   0.5017000   0.7747953   1.1995400  )
        23           O   tau(  23) = (  -0.0082799   0.2351972   0.8004600  )
        24           O   tau(  24) = (  -1.0017000   0.8124447   0.6995400  )
        25           O   tau(  25) = (   0.6995400   0.2457153   2.0017000  )
        26           O   tau(  26) = (   0.3004600   0.7642772   0.4917200  )
        27           O   tau(  27) = (   0.8004600   0.2833647   0.5017000  )
        28           O   tau(  28) = (   0.1995400   0.8229628   1.9917200  )
        29           O   tau(  29) = (   0.3004600   0.2457153   0.9983000  )
        30           O   tau(  30) = (   0.6995400   0.7642772   0.5082800  )
        31           O   tau(  31) = (   0.1995400   0.2833647   0.4983000  )
        32           O   tau(  32) = (   0.8004600   0.8229628   1.0082799  )

     number of k points=    40  gaussian smearing, width (Ry)=  0.0007
                       cart. coord. in units 2pi/alat
        k(    1) = (   0.0000000   0.0000000   0.0000000), wk =   0.0092593
        k(    2) = (   0.0000000   0.0000000   0.1666667), wk =   0.0370370
        k(    3) = (   0.0000000   0.0000000   0.3333333), wk =   0.0370370
        k(    4) = (   0.0000000   0.0000000  -0.5000000), wk =   0.0185185
        k(    5) = (   0.0000000   0.1575061   0.0000000), wk =   0.0185185
        k(    6) = (   0.0000000   0.1575061   0.1666667), wk =   0.0740741
        k(    7) = (   0.0000000   0.1575061   0.3333333), wk =   0.0740741
        k(    8) = (   0.0000000   0.1575061  -0.5000000), wk =   0.0370370
        k(    9) = (   0.0000000   0.3150122   0.0000000), wk =   0.0185185
        k(   10) = (   0.0000000   0.3150122   0.1666667), wk =   0.0740741
        k(   11) = (   0.0000000   0.3150122   0.3333333), wk =   0.0740741
        k(   12) = (   0.0000000   0.3150122  -0.5000000), wk =   0.0370370
        k(   13) = (   0.0000000  -0.4725183   0.0000000), wk =   0.0092593
        k(   14) = (   0.0000000  -0.4725183   0.1666667), wk =   0.0370370
        k(   15) = (   0.0000000  -0.4725183   0.3333333), wk =   0.0370370
        k(   16) = (   0.0000000  -0.4725183  -0.5000000), wk =   0.0185185
        k(   17) = (   0.1666667   0.0000000   0.1666667), wk =   0.0370370
        k(   18) = (   0.1666667   0.0000000   0.3333333), wk =   0.0740741
        k(   19) = (   0.1666667   0.0000000  -0.5000000), wk =   0.0370370
        k(   20) = (   0.1666667   0.1575061   0.1666667), wk =   0.0740741
        k(   21) = (   0.1666667   0.1575061   0.3333333), wk =   0.1481481
        k(   22) = (   0.1666667   0.1575061  -0.5000000), wk =   0.0740741
        k(   23) = (   0.1666667   0.3150122   0.1666667), wk =   0.0740741
        k(   24) = (   0.1666667   0.3150122   0.3333333), wk =   0.1481481
        k(   25) = (   0.1666667   0.3150122  -0.5000000), wk =   0.0740741
        k(   26) = (   0.1666667  -0.4725183   0.1666667), wk =   0.0370370
        k(   27) = (   0.1666667  -0.4725183   0.3333333), wk =   0.0740741
        k(   28) = (   0.1666667  -0.4725183  -0.5000000), wk =   0.0370370
        k(   29) = (   0.3333333   0.0000000   0.3333333), wk =   0.0370370
        k(   30) = (   0.3333333   0.0000000  -0.5000000), wk =   0.0370370
        k(   31) = (   0.3333333   0.1575061   0.3333333), wk =   0.0740741
        k(   32) = (   0.3333333   0.1575061  -0.5000000), wk =   0.0740741
        k(   33) = (   0.3333333   0.3150122   0.3333333), wk =   0.0740741
        k(   34) = (   0.3333333   0.3150122  -0.5000000), wk =   0.0740741
        k(   35) = (   0.3333333  -0.4725183   0.3333333), wk =   0.0370370
        k(   36) = (   0.3333333  -0.4725183  -0.5000000), wk =   0.0370370
        k(   37) = (  -0.5000000   0.0000000  -0.5000000), wk =   0.0092593
        k(   38) = (  -0.5000000   0.1575061  -0.5000000), wk =   0.0185185
        k(   39) = (  -0.5000000   0.3150122  -0.5000000), wk =   0.0185185
        k(   40) = (  -0.5000000  -0.4725183  -0.5000000), wk =   0.0092593

     Dense  grid:   498127 G-vectors     FFT dimensions: ( 100, 108, 100)

     Estimated max dynamical RAM per process >       3.15 GB

     Estimated total dynamical RAM >     100.65 GB

     Initial potential from superposition of free atoms

     starting charge  367.99656, renormalised to  368.00000
     Starting wfc are  232 randomized atomic wfcs

     total cpu time spent up to now is       67.1 secs

     Self-consistent Calculation

     iteration #  1     ecut=   120.00 Ry     beta= 0.70
     Davidson diagonalization with overlap
     ethr =  1.00E-02,  avg # of iterations =  4.9

     total cpu time spent up to now is      238.5 secs

     total energy              =   -6253.88456626 Ry
     Harris-Foulkes estimate   =   -6264.53316411 Ry
     estimated scf accuracy    <      13.46929921 Ry

     iteration #  2     ecut=   120.00 Ry     beta= 0.70
     Davidson diagonalization with overlap
     ethr =  3.66E-03,  avg # of iterations =  3.4

     total cpu time spent up to now is      401.8 secs

     total energy              =   -6250.24112936 Ry
     Harris-Foulkes estimate   =   -6271.13302093 Ry
     estimated scf accuracy    <      57.08749277 Ry

     iteration #  3     ecut=   120.00 Ry     beta= 0.70
     Davidson diagonalization with overlap
     ethr =  3.66E-03,  avg # of iterations =  3.3

     total cpu time spent up to now is      559.3 secs

     total energy              =   -6261.04217089 Ry
     Harris-Foulkes estimate   =   -6261.40319005 Ry
     estimated scf accuracy    <       1.16775696 Ry

     iteration #  4     ecut=   120.00 Ry     beta= 0.70
     Davidson diagonalization with overlap
     ethr =  3.17E-04,  avg # of iterations =  2.2

     total cpu time spent up to now is      688.4 secs

     total energy              =   -6261.07324654 Ry
     Harris-Foulkes estimate   =   -6261.16097291 Ry
     estimated scf accuracy    <       0.31127611 Ry

     iteration #  5     ecut=   120.00 Ry     beta= 0.70
     Davidson diagonalization with overlap
     ethr =  8.46E-05,  avg # of iterations =  5.2

     total cpu time spent up to now is      828.0 secs

     total energy              =   -6261.05853176 Ry
     Harris-Foulkes estimate   =   -6261.10329593 Ry
     estimated scf accuracy    <       0.09748581 Ry

     iteration #  6     ecut=   120.00 Ry     beta= 0.70
     Davidson diagonalization with overlap
     ethr =  2.65E-05,  avg # of iterations =  5.2

     total cpu time spent up to now is      975.2 secs

     total energy              =   -6261.08043930 Ry
     Harris-Foulkes estimate   =   -6261.08216712 Ry
     estimated scf accuracy    <       0.00525318 Ry

     iteration #  7     ecut=   120.00 Ry     beta= 0.70
     Davidson diagonalization with overlap
     ethr =  1.43E-06,  avg # of iterations =  3.8

     total cpu time spent up to now is     1108.7 secs

     total energy              =   -6261.08089762 Ry
     Harris-Foulkes estimate   =   -6261.08107663 Ry
     estimated scf accuracy    <       0.00048564 Ry

     iteration #  8     ecut=   120.00 Ry     beta= 0.70
     Davidson diagonalization with overlap
     ethr =  1.32E-07,  avg # of iterations =  3.1

     total cpu time spent up to now is     1244.7 secs

     total energy              =   -6261.08096041 Ry
     Harris-Foulkes estimate   =   -6261.08099084 Ry
     estimated scf accuracy    <       0.00006710 Ry

     iteration #  9     ecut=   120.00 Ry     beta= 0.70
     Davidson diagonalization with overlap
     ethr =  1.82E-08,  avg # of iterations =  3.0

     total cpu time spent up to now is     1386.9 secs

     total energy              =   -6261.08097663 Ry
     Harris-Foulkes estimate   =   -6261.08097993 Ry
     estimated scf accuracy    <       0.00000886 Ry

     iteration # 10     ecut=   120.00 Ry     beta= 0.70
     Davidson diagonalization with overlap
     ethr =  2.41E-09,  avg # of iterations =  2.0

     total cpu time spent up to now is     1524.1 secs

     total energy              =   -6261.08097740 Ry
     Harris-Foulkes estimate   =   -6261.08097818 Ry
     estimated scf accuracy    <       0.00000174 Ry

     iteration # 11     ecut=   120.00 Ry     beta= 0.70
     Davidson diagonalization with overlap
     ethr =  4.72E-10,  avg # of iterations =  2.6

     total cpu time spent up to now is     1659.8 secs

     total energy              =   -6261.08097774 Ry
     Harris-Foulkes estimate   =   -6261.08097775 Ry
     estimated scf accuracy    <       0.00000002 Ry

     iteration # 12     ecut=   120.00 Ry     beta= 0.70
     Davidson diagonalization with overlap
     ethr =  4.60E-12,  avg # of iterations =  3.1

     total cpu time spent up to now is     1832.1 secs

     End of self-consistent calculation

          k = 0.0000 0.0000 0.0000 ( 62239 PWs)   bands (ev):

   -66.1749 -66.1745 -66.1739 -66.1739 -66.1735 -66.1735 -66.1729 -66.1725
   -30.6214 -30.6197 -30.6152 -30.6152 -30.5310 -30.5310 -30.5257 -30.5208
   -30.4851 -30.4851 -30.4788 -30.4788 -30.4741 -30.4654 -30.4654 -30.4638
   -30.4206 -30.4167 -30.4167 -30.4140 -30.3919 -30.3919 -30.3866 -30.3858
   -20.3427 -20.3426 -20.3424 -20.3423 -20.3421 -20.3421 -20.3419 -20.3418
   -20.3276 -20.3275 -20.3275 -20.3274 -20.3268 -20.3267 -20.3267 -20.3266
   -20.3207 -20.3201 -20.3201 -20.3201 -20.3169 -20.3166 -20.3166 -20.3160
   -20.3124 -20.3119 -20.3119 -20.3116 -20.3105 -20.3101 -20.3101 -20.3100
   -20.3076 -20.3074 -20.3073 -20.3073 -20.3061 -20.3061 -20.3055 -20.3053
   -20.3019 -20.3018 -20.3009 -20.3009 -20.2967 -20.2967 -20.2962 -20.2960
   -20.2936 -20.2934 -20.2932 -20.2931 -20.2908 -20.2908 -20.2905 -20.2902
    -9.9460  -9.7198  -9.5004  -9.5004  -9.1893  -9.1893  -9.0074  -9.0060
    -8.7927  -8.6659  -8.6525  -8.6525  -8.0247  -7.9832  -7.8518  -7.8518
    -7.7585  -7.7483  -7.7010  -7.6405  -7.6405  -7.6053  -7.6053  -7.5890
     1.2244   1.2372   1.2857   1.2857   1.4583   1.4583   1.6026   1.6984
     1.9222   1.9269   1.9269   2.0294   2.3095   2.4000   2.6325   2.7694
     2.8530   2.8530   4.1790   4.1790   4.3750   4.4048   4.6607   4.6607
     4.7627   4.7627   4.7812   5.0083   5.2630   5.2630   5.2789   5.4044
     5.4916   5.4916   5.5135   5.6260   5.6319   5.6319   5.7549   5.7549
     5.8310   5.8402   5.8862   5.9017   5.9017   5.9079   5.9827   6.0462
     6.1593   6.3590   6.4179   6.5120   6.5121   6.6046   6.8566   6.9602
     6.9602   6.9933   6.9933   7.0077   7.0142   7.0645   7.0720   7.0721
     7.3991   7.3991   7.6490   7.6750   7.9908   8.0227   8.0227   8.1568
     9.6632   9.7077  10.1340  10.1463  10.1463  10.1571  12.1726  12.1726
    12.2010  12.2010  12.3814  12.3877  12.5993  12.5993  12.6178  12.6293
    13.0871  13.2193  13.2193  13.2796  13.5492  13.6936  13.6936  13.9370
    14.2860  14.4764  14.4764  14.8695  15.2088  15.3847  15.4616  15.8909
    15.8909  16.5730  16.8111  16.8111  17.5512

          k = 0.0000 0.0000 0.1667 ( 62262 PWs)   bands (ev):

   -66.1749 -66.1744 -66.1740 -66.1739 -66.1736 -66.1734 -66.1730 -66.1726
   -30.6203 -30.6156 -30.6142 -30.6090 -30.5366 -30.5302 -30.5301 -30.5228
   -30.4847 -30.4802 -30.4792 -30.4767 -30.4714 -30.4667 -30.4643 -30.4629
   -30.4202 -30.4172 -30.4163 -30.4146 -30.3976 -30.3919 -30.3915 -30.3866
   -20.3427 -20.3426 -20.3424 -20.3423 -20.3421 -20.3421 -20.3419 -20.3418
   -20.3276 -20.3275 -20.3274 -20.3273 -20.3268 -20.3267 -20.3267 -20.3266
   -20.3205 -20.3201 -20.3199 -20.3198 -20.3170 -20.3168 -20.3165 -20.3161
   -20.3124 -20.3120 -20.3119 -20.3116 -20.3104 -20.3101 -20.3099 -20.3098
   -20.3076 -20.3075 -20.3073 -20.3073 -20.3064 -20.3061 -20.3057 -20.3054
   -20.3018 -20.3014 -20.3010 -20.3005 -20.2970 -20.2967 -20.2964 -20.2961
   -20.2935 -20.2933 -20.2931 -20.2930 -20.2911 -20.2908 -20.2907 -20.2903
    -9.8971  -9.6669  -9.5177  -9.4232  -9.2080  -9.1118  -8.9788  -8.9596
    -8.8055  -8.6587  -8.6576  -8.6354  -8.1144  -7.9937  -7.9674  -7.8654
    -7.8608  -7.7433  -7.7289  -7.6956  -7.6456  -7.6394  -7.6143  -7.5930
     1.2672   1.2852   1.3848   1.4634   1.5167   1.6807   1.6907   1.8630
     1.9146   1.9189   1.9425   2.0984   2.3971   2.4898   2.6701   2.8301
     2.8433   2.9418   4.1076   4.1581   4.3095   4.3552   4.3906   4.4159
     4.6714   4.7167   4.7598   4.9025   4.9871   5.2084   5.2382   5.2831
     5.4433   5.4854   5.4957   5.5625   5.5850   5.6232   5.6657   5.7339
     5.7483   5.8765   5.8800   5.8833   5.8861   5.9521   5.9802   6.1366
     6.1517   6.4255   6.4916   6.5278   6.6516   6.7213   6.8114   6.8256
     6.8616   6.9208   6.9583   7.0014   7.0056   7.0285   7.0532   7.0948
     7.2245   7.2801   7.6697   7.6887   7.9788   7.9932   8.0382   8.1462
     9.9071   9.9508  10.1441  10.1807  10.3564  10.4352  12.1306  12.1351
    12.2107  12.2656  12.4234  12.4300  12.5282  12.6016  12.6699  12.7012
    12.9764  13.1590  13.2255  13.2706  13.5364  13.6782  13.6950  13.8635
    14.2710  14.4693  14.4978  14.9711  15.1761  15.4124  15.4986  15.8550
    16.1500  16.6190  16.7229  17.0016  17.6032

          k = 0.0000 0.0000 0.3333 ( 62268 PWs)   bands (ev):

   -66.1747 -66.1743 -66.1742 -66.1738 -66.1737 -66.1733 -66.1732 -66.1728
   -30.6192 -30.6165 -30.5975 -30.5921 -30.5523 -30.5461 -30.5283 -30.5245
   -30.4836 -30.4804 -30.4747 -30.4720 -30.4695 -30.4659 -30.4594 -30.4517
   -30.4196 -30.4194 -30.4192 -30.4153 -30.4107 -30.4060 -30.3906 -30.3878
   -20.3426 -20.3425 -20.3424 -20.3423 -20.3422 -20.3420 -20.3420 -20.3419
   -20.3276 -20.3275 -20.3273 -20.3272 -20.3269 -20.3269 -20.3267 -20.3267
   -20.3204 -20.3202 -20.3192 -20.3191 -20.3175 -20.3174 -20.3165 -20.3163
   -20.3123 -20.3121 -20.3119 -20.3117 -20.3103 -20.3102 -20.3093 -20.3093
   -20.3079 -20.3076 -20.3075 -20.3072 -20.3069 -20.3064 -20.3059 -20.3055
   -20.3017 -20.3012 -20.3004 -20.2995 -20.2978 -20.2971 -20.2966 -20.2963
   -20.2934 -20.2932 -20.2930 -20.2927 -20.2917 -20.2913 -20.2907 -20.2904
    -9.7805  -9.5702  -9.5304  -9.2669  -9.2169  -8.9083  -8.8752  -8.8538
    -8.8210  -8.6789  -8.6196  -8.5656  -8.3782  -8.2639  -8.1447  -8.0540
    -7.9382  -7.8857  -7.7167  -7.6879  -7.6599  -7.6386  -7.6328  -7.6040
     1.2866   1.2919   1.4767   1.4905   1.8400   1.8713   1.8984   1.9058
     2.2101   2.3499   2.4373   2.5754   2.6436   2.7197   2.7495   2.8239
     3.0489   3.1667   3.6591   3.7945   3.9216   3.9457   4.2570   4.2665
     4.3715   4.4225   4.5740   4.6465   4.8507   4.8640   4.9499   5.0431
     5.1649   5.2944   5.3674   5.3851   5.4407   5.5148   5.7124   5.7580
     5.7924   5.8449   5.9011   5.9352   5.9910   6.0267   6.1248   6.1623
     6.2286   6.3756   6.4262   6.5364   6.6043   6.6597   6.6681   6.7683
     6.7704   6.9293   6.9950   6.9971   7.0225   7.0415   7.0523   7.1279
     7.3323   7.4017   7.6289   7.6576   7.8882   7.9103   8.0722   8.1190
    10.0820  10.1342  10.5127  10.6882  10.8824  11.0686  11.8091  11.9135
    12.1060  12.3207  12.3730  12.4626  12.5099  12.5920  12.6755  12.7281
    12.8915  13.0410  13.1182  13.2566  13.4427  13.5773  13.7017  13.7561
    14.3152  14.4461  14.6496  15.0730  15.1757  15.6307  15.7295  15.7934
    16.2117  16.8949  17.2203  17.2917  17.5628

          k = 0.0000 0.0000-0.5000 ( 62264 PWs)   bands (ev):

   -66.1744 -66.1744 -66.1740 -66.1740 -66.1734 -66.1734 -66.1730 -66.1730
   -30.6179 -30.6179 -30.5747 -30.5747 -30.5690 -30.5690 -30.5263 -30.5263
   -30.4820 -30.4820 -30.4722 -30.4722 -30.4683 -30.4683 -30.4385 -30.4385
   -30.4326 -30.4326 -30.4172 -30.4172 -30.4135 -30.4135 -30.3892 -30.3892
   -20.3425 -20.3425 -20.3424 -20.3424 -20.3421 -20.3421 -20.3419 -20.3419
   -20.3275 -20.3275 -20.3271 -20.3271 -20.3270 -20.3270 -20.3267 -20.3267
   -20.3203 -20.3203 -20.3183 -20.3183 -20.3182 -20.3182 -20.3164 -20.3164
   -20.3122 -20.3122 -20.3118 -20.3118 -20.3102 -20.3102 -20.3086 -20.3086
   -20.3085 -20.3084 -20.3073 -20.3073 -20.3069 -20.3069 -20.3057 -20.3057
   -20.3015 -20.3015 -20.2990 -20.2990 -20.2983 -20.2983 -20.2964 -20.2964
   -20.2933 -20.2932 -20.2924 -20.2924 -20.2921 -20.2921 -20.2906 -20.2905
    -9.6593  -9.6593  -9.3762  -9.3762  -8.9826  -8.9826  -8.7386  -8.7386
    -8.6506  -8.6505  -8.6014  -8.6014  -8.4539  -8.4539  -8.3687  -8.3687
    -7.9193  -7.9193  -7.6839  -7.6839  -7.6677  -7.6677  -7.6189  -7.6189
     1.2915   1.2915   1.4917   1.4917   1.8814   1.8814   1.8949   1.8949
     2.7487   2.7487   2.9292   2.9292   3.0192   3.0192   3.2026   3.2026
     3.2088   3.2088   3.2964   3.2965   3.5399   3.5399   3.8242   3.8243
     3.9147   3.9147   4.4690   4.4690   4.7756   4.7756   4.9950   4.9950
     5.2280   5.2281   5.3227   5.3228   5.4190   5.4190   5.7898   5.7898
     5.8475   5.8475   5.9296   5.9296   6.0115   6.0115   6.1565   6.1565
     6.3039   6.3039   6.3955   6.3955   6.5335   6.5335   6.6488   6.6488
     6.8271   6.8271   6.9765   6.9765   6.9960   6.9960   7.4210   7.4210
     7.4581   7.4581   7.6725   7.6725   7.7213   7.7213   8.0961   8.0961
    10.1143  10.1143  11.2034  11.2034  11.3952  11.3953  11.5092  11.5092
    11.7965  11.7965  12.4662  12.4662  12.5856  12.5856  12.8033  12.8033
    12.8537  12.8537  13.1760  13.1760  13.3650  13.3650  13.7208  13.7208
    14.3985  14.3985  14.8888  14.8888  15.4643  15.4643  15.8651  15.8651
    16.5413  16.5413  17.7620  17.7620  17.9702

          k = 0.0000 0.1575 0.0000 ( 62231 PWs)   bands (ev):

   -66.1749 -66.1745 -66.1739 -66.1739 -66.1735 -66.1735 -66.1729 -66.1725
   -30.6213 -30.6198 -30.6152 -30.6152 -30.5309 -30.5308 -30.5252 -30.5210
   -30.4850 -30.4848 -30.4777 -30.4777 -30.4709 -30.4631 -30.4631 -30.4606
   -30.4243 -30.4202 -30.4202 -30.4174 -30.3919 -30.3919 -30.3866 -30.3858
   -20.3427 -20.3426 -20.3424 -20.3423 -20.3421 -20.3421 -20.3419 -20.3418
   -20.3276 -20.3275 -20.3275 -20.3274 -20.3268 -20.3267 -20.3267 -20.3266
   -20.3206 -20.3201 -20.3201 -20.3201 -20.3169 -20.3166 -20.3166 -20.3160
   -20.3121 -20.3117 -20.3117 -20.3113 -20.3105 -20.3101 -20.3101 -20.3100
   -20.3080 -20.3076 -20.3076 -20.3076 -20.3062 -20.3062 -20.3056 -20.3053
   -20.3019 -20.3018 -20.3009 -20.3009 -20.2967 -20.2967 -20.2962 -20.2960
   -20.2936 -20.2934 -20.2932 -20.2931 -20.2908 -20.2908 -20.2905 -20.2902
    -9.9251  -9.7305  -9.4856  -9.4856  -9.1874  -9.1874  -9.0068  -9.0049
    -8.7259  -8.6192  -8.6075  -8.6075  -8.0288  -7.9837  -7.8588  -7.8588
    -7.7850  -7.7579  -7.7436  -7.7203  -7.7203  -7.6834  -7.6064  -7.6064
     1.2253   1.2358   1.2854   1.2854   1.4577   1.4577   1.6472   1.6984
     2.0715   2.1385   2.1385   2.2552   2.3157   2.3939   2.7000   2.8487
     2.9231   2.9231   4.0567   4.0567   4.1482   4.1669   4.6540   4.6540
     4.6727   4.7563   4.7563   5.0729   5.2137   5.2137   5.2445   5.3832
     5.3832   5.4597   5.5285   5.5285   5.6102   5.6430   5.6747   5.7107
     5.7107   5.8081   5.8776   5.9071   5.9662   5.9662   6.0280   6.0456
     6.0826   6.3489   6.3887   6.5659   6.5660   6.5892   6.8754   6.8961
     6.8961   6.9304   7.0153   7.0153   7.0167   7.0415   7.0590   7.0590
     7.4024   7.4024   7.6510   7.6725   7.9594   8.0014   8.0014   8.0823
     9.6827   9.7101  10.2947  10.2947  10.2989  10.3265  12.0961  12.0961
    12.2004  12.2004  12.2434  12.3576  12.5023  12.5940  12.5940  12.6188
    13.1069  13.2035  13.2035  13.3283  13.6618  13.6888  13.6888  13.8672
    14.3790  14.6507  14.6507  14.9724  15.3754  15.4504  15.6092  15.8688
    15.8688  16.3712  16.9166  16.9166  17.4759

          k = 0.0000 0.1575 0.1667 ( 62237 PWs)   bands (ev):

   -66.1748 -66.1745 -66.1740 -66.1738 -66.1736 -66.1735 -66.1730 -66.1726
   -30.6203 -30.6156 -30.6143 -30.6090 -30.5364 -30.5300 -30.5297 -30.5229
   -30.4845 -30.4797 -30.4783 -30.4747 -30.4689 -30.4642 -30.4612 -30.4612
   -30.4239 -30.4207 -30.4198 -30.4180 -30.3977 -30.3919 -30.3915 -30.3866
   -20.3426 -20.3426 -20.3424 -20.3423 -20.3421 -20.3421 -20.3419 -20.3418
   -20.3276 -20.3275 -20.3274 -20.3274 -20.3268 -20.3267 -20.3267 -20.3266
   -20.3205 -20.3201 -20.3199 -20.3198 -20.3170 -20.3168 -20.3166 -20.3161
   -20.3121 -20.3117 -20.3116 -20.3113 -20.3104 -20.3101 -20.3099 -20.3099
   -20.3079 -20.3078 -20.3076 -20.3076 -20.3064 -20.3061 -20.3058 -20.3054
   -20.3018 -20.3014 -20.3010 -20.3005 -20.2970 -20.2967 -20.2964 -20.2961
   -20.2935 -20.2933 -20.2931 -20.2930 -20.2911 -20.2908 -20.2907 -20.2903
    -9.8758  -9.6774  -9.5026  -9.4064  -9.2064  -9.1091  -8.9783  -8.9580
    -8.7388  -8.6141  -8.6120  -8.5931  -8.1158  -7.9965  -7.9700  -7.8736
    -7.8611  -7.7842  -7.7407  -7.7355  -7.7243  -7.7183  -7.6789  -7.6156
     1.2676   1.2850   1.3844   1.4631   1.5190   1.6928   1.7480   1.8752
     2.0788   2.1283   2.1446   2.2737   2.4040   2.4835   2.7393   2.9040
     2.9191   3.0111   4.0169   4.0458   4.1585   4.1990   4.3243   4.3494
     4.6168   4.7015   4.7437   4.8689   5.0030   5.1784   5.1909   5.2412
     5.3344   5.4146   5.4504   5.5145   5.5605   5.5949   5.6159   5.6428
     5.7376   5.7792   5.8445   5.9034   5.9391   5.9576   5.9933   6.0483
     6.1948   6.3809   6.5046   6.5533   6.6337   6.7468   6.8050   6.8226
     6.8652   6.9183   6.9481   6.9729   7.0040   7.0501   7.0679   7.0958
     7.2197   7.2908   7.6691   7.6873   7.9509   7.9737   8.0058   8.0752
     9.9374   9.9742  10.2932  10.3247  10.4910  10.5589  12.0625  12.1270
    12.1702  12.2303  12.2943  12.4119  12.4993  12.5480  12.6349  12.6860
    12.9774  13.1474  13.2078  13.2887  13.5751  13.6841  13.6930  13.8122
    14.4042  14.6446  14.7170  15.0559  15.4044  15.4928  15.5788  15.8408
    16.1245  16.5197  16.7229  17.0824  17.5293

          k = 0.0000 0.1575 0.3333 ( 62284 PWs)   bands (ev):

   -66.1746 -66.1743 -66.1741 -66.1738 -66.1736 -66.1733 -66.1731 -66.1728
   -30.6192 -30.6165 -30.5975 -30.5921 -30.5523 -30.5460 -30.5281 -30.5244
   -30.4833 -30.4797 -30.4716 -30.4695 -30.4666 -30.4628 -30.4587 -30.4514
   -30.4229 -30.4226 -30.4216 -30.4187 -30.4118 -30.4066 -30.3906 -30.3878
   -20.3426 -20.3425 -20.3424 -20.3423 -20.3422 -20.3420 -20.3420 -20.3419
   -20.3276 -20.3275 -20.3273 -20.3272 -20.3269 -20.3269 -20.3267 -20.3267
   -20.3204 -20.3202 -20.3193 -20.3191 -20.3174 -20.3174 -20.3165 -20.3163
   -20.3120 -20.3118 -20.3116 -20.3114 -20.3103 -20.3102 -20.3093 -20.3093
   -20.3081 -20.3078 -20.3078 -20.3075 -20.3071 -20.3065 -20.3059 -20.3056
   -20.3017 -20.3012 -20.3004 -20.2995 -20.2978 -20.2971 -20.2966 -20.2963
   -20.2934 -20.2932 -20.2930 -20.2927 -20.2917 -20.2913 -20.2907 -20.2904
    -9.7596  -9.5542  -9.5384  -9.2670  -9.1914  -8.9031  -8.8751  -8.8134
    -8.7891  -8.6367  -8.5819  -8.5350  -8.3770  -8.2651  -8.1458  -8.0572
    -7.9401  -7.8905  -7.7716  -7.7369  -7.7207  -7.7128  -7.6927  -7.6410
     1.2868   1.2929   1.4775   1.4923   2.0007   2.0341   2.1048   2.1262
     2.2373   2.3635   2.4484   2.5925   2.6550   2.7382   2.7926   2.8940
     3.1255   3.2268   3.6593   3.7895   3.8830   3.9217   4.1844   4.1908
     4.2976   4.4220   4.4568   4.5790   4.7646   4.7824   4.8692   5.0145
     5.0702   5.2650   5.2910   5.3264   5.4145   5.4738   5.5018   5.7193
     5.7708   5.7785   5.8126   5.9123   5.9386   5.9885   6.0598   6.1167
     6.2810   6.3840   6.4568   6.5642   6.6838   6.6937   6.7191   6.7725
     6.8506   6.9140   6.9363   6.9749   7.0250   7.0651   7.0857   7.1512
     7.3425   7.4118   7.6273   7.6580   7.8754   7.8924   8.0237   8.0550
    10.2423  10.2888  10.5312  10.7053  10.9809  11.1380  11.8061  11.9131
    12.1055  12.2800  12.3566  12.4125  12.4270  12.5615  12.6175  12.7090
    12.8172  13.0142  13.1171  13.2326  13.3725  13.5311  13.6973  13.7596
    14.5086  14.6253  14.9413  15.2186  15.4539  15.6454  15.7454  15.8229
    16.2877  16.8608  17.0081  17.3560  17.5872

          k = 0.0000 0.1575-0.5000 ( 62234 PWs)   bands (ev):

   -66.1744 -66.1744 -66.1740 -66.1740 -66.1734 -66.1734 -66.1730 -66.1730
   -30.6179 -30.6178 -30.5746 -30.5746 -30.5690 -30.5690 -30.5261 -30.5261
   -30.4816 -30.4816 -30.4692 -30.4692 -30.4652 -30.4652 -30.4386 -30.4386
   -30.4331 -30.4331 -30.4204 -30.4204 -30.4165 -30.4165 -30.3892 -30.3892
   -20.3425 -20.3425 -20.3424 -20.3424 -20.3421 -20.3421 -20.3419 -20.3419
   -20.3275 -20.3275 -20.3271 -20.3271 -20.3271 -20.3270 -20.3267 -20.3267
   -20.3203 -20.3202 -20.3183 -20.3183 -20.3182 -20.3182 -20.3164 -20.3164
   -20.3119 -20.3119 -20.3115 -20.3115 -20.3102 -20.3102 -20.3086 -20.3086
   -20.3085 -20.3085 -20.3075 -20.3075 -20.3072 -20.3072 -20.3057 -20.3057
   -20.3015 -20.3015 -20.2990 -20.2990 -20.2983 -20.2983 -20.2964 -20.2964
   -20.2933 -20.2932 -20.2924 -20.2924 -20.2921 -20.2920 -20.2906 -20.2905
    -9.6407  -9.6407  -9.3799  -9.3799  -8.9348  -8.9348  -8.7211  -8.7210
    -8.6315  -8.6315  -8.5972  -8.5972  -8.4455  -8.4455  -8.3610  -8.3609
    -7.9229  -7.9229  -7.7548  -7.7548  -7.7075  -7.7075  -7.6763  -7.6763
     1.2922   1.2922   1.4936   1.4936   2.0510   2.0510   2.1307   2.1307
     2.8134   2.8134   2.9377   2.9377   3.0154   3.0155   3.2051   3.2051
     3.2279   3.2280   3.3064   3.3064   3.5513   3.5513   3.8339   3.8339
     3.9660   3.9660   4.2945   4.2945   4.6447   4.6447   4.8456   4.8456
     5.1966   5.1966   5.3094   5.3094   5.3513   5.3513   5.6011   5.6011
     5.7754   5.7754   5.9195   5.9195   5.9548   5.9548   6.0740   6.0740
     6.3502   6.3502   6.4747   6.4747   6.5518   6.5518   6.7636   6.7636
     6.8719   6.8719   6.9126   6.9126   7.0285   7.0285   7.4237   7.4237
     7.4557   7.4557   7.6729   7.6729   7.7168   7.7168   8.0393   8.0393
    10.2772  10.2772  11.2133  11.2133  11.4040  11.4040  11.5652  11.5652
    11.8377  11.8377  12.3823  12.3823  12.5392  12.5392  12.7590  12.7590
    12.8405  12.8405  13.0817  13.0817  13.3291  13.3292  13.7172  13.7172
    14.5881  14.5882  15.2056  15.2056  15.5419  15.5419  15.8984  15.8984
    16.5796  16.5797  17.6240  17.6241  17.8882

          k = 0.0000 0.3150 0.0000 ( 62175 PWs)   bands (ev):

   -66.1748 -66.1746 -66.1738 -66.1738 -66.1736 -66.1736 -66.1728 -66.1726
   -30.6209 -30.6201 -30.6152 -30.6152 -30.5306 -30.5306 -30.5240 -30.5217
   -30.4849 -30.4845 -30.4763 -30.4763 -30.4614 -30.4554 -30.4554 -30.4518
   -30.4343 -30.4297 -30.4297 -30.4268 -30.3919 -30.3919 -30.3865 -30.3860
   -20.3427 -20.3426 -20.3424 -20.3423 -20.3421 -20.3421 -20.3419 -20.3418
   -20.3276 -20.3275 -20.3275 -20.3274 -20.3268 -20.3267 -20.3267 -20.3266
   -20.3205 -20.3202 -20.3201 -20.3201 -20.3167 -20.3166 -20.3166 -20.3162
   -20.3113 -20.3108 -20.3108 -20.3105 -20.3104 -20.3101 -20.3101 -20.3101
   -20.3088 -20.3085 -20.3085 -20.3083 -20.3062 -20.3062 -20.3056 -20.3054
   -20.3019 -20.3018 -20.3009 -20.3009 -20.2968 -20.2967 -20.2962 -20.2961
   -20.2935 -20.2935 -20.2932 -20.2931 -20.2908 -20.2908 -20.2904 -20.2903
    -9.8730  -9.7621  -9.4574  -9.4574  -9.1832  -9.1832  -9.0053  -9.0035
    -8.5408  -8.4752  -8.4673  -8.4673  -8.0797  -7.9846  -7.9787  -7.9787
    -7.9417  -7.9260  -7.8233  -7.8233  -7.7560  -7.7490  -7.6072  -7.6071
     1.2270   1.2326   1.2848   1.2848   1.4571   1.4572   1.6840   1.6979
     2.3321   2.3763   2.5461   2.6912   2.6912   2.8532   2.8895   3.1155
     3.1457   3.1457   3.7266   3.7403   3.7544   3.7544   4.1967   4.5638
     4.5638   4.6754   4.6754   4.7939   4.7939   4.8644   5.2100   5.3083
     5.3083   5.3138   5.4711   5.4901   5.4901   5.6543   5.6750   5.7343
     5.7343   5.8258   5.8317   5.9406   5.9406   5.9731   6.0187   6.0335
     6.1960   6.2802   6.3032   6.5106   6.5734   6.5734   6.8667   6.8667
     6.8778   6.9188   7.0243   7.0243   7.1512   7.1555   7.1999   7.1999
     7.4168   7.4168   7.6447   7.6654   7.8213   7.8692   7.8772   7.8772
     9.7059   9.7138  10.7022  10.7022  10.7110  10.8074  11.7903  11.7903
    11.8570  12.0197  12.2113  12.2113  12.4732  12.5937  12.5938  12.5983
    13.1812  13.2317  13.2317  13.3635  13.5554  13.5554  13.6394  13.7126
    14.8251  15.0992  15.0992  15.3406  15.3469  15.5670  15.7914  15.7914
    15.9354  16.5234  17.0528  17.2964  17.2964

          k = 0.0000 0.3150 0.1667 ( 62260 PWs)   bands (ev):

   -66.1747 -66.1745 -66.1739 -66.1738 -66.1737 -66.1735 -66.1729 -66.1727
   -30.6202 -30.6155 -30.6143 -30.6090 -30.5362 -30.5298 -30.5291 -30.5230
   -30.4842 -30.4791 -30.4770 -30.4718 -30.4605 -30.4562 -30.4545 -30.4524
   -30.4339 -30.4303 -30.4293 -30.4273 -30.3978 -30.3920 -30.3915 -30.3867
   -20.3426 -20.3426 -20.3424 -20.3423 -20.3421 -20.3421 -20.3419 -20.3418
   -20.3275 -20.3275 -20.3274 -20.3274 -20.3268 -20.3267 -20.3267 -20.3267
   -20.3204 -20.3201 -20.3200 -20.3198 -20.3168 -20.3168 -20.3166 -20.3163
   -20.3112 -20.3109 -20.3108 -20.3106 -20.3103 -20.3101 -20.3099 -20.3099
   -20.3088 -20.3085 -20.3084 -20.3084 -20.3065 -20.3061 -20.3059 -20.3055
   -20.3018 -20.3014 -20.3010 -20.3005 -20.2970 -20.2967 -20.2964 -20.2962
   -20.2935 -20.2934 -20.2931 -20.2930 -20.2911 -20.2908 -20.2907 -20.2904
    -9.8233  -9.7083  -9.4735  -9.3745  -9.2032  -9.1034  -8.9773  -8.9553
    -8.5528  -8.4758  -8.4717  -8.4586  -8.1322  -8.0376  -8.0059  -7.9827
    -7.9475  -7.9433  -7.8991  -7.8576  -7.8303  -7.7420  -7.7184  -7.6164
     1.2675   1.2844   1.3835   1.4629   1.5204   1.6950   1.7921   1.8933
     2.4200   2.4649   2.5541   2.6634   2.6998   2.8345   2.9418   3.1230
     3.1827   3.2298   3.7243   3.7356   3.7703   3.8257   4.1637   4.3239
     4.3467   4.5768   4.6079   4.6857   4.7780   4.8744   4.9997   5.0949
     5.2061   5.2747   5.3120   5.4141   5.4503   5.5475   5.5993   5.6616
     5.7037   5.7580   5.7652   5.7923   5.9343   5.9402   5.9779   6.0379
     6.2674   6.3487   6.4576   6.5417   6.5992   6.7630   6.8343   6.8583
     6.9182   6.9671   6.9897   7.0013   7.1359   7.1560   7.1664   7.1937
     7.2811   7.3343   7.6581   7.6804   7.8209   7.8594   7.8618   7.8788
     9.9599  10.0063  10.7037  10.7417  10.8591  10.9411  11.7807  11.8621
    11.8980  12.0618  12.1521  12.2730  12.4764  12.5577  12.6227  12.6746
    13.0376  13.1552  13.2328  13.2948  13.4340  13.5552  13.5888  13.6946
    14.9143  15.0921  15.2211  15.3715  15.4063  15.6428  15.7661  16.0265
    16.0981  16.4923  17.0604  17.1223  17.4138

          k = 0.0000 0.3150 0.3333 ( 62269 PWs)   bands (ev):

   -66.1746 -66.1744 -66.1741 -66.1739 -66.1736 -66.1734 -66.1731 -66.1729
   -30.6192 -30.6165 -30.5974 -30.5920 -30.5521 -30.5458 -30.5279 -30.5242
   -30.4830 -30.4789 -30.4653 -30.4636 -30.4580 -30.4550 -30.4538 -30.4496
   -30.4325 -30.4318 -30.4294 -30.4278 -30.4132 -30.4073 -30.3906 -30.3878
   -20.3426 -20.3425 -20.3424 -20.3423 -20.3422 -20.3420 -20.3420 -20.3419
   -20.3275 -20.3275 -20.3273 -20.3273 -20.3269 -20.3269 -20.3267 -20.3267
   -20.3203 -20.3201 -20.3193 -20.3191 -20.3174 -20.3173 -20.3165 -20.3164
   -20.3112 -20.3110 -20.3108 -20.3107 -20.3103 -20.3101 -20.3094 -20.3094
   -20.3087 -20.3086 -20.3085 -20.3082 -20.3072 -20.3067 -20.3059 -20.3056
   -20.3017 -20.3012 -20.3004 -20.2995 -20.2978 -20.2971 -20.2966 -20.2963
   -20.2934 -20.2932 -20.2930 -20.2927 -20.2917 -20.2913 -20.2907 -20.2904
    -9.7117  -9.5619  -9.5212  -9.2673  -9.1433  -8.8901  -8.8749  -8.8020
    -8.6135  -8.5130  -8.4569  -8.4257  -8.3695  -8.2741  -8.1528  -8.0827
    -7.9919  -7.9775  -7.9397  -7.9218  -7.8968  -7.8555  -7.7143  -7.6419
     1.2866   1.2932   1.4781   1.4933   2.1532   2.3096   2.3287   2.4906
     2.5864   2.6410   2.6685   2.7132   2.7360   2.8389   3.0096   3.1074
     3.3559   3.3951   3.6324   3.7006   3.7438   3.7960   3.8586   3.9315
     4.1293   4.3377   4.3727   4.4767   4.5732   4.6213   4.6825   4.7189
     4.9035   4.9697   5.0515   5.1927   5.3005   5.3550   5.3576   5.4093
     5.4873   5.5719   5.7397   5.8306   5.9410   5.9891   6.0608   6.1128
     6.3596   6.4494   6.5217   6.5500   6.6666   6.7462   6.8085   6.8754
     6.9359   6.9942   7.0372   7.0656   7.1192   7.1464   7.1889   7.2391
     7.3973   7.4463   7.6150   7.6574   7.7930   7.7945   7.8576   7.8688
    10.5230  10.6045  10.7137  10.8283  11.2565  11.3744  11.7213  11.8576
    11.9396  12.0832  12.1420  12.2196  12.4521  12.5051  12.5176  12.7514
    12.7615  12.8890  13.1160  13.1571  13.2471  13.4582  13.5593  13.6403
    15.0046  15.0687  15.3855  15.6306  15.7114  15.8162  15.9440  16.3799
    16.5325  16.6820  16.7487  17.2753  17.5024

          k = 0.0000 0.3150-0.5000 ( 62306 PWs)   bands (ev):

   -66.1743 -66.1743 -66.1741 -66.1741 -66.1733 -66.1733 -66.1731 -66.1731
   -30.6178 -30.6178 -30.5746 -30.5746 -30.5689 -30.5689 -30.5259 -30.5258
   -30.4811 -30.4811 -30.4603 -30.4603 -30.4567 -30.4567 -30.4394 -30.4394
   -30.4365 -30.4365 -30.4279 -30.4279 -30.4234 -30.4234 -30.3892 -30.3892
   -20.3425 -20.3425 -20.3424 -20.3424 -20.3421 -20.3421 -20.3420 -20.3419
   -20.3275 -20.3275 -20.3271 -20.3271 -20.3271 -20.3271 -20.3267 -20.3267
   -20.3202 -20.3202 -20.3183 -20.3183 -20.3181 -20.3181 -20.3165 -20.3165
   -20.3111 -20.3111 -20.3108 -20.3108 -20.3102 -20.3102 -20.3090 -20.3090
   -20.3088 -20.3088 -20.3081 -20.3081 -20.3077 -20.3077 -20.3058 -20.3058
   -20.3015 -20.3015 -20.2990 -20.2990 -20.2983 -20.2983 -20.2964 -20.2964
   -20.2932 -20.2932 -20.2924 -20.2924 -20.2920 -20.2920 -20.2906 -20.2906
    -9.6022  -9.6022  -9.3888  -9.3888  -8.8318  -8.8317  -8.6950  -8.6950
    -8.5837  -8.5837  -8.5675  -8.5675  -8.3937  -8.3937  -8.3216  -8.3216
    -7.9962  -7.9962  -7.9286  -7.9286  -7.8885  -7.8885  -7.6776  -7.6776
     1.2924   1.2924   1.4949   1.4950   2.5409   2.5409   2.6947   2.6947
     2.9574   2.9574   2.9915   2.9915   3.0210   3.0210   3.2154   3.2154
     3.2581   3.2581   3.3529   3.3529   3.5717   3.5717   3.7416   3.7416
     4.0302   4.0302   4.1313   4.1313   4.3158   4.3158   4.4628   4.4628
     4.9478   4.9478   5.0721   5.0721   5.2551   5.2551   5.3432   5.3432
     5.4312   5.4312   5.8265   5.8265   6.0154   6.0154   6.0582   6.0582
     6.4286   6.4286   6.5342   6.5342   6.5940   6.5940   6.7582   6.7582
     7.0790   7.0790   7.1125   7.1125   7.1298   7.1298   7.4194   7.4194
     7.4589   7.4589   7.6486   7.6486   7.6767   7.6767   7.8605   7.8605
    10.7019  10.7019  11.2355  11.2355  11.4149  11.4149  11.6791  11.6791
    11.9775  11.9775  12.0967  12.0967  12.4888  12.4888  12.5443  12.5443
    12.7836  12.7836  12.9409  12.9409  13.3133  13.3133  13.5811  13.5811
    15.0364  15.0365  15.5361  15.5361  16.0926  16.0926  16.2028  16.2028
    16.6989  16.6989  17.3117  17.3117  17.6028

          k = 0.0000-0.4725 0.0000 ( 62212 PWs)   bands (ev):

   -66.1747 -66.1747 -66.1738 -66.1738 -66.1737 -66.1737 -66.1727 -66.1727
   -30.6205 -30.6205 -30.6152 -30.6152 -30.5305 -30.5305 -30.5227 -30.5227
   -30.4846 -30.4846 -30.4758 -30.4758 -30.4480 -30.4479 -30.4458 -30.4458
   -30.4401 -30.4400 -30.4395 -30.4395 -30.3919 -30.3919 -30.3863 -30.3862
   -20.3426 -20.3426 -20.3423 -20.3423 -20.3421 -20.3421 -20.3418 -20.3418
   -20.3275 -20.3275 -20.3275 -20.3274 -20.3267 -20.3267 -20.3267 -20.3267
   -20.3204 -20.3203 -20.3201 -20.3200 -20.3166 -20.3166 -20.3164 -20.3164
   -20.3103 -20.3103 -20.3101 -20.3101 -20.3100 -20.3099 -20.3097 -20.3097
   -20.3096 -20.3096 -20.3094 -20.3094 -20.3062 -20.3062 -20.3055 -20.3055
   -20.3019 -20.3018 -20.3009 -20.3009 -20.2968 -20.2967 -20.2961 -20.2961
   -20.2935 -20.2935 -20.2932 -20.2931 -20.2908 -20.2908 -20.2904 -20.2904
    -9.8125  -9.8124  -9.4440  -9.4440  -9.1811  -9.1811  -9.0038  -9.0038
    -8.2953  -8.2953  -8.2445  -8.2445  -8.2337  -8.2337  -8.2270  -8.2270
    -7.9820  -7.9820  -7.8314  -7.8314  -7.7528  -7.7528  -7.6074  -7.6074
     1.2293   1.2293   1.2844   1.2845   1.4570   1.4570   1.6950   1.6950
     2.3542   2.3542   3.0332   3.0332   3.1138   3.1138   3.3973   3.3973
     3.4970   3.4970   3.4995   3.4995   3.6131   3.6131   3.8597   3.8597
     3.9038   3.9038   4.6602   4.6602   4.7550   4.7550   5.3599   5.3599
     5.3860   5.3860   5.4517   5.4517   5.4989   5.4989   5.7386   5.7386
     5.7877   5.7877   5.8449   5.8449   5.9407   5.9407   6.0270   6.0270
     6.2356   6.2356   6.3385   6.3385   6.5571   6.5571   6.8267   6.8267
     6.8980   6.8980   7.0295   7.0295   7.3648   7.3648   7.4144   7.4144
     7.5411   7.5411   7.5667   7.5667   7.6641   7.6641   7.6975   7.6975
     9.7143   9.7143  11.1329  11.1329  11.2102  11.2102  11.4002  11.4002
    11.5158  11.5158  12.2166  12.2167  12.5392  12.5392  12.5964  12.5964
    13.3107  13.3107  13.3588  13.3588  13.3659  13.3660  13.5920  13.5920
    15.2302  15.2302  15.3857  15.3857  15.5292  15.5292  15.6930  15.6930
    16.3055  16.3055  17.6200  17.6200  17.9077

          k = 0.0000-0.4725 0.1667 ( 62246 PWs)   bands (ev):

   -66.1747 -66.1746 -66.1738 -66.1737 -66.1737 -66.1736 -66.1728 -66.1728
   -30.6201 -30.6155 -30.6143 -30.6090 -30.5361 -30.5297 -30.5288 -30.5231
   -30.4842 -30.4789 -30.4766 -30.4710 -30.4475 -30.4473 -30.4462 -30.4454
   -30.4408 -30.4401 -30.4399 -30.4393 -30.3978 -30.3920 -30.3915 -30.3867
   -20.3426 -20.3426 -20.3424 -20.3423 -20.3421 -20.3421 -20.3419 -20.3418
   -20.3275 -20.3275 -20.3274 -20.3274 -20.3267 -20.3267 -20.3267 -20.3267
   -20.3203 -20.3201 -20.3201 -20.3198 -20.3168 -20.3166 -20.3166 -20.3164
   -20.3103 -20.3103 -20.3101 -20.3100 -20.3100 -20.3098 -20.3097 -20.3097
   -20.3097 -20.3095 -20.3094 -20.3094 -20.3065 -20.3061 -20.3059 -20.3056
   -20.3018 -20.3014 -20.3010 -20.3005 -20.2970 -20.2967 -20.2964 -20.2962
   -20.2935 -20.2934 -20.2931 -20.2930 -20.2911 -20.2908 -20.2906 -20.2904
    -9.7735  -9.7473  -9.4596  -9.3596  -9.2016  -9.1003  -8.9769  -8.9543
    -8.3058  -8.3006  -8.2561  -8.2509  -8.2427  -8.2365  -8.2295  -8.2266
    -8.0767  -7.9728  -7.9405  -7.8594  -7.8407  -7.7425  -7.7198  -7.6167
     1.2672   1.2841   1.3831   1.4629   1.5205   1.6954   1.7993   1.8982
     2.4412   2.4448   3.0307   3.0383   3.1378   3.1634   3.3939   3.4019
     3.4430   3.4996   3.5087   3.5474   3.6267   3.6928   3.8424   3.8879
     3.9240   3.9343   4.3402   4.3488   4.6900   4.7249   5.1116   5.1642
     5.2668   5.2669   5.3449   5.3899   5.4178   5.5517   5.5621   5.5998
     5.7111   5.7172   5.7221   5.7285   5.8483   5.9362   5.9878   6.0410
     6.2901   6.3855   6.4187   6.4973   6.5512   6.7594   6.8124   6.8517
     6.9421   6.9921   7.0070   7.0324   7.1729   7.2338   7.4128   7.4252
     7.5112   7.5342   7.5726   7.5833   7.6498   7.6597   7.7170   7.7173
     9.9663  10.0154  11.1354  11.2057  11.2412  11.3312  11.3991  11.5075
    11.5195  11.6206  12.1537  12.2725  12.4894  12.6016  12.6235  12.6389
    13.1649  13.2129  13.2304  13.2736  13.3580  13.3655  13.5278  13.6081
    15.2040  15.3556  15.3821  15.5019  15.6545  15.6853  15.7240  15.8985
    16.3602  16.3665  17.5367  17.5717  17.7076

          k = 0.0000-0.4725 0.3333 ( 62268 PWs)   bands (ev):

   -66.1745 -66.1744 -66.1740 -66.1739 -66.1735 -66.1734 -66.1730 -66.1730
   -30.6191 -30.6165 -30.5974 -30.5920 -30.5520 -30.5457 -30.5277 -30.5241
   -30.4829 -30.4787 -30.4639 -30.4588 -30.4475 -30.4464 -30.4443 -30.4443
   -30.4425 -30.4420 -30.4411 -30.4366 -30.4136 -30.4075 -30.3906 -30.3878
   -20.3425 -20.3425 -20.3424 -20.3423 -20.3422 -20.3420 -20.3420 -20.3419
   -20.3275 -20.3275 -20.3273 -20.3273 -20.3269 -20.3269 -20.3267 -20.3267
   -20.3203 -20.3201 -20.3193 -20.3190 -20.3174 -20.3172 -20.3165 -20.3165
   -20.3103 -20.3102 -20.3102 -20.3100 -20.3099 -20.3099 -20.3098 -20.3096
   -20.3096 -20.3095 -20.3092 -20.3088 -20.3072 -20.3068 -20.3060 -20.3056
   -20.3017 -20.3012 -20.3004 -20.2995 -20.2978 -20.2971 -20.2966 -20.2963
   -20.2934 -20.2932 -20.2930 -20.2927 -20.2917 -20.2913 -20.2907 -20.2904
    -9.6807  -9.5804  -9.5056  -9.2675  -9.1214  -8.8826  -8.8748  -8.7979
    -8.4524  -8.3849  -8.3456  -8.3129  -8.2583  -8.2415  -8.2252  -8.2178
    -8.1891  -8.1215  -8.0942  -7.9964  -7.9263  -7.8664  -7.7147  -7.6422
     1.2864   1.2931   1.4782   1.4935   2.1624   2.3211   2.3701   2.5132
     2.6935   2.6984   3.0286   3.0445   3.2110   3.2603   3.3377   3.4047
     3.4410   3.4847   3.5025   3.5279   3.6554   3.7607   3.7895   3.8457
     3.8779   3.9253   3.9549   3.9954   4.4257   4.4926   4.6209   4.7450
     4.7699   4.9073   4.9462   4.9602   5.1591   5.3387   5.3664   5.4020
     5.4671   5.6075   5.6521   5.7353   5.9095   6.0055   6.0670   6.1194
     6.3847   6.4665   6.5151   6.5509   6.6237   6.7528   6.7705   6.9288
     6.9742   7.0343   7.1013   7.1238   7.2213   7.2656   7.3983   7.4446
     7.5200   7.5497   7.5612   7.6057   7.6394   7.6556   7.6920   7.7039
    10.5492  10.6623  11.1420  11.2021  11.4007  11.4511  11.6210  11.6923
    11.8164  11.8563  11.9057  12.0937  12.4461  12.5405  12.6021  12.7377
    12.7478  12.8496  12.9711  13.1133  13.3622  13.3740  13.4587  13.5328
    15.1784  15.3104  15.4745  15.6256  16.0452  16.2586  16.3164  16.4656
    16.5297  16.5585  17.1948  17.3080  17.4778

          k = 0.0000-0.4725-0.5000 ( 62284 PWs)   bands (ev):

   -66.1742 -66.1742 -66.1742 -66.1742 -66.1732 -66.1732 -66.1732 -66.1732
   -30.6178 -30.6178 -30.5745 -30.5745 -30.5688 -30.5688 -30.5257 -30.5257
   -30.4809 -30.4809 -30.4503 -30.4503 -30.4481 -30.4481 -30.4446 -30.4446
   -30.4428 -30.4428 -30.4326 -30.4326 -30.4264 -30.4264 -30.3892 -30.3892
   -20.3425 -20.3425 -20.3424 -20.3424 -20.3421 -20.3421 -20.3420 -20.3419
   -20.3275 -20.3275 -20.3271 -20.3271 -20.3271 -20.3271 -20.3267 -20.3267
   -20.3202 -20.3202 -20.3183 -20.3183 -20.3181 -20.3181 -20.3165 -20.3165
   -20.3103 -20.3103 -20.3100 -20.3100 -20.3099 -20.3099 -20.3097 -20.3097
   -20.3095 -20.3095 -20.3082 -20.3082 -20.3079 -20.3079 -20.3058 -20.3058
   -20.3015 -20.3015 -20.2990 -20.2990 -20.2983 -20.2983 -20.2964 -20.2964
   -20.2932 -20.2932 -20.2924 -20.2924 -20.2920 -20.2920 -20.2906 -20.2906
    -9.5819  -9.5819  -9.3944  -9.3944  -8.7832  -8.7831  -8.6818  -8.6818
    -8.5634  -8.5634  -8.5380  -8.5379  -8.2523  -8.2523  -8.2166  -8.2165
    -8.1918  -8.1918  -8.1423  -8.1423  -7.9016  -7.9016  -7.6779  -7.6779
     1.2923   1.2923   1.4952   1.4952   2.8682   2.8682   2.9724   2.9724
     3.0279   3.0279   3.1575   3.1576   3.1860   3.1861   3.2704   3.2705
     3.3511   3.3511   3.4641   3.4641   3.5143   3.5143   3.5736   3.5736
     3.7325   3.7325   3.9323   3.9323   4.3731   4.3731   4.4584   4.4584
     4.5070   4.5070   4.6069   4.6070   5.2429   5.2429   5.3232   5.3233
     5.5179   5.5179   5.7059   5.7059   6.0408   6.0408   6.0520   6.0520
     6.4447   6.4447   6.5292   6.5292   6.6208   6.6208   6.7177   6.7177
     7.2092   7.2092   7.2585   7.2585   7.3275   7.3275   7.3987   7.3987
     7.5043   7.5044   7.6003   7.6003   7.6382   7.6382   7.6584   7.6584
    11.0782  11.0782  11.2943  11.2943  11.3492  11.3492  11.5547  11.5547
    12.0775  12.0775  12.1629  12.1629  12.3072  12.3072  12.3651  12.3651
    12.7181  12.7181  12.9265  12.9265  13.3915  13.3915  13.4194  13.4194
    15.2317  15.2317  15.5552  15.5552  16.7453  16.7453  16.7830  16.7831
    16.9691  16.9691  17.0319  17.0320  17.1294

          k = 0.1667 0.0000 0.1667 ( 62234 PWs)   bands (ev):

   -66.1748 -66.1744 -66.1739 -66.1739 -66.1735 -66.1735 -66.1731 -66.1727
   -30.6149 -30.6131 -30.6094 -30.6094 -30.5359 -30.5358 -30.5318 -30.5275
   -30.4805 -30.4794 -30.4775 -30.4749 -30.4700 -30.4655 -30.4643 -30.4635
   -30.4199 -30.4170 -30.4168 -30.4152 -30.3975 -30.3971 -30.3926 -30.3920
   -20.3426 -20.3425 -20.3423 -20.3423 -20.3421 -20.3421 -20.3419 -20.3418
   -20.3276 -20.3274 -20.3274 -20.3273 -20.3269 -20.3267 -20.3267 -20.3266
   -20.3204 -20.3199 -20.3198 -20.3197 -20.3171 -20.3168 -20.3168 -20.3162
   -20.3124 -20.3120 -20.3120 -20.3117 -20.3103 -20.3100 -20.3099 -20.3097
   -20.3076 -20.3076 -20.3073 -20.3073 -20.3064 -20.3063 -20.3058 -20.3057
   -20.3015 -20.3013 -20.3006 -20.3006 -20.2970 -20.2970 -20.2965 -20.2963
   -20.2934 -20.2932 -20.2930 -20.2930 -20.2910 -20.2910 -20.2908 -20.2905
    -9.8447  -9.6119  -9.4425  -9.4392  -9.1329  -9.1282  -8.9359  -8.9335
    -8.8187  -8.6499  -8.6427  -8.6398  -8.1209  -8.0853  -7.9812  -7.9751
    -7.8607  -7.8496  -7.7450  -7.7262  -7.6933  -7.6441  -7.6435  -7.5971
     1.4665   1.4854   1.5163   1.5182   1.6934   1.6970   1.7323   1.9091
     1.9295   1.9373   1.9483   2.1506   2.4887   2.5844   2.7281   2.8648
     2.9238   2.9467   4.0738   4.1071   4.3171   4.3403   4.3714   4.4202
     4.4585   4.4943   4.6077   4.8530   4.8838   4.9704   5.1762   5.2049
     5.2297   5.3742   5.3895   5.5343   5.5534   5.5873   5.6269   5.6759
     5.6998   5.7999   5.8145   5.8649   5.9196   5.9768   6.0157   6.1362
     6.2687   6.5509   6.5887   6.6122   6.6289   6.6876   6.7903   6.8066
     6.8532   6.8884   6.8921   6.9174   6.9523   6.9869   7.0569   7.1099
     7.2341   7.2582   7.6771   7.6862   7.9690   7.9942   8.0311   8.1322
    10.0940  10.1237  10.3344  10.3735  10.4306  10.5232  12.1610  12.1829
    12.1954  12.2046  12.4458  12.4579  12.5520  12.5816  12.7038  12.7154
    12.9418  13.0660  13.2346  13.2371  13.5313  13.6185  13.7128  13.7892
    14.2549  14.4861  14.4915  15.0879  15.1458  15.4445  15.5725  16.0962
    16.1223  16.7579  16.8067  16.8914  17.6503

          k = 0.1667 0.0000 0.3333 ( 62265 PWs)   bands (ev):

   -66.1746 -66.1742 -66.1741 -66.1737 -66.1737 -66.1733 -66.1732 -66.1728
   -30.6130 -30.6103 -30.5971 -30.5924 -30.5518 -30.5465 -30.5341 -30.5305
   -30.4793 -30.4776 -30.4725 -30.4717 -30.4676 -30.4660 -30.4590 -30.4525
   -30.4196 -30.4194 -30.4188 -30.4159 -30.4106 -30.4065 -30.3963 -30.3935
   -20.3426 -20.3425 -20.3424 -20.3423 -20.3422 -20.3420 -20.3420 -20.3419
   -20.3275 -20.3275 -20.3273 -20.3272 -20.3270 -20.3269 -20.3267 -20.3267
   -20.3201 -20.3199 -20.3192 -20.3191 -20.3175 -20.3174 -20.3167 -20.3164
   -20.3123 -20.3121 -20.3119 -20.3117 -20.3101 -20.3100 -20.3093 -20.3093
   -20.3079 -20.3077 -20.3074 -20.3073 -20.3069 -20.3065 -20.3061 -20.3058
   -20.3013 -20.3008 -20.3003 -20.2996 -20.2978 -20.2972 -20.2968 -20.2965
   -20.2933 -20.2930 -20.2929 -20.2927 -20.2917 -20.2913 -20.2909 -20.2907
    -9.7188  -9.4951  -9.4689  -9.2358  -9.1907  -8.9206  -8.8723  -8.8437
    -8.8021  -8.6606  -8.6127  -8.5725  -8.3689  -8.2742  -8.1354  -8.1086
    -8.0278  -7.9683  -7.8280  -7.7583  -7.6870  -7.6560  -7.6371  -7.6083
     1.5200   1.5280   1.6974   1.7159   1.8514   1.8639   1.8960   1.9230
     2.2143   2.3578   2.4179   2.5560   2.7525   2.8013   2.8616   2.9103
     3.0648   3.1660   3.6972   3.8555   3.9013   3.9610   4.2340   4.2662
     4.3458   4.3800   4.5366   4.6019   4.6673   4.7115   4.7954   4.8665
     5.0705   5.0969   5.1279   5.1988   5.2865   5.4653   5.5571   5.6684
     5.6769   5.7974   5.8199   5.8574   5.9269   5.9661   6.0329   6.1487
     6.3607   6.4925   6.5327   6.5915   6.6515   6.6695   6.7796   6.7925
     6.8246   6.8860   6.9284   6.9558   7.0340   7.0734   7.1095   7.2114
     7.3477   7.4088   7.6395   7.6514   7.9003   7.9129   8.0501   8.0970
    10.3063  10.3223  10.6605  10.8019  10.9054  11.1090  11.8738  11.9545
    12.1282  12.2998  12.3689  12.4273  12.5331  12.5876  12.6657  12.7513
    12.8732  13.0055  13.0715  13.2079  13.4423  13.4949  13.6683  13.6886
    14.3068  14.4600  14.6376  15.0481  15.3375  15.7497  15.8593  15.9661
    16.3927  16.8409  17.2590  17.3321  17.4008

          k = 0.1667 0.0000-0.5000 ( 62322 PWs)   bands (ev):

   -66.1744 -66.1743 -66.1739 -66.1739 -66.1735 -66.1735 -66.1731 -66.1731
   -30.6117 -30.6117 -30.5742 -30.5742 -30.5694 -30.5694 -30.5322 -30.5322
   -30.4783 -30.4783 -30.4702 -30.4702 -30.4685 -30.4685 -30.4382 -30.4382
   -30.4331 -30.4331 -30.4169 -30.4169 -30.4141 -30.4141 -30.3950 -30.3950
   -20.3425 -20.3425 -20.3423 -20.3423 -20.3421 -20.3421 -20.3420 -20.3420
   -20.3275 -20.3275 -20.3271 -20.3271 -20.3271 -20.3270 -20.3268 -20.3267
   -20.3200 -20.3200 -20.3183 -20.3183 -20.3182 -20.3182 -20.3166 -20.3166
   -20.3122 -20.3122 -20.3118 -20.3118 -20.3100 -20.3100 -20.3086 -20.3086
   -20.3084 -20.3084 -20.3073 -20.3073 -20.3070 -20.3070 -20.3060 -20.3059
   -20.3011 -20.3011 -20.2990 -20.2990 -20.2983 -20.2983 -20.2967 -20.2967
   -20.2931 -20.2931 -20.2924 -20.2924 -20.2921 -20.2921 -20.2908 -20.2908
    -9.5887  -9.5886  -9.3053  -9.3053  -9.0019  -9.0019  -8.7160  -8.7160
    -8.6487  -8.6487  -8.6041  -8.6040  -8.4515  -8.4514  -8.3734  -8.3733
    -8.0237  -8.0237  -7.7923  -7.7923  -7.6723  -7.6723  -7.6232  -7.6232
     1.5271   1.5272   1.7169   1.7169   1.8836   1.8836   1.9094   1.9094
     2.8158   2.8158   2.9606   2.9606   3.0306   3.0306   3.1977   3.1977
     3.2438   3.2438   3.3594   3.3595   3.5781   3.5782   3.8419   3.8419
     3.9036   3.9037   4.4492   4.4492   4.6185   4.6185   4.8824   4.8824
     4.9736   4.9736   5.0829   5.0829   5.3103   5.3103   5.6404   5.6405
     5.7152   5.7152   5.7483   5.7483   5.9496   5.9496   6.1333   6.1333
     6.3853   6.3853   6.5627   6.5627   6.5985   6.5985   6.7877   6.7877
     6.8851   6.8852   6.9322   6.9322   7.0078   7.0078   7.4446   7.4446
     7.4724   7.4724   7.6851   7.6851   7.7285   7.7285   8.0706   8.0706
    10.3341  10.3341  11.2846  11.2846  11.4642  11.4642  11.5233  11.5233
    11.8264  11.8264  12.4487  12.4487  12.5965  12.5965  12.7344  12.7344
    12.8889  12.8889  13.1642  13.1642  13.2674  13.2674  13.6615  13.6615
    14.4022  14.4022  14.8713  14.8713  15.6560  15.6560  16.0502  16.0502
    16.6068  16.6068  17.6949  17.6949  17.9271

          k = 0.1667 0.1575 0.1667 ( 62255 PWs)   bands (ev):

   -66.1748 -66.1744 -66.1739 -66.1739 -66.1735 -66.1735 -66.1730 -66.1727
   -30.6147 -30.6132 -30.6094 -30.6093 -30.5358 -30.5357 -30.5313 -30.5277
   -30.4796 -30.4791 -30.4757 -30.4737 -30.4677 -30.4627 -30.4625 -30.4613
   -30.4235 -30.4205 -30.4203 -30.4186 -30.3975 -30.3972 -30.3927 -30.3921
   -20.3426 -20.3425 -20.3423 -20.3423 -20.3421 -20.3421 -20.3419 -20.3419
   -20.3275 -20.3274 -20.3274 -20.3273 -20.3269 -20.3267 -20.3267 -20.3267
   -20.3203 -20.3199 -20.3198 -20.3198 -20.3171 -20.3168 -20.3168 -20.3163
   -20.3121 -20.3117 -20.3117 -20.3114 -20.3103 -20.3100 -20.3099 -20.3098
   -20.3079 -20.3078 -20.3076 -20.3076 -20.3064 -20.3063 -20.3059 -20.3057
   -20.3015 -20.3013 -20.3006 -20.3006 -20.2970 -20.2970 -20.2965 -20.2963
   -20.2934 -20.2933 -20.2930 -20.2930 -20.2910 -20.2910 -20.2908 -20.2905
    -9.8226  -9.6225  -9.4253  -9.4222  -9.1305  -9.1263  -8.9339  -8.9330
    -8.7522  -8.6056  -8.6006  -8.5979  -8.1228  -8.0859  -7.9858  -7.9762
    -7.8620  -7.8539  -7.7864  -7.7467  -7.7319  -7.7220  -7.7211  -7.6791
     1.4700   1.4838   1.5195   1.5211   1.6983   1.7006   1.8303   1.9442
     2.0819   2.1323   2.1380   2.2914   2.4961   2.5791   2.7980   2.9438
     2.9978   3.0126   3.9981   4.0204   4.1842   4.1897   4.3579   4.3589
     4.4248   4.4413   4.5751   4.8342   4.9207   4.9348   5.1185   5.1538
     5.1647   5.3355   5.3358   5.4283   5.4744   5.5086   5.5359   5.5761
     5.6832   5.7765   5.8069   5.8956   5.9031   5.9647   5.9689   6.0383
     6.3216   6.5169   6.5185   6.5961   6.6978   6.7201   6.7542   6.8057
     6.8496   6.8770   6.9054   6.9700   7.0084   7.0197   7.0999   7.1120
     7.2400   7.2576   7.6762   7.6856   7.9439   7.9655   7.9983   8.0641
    10.1351  10.1648  10.4788  10.4814  10.5404  10.6355  12.1087  12.1329
    12.1818  12.1976  12.3223  12.4335  12.5336  12.5413  12.6287  12.7198
    12.9279  13.0405  13.2228  13.2340  13.5665  13.5774  13.7217  13.7242
    14.4329  14.7080  14.7123  15.1547  15.4374  15.5318  15.5957  16.0825
    16.0986  16.6372  16.8866  16.8872  17.5760

          k = 0.1667 0.1575 0.3333 ( 62260 PWs)   bands (ev):

   -66.1746 -66.1742 -66.1741 -66.1737 -66.1737 -66.1734 -66.1732 -66.1729
   -30.6130 -30.6103 -30.5971 -30.5924 -30.5517 -30.5464 -30.5340 -30.5304
   -30.4784 -30.4760 -30.4700 -30.4696 -30.4651 -30.4632 -30.4583 -30.4522
   -30.4226 -30.4223 -30.4218 -30.4193 -30.4117 -30.4071 -30.3964 -30.3935
   -20.3425 -20.3425 -20.3424 -20.3423 -20.3422 -20.3421 -20.3420 -20.3419
   -20.3275 -20.3275 -20.3273 -20.3272 -20.3269 -20.3269 -20.3268 -20.3267
   -20.3201 -20.3199 -20.3192 -20.3191 -20.3175 -20.3174 -20.3167 -20.3165
   -20.3120 -20.3118 -20.3116 -20.3115 -20.3101 -20.3100 -20.3093 -20.3093
   -20.3081 -20.3079 -20.3077 -20.3075 -20.3070 -20.3066 -20.3062 -20.3059
   -20.3013 -20.3008 -20.3003 -20.2996 -20.2978 -20.2972 -20.2969 -20.2965
   -20.2933 -20.2930 -20.2930 -20.2927 -20.2917 -20.2913 -20.2909 -20.2907
    -9.6962  -9.4801  -9.4745  -9.2102  -9.1904  -8.9161  -8.8479  -8.8080
    -8.7910  -8.6207  -8.5756  -8.5417  -8.3680  -8.2758  -8.1368  -8.1101
    -8.0296  -7.9691  -7.8319  -7.7784  -7.7542  -7.7353  -7.7217  -7.6926
     1.5244   1.5343   1.7034   1.7240   2.0035   2.0326   2.1017   2.1231
     2.2400   2.3707   2.4281   2.5725   2.7655   2.8492   2.8768   2.9810
     3.1402   3.2250   3.6955   3.8425   3.8766   3.9432   4.1846   4.2127
     4.2890   4.3553   4.4478   4.5191   4.6553   4.7038   4.7721   4.8136
     4.9842   5.0015   5.0548   5.1318   5.2370   5.3097   5.4466   5.5357
     5.6389   5.7140   5.7885   5.8189   5.8406   5.9253   5.9610   6.0079
     6.3910   6.5016   6.5695   6.6479   6.6705   6.7398   6.7910   6.8361
     6.8711   6.9019   6.9586   7.0309   7.0472   7.0827   7.1239   7.2207
     7.3565   7.4190   7.6384   7.6520   7.8815   7.8917   8.0053   8.0361
    10.4361  10.4465  10.6968  10.8274  10.9963  11.1709  11.8716  11.9578
    12.1303  12.2810  12.3429  12.4124  12.4517  12.5554  12.6115  12.7063
    12.7916  12.9621  13.0470  13.1991  13.3723  13.4320  13.6401  13.6702
    14.5460  14.6877  14.9372  15.3230  15.4865  15.7567  15.8874  15.9774
    16.4483  16.8173  17.0682  17.3644  17.4364

          k = 0.1667 0.1575-0.5000 ( 62292 PWs)   bands (ev):

   -66.1743 -66.1743 -66.1740 -66.1740 -66.1735 -66.1735 -66.1731 -66.1731
   -30.6117 -30.6117 -30.5742 -30.5742 -30.5693 -30.5693 -30.5321 -30.5321
   -30.4771 -30.4771 -30.4677 -30.4677 -30.4656 -30.4655 -30.4383 -30.4383
   -30.4335 -30.4335 -30.4201 -30.4201 -30.4171 -30.4171 -30.3950 -30.3950
   -20.3425 -20.3425 -20.3424 -20.3423 -20.3421 -20.3421 -20.3420 -20.3420
   -20.3275 -20.3275 -20.3271 -20.3271 -20.3271 -20.3270 -20.3268 -20.3268
   -20.3200 -20.3200 -20.3183 -20.3183 -20.3182 -20.3182 -20.3166 -20.3166
   -20.3119 -20.3119 -20.3116 -20.3115 -20.3100 -20.3100 -20.3087 -20.3086
   -20.3085 -20.3084 -20.3075 -20.3075 -20.3072 -20.3072 -20.3060 -20.3060
   -20.3011 -20.3011 -20.2990 -20.2990 -20.2983 -20.2983 -20.2967 -20.2967
   -20.2931 -20.2931 -20.2924 -20.2924 -20.2921 -20.2921 -20.2908 -20.2908
    -9.5679  -9.5679  -9.3095  -9.3095  -8.9546  -8.9545  -8.7010  -8.7010
    -8.6274  -8.6274  -8.6022  -8.6022  -8.4420  -8.4420  -8.3658  -8.3658
    -8.0248  -8.0248  -7.7989  -7.7989  -7.7508  -7.7508  -7.7080  -7.7080
     1.5333   1.5333   1.7275   1.7275   2.0557   2.0557   2.1261   2.1261
     2.8724   2.8724   2.9740   2.9740   3.0308   3.0308   3.2101   3.2101
     3.2516   3.2517   3.3722   3.3722   3.5900   3.5901   3.8523   3.8524
     3.9540   3.9540   4.3052   4.3052   4.5709   4.5709   4.7655   4.7655
     4.9257   4.9257   5.0262   5.0262   5.1785   5.1785   5.5480   5.5480
     5.6347   5.6347   5.6976   5.6976   5.8393   5.8393   5.9774   5.9774
     6.4839   6.4839   6.6141   6.6141   6.6932   6.6932   6.8191   6.8191
     6.8830   6.8831   6.9520   6.9520   7.0721   7.0721   7.4463   7.4463
     7.4694   7.4694   7.6814   7.6814   7.7208   7.7208   8.0178   8.0178
    10.4715  10.4715  11.2978  11.2979  11.4733  11.4734  11.5809  11.5809
    11.8646  11.8646  12.4167  12.4167  12.5121  12.5121  12.7012  12.7012
    12.8609  12.8609  13.0641  13.0641  13.2197  13.2197  13.6342  13.6342
    14.6409  14.6409  15.2057  15.2057  15.7143  15.7143  16.0718  16.0718
    16.6401  16.6402  17.6048  17.6048  17.8497

          k = 0.1667 0.3150 0.1667 ( 62249 PWs)   bands (ev):

   -66.1747 -66.1745 -66.1738 -66.1738 -66.1736 -66.1736 -66.1730 -66.1728
   -30.6144 -30.6135 -30.6093 -30.6093 -30.5355 -30.5354 -30.5303 -30.5283
   -30.4787 -30.4787 -30.4728 -30.4720 -30.4596 -30.4553 -30.4553 -30.4529
   -30.4335 -30.4299 -30.4298 -30.4278 -30.3975 -30.3973 -30.3926 -30.3923
   -20.3426 -20.3426 -20.3423 -20.3423 -20.3421 -20.3421 -20.3419 -20.3419
   -20.3275 -20.3274 -20.3274 -20.3274 -20.3268 -20.3267 -20.3267 -20.3267
   -20.3202 -20.3199 -20.3198 -20.3198 -20.3169 -20.3168 -20.3168 -20.3164
   -20.3112 -20.3109 -20.3108 -20.3106 -20.3102 -20.3100 -20.3099 -20.3098
   -20.3088 -20.3085 -20.3085 -20.3084 -20.3064 -20.3064 -20.3059 -20.3058
   -20.3014 -20.3014 -20.3006 -20.3006 -20.2970 -20.2970 -20.2965 -20.2964
   -20.2934 -20.2933 -20.2930 -20.2930 -20.2910 -20.2910 -20.2907 -20.2906
    -9.7680  -9.6542  -9.3919  -9.3899  -9.1252  -9.1225  -8.9317  -8.9311
    -8.5663  -8.4691  -8.4673  -8.4646  -8.1444  -8.0902  -8.0326  -8.0063
    -7.9789  -7.9539  -7.9247  -7.8958  -7.8476  -7.8415  -7.7272  -7.7257
     1.4737   1.4804   1.5217   1.5226   1.7015   1.7026   1.9167   1.9433
     2.5116   2.5437   2.5721   2.6650   2.6821   2.8195   3.0020   3.1915
     3.2143   3.2469   3.7309   3.7540   3.7913   3.8539   4.1422   4.3300
     4.3679   4.4092   4.4111   4.6114   4.6342   4.8596   4.9421   5.0160
     5.0814   5.1212   5.1661   5.1885   5.4007   5.4193   5.4405   5.4857
     5.6613   5.6826   5.7245   5.7341   5.7961   5.8730   5.9512   5.9647
     6.4357   6.4658   6.5062   6.6171   6.7376   6.7548   6.7689   6.8062
     6.9792   6.9828   7.0125   7.0390   7.1301   7.1430   7.1742   7.2069
     7.3037   7.3149   7.6635   7.6813   7.8199   7.8375   7.8683   7.8703
    10.1870  10.2037  10.8298  10.8573  10.8854  11.0026  11.8418  11.8772
    11.9347  12.0874  12.2101  12.2266  12.5041  12.5248  12.6308  12.7196
    12.9892  13.0498  13.2025  13.2262  13.4083  13.4237  13.5899  13.6215
    15.0226  15.2121  15.2456  15.4195  15.4450  15.7349  16.0025  16.0087
    16.2146  16.4644  17.1060  17.1887  17.2364

          k = 0.1667 0.3150 0.3333 ( 62265 PWs)   bands (ev):

   -66.1745 -66.1743 -66.1740 -66.1738 -66.1736 -66.1734 -66.1731 -66.1729
   -30.6130 -30.6103 -30.5970 -30.5924 -30.5515 -30.5461 -30.5337 -30.5303
   -30.4775 -30.4740 -30.4651 -30.4633 -30.4572 -30.4549 -30.4541 -30.4503
   -30.4322 -30.4314 -30.4298 -30.4284 -30.4129 -30.4078 -30.3965 -30.3936
   -20.3425 -20.3425 -20.3424 -20.3423 -20.3422 -20.3421 -20.3420 -20.3419
   -20.3275 -20.3274 -20.3273 -20.3273 -20.3269 -20.3269 -20.3268 -20.3268
   -20.3200 -20.3199 -20.3193 -20.3191 -20.3174 -20.3173 -20.3167 -20.3166
   -20.3112 -20.3110 -20.3108 -20.3107 -20.3101 -20.3100 -20.3094 -20.3094
   -20.3087 -20.3086 -20.3085 -20.3083 -20.3072 -20.3067 -20.3062 -20.3060
   -20.3013 -20.3008 -20.3003 -20.2996 -20.2978 -20.2972 -20.2969 -20.2965
   -20.2932 -20.2930 -20.2930 -20.2927 -20.2917 -20.2913 -20.2909 -20.2907
    -9.6432  -9.5044  -9.4400  -9.1908  -9.1601  -8.9047  -8.8471  -8.7858
    -8.6296  -8.5011  -8.4526  -8.4330  -8.3622  -8.2872  -8.1465  -8.1211
    -8.0466  -7.9891  -7.9728  -7.9442  -7.9252  -7.9029  -7.8190  -7.7504
     1.5273   1.5381   1.7063   1.7272   2.1570   2.3128   2.3238   2.4718
     2.5877   2.6458   2.6923   2.7668   2.7924   2.8820   3.0820   3.1959
     3.3665   3.3970   3.6524   3.7314   3.7831   3.8165   3.9042   3.9770
     4.1130   4.3123   4.3516   4.4199   4.5610   4.5859   4.6186   4.6958
     4.8147   4.8727   4.9392   4.9835   5.0444   5.1251   5.1676   5.2433
     5.3943   5.4280   5.4975   5.6839   5.7103   5.8205   5.8819   5.9040
     6.5177   6.5751   6.6135   6.6874   6.7940   6.8619   6.9208   6.9537
     6.9912   7.0346   7.0569   7.0918   7.1283   7.1708   7.2385   7.2659
     7.4020   7.4518   7.6250   7.6544   7.7854   7.7928   7.8508   7.8611
    10.6523  10.7141  10.8894  10.9648  11.2703  11.3959  11.7997  11.9005
    12.0052  12.1076  12.1605  12.2341  12.4106  12.5185  12.5440  12.6550
    12.7790  12.8767  12.9952  13.1325  13.2220  13.3074  13.4958  13.5349
    15.1564  15.2242  15.4999  15.6929  15.8013  15.9508  16.0325  16.3581
    16.5973  16.7100  16.7886  17.3081  17.5154

          k = 0.1667 0.3150-0.5000 ( 62264 PWs)   bands (ev):

   -66.1743 -66.1742 -66.1740 -66.1740 -66.1734 -66.1734 -66.1732 -66.1732
   -30.6116 -30.6116 -30.5741 -30.5741 -30.5692 -30.5692 -30.5319 -30.5319
   -30.4758 -30.4758 -30.4596 -30.4596 -30.4570 -30.4570 -30.4393 -30.4393
   -30.4366 -30.4366 -30.4278 -30.4278 -30.4240 -30.4240 -30.3951 -30.3951
   -20.3425 -20.3424 -20.3424 -20.3424 -20.3421 -20.3421 -20.3420 -20.3420
   -20.3275 -20.3275 -20.3271 -20.3271 -20.3271 -20.3271 -20.3268 -20.3268
   -20.3199 -20.3199 -20.3183 -20.3183 -20.3182 -20.3181 -20.3167 -20.3167
   -20.3111 -20.3111 -20.3108 -20.3108 -20.3100 -20.3100 -20.3090 -20.3090
   -20.3087 -20.3087 -20.3081 -20.3081 -20.3077 -20.3077 -20.3061 -20.3061
   -20.3011 -20.3011 -20.2990 -20.2990 -20.2983 -20.2983 -20.2967 -20.2967
   -20.2931 -20.2931 -20.2924 -20.2924 -20.2921 -20.2921 -20.2908 -20.2908
    -9.5245  -9.5244  -9.3200  -9.3200  -8.8518  -8.8518  -8.6764  -8.6763
    -8.6020  -8.6019  -8.5553  -8.5553  -8.3886  -8.3886  -8.3269  -8.3268
    -8.0402  -8.0402  -7.9585  -7.9585  -7.9264  -7.9264  -7.7843  -7.7843
     1.5373   1.5373   1.7324   1.7324   2.5482   2.5482   2.6723   2.6723
     2.9697   2.9697   3.0171   3.0171   3.0753   3.0754   3.2392   3.2392
     3.2919   3.2919   3.4098   3.4098   3.6090   3.6091   3.7814   3.7814
     4.0216   4.0216   4.1404   4.1404   4.3078   4.3079   4.4578   4.4578
     4.8298   4.8298   4.9006   4.9006   5.0913   5.0913   5.1541   5.1542
     5.1805   5.1805   5.5734   5.5734   5.7384   5.7384   5.8310   5.8310
     6.5900   6.5900   6.7347   6.7347   6.7845   6.7845   6.8882   6.8882
     7.0717   7.0717   7.1156   7.1156   7.1997   7.1998   7.4398   7.4398
     7.4723   7.4723   7.6470   7.6470   7.6782   7.6782   7.8513   7.8513
    10.8417  10.8417  11.3263  11.3263  11.4858  11.4858  11.7201  11.7201
    11.9980  11.9980  12.1352  12.1352  12.4728  12.4728  12.5395  12.5395
    12.7654  12.7654  12.8841  12.8841  13.1925  13.1925  13.4743  13.4743
    15.1997  15.1997  15.7165  15.7165  16.1151  16.1151  16.2771  16.2771
    16.7464  16.7464  17.3345  17.3345  17.6036

          k = 0.1667-0.4725 0.1667 ( 62220 PWs)   bands (ev):

   -66.1746 -66.1746 -66.1738 -66.1737 -66.1737 -66.1737 -66.1729 -66.1728
   -30.6139 -30.6139 -30.6093 -30.6093 -30.5354 -30.5354 -30.5292 -30.5292
   -30.4785 -30.4785 -30.4717 -30.4717 -30.4469 -30.4469 -30.4458 -30.4458
   -30.4407 -30.4406 -30.4400 -30.4399 -30.3975 -30.3974 -30.3925 -30.3925
   -20.3426 -20.3426 -20.3423 -20.3423 -20.3421 -20.3421 -20.3419 -20.3419
   -20.3275 -20.3274 -20.3274 -20.3274 -20.3268 -20.3268 -20.3267 -20.3267
   -20.3201 -20.3200 -20.3198 -20.3198 -20.3168 -20.3168 -20.3166 -20.3166
   -20.3103 -20.3103 -20.3101 -20.3101 -20.3098 -20.3098 -20.3097 -20.3097
   -20.3095 -20.3095 -20.3094 -20.3094 -20.3064 -20.3064 -20.3059 -20.3059
   -20.3014 -20.3014 -20.3006 -20.3006 -20.2970 -20.2970 -20.2964 -20.2964
   -20.2933 -20.2933 -20.2930 -20.2930 -20.2911 -20.2910 -20.2907 -20.2906
    -9.7054  -9.7054  -9.3754  -9.3754  -9.1214  -9.1214  -8.9306  -8.9306
    -8.3144  -8.3143  -8.2559  -8.2559  -8.2448  -8.2448  -8.2330  -8.2330
    -8.0682  -8.0682  -7.9492  -7.9492  -7.8493  -7.8492  -7.7278  -7.7277
     1.4769   1.4769   1.5224   1.5224   1.7025   1.7025   1.9380   1.9380
     2.5354   2.5354   3.0455   3.0455   3.1744   3.1744   3.3963   3.3963
     3.4429   3.4429   3.5820   3.5820   3.6923   3.6923   3.8729   3.8729
     3.9468   3.9468   4.3529   4.3529   4.4343   4.4343   5.0440   5.0440
     5.1331   5.1331   5.2520   5.2520   5.3236   5.3236   5.4848   5.4848
     5.5478   5.5478   5.6780   5.6780   5.7383   5.7383   5.9593   5.9593
     6.4843   6.4843   6.5504   6.5504   6.7405   6.7405   6.8004   6.8004
     7.0179   7.0179   7.0638   7.0638   7.1764   7.1764   7.4188   7.4189
     7.5216   7.5216   7.5843   7.5843   7.6522   7.6522   7.7204   7.7204
    10.2076  10.2076  11.2455  11.2455  11.3240  11.3240  11.5088  11.5088
    11.6237  11.6237  12.2136  12.2136  12.5241  12.5241  12.6804  12.6804
    13.1353  13.1353  13.2078  13.2078  13.2356  13.2356  13.5329  13.5329
    15.3533  15.3533  15.5681  15.5681  15.7714  15.7714  15.8905  15.8905
    16.4198  16.4199  17.5144  17.5145  17.7110

          k = 0.1667-0.4725 0.3333 ( 62252 PWs)   bands (ev):

   -66.1744 -66.1744 -66.1739 -66.1739 -66.1736 -66.1735 -66.1730 -66.1730
   -30.6129 -30.6103 -30.5970 -30.5923 -30.5515 -30.5460 -30.5336 -30.5302
   -30.4773 -30.4734 -30.4636 -30.4592 -30.4471 -30.4457 -30.4447 -30.4440
   -30.4424 -30.4420 -30.4414 -30.4373 -30.4133 -30.4080 -30.3965 -30.3937
   -20.3425 -20.3425 -20.3424 -20.3423 -20.3422 -20.3421 -20.3420 -20.3419
   -20.3275 -20.3274 -20.3273 -20.3273 -20.3269 -20.3269 -20.3268 -20.3268
   -20.3200 -20.3199 -20.3193 -20.3191 -20.3174 -20.3172 -20.3167 -20.3167
   -20.3103 -20.3102 -20.3102 -20.3100 -20.3098 -20.3098 -20.3097 -20.3096
   -20.3096 -20.3094 -20.3091 -20.3088 -20.3072 -20.3068 -20.3063 -20.3060
   -20.3013 -20.3008 -20.3003 -20.2996 -20.2978 -20.2972 -20.2969 -20.2965
   -20.2932 -20.2930 -20.2930 -20.2927 -20.2917 -20.2913 -20.2909 -20.2907
    -9.6057  -9.5284  -9.4223  -9.1906  -9.1373  -8.8979  -8.8475  -8.7819
    -8.4589  -8.3823  -8.3703  -8.3069  -8.2587  -8.2412  -8.2340  -8.2257
    -8.1856  -8.1305  -8.0854  -8.0483  -7.9881  -7.9579  -7.8221  -7.7520
     1.5278   1.5387   1.7068   1.7277   2.1666   2.3290   2.3577   2.4940
     2.7998   2.8016   3.0529   3.0657   3.2279   3.2549   3.3428   3.3929
     3.4214   3.4391   3.5808   3.6190   3.7100   3.8045   3.8120   3.8604
     3.8983   3.9450   3.9702   4.0219   4.3881   4.3968   4.6042   4.6808
     4.7362   4.7913   4.8955   4.9212   5.0157   5.0537   5.1143   5.2131
     5.2657   5.3566   5.3762   5.5236   5.6979   5.7194   5.8727   5.8971
     6.5505   6.6093   6.6197   6.7066   6.8035   6.9337   6.9504   6.9861
     7.0295   7.0766   7.1227   7.1719   7.2386   7.2556   7.4056   7.4540
     7.5175   7.5541   7.5621   7.6048   7.6480   7.6558   7.6898   7.7049
    10.6935  10.7710  11.2522  11.3228  11.4803  11.5365  11.6320  11.7214
    11.8308  11.8870  11.9426  12.1401  12.3971  12.5667  12.6192  12.6623
    12.7513  12.8470  12.9496  13.0179  13.2183  13.2476  13.3999  13.4350
    15.3779  15.5446  15.6255  15.8200  16.0938  16.2869  16.3107  16.4533
    16.5912  16.6068  17.2324  17.3302  17.4473

          k = 0.1667-0.4725-0.5000 ( 62232 PWs)   bands (ev):

   -66.1742 -66.1742 -66.1741 -66.1741 -66.1733 -66.1733 -66.1733 -66.1733
   -30.6116 -30.6116 -30.5741 -30.5741 -30.5692 -30.5692 -30.5318 -30.5318
   -30.4755 -30.4755 -30.4501 -30.4501 -30.4481 -30.4481 -30.4440 -30.4440
   -30.4432 -30.4432 -30.4324 -30.4324 -30.4270 -30.4270 -30.3951 -30.3951
   -20.3425 -20.3424 -20.3424 -20.3424 -20.3421 -20.3421 -20.3420 -20.3420
   -20.3275 -20.3275 -20.3271 -20.3271 -20.3271 -20.3271 -20.3268 -20.3268
   -20.3199 -20.3199 -20.3183 -20.3183 -20.3181 -20.3181 -20.3167 -20.3167
   -20.3102 -20.3102 -20.3100 -20.3100 -20.3098 -20.3098 -20.3097 -20.3097
   -20.3095 -20.3095 -20.3082 -20.3082 -20.3079 -20.3079 -20.3061 -20.3061
   -20.3011 -20.3011 -20.2990 -20.2990 -20.2983 -20.2983 -20.2967 -20.2967
   -20.2931 -20.2931 -20.2924 -20.2924 -20.2921 -20.2920 -20.2908 -20.2908
    -9.5012  -9.5012  -9.3270  -9.3270  -8.8014  -8.8014  -8.6593  -8.6593
    -8.5973  -8.5973  -8.5187  -8.5187  -8.2513  -8.2512  -8.2206  -8.2206
    -8.1909  -8.1909  -8.1484  -8.1483  -8.0022  -8.0022  -7.7864  -7.7864
     1.5379   1.5379   1.7333   1.7333   2.8811   2.8812   2.9867   2.9867
     3.0528   3.0528   3.1393   3.1394   3.2211   3.2211   3.2981   3.2981
     3.3787   3.3787   3.4709   3.4709   3.5284   3.5284   3.6684   3.6684
     3.7596   3.7596   3.9532   3.9532   4.3664   4.3664   4.4383   4.4383
     4.5101   4.5102   4.5903   4.5903   4.9172   4.9172   5.0553   5.0553
     5.2539   5.2539   5.4481   5.4482   5.7343   5.7343   5.7647   5.7647
     6.6144   6.6144   6.7690   6.7690   6.7913   6.7913   6.9302   6.9302
     7.2207   7.2207   7.2612   7.2612   7.3552   7.3552   7.4157   7.4158
     7.5029   7.5029   7.6003   7.6003   7.6396   7.6396   7.6648   7.6648
    11.1716  11.1716  11.3669  11.3669  11.4585  11.4585  11.6454  11.6454
    12.0792  12.0792  12.1784  12.1784  12.3134  12.3134  12.3678  12.3678
    12.6965  12.6965  12.8441  12.8441  13.2651  13.2651  13.3088  13.3088
    15.4642  15.4642  15.7479  15.7479  16.7635  16.7635  16.8409  16.8410
    16.9713  16.9714  17.0426  17.0427  17.1309

          k = 0.3333 0.0000 0.3333 ( 62316 PWs)   bands (ev):

   -66.1744 -66.1740 -66.1739 -66.1739 -66.1735 -66.1735 -66.1734 -66.1730
   -30.5970 -30.5952 -30.5935 -30.5933 -30.5506 -30.5503 -30.5487 -30.5457
   -30.4759 -30.4735 -30.4727 -30.4684 -30.4603 -30.4566 -30.4556 -30.4532
   -30.4214 -30.4192 -30.4183 -30.4178 -30.4124 -30.4092 -30.4082 -30.4067
   -20.3425 -20.3424 -20.3423 -20.3423 -20.3422 -20.3422 -20.3421 -20.3420
   -20.3274 -20.3273 -20.3273 -20.3272 -20.3270 -20.3269 -20.3269 -20.3268
   -20.3196 -20.3192 -20.3192 -20.3189 -20.3177 -20.3173 -20.3173 -20.3169
   -20.3122 -20.3121 -20.3120 -20.3118 -20.3098 -20.3095 -20.3093 -20.3090
   -20.3081 -20.3077 -20.3075 -20.3073 -20.3070 -20.3066 -20.3066 -20.3063
   -20.3003 -20.3001 -20.2998 -20.2998 -20.2976 -20.2976 -20.2974 -20.2972
   -20.2930 -20.2928 -20.2927 -20.2927 -20.2916 -20.2916 -20.2915 -20.2912
    -9.5656  -9.3091  -9.3000  -9.2878  -8.9946  -8.9679  -8.9281  -8.7470
    -8.7266  -8.5998  -8.5897  -8.5771  -8.3865  -8.3257  -8.3138  -8.2709
    -8.1120  -8.0987  -8.0473  -8.0154  -7.6796  -7.6493  -7.6485  -7.6196
     1.8084   1.8396   1.8438   1.8811   2.1421   2.1563   2.2211   2.2344
     2.3784   2.3817   2.5270   2.6294   2.9563   3.0222   3.0794   3.1092
     3.1925   3.2323   3.6739   3.7788   3.9436   3.9806   3.9985   4.1087
     4.1586   4.2154   4.2894   4.3815   4.4260   4.4265   4.5595   4.5652
     4.6724   4.8044   4.9713   4.9950   5.0557   5.0787   5.1698   5.3565
     5.3671   5.4653   5.5405   5.7145   6.0388   6.0408   6.0651   6.1574
     6.4652   6.5395   6.5552   6.5943   6.6154   6.6537   6.6837   6.6982
     7.0179   7.0372   7.1107   7.1449   7.1844   7.2440   7.3126   7.3382
     7.3975   7.4837   7.6110   7.6155   7.8700   7.8938   7.9933   8.0319
    10.7211  10.7996  10.9373  10.9631  11.2120  11.3707  12.0035  12.0136
    12.0653  12.1043  12.2210  12.2607  12.4882  12.5111  12.6846  12.7874
    12.7979  12.8913  12.9453  13.0810  13.3482  13.4316  13.4615  13.5740
    14.3797  14.5932  14.5979  14.9635  15.7887  16.0842  16.2171  16.4947
    16.7494  16.8420  17.0796  17.4577  17.5527

          k = 0.3333 0.0000-0.5000 ( 62288 PWs)   bands (ev):

   -66.1742 -66.1742 -66.1738 -66.1738 -66.1737 -66.1737 -66.1733 -66.1733
   -30.5948 -30.5948 -30.5731 -30.5731 -30.5703 -30.5703 -30.5487 -30.5487
   -30.4744 -30.4744 -30.4704 -30.4704 -30.4568 -30.4568 -30.4372 -30.4372
   -30.4342 -30.4342 -30.4176 -30.4176 -30.4160 -30.4160 -30.4087 -30.4087
   -20.3424 -20.3424 -20.3423 -20.3423 -20.3422 -20.3422 -20.3421 -20.3421
   -20.3274 -20.3274 -20.3272 -20.3272 -20.3271 -20.3270 -20.3269 -20.3269
   -20.3193 -20.3193 -20.3184 -20.3184 -20.3182 -20.3181 -20.3172 -20.3172
   -20.3121 -20.3121 -20.3119 -20.3119 -20.3095 -20.3095 -20.3086 -20.3086
   -20.3083 -20.3083 -20.3074 -20.3073 -20.3071 -20.3071 -20.3065 -20.3065
   -20.3000 -20.3000 -20.2988 -20.2988 -20.2985 -20.2985 -20.2975 -20.2975
   -20.2928 -20.2928 -20.2923 -20.2923 -20.2921 -20.2921 -20.2914 -20.2914
    -9.4050  -9.4050  -9.1140  -9.1140  -9.0655  -9.0655  -8.6999  -8.6999
    -8.6271  -8.6271  -8.5749  -8.5749  -8.4554  -8.4554  -8.3930  -8.3930
    -8.2524  -8.2524  -8.0685  -8.0685  -7.6648  -7.6648  -7.6348  -7.6347
     1.8264   1.8264   1.8674   1.8674   2.2311   2.2311   2.3777   2.3777
     2.9269   2.9269   3.0269   3.0269   3.0889   3.0889   3.2210   3.2210
     3.2987   3.2987   3.5364   3.5364   3.7069   3.7069   3.8556   3.8556
     3.9123   3.9123   4.1219   4.1219   4.2560   4.2561   4.3867   4.3867
     4.6537   4.6537   4.8886   4.8886   5.0177   5.0177   5.1044   5.1044
     5.2969   5.2969   5.5871   5.5871   6.0714   6.0714   6.1514   6.1514
     6.4737   6.4737   6.5527   6.5527   6.5744   6.5744   6.6674   6.6674
     7.1349   7.1349   7.1957   7.1957   7.3127   7.3127   7.4673   7.4673
     7.4886   7.4886   7.7007   7.7008   7.7289   7.7289   7.9841   7.9842
    10.8626  10.8626  11.4605  11.4605  11.5382  11.5382  11.7069  11.7069
    11.9585  11.9585  12.1430  12.1430  12.4741  12.4741  12.7135  12.7135
    12.7888  12.7888  13.1074  13.1074  13.1447  13.1447  13.4738  13.4738
    14.5083  14.5083  14.8067  14.8067  16.2037  16.2037  16.5831  16.5831
    16.8521  16.8521  17.4047  17.4047  17.8626

          k = 0.3333 0.1575 0.3333 ( 62283 PWs)   bands (ev):

   -66.1744 -66.1740 -66.1739 -66.1739 -66.1735 -66.1735 -66.1734 -66.1730
   -30.5969 -30.5953 -30.5934 -30.5933 -30.5505 -30.5502 -30.5485 -30.5459
   -30.4729 -30.4707 -30.4698 -30.4651 -30.4602 -30.4561 -30.4554 -30.4527
   -30.4238 -30.4219 -30.4213 -30.4213 -30.4126 -30.4101 -30.4086 -30.4077
   -20.3425 -20.3424 -20.3423 -20.3423 -20.3422 -20.3422 -20.3421 -20.3420
   -20.3274 -20.3273 -20.3273 -20.3272 -20.3270 -20.3269 -20.3269 -20.3268
   -20.3196 -20.3192 -20.3192 -20.3189 -20.3177 -20.3173 -20.3173 -20.3169
   -20.3119 -20.3118 -20.3117 -20.3115 -20.3097 -20.3095 -20.3093 -20.3091
   -20.3082 -20.3079 -20.3077 -20.3077 -20.3070 -20.3068 -20.3067 -20.3065
   -20.3003 -20.3001 -20.2998 -20.2998 -20.2976 -20.2976 -20.2974 -20.2972
   -20.2930 -20.2928 -20.2927 -20.2927 -20.2916 -20.2916 -20.2915 -20.2912
    -9.5389  -9.3178  -9.2748  -9.2608  -8.9935  -8.9679  -8.8687  -8.7370
    -8.7265  -8.5682  -8.5577  -8.5459  -8.3916  -8.3235  -8.3155  -8.2660
    -8.1127  -8.1002  -8.0495  -8.0156  -7.7620  -7.7335  -7.7323  -7.7045
     1.9747   2.0114   2.0129   2.0826   2.1447   2.1737   2.2351   2.2613
     2.3892   2.3939   2.5286   2.6423   3.0141   3.0464   3.1234   3.1610
     3.2411   3.2738   3.6675   3.7690   3.9500   3.9686   3.9909   4.1021
     4.1750   4.2253   4.2756   4.3323   4.3992   4.4425   4.5375   4.5451
     4.6451   4.7824   4.8609   4.9007   4.9138   4.9650   5.0015   5.2564
     5.3052   5.3641   5.3653   5.5910   5.7879   5.8945   5.9150   5.9744
[...]
   -20.0696 -20.0696 -20.0694 -20.0693 -20.0673 -20.0673 -20.0670 -20.0670
   -20.0662 -20.0661 -20.0652 -20.0652 -20.0650 -20.0650 -20.0639 -20.0639
   -20.0572 -20.0571 -20.0560 -20.0559 -20.0557 -20.0557 -20.0546 -20.0546
   -20.0495 -20.0495 -20.0491 -20.0491 -20.0489 -20.0489 -20.0483 -20.0483
    -9.1330  -9.1330  -8.9095  -8.9095  -8.8116  -8.8116  -8.4986  -8.4985
    -8.4238  -8.4238  -8.3309  -8.3309  -8.2393  -8.2393  -8.1722  -8.1722
    -8.0130  -8.0130  -7.9162  -7.9162  -7.8884  -7.8884  -7.7998  -7.7998
     2.3808   2.3808   2.5280   2.5280   2.5897   2.5897   2.7131   2.7131
     3.1823   3.1824   3.2715   3.2715   3.3338   3.3338   3.4701   3.4701
     3.5697   3.5697   3.7720   3.7720   3.9231   3.9231   4.0250   4.0250
     4.1072   4.1072   4.2903   4.2903   4.3303   4.3303   4.4702   4.4702
     4.5771   4.5771   4.7396   4.7396   4.8381   4.8381   5.0685   5.0685
     5.1318   5.1318   5.2172   5.2172   5.3100   5.3100   5.5497   5.5497
     6.9578   6.9578   7.0975   7.0975   7.1324   7.1324   7.2283   7.2283
     7.3732   7.3732   7.4334   7.4335   7.5274   7.5274   7.6787   7.6788
     7.7061   7.7062   7.7995   7.7996   7.8308   7.8308   7.9752   7.9752
    11.4530  11.4530  11.7849  11.7849  11.9377  11.9378  12.0211  12.0211
    12.2957  12.2957  12.4844  12.4844  12.5883  12.5883  12.6926  12.6926
    12.9233  12.9233  13.0493  13.0493  13.1132  13.1132  13.4617  13.4617
    16.0645  16.0645  16.4782  16.4782  16.6894  16.6894  16.8933  16.8933
    17.1183  17.1183  17.5834  17.5834  17.8720

          k = 0.3326-0.4803 0.3326 ( 61540 PWs)   bands (ev):

   -65.9423 -65.9423 -65.9418 -65.9418 -65.9418 -65.9417 -65.9413 -65.9413
   -30.3660 -30.3660 -30.3632 -30.3631 -30.3291 -30.3291 -30.3262 -30.3262
   -30.2740 -30.2740 -30.2725 -30.2724 -30.2634 -30.2633 -30.2611 -30.2611
   -30.2231 -30.2231 -30.2190 -30.2190 -30.1788 -30.1788 -30.1759 -30.1758
   -20.1011 -20.1011 -20.1010 -20.1010 -20.1008 -20.1008 -20.1007 -20.1007
   -20.0862 -20.0862 -20.0861 -20.0861 -20.0857 -20.0857 -20.0857 -20.0857
   -20.0764 -20.0764 -20.0762 -20.0762 -20.0748 -20.0748 -20.0747 -20.0747
   -20.0685 -20.0685 -20.0683 -20.0683 -20.0682 -20.0682 -20.0681 -20.0680
   -20.0663 -20.0663 -20.0662 -20.0662 -20.0641 -20.0641 -20.0639 -20.0638
   -20.0573 -20.0573 -20.0570 -20.0570 -20.0547 -20.0547 -20.0545 -20.0545
   -20.0496 -20.0496 -20.0494 -20.0494 -20.0485 -20.0485 -20.0483 -20.0483
    -9.1795  -9.1795  -8.9650  -8.9650  -8.7749  -8.7749  -8.4887  -8.4887
    -8.4057  -8.4056  -8.2398  -8.2397  -8.1987  -8.1987  -8.1918  -8.1917
    -8.0570  -8.0570  -7.9982  -7.9981  -7.8479  -7.8479  -7.7784  -7.7784
     2.3712   2.3712   2.4168   2.4168   2.5822   2.5822   2.7374   2.7374
     3.1724   3.1724   3.2470   3.2470   3.3896   3.3896   3.4459   3.4459
     3.4867   3.4867   3.8144   3.8144   3.9486   3.9486   3.9904   3.9904
     4.0318   4.0318   4.2454   4.2454   4.3712   4.3712   4.5551   4.5551
     4.7538   4.7538   4.8165   4.8165   4.9219   4.9219   5.0050   5.0050
     5.1226   5.1226   5.1686   5.1686   5.2324   5.2324   5.6124   5.6124
     6.9958   6.9958   7.1390   7.1390   7.2522   7.2523   7.2987   7.2987
     7.3880   7.3880   7.4197   7.4197   7.4788   7.4788   7.6127   7.6127
     7.6791   7.6791   7.7511   7.7511   7.8175   7.8175   7.8853   7.8853
    11.3034  11.3034  11.8383  11.8383  11.9116  11.9116  12.1152  12.1152
    12.1997  12.1997  12.3663  12.3663  12.5227  12.5227  12.7711  12.7711
    12.9538  12.9538  13.0918  13.0918  13.1541  13.1541  13.4192  13.4192
    16.1938  16.1938  16.4963  16.4963  16.6819  16.6819  16.8063  16.8063
    17.1912  17.1912  17.7183  17.7185  17.8024

          k = 0.3326-0.4803-0.4989 ( 61504 PWs)   bands (ev):

   -65.9420 -65.9420 -65.9420 -65.9420 -65.9415 -65.9415 -65.9415 -65.9415
   -30.3645 -30.3645 -30.3465 -30.3465 -30.3437 -30.3437 -30.3276 -30.3276
   -30.2734 -30.2734 -30.2695 -30.2695 -30.2678 -30.2678 -30.2622 -30.2622
   -30.2213 -30.2213 -30.2009 -30.2009 -30.1976 -30.1976 -30.1774 -30.1774
   -20.1010 -20.1010 -20.1010 -20.1010 -20.1008 -20.1008 -20.1008 -20.1007
   -20.0862 -20.0862 -20.0859 -20.0859 -20.0859 -20.0859 -20.0857 -20.0857
   -20.0763 -20.0763 -20.0756 -20.0755 -20.0754 -20.0754 -20.0747 -20.0747
   -20.0684 -20.0684 -20.0684 -20.0684 -20.0682 -20.0682 -20.0682 -20.0681
   -20.0663 -20.0663 -20.0653 -20.0653 -20.0650 -20.0650 -20.0640 -20.0640
   -20.0571 -20.0571 -20.0560 -20.0560 -20.0557 -20.0557 -20.0546 -20.0546
   -20.0495 -20.0495 -20.0491 -20.0491 -20.0489 -20.0489 -20.0484 -20.0484
    -9.0547  -9.0547  -8.9426  -8.9426  -8.6594  -8.6594  -8.5490  -8.5490
    -8.3496  -8.3496  -8.2970  -8.2970  -8.1925  -8.1925  -8.1683  -8.1683
    -8.1178  -8.1178  -8.0559  -8.0558  -7.9986  -7.9985  -7.8136  -7.8136
     2.4231   2.4231   2.5891   2.5891   3.0595   3.0595   3.1596   3.1596
     3.2679   3.2680   3.3281   3.3281   3.3496   3.3497   3.4382   3.4382
     3.6268   3.6268   3.6516   3.6516   3.7833   3.7833   3.9715   3.9715
     4.0380   4.0380   4.1592   4.1592   4.3514   4.3514   4.4761   4.4761
     4.6047   4.6047   4.6170   4.6170   4.7171   4.7171   4.7842   4.7842
     4.8978   4.8978   5.0638   5.0639   5.2404   5.2405   5.2770   5.2770
     7.0564   7.0564   7.2436   7.2436   7.2967   7.2967   7.3406   7.3406
     7.4396   7.4396   7.4805   7.4805   7.5964   7.5964   7.6249   7.6249
     7.6995   7.6995   7.7493   7.7493   7.7909   7.7909   7.8547   7.8547
    11.6894  11.6894  11.8135  11.8135  12.0177  12.0177  12.1507  12.1507
    12.3336  12.3336  12.4668  12.4668  12.5412  12.5412  12.6124  12.6124
    12.7378  12.7378  12.8411  12.8411  13.1597  13.1597  13.2326  13.2326
    16.4064  16.4065  16.6216  16.6216  17.1525  17.1526  17.2716  17.2717
    17.4238  17.4239  17.5057  17.5061  17.6021

          k =-0.4989 0.0000-0.4989 ( 61532 PWs)   bands (ev):

   -65.9421 -65.9420 -65.9420 -65.9420 -65.9415 -65.9415 -65.9415 -65.9415
   -30.3555 -30.3555 -30.3548 -30.3548 -30.3399 -30.3399 -30.3393 -30.3393
   -30.2932 -30.2932 -30.2927 -30.2927 -30.2403 -30.2403 -30.2394 -30.2394
   -30.2003 -30.2003 -30.1995 -30.1995 -30.1988 -30.1988 -30.1983 -30.1983
   -20.1010 -20.1010 -20.1010 -20.1010 -20.1009 -20.1009 -20.1008 -20.1008
   -20.0861 -20.0861 -20.0860 -20.0860 -20.0858 -20.0858 -20.0858 -20.0858
   -20.0763 -20.0763 -20.0763 -20.0763 -20.0749 -20.0749 -20.0748 -20.0748
   -20.0707 -20.0707 -20.0706 -20.0706 -20.0666 -20.0666 -20.0662 -20.0662
   -20.0652 -20.0652 -20.0649 -20.0649 -20.0647 -20.0647 -20.0645 -20.0645
   -20.0560 -20.0560 -20.0559 -20.0559 -20.0557 -20.0557 -20.0556 -20.0556
   -20.0492 -20.0492 -20.0491 -20.0491 -20.0488 -20.0488 -20.0488 -20.0488
    -9.1541  -9.1541  -9.1402  -9.1402  -8.6438  -8.6438  -8.5778  -8.5778
    -8.4545  -8.4545  -8.3778  -8.3778  -8.1934  -8.1933  -8.1619  -8.1619
    -8.1189  -8.1189  -8.0748  -8.0748  -7.5598  -7.5597  -7.5588  -7.5588
     1.7578   1.7578   1.7668   1.7668   3.0573   3.0573   3.0841   3.0841
     3.2266   3.2266   3.2309   3.2309   3.3692   3.3692   3.4450   3.4450
     3.5806   3.5806   3.5926   3.5926   3.7891   3.7891   3.9186   3.9186
     3.9200   3.9201   4.1262   4.1262   4.3901   4.3901   4.4652   4.4652
     4.4760   4.4760   4.6049   4.6049   5.1668   5.1668   5.2120   5.2121
     5.5708   5.5709   5.6274   5.6274   6.2617   6.2617   6.2670   6.2670
     6.5686   6.5686   6.6164   6.6164   6.6345   6.6345   6.6369   6.6369
     7.5643   7.5643   7.5734   7.5734   7.5803   7.5803   7.6854   7.6854
     7.7643   7.7643   7.8302   7.8302   7.8735   7.8736   8.0483   8.0483
    11.5814  11.5814  11.6915  11.6915  11.8050  11.8050  11.9010  11.9010
    12.2871  12.2871  12.3337  12.3337  12.4855  12.4855  12.5261  12.5261
    13.2927  13.2927  13.4045  13.4045  13.5050  13.5050  13.6079  13.6079
    15.2483  15.2483  15.2508  15.2508  16.8337  16.8337  17.0810  17.0810
    17.5062  17.5062  17.5444  17.5444  17.7024

          k =-0.4989 0.1601-0.4989 ( 61568 PWs)   bands (ev):

   -65.9420 -65.9420 -65.9420 -65.9420 -65.9416 -65.9415 -65.9415 -65.9415
   -30.3538 -30.3538 -30.3531 -30.3531 -30.3405 -30.3405 -30.3398 -30.3398
   -30.2904 -30.2904 -30.2898 -30.2898 -30.2443 -30.2443 -30.2434 -30.2434
   -30.2002 -30.2002 -30.1995 -30.1995 -30.1989 -30.1989 -30.1984 -30.1984
   -20.1010 -20.1010 -20.1010 -20.1009 -20.1009 -20.1009 -20.1008 -20.1008
   -20.0861 -20.0861 -20.0860 -20.0860 -20.0858 -20.0858 -20.0858 -20.0858
   -20.0762 -20.0762 -20.0762 -20.0762 -20.0749 -20.0749 -20.0749 -20.0749
   -20.0704 -20.0704 -20.0703 -20.0703 -20.0667 -20.0667 -20.0663 -20.0663
   -20.0653 -20.0652 -20.0649 -20.0649 -20.0648 -20.0648 -20.0647 -20.0647
   -20.0560 -20.0560 -20.0559 -20.0559 -20.0557 -20.0557 -20.0557 -20.0557
   -20.0492 -20.0492 -20.0491 -20.0491 -20.0489 -20.0488 -20.0488 -20.0488
    -9.0955  -9.0955  -9.0792  -9.0792  -8.6550  -8.6550  -8.5911  -8.5911
    -8.4374  -8.4374  -8.3619  -8.3619  -8.1925  -8.1925  -8.1625  -8.1624
    -8.1205  -8.1205  -8.0746  -8.0746  -7.6565  -7.6565  -7.6547  -7.6547
     1.9792   1.9792   1.9883   1.9883   3.0708   3.0708   3.1030   3.1030
     3.2284   3.2284   3.2327   3.2327   3.3902   3.3902   3.4767   3.4767
     3.5762   3.5763   3.5880   3.5880   3.8371   3.8371   3.9606   3.9606
     3.9652   3.9653   4.1707   4.1707   4.3710   4.3710   4.4440   4.4440
     4.4751   4.4751   4.6040   4.6040   4.9477   4.9478   4.9879   4.9879
     5.3376   5.3377   5.3734   5.3734   5.9997   5.9997   5.9997   5.9997
     6.7209   6.7209   6.7888   6.7888   6.8267   6.8268   6.8654   6.8654
     7.5627   7.5627   7.5766   7.5767   7.5881   7.5881   7.6865   7.6865
     7.7633   7.7634   7.8136   7.8136   7.8731   7.8731   8.0149   8.0150
    11.6467  11.6467  11.7622  11.7622  11.8510  11.8510  11.9635  11.9635
    12.2886  12.2886  12.3286  12.3286  12.5026  12.5026  12.5376  12.5376
    13.1620  13.1620  13.2667  13.2667  13.3962  13.3962  13.4896  13.4896
    15.5953  15.5953  15.5960  15.5960  16.8927  16.8927  17.1182  17.1182
    17.4734  17.4734  17.5494  17.5494  17.7150

          k =-0.4989 0.3202-0.4989 ( 61552 PWs)   bands (ev):

   -65.9419 -65.9419 -65.9419 -65.9419 -65.9417 -65.9416 -65.9416 -65.9416
   -30.3497 -30.3497 -30.3490 -30.3490 -30.3422 -30.3422 -30.3416 -30.3416
   -30.2820 -30.2820 -30.2814 -30.2814 -30.2550 -30.2550 -30.2543 -30.2543
   -30.1999 -30.1999 -30.1995 -30.1995 -30.1991 -30.1991 -30.1989 -30.1989
   -20.1009 -20.1009 -20.1009 -20.1009 -20.1009 -20.1009 -20.1009 -20.1009
   -20.0860 -20.0860 -20.0860 -20.0860 -20.0859 -20.0859 -20.0858 -20.0858
   -20.0759 -20.0759 -20.0759 -20.0759 -20.0752 -20.0752 -20.0751 -20.0751
   -20.0695 -20.0695 -20.0695 -20.0695 -20.0673 -20.0673 -20.0670 -20.0670
   -20.0653 -20.0653 -20.0651 -20.0650 -20.0650 -20.0650 -20.0650 -20.0650
   -20.0559 -20.0559 -20.0559 -20.0559 -20.0557 -20.0557 -20.0557 -20.0557
   -20.0491 -20.0491 -20.0491 -20.0491 -20.0489 -20.0489 -20.0489 -20.0489
    -8.9477  -8.9477  -8.9216  -8.9216  -8.6945  -8.6945  -8.6390  -8.6390
    -8.3753  -8.3753  -8.3039  -8.3039  -8.1916  -8.1916  -8.1615  -8.1615
    -8.1319  -8.1319  -8.0720  -8.0720  -7.8902  -7.8902  -7.8804  -7.8804
     2.5571   2.5571   2.5649   2.5649   3.0972   3.0972   3.1368   3.1368
     3.2380   3.2380   3.2410   3.2410   3.4391   3.4391   3.5495   3.5495
     3.5535   3.5535   3.5722   3.5722   3.9575   3.9575   4.0135   4.0135
     4.1312   4.1312   4.1758   4.1758   4.3279   4.3279   4.3797   4.3797
     4.4644   4.4644   4.6021   4.6021   4.6282   4.6282   4.6674   4.6674
     4.9387   4.9387   4.9399   4.9399   5.3151   5.3151   5.3337   5.3337
     7.0217   7.0217   7.1195   7.1195   7.1534   7.1534   7.2428   7.2428
     7.5496   7.5496   7.5776   7.5776   7.5804   7.5804   7.6846   7.6847
     7.7496   7.7496   7.7702   7.7702   7.8364   7.8365   7.9217   7.9217
    11.8459  11.8459  11.9406  11.9406  12.0004  12.0004  12.1142  12.1142
    12.2952  12.2952  12.3215  12.3215  12.5689  12.5689  12.5886  12.5886
    12.8439  12.8439  12.9354  12.9354  13.1071  13.1071  13.1747  13.1747
    16.4426  16.4426  16.4483  16.4483  17.0611  17.0611  17.2054  17.2054
    17.3666  17.3666  17.5587  17.5587  17.7633

          k =-0.4989-0.4803-0.4989 ( 61560 PWs)   bands (ev):

   -65.9418 -65.9418 -65.9418 -65.9418 -65.9418 -65.9418 -65.9418 -65.9418
   -30.3462 -30.3462 -30.3447 -30.3447 -30.3447 -30.3447 -30.3447 -30.3446
   -30.2691 -30.2691 -30.2691 -30.2691 -30.2691 -30.2690 -30.2678 -30.2677
   -30.1995 -30.1995 -30.1994 -30.1993 -30.1993 -30.1993 -30.1993 -30.1992
   -20.1009 -20.1009 -20.1009 -20.1009 -20.1009 -20.1009 -20.1009 -20.1009
   -20.0860 -20.0859 -20.0859 -20.0859 -20.0859 -20.0859 -20.0859 -20.0859
   -20.0756 -20.0756 -20.0755 -20.0755 -20.0755 -20.0755 -20.0754 -20.0754
   -20.0684 -20.0684 -20.0684 -20.0683 -20.0683 -20.0683 -20.0682 -20.0682
   -20.0653 -20.0653 -20.0652 -20.0652 -20.0651 -20.0651 -20.0651 -20.0651
   -20.0559 -20.0558 -20.0558 -20.0558 -20.0558 -20.0558 -20.0558 -20.0558
   -20.0490 -20.0490 -20.0490 -20.0490 -20.0490 -20.0490 -20.0490 -20.0489
    -8.8149  -8.8148  -8.7638  -8.7638  -8.7476  -8.7476  -8.7476  -8.7476
    -8.2797  -8.2797  -8.2079  -8.2079  -8.2079  -8.2078  -8.1835  -8.1835
    -8.1141  -8.1140  -8.1140  -8.1140  -8.0569  -8.0569  -8.0343  -8.0342
     3.0673   3.0673   3.0673   3.0673   3.0781   3.0781   3.1063   3.1063
     3.3261   3.3261   3.4057   3.4057   3.4057   3.4057   3.4569   3.4570
     3.5356   3.5357   3.6789   3.6789   3.6789   3.6789   3.7302   3.7302
     4.2992   4.2992   4.3029   4.3029   4.3677   4.3677   4.3677   4.3677
     4.5675   4.5675   4.5675   4.5675   4.5763   4.5763   4.6700   4.6701
     4.7142   4.7142   4.7656   4.7656   4.7802   4.7802   4.7802   4.7802
     7.1676   7.1676   7.3079   7.3079   7.3080   7.3080   7.4667   7.4667
     7.5427   7.5427   7.5427   7.5427   7.5633   7.5633   7.6518   7.6518
     7.7337   7.7337   7.7695   7.7695   7.7695   7.7695   7.8476   7.8477
    12.0716  12.0716  12.0883  12.0883  12.0883  12.0883  12.1060  12.1060
    12.4028  12.4028  12.4400  12.4400  12.4400  12.4400  12.6651  12.6651
    12.7013  12.7013  12.8256  12.8256  12.8256  12.8256  12.8534  12.8534
    17.1579  17.1579  17.1579  17.1579  17.2058  17.2058  17.2652  17.2652
    17.5260  17.5260  17.5260  17.5260  17.5643

     the Fermi energy is     9.2267 ev

!    total energy              =   -6261.09645030 Ry
     Harris-Foulkes estimate   =   -6261.09645030 Ry
     estimated scf accuracy    <          5.1E-12 Ry

     The total energy is the sum of the following terms:

     one-electron contribution =   -4658.31041257 Ry
     hartree contribution      =    2568.72994641 Ry
     xc contribution           =    -965.64764175 Ry
     ewald contribution        =   -3205.86834239 Ry
     smearing contrib. (-TS)   =      -0.00000000 Ry

     convergence has been achieved in  15 iterations

     Forces acting on atoms (cartesian axes, Ry/au):

     atom    1 type  1   force =    -0.03242410   -0.01193311   -0.00507307
     atom    2 type  1   force =     0.00507307    0.01193311   -0.03242410
     atom    3 type  1   force =     0.03242410    0.01193311   -0.00507307
     atom    4 type  1   force =    -0.00507307   -0.01193311   -0.03242410
     atom    5 type  1   force =     0.03242410   -0.01193311    0.00507307
     atom    6 type  1   force =    -0.00507307    0.01193311    0.03242410
     atom    7 type  1   force =    -0.03242410    0.01193311    0.00507307
     atom    8 type  1   force =     0.00507307   -0.01193311    0.03242410
     atom    9 type  2   force =     0.00176320    0.00448332   -0.00223166
     atom   10 type  2   force =     0.00223166   -0.00448332    0.00176320
     atom   11 type  2   force =    -0.00176320   -0.00448332   -0.00223166
     atom   12 type  2   force =    -0.00223166    0.00448332    0.00176320
     atom   13 type  2   force =    -0.00176320    0.00448332    0.00223166
     atom   14 type  2   force =    -0.00223166   -0.00448332   -0.00176320
     atom   15 type  2   force =     0.00176320   -0.00448332    0.00223166
     atom   16 type  2   force =     0.00223166    0.00448332   -0.00176320
     atom   17 type  2   force =    -0.02164973    0.00208277   -0.00061646
     atom   18 type  2   force =    -0.00046425    0.00445183   -0.00368566
     atom   19 type  2   force =     0.02164973   -0.00208277   -0.00061646
     atom   20 type  2   force =     0.00046425   -0.00445183   -0.00368566
     atom   21 type  2   force =     0.02164973    0.00208277    0.00061646
     atom   22 type  2   force =     0.00046425    0.00445183    0.00368566
     atom   23 type  2   force =    -0.02164973   -0.00208277    0.00061646
     atom   24 type  2   force =    -0.00046425   -0.00445183    0.00368566
     atom   25 type  2   force =     0.00368566    0.00445183    0.00046425
     atom   26 type  2   force =     0.00061646   -0.00208277   -0.02164973
     atom   27 type  2   force =    -0.00368566   -0.00445183    0.00046425
     atom   28 type  2   force =    -0.00061646    0.00208277   -0.02164973
     atom   29 type  2   force =    -0.00368566    0.00445183   -0.00046425
     atom   30 type  2   force =    -0.00061646   -0.00208277    0.02164973
     atom   31 type  2   force =     0.00368566   -0.00445183   -0.00046425
     atom   32 type  2   force =     0.00061646    0.00208277    0.02164973

     Total force =     0.000000     Total SCF correction =     0.000000


     Computing stress (Cartesian axis) and pressure

          total   stress  (Ry/bohr**3)                   (kbar)     P=   -0.16
  -0.00000040   0.00000000   0.00000000         -0.06      0.00      0.00
   0.00000000  -0.00000239   0.00000000          0.00     -0.35      0.00
   0.00000000   0.00000000  -0.00000040          0.00      0.00     -0.06


     Writing output data file Landau_26.save
 
     init_run     :    106.73s CPU    111.84s WALL (       2 calls)
     electrons    :  12295.89s CPU  12693.40s WALL (       6 calls)
     update_pot   :    114.45s CPU    114.98s WALL (       4 calls)
     forces       :    196.77s CPU    201.36s WALL (       6 calls)
     stress       :   2589.69s CPU   2634.87s WALL (       6 calls)

     Called by init_run:
     wfcinit      :     83.66s CPU     88.31s WALL (       2 calls)
     potinit      :      9.38s CPU      9.49s WALL (       2 calls)

     Called by electrons:
     c_bands      :  10733.66s CPU  11107.41s WALL (      85 calls)
     sum_band     :   1501.82s CPU   1516.64s WALL (      85 calls)
     v_of_rho     :     13.44s CPU     13.70s WALL (      90 calls)
     mix_rho      :     40.51s CPU     47.25s WALL (      85 calls)

     Called by c_bands:
     init_us_2    :    136.21s CPU    142.89s WALL (     368 calls)
     cegterg      :   9107.54s CPU   9459.52s WALL (     170 calls)

     Called by sum_band:

     Called by *egterg:
     h_psi        :   7227.80s CPU   7286.69s WALL (     718 calls)
     g_psi        :     19.45s CPU     19.62s WALL (     544 calls)
     cdiaghg      :    122.92s CPU    123.58s WALL (     704 calls)

     Called by h_psi:
     h_psi:pot    :   7167.36s CPU   7223.57s WALL (     718 calls)
     h_psi:calbec :    676.01s CPU    703.95s WALL (     718 calls)
     vloc_psi     :   5764.52s CPU   5786.91s WALL (     718 calls)
     add_vuspsi   :    726.81s CPU    732.69s WALL (     718 calls)

     General routines
     calbec       :    768.98s CPU    797.32s WALL (     778 calls)
     fft          :     10.43s CPU     10.47s WALL (     408 calls)
     fftw         :   5777.92s CPU   5796.61s WALL (  221454 calls)
 
     Parallel routines
 
     PWSCF        :     4h15m CPU        4h22m WALL

 
   This run was terminated on:   6:49:41   1May2019            

=------------------------------------------------------------------------------=
   JOB DONE.
=------------------------------------------------------------------------------=
