
     Program PWSCF v.6.4.1 starts on  3Dec2019 at 16: 7:47 

     This program is part of the open-source Quantum ESPRESSO suite
     for quantum simulation of materials; please cite
         "P. Giannozzi et al., J. Phys.:Condens. Matter 21 395502 (2009);
         "P. Giannozzi et al., J. Phys.:Condens. Matter 29 465901 (2017);
          URL http://www.quantum-espresso.org", 
     in publications or presentations arising from this work. More details at
     http://www.quantum-espresso.org/quote

     Parallel version (MPI), running on    40 processors

     MPI processes distributed on     6 nodes
     K-points division:     npool     =      40
     Reading input from scf.in

     Current dimensions of program PWSCF are:
     Max number of different atomic species (ntypx) = 10
     Max number of k-points (npk) =  40000
     Max angular momentum in pseudopotentials (lmaxx) =  3

     Subspace diagonalization in iterative solution of the eigenvalue problem:
     a serial algorithm will be used

     Message from routine setup:
     using ibrav=0 with symmetry is DISCOURAGED, use correct ibrav instead
 
     G-vector sticks info
     --------------------
     sticks:   dense  smooth     PW     G-vecs:    dense   smooth      PW
     Sum        3657    3657    989               248967   248967   35169
 


     bravais-lattice index     =            0
     lattice parameter (alat)  =       9.7849  a.u.
     unit-cell volume          =    1402.1515 (a.u.)^3
     number of atoms/cell      =           16
     number of atomic types    =            2
     number of electrons       =       184.15
     number of Kohn-Sham states=          110
     kinetic-energy cutoff     =     120.0000  Ry
     charge density cutoff     =     480.0000  Ry
     convergence threshold     =      1.0E-08
     mixing beta               =       0.7000
     number of iterations used =            8  plain     mixing
     Exchange-correlation      = SLA PW NOGX NOGC ( 1  4  0  0 0 0)

     celldm(1)=   9.784926  celldm(2)=   0.000000  celldm(3)=   0.000000
     celldm(4)=   0.000000  celldm(5)=   0.000000  celldm(6)=   0.000000

     crystal axes: (cart. coord. in units of alat)
               a(1) = (   1.000000   0.000000   0.000000 )  
               a(2) = (   0.000000   1.000000   0.000000 )  
               a(3) = (   0.000000   0.000000   1.496657 )  

     reciprocal axes: (cart. coord. in units 2 pi/alat)
               b(1) = (  1.000000  0.000000  0.000000 )  
               b(2) = (  0.000000  1.000000  0.000000 )  
               b(3) = (  0.000000  0.000000  0.668156 )  


     PseudoPot. # 1 for W  read from file:
     /cluster/scratch/mnoe/QE/pps/W_ONCV_LDA-4.0.upf
     MD5 check sum: ba0307d5d4cd419d6f1d13dc49d7c13a
     Pseudo is Norm-conserving + core correction, Zval = 28.0
     Generated using ONCVPSP code by D. R. Hamann
     Using radial grid of 1380 points,  8 beta functions with: 
                l(1) =   0
                l(2) =   0
                l(3) =   1
                l(4) =   1
                l(5) =   2
                l(6) =   2
                l(7) =   3
                l(8) =   3

     PseudoPot. # 2 for O  read from file:
     /cluster/scratch/mnoe/QE/pps/O_ONCV_LDA-3.0.upf
     MD5 check sum: b55cdb4f45ae2203d24ad12cf8d61a31
     Pseudo is Norm-conserving + core correction, Zval =  6.0
     Generated using ONCVPSP code by D. R. Hamann
     Using radial grid of  926 points,  5 beta functions with: 
                l(1) =   0
                l(2) =   0
                l(3) =   1
                l(4) =   1
                l(5) =   2

     atomic species   valence    mass     pseudopotential
        W             28.00   183.84000     W ( 1.00)
        O              6.00    15.99940     O ( 1.00)

     16 Sym. Ops., with inversion, found (14 have fractional translation)



   Cartesian axes

     site n.     atom                  positions (alat units)
         1           W   tau(   1) = (   0.2500000   0.2500000   0.3264508  )
         2           W   tau(   2) = (   0.7500000   0.7500000   1.1702062  )
         3           W   tau(   3) = (   0.7500000   0.7500000   0.4218777  )
         4           W   tau(   4) = (   0.2500000   0.2500000   1.0747793  )
         5           O   tau(   5) = (   0.2500000   0.2500000   0.7358614  )
         6           O   tau(   6) = (   0.7500000   0.7500000   0.7607956  )
         7           O   tau(   7) = (   0.7500000   0.7500000   0.0124671  )
         8           O   tau(   8) = (   0.2500000   0.2500000   1.4841899  )
         9           O   tau(   9) = (   0.4494100   0.5505900   0.3741643  )
        10           O   tau(  10) = (   0.5505900   0.4494100   1.1224928  )
        11           O   tau(  11) = (   0.0505900   0.9494100   0.3741643  )
        12           O   tau(  12) = (   0.9494099   0.0505900   1.1224928  )
        13           O   tau(  13) = (   0.9494100   0.4494100   0.3741643  )
        14           O   tau(  14) = (   0.0505900   0.5505900   1.1224928  )
        15           O   tau(  15) = (   0.5505900   0.0505900   0.3741643  )
        16           O   tau(  16) = (   0.4494100   0.9494099   1.1224928  )

     number of k points=    60  gaussian smearing, width (Ry)=  0.0007
                       cart. coord. in units 2pi/alat
        k(    1) = (   0.0000000   0.0000000   0.0000000), wk =   0.0041152
        k(    2) = (   0.0000000   0.0000000   0.1113593), wk =   0.0082305
        k(    3) = (   0.0000000   0.0000000   0.2227186), wk =   0.0082305
        k(    4) = (   0.0000000   0.0000000  -0.3340779), wk =   0.0041152
        k(    5) = (   0.0000000   0.1111111   0.0000000), wk =   0.0164609
        k(    6) = (   0.0000000   0.1111111   0.1113593), wk =   0.0329218
        k(    7) = (   0.0000000   0.1111111   0.2227186), wk =   0.0329218
        k(    8) = (   0.0000000   0.1111111  -0.3340779), wk =   0.0164609
        k(    9) = (   0.0000000   0.2222222   0.0000000), wk =   0.0164609
        k(   10) = (   0.0000000   0.2222222   0.1113593), wk =   0.0329218
        k(   11) = (   0.0000000   0.2222222   0.2227186), wk =   0.0329218
        k(   12) = (   0.0000000   0.2222222  -0.3340779), wk =   0.0164609
        k(   13) = (   0.0000000   0.3333333   0.0000000), wk =   0.0164609
        k(   14) = (   0.0000000   0.3333333   0.1113593), wk =   0.0329218
        k(   15) = (   0.0000000   0.3333333   0.2227186), wk =   0.0329218
        k(   16) = (   0.0000000   0.3333333  -0.3340779), wk =   0.0164609
        k(   17) = (   0.0000000   0.4444444   0.0000000), wk =   0.0164609
        k(   18) = (   0.0000000   0.4444444   0.1113593), wk =   0.0329218
        k(   19) = (   0.0000000   0.4444444   0.2227186), wk =   0.0329218
        k(   20) = (   0.0000000   0.4444444  -0.3340779), wk =   0.0164609
        k(   21) = (   0.1111111   0.1111111   0.0000000), wk =   0.0164609
        k(   22) = (   0.1111111   0.1111111   0.1113593), wk =   0.0329218
        k(   23) = (   0.1111111   0.1111111   0.2227186), wk =   0.0329218
        k(   24) = (   0.1111111   0.1111111  -0.3340779), wk =   0.0164609
        k(   25) = (   0.1111111   0.2222222   0.0000000), wk =   0.0329218
        k(   26) = (   0.1111111   0.2222222   0.1113593), wk =   0.0658436
        k(   27) = (   0.1111111   0.2222222   0.2227186), wk =   0.0658436
        k(   28) = (   0.1111111   0.2222222  -0.3340779), wk =   0.0329218
        k(   29) = (   0.1111111   0.3333333   0.0000000), wk =   0.0329218
        k(   30) = (   0.1111111   0.3333333   0.1113593), wk =   0.0658436
        k(   31) = (   0.1111111   0.3333333   0.2227186), wk =   0.0658436
        k(   32) = (   0.1111111   0.3333333  -0.3340779), wk =   0.0329218
        k(   33) = (   0.1111111   0.4444444   0.0000000), wk =   0.0329218
        k(   34) = (   0.1111111   0.4444444   0.1113593), wk =   0.0658436
        k(   35) = (   0.1111111   0.4444444   0.2227186), wk =   0.0658436
        k(   36) = (   0.1111111   0.4444444  -0.3340779), wk =   0.0329218
        k(   37) = (   0.2222222   0.2222222   0.0000000), wk =   0.0164609
        k(   38) = (   0.2222222   0.2222222   0.1113593), wk =   0.0329218
        k(   39) = (   0.2222222   0.2222222   0.2227186), wk =   0.0329218
        k(   40) = (   0.2222222   0.2222222  -0.3340779), wk =   0.0164609
        k(   41) = (   0.2222222   0.3333333   0.0000000), wk =   0.0329218
        k(   42) = (   0.2222222   0.3333333   0.1113593), wk =   0.0658436
        k(   43) = (   0.2222222   0.3333333   0.2227186), wk =   0.0658436
        k(   44) = (   0.2222222   0.3333333  -0.3340779), wk =   0.0329218
        k(   45) = (   0.2222222   0.4444444   0.0000000), wk =   0.0329218
        k(   46) = (   0.2222222   0.4444444   0.1113593), wk =   0.0658436
        k(   47) = (   0.2222222   0.4444444   0.2227186), wk =   0.0658436
        k(   48) = (   0.2222222   0.4444444  -0.3340779), wk =   0.0329218
        k(   49) = (   0.3333333   0.3333333   0.0000000), wk =   0.0164609
        k(   50) = (   0.3333333   0.3333333   0.1113593), wk =   0.0329218
        k(   51) = (   0.3333333   0.3333333   0.2227186), wk =   0.0329218
        k(   52) = (   0.3333333   0.3333333  -0.3340779), wk =   0.0164609
        k(   53) = (   0.3333333   0.4444444   0.0000000), wk =   0.0329218
        k(   54) = (   0.3333333   0.4444444   0.1113593), wk =   0.0658436
        k(   55) = (   0.3333333   0.4444444   0.2227186), wk =   0.0658436
        k(   56) = (   0.3333333   0.4444444  -0.3340779), wk =   0.0329218
        k(   57) = (   0.4444444   0.4444444   0.0000000), wk =   0.0164609
        k(   58) = (   0.4444444   0.4444444   0.1113593), wk =   0.0329218
        k(   59) = (   0.4444444   0.4444444   0.2227186), wk =   0.0329218
        k(   60) = (   0.4444444   0.4444444  -0.3340779), wk =   0.0164609

     Dense  grid:   248967 G-vectors     FFT dimensions: (  72,  72, 108)

     Estimated max dynamical RAM per process >     881.58 MB

     Estimated total dynamical RAM >      34.44 GB

     Initial potential from superposition of free atoms

     starting charge  183.99828, renormalised to  184.15000
     Starting wfcs are  116 randomized atomic wfcs

     total cpu time spent up to now is       10.1 secs

     Self-consistent Calculation

     iteration #  1     ecut=   120.00 Ry     beta= 0.70
     Davidson diagonalization with overlap
     ethr =  1.00E-02,  avg # of iterations =  4.3

     total cpu time spent up to now is       41.0 secs

     total energy              =   -3126.85031059 Ry
     Harris-Foulkes estimate   =   -3132.21304957 Ry
     estimated scf accuracy    <       6.77257261 Ry

     iteration #  2     ecut=   120.00 Ry     beta= 0.70
     Davidson diagonalization with overlap
     ethr =  3.68E-03,  avg # of iterations =  3.2

     total cpu time spent up to now is       71.7 secs

     total energy              =   -3125.29476466 Ry
     Harris-Foulkes estimate   =   -3135.29481907 Ry
     estimated scf accuracy    <      26.76476894 Ry

     iteration #  3     ecut=   120.00 Ry     beta= 0.70
     Davidson diagonalization with overlap
     ethr =  3.68E-03,  avg # of iterations =  3.2

     total cpu time spent up to now is      100.6 secs

     total energy              =   -3130.44132926 Ry
     Harris-Foulkes estimate   =   -3130.58278721 Ry
     estimated scf accuracy    <       0.46735020 Ry

     iteration #  4     ecut=   120.00 Ry     beta= 0.70
     Davidson diagonalization with overlap
     ethr =  2.54E-04,  avg # of iterations =  2.6

     total cpu time spent up to now is      124.0 secs

     total energy              =   -3130.44280816 Ry
     Harris-Foulkes estimate   =   -3130.47829268 Ry
     estimated scf accuracy    <       0.11662905 Ry

     iteration #  5     ecut=   120.00 Ry     beta= 0.70
     Davidson diagonalization with overlap
     ethr =  6.33E-05,  avg # of iterations =  4.3

     total cpu time spent up to now is      149.0 secs

     total energy              =   -3130.44191701 Ry
     Harris-Foulkes estimate   =   -3130.45827573 Ry
     estimated scf accuracy    <       0.03601341 Ry

     iteration #  6     ecut=   120.00 Ry     beta= 0.70
     Davidson diagonalization with overlap
     ethr =  1.96E-05,  avg # of iterations =  3.9

     total cpu time spent up to now is      175.6 secs

     total energy              =   -3130.44982673 Ry
     Harris-Foulkes estimate   =   -3130.45100561 Ry
     estimated scf accuracy    <       0.00310402 Ry

     iteration #  7     ecut=   120.00 Ry     beta= 0.70
     Davidson diagonalization with overlap
     ethr =  1.69E-06,  avg # of iterations =  3.3

     total cpu time spent up to now is      200.1 secs

     total energy              =   -3130.45024268 Ry
     Harris-Foulkes estimate   =   -3130.45027821 Ry
     estimated scf accuracy    <       0.00006674 Ry

     iteration #  8     ecut=   120.00 Ry     beta= 0.70
     Davidson diagonalization with overlap
     ethr =  3.62E-08,  avg # of iterations =  3.0

     total cpu time spent up to now is      231.4 secs

     total energy              =   -3130.45027207 Ry
     Harris-Foulkes estimate   =   -3130.45027536 Ry
     estimated scf accuracy    <       0.00001585 Ry

     iteration #  9     ecut=   120.00 Ry     beta= 0.70
     Davidson diagonalization with overlap
     ethr =  8.61E-09,  avg # of iterations =  2.0

     total cpu time spent up to now is      254.2 secs

     total energy              =   -3130.45027002 Ry
     Harris-Foulkes estimate   =   -3130.45027297 Ry
     estimated scf accuracy    <       0.00000753 Ry

     iteration # 10     ecut=   120.00 Ry     beta= 0.70
     Davidson diagonalization with overlap
     ethr =  4.09E-09,  avg # of iterations =  2.0

     total cpu time spent up to now is      277.6 secs

     total energy              =   -3130.45027128 Ry
     Harris-Foulkes estimate   =   -3130.45027133 Ry
     estimated scf accuracy    <       0.00000011 Ry

     iteration # 11     ecut=   120.00 Ry     beta= 0.70
     Davidson diagonalization with overlap
     ethr =  5.87E-11,  avg # of iterations =  2.8

     total cpu time spent up to now is      307.0 secs

     total energy              =   -3130.45027131 Ry
     Harris-Foulkes estimate   =   -3130.45027132 Ry
     estimated scf accuracy    <       0.00000003 Ry

     iteration # 12     ecut=   120.00 Ry     beta= 0.70
     Davidson diagonalization with overlap
     ethr =  1.66E-11,  avg # of iterations =  2.0

     total cpu time spent up to now is      333.1 secs

     End of self-consistent calculation

          k = 0.0000 0.0000 0.0000 ( 31095 PWs)   bands (ev):

   -66.1001 -66.0997 -66.0981 -66.0977 -30.5197 -30.5133 -30.4602 -30.4550
   -30.4368 -30.4368 -30.4335 -30.4335 -30.3407 -30.3407 -30.3380 -30.3380
   -20.2542 -20.2541 -20.2540 -20.2539 -20.2477 -20.2472 -20.2423 -20.2417
   -20.2363 -20.2363 -20.2356 -20.2356 -20.2341 -20.2341 -20.2335 -20.2335
   -20.2262 -20.2261 -20.2255 -20.2254 -20.2131 -20.2131 -20.2131 -20.2131
   -20.2075 -20.2075 -20.2074 -20.2074  -9.9313  -9.6491  -9.0673  -9.0259
    -9.0139  -8.8642  -7.8490  -7.7380  -7.5976  -7.5976  -7.5765  -7.5765
     1.2276   1.2281   1.3906   1.6496   1.6742   1.8822   2.4145   2.4882
     2.7408   2.7408   4.1536   4.1536   5.0488   5.0488   5.0757   5.5362
     5.5362   5.5450   5.5450   5.8226   5.8226   5.9527   5.9699   6.8134
     6.8134   6.8990   7.0345   7.0360   7.4209   7.4209   7.4656   7.4656
     7.8016   7.8155   8.0876   8.0876   9.2872   9.2949  10.0602  10.0602
    12.3128  12.3128  12.9052  12.9081  13.4393  13.4393  13.8045  14.1905
    14.1905  14.8958  15.4675  15.4786  15.4905  16.8406

          k = 0.0000 0.0000 0.1114 ( 31063 PWs)   bands (ev):

   -66.1001 -66.0997 -66.0981 -66.0977 -30.5158 -30.5094 -30.4642 -30.4589
   -30.4366 -30.4366 -30.4338 -30.4338 -30.3405 -30.3405 -30.3382 -30.3382
   -20.2542 -20.2541 -20.2540 -20.2539 -20.2474 -20.2469 -20.2426 -20.2421
   -20.2362 -20.2362 -20.2356 -20.2356 -20.2341 -20.2341 -20.2336 -20.2336
   -20.2262 -20.2261 -20.2255 -20.2254 -20.2131 -20.2131 -20.2131 -20.2131
   -20.2075 -20.2075 -20.2074 -20.2074  -9.9026  -9.6605  -9.0251  -9.0147
    -8.9938  -8.8180  -7.9441  -7.8444  -7.5962  -7.5962  -7.5780  -7.5780
     1.2276   1.2281   1.5227   1.6734   1.8260   2.0549   2.4193   2.4831
     2.8081   2.8081   4.0222   4.0222   4.8333   4.9964   4.9964   5.4730
     5.4730   5.6288   5.6364   5.6364   5.8843   5.8843   5.9915   6.8508
     6.8508   6.8525   6.9088   7.0274   7.4293   7.4293   7.4652   7.4652
     7.8067   7.8149   8.0461   8.0461   9.2876   9.2942  10.2291  10.2291
    12.1875  12.1875  12.9054  12.9079  13.4463  13.4463  14.1004  14.1004
    14.1332  15.0639  15.4679  15.4773  15.8921  16.5302

          k = 0.0000 0.0000 0.2227 ( 31059 PWs)   bands (ev):

   -66.1000 -66.0998 -66.0980 -66.0978 -30.5050 -30.4988 -30.4752 -30.4696
   -30.4360 -30.4360 -30.4344 -30.4344 -30.3400 -30.3400 -30.3387 -30.3387
   -20.2541 -20.2541 -20.2540 -20.2539 -20.2464 -20.2459 -20.2437 -20.2431
   -20.2361 -20.2361 -20.2357 -20.2357 -20.2341 -20.2341 -20.2338 -20.2338
   -20.2262 -20.2261 -20.2254 -20.2254 -20.2131 -20.2131 -20.2131 -20.2131
   -20.2075 -20.2075 -20.2075 -20.2075  -9.8324  -9.6956  -9.0229  -9.0169
    -8.7860  -8.6744  -8.1853  -8.1146  -7.5924  -7.5924  -7.5818  -7.5818
     1.2277   1.2280   1.6349   1.6704   2.3868   2.4324   2.4692   2.7055
     3.0049   3.0049   3.6869   3.6869   4.1545   4.7541   5.0498   5.0498
     5.3826   5.3826   5.6900   5.6900   5.8559   5.8559   6.1052   6.5414
     6.9350   7.0036   7.1160   7.1160   7.4396   7.4396   7.4666   7.4666
     7.8101   7.8134   7.8716   7.8716   9.2886   9.2925  10.6798  10.6798
    11.8153  11.8153  12.9059  12.9074  13.5073  13.5073  13.8868  13.8868
    14.7689  15.4690  15.4742  15.6662  15.9637  16.8879

          k = 0.0000 0.0000-0.3341 ( 31108 PWs)   bands (ev):

   -66.0999 -66.0999 -66.0979 -66.0979 -30.4901 -30.4901 -30.4843 -30.4842
   -30.4352 -30.4352 -30.4352 -30.4352 -30.3394 -30.3394 -30.3394 -30.3394
   -20.2541 -20.2541 -20.2539 -20.2539 -20.2450 -20.2450 -20.2445 -20.2445
   -20.2358 -20.2358 -20.2358 -20.2358 -20.2340 -20.2340 -20.2340 -20.2340
   -20.2262 -20.2262 -20.2254 -20.2254 -20.2131 -20.2131 -20.2131 -20.2131
   -20.2075 -20.2075 -20.2075 -20.2075  -9.7552  -9.7552  -9.0199  -9.0199
    -8.4890  -8.4890  -8.4304  -8.4304  -7.5871  -7.5871  -7.5871  -7.5871
     1.2278   1.2278   1.6619   1.6619   2.4506   2.4506   3.2477   3.2477
     3.3125   3.3125   3.3125   3.3125   3.6824   3.6824   5.2187   5.2187
     5.2187   5.2187   5.7544   5.7544   5.7544   5.7544   6.2883   6.2883
     6.9699   6.9699   7.4228   7.4228   7.4228   7.4228   7.5615   7.5615
     7.5615   7.5615   7.8117   7.8117   9.2904   9.2904  11.2650  11.2650
    11.2650  11.2650  12.9067  12.9067  13.6618  13.6618  13.6618  13.6618
    15.3659  15.3659  15.4712  15.4712  16.5536  16.5536

          k = 0.0000 0.1111 0.0000 ( 31068 PWs)   bands (ev):

   -66.1001 -66.0997 -66.0981 -66.0978 -30.5197 -30.5136 -30.4605 -30.4552
   -30.4339 -30.4336 -30.4307 -30.4306 -30.3436 -30.3436 -30.3409 -30.3409
   -20.2542 -20.2541 -20.2540 -20.2539 -20.2477 -20.2473 -20.2423 -20.2417
   -20.2362 -20.2362 -20.2356 -20.2356 -20.2342 -20.2342 -20.2336 -20.2336
   -20.2262 -20.2261 -20.2255 -20.2254 -20.2130 -20.2130 -20.2129 -20.2129
   -20.2077 -20.2077 -20.2076 -20.2076  -9.8881  -9.5986  -9.0749  -8.9907
    -8.9786  -8.8549  -7.8483  -7.7411  -7.6714  -7.6535  -7.6514  -7.6308
     1.3450   1.3455   1.4229   1.6421   1.7921   1.9692   2.4928   2.5708
     2.7702   2.7842   4.1274   4.1353   4.8903   4.9439   5.0597   5.4199
     5.4286   5.4619   5.4697   5.7716   5.8021   5.9820   6.1629   6.7272
     6.7581   6.9125   6.9683   6.9938   7.1228   7.1247   7.3694   7.4232
     7.8196   7.8241   8.0634   8.0929   9.5899   9.6272  10.1678  10.2102
    12.3222  12.3428  12.9511  12.9716  13.3330  13.4118  13.9232  14.1134
    14.1483  14.9977  15.4601  15.5014  15.5141  16.9828

          k = 0.0000 0.1111 0.1114 ( 31085 PWs)   bands (ev):

   -66.1000 -66.0997 -66.0981 -66.0978 -30.5157 -30.5097 -30.4644 -30.4592
   -30.4337 -30.4334 -30.4309 -30.4308 -30.3435 -30.3434 -30.3411 -30.3411
   -20.2541 -20.2541 -20.2540 -20.2539 -20.2474 -20.2469 -20.2426 -20.2421
   -20.2362 -20.2361 -20.2356 -20.2356 -20.2342 -20.2342 -20.2337 -20.2337
   -20.2262 -20.2261 -20.2255 -20.2254 -20.2130 -20.2130 -20.2129 -20.2129
   -20.2077 -20.2077 -20.2076 -20.2076  -9.8582  -9.6100  -9.0014  -8.9899
    -8.9793  -8.8098  -7.9431  -7.8499  -7.6700  -7.6527  -7.6500  -7.6322
     1.3450   1.3454   1.5846   1.7913   1.8313   2.0972   2.4985   2.5655
     2.8394   2.8501   4.0111   4.0263   4.8188   4.8405   4.8943   5.3555
     5.3698   5.5043   5.5230   5.6349   5.8235   5.8672   6.1947   6.7515
     6.7828   6.8427   6.9769   7.0042   7.1248   7.1250   7.3769   7.4204
     7.8226   7.8239   8.0167   8.0438   9.5968   9.6254  10.3253  10.3622
    12.2051  12.2258  12.9464  12.9698  13.3461  13.4179  14.0209  14.0582
    14.2504  15.1530  15.5020  15.5130  15.8624  16.6607

          k = 0.0000 0.1111 0.2227 ( 31085 PWs)   bands (ev):

   -66.1000 -66.0998 -66.0980 -66.0978 -30.5049 -30.4991 -30.4753 -30.4699
   -30.4331 -30.4329 -30.4315 -30.4314 -30.3430 -30.3429 -30.3416 -30.3416
   -20.2541 -20.2541 -20.2540 -20.2539 -20.2464 -20.2459 -20.2437 -20.2432
   -20.2360 -20.2360 -20.2356 -20.2356 -20.2342 -20.2341 -20.2338 -20.2338
   -20.2262 -20.2261 -20.2255 -20.2254 -20.2130 -20.2130 -20.2129 -20.2129
   -20.2077 -20.2077 -20.2077 -20.2076  -9.7856  -9.6454  -8.9877  -8.9817
    -8.7932  -8.6690  -8.1852  -8.1198  -7.6661  -7.6557  -7.6463  -7.6360
     1.3450   1.3453   1.7427   1.7877   2.3883   2.5129   2.5499   2.6915
     3.0438   3.0498   3.6905   3.7134   4.1483   4.7568   4.8988   4.9475
     5.2625   5.2796   5.5383   5.5670   5.7480   5.7564   6.2840   6.6028
     6.9747   6.9794   7.0840   7.1090   7.1355   7.1446   7.3944   7.4176
     7.8152   7.8220   7.8485   7.8658   9.6076   9.6212  10.7508  10.7803
    11.8470  11.8691  12.9456  12.9641  13.4103  13.4752  13.8013  13.8458
    14.9033  15.5038  15.5102  15.7269  16.0952  16.8557

          k = 0.0000 0.1111-0.3341 ( 31082 PWs)   bands (ev):

   -66.0999 -66.0999 -66.0980 -66.0979 -30.4901 -30.4901 -30.4845 -30.4845
   -30.4323 -30.4323 -30.4322 -30.4322 -30.3423 -30.3423 -30.3423 -30.3423
   -20.2541 -20.2541 -20.2539 -20.2539 -20.2450 -20.2450 -20.2446 -20.2445
   -20.2358 -20.2358 -20.2358 -20.2358 -20.2340 -20.2340 -20.2340 -20.2340
   -20.2261 -20.2261 -20.2255 -20.2255 -20.2130 -20.2130 -20.2129 -20.2129
   -20.2077 -20.2077 -20.2077 -20.2076  -9.7061  -9.7061  -8.9847  -8.9847
    -8.4938  -8.4938  -8.4297  -8.4297  -7.6609  -7.6609  -7.6411  -7.6411
     1.3451   1.3451   1.7776   1.7776   2.5319   2.5319   3.2470   3.2470
     3.3086   3.3086   3.3472   3.3472   3.7049   3.7049   5.0798   5.0798
     5.1217   5.1217   5.6049   5.6049   5.6297   5.6297   6.4263   6.4263
     7.0094   7.0094   7.1181   7.1181   7.3606   7.3606   7.5133   7.5134
     7.5586   7.5586   7.8254   7.8254   9.6155   9.6155  11.3128  11.3128
    11.3381  11.3381  12.9545  12.9545  13.5694  13.5694  13.6242  13.6242
    15.5006  15.5006  15.5090  15.5090  16.6068  16.6068

          k = 0.0000 0.2222 0.0000 ( 31120 PWs)   bands (ev):

   -66.0999 -66.0995 -66.0983 -66.0979 -30.5194 -30.5143 -30.4608 -30.4560
   -30.4257 -30.4247 -30.4225 -30.4222 -30.3521 -30.3519 -30.3493 -30.3493
   -20.2541 -20.2540 -20.2540 -20.2539 -20.2477 -20.2473 -20.2423 -20.2418
   -20.2361 -20.2360 -20.2355 -20.2354 -20.2343 -20.2342 -20.2338 -20.2337
   -20.2261 -20.2260 -20.2256 -20.2255 -20.2125 -20.2125 -20.2125 -20.2125
   -20.2082 -20.2082 -20.2082 -20.2081  -9.7650  -9.4503  -9.0997  -8.8878
    -8.8751  -8.8241  -7.9029  -7.8716  -7.8093  -7.8011  -7.7813  -7.7497
     1.4757   1.6222   1.6809   1.6823   2.1118   2.2407   2.7280   2.8277
     2.8551   2.9203   4.0273   4.0342   4.6248   4.6905   5.0141   5.0246
     5.1245   5.1658   5.2936   5.7096   5.8122   6.0000   6.3557   6.3766
     6.5169   6.5785   6.6633   6.7629   6.8078   7.2540   7.3146   7.3912
     7.8113   7.8177   8.0169   8.0855  10.1640  10.2796  10.4677  10.6288
    12.3322  12.4032  12.9110  12.9883  13.1098  13.3316  13.9008  14.0153
    14.1811  15.3065  15.3690  15.7438  15.7639  17.3615

          k = 0.0000 0.2222 0.1114 ( 31095 PWs)   bands (ev):

   -66.0999 -66.0995 -66.0983 -66.0980 -30.5155 -30.5104 -30.4647 -30.4599
   -30.4255 -30.4246 -30.4227 -30.4224 -30.3519 -30.3517 -30.3495 -30.3495
   -20.2541 -20.2541 -20.2540 -20.2539 -20.2474 -20.2470 -20.2426 -20.2422
   -20.2360 -20.2359 -20.2355 -20.2354 -20.2343 -20.2343 -20.2338 -20.2338
   -20.2261 -20.2260 -20.2256 -20.2255 -20.2125 -20.2125 -20.2125 -20.2125
   -20.2082 -20.2082 -20.2082 -20.2081  -9.7314  -9.4619  -9.0264  -8.8870
    -8.8758  -8.7827  -7.9650  -7.8868  -7.8699  -7.8131  -7.7992  -7.7826
     1.6809   1.6821   1.6858   1.8351   2.1111   2.2902   2.7397   2.8224
     2.9287   2.9778   3.9571   3.9946   4.5680   4.6521   4.7776   5.0148
     5.0457   5.1633   5.2140   5.6406   5.6887   5.8392   6.3601   6.3641
     6.5336   6.6239   6.7238   6.7985   6.9110   7.2477   7.3197   7.3912
     7.8121   7.8164   7.9597   8.0286  10.1915  10.2742  10.6000  10.7357
    12.2492  12.3230  12.8835  12.9806  13.1001  13.3353  13.8022  13.9258
    14.5270  15.4264  15.7432  15.7627  15.7782  17.0041

          k = 0.0000 0.2222 0.2227 ( 31114 PWs)   bands (ev):

   -66.0998 -66.0996 -66.0982 -66.0980 -30.5048 -30.4998 -30.4754 -30.4706
   -30.4249 -30.4243 -30.4233 -30.4230 -30.3514 -30.3513 -30.3500 -30.3499
   -20.2541 -20.2541 -20.2540 -20.2539 -20.2464 -20.2460 -20.2437 -20.2432
   -20.2359 -20.2357 -20.2355 -20.2354 -20.2343 -20.2342 -20.2340 -20.2339
   -20.2261 -20.2261 -20.2256 -20.2255 -20.2125 -20.2125 -20.2125 -20.2125
   -20.2082 -20.2082 -20.2082 -20.2081  -9.6501  -9.4984  -8.8847  -8.8794
    -8.8175  -8.6512  -8.1979  -8.1340  -7.8652  -7.8467  -7.7960  -7.7862
     1.6810   1.6818   2.0203   2.1070   2.3929   2.6624   2.7608   2.8244
     3.1570   3.1581   3.6934   3.7739   4.1303   4.6022   4.6565   4.7929
     4.9601   4.9702   5.1722   5.1966   5.4751   5.5263   6.3624   6.3739
     6.6145   6.7352   6.9864   7.0239   7.0897   7.2320   7.3451   7.3973
     7.7780   7.7998   7.8143   7.8606  10.2307  10.2655  10.9628  11.0675
    11.9461  12.0257  12.8713  12.9542  13.1466  13.3787  13.5681  13.7170
    15.2558  15.7476  15.7588  15.9126  16.4501  16.7578

          k = 0.0000 0.2222-0.3341 ( 31108 PWs)   bands (ev):

   -66.0997 -66.0997 -66.0981 -66.0981 -30.4901 -30.4901 -30.4853 -30.4853
   -30.4241 -30.4241 -30.4237 -30.4237 -30.3507 -30.3507 -30.3506 -30.3506
   -20.2541 -20.2541 -20.2540 -20.2540 -20.2450 -20.2450 -20.2446 -20.2446
   -20.2356 -20.2356 -20.2355 -20.2355 -20.2342 -20.2342 -20.2341 -20.2341
   -20.2261 -20.2261 -20.2255 -20.2255 -20.2125 -20.2125 -20.2125 -20.2125
   -20.2082 -20.2082 -20.2081 -20.2081  -9.5628  -9.5628  -8.8817  -8.8817
    -8.5166  -8.5166  -8.4239  -8.4239  -7.8578  -7.8578  -7.7911  -7.7911
     1.6813   1.6813   2.0917   2.0917   2.7799   2.7799   3.2435   3.2435
     3.3061   3.3061   3.4431   3.4431   3.7620   3.7620   4.7714   4.7714
     4.8709   4.8709   5.2417   5.2417   5.2838   5.2838   6.3711   6.3711
     6.6921   6.6921   7.1564   7.1564   7.2737   7.2737   7.4700   7.4700
     7.5590   7.5591   7.8183   7.8183  10.2531  10.2531  11.4614  11.4614
    11.5521  11.5521  12.9109  12.9109  13.3131  13.3131  13.5104  13.5104
    15.7525  15.7525  15.8776  15.8776  16.7595  16.7595

          k = 0.0000 0.3333 0.0000 ( 31158 PWs)   bands (ev):

   -66.0996 -66.0992 -66.0986 -66.0982 -30.5189 -30.5154 -30.4605 -30.4571
   -30.4130 -30.4118 -30.4098 -30.4095 -30.3649 -30.3646 -30.3621 -30.3620
   -20.2541 -20.2540 -20.2540 -20.2539 -20.2477 -20.2474 -20.2423 -20.2420
   -20.2359 -20.2357 -20.2353 -20.2353 -20.2344 -20.2343 -20.2340 -20.2339
   -20.2260 -20.2259 -20.2257 -20.2256 -20.2119 -20.2119 -20.2117 -20.2117
   -20.2091 -20.2090 -20.2089 -20.2089  -9.5848  -9.2150  -9.1495  -8.7602
    -8.7261  -8.7118  -8.1972  -8.1426  -8.0159  -7.9974  -7.8126  -7.7633
     1.5133   1.5959   2.1882   2.1975   2.5379   2.6403   2.9838   3.0364
     3.2458   3.2772   3.8141   3.8166   4.2552   4.3384   4.4941   4.5438
     4.9207   4.9673   5.1889   5.5373   5.5436   5.6349   5.8707   6.0407
     6.4593   6.4594   6.5382   6.6326   7.0064   7.3552   7.4436   7.5150
     7.7409   7.7509   7.9107   8.0335  10.7537  10.9034  10.9794  11.2246
    12.2106  12.3129  12.7395  12.8203  12.9970  13.0693  13.6025  13.7716
    14.4759  15.2179  15.8082  16.3449  16.3964  17.7864

          k = 0.0000 0.3333 0.1114 ( 31139 PWs)   bands (ev):

   -66.0996 -66.0992 -66.0986 -66.0982 -30.5150 -30.5115 -30.4644 -30.4610
   -30.4128 -30.4117 -30.4101 -30.4097 -30.3647 -30.3644 -30.3623 -30.3622
   -20.2541 -20.2540 -20.2540 -20.2539 -20.2473 -20.2471 -20.2426 -20.2423
   -20.2358 -20.2356 -20.2353 -20.2353 -20.2344 -20.2344 -20.2340 -20.2339
   -20.2260 -20.2260 -20.2257 -20.2256 -20.2119 -20.2119 -20.2117 -20.2117
   -20.2091 -20.2090 -20.2089 -20.2089  -9.5435  -9.2269  -9.0778  -8.7266
    -8.7254  -8.7125  -8.2160  -8.1395  -8.0149  -7.9986  -7.9047  -7.8545
     1.7408   1.8217   2.1887   2.1969   2.5399   2.6515   3.0585   3.0822
     3.2592   3.2742   3.7963   3.8307   4.2496   4.3451   4.5022   4.5474
     4.7278   4.7600   4.9891   5.4613   5.5297   5.5782   5.6658   5.8076
     6.5510   6.5736   6.7141   6.7733   7.0198   7.3451   7.4438   7.5033
     7.7400   7.7468   7.8581   7.9792  10.8020  10.9487  11.0310  11.2839
    12.2115  12.3325  12.7311  12.7414  12.8994  13.0561  13.4960  13.6762
    14.8442  15.6005  15.9203  16.3492  16.3927  17.4270

          k = 0.0000 0.3333 0.2227 ( 31107 PWs)   bands (ev):

   -66.0995 -66.0993 -66.0985 -66.0983 -30.5043 -30.5009 -30.4750 -30.4717
   -30.4122 -30.4114 -30.4106 -30.4102 -30.3642 -30.3640 -30.3628 -30.3627
   -20.2541 -20.2540 -20.2540 -20.2540 -20.2464 -20.2461 -20.2436 -20.2434
   -20.2356 -20.2354 -20.2353 -20.2352 -20.2345 -20.2344 -20.2342 -20.2341
   -20.2260 -20.2260 -20.2257 -20.2256 -20.2119 -20.2119 -20.2117 -20.2117
   -20.2091 -20.2090 -20.2089 -20.2089  -9.4433  -9.2655  -8.8772  -8.7234
    -8.7131  -8.6142  -8.3218  -8.1371  -8.1291  -8.0284  -8.0105  -8.0020
     2.1903   2.1951   2.2997   2.4009   2.5395   2.7628   3.1693   3.2691
     3.2902   3.3413   3.6549   3.7700   4.1062   4.2996   4.3549   4.5010
     4.5362   4.6282   4.7455   4.8917   5.1420   5.2708   5.5603   5.5617
     6.8320   6.8945   6.9661   7.0550   7.0994   7.3194   7.4494   7.4641
     7.6781   7.7260   7.7576   7.8283  10.8842  10.9500  11.3064  11.5051
    12.0953  12.2484  12.6050  12.6845  12.7974  13.0820  13.2451  13.4519
    15.6917  16.2405  16.3610  16.3823  16.5955  16.9298

          k = 0.0000 0.3333-0.3341 ( 31132 PWs)   bands (ev):

   -66.0994 -66.0994 -66.0984 -66.0984 -30.4896 -30.4896 -30.4864 -30.4863
   -30.4114 -30.4114 -30.4109 -30.4108 -30.3635 -30.3635 -30.3633 -30.3633
   -20.2541 -20.2541 -20.2540 -20.2540 -20.2450 -20.2450 -20.2447 -20.2447
   -20.2354 -20.2354 -20.2352 -20.2352 -20.2345 -20.2345 -20.2343 -20.2343
   -20.2260 -20.2260 -20.2256 -20.2256 -20.2119 -20.2119 -20.2117 -20.2117
   -20.2091 -20.2090 -20.2089 -20.2089  -9.3383  -9.3383  -8.7227  -8.7227
    -8.5841  -8.5840  -8.4069  -8.4069  -8.1048  -8.1048  -8.0065  -8.0065
     2.1927   2.1927   2.5154   2.5154   3.1512   3.1512   3.2425   3.2425
     3.3624   3.3624   3.5543   3.5543   3.8018   3.8018   4.4289   4.4289
     4.5373   4.5373   4.7715   4.7715   4.8795   4.8795   5.5561   5.5561
     6.9432   6.9433   7.2479   7.2479   7.2804   7.2804   7.4198   7.4198
     7.5664   7.5664   7.7585   7.7585  10.9308  10.9308  11.7154  11.7154
    11.8883  11.8883  12.6265  12.6265  12.9449  12.9449  13.2332  13.2332
    16.3567  16.3567  16.4121  16.4121  16.9892  16.9892

          k = 0.0000 0.4444 0.0000 ( 31158 PWs)   bands (ev):

   -66.0993 -66.0989 -66.0989 -66.0985 -30.5179 -30.5167 -30.4596 -30.4584
   -30.3974 -30.3964 -30.3943 -30.3940 -30.3807 -30.3800 -30.3777 -30.3775
   -20.2541 -20.2540 -20.2540 -20.2540 -20.2476 -20.2475 -20.2422 -20.2421
   -20.2356 -20.2354 -20.2354 -20.2353 -20.2344 -20.2343 -20.2342 -20.2341
   -20.2259 -20.2258 -20.2258 -20.2257 -20.2110 -20.2110 -20.2108 -20.2108
   -20.2100 -20.2100 -20.2098 -20.2098  -9.3921  -9.2410  -8.9115  -8.6398
    -8.5955  -8.5224  -8.4687  -8.3924  -8.2590  -8.2408  -7.7974  -7.7799
     1.5416   1.5684   2.7624   2.8269   2.9286   3.0251   3.1129   3.2634
     3.4421   3.5076   3.8099   3.8421   3.9612   3.9796   3.9908   3.9917
     4.5861   4.7216   4.9256   4.9690   5.2870   5.4687   5.9485   6.0156
     6.4007   6.4173   6.4266   6.4947   7.3598   7.4746   7.5647   7.6026
     7.6203   7.7392   7.7503   7.9225  11.3198  11.4064  11.6378  11.8331
    11.8766  11.9365  12.2673  12.4893  13.0273  13.1695  13.2857  13.4626
    14.7593  15.0114  16.4281  16.9066  17.2935  17.6112

          k = 0.0000 0.4444 0.1114 ( 31149 PWs)   bands (ev):

   -66.0993 -66.0989 -66.0989 -66.0986 -30.5140 -30.5128 -30.4635 -30.4623
   -30.3971 -30.3963 -30.3945 -30.3942 -30.3805 -30.3799 -30.3779 -30.3777
   -20.2541 -20.2540 -20.2540 -20.2540 -20.2473 -20.2472 -20.2426 -20.2425
   -20.2356 -20.2353 -20.2353 -20.2352 -20.2344 -20.2343 -20.2343 -20.2341
   -20.2259 -20.2258 -20.2258 -20.2257 -20.2110 -20.2110 -20.2108 -20.2108
   -20.2100 -20.2100 -20.2098 -20.2098  -9.3384  -9.1751  -8.9239  -8.6186
    -8.6051  -8.5201  -8.4721  -8.3866  -8.2581  -8.2418  -7.8911  -7.8736
     1.7723   1.7984   2.7685   2.8246   2.9449   3.0324   3.1739   3.2806
     3.4451   3.5007   3.8363   3.8418   3.9776   3.9931   4.0327   4.0362
     4.5146   4.6860   4.7196   4.8232   5.0476   5.2538   5.6967   5.7484
     6.5620   6.5991   6.6269   6.6702   7.3504   7.4651   7.5534   7.5984
     7.6089   7.7098   7.7258   7.8795  11.3717  11.4749  11.6445  11.8754
    11.9099  11.9950  12.2657  12.5075  12.8995  13.0470  13.1672  13.3534
    15.1403  15.3982  16.5082  16.9449  17.2758  17.6283

          k = 0.0000 0.4444 0.2227 ( 31132 PWs)   bands (ev):

   -66.0992 -66.0990 -66.0988 -66.0986 -30.5034 -30.5022 -30.4742 -30.4730
   -30.3966 -30.3959 -30.3951 -30.3947 -30.3799 -30.3794 -30.3785 -30.3782
   -20.2541 -20.2540 -20.2540 -20.2540 -20.2463 -20.2462 -20.2436 -20.2435
   -20.2353 -20.2351 -20.2351 -20.2351 -20.2346 -20.2346 -20.2345 -20.2343
   -20.2259 -20.2259 -20.2258 -20.2257 -20.2110 -20.2110 -20.2108 -20.2108
   -20.2100 -20.2100 -20.2098 -20.2098  -9.2030  -8.9972  -8.9672  -8.6489
    -8.5416  -8.5126  -8.4829  -8.3620  -8.2568  -8.2446  -8.1199  -8.0930
     2.3910   2.4057   2.7838   2.8173   2.9695   3.0674   3.3302   3.3334
     3.4403   3.4486   3.8233   3.8834   4.0458   4.0793   4.0874   4.1756
     4.2050   4.2116   4.6410   4.6963   4.7206   4.8678   4.9806   5.1188
     6.8993   6.9424   6.9961   7.0393   7.3054   7.4317   7.4955   7.5509
     7.5708   7.6643   7.6688   7.7589  11.4840  11.5801  11.7481  11.9778
    12.0409  12.1397  12.2812  12.5314  12.6254  12.7360  12.8769  13.0856
    16.0652  16.3566  16.7404  17.0419  17.2177  17.3990

          k = 0.0000 0.4444-0.3341 ( 31098 PWs)   bands (ev):

   -66.0991 -66.0991 -66.0987 -66.0987 -30.4888 -30.4888 -30.4876 -30.4876
   -30.3958 -30.3958 -30.3953 -30.3953 -30.3792 -30.3792 -30.3788 -30.3788
   -20.2540 -20.2540 -20.2540 -20.2540 -20.2449 -20.2449 -20.2449 -20.2448
   -20.2351 -20.2351 -20.2349 -20.2349 -20.2348 -20.2348 -20.2346 -20.2346
   -20.2259 -20.2259 -20.2258 -20.2258 -20.2110 -20.2110 -20.2108 -20.2108
   -20.2100 -20.2100 -20.2098 -20.2098  -9.0590  -9.0590  -8.7813  -8.7813
    -8.4991  -8.4991  -8.3754  -8.3754  -8.2833  -8.2833  -8.2470  -8.2470
     2.8006   2.8006   2.9254   2.9254   3.1662   3.1662   3.3165   3.3165
     3.4299   3.4299   3.6001   3.6001   3.9145   3.9145   4.2543   4.2543
     4.3458   4.3459   4.4444   4.4445   4.5477   4.5477   4.7579   4.7579
     7.1435   7.1435   7.2670   7.2670   7.3214   7.3214   7.3714   7.3714
     7.5963   7.5963   7.6682   7.6682  11.5639  11.5639  11.9974  11.9974
    12.2227  12.2227  12.3302  12.3302  12.5349  12.5349  12.8031  12.8031
    16.9479  16.9479  17.1570  17.1570  17.2430  17.2430

          k = 0.1111 0.1111 0.0000 ( 31114 PWs)   bands (ev):

   -66.1000 -66.0996 -66.0982 -66.0978 -30.5196 -30.5138 -30.4605 -30.4555
   -30.4374 -30.4342 -30.4246 -30.4218 -30.3525 -30.3498 -30.3402 -30.3375
   -20.2541 -20.2541 -20.2540 -20.2539 -20.2477 -20.2473 -20.2423 -20.2418
   -20.2363 -20.2360 -20.2357 -20.2354 -20.2343 -20.2341 -20.2338 -20.2335
   -20.2262 -20.2261 -20.2255 -20.2254 -20.2133 -20.2133 -20.2123 -20.2123
   -20.2084 -20.2083 -20.2074 -20.2073  -9.8514  -9.5577  -9.0828  -8.9594
    -8.9366  -8.8384  -7.8614  -7.8205  -7.7937  -7.7440  -7.6151  -7.5938
     1.3185   1.3492   1.5062   1.6363   2.0085   2.1332   2.5687   2.6505
     2.7264   2.8956   4.0341   4.1373   4.6864   4.9988   5.0420   5.1018
     5.2699   5.5122   5.5367   5.7436   5.8040   5.9924   6.2259   6.5893
     6.7621   6.7649   7.0059   7.0281   7.0811   7.1208   7.1466   7.2054
     7.8207   7.8254   8.0144   8.1157   9.8573   9.9070  10.0556  10.5333
    12.2448  12.4486  12.8676  12.9777  13.2644  13.4401  13.9679  14.0161
    14.1885  15.0866  15.4280  15.5329  15.6002  17.1485

          k = 0.1111 0.1111 0.1114 ( 31089 PWs)   bands (ev):

   -66.1000 -66.0996 -66.0982 -66.0978 -30.5156 -30.5099 -30.4644 -30.4594
   -30.4372 -30.4344 -30.4244 -30.4220 -30.3523 -30.3500 -30.3400 -30.3377
   -20.2541 -20.2541 -20.2540 -20.2539 -20.2474 -20.2469 -20.2426 -20.2422
   -20.2363 -20.2360 -20.2357 -20.2354 -20.2343 -20.2341 -20.2338 -20.2336
   -20.2262 -20.2261 -20.2255 -20.2254 -20.2133 -20.2133 -20.2123 -20.2123
   -20.2084 -20.2083 -20.2074 -20.2073  -9.8206  -9.5690  -9.0094  -8.9556
    -8.9376  -8.7970  -7.9473  -7.8647  -7.8190  -7.7897  -7.6137  -7.5952
     1.3377   1.3491   1.6857   1.8448   2.0076   2.2036   2.5752   2.6443
     2.7948   2.9620   3.9602   4.0367   4.5952   4.8021   5.0010   5.1163
     5.1408   5.4786   5.5774   5.6456   5.7765   5.8504   6.2583   6.6727
     6.7736   6.7909   6.9447   7.0295   7.0686   7.1241   7.1687   7.2098
     7.8208   7.8269   7.9765   8.0531   9.8649   9.9037  10.2308  10.6547
    12.1487  12.3332  12.8646  12.9728  13.2661  13.4432  13.8760  14.0970
    14.3425  15.2323  15.5303  15.6035  15.8308  16.8111

          k = 0.1111 0.1111 0.2227 ( 31112 PWs)   bands (ev):

   -66.0999 -66.0997 -66.0981 -66.0979 -30.5049 -30.4993 -30.4753 -30.4701
   -30.4366 -30.4350 -30.4240 -30.4225 -30.3518 -30.3505 -30.3395 -30.3382
   -20.2541 -20.2541 -20.2540 -20.2539 -20.2464 -20.2459 -20.2437 -20.2432
   -20.2361 -20.2358 -20.2357 -20.2354 -20.2343 -20.2341 -20.2340 -20.2338
   -20.2261 -20.2261 -20.2255 -20.2255 -20.2133 -20.2133 -20.2123 -20.2123
   -20.2083 -20.2083 -20.2074 -20.2073  -9.7462  -9.6043  -8.9496  -8.9403
    -8.8014  -8.6622  -8.1878  -8.1260  -7.8150  -7.8023  -7.6098  -7.5991
     1.3458   1.3487   1.9429   2.0037   2.3908   2.5891   2.6297   2.6974
     2.9924   3.1669   3.6700   3.7495   4.1413   4.6309   4.7541   5.0014
     5.0810   5.1362   5.4219   5.4924   5.6540   5.8267   6.3430   6.6322
     6.9528   6.9654   7.0229   7.0616   7.0823   7.1198   7.2394   7.2404
     7.8012   7.8216   7.8373   7.8580   9.8787   9.8982  10.6884  11.0033
    11.8122  11.9900  12.8804  12.9558  13.3083  13.4989  13.6605  13.8811
    14.9814  15.5162  15.6226  15.7892  16.2627  16.8195

          k = 0.1111 0.1111-0.3341 ( 31088 PWs)   bands (ev):

   -66.0998 -66.0998 -66.0980 -66.0980 -30.4901 -30.4901 -30.4848 -30.4847
   -30.4358 -30.4358 -30.4233 -30.4233 -30.3512 -30.3512 -30.3389 -30.3389
   -20.2541 -20.2541 -20.2539 -20.2539 -20.2450 -20.2450 -20.2446 -20.2446
   -20.2359 -20.2359 -20.2356 -20.2356 -20.2342 -20.2342 -20.2340 -20.2339
   -20.2261 -20.2261 -20.2255 -20.2255 -20.2133 -20.2133 -20.2123 -20.2123
   -20.2083 -20.2083 -20.2073 -20.2073  -9.6654  -9.6654  -8.9444  -8.9444
    -8.5007  -8.5007  -8.4282  -8.4282  -7.8093  -7.8093  -7.6045  -7.6045
     1.3479   1.3479   1.9915   1.9915   2.6102   2.6102   3.2456   3.2456
     3.2990   3.2990   3.3759   3.3759   3.7318   3.7318   4.8278   4.8278
     5.1508   5.1508   5.3516   5.3516   5.7101   5.7101   6.4717   6.4717
     6.9973   6.9973   7.1031   7.1031   7.1423   7.1423   7.5044   7.5044
     7.5306   7.5306   7.8264   7.8264   9.8901   9.8901  11.2739  11.2739
    11.4968  11.4968  12.9221  12.9221  13.4399  13.4399  13.6552  13.6552
    15.4223  15.4224  15.7747  15.7747  16.6661  16.6661

          k = 0.1111 0.2222 0.0000 ( 31131 PWs)   bands (ev):

   -66.0998 -66.0994 -66.0984 -66.0980 -30.5193 -30.5145 -30.4605 -30.4562
   -30.4349 -30.4318 -30.4113 -30.4086 -30.3658 -30.3631 -30.3426 -30.3400
   -20.2541 -20.2540 -20.2540 -20.2539 -20.2477 -20.2474 -20.2423 -20.2419
   -20.2363 -20.2357 -20.2357 -20.2352 -20.2345 -20.2340 -20.2340 -20.2335
   -20.2261 -20.2260 -20.2256 -20.2255 -20.2133 -20.2132 -20.2115 -20.2115
   -20.2093 -20.2092 -20.2074 -20.2074  -9.7462  -9.4376  -9.1094  -8.8906
    -8.8142  -8.7650  -8.0760  -8.0555  -7.8266  -7.7523  -7.6917  -7.6715
     1.4028   1.4891   1.6120   1.6201   2.4732   2.5533   2.7570   2.8064
     2.9012   3.0675   3.8533   3.9604   4.5231   4.5669   4.7451   4.9940
     5.1507   5.3660   5.3945   5.7046   5.7974   6.0093   6.3171   6.4254
     6.4384   6.5625   6.5998   6.7563   6.9679   7.0777   7.1594   7.3846
     7.7744   7.7929   7.9329   8.1238  10.1571  10.4305  10.4924  11.0161
    12.1185  12.5972  12.7351  12.9220  13.1127  13.3802  13.7160  14.1276
    14.2120  15.3310  15.3563  15.7259  15.9456  17.5696

          k = 0.1111 0.2222 0.1114 ( 31129 PWs)   bands (ev):

   -66.0998 -66.0995 -66.0983 -66.0980 -30.5153 -30.5106 -30.4644 -30.4601
   -30.4347 -30.4320 -30.4111 -30.4088 -30.3656 -30.3632 -30.3425 -30.3401
   -20.2541 -20.2541 -20.2540 -20.2539 -20.2474 -20.2470 -20.2426 -20.2422
   -20.2362 -20.2357 -20.2357 -20.2352 -20.2345 -20.2341 -20.2341 -20.2336
   -20.2261 -20.2260 -20.2256 -20.2255 -20.2133 -20.2132 -20.2115 -20.2115
   -20.2093 -20.2092 -20.2074 -20.2074  -9.7126  -9.4487  -9.0365  -8.8721
    -8.8156  -8.7413  -8.0934  -8.0535  -7.9164  -7.8481  -7.6904  -7.6723
     1.4595   1.4889   1.7667   1.8642   2.4753   2.5705   2.8068   2.8298
     2.8994   3.1266   3.8493   3.9144   4.3746   4.5842   4.7530   4.7734
     4.9621   5.3395   5.3856   5.6155   5.6787   5.8353   6.3624   6.4373
     6.4662   6.6354   6.7161   6.7735   6.9553   7.0749   7.1702   7.3780
     7.7766   7.7908   7.8921   8.0539  10.3071  10.4490  10.4970  11.1058
    12.0860  12.5053  12.6831  12.9101  13.1050  13.3795  13.6217  14.0351
    14.5359  15.4734  15.7160  15.7410  15.9600  17.1787

          k = 0.1111 0.2222 0.2227 ( 31117 PWs)   bands (ev):

   -66.0997 -66.0995 -66.0983 -66.0981 -30.5046 -30.5000 -30.4751 -30.4708
   -30.4342 -30.4326 -30.4107 -30.4093 -30.3651 -30.3637 -30.3420 -30.3406
   -20.2541 -20.2541 -20.2540 -20.2539 -20.2464 -20.2460 -20.2437 -20.2433
   -20.2360 -20.2357 -20.2355 -20.2352 -20.2345 -20.2342 -20.2341 -20.2338
   -20.2261 -20.2260 -20.2256 -20.2255 -20.2133 -20.2133 -20.2115 -20.2115
   -20.2093 -20.2092 -20.2074 -20.2074  -9.6317  -9.4836  -8.8443  -8.8322
    -8.8172  -8.6358  -8.2316  -8.1405  -8.0474  -7.9991  -7.6866  -7.6760
     1.4817   1.4882   2.3041   2.4039   2.4739   2.7409   2.8350   2.8934
     3.0304   3.3119   3.6580   3.7481   4.1242   4.3189   4.5819   4.6353
     4.8347   4.9609   5.1793   5.2789   5.4695   5.7063   6.4121   6.4417
     6.5510   6.7319   6.9511   6.9898   7.0352   7.1188   7.2316   7.3611
     7.7436   7.7753   7.7821   7.8538  10.4417  10.4745  10.7866  11.3753
    11.8428  12.2108  12.6605  12.8642  13.1196  13.3963  13.4417  13.8169
    15.1674  15.6790  15.9776  16.0291  16.6701  16.7091

          k = 0.1111 0.2222-0.3341 ( 31086 PWs)   bands (ev):

   -66.0996 -66.0996 -66.0982 -66.0982 -30.4899 -30.4899 -30.4854 -30.4854
   -30.4334 -30.4334 -30.4100 -30.4100 -30.3644 -30.3644 -30.3413 -30.3413
   -20.2541 -20.2541 -20.2540 -20.2540 -20.2450 -20.2450 -20.2446 -20.2446
   -20.2358 -20.2358 -20.2353 -20.2353 -20.2344 -20.2344 -20.2340 -20.2340
   -20.2261 -20.2261 -20.2256 -20.2255 -20.2133 -20.2133 -20.2115 -20.2115
   -20.2093 -20.2092 -20.2074 -20.2074  -9.5461  -9.5460  -8.8283  -8.8283
    -8.5329  -8.5322  -8.4203  -8.4195  -8.0356  -8.0352  -7.6814  -7.6812
     1.4861   1.4870   2.4542   2.4549   2.8490   2.8529   3.2363   3.2393
     3.2798   3.3089   3.4238   3.4626   3.7689   3.7794   4.4803   4.5149
     4.7793   4.8062   5.1196   5.1842   5.4985   5.5572   6.4340   6.4383
     6.6354   6.6570   7.0387   7.0593   7.2123   7.2147   7.4565   7.4852
     7.4978   7.5310   7.7880   7.7897  10.4622  10.4657  11.3361  11.3475
    11.7776  11.7885  12.7565  12.7720  13.1829  13.2369  13.5695  13.6066
    15.5412  15.5554  16.2292  16.2501  16.8422  16.8455

          k = 0.1111 0.3333 0.0000 ( 31118 PWs)   bands (ev):

   -66.0996 -66.0992 -66.0986 -66.0982 -30.5187 -30.5155 -30.4602 -30.4572
   -30.4267 -30.4239 -30.3954 -30.3927 -30.3817 -30.3790 -30.3506 -30.3480
   -20.2541 -20.2540 -20.2540 -20.2539 -20.2477 -20.2474 -20.2422 -20.2420
   -20.2361 -20.2357 -20.2354 -20.2350 -20.2347 -20.2343 -20.2340 -20.2336
   -20.2260 -20.2259 -20.2257 -20.2256 -20.2129 -20.2129 -20.2105 -20.2105
   -20.2103 -20.2103 -20.2078 -20.2078  -9.5889  -9.2456  -9.1632  -8.8212
    -8.6246  -8.6046  -8.3727  -8.3145  -7.8703  -7.8643  -7.8063  -7.7646
     1.4980   1.5967   1.8222   1.8778   2.7883   2.9862   2.9901   3.1850
     3.3351   3.3533   3.5312   3.7124   4.0291   4.3560   4.4672   4.8648
     4.9776   4.9956   5.2226   5.6210   5.6900   5.7298   5.8500   6.0102
     6.3893   6.4644   6.5873   6.7802   6.8636   7.1486   7.2387   7.6366
     7.6590   7.6866   7.8093   8.0855  10.4739  11.0598  11.1353  11.5676
    11.8343  12.6101  12.6973  12.7057  12.9273  13.2602  13.3982  13.9476
    14.4353  15.1702  15.8226  16.2065  16.5797  17.8365

          k = 0.1111 0.3333 0.1114 ( 31146 PWs)   bands (ev):

   -66.0996 -66.0992 -66.0986 -66.0983 -30.5148 -30.5116 -30.4641 -30.4611
   -30.4266 -30.4241 -30.3952 -30.3929 -30.3816 -30.3792 -30.3505 -30.3481
   -20.2541 -20.2540 -20.2540 -20.2540 -20.2473 -20.2471 -20.2426 -20.2423
   -20.2361 -20.2356 -20.2353 -20.2350 -20.2347 -20.2343 -20.2341 -20.2337
   -20.2260 -20.2259 -20.2257 -20.2256 -20.2129 -20.2129 -20.2105 -20.2105
   -20.2103 -20.2103 -20.2078 -20.2078  -9.5493  -9.2563  -9.0929  -8.7923
    -8.6265  -8.5977  -8.3838  -8.3104  -7.9165  -7.8792  -7.8675  -7.8330
     1.6835   1.8062   1.8219   1.9475   2.8426   2.9881   3.0260   3.2078
     3.3376   3.3583   3.5227   3.7386   4.0614   4.2619   4.4706   4.6834
     4.8536   4.9206   5.0587   5.4595   5.6524   5.6938   5.7432   5.8283
     6.5565   6.6019   6.6387   6.8631   6.8950   7.1392   7.2459   7.6078
     7.6615   7.6823   7.7721   8.0182  10.6085  11.0715  11.1359  11.6335
    11.8819  12.5892  12.5989  12.6865  12.8975  13.2097  13.2940  13.8512
    14.7764  15.5497  15.9371  16.1934  16.5967  17.5578

          k = 0.1111 0.3333 0.2227 ( 31104 PWs)   bands (ev):

   -66.0995 -66.0993 -66.0985 -66.0983 -30.5041 -30.5010 -30.4748 -30.4718
   -30.4261 -30.4247 -30.3948 -30.3934 -30.3811 -30.3797 -30.3500 -30.3486
   -20.2541 -20.2540 -20.2540 -20.2540 -20.2463 -20.2461 -20.2436 -20.2434
   -20.2359 -20.2356 -20.2352 -20.2349 -20.2348 -20.2345 -20.2342 -20.2339
   -20.2260 -20.2260 -20.2257 -20.2256 -20.2129 -20.2129 -20.2105 -20.2105
   -20.2103 -20.2103 -20.2078 -20.2078  -9.4543  -9.2911  -8.8977  -8.7132
    -8.6327  -8.5588  -8.4379  -8.2951  -8.1380  -8.0946  -7.8647  -7.8522
     1.8035   1.8205   2.3916   2.4805   2.9371   3.0136   3.1627   3.2603
     3.3452   3.3821   3.4882   3.6935   4.1062   4.1131   4.1825   4.3916
     4.6261   4.8416   4.9214   4.9474   5.0844   5.4290   5.7428   5.7572
     6.7929   6.8274   6.9414   7.0111   7.0586   7.1499   7.2905   7.5239
     7.6213   7.6669   7.6910   7.8259  10.9444  11.0938  11.1685  11.8366
    11.9040  12.3622  12.4820  12.6234  12.8182  13.0605  13.2169  13.6219
    15.4908  16.1317  16.3022  16.5229  16.6778  17.1520

          k = 0.1111 0.3333-0.3341 ( 31110 PWs)   bands (ev):

   -66.0994 -66.0994 -66.0984 -66.0984 -30.4894 -30.4894 -30.4864 -30.4864
   -30.4254 -30.4254 -30.3941 -30.3941 -30.3804 -30.3804 -30.3493 -30.3493
   -20.2541 -20.2541 -20.2540 -20.2540 -20.2450 -20.2450 -20.2447 -20.2447
   -20.2357 -20.2356 -20.2349 -20.2349 -20.2347 -20.2347 -20.2341 -20.2341
   -20.2260 -20.2260 -20.2257 -20.2256 -20.2129 -20.2129 -20.2105 -20.2105
   -20.2103 -20.2103 -20.2078 -20.2078  -9.3573  -9.3571  -8.6713  -8.6662
    -8.6200  -8.6129  -8.3975  -8.3944  -8.2493  -8.2474  -7.8593  -7.8587
     1.8158   1.8178   2.9331   2.9369   3.1533   3.1775   3.2190   3.2498
     3.3641   3.3737   3.4871   3.5406   3.6684   3.7156   4.3085   4.3552
     4.4349   4.4691   4.7580   4.9334   5.0488   5.1931   5.7432   5.7488
     6.8608   6.8792   7.0747   7.1029   7.2810   7.3089   7.3930   7.4411
     7.4729   7.5323   7.6901   7.6974  11.0820  11.0895  11.5126  11.5544
    12.1485  12.1710  12.4382  12.4825  12.8129  12.9237  13.3436  13.4094
    15.9402  15.9701  16.7726  16.8138  17.1536  17.1555

          k = 0.1111 0.4444 0.0000 ( 31139 PWs)   bands (ev):

   -66.0993 -66.0989 -66.0989 -66.0985 -30.5178 -30.5167 -30.4595 -30.4584
   -30.4141 -30.4114 -30.3985 -30.3958 -30.3787 -30.3760 -30.3632 -30.3605
   -20.2541 -20.2540 -20.2540 -20.2540 -20.2476 -20.2475 -20.2422 -20.2421
   -20.2359 -20.2357 -20.2351 -20.2350 -20.2347 -20.2345 -20.2339 -20.2338
   -20.2259 -20.2258 -20.2258 -20.2257 -20.2122 -20.2122 -20.2113 -20.2113
   -20.2095 -20.2095 -20.2086 -20.2085  -9.4119  -9.2610  -8.9939  -8.7260
    -8.6990  -8.5651  -8.3642  -8.3608  -8.1089  -8.1053  -7.7965  -7.7802
     1.5401   1.5697   2.3125   2.3415   2.8508   2.8867   2.9573   3.1195
     3.5548   3.7379   3.8794   3.9851   4.0346   4.1213   4.3113   4.3137
     4.6300   4.9181   4.9965   5.1028   5.3236   5.4833   5.8995   5.9639
     6.4286   6.4450   6.4756   6.5887   7.2038   7.3055   7.3957   7.4724
     7.5177   7.6204   7.8454   7.9946  10.9159  11.3953  11.6722  11.7537
    12.1167  12.2251  12.3007  12.6091  12.8504  13.0842  13.3917  13.6781
    14.6949  14.9521  16.4371  16.8164  17.3661  17.3721

          k = 0.1111 0.4444 0.1114 ( 31144 PWs)   bands (ev):

   -66.0992 -66.0989 -66.0989 -66.0986 -30.5139 -30.5128 -30.4633 -30.4623
   -30.4139 -30.4116 -30.3983 -30.3960 -30.3786 -30.3762 -30.3630 -30.3607
   -20.2541 -20.2540 -20.2540 -20.2540 -20.2473 -20.2472 -20.2426 -20.2425
   -20.2358 -20.2356 -20.2351 -20.2349 -20.2347 -20.2346 -20.2340 -20.2339
   -20.2259 -20.2258 -20.2258 -20.2257 -20.2122 -20.2122 -20.2113 -20.2113
   -20.2095 -20.2095 -20.2086 -20.2085  -9.3617  -9.1984  -9.0043  -8.7178
    -8.6942  -8.5537  -8.3673  -8.3585  -8.1113  -8.1074  -7.8897  -7.8730
     1.7666   1.7967   2.3115   2.3520   2.8596   2.8842   3.0248   3.1768
     3.5476   3.7335   3.9031   3.9778   4.0397   4.1544   4.3137   4.3213
     4.5203   4.7125   4.9729   5.0023   5.1127   5.2676   5.7171   5.7697
     6.5310   6.5413   6.6705   6.7638   7.2060   7.2958   7.3912   7.4692
     7.5128   7.6001   7.8034   7.9373  11.0231  11.4763  11.6829  11.7534
    12.1609  12.2372  12.3007  12.6415  12.7211  12.9619  13.2770  13.5724
    15.0579  15.3292  16.5180  16.8245  17.3720  17.3743

          k = 0.1111 0.4444 0.2227 ( 31131 PWs)   bands (ev):

   -66.0992 -66.0990 -66.0988 -66.0986 -30.5032 -30.5021 -30.4740 -30.4730
   -30.4135 -30.4121 -30.3979 -30.3965 -30.3781 -30.3767 -30.3625 -30.3612
   -20.2541 -20.2540 -20.2540 -20.2540 -20.2463 -20.2462 -20.2436 -20.2435
   -20.2356 -20.2355 -20.2350 -20.2349 -20.2348 -20.2347 -20.2342 -20.2341
   -20.2259 -20.2259 -20.2258 -20.2257 -20.2122 -20.2122 -20.2113 -20.2113
   -20.2095 -20.2095 -20.2085 -20.2085  -9.2390  -9.0411  -9.0329  -8.7524
    -8.6160  -8.5092  -8.3806  -8.3503  -8.1718  -8.1188  -8.0983  -8.0519
     2.2281   2.3076   2.3898   2.5352   2.8746   2.8941   3.2195   3.3336
     3.5125   3.6559   3.8365   3.9503   4.1290   4.1718   4.2193   4.2932
     4.3816   4.4277   4.6057   4.7858   4.9461   5.0027   5.0800   5.2966
     6.8609   6.8953   6.9971   7.0425   7.2029   7.2724   7.3879   7.4421
     7.4957   7.5546   7.6799   7.7697  11.3161  11.6704  11.7272  11.7594
    12.2137  12.2827  12.3512  12.3657  12.6682  12.7631  13.0024  13.3152
    15.8902  16.2417  16.7540  16.8109  17.3734  17.3813

          k = 0.1111 0.4444-0.3341 ( 31096 PWs)   bands (ev):

   -66.0991 -66.0991 -66.0987 -66.0987 -30.4886 -30.4886 -30.4876 -30.4876
   -30.4128 -30.4128 -30.3972 -30.3972 -30.3774 -30.3774 -30.3619 -30.3619
   -20.2540 -20.2540 -20.2540 -20.2540 -20.2449 -20.2449 -20.2448 -20.2448
   -20.2354 -20.2354 -20.2351 -20.2351 -20.2346 -20.2346 -20.2343 -20.2343
   -20.2259 -20.2259 -20.2258 -20.2258 -20.2122 -20.2122 -20.2113 -20.2113
   -20.2095 -20.2095 -20.2085 -20.2085  -9.1158  -9.1155  -8.8538  -8.8530
    -8.4715  -8.4675  -8.3804  -8.3790  -8.3013  -8.3011  -8.0928  -8.0915
     2.2966   2.2991   2.8334   2.8337   3.2135   3.2164   3.2644   3.2738
     3.4876   3.5245   3.6711   3.6783   3.9335   3.9631   4.2319   4.3042
     4.3740   4.4564   4.5830   4.5926   4.6577   4.7939   5.0375   5.0522
     7.0661   7.0960   7.1711   7.1794   7.2570   7.3002   7.3333   7.4045
     7.4718   7.5473   7.5592   7.5985  11.5994  11.6712  11.8029  11.8888
    12.0981  12.1250  12.2972  12.4568  12.5941  12.6538  12.9956  13.0656
    16.5335  16.5821  17.0586  17.1790  17.2406  17.3987

          k = 0.2222 0.2222 0.0000 ( 31144 PWs)   bands (ev):

   -66.0997 -66.0993 -66.0985 -66.0981 -30.5188 -30.5150 -30.4599 -30.4567
   -30.4390 -30.4357 -30.3948 -30.3922 -30.3823 -30.3796 -30.3389 -30.3362
   -20.2541 -20.2540 -20.2540 -20.2539 -20.2477 -20.2474 -20.2422 -20.2419
   -20.2364 -20.2358 -20.2354 -20.2349 -20.2348 -20.2343 -20.2339 -20.2334
   -20.2261 -20.2260 -20.2256 -20.2256 -20.2137 -20.2137 -20.2105 -20.2104
   -20.2103 -20.2103 -20.2070 -20.2069  -9.6877  -9.3876  -9.1422  -8.8802
    -8.6496  -8.6153  -8.3488  -8.2991  -7.8209  -7.7588  -7.6600  -7.6381
     1.3246   1.3734   1.6029   1.6124   2.6667   2.9699   3.0655   3.1037
     3.1463   3.2298   3.5290   3.6924   4.0405   4.4609   4.7577   4.9395
     5.2312   5.4068   5.4096   5.6912   5.7642   5.9840   6.2826   6.2958
     6.4587   6.4702   6.5073   6.6370   6.8353   6.8594   7.0803   7.6164
     7.6164   7.6650   7.7915   8.1519  10.0429  10.8957  10.9683  11.5392
    11.7843  12.5941  12.7732  12.8402  12.9118  13.4352  13.4686  14.1837
    14.2704  15.2167  15.5652  15.7710  16.3918  17.7815

          k = 0.2222 0.2222 0.1114 ( 31119 PWs)   bands (ev):

   -66.0997 -66.0993 -66.0985 -66.0981 -30.5149 -30.5111 -30.4638 -30.4606
   -30.4388 -30.4359 -30.3947 -30.3923 -30.3821 -30.3798 -30.3387 -30.3364
   -20.2541 -20.2540 -20.2540 -20.2539 -20.2473 -20.2470 -20.2426 -20.2423
   -20.2363 -20.2358 -20.2353 -20.2349 -20.2348 -20.2344 -20.2339 -20.2335
   -20.2261 -20.2260 -20.2256 -20.2256 -20.2137 -20.2137 -20.2105 -20.2104
   -20.2103 -20.2103 -20.2070 -20.2069  -9.6535  -9.3977  -9.0712  -8.8471
    -8.6523  -8.6067  -8.3592  -8.2952  -7.9144  -7.8571  -7.6586  -7.6396
     1.3521   1.3733   1.7817   1.8747   2.7328   2.9860   3.0856   3.0978
     3.1416   3.2584   3.5182   3.7164   4.0725   4.2685   4.6983   4.7335
     5.0670   5.3752   5.3850   5.5469   5.6963   5.8230   6.3012   6.4223
     6.4657   6.4865   6.6219   6.6612   6.8724   6.9073   7.0005   7.5860
     7.6291   7.6604   7.7640   8.0749  10.2277  10.9027  10.9659  11.6077
    11.8236  12.4871  12.7474  12.7686  12.9145  13.3374  13.4534  14.0908
    14.5674  15.5724  15.7304  15.7503  16.4246  17.5042

          k = 0.2222 0.2222 0.2227 ( 31142 PWs)   bands (ev):

   -66.0996 -66.0994 -66.0984 -66.0982 -30.5041 -30.5005 -30.4746 -30.4713
   -30.4382 -30.4366 -30.3942 -30.3929 -30.3816 -30.3803 -30.3382 -30.3369
   -20.2541 -20.2541 -20.2540 -20.2540 -20.2463 -20.2460 -20.2436 -20.2433
   -20.2361 -20.2358 -20.2351 -20.2349 -20.2348 -20.2345 -20.2340 -20.2337
   -20.2260 -20.2260 -20.2256 -20.2256 -20.2137 -20.2137 -20.2105 -20.2104
   -20.2103 -20.2103 -20.2070 -20.2069  -9.5722  -9.4298  -8.8733  -8.7576
    -8.6618  -8.5623  -8.4128  -8.2810  -8.1433  -8.0853  -7.6546  -7.6437
     1.3670   1.3727   2.3874   2.5084   2.9166   3.0207   3.0823   3.1296
     3.1524   3.3381   3.4770   3.6344   4.1029   4.1174   4.1909   4.3828
     4.8697   4.9346   5.1136   5.3365   5.5028   5.7525   6.3983   6.4613
     6.5508   6.5777   6.6325   6.7706   7.0598   7.0632   7.1294   7.5063
     7.6287   7.6449   7.6675   7.8535  10.6978  10.9193  10.9623  11.7653
    11.8158  12.3245  12.5071  12.6646  12.9358  13.1311  13.4902  13.8714
    15.1320  15.6747  16.1729  16.5355  16.5856  17.0742

          k = 0.2222 0.2222-0.3341 ( 31106 PWs)   bands (ev):

   -66.0995 -66.0995 -66.0983 -66.0983 -30.4894 -30.4894 -30.4859 -30.4859
   -30.4374 -30.4374 -30.3936 -30.3935 -30.3810 -30.3810 -30.3376 -30.3376
   -20.2541 -20.2541 -20.2540 -20.2540 -20.2450 -20.2450 -20.2447 -20.2447
   -20.2359 -20.2359 -20.2349 -20.2349 -20.2348 -20.2347 -20.2339 -20.2339
   -20.2260 -20.2260 -20.2256 -20.2256 -20.2137 -20.2137 -20.2104 -20.2104
   -20.2103 -20.2103 -20.2070 -20.2070  -9.4886  -9.4886  -8.6868  -8.6868
    -8.6043  -8.6043  -8.4018  -8.4018  -8.2387  -8.2387  -7.6492  -7.6492
     1.3712   1.3712   3.0054   3.0054   3.0515   3.0515   3.1994   3.1994
     3.2654   3.2654   3.4712   3.4712   3.6504   3.6504   4.3376   4.3376
     4.4568   4.4568   5.2470   5.2470   5.5717   5.5717   6.4479   6.4479
     6.6182   6.6182   6.6658   6.6658   7.2845   7.2845   7.4226   7.4226
     7.4928   7.4928   7.6695   7.6695  10.9343  10.9343  11.3018  11.3018
    12.1438  12.1438  12.4672  12.4672  12.9903  12.9903  13.6419  13.6419
    15.4977  15.4977  16.6872  16.6872  17.1276  17.1276

          k = 0.2222 0.3333 0.0000 ( 31140 PWs)   bands (ev):

   -66.0995 -66.0991 -66.0987 -66.0983 -30.5182 -30.5157 -30.4594 -30.4575
   -30.4367 -30.4336 -30.3996 -30.3969 -30.3777 -30.3750 -30.3412 -30.3385
   -20.2541 -20.2540 -20.2540 -20.2540 -20.2476 -20.2474 -20.2422 -20.2420
   -20.2364 -20.2359 -20.2351 -20.2350 -20.2347 -20.2346 -20.2337 -20.2334
   -20.2260 -20.2259 -20.2257 -20.2256 -20.2137 -20.2137 -20.2116 -20.2116
   -20.2092 -20.2092 -20.2070 -20.2069  -9.5880  -9.2833  -9.2085  -8.8512
    -8.6340  -8.5279  -8.4146  -8.4004  -7.8120  -7.7692  -7.7427  -7.7216
     1.4020   1.4792   1.5964   1.6510   2.6851   2.8327   2.8701   3.1174
     3.4463   3.5255   3.8148   3.9352   4.0375   4.4740   4.6727   4.8849
     5.1340   5.1351   5.3097   5.6296   5.7597   5.8785   5.9593   6.0538
     6.3451   6.4708   6.6482   6.6524   6.7472   6.8599   7.0130   7.3974
     7.4569   7.6091   7.8249   8.1394  10.1565  11.3652  11.4344  11.4955
    12.0682  12.5712  12.5922  12.6709  13.0240  13.1327  13.5002  14.1172
    14.3670  15.0297  15.9642  16.0116  16.9669  17.7963

          k = 0.2222 0.3333 0.1114 ( 31131 PWs)   bands (ev):

   -66.0995 -66.0991 -66.0987 -66.0983 -30.5143 -30.5119 -30.4634 -30.4614
   -30.4365 -30.4338 -30.3994 -30.3971 -30.3775 -30.3752 -30.3410 -30.3387
   -20.2541 -20.2540 -20.2540 -20.2540 -20.2473 -20.2471 -20.2426 -20.2424
   -20.2363 -20.2359 -20.2351 -20.2350 -20.2347 -20.2347 -20.2338 -20.2335
   -20.2260 -20.2259 -20.2257 -20.2256 -20.2137 -20.2137 -20.2116 -20.2116
   -20.2092 -20.2092 -20.2070 -20.2069  -9.5512  -9.2925  -9.1434  -8.8155
    -8.6427  -8.5185  -8.4185  -8.3971  -7.9056  -7.8686  -7.7416  -7.7225
     1.4484   1.4791   1.7928   1.8773   2.7526   2.8400   2.8683   3.1827
     3.4472   3.5234   3.7882   3.9739   4.0026   4.3295   4.6570   4.6992
     5.0342   5.1136   5.1762   5.4218   5.7184   5.7961   5.9290   6.0649
     6.3850   6.5903   6.6362   6.7363   6.8021   6.8935   6.9813   7.4026
     7.4500   7.5875   7.7818   8.0624  10.3323  11.4323  11.4535  11.4939
    12.1232  12.4439  12.5680  12.6637  12.9968  13.0424  13.4354  14.0220
    14.6665  15.3975  15.9839  16.0907  17.0068  17.6847

          k = 0.2222 0.3333 0.2227 ( 31134 PWs)   bands (ev):

   -66.0994 -66.0992 -66.0986 -66.0984 -30.5035 -30.5012 -30.4741 -30.4721
   -30.4360 -30.4344 -30.3990 -30.3976 -30.3770 -30.3757 -30.3405 -30.3392
   -20.2541 -20.2540 -20.2540 -20.2540 -20.2463 -20.2461 -20.2436 -20.2434
   -20.2361 -20.2358 -20.2352 -20.2349 -20.2348 -20.2345 -20.2339 -20.2337
   -20.2260 -20.2259 -20.2257 -20.2257 -20.2137 -20.2137 -20.2116 -20.2116
   -20.2092 -20.2092 -20.2070 -20.2069  -9.4648  -9.3224  -8.9708  -8.7018
    -8.6758  -8.4816  -8.4342  -8.3842  -8.1336  -8.1094  -7.7376  -7.7266
     1.4708   1.4784   2.3813   2.5228   2.8476   2.8737   2.9678   3.3597
     3.4410   3.5231   3.6524   3.7278   4.1441   4.1811   4.2777   4.4100
     4.7393   4.8692   5.0841   5.1506   5.2326   5.6038   6.0448   6.0711
     6.5445   6.6343   6.7295   6.8208   7.0021   7.0802   7.1139   7.4177
     7.4364   7.5130   7.6494   7.8387  10.7877  11.4472  11.4838  11.6410
    12.0927  12.2883  12.4394  12.6725  12.8136  12.8783  13.4089  13.7961
    15.2632  15.8889  16.2854  16.5103  17.1627  17.4063

          k = 0.2222 0.3333-0.3341 ( 31128 PWs)   bands (ev):

   -66.0993 -66.0993 -66.0985 -66.0985 -30.4888 -30.4888 -30.4867 -30.4867
   -30.4352 -30.4352 -30.3983 -30.3983 -30.3764 -30.3764 -30.3398 -30.3398
   -20.2541 -20.2541 -20.2540 -20.2540 -20.2449 -20.2449 -20.2448 -20.2447
   -20.2359 -20.2359 -20.2351 -20.2351 -20.2346 -20.2346 -20.2339 -20.2339
   -20.2259 -20.2259 -20.2257 -20.2257 -20.2137 -20.2137 -20.2116 -20.2116
   -20.2092 -20.2092 -20.2070 -20.2070  -9.3794  -9.3793  -8.7795  -8.7787
    -8.5260  -8.5233  -8.3618  -8.3574  -8.3286  -8.3256  -7.7323  -7.7320
     1.4760   1.4769   2.8097   2.8109   3.2218   3.2230   3.2371   3.2672
     3.4329   3.4419   3.5124   3.5596   3.7208   3.7356   4.3274   4.3309
     4.5322   4.5323   5.0186   5.1715   5.2528   5.3957   6.0670   6.0733
     6.6164   6.6316   6.7741   6.7904   7.2538   7.3005   7.3269   7.3507
     7.4426   7.4661   7.5261   7.5574  11.3263  11.3646  11.4590  11.5174
    12.1301  12.1414  12.5469  12.5510  12.7198  12.7440  13.5447  13.5706
    15.6726  15.6870  17.0235  17.0557  17.2279  17.2776

          k = 0.2222 0.4444 0.0000 ( 31138 PWs)   bands (ev):

   -66.0992 -66.0990 -66.0988 -66.0986 -30.5174 -30.5166 -30.4590 -30.4583
   -30.4284 -30.4256 -30.4155 -30.4129 -30.3618 -30.3591 -30.3491 -30.3465
   -20.2541 -20.2540 -20.2540 -20.2540 -20.2476 -20.2475 -20.2421 -20.2420
   -20.2362 -20.2361 -20.2350 -20.2349 -20.2348 -20.2347 -20.2336 -20.2335
   -20.2259 -20.2258 -20.2258 -20.2257 -20.2134 -20.2133 -20.2126 -20.2126
   -20.2082 -20.2081 -20.2074 -20.2073  -9.4561  -9.3179  -9.1183  -8.8975
    -8.7952  -8.6942  -8.1560  -8.1560  -7.9216  -7.9120  -7.7934  -7.7812
     1.5212   1.5701   1.7979   1.8692   2.2854   2.3186   2.7763   2.9323
     3.8631   3.9936   4.1804   4.2342   4.3482   4.4308   4.5547   4.6888
     4.8991   5.0665   5.3910   5.4877   5.5141   5.5234   5.7967   5.8523
     6.4944   6.5023   6.6087   6.7134   6.9311   6.9433   7.0420   7.1692
     7.2029   7.3563   7.9811   8.0839  10.4748  10.9075  11.9350  11.9707
    12.3387  12.3466  12.5502  12.6727  12.8595  12.9081  13.6814  13.9326
    14.5467  14.7898  16.4838  16.5169  17.1999  17.2593

          k = 0.2222 0.4444 0.1114 ( 31134 PWs)   bands (ev):

   -66.0992 -66.0989 -66.0989 -66.0986 -30.5135 -30.5127 -30.4629 -30.4622
   -30.4283 -30.4258 -30.4154 -30.4131 -30.3616 -30.3593 -30.3489 -30.3466
   -20.2541 -20.2540 -20.2540 -20.2540 -20.2472 -20.2471 -20.2425 -20.2424
   -20.2362 -20.2360 -20.2351 -20.2350 -20.2347 -20.2346 -20.2337 -20.2336
   -20.2259 -20.2258 -20.2258 -20.2257 -20.2134 -20.2133 -20.2126 -20.2126
   -20.2082 -20.2081 -20.2074 -20.2074  -9.4128  -9.2638  -9.1269  -8.9060
    -8.7643  -8.6736  -8.1624  -8.1542  -7.9340  -7.9203  -7.8833  -7.8620
     1.6820   1.7843   1.7975   1.9532   2.2840   2.3307   2.8488   3.0057
     3.8553   3.9793   4.1039   4.1993   4.2822   4.4331   4.5554   4.6361
     4.9026   4.9380   5.1610   5.2898   5.4454   5.5267   5.7616   5.8010
     6.4481   6.5384   6.7387   6.8525   6.9192   6.9665   7.0466   7.1695
     7.1968   7.3463   7.9215   8.0128  10.6209  11.0213  11.9355  11.9668
    12.3225  12.3507  12.5294  12.6002  12.7331  12.9524  13.5742  13.8316
    14.8705  15.1399  16.4542  16.6116  17.1597  17.3190

          k = 0.2222 0.4444 0.2227 ( 31138 PWs)   bands (ev):

   -66.0991 -66.0989 -66.0989 -66.0987 -30.5028 -30.5020 -30.4736 -30.4729
   -30.4278 -30.4264 -30.4150 -30.4136 -30.3612 -30.3598 -30.3485 -30.3471
   -20.2541 -20.2540 -20.2540 -20.2540 -20.2462 -20.2462 -20.2435 -20.2434
   -20.2360 -20.2358 -20.2353 -20.2352 -20.2345 -20.2344 -20.2339 -20.2338
   -20.2259 -20.2258 -20.2258 -20.2257 -20.2134 -20.2133 -20.2126 -20.2126
   -20.2082 -20.2081 -20.2074 -20.2074  -9.3116  -9.1561  -9.1317  -8.9361
    -8.6557  -8.5938  -8.2188  -8.1531  -8.1367  -8.0782  -7.9158  -7.9014
     1.7786   1.7960   2.2027   2.2795   2.5077   2.5354   3.0688   3.2273
     3.6917   3.7406   3.9573   4.0446   4.3956   4.4133   4.4496   4.5063
     4.6087   4.7573   4.8928   4.9401   5.2972   5.3293   5.5419   5.6422
     6.6786   6.7564   6.8908   6.9490   7.0006   7.0619   7.1245   7.1969
     7.2188   7.3177   7.7419   7.8029  11.0150  11.3359  11.9311  11.9394
    12.1626  12.2071  12.3527  12.4858  12.7455  13.0689  13.3220  13.5884
    15.5609  15.9407  16.3470  16.8799  17.0700  17.5027

          k = 0.2222 0.4444-0.3341 ( 31134 PWs)   bands (ev):

   -66.0990 -66.0990 -66.0988 -66.0988 -30.4882 -30.4882 -30.4875 -30.4875
   -30.4271 -30.4271 -30.4143 -30.4143 -30.3605 -30.3605 -30.3478 -30.3478
   -20.2540 -20.2540 -20.2540 -20.2540 -20.2449 -20.2449 -20.2448 -20.2448
   -20.2357 -20.2357 -20.2354 -20.2354 -20.2343 -20.2343 -20.2340 -20.2340
   -20.2259 -20.2259 -20.2258 -20.2258 -20.2134 -20.2133 -20.2126 -20.2126
   -20.2082 -20.2081 -20.2074 -20.2074  -9.2154  -9.2151  -9.0058  -9.0053
    -8.4498  -8.4478  -8.4100  -8.4097  -8.1363  -8.1354  -7.9100  -7.9094
     1.7915   1.7929   2.2682   2.2692   3.2381   3.2420   3.2458   3.2557
     3.5341   3.5766   3.6619   3.6788   3.9606   4.0499   4.4622   4.5501
     4.6789   4.6960   4.9251   5.0018   5.0683   5.0685   5.5546   5.5717
     6.8011   6.8074   6.9528   6.9665   7.0688   7.1498   7.1752   7.2219
     7.4374   7.4702   7.4788   7.5078  11.5219  11.5443  11.7832  11.8078
    11.9504  12.0197  12.3525  12.4247  12.9590  12.9968  13.3070  13.3445
    16.0787  16.1040  16.6284  16.6636  17.4345  17.4914

          k = 0.3333 0.3333 0.0000 ( 31140 PWs)   bands (ev):

   -66.0994 -66.0990 -66.0988 -66.0985 -30.5175 -30.5161 -30.4586 -30.4578
   -30.4408 -30.4375 -30.4161 -30.4135 -30.3613 -30.3586 -30.3374 -30.3347
   -20.2541 -20.2540 -20.2540 -20.2540 -20.2476 -20.2475 -20.2421 -20.2420
   -20.2365 -20.2362 -20.2352 -20.2349 -20.2348 -20.2345 -20.2335 -20.2333
   -20.2259 -20.2258 -20.2258 -20.2257 -20.2141 -20.2141 -20.2128 -20.2128
   -20.2080 -20.2080 -20.2066 -20.2065  -9.5596  -9.2899  -9.2740  -8.8686
    -8.8520  -8.6815  -8.1759  -8.1749  -7.8034  -7.7752  -7.7126  -7.6900
     1.3142   1.3481   1.5872   1.6243   2.2728   2.3058   2.6258   2.9214
     3.7807   3.8723   4.2008   4.2853   4.3151   4.8115   4.8370   4.9714
     5.2087   5.2138   5.3589   5.6345   5.6693   5.7586   6.0066   6.1854
     6.2738   6.3109   6.5424   6.5442   6.7221   6.8297   7.0348   7.1075
     7.1330   7.3421   7.9766   8.1580  10.0289  10.8934  11.8355  11.8788
    12.4761  12.4786  12.5381  12.5525  12.8872  13.1959  13.7180  14.1800
    14.3483  14.8160  15.9786  16.2713  17.2402  17.3980

          k = 0.3333 0.3333 0.1114 ( 31142 PWs)   bands (ev):

   -66.0993 -66.0990 -66.0988 -66.0985 -30.5136 -30.5122 -30.4626 -30.4617
   -30.4406 -30.4377 -30.4160 -30.4137 -30.3611 -30.3588 -30.3372 -30.3349
   -20.2541 -20.2540 -20.2540 -20.2540 -20.2472 -20.2471 -20.2425 -20.2424
   -20.2364 -20.2361 -20.2353 -20.2350 -20.2347 -20.2345 -20.2336 -20.2334
   -20.2259 -20.2259 -20.2258 -20.2257 -20.2141 -20.2141 -20.2128 -20.2128
   -20.2080 -20.2080 -20.2066 -20.2065  -9.5238  -9.2823  -9.2348  -8.8767
    -8.8138  -8.6619  -8.1822  -8.1729  -7.8976  -7.8734  -7.7112  -7.6916
     1.3319   1.3480   1.7862   1.8704   2.2712   2.3182   2.6963   2.9961
     3.7796   3.8672   4.1122   4.1470   4.2599   4.8058   4.8241   4.8760
     5.1555   5.1785   5.2018   5.3816   5.7395   5.7913   5.9844   6.1602
     6.2260   6.2735   6.5644   6.6779   6.8201   6.8376   7.0230   7.0732
     7.1210   7.3342   7.9166   8.0773  10.2242  11.0085  11.8374  11.8762
    12.3852  12.4453  12.5068  12.5900  12.7768  13.2171  13.6246  14.0846
    14.6305  15.1608  15.9470  16.3987  17.1959  17.4477

          k = 0.3333 0.3333 0.2227 ( 31138 PWs)   bands (ev):

   -66.0993 -66.0991 -66.0987 -66.0985 -30.5029 -30.5015 -30.4734 -30.4724
   -30.4400 -30.4383 -30.4156 -30.4142 -30.3606 -30.3593 -30.3367 -30.3354
   -20.2541 -20.2540 -20.2540 -20.2540 -20.2462 -20.2461 -20.2435 -20.2434
   -20.2362 -20.2360 -20.2355 -20.2352 -20.2345 -20.2343 -20.2338 -20.2336
   -20.2259 -20.2259 -20.2257 -20.2257 -20.2141 -20.2141 -20.2128 -20.2128
   -20.2080 -20.2080 -20.2065 -20.2065  -9.4411  -9.3094  -9.1003  -8.9054
    -8.6870  -8.5842  -8.2350  -8.1669  -8.1283  -8.0869  -7.7071  -7.6958
     1.3429   1.3476   2.1931   2.2666   2.5268   2.5395   2.9025   3.2225
     3.6285   3.7655   3.8555   3.8691   4.4005   4.4296   4.5120   4.8007
     4.8170   5.0002   5.2082   5.2166   5.3862   5.6521   6.1471   6.2072
     6.2401   6.2796   6.6268   6.8219   6.9164   6.9718   7.0709   7.1467
     7.1859   7.3013   7.7350   7.8426  10.7191  11.3180  11.8399  11.8689
    11.9803  12.2400  12.5310  12.6094  12.7306  13.1901  13.4972  13.8583
    15.1975  15.8407  15.9527  16.8118  17.0405  17.6312

          k = 0.3333 0.3333-0.3341 ( 31136 PWs)   bands (ev):

   -66.0992 -66.0992 -66.0987 -66.0986 -30.4882 -30.4882 -30.4870 -30.4870
   -30.4392 -30.4392 -30.4149 -30.4149 -30.3600 -30.3600 -30.3361 -30.3361
   -20.2540 -20.2540 -20.2540 -20.2540 -20.2449 -20.2449 -20.2448 -20.2448
   -20.2360 -20.2360 -20.2355 -20.2354 -20.2342 -20.2342 -20.2338 -20.2338
   -20.2259 -20.2259 -20.2257 -20.2257 -20.2141 -20.2141 -20.2128 -20.2128
   -20.2080 -20.2080 -20.2065 -20.2065  -9.3614  -9.3614  -8.9732  -8.9732
    -8.4644  -8.4644  -8.4002  -8.4002  -8.1536  -8.1536  -7.7015  -7.7015
     1.3464   1.3464   2.2558   2.2558   3.2256   3.2256   3.2479   3.2479
     3.4603   3.4603   3.6893   3.6893   3.8531   3.8531   4.6646   4.6646
     4.8634   4.8634   5.2329   5.2330   5.3858   5.3858   6.2052   6.2052
     6.2797   6.2797   6.7209   6.7209   7.0134   7.0134   7.2038   7.2038
     7.4392   7.4392   7.5008   7.5008  11.3248  11.3248  11.8176  11.8176
    11.8619  11.8620  12.5568  12.5568  12.9572  12.9572  13.6213  13.6213
    15.6179  15.6179  16.6719  16.6719  17.3861  17.3861

          k = 0.3333 0.4444 0.0000 ( 31139 PWs)   bands (ev):

   -66.0992 -66.0990 -66.0988 -66.0986 -30.5170 -30.5165 -30.4583 -30.4581
   -30.4382 -30.4351 -30.4295 -30.4268 -30.3481 -30.3455 -30.3398 -30.3372
   -20.2541 -20.2540 -20.2540 -20.2540 -20.2475 -20.2475 -20.2420 -20.2420
   -20.2365 -20.2364 -20.2353 -20.2352 -20.2346 -20.2345 -20.2334 -20.2333
   -20.2259 -20.2258 -20.2258 -20.2257 -20.2141 -20.2141 -20.2136 -20.2136
   -20.2071 -20.2071 -20.2066 -20.2066  -9.4929  -9.3949  -9.2008  -9.0631
    -8.8295  -8.7781  -7.9564  -7.9460  -7.7990  -7.7900  -7.7823  -7.7647
     1.4005   1.4521   1.5451   1.6592   1.7754   1.8518   2.6467   2.7495
     4.1979   4.3164   4.3603   4.4102   4.5398   4.6692   4.8073   4.8628
     5.4409   5.4662   5.5102   5.5450   5.6810   5.7039   5.8261   5.9567
     6.3605   6.4007   6.6196   6.6360   6.6815   6.7266   6.7799   6.9629
     7.0297   7.0679   8.0796   8.1385  10.1466  10.4644  12.1473  12.1803
    12.3432  12.3624  12.5670  12.6870  12.9192  13.1587  13.9406  14.1152
    14.4174  14.5861  16.1772  16.6039  16.7308  17.2608

          k = 0.3333 0.4444 0.1114 ( 31146 PWs)   bands (ev):

   -66.0992 -66.0990 -66.0988 -66.0986 -30.5131 -30.5126 -30.4622 -30.4620
   -30.4381 -30.4354 -30.4294 -30.4270 -30.3480 -30.3457 -30.3397 -30.3374
   -20.2541 -20.2540 -20.2540 -20.2540 -20.2472 -20.2471 -20.2424 -20.2424
   -20.2364 -20.2363 -20.2354 -20.2353 -20.2345 -20.2344 -20.2334 -20.2333
   -20.2259 -20.2258 -20.2258 -20.2257 -20.2141 -20.2141 -20.2136 -20.2136
   -20.2071 -20.2071 -20.2066 -20.2066  -9.4549  -9.3503  -9.2087  -9.0709
    -8.7930  -8.7479  -7.9610  -7.9549  -7.8918  -7.8727  -7.7881  -7.7679
     1.4294   1.4520   1.6807   1.7749   1.8765   1.9473   2.7186   2.8236
     4.0878   4.1452   4.2738   4.3346   4.5864   4.6951   4.8024   4.8782
     5.2277   5.2896   5.4197   5.5078   5.7424   5.7623   5.8167   5.9619
     6.3039   6.3428   6.6005   6.6347   6.7184   6.8101   6.8643   6.9597
     7.0104   7.0414   8.0073   8.0593  10.3286  10.6135  12.1514  12.1753
    12.3384  12.3547  12.4183  12.5621  12.9634  13.1977  13.8384  14.0170
    14.7081  14.9018  16.1434  16.5760  16.8364  17.3542

          k = 0.3333 0.4444 0.2227 ( 31149 PWs)   bands (ev):

   -66.0991 -66.0989 -66.0989 -66.0987 -30.5023 -30.5019 -30.4730 -30.4727
   -30.4375 -30.4359 -30.4290 -30.4275 -30.3475 -30.3461 -30.3392 -30.3378
   -20.2540 -20.2540 -20.2540 -20.2540 -20.2462 -20.2461 -20.2434 -20.2434
   -20.2362 -20.2361 -20.2356 -20.2355 -20.2343 -20.2342 -20.2336 -20.2336
   -20.2259 -20.2258 -20.2258 -20.2258 -20.2141 -20.2141 -20.2136 -20.2136
   -20.2071 -20.2071 -20.2066 -20.2066  -9.3677  -9.2472  -9.2347  -9.0973
    -8.6686  -8.6391  -8.1549  -8.1368  -7.9503  -7.9343  -7.7841  -7.7726
     1.4453   1.4514   1.7578   1.7734   2.5039   2.5251   2.9340   3.0505
     3.6641   3.7166   4.2732   4.3073   4.4762   4.4968   4.7184   4.7646
     4.8244   5.0131   5.2818   5.4968   5.5698   5.6530   5.9555   5.9802
     6.3151   6.3570   6.6096   6.6661   6.7722   6.9052   6.9778   7.0287
     7.0986   7.1216   7.7926   7.8273  10.7991  11.0138  11.9797  12.0783
    12.1599  12.1923  12.3723  12.4189  13.0920  13.3111  13.5953  13.7823
    15.3113  15.5876  16.0282  16.4495  17.2099  17.6703

          k = 0.3333 0.4444-0.3341 ( 31140 PWs)   bands (ev):

   -66.0990 -66.0990 -66.0988 -66.0988 -30.4877 -30.4877 -30.4873 -30.4873
   -30.4368 -30.4367 -30.4283 -30.4283 -30.3468 -30.3468 -30.3385 -30.3385
   -20.2540 -20.2540 -20.2540 -20.2540 -20.2448 -20.2448 -20.2448 -20.2448
   -20.2359 -20.2359 -20.2357 -20.2357 -20.2340 -20.2340 -20.2338 -20.2338
   -20.2258 -20.2258 -20.2258 -20.2258 -20.2141 -20.2141 -20.2136 -20.2136
   -20.2071 -20.2071 -20.2066 -20.2066  -9.2861  -9.2860  -9.1527  -9.1525
    -8.4410  -8.4405  -8.4228  -8.4226  -7.9440  -7.9437  -7.7785  -7.7783
     1.4496   1.4501   1.7695   1.7700   3.2222   3.2259   3.2329   3.2377
     3.4894   3.4966   3.5691   3.5742   4.2851   4.3218   4.7452   4.8054
     4.9944   5.0232   5.2171   5.2935   5.5415   5.5829   5.9700   5.9906
     6.3541   6.3673   6.6425   6.6631   6.8315   6.8485   7.0219   7.0324
     7.4502   7.4610   7.4734   7.4838  11.3931  11.3950  11.5632  11.5658
    12.1636  12.1823  12.3807  12.4008  13.2926  13.3052  13.5267  13.5390
    15.7759  15.7855  16.1501  16.1607  17.7281  17.7467

          k = 0.4444 0.4444 0.0000 ( 31174 PWs)   bands (ev):

   -66.0991 -66.0991 -66.0987 -66.0987 -30.5166 -30.5165 -30.4578 -30.4577
   -30.4420 -30.4390 -30.4385 -30.4357 -30.3393 -30.3368 -30.3363 -30.3338
   -20.2541 -20.2541 -20.2540 -20.2540 -20.2475 -20.2475 -20.2420 -20.2420
   -20.2366 -20.2365 -20.2354 -20.2354 -20.2344 -20.2344 -20.2332 -20.2332
   -20.2258 -20.2258 -20.2258 -20.2257 -20.2144 -20.2144 -20.2143 -20.2143
   -20.2065 -20.2064 -20.2063 -20.2062  -9.4979  -9.4626  -9.2211  -9.1743
    -8.8366  -8.8211  -7.8090  -7.7999  -7.7914  -7.7770  -7.7475  -7.7246
     1.3055   1.3270   1.3998   1.4403   1.6412   1.6660   2.5949   2.6306
     4.3699   4.3868   4.5884   4.6977   4.8155   4.8472   4.9127   4.9322
     5.4414   5.5160   5.5989   5.6077   5.7959   5.8874   5.9958   6.0838
     6.1352   6.2500   6.2790   6.3726   6.5864   6.7329   6.7716   6.8393
     7.0484   7.1113   8.1369   8.1560  10.0220  10.1425  12.2515  12.2972
    12.3077  12.3542  12.5266  12.5693  13.1726  13.2593  14.1211  14.1840
    14.3738  14.4311  16.0805  16.2310  16.9510  17.1630

          k = 0.4444 0.4444 0.1114 ( 31137 PWs)   bands (ev):

   -66.0991 -66.0990 -66.0988 -66.0987 -30.5127 -30.5125 -30.4617 -30.4617
   -30.4418 -30.4390 -30.4386 -30.4360 -30.3391 -30.3369 -30.3362 -30.3340
   -20.2540 -20.2540 -20.2540 -20.2540 -20.2471 -20.2471 -20.2424 -20.2424
   -20.2365 -20.2365 -20.2355 -20.2354 -20.2343 -20.2343 -20.2333 -20.2332
   -20.2258 -20.2258 -20.2258 -20.2257 -20.2144 -20.2144 -20.2143 -20.2143
   -20.2064 -20.2064 -20.2063 -20.2062  -9.4616  -9.4242  -9.2287  -9.1818
    -8.7983  -8.7848  -7.8933  -7.8885  -7.8074  -7.7867  -7.7462  -7.7263
     1.3158   1.3269   1.4213   1.4401   1.8740   1.8837   2.6662   2.7030
     4.1058   4.1262   4.6183   4.6944   4.8594   4.8985   4.9106   4.9321
     5.2729   5.3001   5.6697   5.7125   5.7376   5.8310   5.9788   6.1002
     6.1361   6.2304   6.2605   6.3559   6.6078   6.7474   6.8228   6.8807
     7.0008   7.0316   8.0571   8.0740  10.2206  10.3257  12.2636  12.3062
    12.3141  12.3324  12.3727  12.4378  13.2110  13.2951  14.0221  14.0865
    14.6520  14.7192  16.0464  16.1956  17.0791  17.2868

          k = 0.4444 0.4444 0.2227 ( 31129 PWs)   bands (ev):

   -66.0990 -66.0990 -66.0988 -66.0988 -30.5020 -30.5018 -30.4725 -30.4725
   -30.4412 -30.4395 -30.4381 -30.4366 -30.3387 -30.3373 -30.3358 -30.3344
   -20.2540 -20.2540 -20.2540 -20.2540 -20.2461 -20.2461 -20.2434 -20.2434
   -20.2363 -20.2363 -20.2357 -20.2357 -20.2341 -20.2341 -20.2335 -20.2335
   -20.2258 -20.2258 -20.2258 -20.2258 -20.2144 -20.2144 -20.2143 -20.2143
   -20.2064 -20.2064 -20.2063 -20.2062  -9.3790  -9.3369  -9.2534  -9.2067
    -8.6689  -8.6602  -8.1427  -8.1379  -7.8031  -7.7914  -7.7424  -7.7308
     1.3231   1.3266   1.4343   1.4396   2.5233   2.5365   2.8760   2.9207
     3.6436   3.6634   4.4644   4.4829   4.6541   4.7062   4.9121   4.9346
     5.0082   5.0826   5.5320   5.6026   5.8782   5.9659   6.0016   6.1194
     6.1352   6.1606   6.2737   6.3149   6.6691   6.7907   6.8783   6.9162
     7.0908   7.0987   7.8233   7.8350  10.7226  10.7983  11.9478  11.9810
    12.2829  12.3026  12.3393  12.3671  13.3276  13.4068  13.7855  13.8539
    15.2288  15.3257  15.9309  16.0749  17.5037  17.7183

          k = 0.4444 0.4444-0.3341 ( 31138 PWs)   bands (ev):

   -66.0989 -66.0989 -66.0989 -66.0989 -30.4873 -30.4873 -30.4872 -30.4872
   -30.4403 -30.4403 -30.4374 -30.4374 -30.3380 -30.3380 -30.3351 -30.3351
   -20.2540 -20.2540 -20.2540 -20.2540 -20.2448 -20.2448 -20.2448 -20.2448
   -20.2360 -20.2360 -20.2359 -20.2359 -20.2338 -20.2338 -20.2338 -20.2338
   -20.2258 -20.2258 -20.2258 -20.2258 -20.2144 -20.2144 -20.2143 -20.2143
   -20.2064 -20.2064 -20.2063 -20.2062  -9.3020  -9.3020  -9.2564  -9.2564
    -8.4352  -8.4352  -8.4298  -8.4298  -7.7972  -7.7972  -7.7367  -7.7367
     1.3256   1.3256   1.4382   1.4382   3.2105   3.2105   3.2168   3.2168
     3.4729   3.4729   3.4978   3.4978   4.6791   4.6791   4.9209   4.9209
     5.2494   5.2495   5.3325   5.3325   5.9496   5.9496   6.1119   6.1119
     6.1335   6.1335   6.2859   6.2860   6.7625   6.7625   6.8531   6.8531
     7.4658   7.4658   7.4762   7.4762  11.3488  11.3488  11.4068  11.4068
    12.2953  12.2953  12.3555  12.3555  13.5226  13.5226  13.6052  13.6052
    15.6850  15.6850  15.8137  15.8137  18.0726  18.0726

     the Fermi energy is     9.6147 ev

!    total energy              =   -3130.45027131 Ry
     Harris-Foulkes estimate   =   -3130.45027131 Ry
     estimated scf accuracy    <          1.7E-09 Ry

     The total energy is the sum of the following terms:

     one-electron contribution =   -2360.82078184 Ry
     hartree contribution      =    1299.24407822 Ry
     xc contribution           =    -483.00025766 Ry
     ewald contribution        =   -1585.87329152 Ry
     smearing contrib. (-TS)   =      -0.00001851 Ry

     convergence has been achieved in  12 iterations

     Writing output data file chempot_3.save/
 
     init_run     :      8.03s CPU      8.45s WALL (       1 calls)
     electrons    :    318.86s CPU    323.25s WALL (       1 calls)

     Called by init_run:
     wfcinit      :      7.10s CPU      7.45s WALL (       1 calls)
     potinit      :      0.35s CPU      0.37s WALL (       1 calls)
     hinit0       :      0.47s CPU      0.50s WALL (       1 calls)

     Called by electrons:
     c_bands      :    271.98s CPU    275.79s WALL (      12 calls)
     sum_band     :     42.78s CPU     42.96s WALL (      12 calls)
     v_of_rho     :      0.84s CPU      0.86s WALL (      13 calls)
     mix_rho      :      1.06s CPU      1.21s WALL (      12 calls)

     Called by c_bands:
     init_us_2    :      2.34s CPU      2.41s WALL (      50 calls)
     cegterg      :    199.19s CPU    202.84s WALL (      24 calls)

     Called by sum_band:

     Called by *egterg:
     h_psi        :    169.17s CPU    170.94s WALL (      94 calls)
     g_psi        :      0.87s CPU      0.87s WALL (      68 calls)
     cdiaghg      :      1.98s CPU      2.00s WALL (      92 calls)

     Called by h_psi:
     h_psi:pot    :    168.61s CPU    169.09s WALL (      94 calls)
     h_psi:calbec :     13.08s CPU     13.28s WALL (      94 calls)
     vloc_psi     :    140.80s CPU    141.01s WALL (      94 calls)
     add_vuspsi   :     14.74s CPU     14.80s WALL (      94 calls)

     General routines
     calbec       :     13.08s CPU     13.28s WALL (      94 calls)
     fft          :      0.35s CPU      0.36s WALL (      39 calls)
     ffts         :      0.11s CPU      0.11s WALL (      12 calls)
     fftw         :    145.35s CPU    145.53s WALL (   15674 calls)
 
     Parallel routines
 
     PWSCF        :   5m29.05s CPU   5m34.27s WALL

 
   This run was terminated on:  16:13:21   3Dec2019            

=------------------------------------------------------------------------------=
   JOB DONE.
=------------------------------------------------------------------------------=
