
     Program PWSCF v.6.2 (svn rev. 14038) starts on 20Mar2020 at  0: 0:19 

     This program is part of the open-source Quantum ESPRESSO suite
     for quantum simulation of materials; please cite
         "P. Giannozzi et al., J. Phys.:Condens. Matter 21 395502 (2009);
         "P. Giannozzi et al., J. Phys.:Condens. Matter 29 465901 (2017);
          URL http://www.quantum-espresso.org", 
     in publications or presentations arising from this work. More details at
     http://www.quantum-espresso.org/quote

     Parallel version (MPI), running on    40 processors

     MPI processes distributed on     6 nodes
     K-points division:     npool     =      40
     Reading input from rscf.in

     Current dimensions of program PWSCF are:
     Max number of different atomic species (ntypx) = 10
     Max number of k-points (npk) =  40000
     Max angular momentum in pseudopotentials (lmaxx) =  3

     Subspace diagonalization in iterative solution of the eigenvalue problem:
     a serial algorithm will be used

 
     G-vector sticks info
     --------------------
     sticks:   dense  smooth     PW     G-vecs:    dense   smooth      PW
     Sum        7747    7747   2077               498127   498127   69057
 


     bravais-lattice index     =            0
     lattice parameter (alat)  =      13.8397  a.u.
     unit-cell volume          =    2804.9816 (a.u.)^3
     number of atoms/cell      =           32
     number of atomic types    =            2
     number of electrons       =       368.00
     number of Kohn-Sham states=          221
     kinetic-energy cutoff     =     120.0000  Ry
     charge density cutoff     =     480.0000  Ry
     convergence threshold     =      1.0E-08
     mixing beta               =       0.7000
     number of iterations used =            8  plain     mixing
     Exchange-correlation      = SLA PW NOGX NOGC ( 1  4  0  0 0 0)
     nstep                     =           50


     celldm(1)=  13.839685  celldm(2)=   0.000000  celldm(3)=   0.000000
     celldm(4)=   0.000000  celldm(5)=   0.000000  celldm(6)=   0.000000

     crystal axes: (cart. coord. in units of alat)
               a(1) = (   1.000000   0.000000   0.000000 )  
               a(2) = (   0.000000   1.058160   0.000000 )  
               a(3) = (   0.000000   0.000000   1.000000 )  

     reciprocal axes: (cart. coord. in units 2 pi/alat)
               b(1) = (  1.000000  0.000000  0.000000 )  
               b(2) = (  0.000000  0.945037  0.000000 )  
               b(3) = (  0.000000  0.000000  1.000000 )  


     PseudoPot. # 1 for W  read from file:
     /cluster/scratch/mnoe/QE/pps/W_ONCV_LDA-4.0.upf
     MD5 check sum: ba0307d5d4cd419d6f1d13dc49d7c13a
     Pseudo is Norm-conserving + core correction, Zval = 28.0
     Generated using ONCVPSP code by D. R. Hamann
     Using radial grid of 1380 points,  8 beta functions with: 
                l(1) =   0
                l(2) =   0
                l(3) =   1
                l(4) =   1
                l(5) =   2
                l(6) =   2
                l(7) =   3
                l(8) =   3

     PseudoPot. # 2 for O  read from file:
     /cluster/scratch/mnoe/QE/pps/O_ONCV_LDA-3.0.upf
     MD5 check sum: a1bd6164e7280c17a38c229939bfbd54
     Pseudo is Norm-conserving + core correction, Zval =  6.0
     Generated using ONCVPSP code by D. R. Hamann
     Using radial grid of  926 points,  5 beta functions with: 
                l(1) =   0
                l(2) =   0
                l(3) =   1
                l(4) =   1
                l(5) =   2

     atomic species   valence    mass     pseudopotential
        W             28.00   183.84000     W ( 1.00)
        O              6.00    15.99940     O ( 1.00)

      8 Sym. Ops., with inversion, found ( 6 have fractional translation)



   Cartesian axes

     site n.     atom                  positions (alat units)
         1           W   tau(   1) = (   0.2495380   0.2974219   0.0004363  )
         2           W   tau(   2) = (   0.7504620   0.7607382  -0.0004363  )
         3           W   tau(   3) = (   0.2504620   0.2316581   0.5004363  )
         4           W   tau(   4) = (   0.7495380   0.8265019   0.4995637  )
         5           W   tau(   5) = (   0.7504620   0.2974219   0.4995637  )
         6           W   tau(   6) = (   0.2495380   0.7607382   0.5004363  )
         7           W   tau(   7) = (   0.7495380   0.2316581  -0.0004363  )
         8           W   tau(   8) = (   0.2504620   0.8265019   0.0004363  )
         9           O   tau(   9) = (   0.2491477   0.0085775   0.0001356  )
        10           O   tau(  10) = (   0.7508523  -0.0085775  -0.0001356  )
        11           O   tau(  11) = (   0.2508523   0.5205026   0.5001356  )
        12           O   tau(  12) = (   0.7491477   0.5376575   0.4998644  )
        13           O   tau(  13) = (   0.7508523   0.0085775   0.4998644  )
        14           O   tau(  14) = (   0.2491477  -0.0085775   0.5001356  )
        15           O   tau(  15) = (   0.7491477   0.5205026  -0.0001356  )
        16           O   tau(  16) = (   0.2508523   0.5376575   0.0001356  )
        17           O   tau(  17) = (   0.5001264   0.2636149   0.4514605  )
        18           O   tau(  18) = (   0.4998736   0.7945452   0.5485395  )
        19           O   tau(  19) = (  -0.0001264   0.2654651   0.9514605  )
        20           O   tau(  20) = (   0.0001264   0.7926949   0.0485395  )
        21           O   tau(  21) = (   0.4998736   0.2636149   0.0485395  )
        22           O   tau(  22) = (   0.5001264   0.7945452   0.9514605  )
        23           O   tau(  23) = (   0.0001264   0.2654651   0.5485395  )
        24           O   tau(  24) = (  -0.0001264   0.7926949   0.4514605  )
        25           O   tau(  25) = (   0.7014605   0.2643381   0.7498085  )
        26           O   tau(  26) = (   0.2985395   0.7938219   0.2501915  )
        27           O   tau(  27) = (   0.7985395   0.2647419   0.2498085  )
        28           O   tau(  28) = (   0.2014605   0.7934182   0.7501915  )
        29           O   tau(  29) = (   0.2985395   0.2643381   0.7501915  )
        30           O   tau(  30) = (   0.7014605   0.7938219   0.2498085  )
        31           O   tau(  31) = (   0.2014605   0.2647419   0.2501915  )
        32           O   tau(  32) = (   0.7985395   0.7934182   0.7498085  )

     number of k points=    64  gaussian smearing, width (Ry)=  0.0007
                       cart. coord. in units 2pi/alat
        k(    1) = (   0.0000000   0.0000000   0.0000000), wk =   0.0092593
        k(    2) = (   0.0000000   0.0000000   0.1666667), wk =   0.0185185
        k(    3) = (   0.0000000   0.0000000   0.3333333), wk =   0.0185185
        k(    4) = (   0.0000000   0.0000000  -0.5000000), wk =   0.0092593
        k(    5) = (   0.0000000   0.1575061   0.0000000), wk =   0.0185185
        k(    6) = (   0.0000000   0.1575061   0.1666667), wk =   0.0370370
        k(    7) = (   0.0000000   0.1575061   0.3333333), wk =   0.0370370
        k(    8) = (   0.0000000   0.1575061  -0.5000000), wk =   0.0185185
        k(    9) = (   0.0000000   0.3150122   0.0000000), wk =   0.0185185
        k(   10) = (   0.0000000   0.3150122   0.1666667), wk =   0.0370370
        k(   11) = (   0.0000000   0.3150122   0.3333333), wk =   0.0370370
        k(   12) = (   0.0000000   0.3150122  -0.5000000), wk =   0.0185185
        k(   13) = (   0.0000000  -0.4725183   0.0000000), wk =   0.0092593
        k(   14) = (   0.0000000  -0.4725183   0.1666667), wk =   0.0185185
        k(   15) = (   0.0000000  -0.4725183   0.3333333), wk =   0.0185185
        k(   16) = (   0.0000000  -0.4725183  -0.5000000), wk =   0.0092593
        k(   17) = (   0.1666667   0.0000000   0.1666667), wk =   0.0370370
        k(   18) = (   0.1666667   0.0000000   0.3333333), wk =   0.0370370
        k(   19) = (   0.1666667   0.0000000  -0.5000000), wk =   0.0185185
        k(   20) = (   0.1666667   0.1575061   0.1666667), wk =   0.0740741
        k(   21) = (   0.1666667   0.1575061   0.3333333), wk =   0.0740741
        k(   22) = (   0.1666667   0.1575061  -0.5000000), wk =   0.0370370
        k(   23) = (   0.1666667   0.3150122   0.1666667), wk =   0.0740741
        k(   24) = (   0.1666667   0.3150122   0.3333333), wk =   0.0740741
        k(   25) = (   0.1666667   0.3150122  -0.5000000), wk =   0.0370370
        k(   26) = (   0.1666667  -0.4725183   0.1666667), wk =   0.0370370
        k(   27) = (   0.1666667  -0.4725183   0.3333333), wk =   0.0370370
        k(   28) = (   0.1666667  -0.4725183  -0.5000000), wk =   0.0185185
        k(   29) = (   0.3333333   0.0000000   0.3333333), wk =   0.0370370
        k(   30) = (   0.3333333   0.0000000  -0.5000000), wk =   0.0185185
        k(   31) = (   0.3333333   0.1575061   0.3333333), wk =   0.0740741
        k(   32) = (   0.3333333   0.1575061  -0.5000000), wk =   0.0370370
        k(   33) = (   0.3333333   0.3150122   0.3333333), wk =   0.0740741
        k(   34) = (   0.3333333   0.3150122  -0.5000000), wk =   0.0370370
        k(   35) = (   0.3333333  -0.4725183   0.3333333), wk =   0.0370370
        k(   36) = (   0.3333333  -0.4725183  -0.5000000), wk =   0.0185185
        k(   37) = (  -0.5000000   0.0000000  -0.5000000), wk =   0.0092593
        k(   38) = (  -0.5000000   0.1575061  -0.5000000), wk =   0.0185185
        k(   39) = (  -0.5000000   0.3150122  -0.5000000), wk =   0.0185185
        k(   40) = (  -0.5000000  -0.4725183  -0.5000000), wk =   0.0092593
        k(   41) = (   0.1666667   0.0000000   0.0000000), wk =   0.0185185
        k(   42) = (   0.3333333   0.0000000   0.0000000), wk =   0.0185185
        k(   43) = (  -0.5000000   0.0000000   0.0000000), wk =   0.0092593
        k(   44) = (   0.1666667  -0.1575061   0.0000000), wk =   0.0370370
        k(   45) = (   0.3333333  -0.1575061   0.0000000), wk =   0.0370370
        k(   46) = (  -0.5000000  -0.1575061   0.0000000), wk =   0.0185185
        k(   47) = (   0.1666667  -0.3150122   0.0000000), wk =   0.0370370
        k(   48) = (   0.3333333  -0.3150122   0.0000000), wk =   0.0370370
        k(   49) = (  -0.5000000  -0.3150122   0.0000000), wk =   0.0185185
        k(   50) = (   0.1666667   0.4725183   0.0000000), wk =   0.0185185
        k(   51) = (   0.3333333   0.4725183   0.0000000), wk =   0.0185185
        k(   52) = (  -0.5000000   0.4725183   0.0000000), wk =   0.0092593
        k(   53) = (   0.3333333   0.0000000   0.1666667), wk =   0.0370370
        k(   54) = (  -0.5000000   0.0000000   0.1666667), wk =   0.0185185
        k(   55) = (   0.3333333  -0.1575061   0.1666667), wk =   0.0740741
        k(   56) = (  -0.5000000  -0.1575061   0.1666667), wk =   0.0370370
        k(   57) = (   0.3333333  -0.3150122   0.1666667), wk =   0.0740741
        k(   58) = (  -0.5000000  -0.3150122   0.1666667), wk =   0.0370370
        k(   59) = (   0.3333333   0.4725183   0.1666667), wk =   0.0370370
        k(   60) = (  -0.5000000   0.4725183   0.1666667), wk =   0.0185185
        k(   61) = (  -0.5000000   0.0000000   0.3333333), wk =   0.0185185
        k(   62) = (  -0.5000000  -0.1575061   0.3333333), wk =   0.0370370
        k(   63) = (  -0.5000000  -0.3150122   0.3333333), wk =   0.0370370
        k(   64) = (  -0.5000000   0.4725183   0.3333333), wk =   0.0185185

     Dense  grid:   498127 G-vectors     FFT dimensions: ( 100, 108, 100)

     Estimated max dynamical RAM per process >       3.15 GB

     Estimated total dynamical RAM >     125.81 GB

     Initial potential from superposition of free atoms

     starting charge  367.99656, renormalised to  368.00000
     Starting wfc are  232 randomized atomic wfcs

     total cpu time spent up to now is       66.1 secs

     Self-consistent Calculation

     iteration #  1     ecut=   120.00 Ry     beta= 0.70
     Davidson diagonalization with overlap
     ethr =  1.00E-02,  avg # of iterations =  5.1

     total cpu time spent up to now is      236.2 secs

     total energy              =   -6253.99500906 Ry
     Harris-Foulkes estimate   =   -6264.58838698 Ry
     estimated scf accuracy    <      13.41684322 Ry

     iteration #  2     ecut=   120.00 Ry     beta= 0.70
     Davidson diagonalization with overlap
     ethr =  3.65E-03,  avg # of iterations =  3.5

     total cpu time spent up to now is      396.4 secs

     total energy              =   -6250.85957037 Ry
     Harris-Foulkes estimate   =   -6270.78053956 Ry
     estimated scf accuracy    <      53.51513251 Ry

     iteration #  3     ecut=   120.00 Ry     beta= 0.70
     Davidson diagonalization with overlap
     ethr =  3.65E-03,  avg # of iterations =  3.3

     total cpu time spent up to now is      552.7 secs

     total energy              =   -6261.08462363 Ry
     Harris-Foulkes estimate   =   -6261.38366305 Ry
     estimated scf accuracy    <       0.97438804 Ry

     iteration #  4     ecut=   120.00 Ry     beta= 0.70
     Davidson diagonalization with overlap
     ethr =  2.65E-04,  avg # of iterations =  3.1

     total cpu time spent up to now is      675.3 secs

     total energy              =   -6261.09632396 Ry
     Harris-Foulkes estimate   =   -6261.16739291 Ry
     estimated scf accuracy    <       0.24183107 Ry

     iteration #  5     ecut=   120.00 Ry     beta= 0.70
     Davidson diagonalization with overlap
     ethr =  6.57E-05,  avg # of iterations =  4.5

     total cpu time spent up to now is      803.6 secs

     total energy              =   -6261.09092391 Ry
     Harris-Foulkes estimate   =   -6261.12589755 Ry
     estimated scf accuracy    <       0.07662628 Ry

     iteration #  6     ecut=   120.00 Ry     beta= 0.70
     Davidson diagonalization with overlap
     ethr =  2.08E-05,  avg # of iterations =  4.7

     total cpu time spent up to now is      942.6 secs

     total energy              =   -6261.10793234 Ry
     Harris-Foulkes estimate   =   -6261.10998108 Ry
     estimated scf accuracy    <       0.00555557 Ry

     iteration #  7     ecut=   120.00 Ry     beta= 0.70
     Davidson diagonalization with overlap
     ethr =  1.51E-06,  avg # of iterations =  4.0

     total cpu time spent up to now is     1079.1 secs

     total energy              =   -6261.10862255 Ry
     Harris-Foulkes estimate   =   -6261.10870545 Ry
     estimated scf accuracy    <       0.00017120 Ry

     iteration #  8     ecut=   120.00 Ry     beta= 0.70
     Davidson diagonalization with overlap
     ethr =  4.65E-08,  avg # of iterations =  3.1

     total cpu time spent up to now is     1248.0 secs

     total energy              =   -6261.10868231 Ry
     Harris-Foulkes estimate   =   -6261.10868618 Ry
     estimated scf accuracy    <       0.00001787 Ry

     iteration #  9     ecut=   120.00 Ry     beta= 0.70
     Davidson diagonalization with overlap
     ethr =  4.86E-09,  avg # of iterations =  2.0

     total cpu time spent up to now is     1379.7 secs

     total energy              =   -6261.10867988 Ry
     Harris-Foulkes estimate   =   -6261.10868389 Ry
     estimated scf accuracy    <       0.00001081 Ry

     iteration # 10     ecut=   120.00 Ry     beta= 0.70
     Davidson diagonalization with overlap
     ethr =  2.94E-09,  avg # of iterations =  2.0

     total cpu time spent up to now is     1504.6 secs

     total energy              =   -6261.10868129 Ry
     Harris-Foulkes estimate   =   -6261.10868146 Ry
     estimated scf accuracy    <       0.00000041 Ry

     iteration # 11     ecut=   120.00 Ry     beta= 0.70
     Davidson diagonalization with overlap
     ethr =  1.11E-10,  avg # of iterations =  3.0

     total cpu time spent up to now is     1657.8 secs

     total energy              =   -6261.10868140 Ry
     Harris-Foulkes estimate   =   -6261.10868144 Ry
     estimated scf accuracy    <       0.00000012 Ry

     iteration # 12     ecut=   120.00 Ry     beta= 0.70
     Davidson diagonalization with overlap
     ethr =  3.35E-11,  avg # of iterations =  2.1

     total cpu time spent up to now is     1780.7 secs

     total energy              =   -6261.10868139 Ry
     Harris-Foulkes estimate   =   -6261.10868140 Ry
     estimated scf accuracy    <       0.00000003 Ry

     iteration # 13     ecut=   120.00 Ry     beta= 0.70
     Davidson diagonalization with overlap
     ethr =  7.20E-12,  avg # of iterations =  2.7

     total cpu time spent up to now is     1934.5 secs

     End of self-consistent calculation

          k = 0.0000 0.0000 0.0000 ( 62239 PWs)   bands (ev):

   -66.1737 -66.1733 -66.1727 -66.1727 -66.1723 -66.1723 -66.1717 -66.1713
   -30.5596 -30.5562 -30.5562 -30.5529 -30.5270 -30.5269 -30.5237 -30.5237
   -30.5216 -30.5215 -30.5183 -30.5183 -30.5004 -30.4976 -30.4976 -30.4949
   -30.4250 -30.4250 -30.4224 -30.4223 -30.4206 -30.4205 -30.4179 -30.4179
   -20.3326 -20.3326 -20.3325 -20.3325 -20.3325 -20.3325 -20.3325 -20.3324
   -20.3143 -20.3140 -20.3140 -20.3138 -20.3094 -20.3094 -20.3090 -20.3090
   -20.3089 -20.3089 -20.3087 -20.3085 -20.3085 -20.3083 -20.3083 -20.3082
   -20.3078 -20.3078 -20.3076 -20.3076 -20.3071 -20.3071 -20.3069 -20.3069
   -20.3008 -20.3008 -20.3003 -20.3003 -20.3001 -20.3000 -20.2998 -20.2998
   -20.2991 -20.2990 -20.2987 -20.2987 -20.2986 -20.2986 -20.2983 -20.2982
   -20.2926 -20.2926 -20.2920 -20.2920 -20.2920 -20.2920 -20.2915 -20.2915
    -9.9668  -9.7038  -9.5247  -9.5246  -9.2805  -9.2804  -9.0866  -9.0742
    -9.0557  -8.8726  -8.8552  -8.8551  -7.8353  -7.7843  -7.7842  -7.7762
    -7.7762  -7.7582  -7.7582  -7.7244  -7.6376  -7.6376  -7.6162  -7.6162
     1.1302   1.1303   1.2261   1.2262   1.2408   1.2410   1.3551   1.5906
     1.6346   1.6346   1.6410   1.8327   2.3578   2.4318   2.5743   2.5743
     2.7199   2.7199   4.1330   4.1332   4.3311   4.3314   4.7963   4.7963
     4.8248   4.8249   4.8597   4.8600   5.0338   5.0338   5.0561   5.4622
     5.4623   5.5092   5.5095   5.5343   5.5343   5.5758   5.5761   5.8366
     5.8367   5.8813   5.8814   5.9171   5.9765   6.0363   6.0363   6.1045
     6.1046   6.2533   6.2534   6.5442   6.5443   6.8232   6.8233   6.8531
     6.8532   6.8629   7.0077   7.0275   7.0830   7.0831   7.3659   7.3660
     7.4036   7.4038   7.8105   7.8243   8.0812   8.0813   8.1530   8.1532
     9.2071   9.2115   9.9493   9.9493   9.9807   9.9808  12.2637  12.2644
    12.2822  12.2832  12.3329  12.3330  12.4810  12.4812  12.9322  12.9355
    13.2330  13.2333  13.3997  13.3999  13.7908  14.1556  14.1561  14.1605
    14.1620  14.3370  14.3383  14.9049  15.4201  15.4312  15.4539  16.0803
    16.0803  16.8610  17.0898  17.0899  17.4904

          k = 0.0000 0.0000 0.1667 ( 62262 PWs)   bands (ev):

   -66.1737 -66.1733 -66.1728 -66.1727 -66.1724 -66.1723 -66.1718 -66.1714
   -30.5596 -30.5565 -30.5563 -30.5532 -30.5266 -30.5233 -30.5219 -30.5207
   -30.5187 -30.5166 -30.5157 -30.5114 -30.4994 -30.4980 -30.4969 -30.4953
   -30.4317 -30.4291 -30.4272 -30.4247 -30.4246 -30.4220 -30.4208 -30.4182
   -20.3326 -20.3326 -20.3326 -20.3325 -20.3325 -20.3325 -20.3325 -20.3324
   -20.3143 -20.3141 -20.3140 -20.3138 -20.3094 -20.3093 -20.3090 -20.3089
   -20.3089 -20.3088 -20.3088 -20.3085 -20.3084 -20.3084 -20.3082 -20.3082
   -20.3079 -20.3078 -20.3077 -20.3076 -20.3072 -20.3071 -20.3069 -20.3069
   -20.3007 -20.3005 -20.3004 -20.3002 -20.3000 -20.3000 -20.2999 -20.2998
   -20.2988 -20.2987 -20.2986 -20.2985 -20.2984 -20.2983 -20.2983 -20.2983
   -20.2930 -20.2925 -20.2925 -20.2925 -20.2921 -20.2920 -20.2919 -20.2915
    -9.9188  -9.6497  -9.5412  -9.4586  -9.2942  -9.1894  -9.0644  -9.0465
    -9.0317  -8.8619  -8.8595  -8.8282  -7.9078  -7.8924  -7.8380  -7.7799
    -7.7730  -7.7704  -7.7702  -7.7498  -7.7492  -7.7278  -7.6470  -7.6254
     1.2147   1.2233   1.2295   1.2471   1.4265   1.4368   1.5033   1.6269
     1.6332   1.6877   1.7645   1.9450   2.4459   2.5232   2.5835   2.6633
     2.7114   2.8078   4.0771   4.1345   4.3173   4.3401   4.3525   4.4341
     4.6723   4.7701   4.8535   4.8685   4.8813   5.0210   5.0367   5.2782
     5.3329   5.4376   5.4942   5.5247   5.5821   5.5938   5.6238   5.6306
     5.7234   5.7913   5.8286   5.9193   5.9894   6.0937   6.1032   6.1141
     6.2726   6.4032   6.4799   6.5337   6.6882   6.7198   6.7933   6.8371
     6.8374   6.8452   6.9729   7.0010   7.0204   7.0924   7.1298   7.1327
     7.1832   7.2451   7.8226   7.8254   8.0409   8.0994   8.1099   8.1538
     9.5660   9.5971   9.9504   9.9785  10.2169  10.2642  12.1880  12.2321
    12.2518  12.3145  12.3545  12.3596  12.4836  12.5783  12.9272  12.9898
    13.0317  13.2252  13.2884  13.3996  13.9168  14.0109  14.0301  14.1530
    14.1593  14.3322  14.4623  15.0179  15.4195  15.4583  15.4884  16.0525
    16.3982  16.8233  17.0318  17.2828  17.5412

          k = 0.0000 0.0000 0.3333 ( 62268 PWs)   bands (ev):

   -66.1735 -66.1731 -66.1730 -66.1726 -66.1725 -66.1721 -66.1720 -66.1716
   -30.5594 -30.5574 -30.5561 -30.5541 -30.5256 -30.5229 -30.5223 -30.5197
   -30.5059 -30.5044 -30.4990 -30.4979 -30.4964 -30.4929 -30.4928 -30.4919
   -30.4499 -30.4476 -30.4454 -30.4429 -30.4239 -30.4216 -30.4212 -30.4190
   -20.3326 -20.3326 -20.3325 -20.3325 -20.3325 -20.3325 -20.3325 -20.3324
   -20.3143 -20.3142 -20.3140 -20.3139 -20.3093 -20.3091 -20.3090 -20.3089
   -20.3087 -20.3087 -20.3087 -20.3086 -20.3084 -20.3084 -20.3082 -20.3082
   -20.3080 -20.3079 -20.3077 -20.3077 -20.3075 -20.3072 -20.3070 -20.3069
   -20.3006 -20.3004 -20.3001 -20.2999 -20.2999 -20.2998 -20.2998 -20.2996
   -20.2991 -20.2991 -20.2987 -20.2987 -20.2974 -20.2973 -20.2971 -20.2970
   -20.2943 -20.2938 -20.2938 -20.2933 -20.2924 -20.2921 -20.2919 -20.2916
    -9.8031  -9.5923  -9.5259  -9.3363  -9.3020  -9.0947  -8.9478  -8.9299
    -8.8808  -8.8721  -8.7960  -8.7199  -8.2161  -8.2144  -8.1164  -8.0982
    -7.8154  -7.7900  -7.7621  -7.7451  -7.7371  -7.7223  -7.6728  -7.6509
     1.2380   1.2506   1.2629   1.2837   1.5535   1.5777   1.6113   1.6164
     2.2072   2.2451   2.4148   2.4946   2.6083   2.6979   2.7013   2.7910
     2.9053   3.0392   3.7225   3.8081   3.8409   3.9420   4.1812   4.2410
     4.2705   4.4794   4.5346   4.7874   4.8209   4.8220   4.9205   4.9746
     5.1365   5.1527   5.1712   5.3491   5.4382   5.4574   5.6554   5.6653
     5.7496   5.7614   5.8032   5.9807   6.0141   6.1503   6.2483   6.2857
     6.3052   6.4012   6.4979   6.5567   6.5654   6.5797   6.6643   6.7115
     6.8266   6.8385   6.8538   6.9821   7.0040   7.0480   7.0862   7.0987
     7.3168   7.3530   7.7503   7.7715   7.9163   7.9710   8.1360   8.1551
     9.9546   9.9720  10.3037  10.3669  10.8415  10.9441  11.8029  11.8435
    12.0723  12.4635  12.4675  12.4963  12.5117  12.5875  12.6762  12.8434
    12.9293  13.1025  13.1695  13.4052  13.6769  13.6871  14.1356  14.1559
    14.1624  14.3122  14.7835  15.3041  15.3091  15.6169  15.8957  15.9670
    16.2842  17.2574  17.4116  17.5739  17.8655

          k = 0.0000 0.0000-0.5000 ( 62264 PWs)   bands (ev):

   -66.1732 -66.1732 -66.1728 -66.1728 -66.1722 -66.1722 -66.1718 -66.1718
   -30.5585 -30.5585 -30.5552 -30.5552 -30.5242 -30.5242 -30.5210 -30.5210
   -30.5007 -30.5007 -30.4985 -30.4985 -30.4741 -30.4741 -30.4727 -30.4727
   -30.4697 -30.4697 -30.4679 -30.4679 -30.4228 -30.4228 -30.4201 -30.4201
   -20.3326 -20.3326 -20.3325 -20.3325 -20.3325 -20.3325 -20.3324 -20.3324
   -20.3142 -20.3142 -20.3140 -20.3140 -20.3092 -20.3092 -20.3088 -20.3088
   -20.3086 -20.3086 -20.3086 -20.3086 -20.3086 -20.3086 -20.3083 -20.3083
   -20.3078 -20.3078 -20.3077 -20.3077 -20.3075 -20.3075 -20.3070 -20.3070
   -20.3005 -20.3005 -20.3000 -20.3000 -20.2995 -20.2995 -20.2995 -20.2995
   -20.2992 -20.2992 -20.2992 -20.2992 -20.2959 -20.2959 -20.2955 -20.2955
   -20.2955 -20.2955 -20.2952 -20.2952 -20.2923 -20.2923 -20.2917 -20.2917
    -9.6812  -9.6812  -9.4111  -9.4111  -9.1645  -9.1645  -8.8941  -8.8941
    -8.5905  -8.5905  -8.5594  -8.5594  -8.5452  -8.5452  -8.4653  -8.4653
    -7.8034  -7.8034  -7.7496  -7.7496  -7.7086  -7.7086  -7.6863  -7.6863
     1.2477   1.2477   1.2808   1.2808   1.5932   1.5932   1.5992   1.5992
     2.6399   2.6399   2.9509   2.9509   3.0834   3.0834   3.1346   3.1346
     3.2360   3.2360   3.3022   3.3022   3.4180   3.4180   3.7544   3.7544
     3.8824   3.8824   4.4043   4.4043   4.7649   4.7649   4.8792   4.8792
     5.2365   5.2365   5.2963   5.2963   5.3074   5.3074   5.7120   5.7120
     5.7444   5.7444   5.9503   5.9503   6.1650   6.1650   6.2455   6.2455
     6.3123   6.3123   6.4418   6.4418   6.4895   6.4895   6.4977   6.4977
     6.7841   6.7841   6.8375   6.8375   7.0678   7.0678   7.4748   7.4749
     7.5352   7.5352   7.6922   7.6922   7.7146   7.7146   8.1523   8.1523
     9.9628   9.9628  11.1120  11.1120  11.1747  11.1747  11.5462  11.5462
    11.7519  11.7519  12.5239  12.5239  12.6886  12.6886  12.7819  12.7819
    12.9290  12.9290  13.2435  13.2435  13.4520  13.4520  14.1515  14.1515
    14.2676  14.2676  15.1009  15.1009  15.7373  15.7373  15.8185  15.8185
    16.6682  16.6682  17.8566  17.8566  18.1916

          k = 0.0000 0.1575 0.0000 ( 62231 PWs)   bands (ev):

   -66.1737 -66.1734 -66.1727 -66.1727 -66.1724 -66.1724 -66.1717 -66.1714
   -30.5557 -30.5523 -30.5523 -30.5490 -30.5268 -30.5267 -30.5239 -30.5239
   -30.5214 -30.5213 -30.5186 -30.5186 -30.5044 -30.5016 -30.5016 -30.4988
   -30.4248 -30.4248 -30.4225 -30.4225 -30.4204 -30.4204 -30.4181 -30.4181
   -20.3326 -20.3326 -20.3325 -20.3325 -20.3325 -20.3325 -20.3325 -20.3324
   -20.3140 -20.3137 -20.3137 -20.3134 -20.3094 -20.3094 -20.3092 -20.3090
   -20.3090 -20.3089 -20.3089 -20.3089 -20.3089 -20.3086 -20.3084 -20.3084
   -20.3078 -20.3078 -20.3076 -20.3076 -20.3072 -20.3072 -20.3069 -20.3069
   -20.3007 -20.3007 -20.3003 -20.3003 -20.3001 -20.3001 -20.2998 -20.2998
   -20.2991 -20.2990 -20.2987 -20.2987 -20.2986 -20.2986 -20.2983 -20.2982
   -20.2925 -20.2925 -20.2920 -20.2920 -20.2919 -20.2919 -20.2915 -20.2915
    -9.9401  -9.7146  -9.4925  -9.4924  -9.2875  -9.2873  -9.0858  -9.0750
    -8.9821  -8.8241  -8.8125  -8.8125  -7.9310  -7.8765  -7.8765  -7.8311
    -7.7826  -7.7825  -7.7600  -7.7600  -7.6362  -7.6362  -7.6177  -7.6176
     1.1302   1.1303   1.2326   1.2328   1.2408   1.2409   1.4652   1.5899
     1.8165   1.8703   1.8704   2.0292   2.3626   2.4267   2.6454   2.6454
     2.7871   2.7871   3.9989   3.9990   4.0762   4.0764   4.7986   4.7986
     4.8183   4.8194   4.8195   4.9209   4.9216   4.9960   4.9960   5.2828
     5.2829   5.4488   5.4488   5.6082   5.6083   5.6321   5.6510   5.6515
     5.8122   5.8123   5.9063   5.9064   5.9560   6.0391   6.0391   6.1111
     6.1112   6.2448   6.2449   6.5661   6.5662   6.8388   6.8517   6.8519
     6.8731   6.8847   6.8847   6.9956   6.9957   6.9985   7.3735   7.3736
     7.4033   7.4034   7.8155   7.8238   8.0402   8.0404   8.0715   8.0716
     9.2072   9.2111  10.1524  10.1524  10.1551  10.1551  12.1539  12.1541
    12.2811  12.2812  12.3261  12.3262  12.3318  12.3319  12.9325  12.9353
    13.2687  13.2689  13.4086  13.4087  14.0564  14.0583  14.0713  14.0718
    14.1333  14.6184  14.6188  15.0630  15.4205  15.4299  15.8582  16.0458
    16.0458  16.5568  17.2209  17.2210  17.5221

          k = 0.0000 0.1575 0.1667 ( 62237 PWs)   bands (ev):

   -66.1736 -66.1733 -66.1728 -66.1726 -66.1724 -66.1723 -66.1718 -66.1714
   -30.5558 -30.5526 -30.5525 -30.5493 -30.5263 -30.5236 -30.5217 -30.5207
   -30.5189 -30.5168 -30.5158 -30.5116 -30.5031 -30.5019 -30.5007 -30.4992
   -30.4316 -30.4293 -30.4271 -30.4248 -30.4245 -30.4222 -30.4206 -30.4184
   -20.3326 -20.3326 -20.3326 -20.3325 -20.3325 -20.3325 -20.3325 -20.3324
   -20.3140 -20.3137 -20.3137 -20.3134 -20.3093 -20.3093 -20.3092 -20.3090
   -20.3090 -20.3089 -20.3089 -20.3089 -20.3086 -20.3086 -20.3084 -20.3082
   -20.3079 -20.3077 -20.3077 -20.3076 -20.3073 -20.3071 -20.3070 -20.3069
   -20.3007 -20.3005 -20.3003 -20.3002 -20.3001 -20.3000 -20.2999 -20.2999
   -20.2988 -20.2987 -20.2986 -20.2985 -20.2984 -20.2984 -20.2983 -20.2983
   -20.2930 -20.2925 -20.2925 -20.2924 -20.2920 -20.2920 -20.2919 -20.2915
    -9.8911  -9.6605  -9.5091  -9.4221  -9.3014  -9.1965  -9.0452  -9.0325
    -8.9908  -8.8169  -8.8150  -8.7898  -7.9314  -7.9122  -7.9062  -7.8762
    -7.8561  -7.8407  -7.7712  -7.7690  -7.7508  -7.7475  -7.6456  -7.6269
     1.2196   1.2232   1.2376   1.2470   1.4742   1.5031   1.5758   1.7637
     1.8245   1.8638   1.8867   2.0793   2.4513   2.5177   2.6543   2.7364
     2.7790   2.8751   3.9705   4.0163   4.0648   4.1115   4.3684   4.4320
     4.7184   4.7256   4.8005   4.8606   4.8649   4.9215   5.0014   5.2409
     5.2500   5.2871   5.2947   5.4705   5.5713   5.5771   5.6420   5.7012
     5.7197   5.7669   5.8416   5.8655   5.8835   6.1006   6.1024   6.1498
     6.2012   6.3954   6.4522   6.5555   6.7196   6.7890   6.8039   6.8227
     6.8428   6.8923   6.9540   6.9576   7.0059   7.0110   7.1295   7.1325
     7.2001   7.2452   7.8253   7.8255   8.0017   8.0337   8.0437   8.0725
     9.5710   9.5953  10.1530  10.1563  10.3868  10.4069  12.1364  12.1961
    12.2303  12.2353  12.3205  12.3270  12.3331  12.4614  12.9289  12.9874
    13.0725  13.2609  13.2957  13.4064  13.9108  13.9387  14.0547  14.0691
    14.2561  14.6139  14.7666  15.1630  15.4579  15.4891  15.8247  16.0186
    16.3613  16.7135  16.9468  17.3942  17.5877

          k = 0.0000 0.1575 0.3333 ( 62284 PWs)   bands (ev):

   -66.1735 -66.1731 -66.1730 -66.1726 -66.1724 -66.1721 -66.1719 -66.1716
   -30.5555 -30.5535 -30.5522 -30.5502 -30.5253 -30.5227 -30.5226 -30.5199
   -30.5075 -30.5070 -30.5029 -30.5003 -30.4980 -30.4951 -30.4930 -30.4929
   -30.4498 -30.4477 -30.4452 -30.4431 -30.4237 -30.4215 -30.4214 -30.4192
   -20.3326 -20.3326 -20.3325 -20.3325 -20.3325 -20.3325 -20.3325 -20.3324
   -20.3140 -20.3138 -20.3137 -20.3135 -20.3093 -20.3092 -20.3091 -20.3090
   -20.3090 -20.3089 -20.3087 -20.3087 -20.3086 -20.3085 -20.3083 -20.3081
   -20.3079 -20.3079 -20.3077 -20.3076 -20.3075 -20.3072 -20.3071 -20.3070
   -20.3006 -20.3004 -20.3001 -20.2999 -20.2999 -20.2998 -20.2998 -20.2996
   -20.2991 -20.2991 -20.2987 -20.2987 -20.2974 -20.2973 -20.2972 -20.2970
   -20.2943 -20.2938 -20.2937 -20.2934 -20.2924 -20.2921 -20.2919 -20.2916
    -9.7731  -9.5602  -9.5362  -9.3441  -9.2509  -9.0219  -8.9373  -8.9334
    -8.8823  -8.8302  -8.7645  -8.6960  -8.2217  -8.2123  -8.1293  -8.0961
    -7.9080  -7.8856  -7.8612  -7.8353  -7.7439  -7.7239  -7.6714  -7.6524
     1.2501   1.2629   1.2684   1.2836   1.7512   1.7762   1.8554   1.8614
     2.2058   2.2604   2.4159   2.5163   2.6784   2.7096   2.7538   2.7945
     2.9797   3.1007   3.7217   3.8034   3.8317   3.8918   4.0752   4.1102
     4.2408   4.3353   4.5526   4.7394   4.7584   4.7981   4.8028   4.8666
     5.0356   5.1031   5.1305   5.1612   5.3643   5.4018   5.4687   5.6285
     5.6995   5.7511   5.8140   5.8641   5.9607   6.1275   6.1866   6.2452
     6.3344   6.5202   6.5603   6.5636   6.6480   6.6755   6.6830   6.7859
     6.8119   6.8289   6.9147   6.9533   6.9951   7.0226   7.0520   7.0870
     7.3099   7.3472   7.7544   7.7699   7.8825   7.9116   8.0638   8.0749
    10.1530  10.1547  10.3121  10.3679  10.9574  11.0365  11.8047  11.8411
    12.0319  12.3400  12.4332  12.4827  12.4927  12.5502  12.6314  12.7358
    12.9166  13.1055  13.1904  13.4039  13.5834  13.5953  14.0551  14.0650
    14.4677  14.5976  15.1324  15.4231  15.6065  15.7186  15.9157  15.9355
    16.4087  17.1813  17.2123  17.4626  17.8125

          k = 0.0000 0.1575-0.5000 ( 62234 PWs)   bands (ev):

   -66.1732 -66.1732 -66.1729 -66.1729 -66.1722 -66.1722 -66.1719 -66.1719
   -30.5546 -30.5546 -30.5513 -30.5513 -30.5240 -30.5240 -30.5212 -30.5212
   -30.5045 -30.5045 -30.5021 -30.5021 -30.4742 -30.4742 -30.4729 -30.4729
   -30.4697 -30.4697 -30.4680 -30.4680 -30.4226 -30.4226 -30.4203 -30.4203
   -20.3326 -20.3326 -20.3325 -20.3325 -20.3325 -20.3325 -20.3325 -20.3325
   -20.3139 -20.3139 -20.3136 -20.3136 -20.3092 -20.3092 -20.3091 -20.3091
   -20.3089 -20.3089 -20.3086 -20.3086 -20.3085 -20.3085 -20.3082 -20.3082
   -20.3079 -20.3079 -20.3077 -20.3077 -20.3076 -20.3076 -20.3070 -20.3070
   -20.3005 -20.3005 -20.3000 -20.3000 -20.2995 -20.2995 -20.2995 -20.2995
   -20.2992 -20.2992 -20.2992 -20.2992 -20.2959 -20.2959 -20.2955 -20.2955
   -20.2955 -20.2955 -20.2952 -20.2952 -20.2923 -20.2923 -20.2918 -20.2918
    -9.6496  -9.6496  -9.4201  -9.4201  -9.0970  -9.0970  -8.8565  -8.8565
    -8.5938  -8.5938  -8.5536  -8.5536  -8.5526  -8.5526  -8.4579  -8.4579
    -7.8984  -7.8984  -7.8494  -7.8494  -7.7073  -7.7073  -7.6878  -7.6878
     1.2646   1.2646   1.2807   1.2807   1.7814   1.7814   1.8648   1.8648
     2.7073   2.7073   2.9668   2.9668   3.0759   3.0760   3.1778   3.1778
     3.2417   3.2417   3.2997   3.2997   3.4075   3.4075   3.7576   3.7576
     3.9328   3.9328   4.2207   4.2207   4.6442   4.6442   4.7437   4.7437
     5.0772   5.0772   5.2779   5.2779   5.2782   5.2782   5.4882   5.4882
     5.7118   5.7118   5.8414   5.8414   6.1625   6.1625   6.3104   6.3104
     6.3213   6.3213   6.4630   6.4630   6.4871   6.4871   6.6757   6.6757
     6.8527   6.8527   6.8566   6.8566   6.9770   6.9770   7.4861   7.4861
     7.5294   7.5294   7.6672   7.6672   7.6835   7.6835   8.0743   8.0743
    10.1559  10.1559  11.1170  11.1170  11.1723  11.1723  11.6111  11.6111
    11.8134  11.8134  12.3946  12.3946  12.6627  12.6627  12.7894  12.7894
    12.8672  12.8672  13.1466  13.1466  13.4247  13.4247  14.0598  14.0598
    14.5621  14.5621  15.4747  15.4747  15.7941  15.7941  15.8749  15.8749
    16.7092  16.7092  17.6599  17.6599  18.1735

          k = 0.0000 0.3150 0.0000 ( 62175 PWs)   bands (ev):

   -66.1736 -66.1734 -66.1726 -66.1726 -66.1724 -66.1724 -66.1716 -66.1714
   -30.5449 -30.5417 -30.5416 -30.5385 -30.5262 -30.5261 -30.5245 -30.5245
   -30.5208 -30.5207 -30.5192 -30.5191 -30.5152 -30.5123 -30.5123 -30.5095
   -30.4244 -30.4243 -30.4230 -30.4230 -30.4199 -30.4199 -30.4186 -30.4185
   -20.3326 -20.3326 -20.3325 -20.3325 -20.3325 -20.3325 -20.3325 -20.3324
   -20.3130 -20.3127 -20.3127 -20.3124 -20.3102 -20.3099 -20.3099 -20.3096
   -20.3093 -20.3093 -20.3090 -20.3090 -20.3088 -20.3088 -20.3085 -20.3085
   -20.3076 -20.3076 -20.3074 -20.3074 -20.3073 -20.3073 -20.3071 -20.3070
   -20.3006 -20.3006 -20.3003 -20.3002 -20.3002 -20.3002 -20.2999 -20.2999
   -20.2991 -20.2991 -20.2987 -20.2987 -20.2986 -20.2986 -20.2983 -20.2982
   -20.2924 -20.2924 -20.2922 -20.2922 -20.2919 -20.2919 -20.2916 -20.2916
    -9.8752  -9.7477  -9.4204  -9.4203  -9.3101  -9.3099  -9.0835  -9.0773
    -8.7742  -8.6749  -8.6724  -8.6724  -8.1742  -8.1293  -8.1292  -8.1027
    -7.7779  -7.7778  -7.7648  -7.7648  -7.6323  -7.6323  -7.6216  -7.6216
     1.1302   1.1303   1.2380   1.2382   1.2406   1.2408   1.5557   1.5872
     2.3758   2.3849   2.4128   2.5317   2.5318   2.6959   2.8546   2.8547
     2.9833   2.9834   3.6186   3.6188   3.6630   3.6632   4.1489   4.4715
     4.4715   4.7534   4.8050   4.8050   4.8307   4.8307   5.0570   5.0571
     5.0892   5.0893   5.3677   5.3677   5.6073   5.6073   5.6611   5.6612
     5.8637   5.8637   5.8918   5.8919   6.0322   6.0322   6.0702   6.1313
     6.1313   6.2092   6.2095   6.5158   6.6285   6.6285   6.8483   6.8484
     6.9006   6.9731   7.0971   7.0971   7.1099   7.1099   7.3829   7.3829
     7.4056   7.4057   7.8189   7.8223   7.8336   7.8336   7.8645   7.8646
     9.2078   9.2100  10.6178  10.6179  10.6630  10.6630  11.7742  11.7744
    11.8990  11.8991  12.3057  12.3058  12.3283  12.3283  12.9332  12.9348
    13.3805  13.3807  13.4733  13.4735  13.8257  13.8257  13.8574  13.8576
    14.7942  15.2055  15.2056  15.4218  15.4270  15.6406  15.9280  15.9281
    15.9951  16.8601  17.2412  17.6725  17.6726

          k = 0.0000 0.3150 0.1667 ( 62260 PWs)   bands (ev):

   -66.1736 -66.1734 -66.1727 -66.1726 -66.1725 -66.1724 -66.1717 -66.1715
   -30.5451 -30.5420 -30.5420 -30.5388 -30.5257 -30.5242 -30.5211 -30.5209
   -30.5196 -30.5181 -30.5172 -30.5126 -30.5121 -30.5111 -30.5106 -30.5098
   -30.4311 -30.4298 -30.4266 -30.4253 -30.4240 -30.4227 -30.4202 -30.4189
   -20.3326 -20.3326 -20.3325 -20.3325 -20.3325 -20.3325 -20.3325 -20.3324
   -20.3130 -20.3127 -20.3127 -20.3125 -20.3102 -20.3100 -20.3100 -20.3097
   -20.3092 -20.3092 -20.3090 -20.3089 -20.3089 -20.3087 -20.3085 -20.3084
   -20.3077 -20.3076 -20.3075 -20.3074 -20.3074 -20.3073 -20.3071 -20.3071
   -20.3006 -20.3004 -20.3002 -20.3002 -20.3001 -20.3001 -20.3000 -20.3000
   -20.2988 -20.2988 -20.2986 -20.2985 -20.2984 -20.2984 -20.2983 -20.2983
   -20.2929 -20.2926 -20.2924 -20.2923 -20.2921 -20.2921 -20.2919 -20.2916
    -9.8239  -9.6938  -9.4366  -9.3403  -9.3245  -9.2198  -9.0421  -9.0350
    -8.7827  -8.6774  -8.6692  -8.6593  -8.1745  -8.1385  -8.1262  -8.1097
    -7.9018  -7.8881  -7.7671  -7.7651  -7.7552  -7.7536  -7.6417  -7.6309
     1.2221   1.2231   1.2439   1.2468   1.4951   1.5024   1.7189   1.7605
     2.3866   2.4653   2.5034   2.5068   2.5322   2.6825   2.8625   2.9594
     2.9760   3.0802   3.6200   3.6542   3.6643   3.7037   4.1410   4.3915
     4.3919   4.4851   4.5007   4.7563   4.7820   4.8550   4.8807   4.8917
     5.0536   5.0950   5.1577   5.2791   5.4220   5.4456   5.6054   5.6108
     5.6709   5.7542   5.7777   5.8456   6.0374   6.0942   6.1087   6.1237
     6.2422   6.4092   6.4121   6.5808   6.6179   6.8352   6.8731   6.9198
     6.9601   6.9693   7.0682   7.0896   7.0985   7.1063   7.1301   7.1340
     7.2412   7.2561   7.8088   7.8145   7.8234   7.8355   7.8449   7.8558
     9.5797   9.5916  10.6228  10.6627  10.8040  10.8327  11.7734  11.8717
    11.9003  11.9776  12.2102  12.2269  12.3561  12.3873  12.9407  12.9790
    13.1939  13.3506  13.3707  13.4688  13.6720  13.7225  13.8242  13.8539
    14.9271  15.1983  15.4176  15.4541  15.4942  15.7118  15.9034  16.1576
    16.2337  16.8233  17.3078  17.3513  17.7893

          k = 0.0000 0.3150 0.3333 ( 62269 PWs)   bands (ev):

   -66.1734 -66.1732 -66.1729 -66.1727 -66.1724 -66.1722 -66.1719 -66.1717
   -30.5449 -30.5429 -30.5418 -30.5397 -30.5247 -30.5232 -30.5221 -30.5205
   -30.5163 -30.5145 -30.5136 -30.5108 -30.4984 -30.4981 -30.4940 -30.4935
   -30.4494 -30.4482 -30.4448 -30.4436 -30.4232 -30.4219 -30.4210 -30.4197
   -20.3326 -20.3326 -20.3326 -20.3325 -20.3325 -20.3325 -20.3325 -20.3324
   -20.3130 -20.3128 -20.3127 -20.3125 -20.3102 -20.3101 -20.3100 -20.3098
   -20.3091 -20.3089 -20.3088 -20.3088 -20.3086 -20.3085 -20.3084 -20.3081
   -20.3080 -20.3078 -20.3077 -20.3076 -20.3075 -20.3074 -20.3072 -20.3071
   -20.3005 -20.3003 -20.3002 -20.3000 -20.2999 -20.2998 -20.2998 -20.2997
   -20.2991 -20.2991 -20.2987 -20.2987 -20.2974 -20.2972 -20.2972 -20.2971
   -20.2942 -20.2939 -20.2937 -20.2934 -20.2923 -20.2920 -20.2920 -20.2917
    -9.7013  -9.5684  -9.4869  -9.3691  -9.1304  -8.9632  -8.9103  -8.8871
    -8.8159  -8.6945  -8.6441  -8.6041  -8.2604  -8.2336  -8.2054  -8.1343
    -8.1202  -8.0913  -8.0894  -8.0216  -7.7398  -7.7282  -7.6675  -7.6565
     1.2588   1.2626   1.2791   1.2832   2.1410   2.2016   2.2654   2.3988
     2.4128   2.5115   2.5334   2.7130   2.7600   2.7658   2.8835   2.9613
     3.2052   3.2891   3.5976   3.6256   3.7165   3.7377   3.7985   3.8102
     4.1175   4.2998   4.3884   4.4116   4.5011   4.5566   4.6079   4.7552
     4.7802   4.8378   4.9877   5.0761   5.1391   5.1862   5.1954   5.3527
     5.3670   5.5563   5.6611   5.8063   6.1252   6.1713   6.2042   6.2489
     6.4133   6.5839   6.6239   6.6291   6.6795   6.7948   6.8033   6.8141
     6.8883   6.9513   7.0254   7.0554   7.0702   7.1288   7.1628   7.1787
     7.2800   7.3333   7.7314   7.7425   7.7566   7.7616   7.8413   7.8551
    10.3289  10.3506  10.6400  10.6584  11.2702  11.3124  11.7633  11.8058
    11.8344  11.9312  12.1683  12.2067  12.5195  12.5874  12.6290  12.6900
    12.8657  13.1295  13.1576  13.3759  13.4616  13.4688  13.8294  13.8477
    15.0771  15.1751  15.5637  15.8291  15.9321  15.9355  16.0035  16.6731
    16.6965  16.8140  17.0531  17.5333  17.6494

          k = 0.0000 0.3150-0.5000 ( 62306 PWs)   bands (ev):

   -66.1731 -66.1731 -66.1729 -66.1729 -66.1721 -66.1721 -66.1719 -66.1719
   -30.5440 -30.5440 -30.5408 -30.5408 -30.5234 -30.5234 -30.5219 -30.5219
   -30.5149 -30.5149 -30.5123 -30.5123 -30.4742 -30.4742 -30.4733 -30.4733
   -30.4695 -30.4695 -30.4685 -30.4685 -30.4221 -30.4221 -30.4208 -30.4208
   -20.3326 -20.3326 -20.3325 -20.3325 -20.3325 -20.3325 -20.3325 -20.3325
   -20.3129 -20.3129 -20.3126 -20.3126 -20.3102 -20.3102 -20.3099 -20.3099
   -20.3090 -20.3090 -20.3087 -20.3087 -20.3084 -20.3084 -20.3081 -20.3081
   -20.3081 -20.3081 -20.3077 -20.3077 -20.3075 -20.3075 -20.3071 -20.3071
   -20.3004 -20.3004 -20.3001 -20.3001 -20.2995 -20.2995 -20.2995 -20.2995
   -20.2992 -20.2992 -20.2992 -20.2992 -20.2958 -20.2958 -20.2956 -20.2956
   -20.2955 -20.2955 -20.2953 -20.2953 -20.2922 -20.2922 -20.2919 -20.2919
    -9.5755  -9.5755  -9.4486  -9.4486  -8.9145  -8.9145  -8.7479  -8.7479
    -8.6061  -8.6061  -8.5884  -8.5884  -8.5197  -8.5197  -8.4279  -8.4279
    -8.1326  -8.1326  -8.0935  -8.0935  -7.7033  -7.7033  -7.6920  -7.6920
     1.2757   1.2757   1.2803   1.2803   2.3838   2.3838   2.5178   2.5178
     2.9012   2.9012   3.0128   3.0128   3.0523   3.0523   3.2445   3.2445
     3.2932   3.2932   3.2988   3.2988   3.3671   3.3671   3.6186   3.6186
     4.0584   4.0584   4.1075   4.1075   4.1131   4.1131   4.3600   4.3600
     4.8090   4.8090   4.9219   4.9219   5.1392   5.1392   5.2536   5.2536
     5.3892   5.3892   5.7328   5.7328   6.2721   6.2721   6.3229   6.3229
     6.4429   6.4429   6.4926   6.4926   6.5298   6.5298   6.7570   6.7570
     7.0432   7.0432   7.0601   7.0601   7.0973   7.0973   7.5001   7.5001
     7.5142   7.5142   7.5682   7.5682   7.5926   7.5926   7.8489   7.8489
    10.6446  10.6446  11.1296  11.1296  11.1662  11.1662  11.6796  11.6796
    12.0007  12.0007  12.1270  12.1270  12.5392  12.5392  12.6360  12.6360
    12.8118  12.8118  12.9551  12.9551  13.4531  13.4531  13.8393  13.8393
    15.1355  15.1355  15.7085  15.7085  16.2945  16.2945  16.4342  16.4342
    16.8709  16.8709  17.2808  17.2808  17.9688

          k = 0.0000-0.4725 0.0000 ( 62212 PWs)   bands (ev):

   -66.1736 -66.1735 -66.1725 -66.1725 -66.1725 -66.1725 -66.1715 -66.1715
   -30.5303 -30.5303 -30.5271 -30.5271 -30.5271 -30.5271 -30.5253 -30.5253
   -30.5251 -30.5251 -30.5240 -30.5240 -30.5199 -30.5199 -30.5199 -30.5198
   -30.4237 -30.4237 -30.4237 -30.4237 -30.4192 -30.4192 -30.4192 -30.4192
   -20.3326 -20.3326 -20.3325 -20.3325 -20.3325 -20.3325 -20.3324 -20.3324
   -20.3116 -20.3116 -20.3113 -20.3113 -20.3113 -20.3113 -20.3110 -20.3110
   -20.3092 -20.3091 -20.3091 -20.3091 -20.3087 -20.3087 -20.3087 -20.3087
   -20.3075 -20.3075 -20.3075 -20.3074 -20.3073 -20.3072 -20.3072 -20.3072
   -20.3004 -20.3004 -20.3004 -20.3004 -20.3001 -20.3001 -20.3001 -20.3001
   -20.2991 -20.2991 -20.2987 -20.2987 -20.2987 -20.2987 -20.2983 -20.2982
   -20.2923 -20.2923 -20.2923 -20.2923 -20.2917 -20.2917 -20.2917 -20.2917
    -9.8035  -9.8035  -9.3533  -9.3533  -9.3532  -9.3532  -9.0804  -9.0804
    -8.4780  -8.4780  -8.4282  -8.4281  -8.4281  -8.4281  -8.4236  -8.4236
    -7.7714  -7.7714  -7.7713  -7.7713  -7.6270  -7.6270  -7.6269  -7.6269
     1.1303   1.1303   1.2400   1.2400   1.2401   1.2401   1.5795   1.5795
     2.3941   2.3941   3.1877   3.1877   3.1886   3.1886   3.2466   3.2467
     3.2896   3.2896   3.2898   3.2898   3.4711   3.4711   3.4712   3.4712
     3.6779   3.6779   4.8145   4.8145   4.8146   4.8146   5.2200   5.2200
     5.2202   5.2202   5.3377   5.3377   5.3378   5.3378   5.7377   5.7377
     5.7377   5.7377   5.9966   5.9966   5.9968   5.9968   6.1649   6.1649
     6.1651   6.1651   6.2559   6.2559   6.7242   6.7242   6.7243   6.7243
     6.9373   6.9373   7.3748   7.3748   7.3749   7.3749   7.4740   7.4740
     7.4741   7.4741   7.5431   7.5431   7.5431   7.5432   7.8208   7.8208
     9.2088   9.2088  11.2145  11.2145  11.2146  11.2146  11.2992  11.2992
    11.2994  11.2994  12.3207  12.3207  12.3208  12.3208  12.9340  12.9340
    13.5735  13.5735  13.5738  13.5738  13.6307  13.6307  13.6309  13.6309
    15.3994  15.3994  15.4240  15.4240  15.6750  15.6750  15.6751  15.6751
    16.5235  16.5235  17.9873  18.1011  18.1011

          k = 0.0000-0.4725 0.1667 ( 62246 PWs)   bands (ev):

   -66.1735 -66.1735 -66.1726 -66.1726 -66.1725 -66.1725 -66.1716 -66.1716
   -30.5308 -30.5308 -30.5282 -30.5282 -30.5275 -30.5274 -30.5249 -30.5249
   -30.5243 -30.5243 -30.5202 -30.5202 -30.5172 -30.5172 -30.5125 -30.5125
   -30.4305 -30.4304 -30.4259 -30.4259 -30.4234 -30.4234 -30.4195 -30.4195
   -20.3326 -20.3326 -20.3325 -20.3325 -20.3325 -20.3325 -20.3325 -20.3324
   -20.3116 -20.3116 -20.3114 -20.3113 -20.3113 -20.3113 -20.3111 -20.3111
   -20.3091 -20.3091 -20.3090 -20.3090 -20.3087 -20.3087 -20.3086 -20.3086
   -20.3076 -20.3076 -20.3074 -20.3074 -20.3073 -20.3073 -20.3073 -20.3072
   -20.3004 -20.3004 -20.3002 -20.3002 -20.3001 -20.3001 -20.3000 -20.3000
   -20.2988 -20.2988 -20.2985 -20.2985 -20.2984 -20.2984 -20.2983 -20.2983
   -20.2928 -20.2928 -20.2923 -20.2923 -20.2922 -20.2922 -20.2918 -20.2918
    -9.7503  -9.7503  -9.3687  -9.3687  -9.2658  -9.2658  -9.0384  -9.0384
    -8.4836  -8.4836  -8.4347  -8.4346  -8.4236  -8.4236  -8.4224  -8.4223
    -7.8955  -7.8955  -7.7613  -7.7613  -7.7594  -7.7594  -7.6363  -7.6363
     1.2228   1.2228   1.2461   1.2461   1.5006   1.5006   1.7510   1.7510
     2.4844   2.4844   3.1928   3.1929   3.2085   3.2085   3.2455   3.2455
     3.2824   3.2824   3.3297   3.3297   3.4681   3.4681   3.5223   3.5223
     3.7038   3.7038   4.4129   4.4129   4.8657   4.8657   4.9719   4.9719
     5.1391   5.1391   5.1997   5.1997   5.3487   5.3488   5.4740   5.4740
     5.7100   5.7100   5.7610   5.7610   6.1079   6.1079   6.1128   6.1128
     6.3884   6.3884   6.4084   6.4084   6.7138   6.7139   6.9072   6.9073
     6.9990   6.9990   7.1301   7.1301   7.1929   7.1929   7.4598   7.4598
     7.4805   7.4805   7.5101   7.5101   7.5293   7.5293   7.8276   7.8276
     9.5866   9.5866  11.2196  11.2196  11.2924  11.2924  11.3451  11.3451
    11.4226  11.4226  12.2200  12.2200  12.3726  12.3726  12.9624  12.9624
    13.3931  13.3931  13.4968  13.4968  13.5788  13.5788  13.6268  13.6268
    15.4057  15.4057  15.6196  15.6196  15.6576  15.6576  15.9513  15.9513
    16.5868  16.5868  17.9047  17.9048  18.0569

          k = 0.0000-0.4725 0.3333 ( 62268 PWs)   bands (ev):

   -66.1733 -66.1733 -66.1728 -66.1728 -66.1723 -66.1723 -66.1718 -66.1718
   -30.5305 -30.5305 -30.5284 -30.5283 -30.5277 -30.5277 -30.5253 -30.5253
   -30.5239 -30.5239 -30.5212 -30.5212 -30.4987 -30.4987 -30.4939 -30.4939
   -30.4488 -30.4488 -30.4442 -30.4442 -30.4226 -30.4225 -30.4203 -30.4203
   -20.3326 -20.3326 -20.3325 -20.3325 -20.3325 -20.3325 -20.3325 -20.3325
   -20.3116 -20.3116 -20.3114 -20.3114 -20.3113 -20.3113 -20.3112 -20.3112
   -20.3090 -20.3090 -20.3088 -20.3088 -20.3087 -20.3086 -20.3083 -20.3083
   -20.3078 -20.3078 -20.3076 -20.3076 -20.3074 -20.3074 -20.3073 -20.3073
   -20.3004 -20.3003 -20.3002 -20.3002 -20.2999 -20.2999 -20.2997 -20.2997
   -20.2991 -20.2991 -20.2987 -20.2987 -20.2973 -20.2973 -20.2972 -20.2972
   -20.2940 -20.2940 -20.2936 -20.2936 -20.2922 -20.2922 -20.2919 -20.2919
    -9.6249  -9.6249  -9.4162  -9.4162  -9.0217  -9.0217  -8.8956  -8.8956
    -8.5206  -8.5206  -8.4658  -8.4657  -8.4175  -8.4175  -8.4011  -8.4010
    -8.1887  -8.1887  -8.0750  -8.0750  -7.7340  -7.7340  -7.6620  -7.6620
     1.2616   1.2616   1.2821   1.2822   2.1919   2.1919   2.3934   2.3934
     2.7469   2.7469   3.2038   3.2038   3.2346   3.2346   3.2379   3.2379
     3.2619   3.2619   3.4078   3.4078   3.4549   3.4549   3.6755   3.6755
     3.7570   3.7570   3.7901   3.7901   4.4768   4.4768   4.6360   4.6360
     4.7818   4.7818   4.8298   4.8298   5.1758   5.1758   5.2542   5.2543
     5.3880   5.3880   5.6343   5.6343   6.1714   6.1714   6.2480   6.2480
     6.5202   6.5202   6.6610   6.6610   6.6813   6.6814   6.8292   6.8292
     6.9792   6.9792   7.1872   7.1872   7.1914   7.1914   7.4365   7.4365
     7.4689   7.4689   7.5001   7.5002   7.5057   7.5057   7.7698   7.7698
    10.3434  10.3434  11.2346  11.2346  11.2730  11.2730  11.7284  11.7284
    11.7712  11.7712  11.8282  11.8282  12.5435  12.5435  12.7510  12.7510
    12.9183  12.9183  13.2061  13.2061  13.5916  13.5916  13.6194  13.6194
    15.4328  15.4328  15.6041  15.6042  16.2390  16.2391  16.6722  16.6722
    16.8056  16.8056  17.3876  17.3876  17.8877

          k = 0.0000-0.4725-0.5000 ( 62284 PWs)   bands (ev):

   -66.1730 -66.1730 -66.1730 -66.1730 -66.1720 -66.1720 -66.1720 -66.1720
   -30.5295 -30.5295 -30.5295 -30.5295 -30.5265 -30.5265 -30.5265 -30.5265
   -30.5225 -30.5225 -30.5225 -30.5225 -30.4738 -30.4738 -30.4738 -30.4738
   -30.4691 -30.4691 -30.4691 -30.4691 -30.4214 -30.4214 -30.4214 -30.4214
   -20.3326 -20.3326 -20.3326 -20.3326 -20.3325 -20.3325 -20.3325 -20.3325
   -20.3116 -20.3115 -20.3115 -20.3115 -20.3113 -20.3113 -20.3113 -20.3113
   -20.3089 -20.3089 -20.3089 -20.3089 -20.3082 -20.3082 -20.3082 -20.3082
   -20.3079 -20.3079 -20.3079 -20.3079 -20.3073 -20.3073 -20.3073 -20.3073
   -20.3003 -20.3003 -20.3003 -20.3003 -20.2995 -20.2995 -20.2995 -20.2995
   -20.2992 -20.2992 -20.2992 -20.2992 -20.2957 -20.2957 -20.2957 -20.2957
   -20.2954 -20.2954 -20.2954 -20.2954 -20.2920 -20.2920 -20.2920 -20.2920
    -9.5008  -9.5008  -9.5008  -9.5008  -8.7009  -8.7009  -8.7009  -8.7009
    -8.6419  -8.6419  -8.6419  -8.6419  -8.3852  -8.3852  -8.3851  -8.3851
    -8.3292  -8.3292  -8.3292  -8.3292  -7.6977  -7.6976  -7.6976  -7.6976
     1.2791   1.2791   1.2792   1.2792   2.9874   2.9874   2.9874   2.9874
     3.1337   3.1337   3.1337   3.1337   3.2182   3.2182   3.2182   3.2182
     3.2663   3.2663   3.2663   3.2663   3.4282   3.4282   3.4282   3.4282
     3.6090   3.6090   3.6090   3.6090   4.3004   4.3004   4.3004   4.3004
     4.4128   4.4129   4.4129   4.4129   5.2137   5.2137   5.2137   5.2137
     5.4965   5.4965   5.4966   5.4966   6.3157   6.3157   6.3157   6.3157
     6.4923   6.4923   6.4924   6.4924   6.6324   6.6324   6.6324   6.6324
     7.2918   7.2918   7.2918   7.2918   7.3754   7.3754   7.3754   7.3754
     7.4609   7.4609   7.4609   7.4609   7.5812   7.5812   7.5812   7.5812
    11.1311  11.1311  11.1311  11.1311  11.2700  11.2700  11.2700  11.2700
    12.2697  12.2698  12.2698  12.2698  12.3005  12.3005  12.3005  12.3005
    12.8508  12.8508  12.8508  12.8508  13.6070  13.6070  13.6070  13.6070
    15.5187  15.5187  15.5187  15.5187  16.8822  16.8822  16.8823  16.8823
    17.3427  17.3427  17.3427  17.3427  17.4722

          k = 0.1667 0.0000 0.1667 ( 62234 PWs)   bands (ev):

   -66.1736 -66.1732 -66.1727 -66.1727 -66.1723 -66.1723 -66.1718 -66.1715
   -30.5597 -30.5566 -30.5566 -30.5535 -30.5204 -30.5204 -30.5169 -30.5163
   -30.5162 -30.5151 -30.5120 -30.5116 -30.4986 -30.4973 -30.4972 -30.4957
   -30.4315 -30.4313 -30.4288 -30.4288 -30.4275 -30.4275 -30.4249 -30.4249
   -20.3326 -20.3326 -20.3326 -20.3326 -20.3325 -20.3325 -20.3325 -20.3324
   -20.3143 -20.3141 -20.3141 -20.3138 -20.3093 -20.3093 -20.3089 -20.3089
   -20.3089 -20.3088 -20.3088 -20.3084 -20.3084 -20.3083 -20.3083 -20.3082
   -20.3079 -20.3079 -20.3077 -20.3077 -20.3072 -20.3072 -20.3070 -20.3070
   -20.3005 -20.3005 -20.3004 -20.3002 -20.3000 -20.2999 -20.2998 -20.2993
   -20.2985 -20.2985 -20.2984 -20.2984 -20.2984 -20.2984 -20.2983 -20.2982
   -20.2931 -20.2929 -20.2925 -20.2925 -20.2925 -20.2924 -20.2920 -20.2920
    -9.8683  -9.5903  -9.4752  -9.4751  -9.2035  -9.2034  -9.0736  -9.0072
    -8.9943  -8.8531  -8.8328  -8.8327  -7.8994  -7.8993  -7.8808  -7.8808
    -7.8470  -7.8003  -7.7743  -7.7739  -7.7730  -7.7584  -7.7377  -7.7310
     1.3955   1.3955   1.4317   1.4351   1.4352   1.5097   1.5098   1.6252
     1.6853   1.6854   1.8536   2.0217   2.5365   2.6190   2.6718   2.6719
     2.7857   2.8153   4.0732   4.0869   4.2865   4.2866   4.4595   4.4595
     4.5008   4.5008   4.6836   4.6837   4.7278   4.8070   5.0196   5.2224
     5.2745   5.2988   5.3575   5.4928   5.4929   5.6143   5.6144   5.6995
     5.6995   5.7376   5.7376   5.7665   5.8276   5.9976   6.3281   6.4367
     6.4370   6.5133   6.5141   6.6509   6.6663   6.6935   6.7055   6.7171
     6.7172   6.8380   6.8381   6.8644   6.8870   6.9881   6.9881   7.0997
     7.2773   7.3373   7.8204   7.8218   8.0430   8.0865   8.1108   8.1109
     9.8023   9.8665  10.2191  10.2196  10.2226  10.3152  12.2394  12.2396
    12.2671  12.2671  12.3041  12.3457  12.5696  12.5697  12.9545  13.0149
    13.0281  13.0368  13.1838  13.3539  13.9894  13.9997  14.0058  14.0281
    14.0631  14.4540  14.4544  15.1414  15.3862  15.5484  15.5629  16.3654
    16.3654  16.9960  16.9961  17.1713  17.5902

          k = 0.1667 0.0000 0.3333 ( 62265 PWs)   bands (ev):

   -66.1734 -66.1730 -66.1729 -66.1725 -66.1725 -66.1722 -66.1720 -66.1716
   -30.5594 -30.5575 -30.5564 -30.5544 -30.5194 -30.5170 -30.5153 -30.5127
   -30.5058 -30.5038 -30.4982 -30.4976 -30.4968 -30.4932 -30.4929 -30.4918
   -30.4496 -30.4472 -30.4457 -30.4432 -30.4306 -30.4283 -30.4280 -30.4257
   -20.3326 -20.3326 -20.3325 -20.3325 -20.3325 -20.3325 -20.3325 -20.3324
   -20.3143 -20.3142 -20.3141 -20.3139 -20.3092 -20.3090 -20.3089 -20.3089
   -20.3088 -20.3087 -20.3087 -20.3084 -20.3084 -20.3083 -20.3082 -20.3081
   -20.3080 -20.3079 -20.3078 -20.3077 -20.3075 -20.3072 -20.3071 -20.3070
   -20.3005 -20.3005 -20.3002 -20.3001 -20.2998 -20.2997 -20.2994 -20.2990
   -20.2988 -20.2988 -20.2987 -20.2986 -20.2975 -20.2973 -20.2972 -20.2970
   -20.2943 -20.2938 -20.2938 -20.2934 -20.2929 -20.2926 -20.2923 -20.2921
    -9.7462  -9.5267  -9.4521  -9.3178  -9.2465  -9.1052  -8.9450  -8.9104
    -8.8577  -8.8452  -8.7918  -8.7261  -8.2056  -8.2045  -8.1324  -8.1097
    -7.8708  -7.8570  -7.8183  -7.7997  -7.7823  -7.7751  -7.7652  -7.7403
     1.4253   1.4312   1.5264   1.5394   1.5678   1.6077   1.6310   1.6830
     2.2139   2.2518   2.3996   2.4844   2.6947   2.7733   2.8160   2.9047
     2.9110   3.0424   3.7746   3.8488   3.8803   3.9200   4.1678   4.2488
     4.2737   4.4632   4.5236   4.5532   4.6313   4.6800   4.7372   4.8901
     4.9632   5.0333   5.0700   5.1782   5.2698   5.3670   5.5517   5.6510
     5.7128   5.7408   5.7735   5.8363   5.8498   6.0047   6.1357   6.1755
     6.4276   6.4464   6.5120   6.5725   6.6104   6.6263   6.6785   6.6918
     6.7982   6.8614   6.8648   6.8841   7.1216   7.1258   7.1384   7.2093
     7.3248   7.3786   7.7591   7.7737   7.9347   7.9733   8.1017   8.1131
    10.2105  10.2247  10.4595  10.5087  10.8496  10.9616  11.8585  11.8952
    12.1230  12.3930  12.4091  12.5054  12.5377  12.5692  12.7296  12.8239
    12.9163  13.0031  13.0612  13.2751  13.6510  13.6657  14.0033  14.0247
    14.2338  14.4268  14.7692  15.2793  15.4507  15.8206  15.9933  16.2693
    16.4311  17.2282  17.4601  17.5277  17.6227

          k = 0.1667 0.0000-0.5000 ( 62322 PWs)   bands (ev):

   -66.1732 -66.1732 -66.1728 -66.1728 -66.1723 -66.1723 -66.1719 -66.1719
   -30.5586 -30.5586 -30.5555 -30.5555 -30.5182 -30.5182 -30.5140 -30.5140
   -30.4999 -30.4999 -30.4988 -30.4988 -30.4738 -30.4738 -30.4724 -30.4724
   -30.4700 -30.4700 -30.4682 -30.4682 -30.4295 -30.4295 -30.4268 -30.4268
   -20.3326 -20.3326 -20.3325 -20.3325 -20.3325 -20.3325 -20.3325 -20.3325
   -20.3143 -20.3143 -20.3140 -20.3140 -20.3091 -20.3091 -20.3089 -20.3089
   -20.3086 -20.3086 -20.3085 -20.3085 -20.3084 -20.3084 -20.3083 -20.3083
   -20.3078 -20.3078 -20.3078 -20.3078 -20.3075 -20.3075 -20.3071 -20.3071
   -20.3005 -20.3005 -20.3001 -20.3001 -20.2993 -20.2993 -20.2993 -20.2993
   -20.2990 -20.2990 -20.2988 -20.2988 -20.2959 -20.2959 -20.2956 -20.2956
   -20.2955 -20.2955 -20.2952 -20.2952 -20.2928 -20.2928 -20.2922 -20.2922
    -9.6183  -9.6183  -9.3255  -9.3255  -9.1774  -9.1774  -8.8654  -8.8654
    -8.5837  -8.5837  -8.5822  -8.5822  -8.5285  -8.5285  -8.4681  -8.4681
    -7.8351  -7.8351  -7.8274  -7.8274  -7.7896  -7.7896  -7.7528  -7.7528
     1.4275   1.4275   1.5446   1.5446   1.5898   1.5898   1.6781   1.6781
     2.7199   2.7199   2.9660   2.9660   3.0535   3.0535   3.1736   3.1736
     3.2626   3.2626   3.3780   3.3780   3.4702   3.4703   3.7704   3.7704
     3.8751   3.8751   4.3764   4.3764   4.5557   4.5557   4.8531   4.8531
     5.0014   5.0014   5.0155   5.0155   5.2276   5.2276   5.6360   5.6360
     5.7700   5.7700   5.8076   5.8076   5.8724   5.8724   5.9865   5.9865
     6.3552   6.3552   6.4583   6.4583   6.6770   6.6770   6.7289   6.7289
     6.7928   6.7929   6.9562   6.9562   7.0095   7.0095   7.5203   7.5203
     7.5593   7.5593   7.7033   7.7033   7.7214   7.7214   8.1123   8.1123
    10.2286  10.2286  11.1894  11.1894  11.2524  11.2524  11.5689  11.5689
    11.7629  11.7629  12.5899  12.5899  12.6425  12.6425  12.6793  12.6793
    12.9024  12.9024  13.2207  13.2207  13.3375  13.3375  14.0103  14.0103
    14.3667  14.3667  15.0778  15.0778  15.8886  15.8886  16.0950  16.0950
    16.7729  16.7730  17.8795  17.9080  17.9088

          k = 0.1667 0.1575 0.1667 ( 62255 PWs)   bands (ev):

   -66.1736 -66.1732 -66.1727 -66.1727 -66.1724 -66.1724 -66.1718 -66.1715
   -30.5558 -30.5528 -30.5528 -30.5497 -30.5203 -30.5203 -30.5171 -30.5165
   -30.5163 -30.5149 -30.5122 -30.5117 -30.5021 -30.5011 -30.5010 -30.4996
   -30.4314 -30.4312 -30.4290 -30.4289 -30.4274 -30.4273 -30.4251 -30.4251
   -20.3326 -20.3326 -20.3326 -20.3325 -20.3325 -20.3325 -20.3325 -20.3324
   -20.3140 -20.3137 -20.3137 -20.3135 -20.3093 -20.3092 -20.3092 -20.3090
   -20.3090 -20.3089 -20.3089 -20.3087 -20.3086 -20.3086 -20.3083 -20.3082
   -20.3078 -20.3078 -20.3077 -20.3077 -20.3073 -20.3072 -20.3070 -20.3070
   -20.3005 -20.3004 -20.3004 -20.3002 -20.3000 -20.3000 -20.2997 -20.2993
   -20.2985 -20.2985 -20.2984 -20.2984 -20.2984 -20.2984 -20.2983 -20.2982
   -20.2931 -20.2929 -20.2926 -20.2925 -20.2925 -20.2924 -20.2920 -20.2920
    -9.8393  -9.6012  -9.4389  -9.4388  -9.2108  -9.2107  -9.0063  -9.0020
    -8.9932  -8.8070  -8.7943  -8.7943  -7.9343  -7.9076  -7.9076  -7.8943
    -7.8942  -7.8526  -7.8520  -7.8519  -7.7987  -7.7690  -7.7568  -7.7391
     1.3955   1.3955   1.4781   1.4782   1.5095   1.5096   1.6059   1.8250
     1.8528   1.8816   1.8816   2.1245   2.5430   2.6138   2.7445   2.7445
     2.8568   2.8794   3.9722   4.0025   4.0907   4.0908   4.4365   4.4366
     4.5041   4.5041   4.6866   4.7271   4.7281   4.7722   4.7880   5.1899
     5.1991   5.2512   5.2514   5.3314   5.3385   5.5746   5.5746   5.6410
     5.7246   5.7247   5.7855   5.7971   5.7971   5.8767   6.3483   6.3616
     6.3618   6.5053   6.5062   6.6499   6.6504   6.7094   6.7633   6.7904
     6.7904   6.8310   6.8619   6.8619   6.9528   6.9670   6.9672   7.1056
     7.2811   7.3361   7.8210   7.8226   7.9897   8.0325   8.0349   8.0350
     9.8172   9.8636  10.3715  10.3888  10.3889  10.4515  12.1944  12.2370
    12.2459  12.2463  12.2535  12.2537  12.4318  12.4319  12.9441  13.0174
    13.0698  13.0717  13.1932  13.3605  13.8942  13.9054  13.9057  13.9736
    14.3670  14.7604  14.7605  15.2732  15.5493  15.5620  15.7931  16.3302
    16.3303  16.8401  17.0988  17.0988  17.6404

          k = 0.1667 0.1575 0.3333 ( 62260 PWs)   bands (ev):

   -66.1734 -66.1731 -66.1729 -66.1725 -66.1725 -66.1722 -66.1720 -66.1717
   -30.5556 -30.5536 -30.5525 -30.5506 -30.5194 -30.5171 -30.5155 -30.5129
   -30.5074 -30.5061 -30.5020 -30.5006 -30.4977 -30.4951 -30.4934 -30.4930
   -30.4495 -30.4474 -30.4455 -30.4434 -30.4304 -30.4282 -30.4281 -30.4259
   -20.3326 -20.3326 -20.3325 -20.3325 -20.3325 -20.3325 -20.3325 -20.3324
   -20.3140 -20.3138 -20.3137 -20.3136 -20.3093 -20.3091 -20.3091 -20.3090
   -20.3089 -20.3089 -20.3088 -20.3086 -20.3086 -20.3083 -20.3083 -20.3081
   -20.3080 -20.3079 -20.3078 -20.3077 -20.3075 -20.3073 -20.3072 -20.3070
   -20.3005 -20.3004 -20.3003 -20.3001 -20.2998 -20.2997 -20.2993 -20.2990
   -20.2988 -20.2988 -20.2987 -20.2986 -20.2974 -20.2972 -20.2972 -20.2970
   -20.2943 -20.2938 -20.2938 -20.2934 -20.2929 -20.2926 -20.2924 -20.2921
    -9.7140  -9.4908  -9.4627  -9.2674  -9.2543  -9.0326  -8.9527  -8.8983
    -8.8589  -8.8071  -8.7602  -8.7018  -8.2112  -8.2024  -8.1460  -8.1075
    -7.9063  -7.8954  -7.8723  -7.8668  -7.8432  -7.8355  -7.7978  -7.7760
     1.4883   1.5039   1.5262   1.5392   1.7636   1.7750   1.8487   1.8770
     2.2126   2.2669   2.4004   2.5038   2.7663   2.8107   2.8540   2.9035
     2.9846   3.1010   3.7706   3.8399   3.8730   3.8819   4.0755   4.1493
     4.2422   4.3445   4.5389   4.5662   4.6524   4.6661   4.7190   4.7339
     4.8831   4.8861   4.9276   5.1457   5.1775   5.2148   5.3121   5.6111
     5.6162   5.6670   5.7354   5.7834   5.8333   5.8502   6.1313   6.1748
     6.3633   6.5193   6.5232   6.6399   6.6997   6.7034   6.7365   6.7490
     6.8449   6.8668   6.9000   6.9360   7.1151   7.1197   7.1300   7.2175
     7.3155   7.3725   7.7606   7.7712   7.8886   7.9141   8.0347   8.0381
    10.3369  10.3913  10.4813  10.5246  10.9648  11.0519  11.8595  11.8919
    12.0928  12.3718  12.4132  12.4219  12.4559  12.5544  12.6701  12.7043
    12.9049  13.0417  13.0438  13.2777  13.5465  13.5693  13.9054  13.9322
    14.5766  14.7388  15.1213  15.5412  15.7027  15.8155  16.0053  16.2377
    16.5361  17.1875  17.2426  17.5147  17.5705

          k = 0.1667 0.1575-0.5000 ( 62292 PWs)   bands (ev):

   -66.1731 -66.1731 -66.1728 -66.1728 -66.1723 -66.1723 -66.1719 -66.1719
   -30.5547 -30.5547 -30.5517 -30.5517 -30.5182 -30.5182 -30.5142 -30.5142
   -30.5034 -30.5034 -30.5025 -30.5025 -30.4739 -30.4739 -30.4725 -30.4725
   -30.4700 -30.4700 -30.4684 -30.4684 -30.4293 -30.4293 -30.4270 -30.4270
   -20.3326 -20.3326 -20.3325 -20.3325 -20.3325 -20.3325 -20.3325 -20.3325
   -20.3139 -20.3139 -20.3137 -20.3137 -20.3092 -20.3092 -20.3090 -20.3090
   -20.3089 -20.3089 -20.3085 -20.3085 -20.3084 -20.3084 -20.3082 -20.3082
   -20.3079 -20.3079 -20.3077 -20.3077 -20.3076 -20.3076 -20.3071 -20.3071
   -20.3004 -20.3004 -20.3002 -20.3001 -20.2993 -20.2993 -20.2993 -20.2993
   -20.2990 -20.2990 -20.2988 -20.2988 -20.2959 -20.2959 -20.2955 -20.2955
   -20.2955 -20.2955 -20.2952 -20.2952 -20.2927 -20.2927 -20.2923 -20.2923
    -9.5834  -9.5834  -9.3347  -9.3347  -9.1104  -9.1104  -8.8307  -8.8307
    -8.5862  -8.5862  -8.5849  -8.5849  -8.5279  -8.5279  -8.4610  -8.4610
    -7.8993  -7.8993  -7.8600  -7.8600  -7.8330  -7.8330  -7.8073  -7.8073
     1.5006   1.5006   1.5444   1.5444   1.7887   1.7887   1.8742   1.8742
     2.7868   2.7868   2.9836   2.9836   3.0622   3.0622   3.1942   3.1942
     3.2659   3.2659   3.3833   3.3833   3.4618   3.4618   3.7758   3.7759
     3.9255   3.9255   4.2273   4.2274   4.5786   4.5786   4.6392   4.6392
     4.9147   4.9147   4.9778   4.9778   5.0740   5.0740   5.4336   5.4336
     5.6977   5.6977   5.7441   5.7441   5.8618   5.8618   5.8660   5.8660
     6.4749   6.4749   6.6159   6.6159   6.6539   6.6539   6.7759   6.7759
     6.8862   6.8862   6.9121   6.9121   7.0379   7.0379   7.5213   7.5213
     7.5539   7.5539   7.6734   7.6734   7.6899   7.6899   8.0396   8.0396
    10.3890  10.3890  11.1949  11.1949  11.2512  11.2512  11.6356  11.6356
    11.8241  11.8241  12.4598  12.4598  12.6208  12.6208  12.6737  12.6737
    12.8802  12.8802  13.1171  13.1171  13.2835  13.2835  13.9150  13.9150
    14.6903  14.6903  15.4568  15.4568  16.0035  16.0035  16.0742  16.0742
    16.8045  16.8045  17.6795  17.6795  17.9427

          k = 0.1667 0.3150 0.1667 ( 62249 PWs)   bands (ev):

   -66.1735 -66.1733 -66.1726 -66.1726 -66.1724 -66.1724 -66.1718 -66.1716
   -30.5453 -30.5423 -30.5423 -30.5391 -30.5207 -30.5206 -30.5198 -30.5169
   -30.5168 -30.5144 -30.5129 -30.5122 -30.5109 -30.5107 -30.5102 -30.5097
   -30.4309 -30.4307 -30.4295 -30.4294 -30.4269 -30.4269 -30.4256 -30.4256
   -20.3326 -20.3326 -20.3325 -20.3325 -20.3325 -20.3325 -20.3325 -20.3324
   -20.3130 -20.3127 -20.3127 -20.3125 -20.3103 -20.3100 -20.3100 -20.3097
   -20.3091 -20.3091 -20.3088 -20.3088 -20.3088 -20.3087 -20.3084 -20.3084
   -20.3077 -20.3077 -20.3075 -20.3075 -20.3074 -20.3073 -20.3072 -20.3071
   -20.3005 -20.3003 -20.3003 -20.3003 -20.3001 -20.3001 -20.2997 -20.2994
   -20.2985 -20.2985 -20.2984 -20.2984 -20.2984 -20.2984 -20.2983 -20.2982
   -20.2930 -20.2928 -20.2927 -20.2925 -20.2924 -20.2924 -20.2921 -20.2921
    -9.7690  -9.6349  -9.3570  -9.3569  -9.2347  -9.2345  -9.0040  -8.9977
    -8.7917  -8.6642  -8.6642  -8.6637  -8.1766  -8.1351  -8.1351  -8.1161
    -7.8921  -7.8920  -7.8780  -7.8780  -7.7944  -7.7810  -7.7532  -7.7429
     1.3954   1.3954   1.5010   1.5012   1.5088   1.5089   1.7962   1.8491
     2.3877   2.5079   2.5080   2.5587   2.5883   2.6780   2.9659   2.9659
     3.0691   3.0782   3.6630   3.6632   3.6708   3.7195   4.1340   4.4291
     4.4292   4.4535   4.4536   4.5476   4.5477   4.7454   4.7499   4.8452
     4.8916   4.8918   5.1032   5.1308   5.3390   5.3779   5.4197   5.4197
     5.6287   5.6526   5.7335   5.7335   5.8039   5.8039   6.3827   6.3831
     6.4231   6.4916   6.4923   6.6194   6.6869   6.7195   6.8613   6.8614
     6.9182   6.9182   6.9895   7.0068   7.0912   7.1015   7.1016   7.1397
     7.3042   7.3406   7.8043   7.8100   7.8111   7.8134   7.8259   7.8588
     9.8378   9.8580  10.7783  10.8335  10.8341  10.8420  11.8470  11.8942
    11.9752  11.9753  12.2581  12.2581  12.2930  12.2930  12.9475  13.0035
    13.1935  13.1938  13.2584  13.4119  13.6641  13.6646  13.6681  13.7636
    15.0797  15.4111  15.4113  15.5516  15.5593  15.7832  16.2075  16.2076
    16.2815  16.7884  17.3679  17.4419  17.4419

          k = 0.1667 0.3150 0.3333 ( 62265 PWs)   bands (ev):

   -66.1733 -66.1731 -66.1728 -66.1726 -66.1724 -66.1722 -66.1719 -66.1717
   -30.5451 -30.5431 -30.5421 -30.5400 -30.5200 -30.5194 -30.5159 -30.5147
   -30.5135 -30.5124 -30.5114 -30.5112 -30.4981 -30.4979 -30.4942 -30.4938
   -30.4491 -30.4479 -30.4451 -30.4439 -30.4299 -30.4286 -30.4277 -30.4264
   -20.3326 -20.3326 -20.3326 -20.3325 -20.3325 -20.3325 -20.3325 -20.3325
   -20.3130 -20.3128 -20.3127 -20.3126 -20.3103 -20.3101 -20.3100 -20.3098
   -20.3090 -20.3088 -20.3088 -20.3087 -20.3085 -20.3085 -20.3084 -20.3081
   -20.3080 -20.3078 -20.3077 -20.3076 -20.3076 -20.3074 -20.3073 -20.3072
   -20.3004 -20.3004 -20.3003 -20.3001 -20.2998 -20.2997 -20.2993 -20.2991
   -20.2988 -20.2988 -20.2987 -20.2986 -20.2974 -20.2973 -20.2972 -20.2970
   -20.2942 -20.2939 -20.2937 -20.2935 -20.2928 -20.2925 -20.2925 -20.2922
    -9.6369  -9.4961  -9.4085  -9.2804  -9.1476  -8.9793  -8.8807  -8.8652
    -8.8247  -8.6801  -8.6396  -8.6091  -8.2509  -8.2488  -8.1961  -8.1334
    -8.1263  -8.1001  -8.0884  -8.0270  -7.8649  -7.8522  -7.7940  -7.7826
     1.5166   1.5255   1.5317   1.5386   2.1463   2.2085   2.2549   2.3951
     2.3993   2.5068   2.5188   2.6983   2.8360   2.9020   2.9825   3.0606
     3.2073   3.2864   3.6370   3.6451   3.7187   3.7322   3.8488   3.9274
     4.1124   4.3032   4.3869   4.4097   4.4892   4.5533   4.5872   4.5965
     4.6670   4.7813   4.8187   4.8739   4.9076   4.9625   5.1238   5.1391
     5.3124   5.3227   5.4518   5.6053   5.7593   5.8117   6.1603   6.1764
     6.5149   6.6004   6.6246   6.7441   6.8055   6.8321   6.9179   6.9621
     7.0038   7.0231   7.0453   7.0585   7.1357   7.1522   7.1839   7.2635
     7.2867   7.3562   7.7303   7.7348   7.7543   7.7670   7.8181   7.8447
    10.4541  10.4900  10.8275  10.8311  11.2812  11.3256  11.8517  11.8611
    11.8660  12.0377  12.1708  12.1958  12.4215  12.5123  12.6432  12.6989
    12.8591  13.0491  13.1155  13.3288  13.3303  13.3512  13.6700  13.7134
    15.2761  15.3899  15.7865  15.9296  16.0039  16.0634  16.1279  16.6682
    16.7329  16.8685  17.0572  17.5705  17.6900

          k = 0.1667 0.3150-0.5000 ( 62264 PWs)   bands (ev):

   -66.1731 -66.1731 -66.1729 -66.1729 -66.1722 -66.1722 -66.1720 -66.1720
   -30.5442 -30.5442 -30.5412 -30.5412 -30.5195 -30.5195 -30.5147 -30.5147
   -30.5126 -30.5126 -30.5120 -30.5120 -30.4739 -30.4739 -30.4730 -30.4730
   -30.4698 -30.4698 -30.4688 -30.4688 -30.4288 -30.4288 -30.4275 -30.4275
   -20.3326 -20.3326 -20.3325 -20.3325 -20.3325 -20.3325 -20.3325 -20.3325
   -20.3129 -20.3129 -20.3127 -20.3127 -20.3102 -20.3102 -20.3099 -20.3099
   -20.3089 -20.3089 -20.3086 -20.3086 -20.3084 -20.3084 -20.3081 -20.3081
   -20.3080 -20.3080 -20.3077 -20.3077 -20.3076 -20.3076 -20.3072 -20.3072
   -20.3004 -20.3004 -20.3002 -20.3002 -20.2993 -20.2993 -20.2993 -20.2993
   -20.2990 -20.2990 -20.2989 -20.2989 -20.2958 -20.2958 -20.2956 -20.2956
   -20.2955 -20.2955 -20.2953 -20.2953 -20.2926 -20.2926 -20.2924 -20.2924
    -9.5017  -9.5017  -9.3644  -9.3644  -8.9298  -8.9298  -8.7296  -8.7296
    -8.6086  -8.6086  -8.5946  -8.5946  -8.5082  -8.5082  -8.4317  -8.4317
    -8.1301  -8.1301  -8.0994  -8.0994  -7.8292  -7.8292  -7.8173  -7.8173
     1.5341   1.5341   1.5436   1.5436   2.3859   2.3859   2.4978   2.4978
     2.9659   2.9659   3.0471   3.0471   3.0588   3.0588   3.2476   3.2476
     3.2811   3.2811   3.4071   3.4072   3.4287   3.4287   3.6616   3.6616
     4.0627   4.0627   4.1042   4.1042   4.1086   4.1086   4.3674   4.3674
     4.7323   4.7323   4.7976   4.7976   4.9845   4.9845   5.0146   5.0146
     5.1044   5.1044   5.5188   5.5188   5.8659   5.8659   5.8810   5.8810
     6.6626   6.6626   6.7815   6.7815   6.8210   6.8210   6.8553   6.8553
     7.0168   7.0168   7.0679   7.0679   7.1705   7.1705   7.5130   7.5130
     7.5369   7.5369   7.5739   7.5739   7.6031   7.6031   7.8288   7.8288
    10.8103  10.8103  11.2078  11.2078  11.2501  11.2501  11.7438  11.7438
    12.0105  12.0105  12.1625  12.1625  12.5223  12.5223  12.6002  12.6002
    12.7702  12.7702  12.9048  12.9048  13.2840  13.2840  13.6873  13.6873
    15.3493  15.3493  15.9900  15.9900  16.3505  16.3505  16.4397  16.4397
    16.9335  16.9335  17.3210  17.3210  17.8886

          k = 0.1667-0.4725 0.1667 ( 62220 PWs)   bands (ev):

   -66.1734 -66.1734 -66.1725 -66.1725 -66.1725 -66.1725 -66.1717 -66.1717
   -30.5313 -30.5312 -30.5285 -30.5285 -30.5285 -30.5284 -30.5247 -30.5247
   -30.5170 -30.5170 -30.5169 -30.5169 -30.5135 -30.5135 -30.5122 -30.5122
   -30.4302 -30.4302 -30.4301 -30.4301 -30.4263 -30.4262 -30.4262 -30.4262
   -20.3326 -20.3326 -20.3325 -20.3325 -20.3325 -20.3325 -20.3325 -20.3325
   -20.3116 -20.3116 -20.3114 -20.3114 -20.3114 -20.3114 -20.3111 -20.3111
   -20.3090 -20.3090 -20.3090 -20.3090 -20.3086 -20.3086 -20.3086 -20.3086
   -20.3075 -20.3075 -20.3075 -20.3075 -20.3074 -20.3073 -20.3073 -20.3073
   -20.3004 -20.3004 -20.3002 -20.3002 -20.3002 -20.3002 -20.2996 -20.2995
   -20.2985 -20.2985 -20.2984 -20.2984 -20.2984 -20.2984 -20.2983 -20.2982
   -20.2928 -20.2928 -20.2926 -20.2926 -20.2923 -20.2923 -20.2923 -20.2923
    -9.6928  -9.6928  -9.2817  -9.2816  -9.2816  -9.2815  -9.0009  -9.0008
    -8.4908  -8.4907  -8.4288  -8.4288  -8.4285  -8.4284  -8.4225  -8.4225
    -7.8858  -7.8857  -7.8855  -7.8854  -7.7883  -7.7883  -7.7481  -7.7481
     1.3953   1.3953   1.5066   1.5068   1.5071   1.5073   1.8378   1.8378
     2.5778   2.5778   3.2087   3.2097   3.2133   3.2146   3.2443   3.2445
     3.2860   3.2860   3.3659   3.3661   3.5162   3.5163   3.5225   3.5226
     3.7236   3.7236   4.4571   4.4572   4.5022   4.5022   4.9282   4.9283
     5.0055   5.0055   5.1202   5.1203   5.1650   5.1651   5.4191   5.4191
     5.4584   5.4584   5.7413   5.7414   5.7726   5.7727   6.4442   6.4448
     6.4666   6.4673   6.5317   6.5317   6.6942   6.6943   6.8939   6.8939
     6.9061   6.9062   7.0722   7.0722   7.2623   7.2624   7.4616   7.4617
     7.4721   7.4722   7.4875   7.4876   7.5400   7.5401   7.8248   7.8248
     9.8503   9.8503  11.3232  11.3233  11.3776  11.3777  11.4144  11.4146
    11.4168  11.4169  12.2627  12.2627  12.2838  12.2839  12.9764  12.9764
    13.3930  13.3931  13.4066  13.4068  13.4249  13.4250  13.5503  13.5503
    15.5552  15.5552  15.6982  15.6982  15.9297  15.9298  15.9397  15.9397
    16.6441  16.6441  17.9157  17.9339  17.9356

          k = 0.1667-0.4725 0.3333 ( 62252 PWs)   bands (ev):

   -66.1732 -66.1732 -66.1727 -66.1727 -66.1724 -66.1723 -66.1718 -66.1718
   -30.5311 -30.5311 -30.5292 -30.5292 -30.5280 -30.5280 -30.5256 -30.5256
   -30.5161 -30.5161 -30.5138 -30.5138 -30.4984 -30.4984 -30.4943 -30.4942
   -30.4485 -30.4485 -30.4445 -30.4445 -30.4293 -30.4293 -30.4270 -30.4270
   -20.3326 -20.3326 -20.3325 -20.3325 -20.3325 -20.3325 -20.3325 -20.3325
   -20.3116 -20.3116 -20.3115 -20.3115 -20.3114 -20.3114 -20.3112 -20.3112
   -20.3089 -20.3089 -20.3086 -20.3086 -20.3086 -20.3086 -20.3083 -20.3083
   -20.3078 -20.3078 -20.3076 -20.3076 -20.3075 -20.3075 -20.3074 -20.3074
   -20.3004 -20.3004 -20.3002 -20.3002 -20.2998 -20.2998 -20.2992 -20.2992
   -20.2988 -20.2988 -20.2987 -20.2987 -20.2973 -20.2973 -20.2971 -20.2971
   -20.2940 -20.2940 -20.2936 -20.2936 -20.2926 -20.2926 -20.2924 -20.2924
    -9.5555  -9.5555  -9.3306  -9.3304  -9.0389  -9.0386  -8.8700  -8.8700
    -8.5325  -8.5318  -8.4588  -8.4571  -8.4152  -8.4142  -8.4067  -8.4067
    -8.1799  -8.1792  -8.0848  -8.0842  -7.8592  -7.8588  -7.7887  -7.7883
     1.5229   1.5238   1.5363   1.5375   2.1985   2.1991   2.3797   2.3809
     2.8493   2.8532   3.2170   3.2190   3.2297   3.2331   3.2357   3.2439
     3.2703   3.2993   3.4211   3.4643   3.4886   3.5202   3.6551   3.6647
     3.7591   3.7732   3.8515   3.9159   4.4490   4.4977   4.5880   4.5915
     4.6556   4.7149   4.7448   4.7823   4.9761   4.9833   4.9934   5.0672
     5.1473   5.2029   5.3179   5.3998   5.7665   5.7835   6.1714   6.1742
     6.5950   6.6015   6.6949   6.7101   6.8489   6.8564   7.0036   7.0670
     7.0758   7.0969   7.1701   7.1931   7.2095   7.2140   7.4328   7.4415
     7.4594   7.4692   7.4779   7.4959   7.5029   7.5296   7.7727   7.7740
    10.4779  10.4811  11.3528  11.3689  11.3867  11.3992  11.7325  11.7474
    11.7489  11.7685  11.8712  11.9222  12.4236  12.4767  12.7408  12.7690
    12.9155  12.9447  13.1029  13.1885  13.4041  13.4320  13.4555  13.5115
    15.6685  15.6865  15.8739  15.8905  16.2733  16.3001  16.6473  16.6720
    16.8393  16.8439  17.4142  17.4518  17.8717

          k = 0.1667-0.4725-0.5000 ( 62232 PWs)   bands (ev):

   -66.1730 -66.1730 -66.1730 -66.1730 -66.1721 -66.1721 -66.1721 -66.1721
   -30.5302 -30.5302 -30.5302 -30.5302 -30.5269 -30.5269 -30.5269 -30.5269
   -30.5150 -30.5150 -30.5150 -30.5150 -30.4735 -30.4735 -30.4735 -30.4735
   -30.4694 -30.4694 -30.4694 -30.4694 -30.4282 -30.4282 -30.4282 -30.4282
   -20.3326 -20.3326 -20.3326 -20.3326 -20.3325 -20.3325 -20.3325 -20.3325
   -20.3116 -20.3116 -20.3116 -20.3115 -20.3113 -20.3113 -20.3113 -20.3113
   -20.3087 -20.3087 -20.3087 -20.3087 -20.3082 -20.3082 -20.3082 -20.3082
   -20.3079 -20.3079 -20.3079 -20.3079 -20.3074 -20.3074 -20.3074 -20.3074
   -20.3003 -20.3003 -20.3003 -20.3003 -20.2993 -20.2993 -20.2993 -20.2993
   -20.2989 -20.2989 -20.2989 -20.2989 -20.2957 -20.2957 -20.2957 -20.2957
   -20.2954 -20.2954 -20.2954 -20.2954 -20.2925 -20.2925 -20.2925 -20.2925
    -9.4201  -9.4201  -9.4200  -9.4200  -8.7241  -8.7240  -8.7215  -8.7215
    -8.6244  -8.6243  -8.6200  -8.6200  -8.3847  -8.3847  -8.3797  -8.3797
    -8.3342  -8.3342  -8.3303  -8.3303  -7.8238  -7.8238  -7.8233  -7.8233
     1.5407   1.5407   1.5420   1.5420   2.9872   2.9872   2.9935   2.9935
     3.1194   3.1194   3.1484   3.1484   3.2125   3.2125   3.2509   3.2509
     3.2816   3.2816   3.3790   3.3790   3.4536   3.4536   3.4879   3.4879
     3.6318   3.6318   3.6465   3.6465   4.2972   4.2972   4.3060   4.3060
     4.4023   4.4023   4.4081   4.4081   4.8583   4.8583   5.0292   5.0293
     5.1342   5.1342   5.2899   5.2899   5.8674   5.8674   5.8777   5.8777
     6.7447   6.7447   6.7744   6.7744   6.8538   6.8538   6.8877   6.8877
     7.2742   7.2742   7.3175   7.3176   7.3609   7.3609   7.3941   7.3941
     7.4489   7.4490   7.4828   7.4828   7.5807   7.5807   7.6083   7.6083
    11.1833  11.1833  11.2140  11.2140  11.3754  11.3754  11.4334  11.4334
    12.2527  12.2527  12.2804  12.2804  12.3037  12.3037  12.3143  12.3143
    12.7459  12.7459  12.8144  12.8144  13.4214  13.4214  13.4664  13.4664
    15.7815  15.7815  15.8009  15.8009  16.9345  16.9345  16.9448  16.9448
    17.3480  17.3482  17.3624  17.3625  17.4514

          k = 0.3333 0.0000 0.3333 ( 62316 PWs)   bands (ev):

   -66.1732 -66.1728 -66.1727 -66.1727 -66.1723 -66.1723 -66.1722 -66.1718
   -30.5591 -30.5572 -30.5572 -30.5553 -30.5072 -30.5056 -30.5056 -30.4978
   -30.4977 -30.4966 -30.4966 -30.4947 -30.4938 -30.4932 -30.4930 -30.4899
   -30.4493 -30.4483 -30.4466 -30.4465 -30.4464 -30.4462 -30.4441 -30.4440
   -20.3326 -20.3326 -20.3326 -20.3325 -20.3325 -20.3325 -20.3325 -20.3325
   -20.3143 -20.3142 -20.3141 -20.3140 -20.3089 -20.3089 -20.3089 -20.3088
   -20.3088 -20.3087 -20.3087 -20.3085 -20.3081 -20.3081 -20.3081 -20.3081
   -20.3080 -20.3080 -20.3080 -20.3079 -20.3074 -20.3073 -20.3072 -20.3072
   -20.3004 -20.3003 -20.3000 -20.3000 -20.2998 -20.2998 -20.2991 -20.2991
   -20.2983 -20.2979 -20.2976 -20.2976 -20.2973 -20.2973 -20.2969 -20.2966
   -20.2945 -20.2940 -20.2939 -20.2939 -20.2939 -20.2934 -20.2934 -20.2934
    -9.6075  -9.3685  -9.3685  -9.2671  -9.1410  -8.9921  -8.9920  -8.7828
    -8.7786  -8.7680  -8.7418  -8.7417  -8.2425  -8.1865  -8.1829  -8.1829
    -8.1717  -8.1717  -8.0640  -8.0453  -7.8001  -7.7749  -7.7749  -7.7498
     1.5060   1.5467   1.5467   1.5889   2.1099   2.1172   2.2305   2.2306
     2.2684   2.2685   2.4807   2.5829   2.9258   2.9258   2.9636   3.0062
     3.1870   3.2161   3.7969   3.8020   3.8747   3.8751   4.0959   4.0959
     4.1415   4.1416   4.2118   4.3072   4.4029   4.4030   4.4596   4.4979
     4.8500   4.8506   4.8798   4.9408   5.0316   5.0316   5.1480   5.4102
     5.4104   5.4792   5.4797   5.6379   5.8988   5.8989   5.8990   6.0469
     6.4679   6.4777   6.5005   6.5005   6.5140   6.5551   6.5551   6.6277
     6.9914   7.1814   7.1815   7.1977   7.1978   7.3037   7.3444   7.3445
     7.3914   7.4948   7.7201   7.7271   7.9041   7.9802   7.9803   8.0244
    10.7093  10.8394  10.8603  10.8607  10.9251  11.1590  12.0304  12.0305
    12.0783  12.0783  12.1923  12.2808  12.5223  12.5224  12.7307  12.7905
    12.8007  12.8008  12.9473  13.0246  13.5642  13.6339  13.6340  13.7315
    14.4467  14.7213  14.7213  15.1837  15.8336  16.3551  16.4025  16.7755
    16.7755  17.2230  17.2230  17.8043  17.8704

          k = 0.3333 0.0000-0.5000 ( 62288 PWs)   bands (ev):

   -66.1730 -66.1730 -66.1726 -66.1726 -66.1725 -66.1725 -66.1721 -66.1721
   -30.5583 -30.5583 -30.5564 -30.5564 -30.5056 -30.5056 -30.4997 -30.4997
   -30.4954 -30.4954 -30.4936 -30.4936 -30.4731 -30.4731 -30.4715 -30.4715
   -30.4708 -30.4708 -30.4691 -30.4691 -30.4476 -30.4476 -30.4452 -30.4452
   -20.3326 -20.3326 -20.3325 -20.3325 -20.3325 -20.3325 -20.3325 -20.3325
   -20.3142 -20.3142 -20.3141 -20.3141 -20.3089 -20.3089 -20.3088 -20.3088
   -20.3087 -20.3087 -20.3085 -20.3085 -20.3083 -20.3083 -20.3081 -20.3081
   -20.3080 -20.3080 -20.3078 -20.3077 -20.3076 -20.3076 -20.3073 -20.3073
   -20.3002 -20.3002 -20.3001 -20.3001 -20.2996 -20.2996 -20.2995 -20.2995
   -20.2978 -20.2978 -20.2974 -20.2974 -20.2960 -20.2960 -20.2956 -20.2956
   -20.2955 -20.2955 -20.2952 -20.2952 -20.2940 -20.2940 -20.2935 -20.2935
    -9.4646  -9.4646  -9.2212  -9.2212  -9.0887  -9.0887  -8.7624  -8.7624
    -8.6339  -8.6339  -8.5645  -8.5645  -8.5048  -8.5048  -8.4714  -8.4714
    -8.1401  -8.1401  -8.1349  -8.1349  -7.7879  -7.7879  -7.7625  -7.7625
     1.5261   1.5261   1.5695   1.5695   2.2457   2.2457   2.2734   2.2734
     2.9135   2.9135   3.0009   3.0009   3.0349   3.0349   3.1931   3.1931
     3.2969   3.2969   3.5768   3.5768   3.6907   3.6907   3.8264   3.8264
     3.8623   3.8623   4.0431   4.0431   4.1798   4.1798   4.3348   4.3348
     4.6796   4.6796   4.8923   4.8923   5.0174   5.0174   5.0892   5.0892
[...]
   -20.3556 -20.3556 -20.3553 -20.3553 -20.3552 -20.3552 -20.3548 -20.3548
   -20.3477 -20.3477 -20.3476 -20.3476 -20.3468 -20.3468 -20.3468 -20.3468
   -20.3464 -20.3464 -20.3463 -20.3463 -20.3433 -20.3433 -20.3430 -20.3430
   -20.3429 -20.3429 -20.3427 -20.3427 -20.3401 -20.3401 -20.3398 -20.3398
    -9.5204  -9.5204  -9.3729  -9.3729  -8.9808  -8.9808  -8.7665  -8.7665
    -8.6290  -8.6290  -8.6089  -8.6089  -8.5340  -8.5340  -8.4587  -8.4587
    -8.1830  -8.1830  -8.1523  -8.1523  -7.8549  -7.8549  -7.8431  -7.8431
     1.5270   1.5270   1.5377   1.5377   2.3301   2.3301   2.4428   2.4428
     2.9398   2.9398   3.0256   3.0256   3.0434   3.0434   3.2288   3.2288
     3.2647   3.2647   3.3927   3.3927   3.4142   3.4142   3.6398   3.6398
     4.0252   4.0252   4.0647   4.0647   4.0778   4.0778   4.3308   4.3308
     4.6883   4.6883   4.7564   4.7564   4.9420   4.9420   4.9768   4.9768
     5.0788   5.0788   5.4710   5.4710   5.8365   5.8365   5.8488   5.8488
     6.6362   6.6362   6.7503   6.7503   6.7954   6.7954   6.8292   6.8292
     6.9828   6.9828   7.0323   7.0323   7.1380   7.1380   7.4810   7.4811
     7.5106   7.5106   7.5394   7.5394   7.5715   7.5715   7.7930   7.7930
    10.7692  10.7692  11.1575  11.1575  11.1997  11.1997  11.7017  11.7017
    11.9597  11.9597  12.1220  12.1220  12.4710  12.4710  12.5520  12.5520
    12.7134  12.7134  12.8518  12.8518  13.2240  13.2240  13.6332  13.6332
    15.2908  15.2908  15.9025  15.9025  16.3242  16.3242  16.4076  16.4076
    16.8539  16.8539  17.2707  17.2707  17.8424

          k = 0.3327 0.4731 0.1664 ( 62384 PWs)   bands (ev):

   -66.2186 -66.2185 -66.2181 -66.2181 -66.2177 -66.2177 -66.2172 -66.2172
   -30.5804 -30.5803 -30.5785 -30.5785 -30.5776 -30.5776 -30.5756 -30.5756
   -30.5528 -30.5528 -30.5503 -30.5503 -30.5353 -30.5353 -30.5311 -30.5311
   -30.4862 -30.4862 -30.4823 -30.4823 -30.4674 -30.4674 -30.4652 -30.4652
   -20.3801 -20.3801 -20.3801 -20.3801 -20.3800 -20.3800 -20.3800 -20.3800
   -20.3591 -20.3591 -20.3590 -20.3590 -20.3589 -20.3589 -20.3587 -20.3587
   -20.3565 -20.3565 -20.3562 -20.3562 -20.3562 -20.3562 -20.3558 -20.3558
   -20.3554 -20.3554 -20.3551 -20.3551 -20.3551 -20.3551 -20.3549 -20.3549
   -20.3478 -20.3478 -20.3476 -20.3476 -20.3472 -20.3472 -20.3465 -20.3465
   -20.3464 -20.3464 -20.3461 -20.3461 -20.3448 -20.3448 -20.3446 -20.3446
   -20.3415 -20.3415 -20.3411 -20.3411 -20.3401 -20.3401 -20.3399 -20.3399
    -9.5666  -9.5666  -9.3426  -9.3424  -9.0566  -9.0563  -8.8788  -8.8787
    -8.5888  -8.5880  -8.5093  -8.5078  -8.4696  -8.4687  -8.4591  -8.4591
    -8.2034  -8.2028  -8.1099  -8.1093  -7.8844  -7.8840  -7.8147  -7.8144
     1.5164   1.5174   1.5317   1.5329   2.1852   2.1859   2.3622   2.3634
     2.8511   2.8553   3.1811   3.1817   3.1902   3.1925   3.1956   3.2052
     3.2387   3.2692   3.3892   3.4335   3.4418   3.4734   3.6150   3.6263
     3.7123   3.7265   3.8442   3.9095   4.4081   4.4550   4.5592   4.5672
     4.6156   4.6836   4.7084   4.7434   4.9299   4.9500   4.9588   5.0142
     5.0949   5.1512   5.2877   5.3622   5.7330   5.7495   6.1475   6.1500
     6.5764   6.5825   6.6631   6.6779   6.8207   6.8272   6.9805   7.0432
     7.0520   7.0731   7.1350   7.1595   7.1789   7.1824   7.3969   7.4047
     7.4239   7.4340   7.4422   7.4606   7.4680   7.4953   7.7461   7.7474
    10.4325  10.4358  11.3168  11.3327  11.3495  11.3626  11.6926  11.7058
    11.7078  11.7270  11.8161  11.8685  12.3634  12.4165  12.6836  12.7110
    12.8625  12.8915  13.0440  13.1280  13.3460  13.3738  13.3963  13.4515
    15.5866  15.6038  15.7980  15.8147  16.2074  16.2325  16.5819  16.6075
    16.8179  16.8218  17.3787  17.4201  17.8229

          k =-0.4991 0.4731 0.1664 ( 62360 PWs)   bands (ev):

   -66.2183 -66.2183 -66.2183 -66.2183 -66.2175 -66.2175 -66.2174 -66.2174
   -30.5796 -30.5796 -30.5795 -30.5795 -30.5767 -30.5767 -30.5767 -30.5767
   -30.5515 -30.5515 -30.5515 -30.5515 -30.5107 -30.5107 -30.5107 -30.5107
   -30.5067 -30.5067 -30.5066 -30.5066 -30.4663 -30.4663 -30.4663 -30.4663
   -20.3801 -20.3801 -20.3801 -20.3801 -20.3800 -20.3800 -20.3800 -20.3800
   -20.3591 -20.3591 -20.3591 -20.3591 -20.3588 -20.3588 -20.3588 -20.3588
   -20.3563 -20.3563 -20.3563 -20.3563 -20.3558 -20.3558 -20.3558 -20.3558
   -20.3555 -20.3555 -20.3555 -20.3555 -20.3550 -20.3550 -20.3550 -20.3550
   -20.3477 -20.3477 -20.3477 -20.3477 -20.3468 -20.3468 -20.3468 -20.3468
   -20.3464 -20.3464 -20.3464 -20.3463 -20.3432 -20.3432 -20.3432 -20.3432
   -20.3428 -20.3428 -20.3428 -20.3428 -20.3400 -20.3400 -20.3400 -20.3400
    -9.4322  -9.4322  -9.4319  -9.4318  -8.7574  -8.7574  -8.7548  -8.7547
    -8.6459  -8.6459  -8.6414  -8.6414  -8.4324  -8.4324  -8.4272  -8.4272
    -8.3748  -8.3748  -8.3709  -8.3709  -7.8494  -7.8494  -7.8490  -7.8490
     1.5345   1.5345   1.5359   1.5359   2.9630   2.9630   2.9716   2.9717
     3.0922   3.0922   3.1155   3.1155   3.1828   3.1828   3.2371   3.2371
     3.2457   3.2457   3.3445   3.3445   3.4396   3.4396   3.4642   3.4642
     3.5890   3.5890   3.6112   3.6112   4.2570   4.2570   4.2665   4.2665
     4.3589   4.3589   4.3667   4.3667   4.8253   4.8253   4.9950   4.9950
     5.0938   5.0938   5.2477   5.2477   5.8378   5.8378   5.8475   5.8475
     6.7185   6.7185   6.7496   6.7496   6.8273   6.8273   6.8629   6.8629
     7.2412   7.2412   7.2820   7.2821   7.3239   7.3239   7.3593   7.3593
     7.4148   7.4148   7.4499   7.4499   7.5527   7.5527   7.5795   7.5795
    11.1362  11.1362  11.1638  11.1638  11.3389  11.3389  11.3934  11.3934
    12.2047  12.2047  12.2326  12.2326  12.2565  12.2565  12.2686  12.2686
    12.6853  12.6853  12.7534  12.7534  13.3630  13.3630  13.4077  13.4077
    15.7029  15.7029  15.7221  15.7221  16.8905  16.8905  16.9008  16.9008
    17.3008  17.3008  17.3163  17.3163  17.4069

          k =-0.4991 0.0000 0.3327 ( 62410 PWs)   bands (ev):

   -66.2183 -66.2183 -66.2179 -66.2179 -66.2178 -66.2178 -66.2174 -66.2174
   -30.6086 -30.6086 -30.6068 -30.6068 -30.5513 -30.5513 -30.5484 -30.5484
   -30.5335 -30.5334 -30.5320 -30.5320 -30.5108 -30.5108 -30.5086 -30.5086
   -30.5084 -30.5084 -30.5062 -30.5062 -30.4855 -30.4855 -30.4829 -30.4829
   -20.3801 -20.3801 -20.3801 -20.3801 -20.3800 -20.3800 -20.3800 -20.3800
   -20.3618 -20.3618 -20.3616 -20.3616 -20.3564 -20.3564 -20.3564 -20.3563
   -20.3562 -20.3562 -20.3560 -20.3560 -20.3559 -20.3559 -20.3556 -20.3556
   -20.3556 -20.3556 -20.3553 -20.3553 -20.3551 -20.3551 -20.3549 -20.3549
   -20.3477 -20.3477 -20.3475 -20.3475 -20.3471 -20.3471 -20.3470 -20.3470
   -20.3452 -20.3452 -20.3448 -20.3448 -20.3434 -20.3434 -20.3430 -20.3430
   -20.3429 -20.3429 -20.3426 -20.3426 -20.3415 -20.3415 -20.3410 -20.3409
    -9.5033  -9.5033  -9.2779  -9.2779  -9.0985  -9.0985  -8.7955  -8.7955
    -8.6494  -8.6494  -8.5815  -8.5815  -8.5217  -8.5217  -8.4912  -8.4912
    -8.1610  -8.1610  -8.1547  -8.1547  -7.8393  -7.8393  -7.8146  -7.8146
     1.4628   1.4628   1.5043   1.5043   2.2340   2.2340   2.2610   2.2610
     2.8835   2.8835   2.9753   2.9753   3.0127   3.0127   3.1702   3.1702
     3.2790   3.2790   3.5610   3.5610   3.6783   3.6783   3.8104   3.8104
     3.8266   3.8266   4.0040   4.0040   4.1461   4.1461   4.3183   4.3183
     4.6665   4.6665   4.8756   4.8756   4.9950   4.9950   5.0674   5.0674
     5.2182   5.2182   5.4767   5.4767   5.8730   5.8730   5.9632   5.9632
     6.3690   6.3690   6.3853   6.3853   6.4368   6.4368   6.5464   6.5465
     7.1295   7.1295   7.2677   7.2677   7.3544   7.3544   7.5225   7.5225
     7.5457   7.5457   7.6616   7.6616   7.7112   7.7112   7.9545   7.9545
    10.8063  10.8063  11.3646  11.3646  11.4419  11.4419  11.5640  11.5640
    11.7731  11.7731  12.1952  12.1952  12.3290  12.3290  12.5664  12.5664
    12.7832  12.7832  13.1409  13.1409  13.1801  13.1801  13.6031  13.6031
    14.5956  14.5956  14.9789  14.9789  16.2459  16.2459  16.6994  16.6994
    17.0482  17.0482  17.4491  17.4491  17.8903

          k =-0.4991-0.1577 0.3327 ( 62436 PWs)   bands (ev):

   -66.2183 -66.2183 -66.2180 -66.2179 -66.2178 -66.2178 -66.2175 -66.2175
   -30.6047 -30.6047 -30.6029 -30.6028 -30.5548 -30.5548 -30.5523 -30.5523
   -30.5336 -30.5336 -30.5322 -30.5321 -30.5108 -30.5108 -30.5088 -30.5088
   -30.5084 -30.5084 -30.5064 -30.5064 -30.4853 -30.4853 -30.4831 -30.4831
   -20.3801 -20.3801 -20.3801 -20.3801 -20.3800 -20.3800 -20.3800 -20.3800
   -20.3614 -20.3614 -20.3613 -20.3613 -20.3567 -20.3567 -20.3565 -20.3565
   -20.3563 -20.3563 -20.3560 -20.3560 -20.3558 -20.3558 -20.3557 -20.3557
   -20.3556 -20.3556 -20.3554 -20.3554 -20.3552 -20.3552 -20.3549 -20.3549
   -20.3477 -20.3477 -20.3475 -20.3475 -20.3471 -20.3471 -20.3470 -20.3470
   -20.3452 -20.3452 -20.3448 -20.3448 -20.3434 -20.3434 -20.3430 -20.3430
   -20.3430 -20.3430 -20.3426 -20.3426 -20.3414 -20.3414 -20.3410 -20.3410
    -9.4550  -9.4550  -9.2111  -9.2111  -9.1092  -9.1092  -8.7713  -8.7713
    -8.6574  -8.6574  -8.5792  -8.5792  -8.5204  -8.5204  -8.4874  -8.4874
    -8.1598  -8.1598  -8.1594  -8.1594  -7.9346  -7.9346  -7.9098  -7.9098
     1.6921   1.6921   1.7338   1.7338   2.2332   2.2332   2.2710   2.2710
     2.9308   2.9308   3.0094   3.0094   3.0308   3.0308   3.1803   3.1803
     3.2799   3.2799   3.5761   3.5761   3.6754   3.6754   3.8023   3.8023
     3.8737   3.8737   4.0342   4.0342   4.1472   4.1472   4.3256   4.3256
     4.5380   4.5380   4.6516   4.6516   4.9411   4.9411   4.9915   4.9915
     5.0410   5.0410   5.2669   5.2669   5.6566   5.6566   5.7386   5.7386
     6.5006   6.5006   6.5354   6.5354   6.5933   6.5933   6.7180   6.7180
     7.1327   7.1327   7.2589   7.2589   7.3533   7.3533   7.5175   7.5175
     7.5402   7.5402   7.6332   7.6332   7.6804   7.6804   7.8989   7.8989
    10.9114  10.9114  11.3801  11.3801  11.4519  11.4519  11.6269  11.6269
    11.8260  11.8260  12.2146  12.2146  12.3257  12.3257  12.5790  12.5790
    12.6596  12.6596  13.0215  13.0215  13.0622  13.0622  13.4970  13.4970
    14.9655  14.9655  15.3652  15.3652  16.3317  16.3317  16.6992  16.6992
    17.0521  17.0521  17.4611  17.4611  17.7482

          k =-0.4991-0.3154 0.3327 ( 62386 PWs)   bands (ev):

   -66.2182 -66.2182 -66.2180 -66.2180 -66.2177 -66.2177 -66.2175 -66.2175
   -30.5939 -30.5939 -30.5921 -30.5921 -30.5650 -30.5650 -30.5629 -30.5629
   -30.5337 -30.5337 -30.5326 -30.5326 -30.5104 -30.5104 -30.5092 -30.5092
   -30.5081 -30.5081 -30.5069 -30.5069 -30.4849 -30.4849 -30.4836 -30.4836
   -20.3801 -20.3801 -20.3801 -20.3801 -20.3800 -20.3800 -20.3800 -20.3800
   -20.3604 -20.3604 -20.3603 -20.3603 -20.3577 -20.3577 -20.3575 -20.3575
   -20.3562 -20.3562 -20.3559 -20.3559 -20.3558 -20.3558 -20.3557 -20.3557
   -20.3555 -20.3555 -20.3554 -20.3554 -20.3553 -20.3553 -20.3551 -20.3551
   -20.3476 -20.3476 -20.3476 -20.3476 -20.3471 -20.3471 -20.3470 -20.3470
   -20.3451 -20.3451 -20.3449 -20.3449 -20.3433 -20.3433 -20.3431 -20.3431
   -20.3429 -20.3429 -20.3427 -20.3427 -20.3413 -20.3413 -20.3411 -20.3411
    -9.3377  -9.3377  -9.1454  -9.1454  -9.0311  -9.0311  -8.7123  -8.7123
    -8.6710  -8.6710  -8.5743  -8.5743  -8.5103  -8.5103  -8.4675  -8.4675
    -8.2102  -8.2102  -8.1716  -8.1716  -8.1509  -8.1509  -8.1002  -8.1002
     2.1575   2.1575   2.2297   2.2297   2.3369   2.3369   2.4577   2.4577
     3.0015   3.0015   3.0492   3.0492   3.1439   3.1439   3.2196   3.2196
     3.3080   3.3080   3.5650   3.5650   3.6611   3.6611   3.7498   3.7498
     4.0209   4.0209   4.0486   4.0486   4.0890   4.0890   4.1979   4.1979
     4.2831   4.2831   4.4133   4.4133   4.5681   4.5681   4.7985   4.7985
     4.9173   4.9173   4.9600   4.9600   5.0124   5.0124   5.2486   5.2486
     6.8237   6.8237   6.8796   6.8796   6.9374   6.9374   7.0005   7.0005
     7.1384   7.1384   7.2386   7.2386   7.3597   7.3597   7.4709   7.4709
     7.5086   7.5086   7.5709   7.5709   7.6011   7.6011   7.7382   7.7382
    11.1873  11.1873  11.4039  11.4039  11.4882  11.4882  11.7992  11.7992
    11.9975  11.9975  12.2449  12.2449  12.2956  12.2956  12.3151  12.3151
    12.6388  12.6388  12.7356  12.7356  12.8235  12.8235  13.2397  13.2397
    15.8140  15.8140  16.3129  16.3129  16.5933  16.5934  16.6746  16.6746
    17.0809  17.0809  17.3413  17.3413  17.6166

          k =-0.4991 0.4731 0.3327 ( 62372 PWs)   bands (ev):

   -66.2181 -66.2181 -66.2181 -66.2181 -66.2176 -66.2176 -66.2176 -66.2176
   -30.5794 -30.5794 -30.5793 -30.5793 -30.5775 -30.5775 -30.5775 -30.5775
   -30.5332 -30.5332 -30.5332 -30.5332 -30.5099 -30.5099 -30.5098 -30.5098
   -30.5075 -30.5075 -30.5075 -30.5075 -30.4842 -30.4842 -30.4842 -30.4842
   -20.3801 -20.3801 -20.3801 -20.3801 -20.3800 -20.3800 -20.3800 -20.3800
   -20.3591 -20.3591 -20.3591 -20.3591 -20.3589 -20.3589 -20.3589 -20.3589
   -20.3560 -20.3560 -20.3560 -20.3560 -20.3557 -20.3557 -20.3557 -20.3557
   -20.3555 -20.3555 -20.3555 -20.3555 -20.3553 -20.3553 -20.3552 -20.3552
   -20.3476 -20.3476 -20.3476 -20.3476 -20.3470 -20.3470 -20.3470 -20.3470
   -20.3450 -20.3450 -20.3450 -20.3450 -20.3432 -20.3432 -20.3432 -20.3432
   -20.3428 -20.3428 -20.3428 -20.3428 -20.3412 -20.3412 -20.3412 -20.3412
    -9.2200  -9.2200  -9.2195  -9.2195  -8.8203  -8.8203  -8.8187  -8.8187
    -8.5879  -8.5879  -8.5844  -8.5844  -8.4268  -8.4268  -8.4211  -8.4211
    -8.3813  -8.3813  -8.3766  -8.3765  -8.1449  -8.1449  -8.1437  -8.1437
     2.2196   2.2196   2.2223   2.2223   2.9648   2.9649   2.9719   2.9719
     3.0853   3.0853   3.0942   3.0943   3.2311   3.2311   3.2591   3.2591
     3.3305   3.3305   3.3578   3.3578   3.6092   3.6092   3.6138   3.6138
     3.7335   3.7335   3.7706   3.7706   4.2121   4.2121   4.2411   4.2411
     4.2917   4.2917   4.3485   4.3485   4.4147   4.4147   4.5190   4.5190
     4.6129   4.6129   4.7632   4.7632   5.0238   5.0238   5.0374   5.0374
     7.0037   7.0037   7.0256   7.0256   7.1521   7.1521   7.1545   7.1545
     7.2423   7.2423   7.2859   7.2859   7.2959   7.2959   7.3692   7.3692
     7.4475   7.4475   7.5078   7.5078   7.5772   7.5772   7.5970   7.5971
    11.3669  11.3669  11.3980  11.3980  11.6940  11.6940  11.7610  11.7610
    12.1329  12.1329  12.1787  12.1787  12.2749  12.2749  12.2792  12.2792
    12.4382  12.4382  12.5390  12.5390  12.9187  12.9187  12.9948  12.9948
    16.4432  16.4432  16.4879  16.4879  17.0499  17.0499  17.0540  17.0540
    17.3026  17.3026  17.3496  17.3497  17.3728

     the Fermi energy is     8.5258 ev

!    total energy              =   -6261.10923772 Ry
     Harris-Foulkes estimate   =   -6261.10923772 Ry
     estimated scf accuracy    <          5.9E-11 Ry

     The total energy is the sum of the following terms:

     one-electron contribution =   -4731.72471220 Ry
     hartree contribution      =    2602.01083717 Ry
     xc contribution           =    -965.66921189 Ry
     ewald contribution        =   -3165.72615080 Ry
     smearing contrib. (-TS)   =      -0.00000000 Ry

     convergence has been achieved in  14 iterations

     Forces acting on atoms (cartesian axes, Ry/au):

     atom    1 type  1   force =    -0.00022979    0.00207482    0.00016205
     atom    2 type  1   force =     0.00022979   -0.00207482   -0.00016205
     atom    3 type  1   force =     0.00022979   -0.00207482    0.00016205
     atom    4 type  1   force =    -0.00022979    0.00207482   -0.00016205
     atom    5 type  1   force =     0.00022979    0.00207482   -0.00016205
     atom    6 type  1   force =    -0.00022979   -0.00207482    0.00016205
     atom    7 type  1   force =    -0.00022979   -0.00207482   -0.00016205
     atom    8 type  1   force =     0.00022979    0.00207482    0.00016205
     atom    9 type  2   force =    -0.00003085   -0.00102076    0.00001557
     atom   10 type  2   force =     0.00003085    0.00102076   -0.00001557
     atom   11 type  2   force =     0.00003085    0.00102076    0.00001557
     atom   12 type  2   force =    -0.00003085   -0.00102076   -0.00001557
     atom   13 type  2   force =     0.00003085   -0.00102076   -0.00001557
     atom   14 type  2   force =    -0.00003085    0.00102076    0.00001557
     atom   15 type  2   force =    -0.00003085    0.00102076   -0.00001557
     atom   16 type  2   force =     0.00003085   -0.00102076    0.00001557
     atom   17 type  2   force =    -0.00011348    0.00000097   -0.00039902
     atom   18 type  2   force =     0.00011348   -0.00000097    0.00039902
     atom   19 type  2   force =     0.00011348   -0.00000097   -0.00039902
     atom   20 type  2   force =    -0.00011348    0.00000097    0.00039902
     atom   21 type  2   force =     0.00011348    0.00000097    0.00039902
     atom   22 type  2   force =    -0.00011348   -0.00000097   -0.00039902
     atom   23 type  2   force =    -0.00011348   -0.00000097    0.00039902
     atom   24 type  2   force =     0.00011348    0.00000097   -0.00039902
     atom   25 type  2   force =    -0.00040219   -0.00007476    0.00009620
     atom   26 type  2   force =     0.00040219    0.00007476   -0.00009620
     atom   27 type  2   force =     0.00040219    0.00007476    0.00009620
     atom   28 type  2   force =    -0.00040219   -0.00007476   -0.00009620
     atom   29 type  2   force =     0.00040219   -0.00007476   -0.00009620
     atom   30 type  2   force =    -0.00040219    0.00007476    0.00009620
     atom   31 type  2   force =    -0.00040219    0.00007476   -0.00009620
     atom   32 type  2   force =     0.00040219   -0.00007476    0.00009620

     Total force =     0.000000     Total SCF correction =     0.000000


     Computing stress (Cartesian axis) and pressure

          total   stress  (Ry/bohr**3)                   (kbar)     P=    0.04
   0.00000043   0.00000000   0.00000000          0.06      0.00      0.00
   0.00000000  -0.00000016   0.00000000          0.00     -0.02      0.00
   0.00000000   0.00000000   0.00000044          0.00      0.00      0.07


     Writing output data file Landau_2.save
 
     init_run     :    110.90s CPU    113.87s WALL (       2 calls)
     electrons    :  12313.63s CPU  12586.08s WALL (       6 calls)
     update_pot   :    121.22s CPU    121.40s WALL (       4 calls)
     forces       :    216.09s CPU    218.77s WALL (       6 calls)
     stress       :   1685.35s CPU   1704.60s WALL (       6 calls)

     Called by init_run:
     wfcinit      :     85.46s CPU     88.14s WALL (       2 calls)
     potinit      :     10.75s CPU     10.81s WALL (       2 calls)

     Called by electrons:
     c_bands      :  10738.75s CPU  10999.48s WALL (      80 calls)
     sum_band     :   1370.48s CPU   1376.99s WALL (      80 calls)
     v_of_rho     :     12.11s CPU     12.27s WALL (      84 calls)
     mix_rho      :     25.29s CPU     29.18s WALL (      80 calls)

     Called by c_bands:
     init_us_2    :    114.95s CPU    120.91s WALL (     348 calls)
     cegterg      :   8827.52s CPU   9075.15s WALL (     160 calls)

     Called by sum_band:

     Called by *egterg:
     h_psi        :   6744.39s CPU   6775.55s WALL (     603 calls)
     g_psi        :     29.16s CPU     29.22s WALL (     439 calls)
     cdiaghg      :     87.53s CPU     87.74s WALL (     587 calls)

     Called by h_psi:
     h_psi:pot    :   6693.94s CPU   6722.95s WALL (     603 calls)
     h_psi:calbec :    799.04s CPU    817.43s WALL (     603 calls)
     vloc_psi     :   5058.90s CPU   5066.39s WALL (     603 calls)
     add_vuspsi   :    835.98s CPU    839.11s WALL (     603 calls)

     General routines
     calbec       :    920.07s CPU    938.56s WALL (     663 calls)
     fft          :      8.70s CPU      8.71s WALL (     386 calls)
     fftw         :   5005.97s CPU   5008.88s WALL (  204928 calls)
 
     Parallel routines
 
     PWSCF        :     4h 0m CPU        4h 5m WALL

 
   This run was terminated on:   4: 6:14  20Mar2020            

=------------------------------------------------------------------------------=
   JOB DONE.
=------------------------------------------------------------------------------=
