
     Program PWSCF v.6.2 (svn rev. 14038) starts on 28Aug2019 at 12: 6:31 

     This program is part of the open-source Quantum ESPRESSO suite
     for quantum simulation of materials; please cite
         "P. Giannozzi et al., J. Phys.:Condens. Matter 21 395502 (2009);
         "P. Giannozzi et al., J. Phys.:Condens. Matter 29 465901 (2017);
          URL http://www.quantum-espresso.org", 
     in publications or presentations arising from this work. More details at
     http://www.quantum-espresso.org/quote

     Parallel version (MPI), running on    64 processors

     MPI processes distributed on     8 nodes
     K-points division:     npool     =      64
     Reading input from scf.in

     Current dimensions of program PWSCF are:
     Max number of different atomic species (ntypx) = 10
     Max number of k-points (npk) =  40000
     Max angular momentum in pseudopotentials (lmaxx) =  3

     Subspace diagonalization in iterative solution of the eigenvalue problem:
     a serial algorithm will be used

 
     G-vector sticks info
     --------------------
     sticks:   dense  smooth     PW     G-vecs:    dense   smooth      PW
     Sum        7731    7731   2077               497643   497643   69001
 


     bravais-lattice index     =            0
     lattice parameter (alat)  =      13.8380  a.u.
     unit-cell volume          =    2802.2609 (a.u.)^3
     number of atoms/cell      =           32
     number of atomic types    =            2
     number of electrons       =       368.36
     number of Kohn-Sham states=          221
     kinetic-energy cutoff     =     120.0000  Ry
     charge density cutoff     =     480.0000  Ry
     convergence threshold     =      1.0E-08
     mixing beta               =       0.7000
     number of iterations used =            8  plain     mixing
     Exchange-correlation      = SLA PW NOGX NOGC ( 1  4  0  0 0 0)

     celldm(1)=  13.838017  celldm(2)=   0.000000  celldm(3)=   0.000000
     celldm(4)=   0.000000  celldm(5)=   0.000000  celldm(6)=   0.000000

     crystal axes: (cart. coord. in units of alat)
               a(1) = (   1.000000   0.000000   0.000000 )  
               a(2) = (   0.000000   1.056984   0.000000 )  
               a(3) = (   0.000000   0.000000   1.000503 )  

     reciprocal axes: (cart. coord. in units 2 pi/alat)
               b(1) = (  1.000000  0.000000  0.000000 )  
               b(2) = (  0.000000  0.946088  0.000000 )  
               b(3) = (  0.000000  0.000000  0.999497 )  


     PseudoPot. # 1 for W  read from file:
     /cluster/scratch/mnoe/QE/pps/W_ONCV_LDA-4.0.upf
     MD5 check sum: ba0307d5d4cd419d6f1d13dc49d7c13a
     Pseudo is Norm-conserving + core correction, Zval = 28.0
     Generated using ONCVPSP code by D. R. Hamann
     Using radial grid of 1380 points,  8 beta functions with: 
                l(1) =   0
                l(2) =   0
                l(3) =   1
                l(4) =   1
                l(5) =   2
                l(6) =   2
                l(7) =   3
                l(8) =   3

     PseudoPot. # 2 for O  read from file:
     /cluster/scratch/mnoe/QE/pps/O_ONCV_LDA-3.0.upf
     MD5 check sum: b55cdb4f45ae2203d24ad12cf8d61a31
     Pseudo is Norm-conserving + core correction, Zval =  6.0
     Generated using ONCVPSP code by D. R. Hamann
     Using radial grid of  926 points,  5 beta functions with: 
                l(1) =   0
                l(2) =   0
                l(3) =   1
                l(4) =   1
                l(5) =   2

     atomic species   valence    mass     pseudopotential
        W             28.00   183.84000     W ( 1.00)
        O              6.00    15.99940     O ( 1.00)

      8 Sym. Ops., with inversion, found ( 6 have fractional translation)



   Cartesian axes

     site n.     atom                  positions (alat units)
         1           W   tau(   1) = (   0.2453800   0.2979216   0.0043722  )
         2           W   tau(   2) = (   0.7546200   0.7590626   0.9961310  )
         3           W   tau(   3) = (   0.2546200   0.2305705   0.5046238  )
         4           W   tau(   4) = (   0.7453800   0.8264136   0.4958794  )
         5           W   tau(   5) = (   0.7546200   0.2979216   0.4958794  )
         6           W   tau(   6) = (   0.2453800   0.7590626   0.5046238  )
         7           W   tau(   7) = (   0.7453800   0.2305705   0.9961310  )
         8           W   tau(   8) = (   0.2546200   0.8264136   0.0043722  )
         9           O   tau(   9) = (   0.2414700   0.0087941   0.0013607  )
        10           O   tau(  10) = (   0.7585300   1.0481901   0.9991425  )
        11           O   tau(  11) = (   0.2585300   0.5196980   0.5016123  )
        12           O   tau(  12) = (   0.7414700   0.5372862   0.4988909  )
        13           O   tau(  13) = (   0.7585300   0.0087941   0.4988909  )
        14           O   tau(  14) = (   0.2414700   1.0481901   0.5016123  )
        15           O   tau(  15) = (   0.7414700   0.5196980   0.9991425  )
        16           O   tau(  16) = (   0.2585300   0.5372862   0.0013607  )
        17           O   tau(  17) = (   0.5012600   0.2549974   0.4497662  )
        18           O   tau(  18) = (   0.4987400   0.8019867   0.5507370  )
        19           O   tau(  19) = (   0.9987400   0.2734947   0.9500179  )
        20           O   tau(  20) = (   0.0012600   0.7834894   0.0504854  )
        21           O   tau(  21) = (   0.4987400   0.2549974   0.0504854  )
        22           O   tau(  22) = (   0.5012600   0.8019867   0.9500179  )
        23           O   tau(  23) = (   0.0012600   0.2734947   0.5507370  )
        24           O   tau(  24) = (   0.9987400   0.7834894   0.4497662  )
        25           O   tau(  25) = (   0.6995400   0.2622272   0.7484565  )
        26           O   tau(  26) = (   0.3004600   0.7947569   0.2520468  )
        27           O   tau(  27) = (   0.8004600   0.2662649   0.2482049  )
        28           O   tau(  28) = (   0.1995400   0.7907193   0.7522983  )
        29           O   tau(  29) = (   0.3004600   0.2622272   0.7522983  )
        30           O   tau(  30) = (   0.6995400   0.7947569   0.2482049  )
        31           O   tau(  31) = (   0.1995400   0.2662649   0.2520468  )
        32           O   tau(  32) = (   0.8004600   0.7907193   0.7484565  )

     number of k points=    64  gaussian smearing, width (Ry)=  0.0007
                       cart. coord. in units 2pi/alat
        k(    1) = (   0.0000000   0.0000000   0.0000000), wk =   0.0092593
        k(    2) = (   0.0000000   0.0000000   0.1665828), wk =   0.0185185
        k(    3) = (   0.0000000   0.0000000   0.3331657), wk =   0.0185185
        k(    4) = (   0.0000000   0.0000000  -0.4997485), wk =   0.0092593
        k(    5) = (   0.0000000   0.1576813   0.0000000), wk =   0.0185185
        k(    6) = (   0.0000000   0.1576813   0.1665828), wk =   0.0370370
        k(    7) = (   0.0000000   0.1576813   0.3331657), wk =   0.0370370
        k(    8) = (   0.0000000   0.1576813  -0.4997485), wk =   0.0185185
        k(    9) = (   0.0000000   0.3153627   0.0000000), wk =   0.0185185
        k(   10) = (   0.0000000   0.3153627   0.1665828), wk =   0.0370370
        k(   11) = (   0.0000000   0.3153627   0.3331657), wk =   0.0370370
        k(   12) = (   0.0000000   0.3153627  -0.4997485), wk =   0.0185185
        k(   13) = (   0.0000000  -0.4730440   0.0000000), wk =   0.0092593
        k(   14) = (   0.0000000  -0.4730440   0.1665828), wk =   0.0185185
        k(   15) = (   0.0000000  -0.4730440   0.3331657), wk =   0.0185185
        k(   16) = (   0.0000000  -0.4730440  -0.4997485), wk =   0.0092593
        k(   17) = (   0.1666667   0.0000000   0.0000000), wk =   0.0185185
        k(   18) = (   0.1666667   0.0000000   0.1665828), wk =   0.0370370
        k(   19) = (   0.1666667   0.0000000   0.3331657), wk =   0.0370370
        k(   20) = (   0.1666667   0.0000000  -0.4997485), wk =   0.0185185
        k(   21) = (   0.1666667   0.1576813   0.0000000), wk =   0.0370370
        k(   22) = (   0.1666667   0.1576813   0.1665828), wk =   0.0740741
        k(   23) = (   0.1666667   0.1576813   0.3331657), wk =   0.0740741
        k(   24) = (   0.1666667   0.1576813  -0.4997485), wk =   0.0370370
        k(   25) = (   0.1666667   0.3153627   0.0000000), wk =   0.0370370
        k(   26) = (   0.1666667   0.3153627   0.1665828), wk =   0.0740741
        k(   27) = (   0.1666667   0.3153627   0.3331657), wk =   0.0740741
        k(   28) = (   0.1666667   0.3153627  -0.4997485), wk =   0.0370370
        k(   29) = (   0.1666667  -0.4730440   0.0000000), wk =   0.0185185
        k(   30) = (   0.1666667  -0.4730440   0.1665828), wk =   0.0370370
        k(   31) = (   0.1666667  -0.4730440   0.3331657), wk =   0.0370370
        k(   32) = (   0.1666667  -0.4730440  -0.4997485), wk =   0.0185185
        k(   33) = (   0.3333333   0.0000000   0.0000000), wk =   0.0185185
        k(   34) = (   0.3333333   0.0000000   0.1665828), wk =   0.0370370
        k(   35) = (   0.3333333   0.0000000   0.3331657), wk =   0.0370370
        k(   36) = (   0.3333333   0.0000000  -0.4997485), wk =   0.0185185
        k(   37) = (   0.3333333   0.1576813   0.0000000), wk =   0.0370370
        k(   38) = (   0.3333333   0.1576813   0.1665828), wk =   0.0740741
        k(   39) = (   0.3333333   0.1576813   0.3331657), wk =   0.0740741
        k(   40) = (   0.3333333   0.1576813  -0.4997485), wk =   0.0370370
        k(   41) = (   0.3333333   0.3153627   0.0000000), wk =   0.0370370
        k(   42) = (   0.3333333   0.3153627   0.1665828), wk =   0.0740741
        k(   43) = (   0.3333333   0.3153627   0.3331657), wk =   0.0740741
        k(   44) = (   0.3333333   0.3153627  -0.4997485), wk =   0.0370370
        k(   45) = (   0.3333333  -0.4730440   0.0000000), wk =   0.0185185
        k(   46) = (   0.3333333  -0.4730440   0.1665828), wk =   0.0370370
        k(   47) = (   0.3333333  -0.4730440   0.3331657), wk =   0.0370370
        k(   48) = (   0.3333333  -0.4730440  -0.4997485), wk =   0.0185185
        k(   49) = (  -0.5000000   0.0000000   0.0000000), wk =   0.0092593
        k(   50) = (  -0.5000000   0.0000000   0.1665828), wk =   0.0185185
        k(   51) = (  -0.5000000   0.0000000   0.3331657), wk =   0.0185185
        k(   52) = (  -0.5000000   0.0000000  -0.4997485), wk =   0.0092593
        k(   53) = (  -0.5000000   0.1576813   0.0000000), wk =   0.0185185
        k(   54) = (  -0.5000000   0.1576813   0.1665828), wk =   0.0370370
        k(   55) = (  -0.5000000   0.1576813   0.3331657), wk =   0.0370370
        k(   56) = (  -0.5000000   0.1576813  -0.4997485), wk =   0.0185185
        k(   57) = (  -0.5000000   0.3153627   0.0000000), wk =   0.0185185
        k(   58) = (  -0.5000000   0.3153627   0.1665828), wk =   0.0370370
        k(   59) = (  -0.5000000   0.3153627   0.3331657), wk =   0.0370370
        k(   60) = (  -0.5000000   0.3153627  -0.4997485), wk =   0.0185185
        k(   61) = (  -0.5000000  -0.4730440   0.0000000), wk =   0.0092593
        k(   62) = (  -0.5000000  -0.4730440   0.1665828), wk =   0.0185185
        k(   63) = (  -0.5000000  -0.4730440   0.3331657), wk =   0.0185185
        k(   64) = (  -0.5000000  -0.4730440  -0.4997485), wk =   0.0092593

     Dense  grid:   497643 G-vectors     FFT dimensions: ( 100, 108, 100)

     Estimated max dynamical RAM per process >       2.71 GB

     Estimated total dynamical RAM >     173.72 GB

     Initial potential from superposition of free atoms

     starting charge  367.99656, renormalised to  368.36000
     Starting wfc are  232 randomized atomic wfcs

     total cpu time spent up to now is       19.5 secs

     Self-consistent Calculation

     iteration #  1     ecut=   120.00 Ry     beta= 0.70
     Davidson diagonalization with overlap
     ethr =  1.00E-02,  avg # of iterations =  5.1

     total cpu time spent up to now is       79.9 secs

     total energy              =   -6253.66420209 Ry
     Harris-Foulkes estimate   =   -6264.39070229 Ry
     estimated scf accuracy    <      13.54040146 Ry

     iteration #  2     ecut=   120.00 Ry     beta= 0.70
     Davidson diagonalization with overlap
     ethr =  3.68E-03,  avg # of iterations =  3.5

     total cpu time spent up to now is      137.8 secs

     total energy              =   -6250.57568060 Ry
     Harris-Foulkes estimate   =   -6270.50383737 Ry
     estimated scf accuracy    <      53.25536921 Ry

     iteration #  3     ecut=   120.00 Ry     beta= 0.70
     Davidson diagonalization with overlap
     ethr =  3.68E-03,  avg # of iterations =  3.3

     total cpu time spent up to now is      190.6 secs

     total energy              =   -6260.84029447 Ry
     Harris-Foulkes estimate   =   -6261.12056285 Ry
     estimated scf accuracy    <       0.92754155 Ry

     iteration #  4     ecut=   120.00 Ry     beta= 0.70
     Davidson diagonalization with overlap
     ethr =  2.52E-04,  avg # of iterations =  3.0

     total cpu time spent up to now is      236.2 secs

     total energy              =   -6260.84196221 Ry
     Harris-Foulkes estimate   =   -6260.91287604 Ry
     estimated scf accuracy    <       0.23102366 Ry

     iteration #  5     ecut=   120.00 Ry     beta= 0.70
     Davidson diagonalization with overlap
     ethr =  6.27E-05,  avg # of iterations =  4.9

     total cpu time spent up to now is      282.8 secs

     total energy              =   -6260.84065026 Ry
     Harris-Foulkes estimate   =   -6260.87293931 Ry
     estimated scf accuracy    <       0.07110435 Ry

     iteration #  6     ecut=   120.00 Ry     beta= 0.70
     Davidson diagonalization with overlap
     ethr =  1.93E-05,  avg # of iterations =  4.9

     total cpu time spent up to now is      333.1 secs

     total energy              =   -6260.85627191 Ry
     Harris-Foulkes estimate   =   -6260.85866234 Ry
     estimated scf accuracy    <       0.00629187 Ry

     iteration #  7     ecut=   120.00 Ry     beta= 0.70
     Davidson diagonalization with overlap
     ethr =  1.71E-06,  avg # of iterations =  5.2

     total cpu time spent up to now is      381.7 secs

     total energy              =   -6260.85710885 Ry
     Harris-Foulkes estimate   =   -6260.85718221 Ry
     estimated scf accuracy    <       0.00013642 Ry

     iteration #  8     ecut=   120.00 Ry     beta= 0.70
     Davidson diagonalization with overlap
     ethr =  3.70E-08,  avg # of iterations =  3.1

     total cpu time spent up to now is      433.5 secs

     total energy              =   -6260.85716865 Ry
     Harris-Foulkes estimate   =   -6260.85717569 Ry
     estimated scf accuracy    <       0.00003326 Ry

     iteration #  9     ecut=   120.00 Ry     beta= 0.70
     Davidson diagonalization with overlap
     ethr =  9.03E-09,  avg # of iterations =  1.9

     total cpu time spent up to now is      476.3 secs

     total energy              =   -6260.85716562 Ry
     Harris-Foulkes estimate   =   -6260.85717061 Ry
     estimated scf accuracy    <       0.00001539 Ry

     iteration # 10     ecut=   120.00 Ry     beta= 0.70
     Davidson diagonalization with overlap
     ethr =  4.18E-09,  avg # of iterations =  2.0

     total cpu time spent up to now is      514.7 secs

     total energy              =   -6260.85716680 Ry
     Harris-Foulkes estimate   =   -6260.85716751 Ry
     estimated scf accuracy    <       0.00000167 Ry

     iteration # 11     ecut=   120.00 Ry     beta= 0.70
     Davidson diagonalization with overlap
     ethr =  4.52E-10,  avg # of iterations =  3.0

     total cpu time spent up to now is      560.2 secs

     total energy              =   -6260.85716720 Ry
     Harris-Foulkes estimate   =   -6260.85716726 Ry
     estimated scf accuracy    <       0.00000017 Ry

     iteration # 12     ecut=   120.00 Ry     beta= 0.70
     Davidson diagonalization with overlap
     ethr =  4.65E-11,  avg # of iterations =  2.0

     total cpu time spent up to now is      605.0 secs

     total energy              =   -6260.85716719 Ry
     Harris-Foulkes estimate   =   -6260.85716721 Ry
     estimated scf accuracy    <       0.00000004 Ry

     iteration # 13     ecut=   120.00 Ry     beta= 0.70
     Davidson diagonalization with overlap
     ethr =  1.18E-11,  avg # of iterations =  2.7

     total cpu time spent up to now is      654.5 secs

     End of self-consistent calculation

          k = 0.0000 0.0000 0.0000 ( 62199 PWs)   bands (ev):

   -66.0710 -66.0706 -66.0700 -66.0700 -66.0696 -66.0696 -66.0690 -66.0686
   -30.4958 -30.4922 -30.4919 -30.4885 -30.4389 -30.4346 -30.4337 -30.4297
   -30.4150 -30.4140 -30.4109 -30.4083 -30.4083 -30.4064 -30.4062 -30.4030
   -30.3141 -30.3128 -30.3115 -30.3102 -30.3099 -30.3089 -30.3068 -30.3053
   -20.2237 -20.2236 -20.2236 -20.2235 -20.2235 -20.2235 -20.2234 -20.2234
   -20.2184 -20.2182 -20.2181 -20.2179 -20.2131 -20.2128 -20.2128 -20.2125
   -20.2080 -20.2077 -20.2075 -20.2072 -20.2068 -20.2068 -20.2067 -20.2064
   -20.2058 -20.2054 -20.2053 -20.2051 -20.2050 -20.2045 -20.2044 -20.2041
   -20.1961 -20.1959 -20.1957 -20.1956 -20.1951 -20.1950 -20.1947 -20.1946
   -20.1818 -20.1818 -20.1808 -20.1808 -20.1804 -20.1804 -20.1795 -20.1794
   -20.1751 -20.1751 -20.1745 -20.1745 -20.1738 -20.1738 -20.1732 -20.1731
    -9.9155  -9.6289  -9.4746  -9.4745  -9.1952  -9.1919  -9.0543  -9.0027
    -8.9901  -8.8495  -8.8181  -8.8176  -7.8396  -7.7767  -7.7735  -7.7421
    -7.7381  -7.7214  -7.7152  -7.7150  -7.5866  -7.5847  -7.5645  -7.5638
     1.2573   1.2577   1.3302   1.3344   1.3488   1.3565   1.4106   1.6588
     1.6623   1.6643   1.6963   1.9029   2.4315   2.5075   2.6009   2.6047
     2.7505   2.7569   4.1660   4.1756   4.3909   4.4081   4.8354   4.8608
     4.8839   4.8933   4.9124   4.9158   5.0682   5.0688   5.1134   5.4531
     5.4665   5.5346   5.5630   5.5637   5.5658   5.6108   5.6361   5.8346
     5.8491   5.9081   5.9095   5.9507   5.9862   6.0632   6.0672   6.1542
     6.1562   6.2699   6.2794   6.5960   6.5992   6.8237   6.8393   6.8586
     6.8675   6.8995   7.0327   7.0408   7.1032   7.1109   7.4155   7.4269
     7.4601   7.4706   7.8135   7.8279   8.0865   8.1032   8.1531   8.1699
     9.3527   9.3564  10.0499  10.0560  10.0853  10.0923  12.2855  12.3157
    12.3215  12.3707  12.3735  12.3955  12.5557  12.5660  12.8733  12.9186
    13.2799  13.3016  13.4370  13.4517  13.8030  14.1155  14.1954  14.2004
    14.2456  14.4133  14.4902  14.9059  15.4874  15.5006  15.5204  16.1016
    16.1115  16.8495  17.0806  17.0943  17.4863

          k = 0.0000 0.0000 0.1666 ( 62184 PWs)   bands (ev):

   -66.0710 -66.0706 -66.0701 -66.0700 -66.0697 -66.0695 -66.0691 -66.0687
   -30.4957 -30.4925 -30.4918 -30.4888 -30.4386 -30.4349 -30.4336 -30.4300
   -30.4134 -30.4104 -30.4086 -30.4045 -30.4044 -30.4034 -30.4012 -30.3995
   -30.3208 -30.3182 -30.3166 -30.3140 -30.3125 -30.3096 -30.3086 -30.3057
   -20.2236 -20.2236 -20.2235 -20.2235 -20.2235 -20.2235 -20.2234 -20.2234
   -20.2184 -20.2182 -20.2181 -20.2180 -20.2131 -20.2129 -20.2128 -20.2125
   -20.2080 -20.2077 -20.2074 -20.2071 -20.2068 -20.2067 -20.2066 -20.2062
   -20.2058 -20.2055 -20.2054 -20.2052 -20.2049 -20.2045 -20.2045 -20.2042
   -20.1961 -20.1959 -20.1957 -20.1956 -20.1951 -20.1950 -20.1947 -20.1946
   -20.1814 -20.1814 -20.1807 -20.1807 -20.1800 -20.1800 -20.1796 -20.1795
   -20.1756 -20.1756 -20.1744 -20.1744 -20.1743 -20.1743 -20.1732 -20.1732
    -9.8688  -9.5748  -9.4917  -9.4145  -9.2067  -9.1057  -9.0628  -8.9641
    -8.9487  -8.8373  -8.8223  -8.7866  -7.8623  -7.8566  -7.8299  -7.7805
    -7.7675  -7.7258  -7.7248  -7.7172  -7.7035  -7.6958  -7.5945  -7.5735
     1.3326   1.3366   1.3489   1.3629   1.4766   1.5110   1.6057   1.6543
     1.6579   1.7365   1.8653   2.0240   2.5188   2.5990   2.6104   2.6933
     2.7420   2.8455   4.1096   4.1666   4.3948   4.4088   4.4125   4.5164
     4.6973   4.8230   4.8270   4.9578   4.9595   5.0621   5.0988   5.3271
     5.3707   5.4480   5.5312   5.5652   5.5789   5.6447   5.6480   5.6717
     5.7719   5.7735   5.8343   5.9538   5.9980   6.1065   6.1541   6.1650
     6.2877   6.4391   6.5153   6.5880   6.6894   6.7218   6.8067   6.8591
     6.8640   6.8764   6.9967   7.0366   7.0410   7.1194   7.2025   7.2064
     7.2438   7.3076   7.8340   7.8365   8.0618   8.1018   8.1271   8.1546
     9.6913   9.7188  10.0564  10.0825  10.3136  10.3689  12.2220  12.2821
    12.3312  12.3705  12.3766  12.4305  12.5690  12.6519  12.9246  12.9349
    13.0891  13.2939  13.3359  13.4380  13.9157  14.0552  14.0742  14.1137
    14.2555  14.4845  14.5340  15.0161  15.4860  15.5178  15.5503  16.0831
    16.4073  16.8247  17.0191  17.2671  17.5375

          k = 0.0000 0.0000 0.3332 ( 62192 PWs)   bands (ev):

   -66.0708 -66.0704 -66.0703 -66.0699 -66.0698 -66.0694 -66.0693 -66.0689
   -30.4952 -30.4933 -30.4914 -30.4896 -30.4379 -30.4357 -30.4330 -30.4309
   -30.4123 -30.4096 -30.4074 -30.4044 -30.3883 -30.3863 -30.3835 -30.3813
   -30.3391 -30.3365 -30.3345 -30.3320 -30.3117 -30.3095 -30.3088 -30.3066
   -20.2236 -20.2236 -20.2235 -20.2235 -20.2235 -20.2235 -20.2234 -20.2234
   -20.2184 -20.2183 -20.2181 -20.2180 -20.2131 -20.2129 -20.2128 -20.2126
   -20.2079 -20.2077 -20.2072 -20.2069 -20.2068 -20.2065 -20.2063 -20.2060
   -20.2059 -20.2058 -20.2054 -20.2052 -20.2048 -20.2048 -20.2046 -20.2045
   -20.1960 -20.1959 -20.1958 -20.1957 -20.1950 -20.1949 -20.1948 -20.1947
   -20.1805 -20.1805 -20.1802 -20.1802 -20.1798 -20.1798 -20.1789 -20.1788
   -20.1769 -20.1768 -20.1756 -20.1755 -20.1742 -20.1741 -20.1735 -20.1735
    -9.7555  -9.5439  -9.4496  -9.2760  -9.2515  -9.0920  -8.8874  -8.8512
    -8.8350  -8.8027  -8.7507  -8.6647  -8.1612  -8.1603  -8.0554  -8.0364
    -7.8151  -7.7906  -7.7581  -7.7340  -7.6973  -7.6760  -7.6215  -7.6004
     1.3425   1.3530   1.3797   1.4053   1.5974   1.6023   1.6374   1.6455
     2.2947   2.3288   2.4993   2.5794   2.6358   2.7333   2.7708   2.8667
     2.9347   3.0815   3.7898   3.8698   3.8892   3.9864   4.2096   4.3028
     4.3458   4.5567   4.5841   4.7944   4.8331   4.8528   4.9859   5.0430
     5.2028   5.2277   5.2434   5.3715   5.4906   5.5142   5.6445   5.6987
     5.7255   5.7749   5.8102   6.0148   6.0239   6.1978   6.2678   6.3193
     6.3499   6.4171   6.5496   6.5610   6.6088   6.6169   6.6551   6.7927
     6.8507   6.8746   6.8851   7.0235   7.0675   7.0686   7.1140   7.1585
     7.3472   7.3844   7.7798   7.7992   7.9334   7.9902   8.1372   8.1566
    10.0464  10.0742  10.4026  10.4817  10.9207  11.0335  11.8616  11.9130
    12.1310  12.5036  12.5211  12.5470  12.5933  12.6320  12.7450  12.9124
    12.9146  13.1441  13.2122  13.4483  13.7259  13.7517  14.0676  14.1087
    14.3335  14.4656  14.8494  15.3042  15.3752  15.6587  15.9271  15.9969
    16.2836  17.2422  17.4125  17.5558  17.8337

          k = 0.0000 0.0000-0.4997 ( 62208 PWs)   bands (ev):

   -66.0705 -66.0705 -66.0701 -66.0701 -66.0695 -66.0695 -66.0691 -66.0691
   -30.4943 -30.4943 -30.4906 -30.4906 -30.4368 -30.4368 -30.4320 -30.4320
   -30.4110 -30.4110 -30.4058 -30.4058 -30.3638 -30.3638 -30.3614 -30.3614
   -30.3591 -30.3591 -30.3566 -30.3566 -30.3106 -30.3106 -30.3077 -30.3077
   -20.2236 -20.2236 -20.2236 -20.2235 -20.2235 -20.2235 -20.2235 -20.2235
   -20.2184 -20.2184 -20.2181 -20.2181 -20.2130 -20.2130 -20.2127 -20.2127
   -20.2078 -20.2078 -20.2071 -20.2071 -20.2063 -20.2063 -20.2062 -20.2062
   -20.2058 -20.2058 -20.2053 -20.2053 -20.2049 -20.2049 -20.2047 -20.2047
   -20.1959 -20.1959 -20.1958 -20.1958 -20.1949 -20.1949 -20.1948 -20.1948
   -20.1802 -20.1802 -20.1801 -20.1801 -20.1786 -20.1786 -20.1785 -20.1785
   -20.1772 -20.1772 -20.1772 -20.1772 -20.1738 -20.1738 -20.1738 -20.1738
    -9.6341  -9.6341  -9.3306  -9.3306  -9.1560  -9.1560  -8.8541  -8.8541
    -8.5236  -8.5235  -8.4992  -8.4991  -8.4733  -8.4732  -8.4000  -8.4000
    -7.8040  -7.8040  -7.7463  -7.7463  -7.6590  -7.6590  -7.6378  -7.6378
     1.3495   1.3495   1.3994   1.3994   1.6205   1.6205   1.6321   1.6321
     2.6681   2.6681   3.0080   3.0080   3.1515   3.1515   3.1761   3.1761
     3.3172   3.3172   3.3673   3.3673   3.5084   3.5084   3.8079   3.8079
     3.9240   3.9240   4.4861   4.4861   4.7490   4.7490   4.9472   4.9472
     5.2687   5.2687   5.3718   5.3719   5.3782   5.3782   5.6881   5.6881
     5.7707   5.7707   5.9574   5.9574   6.2029   6.2030   6.2824   6.2824
     6.3593   6.3593   6.4735   6.4735   6.5069   6.5069   6.5666   6.5666
     6.8114   6.8114   6.8541   6.8541   7.0933   7.0933   7.5186   7.5186
     7.5783   7.5783   7.7089   7.7089   7.7418   7.7418   8.1538   8.1538
    10.0618  10.0618  11.1898  11.1898  11.2649  11.2649  11.6081  11.6081
    11.8239  11.8239  12.6048  12.6048  12.7097  12.7097  12.8340  12.8340
    12.9610  12.9610  13.3079  13.3079  13.5082  13.5082  14.1005  14.1005
    14.4240  14.4240  15.1663  15.1663  15.7373  15.7373  15.8502  15.8502
    16.6772  16.6772  17.8447  17.8447  18.1788

          k = 0.0000 0.1577 0.0000 ( 62175 PWs)   bands (ev):

   -66.0710 -66.0707 -66.0700 -66.0700 -66.0697 -66.0696 -66.0690 -66.0686
   -30.4919 -30.4883 -30.4880 -30.4846 -30.4424 -30.4383 -30.4375 -30.4337
   -30.4149 -30.4139 -30.4109 -30.4083 -30.4080 -30.4071 -30.4064 -30.4036
   -30.3139 -30.3126 -30.3117 -30.3101 -30.3100 -30.3088 -30.3069 -30.3054
   -20.2237 -20.2236 -20.2235 -20.2235 -20.2235 -20.2235 -20.2234 -20.2234
   -20.2181 -20.2179 -20.2178 -20.2176 -20.2135 -20.2132 -20.2131 -20.2129
   -20.2079 -20.2076 -20.2074 -20.2072 -20.2068 -20.2068 -20.2067 -20.2064
   -20.2057 -20.2055 -20.2052 -20.2051 -20.2050 -20.2046 -20.2045 -20.2042
   -20.1961 -20.1960 -20.1957 -20.1956 -20.1951 -20.1950 -20.1947 -20.1946
   -20.1818 -20.1818 -20.1808 -20.1808 -20.1804 -20.1804 -20.1795 -20.1794
   -20.1751 -20.1751 -20.1745 -20.1745 -20.1738 -20.1738 -20.1731 -20.1731
    -9.8863  -9.6404  -9.4376  -9.4374  -9.2027  -9.1996  -9.0019  -8.9910
    -8.9805  -8.8034  -8.7801  -8.7797  -7.9319  -7.8757  -7.8730  -7.8281
    -7.7404  -7.7390  -7.7170  -7.7170  -7.5851  -7.5839  -7.5662  -7.5653
     1.2573   1.2576   1.3395   1.3451   1.3488   1.3565   1.5433   1.6956
     1.8404   1.8903   1.8950   2.0718   2.4364   2.5022   2.6726   2.6770
     2.8182   2.8254   4.0335   4.0448   4.1231   4.1370   4.7934   4.8815
     4.8967   4.9017   4.9098   4.9218   4.9777   5.0146   5.0153   5.3108
     5.3192   5.4970   5.4996   5.6238   5.6572   5.6573   5.6624   5.6858
     5.8315   5.8385   5.9002   5.9077   5.9904   6.0698   6.0725   6.1575
     6.1603   6.2631   6.2779   6.6168   6.6233   6.8472   6.8609   6.8721
     6.8971   6.9045   6.9122   7.0282   7.0300   7.0317   7.4244   7.4346
     7.4604   7.4696   7.8181   7.8271   8.0478   8.0615   8.0761   8.0881
     9.3532   9.3573  10.2486  10.2512  10.2563  10.2575  12.2000  12.2181
    12.3305  12.3383  12.3732  12.3863  12.4007  12.4093  12.8790  12.9179
    13.3136  13.3329  13.4422  13.4547  14.0132  14.0707  14.0977  14.1095
    14.2631  14.6890  14.7190  15.0749  15.4876  15.4986  15.9213  16.0685
    16.0771  16.5426  17.2138  17.2273  17.5309

          k = 0.0000 0.1577 0.1666 ( 62197 PWs)   bands (ev):

   -66.0709 -66.0706 -66.0701 -66.0699 -66.0697 -66.0696 -66.0691 -66.0687
   -30.4917 -30.4886 -30.4879 -30.4849 -30.4422 -30.4386 -30.4374 -30.4340
   -30.4131 -30.4105 -30.4084 -30.4048 -30.4047 -30.4039 -30.4013 -30.3997
   -30.3206 -30.3184 -30.3164 -30.3141 -30.3124 -30.3098 -30.3085 -30.3059
   -20.2236 -20.2236 -20.2235 -20.2235 -20.2235 -20.2235 -20.2234 -20.2234
   -20.2181 -20.2179 -20.2178 -20.2176 -20.2135 -20.2132 -20.2131 -20.2129
   -20.2079 -20.2076 -20.2074 -20.2071 -20.2068 -20.2067 -20.2067 -20.2063
   -20.2057 -20.2054 -20.2054 -20.2052 -20.2050 -20.2046 -20.2046 -20.2043
   -20.1960 -20.1959 -20.1957 -20.1956 -20.1951 -20.1950 -20.1947 -20.1946
   -20.1814 -20.1814 -20.1807 -20.1807 -20.1800 -20.1800 -20.1796 -20.1795
   -20.1756 -20.1756 -20.1744 -20.1744 -20.1743 -20.1743 -20.1732 -20.1732
    -9.8385  -9.5864  -9.4546  -9.3730  -9.2146  -9.1134  -8.9891  -8.9625
    -8.9496  -8.7931  -8.7843  -8.7531  -7.9326  -7.8911  -7.8730  -7.8607
    -7.8353  -7.8292  -7.7262  -7.7162  -7.7048  -7.6949  -7.5937  -7.5751
     1.3434   1.3488   1.3499   1.3628   1.5691   1.6055   1.6383   1.8492
     1.8644   1.8896   1.9122   2.1343   2.5248   2.5933   2.6818   2.7675
     2.8102   2.9138   4.0110   4.0490   4.1264   4.1601   4.4404   4.5134
     4.7358   4.7621   4.7771   4.9431   4.9509   4.9731   5.0269   5.2681
     5.2761   5.3378   5.3536   5.5185   5.6127   5.6141   5.6618   5.7225
     5.7574   5.7719   5.8435   5.8734   5.8980   6.1239   6.1480   6.1965
     6.2326   6.4219   6.4943   6.6104   6.7380   6.7966   6.8217   6.8411
     6.8825   6.9044   6.9800   6.9917   7.0395   7.0474   7.2033   7.2064
     7.2608   7.3067   7.8358   7.8365   8.0223   8.0495   8.0507   8.0781
     9.6970   9.7208  10.2515  10.2575  10.4770  10.5058  12.1867  12.2656
    12.2695  12.2911  12.3792  12.3864  12.4130  12.5299  12.9266  12.9400
    13.1242  13.3228  13.3381  13.4409  13.9549  13.9825  14.0445  14.0692
    14.3541  14.7120  14.8335  15.1710  15.5168  15.5502  15.8875  16.0492
    16.3720  16.6991  16.9500  17.3809  17.5956

          k = 0.0000 0.1577 0.3332 ( 62218 PWs)   bands (ev):

   -66.0708 -66.0704 -66.0703 -66.0699 -66.0697 -66.0694 -66.0692 -66.0689
   -30.4913 -30.4894 -30.4875 -30.4857 -30.4415 -30.4394 -30.4369 -30.4348
   -30.4121 -30.4094 -30.4078 -30.4049 -30.3882 -30.3865 -30.3834 -30.3815
   -30.3389 -30.3367 -30.3344 -30.3322 -30.3115 -30.3093 -30.3090 -30.3068
   -20.2236 -20.2236 -20.2235 -20.2235 -20.2235 -20.2235 -20.2234 -20.2234
   -20.2181 -20.2179 -20.2178 -20.2177 -20.2135 -20.2133 -20.2131 -20.2130
   -20.2078 -20.2077 -20.2072 -20.2069 -20.2068 -20.2064 -20.2063 -20.2059
   -20.2058 -20.2058 -20.2054 -20.2052 -20.2049 -20.2049 -20.2047 -20.2046
   -20.1960 -20.1959 -20.1958 -20.1957 -20.1950 -20.1949 -20.1948 -20.1947
   -20.1805 -20.1805 -20.1802 -20.1802 -20.1798 -20.1798 -20.1789 -20.1788
   -20.1769 -20.1768 -20.1756 -20.1755 -20.1742 -20.1741 -20.1735 -20.1735
    -9.7224  -9.5074  -9.4607  -9.2601  -9.2205  -9.0188  -8.8676  -8.8593
    -8.8043  -8.7972  -8.7274  -8.6451  -8.1677  -8.1583  -8.0726  -8.0344
    -7.9038  -7.8840  -7.8566  -7.8295  -7.6972  -7.6777  -7.6209  -7.6020
     1.3622   1.3796   1.3841   1.4052   1.7778   1.8026   1.8808   1.8885
     2.2932   2.3405   2.5020   2.5975   2.7066   2.7806   2.7926   2.8653
     3.0103   3.1430   3.7896   3.8664   3.8830   3.9356   4.1398   4.1643
     4.2680   4.3929   4.6028   4.7236   4.8171   4.8200   4.8567   4.9177
     5.0563   5.1821   5.1959   5.2210   5.4061   5.4537   5.5272   5.6418
     5.7146   5.7648   5.8051   5.8521   5.9911   6.1712   6.2357   6.2703
     6.3800   6.5717   6.5892   6.6138   6.6421   6.6917   6.7447   6.8206
     6.8492   6.8567   6.9528   6.9865   7.0286   7.0603   7.1036   7.1466
     7.3412   7.3770   7.7827   7.7975   7.8997   7.9309   8.0687   8.0810
    10.2364  10.2545  10.4119  10.4869  11.0338  11.1223  11.8627  11.9104
    12.0999  12.4235  12.4727  12.5327  12.5468  12.5958  12.6969  12.8040
    12.9078  13.1424  13.2250  13.4422  13.6265  13.6660  14.0614  14.0661
    14.5544  14.6939  15.1935  15.4325  15.6473  15.7785  15.9454  15.9650
    16.4107  17.1643  17.2013  17.4629  17.8147

          k = 0.0000 0.1577-0.4997 ( 62170 PWs)   bands (ev):

   -66.0705 -66.0705 -66.0702 -66.0702 -66.0695 -66.0695 -66.0691 -66.0691
   -30.4904 -30.4904 -30.4867 -30.4867 -30.4405 -30.4405 -30.4359 -30.4359
   -30.4107 -30.4107 -30.4063 -30.4063 -30.3637 -30.3637 -30.3616 -30.3616
   -30.3589 -30.3589 -30.3568 -30.3568 -30.3104 -30.3104 -30.3079 -30.3079
   -20.2236 -20.2236 -20.2235 -20.2235 -20.2235 -20.2235 -20.2235 -20.2235
   -20.2180 -20.2180 -20.2177 -20.2177 -20.2134 -20.2134 -20.2131 -20.2131
   -20.2078 -20.2078 -20.2071 -20.2071 -20.2063 -20.2063 -20.2061 -20.2061
   -20.2058 -20.2058 -20.2053 -20.2053 -20.2049 -20.2049 -20.2048 -20.2048
   -20.1959 -20.1959 -20.1958 -20.1958 -20.1949 -20.1949 -20.1948 -20.1948
   -20.1802 -20.1802 -20.1801 -20.1801 -20.1786 -20.1786 -20.1785 -20.1785
   -20.1772 -20.1772 -20.1772 -20.1772 -20.1738 -20.1738 -20.1738 -20.1738
    -9.5987  -9.5987  -9.3404  -9.3404  -9.0870  -9.0870  -8.8185  -8.8185
    -8.5271  -8.5271  -8.4940  -8.4940  -8.4827  -8.4826  -8.3940  -8.3939
    -7.8970  -7.8970  -7.8452  -7.8452  -7.6586  -7.6586  -7.6394  -7.6394
     1.3774   1.3774   1.3993   1.3993   1.8030   1.8030   1.8906   1.8906
     2.7360   2.7360   3.0250   3.0250   3.1438   3.1438   3.2194   3.2194
     3.3262   3.3262   3.3643   3.3643   3.4973   3.4973   3.8086   3.8086
     3.9732   3.9732   4.2880   4.2880   4.6502   4.6503   4.7855   4.7855
     5.1009   5.1009   5.3452   5.3453   5.3475   5.3476   5.5250   5.5250
     5.7273   5.7273   5.8300   5.8300   6.2001   6.2001   6.3479   6.3479
     6.3780   6.3781   6.4938   6.4938   6.5584   6.5584   6.6884   6.6884
     6.8737   6.8737   6.8796   6.8796   7.0117   7.0117   7.5275   7.5275
     7.5726   7.5726   7.6840   7.6840   7.7108   7.7108   8.0799   8.0799
    10.2514  10.2514  11.1955  11.1955  11.2625  11.2625  11.6730  11.6730
    11.8834  11.8834  12.4770  12.4770  12.6888  12.6888  12.8368  12.8368
    12.9034  12.9034  13.2080  13.2080  13.4752  13.4752  14.0631  14.0631
    14.6549  14.6549  15.5351  15.5351  15.8250  15.8250  15.8798  15.8798
    16.7171  16.7171  17.6494  17.6494  18.1616

          k = 0.0000 0.3154 0.0000 ( 62133 PWs)   bands (ev):

   -66.0709 -66.0707 -66.0699 -66.0699 -66.0697 -66.0697 -66.0689 -66.0687
   -30.4812 -30.4776 -30.4772 -30.4738 -30.4524 -30.4486 -30.4480 -30.4445
   -30.4145 -30.4138 -30.4108 -30.4086 -30.4081 -30.4073 -30.4069 -30.4048
   -30.3134 -30.3121 -30.3121 -30.3106 -30.3096 -30.3088 -30.3069 -30.3059
   -20.2236 -20.2236 -20.2235 -20.2235 -20.2235 -20.2235 -20.2234 -20.2234
   -20.2171 -20.2169 -20.2168 -20.2166 -20.2145 -20.2142 -20.2141 -20.2139
   -20.2077 -20.2074 -20.2072 -20.2070 -20.2070 -20.2069 -20.2067 -20.2067
   -20.2055 -20.2055 -20.2052 -20.2051 -20.2050 -20.2048 -20.2046 -20.2044
   -20.1961 -20.1960 -20.1957 -20.1956 -20.1951 -20.1950 -20.1947 -20.1946
   -20.1818 -20.1818 -20.1808 -20.1808 -20.1804 -20.1804 -20.1795 -20.1794
   -20.1751 -20.1751 -20.1745 -20.1745 -20.1738 -20.1738 -20.1731 -20.1731
    -9.8151  -9.6761  -9.3539  -9.3529  -9.2275  -9.2247  -8.9996  -8.9933
    -8.7723  -8.6601  -8.6518  -8.6510  -8.1718  -8.1256  -8.1234  -8.0990
    -7.7358  -7.7358  -7.7218  -7.7217  -7.5812  -7.5804  -7.5704  -7.5694
     1.2572   1.2574   1.3460   1.3486   1.3527   1.3561   1.6569   1.6925
     2.3977   2.4501   2.4879   2.5434   2.5506   2.7152   2.8833   2.8932
     3.0153   3.0286   3.6528   3.6673   3.6946   3.7092   4.1676   4.4886
     4.4999   4.7694   4.8839   4.9033   4.9110   4.9299   5.0705   5.0781
     5.0903   5.0988   5.4041   5.4101   5.6127   5.6143   5.7095   5.7166
     5.8754   5.8785   5.9189   5.9271   6.0662   6.0666   6.0997   6.1740
     6.1785   6.2367   6.2584   6.5502   6.6773   6.6841   6.8906   6.8959
     6.9389   7.0075   7.1094   7.1096   7.1305   7.1340   7.4373   7.4420
     7.4648   7.4695   7.8132   7.8199   7.8523   7.8547   7.8796   7.8867
     9.3546   9.3574  10.7029  10.7115  10.7494  10.7523  11.8331  11.8538
    11.9744  11.9819  12.3478  12.3619  12.3700  12.3812  12.8923  12.9143
    13.4218  13.4346  13.5008  13.5121  13.8613  13.8649  13.8770  13.8940
    14.8052  15.2603  15.2666  15.4883  15.4944  15.6821  15.9554  15.9610
    15.9797  16.9138  17.2720  17.6723  17.6841

          k = 0.0000 0.3154 0.1666 ( 62193 PWs)   bands (ev):

   -66.0709 -66.0707 -66.0700 -66.0698 -66.0698 -66.0696 -66.0690 -66.0688
   -30.4810 -30.4779 -30.4772 -30.4742 -30.4523 -30.4489 -30.4480 -30.4448
   -30.4124 -30.4108 -30.4076 -30.4054 -30.4051 -30.4051 -30.4012 -30.4001
   -30.3202 -30.3189 -30.3159 -30.3146 -30.3118 -30.3104 -30.3079 -30.3065
   -20.2236 -20.2236 -20.2235 -20.2235 -20.2235 -20.2235 -20.2234 -20.2234
   -20.2171 -20.2169 -20.2168 -20.2166 -20.2145 -20.2142 -20.2142 -20.2139
   -20.2077 -20.2074 -20.2072 -20.2070 -20.2070 -20.2067 -20.2067 -20.2064
   -20.2055 -20.2054 -20.2053 -20.2051 -20.2050 -20.2048 -20.2047 -20.2045
   -20.1960 -20.1960 -20.1957 -20.1956 -20.1951 -20.1950 -20.1947 -20.1947
   -20.1814 -20.1814 -20.1807 -20.1807 -20.1800 -20.1800 -20.1795 -20.1795
   -20.1756 -20.1756 -20.1744 -20.1744 -20.1743 -20.1743 -20.1732 -20.1732
    -9.7646  -9.6223  -9.3701  -9.2782  -9.2403  -9.1390  -8.9592  -8.9521
    -8.7806  -8.6564  -8.6537  -8.6353  -8.1721  -8.1335  -8.1204  -8.1052
    -7.8564  -7.8436  -7.7234  -7.7149  -7.7067  -7.6990  -7.5902  -7.5792
     1.3474   1.3486   1.3587   1.3625   1.5969   1.6048   1.8141   1.8609
     2.4005   2.5229   2.5374   2.5509   2.5786   2.7057   2.8915   2.9950
     3.0080   3.1234   3.6693   3.6941   3.6995   3.7390   4.1583   4.4475
     4.4672   4.5055   4.5509   4.7733   4.7976   4.9028   4.9555   4.9691
     5.0675   5.1096   5.2013   5.3215   5.4448   5.4926   5.6197   5.6454
     5.7029   5.8020   5.8086   5.8583   6.0590   6.1339   6.1429   6.1714
     6.2843   6.4442   6.4584   6.6105   6.6680   6.8727   6.9134   6.9550
     6.9905   7.0048   7.0924   7.1057   7.1080   7.1333   7.2046   7.2135
     7.2970   7.3131   7.8143   7.8251   7.8341   7.8555   7.8678   7.8707
     9.7070   9.7197  10.7160  10.7536  10.8848  10.9180  11.8514  11.9297
    11.9835  12.0502  12.2618  12.2779  12.4109  12.4400  12.9349  12.9482
    13.2387  13.3861  13.4156  13.4967  13.7165  13.7673  13.8613  13.8739
    14.9390  15.2571  15.4672  15.5107  15.5541  15.7498  15.9350  16.1440
    16.2505  16.8766  17.3369  17.3588  17.7698

          k = 0.0000 0.3154 0.3332 ( 62211 PWs)   bands (ev):

   -66.0707 -66.0705 -66.0702 -66.0700 -66.0697 -66.0695 -66.0692 -66.0690
   -30.4806 -30.4787 -30.4768 -30.4749 -30.4517 -30.4497 -30.4475 -30.4456
   -30.4113 -30.4089 -30.4086 -30.4061 -30.3880 -30.3870 -30.3831 -30.3820
   -30.3385 -30.3372 -30.3339 -30.3326 -30.3110 -30.3096 -30.3088 -30.3074
   -20.2236 -20.2236 -20.2235 -20.2235 -20.2235 -20.2235 -20.2234 -20.2234
   -20.2171 -20.2170 -20.2168 -20.2167 -20.2145 -20.2143 -20.2141 -20.2140
   -20.2076 -20.2075 -20.2072 -20.2070 -20.2066 -20.2064 -20.2063 -20.2060
   -20.2057 -20.2057 -20.2053 -20.2053 -20.2051 -20.2050 -20.2049 -20.2048
   -20.1959 -20.1959 -20.1958 -20.1957 -20.1950 -20.1949 -20.1948 -20.1947
   -20.1805 -20.1805 -20.1802 -20.1802 -20.1798 -20.1798 -20.1789 -20.1788
   -20.1769 -20.1768 -20.1755 -20.1755 -20.1741 -20.1741 -20.1735 -20.1735
    -9.6428  -9.4958  -9.4229  -9.2878  -9.0850  -8.8882  -8.8362  -8.8114
    -8.8092  -8.6714  -8.6232  -8.5680  -8.2231  -8.2095  -8.1522  -8.1265
    -8.1123  -8.0722  -8.0284  -7.9810  -7.6938  -7.6821  -7.6174  -7.6062
     1.3742   1.3791   1.3993   1.4046   2.2132   2.2887   2.3243   2.4198
     2.5004   2.5421   2.5516   2.7694   2.8201   2.8389   2.9135   2.9957
     3.2388   3.3332   3.6518   3.6694   3.7411   3.7922   3.8740   3.8826
     4.1388   4.3297   4.4131   4.4422   4.5055   4.6107   4.6535   4.8154
     4.8286   4.8668   5.0232   5.0963   5.2188   5.2277   5.2342   5.3988
     5.4066   5.6151   5.6680   5.8174   6.1551   6.2188   6.2462   6.2816
     6.4583   6.6247   6.6604   6.6933   6.7149   6.8352   6.8502   6.8635
     6.9400   6.9895   7.0594   7.0843   7.0971   7.1592   7.1932   7.2086
     7.3128   7.3603   7.7458   7.7630   7.7829   7.7909   7.8529   7.8701
    10.4307  10.4494  10.7289  10.7598  11.3414  11.3912  11.8142  11.9007
    11.9032  12.0137  12.2244  12.2684  12.5701  12.6404  12.6640  12.7467
    12.8746  13.1607  13.1901  13.4053  13.4922  13.5383  13.8596  13.8695
    15.1106  15.2299  15.6009  15.8585  15.9583  15.9802  16.0309  16.6617
    16.7483  16.8234  17.0493  17.5551  17.6474

          k = 0.0000 0.3154-0.4997 ( 62270 PWs)   bands (ev):

   -66.0704 -66.0704 -66.0702 -66.0702 -66.0694 -66.0694 -66.0692 -66.0692
   -30.4797 -30.4797 -30.4759 -30.4759 -30.4508 -30.4508 -30.4466 -30.4466
   -30.4099 -30.4099 -30.4075 -30.4075 -30.3633 -30.3633 -30.3621 -30.3621
   -30.3585 -30.3585 -30.3573 -30.3573 -30.3099 -30.3099 -30.3085 -30.3085
   -20.2236 -20.2236 -20.2235 -20.2235 -20.2235 -20.2235 -20.2235 -20.2235
   -20.2171 -20.2171 -20.2168 -20.2168 -20.2144 -20.2144 -20.2141 -20.2141
   -20.2076 -20.2076 -20.2071 -20.2071 -20.2062 -20.2062 -20.2060 -20.2060
   -20.2058 -20.2058 -20.2055 -20.2055 -20.2050 -20.2050 -20.2049 -20.2049
   -20.1959 -20.1959 -20.1958 -20.1958 -20.1949 -20.1949 -20.1948 -20.1948
   -20.1802 -20.1802 -20.1801 -20.1801 -20.1786 -20.1786 -20.1785 -20.1785
   -20.1772 -20.1772 -20.1772 -20.1772 -20.1738 -20.1738 -20.1738 -20.1738
    -9.5150  -9.5150  -9.3718  -9.3718  -8.8982  -8.8981  -8.7097  -8.7097
    -8.5414  -8.5414  -8.5230  -8.5230  -8.4703  -8.4703  -8.3701  -8.3701
    -8.1259  -8.1259  -8.0836  -8.0836  -7.6551  -7.6551  -7.6437  -7.6437
     1.3929   1.3929   1.3987   1.3987   2.4011   2.4011   2.5393   2.5393
     2.9302   2.9302   3.0740   3.0740   3.1199   3.1200   3.2964   3.2964
     3.3539   3.3539   3.3807   3.3808   3.4546   3.4546   3.6682   3.6682
     4.1018   4.1018   4.1300   4.1301   4.1557   4.1557   4.3855   4.3855
     4.8383   4.8383   4.9522   4.9522   5.1525   5.1526   5.3199   5.3199
     5.4634   5.4635   5.7431   5.7431   6.3100   6.3100   6.3710   6.3710
     6.4958   6.4958   6.5378   6.5378   6.5866   6.5866   6.7896   6.7896
     7.0683   7.0684   7.0791   7.0792   7.1199   7.1199   7.5334   7.5334
     7.5575   7.5576   7.5869   7.5870   7.6222   7.6222   7.8614   7.8614
    10.7323  10.7323  11.2091  11.2091  11.2575  11.2575  11.7545  11.7545
    12.0653  12.0653  12.1971  12.1971  12.5803  12.5803  12.6844  12.6844
    12.8555  12.8555  13.0049  13.0049  13.4906  13.4906  13.8630  13.8630
    15.1831  15.1831  15.7375  15.7375  16.3159  16.3159  16.4781  16.4781
    16.8765  16.8765  17.2754  17.2754  17.9631

          k = 0.0000-0.4730 0.0000 ( 62124 PWs)   bands (ev):

   -66.0708 -66.0708 -66.0698 -66.0698 -66.0698 -66.0698 -66.0688 -66.0688
   -30.4666 -30.4666 -30.4630 -30.4630 -30.4626 -30.4626 -30.4592 -30.4592
   -30.4140 -30.4140 -30.4100 -30.4100 -30.4076 -30.4076 -30.4061 -30.4061
   -30.3128 -30.3128 -30.3114 -30.3114 -30.3091 -30.3091 -30.3065 -30.3065
   -20.2236 -20.2236 -20.2235 -20.2235 -20.2235 -20.2235 -20.2234 -20.2234
   -20.2158 -20.2158 -20.2156 -20.2155 -20.2155 -20.2155 -20.2153 -20.2153
   -20.2074 -20.2074 -20.2072 -20.2071 -20.2069 -20.2069 -20.2068 -20.2068
   -20.2054 -20.2054 -20.2052 -20.2052 -20.2049 -20.2048 -20.2047 -20.2046
   -20.1960 -20.1960 -20.1956 -20.1956 -20.1951 -20.1951 -20.1947 -20.1947
   -20.1818 -20.1818 -20.1808 -20.1808 -20.1804 -20.1804 -20.1794 -20.1794
   -20.1751 -20.1751 -20.1745 -20.1745 -20.1738 -20.1738 -20.1731 -20.1731
    -9.7367  -9.7367  -9.2762  -9.2762  -9.2742  -9.2742  -8.9964  -8.9964
    -8.4750  -8.4750  -8.4186  -8.4186  -8.4170  -8.4170  -8.4159  -8.4159
    -7.7314  -7.7314  -7.7264  -7.7264  -7.5759  -7.5759  -7.5750  -7.5750
     1.2573   1.2573   1.3480   1.3480   1.3553   1.3553   1.6841   1.6841
     2.4687   2.4687   3.1683   3.1684   3.2228   3.2228   3.2961   3.2961
     3.3072   3.3072   3.3114   3.3114   3.5081   3.5082   3.5242   3.5242
     3.7037   3.7038   4.8946   4.8946   4.9129   4.9129   5.2321   5.2321
     5.2533   5.2533   5.3370   5.3370   5.3458   5.3458   5.7730   5.7730
     5.7802   5.7802   6.0234   6.0234   6.0392   6.0392   6.1931   6.1932
     6.2075   6.2075   6.3063   6.3063   6.7709   6.7709   6.7773   6.7773
     6.9746   6.9746   7.4246   7.4246   7.4295   7.4295   7.4849   7.4849
     7.4874   7.4874   7.5711   7.5712   7.5734   7.5734   7.8254   7.8255
     9.3562   9.3562  11.2849  11.2849  11.3014  11.3014  11.3710  11.3710
    11.3912  11.3912  12.3624  12.3624  12.3752  12.3752  12.9057  12.9057
    13.6038  13.6038  13.6277  13.6277  13.6546  13.6546  13.6669  13.6669
    15.3862  15.3863  15.4914  15.4914  15.7126  15.7126  15.7156  15.7156
    16.5696  16.5696  17.9969  17.9969  18.1275

          k = 0.0000-0.4730 0.1666 ( 62190 PWs)   bands (ev):

   -66.0708 -66.0708 -66.0699 -66.0699 -66.0698 -66.0697 -66.0689 -66.0689
   -30.4665 -30.4665 -30.4633 -30.4633 -30.4625 -30.4625 -30.4595 -30.4595
   -30.4116 -30.4116 -30.4065 -30.4065 -30.4055 -30.4054 -30.4008 -30.4007
   -30.3195 -30.3195 -30.3153 -30.3153 -30.3111 -30.3111 -30.3072 -30.3072
   -20.2236 -20.2236 -20.2235 -20.2235 -20.2235 -20.2235 -20.2234 -20.2234
   -20.2158 -20.2158 -20.2156 -20.2156 -20.2155 -20.2155 -20.2153 -20.2153
   -20.2074 -20.2074 -20.2072 -20.2072 -20.2068 -20.2068 -20.2066 -20.2066
   -20.2053 -20.2053 -20.2053 -20.2053 -20.2049 -20.2049 -20.2048 -20.2048
   -20.1960 -20.1960 -20.1957 -20.1957 -20.1950 -20.1950 -20.1947 -20.1947
   -20.1814 -20.1814 -20.1807 -20.1807 -20.1800 -20.1800 -20.1795 -20.1795
   -20.1756 -20.1756 -20.1744 -20.1744 -20.1743 -20.1743 -20.1732 -20.1732
    -9.6839  -9.6839  -9.2907  -9.2907  -9.1913  -9.1913  -8.9555  -8.9555
    -8.4806  -8.4806  -8.4244  -8.4244  -8.4152  -8.4152  -8.4104  -8.4103
    -7.8503  -7.8503  -7.7183  -7.7183  -7.7039  -7.7039  -7.5848  -7.5848
     1.3483   1.3483   1.3615   1.3615   1.6029   1.6029   1.8507   1.8507
     2.5589   2.5589   3.1814   3.1814   3.2250   3.2250   3.2970   3.2971
     3.3098   3.3098   3.3474   3.3474   3.5171   3.5171   3.5626   3.5627
     3.7326   3.7326   4.4922   4.4922   4.9478   4.9478   5.0025   5.0025
     5.1568   5.1569   5.2227   5.2227   5.3548   5.3549   5.5142   5.5142
     5.7501   5.7501   5.8074   5.8074   6.1396   6.1396   6.1559   6.1559
     6.4188   6.4188   6.4570   6.4570   6.7599   6.7600   6.9456   6.9456
     7.0340   7.0340   7.1991   7.1991   7.2509   7.2509   7.4738   7.4738
     7.4943   7.4943   7.5340   7.5340   7.5526   7.5526   7.8404   7.8404
     9.7149   9.7149  11.3053  11.3053  11.3803  11.3803  11.4155  11.4155
    11.4969  11.4969  12.2707  12.2707  12.4258  12.4259  12.9470  12.9470
    13.4313  13.4313  13.5203  13.5203  13.6386  13.6386  13.6516  13.6516
    15.4330  15.4330  15.6365  15.6365  15.6986  15.6986  15.9804  15.9804
    16.6311  16.6311  17.9080  17.9080  18.0855

          k = 0.0000-0.4730 0.3332 ( 62224 PWs)   bands (ev):

   -66.0706 -66.0706 -66.0701 -66.0701 -66.0696 -66.0696 -66.0691 -66.0691
   -30.4660 -30.4660 -30.4641 -30.4641 -30.4622 -30.4621 -30.4603 -30.4603
   -30.4102 -30.4102 -30.4075 -30.4075 -30.3876 -30.3875 -30.3826 -30.3826
   -30.3378 -30.3378 -30.3333 -30.3333 -30.3103 -30.3103 -30.3081 -30.3081
   -20.2236 -20.2236 -20.2235 -20.2235 -20.2235 -20.2235 -20.2234 -20.2234
   -20.2158 -20.2158 -20.2157 -20.2157 -20.2155 -20.2155 -20.2154 -20.2154
   -20.2074 -20.2074 -20.2072 -20.2072 -20.2065 -20.2065 -20.2062 -20.2062
   -20.2056 -20.2056 -20.2052 -20.2052 -20.2051 -20.2051 -20.2050 -20.2049
   -20.1959 -20.1959 -20.1957 -20.1957 -20.1950 -20.1950 -20.1948 -20.1948
   -20.1805 -20.1805 -20.1802 -20.1802 -20.1798 -20.1798 -20.1789 -20.1788
   -20.1769 -20.1769 -20.1755 -20.1755 -20.1741 -20.1741 -20.1735 -20.1735
    -9.5580  -9.5580  -9.3412  -9.3412  -8.9566  -8.9566  -8.8182  -8.8182
    -8.5140  -8.5140  -8.4497  -8.4497  -8.4070  -8.4070  -8.3845  -8.3844
    -8.1389  -8.1389  -8.0166  -8.0166  -7.6881  -7.6881  -7.6119  -7.6119
     1.3779   1.3779   1.4032   1.4032   2.2781   2.2781   2.4798   2.4798
     2.8200   2.8200   3.1958   3.1958   3.2370   3.2370   3.2872   3.2872
     3.3000   3.3000   3.4296   3.4296   3.5057   3.5058   3.7129   3.7129
     3.7957   3.7957   3.8704   3.8704   4.5113   4.5113   4.6769   4.6769
     4.8133   4.8133   4.8833   4.8833   5.2495   5.2495   5.2824   5.2824
     5.4041   5.4041   5.6774   5.6774   6.2154   6.2154   6.2840   6.2840
     6.5589   6.5589   6.6981   6.6981   6.7413   6.7413   6.8846   6.8846
     7.0415   7.0415   7.2127   7.2127   7.2172   7.2173   7.4534   7.4534
     7.4905   7.4905   7.5154   7.5154   7.5283   7.5283   7.7968   7.7968
    10.4464  10.4464  11.3175  11.3175  11.3639  11.3639  11.7921  11.7921
    11.8397  11.8397  11.8996  11.8996  12.5931  12.5931  12.7764  12.7764
    12.9671  12.9671  13.2345  13.2345  13.6317  13.6317  13.6470  13.6470
    15.4613  15.4613  15.6385  15.6385  16.2403  16.2403  16.6891  16.6891
    16.8440  16.8440  17.3968  17.3969  17.9164

          k = 0.0000-0.4730-0.4997 ( 62200 PWs)   bands (ev):

   -66.0703 -66.0703 -66.0703 -66.0703 -66.0693 -66.0693 -66.0693 -66.0693
   -30.4652 -30.4652 -30.4651 -30.4651 -30.4613 -30.4613 -30.4613 -30.4613
   -30.4088 -30.4088 -30.4088 -30.4088 -30.3627 -30.3627 -30.3627 -30.3627
   -30.3579 -30.3579 -30.3579 -30.3579 -30.3092 -30.3092 -30.3092 -30.3092
   -20.2236 -20.2236 -20.2235 -20.2235 -20.2235 -20.2235 -20.2235 -20.2235
   -20.2157 -20.2157 -20.2157 -20.2157 -20.2154 -20.2154 -20.2154 -20.2154
   -20.2073 -20.2073 -20.2073 -20.2073 -20.2060 -20.2060 -20.2060 -20.2060
   -20.2056 -20.2056 -20.2056 -20.2056 -20.2051 -20.2051 -20.2051 -20.2051
   -20.1958 -20.1958 -20.1958 -20.1958 -20.1949 -20.1949 -20.1949 -20.1949
   -20.1801 -20.1801 -20.1801 -20.1801 -20.1786 -20.1786 -20.1785 -20.1785
   -20.1772 -20.1772 -20.1772 -20.1772 -20.1738 -20.1738 -20.1738 -20.1738
    -9.4302  -9.4302  -9.4302  -9.4302  -8.6631  -8.6631  -8.6631  -8.6631
    -8.5837  -8.5837  -8.5837  -8.5837  -8.3646  -8.3646  -8.3646  -8.3646
    -8.2934  -8.2934  -8.2934  -8.2933  -7.6495  -7.6495  -7.6495  -7.6495
     1.3972   1.3972   1.3972   1.3972   3.0348   3.0348   3.0348   3.0348
     3.1708   3.1708   3.1708   3.1709   3.2643   3.2644   3.2644   3.2644
     3.3130   3.3130   3.3130   3.3130   3.4945   3.4945   3.4945   3.4945
     3.6518   3.6518   3.6519   3.6519   4.3354   4.3354   4.3354   4.3355
     4.4495   4.4495   4.4495   4.4496   5.2555   5.2555   5.2555   5.2555
     5.5388   5.5388   5.5388   5.5388   6.3614   6.3614   6.3614   6.3614
     6.5442   6.5442   6.5442   6.5442   6.6774   6.6774   6.6774   6.6774
     7.3127   7.3127   7.3127   7.3127   7.3973   7.3973   7.3973   7.3973
     7.4894   7.4894   7.4894   7.4894   7.6106   7.6106   7.6106   7.6106
    11.2022  11.2022  11.2022  11.2022  11.3714  11.3714  11.3714  11.3714
    12.3199  12.3199  12.3199  12.3199  12.3617  12.3617  12.3617  12.3617
    12.8931  12.8931  12.8931  12.8931  13.6363  13.6363  13.6363  13.6363
    15.5485  15.5485  15.5485  15.5485  16.8877  16.8878  16.8878  16.8878
    17.3584  17.3584  17.3584  17.3585  17.4929

          k = 0.1667 0.0000 0.0000 ( 62184 PWs)   bands (ev):

   -66.0710 -66.0706 -66.0701 -66.0700 -66.0697 -66.0696 -66.0691 -66.0687
   -30.4956 -30.4922 -30.4920 -30.4888 -30.4385 -30.4343 -30.4340 -30.4300
   -30.4140 -30.4114 -30.4086 -30.4066 -30.4062 -30.4020 -30.4002 -30.3967
   -30.3196 -30.3166 -30.3153 -30.3138 -30.3129 -30.3112 -30.3094 -30.3074
   -20.2237 -20.2236 -20.2236 -20.2235 -20.2235 -20.2235 -20.2234 -20.2234
   -20.2184 -20.2182 -20.2182 -20.2180 -20.2131 -20.2128 -20.2128 -20.2125
   -20.2078 -20.2076 -20.2074 -20.2073 -20.2068 -20.2067 -20.2066 -20.2063
   -20.2059 -20.2055 -20.2053 -20.2051 -20.2051 -20.2046 -20.2044 -20.2041
   -20.1960 -20.1959 -20.1956 -20.1955 -20.1952 -20.1950 -20.1948 -20.1947
   -20.1817 -20.1817 -20.1805 -20.1805 -20.1804 -20.1804 -20.1791 -20.1790
   -20.1750 -20.1750 -20.1749 -20.1749 -20.1739 -20.1739 -20.1736 -20.1736
    -9.8689  -9.5754  -9.4916  -9.4149  -9.2100  -9.1026  -9.0630  -8.9644
    -8.9483  -8.8367  -8.8228  -8.7858  -7.8719  -7.8455  -7.8248  -7.7773
    -7.7732  -7.7318  -7.7249  -7.7088  -7.7073  -7.6945  -7.5965  -7.5743
     1.3302   1.3327   1.3443   1.3552   1.4757   1.5114   1.6123   1.6522
     1.6546   1.7439   1.8702   2.0270   2.5178   2.5988   2.6142   2.6898
     2.7481   2.8403   4.1040   4.1739   4.3809   4.4047   4.4274   4.5187
     4.6885   4.8135   4.8558   4.9446   4.9543   5.0522   5.0896   5.3420
     5.3982   5.4426   5.5349   5.5540   5.5859   5.6262   5.6614   5.6693
     5.7700   5.7873   5.8249   5.9519   6.0095   6.1252   6.1378   6.1506
     6.3094   6.4362   6.4979   6.5812   6.7052   6.7273   6.7938   6.8477
     6.8498   6.9015   6.9952   7.0366   7.0373   7.1088   7.2140   7.2153
     7.2404   7.2998   7.8340   7.8366   8.0469   8.1123   8.1180   8.1708
     9.6910   9.7264  10.0557  10.0900  10.3073  10.3654  12.2494  12.2654
    12.3167  12.3419  12.3972  12.4381  12.5593  12.6601  12.9017  12.9348
    13.1447  13.2522  13.3413  13.4519  13.8889  14.0298  14.1457  14.1928
    14.1990  14.4069  14.5667  15.0174  15.4852  15.5183  15.5449  16.0735
    16.4163  16.8146  17.0171  17.2813  17.5365

          k = 0.1667 0.0000 0.1666 ( 62200 PWs)   bands (ev):

   -66.0709 -66.0705 -66.0700 -66.0700 -66.0696 -66.0696 -66.0691 -66.0687
   -30.4955 -30.4923 -30.4921 -30.4891 -30.4382 -30.4346 -30.4340 -30.4303
   -30.4079 -30.4068 -30.4038 -30.4028 -30.4019 -30.3997 -30.3991 -30.3971
   -30.3205 -30.3195 -30.3181 -30.3169 -30.3166 -30.3155 -30.3136 -30.3121
   -20.2236 -20.2236 -20.2236 -20.2235 -20.2235 -20.2235 -20.2234 -20.2234
   -20.2184 -20.2182 -20.2182 -20.2180 -20.2131 -20.2129 -20.2128 -20.2126
   -20.2078 -20.2076 -20.2073 -20.2071 -20.2067 -20.2067 -20.2065 -20.2062
   -20.2059 -20.2055 -20.2055 -20.2052 -20.2050 -20.2046 -20.2045 -20.2042
   -20.1960 -20.1958 -20.1956 -20.1955 -20.1952 -20.1950 -20.1948 -20.1947
   -20.1813 -20.1813 -20.1804 -20.1803 -20.1801 -20.1801 -20.1792 -20.1791
   -20.1755 -20.1755 -20.1749 -20.1748 -20.1744 -20.1743 -20.1737 -20.1737
    -9.8202  -9.5163  -9.4317  -9.4315  -9.1208  -9.1176  -9.0719  -8.9247
    -8.9118  -8.8277  -8.7917  -8.7909  -7.8701  -7.8527  -7.8349  -7.8343
    -7.8216  -7.7775  -7.7705  -7.7413  -7.7285  -7.7260  -7.7011  -7.6817
     1.4689   1.5030   1.5060   1.5164   1.5193   1.6126   1.6191   1.6466
     1.7377   1.7449   1.9532   2.1039   2.6074   2.6940   2.6997   2.7019
     2.8191   2.8531   4.1052   4.1117   4.3548   4.3595   4.5100   4.5102
     4.5794   4.5809   4.7100   4.7164   4.7799   4.8514   5.0758   5.2752
     5.3172   5.3488   5.4013   5.5110   5.5215   5.6528   5.6588   5.7162
     5.7198   5.7583   5.7796   5.7848   5.8167   6.0176   6.3475   6.4540
     6.4755   6.5084   6.5650   6.6679   6.7086   6.7106   6.7126   6.7435
     6.7802   6.8831   6.8960   6.9061   6.9303   7.0131   7.0159   7.1367
     7.3365   7.3997   7.8356   7.8367   8.0515   8.1010   8.1140   8.1282
     9.9150   9.9839  10.3067  10.3137  10.3314  10.4217  12.2775  12.2992
    12.3099  12.3162  12.3654  12.4100  12.6446  12.6536  12.9345  12.9638
    13.0795  13.1489  13.2426  13.3975  13.9482  14.0044  14.0515  14.0923
    14.1857  14.5256  14.5584  15.1366  15.4521  15.5975  15.6120  16.3735
    16.3824  16.9831  16.9897  17.1596  17.5852

          k = 0.1667 0.0000 0.3332 ( 62202 PWs)   bands (ev):

   -66.0707 -66.0703 -66.0702 -66.0698 -66.0698 -66.0694 -66.0693 -66.0689
   -30.4950 -30.4932 -30.4917 -30.4899 -30.4375 -30.4354 -30.4333 -30.4312
   -30.4054 -30.4029 -30.4012 -30.3982 -30.3878 -30.3859 -30.3837 -30.3816
   -30.3388 -30.3362 -30.3349 -30.3323 -30.3184 -30.3162 -30.3154 -30.3132
   -20.2236 -20.2236 -20.2235 -20.2235 -20.2235 -20.2235 -20.2234 -20.2234
   -20.2184 -20.2183 -20.2181 -20.2180 -20.2131 -20.2129 -20.2128 -20.2127
   -20.2078 -20.2076 -20.2072 -20.2068 -20.2068 -20.2065 -20.2062 -20.2060
   -20.2059 -20.2058 -20.2054 -20.2052 -20.2050 -20.2048 -20.2047 -20.2045
   -20.1959 -20.1958 -20.1957 -20.1956 -20.1951 -20.1949 -20.1949 -20.1948
   -20.1802 -20.1801 -20.1801 -20.1800 -20.1794 -20.1794 -20.1789 -20.1789
   -20.1768 -20.1767 -20.1756 -20.1756 -20.1746 -20.1746 -20.1739 -20.1739
    -9.7018  -9.4840  -9.3775  -9.2917  -9.1635  -9.1023  -8.8673  -8.8494
    -8.8042  -8.7793  -8.7451  -8.6720  -8.1501  -8.1495  -8.0721  -8.0487
    -7.8333  -7.8136  -7.7990  -7.7809  -7.7615  -7.7409  -7.7351  -7.7241
     1.4774   1.4951   1.5919   1.6290   1.6366   1.6559   1.7200   1.7504
     2.3018   2.3361   2.4824   2.5669   2.7221   2.8099   2.8803   2.9421
     2.9814   3.0883   3.8287   3.8883   3.9584   3.9612   4.1980   4.3221
     4.3348   4.5348   4.5426   4.5914   4.6494   4.7688   4.8046   4.9450
     5.0351   5.0767   5.1297   5.2370   5.3237   5.3972   5.5748   5.6927
     5.7072   5.7782   5.7912   5.8289   5.8560   6.0274   6.1820   6.2320
     6.4579   6.4628   6.5156   6.5992   6.6100   6.6830   6.6872   6.7186
     6.8192   6.9008   6.9085   6.9256   7.1536   7.1666   7.2063   7.2681
     7.3610   7.4070   7.7887   7.8038   7.9514   7.9925   8.1063   8.1167
    10.2994  10.3071  10.5601  10.6218  10.9298  11.0524  11.9184  11.9634
    12.1788  12.4382  12.4636  12.5520  12.5799  12.6545  12.8001  12.8939
    12.8964  13.0729  13.1112  13.3300  13.7061  13.7210  13.9993  14.0305
    14.3446  14.5309  14.8352  15.3452  15.4449  15.8473  16.0134  16.2863
    16.4248  17.2121  17.4410  17.5207  17.6103

          k = 0.1667 0.0000-0.4997 ( 62258 PWs)   bands (ev):

   -66.0705 -66.0705 -66.0701 -66.0701 -66.0696 -66.0696 -66.0692 -66.0692
   -30.4942 -30.4942 -30.4909 -30.4909 -30.4365 -30.4365 -30.4323 -30.4323
   -30.4041 -30.4041 -30.3995 -30.3995 -30.3635 -30.3635 -30.3611 -30.3611
   -30.3594 -30.3594 -30.3570 -30.3570 -30.3173 -30.3173 -30.3143 -30.3143
   -20.2236 -20.2236 -20.2235 -20.2235 -20.2235 -20.2235 -20.2235 -20.2235
   -20.2184 -20.2183 -20.2181 -20.2181 -20.2130 -20.2130 -20.2128 -20.2128
   -20.2077 -20.2077 -20.2070 -20.2070 -20.2064 -20.2064 -20.2062 -20.2062
   -20.2058 -20.2058 -20.2053 -20.2053 -20.2049 -20.2049 -20.2048 -20.2048
   -20.1958 -20.1958 -20.1957 -20.1957 -20.1950 -20.1950 -20.1949 -20.1949
   -20.1798 -20.1798 -20.1797 -20.1797 -20.1785 -20.1785 -20.1784 -20.1784
   -20.1773 -20.1773 -20.1773 -20.1773 -20.1743 -20.1743 -20.1742 -20.1742
    -9.5758  -9.5758  -9.2468  -9.2468  -9.1686  -9.1686  -8.8229  -8.8229
    -8.5208  -8.5208  -8.5151  -8.5151  -8.4600  -8.4600  -8.4025  -8.4025
    -7.8135  -7.8135  -7.7766  -7.7766  -7.7562  -7.7562  -7.7492  -7.7492
     1.4845   1.4846   1.6112   1.6112   1.6571   1.6571   1.7549   1.7549
     2.7478   2.7478   3.0227   3.0227   3.1118   3.1118   3.2303   3.2303
     3.3365   3.3365   3.4420   3.4420   3.5608   3.5608   3.8268   3.8268
     3.9167   3.9167   4.4472   4.4472   4.5661   4.5661   4.9119   4.9119
     5.0597   5.0598   5.0893   5.0893   5.2766   5.2767   5.6431   5.6431
     5.8140   5.8140   5.8203   5.8204   5.9227   5.9227   5.9957   5.9957
     6.3791   6.3791   6.4696   6.4697   6.6857   6.6857   6.7466   6.7466
     6.8511   6.8511   6.9940   6.9940   7.0527   7.0527   7.5617   7.5617
     7.6042   7.6042   7.7228   7.7228   7.7477   7.7478   8.1161   8.1161
    10.3180  10.3180  11.2675  11.2675  11.3419  11.3419  11.6308  11.6309
    11.8359  11.8359  12.6583  12.6583  12.6669  12.6669  12.7400  12.7400
    12.9460  12.9460  13.2871  13.2871  13.4020  13.4020  14.0138  14.0138
    14.4715  14.4715  15.1432  15.1432  15.8828  15.8828  16.1108  16.1108
    16.7750  16.7750  17.8545  17.8546  17.9135

          k = 0.1667 0.1577 0.0000 ( 62180 PWs)   bands (ev):

   -66.0709 -66.0706 -66.0701 -66.0699 -66.0697 -66.0696 -66.0691 -66.0687
   -30.4917 -30.4883 -30.4881 -30.4849 -30.4420 -30.4381 -30.4378 -30.4340
   -30.4139 -30.4116 -30.4087 -30.4068 -30.4059 -30.4021 -30.4005 -30.3972
   -30.3194 -30.3168 -30.3151 -30.3136 -30.3130 -30.3114 -30.3093 -30.3075
   -20.2236 -20.2236 -20.2236 -20.2235 -20.2235 -20.2235 -20.2234 -20.2234
   -20.2181 -20.2179 -20.2178 -20.2176 -20.2135 -20.2132 -20.2132 -20.2129
   -20.2078 -20.2075 -20.2073 -20.2072 -20.2068 -20.2067 -20.2067 -20.2064
   -20.2058 -20.2056 -20.2053 -20.2051 -20.2051 -20.2047 -20.2044 -20.2042
   -20.1960 -20.1959 -20.1956 -20.1955 -20.1952 -20.1950 -20.1948 -20.1947
   -20.1817 -20.1817 -20.1805 -20.1805 -20.1804 -20.1804 -20.1791 -20.1790
   -20.1750 -20.1750 -20.1749 -20.1749 -20.1739 -20.1739 -20.1736 -20.1736
    -9.8386  -9.5869  -9.4549  -9.3731  -9.2177  -9.1104  -8.9893  -8.9626
    -8.9492  -8.7927  -8.7847  -8.7526  -7.9341  -7.8902  -7.8742  -7.8548
    -7.8355  -7.8284  -7.7310  -7.7102  -7.7096  -7.6927  -7.5951  -7.5760
     1.3401   1.3432   1.3455   1.3552   1.5722   1.6110   1.6399   1.8499
     1.8669   1.8870   1.9179   2.1360   2.5239   2.5931   2.6862   2.7634
     2.8172   2.9077   4.0016   4.0559   4.1184   4.1720   4.4381   4.5164
     4.7063   4.7450   4.8831   4.9019   4.9289   4.9577   5.0204   5.2703
     5.3145   5.3244   5.3550   5.5208   5.6088   5.6161   5.6555   5.7074
     5.7733   5.7794   5.8406   5.8809   5.9000   6.1349   6.1430   6.1690
     6.2543   6.4329   6.4723   6.6062   6.7390   6.7911   6.8213   6.8369
     6.8778   6.9134   6.9783   6.9954   7.0300   7.0561   7.2143   7.2146
     7.2552   7.2991   7.8360   7.8362   8.0103   8.0406   8.0629   8.0893
     9.6973   9.7253  10.2499  10.2581  10.4752  10.5056  12.1781  12.2569
    12.2932  12.2965  12.3719  12.3797  12.4064  12.5323  12.9156  12.9327
    13.1703  13.2793  13.3530  13.4529  13.9277  13.9558  14.0960  14.1073
    14.3321  14.6844  14.8443  15.1723  15.5183  15.5442  15.8851  16.0424
    16.3798  16.6970  16.9419  17.3917  17.5967

          k = 0.1667 0.1577 0.1666 ( 62193 PWs)   bands (ev):

   -66.0709 -66.0705 -66.0700 -66.0700 -66.0697 -66.0696 -66.0691 -66.0688
   -30.4916 -30.4884 -30.4882 -30.4852 -30.4418 -30.4384 -30.4377 -30.4343
   -30.4078 -30.4068 -30.4039 -30.4028 -30.4017 -30.3999 -30.3995 -30.3975
   -30.3204 -30.3193 -30.3183 -30.3168 -30.3167 -30.3155 -30.3137 -30.3123
   -20.2236 -20.2236 -20.2235 -20.2235 -20.2235 -20.2235 -20.2234 -20.2234
   -20.2181 -20.2179 -20.2178 -20.2176 -20.2135 -20.2132 -20.2132 -20.2129
   -20.2077 -20.2075 -20.2073 -20.2071 -20.2067 -20.2067 -20.2066 -20.2062
   -20.2058 -20.2055 -20.2054 -20.2051 -20.2051 -20.2047 -20.2045 -20.2043
   -20.1960 -20.1959 -20.1956 -20.1955 -20.1952 -20.1950 -20.1948 -20.1947
   -20.1813 -20.1813 -20.1804 -20.1803 -20.1801 -20.1801 -20.1792 -20.1791
   -20.1755 -20.1755 -20.1749 -20.1748 -20.1744 -20.1743 -20.1737 -20.1737
    -9.7884  -9.5280  -9.3903  -9.3902  -9.1287  -9.1256  -8.9983  -8.9239
    -8.9126  -8.7842  -8.7580  -8.7574  -7.9358  -7.8888  -7.8868  -7.8499
    -7.8448  -7.8436  -7.8209  -7.8199  -7.7433  -7.7220  -7.7012  -7.6835
     1.5150   1.5160   1.5728   1.5758   1.6124   1.6176   1.6587   1.8493
     1.9085   1.9142   1.9528   2.1874   2.6151   2.6895   2.7720   2.7758
     2.8909   2.9171   4.0088   4.0314   4.1458   4.1531   4.4923   4.4996
     4.5791   4.5850   4.7093   4.7212   4.7481   4.8068   4.8757   5.2223
     5.2464   5.2787   5.2992   5.3879   5.3974   5.6037   5.6113   5.6538
     5.7685   5.7711   5.7893   5.8088   5.8131   5.8744   6.3557   6.4026
     6.4073   6.4993   6.5593   6.6798   6.7118   6.7454   6.8012   6.8118
     6.8194   6.8547   6.9107   6.9178   6.9814   6.9951   7.0104   7.1430
     7.3410   7.3978   7.8359   7.8371   8.0008   8.0430   8.0482   8.0520
     9.9322   9.9831  10.4596  10.4768  10.4872  10.5542  12.2389  12.2680
    12.3034  12.3079  12.3154  12.3282  12.5061  12.5121  12.9503  12.9553
    13.1144  13.1700  13.2456  13.4006  13.9186  13.9296  13.9526  14.0094
    14.4373  14.8255  14.8385  15.2767  15.5985  15.6106  15.8544  16.3402
    16.3479  16.8235  17.0894  17.0965  17.6491

          k = 0.1667 0.1577 0.3332 ( 62209 PWs)   bands (ev):

   -66.0707 -66.0703 -66.0702 -66.0698 -66.0698 -66.0695 -66.0693 -66.0690
   -30.4911 -30.4892 -30.4878 -30.4860 -30.4412 -30.4392 -30.4372 -30.4351
   -30.4052 -30.4026 -30.4016 -30.3986 -30.3878 -30.3861 -30.3837 -30.3818
   -30.3386 -30.3364 -30.3347 -30.3325 -30.3182 -30.3160 -30.3156 -30.3134
   -20.2236 -20.2236 -20.2235 -20.2235 -20.2235 -20.2235 -20.2234 -20.2234
   -20.2181 -20.2179 -20.2178 -20.2177 -20.2135 -20.2133 -20.2132 -20.2130
   -20.2077 -20.2075 -20.2071 -20.2068 -20.2068 -20.2065 -20.2062 -20.2060
   -20.2058 -20.2058 -20.2054 -20.2053 -20.2050 -20.2048 -20.2048 -20.2046
   -20.1959 -20.1958 -20.1957 -20.1956 -20.1951 -20.1950 -20.1949 -20.1948
   -20.1802 -20.1801 -20.1801 -20.1800 -20.1794 -20.1794 -20.1789 -20.1789
   -20.1768 -20.1768 -20.1756 -20.1756 -20.1746 -20.1746 -20.1739 -20.1739
    -9.6664  -9.4434  -9.3890  -9.2368  -9.1722  -9.0294  -8.8756  -8.8309
    -8.7808  -8.7702  -8.7229  -8.6520  -8.1566  -8.1476  -8.0899  -8.0467
    -7.9029  -7.8866  -7.8635  -7.8352  -7.8164  -7.7949  -7.7421  -7.7241
     1.5835   1.6008   1.6360   1.6553   1.7962   1.8036   1.8808   1.9124
     2.3005   2.3477   2.4842   2.5827   2.7943   2.8661   2.9035   2.9788
     3.0166   3.1453   3.8267   3.8845   3.9210   3.9504   4.1379   4.2021
     4.2758   4.4026   4.5510   4.6099   4.6727   4.7244   4.7605   4.8126
     4.9117   4.9590   5.0014   5.1772   5.2323   5.2742   5.3509   5.6249
     5.6566   5.6728   5.7741   5.8145   5.8326   5.8488   6.1843   6.2311
     6.4011   6.5434   6.5581   6.6566   6.7178   6.7210   6.7487   6.7964
     6.8752   6.8987   6.9360   6.9704   7.1508   7.1586   7.2027   7.2728
     7.3523   7.4004   7.7901   7.8011   7.9056   7.9331   8.0422   8.0471
    10.4236  10.4653  10.5895  10.6384  11.0422  11.1387  11.9191  11.9597
    12.1567  12.4186  12.4684  12.4942  12.5104  12.6046  12.7344  12.7760
    12.8979  13.0879  13.0968  13.3277  13.6011  13.6251  13.9318  13.9570
    14.6475  14.8151  15.1822  15.5490  15.7562  15.8420  16.0238  16.2553
    16.5324  17.1734  17.2269  17.5002  17.5638

          k = 0.1667 0.1577-0.4997 ( 62238 PWs)   bands (ev):

   -66.0704 -66.0704 -66.0701 -66.0701 -66.0696 -66.0696 -66.0692 -66.0692
   -30.4903 -30.4903 -30.4870 -30.4870 -30.4402 -30.4402 -30.4362 -30.4362
   -30.4039 -30.4039 -30.3999 -30.3999 -30.3633 -30.3633 -30.3613 -30.3613
   -30.3593 -30.3593 -30.3571 -30.3571 -30.3171 -30.3171 -30.3146 -30.3146
   -20.2236 -20.2236 -20.2235 -20.2235 -20.2235 -20.2235 -20.2235 -20.2235
   -20.2180 -20.2180 -20.2178 -20.2178 -20.2134 -20.2134 -20.2131 -20.2131
   -20.2076 -20.2076 -20.2070 -20.2070 -20.2063 -20.2063 -20.2062 -20.2062
   -20.2058 -20.2058 -20.2053 -20.2053 -20.2050 -20.2050 -20.2048 -20.2048
   -20.1958 -20.1958 -20.1957 -20.1957 -20.1950 -20.1950 -20.1949 -20.1949
   -20.1798 -20.1798 -20.1797 -20.1797 -20.1785 -20.1785 -20.1784 -20.1784
   -20.1773 -20.1773 -20.1773 -20.1773 -20.1743 -20.1743 -20.1742 -20.1742
    -9.5370  -9.5370  -9.2569  -9.2569  -9.1001  -9.1001  -8.7904  -8.7904
    -8.5242  -8.5242  -8.5170  -8.5170  -8.4621  -8.4620  -8.3969  -8.3969
    -7.8968  -7.8968  -7.8523  -7.8523  -7.7793  -7.7793  -7.7595  -7.7595
     1.5944   1.5944   1.6565   1.6565   1.8121   1.8121   1.9109   1.9109
     2.8153   2.8153   3.0414   3.0414   3.1247   3.1248   3.2490   3.2490
     3.3394   3.3394   3.4482   3.4482   3.5515   3.5515   3.8297   3.8297
     3.9658   3.9658   4.2934   4.2934   4.5636   4.5636   4.7045   4.7045
     4.9561   4.9561   5.0497   5.0497   5.1363   5.1363   5.4647   5.4647
     5.7122   5.7122   5.7761   5.7761   5.8752   5.8752   5.9251   5.9251
     6.5020   6.5020   6.6305   6.6305   6.6748   6.6749   6.8010   6.8010
     6.9274   6.9274   6.9551   6.9551   7.0769   7.0769   7.5618   7.5618
     7.5989   7.5989   7.6935   7.6935   7.7161   7.7161   8.0473   8.0473
    10.4765  10.4765  11.2738  11.2738  11.3407  11.3407  11.6972  11.6972
    11.8951  11.8951  12.5414  12.5414  12.6466  12.6466  12.7216  12.7216
    12.9250  12.9250  13.1820  13.1820  13.3444  13.3444  13.9396  13.9396
    14.7650  14.7650  15.5174  15.5174  16.0007  16.0007  16.0906  16.0906
    16.8059  16.8059  17.6658  17.6658  17.9389

          k = 0.1667 0.3154 0.0000 ( 62195 PWs)   bands (ev):

   -66.0709 -66.0707 -66.0700 -66.0699 -66.0698 -66.0697 -66.0690 -66.0688
   -30.4810 -30.4776 -30.4774 -30.4742 -30.4521 -30.4485 -30.4483 -30.4448
   -30.4135 -30.4122 -30.4085 -30.4073 -30.4052 -30.4029 -30.4003 -30.3982
   -30.3189 -30.3174 -30.3146 -30.3134 -30.3131 -30.3118 -30.3090 -30.3080
   -20.2236 -20.2236 -20.2236 -20.2235 -20.2235 -20.2235 -20.2234 -20.2234
   -20.2171 -20.2169 -20.2169 -20.2166 -20.2145 -20.2142 -20.2142 -20.2139
   -20.2075 -20.2073 -20.2071 -20.2070 -20.2069 -20.2068 -20.2068 -20.2066
   -20.2056 -20.2056 -20.2053 -20.2052 -20.2050 -20.2048 -20.2046 -20.2044
   -20.1960 -20.1959 -20.1956 -20.1955 -20.1952 -20.1951 -20.1947 -20.1947
   -20.1817 -20.1817 -20.1805 -20.1805 -20.1804 -20.1804 -20.1791 -20.1790
   -20.1750 -20.1750 -20.1749 -20.1749 -20.1739 -20.1739 -20.1736 -20.1736
    -9.7649  -9.6228  -9.3712  -9.2774  -9.2431  -9.1364  -8.9591  -8.9517
    -8.7807  -8.6560  -8.6535  -8.6355  -8.1720  -8.1318  -8.1221  -8.1053
    -7.8541  -7.8414  -7.7269  -7.7147  -7.7072  -7.6964  -7.5912  -7.5802
     1.3435   1.3442   1.3521   1.3550   1.6020   1.6108   1.8179   1.8654
     2.4004   2.5225   2.5389   2.5484   2.5786   2.7034   2.9018   2.9846
     3.0233   3.1121   3.6526   3.6824   3.7157   3.7522   4.1591   4.4373
     4.4727   4.5118   4.5613   4.7692   4.7985   4.9031   4.9336   4.9588
     5.0768   5.0991   5.2123   5.3332   5.4450   5.4968   5.6192   5.6437
     5.7051   5.8035   5.8079   5.8564   6.0682   6.1297   6.1458   6.1674
     6.2847   6.4366   6.4487   6.6107   6.6724   6.8784   6.9082   6.9507
     6.9912   7.0025   7.0942   7.1028   7.1179   7.1315   7.2167   7.2193
     7.2934   7.3055   7.8083   7.8209   7.8500   7.8511   7.8649   7.8744
     9.7082   9.7221  10.7073  10.7461  10.8976  10.9166  11.8310  11.9455
    11.9811  12.0561  12.2710  12.2868  12.3979  12.4312  12.9351  12.9378
    13.2636  13.3585  13.4332  13.5076  13.7143  13.7485  13.8652  13.8903
    14.9419  15.2522  15.4485  15.5316  15.5457  15.7488  15.9295  16.1406
    16.2552  16.8765  17.3212  17.3694  17.7954

          k = 0.1667 0.3154 0.1666 ( 62192 PWs)   bands (ev):

   -66.0708 -66.0706 -66.0699 -66.0699 -66.0697 -66.0697 -66.0690 -66.0688
   -30.4809 -30.4778 -30.4775 -30.4745 -30.4520 -30.4488 -30.4483 -30.4451
   -30.4074 -30.4067 -30.4039 -30.4030 -30.4012 -30.4004 -30.4001 -30.3985
   -30.3199 -30.3187 -30.3187 -30.3173 -30.3163 -30.3155 -30.3137 -30.3128
   -20.2236 -20.2236 -20.2235 -20.2235 -20.2235 -20.2235 -20.2234 -20.2234
   -20.2171 -20.2169 -20.2169 -20.2167 -20.2145 -20.2142 -20.2142 -20.2140
   -20.2075 -20.2073 -20.2071 -20.2070 -20.2068 -20.2067 -20.2067 -20.2064
   -20.2056 -20.2055 -20.2053 -20.2053 -20.2050 -20.2049 -20.2047 -20.2045
   -20.1959 -20.1959 -20.1956 -20.1956 -20.1951 -20.1951 -20.1948 -20.1947
   -20.1813 -20.1813 -20.1804 -20.1803 -20.1801 -20.1801 -20.1792 -20.1791
   -20.1755 -20.1755 -20.1749 -20.1748 -20.1744 -20.1743 -20.1737 -20.1737
    -9.7113  -9.5644  -9.2957  -9.2948  -9.1549  -9.1523  -8.9215  -8.9152
    -8.7894  -8.6475  -8.6404  -8.6399  -8.1738  -8.1300  -8.1282  -8.1110
    -7.8459  -7.8449  -7.8316  -7.8311  -7.7399  -7.7279  -7.6979  -7.6875
     1.5152   1.5158   1.6032   1.6079   1.6120   1.6176   1.8880   1.9482
     2.4024   2.5222   2.5281   2.6325   2.6521   2.7137   2.9935   3.0023
     3.1050   3.1180   3.6914   3.7020   3.7191   3.7647   4.1508   4.4634
     4.4718   4.5172   4.5266   4.6071   4.6221   4.7631   4.7759   4.8614
     4.9136   4.9248   5.1487   5.1707   5.3945   5.4260   5.4433   5.4492
     5.6479   5.6695   5.7798   5.7853   5.8356   5.8387   6.4009   6.4309
     6.4548   6.4955   6.5439   6.6573   6.7817   6.7909   6.8931   6.9042
     6.9492   6.9556   7.0157   7.0426   7.1096   7.1192   7.1298   7.1790
     7.3627   7.3988   7.8092   7.8156   7.8278   7.8411   7.8500   7.8760
     9.9564   9.9790  10.8627  10.9024  10.9209  10.9436  11.9121  11.9607
    12.0500  12.0541  12.3095  12.3173  12.3464  12.3534  12.9517  12.9742
    13.2311  13.2571  13.3022  13.4456  13.6901  13.7091  13.7177  13.8037
    15.0911  15.4519  15.4595  15.6046  15.6081  15.8160  16.2211  16.2275
    16.2671  16.8415  17.3841  17.4453  17.4529

          k = 0.1667 0.3154 0.3332 ( 62204 PWs)   bands (ev):

   -66.0706 -66.0704 -66.0701 -66.0699 -66.0697 -66.0695 -66.0692 -66.0690
   -30.4804 -30.4786 -30.4771 -30.4753 -30.4515 -30.4496 -30.4478 -30.4459
   -30.4045 -30.4025 -30.4019 -30.3997 -30.3876 -30.3866 -30.3834 -30.3823
   -30.3382 -30.3369 -30.3343 -30.3330 -30.3177 -30.3162 -30.3155 -30.3140
   -20.2236 -20.2236 -20.2235 -20.2235 -20.2235 -20.2235 -20.2234 -20.2234
   -20.2171 -20.2170 -20.2169 -20.2167 -20.2145 -20.2143 -20.2142 -20.2140
   -20.2075 -20.2074 -20.2071 -20.2069 -20.2066 -20.2064 -20.2063 -20.2060
   -20.2058 -20.2057 -20.2054 -20.2053 -20.2052 -20.2050 -20.2049 -20.2048
   -20.1959 -20.1958 -20.1957 -20.1956 -20.1951 -20.1950 -20.1949 -20.1948
   -20.1802 -20.1802 -20.1801 -20.1800 -20.1794 -20.1794 -20.1789 -20.1789
   -20.1768 -20.1768 -20.1756 -20.1756 -20.1746 -20.1746 -20.1739 -20.1739
    -9.5811  -9.4253  -9.3489  -9.2011  -9.1026  -8.9054  -8.8251  -8.8043
    -8.7827  -8.6545  -8.6186  -8.5736  -8.2276  -8.2090  -8.1429  -8.1263
    -8.1170  -8.0675  -8.0400  -7.9879  -7.8146  -7.8026  -7.7396  -7.7286
     1.6242   1.6350   1.6459   1.6546   2.2185   2.2957   2.3149   2.4159
     2.4832   2.5291   2.5472   2.7433   2.9087   2.9730   3.0132   3.0948
     3.2425   3.3308   3.6803   3.6982   3.7378   3.7956   3.9204   3.9955
     4.1340   4.3335   4.4137   4.4392   4.4942   4.6047   4.6161   4.6806
     4.7387   4.8203   4.8541   4.8937   4.9607   5.0275   5.1719   5.1763
     5.3477   5.3640   5.4763   5.6244   5.8121   5.8476   6.2156   6.2327
     6.5626   6.6470   6.6542   6.7655   6.8419   6.8658   6.9453   6.9903
     7.0323   7.0490   7.0767   7.0950   7.1740   7.2027   7.2215   7.3007
     7.3268   7.3848   7.7495   7.7514   7.7826   7.7964   7.8332   7.8621
    10.5512  10.5889  10.9110  10.9287  11.3530  11.4050  11.8921  11.9318
    11.9658  12.1191  12.2263  12.2576  12.4765  12.5736  12.6819  12.7534
    12.8743  13.0862  13.1472  13.3662  13.3744  13.4206  13.7086  13.7489
    15.3020  15.4329  15.8108  15.9736  16.0259  16.0698  16.1575  16.7181
    16.7205  16.8706  17.0559  17.5854  17.6845

          k = 0.1667 0.3154-0.4997 ( 62214 PWs)   bands (ev):

   -66.0704 -66.0704 -66.0702 -66.0702 -66.0695 -66.0695 -66.0693 -66.0693
   -30.4796 -30.4796 -30.4763 -30.4763 -30.4506 -30.4506 -30.4469 -30.4469
   -30.4032 -30.4032 -30.4010 -30.4010 -30.3630 -30.3630 -30.3618 -30.3618
   -30.3589 -30.3589 -30.3576 -30.3576 -30.3166 -30.3166 -30.3151 -30.3151
   -20.2236 -20.2236 -20.2235 -20.2235 -20.2235 -20.2235 -20.2235 -20.2235
   -20.2171 -20.2171 -20.2168 -20.2168 -20.2144 -20.2144 -20.2141 -20.2141
   -20.2074 -20.2074 -20.2070 -20.2070 -20.2062 -20.2062 -20.2061 -20.2061
   -20.2058 -20.2058 -20.2055 -20.2055 -20.2051 -20.2051 -20.2050 -20.2050
   -20.1958 -20.1958 -20.1957 -20.1957 -20.1950 -20.1950 -20.1949 -20.1949
   -20.1798 -20.1798 -20.1797 -20.1797 -20.1785 -20.1785 -20.1785 -20.1784
   -20.1773 -20.1773 -20.1773 -20.1773 -20.1743 -20.1743 -20.1743 -20.1742
    -9.4450  -9.4450  -9.2897  -9.2897  -8.9130  -8.9130  -8.6894  -8.6894
    -8.5499  -8.5499  -8.5276  -8.5276  -8.4552  -8.4551  -8.3741  -8.3741
    -8.1229  -8.1229  -8.0889  -8.0889  -7.7769  -7.7769  -7.7654  -7.7654
     1.6439   1.6439   1.6555   1.6555   2.4035   2.4035   2.5200   2.5200
     2.9995   2.9995   3.1010   3.1011   3.1282   3.1282   3.3055   3.3055
     3.3475   3.3475   3.4757   3.4757   3.5136   3.5136   3.7150   3.7150
     4.1031   4.1031   4.1318   4.1318   4.1476   4.1476   4.3951   4.3951
     4.7644   4.7644   4.8359   4.8359   5.0151   5.0151   5.0686   5.0686
     5.1716   5.1716   5.5420   5.5420   5.9207   5.9207   5.9306   5.9307
     6.6967   6.6967   6.8055   6.8055   6.8601   6.8601   6.8989   6.8989
     7.0451   7.0451   7.0924   7.0924   7.1987   7.1987   7.5446   7.5446
     7.5787   7.5787   7.5975   7.5975   7.6355   7.6355   7.8435   7.8435
    10.8918  10.8918  11.2878  11.2878  11.3412  11.3412  11.8151  11.8151
    12.0762  12.0762  12.2345  12.2345  12.5651  12.5651  12.6443  12.6443
    12.8231  12.8231  12.9612  12.9612  13.3311  13.3311  13.7219  13.7219
    15.3872  15.3872  16.0030  16.0030  16.3780  16.3780  16.4735  16.4735
    16.9335  16.9335  17.3132  17.3132  17.8850

          k = 0.1667-0.4730 0.0000 ( 62192 PWs)   bands (ev):

   -66.0708 -66.0708 -66.0699 -66.0699 -66.0698 -66.0698 -66.0689 -66.0689
   -30.4665 -30.4664 -30.4629 -30.4629 -30.4628 -30.4628 -30.4595 -30.4595
   -30.4129 -30.4129 -30.4079 -30.4079 -30.4041 -30.4041 -30.3994 -30.3994
   -30.3182 -30.3182 -30.3140 -30.3140 -30.3125 -30.3125 -30.3085 -30.3085
   -20.2236 -20.2236 -20.2235 -20.2235 -20.2235 -20.2235 -20.2234 -20.2234
   -20.2158 -20.2158 -20.2156 -20.2156 -20.2155 -20.2155 -20.2153 -20.2153
   -20.2072 -20.2072 -20.2070 -20.2070 -20.2069 -20.2069 -20.2069 -20.2068
   -20.2055 -20.2055 -20.2053 -20.2053 -20.2048 -20.2048 -20.2047 -20.2047
   -20.1959 -20.1959 -20.1956 -20.1956 -20.1951 -20.1951 -20.1947 -20.1947
   -20.1817 -20.1817 -20.1805 -20.1805 -20.1804 -20.1804 -20.1791 -20.1790
   -20.1750 -20.1750 -20.1749 -20.1749 -20.1739 -20.1739 -20.1736 -20.1736
    -9.6843  -9.6843  -9.2928  -9.2928  -9.1894  -9.1894  -8.9552  -8.9552
    -8.4808  -8.4808  -8.4242  -8.4242  -8.4146  -8.4146  -8.4109  -8.4109
    -7.8482  -7.8482  -7.7210  -7.7210  -7.7019  -7.7019  -7.5857  -7.5857
     1.3441   1.3441   1.3544   1.3544   1.6086   1.6087   1.8550   1.8550
     2.5587   2.5587   3.1730   3.1730   3.2275   3.2275   3.2977   3.2977
     3.3181   3.3181   3.3476   3.3477   3.5089   3.5089   3.5701   3.5701
     3.7312   3.7312   4.4984   4.4984   4.9038   4.9039   5.0357   5.0357
     5.1593   5.1594   5.2228   5.2228   5.3533   5.3534   5.5206   5.5206
     5.7469   5.7469   5.8077   5.8077   6.1425   6.1425   6.1544   6.1544
     6.4237   6.4237   6.4445   6.4445   6.7646   6.7646   6.9438   6.9439
     7.0345   7.0345   7.2077   7.2077   7.2458   7.2458   7.4729   7.4729
     7.4945   7.4946   7.5325   7.5325   7.5562   7.5562   7.8403   7.8403
     9.7165   9.7165  11.2897  11.2897  11.3616  11.3616  11.4343  11.4343
    11.5092  11.5092  12.2804  12.2804  12.4145  12.4145  12.9434  12.9434
    13.4373  13.4374  13.5327  13.5328  13.6181  13.6181  13.6631  13.6631
    15.4458  15.4458  15.6215  15.6215  15.6941  15.6941  15.9814  15.9815
    16.6312  16.6312  17.9034  17.9034  18.1044

          k = 0.1667-0.4730 0.1666 ( 62152 PWs)   bands (ev):

   -66.0707 -66.0707 -66.0698 -66.0698 -66.0698 -66.0698 -66.0690 -66.0689
   -30.4664 -30.4663 -30.4632 -30.4632 -30.4628 -30.4628 -30.4598 -30.4598
   -30.4069 -30.4069 -30.4035 -30.4035 -30.4009 -30.4009 -30.3996 -30.3996
   -30.3193 -30.3193 -30.3180 -30.3180 -30.3158 -30.3158 -30.3134 -30.3134
   -20.2236 -20.2236 -20.2235 -20.2235 -20.2235 -20.2235 -20.2234 -20.2234
   -20.2158 -20.2158 -20.2156 -20.2156 -20.2155 -20.2155 -20.2153 -20.2153
   -20.2073 -20.2072 -20.2071 -20.2070 -20.2068 -20.2068 -20.2066 -20.2066
   -20.2055 -20.2055 -20.2054 -20.2054 -20.2049 -20.2049 -20.2048 -20.2048
   -20.1959 -20.1959 -20.1956 -20.1956 -20.1951 -20.1951 -20.1948 -20.1947
   -20.1813 -20.1813 -20.1803 -20.1803 -20.1801 -20.1801 -20.1791 -20.1791
   -20.1755 -20.1755 -20.1749 -20.1748 -20.1744 -20.1743 -20.1737 -20.1737
    -9.6275  -9.6275  -9.2083  -9.2081  -9.2063  -9.2062  -8.9183  -8.9183
    -8.4880  -8.4878  -8.4191  -8.4186  -8.4166  -8.4166  -8.4116  -8.4113
    -7.8414  -7.8410  -7.8365  -7.8363  -7.7342  -7.7342  -7.6928  -7.6928
     1.5151   1.5157   1.6091   1.6100   1.6151   1.6158   1.9358   1.9361
     2.6520   2.6524   3.1860   3.1869   3.2265   3.2366   3.2958   3.2997
     3.3129   3.3149   3.3890   3.3996   3.5565   3.5581   3.5678   3.5718
     3.7521   3.7534   4.5267   4.5377   4.5754   4.5881   4.9529   4.9602
     5.0279   5.0298   5.1322   5.1413   5.1829   5.1923   5.4635   5.4646
     5.4995   5.5005   5.7829   5.7920   5.8166   5.8231   6.4524   6.4684
[...]
    11.6452  11.6452  11.6452  11.6452  11.7416  11.7416  11.7416  11.7416
    12.0270  12.0270  12.0270  12.0270  12.2501  12.2501  12.2501  12.2501
    13.0410  13.0410  13.0410  13.0410  13.2175  13.2175  13.2175  13.2175
    15.3059  15.3059  15.3059  15.3059  16.8067  16.8068  16.8068  16.8068
    17.6977  17.6977  17.6977  17.6977  17.9310

          k =-0.5000 0.3154 0.0000 ( 62266 PWs)   bands (ev):

   -66.0704 -66.0704 -66.0702 -66.0702 -66.0694 -66.0694 -66.0692 -66.0692
   -30.4795 -30.4795 -30.4760 -30.4760 -30.4503 -30.4503 -30.4468 -30.4468
   -30.4108 -30.4108 -30.4096 -30.4096 -30.3622 -30.3622 -30.3605 -30.3605
   -30.3574 -30.3574 -30.3558 -30.3558 -30.3112 -30.3112 -30.3100 -30.3099
   -20.2236 -20.2236 -20.2236 -20.2236 -20.2234 -20.2234 -20.2234 -20.2234
   -20.2171 -20.2170 -20.2168 -20.2168 -20.2144 -20.2144 -20.2141 -20.2141
   -20.2071 -20.2071 -20.2070 -20.2070 -20.2063 -20.2063 -20.2063 -20.2063
   -20.2061 -20.2061 -20.2059 -20.2059 -20.2049 -20.2049 -20.2045 -20.2045
   -20.1955 -20.1955 -20.1955 -20.1955 -20.1952 -20.1951 -20.1951 -20.1951
   -20.1811 -20.1811 -20.1811 -20.1811 -20.1778 -20.1778 -20.1778 -20.1778
   -20.1764 -20.1764 -20.1764 -20.1764 -20.1745 -20.1745 -20.1744 -20.1744
    -9.5163  -9.5163  -9.3743  -9.3743  -8.8989  -8.8989  -8.7105  -8.7105
    -8.5375  -8.5375  -8.5235  -8.5234  -8.4672  -8.4672  -8.3689  -8.3689
    -8.1241  -8.1241  -8.0838  -8.0838  -7.6565  -7.6565  -7.6451  -7.6451
     1.3861   1.3861   1.3916   1.3916   2.3988   2.3988   2.5381   2.5381
     2.9427   2.9427   3.0645   3.0645   3.1144   3.1144   3.3033   3.3033
     3.3330   3.3330   3.4031   3.4031   3.4614   3.4614   3.6669   3.6670
     4.0902   4.0902   4.1128   4.1128   4.1895   4.1895   4.3969   4.3969
     4.8362   4.8362   4.9365   4.9365   5.1522   5.1522   5.3228   5.3228
     5.4642   5.4642   5.7432   5.7432   6.3083   6.3083   6.3661   6.3661
     6.5011   6.5012   6.5533   6.5533   6.5781   6.5781   6.7923   6.7923
     7.0613   7.0613   7.0854   7.0854   7.1127   7.1127   7.5283   7.5283
     7.5459   7.5459   7.6027   7.6027   7.6295   7.6295   7.8652   7.8652
    10.7295  10.7295  11.2150  11.2150  11.2570  11.2570  11.7245  11.7245
    12.0682  12.0682  12.2007  12.2007  12.5785  12.5785  12.7027  12.7027
    12.8527  12.8527  13.0145  13.0145  13.4917  13.4917  13.8752  13.8752
    15.1799  15.1799  15.7292  15.7292  16.3155  16.3155  16.4765  16.4765
    16.8572  16.8572  17.2752  17.2752  17.9586

          k =-0.5000 0.3154 0.1666 ( 62216 PWs)   bands (ev):

   -66.0704 -66.0704 -66.0702 -66.0702 -66.0695 -66.0695 -66.0693 -66.0693
   -30.4794 -30.4794 -30.4763 -30.4763 -30.4502 -30.4502 -30.4471 -30.4471
   -30.4041 -30.4041 -30.4029 -30.4029 -30.3619 -30.3618 -30.3602 -30.3602
   -30.3577 -30.3577 -30.3562 -30.3562 -30.3179 -30.3179 -30.3166 -30.3166
   -20.2236 -20.2236 -20.2236 -20.2236 -20.2234 -20.2234 -20.2234 -20.2234
   -20.2170 -20.2170 -20.2168 -20.2168 -20.2144 -20.2144 -20.2142 -20.2141
   -20.2070 -20.2070 -20.2069 -20.2069 -20.2064 -20.2063 -20.2062 -20.2062
   -20.2060 -20.2060 -20.2059 -20.2059 -20.2050 -20.2050 -20.2046 -20.2046
   -20.1955 -20.1955 -20.1954 -20.1954 -20.1952 -20.1952 -20.1951 -20.1951
   -20.1807 -20.1807 -20.1807 -20.1807 -20.1777 -20.1777 -20.1777 -20.1777
   -20.1765 -20.1765 -20.1765 -20.1765 -20.1749 -20.1749 -20.1749 -20.1749
    -9.4461  -9.4461  -9.2921  -9.2921  -8.9136  -8.9136  -8.6904  -8.6904
    -8.5473  -8.5472  -8.5264  -8.5264  -8.4527  -8.4527  -8.3729  -8.3729
    -8.1212  -8.1212  -8.0889  -8.0889  -7.7785  -7.7785  -7.7669  -7.7669
     1.6382   1.6382   1.6491   1.6491   2.4017   2.4017   2.5194   2.5194
     3.0094   3.0094   3.0970   3.0970   3.1193   3.1193   3.3085   3.3085
     3.3464   3.3464   3.4845   3.4845   3.5168   3.5168   3.7139   3.7140
     4.0864   4.0864   4.1172   4.1172   4.1852   4.1852   4.4035   4.4035
     4.7605   4.7605   4.8267   4.8267   5.0146   5.0146   5.0697   5.0697
     5.1744   5.1744   5.5414   5.5415   5.9175   5.9175   5.9297   5.9297
     6.6976   6.6977   6.8119   6.8119   6.8639   6.8639   6.9006   6.9006
     7.0381   7.0381   7.0953   7.0953   7.1935   7.1935   7.5384   7.5384
     7.5653   7.5653   7.6130   7.6130   7.6426   7.6426   7.8458   7.8458
    10.8920  10.8920  11.2916  11.2916  11.3385  11.3385  11.7869  11.7869
    12.0793  12.0793  12.2383  12.2384  12.5631  12.5631  12.6614  12.6614
    12.8254  12.8254  12.9701  12.9701  13.3286  13.3286  13.7287  13.7287
    15.3879  15.3879  15.9953  15.9953  16.3777  16.3777  16.4736  16.4736
    16.9169  16.9169  17.3137  17.3137  17.8789

          k =-0.5000 0.3154 0.3332 ( 62204 PWs)   bands (ev):

   -66.0702 -66.0702 -66.0700 -66.0700 -66.0697 -66.0697 -66.0695 -66.0695
   -30.4790 -30.4790 -30.4771 -30.4771 -30.4498 -30.4498 -30.4479 -30.4479
   -30.3860 -30.3860 -30.3848 -30.3848 -30.3610 -30.3609 -30.3594 -30.3594
   -30.3585 -30.3585 -30.3571 -30.3571 -30.3359 -30.3359 -30.3347 -30.3347
   -20.2236 -20.2236 -20.2235 -20.2235 -20.2235 -20.2235 -20.2235 -20.2235
   -20.2170 -20.2170 -20.2169 -20.2169 -20.2144 -20.2144 -20.2142 -20.2142
   -20.2068 -20.2068 -20.2068 -20.2068 -20.2064 -20.2064 -20.2061 -20.2061
   -20.2059 -20.2059 -20.2058 -20.2058 -20.2052 -20.2052 -20.2049 -20.2049
   -20.1954 -20.1954 -20.1954 -20.1954 -20.1952 -20.1952 -20.1952 -20.1952
   -20.1796 -20.1795 -20.1795 -20.1795 -20.1775 -20.1775 -20.1775 -20.1775
   -20.1768 -20.1768 -20.1767 -20.1767 -20.1762 -20.1762 -20.1762 -20.1762
    -9.2669  -9.2669  -9.0670  -9.0670  -8.9645  -8.9644  -8.6352  -8.6352
    -8.5924  -8.5924  -8.4925  -8.4925  -8.4267  -8.4267  -8.3814  -8.3814
    -8.1373  -8.1373  -8.1081  -8.1081  -8.0711  -8.0711  -8.0283  -8.0283
     2.2527   2.2527   2.3320   2.3320   2.4115   2.4115   2.5392   2.5392
     3.0734   3.0734   3.1243   3.1243   3.2257   3.2257   3.3083   3.3083
     3.3935   3.3935   3.6405   3.6405   3.7443   3.7443   3.8371   3.8371
     4.0630   4.0630   4.1303   4.1303   4.1839   4.1839   4.2722   4.2722
     4.3661   4.3661   4.4949   4.4949   4.6571   4.6571   4.8743   4.8743
     4.9865   4.9865   5.0523   5.0523   5.1068   5.1068   5.3209   5.3209
     6.8738   6.8738   6.9292   6.9292   6.9948   6.9948   7.0562   7.0562
     7.2027   7.2028   7.3180   7.3180   7.4265   7.4265   7.5307   7.5307
     7.5740   7.5740   7.6414   7.6414   7.6675   7.6675   7.7946   7.7946
    11.3049  11.3049  11.5334  11.5334  11.6179  11.6179  11.8892  11.8892
    12.1230  12.1230  12.3576  12.3576  12.4063  12.4063  12.4236  12.4236
    12.7590  12.7590  12.8524  12.8524  12.9375  12.9375  13.3442  13.3443
    15.8930  15.8930  16.3778  16.3778  16.6320  16.6320  16.7482  16.7482
    17.1435  17.1435  17.3807  17.3807  17.6637

          k =-0.5000 0.3154-0.4997 ( 62180 PWs)   bands (ev):

   -66.0699 -66.0699 -66.0699 -66.0699 -66.0697 -66.0697 -66.0697 -66.0697
   -30.4781 -30.4781 -30.4781 -30.4781 -30.4489 -30.4489 -30.4489 -30.4489
   -30.3633 -30.3633 -30.3633 -30.3633 -30.3613 -30.3613 -30.3613 -30.3613
   -30.3581 -30.3581 -30.3581 -30.3581 -30.3560 -30.3560 -30.3560 -30.3560
   -20.2235 -20.2235 -20.2235 -20.2235 -20.2235 -20.2235 -20.2235 -20.2235
   -20.2170 -20.2170 -20.2170 -20.2170 -20.2143 -20.2143 -20.2143 -20.2143
   -20.2067 -20.2067 -20.2067 -20.2067 -20.2063 -20.2063 -20.2063 -20.2063
   -20.2057 -20.2057 -20.2057 -20.2057 -20.2053 -20.2053 -20.2053 -20.2053
   -20.1954 -20.1954 -20.1954 -20.1953 -20.1953 -20.1953 -20.1953 -20.1953
   -20.1780 -20.1780 -20.1779 -20.1779 -20.1779 -20.1779 -20.1779 -20.1779
   -20.1771 -20.1771 -20.1771 -20.1771 -20.1770 -20.1770 -20.1770 -20.1770
    -9.0776  -9.0776  -9.0776  -9.0775  -8.7882  -8.7882  -8.7882  -8.7882
    -8.4732  -8.4732  -8.4732  -8.4732  -8.3585  -8.3585  -8.3585  -8.3585
    -8.3376  -8.3376  -8.3376  -8.3375  -8.0928  -8.0928  -8.0928  -8.0928
     2.4139   2.4139   2.4139   2.4139   3.0309   3.0309   3.0309   3.0309
     3.1312   3.1312   3.1312   3.1312   3.2784   3.2784   3.2785   3.2785
     3.3464   3.3464   3.3464   3.3464   3.9858   3.9858   3.9858   3.9858
     4.0326   4.0326   4.0326   4.0326   4.1177   4.1177   4.1177   4.1177
     4.3590   4.3590   4.3590   4.3590   4.3948   4.3948   4.3948   4.3948
     4.7518   4.7518   4.7518   4.7518   5.0611   5.0611   5.0611   5.0611
     6.9327   6.9327   6.9327   6.9327   7.0342   7.0342   7.0342   7.0342
     7.4271   7.4271   7.4271   7.4271   7.5090   7.5090   7.5090   7.5090
     7.6203   7.6203   7.6203   7.6203   7.7231   7.7231   7.7231   7.7231
    11.7723  11.7723  11.7723  11.7723  11.8650  11.8650  11.8650  11.8650
    12.0815  12.0815  12.0815  12.0815  12.3445  12.3445  12.3445  12.3445
    12.7263  12.7263  12.7263  12.7263  12.9232  12.9232  12.9232  12.9232
    16.2450  16.2450  16.2450  16.2450  16.9883  16.9883  16.9883  16.9883
    17.4906  17.4906  17.4906  17.4906  17.9225

          k =-0.5000-0.4730 0.0000 ( 62216 PWs)   bands (ev):

   -66.0703 -66.0703 -66.0703 -66.0703 -66.0693 -66.0693 -66.0693 -66.0693
   -30.4650 -30.4650 -30.4647 -30.4647 -30.4615 -30.4615 -30.4613 -30.4613
   -30.4103 -30.4103 -30.4103 -30.4103 -30.3615 -30.3615 -30.3612 -30.3612
   -30.3568 -30.3568 -30.3565 -30.3565 -30.3106 -30.3106 -30.3106 -30.3106
   -20.2236 -20.2236 -20.2236 -20.2236 -20.2234 -20.2234 -20.2234 -20.2234
   -20.2157 -20.2157 -20.2157 -20.2157 -20.2155 -20.2155 -20.2154 -20.2154
   -20.2070 -20.2070 -20.2069 -20.2069 -20.2063 -20.2063 -20.2063 -20.2063
   -20.2061 -20.2061 -20.2061 -20.2061 -20.2047 -20.2047 -20.2047 -20.2047
   -20.1955 -20.1955 -20.1955 -20.1955 -20.1951 -20.1951 -20.1951 -20.1951
   -20.1811 -20.1811 -20.1811 -20.1811 -20.1778 -20.1778 -20.1778 -20.1778
   -20.1764 -20.1764 -20.1764 -20.1764 -20.1745 -20.1745 -20.1745 -20.1744
    -9.4335  -9.4335  -9.4308  -9.4308  -8.6689  -8.6689  -8.6572  -8.6572
    -8.5870  -8.5869  -8.5780  -8.5780  -8.3733  -8.3732  -8.3525  -8.3524
    -8.3020  -8.3020  -8.2830  -8.2829  -7.6509  -7.6509  -7.6508  -7.6508
     1.3887   1.3887   1.3915   1.3915   3.0033   3.0033   3.0569   3.0570
     3.1827   3.1828   3.1844   3.1844   3.2230   3.2230   3.2302   3.2302
     3.3546   3.3546   3.3623   3.3623   3.4611   3.4611   3.5184   3.5184
     3.5693   3.5693   3.7378   3.7378   4.3170   4.3170   4.3499   4.3499
     4.4161   4.4162   4.4720   4.4720   5.2451   5.2451   5.2648   5.2648
     5.5275   5.5275   5.5491   5.5491   6.3515   6.3515   6.3611   6.3611
     6.5544   6.5544   6.5556   6.5556   6.6613   6.6613   6.6918   6.6918
     7.2981   7.2981   7.3207   7.3207   7.3430   7.3430   7.4522   7.4522
     7.4654   7.4654   7.5261   7.5261   7.6050   7.6050   7.6131   7.6132
    11.2160  11.2160  11.2232  11.2232  11.3354  11.3354  11.3463  11.3463
    12.2889  12.2889  12.3353  12.3353  12.3543  12.3543  12.4029  12.4029
    12.8934  12.8934  12.9000  12.9000  13.6342  13.6342  13.6504  13.6504
    15.5454  15.5454  15.5481  15.5481  16.8587  16.8587  16.9040  16.9040
    17.3302  17.3302  17.3728  17.3729  17.4731

          k =-0.5000-0.4730 0.1666 ( 62188 PWs)   bands (ev):

   -66.0703 -66.0703 -66.0703 -66.0702 -66.0694 -66.0694 -66.0694 -66.0694
   -30.4649 -30.4649 -30.4646 -30.4646 -30.4618 -30.4618 -30.4616 -30.4616
   -30.4036 -30.4036 -30.4036 -30.4036 -30.3612 -30.3612 -30.3609 -30.3609
   -30.3571 -30.3571 -30.3568 -30.3568 -30.3172 -30.3172 -30.3172 -30.3172
   -20.2236 -20.2236 -20.2236 -20.2236 -20.2234 -20.2234 -20.2234 -20.2234
   -20.2157 -20.2157 -20.2157 -20.2157 -20.2155 -20.2155 -20.2155 -20.2155
   -20.2069 -20.2069 -20.2069 -20.2069 -20.2062 -20.2062 -20.2062 -20.2062
   -20.2061 -20.2061 -20.2061 -20.2061 -20.2048 -20.2048 -20.2048 -20.2048
   -20.1955 -20.1955 -20.1955 -20.1955 -20.1952 -20.1952 -20.1951 -20.1951
   -20.1807 -20.1807 -20.1807 -20.1807 -20.1777 -20.1777 -20.1777 -20.1777
   -20.1765 -20.1765 -20.1765 -20.1765 -20.1749 -20.1749 -20.1749 -20.1749
    -9.3555  -9.3555  -9.3525  -9.3525  -8.6894  -8.6894  -8.6779  -8.6778
    -8.5688  -8.5688  -8.5581  -8.5580  -8.3705  -8.3704  -8.3502  -8.3502
    -8.3038  -8.3038  -8.2858  -8.2857  -7.7731  -7.7731  -7.7727  -7.7727
     1.6447   1.6447   1.6483   1.6483   3.0091   3.0091   3.0622   3.0622
     3.1630   3.1630   3.1792   3.1792   3.2339   3.2339   3.2928   3.2928
     3.3417   3.3417   3.4675   3.4675   3.5009   3.5009   3.5670   3.5670
     3.6066   3.6066   3.7651   3.7651   4.3202   4.3202   4.3483   4.3483
     4.4095   4.4095   4.4646   4.4646   4.9097   4.9097   5.0887   5.0888
     5.1710   5.1710   5.3284   5.3284   5.9196   5.9196   5.9320   5.9320
     6.7755   6.7755   6.8174   6.8174   6.9030   6.9030   6.9387   6.9387
     7.2893   7.2893   7.3180   7.3181   7.3751   7.3751   7.4380   7.4381
     7.4685   7.4685   7.5320   7.5320   7.6148   7.6148   7.6401   7.6401
    11.2676  11.2676  11.3003  11.3003  11.4434  11.4434  11.5069  11.5069
    12.2888  12.2888  12.3361  12.3361  12.3589  12.3589  12.4110  12.4110
    12.7991  12.7991  12.8687  12.8687  13.4610  13.4610  13.5084  13.5084
    15.7965  15.7966  15.8188  15.8188  16.9154  16.9154  16.9586  16.9586
    17.3396  17.3396  17.3860  17.3861  17.4637

          k =-0.5000-0.4730 0.3332 ( 62136 PWs)   bands (ev):

   -66.0701 -66.0701 -66.0701 -66.0701 -66.0696 -66.0696 -66.0696 -66.0696
   -30.4645 -30.4645 -30.4642 -30.4642 -30.4626 -30.4626 -30.4624 -30.4624
   -30.3855 -30.3854 -30.3854 -30.3854 -30.3603 -30.3603 -30.3600 -30.3600
   -30.3581 -30.3581 -30.3577 -30.3577 -30.3353 -30.3353 -30.3353 -30.3353
   -20.2236 -20.2235 -20.2235 -20.2235 -20.2235 -20.2235 -20.2235 -20.2235
   -20.2157 -20.2157 -20.2157 -20.2157 -20.2156 -20.2156 -20.2155 -20.2155
   -20.2067 -20.2067 -20.2067 -20.2067 -20.2062 -20.2062 -20.2062 -20.2062
   -20.2060 -20.2060 -20.2059 -20.2059 -20.2051 -20.2051 -20.2051 -20.2051
   -20.1954 -20.1954 -20.1954 -20.1954 -20.1952 -20.1952 -20.1952 -20.1952
   -20.1796 -20.1795 -20.1795 -20.1795 -20.1775 -20.1775 -20.1775 -20.1775
   -20.1768 -20.1768 -20.1767 -20.1767 -20.1762 -20.1762 -20.1762 -20.1762
    -9.1470  -9.1470  -9.1424  -9.1424  -8.7540  -8.7540  -8.7429  -8.7429
    -8.5097  -8.5097  -8.4987  -8.4987  -8.3633  -8.3633  -8.3475  -8.3475
    -8.3059  -8.3059  -8.2932  -8.2932  -8.0645  -8.0645  -8.0634  -8.0634
     2.3194   2.3194   2.3263   2.3263   3.0226   3.0226   3.0560   3.0560
     3.1573   3.1573   3.1693   3.1693   3.2866   3.2866   3.3064   3.3064
     3.4279   3.4279   3.4684   3.4684   3.6634   3.6634   3.6935   3.6935
     3.8120   3.8120   3.8939   3.8939   4.2853   4.2853   4.3098   4.3098
     4.3640   4.3640   4.4273   4.4274   4.4995   4.4995   4.6160   4.6160
     4.6892   4.6892   4.8452   4.8452   5.1122   5.1122   5.1317   5.1317
     7.0378   7.0378   7.0977   7.0977   7.2084   7.2084   7.2254   7.2254
     7.2965   7.2965   7.3374   7.3374   7.3769   7.3769   7.4265   7.4265
     7.5110   7.5110   7.5793   7.5793   7.6399   7.6399   7.6660   7.6660
    11.4937  11.4937  11.5255  11.5255  11.7968  11.7968  11.8725  11.8725
    12.2375  12.2375  12.2823  12.2823  12.3730  12.3730  12.4122  12.4123
    12.5618  12.5618  12.6657  12.6657  13.0284  13.0284  13.1063  13.1063
    16.5076  16.5076  16.5599  16.5599  17.0786  17.0786  17.1074  17.1074
    17.3391  17.3391  17.4086  17.4086  17.4385

          k =-0.5000-0.4730-0.4997 ( 62208 PWs)   bands (ev):

   -66.0698 -66.0698 -66.0698 -66.0698 -66.0698 -66.0698 -66.0698 -66.0698
   -30.4636 -30.4636 -30.4636 -30.4636 -30.4634 -30.4634 -30.4634 -30.4634
   -30.3631 -30.3631 -30.3631 -30.3631 -30.3614 -30.3613 -30.3613 -30.3613
   -30.3581 -30.3581 -30.3580 -30.3580 -30.3563 -30.3563 -30.3563 -30.3563
   -20.2235 -20.2235 -20.2235 -20.2235 -20.2235 -20.2235 -20.2235 -20.2235
   -20.2157 -20.2157 -20.2157 -20.2157 -20.2156 -20.2156 -20.2156 -20.2156
   -20.2066 -20.2066 -20.2066 -20.2066 -20.2063 -20.2063 -20.2063 -20.2063
   -20.2057 -20.2057 -20.2057 -20.2057 -20.2054 -20.2054 -20.2054 -20.2054
   -20.1954 -20.1953 -20.1953 -20.1953 -20.1953 -20.1953 -20.1953 -20.1953
   -20.1780 -20.1779 -20.1779 -20.1779 -20.1779 -20.1779 -20.1779 -20.1779
   -20.1771 -20.1771 -20.1771 -20.1771 -20.1770 -20.1770 -20.1770 -20.1770
    -8.9036  -8.9036  -8.9036  -8.9036  -8.8953  -8.8952  -8.8952  -8.8952
    -8.3823  -8.3823  -8.3823  -8.3823  -8.3697  -8.3697  -8.3696  -8.3696
    -8.3083  -8.3083  -8.3083  -8.3082  -8.2992  -8.2992  -8.2992  -8.2992
     3.0149   3.0149   3.0149   3.0149   3.0441   3.0441   3.0441   3.0441
     3.1795   3.1795   3.1795   3.1795   3.2178   3.2178   3.2178   3.2178
     3.4466   3.4466   3.4466   3.4466   3.5192   3.5192   3.5193   3.5193
     4.1861   4.1861   4.1861   4.1861   4.1966   4.1966   4.1967   4.1967
     4.4040   4.4040   4.4040   4.4041   4.4187   4.4187   4.4187   4.4187
     4.4968   4.4968   4.4968   4.4968   4.5186   4.5186   4.5186   4.5187
     7.1810   7.1811   7.1811   7.1811   7.2704   7.2704   7.2704   7.2704
     7.3586   7.3586   7.3586   7.3586   7.3735   7.3736   7.3736   7.3736
     7.6251   7.6251   7.6251   7.6251   7.6493   7.6493   7.6493   7.6493
    11.8713  11.8713  11.8713  11.8713  11.8783  11.8783  11.8783  11.8783
    12.2939  12.2939  12.2939  12.2939  12.3749  12.3749  12.3749  12.3749
    12.5771  12.5771  12.5771  12.5771  12.6126  12.6126  12.6126  12.6126
    17.1611  17.1611  17.1611  17.1611  17.1995  17.1995  17.1995  17.1995
    17.4025  17.4025  17.4025  17.4026  17.4157

     the Fermi energy is     9.7157 ev

!    total energy              =   -6260.85716720 Ry
     Harris-Foulkes estimate   =   -6260.85716720 Ry
     estimated scf accuracy    <          1.0E-09 Ry

     The total energy is the sum of the following terms:

     one-electron contribution =   -4717.69436422 Ry
     hartree contribution      =    2596.87478270 Ry
     xc contribution           =    -966.06680411 Ry
     ewald contribution        =   -3173.97073250 Ry
     smearing contrib. (-TS)   =      -0.00004907 Ry

     convergence has been achieved in  13 iterations

     Writing output data file Landau_10.save
 
     init_run     :     13.80s CPU     14.80s WALL (       1 calls)
     electrons    :    619.19s CPU    635.04s WALL (       1 calls)

     Called by init_run:
     wfcinit      :     11.40s CPU     12.24s WALL (       1 calls)
     potinit      :      1.00s CPU      1.03s WALL (       1 calls)

     Called by electrons:
     c_bands      :    533.85s CPU    548.22s WALL (      13 calls)
     sum_band     :     77.61s CPU     78.42s WALL (      13 calls)
     v_of_rho     :      1.11s CPU      1.13s WALL (      14 calls)
     mix_rho      :      1.84s CPU      2.19s WALL (      13 calls)

     Called by c_bands:
     init_us_2    :      3.38s CPU      4.04s WALL (      27 calls)
     cegterg      :    350.89s CPU    364.72s WALL (      13 calls)

     Called by sum_band:

     Called by *egterg:
     h_psi        :    284.53s CPU    286.44s WALL (      55 calls)
     g_psi        :      0.62s CPU      0.62s WALL (      41 calls)
     cdiaghg      :      4.94s CPU      4.98s WALL (      54 calls)

     Called by h_psi:
     h_psi:pot    :    282.63s CPU    284.41s WALL (      55 calls)
     h_psi:calbec :     27.05s CPU     27.87s WALL (      55 calls)
     vloc_psi     :    225.38s CPU    226.18s WALL (      55 calls)
     add_vuspsi   :     30.20s CPU     30.36s WALL (      55 calls)

     General routines
     calbec       :     27.05s CPU     27.87s WALL (      55 calls)
     fft          :      0.77s CPU      0.79s WALL (      56 calls)
     fftw         :    233.02s CPU    233.70s WALL (   16797 calls)
 
     Parallel routines
 
     PWSCF        : 10m40.04s CPU    10m57.58s WALL

 
   This run was terminated on:  12:17:28  28Aug2019            

=------------------------------------------------------------------------------=
   JOB DONE.
=------------------------------------------------------------------------------=
