
     Program PWSCF v.6.2 (svn rev. 14038) starts on 23Mar2020 at 23: 1:52 

     This program is part of the open-source Quantum ESPRESSO suite
     for quantum simulation of materials; please cite
         "P. Giannozzi et al., J. Phys.:Condens. Matter 21 395502 (2009);
         "P. Giannozzi et al., J. Phys.:Condens. Matter 29 465901 (2017);
          URL http://www.quantum-espresso.org", 
     in publications or presentations arising from this work. More details at
     http://www.quantum-espresso.org/quote

     Parallel version (MPI), running on    40 processors

     MPI processes distributed on     6 nodes
     K-points division:     npool     =      40
     Reading input from rscf.in

     Current dimensions of program PWSCF are:
     Max number of different atomic species (ntypx) = 10
     Max number of k-points (npk) =  40000
     Max angular momentum in pseudopotentials (lmaxx) =  3

     Subspace diagonalization in iterative solution of the eigenvalue problem:
     a serial algorithm will be used

 
     G-vector sticks info
     --------------------
     sticks:   dense  smooth     PW     G-vecs:    dense   smooth      PW
     Sum        7747    7747   2077               498127   498127   69057
 


     bravais-lattice index     =            0
     lattice parameter (alat)  =      13.8397  a.u.
     unit-cell volume          =    2804.9816 (a.u.)^3
     number of atoms/cell      =           32
     number of atomic types    =            2
     number of electrons       =       368.00
     number of Kohn-Sham states=          221
     kinetic-energy cutoff     =     120.0000  Ry
     charge density cutoff     =     480.0000  Ry
     convergence threshold     =      1.0E-08
     mixing beta               =       0.7000
     number of iterations used =            8  plain     mixing
     Exchange-correlation      = SLA PW NOGX NOGC ( 1  4  0  0 0 0)
     nstep                     =           50


     celldm(1)=  13.839685  celldm(2)=   0.000000  celldm(3)=   0.000000
     celldm(4)=   0.000000  celldm(5)=   0.000000  celldm(6)=   0.000000

     crystal axes: (cart. coord. in units of alat)
               a(1) = (   1.000000   0.000000   0.000000 )  
               a(2) = (   0.000000   1.058160   0.000000 )  
               a(3) = (   0.000000   0.000000   1.000000 )  

     reciprocal axes: (cart. coord. in units 2 pi/alat)
               b(1) = (  1.000000  0.000000  0.000000 )  
               b(2) = (  0.000000  0.945037  0.000000 )  
               b(3) = (  0.000000  0.000000  1.000000 )  


     PseudoPot. # 1 for W  read from file:
     /cluster/scratch/mnoe/QE/pps/W_ONCV_LDA-4.0.upf
     MD5 check sum: ba0307d5d4cd419d6f1d13dc49d7c13a
     Pseudo is Norm-conserving + core correction, Zval = 28.0
     Generated using ONCVPSP code by D. R. Hamann
     Using radial grid of 1380 points,  8 beta functions with: 
                l(1) =   0
                l(2) =   0
                l(3) =   1
                l(4) =   1
                l(5) =   2
                l(6) =   2
                l(7) =   3
                l(8) =   3

     PseudoPot. # 2 for O  read from file:
     /cluster/scratch/mnoe/QE/pps/O_ONCV_LDA-3.0.upf
     MD5 check sum: a1bd6164e7280c17a38c229939bfbd54
     Pseudo is Norm-conserving + core correction, Zval =  6.0
     Generated using ONCVPSP code by D. R. Hamann
     Using radial grid of  926 points,  5 beta functions with: 
                l(1) =   0
                l(2) =   0
                l(3) =   1
                l(4) =   1
                l(5) =   2

     atomic species   valence    mass     pseudopotential
        W             28.00   183.84000     W ( 1.00)
        O              6.00    15.99940     O ( 1.00)

      4 Sym. Ops. (no inversion) found ( 3 have fractional translation)



   Cartesian axes

     site n.     atom                  positions (alat units)
         1           W   tau(   1) = (   0.2477370   0.2957928  -0.0010085  )
         2           W   tau(   2) = (   0.7491226   0.7623673  -0.0023170  )
         3           W   tau(   3) = (   0.2522630   0.2332873   0.4989915  )
         4           W   tau(   4) = (   0.7508773   0.8248728   0.4976830  )
         5           W   tau(   5) = (   0.7522629   0.2957928   0.5010085  )
         6           W   tau(   6) = (   0.2508774   0.7623673   0.5023170  )
         7           W   tau(   7) = (   0.7477370   0.2332873   0.0010085  )
         8           W   tau(   8) = (   0.2491226   0.8248728   0.0023170  )
         9           O   tau(   9) = (   0.2482338   0.0081337  -0.0028642  )
        10           O   tau(  10) = (   0.7507901  -0.0081336  -0.0032709  )
        11           O   tau(  11) = (   0.2517662   0.5209464   0.4971358  )
        12           O   tau(  12) = (   0.7492099   0.5372137   0.4967291  )
        13           O   tau(  13) = (   0.7517661   0.0081337   0.5028642  )
        14           O   tau(  14) = (   0.2492099  -0.0081336   0.5032709  )
        15           O   tau(  15) = (   0.7482338   0.5209464   0.0028642  )
        16           O   tau(  16) = (   0.2507901   0.5372137   0.0032709  )
        17           O   tau(  17) = (   0.5008788   0.2624261   0.4552251  )
        18           O   tau(  18) = (   0.5004999   0.7942808   0.5447749  )
        19           O   tau(  19) = (  -0.0008788   0.2666540   0.9552251  )
        20           O   tau(  20) = (  -0.0004999   0.7929593   0.0447749  )
        21           O   tau(  21) = (   0.4991212   0.2624261   0.0447749  )
        22           O   tau(  22) = (   0.4995001   0.7942808   0.9552251  )
        23           O   tau(  23) = (   0.0008788   0.2666540   0.5447749  )
        24           O   tau(  24) = (   0.0004999   0.7929593   0.4552251  )
        25           O   tau(  25) = (   0.7052251   0.2675669   0.7501675  )
        26           O   tau(  26) = (   0.2947749   0.7972524   0.2507420  )
        27           O   tau(  27) = (   0.7947749   0.2615132   0.2501675  )
        28           O   tau(  28) = (   0.2052251   0.7899877   0.7507420  )
        29           O   tau(  29) = (   0.2947749   0.2675669   0.7498324  )
        30           O   tau(  30) = (   0.7052251   0.7972524   0.2492580  )
        31           O   tau(  31) = (   0.2052251   0.2615132   0.2498325  )
        32           O   tau(  32) = (   0.7947749   0.7899877   0.7492580  )

     number of k points=    64  gaussian smearing, width (Ry)=  0.0007
                       cart. coord. in units 2pi/alat
        k(    1) = (   0.0000000   0.0000000   0.0000000), wk =   0.0092593
        k(    2) = (   0.0000000   0.0000000   0.1666667), wk =   0.0185185
        k(    3) = (   0.0000000   0.0000000   0.3333333), wk =   0.0185185
        k(    4) = (   0.0000000   0.0000000  -0.5000000), wk =   0.0092593
        k(    5) = (   0.0000000   0.1575061   0.0000000), wk =   0.0185185
        k(    6) = (   0.0000000   0.1575061   0.1666667), wk =   0.0370370
        k(    7) = (   0.0000000   0.1575061   0.3333333), wk =   0.0370370
        k(    8) = (   0.0000000   0.1575061  -0.5000000), wk =   0.0185185
        k(    9) = (   0.0000000   0.3150122   0.0000000), wk =   0.0185185
        k(   10) = (   0.0000000   0.3150122   0.1666667), wk =   0.0370370
        k(   11) = (   0.0000000   0.3150122   0.3333333), wk =   0.0370370
        k(   12) = (   0.0000000   0.3150122  -0.5000000), wk =   0.0185185
        k(   13) = (   0.0000000  -0.4725183   0.0000000), wk =   0.0092593
        k(   14) = (   0.0000000  -0.4725183   0.1666667), wk =   0.0185185
        k(   15) = (   0.0000000  -0.4725183   0.3333333), wk =   0.0185185
        k(   16) = (   0.0000000  -0.4725183  -0.5000000), wk =   0.0092593
        k(   17) = (   0.1666667   0.0000000   0.1666667), wk =   0.0370370
        k(   18) = (   0.1666667   0.0000000   0.3333333), wk =   0.0370370
        k(   19) = (   0.1666667   0.0000000  -0.5000000), wk =   0.0185185
        k(   20) = (   0.1666667   0.1575061   0.1666667), wk =   0.0740741
        k(   21) = (   0.1666667   0.1575061   0.3333333), wk =   0.0740741
        k(   22) = (   0.1666667   0.1575061  -0.5000000), wk =   0.0370370
        k(   23) = (   0.1666667   0.3150122   0.1666667), wk =   0.0740741
        k(   24) = (   0.1666667   0.3150122   0.3333333), wk =   0.0740741
        k(   25) = (   0.1666667   0.3150122  -0.5000000), wk =   0.0370370
        k(   26) = (   0.1666667  -0.4725183   0.1666667), wk =   0.0370370
        k(   27) = (   0.1666667  -0.4725183   0.3333333), wk =   0.0370370
        k(   28) = (   0.1666667  -0.4725183  -0.5000000), wk =   0.0185185
        k(   29) = (   0.3333333   0.0000000   0.3333333), wk =   0.0370370
        k(   30) = (   0.3333333   0.0000000  -0.5000000), wk =   0.0185185
        k(   31) = (   0.3333333   0.1575061   0.3333333), wk =   0.0740741
        k(   32) = (   0.3333333   0.1575061  -0.5000000), wk =   0.0370370
        k(   33) = (   0.3333333   0.3150122   0.3333333), wk =   0.0740741
        k(   34) = (   0.3333333   0.3150122  -0.5000000), wk =   0.0370370
        k(   35) = (   0.3333333  -0.4725183   0.3333333), wk =   0.0370370
        k(   36) = (   0.3333333  -0.4725183  -0.5000000), wk =   0.0185185
        k(   37) = (  -0.5000000   0.0000000  -0.5000000), wk =   0.0092593
        k(   38) = (  -0.5000000   0.1575061  -0.5000000), wk =   0.0185185
        k(   39) = (  -0.5000000   0.3150122  -0.5000000), wk =   0.0185185
        k(   40) = (  -0.5000000  -0.4725183  -0.5000000), wk =   0.0092593
        k(   41) = (   0.1666667   0.0000000   0.0000000), wk =   0.0185185
        k(   42) = (   0.3333333   0.0000000   0.0000000), wk =   0.0185185
        k(   43) = (  -0.5000000   0.0000000   0.0000000), wk =   0.0092593
        k(   44) = (   0.1666667  -0.1575061   0.0000000), wk =   0.0370370
        k(   45) = (   0.3333333  -0.1575061   0.0000000), wk =   0.0370370
        k(   46) = (  -0.5000000  -0.1575061   0.0000000), wk =   0.0185185
        k(   47) = (   0.1666667  -0.3150122   0.0000000), wk =   0.0370370
        k(   48) = (   0.3333333  -0.3150122   0.0000000), wk =   0.0370370
        k(   49) = (  -0.5000000  -0.3150122   0.0000000), wk =   0.0185185
        k(   50) = (   0.1666667   0.4725183   0.0000000), wk =   0.0185185
        k(   51) = (   0.3333333   0.4725183   0.0000000), wk =   0.0185185
        k(   52) = (  -0.5000000   0.4725183   0.0000000), wk =   0.0092593
        k(   53) = (   0.3333333   0.0000000   0.1666667), wk =   0.0370370
        k(   54) = (  -0.5000000   0.0000000   0.1666667), wk =   0.0185185
        k(   55) = (   0.3333333  -0.1575061   0.1666667), wk =   0.0740741
        k(   56) = (  -0.5000000  -0.1575061   0.1666667), wk =   0.0370370
        k(   57) = (   0.3333333  -0.3150122   0.1666667), wk =   0.0740741
        k(   58) = (  -0.5000000  -0.3150122   0.1666667), wk =   0.0370370
        k(   59) = (   0.3333333   0.4725183   0.1666667), wk =   0.0370370
        k(   60) = (  -0.5000000   0.4725183   0.1666667), wk =   0.0185185
        k(   61) = (  -0.5000000   0.0000000   0.3333333), wk =   0.0185185
        k(   62) = (  -0.5000000  -0.1575061   0.3333333), wk =   0.0370370
        k(   63) = (  -0.5000000  -0.3150122   0.3333333), wk =   0.0370370
        k(   64) = (  -0.5000000   0.4725183   0.3333333), wk =   0.0185185

     Dense  grid:   498127 G-vectors     FFT dimensions: ( 100, 108, 100)

     Estimated max dynamical RAM per process >       3.15 GB

     Estimated total dynamical RAM >     125.81 GB

     Initial potential from superposition of free atoms

     starting charge  367.99656, renormalised to  368.00000
     Starting wfc are  232 randomized atomic wfcs

     total cpu time spent up to now is       45.7 secs

     Self-consistent Calculation

     iteration #  1     ecut=   120.00 Ry     beta= 0.70
     Davidson diagonalization with overlap
     ethr =  1.00E-02,  avg # of iterations =  5.1

     total cpu time spent up to now is      155.1 secs

     total energy              =   -6254.01869021 Ry
     Harris-Foulkes estimate   =   -6264.58783245 Ry
     estimated scf accuracy    <      13.39252092 Ry

     iteration #  2     ecut=   120.00 Ry     beta= 0.70
     Davidson diagonalization with overlap
     ethr =  3.64E-03,  avg # of iterations =  3.5

     total cpu time spent up to now is      262.4 secs

     total energy              =   -6250.96155582 Ry
     Harris-Foulkes estimate   =   -6270.66732127 Ry
     estimated scf accuracy    <      52.77100074 Ry

     iteration #  3     ecut=   120.00 Ry     beta= 0.70
     Davidson diagonalization with overlap
     ethr =  3.64E-03,  avg # of iterations =  3.4

     total cpu time spent up to now is      362.5 secs

     total energy              =   -6261.07556993 Ry
     Harris-Foulkes estimate   =   -6261.38589201 Ry
     estimated scf accuracy    <       1.00426769 Ry

     iteration #  4     ecut=   120.00 Ry     beta= 0.70
     Davidson diagonalization with overlap
     ethr =  2.73E-04,  avg # of iterations =  3.3

     total cpu time spent up to now is      449.0 secs

     total energy              =   -6261.09291473 Ry
     Harris-Foulkes estimate   =   -6261.16629709 Ry
     estimated scf accuracy    <       0.25294533 Ry

     iteration #  5     ecut=   120.00 Ry     beta= 0.70
     Davidson diagonalization with overlap
     ethr =  6.87E-05,  avg # of iterations =  4.1

     total cpu time spent up to now is      538.6 secs

     total energy              =   -6261.08520207 Ry
     Harris-Foulkes estimate   =   -6261.12168079 Ry
     estimated scf accuracy    <       0.07948987 Ry

     iteration #  6     ecut=   120.00 Ry     beta= 0.70
     Davidson diagonalization with overlap
     ethr =  2.16E-05,  avg # of iterations =  5.4

     total cpu time spent up to now is      633.0 secs

     total energy              =   -6261.10300550 Ry
     Harris-Foulkes estimate   =   -6261.10486580 Ry
     estimated scf accuracy    <       0.00515647 Ry

     iteration #  7     ecut=   120.00 Ry     beta= 0.70
     Davidson diagonalization with overlap
     ethr =  1.40E-06,  avg # of iterations =  5.2

     total cpu time spent up to now is      733.0 secs

     total energy              =   -6261.10360022 Ry
     Harris-Foulkes estimate   =   -6261.10369468 Ry
     estimated scf accuracy    <       0.00020843 Ry

     iteration #  8     ecut=   120.00 Ry     beta= 0.70
     Davidson diagonalization with overlap
     ethr =  5.66E-08,  avg # of iterations =  3.4

     total cpu time spent up to now is      833.7 secs

     total energy              =   -6261.10365763 Ry
     Harris-Foulkes estimate   =   -6261.10366660 Ry
     estimated scf accuracy    <       0.00002494 Ry

     iteration #  9     ecut=   120.00 Ry     beta= 0.70
     Davidson diagonalization with overlap
     ethr =  6.78E-09,  avg # of iterations =  2.9

     total cpu time spent up to now is      922.6 secs

     total energy              =   -6261.10366087 Ry
     Harris-Foulkes estimate   =   -6261.10366615 Ry
     estimated scf accuracy    <       0.00002350 Ry

     iteration # 10     ecut=   120.00 Ry     beta= 0.70
     Davidson diagonalization with overlap
     ethr =  6.38E-09,  avg # of iterations =  2.0

     total cpu time spent up to now is     1004.4 secs

     total energy              =   -6261.10366042 Ry
     Harris-Foulkes estimate   =   -6261.10366303 Ry
     estimated scf accuracy    <       0.00000594 Ry

     iteration # 11     ecut=   120.00 Ry     beta= 0.70
     Davidson diagonalization with overlap
     ethr =  1.61E-09,  avg # of iterations =  2.0

     total cpu time spent up to now is     1090.9 secs

     total energy              =   -6261.10366159 Ry
     Harris-Foulkes estimate   =   -6261.10366170 Ry
     estimated scf accuracy    <       0.00000029 Ry

     iteration # 12     ecut=   120.00 Ry     beta= 0.70
     Davidson diagonalization with overlap
     ethr =  7.91E-11,  avg # of iterations =  2.6

     total cpu time spent up to now is     1191.4 secs

     total energy              =   -6261.10366164 Ry
     Harris-Foulkes estimate   =   -6261.10366167 Ry
     estimated scf accuracy    <       0.00000009 Ry

     iteration # 13     ecut=   120.00 Ry     beta= 0.70
     Davidson diagonalization with overlap
     ethr =  2.35E-11,  avg # of iterations =  2.0

     total cpu time spent up to now is     1271.7 secs

     total energy              =   -6261.10366164 Ry
     Harris-Foulkes estimate   =   -6261.10366165 Ry
     estimated scf accuracy    <       0.00000002 Ry

     iteration # 14     ecut=   120.00 Ry     beta= 0.70
     Davidson diagonalization with overlap
     ethr =  4.58E-12,  avg # of iterations =  2.4

     total cpu time spent up to now is     1370.6 secs

     End of self-consistent calculation

          k = 0.0000 0.0000 0.0000 ( 62239 PWs)   bands (ev):

   -66.1694 -66.1690 -66.1684 -66.1684 -66.1680 -66.1680 -66.1674 -66.1670
   -30.5427 -30.5396 -30.5376 -30.5375 -30.5369 -30.5362 -30.5350 -30.5337
   -30.5323 -30.5323 -30.5306 -30.5303 -30.4802 -30.4774 -30.4773 -30.4745
   -30.4355 -30.4352 -30.4326 -30.4323 -30.4310 -30.4304 -30.4281 -30.4276
   -20.3259 -20.3258 -20.3258 -20.3258 -20.3257 -20.3257 -20.3257 -20.3256
   -20.3062 -20.3058 -20.3058 -20.3055 -20.3019 -20.3018 -20.3016 -20.3016
   -20.3014 -20.3012 -20.3010 -20.3009 -20.3004 -20.3004 -20.3003 -20.3003
   -20.3003 -20.3002 -20.3001 -20.3000 -20.2994 -20.2994 -20.2994 -20.2992
   -20.2943 -20.2943 -20.2938 -20.2938 -20.2936 -20.2936 -20.2933 -20.2933
   -20.2917 -20.2916 -20.2914 -20.2913 -20.2912 -20.2912 -20.2909 -20.2908
   -20.2856 -20.2856 -20.2851 -20.2850 -20.2849 -20.2848 -20.2844 -20.2844
    -9.9975  -9.7562  -9.5583  -9.5575  -9.3490  -9.3476  -9.1448  -9.1315
    -9.0193  -8.8604  -8.8553  -8.8550  -7.8020  -7.7879  -7.7833  -7.7616
    -7.7605  -7.7379  -7.7374  -7.6847  -7.6572  -7.6564  -7.6346  -7.6342
     1.0324   1.0332   1.1509   1.1525   1.1613   1.1632   1.3265   1.5060
     1.6507   1.6512   1.6546   1.8035   2.3032   2.3792   2.5652   2.5663
     2.7071   2.7071   4.1330   4.1348   4.2918   4.2943   4.7073   4.7076
     4.7386   4.7392   4.8990   4.9057   5.0387   5.0392   5.0433   5.4925
     5.4952   5.4996   5.5011   5.5470   5.5472   5.5694   5.5721   5.8677
     5.8858   5.8862   5.8953   5.8969   6.0073   6.0352   6.0362   6.1050
     6.1058   6.2713   6.2722   6.4836   6.4848   6.8221   6.8666   6.8683
     6.9005   6.9016   6.9809   7.0402   7.0721   7.0734   7.3159   7.3174
     7.3424   7.3439   7.8677   7.8813   8.0948   8.0963   8.1667   8.1689
     9.1798   9.1815   9.8809   9.8817   9.8965   9.8972  12.2836  12.2847
    12.3483  12.3490  12.4128  12.4136  12.4607  12.4630  13.0754  13.0948
    13.2430  13.2584  13.3906  13.3928  13.8253  14.1596  14.1689  14.1752
    14.1773  14.3474  14.3611  14.8896  15.4485  15.4490  15.4600  16.1578
    16.1578  16.9626  17.1672  17.1682  17.4948

          k = 0.0000 0.0000 0.1667 ( 62262 PWs)   bands (ev):

   -66.1693 -66.1689 -66.1685 -66.1683 -66.1680 -66.1679 -66.1674 -66.1670
   -30.5419 -30.5388 -30.5377 -30.5373 -30.5355 -30.5341 -30.5327 -30.5320
   -30.5306 -30.5284 -30.5261 -30.5230 -30.4797 -30.4779 -30.4769 -30.4751
   -30.4419 -30.4392 -30.4373 -30.4352 -30.4346 -30.4323 -30.4311 -30.4283
   -20.3259 -20.3258 -20.3258 -20.3257 -20.3257 -20.3257 -20.3257 -20.3256
   -20.3062 -20.3059 -20.3058 -20.3055 -20.3019 -20.3017 -20.3016 -20.3015
   -20.3014 -20.3011 -20.3011 -20.3008 -20.3004 -20.3004 -20.3004 -20.3003
   -20.3003 -20.3003 -20.3002 -20.3001 -20.2995 -20.2995 -20.2994 -20.2992
   -20.2943 -20.2939 -20.2938 -20.2937 -20.2935 -20.2933 -20.2933 -20.2930
   -20.2915 -20.2914 -20.2913 -20.2913 -20.2911 -20.2910 -20.2909 -20.2909
   -20.2861 -20.2856 -20.2856 -20.2853 -20.2850 -20.2849 -20.2849 -20.2844
    -9.9480  -9.7017  -9.5740  -9.4841  -9.3615  -9.2544  -9.1032  -9.0878
    -9.0284  -8.8596  -8.8511  -8.8331  -7.9175  -7.8998  -7.8100  -7.7955
    -7.7778  -7.7628  -7.7530  -7.7412  -7.7316  -7.6883  -7.6657  -7.6429
     1.1237   1.1281   1.1542   1.1665   1.3873   1.4147   1.4339   1.6426
     1.6473   1.6855   1.6889   1.9011   2.3920   2.4702   2.5745   2.6557
     2.6984   2.7947   4.0836   4.1398   4.2783   4.2837   4.3198   4.3627
     4.6757   4.7474   4.7839   4.7992   4.8982   5.0205   5.0307   5.2829
     5.3134   5.4542   5.4803   5.5285   5.5851   5.6210   5.6315   5.6342
     5.7162   5.8628   5.8884   5.9198   6.0206   6.0735   6.0930   6.1048
     6.2861   6.3906   6.4725   6.4735   6.7319   6.7698   6.7932   6.8249
     6.8287   6.8932   6.9612   6.9775   7.0211   7.0748   7.0802   7.0811
     7.1346   7.1894   7.8660   7.8696   8.0548   8.1180   8.1230   8.1693
     9.5466   9.5706   9.8814   9.8959  10.1591  10.1900  12.2522  12.2620
    12.2997  12.3595  12.4006  12.4267  12.4634  12.5713  13.0141  13.0287
    13.1534  13.2365  13.3257  13.3922  13.9305  14.0349  14.0398  14.1684
    14.1738  14.3420  14.4771  15.0078  15.4150  15.4981  15.5281  16.1309
    16.4909  16.8766  17.1348  17.3714  17.5462

          k = 0.0000 0.0000 0.3333 ( 62268 PWs)   bands (ev):

   -66.1692 -66.1687 -66.1686 -66.1682 -66.1681 -66.1677 -66.1676 -66.1672
   -30.5410 -30.5383 -30.5378 -30.5366 -30.5351 -30.5344 -30.5337 -30.5317
   -30.5144 -30.5102 -30.5082 -30.5041 -30.4798 -30.4782 -30.4776 -30.4755
   -30.4593 -30.4579 -30.4550 -30.4530 -30.4343 -30.4320 -30.4315 -30.4292
   -20.3259 -20.3258 -20.3258 -20.3257 -20.3257 -20.3257 -20.3256 -20.3256
   -20.3061 -20.3059 -20.3058 -20.3056 -20.3018 -20.3017 -20.3014 -20.3014
   -20.3012 -20.3012 -20.3009 -20.3007 -20.3007 -20.3006 -20.3004 -20.3003
   -20.3003 -20.3002 -20.3002 -20.3002 -20.2997 -20.2997 -20.2994 -20.2993
   -20.2941 -20.2938 -20.2937 -20.2934 -20.2930 -20.2929 -20.2927 -20.2925
   -20.2919 -20.2916 -20.2914 -20.2913 -20.2904 -20.2904 -20.2900 -20.2900
   -20.2873 -20.2869 -20.2867 -20.2863 -20.2854 -20.2851 -20.2849 -20.2845
    -9.8299  -9.6225  -9.5792  -9.3998  -9.3040  -9.0607  -8.9895  -8.9853
    -8.9309  -8.8729  -8.8008  -8.7417  -8.2383  -8.2351  -8.1504  -8.1325
    -7.7786  -7.7539  -7.7515  -7.7294  -7.7227  -7.6981  -7.6886  -7.6658
     1.1626   1.1719   1.1798   1.1928   1.5616   1.5914   1.6256   1.6317
     2.1586   2.2042   2.3576   2.4412   2.5984   2.6513   2.6813   2.7372
     2.9006   3.0252   3.6652   3.7458   3.8528   3.9458   4.1711   4.2204
     4.2387   4.4319   4.5208   4.7511   4.8325   4.8620   4.8764   4.9545
     5.0638   5.0947   5.1528   5.3469   5.4098   5.4385   5.6512   5.7320
     5.7810   5.8236   5.8519   5.9761   6.0469   6.1478   6.2388   6.2566
     6.2884   6.4119   6.4436   6.5275   6.5733   6.5998   6.6188   6.7201
     6.7881   6.8858   6.8869   6.9608   6.9936   7.0418   7.0754   7.0800
     7.2994   7.3398   7.7653   7.7872   7.9305   7.9810   8.1535   8.1706
     9.8825   9.8921  10.3000  10.3553  10.8080  10.8893  11.8437  11.8811
    12.0912  12.4695  12.4808  12.5451  12.5658  12.5961  12.6811  12.8376
    13.0518  13.1696  13.1932  13.3959  13.6667  13.6880  14.1498  14.1700
    14.1906  14.3244  14.7941  15.3066  15.3073  15.6822  15.9663  16.0472
    16.3144  17.3769  17.4841  17.6843  17.6911

          k = 0.0000 0.0000-0.5000 ( 62264 PWs)   bands (ev):

   -66.1689 -66.1689 -66.1685 -66.1685 -66.1679 -66.1679 -66.1675 -66.1675
   -30.5397 -30.5397 -30.5365 -30.5365 -30.5352 -30.5352 -30.5330 -30.5330
   -30.4909 -30.4909 -30.4884 -30.4884 -30.4832 -30.4832 -30.4792 -30.4792
   -30.4732 -30.4732 -30.4720 -30.4720 -30.4331 -30.4331 -30.4303 -30.4303
   -20.3258 -20.3258 -20.3258 -20.3257 -20.3257 -20.3257 -20.3256 -20.3256
   -20.3061 -20.3061 -20.3057 -20.3057 -20.3017 -20.3017 -20.3013 -20.3013
   -20.3010 -20.3010 -20.3009 -20.3009 -20.3006 -20.3006 -20.3005 -20.3005
   -20.3002 -20.3002 -20.3000 -20.3000 -20.2999 -20.2999 -20.2994 -20.2994
   -20.2940 -20.2940 -20.2936 -20.2936 -20.2924 -20.2924 -20.2922 -20.2922
   -20.2920 -20.2920 -20.2919 -20.2919 -20.2890 -20.2890 -20.2887 -20.2887
   -20.2884 -20.2884 -20.2882 -20.2882 -20.2853 -20.2853 -20.2847 -20.2847
    -9.7085  -9.7085  -9.4693  -9.4693  -9.1400  -9.1400  -8.9010  -8.9010
    -8.6279  -8.6279  -8.5938  -8.5938  -8.5867  -8.5867  -8.5032  -8.5031
    -7.7654  -7.7654  -7.7218  -7.7217  -7.7098  -7.7098  -7.6974  -7.6974
     1.1719   1.1719   1.1940   1.1940   1.6054   1.6054   1.6155   1.6155
     2.6296   2.6296   2.9357   2.9357   3.0554   3.0554   3.1220   3.1220
     3.1794   3.1794   3.2505   3.2505   3.3812   3.3812   3.7359   3.7359
     3.8579   3.8579   4.3538   4.3538   4.7928   4.7928   4.8505   4.8505
     5.2162   5.2162   5.2499   5.2499   5.2578   5.2578   5.7596   5.7596
     5.7841   5.7841   5.9863   5.9863   6.1432   6.1432   6.2324   6.2324
     6.2892   6.2892   6.3880   6.3880   6.4771   6.4771   6.5125   6.5125
     6.7906   6.7906   6.8822   6.8822   7.0587   7.0587   7.4705   7.4705
     7.5275   7.5275   7.6941   7.6941   7.7168   7.7168   8.1682   8.1682
     9.8868   9.8868  11.1283  11.1283  11.1850  11.1850  11.5449  11.5449
    11.7177  11.7177  12.5075  12.5075  12.7836  12.7836  12.8594  12.8594
    12.9418  12.9418  13.2388  13.2388  13.4381  13.4381  14.1648  14.1648
    14.2850  14.2850  15.1045  15.1045  15.7532  15.7532  15.8974  15.8974
    16.7542  16.7542  17.8815  17.8815  18.0779

          k = 0.0000 0.1575 0.0000 ( 62231 PWs)   bands (ev):

   -66.1694 -66.1690 -66.1684 -66.1684 -66.1680 -66.1680 -66.1673 -66.1670
   -30.5411 -30.5393 -30.5370 -30.5363 -30.5354 -30.5349 -30.5333 -30.5325
   -30.5309 -30.5302 -30.5297 -30.5284 -30.4842 -30.4813 -30.4812 -30.4784
   -30.4353 -30.4350 -30.4328 -30.4325 -30.4308 -30.4303 -30.4283 -30.4278
   -20.3259 -20.3258 -20.3258 -20.3258 -20.3257 -20.3257 -20.3257 -20.3256
   -20.3058 -20.3055 -20.3055 -20.3051 -20.3019 -20.3017 -20.3015 -20.3015
   -20.3015 -20.3013 -20.3011 -20.3010 -20.3007 -20.3006 -20.3005 -20.3004
   -20.3003 -20.3003 -20.3003 -20.3002 -20.2995 -20.2995 -20.2995 -20.2993
   -20.2943 -20.2943 -20.2938 -20.2937 -20.2937 -20.2936 -20.2933 -20.2933
   -20.2917 -20.2916 -20.2914 -20.2912 -20.2912 -20.2912 -20.2909 -20.2908
   -20.2856 -20.2855 -20.2851 -20.2851 -20.2849 -20.2848 -20.2844 -20.2844
    -9.9732  -9.7664  -9.5312  -9.5303  -9.3554  -9.3541  -9.1439  -9.1324
    -8.9456  -8.8093  -8.8074  -8.8072  -7.8939  -7.8388  -7.8385  -7.7921
    -7.7865  -7.7857  -7.7635  -7.7624  -7.6558  -7.6552  -7.6362  -7.6358
     1.0324   1.0332   1.1555   1.1571   1.1615   1.1633   1.4090   1.5055
     1.8320   1.8886   1.8890   2.0262   2.3081   2.3739   2.6361   2.6372
     2.7744   2.7745   3.9924   3.9943   4.0493   4.0515   4.7096   4.7098
     4.7344   4.7349   4.8052   4.9665   4.9724   5.0191   5.0197   5.2837
     5.2845   5.4427   5.4428   5.6042   5.6046   5.6553   5.6742   5.6791
     5.8261   5.8271   5.9077   5.9743   5.9753   6.0357   6.0364   6.1107
     6.1112   6.2637   6.2653   6.5062   6.5077   6.8327   6.8401   6.8767
     6.8782   6.9203   6.9211   6.9711   6.9728   6.9733   7.3222   7.3235
     7.3426   7.3437   7.8723   7.8808   8.0537   8.0549   8.0864   8.0879
     9.1801   9.1814  10.0814  10.0814  10.0915  10.0917  12.1501  12.1524
    12.3037  12.3057  12.3639  12.3646  12.4119  12.4124  13.0794  13.0950
    13.2783  13.2906  13.4026  13.4046  14.0550  14.0714  14.0811  14.0866
    14.2048  14.6344  14.6378  15.0357  15.4494  15.4588  15.8561  16.1220
    16.1222  16.6397  17.2935  17.2946  17.5299

          k = 0.0000 0.1575 0.1667 ( 62237 PWs)   bands (ev):

   -66.1693 -66.1690 -66.1684 -66.1683 -66.1681 -66.1679 -66.1674 -66.1671
   -30.5400 -30.5377 -30.5354 -30.5352 -30.5347 -30.5329 -30.5314 -30.5301
   -30.5288 -30.5282 -30.5252 -30.5229 -30.4837 -30.4818 -30.4808 -30.4789
   -30.4418 -30.4394 -30.4371 -30.4350 -30.4348 -30.4325 -30.4310 -30.4285
   -20.3259 -20.3258 -20.3258 -20.3257 -20.3257 -20.3257 -20.3257 -20.3256
   -20.3058 -20.3055 -20.3055 -20.3052 -20.3019 -20.3016 -20.3016 -20.3015
   -20.3014 -20.3012 -20.3012 -20.3009 -20.3006 -20.3006 -20.3005 -20.3004
   -20.3004 -20.3003 -20.3003 -20.3002 -20.2996 -20.2995 -20.2995 -20.2994
   -20.2942 -20.2939 -20.2938 -20.2937 -20.2935 -20.2934 -20.2933 -20.2930
   -20.2915 -20.2914 -20.2913 -20.2913 -20.2911 -20.2910 -20.2909 -20.2909
   -20.2860 -20.2856 -20.2855 -20.2853 -20.2850 -20.2850 -20.2849 -20.2844
    -9.9228  -9.7119  -9.5468  -9.4533  -9.3681  -9.2609  -9.1020  -9.0887
    -8.9547  -8.8119  -8.8013  -8.7889  -7.9176  -7.9099  -7.8935  -7.8392
    -7.8287  -7.8110  -7.7924  -7.7763  -7.7601  -7.7547  -7.6643  -7.6446
     1.1262   1.1282   1.1597   1.1666   1.4116   1.4337   1.5389   1.6853
     1.8381   1.8811   1.9017   2.0638   2.3974   2.4647   2.6452   2.7287
     2.7663   2.8626   3.9674   4.0138   4.0387   4.0894   4.3081   4.3607
     4.7158   4.7228   4.7763   4.7917   4.8041   4.9594   5.0251   5.2391
     5.2444   5.2898   5.2961   5.4545   5.5657   5.5686   5.6641   5.7177
     5.7329   5.8152   5.8688   5.9029   5.9523   6.0946   6.1030   6.1148
     6.2066   6.3845   6.4428   6.4963   6.7263   6.8066   6.8097   6.8244
     6.8365   6.9250   6.9405   6.9437   6.9822   6.9920   7.0756   7.0804
     7.1506   7.1911   7.8685   7.8701   8.0152   8.0481   8.0612   8.0887
     9.5514   9.5692  10.0834  10.0910  10.3334  10.3401  12.1354  12.2331
    12.2637  12.2970  12.3077  12.3485  12.4151  12.4952  13.0321  13.0524
    13.1578  13.2697  13.3334  13.4023  13.9135  13.9462  14.0682  14.0844
    14.3116  14.6306  14.7866  15.1418  15.4977  15.5288  15.8233  16.0961
    16.4525  16.7933  16.9932  17.4776  17.6012

          k = 0.0000 0.1575 0.3333 ( 62284 PWs)   bands (ev):

   -66.1691 -66.1688 -66.1686 -66.1683 -66.1681 -66.1678 -66.1676 -66.1672
   -30.5390 -30.5366 -30.5363 -30.5339 -30.5339 -30.5330 -30.5311 -30.5299
   -30.5143 -30.5103 -30.5080 -30.5042 -30.4835 -30.4819 -30.4811 -30.4793
   -30.4595 -30.4580 -30.4551 -30.4532 -30.4341 -30.4318 -30.4317 -30.4294
   -20.3259 -20.3258 -20.3258 -20.3257 -20.3257 -20.3257 -20.3256 -20.3256
   -20.3058 -20.3056 -20.3054 -20.3053 -20.3018 -20.3016 -20.3015 -20.3014
   -20.3013 -20.3012 -20.3010 -20.3008 -20.3006 -20.3006 -20.3006 -20.3005
   -20.3004 -20.3004 -20.3002 -20.3002 -20.2998 -20.2997 -20.2995 -20.2994
   -20.2941 -20.2938 -20.2937 -20.2935 -20.2930 -20.2929 -20.2927 -20.2925
   -20.2919 -20.2916 -20.2914 -20.2913 -20.2904 -20.2904 -20.2900 -20.2900
   -20.2873 -20.2870 -20.2867 -20.2864 -20.2854 -20.2851 -20.2849 -20.2846
    -9.8030  -9.5949  -9.5888  -9.4070  -9.2588  -8.9953  -8.9881  -8.9758
    -8.9326  -8.8264  -8.7619  -8.7118  -8.2430  -8.2331  -8.1603  -8.1301
    -7.8729  -7.8483  -7.8236  -7.7982  -7.7524  -7.7312  -7.6876  -7.6675
     1.1705   1.1799   1.1823   1.1929   1.7667   1.7887   1.8670   1.8769
     2.1576   2.2238   2.3577   2.4667   2.6578   2.6690   2.7210   2.7584
     2.9750   3.0885   3.6647   3.7414   3.8387   3.8936   4.0496   4.0942
     4.2310   4.3031   4.5377   4.7226   4.7295   4.7748   4.7940   4.8934
     5.0469   5.0525   5.0652   5.1618   5.3612   5.3757   5.4504   5.6631
     5.7256   5.7931   5.8699   5.9344   5.9654   6.1084   6.1715   6.2334
     6.2956   6.4631   6.5213   6.5606   6.6104   6.6749   6.7102   6.7602
     6.8267   6.8416   6.9162   6.9326   6.9736   7.0097   7.0589   7.0693
     7.2941   7.3358   7.7708   7.7853   7.8964   7.9232   8.0808   8.0909
    10.0825  10.0898  10.3081  10.3565  10.9250  10.9846  11.8453  11.8792
    12.0421  12.3165  12.4806  12.4930  12.5248  12.5880  12.6375  12.7467
    13.0364  13.1797  13.2121  13.3988  13.5733  13.5986  14.0694  14.0802
    14.5041  14.6170  15.1499  15.4176  15.6720  15.7201  15.9869  16.0152
    16.4310  17.2413  17.3290  17.5382  17.8548

          k = 0.0000 0.1575-0.5000 ( 62234 PWs)   bands (ev):

   -66.1689 -66.1689 -66.1685 -66.1685 -66.1679 -66.1679 -66.1675 -66.1675
   -30.5376 -30.5376 -30.5353 -30.5353 -30.5325 -30.5325 -30.5314 -30.5314
   -30.4917 -30.4917 -30.4900 -30.4900 -30.4833 -30.4833 -30.4796 -30.4796
   -30.4753 -30.4753 -30.4748 -30.4748 -30.4330 -30.4330 -30.4305 -30.4305
   -20.3258 -20.3258 -20.3258 -20.3257 -20.3257 -20.3257 -20.3256 -20.3256
   -20.3057 -20.3057 -20.3054 -20.3054 -20.3017 -20.3017 -20.3014 -20.3014
   -20.3010 -20.3010 -20.3009 -20.3009 -20.3007 -20.3007 -20.3007 -20.3007
   -20.3003 -20.3003 -20.3001 -20.3001 -20.3000 -20.3000 -20.2995 -20.2995
   -20.2940 -20.2940 -20.2936 -20.2936 -20.2924 -20.2924 -20.2921 -20.2921
   -20.2920 -20.2920 -20.2919 -20.2919 -20.2889 -20.2889 -20.2887 -20.2887
   -20.2884 -20.2884 -20.2882 -20.2882 -20.2852 -20.2852 -20.2847 -20.2847
    -9.6807  -9.6807  -9.4776  -9.4776  -9.0744  -9.0744  -8.8620  -8.8620
    -8.6312  -8.6312  -8.6007  -8.6007  -8.5778  -8.5778  -8.4936  -8.4936
    -7.8615  -7.8615  -7.8115  -7.8115  -7.7197  -7.7197  -7.6991  -7.6991
     1.1824   1.1824   1.1941   1.1941   1.8019   1.8019   1.8793   1.8793
     2.6969   2.6969   2.9497   2.9497   3.0488   3.0488   3.1595   3.1595
     3.1883   3.1883   3.2489   3.2489   3.3718   3.3718   3.7441   3.7441
     3.9096   3.9096   4.1785   4.1785   4.6249   4.6249   4.7523   4.7523
     5.0876   5.0876   5.2265   5.2265   5.2421   5.2421   5.4926   5.4926
     5.7434   5.7434   5.9072   5.9072   6.1432   6.1432   6.2845   6.2845
     6.2984   6.2984   6.4110   6.4110   6.4662   6.4662   6.6991   6.6991
     6.8648   6.8649   6.8809   6.8809   6.9559   6.9559   7.4846   7.4846
     7.5219   7.5219   7.6702   7.6702   7.6868   7.6868   8.0904   8.0904
    10.0879  10.0879  11.1332  11.1332  11.1832  11.1832  11.6100  11.6100
    11.7798  11.7798  12.3699  12.3699  12.7495  12.7495  12.8718  12.8718
    12.8745  12.8745  13.1486  13.1486  13.4161  13.4161  14.0745  14.0745
    14.5867  14.5867  15.4839  15.4839  15.8717  15.8717  15.8827  15.8827
    16.7971  16.7971  17.6835  17.6835  18.0968

          k = 0.0000 0.3150 0.0000 ( 62175 PWs)   bands (ev):

   -66.1693 -66.1691 -66.1683 -66.1683 -66.1681 -66.1681 -66.1673 -66.1671
   -30.5396 -30.5388 -30.5372 -30.5367 -30.5338 -30.5337 -30.5316 -30.5313
   -30.5241 -30.5210 -30.5208 -30.5179 -30.4950 -30.4920 -30.4919 -30.4890
   -30.4349 -30.4346 -30.4332 -30.4330 -30.4304 -30.4299 -30.4287 -30.4283
   -20.3259 -20.3258 -20.3258 -20.3258 -20.3257 -20.3257 -20.3257 -20.3256
   -20.3048 -20.3045 -20.3045 -20.3041 -20.3022 -20.3018 -20.3018 -20.3018
   -20.3016 -20.3014 -20.3014 -20.3014 -20.3013 -20.3012 -20.3010 -20.3009
   -20.3002 -20.3002 -20.3001 -20.3000 -20.2997 -20.2996 -20.2996 -20.2995
   -20.2942 -20.2941 -20.2939 -20.2938 -20.2937 -20.2936 -20.2934 -20.2934
   -20.2917 -20.2916 -20.2914 -20.2912 -20.2912 -20.2912 -20.2909 -20.2908
   -20.2855 -20.2855 -20.2852 -20.2851 -20.2848 -20.2847 -20.2845 -20.2845
    -9.9142  -9.7973  -9.4709  -9.4699  -9.3760  -9.3746  -9.1415  -9.1348
    -8.7376  -8.6549  -8.6548  -8.6533  -8.1388  -8.0945  -8.0943  -8.0656
    -7.7819  -7.7810  -7.7684  -7.7674  -7.6518  -7.6513  -7.6404  -7.6399
     1.0326   1.0330   1.1594   1.1612   1.1618   1.1635   1.4769   1.5033
     2.3217   2.3597   2.4081   2.5508   2.5516   2.7074   2.8445   2.8467
     2.9709   2.9718   3.6018   3.6040   3.6510   3.6532   4.1601   4.4861
     4.4869   4.7161   4.7163   4.7437   4.7442   4.7751   5.0924   5.0930
     5.1353   5.1362   5.3717   5.3720   5.6444   5.6448   5.6610   5.6615
     5.8935   5.8945   5.9188   5.9189   6.0234   6.0272   6.0278   6.1299
     6.1311   6.2200   6.2226   6.4938   6.5709   6.5719   6.8067   6.8069
     6.8634   6.9430   7.1201   7.1206   7.1206   7.1209   7.3297   7.3301
     7.3465   7.3469   7.8494   7.8508   7.8747   7.8752   7.8775   7.8803
     9.1804   9.1810  10.5647  10.5658  10.6152  10.6160  11.7573  11.7596
    11.8710  11.8727  12.3874  12.3882  12.4088  12.4093  13.0866  13.0944
    13.3900  13.3968  13.4739  13.4759  13.8369  13.8385  13.8677  13.8703
    14.8776  15.2425  15.2430  15.4507  15.4559  15.5914  15.9996  16.0001
    16.0693  16.8682  17.2265  17.7305  17.7317

          k = 0.0000 0.3150 0.1667 ( 62260 PWs)   bands (ev):

   -66.1692 -66.1690 -66.1684 -66.1682 -66.1681 -66.1680 -66.1674 -66.1671
   -30.5389 -30.5368 -30.5342 -30.5330 -30.5320 -30.5312 -30.5281 -30.5268
   -30.5214 -30.5206 -30.5191 -30.5183 -30.4944 -30.4925 -30.4914 -30.4895
   -30.4414 -30.4398 -30.4367 -30.4352 -30.4346 -30.4329 -30.4306 -30.4289
   -20.3259 -20.3258 -20.3258 -20.3258 -20.3257 -20.3257 -20.3257 -20.3256
   -20.3048 -20.3045 -20.3045 -20.3042 -20.3022 -20.3018 -20.3018 -20.3017
   -20.3015 -20.3015 -20.3014 -20.3013 -20.3013 -20.3010 -20.3010 -20.3008
   -20.3003 -20.3002 -20.3001 -20.3001 -20.2997 -20.2997 -20.2997 -20.2996
   -20.2942 -20.2939 -20.2938 -20.2936 -20.2935 -20.2934 -20.2934 -20.2931
   -20.2915 -20.2914 -20.2913 -20.2913 -20.2911 -20.2910 -20.2909 -20.2909
   -20.2860 -20.2857 -20.2855 -20.2852 -20.2851 -20.2850 -20.2849 -20.2845
    -9.8619  -9.7429  -9.4859  -9.3891  -9.3849  -9.2820  -9.0989  -9.0914
    -8.7464  -8.6603  -8.6484  -8.6444  -8.1393  -8.1054  -8.0917  -8.0740
    -7.9105  -7.8949  -7.7891  -7.7761  -7.7719  -7.7595  -7.6603  -7.6487
     1.1274   1.1286   1.1643   1.1669   1.4274   1.4334   1.6473   1.6826
     2.4093   2.4117   2.4501   2.5247   2.5515   2.6915   2.8535   2.9512
     2.9652   3.0696   3.6022   3.6414   3.6528   3.6970   4.1513   4.3247
     4.3395   4.4923   4.5047   4.7684   4.7825   4.7856   4.8123   4.9046
     5.0852   5.1384   5.1589   5.2873   5.4290   5.4371   5.6138   5.6431
     5.6995   5.7558   5.8029   5.9005   6.0584   6.0754   6.0971   6.1222
     6.2099   6.3863   6.3953   6.5590   6.5689   6.7971   6.8377   6.8996
     6.9423   6.9516   7.0648   7.0696   7.0816   7.0839   7.1140   7.1318
     7.2055   7.2143   7.8247   7.8425   7.8523   7.8559   7.8735   7.8823
     9.5588   9.5669  10.5700  10.6138  10.7543  10.7895  11.7570  11.8553
    11.8731  11.9561  12.2785  12.2941  12.4386  12.4652  13.0609  13.1090
    13.2131  13.3639  13.3946  13.4716  13.6770  13.7314  13.8375  13.8670
    15.0064  15.2372  15.4554  15.4985  15.5361  15.6650  15.9766  16.2286
    16.3191  16.8327  17.2974  17.3726  17.8572

          k = 0.0000 0.3150 0.3333 ( 62269 PWs)   bands (ev):

   -66.1691 -66.1688 -66.1685 -66.1683 -66.1680 -66.1678 -66.1675 -66.1673
   -30.5379 -30.5358 -30.5352 -30.5330 -30.5260 -30.5238 -30.5225 -30.5195
   -30.5142 -30.5109 -30.5071 -30.5041 -30.4939 -30.4918 -30.4911 -30.4894
   -30.4596 -30.4585 -30.4550 -30.4537 -30.4337 -30.4321 -30.4314 -30.4298
   -20.3259 -20.3258 -20.3258 -20.3257 -20.3257 -20.3257 -20.3256 -20.3256
   -20.3048 -20.3046 -20.3045 -20.3043 -20.3022 -20.3019 -20.3018 -20.3016
   -20.3016 -20.3014 -20.3012 -20.3012 -20.3010 -20.3010 -20.3007 -20.3005
   -20.3005 -20.3004 -20.3001 -20.3001 -20.3000 -20.2998 -20.2997 -20.2996
   -20.2940 -20.2938 -20.2937 -20.2935 -20.2930 -20.2928 -20.2927 -20.2925
   -20.2919 -20.2916 -20.2915 -20.2913 -20.2904 -20.2904 -20.2900 -20.2900
   -20.2873 -20.2870 -20.2866 -20.2864 -20.2853 -20.2850 -20.2850 -20.2846
    -9.7386  -9.6185  -9.5324  -9.4298  -9.1565  -9.0182  -8.9587  -8.9374
    -8.7826  -8.6805  -8.6276  -8.6010  -8.2723  -8.2335  -8.2232  -8.1226
    -8.1050  -8.0872  -8.0656  -8.0161  -7.7481  -7.7358  -7.6835  -7.6718
     1.1768   1.1800   1.1895   1.1930   2.1049   2.1538   2.2330   2.3536
     2.4185   2.5206   2.5521   2.6693   2.7130   2.7418   2.8739   2.9478
     3.2013   3.2810   3.5703   3.6152   3.7101   3.7156   3.7511   3.7678
     4.1227   4.2892   4.3977   4.4056   4.5093   4.5394   4.5978   4.7333
     4.7586   4.8536   4.9770   5.0722   5.1055   5.1850   5.2207   5.3329
     5.3791   5.5383   5.7015   5.8582   6.1430   6.1681   6.1753   6.2310
     6.3768   6.5295   6.5830   6.5919   6.6502   6.7662   6.7670   6.7767
     6.8734   6.9487   7.0219   7.0515   7.0768   7.1343   7.1658   7.1967
     7.2723   7.3271   7.7437   7.7525   7.7712   7.7825   7.8588   7.8742
    10.3234  10.3386  10.5897  10.6082  11.2432  11.2698  11.7498  11.8354
    11.8735  11.9102  12.1538  12.2070  12.5998  12.6487  12.6582  12.6794
    12.9687  13.1566  13.2128  13.3902  13.4611  13.4754  13.8427  13.8614
    15.1376  15.2190  15.6265  15.8936  15.9052  15.9775  16.0865  16.7105
    16.7274  16.8115  17.1592  17.5515  17.7331

          k = 0.0000 0.3150-0.5000 ( 62306 PWs)   bands (ev):

   -66.1688 -66.1688 -66.1686 -66.1686 -66.1678 -66.1678 -66.1676 -66.1676
   -30.5365 -30.5365 -30.5344 -30.5344 -30.5240 -30.5240 -30.5212 -30.5212
   -30.4973 -30.4973 -30.4961 -30.4961 -30.4836 -30.4836 -30.4818 -30.4818
   -30.4787 -30.4787 -30.4781 -30.4781 -30.4326 -30.4326 -30.4309 -30.4309
   -20.3258 -20.3258 -20.3257 -20.3257 -20.3257 -20.3257 -20.3256 -20.3256
   -20.3047 -20.3047 -20.3044 -20.3044 -20.3021 -20.3021 -20.3017 -20.3017
   -20.3015 -20.3015 -20.3011 -20.3011 -20.3009 -20.3009 -20.3007 -20.3007
   -20.3003 -20.3003 -20.3002 -20.3002 -20.3001 -20.3001 -20.2997 -20.2997
   -20.2939 -20.2939 -20.2937 -20.2937 -20.2924 -20.2924 -20.2921 -20.2921
   -20.2920 -20.2920 -20.2919 -20.2919 -20.2889 -20.2889 -20.2888 -20.2888
   -20.2884 -20.2884 -20.2883 -20.2883 -20.2852 -20.2852 -20.2848 -20.2848
    -9.6160  -9.6160  -9.5036  -9.5036  -8.9016  -8.9016  -8.7579  -8.7579
    -8.6427  -8.6427  -8.6297  -8.6297  -8.5306  -8.5306  -8.4532  -8.4532
    -8.1006  -8.1006  -8.0616  -8.0616  -7.7156  -7.7156  -7.7035  -7.7035
     1.1903   1.1903   1.1942   1.1942   2.4040   2.4040   2.5327   2.5327
     2.8907   2.8907   2.9903   2.9903   3.0276   3.0276   3.1938   3.1938
     3.2367   3.2367   3.2810   3.2810   3.3367   3.3368   3.6067   3.6067
     4.0335   4.0335   4.0822   4.0822   4.1132   4.1132   4.3536   4.3536
     4.8206   4.8206   4.9399   4.9399   5.1648   5.1648   5.2064   5.2064
     5.3492   5.3492   5.7765   5.7765   6.2625   6.2625   6.3015   6.3015
     6.4114   6.4114   6.4653   6.4653   6.4826   6.4826   6.7319   6.7319
     7.0513   7.0513   7.0691   7.0692   7.1095   7.1095   7.5036   7.5036
     7.5060   7.5060   7.5757   7.5757   7.5967   7.5967   7.8662   7.8662
    10.5929  10.5929  11.1448  11.1448  11.1785  11.1785  11.6733  11.6733
    11.9708  11.9708  12.1008  12.1008  12.5851  12.5851  12.6270  12.6270
    12.8960  12.8960  12.9939  12.9939  13.4561  13.4561  13.8528  13.8528
    15.1867  15.1867  15.7833  15.7833  16.2776  16.2776  16.4553  16.4553
    16.9677  16.9677  17.2959  17.2959  18.0267

          k = 0.0000-0.4725 0.0000 ( 62212 PWs)   bands (ev):

   -66.1693 -66.1691 -66.1682 -66.1682 -66.1681 -66.1681 -66.1672 -66.1671
   -30.5389 -30.5386 -30.5374 -30.5372 -30.5334 -30.5331 -30.5319 -30.5318
   -30.5098 -30.5097 -30.5068 -30.5067 -30.5065 -30.5063 -30.5035 -30.5034
   -30.4346 -30.4342 -30.4335 -30.4334 -30.4300 -30.4297 -30.4288 -30.4287
   -20.3259 -20.3258 -20.3258 -20.3258 -20.3257 -20.3257 -20.3257 -20.3256
   -20.3035 -20.3034 -20.3032 -20.3031 -20.3031 -20.3030 -20.3028 -20.3027
   -20.3017 -20.3016 -20.3015 -20.3013 -20.3013 -20.3012 -20.3012 -20.3010
   -20.3001 -20.3000 -20.3000 -20.2999 -20.2999 -20.2998 -20.2997 -20.2996
   -20.2941 -20.2940 -20.2940 -20.2939 -20.2936 -20.2935 -20.2935 -20.2934
   -20.2918 -20.2916 -20.2914 -20.2912 -20.2912 -20.2912 -20.2909 -20.2908
   -20.2855 -20.2854 -20.2853 -20.2852 -20.2848 -20.2846 -20.2846 -20.2845
    -9.8488  -9.8488  -9.4152  -9.4140  -9.4127  -9.4116  -9.1382  -9.1382
    -8.4428  -8.4428  -8.3997  -8.3996  -8.3996  -8.3994  -8.3927  -8.3927
    -7.7761  -7.7756  -7.7739  -7.7734  -7.6472  -7.6467  -7.6450  -7.6446
     1.0328   1.0328   1.1603   1.1620   1.1621   1.1637   1.4968   1.4968
     2.3405   2.3405   3.1682   3.1692   3.1773   3.1782   3.2704   3.2718
     3.2741   3.2742   3.2771   3.2785   3.4912   3.4924   3.4968   3.4980
     3.6965   3.6966   4.7255   4.7257   4.7262   4.7265   5.2449   5.2458
     5.2464   5.2473   5.3823   5.3825   5.3834   5.3835   5.7585   5.7586
     5.7591   5.7592   5.9903   5.9908   5.9951   5.9956   6.1625   6.1641
     6.1661   6.1678   6.2210   6.2211   6.6702   6.6708   6.6735   6.6741
     6.9036   6.9036   7.3248   7.3260   7.3282   7.3293   7.4932   7.4932
     7.4951   7.4951   7.5428   7.5430   7.5440   7.5442   7.8781   7.8782
     9.1807   9.1807  11.1799  11.1817  11.1822  11.1841  11.2612  11.2624
    11.2644  11.2658  12.3996  12.4004  12.4037  12.4043  13.0917  13.0918
    13.5825  13.5837  13.5874  13.5885  13.6371  13.6374  13.6391  13.6395
    15.4526  15.4530  15.4764  15.4766  15.7328  15.7336  15.7358  15.7365
    16.4865  16.4866  17.9414  18.1213  18.1216

          k = 0.0000-0.4725 0.1667 ( 62246 PWs)   bands (ev):

   -66.1692 -66.1691 -66.1683 -66.1682 -66.1682 -66.1681 -66.1673 -66.1672
   -30.5385 -30.5370 -30.5338 -30.5323 -30.5323 -30.5309 -30.5271 -30.5258
   -30.5087 -30.5086 -30.5072 -30.5069 -30.5060 -30.5055 -30.5039 -30.5039
   -30.4410 -30.4402 -30.4364 -30.4355 -30.4343 -30.4332 -30.4303 -30.4292
   -20.3259 -20.3258 -20.3258 -20.3258 -20.3257 -20.3257 -20.3257 -20.3256
   -20.3035 -20.3034 -20.3032 -20.3032 -20.3031 -20.3031 -20.3028 -20.3027
   -20.3016 -20.3015 -20.3014 -20.3013 -20.3012 -20.3012 -20.3012 -20.3009
   -20.3002 -20.3001 -20.3000 -20.2999 -20.2999 -20.2998 -20.2998 -20.2997
   -20.2940 -20.2940 -20.2937 -20.2936 -20.2935 -20.2935 -20.2934 -20.2931
   -20.2915 -20.2914 -20.2913 -20.2913 -20.2911 -20.2910 -20.2909 -20.2909
   -20.2859 -20.2858 -20.2854 -20.2852 -20.2852 -20.2851 -20.2848 -20.2846
    -9.7951  -9.7948  -9.4292  -9.4268  -9.3234  -9.3210  -9.0952  -9.0949
    -8.4480  -8.4479  -8.4069  -8.4068  -8.3950  -8.3948  -8.3936  -8.3935
    -7.9048  -7.9027  -7.7839  -7.7822  -7.7667  -7.7649  -7.6556  -7.6535
     1.1276   1.1288   1.1653   1.1671   1.4311   1.4328   1.6739   1.6748
     2.4307   2.4307   3.1721   3.1794   3.1959   3.2039   3.2648   3.2703
     3.2736   3.2739   3.3154   3.3220   3.4878   3.4937   3.5385   3.5429
     3.7203   3.7204   4.3423   4.3424   4.7805   4.7814   4.9855   4.9875
     5.1570   5.1573   5.2247   5.2253   5.3920   5.3926   5.4826   5.4833
     5.7294   5.7295   5.7642   5.7647   6.0862   6.0913   6.1237   6.1240
     6.3604   6.3620   6.3814   6.3877   6.6613   6.6646   6.8771   6.8802
     6.9766   6.9773   7.0765   7.0782   7.1409   7.1447   7.4790   7.4808
     7.4995   7.5010   7.5198   7.5213   7.5340   7.5352   7.8718   7.8718
     9.5634   9.5641  11.1850  11.1872  11.2544  11.2564  11.3134  11.3150
    11.3881  11.3907  12.2860  12.2895  12.4520  12.4558  13.0986  13.0988
    13.3981  13.3992  13.5095  13.5126  13.5888  13.5920  13.6357  13.6363
    15.4529  15.4553  15.6844  15.6864  15.7180  15.7211  16.0199  16.0223
    16.5538  16.5539  17.8882  17.8896  18.0817

          k = 0.0000-0.4725 0.3333 ( 62268 PWs)   bands (ev):

   -66.1690 -66.1689 -66.1685 -66.1684 -66.1680 -66.1679 -66.1675 -66.1674
   -30.5375 -30.5360 -30.5348 -30.5333 -30.5172 -30.5157 -30.5146 -30.5139
   -30.5084 -30.5080 -30.5052 -30.5052 -30.5023 -30.5021 -30.5010 -30.5006
   -30.4595 -30.4588 -30.4549 -30.4540 -30.4334 -30.4324 -30.4311 -30.4301
   -20.3259 -20.3258 -20.3258 -20.3257 -20.3257 -20.3257 -20.3256 -20.3256
   -20.3035 -20.3034 -20.3033 -20.3032 -20.3032 -20.3031 -20.3030 -20.3028
   -20.3015 -20.3014 -20.3013 -20.3013 -20.3011 -20.3009 -20.3009 -20.3006
   -20.3004 -20.3003 -20.3001 -20.3000 -20.3000 -20.2999 -20.2999 -20.2998
   -20.2939 -20.2939 -20.2937 -20.2936 -20.2930 -20.2928 -20.2928 -20.2926
   -20.2919 -20.2916 -20.2915 -20.2913 -20.2904 -20.2904 -20.2900 -20.2900
   -20.2872 -20.2871 -20.2865 -20.2865 -20.2853 -20.2850 -20.2850 -20.2847
    -9.6705  -9.6694  -9.4726  -9.4703  -9.0687  -9.0664  -8.9462  -8.9453
    -8.4912  -8.4909  -8.4468  -8.4467  -8.3906  -8.3906  -8.3774  -8.3772
    -8.2030  -8.2013  -8.1037  -8.1019  -7.7431  -7.7409  -7.6787  -7.6766
     1.1783   1.1802   1.1911   1.1930   2.1449   2.1464   2.3356   2.3370
     2.6937   2.6938   3.1800   3.1897   3.2246   3.2362   3.2488   3.2534
     3.2697   3.2717   3.4003   3.4057   3.4722   3.4785   3.6832   3.6846
     3.7290   3.7298   3.7683   3.7689   4.4638   4.4639   4.6176   4.6187
     4.7800   4.7843   4.8192   4.8232   5.1230   5.1250   5.2608   5.2609
     5.4279   5.4289   5.6466   5.6473   6.1730   6.1734   6.2228   6.2289
     6.4891   6.4902   6.6081   6.6185   6.6361   6.6362   6.7828   6.7869
     6.9606   6.9629   7.1800   7.1825   7.1901   7.1917   7.4522   7.4546
     7.4807   7.4824   7.5135   7.5139   7.5191   7.5202   7.7898   7.7900
    10.3346  10.3361  11.2001  11.2022  11.2365  11.2386  11.6984  11.6998
    11.7475  11.7498  11.8661  11.8688  12.6219  12.6251  12.8096  12.8099
    12.9098  12.9109  13.2593  13.2614  13.6016  13.6017  13.6295  13.6305
    15.4944  15.4973  15.6688  15.6717  16.2925  16.2947  16.7510  16.7526
    16.8023  16.8032  17.3636  17.3640  17.9207

          k = 0.0000-0.4725-0.5000 ( 62284 PWs)   bands (ev):

   -66.1687 -66.1687 -66.1686 -66.1686 -66.1677 -66.1677 -66.1676 -66.1676
   -30.5361 -30.5361 -30.5347 -30.5347 -30.5105 -30.5105 -30.5099 -30.5099
   -30.5078 -30.5078 -30.5074 -30.5074 -30.4839 -30.4839 -30.4832 -30.4832
   -30.4795 -30.4795 -30.4788 -30.4788 -30.4323 -30.4323 -30.4312 -30.4312
   -20.3258 -20.3258 -20.3257 -20.3257 -20.3257 -20.3257 -20.3256 -20.3256
   -20.3034 -20.3034 -20.3033 -20.3033 -20.3031 -20.3031 -20.3030 -20.3030
   -20.3014 -20.3014 -20.3013 -20.3013 -20.3008 -20.3008 -20.3006 -20.3006
   -20.3005 -20.3004 -20.3003 -20.3003 -20.3000 -20.3000 -20.2998 -20.2998
   -20.2938 -20.2938 -20.2938 -20.2938 -20.2924 -20.2924 -20.2921 -20.2921
   -20.2921 -20.2921 -20.2919 -20.2919 -20.2889 -20.2889 -20.2888 -20.2888
   -20.2884 -20.2884 -20.2883 -20.2883 -20.2851 -20.2851 -20.2849 -20.2849
    -9.5514  -9.5514  -9.5493  -9.5493  -8.7204  -8.7204  -8.7150  -8.7150
    -8.6742  -8.6742  -8.6708  -8.6708  -8.3696  -8.3696  -8.3623  -8.3623
    -8.3269  -8.3269  -8.3194  -8.3194  -7.7107  -7.7107  -7.7085  -7.7085
     1.1921   1.1921   1.1942   1.1942   2.9647   2.9647   2.9795   2.9795
     3.1081   3.1081   3.1174   3.1174   3.1802   3.1802   3.2085   3.2085
     3.2376   3.2376   3.2694   3.2694   3.4004   3.4004   3.4252   3.4252
     3.5763   3.5763   3.6369   3.6369   4.2887   4.2887   4.3012   4.3012
     4.3938   4.3938   4.4140   4.4140   5.1865   5.1865   5.1915   5.1915
     5.5093   5.5093   5.5153   5.5153   6.2975   6.2975   6.2990   6.2990
     6.4602   6.4602   6.4636   6.4636   6.5858   6.5858   6.5957   6.5957
     7.2960   7.2960   7.3041   7.3041   7.3619   7.3619   7.4036   7.4036
     7.4475   7.4475   7.4749   7.4749   7.5944   7.5944   7.5957   7.5957
    11.1317  11.1317  11.1356  11.1356  11.2448  11.2448  11.2494  11.2494
    12.2557  12.2557  12.2699  12.2699  12.2853  12.2853  12.2944  12.2944
    12.9235  12.9235  12.9258  12.9258  13.6144  13.6144  13.6199  13.6199
    15.5862  15.5862  15.5892  15.5892  16.8628  16.8628  16.8725  16.8725
    17.4154  17.4154  17.4232  17.4232  17.5298

          k = 0.1667 0.0000 0.1667 ( 62234 PWs)   bands (ev):

   -66.1693 -66.1689 -66.1684 -66.1684 -66.1680 -66.1680 -66.1675 -66.1671
   -30.5416 -30.5380 -30.5378 -30.5331 -30.5326 -30.5319 -30.5286 -30.5279
   -30.5272 -30.5262 -30.5240 -30.5226 -30.4793 -30.4775 -30.4774 -30.4756
   -30.4420 -30.4415 -30.4393 -30.4389 -30.4379 -30.4374 -30.4352 -30.4348
   -20.3259 -20.3258 -20.3258 -20.3257 -20.3257 -20.3257 -20.3257 -20.3256
   -20.3062 -20.3059 -20.3059 -20.3056 -20.3018 -20.3017 -20.3015 -20.3015
   -20.3013 -20.3011 -20.3010 -20.3008 -20.3004 -20.3004 -20.3004 -20.3004
   -20.3003 -20.3003 -20.3002 -20.3001 -20.2995 -20.2995 -20.2995 -20.2993
   -20.2940 -20.2939 -20.2936 -20.2936 -20.2934 -20.2932 -20.2930 -20.2928
   -20.2913 -20.2912 -20.2912 -20.2911 -20.2911 -20.2910 -20.2910 -20.2910
   -20.2861 -20.2860 -20.2856 -20.2855 -20.2854 -20.2854 -20.2850 -20.2849
    -9.8953  -9.6412  -9.5007  -9.5000  -9.2684  -9.2671  -9.0637  -9.0509
    -9.0369  -8.8430  -8.8377  -8.8373  -7.9110  -7.9091  -7.8908  -7.8896
    -7.8359  -7.8235  -7.7827  -7.7679  -7.7609  -7.7352  -7.7352  -7.6916
     1.3056   1.3070   1.3867   1.3878   1.4301   1.4377   1.4399   1.6398
     1.6826   1.6834   1.7790   1.9736   2.4838   2.5653   2.6632   2.6644
     2.7740   2.7999   4.0818   4.0980   4.2462   4.2466   4.4206   4.4213
     4.4315   4.4320   4.6775   4.6810   4.7045   4.7980   5.0027   5.2211
     5.2488   5.2977   5.3345   5.5020   5.5040   5.6043   5.6049   5.7106
     5.7114   5.7518   5.7521   5.8328   5.8963   6.0279   6.3044   6.4255
     6.4335   6.4858   6.4986   6.6178   6.6386   6.7195   6.7444   6.7648
     6.7653   6.7989   6.8000   6.8210   6.8981   6.9775   6.9783   7.0698
     7.2247   7.2769   7.8577   7.8582   8.0618   8.0992   8.1237   8.1257
     9.7884   9.8447  10.1463  10.1604  10.1628  10.2444  12.3020  12.3086
    12.3177  12.3324  12.3345  12.3556  12.5514  12.5536  13.0169  13.0235
    13.0457  13.1693  13.1771  13.3915  13.9831  13.9950  14.0142  14.0717
    14.0829  14.4654  14.4692  15.1362  15.3824  15.6028  15.6165  16.4590
    16.4595  17.0524  17.0530  17.2742  17.5948

          k = 0.1667 0.0000 0.3333 ( 62265 PWs)   bands (ev):

   -66.1691 -66.1687 -66.1686 -66.1682 -66.1682 -66.1678 -66.1677 -66.1673
   -30.5409 -30.5386 -30.5370 -30.5341 -30.5316 -30.5290 -30.5266 -30.5244
   -30.5141 -30.5103 -30.5081 -30.5044 -30.4795 -30.4780 -30.4778 -30.4760
   -30.4591 -30.4576 -30.4553 -30.4534 -30.4410 -30.4387 -30.4383 -30.4360
   -20.3259 -20.3258 -20.3258 -20.3257 -20.3257 -20.3257 -20.3256 -20.3256
   -20.3061 -20.3059 -20.3058 -20.3057 -20.3017 -20.3016 -20.3014 -20.3013
   -20.3012 -20.3011 -20.3008 -20.3007 -20.3006 -20.3006 -20.3004 -20.3004
   -20.3003 -20.3002 -20.3002 -20.3002 -20.2997 -20.2997 -20.2995 -20.2994
   -20.2938 -20.2936 -20.2935 -20.2933 -20.2929 -20.2928 -20.2925 -20.2922
   -20.2916 -20.2916 -20.2914 -20.2913 -20.2904 -20.2903 -20.2901 -20.2900
   -20.2873 -20.2869 -20.2867 -20.2864 -20.2859 -20.2856 -20.2854 -20.2851
    -9.7692  -9.5503  -9.5032  -9.3200  -9.3075  -9.0716  -9.0019  -8.9511
    -8.9082  -8.8502  -8.7966  -8.7466  -8.2293  -8.2265  -8.1652  -8.1429
    -7.8849  -7.8687  -7.8213  -7.8100  -7.7669  -7.7450  -7.7265  -7.7011
     1.3881   1.3904   1.4514   1.4559   1.5822   1.6025   1.6236   1.6734
     2.1645   2.2098   2.3451   2.4340   2.6858   2.7477   2.7776   2.8490
     2.9060   3.0247   3.7213   3.8203   3.8614   3.9252   4.1585   4.2179
     4.2489   4.4225   4.5036   4.5634   4.6275   4.6377   4.6942   4.8521
     4.9421   4.9944   5.0339   5.1599   5.2314   5.3591   5.5626   5.6374
     5.7333   5.7679   5.8215   5.8896   5.8985   6.0169   6.1103   6.1339
     6.4118   6.4646   6.5424   6.5616   6.6058   6.6259   6.7200   6.7315
     6.7711   6.8547   6.8567   6.8637   7.0808   7.1134   7.1148   7.1684
     7.3053   7.3648   7.7727   7.7857   7.9469   7.9832   8.1165   8.1274
    10.1509  10.1632  10.4494  10.5014  10.8144  10.9082  11.9009  11.9358
    12.1411  12.4533  12.4807  12.5023  12.5429  12.5542  12.7283  12.8100
    13.0039  13.0345  13.1064  13.2809  13.6428  13.6640  14.0117  14.0342
    14.2564  14.4389  14.7797  15.2780  15.4578  15.9048  16.0780  16.3660
    16.4651  17.3493  17.5051  17.6097  17.6942

          k = 0.1667 0.0000-0.5000 ( 62322 PWs)   bands (ev):

   -66.1688 -66.1688 -66.1684 -66.1684 -66.1679 -66.1679 -66.1675 -66.1675
   -30.5398 -30.5398 -30.5356 -30.5355 -30.5303 -30.5303 -30.5255 -30.5255
   -30.4907 -30.4907 -30.4884 -30.4884 -30.4830 -30.4830 -30.4795 -30.4795
   -30.4730 -30.4730 -30.4725 -30.4725 -30.4398 -30.4398 -30.4372 -30.4372
   -20.3258 -20.3258 -20.3258 -20.3258 -20.3257 -20.3257 -20.3256 -20.3256
   -20.3061 -20.3061 -20.3058 -20.3058 -20.3016 -20.3016 -20.3012 -20.3012
   -20.3010 -20.3010 -20.3009 -20.3009 -20.3006 -20.3006 -20.3005 -20.3005
   -20.3003 -20.3003 -20.3000 -20.3000 -20.2999 -20.2999 -20.2994 -20.2994
   -20.2937 -20.2937 -20.2934 -20.2934 -20.2922 -20.2922 -20.2921 -20.2921
   -20.2919 -20.2919 -20.2917 -20.2917 -20.2890 -20.2890 -20.2887 -20.2887
   -20.2885 -20.2885 -20.2882 -20.2882 -20.2858 -20.2858 -20.2852 -20.2852
    -9.6400  -9.6400  -9.3811  -9.3811  -9.1534  -9.1534  -8.8750  -8.8750
    -8.6209  -8.6209  -8.6188  -8.6188  -8.5675  -8.5674  -8.5062  -8.5062
    -7.8531  -7.8531  -7.8384  -7.8384  -7.7575  -7.7575  -7.7138  -7.7138
     1.3905   1.3905   1.4658   1.4658   1.6067   1.6067   1.6596   1.6596
     2.7112   2.7112   2.9530   2.9530   3.0336   3.0336   3.1530   3.1530
     3.2076   3.2076   3.3279   3.3279   3.4287   3.4287   3.7503   3.7503
     3.8503   3.8503   4.3347   4.3347   4.5718   4.5718   4.8224   4.8224
     4.9583   4.9583   4.9655   4.9655   5.1925   5.1925   5.6656   5.6656
     5.7449   5.7449   5.8269   5.8269   5.8835   5.8835   6.0294   6.0294
     6.3541   6.3541   6.4835   6.4835   6.6911   6.6911   6.7355   6.7355
     6.7722   6.7722   6.9345   6.9345   6.9879   6.9879   7.5148   7.5148
     7.5481   7.5481   7.7028   7.7028   7.7233   7.7233   8.1268   8.1268
    10.1639  10.1639  11.2075  11.2075  11.2661  11.2661  11.5649  11.5649
    11.7294  11.7294  12.5735  12.5735  12.7265  12.7265  12.7368  12.7368
    12.9276  12.9276  13.2109  13.2109  13.3180  13.3180  14.0193  14.0193
    14.3813  14.3813  15.0815  15.0815  15.9085  15.9085  16.1919  16.1919
    16.8715  16.8715  17.9025  17.9029  17.9255

          k = 0.1667 0.1575 0.1667 ( 62255 PWs)   bands (ev):

   -66.1692 -66.1689 -66.1684 -66.1684 -66.1680 -66.1680 -66.1675 -66.1671
   -30.5385 -30.5351 -30.5349 -30.5323 -30.5315 -30.5292 -30.5286 -30.5277
   -30.5266 -30.5254 -30.5241 -30.5223 -30.4832 -30.4814 -30.4813 -30.4795
   -30.4419 -30.4414 -30.4394 -30.4391 -30.4378 -30.4373 -30.4354 -30.4349
   -20.3259 -20.3258 -20.3258 -20.3257 -20.3257 -20.3257 -20.3257 -20.3256
   -20.3058 -20.3055 -20.3055 -20.3052 -20.3018 -20.3016 -20.3015 -20.3015
   -20.3014 -20.3012 -20.3011 -20.3009 -20.3006 -20.3006 -20.3005 -20.3005
   -20.3004 -20.3004 -20.3003 -20.3002 -20.2996 -20.2996 -20.2996 -20.2994
   -20.2939 -20.2939 -20.2936 -20.2936 -20.2934 -20.2932 -20.2930 -20.2928
   -20.2913 -20.2912 -20.2912 -20.2911 -20.2911 -20.2910 -20.2910 -20.2910
   -20.2861 -20.2859 -20.2856 -20.2855 -20.2854 -20.2854 -20.2850 -20.2850
    -9.8689  -9.6514  -9.4699  -9.4691  -9.2751  -9.2738  -9.0628  -9.0511
    -8.9640  -8.7942  -8.7935  -8.7933  -7.9156  -7.9087  -7.9008  -7.8992
    -7.8971  -7.8315  -7.8299  -7.8267  -7.8192  -7.7805  -7.7680  -7.7620
     1.3056   1.3068   1.4140   1.4153   1.4375   1.4391   1.5821   1.7782
     1.8390   1.8947   1.8952   2.1004   2.4898   2.5601   2.7358   2.7371
     2.8453   2.8651   3.9725   4.0038   4.0656   4.0668   4.3844   4.3853
     4.4343   4.4350   4.6791   4.7165   4.7330   4.7792   4.7945   5.1745
     5.1973   5.2519   5.2545   5.3138   5.3302   5.5675   5.5679   5.6667
     5.7211   5.7233   5.8416   5.8450   5.8473   5.9415   6.3230   6.3473
     6.3552   6.4734   6.4861   6.6121   6.6234   6.7125   6.7542   6.7847
     6.7864   6.8460   6.8550   6.8577   6.9403   6.9595   6.9613   7.0771
     7.2278   7.2767   7.8585   7.8588   8.0073   8.0448   8.0491   8.0505
     9.8038   9.8422  10.3035  10.3335  10.3355  10.3870  12.1951  12.2361
    12.3029  12.3040  12.3178  12.3199  12.4259  12.4272  13.0304  13.0544
    13.0742  13.1722  13.1849  13.3988  13.9001  13.9098  13.9143  13.9844
    14.4150  14.7800  14.7811  15.2580  15.6036  15.6156  15.7925  16.4226
    16.4230  16.9167  17.1484  17.1488  17.6036

          k = 0.1667 0.1575 0.3333 ( 62260 PWs)   bands (ev):

   -66.1691 -66.1687 -66.1685 -66.1682 -66.1682 -66.1678 -66.1677 -66.1673
   -30.5375 -30.5355 -30.5334 -30.5313 -30.5303 -30.5288 -30.5262 -30.5243
   -30.5140 -30.5103 -30.5080 -30.5045 -30.4831 -30.4815 -30.4815 -30.4798
   -30.4593 -30.4578 -30.4554 -30.4536 -30.4409 -30.4386 -30.4385 -30.4362
   -20.3259 -20.3258 -20.3258 -20.3257 -20.3257 -20.3257 -20.3256 -20.3256
   -20.3058 -20.3056 -20.3055 -20.3053 -20.3017 -20.3015 -20.3015 -20.3013
   -20.3013 -20.3012 -20.3010 -20.3008 -20.3007 -20.3006 -20.3006 -20.3005
   -20.3004 -20.3004 -20.3003 -20.3003 -20.2998 -20.2997 -20.2996 -20.2995
   -20.2938 -20.2936 -20.2935 -20.2933 -20.2929 -20.2928 -20.2925 -20.2922
   -20.2916 -20.2916 -20.2914 -20.2913 -20.2904 -20.2903 -20.2901 -20.2900
   -20.2873 -20.2870 -20.2867 -20.2864 -20.2859 -20.2856 -20.2854 -20.2851
    -9.7402  -9.5193  -9.5131  -9.3150  -9.2748  -9.0089  -8.9992  -8.9432
    -8.9093  -8.8071  -8.7573  -8.7165  -8.2339  -8.2246  -8.1758  -8.1403
    -7.8853  -7.8825  -7.8720  -7.8384  -7.8209  -7.8180  -7.8167  -7.7825
     1.4235   1.4325   1.4513   1.4559   1.7739   1.7869   1.8583   1.8875
     2.1635   2.2289   2.3453   2.4571   2.7569   2.7644   2.8296   2.8539
     2.9795   3.0864   3.7181   3.8143   3.8479   3.8856   4.0537   4.1298
     4.2278   4.3137   4.5151   4.5534   4.6085   4.6702   4.7013   4.7250
     4.8511   4.8667   4.8904   5.1298   5.1598   5.1882   5.3141   5.6059
     5.6451   5.6956   5.7342   5.8223   5.8919   5.9084   6.0876   6.1300
     6.3433   6.5143   6.5211   6.6484   6.7053   6.7060   6.7365   6.7456
     6.8254   6.8668   6.8992   6.9411   7.0729   7.1045   7.1105   7.1802
     7.2982   7.3603   7.7743   7.7830   7.9012   7.9255   8.0492   8.0531
    10.2946  10.3341  10.4666  10.5112  10.9306  11.0007  11.9018  11.9329
    12.1036  12.3951  12.4334  12.4579  12.4866  12.5440  12.6686  12.6993
    13.0112  13.0508  13.0919  13.2898  13.5378  13.5690  13.9139  13.9415
    14.6092  14.7601  15.1389  15.5428  15.7040  15.8993  16.0896  16.3332
    16.5635  17.2998  17.3053  17.5570  17.6522

          k = 0.1667 0.1575-0.5000 ( 62292 PWs)   bands (ev):

   -66.1688 -66.1688 -66.1684 -66.1684 -66.1679 -66.1679 -66.1676 -66.1676
   -30.5364 -30.5364 -30.5318 -30.5318 -30.5300 -30.5300 -30.5253 -30.5253
   -30.4916 -30.4916 -30.4899 -30.4899 -30.4831 -30.4831 -30.4798 -30.4798
   -30.4752 -30.4752 -30.4751 -30.4751 -30.4397 -30.4397 -30.4374 -30.4374
   -20.3258 -20.3258 -20.3258 -20.3258 -20.3257 -20.3257 -20.3256 -20.3256
   -20.3057 -20.3057 -20.3054 -20.3054 -20.3016 -20.3016 -20.3014 -20.3014
   -20.3010 -20.3010 -20.3009 -20.3009 -20.3007 -20.3007 -20.3007 -20.3007
   -20.3003 -20.3003 -20.3001 -20.3001 -20.3000 -20.3000 -20.2995 -20.2995
   -20.2937 -20.2937 -20.2934 -20.2934 -20.2922 -20.2922 -20.2921 -20.2921
   -20.2920 -20.2920 -20.2917 -20.2917 -20.2890 -20.2890 -20.2887 -20.2887
   -20.2885 -20.2885 -20.2883 -20.2883 -20.2857 -20.2857 -20.2852 -20.2852
    -9.6093  -9.6093  -9.3896  -9.3896  -9.0883  -9.0883  -8.8386  -8.8386
    -8.6239  -8.6239  -8.6220  -8.6220  -8.5623  -8.5623  -8.4969  -8.4969
    -7.8702  -7.8702  -7.8515  -7.8515  -7.8366  -7.8366  -7.8016  -7.8016
     1.4346   1.4346   1.4658   1.4658   1.8073   1.8073   1.8830   1.8830
     2.7782   2.7782   2.9689   2.9689   3.0405   3.0405   3.1708   3.1708
     3.2128   3.2128   3.3353   3.3353   3.4209   3.4209   3.7607   3.7607
     3.9020   3.9020   4.1883   4.1883   4.5900   4.5900   4.6229   4.6229
     4.8856   4.8856   4.9378   4.9379   5.0327   5.0327   5.4429   5.4429
     5.7109   5.7109   5.7469   5.7469   5.8433   5.8433   5.9173   5.9173
     6.4682   6.4682   6.6302   6.6302   6.6597   6.6597   6.7589   6.7589
     6.8702   6.8702   6.9015   6.9015   7.0245   7.0245   7.5168   7.5168
     7.5426   7.5426   7.6744   7.6744   7.6928   7.6928   8.0544   8.0544
    10.3294  10.3294  11.2129  11.2129  11.2655  11.2655  11.6319  11.6319
    11.7911  11.7911  12.4342  12.4342  12.6999  12.6999  12.7312  12.7312
    12.9062  12.9062  13.1109  13.1109  13.2673  13.2673  13.9238  13.9238
    14.7147  14.7147  15.4661  15.4661  16.0166  16.0166  16.1695  16.1695
    16.9036  16.9036  17.7053  17.7053  17.9506

          k = 0.1667 0.3150 0.1667 ( 62249 PWs)   bands (ev):

   -66.1692 -66.1690 -66.1683 -66.1683 -66.1681 -66.1681 -66.1674 -66.1672
   -30.5335 -30.5321 -30.5312 -30.5308 -30.5293 -30.5281 -30.5268 -30.5252
   -30.5198 -30.5194 -30.5191 -30.5187 -30.4938 -30.4919 -30.4918 -30.4899
   -30.4415 -30.4410 -30.4398 -30.4396 -30.4374 -30.4369 -30.4358 -30.4354
   -20.3259 -20.3258 -20.3258 -20.3257 -20.3257 -20.3257 -20.3257 -20.3256
   -20.3048 -20.3045 -20.3045 -20.3042 -20.3022 -20.3019 -20.3018 -20.3016
   -20.3015 -20.3015 -20.3013 -20.3013 -20.3012 -20.3010 -20.3009 -20.3008
   -20.3003 -20.3002 -20.3002 -20.3001 -20.2998 -20.2997 -20.2997 -20.2996
   -20.2939 -20.2938 -20.2936 -20.2935 -20.2935 -20.2933 -20.2930 -20.2928
   -20.2913 -20.2912 -20.2912 -20.2911 -20.2911 -20.2910 -20.2910 -20.2910
   -20.2860 -20.2859 -20.2857 -20.2855 -20.2854 -20.2853 -20.2851 -20.2850
    -9.8054  -9.6828  -9.4013  -9.4003  -9.2967  -9.2954  -9.0603  -9.0535
    -8.7557  -8.6497  -8.6495  -8.6435  -8.1418  -8.1023  -8.1021  -8.0818
    -7.9027  -7.9019  -7.8869  -7.8861  -7.8169  -7.8008  -7.7767  -7.7660
     1.3058   1.3065   1.4310   1.4325   1.4373   1.4388   1.7301   1.7751
     2.4104   2.5046   2.5256   2.5262   2.5395   2.6802   2.9577   2.9595
     3.0567   3.0694   3.6471   3.6493   3.6636   3.7126   4.1433   4.3834
     4.3840   4.4060   4.4070   4.5213   4.5228   4.7599   4.7668   4.8655
     4.9060   4.9073   5.0969   5.1337   5.3267   5.3739   5.4288   5.4296
     5.6679   5.6903   5.7308   5.7313   5.8284   5.8290   6.3524   6.3574
     6.4059   6.4597   6.4687   6.5989   6.6442   6.6873   6.8270   6.8279
     6.9006   6.9011   6.9900   6.9948   7.0917   7.1164   7.1220   7.1256
     7.2572   7.2883   7.8215   7.8257   7.8286   7.8387   7.8606   7.8815
     9.8228   9.8381  10.7271  10.7828  10.7899  10.7987  11.8314  11.8784
    11.9532  11.9548  12.3269  12.3273  12.3565  12.3568  13.0512  13.1198
    13.1964  13.2132  13.2555  13.4424  13.6672  13.6708  13.6779  13.7764
    15.1598  15.4539  15.4557  15.6066  15.6130  15.7388  16.2944  16.2949
    16.3509  16.7988  17.3617  17.4645  17.4653

          k = 0.1667 0.3150 0.3333 ( 62265 PWs)   bands (ev):

   -66.1690 -66.1688 -66.1685 -66.1683 -66.1681 -66.1679 -66.1676 -66.1674
   -30.5320 -30.5303 -30.5298 -30.5281 -30.5241 -30.5227 -30.5205 -30.5198
   -30.5139 -30.5109 -30.5070 -30.5043 -30.4933 -30.4915 -30.4913 -30.4898
   -30.4593 -30.4582 -30.4553 -30.4540 -30.4405 -30.4389 -30.4382 -30.4366
   -20.3259 -20.3258 -20.3258 -20.3257 -20.3257 -20.3257 -20.3256 -20.3256
   -20.3048 -20.3046 -20.3045 -20.3043 -20.3022 -20.3020 -20.3019 -20.3016
   -20.3015 -20.3014 -20.3012 -20.3011 -20.3010 -20.3009 -20.3007 -20.3005
   -20.3005 -20.3004 -20.3002 -20.3002 -20.3000 -20.2999 -20.2998 -20.2997
   -20.2938 -20.2936 -20.2935 -20.2934 -20.2929 -20.2928 -20.2925 -20.2922
   -20.2916 -20.2916 -20.2915 -20.2913 -20.2904 -20.2903 -20.2901 -20.2900
   -20.2872 -20.2870 -20.2867 -20.2865 -20.2858 -20.2855 -20.2855 -20.2852
    -9.6711  -9.5440  -9.4493  -9.3385  -9.1728  -9.0326  -8.9303  -8.9145
    -8.7935  -8.6684  -8.6232  -8.6058  -8.2634  -8.2490  -8.2163  -8.1323
    -8.1028  -8.0941  -8.0646  -8.0211  -7.8787  -7.8641  -7.8154  -7.8026
     1.4439   1.4501   1.4512   1.4558   2.1098   2.1598   2.2235   2.3420
     2.4171   2.5195   2.5319   2.6847   2.7828   2.8515   2.9747   3.0486
     3.2027   3.2774   3.6126   3.6392   3.7019   3.7326   3.7962   3.8791
     4.1171   4.2920   4.3856   4.4112   4.4921   4.5173   4.5642   4.5820
     4.6328   4.7926   4.8153   4.8827   4.8914   4.9442   5.1024   5.1500
     5.3026   5.3404   5.4618   5.6376   5.7521   5.8324   6.1172   6.1309
     6.4885   6.5804   6.6084   6.7428   6.7840   6.8012   6.9174   6.9602
     6.9863   7.0193   7.0370   7.0543   7.1057   7.1528   7.1905   7.2441
     7.2803   7.3480   7.7409   7.7459   7.7663   7.7836   7.8347   7.8610
    10.4534  10.4826  10.7790  10.7846  11.2520  11.2831  11.8395  11.8860
    11.9077  12.0228  12.1577  12.2003  12.4896  12.5605  12.6646  12.6867
    12.9560  13.0938  13.1261  13.3194  13.3446  13.3607  13.6773  13.7221
    15.3428  15.4390  15.8645  15.9710  15.9764  16.1512  16.2187  16.6825
    16.7882  16.8814  17.1545  17.5873  17.7120

          k = 0.1667 0.3150-0.5000 ( 62264 PWs)   bands (ev):

   -66.1687 -66.1687 -66.1685 -66.1685 -66.1679 -66.1679 -66.1676 -66.1676
   -30.5308 -30.5308 -30.5290 -30.5290 -30.5216 -30.5216 -30.5215 -30.5215
   -30.4968 -30.4968 -30.4962 -30.4962 -30.4833 -30.4833 -30.4817 -30.4817
   -30.4790 -30.4790 -30.4784 -30.4784 -30.4394 -30.4394 -30.4378 -30.4378
   -20.3258 -20.3258 -20.3258 -20.3258 -20.3257 -20.3257 -20.3256 -20.3256
   -20.3047 -20.3047 -20.3044 -20.3044 -20.3021 -20.3021 -20.3018 -20.3018
   -20.3014 -20.3014 -20.3010 -20.3010 -20.3008 -20.3008 -20.3007 -20.3007
   -20.3003 -20.3003 -20.3003 -20.3002 -20.3001 -20.3001 -20.2997 -20.2997
   -20.2936 -20.2936 -20.2935 -20.2935 -20.2922 -20.2922 -20.2921 -20.2921
   -20.2920 -20.2920 -20.2917 -20.2917 -20.2889 -20.2889 -20.2888 -20.2888
   -20.2884 -20.2884 -20.2883 -20.2883 -20.2857 -20.2857 -20.2853 -20.2853
    -9.5378  -9.5378  -9.4167  -9.4167  -8.9176  -8.9176  -8.7419  -8.7419
    -8.6449  -8.6449  -8.6311  -8.6311  -8.5232  -8.5232  -8.4568  -8.4568
    -8.0987  -8.0987  -8.0686  -8.0686  -7.8470  -7.8470  -7.8333  -7.8333
     1.4578   1.4578   1.4655   1.4655   2.4060   2.4060   2.5118   2.5118
     2.9557   2.9557   3.0274   3.0274   3.0391   3.0391   3.2065   3.2065
     3.2390   3.2390   3.3694   3.3694   3.3904   3.3904   3.6489   3.6489
     4.0388   4.0388   4.0765   4.0765   4.1105   4.1105   4.3601   4.3601
     4.7331   4.7331   4.8020   4.8020   4.9673   4.9673   5.0100   5.0100
     5.0703   5.0704   5.5329   5.5329   5.8451   5.8451   5.8812   5.8812
     6.6409   6.6409   6.7685   6.7685   6.7962   6.7962   6.8262   6.8262
     7.0246   7.0246   7.0760   7.0760   7.1734   7.1734   7.5141   7.5141
     7.5252   7.5252   7.5800   7.5800   7.6049   7.6049   7.8448   7.8448
    10.7640  10.7640  11.2245  11.2245  11.2650  11.2650  11.7382  11.7382
    11.9810  11.9810  12.1332  12.1333  12.5707  12.5707  12.6071  12.6071
    12.8231  12.8231  12.9302  12.9302  13.2813  13.2813  13.6947  13.6948
    15.4059  15.4059  16.0808  16.0808  16.3482  16.3482  16.4516  16.4516
    17.0368  17.0368  17.3398  17.3398  17.9155

          k = 0.1667-0.4725 0.1667 ( 62220 PWs)   bands (ev):

   -66.1691 -66.1690 -66.1682 -66.1682 -66.1681 -66.1681 -66.1674 -66.1673
   -30.5323 -30.5319 -30.5307 -30.5306 -30.5279 -30.5277 -30.5258 -30.5258
   -30.5079 -30.5078 -30.5064 -30.5064 -30.5061 -30.5059 -30.5044 -30.5043
   -30.4411 -30.4408 -30.4401 -30.4399 -30.4370 -30.4368 -30.4359 -30.4358
   -20.3259 -20.3258 -20.3258 -20.3258 -20.3257 -20.3257 -20.3257 -20.3256
   -20.3035 -20.3034 -20.3032 -20.3032 -20.3031 -20.3031 -20.3029 -20.3028
   -20.3015 -20.3014 -20.3013 -20.3012 -20.3012 -20.3012 -20.3011 -20.3009
   -20.3002 -20.3001 -20.3001 -20.3000 -20.3000 -20.2998 -20.2998 -20.2997
   -20.2939 -20.2938 -20.2937 -20.2936 -20.2935 -20.2933 -20.2930 -20.2929
   -20.2913 -20.2912 -20.2912 -20.2912 -20.2911 -20.2910 -20.2910 -20.2910
   -20.2860 -20.2859 -20.2857 -20.2856 -20.2853 -20.2852 -20.2852 -20.2851
    -9.7361  -9.7361  -9.3389  -9.3378  -9.3365  -9.3354  -9.0569  -9.0569
    -8.4552  -8.4551  -8.4020  -8.4018  -8.4016  -8.4014  -8.3937  -8.3936
    -7.8969  -7.8963  -7.8946  -7.8940  -7.8102  -7.8101  -7.7714  -7.7714
     1.3061   1.3061   1.4349   1.4364   1.4368   1.4382   1.7651   1.7651
     2.5239   2.5240   3.1952   3.1969   3.2057   3.2087   3.2690   3.2692
     3.2788   3.2789   3.3533   3.3541   3.5330   3.5338   3.5400   3.5410
     3.7391   3.7392   4.3923   4.3930   4.4299   4.4306   4.9365   4.9372
     5.0210   5.0213   5.1415   5.1425   5.1791   5.1800   5.4227   5.4230
     5.4714   5.4714   5.7443   5.7455   5.7735   5.7744   6.4141   6.4202
     6.4342   6.4415   6.5205   6.5211   6.6470   6.6480   6.8664   6.8666
     6.8778   6.8785   7.0532   7.0533   7.2153   7.2154   7.4816   7.4818
     7.4896   7.4910   7.5003   7.5018   7.5388   7.5389   7.8623   7.8624
     9.8327   9.8327  11.2897  11.2904  11.3437  11.3451  11.3798  11.3814
    11.3843  11.3854  12.3307  12.3311  12.3515  12.3519  13.0979  13.0979
    13.3961  13.3974  13.4091  13.4110  13.4272  13.4282  13.5719  13.5720
    15.6087  15.6088  15.7724  15.7728  16.0021  16.0029  16.0115  16.0121
    16.6131  16.6131  17.9052  17.9170  17.9182

          k = 0.1667-0.4725 0.3333 ( 62252 PWs)   bands (ev):

   -66.1689 -66.1688 -66.1684 -66.1683 -66.1681 -66.1679 -66.1675 -66.1674
   -30.5313 -30.5297 -30.5287 -30.5272 -30.5169 -30.5155 -30.5143 -30.5134
   -30.5076 -30.5072 -30.5056 -30.5056 -30.5022 -30.5021 -30.5010 -30.5008
   -30.4592 -30.4585 -30.4552 -30.4543 -30.4403 -30.4392 -30.4379 -30.4369
   -20.3258 -20.3258 -20.3258 -20.3257 -20.3257 -20.3257 -20.3257 -20.3256
   -20.3035 -20.3034 -20.3033 -20.3032 -20.3032 -20.3031 -20.3030 -20.3029
   -20.3013 -20.3013 -20.3012 -20.3012 -20.3011 -20.3010 -20.3008 -20.3006
   -20.3004 -20.3003 -20.3001 -20.3001 -20.3000 -20.2999 -20.2999 -20.2999
   -20.2937 -20.2937 -20.2935 -20.2934 -20.2929 -20.2928 -20.2925 -20.2922
   -20.2916 -20.2916 -20.2915 -20.2913 -20.2904 -20.2903 -20.2901 -20.2900
   -20.2872 -20.2871 -20.2866 -20.2866 -20.2858 -20.2855 -20.2855 -20.2852
    -9.5984  -9.5975  -9.3837  -9.3815  -9.0842  -9.0820  -8.9211  -8.9204
    -8.5040  -8.5033  -8.4403  -8.4388  -8.3885  -8.3876  -8.3835  -8.3834
    -8.1956  -8.1937  -8.1116  -8.1097  -7.8733  -7.8711  -7.8105  -7.8084
     1.4484   1.4501   1.4536   1.4556   2.1508   2.1525   2.3252   2.3270
     2.7969   2.7990   3.2008   3.2115   3.2267   3.2413   3.2478   3.2640
     3.2801   3.2904   3.4172   3.4548   3.5030   3.5344   3.6605   3.6658
     3.7700   3.7831   3.8023   3.8588   4.4350   4.4762   4.5471   4.5588
     4.6366   4.6883   4.7596   4.7889   4.9642   4.9753   4.9850   5.0669
     5.1625   5.2127   5.3143   5.4047   5.7640   5.7818   6.1240   6.1304
     6.5689   6.5739   6.6831   6.6995   6.8252   6.8339   6.9807   7.0278
     7.0450   7.0550   7.1660   7.1855   7.2088   7.2159   7.4486   7.4574
     7.4680   7.4841   7.4978   7.5041   7.5204   7.5296   7.7887   7.7903
    10.4747  10.4776  11.3196  11.3352  11.3547  11.3649  11.7039  11.7175
    11.7302  11.7470  11.9105  11.9576  12.4910  12.5431  12.7952  12.8283
    12.9070  12.9366  13.1332  13.2323  13.4082  13.4365  13.4601  13.5247
    15.7468  15.7643  15.9527  15.9676  16.3368  16.3636  16.7305  16.7529
    16.8307  16.8355  17.3949  17.4266  17.8904

          k = 0.1667-0.4725-0.5000 ( 62232 PWs)   bands (ev):

   -66.1687 -66.1687 -66.1686 -66.1686 -66.1678 -66.1678 -66.1677 -66.1677
   -30.5300 -30.5300 -30.5285 -30.5285 -30.5097 -30.5097 -30.5090 -30.5090
   -30.5081 -30.5081 -30.5077 -30.5077 -30.4836 -30.4836 -30.4830 -30.4830
   -30.4798 -30.4798 -30.4791 -30.4791 -30.4391 -30.4391 -30.4381 -30.4381
   -20.3258 -20.3258 -20.3258 -20.3257 -20.3257 -20.3257 -20.3256 -20.3256
   -20.3034 -20.3034 -20.3033 -20.3033 -20.3031 -20.3031 -20.3030 -20.3030
   -20.3013 -20.3013 -20.3012 -20.3012 -20.3007 -20.3007 -20.3006 -20.3006
   -20.3004 -20.3004 -20.3003 -20.3003 -20.3000 -20.3000 -20.2999 -20.2999
   -20.2936 -20.2936 -20.2935 -20.2935 -20.2922 -20.2922 -20.2920 -20.2920
   -20.2920 -20.2920 -20.2917 -20.2917 -20.2889 -20.2889 -20.2888 -20.2888
   -20.2884 -20.2884 -20.2884 -20.2884 -20.2856 -20.2856 -20.2854 -20.2854
    -9.4674  -9.4674  -9.4653  -9.4653  -8.7419  -8.7419  -8.7366  -8.7366
    -8.6559  -8.6559  -8.6511  -8.6511  -8.3672  -8.3672  -8.3586  -8.3586
    -8.3312  -8.3312  -8.3227  -8.3227  -7.8419  -7.8419  -7.8397  -7.8397
     1.4625   1.4625   1.4649   1.4649   2.9695   2.9695   2.9858   2.9858
     3.1018   3.1018   3.1371   3.1371   3.1935   3.1935   3.2187   3.2187
     3.2807   3.2807   3.3750   3.3750   3.4150   3.4150   3.4641   3.4641
     3.6074   3.6074   3.6647   3.6647   4.2891   4.2891   4.3026   4.3026
     4.3848   4.3848   4.4066   4.4066   4.8331   4.8331   4.9770   4.9770
     5.1545   5.1545   5.2901   5.2901   5.8481   5.8481   5.8625   5.8625
     6.7204   6.7204   6.7534   6.7534   6.8229   6.8229   6.8554   6.8554
     7.2828   7.2828   7.3243   7.3243   7.3651   7.3651   7.4060   7.4060
     7.4454   7.4454   7.4874   7.4874   7.5870   7.5870   7.6171   7.6171
    11.1886  11.1886  11.2307  11.2307  11.3430  11.3430  11.4110  11.4110
    12.2503  12.2503  12.2739  12.2739  12.2899  12.2899  12.3015  12.3015
    12.8051  12.8051  12.8745  12.8745  13.4243  13.4243  13.4720  13.4720
    15.8646  15.8646  15.8827  15.8827  16.9220  16.9220  16.9353  16.9353
    17.4214  17.4216  17.4402  17.4404  17.5190

          k = 0.3333 0.0000 0.3333 ( 62316 PWs)   bands (ev):

   -66.1689 -66.1685 -66.1684 -66.1684 -66.1680 -66.1680 -66.1679 -66.1675
   -30.5403 -30.5379 -30.5379 -30.5351 -30.5137 -30.5133 -30.5122 -30.5097
   -30.5082 -30.5075 -30.5063 -30.5043 -30.4799 -30.4782 -30.4781 -30.4764
   -30.4602 -30.4577 -30.4575 -30.4567 -30.4563 -30.4554 -30.4545 -30.4538
   -20.3258 -20.3258 -20.3258 -20.3258 -20.3257 -20.3257 -20.3257 -20.3256
   -20.3061 -20.3059 -20.3059 -20.3057 -20.3015 -20.3013 -20.3013 -20.3013
   -20.3011 -20.3010 -20.3009 -20.3007 -20.3007 -20.3006 -20.3006 -20.3005
   -20.3004 -20.3003 -20.3001 -20.3001 -20.2998 -20.2997 -20.2996 -20.2995
   -20.2935 -20.2933 -20.2930 -20.2930 -20.2928 -20.2928 -20.2919 -20.2918
   -20.2915 -20.2913 -20.2907 -20.2905 -20.2904 -20.2903 -20.2898 -20.2896
   -20.2876 -20.2872 -20.2869 -20.2869 -20.2868 -20.2865 -20.2865 -20.2864
    -9.6209  -9.3713  -9.3709  -9.3135  -9.1096  -9.0459  -9.0448  -8.8336
    -8.8178  -8.7774  -8.7601  -8.7595  -8.2742  -8.2161  -8.2097  -8.2078
    -8.1993  -8.1976  -8.0982  -8.0786  -7.7625  -7.7364  -7.7363  -7.7106
     1.5244   1.5627   1.5628   1.6059   2.0447   2.0485   2.1776   2.1789
     2.2217   2.2228   2.4370   2.5407   2.9189   2.9202   2.9551   2.9874
     3.1313   3.1584   3.8015   3.8077   3.8398   3.8475   4.0387   4.0397
     4.1354   4.1363   4.1847   4.2871   4.3617   4.3634   4.4483   4.4760
     4.8110   4.8241   4.8482   4.9167   4.9910   4.9927   5.1064   5.4027
     5.4043   5.4232   5.4303   5.6682   5.9490   5.9491   5.9642   6.0797
     6.4951   6.5015   6.5256   6.5433   6.5440   6.5541   6.5544   6.6417
     6.9853   7.1640   7.1651   7.1767   7.1792   7.2555   7.3182   7.3194
     7.3435   7.4828   7.7255   7.7287   7.9149   7.9891   7.9908   8.0319
    10.7104  10.7843  10.8211  10.8243  10.9309  11.1215  12.0741  12.0755
    12.1265  12.1277  12.2245  12.2843  12.5126  12.5143  12.7797  12.7818
    12.8068  12.8172  12.9209  13.0357  13.5590  13.6288  13.6298  13.7285
    14.4614  14.7314  14.7316  15.1838  15.8465  16.4741  16.5210  16.8250
    16.8273  17.3286  17.3307  17.8278  17.9285

          k = 0.3333 0.0000-0.5000 ( 62288 PWs)   bands (ev):

   -66.1686 -66.1686 -66.1682 -66.1682 -66.1681 -66.1681 -66.1677 -66.1677
   -30.5391 -30.5391 -30.5365 -30.5365 -30.5124 -30.5124 -30.5068 -30.5068
   -30.4904 -30.4904 -30.4883 -30.4883 -30.4823 -30.4823 -30.4803 -30.4803
   -30.4744 -30.4744 -30.4724 -30.4724 -30.4573 -30.4573 -30.4557 -30.4557
   -20.3258 -20.3258 -20.3258 -20.3258 -20.3257 -20.3257 -20.3256 -20.3256
   -20.3060 -20.3060 -20.3059 -20.3059 -20.3014 -20.3014 -20.3011 -20.3011
   -20.3010 -20.3010 -20.3009 -20.3009 -20.3007 -20.3007 -20.3006 -20.3006
   -20.3003 -20.3003 -20.3000 -20.3000 -20.2999 -20.2999 -20.2996 -20.2996
   -20.2932 -20.2932 -20.2930 -20.2930 -20.2924 -20.2924 -20.2923 -20.2923
   -20.2910 -20.2910 -20.2906 -20.2906 -20.2890 -20.2890 -20.2887 -20.2887
   -20.2886 -20.2886 -20.2883 -20.2883 -20.2870 -20.2870 -20.2865 -20.2865
    -9.4701  -9.4701  -9.1995  -9.1995  -9.1367  -9.1367  -8.7792  -8.7792
    -8.6700  -8.6700  -8.5970  -8.5970  -8.5451  -8.5451  -8.5118  -8.5118
    -8.1711  -8.1711  -8.1661  -8.1661  -7.7496  -7.7496  -7.7236  -7.7236
[...]
   -20.4371 -20.4371 -20.4369 -20.4369 -20.4367 -20.4367 -20.4363 -20.4363
   -20.4297 -20.4297 -20.4295 -20.4295 -20.4286 -20.4286 -20.4286 -20.4286
   -20.4284 -20.4284 -20.4281 -20.4281 -20.4253 -20.4253 -20.4250 -20.4250
   -20.4250 -20.4249 -20.4247 -20.4247 -20.4221 -20.4221 -20.4218 -20.4218
    -9.5876  -9.5876  -9.4381  -9.4381  -9.0611  -9.0611  -8.8452  -8.8452
    -8.7010  -8.7010  -8.6715  -8.6715  -8.6038  -8.6038  -8.5386  -8.5386
    -8.2526  -8.2526  -8.2230  -8.2230  -7.9202  -7.9202  -7.9072  -7.9072
     1.4406   1.4406   1.4515   1.4515   2.2441   2.2441   2.3522   2.3522
     2.8786   2.8786   2.9705   2.9705   2.9954   2.9954   3.1558   3.1558
     3.1912   3.1912   3.3265   3.3265   3.3495   3.3495   3.5870   3.5870
     3.9325   3.9325   3.9740   3.9740   4.0105   4.0105   4.2553   4.2554
     4.6104   4.6104   4.6896   4.6896   4.8669   4.8669   4.8838   4.8838
     4.9927   4.9927   5.3987   5.3987   5.7603   5.7603   5.7845   5.7845
     6.5657   6.5657   6.6795   6.6795   6.7234   6.7234   6.7534   6.7534
     6.9241   6.9241   6.9705   6.9705   7.0788   7.0788   7.4214   7.4214
     7.4520   7.4520   7.4789   7.4789   7.5131   7.5132   7.7412   7.7412
    10.6476  10.6476  11.0797  11.0797  11.1202  11.1202  11.6217  11.6217
    11.8352  11.8352  12.0177  12.0177  12.4299  12.4299  12.4735  12.4735
    12.6532  12.6532  12.7695  12.7695  13.1072  13.1072  13.5377  13.5377
    15.2379  15.2379  15.8268  15.8268  16.2693  16.2693  16.3670  16.3670
    16.8101  16.8101  17.2013  17.2014  17.7853

          k = 0.3316 0.4744 0.1658 ( 62658 PWs)   bands (ev):

   -66.2989 -66.2989 -66.2985 -66.2985 -66.2981 -66.2981 -66.2977 -66.2977
   -30.6543 -30.6542 -30.6524 -30.6522 -30.6511 -30.6510 -30.6490 -30.6490
   -30.6317 -30.6310 -30.6293 -30.6286 -30.6150 -30.6142 -30.6109 -30.6101
   -30.5672 -30.5663 -30.5633 -30.5624 -30.5487 -30.5477 -30.5465 -30.5456
   -20.4624 -20.4623 -20.4623 -20.4623 -20.4623 -20.4623 -20.4622 -20.4622
   -20.4399 -20.4399 -20.4397 -20.4397 -20.4396 -20.4396 -20.4394 -20.4394
   -20.4380 -20.4380 -20.4378 -20.4378 -20.4377 -20.4376 -20.4376 -20.4374
   -20.4371 -20.4369 -20.4369 -20.4368 -20.4367 -20.4365 -20.4365 -20.4364
   -20.4298 -20.4297 -20.4296 -20.4295 -20.4291 -20.4290 -20.4286 -20.4284
   -20.4282 -20.4281 -20.4281 -20.4279 -20.4268 -20.4267 -20.4266 -20.4265
   -20.4235 -20.4234 -20.4231 -20.4230 -20.4222 -20.4220 -20.4219 -20.4218
    -9.6279  -9.6271  -9.4143  -9.4121  -9.1317  -9.1296  -8.9449  -8.9442
    -8.6653  -8.6646  -8.5862  -8.5849  -8.5472  -8.5464  -8.5379  -8.5376
    -8.2655  -8.2634  -8.1854  -8.1834  -7.9454  -7.9432  -7.8848  -7.8826
     1.4331   1.4350   1.4431   1.4452   2.1128   2.1145   2.2746   2.2765
     2.8047   2.8079   3.0975   3.1078   3.1221   3.1343   3.1376   3.1403
     3.1763   3.2025   3.3264   3.3557   3.3792   3.3992   3.5448   3.5571
     3.6358   3.6493   3.7802   3.8405   4.3228   4.3618   4.4671   4.4879
     4.5227   4.6010   4.6523   4.6774   4.8398   4.8747   4.8855   4.9203
     5.0088   5.0634   5.2258   5.2973   5.6669   5.6837   6.0552   6.0609
     6.5157   6.5193   6.5914   6.6070   6.7434   6.7493   6.9179   6.9657
     6.9704   6.9921   7.0653   7.0877   7.1191   7.1242   7.3453   7.3484
     7.3694   7.3761   7.3946   7.4005   7.4194   7.4285   7.7130   7.7145
    10.3444  10.3474  11.2194  11.2327  11.2529  11.2639  11.5886  11.6007
    11.6100  11.6311  11.7504  11.8007  12.3167  12.3689  12.6347  12.6673
    12.7541  12.7833  12.9563  13.0514  13.2407  13.2678  13.2885  13.3504
    15.5063  15.5210  15.7323  15.7472  16.1548  16.1765  16.5448  16.5699
    16.7669  16.7701  17.2930  17.3342  17.7590

          k =-0.4973 0.4744 0.1658 ( 62668 PWs)   bands (ev):

   -66.2987 -66.2987 -66.2987 -66.2987 -66.2979 -66.2979 -66.2979 -66.2979
   -30.6535 -30.6535 -30.6532 -30.6532 -30.6501 -30.6501 -30.6501 -30.6501
   -30.6305 -30.6305 -30.6298 -30.6298 -30.5911 -30.5911 -30.5902 -30.5902
   -30.5871 -30.5871 -30.5862 -30.5862 -30.5476 -30.5476 -30.5467 -30.5467
   -20.4623 -20.4623 -20.4623 -20.4623 -20.4623 -20.4623 -20.4622 -20.4622
   -20.4398 -20.4398 -20.4398 -20.4398 -20.4395 -20.4395 -20.4395 -20.4395
   -20.4379 -20.4379 -20.4378 -20.4378 -20.4375 -20.4375 -20.4373 -20.4373
   -20.4372 -20.4372 -20.4370 -20.4370 -20.4366 -20.4366 -20.4364 -20.4364
   -20.4297 -20.4297 -20.4296 -20.4296 -20.4286 -20.4286 -20.4286 -20.4286
   -20.4284 -20.4284 -20.4281 -20.4281 -20.4252 -20.4252 -20.4251 -20.4251
   -20.4249 -20.4249 -20.4248 -20.4248 -20.4221 -20.4221 -20.4219 -20.4219
    -9.4983  -9.4983  -9.4966  -9.4966  -8.8306  -8.8305  -8.8277  -8.8277
    -8.7139  -8.7139  -8.7099  -8.7099  -8.5063  -8.5063  -8.5011  -8.5011
    -8.4536  -8.4536  -8.4494  -8.4494  -7.9150  -7.9150  -7.9129  -7.9129
     1.4481   1.4481   1.4504   1.4504   2.9066   2.9066   2.9176   2.9176
     3.0264   3.0264   3.0454   3.0454   3.1203   3.1203   3.1700   3.1700
     3.1830   3.1830   3.2682   3.2682   3.3750   3.3750   3.3951   3.3951
     3.5074   3.5074   3.5348   3.5348   4.1770   4.1770   4.1871   4.1871
     4.2704   4.2704   4.2810   4.2810   4.7434   4.7435   4.8911   4.8911
     5.0298   5.0299   5.1679   5.1679   5.7621   5.7621   5.7747   5.7747
     6.6463   6.6463   6.6817   6.6817   6.7473   6.7473   6.7841   6.7841
     7.1888   7.1888   7.2250   7.2250   7.2600   7.2600   7.2988   7.2988
     7.3531   7.3531   7.3866   7.3866   7.5056   7.5056   7.5336   7.5336
    11.0544  11.0544  11.0849  11.0849  11.2432  11.2432  11.2979  11.2979
    12.1193  12.1193  12.1444  12.1444  12.1514  12.1514  12.1615  12.1615
    12.6272  12.6272  12.6956  12.6956  13.2552  13.2552  13.3017  13.3017
    15.6356  15.6356  15.6527  15.6527  16.8067  16.8067  16.8175  16.8176
    17.2849  17.2849  17.3045  17.3045  17.3926

          k =-0.4973 0.0000 0.3316 ( 62736 PWs)   bands (ev):

   -66.2987 -66.2987 -66.2983 -66.2983 -66.2983 -66.2983 -66.2979 -66.2979
   -30.6830 -30.6830 -30.6811 -30.6811 -30.6251 -30.6251 -30.6211 -30.6211
   -30.6126 -30.6126 -30.6103 -30.6103 -30.5907 -30.5907 -30.5886 -30.5886
   -30.5883 -30.5883 -30.5861 -30.5861 -30.5660 -30.5660 -30.5631 -30.5631
   -20.4624 -20.4624 -20.4623 -20.4623 -20.4623 -20.4623 -20.4622 -20.4622
   -20.4426 -20.4426 -20.4424 -20.4424 -20.4379 -20.4379 -20.4377 -20.4377
   -20.4376 -20.4376 -20.4375 -20.4375 -20.4372 -20.4372 -20.4372 -20.4372
   -20.4371 -20.4371 -20.4366 -20.4366 -20.4365 -20.4365 -20.4362 -20.4362
   -20.4295 -20.4295 -20.4293 -20.4293 -20.4288 -20.4288 -20.4288 -20.4288
   -20.4272 -20.4272 -20.4268 -20.4268 -20.4254 -20.4254 -20.4251 -20.4251
   -20.4249 -20.4249 -20.4246 -20.4246 -20.4235 -20.4235 -20.4230 -20.4230
    -9.5783  -9.5783  -9.3627  -9.3627  -9.1630  -9.1630  -8.8752  -8.8752
    -8.7144  -8.7144  -8.6452  -8.6452  -8.5951  -8.5950  -8.5699  -8.5699
    -8.2302  -8.2302  -8.2217  -8.2217  -7.8982  -7.8982  -7.8739  -7.8739
     1.3602   1.3602   1.3977   1.3977   2.1561   2.1561   2.1868   2.1868
     2.8206   2.8206   2.9168   2.9168   2.9570   2.9570   3.1018   3.1018
     3.2002   3.2002   3.4996   3.4996   3.6078   3.6078   3.7305   3.7305
     3.7427   3.7427   3.9179   3.9179   4.0569   4.0570   4.2549   4.2549
     4.5960   4.5960   4.8138   4.8138   4.9116   4.9116   4.9821   4.9821
     5.1465   5.1465   5.4270   5.4270   5.8317   5.8317   5.9150   5.9150
     6.3036   6.3036   6.3206   6.3206   6.3860   6.3860   6.4820   6.4820
     7.0519   7.0519   7.1899   7.1900   7.2697   7.2697   7.4631   7.4631
     7.4825   7.4825   7.5874   7.5874   7.6408   7.6409   7.8905   7.8905
    10.6756  10.6756  11.2829  11.2829  11.3585  11.3585  11.4665  11.4665
    11.6442  11.6442  12.1135  12.1135  12.2834  12.2834  12.4729  12.4729
    12.7039  12.7039  13.0598  13.0598  13.0951  13.0951  13.5190  13.5190
    14.5602  14.5602  14.9430  14.9430  16.1717  16.1717  16.6529  16.6529
    16.9989  16.9989  17.3559  17.3559  17.8292

          k =-0.4973-0.1581 0.3316 ( 62716 PWs)   bands (ev):

   -66.2987 -66.2987 -66.2983 -66.2983 -66.2982 -66.2982 -66.2979 -66.2979
   -30.6790 -30.6790 -30.6771 -30.6771 -30.6283 -30.6283 -30.6250 -30.6250
   -30.6129 -30.6129 -30.6108 -30.6108 -30.5907 -30.5907 -30.5887 -30.5887
   -30.5884 -30.5884 -30.5863 -30.5863 -30.5659 -30.5659 -30.5633 -30.5633
   -20.4623 -20.4623 -20.4623 -20.4623 -20.4623 -20.4623 -20.4622 -20.4622
   -20.4422 -20.4422 -20.4421 -20.4421 -20.4379 -20.4379 -20.4377 -20.4377
   -20.4376 -20.4376 -20.4376 -20.4376 -20.4374 -20.4374 -20.4372 -20.4372
   -20.4371 -20.4371 -20.4367 -20.4367 -20.4367 -20.4367 -20.4364 -20.4364
   -20.4295 -20.4295 -20.4294 -20.4294 -20.4288 -20.4288 -20.4288 -20.4288
   -20.4272 -20.4272 -20.4268 -20.4268 -20.4254 -20.4254 -20.4250 -20.4250
   -20.4249 -20.4249 -20.4246 -20.4246 -20.4235 -20.4235 -20.4230 -20.4230
    -9.5281  -9.5281  -9.2941  -9.2941  -9.1735  -9.1735  -8.8509  -8.8509
    -8.7230  -8.7230  -8.6428  -8.6427  -8.5932  -8.5932  -8.5666  -8.5665
    -8.2290  -8.2290  -8.2265  -8.2265  -7.9967  -7.9967  -7.9725  -7.9725
     1.5938   1.5938   1.6321   1.6321   2.1554   2.1554   2.1962   2.1962
     2.8746   2.8746   2.9459   2.9459   2.9776   2.9776   3.1100   3.1100
     3.2010   3.2010   3.5171   3.5171   3.6064   3.6064   3.7374   3.7374
     3.7779   3.7779   3.9491   3.9491   4.0555   4.0555   4.2628   4.2628
     4.4663   4.4663   4.5879   4.5879   4.8614   4.8614   4.9100   4.9100
     4.9548   4.9548   5.2051   5.2051   5.6002   5.6002   5.6917   5.6917
     6.4415   6.4415   6.4761   6.4761   6.5354   6.5354   6.6594   6.6594
     7.0562   7.0562   7.1816   7.1816   7.2709   7.2709   7.4572   7.4572
     7.4770   7.4770   7.5619   7.5619   7.6120   7.6120   7.8367   7.8367
    10.7855  10.7855  11.3002  11.3002  11.3735  11.3735  11.5273  11.5273
    11.6963  11.6963  12.1363  12.1363  12.2803  12.2803  12.4900  12.4900
    12.5674  12.5674  12.9355  12.9355  12.9710  12.9710  13.4089  13.4089
    14.9351  14.9351  15.3352  15.3352  16.2568  16.2568  16.6524  16.6524
    17.0042  17.0042  17.3730  17.3730  17.6780

          k =-0.4973-0.3162 0.3316 ( 62698 PWs)   bands (ev):

   -66.2986 -66.2986 -66.2984 -66.2984 -66.2982 -66.2982 -66.2980 -66.2980
   -30.6680 -30.6680 -30.6660 -30.6660 -30.6383 -30.6383 -30.6359 -30.6359
   -30.6131 -30.6131 -30.6116 -30.6116 -30.5905 -30.5905 -30.5891 -30.5891
   -30.5882 -30.5882 -30.5867 -30.5867 -30.5655 -30.5655 -30.5638 -30.5638
   -20.4623 -20.4623 -20.4623 -20.4623 -20.4623 -20.4623 -20.4623 -20.4623
   -20.4412 -20.4412 -20.4410 -20.4410 -20.4385 -20.4385 -20.4382 -20.4382
   -20.4378 -20.4378 -20.4375 -20.4375 -20.4374 -20.4374 -20.4373 -20.4373
   -20.4371 -20.4371 -20.4370 -20.4370 -20.4369 -20.4369 -20.4365 -20.4365
   -20.4295 -20.4295 -20.4294 -20.4294 -20.4288 -20.4288 -20.4288 -20.4288
   -20.4271 -20.4271 -20.4269 -20.4269 -20.4253 -20.4253 -20.4250 -20.4250
   -20.4250 -20.4250 -20.4247 -20.4247 -20.4234 -20.4234 -20.4231 -20.4231
    -9.4062  -9.4062  -9.2096  -9.2096  -9.1086  -9.1086  -8.7805  -8.7805
    -8.7481  -8.7481  -8.6387  -8.6386  -8.5821  -8.5821  -8.5472  -8.5472
    -8.2800  -8.2800  -8.2408  -8.2408  -8.2201  -8.2201  -8.1688  -8.1688
     2.0754   2.0754   2.1517   2.1517   2.2510   2.2510   2.3750   2.3750
     2.9531   2.9531   2.9983   2.9983   3.0751   3.0751   3.1467   3.1467
     3.2312   3.2312   3.5135   3.5135   3.5966   3.5966   3.6847   3.6847
     3.9295   3.9295   3.9669   3.9670   4.0116   4.0116   4.1205   4.1205
     4.2072   4.2072   4.3455   4.3455   4.4788   4.4788   4.7214   4.7214
     4.8348   4.8348   4.8808   4.8808   4.9280   4.9280   5.1864   5.1864
     6.7661   6.7661   6.8222   6.8222   6.8796   6.8796   6.9379   6.9379
     7.0660   7.0660   7.1629   7.1629   7.2854   7.2854   7.4068   7.4068
     7.4441   7.4441   7.5089   7.5089   7.5373   7.5373   7.6803   7.6803
    11.0824  11.0825  11.3276  11.3276  11.4049  11.4049  11.7099  11.7099
    11.8735  11.8735  12.1590  12.1590  12.2171  12.2171  12.2619  12.2619
    12.5420  12.5420  12.6396  12.6396  12.7081  12.7081  13.1404  13.1404
    15.7901  15.7901  16.2940  16.2940  16.5197  16.5197  16.6241  16.6241
    17.0395  17.0395  17.2762  17.2762  17.5250

          k =-0.4973 0.4744 0.3316 ( 62652 PWs)   bands (ev):

   -66.2985 -66.2985 -66.2985 -66.2985 -66.2981 -66.2981 -66.2981 -66.2981
   -30.6530 -30.6530 -30.6529 -30.6529 -30.6510 -30.6510 -30.6509 -30.6509
   -30.6129 -30.6129 -30.6121 -30.6121 -30.5903 -30.5903 -30.5894 -30.5894
   -30.5880 -30.5880 -30.5871 -30.5871 -30.5651 -30.5651 -30.5642 -30.5642
   -20.4623 -20.4623 -20.4623 -20.4623 -20.4623 -20.4623 -20.4623 -20.4623
   -20.4398 -20.4398 -20.4398 -20.4398 -20.4396 -20.4396 -20.4396 -20.4396
   -20.4377 -20.4377 -20.4375 -20.4375 -20.4374 -20.4374 -20.4373 -20.4373
   -20.4372 -20.4372 -20.4371 -20.4371 -20.4368 -20.4368 -20.4367 -20.4367
   -20.4294 -20.4294 -20.4294 -20.4294 -20.4288 -20.4288 -20.4288 -20.4288
   -20.4271 -20.4271 -20.4269 -20.4269 -20.4253 -20.4253 -20.4251 -20.4251
   -20.4249 -20.4249 -20.4248 -20.4248 -20.4233 -20.4233 -20.4232 -20.4232
    -9.2853  -9.2853  -9.2839  -9.2839  -8.8900  -8.8900  -8.8878  -8.8878
    -8.6580  -8.6580  -8.6546  -8.6546  -8.5006  -8.5006  -8.4950  -8.4950
    -8.4599  -8.4599  -8.4551  -8.4551  -8.2139  -8.2139  -8.2117  -8.2117
     2.1422   2.1422   2.1451   2.1451   2.9080   2.9080   2.9159   2.9159
     3.0159   3.0159   3.0242   3.0242   3.1715   3.1715   3.1943   3.1943
     3.2586   3.2587   3.2820   3.2820   3.5404   3.5404   3.5504   3.5504
     3.6642   3.6642   3.6961   3.6961   4.1372   4.1372   4.1622   4.1622
     4.2059   4.2059   4.2622   4.2622   4.3297   4.3297   4.4218   4.4218
     4.5399   4.5399   4.6783   4.6783   4.9432   4.9432   4.9577   4.9577
     6.9378   6.9378   6.9607   6.9607   7.0792   7.0792   7.0812   7.0812
     7.1881   7.1881   7.2252   7.2252   7.2340   7.2340   7.3093   7.3093
     7.3811   7.3811   7.4391   7.4391   7.5199   7.5199   7.5417   7.5417
    11.2940  11.2940  11.3299  11.3299  11.5921  11.5921  11.6621  11.6621
    12.0578  12.0578  12.1127  12.1127  12.1646  12.1646  12.1700  12.1700
    12.3407  12.3407  12.4522  12.4522  12.8055  12.8055  12.8836  12.8836
    16.4048  16.4048  16.4472  16.4472  16.9761  16.9761  16.9802  16.9802
    17.2710  17.2711  17.3313  17.3313  17.3627

     the Fermi energy is     8.9666 ev

!    total energy              =   -6261.10829324 Ry
     Harris-Foulkes estimate   =   -6261.10829324 Ry
     estimated scf accuracy    <          3.4E-11 Ry

     The total energy is the sum of the following terms:

     one-electron contribution =   -4750.16134185 Ry
     hartree contribution      =    2610.21196458 Ry
     xc contribution           =    -965.66905897 Ry
     ewald contribution        =   -3155.48985700 Ry
     smearing contrib. (-TS)   =      -0.00000000 Ry

     convergence has been achieved in  16 iterations

     Forces acting on atoms (cartesian axes, Ry/au):

     atom    1 type  1   force =    -0.00119989    0.00572162   -0.00071689
     atom    2 type  1   force =    -0.00037043   -0.00572813   -0.00134752
     atom    3 type  1   force =     0.00119989   -0.00572162   -0.00071689
     atom    4 type  1   force =     0.00037043    0.00572813   -0.00134752
     atom    5 type  1   force =     0.00119989    0.00572162    0.00071689
     atom    6 type  1   force =     0.00037043   -0.00572813    0.00134752
     atom    7 type  1   force =    -0.00119989   -0.00572162    0.00071689
     atom    8 type  1   force =    -0.00037043    0.00572813    0.00134752
     atom    9 type  2   force =    -0.00005722   -0.00288484   -0.00008134
     atom   10 type  2   force =     0.00001841    0.00288454   -0.00010160
     atom   11 type  2   force =     0.00005722    0.00288484   -0.00008134
     atom   12 type  2   force =    -0.00001841   -0.00288454   -0.00010160
     atom   13 type  2   force =     0.00005722   -0.00288484    0.00008134
     atom   14 type  2   force =    -0.00001841    0.00288454    0.00010160
     atom   15 type  2   force =    -0.00005722    0.00288484    0.00008134
     atom   16 type  2   force =     0.00001841   -0.00288454    0.00010160
     atom   17 type  2   force =    -0.00073828   -0.00019747   -0.00094847
     atom   18 type  2   force =    -0.00032136   -0.00016494    0.00094295
     atom   19 type  2   force =     0.00073828    0.00019747   -0.00094847
     atom   20 type  2   force =     0.00032136    0.00016494    0.00094295
     atom   21 type  2   force =     0.00073828   -0.00019747    0.00094847
     atom   22 type  2   force =     0.00032136   -0.00016494   -0.00094295
     atom   23 type  2   force =    -0.00073828    0.00019747    0.00094847
     atom   24 type  2   force =    -0.00032136    0.00016494   -0.00094295
     atom   25 type  2   force =    -0.00090864   -0.00003557   -0.00031314
     atom   26 type  2   force =     0.00091443    0.00011924   -0.00073625
     atom   27 type  2   force =     0.00090864    0.00003557   -0.00031314
     atom   28 type  2   force =    -0.00091443   -0.00011924   -0.00073625
     atom   29 type  2   force =     0.00090864   -0.00003557    0.00031314
     atom   30 type  2   force =    -0.00091443    0.00011924    0.00073625
     atom   31 type  2   force =    -0.00090864    0.00003557    0.00031314
     atom   32 type  2   force =     0.00091443   -0.00011924    0.00073625

     Total force =     0.000000     Total SCF correction =     0.000000


     Computing stress (Cartesian axis) and pressure

          total   stress  (Ry/bohr**3)                   (kbar)     P=    0.18
   0.00000185   0.00000000   0.00000000          0.27      0.00      0.00
   0.00000000  -0.00000005   0.00000000          0.00     -0.01      0.00
   0.00000000   0.00000000   0.00000185          0.00      0.00      0.27


     Writing output data file Landau_3.save
 
     init_run     :     71.39s CPU     74.46s WALL (       2 calls)
     electrons    :   8034.72s CPU   8253.03s WALL (       6 calls)
     update_pot   :     76.64s CPU     76.94s WALL (       4 calls)
     forces       :    125.62s CPU    127.96s WALL (       6 calls)
     stress       :   1217.28s CPU   1236.37s WALL (       6 calls)

     Called by init_run:
     wfcinit      :     53.81s CPU     56.58s WALL (       2 calls)
     potinit      :      8.04s CPU      8.12s WALL (       2 calls)

     Called by electrons:
     c_bands      :   6989.64s CPU   7195.41s WALL (      86 calls)
     sum_band     :    991.36s CPU    998.57s WALL (      86 calls)
     v_of_rho     :      7.99s CPU      8.15s WALL (      91 calls)
     mix_rho      :     18.47s CPU     22.10s WALL (      86 calls)

     Called by c_bands:
     init_us_2    :     78.62s CPU     81.90s WALL (     372 calls)
     cegterg      :   5759.44s CPU   5955.40s WALL (     172 calls)

     Called by sum_band:

     Called by *egterg:
     h_psi        :   4613.69s CPU   4641.90s WALL (     675 calls)
     g_psi        :     11.63s CPU     11.76s WALL (     499 calls)
     cdiaghg      :     69.68s CPU     69.99s WALL (     661 calls)

     Called by h_psi:
     h_psi:pot    :   4578.73s CPU   4605.71s WALL (     675 calls)
     h_psi:calbec :    408.90s CPU    421.27s WALL (     675 calls)
     vloc_psi     :   3710.93s CPU   3723.12s WALL (     675 calls)
     add_vuspsi   :    458.89s CPU    461.32s WALL (     675 calls)

     General routines
     calbec       :    467.19s CPU    479.72s WALL (     735 calls)
     fft          :      6.47s CPU      6.50s WALL (     412 calls)
     fftw         :   3743.56s CPU   3754.01s WALL (  221990 calls)
 
     Parallel routines
 
     PWSCF        :     2h40m CPU        2h44m WALL

 
   This run was terminated on:   1:46: 7  24Mar2020            

=------------------------------------------------------------------------------=
   JOB DONE.
=------------------------------------------------------------------------------=
