
     Program PWSCF v.6.2 (svn rev. 14038) starts on 25Mar2020 at 22:28:40 

     This program is part of the open-source Quantum ESPRESSO suite
     for quantum simulation of materials; please cite
         "P. Giannozzi et al., J. Phys.:Condens. Matter 21 395502 (2009);
         "P. Giannozzi et al., J. Phys.:Condens. Matter 29 465901 (2017);
          URL http://www.quantum-espresso.org", 
     in publications or presentations arising from this work. More details at
     http://www.quantum-espresso.org/quote

     Parallel version (MPI), running on    40 processors

     MPI processes distributed on     9 nodes
     K-points division:     npool     =      40
     Reading input from scf.in

     Current dimensions of program PWSCF are:
     Max number of different atomic species (ntypx) = 10
     Max number of k-points (npk) =  40000
     Max angular momentum in pseudopotentials (lmaxx) =  3

     Subspace diagonalization in iterative solution of the eigenvalue problem:
     a serial algorithm will be used

 
     G-vector sticks info
     --------------------
     sticks:   dense  smooth     PW     G-vecs:    dense   smooth      PW
     Sum        7741    7741   2079               498945   498945   69149
 


     bravais-lattice index     =            0
     lattice parameter (alat)  =      13.8732  a.u.
     unit-cell volume          =    2809.3449 (a.u.)^3
     number of atoms/cell      =           32
     number of atomic types    =            2
     number of electrons       =       369.00
     number of Kohn-Sham states=          222
     kinetic-energy cutoff     =     120.0000  Ry
     charge density cutoff     =     480.0000  Ry
     convergence threshold     =      1.0E-08
     mixing beta               =       0.7000
     number of iterations used =            8  plain     mixing
     Exchange-correlation      = SLA PW NOGX NOGC ( 1  4  0  0 0 0)

     celldm(1)=  13.873244  celldm(2)=   0.000000  celldm(3)=   0.000000
     celldm(4)=   0.000000  celldm(5)=   0.000000  celldm(6)=   0.000000

     crystal axes: (cart. coord. in units of alat)
               a(1) = (   1.000000   0.000000   0.000000 )  
               a(2) = (   0.000000   1.051909   0.000000 )  
               a(3) = (   0.000000   0.000000   1.000214 )  

     reciprocal axes: (cart. coord. in units 2 pi/alat)
               b(1) = (  1.000000  0.000000  0.000000 )  
               b(2) = (  0.000000  0.950653  0.000000 )  
               b(3) = (  0.000000  0.000000  0.999786 )  


     PseudoPot. # 1 for W  read from file:
     /cluster/scratch/mnoe/QE/pps/W_ONCV_LDA-4.0.upf
     MD5 check sum: ba0307d5d4cd419d6f1d13dc49d7c13a
     Pseudo is Norm-conserving + core correction, Zval = 28.0
     Generated using ONCVPSP code by D. R. Hamann
     Using radial grid of 1380 points,  8 beta functions with: 
                l(1) =   0
                l(2) =   0
                l(3) =   1
                l(4) =   1
                l(5) =   2
                l(6) =   2
                l(7) =   3
                l(8) =   3

     PseudoPot. # 2 for O  read from file:
     /cluster/scratch/mnoe/QE/pps/O_ONCV_LDA-3.0.upf
     MD5 check sum: a1bd6164e7280c17a38c229939bfbd54
     Pseudo is Norm-conserving + core correction, Zval =  6.0
     Generated using ONCVPSP code by D. R. Hamann
     Using radial grid of  926 points,  5 beta functions with: 
                l(1) =   0
                l(2) =   0
                l(3) =   1
                l(4) =   1
                l(5) =   2

     atomic species   valence    mass     pseudopotential
        W             28.00   183.84000     W ( 1.00)
        O              6.00    15.99940     O ( 1.00)

      4 Sym. Ops. (no inversion) found ( 3 have fractional translation)



   Cartesian axes

     site n.     atom                  positions (alat units)
         1           W   tau(   1) = (   0.2421031   0.2954497   0.0009029  )
         2           W   tau(   2) = (   0.7513531   0.7564590  -0.0078340  )
         3           W   tau(   3) = (   0.2578969   0.2305047   0.5010099  )
         4           W   tau(   4) = (   0.7486469   0.8214040   0.4922730  )
         5           W   tau(   5) = (   0.7578969   0.2954497   0.4992041  )
         6           W   tau(   6) = (   0.2486469   0.7564590   0.5079410  )
         7           W   tau(   7) = (   0.7421031   0.2305047  -0.0009029  )
         8           W   tau(   8) = (   0.2513531   0.8214040   0.0078340  )
         9           O   tau(   9) = (   0.2404505   0.0084682  -0.0050357  )
        10           O   tau(  10) = (   0.7575155  -0.0084682  -0.0077513  )
        11           O   tau(  11) = (   0.2595495   0.5174861   0.4950713  )
        12           O   tau(  12) = (   0.7424845   0.5344225   0.4923557  )
        13           O   tau(  13) = (   0.7595495   0.0084682   0.5051427  )
        14           O   tau(  14) = (   0.2424845  -0.0084682   0.5078583  )
        15           O   tau(  15) = (   0.7404505   0.5174861   0.0050357  )
        16           O   tau(  16) = (   0.2575155   0.5344225   0.0077513  )
        17           O   tau(  17) = (   0.5027015   0.2522652   0.4520573  )
        18           O   tau(  18) = (   0.5001715   0.7966332   0.5481567  )
        19           O   tau(  19) = (  -0.0027015   0.2736891   0.9521643  )
        20           O   tau(  20) = (  -0.0001715   0.7812298   0.0480497  )
        21           O   tau(  21) = (   0.4972985   0.2522652   0.0480497  )
        22           O   tau(  22) = (   0.4998285   0.7966332   0.9521643  )
        23           O   tau(  23) = (   0.0027015   0.2736891   0.5481567  )
        24           O   tau(  24) = (   0.0001715   0.7812298   0.4520573  )
        25           O   tau(  25) = (   0.7019606   0.2678653   0.7491904  )
        26           O   tau(  26) = (   0.2980394   0.7978380   0.2529193  )
        27           O   tau(  27) = (   0.7980394   0.2580890   0.2490835  )
        28           O   tau(  28) = (   0.2019606   0.7800251   0.7530263  )
        29           O   tau(  29) = (   0.2980394   0.2678653   0.7511305  )
        30           O   tau(  30) = (   0.7019606   0.7978380   0.2471877  )
        31           O   tau(  31) = (   0.2019606   0.2580890   0.2510235  )
        32           O   tau(  32) = (   0.7980394   0.7800251   0.7472947  )

     number of k points=    64  gaussian smearing, width (Ry)=  0.0007
                       cart. coord. in units 2pi/alat
        k(    1) = (   0.0000000   0.0000000   0.0000000), wk =   0.0092593
        k(    2) = (   0.0000000   0.0000000   0.1666310), wk =   0.0185185
        k(    3) = (   0.0000000   0.0000000   0.3332620), wk =   0.0185185
        k(    4) = (   0.0000000   0.0000000  -0.4998930), wk =   0.0092593
        k(    5) = (   0.0000000   0.1584421   0.0000000), wk =   0.0185185
        k(    6) = (   0.0000000   0.1584421   0.1666310), wk =   0.0370370
        k(    7) = (   0.0000000   0.1584421   0.3332620), wk =   0.0370370
        k(    8) = (   0.0000000   0.1584421  -0.4998930), wk =   0.0185185
        k(    9) = (   0.0000000   0.3168843   0.0000000), wk =   0.0185185
        k(   10) = (   0.0000000   0.3168843   0.1666310), wk =   0.0370370
        k(   11) = (   0.0000000   0.3168843   0.3332620), wk =   0.0370370
        k(   12) = (   0.0000000   0.3168843  -0.4998930), wk =   0.0185185
        k(   13) = (   0.0000000  -0.4753264   0.0000000), wk =   0.0092593
        k(   14) = (   0.0000000  -0.4753264   0.1666310), wk =   0.0185185
        k(   15) = (   0.0000000  -0.4753264   0.3332620), wk =   0.0185185
        k(   16) = (   0.0000000  -0.4753264  -0.4998930), wk =   0.0092593
        k(   17) = (   0.1666667   0.0000000   0.0000000), wk =   0.0185185
        k(   18) = (   0.1666667   0.0000000   0.1666310), wk =   0.0370370
        k(   19) = (   0.1666667   0.0000000   0.3332620), wk =   0.0370370
        k(   20) = (   0.1666667   0.0000000  -0.4998930), wk =   0.0185185
        k(   21) = (   0.1666667   0.1584421   0.0000000), wk =   0.0370370
        k(   22) = (   0.1666667   0.1584421   0.1666310), wk =   0.0740741
        k(   23) = (   0.1666667   0.1584421   0.3332620), wk =   0.0740741
        k(   24) = (   0.1666667   0.1584421  -0.4998930), wk =   0.0370370
        k(   25) = (   0.1666667   0.3168843   0.0000000), wk =   0.0370370
        k(   26) = (   0.1666667   0.3168843   0.1666310), wk =   0.0740741
        k(   27) = (   0.1666667   0.3168843   0.3332620), wk =   0.0740741
        k(   28) = (   0.1666667   0.3168843  -0.4998930), wk =   0.0370370
        k(   29) = (   0.1666667  -0.4753264   0.0000000), wk =   0.0185185
        k(   30) = (   0.1666667  -0.4753264   0.1666310), wk =   0.0370370
        k(   31) = (   0.1666667  -0.4753264   0.3332620), wk =   0.0370370
        k(   32) = (   0.1666667  -0.4753264  -0.4998930), wk =   0.0185185
        k(   33) = (   0.3333333   0.0000000   0.0000000), wk =   0.0185185
        k(   34) = (   0.3333333   0.0000000   0.1666310), wk =   0.0370370
        k(   35) = (   0.3333333   0.0000000   0.3332620), wk =   0.0370370
        k(   36) = (   0.3333333   0.0000000  -0.4998930), wk =   0.0185185
        k(   37) = (   0.3333333   0.1584421   0.0000000), wk =   0.0370370
        k(   38) = (   0.3333333   0.1584421   0.1666310), wk =   0.0740741
        k(   39) = (   0.3333333   0.1584421   0.3332620), wk =   0.0740741
        k(   40) = (   0.3333333   0.1584421  -0.4998930), wk =   0.0370370
        k(   41) = (   0.3333333   0.3168843   0.0000000), wk =   0.0370370
        k(   42) = (   0.3333333   0.3168843   0.1666310), wk =   0.0740741
        k(   43) = (   0.3333333   0.3168843   0.3332620), wk =   0.0740741
        k(   44) = (   0.3333333   0.3168843  -0.4998930), wk =   0.0370370
        k(   45) = (   0.3333333  -0.4753264   0.0000000), wk =   0.0185185
        k(   46) = (   0.3333333  -0.4753264   0.1666310), wk =   0.0370370
        k(   47) = (   0.3333333  -0.4753264   0.3332620), wk =   0.0370370
        k(   48) = (   0.3333333  -0.4753264  -0.4998930), wk =   0.0185185
        k(   49) = (  -0.5000000   0.0000000   0.0000000), wk =   0.0092593
        k(   50) = (  -0.5000000   0.0000000   0.1666310), wk =   0.0185185
        k(   51) = (  -0.5000000   0.0000000   0.3332620), wk =   0.0185185
        k(   52) = (  -0.5000000   0.0000000  -0.4998930), wk =   0.0092593
        k(   53) = (  -0.5000000   0.1584421   0.0000000), wk =   0.0185185
        k(   54) = (  -0.5000000   0.1584421   0.1666310), wk =   0.0370370
        k(   55) = (  -0.5000000   0.1584421   0.3332620), wk =   0.0370370
        k(   56) = (  -0.5000000   0.1584421  -0.4998930), wk =   0.0185185
        k(   57) = (  -0.5000000   0.3168843   0.0000000), wk =   0.0185185
        k(   58) = (  -0.5000000   0.3168843   0.1666310), wk =   0.0370370
        k(   59) = (  -0.5000000   0.3168843   0.3332620), wk =   0.0370370
        k(   60) = (  -0.5000000   0.3168843  -0.4998930), wk =   0.0185185
        k(   61) = (  -0.5000000  -0.4753264   0.0000000), wk =   0.0092593
        k(   62) = (  -0.5000000  -0.4753264   0.1666310), wk =   0.0185185
        k(   63) = (  -0.5000000  -0.4753264   0.3332620), wk =   0.0185185
        k(   64) = (  -0.5000000  -0.4753264  -0.4998930), wk =   0.0092593

     Dense  grid:   498945 G-vectors     FFT dimensions: ( 100, 108, 100)

     Estimated max dynamical RAM per process >       3.14 GB

     Estimated total dynamical RAM >     125.69 GB

     Initial potential from superposition of free atoms

     starting charge  367.99656, renormalised to  369.00000
     Starting wfc are  232 randomized atomic wfcs

     total cpu time spent up to now is       31.0 secs

     Self-consistent Calculation

     iteration #  1     ecut=   120.00 Ry     beta= 0.70
     Davidson diagonalization with overlap
     ethr =  1.00E-02,  avg # of iterations =  5.5

     total cpu time spent up to now is      132.1 secs

     total energy              =   -6253.08363250 Ry
     Harris-Foulkes estimate   =   -6264.05521393 Ry
     estimated scf accuracy    <      13.77489495 Ry

     iteration #  2     ecut=   120.00 Ry     beta= 0.70
     Davidson diagonalization with overlap
     ethr =  3.73E-03,  avg # of iterations =  3.6

     total cpu time spent up to now is      231.3 secs

     total energy              =   -6250.15933894 Ry
     Harris-Foulkes estimate   =   -6269.91595405 Ry
     estimated scf accuracy    <      52.14518137 Ry

     iteration #  3     ecut=   120.00 Ry     beta= 0.70
     Davidson diagonalization with overlap
     ethr =  3.73E-03,  avg # of iterations =  3.4

     total cpu time spent up to now is      324.1 secs

     total energy              =   -6260.38647442 Ry
     Harris-Foulkes estimate   =   -6260.64751990 Ry
     estimated scf accuracy    <       0.88915682 Ry

     iteration #  4     ecut=   120.00 Ry     beta= 0.70
     Davidson diagonalization with overlap
     ethr =  2.41E-04,  avg # of iterations =  3.6

     total cpu time spent up to now is      404.3 secs

     total energy              =   -6260.37377881 Ry
     Harris-Foulkes estimate   =   -6260.44908026 Ry
     estimated scf accuracy    <       0.23151895 Ry

     iteration #  5     ecut=   120.00 Ry     beta= 0.70
     Davidson diagonalization with overlap
     ethr =  6.27E-05,  avg # of iterations =  4.7

     total cpu time spent up to now is      488.9 secs

     total energy              =   -6260.37688538 Ry
     Harris-Foulkes estimate   =   -6260.40841936 Ry
     estimated scf accuracy    <       0.07123736 Ry

     iteration #  6     ecut=   120.00 Ry     beta= 0.70
     Davidson diagonalization with overlap
     ethr =  1.93E-05,  avg # of iterations =  6.7

     total cpu time spent up to now is      583.5 secs

     total energy              =   -6260.39333419 Ry
     Harris-Foulkes estimate   =   -6260.39551096 Ry
     estimated scf accuracy    <       0.01361894 Ry

     iteration #  7     ecut=   120.00 Ry     beta= 0.70
     Davidson diagonalization with overlap
     ethr =  3.69E-06,  avg # of iterations =  4.0

     total cpu time spent up to now is      668.0 secs

     total energy              =   -6260.39209743 Ry
     Harris-Foulkes estimate   =   -6260.39430787 Ry
     estimated scf accuracy    <       0.00579902 Ry

     iteration #  8     ecut=   120.00 Ry     beta= 0.70
     Davidson diagonalization with overlap
     ethr =  1.57E-06,  avg # of iterations =  5.2

     total cpu time spent up to now is      753.6 secs

     total energy              =   -6260.39293300 Ry
     Harris-Foulkes estimate   =   -6260.39298752 Ry
     estimated scf accuracy    <       0.00011271 Ry

     iteration #  9     ecut=   120.00 Ry     beta= 0.70
     Davidson diagonalization with overlap
     ethr =  3.05E-08,  avg # of iterations =  3.3

     total cpu time spent up to now is      851.0 secs

     total energy              =   -6260.39297443 Ry
     Harris-Foulkes estimate   =   -6260.39299162 Ry
     estimated scf accuracy    <       0.00006857 Ry

     iteration # 10     ecut=   120.00 Ry     beta= 0.70
     Davidson diagonalization with overlap
     ethr =  1.86E-08,  avg # of iterations =  2.0

     total cpu time spent up to now is      923.9 secs

     total energy              =   -6260.39297051 Ry
     Harris-Foulkes estimate   =   -6260.39298135 Ry
     estimated scf accuracy    <       0.00002868 Ry

     iteration # 11     ecut=   120.00 Ry     beta= 0.70
     Davidson diagonalization with overlap
     ethr =  7.77E-09,  avg # of iterations =  2.1

     total cpu time spent up to now is      997.3 secs

     total energy              =   -6260.39297495 Ry
     Harris-Foulkes estimate   =   -6260.39297557 Ry
     estimated scf accuracy    <       0.00000197 Ry

     iteration # 12     ecut=   120.00 Ry     beta= 0.70
     Davidson diagonalization with overlap
     ethr =  5.34E-10,  avg # of iterations =  2.3

     total cpu time spent up to now is     1086.6 secs

     total energy              =   -6260.39297533 Ry
     Harris-Foulkes estimate   =   -6260.39297546 Ry
     estimated scf accuracy    <       0.00000032 Ry

     iteration # 13     ecut=   120.00 Ry     beta= 0.70
     Davidson diagonalization with overlap
     ethr =  8.56E-11,  avg # of iterations =  2.4

     total cpu time spent up to now is     1168.1 secs

     total energy              =   -6260.39297537 Ry
     Harris-Foulkes estimate   =   -6260.39297540 Ry
     estimated scf accuracy    <       0.00000007 Ry

     iteration # 14     ecut=   120.00 Ry     beta= 0.70
     Davidson diagonalization with overlap
     ethr =  2.01E-11,  avg # of iterations =  2.0

     total cpu time spent up to now is     1246.6 secs

     End of self-consistent calculation

          k = 0.0000 0.0000 0.0000 ( 62303 PWs)   bands (ev):

   -65.9722 -65.9717 -65.9712 -65.9712 -65.9708 -65.9708 -65.9702 -65.9698
   -30.4365 -30.4325 -30.4325 -30.4286 -30.3766 -30.3720 -30.3718 -30.3676
   -30.3198 -30.3155 -30.3131 -30.3120 -30.3065 -30.3048 -30.3013 -30.3001
   -30.2196 -30.2184 -30.2163 -30.2143 -30.2069 -30.2058 -30.2024 -30.2009
   -20.1257 -20.1254 -20.1254 -20.1251 -20.1203 -20.1200 -20.1199 -20.1195
   -20.1149 -20.1146 -20.1145 -20.1144 -20.1139 -20.1138 -20.1138 -20.1136
   -20.1125 -20.1120 -20.1118 -20.1115 -20.1112 -20.1109 -20.1106 -20.1103
   -20.1093 -20.1091 -20.1088 -20.1087 -20.1080 -20.1079 -20.1077 -20.1075
   -20.0940 -20.0939 -20.0936 -20.0936 -20.0935 -20.0934 -20.0931 -20.0930
   -20.0537 -20.0536 -20.0530 -20.0529 -20.0522 -20.0519 -20.0516 -20.0514
   -20.0481 -20.0477 -20.0475 -20.0473 -20.0466 -20.0465 -20.0458 -20.0457
    -9.9151  -9.6105  -9.4897  -9.4895  -9.1850  -9.1829  -9.0967  -8.9825
    -8.9693  -8.8749  -8.8378  -8.8372  -7.8606  -7.7964  -7.7951  -7.7415
    -7.7274  -7.7229  -7.6933  -7.6838  -7.5847  -7.5834  -7.5495  -7.5486
     1.2874   1.2892   1.3484   1.3506   1.3827   1.3864   1.3975   1.6209
     1.6353   1.6380   1.7017   1.8936   2.4603   2.5423   2.5741   2.5889
     2.7303   2.7327   4.1907   4.1952   4.4158   4.4240   4.7950   4.8351
     4.8811   4.8847   4.9126   4.9128   5.0371   5.0371   5.1110   5.4414
     5.4468   5.5166   5.5268   5.5673   5.5680   5.6122   5.6199   5.8477
     5.8537   5.8845   5.8872   5.9125   5.9766   6.0830   6.0876   6.1752
     6.1763   6.2926   6.2981   6.5556   6.5571   6.8234   6.8302   6.8675
     6.8677   6.8722   7.0248   7.0381   7.0941   7.0978   7.3937   7.3986
     7.4532   7.4578   7.8686   7.8839   8.0784   8.0855   8.1344   8.1583
     9.4229   9.4255  10.0301  10.0367  10.0558  10.0582  12.3565  12.3567
    12.3995  12.4044  12.4796  12.4846  12.5810  12.6101  12.9455  13.0295
    13.2677  13.3535  13.4308  13.4364  13.8466  14.1448  14.1756  14.2185
    14.3022  14.5127  14.5404  14.8128  15.5145  15.5270  15.5745  16.1434
    16.1482  16.8881  17.1026  17.1087  17.3242  17.4083

          k = 0.0000 0.0000 0.1666 ( 62377 PWs)   bands (ev):

   -65.9721 -65.9717 -65.9713 -65.9711 -65.9708 -65.9707 -65.9703 -65.9698
   -30.4363 -30.4328 -30.4323 -30.4289 -30.3763 -30.3723 -30.3716 -30.3679
   -30.3176 -30.3124 -30.3109 -30.3067 -30.3049 -30.3004 -30.2995 -30.2946
   -30.2263 -30.2224 -30.2181 -30.2160 -30.2131 -30.2082 -30.2055 -30.2015
   -20.1257 -20.1254 -20.1254 -20.1251 -20.1203 -20.1200 -20.1200 -20.1196
   -20.1149 -20.1145 -20.1145 -20.1144 -20.1139 -20.1138 -20.1138 -20.1136
   -20.1124 -20.1118 -20.1118 -20.1114 -20.1111 -20.1108 -20.1106 -20.1103
   -20.1094 -20.1093 -20.1089 -20.1087 -20.1082 -20.1080 -20.1077 -20.1075
   -20.0940 -20.0939 -20.0936 -20.0935 -20.0935 -20.0934 -20.0932 -20.0931
   -20.0534 -20.0534 -20.0528 -20.0527 -20.0520 -20.0519 -20.0515 -20.0513
   -20.0485 -20.0479 -20.0476 -20.0472 -20.0470 -20.0467 -20.0461 -20.0459
    -9.8697  -9.5568  -9.5058  -9.4331  -9.1969  -9.1052  -9.0959  -8.9456
    -8.9284  -8.8598  -8.8417  -8.8028  -7.8728  -7.8361  -7.8221  -7.8001
    -7.7858  -7.7449  -7.7173  -7.7101  -7.6825  -7.6764  -7.5925  -7.5576
     1.3497   1.3518   1.3791   1.3919   1.4683   1.5020   1.6139   1.6331
     1.6368   1.7437   1.8749   2.0229   2.5461   2.5898   2.6330   2.6712
     2.7216   2.8221   4.1215   4.1932   4.4112   4.4130   4.4389   4.5268
     4.6542   4.7950   4.8055   4.9435   4.9517   5.0334   5.0939   5.3354
     5.3787   5.4342   5.5090   5.5554   5.5806   5.6267   5.6362   5.6547
     5.7747   5.7824   5.8378   5.9370   5.9945   6.1021   6.1461   6.1732
     6.3140   6.4394   6.5297   6.5445   6.6874   6.7202   6.7942   6.8228
     6.8636   6.8719   6.9788   7.0049   7.0483   7.1035   7.1905   7.2125
     7.2240   7.2968   7.8787   7.8839   8.0442   8.0952   8.1038   8.1475
     9.7530   9.7763  10.0382  10.0537  10.2945  10.3413  12.2955  12.3379
    12.3954  12.4250  12.4439  12.5137  12.5986  12.6929  12.9575  13.0164
    13.1303  13.3174  13.3628  13.4321  13.9323  14.0742  14.1125  14.1432
    14.3020  14.5350  14.6098  14.9227  15.5404  15.5484  15.5777  16.1201
    16.4545  16.8045  17.0586  17.2902  17.4122  17.4584

          k = 0.0000 0.0000 0.3333 ( 62364 PWs)   bands (ev):

   -65.9719 -65.9715 -65.9714 -65.9710 -65.9709 -65.9705 -65.9705 -65.9700
   -30.4357 -30.4337 -30.4317 -30.4297 -30.3754 -30.3731 -30.3709 -30.3687
   -30.3161 -30.3134 -30.3041 -30.3014 -30.2935 -30.2889 -30.2815 -30.2765
   -30.2445 -30.2403 -30.2321 -30.2277 -30.2172 -30.2146 -30.2047 -30.2024
   -20.1257 -20.1255 -20.1254 -20.1252 -20.1203 -20.1201 -20.1199 -20.1197
   -20.1148 -20.1146 -20.1143 -20.1143 -20.1139 -20.1139 -20.1138 -20.1137
   -20.1121 -20.1119 -20.1113 -20.1111 -20.1108 -20.1106 -20.1103 -20.1100
   -20.1099 -20.1098 -20.1092 -20.1088 -20.1087 -20.1083 -20.1077 -20.1076
   -20.0939 -20.0938 -20.0937 -20.0936 -20.0934 -20.0933 -20.0932 -20.0931
   -20.0531 -20.0526 -20.0523 -20.0523 -20.0518 -20.0518 -20.0509 -20.0503
   -20.0496 -20.0490 -20.0481 -20.0475 -20.0473 -20.0469 -20.0465 -20.0461
    -9.7599  -9.5559  -9.4329  -9.3045  -9.2396  -9.1335  -8.8932  -8.8538
    -8.8422  -8.7841  -8.7456  -8.6703  -8.1559  -8.1266  -8.0546  -8.0229
    -7.8334  -7.8103  -7.7780  -7.7541  -7.6873  -7.6520  -7.6175  -7.5824
     1.3549   1.3609   1.4065   1.4294   1.5675   1.5865   1.5988   1.6245
     2.3252   2.3639   2.5166   2.5958   2.6154   2.7127   2.7951   2.8974
     2.9141   3.0640   3.8017   3.8592   3.9107   4.0211   4.1662   4.3333
     4.3736   4.5516   4.5932   4.7700   4.7985   4.8562   4.9912   5.0376
     5.1803   5.2146   5.2620   5.3608   5.4739   5.5233   5.6376   5.6836
     5.7224   5.7574   5.8085   5.9944   6.0193   6.2110   6.2695   6.2918
     6.3582   6.3929   6.5137   6.5455   6.5779   6.5893   6.6661   6.7900
     6.8550   6.8808   6.8832   7.0217   7.0556   7.0808   7.1016   7.1694
     7.3259   7.3587   7.8049   7.8256   7.9191   7.9689   8.1287   8.1468
    10.0267  10.0474  10.4557  10.5345  10.9091  11.0136  11.9237  11.9824
    12.1543  12.5291  12.5714  12.6014  12.6295  12.6805  12.7852  12.9505
    13.0019  13.1972  13.2419  13.4439  13.7376  13.7701  14.1129  14.1389
    14.3893  14.5172  14.9112  15.2215  15.4306  15.6973  15.9538  16.0332
    16.2349  17.2947  17.4080  17.5986  17.5999  17.8573

          k = 0.0000 0.0000-0.4999 ( 62372 PWs)   bands (ev):

   -65.9717 -65.9717 -65.9713 -65.9713 -65.9707 -65.9707 -65.9703 -65.9703
   -30.4347 -30.4347 -30.4308 -30.4308 -30.3743 -30.3743 -30.3698 -30.3698
   -30.3147 -30.3147 -30.3027 -30.3027 -30.2691 -30.2691 -30.2647 -30.2647
   -30.2568 -30.2568 -30.2520 -30.2520 -30.2161 -30.2161 -30.2036 -30.2036
   -20.1256 -20.1256 -20.1253 -20.1253 -20.1202 -20.1202 -20.1198 -20.1198
   -20.1147 -20.1147 -20.1141 -20.1141 -20.1141 -20.1141 -20.1138 -20.1138
   -20.1119 -20.1119 -20.1107 -20.1107 -20.1105 -20.1105 -20.1105 -20.1105
   -20.1097 -20.1097 -20.1094 -20.1094 -20.1086 -20.1085 -20.1076 -20.1076
   -20.0938 -20.0938 -20.0937 -20.0937 -20.0933 -20.0933 -20.0932 -20.0932
   -20.0527 -20.0527 -20.0522 -20.0522 -20.0510 -20.0510 -20.0504 -20.0504
   -20.0495 -20.0495 -20.0489 -20.0489 -20.0469 -20.0469 -20.0465 -20.0465
    -9.6427  -9.6427  -9.3161  -9.3161  -9.1940  -9.1940  -8.8707  -8.8707
    -8.5096  -8.5096  -8.4779  -8.4779  -8.4654  -8.4654  -8.3944  -8.3944
    -7.8236  -7.8236  -7.7665  -7.7665  -7.6521  -7.6521  -7.6168  -7.6168
     1.3587   1.3587   1.4240   1.4240   1.5837   1.5837   1.6156   1.6156
     2.6487   2.6487   3.0342   3.0342   3.1713   3.1713   3.1882   3.1882
     3.3274   3.3274   3.3934   3.3934   3.5369   3.5370   3.8163   3.8163
     3.8938   3.8938   4.4893   4.4893   4.7250   4.7250   4.9464   4.9464
     5.2515   5.2515   5.3669   5.3669   5.3830   5.3830   5.6816   5.6816
     5.7639   5.7639   5.9463   5.9463   6.1790   6.1790   6.2670   6.2670
     6.3527   6.3527   6.4447   6.4447   6.4902   6.4902   6.5802   6.5802
     6.8148   6.8148   6.8593   6.8593   7.0804   7.0804   7.5261   7.5261
     7.5919   7.5919   7.6936   7.6936   7.7205   7.7205   8.1439   8.1439
    10.0378  10.0378  11.2436  11.2436  11.3239  11.3239  11.6108  11.6108
    11.8083  11.8083  12.6408  12.6408  12.7955  12.7955  12.9084  12.9084
    12.9874  12.9874  13.3365  13.3365  13.5106  13.5106  14.1330  14.1330
    14.4782  14.4782  15.2238  15.2238  15.6680  15.6680  15.8923  15.8923
    16.6971  16.6971  17.7795  17.7795  18.0056  18.1151

          k = 0.0000 0.1584 0.0000 ( 62323 PWs)   bands (ev):

   -65.9721 -65.9718 -65.9712 -65.9712 -65.9708 -65.9708 -65.9702 -65.9698
   -30.4325 -30.4285 -30.4284 -30.4245 -30.3805 -30.3760 -30.3758 -30.3717
   -30.3196 -30.3159 -30.3131 -30.3121 -30.3065 -30.3049 -30.3014 -30.3002
   -30.2196 -30.2183 -30.2161 -30.2144 -30.2069 -30.2058 -30.2023 -30.2010
   -20.1254 -20.1250 -20.1250 -20.1247 -20.1207 -20.1203 -20.1203 -20.1199
   -20.1149 -20.1146 -20.1145 -20.1145 -20.1139 -20.1138 -20.1138 -20.1136
   -20.1125 -20.1120 -20.1117 -20.1115 -20.1112 -20.1109 -20.1106 -20.1104
   -20.1092 -20.1091 -20.1088 -20.1087 -20.1081 -20.1080 -20.1078 -20.1076
   -20.0940 -20.0939 -20.0936 -20.0936 -20.0935 -20.0935 -20.0931 -20.0931
   -20.0537 -20.0536 -20.0530 -20.0529 -20.0522 -20.0519 -20.0516 -20.0514
   -20.0481 -20.0477 -20.0475 -20.0473 -20.0466 -20.0465 -20.0458 -20.0457
    -9.8837  -9.6225  -9.4496  -9.4492  -9.1926  -9.1906  -9.0218  -8.9815
    -8.9700  -8.8301  -8.8020  -8.8016  -7.9546  -7.8972  -7.8961  -7.8502
    -7.7285  -7.7221  -7.6943  -7.6854  -7.5842  -7.5830  -7.5506  -7.5496
     1.2876   1.2890   1.3614   1.3646   1.3854   1.3890   1.5399   1.7010
     1.8076   1.8623   1.8645   2.0479   2.4657   2.5366   2.6467   2.6628
     2.7998   2.8026   4.0527   4.0581   4.1351   4.1418   4.7565   4.8775
     4.8830   4.8971   4.9026   4.9060   4.9746   4.9828   4.9836   5.2986
     5.3025   5.4834   5.4850   5.6053   5.6550   5.6682   5.6705   5.6848
     5.8154   5.8178   5.9143   5.9174   5.9534   6.0867   6.0910   6.1763
     6.1803   6.2898   6.2944   6.5793   6.5823   6.8245   6.8494   6.8544
     6.8942   6.8992   6.9114   7.0155   7.0166   7.0193   7.3991   7.4038
     7.4550   7.4595   7.8723   7.8829   8.0386   8.0443   8.0607   8.0774
     9.4249   9.4258  10.2318  10.2320  10.2338  10.2346  12.2405  12.2500
    12.4051  12.4098  12.4226  12.4479  12.4751  12.4798  12.9568  13.0303
    13.3016  13.3787  13.4343  13.4390  14.0199  14.0929  14.1087  14.1197
    14.3412  14.7596  14.7720  14.9930  15.5144  15.5246  15.9764  16.1104
    16.1147  16.5471  17.2378  17.2438  17.3847  17.4883

          k = 0.0000 0.1584 0.1666 ( 62347 PWs)   bands (ev):

   -65.9721 -65.9717 -65.9712 -65.9711 -65.9709 -65.9707 -65.9702 -65.9699
   -30.4323 -30.4288 -30.4282 -30.4248 -30.3802 -30.3763 -30.3756 -30.3720
   -30.3175 -30.3124 -30.3111 -30.3067 -30.3050 -30.3005 -30.2995 -30.2947
   -30.2263 -30.2223 -30.2180 -30.2160 -30.2131 -30.2082 -30.2055 -30.2016
   -20.1254 -20.1251 -20.1250 -20.1248 -20.1207 -20.1203 -20.1203 -20.1200
   -20.1148 -20.1145 -20.1145 -20.1144 -20.1139 -20.1138 -20.1138 -20.1136
   -20.1123 -20.1118 -20.1118 -20.1114 -20.1111 -20.1108 -20.1106 -20.1103
   -20.1094 -20.1093 -20.1089 -20.1087 -20.1083 -20.1081 -20.1078 -20.1076
   -20.0940 -20.0939 -20.0936 -20.0935 -20.0935 -20.0934 -20.0932 -20.0931
   -20.0534 -20.0534 -20.0528 -20.0527 -20.0520 -20.0519 -20.0515 -20.0513
   -20.0485 -20.0479 -20.0476 -20.0472 -20.0470 -20.0467 -20.0461 -20.0459
    -9.8371  -9.5689  -9.4656  -9.3881  -9.2049  -9.1037  -9.0302  -8.9432
    -8.9289  -8.8179  -8.8059  -8.7718  -7.9552  -7.9071  -7.8951  -7.8568
    -7.8446  -7.8095  -7.7176  -7.7110  -7.6820  -7.6768  -7.5921  -7.5586
     1.3652   1.3686   1.3823   1.3946   1.5860   1.6307   1.6391   1.8163
     1.8589   1.8755   1.8933   2.1202   2.5529   2.6267   2.6624   2.7465
     2.7918   2.8916   4.0217   4.0688   4.1338   4.1742   4.4456   4.5236
     4.6779   4.7163   4.7933   4.9322   4.9336   4.9550   5.0010   5.2560
     5.2661   5.3376   5.3683   5.5025   5.5946   5.6070   5.6636   5.7133
     5.7606   5.7849   5.8520   5.8824   5.8946   6.1334   6.1472   6.1762
     6.2615   6.4233   6.5073   6.5704   6.7188   6.7820   6.8099   6.8283
     6.8519   6.9046   6.9649   6.9842   7.0189   7.0364   7.1915   7.2126
     7.2347   7.2990   7.8801   7.8834   8.0052   8.0326   8.0418   8.0704
     9.7593   9.7803  10.2319  10.2368  10.4610  10.4844  12.2248  12.3141
    12.3238  12.3798  12.4276  12.4457  12.4795  12.5820  12.9790  13.0187
    13.1558  13.3304  13.3720  13.4332  13.9548  13.9895  14.0801  14.0914
    14.4266  14.7661  14.8980  15.0867  15.5476  15.5770  15.9415  16.0878
    16.4193  16.6985  16.9287  17.4034  17.4693  17.5599

          k = 0.0000 0.1584 0.3333 ( 62413 PWs)   bands (ev):

   -65.9719 -65.9715 -65.9714 -65.9710 -65.9709 -65.9705 -65.9704 -65.9701
   -30.4316 -30.4296 -30.4276 -30.4257 -30.3794 -30.3771 -30.3749 -30.3728
   -30.3161 -30.3134 -30.3042 -30.3015 -30.2935 -30.2890 -30.2816 -30.2766
   -30.2445 -30.2402 -30.2321 -30.2277 -30.2172 -30.2145 -30.2047 -30.2025
   -20.1253 -20.1251 -20.1250 -20.1248 -20.1207 -20.1204 -20.1203 -20.1201
   -20.1147 -20.1146 -20.1143 -20.1143 -20.1140 -20.1139 -20.1138 -20.1137
   -20.1121 -20.1118 -20.1112 -20.1111 -20.1108 -20.1107 -20.1103 -20.1101
   -20.1098 -20.1098 -20.1092 -20.1088 -20.1086 -20.1084 -20.1078 -20.1077
   -20.0939 -20.0938 -20.0937 -20.0936 -20.0934 -20.0933 -20.0932 -20.0931
   -20.0531 -20.0526 -20.0523 -20.0523 -20.0518 -20.0518 -20.0509 -20.0503
   -20.0496 -20.0490 -20.0481 -20.0475 -20.0473 -20.0469 -20.0465 -20.0462
    -9.7243  -9.5163  -9.4444  -9.2483  -9.2458  -9.0591  -8.8685  -8.8499
    -8.8179  -8.7850  -8.7300  -8.6530  -8.1591  -8.1295  -8.0709  -8.0254
    -7.9226  -7.9047  -7.8777  -7.8496  -7.6874  -7.6532  -7.6172  -7.5835
     1.3796   1.3996   1.4095   1.4330   1.7539   1.7744   1.8498   1.8590
     2.3243   2.3725   2.5202   2.6108   2.6879   2.7748   2.8060   2.8946
     2.9909   3.1267   3.8025   3.8626   3.9038   3.9655   4.1547   4.1879
     4.2259   4.3706   4.6097   4.7169   4.7710   4.8402   4.8597   4.9016
     5.0325   5.1672   5.1893   5.2307   5.3879   5.4368   5.5400   5.6333
     5.7080   5.7592   5.8042   5.8588   5.9819   6.1600   6.2412   6.2932
     6.3504   6.5268   6.5742   6.5786   6.6495   6.6762   6.7355   6.8296
     6.8364   6.8578   6.9449   6.9770   7.0168   7.0526   7.1135   7.1605
     7.3214   7.3542   7.8084   7.8225   7.8860   7.9146   8.0600   8.0715
    10.2219  10.2324  10.4664  10.5378  11.0240  11.1045  11.9245  11.9809
    12.1241  12.4496  12.5390  12.5626  12.5820  12.6416  12.7249  12.8451
    13.0023  13.1969  13.2532  13.4356  13.6373  13.6835  14.0849  14.0885
    14.6204  14.7490  15.2532  15.3583  15.6876  15.8296  15.9707  16.0058
    16.3594  17.1389  17.2519  17.4641  17.7027  17.8023

          k = 0.0000 0.1584-0.4999 ( 62330 PWs)   bands (ev):

   -65.9717 -65.9717 -65.9713 -65.9713 -65.9707 -65.9707 -65.9703 -65.9703
   -30.4307 -30.4307 -30.4267 -30.4267 -30.3783 -30.3783 -30.3739 -30.3739
   -30.3148 -30.3148 -30.3028 -30.3028 -30.2691 -30.2691 -30.2647 -30.2647
   -30.2569 -30.2568 -30.2520 -30.2520 -30.2160 -30.2160 -30.2036 -30.2036
   -20.1252 -20.1252 -20.1249 -20.1249 -20.1206 -20.1206 -20.1202 -20.1202
   -20.1146 -20.1146 -20.1141 -20.1141 -20.1141 -20.1141 -20.1138 -20.1138
   -20.1119 -20.1119 -20.1108 -20.1108 -20.1105 -20.1105 -20.1104 -20.1104
   -20.1097 -20.1097 -20.1095 -20.1095 -20.1085 -20.1085 -20.1077 -20.1077
   -20.0938 -20.0938 -20.0937 -20.0937 -20.0933 -20.0933 -20.0932 -20.0932
   -20.0527 -20.0527 -20.0522 -20.0522 -20.0510 -20.0510 -20.0504 -20.0504
   -20.0495 -20.0495 -20.0489 -20.0489 -20.0469 -20.0469 -20.0465 -20.0465
    -9.6044  -9.6044  -9.3262  -9.3262  -9.1232  -9.1232  -8.8359  -8.8359
    -8.5121  -8.5121  -8.4782  -8.4782  -8.4718  -8.4718  -8.3894  -8.3894
    -7.9181  -7.9181  -7.8669  -7.8669  -7.6520  -7.6520  -7.6180  -7.6180
     1.3932   1.3932   1.4272   1.4272   1.7743   1.7743   1.8606   1.8606
     2.7184   2.7184   3.0515   3.0515   3.1771   3.1771   3.2211   3.2211
     3.3356   3.3356   3.3911   3.3911   3.5267   3.5267   3.8190   3.8190
     3.9414   3.9415   4.2771   4.2771   4.6422   4.6422   4.7705   4.7705
     5.0768   5.0769   5.3343   5.3344   5.3561   5.3561   5.5116   5.5116
     5.7165   5.7165   5.8333   5.8333   6.1836   6.1836   6.3330   6.3330
     6.3810   6.3810   6.4706   6.4706   6.5656   6.5656   6.6732   6.6732
     6.8714   6.8714   6.8761   6.8761   6.9986   6.9986   7.5354   7.5354
     7.5853   7.5853   7.6699   7.6699   7.6948   7.6948   8.0702   8.0702
    10.2311  10.2311  11.2502  11.2502  11.3221  11.3221  11.6768  11.6768
    11.8685  11.8685  12.5026  12.5026  12.7724  12.7724  12.9162  12.9162
    12.9304  12.9304  13.2368  13.2368  13.4730  13.4730  14.0853  14.0853
    14.7132  14.7132  15.5874  15.5874  15.8095  15.8095  15.8757  15.8757
    16.7389  16.7389  17.5832  17.5832  18.0223  18.0223

          k = 0.0000 0.3169 0.0000 ( 62343 PWs)   bands (ev):

   -65.9721 -65.9718 -65.9711 -65.9711 -65.9709 -65.9709 -65.9701 -65.9699
   -30.4214 -30.4174 -30.4173 -30.4134 -30.3913 -30.3870 -30.3869 -30.3829
   -30.3189 -30.3168 -30.3132 -30.3121 -30.3063 -30.3053 -30.3015 -30.3004
   -30.2196 -30.2183 -30.2158 -30.2146 -30.2070 -30.2059 -30.2022 -30.2012
   -20.1244 -20.1241 -20.1240 -20.1237 -20.1217 -20.1213 -20.1213 -20.1210
   -20.1148 -20.1146 -20.1145 -20.1145 -20.1139 -20.1138 -20.1137 -20.1136
   -20.1123 -20.1119 -20.1116 -20.1116 -20.1112 -20.1110 -20.1108 -20.1105
   -20.1090 -20.1089 -20.1086 -20.1085 -20.1083 -20.1082 -20.1080 -20.1078
   -20.0940 -20.0939 -20.0936 -20.0936 -20.0935 -20.0935 -20.0931 -20.0931
   -20.0537 -20.0536 -20.0529 -20.0529 -20.0522 -20.0519 -20.0516 -20.0514
   -20.0481 -20.0477 -20.0475 -20.0473 -20.0466 -20.0465 -20.0458 -20.0457
    -9.8073  -9.6597  -9.3583  -9.3574  -9.2178  -9.2160  -8.9790  -8.9722
    -8.8101  -8.6890  -8.6782  -8.6780  -8.1981  -8.1511  -8.1502  -8.1259
    -7.7263  -7.7208  -7.6957  -7.6896  -7.5825  -7.5814  -7.5528  -7.5519
     1.2877   1.2886   1.3676   1.3713   1.3887   1.3923   1.6625   1.6983
     2.3724   2.4803   2.5166   2.5196   2.5212   2.6815   2.8599   2.8853
     3.0042   3.0095   3.6514   3.6612   3.6998   3.7067   4.1555   4.4785
     4.4836   4.7496   4.8822   4.8897   4.9107   4.9178   5.0489   5.0531
     5.0676   5.0763   5.3880   5.3912   5.5933   5.5971   5.7260   5.7291
     5.8946   5.8961   5.9271   5.9317   6.0611   6.0836   6.0909   6.1889
     6.1980   6.2659   6.2733   6.5342   6.6417   6.6445   6.8705   6.8725
     6.9204   6.9958   7.0997   7.1019   7.1140   7.1156   7.4059   7.4104
     7.4591   7.4634   7.8230   7.8332   7.8668   7.8697   7.8862   7.8879
     9.4266   9.4269  10.6959  10.7004  10.7401  10.7503  11.8639  11.8734
    11.9880  12.0086  12.4208  12.4263  12.4763  12.4811  12.9841  13.0268
    13.4126  13.4666  13.4947  13.4990  13.8669  13.8861  13.8893  13.8961
    14.8247  15.3134  15.3164  15.5144  15.5195  15.6448  15.9666  15.9983
    16.0012  16.9740  17.2504  17.5654  17.7017  17.7070

          k = 0.0000 0.3169 0.1666 ( 62336 PWs)   bands (ev):

   -65.9720 -65.9718 -65.9712 -65.9710 -65.9709 -65.9708 -65.9702 -65.9700
   -30.4211 -30.4177 -30.4171 -30.4137 -30.3910 -30.3873 -30.3867 -30.3832
   -30.3173 -30.3125 -30.3116 -30.3068 -30.3051 -30.3007 -30.2997 -30.2948
   -30.2262 -30.2222 -30.2180 -30.2161 -30.2132 -30.2082 -30.2056 -30.2017
   -20.1244 -20.1241 -20.1241 -20.1238 -20.1217 -20.1213 -20.1213 -20.1210
   -20.1147 -20.1145 -20.1145 -20.1145 -20.1139 -20.1139 -20.1138 -20.1137
   -20.1122 -20.1117 -20.1116 -20.1115 -20.1111 -20.1108 -20.1108 -20.1105
   -20.1092 -20.1091 -20.1087 -20.1085 -20.1085 -20.1082 -20.1080 -20.1078
   -20.0940 -20.0939 -20.0936 -20.0935 -20.0935 -20.0934 -20.0931 -20.0931
   -20.0534 -20.0534 -20.0528 -20.0527 -20.0520 -20.0519 -20.0515 -20.0513
   -20.0485 -20.0479 -20.0476 -20.0472 -20.0470 -20.0467 -20.0461 -20.0459
    -9.7577  -9.6063  -9.3739  -9.2846  -9.2309  -9.1299  -8.9393  -8.9311
    -8.8182  -8.6827  -8.6816  -8.6601  -8.1982  -8.1582  -8.1469  -8.1317
    -7.8450  -7.8142  -7.7156  -7.7109  -7.6833  -7.6793  -7.5905  -7.5610
     1.3683   1.3762   1.3840   1.3982   1.6203   1.6430   1.8219   1.8718
     2.3754   2.4969   2.5193   2.5690   2.6109   2.6740   2.8776   2.9748
     2.9989   3.1041   3.6606   3.6899   3.7032   3.7478   4.1459   4.4412
     4.4769   4.4951   4.5515   4.7525   4.7654   4.8744   4.9322   4.9598
     5.0497   5.0869   5.1885   5.3323   5.4183   5.4887   5.6023   5.6664
     5.7111   5.8202   5.8283   5.8744   6.0724   6.1235   6.1710   6.1906
     6.2617   6.4269   6.4837   6.5939   6.6342   6.8539   6.8723   6.9394
     6.9737   6.9943   7.0797   7.0858   7.1060   7.1155   7.1987   7.2166
     7.2622   7.3104   7.8063   7.8303   7.8379   7.8543   7.8900   7.8936
     9.7686   9.7820  10.7049  10.7448  10.8781  10.9130  11.8711  11.9566
    12.0018  12.0759  12.3270  12.3759  12.4796  12.5341  13.0213  13.0307
    13.2547  13.3799  13.4421  13.4908  13.7254  13.7738  13.8787  13.8863
    14.9614  15.3069  15.5043  15.5589  15.5780  15.7112  15.9746  16.1274
    16.2989  16.9375  17.3016  17.3409  17.6357  17.8138

          k = 0.0000 0.3169 0.3333 ( 62335 PWs)   bands (ev):

   -65.9718 -65.9716 -65.9713 -65.9711 -65.9708 -65.9706 -65.9703 -65.9701
   -30.4205 -30.4185 -30.4165 -30.4145 -30.3903 -30.3881 -30.3860 -30.3840
   -30.3161 -30.3135 -30.3044 -30.3017 -30.2935 -30.2890 -30.2817 -30.2767
   -30.2444 -30.2402 -30.2322 -30.2278 -30.2172 -30.2145 -30.2048 -30.2026
   -20.1243 -20.1242 -20.1240 -20.1238 -20.1216 -20.1214 -20.1213 -20.1211
   -20.1147 -20.1145 -20.1144 -20.1143 -20.1140 -20.1139 -20.1139 -20.1137
   -20.1119 -20.1117 -20.1113 -20.1111 -20.1108 -20.1107 -20.1104 -20.1102
   -20.1097 -20.1096 -20.1092 -20.1090 -20.1085 -20.1084 -20.1080 -20.1079
   -20.0939 -20.0938 -20.0937 -20.0936 -20.0934 -20.0933 -20.0932 -20.0931
   -20.0531 -20.0526 -20.0523 -20.0523 -20.0518 -20.0518 -20.0509 -20.0503
   -20.0496 -20.0490 -20.0481 -20.0475 -20.0473 -20.0469 -20.0465 -20.0461
    -9.6384  -9.4809  -9.4247  -9.2767  -9.0998  -8.8812  -8.8490  -8.8214
    -8.7888  -8.6959  -8.6436  -8.5836  -8.2345  -8.2195  -8.1525  -8.1373
    -8.1323  -8.0751  -8.0241  -7.9790  -7.6857  -7.6558  -7.6156  -7.5859
     1.3901   1.4123   1.4140   1.4377   2.2277   2.3144   2.3252   2.4025
     2.5053   2.5332   2.5373   2.7660   2.8344   2.8660   2.9024   2.9858
     3.2229   3.3207   3.6467   3.6648   3.7602   3.8062   3.8919   3.9027
     4.1225   4.2904   4.4057   4.4188   4.4954   4.5902   4.6580   4.8068
     4.8419   4.8501   5.0019   5.0665   5.2028   5.2234   5.2432   5.3762
     5.4046   5.6231   5.6550   5.8283   6.1701   6.2240   6.2412   6.3106
     6.4314   6.5844   6.6313   6.6815   6.7325   6.8190   6.8298   6.8695
     6.9380   6.9878   7.0433   7.0627   7.0853   7.1548   7.1794   7.2161
     7.3031   7.3448   7.7310   7.7479   7.8034   7.8188   7.8449   7.8709
    10.4838  10.5057  10.7196  10.7520  11.3384  11.3830  11.8457  11.9421
    11.9794  12.0335  12.2477  12.3040  12.6458  12.6878  12.7148  12.7393
    12.9708  13.1763  13.2498  13.4162  13.4864  13.5488  13.8731  13.8828
    15.1451  15.2786  15.6296  15.8846  15.8988  16.0485  16.0823  16.6245
    16.7640  16.8106  17.1026  17.5614  17.6627  17.7530

          k = 0.0000 0.3169-0.4999 ( 62394 PWs)   bands (ev):

   -65.9716 -65.9716 -65.9714 -65.9714 -65.9706 -65.9706 -65.9704 -65.9704
   -30.4195 -30.4195 -30.4156 -30.4156 -30.3892 -30.3892 -30.3851 -30.3851
   -30.3148 -30.3148 -30.3030 -30.3030 -30.2691 -30.2691 -30.2646 -30.2646
   -30.2570 -30.2569 -30.2521 -30.2521 -30.2160 -30.2160 -30.2037 -30.2037
   -20.1243 -20.1243 -20.1239 -20.1239 -20.1216 -20.1216 -20.1212 -20.1212
   -20.1146 -20.1146 -20.1142 -20.1142 -20.1140 -20.1140 -20.1138 -20.1138
   -20.1117 -20.1117 -20.1110 -20.1110 -20.1104 -20.1104 -20.1102 -20.1102
   -20.1098 -20.1098 -20.1097 -20.1097 -20.1084 -20.1084 -20.1079 -20.1079
   -20.0938 -20.0937 -20.0937 -20.0937 -20.0933 -20.0933 -20.0932 -20.0932
   -20.0527 -20.0527 -20.0522 -20.0522 -20.0510 -20.0510 -20.0504 -20.0504
   -20.0495 -20.0495 -20.0489 -20.0489 -20.0469 -20.0469 -20.0465 -20.0465
    -9.5140  -9.5140  -9.3586  -9.3586  -8.9282  -8.9282  -8.7255  -8.7255
    -8.5289  -8.5289  -8.5161  -8.5161  -8.4586  -8.4586  -8.3696  -8.3696
    -8.1487  -8.1487  -8.1062  -8.1062  -7.6503  -7.6503  -7.6205  -7.6205
     1.4066   1.4066   1.4318   1.4318   2.3772   2.3772   2.5131   2.5131
     2.9202   2.9202   3.0995   3.0995   3.1534   3.1534   3.3049   3.3049
     3.3672   3.3672   3.3962   3.3962   3.4878   3.4878   3.6776   3.6776
     4.0688   4.0688   4.0969   4.0969   4.1574   4.1574   4.3703   4.3703
     4.8273   4.8273   4.9292   4.9292   5.1261   5.1261   5.3059   5.3060
     5.4661   5.4661   5.7412   5.7412   6.3110   6.3110   6.3741   6.3741
     6.4922   6.4922   6.5435   6.5435   6.5717   6.5717   6.7747   6.7747
     7.0522   7.0523   7.0655   7.0655   7.1069   7.1069   7.5313   7.5314
     7.5557   7.5557   7.5882   7.5882   7.6260   7.6260   7.8533   7.8533
    10.7231  10.7231  11.2645  11.2645  11.3182  11.3182  11.7675  11.7675
    12.0549  12.0549  12.2055  12.2055  12.6416  12.6416  12.7020  12.7020
    12.9344  12.9344  13.0508  13.0508  13.4872  13.4872  13.8758  13.8758
    15.2277  15.2277  15.7714  15.7714  16.2558  16.2558  16.5358  16.5358
    16.9147  16.9147  17.2062  17.2063  17.9617  17.9617

          k = 0.0000-0.4753 0.0000 ( 62330 PWs)   bands (ev):

   -65.9720 -65.9719 -65.9710 -65.9710 -65.9710 -65.9709 -65.9700 -65.9700
   -30.4063 -30.4062 -30.4029 -30.4028 -30.4014 -30.4013 -30.3982 -30.3982
   -30.3182 -30.3176 -30.3133 -30.3121 -30.3062 -30.3056 -30.3016 -30.3005
   -30.2195 -30.2182 -30.2156 -30.2148 -30.2070 -30.2059 -30.2021 -30.2014
   -20.1231 -20.1230 -20.1228 -20.1227 -20.1227 -20.1226 -20.1224 -20.1223
   -20.1147 -20.1146 -20.1145 -20.1144 -20.1139 -20.1138 -20.1137 -20.1137
   -20.1122 -20.1118 -20.1117 -20.1115 -20.1111 -20.1110 -20.1109 -20.1106
   -20.1089 -20.1086 -20.1086 -20.1085 -20.1084 -20.1083 -20.1082 -20.1079
   -20.0940 -20.0940 -20.0936 -20.0936 -20.0935 -20.0935 -20.0931 -20.0931
   -20.0537 -20.0536 -20.0529 -20.0529 -20.0522 -20.0519 -20.0516 -20.0514
   -20.0481 -20.0477 -20.0475 -20.0473 -20.0466 -20.0465 -20.0458 -20.0457
    -9.7237  -9.7235  -9.2869  -9.2853  -9.2564  -9.2551  -8.9756  -8.9756
    -8.5068  -8.5068  -8.4483  -8.4476  -8.4459  -8.4458  -8.4454  -8.4448
    -7.7232  -7.7215  -7.6948  -7.6934  -7.5814  -7.5803  -7.5541  -7.5532
     1.2879   1.2883   1.3686   1.3725   1.3896   1.3933   1.6900   1.6902
     2.5005   2.5006   3.1303   3.1322   3.2202   3.2236   3.2405   3.2441
     3.3054   3.3070   3.3239   3.3318   3.4628   3.4725   3.5369   3.5422
     3.6819   3.6820   4.8924   4.8963   4.8998   4.9030   5.2097   5.2193
     5.2248   5.2335   5.3175   5.3187   5.3226   5.3239   5.7885   5.7920
     5.7956   5.7988   6.0165   6.0189   6.0722   6.0733   6.1930   6.1978
     6.2221   6.2308   6.2951   6.2977   6.7192   6.7215   6.7649   6.7676
     6.9594   6.9597   7.3943   7.3974   7.4276   7.4291   7.4637   7.4640
     7.4886   7.4890   7.5496   7.5510   7.5545   7.5551   7.8818   7.8818
     9.4272   9.4273  11.2820  11.2899  11.3146  11.3224  11.3661  11.3726
    11.4040  11.4106  12.4263  12.4316  12.4778  12.4830  13.0112  13.0114
    13.6012  13.6058  13.6460  13.6501  13.6547  13.6578  13.6594  13.6626
    15.3711  15.3733  15.5179  15.5198  15.7374  15.7391  15.7784  15.7801
    16.5538  16.5538  17.8613  17.8614  18.1428  18.1430

          k = 0.0000-0.4753 0.1666 ( 62358 PWs)   bands (ev):

   -65.9719 -65.9719 -65.9711 -65.9710 -65.9709 -65.9709 -65.9701 -65.9700
   -30.4061 -30.4059 -30.4032 -30.4025 -30.4017 -30.4012 -30.3985 -30.3984
   -30.3171 -30.3125 -30.3118 -30.3068 -30.3051 -30.3008 -30.2997 -30.2948
   -30.2262 -30.2222 -30.2179 -30.2161 -30.2132 -30.2082 -30.2056 -30.2017
   -20.1231 -20.1230 -20.1228 -20.1227 -20.1227 -20.1226 -20.1224 -20.1224
   -20.1146 -20.1146 -20.1145 -20.1144 -20.1139 -20.1139 -20.1137 -20.1137
   -20.1120 -20.1117 -20.1116 -20.1115 -20.1110 -20.1109 -20.1109 -20.1106
   -20.1090 -20.1088 -20.1088 -20.1087 -20.1084 -20.1083 -20.1082 -20.1080
   -20.0939 -20.0939 -20.0936 -20.0936 -20.0935 -20.0934 -20.0931 -20.0931
   -20.0534 -20.0534 -20.0528 -20.0527 -20.0520 -20.0519 -20.0515 -20.0513
   -20.0485 -20.0479 -20.0476 -20.0472 -20.0470 -20.0467 -20.0461 -20.0459
    -9.6731  -9.6697  -9.3009  -9.2712  -9.2024  -9.1726  -8.9364  -8.9335
    -8.5126  -8.5126  -8.4544  -8.4513  -8.4443  -8.4441  -8.4399  -8.4371
    -7.8440  -7.8158  -7.7140  -7.7109  -7.6837  -7.6811  -7.5894  -7.5623
     1.3687   1.3775   1.3843   1.3992   1.6237   1.6448   1.8539   1.8677
     2.5895   2.5901   3.1340   3.1448   3.2278   3.2332   3.2415   3.2693
     3.2990   3.3240   3.3253   3.3725   3.4669   3.5258   3.5370   3.5816
     3.7112   3.7136   4.5007   4.5041   4.8939   4.9311   4.9820   5.0254
     5.1277   5.1293   5.2022   5.2094   5.3309   5.3380   5.5187   5.5353
     5.7642   5.7683   5.8240   5.8312   6.1174   6.1737   6.1743   6.1836
     6.3930   6.4042   6.4265   6.4905   6.7083   6.7542   6.8961   6.9393
     7.0173   7.0257   7.1812   7.2076   7.2129   7.2583   7.4516   7.4700
     7.4814   7.4955   7.5097   7.5287   7.5299   7.5436   7.8861   7.8867
     9.7725   9.7816  11.2944  11.3260  11.3665  11.3872  11.4265  11.4411
    11.4889  11.5247  12.3297  12.3756  12.4838  12.5324  13.0422  13.0423
    13.4300  13.4430  13.5124  13.5331  13.6392  13.6506  13.6512  13.6698
    15.4252  15.4638  15.6214  15.6551  15.7195  15.7629  16.0140  16.0488
    16.6179  16.6199  17.8116  17.8237  17.9050  17.9055

          k = 0.0000-0.4753 0.3333 ( 62352 PWs)   bands (ev):

   -65.9717 -65.9717 -65.9712 -65.9712 -65.9707 -65.9707 -65.9703 -65.9702
   -30.4056 -30.4051 -30.4039 -30.4026 -30.4018 -30.4008 -30.3994 -30.3992
   -30.3161 -30.3135 -30.3045 -30.3018 -30.2936 -30.2890 -30.2817 -30.2767
   -30.2444 -30.2402 -30.2323 -30.2279 -30.2171 -30.2145 -30.2048 -30.2026
   -20.1230 -20.1230 -20.1228 -20.1228 -20.1227 -20.1226 -20.1225 -20.1224
   -20.1146 -20.1145 -20.1144 -20.1143 -20.1140 -20.1139 -20.1139 -20.1137
   -20.1116 -20.1116 -20.1115 -20.1110 -20.1109 -20.1106 -20.1105 -20.1104
   -20.1095 -20.1094 -20.1093 -20.1092 -20.1083 -20.1083 -20.1081 -20.1080
   -20.0938 -20.0938 -20.0936 -20.0936 -20.0934 -20.0934 -20.0932 -20.0932
   -20.0531 -20.0526 -20.0523 -20.0523 -20.0518 -20.0518 -20.0509 -20.0503
   -20.0496 -20.0490 -20.0481 -20.0475 -20.0473 -20.0469 -20.0465 -20.0461
    -9.5535  -9.5406  -9.3486  -9.3208  -8.9698  -8.9433  -8.8041  -8.7942
    -8.5452  -8.5432  -8.4756  -8.4729  -8.4341  -8.4333  -8.4118  -8.4064
    -8.1353  -8.1088  -8.0239  -7.9979  -7.6845  -7.6573  -7.6144  -7.5873
     1.3916   1.4137   1.4153   1.4389   2.3002   2.3192   2.4885   2.5070
     2.8476   2.8486   3.1362   3.1687   3.2292   3.2441   3.2510   3.2866
     3.2926   3.3085   3.3973   3.4408   3.4648   3.5235   3.7003   3.7183
     3.7854   3.7911   3.8845   3.8950   4.4807   4.4816   4.6466   4.6547
     4.7953   4.8191   4.8869   4.9095   5.2322   5.2463   5.2536   5.2616
     5.3832   5.4015   5.6876   5.6917   6.2308   6.2373   6.2534   6.3266
     6.5281   6.5484   6.6350   6.7032   6.7174   6.7582   6.8532   6.9039
     7.0398   7.0647   7.1747   7.1902   7.2066   7.2102   7.4289   7.4596
     7.4692   7.4912   7.4971   7.5095   7.5192   7.5240   7.8261   7.8262
    10.4935  10.5124  11.3076  11.3357  11.3537  11.3826  11.7885  11.8096
    11.8360  11.8666  11.9485  11.9832  12.6532  12.6931  12.8284  12.8328
    12.9614  12.9760  13.2653  13.2907  13.6345  13.6355  13.6465  13.6605
    15.4642  15.5076  15.6579  15.6999  16.1957  16.2278  16.7370  16.7602
    16.8517  16.8605  17.3111  17.3118  17.9616  17.9760

          k = 0.0000-0.4753-0.4999 ( 62372 PWs)   bands (ev):

   -65.9715 -65.9715 -65.9715 -65.9715 -65.9705 -65.9705 -65.9705 -65.9705
   -30.4048 -30.4048 -30.4039 -30.4038 -30.4006 -30.4006 -30.4000 -30.4000
   -30.3148 -30.3148 -30.3031 -30.3031 -30.2691 -30.2691 -30.2646 -30.2646
   -30.2570 -30.2570 -30.2522 -30.2522 -30.2159 -30.2159 -30.2037 -30.2037
   -20.1229 -20.1229 -20.1229 -20.1229 -20.1226 -20.1226 -20.1225 -20.1225
   -20.1146 -20.1146 -20.1142 -20.1142 -20.1140 -20.1140 -20.1138 -20.1138
   -20.1116 -20.1116 -20.1111 -20.1111 -20.1103 -20.1103 -20.1100 -20.1100
   -20.1099 -20.1099 -20.1099 -20.1099 -20.1083 -20.1083 -20.1081 -20.1081
   -20.0937 -20.0937 -20.0937 -20.0937 -20.0933 -20.0933 -20.0932 -20.0932
   -20.0527 -20.0527 -20.0522 -20.0522 -20.0510 -20.0510 -20.0504 -20.0504
   -20.0495 -20.0495 -20.0489 -20.0489 -20.0469 -20.0469 -20.0465 -20.0465
    -9.4329  -9.4329  -9.4101  -9.4101  -8.6861  -8.6861  -8.6696  -8.6696
    -8.5832  -8.5832  -8.5728  -8.5728  -8.3865  -8.3865  -8.3688  -8.3688
    -8.3136  -8.3136  -8.2934  -8.2934  -7.6491  -7.6491  -7.6219  -7.6219
     1.4084   1.4084   1.4332   1.4332   3.0226   3.0226   3.0782   3.0782
     3.1720   3.1720   3.1883   3.1883   3.2319   3.2319   3.2390   3.2390
     3.3367   3.3367   3.3561   3.3561   3.4762   3.4762   3.5190   3.5190
     3.5925   3.5925   3.7049   3.7049   4.3018   4.3018   4.3284   4.3284
     4.4009   4.4009   4.4435   4.4435   5.2237   5.2237   5.2395   5.2395
     5.5286   5.5286   5.5535   5.5536   6.3620   6.3620   6.3687   6.3687
     6.5371   6.5371   6.5696   6.5696   6.6364   6.6364   6.6722   6.6722
     7.2887   7.2888   7.3131   7.3131   7.3388   7.3388   7.4216   7.4216
     7.4605   7.4605   7.5006   7.5006   7.6194   7.6194   7.6310   7.6310
    11.2358  11.2358  11.2614  11.2614  11.3794  11.3794  11.3972  11.3972
    12.3130  12.3130  12.3342  12.3342  12.3742  12.3742  12.3907  12.3907
    12.9490  12.9490  12.9791  12.9791  13.6342  13.6342  13.6452  13.6452
    15.5605  15.5605  15.6048  15.6048  16.7866  16.7866  16.8183  16.8183
    17.4055  17.4055  17.4326  17.4326  17.5511  17.5511

          k = 0.1667 0.0000 0.0000 ( 62373 PWs)   bands (ev):

   -65.9721 -65.9717 -65.9713 -65.9711 -65.9708 -65.9707 -65.9703 -65.9698
   -30.4363 -30.4328 -30.4323 -30.4289 -30.3763 -30.3722 -30.3717 -30.3679
   -30.3183 -30.3134 -30.3109 -30.3056 -30.3052 -30.3017 -30.2985 -30.2934
   -30.2251 -30.2215 -30.2194 -30.2163 -30.2121 -30.2078 -30.2066 -30.2024
   -20.1257 -20.1254 -20.1254 -20.1251 -20.1203 -20.1200 -20.1199 -20.1196
   -20.1149 -20.1146 -20.1144 -20.1144 -20.1139 -20.1138 -20.1138 -20.1136
   -20.1125 -20.1120 -20.1116 -20.1114 -20.1111 -20.1109 -20.1104 -20.1102
   -20.1094 -20.1091 -20.1090 -20.1089 -20.1081 -20.1080 -20.1079 -20.1076
   -20.0940 -20.0939 -20.0936 -20.0936 -20.0935 -20.0935 -20.0932 -20.0931
   -20.0536 -20.0533 -20.0527 -20.0526 -20.0523 -20.0517 -20.0516 -20.0511
   -20.0481 -20.0480 -20.0478 -20.0474 -20.0468 -20.0467 -20.0461 -20.0459
    -9.8698  -9.5571  -9.5061  -9.4330  -9.1990  -9.1052  -9.0938  -8.9460
    -8.9281  -8.8593  -8.8423  -8.8020  -7.8743  -7.8326  -7.8208  -7.7989
    -7.7872  -7.7449  -7.7189  -7.7087  -7.6828  -7.6763  -7.5938  -7.5585
     1.3482   1.3497   1.3770   1.3881   1.4678   1.5023   1.6139   1.6304
     1.6403   1.7474   1.8774   2.0245   2.5456   2.5911   2.6329   2.6701
     2.7238   2.8203   4.1190   4.1968   4.4063   4.4093   4.4460   4.5271
     4.6515   4.7908   4.8163   4.9392   4.9514   5.0279   5.0903   5.3438
     5.3875   5.4320   5.5100   5.5522   5.5827   5.6191   5.6417   5.6538
     5.7796   5.7832   5.8340   5.9354   5.9989   6.1030   6.1428   6.1718
     6.3219   6.4359   6.5245   6.5419   6.6939   6.7229   6.7886   6.8191
     6.8592   6.8795   6.9773   7.0059   7.0468   7.0986   7.1946   7.2170
     7.2219   7.2934   7.8788   7.8839   8.0380   8.0984   8.1021   8.1534
     9.7528   9.7800  10.0366  10.0563  10.2926  10.3404  12.3042  12.3264
    12.3958  12.4210  12.4511  12.5116  12.5943  12.6964  12.9420  13.0218
    13.1568  13.2989  13.3643  13.4373  13.9208  14.0565  14.1442  14.1739
    14.2817  14.5072  14.6231  14.9231  15.5401  15.5486  15.5755  16.1153
    16.4588  16.8003  17.0578  17.2966  17.4121  17.4583

          k = 0.1667 0.0000 0.1666 ( 62340 PWs)   bands (ev):

   -65.9720 -65.9716 -65.9712 -65.9712 -65.9708 -65.9708 -65.9703 -65.9699
   -30.4361 -30.4326 -30.4326 -30.4292 -30.3760 -30.3720 -30.3719 -30.3682
   -30.3129 -30.3092 -30.3069 -30.3059 -30.2995 -30.2978 -30.2949 -30.2937
   -30.2260 -30.2248 -30.2233 -30.2214 -30.2131 -30.2120 -30.2093 -30.2078
   -20.1257 -20.1254 -20.1254 -20.1251 -20.1203 -20.1200 -20.1200 -20.1196
   -20.1148 -20.1145 -20.1145 -20.1144 -20.1139 -20.1139 -20.1138 -20.1136
   -20.1123 -20.1118 -20.1116 -20.1113 -20.1110 -20.1108 -20.1104 -20.1101
   -20.1095 -20.1093 -20.1090 -20.1089 -20.1082 -20.1082 -20.1079 -20.1077
   -20.0939 -20.0938 -20.0936 -20.0936 -20.0935 -20.0934 -20.0932 -20.0931
   -20.0533 -20.0532 -20.0525 -20.0525 -20.0520 -20.0517 -20.0514 -20.0512
   -20.0484 -20.0480 -20.0478 -20.0477 -20.0471 -20.0470 -20.0463 -20.0463
    -9.8225  -9.4985  -9.4493  -9.4490  -9.1141  -9.1100  -9.1080  -8.9051
    -8.8926  -8.8499  -8.8077  -8.8068  -7.8790  -7.8360  -7.8251  -7.8199
    -7.8096  -7.7887  -7.7847  -7.7484  -7.7362  -7.7230  -7.6881  -7.6690
     1.4482   1.4948   1.4957   1.5477   1.5482   1.6067   1.6429   1.6464
     1.7466   1.7502   1.9616   2.1044   2.6325   2.6713   2.6863   2.7278
     2.7971   2.8323   4.1218   4.1264   4.3742   4.3770   4.5080   4.5085
     4.5829   4.5923   4.6716   4.6982   4.7611   4.8252   5.0737   5.2931
     5.2967   5.3662   5.3803   5.5031   5.5148   5.6399   5.6444   5.7029
     5.7052   5.7588   5.7917   5.8045   5.8132   6.0119   6.3145   6.4345
     6.4825   6.5149   6.5809   6.6603   6.6994   6.7040   6.7083   6.7434
     6.7724   6.8631   6.8682   6.8959   6.9195   7.0004   7.0087   7.1135
     7.3239   7.3770   7.8777   7.8784   8.0412   8.0854   8.0938   8.1170
     9.9702  10.0363  10.2853  10.2901  10.3139  10.4020  12.3521  12.3610
    12.3707  12.3881  12.4340  12.4580  12.6688  12.6970  12.9536  13.0113
    13.0918  13.2294  13.2527  13.4214  13.9596  14.0221  14.0718  14.1004
    14.2698  14.6019  14.6152  15.0408  15.5072  15.6328  15.6459  16.4180
    16.4261  16.9603  16.9681  17.1990  17.4950  17.5088

          k = 0.1667 0.0000 0.3333 ( 62373 PWs)   bands (ev):

   -65.9719 -65.9714 -65.9714 -65.9710 -65.9709 -65.9706 -65.9705 -65.9701
   -30.4355 -30.4335 -30.4320 -30.4300 -30.3751 -30.3729 -30.3712 -30.3690
   -30.3098 -30.3070 -30.2977 -30.2955 -30.2922 -30.2893 -30.2811 -30.2768
   -30.2442 -30.2406 -30.2320 -30.2283 -30.2239 -30.2206 -30.2113 -30.2090
   -20.1257 -20.1255 -20.1254 -20.1252 -20.1203 -20.1201 -20.1200 -20.1197
   -20.1147 -20.1145 -20.1143 -20.1143 -20.1140 -20.1139 -20.1139 -20.1137
   -20.1120 -20.1117 -20.1113 -20.1110 -20.1107 -20.1105 -20.1103 -20.1099
   -20.1099 -20.1098 -20.1093 -20.1088 -20.1087 -20.1084 -20.1079 -20.1078
   -20.0939 -20.0937 -20.0936 -20.0935 -20.0935 -20.0933 -20.0932 -20.0931
   -20.0528 -20.0524 -20.0521 -20.0520 -20.0517 -20.0514 -20.0510 -20.0504
   -20.0494 -20.0489 -20.0483 -20.0478 -20.0476 -20.0473 -20.0469 -20.0465
    -9.7081  -9.4990  -9.3609  -9.3192  -9.1518  -9.1434  -8.8596  -8.8535
    -8.8197  -8.7623  -8.7370  -8.6774  -8.1463  -8.1166  -8.0690  -8.0366
    -7.8397  -7.8172  -7.7993  -7.7815  -7.7723  -7.7578  -7.7362  -7.7069
     1.4606   1.4822   1.5583   1.5909   1.6617   1.6793   1.7377   1.7591
     2.3316   2.3709   2.5020   2.5848   2.7015   2.7899   2.8965   2.9217
     3.0098   3.0738   3.8344   3.8844   3.9788   3.9912   4.1589   4.3475
     4.3614   4.5282   4.5336   4.5825   4.6243   4.7851   4.8037   4.9489
     5.0309   5.0720   5.1246   5.2516   5.2987   5.3999   5.5678   5.6806
     5.7054   5.7655   5.8072   5.8223   5.8429   6.0207   6.1695   6.2312
     6.4233   6.4680   6.5017   6.5689   6.5919   6.6836   6.6851   6.7128
     6.7912   6.8870   6.9024   6.9165   7.1466   7.1739   7.1981   7.2633
     7.3406   7.3820   7.8128   7.8276   7.9352   7.9712   8.0953   8.1058
    10.2856  10.2912  10.6005  10.6742  10.9172  11.0367  11.9805  12.0339
    12.1984  12.5040  12.5404  12.5432  12.6195  12.6837  12.8358  12.9294
    12.9524  13.1149  13.1649  13.3417  13.7199  13.7401  14.0272  14.0553
    14.4134  14.5892  14.8979  15.3577  15.4014  15.8916  16.0496  16.3198
    16.3789  17.2638  17.3922  17.5239  17.6161  17.7782

          k = 0.1667 0.0000-0.4999 ( 62380 PWs)   bands (ev):

   -65.9716 -65.9716 -65.9712 -65.9712 -65.9708 -65.9708 -65.9703 -65.9703
   -30.4345 -30.4345 -30.4311 -30.4311 -30.3740 -30.3740 -30.3701 -30.3701
   -30.3083 -30.3083 -30.2962 -30.2962 -30.2687 -30.2687 -30.2650 -30.2650
   -30.2565 -30.2565 -30.2523 -30.2523 -30.2226 -30.2226 -30.2102 -30.2102
   -20.1256 -20.1256 -20.1253 -20.1253 -20.1202 -20.1202 -20.1199 -20.1199
   -20.1146 -20.1146 -20.1141 -20.1141 -20.1141 -20.1141 -20.1138 -20.1138
   -20.1118 -20.1118 -20.1106 -20.1106 -20.1105 -20.1105 -20.1105 -20.1104
   -20.1098 -20.1098 -20.1094 -20.1094 -20.1087 -20.1087 -20.1078 -20.1078
   -20.0937 -20.0937 -20.0936 -20.0936 -20.0933 -20.0933 -20.0932 -20.0932
   -20.0524 -20.0524 -20.0519 -20.0519 -20.0508 -20.0508 -20.0503 -20.0503
   -20.0497 -20.0497 -20.0490 -20.0490 -20.0473 -20.0473 -20.0469 -20.0469
    -9.5870  -9.5870  -9.2325  -9.2325  -9.2059  -9.2059  -8.8371  -8.8371
    -8.5133  -8.5133  -8.4891  -8.4891  -8.4512  -8.4512  -8.3964  -8.3964
    -7.8278  -7.8278  -7.7727  -7.7727  -7.7676  -7.7676  -7.7397  -7.7397
     1.4695   1.4695   1.5751   1.5751   1.6803   1.6803   1.7664   1.7664
     2.7299   2.7299   3.0474   3.0474   3.1277   3.1277   3.2491   3.2491
     3.3490   3.3490   3.4607   3.4607   3.5876   3.5876   3.8360   3.8360
     3.8872   3.8872   4.4480   4.4480   4.5422   4.5422   4.9172   4.9172
     5.0605   5.0605   5.0865   5.0865   5.2712   5.2712   5.6402   5.6402
     5.8054   5.8054   5.8091   5.8091   5.9325   5.9325   5.9887   5.9887
     6.3573   6.3573   6.4439   6.4439   6.6783   6.6783   6.7172   6.7172
     6.8462   6.8462   6.9894   6.9894   7.0499   7.0499   7.5660   7.5660
     7.6145   7.6145   7.7063   7.7063   7.7270   7.7270   8.1047   8.1047
    10.2979  10.2979  11.3201  11.3201  11.4015  11.4015  11.6306  11.6306
    11.8230  11.8230  12.7025  12.7025  12.7299  12.7299  12.8033  12.8033
    12.9826  12.9826  13.3143  13.3143  13.4106  13.4106  14.0388  14.0388
    14.5331  14.5331  15.2017  15.2018  15.8099  15.8099  16.1566  16.1566
    16.8042  16.8042  17.7821  17.7821  17.8340  17.8340

          k = 0.1667 0.1584 0.0000 ( 62350 PWs)   bands (ev):

   -65.9721 -65.9717 -65.9712 -65.9711 -65.9709 -65.9707 -65.9702 -65.9699
   -30.4323 -30.4287 -30.4283 -30.4249 -30.3802 -30.3762 -30.3757 -30.3720
   -30.3182 -30.3135 -30.3111 -30.3056 -30.3052 -30.3018 -30.2986 -30.2935
   -30.2250 -30.2214 -30.2193 -30.2163 -30.2122 -30.2078 -30.2066 -30.2025
   -20.1254 -20.1251 -20.1250 -20.1247 -20.1207 -20.1204 -20.1203 -20.1200
   -20.1149 -20.1146 -20.1144 -20.1144 -20.1139 -20.1138 -20.1138 -20.1136
   -20.1124 -20.1120 -20.1115 -20.1113 -20.1111 -20.1109 -20.1105 -20.1103
   -20.1093 -20.1091 -20.1089 -20.1088 -20.1081 -20.1081 -20.1080 -20.1077
   -20.0940 -20.0939 -20.0936 -20.0936 -20.0935 -20.0935 -20.0932 -20.0931
   -20.0536 -20.0533 -20.0527 -20.0526 -20.0523 -20.0517 -20.0516 -20.0511
   -20.0481 -20.0480 -20.0477 -20.0474 -20.0468 -20.0467 -20.0461 -20.0459
    -9.8372  -9.5692  -9.4661  -9.3879  -9.2069  -9.1017  -9.0303  -8.9434
    -8.9286  -8.8176  -8.8064  -8.7712  -7.9555  -7.9064  -7.8958  -7.8569
    -7.8423  -7.8083  -7.7192  -7.7098  -7.6828  -7.6761  -7.5934  -7.5596
     1.3629   1.3654   1.3804   1.3910   1.5878   1.6307   1.6428   1.8167
     1.8563   1.8785   1.8961   2.1211   2.5525   2.6266   2.6639   2.7451
     2.7944   2.8894   4.0173   4.0720   4.1302   4.1798   4.4442   4.5242
     4.6703   4.7132   4.8219   4.9239   4.9247   4.9510   4.9955   5.2571
     5.2783   5.3303   5.3736   5.5037   5.5966   5.6042   5.6614   5.7085
     5.7656   5.7886   5.8511   5.8853   5.8948   6.1341   6.1434   6.1750
     6.2650   6.4254   6.5013   6.5681   6.7196   6.7789   6.8103   6.8271
     6.8518   6.9061   6.9638   6.9856   7.0164   7.0391   7.1956   7.2164
     7.2322   7.2955   7.8801   7.8836   8.0002   8.0290   8.0474   8.0745
     9.7595   9.7822  10.2317  10.2349  10.4613  10.4847  12.2172  12.3213
    12.3275  12.3827  12.4246  12.4428  12.4769  12.5819  12.9660  13.0213
    13.1814  13.3139  13.3739  13.4377  13.9451  13.9789  14.0972  14.1069
    14.4197  14.7547  14.9026  15.0869  15.5482  15.5746  15.9404  16.0844
    16.4232  16.6975  16.9256  17.4081  17.4691  17.5606

          k = 0.1667 0.1584 0.1666 ( 62371 PWs)   bands (ev):

   -65.9720 -65.9716 -65.9712 -65.9712 -65.9708 -65.9708 -65.9703 -65.9699
   -30.4320 -30.4286 -30.4285 -30.4252 -30.3799 -30.3760 -30.3759 -30.3723
   -30.3127 -30.3095 -30.3070 -30.3059 -30.2994 -30.2980 -30.2949 -30.2938
   -30.2260 -30.2247 -30.2231 -30.2214 -30.2131 -30.2121 -30.2092 -30.2079
   -20.1253 -20.1251 -20.1250 -20.1248 -20.1207 -20.1204 -20.1203 -20.1200
   -20.1148 -20.1145 -20.1144 -20.1144 -20.1139 -20.1139 -20.1138 -20.1137
   -20.1122 -20.1118 -20.1115 -20.1113 -20.1110 -20.1108 -20.1105 -20.1102
   -20.1094 -20.1093 -20.1090 -20.1088 -20.1083 -20.1082 -20.1080 -20.1078
   -20.0939 -20.0938 -20.0936 -20.0936 -20.0935 -20.0934 -20.0932 -20.0931
   -20.0533 -20.0532 -20.0525 -20.0525 -20.0520 -20.0517 -20.0514 -20.0512
   -20.0484 -20.0480 -20.0478 -20.0477 -20.0471 -20.0470 -20.0463 -20.0463
    -9.7883  -9.5106  -9.4046  -9.4042  -9.1182  -9.1161  -9.0391  -8.9041
    -8.8926  -8.8086  -8.7764  -8.7757  -7.9570  -7.9053  -7.9044  -7.8644
    -7.8355  -7.8332  -7.8033  -7.7961  -7.7380  -7.7208  -7.6868  -7.6706
     1.5447   1.5473   1.5888   1.5906   1.6400   1.6454   1.6526   1.8159
     1.8913   1.8941   1.9611   2.1783   2.6419   2.7214   2.7453   2.7618
     2.8708   2.8970   4.0270   4.0430   4.1579   4.1659   4.4925   4.4962
     4.5847   4.5923   4.6648   4.6904   4.7313   4.7680   4.8781   5.2078
     5.2407   5.2770   5.2912   5.3905   5.4118   5.5872   5.5920   5.6424
     5.7742   5.7880   5.7996   5.8193   5.8223   5.8802   6.3352   6.3730
     6.4242   6.4881   6.5711   6.6628   6.7022   6.7390   6.7878   6.7924
     6.8163   6.8435   6.8947   6.9053   6.9674   6.9822   7.0038   7.1202
     7.3276   7.3753   7.8772   7.8787   7.9898   8.0260   8.0334   8.0421
     9.9912  10.0377  10.4371  10.4565  10.4752  10.5371  12.2767  12.3125
    12.3625  12.3642  12.4044  12.4137  12.5329  12.5546  12.9812  13.0213
    13.1080  13.2300  13.2575  13.4237  13.9333  13.9384  13.9725  14.0248
    14.5152  14.8909  14.8969  15.1876  15.6338  15.6440  15.9094  16.3862
    16.3917  16.8186  17.0665  17.0699  17.5413  17.6295

          k = 0.1667 0.1584 0.3333 ( 62377 PWs)   bands (ev):

   -65.9718 -65.9715 -65.9713 -65.9710 -65.9710 -65.9706 -65.9705 -65.9701
   -30.4314 -30.4294 -30.4279 -30.4260 -30.3791 -30.3769 -30.3752 -30.3731
   -30.3097 -30.3070 -30.2978 -30.2956 -30.2923 -30.2893 -30.2812 -30.2769
   -30.2441 -30.2406 -30.2321 -30.2284 -30.2238 -30.2206 -30.2113 -30.2091
   -20.1253 -20.1251 -20.1250 -20.1249 -20.1206 -20.1204 -20.1203 -20.1201
   -20.1147 -20.1145 -20.1143 -20.1143 -20.1140 -20.1139 -20.1139 -20.1137
   -20.1119 -20.1116 -20.1112 -20.1110 -20.1108 -20.1105 -20.1104 -20.1100
   -20.1098 -20.1098 -20.1092 -20.1088 -20.1088 -20.1085 -20.1080 -20.1079
   -20.0938 -20.0937 -20.0936 -20.0935 -20.0935 -20.0934 -20.0932 -20.0932
   -20.0528 -20.0524 -20.0521 -20.0520 -20.0517 -20.0514 -20.0510 -20.0504
   -20.0494 -20.0489 -20.0483 -20.0478 -20.0476 -20.0473 -20.0469 -20.0465
    -9.6700  -9.4551  -9.3728  -9.2611  -9.1607  -9.0692  -8.8663  -8.8303
    -8.7882  -8.7624  -8.7240  -8.6596  -8.1496  -8.1196  -8.0864  -8.0381
    -7.9212  -7.9056  -7.8831  -7.8545  -7.8070  -7.7740  -7.7386  -7.7067
     1.5953   1.6093   1.6630   1.6811   1.7723   1.7796   1.8597   1.8943
     2.3309   2.3794   2.5042   2.5977   2.7753   2.8552   2.9164   2.9957
     3.0080   3.1302   3.8369   3.8884   3.9437   3.9709   4.1581   4.1955
     4.2587   4.3849   4.5374   4.6028   4.6466   4.7170   4.7754   4.8071
     4.9112   4.9592   5.0009   5.1557   5.2343   5.2812   5.3384   5.6170
     5.6448   5.6662   5.7701   5.8278   5.8398   5.8544   6.1730   6.2288
     6.3873   6.5173   6.5593   6.6349   6.6925   6.7102   6.7306   6.7976
     6.8485   6.8926   6.9239   6.9614   7.1415   7.1693   7.1949   7.2663
     7.3348   7.3782   7.8134   7.8238   7.8918   7.9168   8.0312   8.0364
    10.4261  10.4547  10.6245  10.6836  11.0313  11.1235  11.9810  12.0315
    12.1779  12.4854  12.5133  12.5359  12.5622  12.5944  12.7583  12.8122
    12.9709  13.1150  13.1458  13.3406  13.6135  13.6435  13.9521  13.9775
    14.7176  14.8751  15.2437  15.4736  15.8042  15.8875  16.0585  16.2969
    16.4783  17.1960  17.2256  17.4502  17.5677  17.7300

          k = 0.1667 0.1584-0.4999 ( 62402 PWs)   bands (ev):

   -65.9716 -65.9716 -65.9712 -65.9712 -65.9707 -65.9707 -65.9704 -65.9704
   -30.4304 -30.4304 -30.4270 -30.4270 -30.3780 -30.3780 -30.3742 -30.3742
   -30.3083 -30.3083 -30.2963 -30.2963 -30.2687 -30.2687 -30.2650 -30.2650
   -30.2566 -30.2566 -30.2524 -30.2524 -30.2226 -30.2226 -30.2102 -30.2102
   -20.1252 -20.1252 -20.1250 -20.1250 -20.1206 -20.1206 -20.1202 -20.1202
   -20.1146 -20.1146 -20.1141 -20.1141 -20.1141 -20.1141 -20.1138 -20.1138
   -20.1117 -20.1117 -20.1107 -20.1107 -20.1105 -20.1105 -20.1104 -20.1104
   -20.1098 -20.1098 -20.1095 -20.1095 -20.1087 -20.1087 -20.1079 -20.1079
   -20.0937 -20.0937 -20.0936 -20.0936 -20.0933 -20.0933 -20.0932 -20.0932
   -20.0524 -20.0524 -20.0519 -20.0519 -20.0508 -20.0508 -20.0503 -20.0503
   -20.0497 -20.0497 -20.0490 -20.0490 -20.0473 -20.0473 -20.0469 -20.0469
    -9.5451  -9.5451  -9.2428  -9.2428  -9.1356  -9.1356  -8.8056  -8.8056
    -8.5165  -8.5165  -8.4936  -8.4936  -8.4520  -8.4520  -8.3920  -8.3920
    -7.9172  -7.9172  -7.8729  -7.8729  -7.7730  -7.7730  -7.7402  -7.7402
     1.6033   1.6033   1.6817   1.6817   1.7835   1.7835   1.8936   1.8936
     2.7997   2.7997   3.0663   3.0663   3.1488   3.1488   3.2632   3.2633
     3.3525   3.3525   3.4660   3.4660   3.5790   3.5790   3.8406   3.8406
     3.9346   3.9346   4.2864   4.2864   4.5394   4.5394   4.6985   4.6985
     4.9449   4.9449   5.0590   5.0590   5.1290   5.1290   5.4529   5.4529
     5.7002   5.7002   5.7665   5.7665   5.8836   5.8836   5.9363   5.9363
     6.4826   6.4826   6.6158   6.6158   6.6565   6.6565   6.7709   6.7709
     6.9160   6.9160   6.9578   6.9578   7.0729   7.0729   7.5644   7.5644
     7.6079   7.6079   7.6799   7.6799   7.7010   7.7010   8.0363   8.0363
    10.4591  10.4591  11.3278  11.3278  11.4009  11.4009  11.6982  11.6982
    11.8821  11.8821  12.5653  12.5653  12.7184  12.7184  12.7872  12.7872
    12.9666  12.9666  13.2080  13.2080  13.3456  13.3456  13.9595  13.9595
    14.8283  14.8283  15.5753  15.5753  15.9303  15.9303  16.1363  16.1363
    16.8354  16.8354  17.5999  17.5999  17.8494  17.8494

          k = 0.1667 0.3169 0.0000 ( 62332 PWs)   bands (ev):

   -65.9720 -65.9718 -65.9711 -65.9710 -65.9709 -65.9708 -65.9702 -65.9700
   -30.4211 -30.4176 -30.4172 -30.4137 -30.3910 -30.3872 -30.3868 -30.3832
   -30.3181 -30.3136 -30.3115 -30.3057 -30.3051 -30.3019 -30.2988 -30.2936
   -30.2250 -30.2213 -30.2193 -30.2164 -30.2122 -30.2079 -30.2067 -30.2026
   -20.1244 -20.1241 -20.1240 -20.1238 -20.1217 -20.1214 -20.1213 -20.1210
   -20.1148 -20.1146 -20.1145 -20.1144 -20.1139 -20.1138 -20.1138 -20.1137
   -20.1123 -20.1119 -20.1114 -20.1114 -20.1112 -20.1110 -20.1106 -20.1104
   -20.1091 -20.1089 -20.1088 -20.1086 -20.1083 -20.1083 -20.1082 -20.1079
   -20.0940 -20.0939 -20.0936 -20.0936 -20.0935 -20.0935 -20.0931 -20.0931
   -20.0536 -20.0533 -20.0527 -20.0526 -20.0523 -20.0517 -20.0516 -20.0511
   -20.0481 -20.0480 -20.0477 -20.0474 -20.0468 -20.0467 -20.0461 -20.0459
    -9.7578  -9.6066  -9.3748  -9.2838  -9.2327  -9.1281  -8.9392  -8.9308
    -8.8183  -8.6827  -8.6816  -8.6599  -8.1982  -8.1575  -8.1476  -8.1318
    -7.8433  -7.8128  -7.7171  -7.7099  -7.6843  -7.6783  -7.5916  -7.5619
     1.3658   1.3725   1.3821   1.3946   1.6233   1.6460   1.8239   1.8741
     2.3754   2.4966   2.5194   2.5688   2.6109   2.6730   2.8815   2.9714
     3.0045   3.0997   3.6533   3.6858   3.7089   3.7541   4.1462   4.4364
     4.4791   4.4978   4.5557   4.7510   4.7669   4.8776   4.9214   4.9562
     5.0511   5.0823   5.1944   5.3353   5.4188   5.4914   5.6020   5.6656
     5.7119   5.8213   5.8284   5.8734   6.0760   6.1213   6.1727   6.1892
     6.2604   6.4223   6.4813   6.5936   6.6359   6.8559   6.8712   6.9378
     6.9743   6.9935   7.0788   7.0881   7.1077   7.1152   7.2031   7.2194
     7.2604   7.3073   7.8039   7.8310   7.8379   7.8576   7.8901   7.8930
     9.7691   9.7829  10.7004  10.7408  10.8840  10.9135  11.8616  11.9637
    12.0005  12.0791  12.3309  12.3796  12.4746  12.5302  13.0152  13.0299
    13.2715  13.3702  13.4451  13.4948  13.7256  13.7662  13.8789  13.8928
    14.9629  15.3047  15.4967  15.5674  15.5742  15.7111  15.9719  16.1257
    16.3014  16.9374  17.2943  17.3468  17.6359  17.8182

          k = 0.1667 0.3169 0.1666 ( 62344 PWs)   bands (ev):

   -65.9719 -65.9717 -65.9711 -65.9711 -65.9709 -65.9709 -65.9702 -65.9700
   -30.4209 -30.4175 -30.4174 -30.4140 -30.3907 -30.3871 -30.3870 -30.3835
   -30.3121 -30.3102 -30.3071 -30.3060 -30.2993 -30.2983 -30.2951 -30.2940
   -30.2259 -30.2247 -30.2229 -30.2217 -30.2132 -30.2122 -30.2091 -30.2082
   -20.1244 -20.1241 -20.1241 -20.1238 -20.1217 -20.1214 -20.1213 -20.1210
   -20.1147 -20.1145 -20.1145 -20.1144 -20.1139 -20.1139 -20.1138 -20.1137
   -20.1121 -20.1117 -20.1114 -20.1113 -20.1110 -20.1109 -20.1106 -20.1104
   -20.1092 -20.1091 -20.1088 -20.1087 -20.1085 -20.1084 -20.1082 -20.1080
   -20.0939 -20.0939 -20.0936 -20.0935 -20.0935 -20.0935 -20.0932 -20.0931
   -20.0533 -20.0532 -20.0525 -20.0525 -20.0520 -20.0517 -20.0514 -20.0512
   -20.0484 -20.0480 -20.0478 -20.0477 -20.0471 -20.0470 -20.0463 -20.0463
    -9.7052  -9.5487  -9.3014  -9.3004  -9.1451  -9.1432  -8.9015  -8.8949
    -8.8268  -8.6751  -8.6646  -8.6642  -8.1997  -8.1546  -8.1539  -8.1371
    -7.8371  -7.8328  -7.8065  -7.8012  -7.7352  -7.7248  -7.6840  -7.6745
     1.5458   1.5469   1.6257   1.6287   1.6495   1.6525   1.8945   1.9569
     2.3778   2.4974   2.5005   2.6491   2.6611   2.7193   2.9694   2.9926
     3.0922   3.0991   3.6925   3.6988   3.7192   3.7706   4.1376   4.4587
     4.4627   4.5226   4.5302   4.6097   4.6161   4.7446   4.7480   4.8346
     4.8844   4.8958   5.1347   5.1645   5.4020   5.4176   5.4191   5.4537
     5.6614   5.6780   5.8012   5.8041   5.8544   5.8592   6.3914   6.4107
     6.4367   6.4993   6.5535   6.6480   6.7842   6.7939   6.8575   6.8662
     6.9387   6.9440   7.0029   7.0252   7.1008   7.1058   7.1226   7.1607
     7.3469   7.3764   7.8029   7.8074   7.8220   7.8470   7.8829   7.8935
    10.0170  10.0361  10.8518  10.8924  10.9121  10.9419  11.9369  11.9815
    12.0657  12.0862  12.3803  12.3842  12.4343  12.4372  13.0337  13.0395
    13.2227  13.2797  13.3086  13.4592  13.7005  13.7114  13.7377  13.8188
    15.1161  15.5037  15.5149  15.6397  15.6446  15.7713  16.2426  16.2705
    16.2765  16.9030  17.3561  17.4015  17.4287  17.6973

          k = 0.1667 0.3169 0.3333 ( 62371 PWs)   bands (ev):

   -65.9718 -65.9715 -65.9713 -65.9710 -65.9709 -65.9707 -65.9704 -65.9702
   -30.4203 -30.4183 -30.4168 -30.4148 -30.3900 -30.3879 -30.3863 -30.3843
   -30.3097 -30.3070 -30.2980 -30.2957 -30.2923 -30.2893 -30.2813 -30.2770
   -30.2441 -30.2405 -30.2321 -30.2285 -30.2238 -30.2205 -30.2114 -30.2092
   -20.1243 -20.1242 -20.1241 -20.1239 -20.1216 -20.1214 -20.1213 -20.1211
   -20.1146 -20.1145 -20.1144 -20.1143 -20.1140 -20.1139 -20.1139 -20.1138
   -20.1117 -20.1114 -20.1112 -20.1111 -20.1107 -20.1107 -20.1104 -20.1102
   -20.1097 -20.1096 -20.1092 -20.1090 -20.1087 -20.1085 -20.1082 -20.1081
   -20.0938 -20.0938 -20.0936 -20.0936 -20.0934 -20.0934 -20.0932 -20.0932
   -20.0528 -20.0524 -20.0521 -20.0520 -20.0517 -20.0514 -20.0510 -20.0504
   -20.0494 -20.0489 -20.0483 -20.0478 -20.0476 -20.0473 -20.0469 -20.0465
    -9.5778  -9.4108  -9.3524  -9.1903  -9.1165  -8.8973  -8.8595  -8.7898
    -8.7644  -8.6771  -8.6393  -8.5890  -8.2444  -8.2134  -8.1525  -8.1438
    -8.1224  -8.0691  -8.0349  -7.9869  -7.8067  -7.7773  -7.7378  -7.7089
     1.6431   1.6626   1.6679   1.6875   2.2322   2.3118   2.3264   2.3980
     2.4904   2.5153   2.5396   2.7367   2.9318   2.9897   3.0049   3.0824
     3.2273   3.3181   3.6794   3.6963   3.7538   3.8122   3.9381   4.0081
     4.1176   4.2972   4.3971   4.4265   4.4813   4.5712   4.6228   4.6856
     4.7593   4.7950   4.8448   4.8751   4.9477   5.0225   5.1579   5.1822
     5.3439   5.3670   5.4552   5.6294   5.8295   5.8673   6.2102   6.2297
     6.5631   6.6242   6.6597   6.7467   6.8204   6.8455   6.9401   6.9757
     7.0133   7.0379   7.0577   7.0882   7.1656   7.1946   7.2173   7.2860
     7.3232   7.3704   7.7333   7.7370   7.7974   7.8209   7.8267   7.8644
    10.6067  10.6436  10.9016  10.9216  11.3487  11.3974  11.9285  11.9873
    12.0176  12.1422  12.2503  12.2971  12.5488  12.6343  12.7098  12.7419
    12.9647  13.1159  13.1687  13.3673  13.3866  13.4384  13.7209  13.7623
    15.3434  15.4888  15.8408  15.9608  16.0462  16.1141  16.2015  16.6821
    16.7816  16.8202  17.0975  17.5763  17.6316  17.7010

          k = 0.1667 0.3169-0.4999 ( 62350 PWs)   bands (ev):

   -65.9715 -65.9715 -65.9713 -65.9713 -65.9707 -65.9707 -65.9704 -65.9704
   -30.4193 -30.4193 -30.4159 -30.4159 -30.3890 -30.3890 -30.3854 -30.3854
   -30.3083 -30.3083 -30.2965 -30.2965 -30.2687 -30.2687 -30.2650 -30.2650
   -30.2567 -30.2567 -30.2525 -30.2525 -30.2225 -30.2225 -30.2103 -30.2103
   -20.1243 -20.1243 -20.1240 -20.1240 -20.1216 -20.1215 -20.1213 -20.1213
   -20.1145 -20.1145 -20.1142 -20.1142 -20.1141 -20.1141 -20.1138 -20.1138
   -20.1115 -20.1115 -20.1108 -20.1108 -20.1104 -20.1104 -20.1102 -20.1102
   -20.1098 -20.1098 -20.1097 -20.1097 -20.1086 -20.1086 -20.1081 -20.1081
   -20.0937 -20.0937 -20.0937 -20.0937 -20.0933 -20.0933 -20.0933 -20.0933
   -20.0524 -20.0524 -20.0519 -20.0519 -20.0508 -20.0508 -20.0503 -20.0503
   -20.0497 -20.0497 -20.0490 -20.0490 -20.0473 -20.0473 -20.0469 -20.0469
    -9.4455  -9.4455  -9.2769  -9.2769  -8.9420  -8.9420  -8.7037  -8.7037
    -8.5459  -8.5459  -8.5106  -8.5106  -8.4456  -8.4456  -8.3736  -8.3736
    -8.1456  -8.1456  -8.1110  -8.1110  -7.7723  -7.7723  -7.7428  -7.7428
     1.6607   1.6607   1.6872   1.6872   2.3800   2.3800   2.4959   2.4959
     2.9976   2.9976   3.1215   3.1215   3.1585   3.1585   3.3171   3.3171
     3.3608   3.3608   3.4883   3.4883   3.5426   3.5426   3.7266   3.7267
     4.0673   4.0673   4.0990   4.0990   4.1532   4.1532   4.3790   4.3790
     4.7464   4.7464   4.8253   4.8253   4.9990   4.9990   5.0555   5.0555
     5.1714   5.1714   5.5302   5.5302   5.9315   5.9315   5.9448   5.9448
     6.6787   6.6788   6.7886   6.7886   6.8539   6.8539   6.8858   6.8858
     7.0319   7.0319   7.0790   7.0790   7.1873   7.1874   7.5342   7.5342
     7.5664   7.5664   7.6075   7.6075   7.6421   7.6421   7.8346   7.8346
    10.8854  10.8854  11.3437  11.3437  11.4008  11.4008  11.8249  11.8249
    12.0669  12.0669  12.2427  12.2427  12.6273  12.6273  12.6735  12.6735
    12.8828  12.8828  13.0009  13.0009  13.3280  13.3280  13.7334  13.7334
    15.4398  15.4398  16.0406  16.0406  16.3256  16.3256  16.5230  16.5230
    16.9722  16.9722  17.2464  17.2464  17.8326  17.8327

          k = 0.1667-0.4753 0.0000 ( 62346 PWs)   bands (ev):

   -65.9719 -65.9719 -65.9711 -65.9710 -65.9709 -65.9709 -65.9701 -65.9700
   -30.4061 -30.4059 -30.4031 -30.4026 -30.4016 -30.4013 -30.3985 -30.3985
   -30.3180 -30.3136 -30.3117 -30.3057 -30.3051 -30.3020 -30.2990 -30.2937
   -30.2249 -30.2212 -30.2192 -30.2164 -30.2123 -30.2079 -30.2067 -30.2026
   -20.1231 -20.1230 -20.1228 -20.1227 -20.1227 -20.1227 -20.1224 -20.1224
   -20.1147 -20.1146 -20.1146 -20.1144 -20.1139 -20.1138 -20.1137 -20.1137
   -20.1122 -20.1119 -20.1114 -20.1113 -20.1111 -20.1110 -20.1107 -20.1105
   -20.1089 -20.1087 -20.1086 -20.1086 -20.1085 -20.1084 -20.1084 -20.1081
   -20.0939 -20.0939 -20.0936 -20.0935 -20.0935 -20.0935 -20.0931 -20.0931
   -20.0536 -20.0533 -20.0527 -20.0526 -20.0523 -20.0517 -20.0516 -20.0511
   -20.0481 -20.0480 -20.0477 -20.0474 -20.0468 -20.0467 -20.0461 -20.0459
    -9.6735  -9.6698  -9.3025  -9.2725  -9.2009  -9.1714  -8.9362  -8.9334
    -8.5127  -8.5127  -8.4544  -8.4514  -8.4440  -8.4436  -8.4400  -8.4373
    -7.8423  -7.8145  -7.7155  -7.7099  -7.6847  -7.6800  -7.5905  -7.5632
     1.3662   1.3737   1.3823   1.3956   1.6269   1.6478   1.8561   1.8701
     2.5896   2.5899   3.1310   3.1437   3.2225   3.2351   3.2433   3.2751
     3.2994   3.3221   3.3245   3.3791   3.4606   3.5291   3.5351   3.5841
     3.7106   3.7129   4.5031   4.5064   4.8834   4.9088   5.0010   5.0319
     5.1294   5.1307   5.2013   5.2088   5.3296   5.3368   5.5220   5.5384
     5.7625   5.7667   5.8249   5.8317   6.1164   6.1741   6.1742   6.1846
     6.3936   6.4064   6.4196   6.4873   6.7095   6.7558   6.8960   6.9388
     7.0180   7.0260   7.1851   7.2101   7.2111   7.2561   7.4518   7.4692
     7.4819   7.4954   7.5090   7.5279   7.5314   7.5453   7.8862   7.8868
     9.7731   9.7823  11.2869  11.3185  11.3584  11.3821  11.4319  11.4493
    11.4947  11.5306  12.3338  12.3795  12.4791  12.5279  13.0398  13.0403
    13.4338  13.4463  13.5166  13.5467  13.6231  13.6506  13.6557  13.6661
    15.4311  15.4693  15.6144  15.6483  15.7176  15.7609  16.0147  16.0494
    16.6180  16.6199  17.8118  17.8237  17.9050  17.9053

          k = 0.1667-0.4753 0.1666 ( 62362 PWs)   bands (ev):

   -65.9718 -65.9718 -65.9710 -65.9710 -65.9710 -65.9710 -65.9701 -65.9701
   -30.4058 -30.4058 -30.4029 -30.4028 -30.4016 -30.4015 -30.3988 -30.3988
   -30.3115 -30.3109 -30.3071 -30.3060 -30.2992 -30.2986 -30.2951 -30.2940
   -30.2259 -30.2246 -30.2227 -30.2219 -30.2133 -30.2122 -30.2090 -30.2083
   -20.1231 -20.1230 -20.1228 -20.1227 -20.1227 -20.1227 -20.1224 -20.1224
   -20.1146 -20.1146 -20.1145 -20.1144 -20.1139 -20.1139 -20.1138 -20.1137
   -20.1120 -20.1116 -20.1114 -20.1113 -20.1110 -20.1109 -20.1107 -20.1105
   -20.1091 -20.1088 -20.1088 -20.1088 -20.1085 -20.1085 -20.1084 -20.1081
   -20.0939 -20.0939 -20.0936 -20.0935 -20.0935 -20.0935 -20.0931 -20.0931
   -20.0533 -20.0532 -20.0525 -20.0525 -20.0520 -20.0517 -20.0514 -20.0512
   -20.0484 -20.0480 -20.0478 -20.0477 -20.0471 -20.0470 -20.0463 -20.0463
    -9.6156  -9.6154  -9.2183  -9.2168  -9.1891  -9.1878  -8.8981  -8.8980
[...]
    12.0872  12.0872  12.0952  12.0952  12.2752  12.2752  12.2795  12.2795
    13.0517  13.0517  13.0669  13.0669  13.2320  13.2320  13.2456  13.2456
    15.3692  15.3692  15.3704  15.3704  16.7173  16.7173  16.7376  16.7376
    17.6895  17.6895  17.7052  17.7052  17.9614  17.9615

          k =-0.5000 0.3169 0.0000 ( 62394 PWs)   bands (ev):

   -65.9716 -65.9716 -65.9714 -65.9714 -65.9706 -65.9706 -65.9704 -65.9704
   -30.4195 -30.4195 -30.4156 -30.4156 -30.3891 -30.3891 -30.3851 -30.3851
   -30.3158 -30.3158 -30.3043 -30.3043 -30.2678 -30.2678 -30.2636 -30.2636
   -30.2559 -30.2559 -30.2509 -30.2509 -30.2173 -30.2173 -30.2047 -30.2047
   -20.1243 -20.1243 -20.1239 -20.1239 -20.1216 -20.1216 -20.1212 -20.1212
   -20.1147 -20.1147 -20.1142 -20.1142 -20.1140 -20.1140 -20.1138 -20.1138
   -20.1120 -20.1120 -20.1111 -20.1111 -20.1101 -20.1101 -20.1100 -20.1100
   -20.1095 -20.1095 -20.1094 -20.1094 -20.1088 -20.1088 -20.1082 -20.1082
   -20.0937 -20.0937 -20.0937 -20.0937 -20.0933 -20.0933 -20.0933 -20.0933
   -20.0530 -20.0530 -20.0525 -20.0524 -20.0506 -20.0506 -20.0503 -20.0503
   -20.0493 -20.0492 -20.0487 -20.0487 -20.0473 -20.0473 -20.0467 -20.0467
    -9.5148  -9.5148  -9.3601  -9.3601  -8.9284  -8.9284  -8.7261  -8.7261
    -8.5269  -8.5269  -8.5156  -8.5156  -8.4568  -8.4568  -8.3685  -8.3685
    -8.1479  -8.1479  -8.1062  -8.1062  -7.6516  -7.6516  -7.6216  -7.6216
     1.4029   1.4029   1.4283   1.4283   2.3765   2.3765   2.5125   2.5126
     2.9250   2.9250   3.0955   3.0955   3.1515   3.1515   3.3074   3.3074
     3.3578   3.3578   3.4081   3.4081   3.4906   3.4906   3.6768   3.6768
     4.0644   4.0644   4.0922   4.0922   4.1698   4.1698   4.3755   4.3755
     4.8267   4.8267   4.9223   4.9223   5.1258   5.1258   5.3070   5.3070
     5.4665   5.4665   5.7410   5.7410   6.3104   6.3104   6.3717   6.3717
     6.4933   6.4933   6.5478   6.5478   6.5698   6.5698   6.7755   6.7755
     7.0493   7.0493   7.0678   7.0678   7.1047   7.1047   7.5296   7.5296
     7.5518   7.5518   7.5945   7.5945   7.6287   7.6287   7.8547   7.8547
    10.7207  10.7207  11.2666  11.2666  11.3186  11.3186  11.7550  11.7550
    12.0567  12.0567  12.2073  12.2074  12.6416  12.6416  12.7104  12.7104
    12.9334  12.9334  13.0560  13.0560  13.4861  13.4861  13.8803  13.8803
    15.2262  15.2262  15.7676  15.7676  16.2556  16.2556  16.5350  16.5350
    16.9060  16.9060  17.2069  17.2069  17.9586  17.9587

          k =-0.5000 0.3169 0.1666 ( 62354 PWs)   bands (ev):

   -65.9715 -65.9715 -65.9713 -65.9713 -65.9707 -65.9707 -65.9704 -65.9704
   -30.4193 -30.4193 -30.4159 -30.4159 -30.3889 -30.3889 -30.3854 -30.3854
   -30.3094 -30.3093 -30.2977 -30.2977 -30.2674 -30.2674 -30.2639 -30.2639
   -30.2556 -30.2556 -30.2513 -30.2513 -30.2239 -30.2239 -30.2114 -30.2114
   -20.1243 -20.1243 -20.1240 -20.1240 -20.1216 -20.1216 -20.1212 -20.1212
   -20.1146 -20.1146 -20.1142 -20.1142 -20.1140 -20.1140 -20.1138 -20.1138
   -20.1118 -20.1118 -20.1109 -20.1109 -20.1101 -20.1101 -20.1100 -20.1100
   -20.1095 -20.1095 -20.1094 -20.1094 -20.1090 -20.1090 -20.1084 -20.1084
   -20.0937 -20.0937 -20.0936 -20.0936 -20.0933 -20.0933 -20.0933 -20.0933
   -20.0527 -20.0527 -20.0521 -20.0521 -20.0505 -20.0505 -20.0502 -20.0502
   -20.0494 -20.0494 -20.0488 -20.0488 -20.0477 -20.0477 -20.0471 -20.0471
    -9.4462  -9.4462  -9.2783  -9.2783  -8.9422  -8.9422  -8.7043  -8.7043
    -8.5444  -8.5444  -8.5095  -8.5095  -8.4441  -8.4441  -8.3725  -8.3725
    -8.1448  -8.1448  -8.1109  -8.1109  -7.7737  -7.7737  -7.7440  -7.7440
     1.6574   1.6574   1.6840   1.6840   2.3794   2.3794   2.4955   2.4955
     3.0020   3.0020   3.1184   3.1184   3.1560   3.1560   3.3187   3.3187
     3.3609   3.3609   3.4924   3.4924   3.5439   3.5439   3.7261   3.7261
     4.0613   4.0613   4.0961   4.0961   4.1658   4.1658   4.3830   4.3830
     4.7441   4.7441   4.8216   4.8216   4.9990   4.9990   5.0560   5.0560
     5.1726   5.1726   5.5298   5.5298   5.9299   5.9299   5.9438   5.9438
     6.6786   6.6786   6.7913   6.7913   6.8552   6.8552   6.8861   6.8861
     7.0291   7.0291   7.0804   7.0804   7.1854   7.1854   7.5326   7.5326
     7.5637   7.5637   7.6118   7.6118   7.6442   7.6442   7.8354   7.8354
    10.8841  10.8841  11.3449  11.3449  11.4004  11.4004  11.8133  11.8133
    12.0688  12.0688  12.2445  12.2445  12.6273  12.6273  12.6818  12.6818
    12.8834  12.8834  13.0054  13.0054  13.3255  13.3255  13.7357  13.7357
    15.4400  15.4400  16.0372  16.0372  16.3251  16.3251  16.5233  16.5233
    16.9648  16.9648  17.2472  17.2472  17.8296  17.8296

          k =-0.5000 0.3169 0.3333 ( 62358 PWs)   bands (ev):

   -65.9713 -65.9713 -65.9711 -65.9711 -65.9708 -65.9708 -65.9706 -65.9706
   -30.4187 -30.4187 -30.4167 -30.4167 -30.3883 -30.3883 -30.3862 -30.3862
   -30.2916 -30.2916 -30.2802 -30.2802 -30.2659 -30.2659 -30.2649 -30.2649
   -30.2551 -30.2551 -30.2522 -30.2522 -30.2416 -30.2416 -30.2294 -30.2294
   -20.1242 -20.1242 -20.1240 -20.1240 -20.1215 -20.1215 -20.1213 -20.1213
   -20.1144 -20.1144 -20.1142 -20.1142 -20.1141 -20.1141 -20.1139 -20.1139
   -20.1113 -20.1113 -20.1105 -20.1105 -20.1102 -20.1102 -20.1100 -20.1100
   -20.1096 -20.1096 -20.1094 -20.1094 -20.1093 -20.1093 -20.1088 -20.1088
   -20.0936 -20.0936 -20.0935 -20.0935 -20.0934 -20.0934 -20.0933 -20.0933
   -20.0517 -20.0517 -20.0513 -20.0513 -20.0501 -20.0501 -20.0500 -20.0500
   -20.0497 -20.0497 -20.0491 -20.0491 -20.0487 -20.0487 -20.0481 -20.0481
    -9.2732  -9.2732  -9.0547  -9.0546  -8.9895  -8.9895  -8.6325  -8.6325
    -8.5991  -8.5991  -8.4782  -8.4782  -8.4188  -8.4187  -8.3804  -8.3804
    -8.1478  -8.1478  -8.1297  -8.1297  -8.0621  -8.0621  -8.0236  -8.0236
     2.2628   2.2628   2.3549   2.3549   2.3964   2.3964   2.5346   2.5346
     3.1004   3.1004   3.1568   3.1568   3.2278   3.2278   3.3233   3.3233
     3.4002   3.4002   3.6530   3.6530   3.7583   3.7583   3.8557   3.8557
     4.0380   4.0380   4.1111   4.1111   4.1609   4.1609   4.2641   4.2641
     4.3582   4.3582   4.5029   4.5029   4.6363   4.6363   4.8578   4.8578
     4.9776   4.9776   5.0431   5.0431   5.1159   5.1159   5.3206   5.3206
     6.8546   6.8546   6.9136   6.9136   6.9787   6.9787   7.0402   7.0402
     7.1824   7.1824   7.3134   7.3134   7.4182   7.4182   7.5198   7.5198
     7.5705   7.5705   7.6419   7.6419   7.6649   7.6649   7.7835   7.7835
    11.3106  11.3106  11.5861  11.5861  11.6713  11.6713  11.9094  11.9094
    12.1180  12.1180  12.3820  12.3820  12.4346  12.4346  12.4868  12.4868
    12.7758  12.7758  12.8700  12.8700  12.9404  12.9404  13.3546  13.3546
    15.9590  15.9590  16.4420  16.4420  16.5552  16.5552  16.7831  16.7831
    17.1882  17.1882  17.3161  17.3161  17.5878  17.5878

          k =-0.5000 0.3169-0.4999 ( 62400 PWs)   bands (ev):

   -65.9711 -65.9711 -65.9711 -65.9711 -65.9709 -65.9709 -65.9709 -65.9709
   -30.4177 -30.4177 -30.4177 -30.4177 -30.3873 -30.3873 -30.3872 -30.3872
   -30.2679 -30.2679 -30.2679 -30.2679 -30.2665 -30.2664 -30.2664 -30.2664
   -30.2536 -30.2536 -30.2536 -30.2535 -30.2526 -30.2526 -30.2526 -30.2526
   -20.1242 -20.1241 -20.1241 -20.1241 -20.1214 -20.1214 -20.1214 -20.1214
   -20.1142 -20.1142 -20.1142 -20.1142 -20.1141 -20.1141 -20.1141 -20.1141
   -20.1107 -20.1106 -20.1106 -20.1106 -20.1101 -20.1101 -20.1099 -20.1099
   -20.1098 -20.1098 -20.1097 -20.1097 -20.1092 -20.1092 -20.1092 -20.1092
   -20.0935 -20.0935 -20.0935 -20.0935 -20.0934 -20.0934 -20.0934 -20.0934
   -20.0504 -20.0504 -20.0504 -20.0504 -20.0504 -20.0504 -20.0503 -20.0503
   -20.0494 -20.0494 -20.0493 -20.0493 -20.0493 -20.0493 -20.0493 -20.0492
    -9.0961  -9.0961  -9.0936  -9.0936  -8.7817  -8.7817  -8.7741  -8.7741
    -8.4846  -8.4846  -8.4704  -8.4704  -8.3490  -8.3490  -8.3414  -8.3414
    -8.3340  -8.3340  -8.3182  -8.3181  -8.1160  -8.1160  -8.1146  -8.1146
     2.3907   2.3907   2.3916   2.3916   3.0561   3.0561   3.0675   3.0675
     3.1619   3.1619   3.1631   3.1631   3.2826   3.2826   3.3066   3.3066
     3.3676   3.3676   3.3758   3.3758   3.9507   3.9507   3.9894   3.9894
     4.0049   4.0049   4.0289   4.0289   4.0918   4.0918   4.1135   4.1135
     4.3518   4.3518   4.3770   4.3770   4.3988   4.3988   4.4032   4.4032
     4.7308   4.7309   4.7310   4.7310   5.0465   5.0465   5.0491   5.0491
     6.9087   6.9087   6.9237   6.9237   7.0112   7.0112   7.0241   7.0241
     7.4087   7.4088   7.4133   7.4133   7.4969   7.4969   7.5142   7.5142
     7.6178   7.6178   7.6185   7.6185   7.7069   7.7069   7.7157   7.7157
    11.8077  11.8077  11.8236  11.8236  11.8824  11.8824  11.8968  11.8968
    12.1171  12.1171  12.1226  12.1226  12.3545  12.3545  12.3578  12.3578
    12.7308  12.7308  12.7432  12.7432  12.9308  12.9308  12.9400  12.9400
    16.3131  16.3131  16.3137  16.3137  16.9029  16.9029  16.9178  16.9178
    17.4350  17.4350  17.4620  17.4620  17.9620  17.9623

          k =-0.5000-0.4753 0.0000 ( 62372 PWs)   bands (ev):

   -65.9715 -65.9715 -65.9714 -65.9714 -65.9705 -65.9705 -65.9705 -65.9705
   -30.4048 -30.4048 -30.4037 -30.4037 -30.4006 -30.4006 -30.4001 -30.4001
   -30.3159 -30.3159 -30.3044 -30.3044 -30.2677 -30.2677 -30.2635 -30.2635
   -30.2560 -30.2560 -30.2510 -30.2510 -30.2173 -30.2173 -30.2048 -30.2048
   -20.1230 -20.1230 -20.1229 -20.1229 -20.1226 -20.1226 -20.1225 -20.1225
   -20.1147 -20.1147 -20.1142 -20.1142 -20.1140 -20.1140 -20.1138 -20.1138
   -20.1120 -20.1120 -20.1111 -20.1111 -20.1100 -20.1100 -20.1098 -20.1098
   -20.1097 -20.1097 -20.1095 -20.1095 -20.1086 -20.1086 -20.1085 -20.1085
   -20.0937 -20.0937 -20.0937 -20.0937 -20.0933 -20.0933 -20.0933 -20.0933
   -20.0530 -20.0530 -20.0525 -20.0524 -20.0506 -20.0506 -20.0503 -20.0503
   -20.0493 -20.0492 -20.0487 -20.0487 -20.0473 -20.0473 -20.0467 -20.0467
    -9.4343  -9.4343  -9.4112  -9.4112  -8.6863  -8.6863  -8.6689  -8.6689
    -8.5832  -8.5832  -8.5718  -8.5718  -8.3874  -8.3874  -8.3657  -8.3657
    -8.3141  -8.3141  -8.2911  -8.2911  -7.6504  -7.6504  -7.6230  -7.6230
     1.4046   1.4046   1.4296   1.4296   3.0157   3.0157   3.0820   3.0821
     3.1737   3.1737   3.1918   3.1918   3.2249   3.2249   3.2306   3.2306
     3.3499   3.3499   3.3707   3.3707   3.4669   3.4669   3.5212   3.5212
     3.5750   3.5750   3.7272   3.7272   4.2972   4.2972   4.3319   4.3319
     4.3923   4.3923   4.4483   4.4483   5.2206   5.2206   5.2413   5.2413
     5.5262   5.5262   5.5556   5.5556   6.3584   6.3584   6.3673   6.3673
     6.5416   6.5416   6.5735   6.5735   6.6330   6.6330   6.6734   6.6734
     7.2854   7.2854   7.3145   7.3145   7.3268   7.3269   7.4345   7.4345
     7.4561   7.4561   7.5097   7.5097   7.6184   7.6184   7.6312   7.6312
    11.2412  11.2412  11.2665  11.2665  11.3699  11.3699  11.3835  11.3835
    12.3065  12.3065  12.3330  12.3330  12.3816  12.3816  12.4018  12.4018
    12.9508  12.9508  12.9813  12.9813  13.6335  13.6335  13.6490  13.6490
    15.5596  15.5596  15.6038  15.6038  16.7800  16.7800  16.8198  16.8198
    17.3987  17.3987  17.4337  17.4337  17.5462  17.5462

          k =-0.5000-0.4753 0.1666 ( 62340 PWs)   bands (ev):

   -65.9714 -65.9714 -65.9714 -65.9714 -65.9706 -65.9706 -65.9705 -65.9705
   -30.4045 -30.4045 -30.4036 -30.4036 -30.4009 -30.4009 -30.4004 -30.4004
   -30.3094 -30.3094 -30.2978 -30.2978 -30.2673 -30.2673 -30.2639 -30.2639
   -30.2557 -30.2557 -30.2513 -30.2513 -30.2239 -30.2239 -30.2114 -30.2114
   -20.1230 -20.1230 -20.1229 -20.1229 -20.1226 -20.1226 -20.1226 -20.1226
   -20.1146 -20.1146 -20.1142 -20.1142 -20.1140 -20.1140 -20.1139 -20.1138
   -20.1118 -20.1118 -20.1109 -20.1109 -20.1100 -20.1100 -20.1099 -20.1099
   -20.1097 -20.1097 -20.1095 -20.1095 -20.1087 -20.1087 -20.1087 -20.1087
   -20.0937 -20.0937 -20.0936 -20.0936 -20.0933 -20.0933 -20.0933 -20.0933
   -20.0527 -20.0527 -20.0521 -20.0521 -20.0505 -20.0505 -20.0502 -20.0502
   -20.0494 -20.0494 -20.0488 -20.0488 -20.0477 -20.0477 -20.0471 -20.0471
    -9.3561  -9.3561  -9.3346  -9.3346  -8.7045  -8.7045  -8.6871  -8.6871
    -8.5658  -8.5658  -8.5540  -8.5540  -8.3846  -8.3846  -8.3634  -8.3634
    -8.3161  -8.3161  -8.2936  -8.2935  -7.7727  -7.7727  -7.7454  -7.7454
     1.6620   1.6620   1.6862   1.6862   3.0222   3.0222   3.0858   3.0858
     3.1620   3.1620   3.1818   3.1818   3.2323   3.2323   3.2937   3.2937
     3.3454   3.3454   3.4544   3.4544   3.5158   3.5158   3.5737   3.5737
     3.6139   3.6139   3.7560   3.7560   4.3011   4.3011   4.3308   4.3309
     4.3859   4.3859   4.4409   4.4409   4.8992   4.8992   5.0592   5.0592
     5.1762   5.1762   5.3206   5.3206   5.9313   5.9313   5.9459   5.9459
     6.7507   6.7507   6.8061   6.8061   6.8916   6.8916   6.9308   6.9308
     7.2805   7.2805   7.3033   7.3033   7.3612   7.3613   7.4234   7.4234
     7.4572   7.4573   7.5163   7.5163   7.6287   7.6287   7.6550   7.6550
    11.3053  11.3053  11.3521  11.3521  11.4640  11.4640  11.5372  11.5372
    12.3068  12.3068  12.3387  12.3387  12.3805  12.3805  12.4104  12.4104
    12.8573  12.8573  12.9328  12.9328  13.4595  13.4595  13.5108  13.5108
    15.8236  15.8236  15.8691  15.8691  16.8391  16.8391  16.8773  16.8774
    17.3995  17.3995  17.4435  17.4435  17.5363  17.5363

          k =-0.5000-0.4753 0.3333 ( 62320 PWs)   bands (ev):

   -65.9712 -65.9712 -65.9712 -65.9712 -65.9707 -65.9707 -65.9707 -65.9707
   -30.4037 -30.4037 -30.4032 -30.4032 -30.4016 -30.4016 -30.4013 -30.4013
   -30.2916 -30.2916 -30.2802 -30.2802 -30.2659 -30.2659 -30.2649 -30.2649
   -30.2552 -30.2552 -30.2522 -30.2522 -30.2416 -30.2416 -30.2294 -30.2294
   -20.1229 -20.1229 -20.1228 -20.1228 -20.1227 -20.1227 -20.1227 -20.1227
   -20.1144 -20.1144 -20.1142 -20.1142 -20.1141 -20.1141 -20.1140 -20.1140
   -20.1112 -20.1112 -20.1105 -20.1105 -20.1100 -20.1100 -20.1099 -20.1099
   -20.1099 -20.1099 -20.1094 -20.1094 -20.1092 -20.1092 -20.1090 -20.1090
   -20.0936 -20.0936 -20.0936 -20.0935 -20.0934 -20.0934 -20.0934 -20.0934
   -20.0517 -20.0517 -20.0513 -20.0513 -20.0501 -20.0501 -20.0500 -20.0500
   -20.0497 -20.0497 -20.0491 -20.0491 -20.0487 -20.0487 -20.0481 -20.0481
    -9.1468  -9.1468  -9.1314  -9.1314  -8.7643  -8.7643  -8.7491  -8.7491
    -8.5055  -8.5055  -8.4950  -8.4950  -8.3776  -8.3776  -8.3599  -8.3599
    -8.3196  -8.3196  -8.2994  -8.2994  -8.0643  -8.0643  -8.0393  -8.0393
     2.3407   2.3407   2.3627   2.3627   3.0363   3.0363   3.0760   3.0760
     3.1546   3.1546   3.1770   3.1770   3.2859   3.2859   3.3123   3.3123
     3.4264   3.4264   3.4668   3.4668   3.6640   3.6640   3.7007   3.7007
     3.8297   3.8297   3.8971   3.8971   4.2715   4.2715   4.2962   4.2962
     4.3478   4.3478   4.4046   4.4046   4.4812   4.4812   4.5938   4.5938
     4.6790   4.6790   4.8289   4.8289   5.1224   5.1224   5.1412   5.1412
     7.0119   7.0119   7.0777   7.0777   7.1941   7.1941   7.2166   7.2166
     7.2879   7.2879   7.3237   7.3237   7.3646   7.3646   7.4173   7.4173
     7.5007   7.5007   7.5673   7.5673   7.6488   7.6488   7.6745   7.6745
    11.5428  11.5428  11.5873  11.5873  11.8068  11.8068  11.8959  11.8959
    12.2679  12.2679  12.3242  12.3242  12.3736  12.3736  12.4155  12.4155
    12.5812  12.5812  12.6992  12.6992  13.0295  13.0295  13.1133  13.1133
    16.5362  16.5362  16.6018  16.6018  17.0222  17.0222  17.0401  17.0401
    17.3559  17.3559  17.4486  17.4486  17.5115  17.5115

          k =-0.5000-0.4753-0.4999 ( 62376 PWs)   bands (ev):

   -65.9710 -65.9710 -65.9710 -65.9710 -65.9710 -65.9710 -65.9710 -65.9710
   -30.4027 -30.4027 -30.4025 -30.4025 -30.4024 -30.4024 -30.4023 -30.4023
   -30.2677 -30.2677 -30.2675 -30.2674 -30.2669 -30.2669 -30.2667 -30.2667
   -30.2536 -30.2536 -30.2533 -30.2533 -30.2529 -30.2529 -30.2527 -30.2527
   -20.1228 -20.1228 -20.1228 -20.1228 -20.1228 -20.1228 -20.1228 -20.1228
   -20.1142 -20.1142 -20.1141 -20.1141 -20.1141 -20.1141 -20.1141 -20.1141
   -20.1105 -20.1105 -20.1104 -20.1104 -20.1101 -20.1101 -20.1100 -20.1100
   -20.1098 -20.1098 -20.1097 -20.1097 -20.1093 -20.1093 -20.1093 -20.1093
   -20.0935 -20.0935 -20.0935 -20.0935 -20.0934 -20.0934 -20.0934 -20.0934
   -20.0504 -20.0504 -20.0504 -20.0504 -20.0504 -20.0504 -20.0503 -20.0503
   -20.0494 -20.0494 -20.0493 -20.0493 -20.0493 -20.0493 -20.0493 -20.0492
    -8.9103  -8.9103  -8.8995  -8.8995  -8.8977  -8.8977  -8.8965  -8.8965
    -8.3941  -8.3941  -8.3677  -8.3677  -8.3656  -8.3656  -8.3639  -8.3639
    -8.3210  -8.3210  -8.3187  -8.3187  -8.3044  -8.3044  -8.2971  -8.2971
     3.0329   3.0329   3.0355   3.0355   3.0464   3.0464   3.0550   3.0550
     3.2128   3.2128   3.2133   3.2133   3.2270   3.2270   3.2386   3.2386
     3.4160   3.4160   3.4811   3.4811   3.4989   3.4989   3.5347   3.5347
     4.1806   4.1806   4.1916   4.1916   4.1951   4.1951   4.1975   4.1975
     4.3764   4.3764   4.3818   4.3818   4.3976   4.3976   4.4051   4.4051
     4.4766   4.4767   4.5007   4.5007   4.5010   4.5010   4.5071   4.5071
     7.1338   7.1338   7.1922   7.1922   7.2121   7.2122   7.2891   7.2891
     7.3462   7.3462   7.3564   7.3564   7.3612   7.3612   7.3626   7.3626
     7.6195   7.6195   7.6296   7.6296   7.6358   7.6358   7.6557   7.6557
    11.9303  11.9303  11.9324  11.9324  11.9350  11.9350  11.9418  11.9418
    12.2719  12.2719  12.3202  12.3202  12.3397  12.3397  12.4109  12.4109
    12.5669  12.5669  12.6007  12.6007  12.6102  12.6102  12.6276  12.6276
    17.1065  17.1065  17.1350  17.1350  17.1471  17.1471  17.1830  17.1830
    17.4349  17.4349  17.4412  17.4412  17.4500  17.4500

     the Fermi energy is    10.0383 ev

!    total energy              =   -6260.39297537 Ry
     Harris-Foulkes estimate   =   -6260.39297538 Ry
     estimated scf accuracy    <          6.9E-09 Ry

     The total energy is the sum of the following terms:

     one-electron contribution =   -4729.27323122 Ry
     hartree contribution      =    2603.99875078 Ry
     xc contribution           =    -966.77565427 Ry
     ewald contribution        =   -3168.34277092 Ry
     smearing contrib. (-TS)   =      -0.00006976 Ry

     convergence has been achieved in  14 iterations

     Writing output data file Landau_5.save
 
     init_run     :     27.60s CPU     29.30s WALL (       1 calls)
     electrons    :   1181.19s CPU   1215.95s WALL (       1 calls)

     Called by init_run:
     wfcinit      :     25.10s CPU     26.65s WALL (       1 calls)
     potinit      :      1.05s CPU      1.08s WALL (       1 calls)

     Called by electrons:
     c_bands      :   1040.82s CPU   1073.41s WALL (      14 calls)
     sum_band     :    133.87s CPU    134.96s WALL (      14 calls)
     v_of_rho     :      1.24s CPU      1.27s WALL (      15 calls)
     mix_rho      :      2.15s CPU      2.72s WALL (      14 calls)

     Called by c_bands:
     init_us_2    :      7.50s CPU      8.13s WALL (      58 calls)
     cegterg      :    837.39s CPU    868.35s WALL (      28 calls)

     Called by sum_band:

     Called by *egterg:
     h_psi        :    674.79s CPU    679.28s WALL (     124 calls)
     g_psi        :      1.42s CPU      1.42s WALL (      94 calls)
     cdiaghg      :     12.36s CPU     12.42s WALL (     122 calls)

     Called by h_psi:
     h_psi:pot    :    670.49s CPU    674.68s WALL (     124 calls)
     h_psi:calbec :     67.32s CPU     69.24s WALL (     124 calls)
     vloc_psi     :    529.57s CPU    531.41s WALL (     124 calls)
     add_vuspsi   :     73.60s CPU     74.03s WALL (     124 calls)

     General routines
     calbec       :     67.32s CPU     69.24s WALL (     124 calls)
     fft          :      0.92s CPU      0.93s WALL (      60 calls)
     fftw         :    554.91s CPU    556.45s WALL (   36076 calls)
 
     Parallel routines
 
     PWSCF        : 20m10.71s CPU    20m52.72s WALL

 
   This run was terminated on:  22:49:33  25Mar2020            

=------------------------------------------------------------------------------=
   JOB DONE.
=------------------------------------------------------------------------------=
