
     Program PWSCF v.6.2 (svn rev. 14038) starts on 10Sep2019 at 19: 2: 8 

     This program is part of the open-source Quantum ESPRESSO suite
     for quantum simulation of materials; please cite
         "P. Giannozzi et al., J. Phys.:Condens. Matter 21 395502 (2009);
         "P. Giannozzi et al., J. Phys.:Condens. Matter 29 465901 (2017);
          URL http://www.quantum-espresso.org", 
     in publications or presentations arising from this work. More details at
     http://www.quantum-espresso.org/quote

     Parallel version (MPI), running on    40 processors

     MPI processes distributed on     6 nodes
     K-points division:     npool     =      40
     Reading input from scf.in

     Current dimensions of program PWSCF are:
     Max number of different atomic species (ntypx) = 10
     Max number of k-points (npk) =  40000
     Max angular momentum in pseudopotentials (lmaxx) =  3

     Subspace diagonalization in iterative solution of the eigenvalue problem:
     a serial algorithm will be used

 
     G-vector sticks info
     --------------------
     sticks:   dense  smooth     PW     G-vecs:    dense   smooth      PW
     Sum        7583    7583   2029               489747   489747   67955
 


     bravais-lattice index     =            0
     lattice parameter (alat)  =      13.8835  a.u.
     unit-cell volume          =    2758.0255 (a.u.)^3
     number of atoms/cell      =           32
     number of atomic types    =            2
     number of electrons       =       368.15
     number of Kohn-Sham states=          221
     kinetic-energy cutoff     =     120.0000  Ry
     charge density cutoff     =     480.0000  Ry
     convergence threshold     =      1.0E-08
     mixing beta               =       0.7000
     number of iterations used =            8  plain     mixing
     Exchange-correlation      = SLA PW NOGX NOGC ( 1  4  0  0 0 0)

     celldm(1)=  13.883470  celldm(2)=   0.000000  celldm(3)=   0.000000
     celldm(4)=   0.000000  celldm(5)=   0.000000  celldm(6)=   0.000000

     crystal axes: (cart. coord. in units of alat)
               a(1) = (   1.000000   0.000000   0.000000 )  
               a(2) = (   0.000000   1.030633   0.000000 )  
               a(3) = (   0.000000   0.000000   1.000000 )  

     reciprocal axes: (cart. coord. in units 2 pi/alat)
               b(1) = (  1.000000  0.000000  0.000000 )  
               b(2) = (  0.000000  0.970277  0.000000 )  
               b(3) = (  0.000000  0.000000  1.000000 )  


     PseudoPot. # 1 for W  read from file:
     /cluster/scratch/mnoe/QE/pps/W_ONCV_LDA-4.0.upf
     MD5 check sum: ba0307d5d4cd419d6f1d13dc49d7c13a
     Pseudo is Norm-conserving + core correction, Zval = 28.0
     Generated using ONCVPSP code by D. R. Hamann
     Using radial grid of 1380 points,  8 beta functions with: 
                l(1) =   0
                l(2) =   0
                l(3) =   1
                l(4) =   1
                l(5) =   2
                l(6) =   2
                l(7) =   3
                l(8) =   3

     PseudoPot. # 2 for O  read from file:
     /cluster/scratch/mnoe/QE/pps/O_ONCV_LDA-3.0.upf
     MD5 check sum: ca1549d10c4e927e51167f6fca52ae32
     Pseudo is Norm-conserving + core correction, Zval =  6.0
     Generated using ONCVPSP code by D. R. Hamann
     Using radial grid of  926 points,  5 beta functions with: 
                l(1) =   0
                l(2) =   0
                l(3) =   1
                l(4) =   1
                l(5) =   2

     atomic species   valence    mass     pseudopotential
        W             28.00   183.84000     W ( 1.00)
        O              6.00    15.99940     O ( 1.00)

      8 Sym. Ops. (no inversion) found ( 4 have fractional translation)



   Cartesian axes

     site n.     atom                  positions (alat units)
         1           W   tau(   1) = (   0.2778800   0.2904943   0.2508000  )
         2           W   tau(   2) = (  -0.2508000   0.7401390  -0.7221200  )
         3           W   tau(   3) = (   0.2221200   0.2248224   0.7508000  )
         4           W   tau(   4) = (   0.7508000   0.8058109   0.7778800  )
         5           W   tau(   5) = (   0.7221200   0.2904943   0.7492000  )
         6           W   tau(   6) = (   0.2508000   0.7401390   0.7221200  )
         7           W   tau(   7) = (  -0.2221200   0.2248224  -0.7508000  )
         8           W   tau(   8) = (   0.2492000   0.8058109   0.2221200  )
         9           O   tau(   9) = (   0.2806600   0.0085749   0.2722400  )
        10           O   tau(  10) = (  -0.2722399   1.0220585  -0.7193400  )
        11           O   tau(  11) = (   0.2193400   0.5067418   0.7722400  )
        12           O   tau(  12) = (   0.7722400   0.5238915   0.7806600  )
        13           O   tau(  13) = (   0.7193400   0.0085749   0.7277600  )
        14           O   tau(  14) = (   0.2722400   1.0220585   0.7193400  )
        15           O   tau(  15) = (  -0.2193400   0.5067418  -0.7722399  )
        16           O   tau(  16) = (   0.2277600   0.5238915   0.2193400  )
        17           O   tau(  17) = (   0.4901399   0.2917207   0.6995400  )
        18           O   tau(  18) = (   0.4979800   0.7511152   0.8004600  )
        19           O   tau(  19) = (  -0.9901400   0.2235959   1.1995400  )
        20           O   tau(  20) = (   0.0020199   0.7948347   0.3004600  )
        21           O   tau(  21) = (   0.5098601   0.2917207   0.3004600  )
        22           O   tau(  22) = (   0.5020200   0.7511152   1.1995400  )
        23           O   tau(  23) = (  -0.0098601   0.2235959   0.8004600  )
        24           O   tau(  24) = (  -1.0020200   0.7948347   0.6995400  )
        25           O   tau(  25) = (   0.6995400   0.2357986   2.0020200  )
        26           O   tau(  26) = (   0.3004600   0.7389125   0.4901400  )
        27           O   tau(  27) = (   0.8004600   0.2795181   0.5020199  )
        28           O   tau(  28) = (   0.1995400   0.8070373   1.9901400  )
        29           O   tau(  29) = (   0.3004600   0.2357986   0.9979801  )
        30           O   tau(  30) = (   0.6995400   0.7389125   0.5098600  )
        31           O   tau(  31) = (   0.1995400   0.2795181   0.4979800  )
        32           O   tau(  32) = (   0.8004600   0.8070373   1.0098601  )

     number of k points=    40  gaussian smearing, width (Ry)=  0.0007
                       cart. coord. in units 2pi/alat
        k(    1) = (   0.0000000   0.0000000   0.0000000), wk =   0.0092593
        k(    2) = (   0.0000000   0.0000000   0.1666667), wk =   0.0370370
        k(    3) = (   0.0000000   0.0000000   0.3333333), wk =   0.0370370
        k(    4) = (   0.0000000   0.0000000  -0.5000000), wk =   0.0185185
        k(    5) = (   0.0000000   0.1617129   0.0000000), wk =   0.0185185
        k(    6) = (   0.0000000   0.1617129   0.1666667), wk =   0.0740741
        k(    7) = (   0.0000000   0.1617129   0.3333333), wk =   0.0740741
        k(    8) = (   0.0000000   0.1617129  -0.5000000), wk =   0.0370370
        k(    9) = (   0.0000000   0.3234257   0.0000000), wk =   0.0185185
        k(   10) = (   0.0000000   0.3234257   0.1666667), wk =   0.0740741
        k(   11) = (   0.0000000   0.3234257   0.3333333), wk =   0.0740741
        k(   12) = (   0.0000000   0.3234257  -0.5000000), wk =   0.0370370
        k(   13) = (   0.0000000  -0.4851386   0.0000000), wk =   0.0092593
        k(   14) = (   0.0000000  -0.4851386   0.1666667), wk =   0.0370370
        k(   15) = (   0.0000000  -0.4851386   0.3333333), wk =   0.0370370
        k(   16) = (   0.0000000  -0.4851386  -0.5000000), wk =   0.0185185
        k(   17) = (   0.1666667   0.0000000   0.1666667), wk =   0.0370370
        k(   18) = (   0.1666667   0.0000000   0.3333333), wk =   0.0740741
        k(   19) = (   0.1666667   0.0000000  -0.5000000), wk =   0.0370370
        k(   20) = (   0.1666667   0.1617129   0.1666667), wk =   0.0740741
        k(   21) = (   0.1666667   0.1617129   0.3333333), wk =   0.1481481
        k(   22) = (   0.1666667   0.1617129  -0.5000000), wk =   0.0740741
        k(   23) = (   0.1666667   0.3234257   0.1666667), wk =   0.0740741
        k(   24) = (   0.1666667   0.3234257   0.3333333), wk =   0.1481481
        k(   25) = (   0.1666667   0.3234257  -0.5000000), wk =   0.0740741
        k(   26) = (   0.1666667  -0.4851386   0.1666667), wk =   0.0370370
        k(   27) = (   0.1666667  -0.4851386   0.3333333), wk =   0.0740741
        k(   28) = (   0.1666667  -0.4851386  -0.5000000), wk =   0.0370370
        k(   29) = (   0.3333333   0.0000000   0.3333333), wk =   0.0370370
        k(   30) = (   0.3333333   0.0000000  -0.5000000), wk =   0.0370370
        k(   31) = (   0.3333333   0.1617129   0.3333333), wk =   0.0740741
        k(   32) = (   0.3333333   0.1617129  -0.5000000), wk =   0.0740741
        k(   33) = (   0.3333333   0.3234257   0.3333333), wk =   0.0740741
        k(   34) = (   0.3333333   0.3234257  -0.5000000), wk =   0.0740741
        k(   35) = (   0.3333333  -0.4851386   0.3333333), wk =   0.0370370
        k(   36) = (   0.3333333  -0.4851386  -0.5000000), wk =   0.0370370
        k(   37) = (  -0.5000000   0.0000000  -0.5000000), wk =   0.0092593
        k(   38) = (  -0.5000000   0.1617129  -0.5000000), wk =   0.0185185
        k(   39) = (  -0.5000000   0.3234257  -0.5000000), wk =   0.0185185
        k(   40) = (  -0.5000000  -0.4851386  -0.5000000), wk =   0.0092593

     Dense  grid:   489747 G-vectors     FFT dimensions: ( 100, 100, 100)

     Estimated max dynamical RAM per process >       2.67 GB

     Estimated total dynamical RAM >     106.73 GB

     Initial potential from superposition of free atoms

     starting charge  367.99656, renormalised to  368.15000
     Starting wfc are  232 randomized atomic wfcs

     total cpu time spent up to now is       24.9 secs

     Self-consistent Calculation

     iteration #  1     ecut=   120.00 Ry     beta= 0.70
     Davidson diagonalization with overlap
     ethr =  1.00E-02,  avg # of iterations =  4.8

     total cpu time spent up to now is      108.9 secs

     total energy              =   -6253.87318246 Ry
     Harris-Foulkes estimate   =   -6264.42113848 Ry
     estimated scf accuracy    <      13.34433623 Ry

     iteration #  2     ecut=   120.00 Ry     beta= 0.70
     Davidson diagonalization with overlap
     ethr =  3.62E-03,  avg # of iterations =  3.6

     total cpu time spent up to now is      190.0 secs

     total energy              =   -6250.64941525 Ry
     Harris-Foulkes estimate   =   -6270.54507415 Ry
     estimated scf accuracy    <      53.47422586 Ry

     iteration #  3     ecut=   120.00 Ry     beta= 0.70
     Davidson diagonalization with overlap
     ethr =  3.62E-03,  avg # of iterations =  3.4

     total cpu time spent up to now is      268.2 secs

     total energy              =   -6260.94778044 Ry
     Harris-Foulkes estimate   =   -6261.22774465 Ry
     estimated scf accuracy    <       0.90762598 Ry

     iteration #  4     ecut=   120.00 Ry     beta= 0.70
     Davidson diagonalization with overlap
     ethr =  2.47E-04,  avg # of iterations =  2.6

     total cpu time spent up to now is      331.5 secs

     total energy              =   -6260.95010720 Ry
     Harris-Foulkes estimate   =   -6261.01923749 Ry
     estimated scf accuracy    <       0.21998538 Ry

     iteration #  5     ecut=   120.00 Ry     beta= 0.70
     Davidson diagonalization with overlap
     ethr =  5.98E-05,  avg # of iterations =  5.5

     total cpu time spent up to now is      400.1 secs

     total energy              =   -6260.95112407 Ry
     Harris-Foulkes estimate   =   -6260.98238669 Ry
     estimated scf accuracy    <       0.06858728 Ry

     iteration #  6     ecut=   120.00 Ry     beta= 0.70
     Davidson diagonalization with overlap
     ethr =  1.86E-05,  avg # of iterations =  5.2

     total cpu time spent up to now is      472.6 secs

     total energy              =   -6260.96630445 Ry
     Harris-Foulkes estimate   =   -6260.96854753 Ry
     estimated scf accuracy    <       0.00604853 Ry

     iteration #  7     ecut=   120.00 Ry     beta= 0.70
     Davidson diagonalization with overlap
     ethr =  1.64E-06,  avg # of iterations =  4.3

     total cpu time spent up to now is      538.5 secs

     total energy              =   -6260.96702844 Ry
     Harris-Foulkes estimate   =   -6260.96713743 Ry
     estimated scf accuracy    <       0.00020760 Ry

     iteration #  8     ecut=   120.00 Ry     beta= 0.70
     Davidson diagonalization with overlap
     ethr =  5.64E-08,  avg # of iterations =  3.0

     total cpu time spent up to now is      619.9 secs

     total energy              =   -6260.96710109 Ry
     Harris-Foulkes estimate   =   -6260.96711168 Ry
     estimated scf accuracy    <       0.00003480 Ry

     iteration #  9     ecut=   120.00 Ry     beta= 0.70
     Davidson diagonalization with overlap
     ethr =  9.45E-09,  avg # of iterations =  2.1

     total cpu time spent up to now is      685.3 secs

     total energy              =   -6260.96710294 Ry
     Harris-Foulkes estimate   =   -6260.96710645 Ry
     estimated scf accuracy    <       0.00001477 Ry

     iteration # 10     ecut=   120.00 Ry     beta= 0.70
     Davidson diagonalization with overlap
     ethr =  4.01E-09,  avg # of iterations =  2.0

     total cpu time spent up to now is      746.7 secs

     total energy              =   -6260.96710217 Ry
     Harris-Foulkes estimate   =   -6260.96710427 Ry
     estimated scf accuracy    <       0.00000498 Ry

     iteration # 11     ecut=   120.00 Ry     beta= 0.70
     Davidson diagonalization with overlap
     ethr =  1.35E-09,  avg # of iterations =  2.8

     total cpu time spent up to now is      811.2 secs

     total energy              =   -6260.96710317 Ry
     Harris-Foulkes estimate   =   -6260.96710320 Ry
     estimated scf accuracy    <       0.00000006 Ry

     iteration # 12     ecut=   120.00 Ry     beta= 0.70
     Davidson diagonalization with overlap
     ethr =  1.61E-11,  avg # of iterations =  3.0

     total cpu time spent up to now is      894.4 secs

     total energy              =   -6260.96710319 Ry
     Harris-Foulkes estimate   =   -6260.96710320 Ry
     estimated scf accuracy    <       0.00000001 Ry

     iteration # 13     ecut=   120.00 Ry     beta= 0.70
     Davidson diagonalization with overlap
     ethr =  2.88E-12,  avg # of iterations =  2.2

     total cpu time spent up to now is      967.8 secs

     End of self-consistent calculation

          k = 0.0000 0.0000 0.0000 ( 61317 PWs)   bands (ev):

   -65.8209 -65.8203 -65.8199 -65.8199 -65.8193 -65.8193 -65.8190 -65.8184
   -30.3058 -30.3001 -30.2979 -30.2979 -30.2320 -30.2285 -30.2285 -30.2107
   -30.1893 -30.1741 -30.1740 -30.1598 -30.1202 -30.1151 -30.1151 -30.1110
   -30.1091 -30.1082 -30.0995 -30.0995 -30.0234 -30.0234 -30.0187 -30.0171
   -19.9732 -19.9731 -19.9728 -19.9728 -19.9727 -19.9726 -19.9724 -19.9723
   -19.9595 -19.9594 -19.9594 -19.9591 -19.9591 -19.9587 -19.9587 -19.9587
   -19.9546 -19.9540 -19.9540 -19.9539 -19.9503 -19.9497 -19.9497 -19.9489
   -19.9459 -19.9451 -19.9451 -19.9444 -19.9406 -19.9396 -19.9396 -19.9389
   -19.9389 -19.9388 -19.9387 -19.9387 -19.9370 -19.9370 -19.9364 -19.9356
   -19.9316 -19.9315 -19.9300 -19.9299 -19.9274 -19.9273 -19.9265 -19.9263
   -19.9235 -19.9231 -19.9228 -19.9228 -19.9205 -19.9205 -19.9200 -19.9197
    -9.6871  -9.3640  -9.2608  -9.2608  -8.8502  -8.8502  -8.7884  -8.6772
    -8.6067  -8.5044  -8.4844  -8.4844  -7.7745  -7.7099  -7.5983  -7.5983
    -7.5105  -7.4431  -7.4431  -7.4074  -7.4046  -7.3906  -7.2587  -7.2587
     1.5906   1.6293   1.6459   1.6459   1.7921   1.8413   1.8413   1.9025
     1.9979   1.9979   2.0947   2.2841   2.6428   2.7371   2.7683   2.9166
     2.9771   2.9771   4.4443   4.4443   4.7753   4.7824   4.7999   4.9491
     4.9491   5.0554   5.0554   5.0687   5.3974   5.3974   5.5430   5.6244
     5.6470   5.7301   5.7301   5.7982   5.9265   5.9265   6.0352   6.0403
     6.0510   6.0510   6.0889   6.1275   6.1275   6.1952   6.2586   6.3503
     6.4378   6.6950   6.6950   6.6959   6.7538   6.7689   7.1284   7.1284
     7.1326   7.2018   7.2058   7.2716   7.2716   7.3696   7.3696   7.3984
     7.7286   7.7286   7.9424   7.9806   8.1799   8.2550   8.2550   8.4117
    10.1078  10.1939  10.4954  10.4991  10.4991  10.5367  12.4668  12.4669
    12.5499  12.5988  12.5988  12.8335  12.8963  13.0282  13.0282  13.2156
    13.3541  13.5349  13.5349  13.5760  13.9533  14.0349  14.0349  14.2888
    14.8966  15.0820  15.0820  15.1952  15.6358  15.8208  15.9763  16.1863
    16.1863  16.9470  17.1967  17.1967  17.9089

          k = 0.0000 0.0000 0.1667 ( 61237 PWs)   bands (ev):

   -65.8208 -65.8202 -65.8200 -65.8199 -65.8194 -65.8192 -65.8190 -65.8184
   -30.3039 -30.2983 -30.2961 -30.2924 -30.2342 -30.2323 -30.2279 -30.2134
   -30.1888 -30.1758 -30.1735 -30.1614 -30.1201 -30.1155 -30.1150 -30.1096
   -30.1088 -30.1036 -30.1005 -30.0943 -30.0292 -30.0236 -30.0231 -30.0182
   -19.9732 -19.9730 -19.9729 -19.9728 -19.9727 -19.9726 -19.9724 -19.9723
   -19.9595 -19.9594 -19.9594 -19.9591 -19.9591 -19.9588 -19.9587 -19.9587
   -19.9544 -19.9540 -19.9537 -19.9536 -19.9505 -19.9499 -19.9497 -19.9491
   -19.9459 -19.9452 -19.9450 -19.9445 -19.9405 -19.9397 -19.9396 -19.9390
   -19.9389 -19.9387 -19.9387 -19.9386 -19.9371 -19.9369 -19.9366 -19.9357
   -19.9315 -19.9312 -19.9301 -19.9297 -19.9276 -19.9273 -19.9267 -19.9265
   -19.9234 -19.9230 -19.9228 -19.9227 -19.9207 -19.9204 -19.9202 -19.9198
    -9.6430  -9.3128  -9.2785  -9.1995  -8.8674  -8.7994  -8.7878  -8.6556
    -8.5740  -8.4918  -8.4755  -8.4426  -7.8473  -7.7287  -7.6999  -7.6063
    -7.5159  -7.5050  -7.4497  -7.4486  -7.4088  -7.3885  -7.3686  -7.2676
     1.6217   1.6419   1.7871   1.8113   1.8255   1.8407   1.8986   1.9642
     1.9983   2.1648   2.2315   2.4133   2.7202   2.7827   2.8567   2.9674
     2.9722   3.0677   4.3390   4.4336   4.5555   4.6743   4.7124   4.7686
     4.8023   5.0049   5.0251   5.0481   5.1359   5.3701   5.5167   5.5532
     5.6599   5.6922   5.7631   5.7709   5.8455   5.8801   5.9409   6.0226
     6.0399   6.0759   6.0841   6.0885   6.1086   6.1603   6.2711   6.3748
     6.4302   6.6686   6.7256   6.7854   6.8301   6.9760   7.0259   7.0399
     7.0817   7.1344   7.1647   7.2012   7.3062   7.3322   7.3616   7.4196
     7.5685   7.6177   7.9644   7.9959   8.1687   8.2236   8.2691   8.4014
    10.2980  10.3960  10.4956  10.5731  10.7126  10.8021  12.4250  12.4923
    12.5046  12.6370  12.6545  12.8624  12.9258  12.9604  13.0542  13.2543
    13.3104  13.4785  13.5469  13.5655  13.9241  14.0369  14.0469  14.2201
    14.9006  15.0752  15.1342  15.2718  15.6579  15.8662  15.9359  16.1507
    16.4193  17.0019  17.0962  17.3589  17.9719

          k = 0.0000 0.0000 0.3333 ( 61182 PWs)   bands (ev):

   -65.8206 -65.8202 -65.8200 -65.8197 -65.8195 -65.8192 -65.8191 -65.8186
   -30.3021 -30.2992 -30.2820 -30.2776 -30.2445 -30.2421 -30.2263 -30.2192
   -30.1871 -30.1799 -30.1717 -30.1651 -30.1194 -30.1166 -30.1139 -30.1104
   -30.1080 -30.1029 -30.0876 -30.0797 -30.0448 -30.0388 -30.0221 -30.0194
   -19.9731 -19.9730 -19.9729 -19.9728 -19.9727 -19.9726 -19.9725 -19.9724
   -19.9595 -19.9594 -19.9594 -19.9592 -19.9590 -19.9589 -19.9588 -19.9588
   -19.9542 -19.9541 -19.9529 -19.9528 -19.9509 -19.9507 -19.9496 -19.9493
   -19.9457 -19.9453 -19.9449 -19.9446 -19.9403 -19.9398 -19.9395 -19.9392
   -19.9388 -19.9387 -19.9384 -19.9382 -19.9375 -19.9370 -19.9366 -19.9360
   -19.9313 -19.9305 -19.9304 -19.9290 -19.9282 -19.9272 -19.9271 -19.9267
   -19.9232 -19.9229 -19.9227 -19.9223 -19.9213 -19.9208 -19.9203 -19.9200
    -9.5362  -9.3318  -9.1797  -9.0522  -8.9228  -8.8363  -8.6181  -8.5962
    -8.5123  -8.4973  -8.3425  -8.2941  -8.0915  -7.9806  -7.7761  -7.7431
    -7.6282  -7.6222  -7.5003  -7.4635  -7.4481  -7.4202  -7.3618  -7.2921
     1.6318   1.6354   1.8406   1.8408   1.8781   1.8914   1.9808   2.0028
     2.5384   2.7188   2.7826   2.8222   2.9391   2.9740   2.9773   3.1075
     3.1786   3.3094   3.9555   4.0630   4.1700   4.2269   4.3160   4.5996
     4.7164   4.7321   4.9011   4.9018   4.9592   5.0425   5.2746   5.3273
     5.4820   5.5281   5.6093   5.7136   5.7179   5.7713   5.8997   5.9875
     5.9950   6.0870   6.1246   6.1423   6.2210   6.2656   6.3123   6.4306
     6.4778   6.5586   6.6694   6.7608   6.8104   6.8514   6.9493   6.9681
     7.0689   7.1756   7.1897   7.2496   7.3305   7.3763   7.3822   7.4624
     7.5879   7.6546   7.9263   7.9702   8.0999   8.1211   8.3040   8.3684
    10.4200  10.4817  10.9051  11.0967  11.2040  11.4267  12.1288  12.2320
    12.4303  12.6077  12.6718  12.8310  12.8339  13.0054  13.1261  13.1676
    13.3838  13.3952  13.4396  13.5979  13.8423  13.9541  14.0457  14.1201
    14.9620  15.0551  15.3268  15.4586  15.8097  15.9445  16.0238  16.0974
    16.5960  17.1141  17.5582  17.5804  17.8567

          k = 0.0000 0.0000-0.5000 ( 61148 PWs)   bands (ev):

   -65.8204 -65.8204 -65.8198 -65.8198 -65.8195 -65.8194 -65.8189 -65.8188
   -30.3006 -30.3006 -30.2626 -30.2625 -30.2585 -30.2585 -30.2236 -30.2236
   -30.1841 -30.1840 -30.1689 -30.1688 -30.1181 -30.1181 -30.1123 -30.1123
   -30.1057 -30.1057 -30.0662 -30.0662 -30.0594 -30.0594 -30.0208 -30.0208
   -19.9731 -19.9730 -19.9729 -19.9728 -19.9726 -19.9726 -19.9725 -19.9724
   -19.9594 -19.9594 -19.9593 -19.9593 -19.9590 -19.9590 -19.9588 -19.9588
   -19.9542 -19.9541 -19.9519 -19.9518 -19.9517 -19.9517 -19.9496 -19.9495
   -19.9456 -19.9455 -19.9448 -19.9448 -19.9401 -19.9401 -19.9394 -19.9393
   -19.9387 -19.9387 -19.9380 -19.9379 -19.9377 -19.9376 -19.9363 -19.9363
   -19.9309 -19.9309 -19.9292 -19.9292 -19.9281 -19.9280 -19.9269 -19.9269
   -19.9230 -19.9230 -19.9221 -19.9221 -19.9216 -19.9216 -19.9201 -19.9201
    -9.4206  -9.4205  -9.0287  -9.0287  -8.9144  -8.9144  -8.5442  -8.5442
    -8.3728  -8.3728  -8.3043  -8.3043  -8.0873  -8.0873  -8.0201  -8.0201
    -7.6558  -7.6558  -7.4830  -7.4830  -7.4352  -7.4352  -7.3264  -7.3264
     1.6327   1.6328   1.8423   1.8423   1.8861   1.8861   2.0072   2.0072
     2.8712   2.8712   3.2254   3.2254   3.3469   3.3469   3.4352   3.4352
     3.5221   3.5221   3.6121   3.6121   3.8350   3.8350   4.0415   4.0415
     4.1519   4.1520   4.8341   4.8341   4.8923   4.8923   5.3256   5.3256
     5.4887   5.4888   5.5981   5.5981   5.7068   5.7068   5.9463   5.9463
     6.1135   6.1135   6.1350   6.1351   6.2306   6.2306   6.3842   6.3842
     6.5412   6.5412   6.6253   6.6253   6.7706   6.7707   6.8994   6.8994
     7.1254   7.1255   7.1853   7.1853   7.2867   7.2867   7.7300   7.7301
     7.7748   7.7748   7.8936   7.8936   7.9445   7.9446   8.3340   8.3341
    10.4563  10.4563  11.5509  11.5509  11.7630  11.7630  11.8129  11.8130
    12.1322  12.1322  12.7344  12.7344  13.0475  13.0476  13.1649  13.1649
    13.2550  13.2550  13.6269  13.6269  13.7384  13.7384  14.0704  14.0704
    15.0211  15.0211  15.5907  15.5908  15.7603  15.7603  16.2431  16.2431
    16.7994  16.7994  18.0001  18.0001  18.3238

          k = 0.0000 0.1617 0.0000 ( 61218 PWs)   bands (ev):

   -65.8208 -65.8203 -65.8199 -65.8199 -65.8194 -65.8193 -65.8189 -65.8184
   -30.3053 -30.3004 -30.2978 -30.2977 -30.2298 -30.2274 -30.2274 -30.2115
   -30.1849 -30.1711 -30.1711 -30.1572 -30.1250 -30.1193 -30.1192 -30.1126
   -30.1106 -30.1093 -30.0997 -30.0997 -30.0234 -30.0234 -30.0186 -30.0172
   -19.9732 -19.9731 -19.9728 -19.9728 -19.9727 -19.9727 -19.9724 -19.9723
   -19.9594 -19.9594 -19.9594 -19.9591 -19.9590 -19.9588 -19.9587 -19.9587
   -19.9545 -19.9540 -19.9540 -19.9539 -19.9502 -19.9497 -19.9497 -19.9490
   -19.9455 -19.9448 -19.9447 -19.9441 -19.9408 -19.9400 -19.9399 -19.9393
   -19.9390 -19.9388 -19.9388 -19.9388 -19.9370 -19.9370 -19.9364 -19.9356
   -19.9316 -19.9315 -19.9300 -19.9299 -19.9274 -19.9273 -19.9265 -19.9264
   -19.9234 -19.9231 -19.9228 -19.9228 -19.9205 -19.9205 -19.9200 -19.9197
    -9.6548  -9.3774  -9.2292  -9.2292  -8.8404  -8.8404  -8.7120  -8.6554
    -8.6063  -8.4805  -8.4567  -8.4567  -7.7893  -7.7108  -7.6289  -7.6289
    -7.5912  -7.5151  -7.5144  -7.5144  -7.4067  -7.3923  -7.2591  -7.2591
     1.6011   1.6262   1.6522   1.6522   1.8761   1.8761   1.9204   2.0946
     2.0981   2.1818   2.1818   2.3993   2.6555   2.7601   2.8070   3.0077
     3.0564   3.0564   4.3203   4.3204   4.4609   4.4774   4.7683   4.9318
     4.9318   5.0560   5.0560   5.1449   5.2993   5.2993   5.4534   5.6434
     5.6434   5.6797   5.7654   5.8059   5.8059   5.8219   5.8816   6.0057
     6.0281   6.0281   6.0968   6.1591   6.1591   6.1757   6.3295   6.3441
     6.3817   6.6472   6.7188   6.7711   6.7711   6.7823   7.1123   7.1123
     7.1295   7.2118   7.2441   7.2784   7.2784   7.3117   7.3466   7.3466
     7.7320   7.7320   7.9423   7.9768   8.1666   8.2402   8.2402   8.3415
    10.1440  10.1973  10.6557  10.6557  10.6632  10.7020  12.4595  12.4595
    12.5547  12.5650  12.5650  12.7281  12.8545  13.0111  13.0111  13.0600
    13.3673  13.4914  13.4914  13.6041  14.0135  14.0135  14.0253  14.2105
    14.9668  15.2077  15.2077  15.3603  15.6208  15.8071  16.1794  16.1795
    16.3583  16.7444  17.3328  17.3328  17.9114

          k = 0.0000 0.1617 0.1667 ( 61183 PWs)   bands (ev):

   -65.8208 -65.8202 -65.8200 -65.8198 -65.8194 -65.8193 -65.8190 -65.8185
   -30.3035 -30.2981 -30.2962 -30.2922 -30.2322 -30.2312 -30.2268 -30.2142
   -30.1844 -30.1726 -30.1705 -30.1588 -30.1248 -30.1197 -30.1191 -30.1131
   -30.1096 -30.1037 -30.1007 -30.0945 -30.0292 -30.0236 -30.0231 -30.0182
   -19.9732 -19.9731 -19.9728 -19.9728 -19.9727 -19.9726 -19.9724 -19.9723
   -19.9594 -19.9594 -19.9594 -19.9591 -19.9591 -19.9588 -19.9587 -19.9587
   -19.9544 -19.9540 -19.9537 -19.9536 -19.9504 -19.9499 -19.9497 -19.9491
   -19.9455 -19.9448 -19.9447 -19.9441 -19.9408 -19.9400 -19.9399 -19.9394
   -19.9389 -19.9388 -19.9387 -19.9386 -19.9371 -19.9369 -19.9365 -19.9358
   -19.9315 -19.9312 -19.9301 -19.9297 -19.9276 -19.9273 -19.9267 -19.9265
   -19.9234 -19.9231 -19.9228 -19.9227 -19.9207 -19.9204 -19.9202 -19.9198
    -9.6098  -9.3260  -9.2466  -9.1634  -8.8589  -8.7774  -8.7230  -8.6309
    -8.5726  -8.4634  -8.4568  -8.4205  -7.8529  -7.7368  -7.7086  -7.6359
    -7.5949  -7.5537  -7.5255  -7.5181  -7.4960  -7.3891  -7.3672  -7.2679
     1.6321   1.6489   1.7947   1.8585   1.8821   1.9670   2.0561   2.1062
     2.1815   2.2325   2.2500   2.4800   2.7392   2.8473   2.8504   3.0439
     3.0663   3.1448   4.2616   4.3197   4.4554   4.4952   4.6000   4.6592
     4.7387   4.9616   5.0061   5.0340   5.1047   5.3008   5.4186   5.4725
     5.5785   5.6786   5.7128   5.7679   5.8064   5.8323   5.8914   5.9155
     5.9542   6.0359   6.0570   6.1179   6.1500   6.1577   6.2450   6.3328
     6.4772   6.6554   6.7541   6.7898   6.8482   6.9686   7.0457   7.0540
     7.0965   7.1677   7.1774   7.2311   7.2832   7.3290   7.3558   7.4031
     7.5621   7.6267   7.9616   7.9931   8.1595   8.2102   8.2445   8.3347
    10.3643  10.4214  10.6533  10.7099  10.8394  10.9280  12.4281  12.4489
    12.5233  12.6161  12.6437  12.7663  12.8763  12.9598  13.0220  13.1135
    13.2826  13.4454  13.4994  13.5764  13.9209  14.0140  14.0472  14.1575
    15.0086  15.2015  15.2954  15.4169  15.6472  15.8633  16.1336  16.3342
    16.4101  16.8912  17.1333  17.4657  17.9680

          k = 0.0000 0.1617 0.3333 ( 61249 PWs)   bands (ev):

   -65.8206 -65.8201 -65.8201 -65.8197 -65.8196 -65.8192 -65.8191 -65.8186
   -30.3019 -30.2991 -30.2819 -30.2773 -30.2438 -30.2407 -30.2253 -30.2193
   -30.1828 -30.1762 -30.1688 -30.1623 -30.1241 -30.1210 -30.1181 -30.1147
   -30.1080 -30.1031 -30.0877 -30.0798 -30.0448 -30.0388 -30.0221 -30.0194
   -19.9731 -19.9730 -19.9729 -19.9728 -19.9727 -19.9726 -19.9725 -19.9724
   -19.9594 -19.9594 -19.9593 -19.9591 -19.9591 -19.9589 -19.9588 -19.9588
   -19.9542 -19.9540 -19.9529 -19.9528 -19.9509 -19.9507 -19.9496 -19.9494
   -19.9454 -19.9450 -19.9446 -19.9443 -19.9406 -19.9402 -19.9398 -19.9395
   -19.9388 -19.9387 -19.9384 -19.9382 -19.9375 -19.9370 -19.9366 -19.9360
   -19.9313 -19.9305 -19.9304 -19.9290 -19.9282 -19.9272 -19.9271 -19.9267
   -19.9232 -19.9229 -19.9227 -19.9223 -19.9214 -19.9208 -19.9203 -19.9200
    -9.5018  -9.2992  -9.1902  -9.0009  -8.9185  -8.7613  -8.6091  -8.5625
    -8.4975  -8.4804  -8.3372  -8.2859  -8.0922  -7.9832  -7.7823  -7.7551
    -7.6493  -7.6301  -7.5837  -7.5497  -7.5368  -7.5185  -7.3624  -7.2925
     1.6448   1.6451   1.8916   1.9102   2.0588   2.0806   2.1537   2.1790
     2.5421   2.7276   2.7848   2.8978   2.9525   2.9967   3.0343   3.1029
     3.2671   3.3768   3.9584   4.0755   4.1534   4.1890   4.3309   4.5216
     4.5456   4.6887   4.7067   4.7964   4.9432   4.9974   5.1471   5.2946
     5.3080   5.4170   5.4999   5.6649   5.6894   5.7588   5.7755   5.9322
     5.9661   5.9949   6.0205   6.1269   6.1500   6.2242   6.3053   6.3332
     6.5693   6.6218   6.6684   6.8178   6.8927   6.9442   6.9796   7.0521
     7.0906   7.1545   7.1890   7.2488   7.3167   7.3833   7.3940   7.4796
     7.5924   7.6677   7.9224   7.9701   8.1004   8.1128   8.2636   8.3091
    10.5871  10.6441  10.9328  11.1262  11.3025  11.4928  12.1326  12.2528
    12.4497  12.6106  12.6791  12.8034  12.8250  12.8950  13.0731  13.0785
    13.2760  13.3539  13.4319  13.5417  13.7628  13.8909  14.0241  14.1015
    15.1016  15.1806  15.5001  15.6318  15.9245  16.0335  16.1246  16.2458
    16.6912  17.0977  17.3537  17.6445  17.8918

          k = 0.0000 0.1617-0.5000 ( 61194 PWs)   bands (ev):

   -65.8204 -65.8203 -65.8198 -65.8198 -65.8194 -65.8194 -65.8189 -65.8189
   -30.3004 -30.3004 -30.2623 -30.2622 -30.2579 -30.2578 -30.2230 -30.2230
   -30.1800 -30.1800 -30.1660 -30.1659 -30.1227 -30.1227 -30.1165 -30.1165
   -30.1058 -30.1058 -30.0663 -30.0662 -30.0594 -30.0594 -30.0208 -30.0208
   -19.9730 -19.9730 -19.9729 -19.9729 -19.9726 -19.9726 -19.9725 -19.9725
   -19.9594 -19.9594 -19.9593 -19.9592 -19.9590 -19.9590 -19.9588 -19.9588
   -19.9541 -19.9541 -19.9518 -19.9518 -19.9517 -19.9517 -19.9496 -19.9495
   -19.9452 -19.9452 -19.9444 -19.9444 -19.9404 -19.9404 -19.9397 -19.9397
   -19.9388 -19.9388 -19.9380 -19.9380 -19.9376 -19.9376 -19.9363 -19.9363
   -19.9309 -19.9309 -19.9292 -19.9292 -19.9281 -19.9280 -19.9269 -19.9269
   -19.9230 -19.9230 -19.9221 -19.9221 -19.9216 -19.9216 -19.9201 -19.9201
    -9.3867  -9.3867  -9.0320  -9.0320  -8.8456  -8.8456  -8.5108  -8.5108
    -8.3713  -8.3713  -8.3043  -8.3043  -8.0879  -8.0879  -8.0222  -8.0221
    -7.6724  -7.6724  -7.5623  -7.5623  -7.5368  -7.5368  -7.3269  -7.3268
     1.6448   1.6448   1.9061   1.9061   2.0789   2.0790   2.1794   2.1794
     2.9459   2.9460   3.2363   3.2363   3.3420   3.3420   3.4788   3.4788
     3.5245   3.5245   3.6163   3.6163   3.8508   3.8509   4.0779   4.0779
     4.1613   4.1614   4.5927   4.5927   4.8360   4.8361   5.0989   5.0990
     5.3970   5.3970   5.5555   5.5555   5.6520   5.6521   5.8522   5.8522
     5.9634   5.9634   6.1276   6.1276   6.1789   6.1789   6.3092   6.3092
     6.5883   6.5883   6.7485   6.7485   6.8551   6.8551   6.9892   6.9892
     7.1333   7.1334   7.1595   7.1595   7.3064   7.3064   7.7296   7.7297
     7.7721   7.7721   7.9026   7.9026   7.9480   7.9480   8.2837   8.2837
    10.6269  10.6269  11.5680  11.5680  11.7831  11.7831  11.8745  11.8745
    12.1692  12.1692  12.7350  12.7350  12.9383  12.9383  13.1362  13.1362
    13.2174  13.2174  13.5117  13.5117  13.6764  13.6764  14.0484  14.0484
    15.1485  15.1485  15.7299  15.7299  16.0208  16.0208  16.3047  16.3047
    16.8381  16.8381  17.9147  17.9147  18.1978

          k = 0.0000 0.3234 0.0000 ( 61226 PWs)   bands (ev):

   -65.8207 -65.8204 -65.8198 -65.8198 -65.8195 -65.8194 -65.8188 -65.8185
   -30.3040 -30.3012 -30.2974 -30.2974 -30.2252 -30.2252 -30.2243 -30.2140
   -30.1725 -30.1624 -30.1624 -30.1495 -30.1379 -30.1304 -30.1304 -30.1234
   -30.1105 -30.1096 -30.1000 -30.1000 -30.0234 -30.0234 -30.0183 -30.0175
   -19.9732 -19.9731 -19.9728 -19.9728 -19.9727 -19.9727 -19.9724 -19.9723
   -19.9594 -19.9594 -19.9593 -19.9592 -19.9590 -19.9588 -19.9587 -19.9587
   -19.9544 -19.9540 -19.9540 -19.9539 -19.9499 -19.9497 -19.9497 -19.9492
   -19.9445 -19.9438 -19.9438 -19.9431 -19.9418 -19.9410 -19.9410 -19.9404
   -19.9391 -19.9389 -19.9388 -19.9388 -19.9370 -19.9370 -19.9362 -19.9358
   -19.9316 -19.9315 -19.9300 -19.9299 -19.9274 -19.9273 -19.9265 -19.9264
   -19.9234 -19.9232 -19.9228 -19.9228 -19.9205 -19.9205 -19.9200 -19.9198
    -9.5756  -9.4184  -9.1683  -9.1683  -8.8165  -8.8165  -8.6215  -8.6058
    -8.4975  -8.3711  -8.3505  -8.3504  -7.9231  -7.8397  -7.8396  -7.7969
    -7.7129  -7.6977  -7.5590  -7.5590  -7.4045  -7.3962  -7.2598  -7.2598
     1.6082   1.6194   1.6551   1.6551   1.8891   1.8891   2.0551   2.0933
     2.6033   2.6791   2.7386   2.7479   2.7479   2.9264   3.0096   3.3049
     3.3049   3.3112   3.9484   3.9840   3.9840   4.0013   4.3710   4.7884
     4.7884   4.9443   4.9443   5.0651   5.0769   5.0769   5.3089   5.4118
     5.4219   5.4219   5.6702   5.7247   5.7247   5.7874   5.8254   5.9881
     6.0461   6.0461   6.0554   6.1366   6.1366   6.2532   6.3066   6.3381
     6.5251   6.5895   6.6393   6.7904   6.7904   6.8003   7.1904   7.2105
     7.2105   7.2181   7.2706   7.2706   7.3657   7.3702   7.4301   7.4301
     7.7441   7.7441   7.9252   7.9644   8.0743   8.1334   8.1334   8.1416
    10.1855  10.2013  11.0722  11.0861  11.0861  11.2156  12.2601  12.2601
    12.3189  12.4764  12.5171  12.5171  12.7624  12.8421  12.9916  12.9916
    13.4318  13.4851  13.4851  13.6260  13.8531  13.8531  13.9828  14.0399
    15.2012  15.5033  15.5033  15.5788  15.7486  16.0599  16.1542  16.1542
    16.3163  17.2625  17.5863  17.7994  17.7994

          k = 0.0000 0.3234 0.1667 ( 61233 PWs)   bands (ev):

   -65.8207 -65.8203 -65.8198 -65.8197 -65.8195 -65.8194 -65.8189 -65.8186
   -30.3026 -30.2978 -30.2966 -30.2918 -30.2297 -30.2269 -30.2247 -30.2163
   -30.1721 -30.1634 -30.1618 -30.1508 -30.1377 -30.1311 -30.1302 -30.1241
   -30.1096 -30.1039 -30.1010 -30.0947 -30.0292 -30.0235 -30.0231 -30.0183
   -19.9732 -19.9731 -19.9728 -19.9728 -19.9727 -19.9727 -19.9724 -19.9723
   -19.9594 -19.9594 -19.9593 -19.9592 -19.9590 -19.9588 -19.9588 -19.9588
   -19.9543 -19.9540 -19.9538 -19.9536 -19.9501 -19.9499 -19.9497 -19.9494
   -19.9445 -19.9438 -19.9437 -19.9432 -19.9417 -19.9410 -19.9410 -19.9404
   -19.9390 -19.9388 -19.9388 -19.9386 -19.9372 -19.9369 -19.9364 -19.9359
   -19.9315 -19.9312 -19.9301 -19.9297 -19.9276 -19.9273 -19.9266 -19.9265
   -19.9233 -19.9231 -19.9228 -19.9227 -19.9207 -19.9204 -19.9202 -19.9199
    -9.5289  -9.3663  -9.1847  -9.0927  -8.8380  -8.7491  -8.5933  -8.5666
    -8.5082  -8.3604  -8.3560  -8.3295  -7.9347  -7.8526  -7.8422  -7.8070
    -7.7902  -7.6957  -7.6614  -7.5680  -7.5027  -7.3901  -7.3676  -7.2687
     1.6356   1.6522   1.7934   1.8752   1.8952   2.1117   2.1387   2.2803
     2.6144   2.7302   2.7441   2.7789   2.8266   2.9202   3.0611   3.2865
     3.3684   3.3833   3.9597   3.9702   3.9970   4.0737   4.3382   4.6216
     4.6439   4.7809   4.8292   4.9333   5.0184   5.0832   5.1688   5.2123
     5.3827   5.4037   5.4742   5.6118   5.6671   5.7767   5.8434   5.9259
     5.9570   5.9820   6.0117   6.0192   6.1387   6.1441   6.2346   6.3216
     6.5978   6.6361   6.7356   6.8007   6.8891   6.9693   7.0860   7.1895
     7.1936   7.2615   7.2818   7.2989   7.3821   7.3904   7.4204   7.4533
     7.5836   7.6488   7.9381   7.9805   8.0759   8.1144   8.1266   8.1438
    10.4139  10.4658  11.0857  11.1182  11.2259  11.3374  12.2429  12.3192
    12.3577  12.4529  12.5326  12.5967  12.8037  12.8772  12.9426  13.0274
    13.2921  13.4311  13.4884  13.5750  13.7473  13.8534  13.9276  14.0280
    15.2724  15.4872  15.6058  15.6594  15.8282  16.1125  16.1309  16.3758
    16.4709  17.2278  17.5466  17.6537  17.8844

          k = 0.0000 0.3234 0.3333 ( 61234 PWs)   bands (ev):

   -65.8205 -65.8202 -65.8200 -65.8197 -65.8195 -65.8192 -65.8191 -65.8188
   -30.3014 -30.2987 -30.2817 -30.2767 -30.2426 -30.2380 -30.2234 -30.2196
   -30.1708 -30.1658 -30.1601 -30.1539 -30.1368 -30.1330 -30.1293 -30.1259
   -30.1081 -30.1033 -30.0878 -30.0799 -30.0449 -30.0388 -30.0221 -30.0194
   -19.9731 -19.9730 -19.9729 -19.9728 -19.9727 -19.9726 -19.9725 -19.9724
   -19.9594 -19.9594 -19.9593 -19.9591 -19.9591 -19.9589 -19.9589 -19.9588
   -19.9542 -19.9540 -19.9529 -19.9528 -19.9507 -19.9506 -19.9496 -19.9495
   -19.9444 -19.9440 -19.9436 -19.9433 -19.9416 -19.9412 -19.9409 -19.9406
   -19.9389 -19.9388 -19.9385 -19.9382 -19.9375 -19.9369 -19.9367 -19.9361
   -19.9313 -19.9305 -19.9304 -19.9290 -19.9282 -19.9272 -19.9272 -19.9267
   -19.9232 -19.9229 -19.9227 -19.9223 -19.9214 -19.9208 -19.9203 -19.9200
    -9.4223  -9.2362  -9.2189  -8.9083  -8.8904  -8.5808  -8.5454  -8.5069
    -8.4631  -8.3717  -8.2983  -8.2435  -8.1010  -8.0080  -7.8875  -7.8637
    -7.8180  -7.7928  -7.7398  -7.6854  -7.6083  -7.5919  -7.3632  -7.2932
     1.6491   1.6505   1.9093   1.9258   2.4495   2.5469   2.6002   2.6971
     2.7674   2.8054   2.8408   3.0027   3.0241   3.0746   3.1596   3.2703
     3.5325   3.5628   3.9021   3.9562   3.9901   4.0842   4.1295   4.2329
     4.3136   4.5023   4.5571   4.7159   4.7729   4.8488   4.9098   4.9479
     5.1426   5.2255   5.2977   5.3817   5.4299   5.5418   5.5959   5.6482
     5.7436   5.8494   5.9049   6.0030   6.1535   6.2321   6.3023   6.3394
     6.6889   6.7197   6.7516   6.8240   6.9439   7.0746   7.1402   7.1628
     7.2321   7.2640   7.3067   7.3461   7.3623   7.4145   7.4472   7.5221
     7.6495   7.7062   7.9003   7.9660   8.0407   8.0506   8.1197   8.1321
    10.9086  11.0081  11.0997  11.2441  11.5998  11.7416  12.1162  12.2361
    12.3975  12.4672  12.5630  12.6447  12.7539  12.8151  12.8758  13.0381
    13.1296  13.2143  13.4206  13.5041  13.5240  13.7825  13.8610  13.9670
    15.3197  15.4402  15.7653  16.0077  16.1429  16.2917  16.3403  16.9091
    17.0080  17.1147  17.1550  17.7928  17.8082

          k = 0.0000 0.3234-0.5000 ( 61274 PWs)   bands (ev):

   -65.8203 -65.8202 -65.8199 -65.8199 -65.8193 -65.8193 -65.8190 -65.8190
   -30.3000 -30.3000 -30.2617 -30.2617 -30.2567 -30.2566 -30.2217 -30.2217
   -30.1686 -30.1686 -30.1574 -30.1573 -30.1351 -30.1350 -30.1278 -30.1277
   -30.1059 -30.1058 -30.0663 -30.0663 -30.0594 -30.0594 -30.0208 -30.0208
   -19.9730 -19.9730 -19.9729 -19.9729 -19.9726 -19.9726 -19.9725 -19.9725
   -19.9594 -19.9594 -19.9592 -19.9592 -19.9590 -19.9590 -19.9589 -19.9588
   -19.9541 -19.9541 -19.9518 -19.9518 -19.9517 -19.9517 -19.9496 -19.9496
   -19.9442 -19.9442 -19.9435 -19.9435 -19.9414 -19.9414 -19.9407 -19.9407
   -19.9389 -19.9388 -19.9381 -19.9380 -19.9376 -19.9376 -19.9364 -19.9364
   -19.9309 -19.9309 -19.9293 -19.9292 -19.9281 -19.9280 -19.9269 -19.9269
   -19.9230 -19.9230 -19.9221 -19.9221 -19.9216 -19.9216 -19.9202 -19.9201
    -9.3149  -9.3149  -9.0412  -9.0412  -8.6660  -8.6659  -8.4081  -8.4081
    -8.3591  -8.3591  -8.3042  -8.3042  -8.0914  -8.0913  -8.0352  -8.0351
    -7.8382  -7.8382  -7.7779  -7.7779  -7.6246  -7.6246  -7.3277  -7.3276
     1.6502   1.6502   1.9263   1.9263   2.6101   2.6101   2.7663   2.7663
     3.1562   3.1562   3.2680   3.2680   3.3297   3.3297   3.5218   3.5218
     3.5682   3.5683   3.6331   3.6331   3.8841   3.8841   4.0081   4.0081
     4.1909   4.1909   4.3303   4.3304   4.5511   4.5511   4.6666   4.6666
     5.1717   5.1717   5.2657   5.2657   5.4433   5.4433   5.5542   5.5542
     5.6980   5.6980   5.9834   5.9834   6.2411   6.2411   6.2987   6.2987
     6.7051   6.7051   6.8263   6.8263   6.9484   6.9484   7.0725   7.0725
     7.3200   7.3200   7.3426   7.3426   7.3745   7.3745   7.7166   7.7166
     7.7723   7.7723   7.8986   7.8987   7.9326   7.9326   8.1205   8.1206
    11.0712  11.0713  11.6067  11.6067  11.8122  11.8122  12.0529  12.0529
    12.3098  12.3098  12.5095  12.5095  12.8285  12.8285  12.9385  12.9385
    13.1419  13.1419  13.2848  13.2848  13.6161  13.6161  13.8907  13.8907
    15.3711  15.3711  15.9053  15.9053  16.6374  16.6375  16.8107  16.8108
    16.9691  16.9691  17.6461  17.6461  18.0163

          k = 0.0000-0.4851 0.0000 ( 61266 PWs)   bands (ev):

   -65.8206 -65.8206 -65.8197 -65.8197 -65.8196 -65.8195 -65.8187 -65.8187
   -30.3025 -30.3025 -30.2973 -30.2973 -30.2242 -30.2242 -30.2184 -30.2184
   -30.1554 -30.1553 -30.1531 -30.1531 -30.1408 -30.1408 -30.1372 -30.1372
   -30.1101 -30.1100 -30.1001 -30.1001 -30.0234 -30.0234 -30.0179 -30.0179
   -19.9732 -19.9732 -19.9728 -19.9728 -19.9727 -19.9727 -19.9723 -19.9723
   -19.9594 -19.9594 -19.9592 -19.9592 -19.9589 -19.9589 -19.9588 -19.9587
   -19.9542 -19.9542 -19.9539 -19.9539 -19.9497 -19.9496 -19.9496 -19.9496
   -19.9431 -19.9431 -19.9425 -19.9424 -19.9424 -19.9423 -19.9418 -19.9418
   -19.9390 -19.9390 -19.9388 -19.9388 -19.9370 -19.9370 -19.9360 -19.9360
   -19.9316 -19.9316 -19.9300 -19.9299 -19.9274 -19.9274 -19.9264 -19.9264
   -19.9233 -19.9233 -19.9228 -19.9228 -19.9205 -19.9205 -19.9199 -19.9199
    -9.4873  -9.4873  -9.1401  -9.1401  -8.8025  -8.8025  -8.6081  -8.6081
    -8.2018  -8.2018  -8.1470  -8.1470  -8.1304  -8.1304  -8.1122  -8.1122
    -7.7136  -7.7136  -7.5632  -7.5632  -7.4007  -7.4007  -7.2602  -7.2602
     1.6131   1.6131   1.6553   1.6553   1.8912   1.8912   2.0862   2.0862
     2.7078   2.7078   3.1288   3.1288   3.2036   3.2036   3.5858   3.5858
     3.6540   3.6540   3.6617   3.6617   3.7970   3.7970   4.0871   4.0871
     4.1023   4.1023   4.9356   4.9356   5.0406   5.0406   5.5138   5.5139
     5.5475   5.5475   5.5841   5.5841   5.6164   5.6164   5.8841   5.8841
     6.0657   6.0657   6.0797   6.0797   6.1885   6.1885   6.3208   6.3208
     6.5503   6.5503   6.6919   6.6919   6.7708   6.7708   7.1896   7.1896
     7.2018   7.2018   7.2739   7.2739   7.6141   7.6141   7.6470   7.6470
     7.8006   7.8006   7.8478   7.8478   7.9530   7.9530   8.0034   8.0034
    10.2001  10.2001  11.5101  11.5102  11.5837  11.5837  11.9010  11.9010
    12.0166  12.0166  12.5203  12.5203  12.7784  12.7784  12.9919  12.9919
    13.5638  13.5638  13.6078  13.6078  13.6421  13.6421  13.9211  13.9211
    15.4660  15.4660  15.6561  15.6561  15.9246  15.9246  16.1308  16.1308
    16.8837  16.8837  18.2754  18.2754  18.4613

          k = 0.0000-0.4851 0.1667 ( 61206 PWs)   bands (ev):

   -65.8205 -65.8205 -65.8197 -65.8196 -65.8196 -65.8195 -65.8187 -65.8187
   -30.3021 -30.2976 -30.2968 -30.2917 -30.2288 -30.2238 -30.2230 -30.2188
   -30.1554 -30.1547 -30.1534 -30.1524 -30.1422 -30.1407 -30.1389 -30.1375
   -30.1095 -30.1040 -30.1010 -30.0947 -30.0292 -30.0235 -30.0231 -30.0183
   -19.9731 -19.9731 -19.9728 -19.9728 -19.9727 -19.9727 -19.9724 -19.9723
   -19.9594 -19.9594 -19.9593 -19.9592 -19.9589 -19.9589 -19.9588 -19.9588
   -19.9542 -19.9540 -19.9538 -19.9536 -19.9499 -19.9498 -19.9496 -19.9496
   -19.9431 -19.9431 -19.9425 -19.9424 -19.9424 -19.9423 -19.9419 -19.9418
   -19.9390 -19.9389 -19.9388 -19.9386 -19.9372 -19.9369 -19.9362 -19.9361
   -19.9315 -19.9312 -19.9301 -19.9297 -19.9276 -19.9273 -19.9266 -19.9265
   -19.9233 -19.9232 -19.9228 -19.9227 -19.9207 -19.9204 -19.9201 -19.9199
    -9.4528  -9.4219  -9.1558  -9.0599  -8.8257  -8.7312  -8.5849  -8.5609
    -8.2092  -8.2090  -8.1573  -8.1414  -8.1364  -8.1247  -8.1159  -8.1012
    -7.8120  -7.7049  -7.6726  -7.5722  -7.5034  -7.3906  -7.3679  -7.2690
     1.6355   1.6525   1.7925   1.8772   1.8970   2.1167   2.1613   2.2932
     2.7913   2.7972   3.1275   3.1312   3.2325   3.2559   3.5623   3.5779
     3.5896   3.6580   3.6685   3.7371   3.8328   3.8775   4.0659   4.1150
     4.1217   4.1397   4.6413   4.6567   4.9413   4.9736   5.3038   5.3261
     5.4062   5.4081   5.5069   5.5449   5.5472   5.6609   5.7873   5.8761
     5.9117   5.9768   6.0021   6.0218   6.0757   6.1441   6.2483   6.3165
     6.6232   6.6466   6.7054   6.7832   6.8747   6.9548   7.0965   7.1713
     7.2209   7.2896   7.3023   7.3574   7.5000   7.5565   7.6222   7.6253
     7.7340   7.7640   7.8566   7.8687   7.9411   7.9470   8.0169   8.0244
    10.4237  10.4794  11.5114  11.5821  11.6116  11.7031  11.8995  11.9936
    12.0177  12.1103  12.4672  12.5770  12.8464  12.8740  12.8878  13.0230
    13.4178  13.4857  13.5251  13.5402  13.6091  13.6436  13.8499  13.9381
    15.4309  15.5880  15.6330  15.8458  16.0233  16.0605  16.1498  16.3348
    16.9318  16.9435  18.0856  18.2192  18.3218

          k = 0.0000-0.4851 0.3333 ( 61246 PWs)   bands (ev):

   -65.8203 -65.8203 -65.8199 -65.8198 -65.8194 -65.8193 -65.8189 -65.8189
   -30.3012 -30.2986 -30.2817 -30.2764 -30.2421 -30.2366 -30.2225 -30.2197
   -30.1553 -30.1540 -30.1526 -30.1504 -30.1455 -30.1429 -30.1402 -30.1382
   -30.1081 -30.1033 -30.0879 -30.0799 -30.0449 -30.0388 -30.0221 -30.0194
   -19.9731 -19.9730 -19.9729 -19.9728 -19.9726 -19.9726 -19.9724 -19.9724
   -19.9594 -19.9593 -19.9593 -19.9592 -19.9591 -19.9589 -19.9589 -19.9588
   -19.9541 -19.9540 -19.9530 -19.9527 -19.9507 -19.9506 -19.9496 -19.9496
   -19.9430 -19.9429 -19.9426 -19.9426 -19.9423 -19.9423 -19.9420 -19.9420
   -19.9389 -19.9388 -19.9386 -19.9382 -19.9376 -19.9368 -19.9367 -19.9362
   -19.9313 -19.9305 -19.9304 -19.9290 -19.9282 -19.9272 -19.9272 -19.9267
   -19.9231 -19.9229 -19.9228 -19.9223 -19.9214 -19.9208 -19.9203 -19.9200
    -9.3689  -9.2510  -9.2010  -8.9017  -8.8356  -8.5430  -8.5057  -8.4217
    -8.2767  -8.2381  -8.1828  -8.1570  -8.1272  -8.1269  -8.1121  -8.0642
    -8.0160  -7.9119  -7.7562  -7.7012  -7.6117  -7.5968  -7.3637  -7.2936
     1.6495   1.6509   1.9120   1.9274   2.4876   2.6851   2.6957   2.8788
     3.0293   3.0418   3.1357   3.1477   3.3224   3.3725   3.4729   3.5702
     3.5879   3.6371   3.6923   3.7249   3.9124   4.0165   4.0651   4.1077
     4.1169   4.1819   4.1983   4.2170   4.6123   4.6917   4.8316   4.9374
     4.9662   5.1076   5.1972   5.2239   5.4156   5.5412   5.5490   5.5944
     5.6290   5.7926   5.8858   5.8997   6.1423   6.2589   6.3051   6.3460
     6.7098   6.7414   6.7439   6.8265   6.9288   7.1012   7.1179   7.2444
     7.2847   7.3180   7.3501   7.4408   7.4961   7.5502   7.6101   7.6499
     7.7457   7.7881   7.8421   7.8925   7.9231   7.9360   7.9992   8.0030
    10.9527  11.0897  11.5149  11.5869  11.8890  11.8953  11.9894  12.0832
    12.2084  12.2554  12.3602  12.4936  12.7485  12.8286  12.9089  13.0153
    13.1172  13.1952  13.2530  13.4112  13.6215  13.6569  13.7580  13.8571
    15.3940  15.5534  15.8077  16.0390  16.3296  16.6395  16.6510  16.9280
    17.0781  17.1324  17.7050  17.7735  18.0657

          k = 0.0000-0.4851-0.5000 ( 61260 PWs)   bands (ev):

   -65.8201 -65.8201 -65.8201 -65.8200 -65.8192 -65.8192 -65.8191 -65.8191
   -30.2999 -30.2998 -30.2614 -30.2614 -30.2561 -30.2561 -30.2210 -30.2210
   -30.1548 -30.1548 -30.1494 -30.1494 -30.1471 -30.1471 -30.1393 -30.1392
   -30.1059 -30.1059 -30.0663 -30.0663 -30.0595 -30.0594 -30.0208 -30.0208
   -19.9730 -19.9730 -19.9729 -19.9729 -19.9726 -19.9725 -19.9725 -19.9725
   -19.9594 -19.9593 -19.9592 -19.9592 -19.9590 -19.9590 -19.9589 -19.9589
   -19.9541 -19.9540 -19.9518 -19.9518 -19.9516 -19.9516 -19.9496 -19.9496
   -19.9428 -19.9428 -19.9427 -19.9427 -19.9421 -19.9421 -19.9421 -19.9421
   -19.9389 -19.9388 -19.9381 -19.9381 -19.9376 -19.9375 -19.9364 -19.9364
   -19.9309 -19.9309 -19.9293 -19.9292 -19.9281 -19.9280 -19.9270 -19.9269
   -19.9230 -19.9230 -19.9221 -19.9221 -19.9216 -19.9216 -19.9202 -19.9201
    -9.2763  -9.2763  -9.0480  -9.0480  -8.5282  -8.5282  -8.3511  -8.3511
    -8.3285  -8.3285  -8.2458  -8.2458  -8.1154  -8.1154  -8.0773  -8.0773
    -8.0046  -8.0045  -7.9185  -7.9185  -7.6296  -7.6296  -7.3281  -7.3280
     1.6507   1.6507   1.9290   1.9290   3.0366   3.0366   3.2601   3.2601
     3.3034   3.3034   3.3460   3.3461   3.4093   3.4093   3.5264   3.5264
     3.5670   3.5670   3.6764   3.6764   3.7502   3.7502   3.8135   3.8135
     4.0314   4.0314   4.1783   4.1783   4.5677   4.5677   4.6446   4.6446
     4.6954   4.6954   4.7965   4.7965   5.4731   5.4731   5.5543   5.5544
     5.6716   5.6716   5.8746   5.8746   6.2786   6.2786   6.2857   6.2857
     6.7183   6.7183   6.8272   6.8272   6.9782   6.9783   7.0635   7.0635
     7.4387   7.4387   7.4827   7.4827   7.6067   7.6067   7.6789   7.6789
     7.7845   7.7846   7.8670   7.8670   7.9055   7.9055   7.9517   7.9517
    11.4273  11.4273  11.7135  11.7135  11.7580  11.7581  12.0276  12.0276
    12.3969  12.3970  12.5050  12.5050  12.6785  12.6785  12.7686  12.7686
    13.0076  13.0076  13.2588  13.2588  13.6708  13.6708  13.7184  13.7184
    15.4527  15.4527  15.9427  15.9427  17.0332  17.0333  17.2905  17.2905
    17.3914  17.3914  17.5623  17.5623  17.6874

          k = 0.1667 0.0000 0.1667 ( 61202 PWs)   bands (ev):

   -65.8208 -65.8201 -65.8199 -65.8199 -65.8193 -65.8193 -65.8191 -65.8185
   -30.3001 -30.2941 -30.2928 -30.2926 -30.2359 -30.2319 -30.2318 -30.2165
   -30.1883 -30.1753 -30.1752 -30.1631 -30.1201 -30.1156 -30.1152 -30.1095
   -30.1040 -30.1024 -30.0954 -30.0951 -30.0288 -30.0288 -30.0247 -30.0231
   -19.9732 -19.9730 -19.9728 -19.9728 -19.9727 -19.9726 -19.9725 -19.9723
   -19.9594 -19.9594 -19.9594 -19.9591 -19.9591 -19.9588 -19.9588 -19.9587
   -19.9542 -19.9537 -19.9537 -19.9535 -19.9506 -19.9499 -19.9499 -19.9492
   -19.9458 -19.9451 -19.9451 -19.9445 -19.9404 -19.9397 -19.9396 -19.9391
   -19.9388 -19.9387 -19.9386 -19.9385 -19.9370 -19.9370 -19.9367 -19.9359
   -19.9312 -19.9311 -19.9298 -19.9298 -19.9275 -19.9275 -19.9268 -19.9266
   -19.9233 -19.9229 -19.9227 -19.9227 -19.9207 -19.9207 -19.9203 -19.9200
    -9.5966  -9.2599  -9.2191  -9.2156  -8.8122  -8.8058  -8.8009  -8.6374
    -8.5359  -8.4563  -8.4536  -8.4458  -7.8580  -7.8069  -7.7107  -7.7079
    -7.5180  -7.5075  -7.4904  -7.4538  -7.4530  -7.4131  -7.3789  -7.3719
     1.7572   1.8005   1.8006   1.8751   1.8944   1.9120   1.9623   1.9647
     2.1701   2.1741   2.3322   2.4785   2.7952   2.8466   2.9493   3.0058
     3.0496   3.0777   4.3077   4.3617   4.5488   4.5611   4.6766   4.6987
     4.7621   4.8134   4.8522   4.9774   5.0942   5.1701   5.4353   5.4660
     5.5583   5.6593   5.6619   5.7716   5.7959   5.8206   5.9045   5.9502
     5.9982   6.0405   6.0412   6.0682   6.1003   6.1810   6.2061   6.4160
     6.4887   6.7558   6.7619   6.8245   6.9128   6.9246   7.0337   7.0354
     7.0640   7.0694   7.1273   7.1858   7.2329   7.2944   7.3783   7.4199
     7.5654   7.5709   7.9729   7.9927   8.1586   8.2207   8.2637   8.3880
    10.4870  10.4954  10.6836  10.7235  10.8353  10.9041  12.4588  12.4802
    12.5334  12.5495  12.7062  12.8573  12.9619  12.9851  13.0100  13.2765
    13.3102  13.4316  13.5422  13.5574  13.9178  13.9689  14.0850  14.1435
    14.9112  15.1258  15.1279  15.3626  15.6824  15.9068  15.9400  16.3613
    16.3834  17.1198  17.1656  17.2631  18.0250

          k = 0.1667 0.0000 0.3333 ( 61212 PWs)   bands (ev):

   -65.8206 -65.8201 -65.8200 -65.8198 -65.8195 -65.8193 -65.8191 -65.8187
   -30.2968 -30.2938 -30.2814 -30.2780 -30.2442 -30.2427 -30.2303 -30.2230
   -30.1866 -30.1794 -30.1735 -30.1669 -30.1194 -30.1166 -30.1143 -30.1110
   -30.1019 -30.0974 -30.0872 -30.0804 -30.0445 -30.0393 -30.0278 -30.0250
   -19.9731 -19.9729 -19.9729 -19.9728 -19.9727 -19.9726 -19.9725 -19.9724
   -19.9594 -19.9594 -19.9594 -19.9592 -19.9591 -19.9589 -19.9588 -19.9588
   -19.9540 -19.9538 -19.9529 -19.9528 -19.9510 -19.9507 -19.9499 -19.9495
   -19.9457 -19.9453 -19.9450 -19.9447 -19.9403 -19.9398 -19.9395 -19.9392
   -19.9387 -19.9386 -19.9384 -19.9382 -19.9374 -19.9371 -19.9368 -19.9362
   -19.9309 -19.9303 -19.9302 -19.9291 -19.9282 -19.9274 -19.9273 -19.9269
   -19.9231 -19.9228 -19.9226 -19.9223 -19.9213 -19.9209 -19.9205 -19.9202
    -9.4841  -9.2716  -9.1217  -9.0695  -8.8592  -8.8479  -8.6303  -8.5822
    -8.4764  -8.4570  -8.3318  -8.3074  -8.0827  -7.9885  -7.8276  -7.7631
    -7.7384  -7.6360  -7.5059  -7.4828  -7.4555  -7.4519  -7.4246  -7.3973
     1.7798   1.7910   1.8712   1.8864   1.9621   1.9674   2.1535   2.1892
     2.5423   2.7214   2.7736   2.8968   2.9296   3.0277   3.0939   3.1916
     3.2258   3.3161   3.9786   4.0845   4.1870   4.2324   4.2996   4.5468
     4.6479   4.6996   4.7656   4.8220   4.9078   4.9742   5.0895   5.1720
     5.3611   5.3998   5.4727   5.5025   5.5843   5.7372   5.8035   5.9183
     5.9613   5.9852   6.0366   6.0778   6.1464   6.1640   6.2417   6.4234
     6.5696   6.6974   6.7296   6.7790   6.8232   6.8586   6.9984   7.0260
     7.0587   7.1210   7.2008   7.2488   7.3459   7.4019   7.4346   7.5231
     7.5989   7.6620   7.9381   7.9590   8.0969   8.1355   8.2832   8.3479
    10.6322  10.6582  11.0329  11.1684  11.2672  11.4786  12.1897  12.2622
    12.4456  12.5872  12.6621  12.7571  12.8497  13.0407  13.0784  13.2074
    13.3699  13.3818  13.4364  13.5631  13.8454  13.8715  14.0241  14.0618
    14.9904  15.1062  15.3283  15.5811  15.7999  15.9961  16.1909  16.2211
    16.7562  17.0456  17.5941  17.6151  17.7216

          k = 0.1667 0.0000-0.5000 ( 61220 PWs)   bands (ev):

   -65.8204 -65.8203 -65.8197 -65.8197 -65.8195 -65.8195 -65.8189 -65.8189
   -30.2952 -30.2951 -30.2621 -30.2621 -30.2589 -30.2589 -30.2276 -30.2276
   -30.1835 -30.1835 -30.1707 -30.1706 -30.1181 -30.1181 -30.1128 -30.1128
   -30.0999 -30.0998 -30.0658 -30.0658 -30.0600 -30.0599 -30.0265 -30.0265
   -19.9730 -19.9730 -19.9729 -19.9728 -19.9727 -19.9726 -19.9725 -19.9725
   -19.9594 -19.9594 -19.9593 -19.9593 -19.9590 -19.9590 -19.9588 -19.9588
   -19.9538 -19.9538 -19.9519 -19.9518 -19.9517 -19.9517 -19.9498 -19.9498
   -19.9455 -19.9455 -19.9448 -19.9448 -19.9401 -19.9400 -19.9394 -19.9394
   -19.9386 -19.9386 -19.9379 -19.9379 -19.9377 -19.9376 -19.9365 -19.9364
   -19.9306 -19.9306 -19.9292 -19.9292 -19.9282 -19.9281 -19.9271 -19.9271
   -19.9229 -19.9229 -19.9221 -19.9220 -19.9217 -19.9216 -19.9204 -19.9204
    -9.3631  -9.3630  -8.9650  -8.9650  -8.9293  -8.9292  -8.5175  -8.5174
    -8.3772  -8.3772  -8.2895  -8.2895  -8.0932  -8.0931  -8.0271  -8.0271
    -7.7434  -7.7434  -7.4921  -7.4921  -7.4404  -7.4404  -7.4283  -7.4282
     1.7834   1.7834   1.8801   1.8801   1.9698   1.9699   2.1957   2.1957
     2.9442   2.9442   3.2467   3.2467   3.3455   3.3456   3.4600   3.4600
     3.5490   3.5491   3.6532   3.6532   3.8715   3.8715   4.0321   4.0321
     4.1751   4.1751   4.6783   4.6783   4.8387   4.8387   5.2156   5.2156
     5.2695   5.2695   5.4092   5.4093   5.6065   5.6065   5.8750   5.8750
     5.9451   5.9451   6.0010   6.0010   6.1687   6.1687   6.3690   6.3690
     6.5857   6.5857   6.7465   6.7465   6.7645   6.7646   7.0111   7.0111
     7.1393   7.1393   7.2346   7.2346   7.3079   7.3079   7.7472   7.7473
     7.7862   7.7862   7.9028   7.9028   7.9547   7.9547   8.3094   8.3094
    10.6631  10.6631  11.6244  11.6244  11.8032  11.8032  11.8504  11.8504
    12.1708  12.1708  12.6924  12.6925  13.0271  13.0271  13.1560  13.1560
    13.2740  13.2741  13.6218  13.6218  13.6664  13.6665  14.0225  14.0225
    15.0665  15.0666  15.5992  15.5992  15.8938  15.8938  16.3993  16.3993
    16.8584  16.8584  17.9112  17.9113  18.2664

          k = 0.1667 0.1617 0.1667 ( 61214 PWs)   bands (ev):

   -65.8207 -65.8202 -65.8199 -65.8199 -65.8194 -65.8193 -65.8191 -65.8185
   -30.2995 -30.2944 -30.2926 -30.2925 -30.2338 -30.2309 -30.2309 -30.2172
   -30.1839 -30.1721 -30.1720 -30.1603 -30.1247 -30.1197 -30.1194 -30.1137
   -30.1040 -30.1026 -30.0955 -30.0952 -30.0288 -30.0288 -30.0246 -30.0232
   -19.9732 -19.9730 -19.9728 -19.9728 -19.9727 -19.9727 -19.9725 -19.9723
   -19.9594 -19.9594 -19.9594 -19.9591 -19.9591 -19.9588 -19.9588 -19.9588
   -19.9542 -19.9537 -19.9537 -19.9535 -19.9505 -19.9499 -19.9499 -19.9493
   -19.9455 -19.9448 -19.9447 -19.9442 -19.9407 -19.9400 -19.9399 -19.9394
   -19.9389 -19.9387 -19.9386 -19.9386 -19.9370 -19.9370 -19.9366 -19.9359
   -19.9312 -19.9311 -19.9298 -19.9298 -19.9275 -19.9275 -19.9268 -19.9266
   -19.9233 -19.9230 -19.9227 -19.9227 -19.9207 -19.9207 -19.9203 -19.9200
    -9.5620  -9.2733  -9.1828  -9.1792  -8.7983  -8.7918  -8.7344  -8.6102
    -8.5356  -8.4385  -8.4305  -8.4245  -7.8647  -7.8082  -7.7211  -7.7142
    -7.6054  -7.5608  -7.5597  -7.5211  -7.4942  -7.4825  -7.3765  -7.3725
     1.8238   1.8538   1.8583   1.8751   2.0173   2.0592   2.0634   2.1097
     2.2374   2.2440   2.3324   2.5326   2.8253   2.9056   2.9412   3.0950
     3.1339   3.1494   4.2467   4.2800   4.4699   4.4771   4.5688   4.6443
     4.6951   4.7605   4.7624   4.9983   5.0275   5.0690   5.3743   5.4033
     5.4052   5.6317   5.6324   5.6879   5.7558   5.7654   5.7743   5.8515
     5.9528   6.0012   6.0135   6.1099   6.1163   6.1722   6.1949   6.2677
     6.5819   6.7293   6.7507   6.8766   6.9170   6.9415   7.0342   7.0346
     7.0987   7.1031   7.1831   7.2157   7.2676   7.2995   7.4051   7.4136
     7.5642   7.5692   7.9697   7.9912   8.1524   8.2003   8.2377   8.3241
    10.5576  10.5597  10.8340  10.8447  10.9128  11.0118  12.4545  12.4693
    12.5342  12.5362  12.7068  12.7903  12.8936  12.9695  13.0117  13.1297
    13.2558  13.3635  13.5277  13.5386  13.9178  13.9188  14.0690  14.0821
    15.0625  15.2862  15.2988  15.4836  15.6720  15.9458  16.2588  16.3767
    16.3937  17.0107  17.2656  17.2696  18.0157

          k = 0.1667 0.1617 0.3333 ( 61206 PWs)   bands (ev):

   -65.8205 -65.8201 -65.8200 -65.8197 -65.8195 -65.8192 -65.8192 -65.8187
   -30.2965 -30.2935 -30.2813 -30.2776 -30.2434 -30.2415 -30.2295 -30.2232
   -30.1823 -30.1757 -30.1704 -30.1639 -30.1240 -30.1209 -30.1186 -30.1153
   -30.1020 -30.0975 -30.0873 -30.0805 -30.0445 -30.0392 -30.0278 -30.0250
   -19.9731 -19.9730 -19.9729 -19.9728 -19.9727 -19.9726 -19.9725 -19.9724
   -19.9594 -19.9594 -19.9593 -19.9592 -19.9591 -19.9589 -19.9588 -19.9588
   -19.9539 -19.9537 -19.9529 -19.9528 -19.9509 -19.9507 -19.9499 -19.9496
   -19.9453 -19.9449 -19.9447 -19.9443 -19.9406 -19.9402 -19.9399 -19.9396
   -19.9388 -19.9386 -19.9384 -19.9382 -19.9374 -19.9370 -19.9368 -19.9362
   -19.9309 -19.9303 -19.9302 -19.9291 -19.9282 -19.9274 -19.9273 -19.9269
   -19.9231 -19.9228 -19.9226 -19.9223 -19.9213 -19.9209 -19.9205 -19.9202
    -9.4472  -9.2349  -9.1330  -9.0185  -8.8536  -8.7743  -8.6225  -8.5497
    -8.4583  -8.4479  -8.3267  -8.2982  -8.0837  -7.9911  -7.8341  -7.7693
    -7.7420  -7.6455  -7.5946  -7.5651  -7.5512  -7.5240  -7.4636  -7.3971
     1.8547   1.8638   2.0580   2.0620   2.0828   2.0953   2.1947   2.2466
     2.5462   2.7294   2.7755   2.9301   2.9793   3.0796   3.1357   3.2102
     3.2888   3.3786   3.9811   4.0979   4.1570   4.2196   4.3161   4.5020
     4.5689   4.6264   4.6907   4.7443   4.8134   4.9153   5.0548   5.0816
     5.2454   5.2866   5.3422   5.3957   5.5468   5.5882   5.7200   5.7617
     5.9026   5.9309   6.0134   6.0281   6.0706   6.1422   6.1859   6.2456
     6.6380   6.7016   6.8291   6.8521   6.8847   6.9536   7.0333   7.0805
     7.1158   7.1273   7.2338   7.2994   7.3492   7.4075   7.4404   7.5274
     7.6089   7.6749   7.9352   7.9598   8.0983   8.1183   8.2458   8.2914
    10.7728  10.7909  11.0799  11.2349  11.3277  11.5342  12.1953  12.2865
    12.4656  12.5966  12.6629  12.7675  12.8433  12.9229  13.0392  13.1104
    13.2594  13.3147  13.3912  13.5287  13.7634  13.7968  13.9823  14.0314
    15.1859  15.2790  15.5510  15.6863  15.9857  16.1485  16.2228  16.2946
    16.8244  17.0434  17.4180  17.6829  17.7154

          k = 0.1667 0.1617-0.5000 ( 61216 PWs)   bands (ev):

   -65.8203 -65.8203 -65.8198 -65.8197 -65.8195 -65.8195 -65.8190 -65.8189
   -30.2949 -30.2949 -30.2618 -30.2618 -30.2582 -30.2582 -30.2272 -30.2271
   -30.1795 -30.1795 -30.1676 -30.1676 -30.1226 -30.1226 -30.1171 -30.1171
   -30.0999 -30.0999 -30.0659 -30.0658 -30.0600 -30.0600 -30.0265 -30.0265
   -19.9730 -19.9730 -19.9729 -19.9728 -19.9726 -19.9726 -19.9725 -19.9725
   -19.9594 -19.9594 -19.9593 -19.9592 -19.9590 -19.9590 -19.9589 -19.9588
   -19.9538 -19.9538 -19.9518 -19.9518 -19.9517 -19.9517 -19.9498 -19.9498
   -19.9452 -19.9451 -19.9445 -19.9445 -19.9404 -19.9404 -19.9397 -19.9397
   -19.9387 -19.9387 -19.9379 -19.9379 -19.9377 -19.9376 -19.9365 -19.9365
   -19.9306 -19.9306 -19.9292 -19.9292 -19.9282 -19.9281 -19.9271 -19.9271
   -19.9229 -19.9229 -19.9221 -19.9220 -19.9217 -19.9216 -19.9204 -19.9204
    -9.3256  -9.3256  -8.9688  -8.9688  -8.8613  -8.8613  -8.4866  -8.4866
    -8.3762  -8.3761  -8.2899  -8.2899  -8.0934  -8.0933  -8.0291  -8.0291
    -7.7473  -7.7473  -7.5825  -7.5824  -7.5417  -7.5417  -7.4299  -7.4299
     1.8591   1.8591   2.0708   2.0709   2.0885   2.0885   2.2491   2.2491
     3.0164   3.0164   3.2591   3.2591   3.3497   3.3497   3.4881   3.4881
     3.5562   3.5562   3.6640   3.6640   3.8860   3.8860   4.0708   4.0709
     4.1806   4.1806   4.6009   4.6009   4.7115   4.7115   5.0512   5.0512
     5.1905   5.1905   5.3364   5.3364   5.4336   5.4336   5.7891   5.7891
     5.8717   5.8717   5.9554   5.9554   6.0650   6.0650   6.2094   6.2095
     6.6901   6.6901   6.8406   6.8406   6.9164   6.9164   7.0364   7.0364
     7.1585   7.1586   7.2367   7.2367   7.3538   7.3538   7.7473   7.7474
     7.7834   7.7834   7.9108   7.9108   7.9532   7.9532   8.2627   8.2627
    10.8088  10.8088  11.6468  11.6468  11.8473  11.8473  11.8880  11.8880
    12.2036  12.2036  12.7097  12.7097  12.9505  12.9505  13.0828  13.0829
    13.2443  13.2443  13.5019  13.5019  13.5905  13.5905  13.9835  13.9836
    15.2492  15.2492  15.8266  15.8266  16.0587  16.0587  16.4415  16.4415
    16.8926  16.8926  17.8656  17.8656  18.1650

          k = 0.1667 0.3234 0.1667 ( 61242 PWs)   bands (ev):

   -65.8206 -65.8203 -65.8198 -65.8198 -65.8195 -65.8194 -65.8190 -65.8187
   -30.2981 -30.2952 -30.2922 -30.2921 -30.2295 -30.2292 -30.2284 -30.2195
   -30.1717 -30.1629 -30.1628 -30.1520 -30.1375 -30.1310 -30.1308 -30.1249
   -30.1039 -30.1031 -30.0956 -30.0955 -30.0288 -30.0288 -30.0243 -30.0235
   -19.9731 -19.9731 -19.9728 -19.9728 -19.9727 -19.9727 -19.9724 -19.9723
   -19.9594 -19.9594 -19.9593 -19.9592 -19.9590 -19.9589 -19.9588 -19.9588
   -19.9540 -19.9537 -19.9536 -19.9536 -19.9502 -19.9499 -19.9499 -19.9495
   -19.9444 -19.9438 -19.9438 -19.9432 -19.9417 -19.9410 -19.9410 -19.9405
   -19.9389 -19.9388 -19.9386 -19.9386 -19.9371 -19.9371 -19.9365 -19.9361
   -19.9312 -19.9311 -19.9298 -19.9298 -19.9275 -19.9275 -19.9268 -19.9267
   -19.9232 -19.9230 -19.9227 -19.9227 -19.9207 -19.9207 -19.9203 -19.9201
    -9.4777  -9.3145  -9.1108  -9.1080  -8.7730  -8.7682  -8.5613  -8.5358
    -8.5193  -8.3501  -8.3376  -8.3330  -7.9437  -7.8560  -7.8532  -7.8180
    -7.7985  -7.7663  -7.6759  -7.6643  -7.4964  -7.4890  -7.3763  -7.3740
     1.8468   1.8597   1.8771   1.8795   2.1181   2.1194   2.2608   2.3292
     2.6240   2.7287   2.7485   2.8598   2.8899   2.9437   3.1163   3.3583
     3.3712   3.4200   3.9731   3.9854   4.0170   4.1024   4.3132   4.6019
     4.6544   4.6950   4.7015   4.8069   4.8583   5.0657   5.0921   5.1684
     5.1894   5.2537   5.3961   5.4317   5.5893   5.6552   5.7369   5.7491
     5.9292   5.9315   5.9672   5.9693   6.0318   6.0991   6.1685   6.2010
     6.6774   6.7666   6.7836   6.8991   6.9774   6.9993   7.0593   7.1073
     7.2625   7.2813   7.2958   7.3204   7.3946   7.4021   7.4361   7.4596
     7.5870   7.5992   7.9442   7.9821   8.0733   8.0972   8.1254   8.1389
    10.6324  10.6384  11.2017  11.2302  11.2476  11.4016  12.2943  12.3245
    12.3859  12.4947  12.5278  12.6196  12.8298  12.8942  12.9733  13.0039
    13.2525  13.3135  13.4834  13.5224  13.7240  13.7471  13.9186  13.9654
    15.3805  15.6189  15.6336  15.6980  15.8906  16.1710  16.3428  16.3607
    16.5921  17.1957  17.5830  17.6477  17.7458

          k = 0.1667 0.3234 0.3333 ( 61226 PWs)   bands (ev):

   -65.8204 -65.8201 -65.8200 -65.8196 -65.8196 -65.8193 -65.8191 -65.8188
   -30.2958 -30.2931 -30.2813 -30.2770 -30.2422 -30.2385 -30.2279 -30.2239
   -30.1704 -30.1653 -30.1612 -30.1551 -30.1366 -30.1328 -30.1301 -30.1267
   -30.1021 -30.0976 -30.0874 -30.0806 -30.0445 -30.0392 -30.0279 -30.0250
   -19.9731 -19.9730 -19.9729 -19.9728 -19.9727 -19.9726 -19.9725 -19.9724
   -19.9594 -19.9593 -19.9593 -19.9591 -19.9591 -19.9589 -19.9589 -19.9588
   -19.9538 -19.9537 -19.9529 -19.9528 -19.9507 -19.9507 -19.9499 -19.9498
   -19.9443 -19.9439 -19.9437 -19.9434 -19.9415 -19.9412 -19.9409 -19.9406
   -19.9388 -19.9387 -19.9385 -19.9382 -19.9375 -19.9369 -19.9368 -19.9363
   -19.9309 -19.9303 -19.9302 -19.9291 -19.9282 -19.9274 -19.9273 -19.9269
   -19.9230 -19.9228 -19.9227 -19.9223 -19.9213 -19.9208 -19.9206 -19.9202
    -9.3602  -9.1718  -9.1562  -8.9083  -8.8418  -8.5987  -8.5606  -8.4794
    -8.4393  -8.3520  -8.2897  -8.2523  -8.0959  -8.0158  -7.9020  -7.8637
    -7.8273  -7.8048  -7.7566  -7.7334  -7.6914  -7.6192  -7.4661  -7.3981
     1.8766   1.8900   2.1224   2.1454   2.4535   2.5442   2.6098   2.6916
     2.7578   2.7973   2.8347   2.9944   3.1139   3.1881   3.2270   3.3530
     3.5429   3.5710   3.9147   3.9955   4.0204   4.0745   4.1908   4.2574
     4.3176   4.4984   4.5567   4.6383   4.7609   4.8220   4.8489   4.9259
     5.0343   5.1253   5.1585   5.2392   5.2539   5.3323   5.4312   5.5014
     5.6048   5.6679   5.7056   5.9015   5.9805   6.0553   6.1165   6.1375
     6.7872   6.8070   6.9152   6.9449   7.0355   7.1590   7.1930   7.2126
     7.2745   7.3054   7.3256   7.3787   7.3999   7.4377   7.5081   7.5390
     7.6570   7.7104   7.9130   7.9595   8.0362   8.0447   8.1132   8.1235
    11.0393  11.1029  11.2661  11.3713  11.6123  11.7655  12.1866  12.2832
    12.4421  12.4920  12.5726  12.6404  12.7612  12.8363  12.8805  13.0027
    13.1071  13.1899  13.3021  13.4669  13.5444  13.6402  13.8179  13.8759
    15.4953  15.6347  15.8686  16.1039  16.2123  16.3364  16.4296  16.9369
    17.0064  17.0940  17.2271  17.7802  17.8691

          k = 0.1667 0.3234-0.5000 ( 61214 PWs)   bands (ev):

   -65.8202 -65.8202 -65.8199 -65.8199 -65.8194 -65.8194 -65.8191 -65.8190
   -30.2945 -30.2944 -30.2613 -30.2613 -30.2570 -30.2570 -30.2262 -30.2262
   -30.1681 -30.1681 -30.1585 -30.1585 -30.1349 -30.1349 -30.1286 -30.1286
   -30.1000 -30.1000 -30.0659 -30.0659 -30.0600 -30.0600 -30.0265 -30.0265
   -19.9730 -19.9730 -19.9729 -19.9729 -19.9726 -19.9726 -19.9725 -19.9725
   -19.9594 -19.9594 -19.9592 -19.9592 -19.9590 -19.9590 -19.9589 -19.9589
   -19.9538 -19.9537 -19.9518 -19.9518 -19.9517 -19.9517 -19.9499 -19.9498
   -19.9441 -19.9441 -19.9435 -19.9435 -19.9414 -19.9413 -19.9408 -19.9408
   -19.9387 -19.9387 -19.9380 -19.9380 -19.9376 -19.9376 -19.9366 -19.9366
   -19.9306 -19.9306 -19.9292 -19.9292 -19.9282 -19.9281 -19.9272 -19.9271
   -19.9229 -19.9229 -19.9221 -19.9221 -19.9216 -19.9216 -19.9204 -19.9204
    -9.2444  -9.2444  -8.9811  -8.9810  -8.6832  -8.6832  -8.3908  -8.3908
    -8.3654  -8.3654  -8.2916  -8.2916  -8.0943  -8.0942  -8.0417  -8.0416
    -7.8381  -7.8381  -7.7854  -7.7854  -7.7141  -7.7141  -7.4314  -7.4314
     1.8849   1.8849   2.1491   2.1492   2.6193   2.6193   2.7523   2.7523
     3.2009   3.2009   3.3010   3.3010   3.3474   3.3474   3.5379   3.5379
     3.5889   3.5890   3.6940   3.6940   3.9138   3.9138   4.0421   4.0421
     4.1927   4.1927   4.3455   4.3455   4.5347   4.5347   4.6658   4.6659
     5.0406   5.0406   5.1581   5.1581   5.3022   5.3022   5.3594   5.3594
     5.4464   5.4465   5.7701   5.7701   6.0124   6.0124   6.0733   6.0733
     6.8182   6.8182   7.0211   7.0212   7.0869   7.0869   7.1669   7.1669
     7.3151   7.3151   7.3604   7.3604   7.4483   7.4483   7.7354   7.7354
     7.7812   7.7813   7.8978   7.8979   7.9338   7.9339   8.1112   8.1112
    11.2006  11.2006  11.6966  11.6966  11.8804  11.8804  12.0758  12.0759
    12.3336  12.3336  12.5526  12.5526  12.8077  12.8077  12.9369  12.9369
    13.1256  13.1256  13.2398  13.2399  13.5132  13.5133  13.8005  13.8005
    15.5720  15.5721  16.0652  16.0652  16.6880  16.6880  16.8190  16.8190
    17.0077  17.0077  17.6618  17.6618  17.9911

          k = 0.1667-0.4851 0.1667 ( 61226 PWs)   bands (ev):

   -65.8204 -65.8204 -65.8197 -65.8197 -65.8196 -65.8196 -65.8188 -65.8188
   -30.2965 -30.2965 -30.2920 -30.2920 -30.2283 -30.2283 -30.2234 -30.2234
   -30.1547 -30.1547 -30.1527 -30.1527 -30.1421 -30.1421 -30.1392 -30.1392
   -30.1035 -30.1035 -30.0956 -30.0956 -30.0288 -30.0288 -30.0239 -30.0239
   -19.9731 -19.9731 -19.9728 -19.9728 -19.9727 -19.9727 -19.9724 -19.9724
   -19.9594 -19.9594 -19.9592 -19.9592 -19.9589 -19.9589 -19.9588 -19.9588
   -19.9538 -19.9538 -19.9536 -19.9536 -19.9499 -19.9499 -19.9498 -19.9498
   -19.9430 -19.9430 -19.9425 -19.9425 -19.9424 -19.9424 -19.9419 -19.9419
   -19.9389 -19.9389 -19.9386 -19.9386 -19.9371 -19.9371 -19.9363 -19.9363
   -19.9312 -19.9312 -19.9298 -19.9298 -19.9275 -19.9275 -19.9267 -19.9267
   -19.9231 -19.9231 -19.9227 -19.9227 -19.9207 -19.9207 -19.9202 -19.9202
    -9.3851  -9.3851  -9.0757  -9.0757  -8.7550  -8.7550  -8.5401  -8.5401
    -8.2188  -8.2188  -8.1520  -8.1520  -8.1277  -8.1277  -8.1053  -8.1053
    -7.8032  -7.8032  -7.6816  -7.6816  -7.4934  -7.4934  -7.3755  -7.3755
     1.8538   1.8538   1.8796   1.8796   2.1238   2.1238   2.3178   2.3178
     2.8833   2.8833   3.1406   3.1406   3.2726   3.2726   3.5632   3.5632
     3.5792   3.5792   3.7828   3.7828   3.8860   3.8861   4.0955   4.0955
     4.1526   4.1526   4.6335   4.6335   4.7351   4.7351   5.2256   5.2256
     5.2903   5.2904   5.3772   5.3772   5.4613   5.4613   5.7534   5.7534
     5.8039   5.8039   5.9550   5.9550   6.0120   6.0120   6.1817   6.1817
     6.7341   6.7341   6.8586   6.8586   6.9803   6.9803   7.1095   7.1095
     7.3354   7.3355   7.3540   7.3540   7.4896   7.4896   7.6217   7.6217
     7.7429   7.7429   7.8719   7.8719   7.9397   7.9397   8.0229   8.0229
    10.6537  10.6537  11.6137  11.6137  11.7000  11.7000  11.9931  11.9931
    12.1111  12.1111  12.5287  12.5287  12.8931  12.8931  12.9562  12.9562
    13.3965  13.3966  13.4854  13.4854  13.5299  13.5299  13.8607  13.8607
    15.5666  15.5666  15.8553  15.8553  16.1565  16.1565  16.3236  16.3236
    16.9889  16.9889  18.0936  18.0936  18.2319

          k = 0.1667-0.4851 0.3333 ( 61240 PWs)   bands (ev):

   -65.8203 -65.8203 -65.8198 -65.8197 -65.8195 -65.8194 -65.8190 -65.8190
   -30.2955 -30.2929 -30.2813 -30.2768 -30.2417 -30.2369 -30.2272 -30.2244
   -30.1546 -30.1534 -30.1526 -30.1506 -30.1456 -30.1432 -30.1416 -30.1399
   -30.1021 -30.0977 -30.0875 -30.0806 -30.0445 -30.0392 -30.0279 -30.0250
   -19.9730 -19.9730 -19.9728 -19.9728 -19.9727 -19.9727 -19.9725 -19.9725
   -19.9594 -19.9593 -19.9593 -19.9592 -19.9590 -19.9589 -19.9589 -19.9589
   -19.9538 -19.9537 -19.9529 -19.9528 -19.9507 -19.9506 -19.9499 -19.9499
   -19.9429 -19.9429 -19.9426 -19.9425 -19.9423 -19.9423 -19.9420 -19.9420
   -19.9388 -19.9387 -19.9385 -19.9382 -19.9375 -19.9369 -19.9369 -19.9364
   -19.9309 -19.9303 -19.9302 -19.9291 -19.9282 -19.9274 -19.9273 -19.9269
   -19.9230 -19.9228 -19.9227 -19.9223 -19.9213 -19.9208 -19.9206 -19.9203
    -9.2962  -9.2064  -9.1220  -8.8538  -8.8325  -8.5684  -8.4698  -8.4072
    -8.2897  -8.2537  -8.1766  -8.1415  -8.1342  -8.1196  -8.1110  -8.0689
    -8.0092  -7.9187  -7.7865  -7.7450  -7.7112  -7.6231  -7.4668  -7.3985
     1.8788   1.8923   2.1262   2.1494   2.4917   2.6735   2.7060   2.8602
     3.1234   3.1262   3.1654   3.1698   3.3514   3.3785   3.4770   3.5477
     3.5697   3.5866   3.7894   3.8340   3.9482   4.0471   4.0669   4.1130
     4.1339   4.1817   4.2328   4.2772   4.5880   4.6159   4.8305   4.8733
     4.9423   5.0170   5.1186   5.2014   5.2279   5.2963   5.3314   5.3917
     5.4408   5.5301   5.6401   5.7433   5.9650   6.0052   6.1101   6.1292
     6.8154   6.8371   6.9441   6.9638   7.0570   7.2314   7.2668   7.2816
     7.3189   7.3764   7.4017   7.4601   7.5136   7.5386   7.6146   7.6641
     7.7442   7.7844   7.8531   7.8951   7.9287   7.9377   7.9933   8.0009
    11.0963  11.1913  11.6152  11.7067  11.9053  11.9548  12.0420  12.1338
    12.2679  12.2757  12.3639  12.5325  12.7122  12.8632  12.9330  13.0241
    13.0375  13.1844  13.2475  13.3052  13.5020  13.5439  13.7206  13.7609
    15.5803  15.7925  15.9135  16.2293  16.4111  16.6253  16.6903  16.9111
    17.1289  17.1681  17.7418  17.8160  18.0033

          k = 0.1667-0.4851-0.5000 ( 61200 PWs)   bands (ev):

   -65.8201 -65.8200 -65.8200 -65.8200 -65.8192 -65.8192 -65.8192 -65.8192
   -30.2942 -30.2942 -30.2610 -30.2610 -30.2564 -30.2564 -30.2257 -30.2257
   -30.1541 -30.1541 -30.1495 -30.1494 -30.1473 -30.1473 -30.1409 -30.1408
   -30.1001 -30.1001 -30.0660 -30.0659 -30.0600 -30.0600 -30.0265 -30.0265
   -19.9730 -19.9729 -19.9729 -19.9729 -19.9726 -19.9726 -19.9726 -19.9725
   -19.9594 -19.9593 -19.9592 -19.9592 -19.9591 -19.9590 -19.9589 -19.9589
   -19.9537 -19.9537 -19.9518 -19.9518 -19.9516 -19.9516 -19.9499 -19.9499
   -19.9428 -19.9428 -19.9427 -19.9427 -19.9422 -19.9422 -19.9421 -19.9421
   -19.9387 -19.9387 -19.9380 -19.9380 -19.9376 -19.9376 -19.9366 -19.9366
   -19.9306 -19.9306 -19.9292 -19.9292 -19.9282 -19.9281 -19.9272 -19.9271
   -19.9229 -19.9229 -19.9221 -19.9221 -19.9216 -19.9216 -19.9204 -19.9204
    -9.1993  -9.1993  -8.9908  -8.9907  -8.5454  -8.5453  -8.3606  -8.3606
    -8.3199  -8.3199  -8.2344  -8.2343  -8.1107  -8.1107  -8.0801  -8.0801
    -8.0033  -8.0032  -7.9222  -7.9222  -7.7257  -7.7257  -7.4319  -7.4319
     1.8875   1.8875   2.1546   2.1546   3.0586   3.0586   3.2571   3.2571
     3.3309   3.3309   3.3485   3.3485   3.4031   3.4031   3.5115   3.5116
     3.6428   3.6428   3.6902   3.6903   3.7746   3.7746   3.9090   3.9090
     4.0564   4.0564   4.1993   4.1993   4.5607   4.5608   4.6235   4.6235
     4.7037   4.7037   4.7835   4.7835   5.1678   5.1678   5.3255   5.3255
     5.4212   5.4212   5.6258   5.6258   6.0019   6.0019   6.0373   6.0373
     6.8430   6.8430   7.0579   7.0579   7.1167   7.1167   7.2292   7.2292
     7.4525   7.4525   7.4991   7.4991   7.6200   7.6200   7.6983   7.6984
     7.7767   7.7768   7.8708   7.8709   7.9120   7.9120   7.9528   7.9528
    11.5204  11.5204  11.7820  11.7820  11.8596  11.8596  12.1065  12.1065
    12.3977  12.3978  12.5256  12.5256  12.6902  12.6903  12.7671  12.7671
    13.0017  13.0017  13.1676  13.1676  13.5702  13.5702  13.6146  13.6146
    15.6809  15.6809  16.1233  16.1233  17.0746  17.0747  17.2933  17.2933
    17.4286  17.4286  17.5687  17.5687  17.6822

          k = 0.3333 0.0000 0.3333 ( 61196 PWs)   bands (ev):

   -65.8204 -65.8199 -65.8199 -65.8198 -65.8195 -65.8193 -65.8193 -65.8188
   -30.2848 -30.2793 -30.2790 -30.2770 -30.2473 -30.2422 -30.2422 -30.2325
   -30.1849 -30.1779 -30.1775 -30.1708 -30.1187 -30.1160 -30.1154 -30.1125
   -30.0868 -30.0853 -30.0825 -30.0819 -30.0435 -30.0434 -30.0412 -30.0396
   -19.9730 -19.9729 -19.9728 -19.9728 -19.9727 -19.9726 -19.9726 -19.9725
   -19.9594 -19.9594 -19.9593 -19.9592 -19.9591 -19.9589 -19.9589 -19.9588
   -19.9534 -19.9530 -19.9529 -19.9525 -19.9513 -19.9506 -19.9506 -19.9500
   -19.9456 -19.9452 -19.9451 -19.9448 -19.9401 -19.9398 -19.9395 -19.9393
   -19.9385 -19.9383 -19.9382 -19.9381 -19.9373 -19.9372 -19.9371 -19.9366
   -19.9302 -19.9300 -19.9294 -19.9294 -19.9280 -19.9280 -19.9276 -19.9274
   -19.9228 -19.9224 -19.9224 -19.9223 -19.9212 -19.9212 -19.9211 -19.9207
    -9.3569  -9.1312  -9.1182  -8.9657  -8.8924  -8.6898  -8.6629  -8.5375
    -8.3650  -8.3423  -8.3364  -8.2786  -8.0977  -8.0443  -8.0095  -7.9856
    -7.7435  -7.7277  -7.6855  -7.6491  -7.4931  -7.4646  -7.4638  -7.4359
     1.8345   1.8530   1.8627   1.8772   2.4964   2.5070   2.5551   2.5578
     2.7675   2.7757   2.8881   2.9936   3.0596   3.2189   3.2491   3.2882
     3.4638   3.5014   3.9227   4.0567   4.1090   4.1287   4.2576   4.3567
     4.3958   4.4529   4.5428   4.5995   4.7125   4.7733   4.8791   4.9037
     4.9745   5.1136   5.2968   5.3346   5.3826   5.4307   5.4686   5.6305
     5.6538   5.7678   5.8235   5.9416   6.2137   6.2523   6.2618   6.4309
     6.6463   6.7243   6.7448   6.7652   6.7952   6.8349   6.8415   6.8719
     7.2561   7.3178   7.4089   7.4246   7.4853   7.5543   7.5937   7.6079
     7.6637   7.7255   7.9165   7.9166   8.0567   8.1164   8.2311   8.2850
    11.0318  11.0926  11.2635  11.2792  11.6266  11.7534  12.2697  12.2793
    12.3573  12.4159  12.5656  12.5744  12.8467  12.8468  13.1572  13.1587
    13.2446  13.3930  13.4435  13.4451  13.7438  13.8286  13.8758  13.9741
    15.1092  15.3047  15.3052  15.7192  15.9902  16.2691  16.5495  16.6835
    16.9196  17.1738  17.3819  17.7593  17.7741

          k = 0.3333 0.0000-0.5000 ( 61224 PWs)   bands (ev):

   -65.8202 -65.8202 -65.8197 -65.8197 -65.8196 -65.8195 -65.8191 -65.8191
   -30.2807 -30.2807 -30.2610 -30.2609 -30.2598 -30.2597 -30.2394 -30.2394
   -30.1819 -30.1819 -30.1748 -30.1748 -30.1174 -30.1173 -30.1142 -30.1142
   -30.0843 -30.0843 -30.0647 -30.0647 -30.0614 -30.0614 -30.0420 -30.0420
   -19.9730 -19.9729 -19.9728 -19.9728 -19.9727 -19.9727 -19.9726 -19.9726
   -19.9594 -19.9594 -19.9593 -19.9593 -19.9590 -19.9590 -19.9589 -19.9589
   -19.9531 -19.9530 -19.9520 -19.9519 -19.9516 -19.9516 -19.9505 -19.9504
   -19.9454 -19.9454 -19.9450 -19.9450 -19.9399 -19.9399 -19.9395 -19.9394
   -19.9384 -19.9383 -19.9378 -19.9377 -19.9377 -19.9377 -19.9369 -19.9369
   -19.9298 -19.9298 -19.9290 -19.9290 -19.9284 -19.9284 -19.9278 -19.9277
   -19.9225 -19.9225 -19.9219 -19.9219 -19.9217 -19.9217 -19.9210 -19.9210
    -9.2221  -9.2221  -8.9800  -8.9800  -8.7856  -8.7856  -8.4519  -8.4519
    -8.3975  -8.3974  -8.2176  -8.2176  -8.1654  -8.1654  -8.0432  -8.0432
    -7.9131  -7.9131  -7.7001  -7.7001  -7.4799  -7.4799  -7.4512  -7.4511
     1.8450   1.8450   1.8697   1.8698   2.5578   2.5578   2.7671   2.7671
     3.1146   3.1146   3.2930   3.2931   3.3743   3.3743   3.5020   3.5020
     3.5857   3.5857   3.7819   3.7819   3.9551   3.9551   4.0296   4.0296
     4.2486   4.2486   4.2970   4.2970   4.5169   4.5169   4.7249   4.7250
     4.9798   4.9798   5.2036   5.2036   5.3643   5.3644   5.4260   5.4260
     5.6102   5.6102   5.8512   5.8512   6.2670   6.2670   6.3921   6.3921
     6.6375   6.6375   6.7216   6.7216   6.7705   6.7705   6.8284   6.8284
     7.3959   7.3959   7.4891   7.4891   7.5743   7.5744   7.7616   7.7616
     7.8009   7.8009   7.9113   7.9113   7.9569   7.9570   8.2276   8.2276
    11.1619  11.1619  11.7641  11.7641  11.8176  11.8176  12.0917  12.0917
    12.3186  12.3186  12.4018  12.4019  12.8383  12.8383  13.0821  13.0821
    13.2603  13.2604  13.5561  13.5561  13.6123  13.6123  13.8855  13.8855
    15.2347  15.2347  15.5511  15.5511  16.3945  16.3946  16.8480  16.8481
    17.0874  17.0874  17.6199  17.6200  18.1314

          k = 0.3333 0.1617 0.3333 ( 61218 PWs)   bands (ev):

   -65.8204 -65.8199 -65.8199 -65.8198 -65.8194 -65.8194 -65.8193 -65.8189
   -30.2841 -30.2790 -30.2787 -30.2773 -30.2458 -30.2417 -30.2417 -30.2330
   -30.1807 -30.1743 -30.1739 -30.1676 -30.1233 -30.1204 -30.1198 -30.1168
   -30.0868 -30.0854 -30.0825 -30.0820 -30.0435 -30.0434 -30.0411 -30.0398
   -19.9730 -19.9729 -19.9728 -19.9728 -19.9727 -19.9727 -19.9726 -19.9725
   -19.9594 -19.9594 -19.9593 -19.9592 -19.9591 -19.9589 -19.9589 -19.9589
   -19.9533 -19.9529 -19.9529 -19.9526 -19.9512 -19.9506 -19.9506 -19.9501
   -19.9452 -19.9448 -19.9448 -19.9445 -19.9404 -19.9401 -19.9399 -19.9397
   -19.9385 -19.9383 -19.9382 -19.9382 -19.9373 -19.9372 -19.9372 -19.9366
   -19.9301 -19.9300 -19.9294 -19.9294 -19.9280 -19.9280 -19.9276 -19.9274
   -19.9227 -19.9224 -19.9224 -19.9223 -19.9212 -19.9212 -19.9211 -19.9207
    -9.3139  -9.0819  -9.0673  -8.9783  -8.8195  -8.6875  -8.6594  -8.5073
    -8.3550  -8.3344  -8.3283  -8.2741  -8.1048  -8.0424  -8.0118  -7.9845
    -7.7483  -7.7330  -7.6974  -7.6501  -7.5851  -7.5589  -7.5576  -7.5292
     2.0330   2.0629   2.0709   2.1048   2.4962   2.5112   2.5532   2.5661
     2.7705   2.7795   2.8907   2.9928   3.1366   3.2937   3.3055   3.3689
[...]
    11.2617  11.2617  11.8060  11.8060  11.8899  11.8899  12.0966  12.0966
    12.3358  12.3358  12.4470  12.4470  12.8265  12.8265  13.0657  13.0658
    13.1401  13.1401  13.4278  13.4278  13.4994  13.4994  13.8033  13.8033
    15.5200  15.5200  15.8691  15.8692  16.4549  16.4549  16.8583  16.8583
    17.1040  17.1040  17.6351  17.6351  18.0949

          k = 0.3333 0.3234 0.3333 ( 61237 PWs)   bands (ev):

   -65.8202 -65.8199 -65.8198 -65.8198 -65.8195 -65.8194 -65.8193 -65.8190
   -30.2823 -30.2789 -30.2780 -30.2778 -30.2422 -30.2409 -30.2406 -30.2348
   -30.1690 -30.1640 -30.1636 -30.1580 -30.1357 -30.1322 -30.1318 -30.1285
   -30.0866 -30.0858 -30.0824 -30.0822 -30.0435 -30.0434 -30.0409 -30.0401
   -19.9730 -19.9729 -19.9728 -19.9728 -19.9727 -19.9727 -19.9726 -19.9725
   -19.9593 -19.9593 -19.9593 -19.9592 -19.9591 -19.9590 -19.9589 -19.9589
   -19.9531 -19.9528 -19.9528 -19.9527 -19.9509 -19.9507 -19.9506 -19.9503
   -19.9442 -19.9439 -19.9438 -19.9435 -19.9414 -19.9411 -19.9410 -19.9407
   -19.9385 -19.9383 -19.9383 -19.9382 -19.9373 -19.9373 -19.9371 -19.9368
   -19.9301 -19.9300 -19.9294 -19.9294 -19.9280 -19.9280 -19.9275 -19.9275
   -19.9227 -19.9225 -19.9224 -19.9223 -19.9212 -19.9212 -19.9210 -19.9208
    -9.2092  -9.0234  -8.9674  -8.9553  -8.6827  -8.6517  -8.6113  -8.4213
    -8.3452  -8.2903  -8.2697  -8.2435  -8.1475  -8.0380  -8.0231  -7.9818
    -7.8516  -7.8369  -7.8205  -7.7913  -7.7067  -7.7061  -7.6516  -7.6417
     2.4243   2.4523   2.4668   2.5085   2.6154   2.6456   2.6585   2.7064
     2.8300   2.8609   2.8924   3.0398   3.3166   3.3905   3.4592   3.5357
     3.5736   3.6546   3.8890   3.9878   4.0506   4.1476   4.1713   4.2765
     4.3158   4.4218   4.4486   4.4940   4.5570   4.6081   4.6916   4.7573
     4.8344   4.8609   4.9731   5.0298   5.0679   5.0956   5.1116   5.1717
     5.2625   5.3411   5.4444   5.5097   5.6219   5.6940   5.6980   5.7526
     6.9560   6.9946   7.0854   7.1248   7.2013   7.2364   7.2786   7.3015
     7.3526   7.3749   7.4704   7.4830   7.5016   7.5709   7.6283   7.6374
     7.7035   7.7515   7.8976   7.9282   8.0064   8.0123   8.0928   8.0945
    11.3511  11.4056  11.5990  11.6602  11.7190  11.9260  12.3419  12.3680
    12.4235  12.5027  12.5321  12.6189  12.7247  12.8290  12.8490  12.8977
    12.9879  13.0065  13.1483  13.3248  13.4164  13.5199  13.5492  13.7085
    15.9949  16.1006  16.1571  16.2643  16.3522  16.6976  16.7763  16.8976
    17.0196  17.2172  17.4288  17.5358  17.9188

          k = 0.3333 0.3234-0.5000 ( 61234 PWs)   bands (ev):

   -65.8200 -65.8200 -65.8197 -65.8197 -65.8196 -65.8195 -65.8192 -65.8192
   -30.2794 -30.2794 -30.2602 -30.2601 -30.2580 -30.2580 -30.2392 -30.2392
   -30.1667 -30.1667 -30.1613 -30.1612 -30.1341 -30.1341 -30.1305 -30.1305
   -30.0844 -30.0844 -30.0648 -30.0648 -30.0615 -30.0614 -30.0420 -30.0420
   -19.9729 -19.9729 -19.9728 -19.9728 -19.9727 -19.9727 -19.9726 -19.9726
   -19.9593 -19.9593 -19.9592 -19.9592 -19.9591 -19.9591 -19.9590 -19.9590
   -19.9529 -19.9529 -19.9518 -19.9518 -19.9517 -19.9517 -19.9506 -19.9506
   -19.9440 -19.9440 -19.9437 -19.9437 -19.9413 -19.9412 -19.9409 -19.9409
   -19.9384 -19.9383 -19.9379 -19.9378 -19.9377 -19.9377 -19.9371 -19.9370
   -19.9298 -19.9298 -19.9290 -19.9290 -19.9284 -19.9284 -19.9278 -19.9277
   -19.9225 -19.9225 -19.9220 -19.9219 -19.9217 -19.9217 -19.9210 -19.9210
    -9.0614  -9.0614  -8.8214  -8.8213  -8.7389  -8.7389  -8.4229  -8.4228
    -8.3400  -8.3400  -8.2188  -8.2188  -8.1425  -8.1425  -8.0493  -8.0492
    -7.9202  -7.9202  -7.8183  -7.8183  -7.7929  -7.7929  -7.6764  -7.6764
     2.4681   2.4681   2.6314   2.6314   2.6814   2.6814   2.8239   2.8239
     3.2555   3.2555   3.3609   3.3609   3.4160   3.4161   3.5630   3.5630
     3.6796   3.6797   3.8461   3.8461   4.0057   4.0057   4.0898   4.0898
     4.2144   4.2144   4.3773   4.3774   4.4138   4.4138   4.5661   4.5661
     4.6855   4.6855   4.8523   4.8523   4.9337   4.9337   5.1560   5.1560
     5.2196   5.2196   5.3049   5.3049   5.4193   5.4193   5.6616   5.6616
     7.0168   7.0168   7.1808   7.1809   7.2069   7.2069   7.3149   7.3150
     7.4548   7.4548   7.5077   7.5077   7.6182   7.6182   7.7598   7.7599
     7.7938   7.7938   7.8994   7.8994   7.9252   7.9252   8.0751   8.0751
    11.5449  11.5449  11.9103  11.9103  12.0830  12.0830  12.1305  12.1305
    12.4153  12.4153  12.5721  12.5721  12.7030  12.7031  12.8351  12.8351
    13.0357  13.0357  13.1596  13.1596  13.2426  13.2426  13.5577  13.5577
    16.1425  16.1426  16.5028  16.5028  16.7635  16.7635  16.9584  16.9584
    17.1704  17.1704  17.6250  17.6250  17.9375

          k = 0.3333-0.4851 0.3333 ( 61272 PWs)   bands (ev):

   -65.8201 -65.8201 -65.8197 -65.8197 -65.8196 -65.8196 -65.8192 -65.8191
   -30.2803 -30.2803 -30.2777 -30.2777 -30.2406 -30.2406 -30.2378 -30.2378
   -30.1526 -30.1526 -30.1513 -30.1512 -30.1454 -30.1453 -30.1437 -30.1437
   -30.0862 -30.0862 -30.0823 -30.0823 -30.0435 -30.0435 -30.0405 -30.0405
   -19.9730 -19.9730 -19.9728 -19.9728 -19.9727 -19.9727 -19.9725 -19.9725
   -19.9593 -19.9593 -19.9592 -19.9592 -19.9590 -19.9590 -19.9590 -19.9590
   -19.9529 -19.9529 -19.9528 -19.9528 -19.9507 -19.9507 -19.9506 -19.9506
   -19.9428 -19.9428 -19.9425 -19.9425 -19.9424 -19.9424 -19.9421 -19.9421
   -19.9384 -19.9384 -19.9383 -19.9382 -19.9373 -19.9373 -19.9370 -19.9370
   -19.9301 -19.9301 -19.9294 -19.9294 -19.9280 -19.9280 -19.9275 -19.9275
   -19.9226 -19.9226 -19.9224 -19.9223 -19.9212 -19.9212 -19.9209 -19.9209
    -9.0992  -9.0992  -8.9015  -8.9015  -8.6580  -8.6580  -8.3724  -8.3724
    -8.3233  -8.3233  -8.1533  -8.1533  -8.1048  -8.1048  -8.0875  -8.0875
    -7.9932  -7.9932  -7.9323  -7.9323  -7.7190  -7.7189  -7.6523  -7.6523
     2.4748   2.4748   2.5110   2.5110   2.7291   2.7291   2.8672   2.8672
     3.2054   3.2054   3.3058   3.3058   3.4537   3.4537   3.5158   3.5158
     3.5659   3.5659   3.9168   3.9168   4.0764   4.0764   4.1104   4.1104
     4.1432   4.1432   4.3365   4.3365   4.4565   4.4565   4.6195   4.6195
     4.8456   4.8456   4.8952   4.8952   5.0146   5.0146   5.1150   5.1151
     5.2221   5.2221   5.2708   5.2708   5.3501   5.3501   5.6569   5.6569
     7.0473   7.0473   7.1975   7.1975   7.3279   7.3279   7.3821   7.3821
     7.4774   7.4775   7.5037   7.5037   7.5696   7.5696   7.6971   7.6971
     7.7744   7.7744   7.8675   7.8675   7.9310   7.9310   7.9806   7.9806
    11.4757  11.4758  11.9071  11.9071  12.0171  12.0171  12.2631  12.2631
    12.3609  12.3609  12.5058  12.5058  12.6662  12.6662  12.8472  12.8472
    13.0129  13.0129  13.1735  13.1735  13.2481  13.2481  13.5392  13.5392
    16.1708  16.1708  16.4910  16.4910  16.7692  16.7693  16.9024  16.9025
    17.2819  17.2819  17.7929  17.7930  17.8903

          k = 0.3333-0.4851-0.5000 ( 61232 PWs)   bands (ev):

   -65.8199 -65.8199 -65.8199 -65.8198 -65.8194 -65.8194 -65.8194 -65.8194
   -30.2790 -30.2790 -30.2600 -30.2600 -30.2573 -30.2573 -30.2391 -30.2391
   -30.1521 -30.1521 -30.1494 -30.1493 -30.1480 -30.1479 -30.1446 -30.1446
   -30.0844 -30.0844 -30.0648 -30.0648 -30.0615 -30.0614 -30.0420 -30.0420
   -19.9729 -19.9729 -19.9729 -19.9728 -19.9727 -19.9726 -19.9726 -19.9726
   -19.9593 -19.9593 -19.9592 -19.9592 -19.9591 -19.9591 -19.9590 -19.9590
   -19.9529 -19.9528 -19.9518 -19.9518 -19.9517 -19.9516 -19.9507 -19.9506
   -19.9427 -19.9427 -19.9426 -19.9426 -19.9423 -19.9423 -19.9423 -19.9423
   -19.9383 -19.9383 -19.9379 -19.9379 -19.9376 -19.9376 -19.9371 -19.9371
   -19.9298 -19.9298 -19.9290 -19.9290 -19.9284 -19.9284 -19.9278 -19.9278
   -19.9225 -19.9224 -19.9220 -19.9220 -19.9217 -19.9217 -19.9211 -19.9210
    -8.9868  -8.9868  -8.8484  -8.8484  -8.5968  -8.5968  -8.4591  -8.4590
    -8.2549  -8.2549  -8.1899  -8.1899  -8.1026  -8.1026  -8.0823  -8.0823
    -8.0026  -8.0025  -7.9627  -7.9626  -7.8947  -7.8946  -7.6852  -7.6851
     2.5134   2.5134   2.7335   2.7335   3.1098   3.1098   3.2276   3.2276
     3.3488   3.3488   3.3960   3.3960   3.4278   3.4278   3.5080   3.5080
     3.7183   3.7183   3.7453   3.7453   3.8801   3.8801   4.0997   4.0997
     4.1571   4.1571   4.2756   4.2756   4.4121   4.4122   4.5710   4.5711
     4.7030   4.7031   4.7309   4.7309   4.8167   4.8167   4.8735   4.8735
     5.0007   5.0007   5.1668   5.1669   5.3298   5.3298   5.3648   5.3648
     7.1045   7.1045   7.3143   7.3143   7.3606   7.3606   7.4177   7.4177
     7.5129   7.5129   7.5598   7.5598   7.6837   7.6837   7.7205   7.7205
     7.7936   7.7936   7.8675   7.8676   7.8996   7.8996   7.9645   7.9645
    11.7911  11.7911  11.9641  11.9641  12.1453  12.1453  12.2952  12.2952
    12.4052  12.4052  12.5820  12.5820  12.6681  12.6681  12.7319  12.7319
    12.8483  12.8483  12.9411  12.9411  13.2706  13.2706  13.3383  13.3383
    16.3774  16.3774  16.6719  16.6720  17.1854  17.1854  17.3031  17.3032
    17.4976  17.4976  17.5886  17.5887  17.6770

          k =-0.5000 0.0000-0.5000 ( 61148 PWs)   bands (ev):

   -65.8200 -65.8199 -65.8199 -65.8199 -65.8194 -65.8193 -65.8193 -65.8193
   -30.2655 -30.2654 -30.2647 -30.2647 -30.2550 -30.2549 -30.2543 -30.2543
   -30.1791 -30.1791 -30.1787 -30.1787 -30.1162 -30.1162 -30.1156 -30.1156
   -30.0642 -30.0641 -30.0637 -30.0637 -30.0626 -30.0625 -30.0621 -30.0621
   -19.9729 -19.9728 -19.9728 -19.9728 -19.9727 -19.9727 -19.9726 -19.9726
   -19.9594 -19.9594 -19.9593 -19.9593 -19.9591 -19.9590 -19.9589 -19.9589
   -19.9523 -19.9523 -19.9522 -19.9522 -19.9513 -19.9513 -19.9512 -19.9512
   -19.9452 -19.9452 -19.9452 -19.9452 -19.9399 -19.9398 -19.9395 -19.9395
   -19.9381 -19.9381 -19.9378 -19.9378 -19.9375 -19.9374 -19.9374 -19.9374
   -19.9289 -19.9289 -19.9287 -19.9287 -19.9287 -19.9287 -19.9286 -19.9285
   -19.9221 -19.9220 -19.9220 -19.9219 -19.9217 -19.9217 -19.9216 -19.9216
    -9.0855  -9.0855  -9.0675  -9.0675  -8.5766  -8.5766  -8.5008  -8.5007
    -8.3888  -8.3888  -8.3047  -8.3047  -8.0709  -8.0708  -8.0311  -8.0311
    -7.9833  -7.9833  -7.9339  -7.9339  -7.4675  -7.4675  -7.4659  -7.4659
     1.8516   1.8516   1.8648   1.8649   3.1320   3.1320   3.1608   3.1608
     3.3072   3.3072   3.3079   3.3080   3.4884   3.4884   3.5754   3.5754
     3.6839   3.6839   3.7039   3.7039   3.8307   3.8307   3.9633   3.9633
     3.9828   3.9829   4.2153   4.2154   4.4794   4.4794   4.5562   4.5562
     4.5874   4.5875   4.7315   4.7315   5.2875   5.2875   5.3409   5.3410
     5.6644   5.6645   5.7330   5.7330   6.3657   6.3657   6.3775   6.3775
     6.6363   6.6364   6.7102   6.7102   6.7189   6.7189   6.7343   6.7343
     7.6122   7.6123   7.6304   7.6304   7.6528   7.6528   7.7708   7.7709
     7.8434   7.8434   7.9159   7.9159   7.9243   7.9243   8.1480   8.1480
    11.6253  11.6254  11.7683  11.7683  11.8668  11.8668  12.0029  12.0030
    12.4544  12.4544  12.5051  12.5051  12.6401  12.6401  12.6967  12.6967
    13.3768  13.3768  13.5091  13.5091  13.6234  13.6234  13.7434  13.7434
    15.4190  15.4190  15.4355  15.4355  16.8405  16.8406  17.1917  17.1918
    17.4460  17.4460  17.5027  17.5027  17.6819

          k =-0.5000 0.1617-0.5000 ( 61272 PWs)   bands (ev):

   -65.8199 -65.8199 -65.8199 -65.8199 -65.8194 -65.8193 -65.8193 -65.8193
   -30.2644 -30.2644 -30.2637 -30.2636 -30.2554 -30.2554 -30.2548 -30.2548
   -30.1753 -30.1753 -30.1749 -30.1749 -30.1207 -30.1207 -30.1201 -30.1201
   -30.0640 -30.0640 -30.0637 -30.0637 -30.0627 -30.0626 -30.0623 -30.0623
   -19.9729 -19.9728 -19.9728 -19.9728 -19.9727 -19.9727 -19.9727 -19.9727
   -19.9594 -19.9594 -19.9593 -19.9592 -19.9591 -19.9590 -19.9590 -19.9589
   -19.9522 -19.9522 -19.9521 -19.9521 -19.9514 -19.9513 -19.9513 -19.9512
   -19.9449 -19.9448 -19.9448 -19.9448 -19.9402 -19.9402 -19.9399 -19.9399
   -19.9381 -19.9381 -19.9379 -19.9378 -19.9375 -19.9375 -19.9374 -19.9374
   -19.9289 -19.9289 -19.9287 -19.9287 -19.9287 -19.9287 -19.9286 -19.9286
   -19.9220 -19.9220 -19.9219 -19.9219 -19.9217 -19.9217 -19.9216 -19.9216
    -9.0269  -9.0268  -9.0058  -9.0058  -8.5879  -8.5878  -8.5141  -8.5140
    -8.3709  -8.3709  -8.2889  -8.2889  -8.0709  -8.0709  -8.0313  -8.0313
    -7.9860  -7.9859  -7.9339  -7.9339  -7.5646  -7.5646  -7.5617  -7.5617
     2.0690   2.0690   2.0826   2.0826   3.1452   3.1452   3.1801   3.1801
     3.3089   3.3089   3.3109   3.3109   3.5065   3.5065   3.6104   3.6104
     3.6819   3.6819   3.7005   3.7005   3.8794   3.8794   4.0009   4.0010
     4.0292   4.0292   4.2598   4.2599   4.4607   4.4607   4.5542   4.5542
     4.5662   4.5662   4.7293   4.7293   5.0617   5.0618   5.1091   5.1091
     5.4323   5.4323   5.4726   5.4726   6.1107   6.1107   6.1118   6.1118
     6.7916   6.7917   6.8725   6.8725   6.9200   6.9200   6.9642   6.9642
     7.6138   7.6138   7.6353   7.6353   7.6662   7.6663   7.7728   7.7729
     7.8459   7.8459   7.9122   7.9122   7.9250   7.9251   8.1181   8.1181
    11.6932  11.6932  11.8467  11.8467  11.9084  11.9084  12.0684  12.0684
    12.4565  12.4565  12.4969  12.4969  12.6545  12.6545  12.7048  12.7048
    13.2445  13.2445  13.3719  13.3719  13.5182  13.5182  13.6302  13.6302
    15.7466  15.7466  15.7569  15.7569  16.8982  16.8982  17.2100  17.2100
    17.4149  17.4149  17.5184  17.5184  17.7024

          k =-0.5000 0.3234-0.5000 ( 61264 PWs)   bands (ev):

   -65.8198 -65.8198 -65.8198 -65.8198 -65.8195 -65.8195 -65.8195 -65.8194
   -30.2619 -30.2618 -30.2611 -30.2611 -30.2567 -30.2567 -30.2561 -30.2561
   -30.1645 -30.1645 -30.1641 -30.1641 -30.1328 -30.1328 -30.1323 -30.1323
   -30.0637 -30.0637 -30.0635 -30.0635 -30.0629 -30.0629 -30.0627 -30.0626
   -19.9728 -19.9728 -19.9728 -19.9728 -19.9728 -19.9727 -19.9727 -19.9727
   -19.9593 -19.9593 -19.9592 -19.9592 -19.9591 -19.9591 -19.9590 -19.9590
   -19.9520 -19.9520 -19.9520 -19.9519 -19.9515 -19.9515 -19.9514 -19.9514
   -19.9439 -19.9439 -19.9438 -19.9438 -19.9412 -19.9411 -19.9410 -19.9410
   -19.9380 -19.9379 -19.9378 -19.9378 -19.9376 -19.9376 -19.9376 -19.9376
   -19.9289 -19.9288 -19.9288 -19.9287 -19.9287 -19.9287 -19.9286 -19.9286
   -19.9220 -19.9219 -19.9219 -19.9219 -19.9218 -19.9218 -19.9217 -19.9217
    -8.8798  -8.8798  -8.8464  -8.8464  -8.6267  -8.6266  -8.5619  -8.5619
    -8.3059  -8.3059  -8.2312  -8.2312  -8.0746  -8.0745  -8.0293  -8.0292
    -8.0054  -8.0054  -7.9326  -7.9326  -7.7967  -7.7967  -7.7813  -7.7813
     2.6331   2.6331   2.6454   2.6454   3.1698   3.1698   3.2129   3.2129
     3.3187   3.3188   3.3205   3.3205   3.5518   3.5519   3.6612   3.6612
     3.6832   3.6833   3.6869   3.6869   3.9953   3.9953   4.0439   4.0439
     4.2072   4.2072   4.2652   4.2652   4.4522   4.4522   4.4826   4.4826
     4.5391   4.5391   4.7202   4.7202   4.7402   4.7402   4.7897   4.7897
     5.0321   5.0322   5.0369   5.0369   5.4309   5.4309   5.4571   5.4571
     7.0861   7.0861   7.2023   7.2023   7.2243   7.2243   7.3338   7.3338
     7.6073   7.6073   7.6423   7.6423   7.6685   7.6685   7.7720   7.7720
     7.8490   7.8490   7.8789   7.8790   7.9111   7.9112   8.0311   8.0311
    11.9055  11.9055  12.0462  12.0462  12.0580  12.0580  12.2347  12.2347
    12.4564  12.4564  12.4732  12.4732  12.7064  12.7064  12.7403  12.7403
    12.9295  12.9295  13.0463  13.0463  13.2287  13.2287  13.3142  13.3142
    16.5497  16.5497  16.5537  16.5537  17.0711  17.0712  17.2515  17.2516
    17.3163  17.3163  17.5490  17.5490  17.7742

          k =-0.5000-0.4851-0.5000 ( 61200 PWs)   bands (ev):

   -65.8197 -65.8197 -65.8196 -65.8196 -65.8196 -65.8196 -65.8196 -65.8196
   -30.2596 -30.2596 -30.2583 -30.2583 -30.2583 -30.2583 -30.2583 -30.2583
   -30.1491 -30.1491 -30.1490 -30.1490 -30.1490 -30.1490 -30.1479 -30.1479
   -30.0633 -30.0633 -30.0633 -30.0633 -30.0632 -30.0632 -30.0631 -30.0630
   -19.9728 -19.9728 -19.9728 -19.9727 -19.9727 -19.9727 -19.9727 -19.9727
   -19.9592 -19.9592 -19.9592 -19.9592 -19.9591 -19.9591 -19.9591 -19.9591
   -19.9518 -19.9518 -19.9518 -19.9518 -19.9517 -19.9517 -19.9516 -19.9516
   -19.9425 -19.9425 -19.9425 -19.9425 -19.9425 -19.9425 -19.9424 -19.9424
   -19.9378 -19.9378 -19.9378 -19.9377 -19.9377 -19.9377 -19.9377 -19.9377
   -19.9288 -19.9288 -19.9288 -19.9288 -19.9287 -19.9287 -19.9286 -19.9286
   -19.9219 -19.9219 -19.9219 -19.9218 -19.9218 -19.9218 -19.9218 -19.9217
    -8.7528  -8.7528  -8.6905  -8.6905  -8.6709  -8.6709  -8.6709  -8.6709
    -8.2076  -8.2076  -8.1199  -8.1199  -8.1199  -8.1199  -8.0837  -8.0837
    -7.9949  -7.9949  -7.9949  -7.9948  -7.9245  -7.9245  -7.9040  -7.9040
     3.1340   3.1341   3.1341   3.1341   3.1433   3.1433   3.1864   3.1864
     3.3531   3.3531   3.4895   3.4895   3.4895   3.4895   3.5871   3.5872
     3.6657   3.6658   3.7886   3.7886   3.7886   3.7886   3.8066   3.8067
     4.3719   4.3720   4.3822   4.3822   4.4683   4.4683   4.4683   4.4683
     4.6667   4.6667   4.6667   4.6667   4.6675   4.6675   4.7735   4.7735
     4.8198   4.8198   4.8951   4.8951   4.8996   4.8996   4.8996   4.8997
     7.2198   7.2198   7.3656   7.3656   7.3657   7.3657   7.5330   7.5331
     7.6172   7.6172   7.6172   7.6172   7.6613   7.6614   7.7547   7.7548
     7.8557   7.8557   7.8708   7.8709   7.8709   7.8709   7.9521   7.9522
    12.1512  12.1512  12.1964  12.1964  12.1964  12.1964  12.2293  12.2293
    12.5413  12.5413  12.5413  12.5414  12.5479  12.5479  12.7785  12.7785
    12.8198  12.8198  12.9594  12.9594  12.9594  12.9594  12.9896  12.9896
    17.1305  17.1305  17.1305  17.1305  17.2266  17.2267  17.2857  17.2857
    17.6057  17.6156  17.6157  17.6157  17.6157

     the Fermi energy is    10.3504 ev

!    total energy              =   -6260.96710319 Ry
     Harris-Foulkes estimate   =   -6260.96710319 Ry
     estimated scf accuracy    <          7.7E-10 Ry

     The total energy is the sum of the following terms:

     one-electron contribution =   -4632.96924130 Ry
     hartree contribution      =    2557.64727012 Ry
     xc contribution           =    -965.79972052 Ry
     ewald contribution        =   -3219.84540924 Ry
     smearing contrib. (-TS)   =      -0.00000225 Ry

     convergence has been achieved in  13 iterations

     Writing output data file Landau_31.save
 
     init_run     :     21.99s CPU     23.07s WALL (       1 calls)
     electrons    :    926.99s CPU    943.11s WALL (       1 calls)

     Called by init_run:
     wfcinit      :     20.15s CPU     21.09s WALL (       1 calls)
     potinit      :      0.67s CPU      0.71s WALL (       1 calls)

     Called by electrons:
     c_bands      :    811.09s CPU    825.81s WALL (      13 calls)
     sum_band     :    107.77s CPU    108.36s WALL (      13 calls)
     v_of_rho     :      1.85s CPU      1.88s WALL (      14 calls)
     mix_rho      :      4.48s CPU      5.00s WALL (      13 calls)

     Called by c_bands:
     init_us_2    :      9.57s CPU     10.13s WALL (      27 calls)
     cegterg      :    670.30s CPU    684.78s WALL (      13 calls)

     Called by sum_band:

     Called by *egterg:
     h_psi        :    516.66s CPU    518.87s WALL (      55 calls)
     g_psi        :      2.33s CPU      2.33s WALL (      41 calls)
     cdiaghg      :      7.85s CPU      7.87s WALL (      54 calls)

     Called by h_psi:
     h_psi:pot    :    513.12s CPU    515.20s WALL (      55 calls)
     h_psi:calbec :     66.87s CPU     68.23s WALL (      55 calls)
     vloc_psi     :    375.66s CPU    376.23s WALL (      55 calls)
     add_vuspsi   :     70.58s CPU     70.74s WALL (      55 calls)

     General routines
     calbec       :     66.87s CPU     68.23s WALL (      55 calls)
     fft          :      1.11s CPU      1.11s WALL (      56 calls)
     fftw         :    368.20s CPU    368.47s WALL (   17093 calls)
 
     Parallel routines
 
     PWSCF        : 15m50.95s CPU    16m11.67s WALL

 
   This run was terminated on:  19:18:20  10Sep2019            

=------------------------------------------------------------------------------=
   JOB DONE.
=------------------------------------------------------------------------------=
