
     Program PWSCF v.6.2 (svn rev. 14038) starts on 20Mar2020 at  3: 0:22 

     This program is part of the open-source Quantum ESPRESSO suite
     for quantum simulation of materials; please cite
         "P. Giannozzi et al., J. Phys.:Condens. Matter 21 395502 (2009);
         "P. Giannozzi et al., J. Phys.:Condens. Matter 29 465901 (2017);
          URL http://www.quantum-espresso.org", 
     in publications or presentations arising from this work. More details at
     http://www.quantum-espresso.org/quote

     Parallel version (MPI), running on    40 processors

     MPI processes distributed on     5 nodes
     K-points division:     npool     =      40
     Reading input from rscf.in

     Current dimensions of program PWSCF are:
     Max number of different atomic species (ntypx) = 10
     Max number of k-points (npk) =  40000
     Max angular momentum in pseudopotentials (lmaxx) =  3

     Subspace diagonalization in iterative solution of the eigenvalue problem:
     a serial algorithm will be used

 
     G-vector sticks info
     --------------------
     sticks:   dense  smooth     PW     G-vecs:    dense   smooth      PW
     Sum        7747    7747   2077               498127   498127   69057
 


     bravais-lattice index     =            0
     lattice parameter (alat)  =      13.8397  a.u.
     unit-cell volume          =    2804.9816 (a.u.)^3
     number of atoms/cell      =           32
     number of atomic types    =            2
     number of electrons       =       368.00
     number of Kohn-Sham states=          221
     kinetic-energy cutoff     =     120.0000  Ry
     charge density cutoff     =     480.0000  Ry
     convergence threshold     =      1.0E-08
     mixing beta               =       0.7000
     number of iterations used =            8  plain     mixing
     Exchange-correlation      = SLA PW NOGX NOGC ( 1  4  0  0 0 0)
     nstep                     =           50


     celldm(1)=  13.839685  celldm(2)=   0.000000  celldm(3)=   0.000000
     celldm(4)=   0.000000  celldm(5)=   0.000000  celldm(6)=   0.000000

     crystal axes: (cart. coord. in units of alat)
               a(1) = (   1.000000   0.000000   0.000000 )  
               a(2) = (   0.000000   1.058160   0.000000 )  
               a(3) = (   0.000000   0.000000   1.000000 )  

     reciprocal axes: (cart. coord. in units 2 pi/alat)
               b(1) = (  1.000000  0.000000  0.000000 )  
               b(2) = (  0.000000  0.945037  0.000000 )  
               b(3) = (  0.000000  0.000000  1.000000 )  


     PseudoPot. # 1 for W  read from file:
     /cluster/scratch/mnoe/QE/pps/W_ONCV_LDA-4.0.upf
     MD5 check sum: ba0307d5d4cd419d6f1d13dc49d7c13a
     Pseudo is Norm-conserving + core correction, Zval = 28.0
     Generated using ONCVPSP code by D. R. Hamann
     Using radial grid of 1380 points,  8 beta functions with: 
                l(1) =   0
                l(2) =   0
                l(3) =   1
                l(4) =   1
                l(5) =   2
                l(6) =   2
                l(7) =   3
                l(8) =   3

     PseudoPot. # 2 for O  read from file:
     /cluster/scratch/mnoe/QE/pps/O_ONCV_LDA-3.0.upf
     MD5 check sum: a1bd6164e7280c17a38c229939bfbd54
     Pseudo is Norm-conserving + core correction, Zval =  6.0
     Generated using ONCVPSP code by D. R. Hamann
     Using radial grid of  926 points,  5 beta functions with: 
                l(1) =   0
                l(2) =   0
                l(3) =   1
                l(4) =   1
                l(5) =   2

     atomic species   valence    mass     pseudopotential
        W             28.00   183.84000     W ( 1.00)
        O              6.00    15.99940     O ( 1.00)

      8 Sym. Ops., with inversion, found ( 6 have fractional translation)



   Cartesian axes

     site n.     atom                  positions (alat units)
         1           W   tau(   1) = (   0.2479211   0.2957597   0.0019632  )
         2           W   tau(   2) = (   0.7520789   0.7624004  -0.0019631  )
         3           W   tau(   3) = (   0.2520789   0.2333203   0.5019632  )
         4           W   tau(   4) = (   0.7479211   0.8248397   0.4980368  )
         5           W   tau(   5) = (   0.7520789   0.2957597   0.4980368  )
         6           W   tau(   6) = (   0.2479211   0.7624004   0.5019632  )
         7           W   tau(   7) = (   0.7479211   0.2333203  -0.0019631  )
         8           W   tau(   8) = (   0.2520789   0.8248397   0.0019632  )
         9           O   tau(   9) = (   0.2461647   0.0081246   0.0006102  )
        10           O   tau(  10) = (   0.7538353  -0.0081246  -0.0006102  )
        11           O   tau(  11) = (   0.2538353   0.5209554   0.5006102  )
        12           O   tau(  12) = (   0.7461647   0.5372047   0.4993898  )
        13           O   tau(  13) = (   0.7538353   0.0081246   0.4993898  )
        14           O   tau(  14) = (   0.2461647  -0.0081246   0.5006102  )
        15           O   tau(  15) = (   0.7461647   0.5209554  -0.0006102  )
        16           O   tau(  16) = (   0.2538353   0.5372047   0.0006102  )
        17           O   tau(  17) = (   0.5005686   0.2603770   0.4553015  )
        18           O   tau(  18) = (   0.4994314   0.7977830   0.5446985  )
        19           O   tau(  19) = (  -0.0005686   0.2687030   0.9553015  )
        20           O   tau(  20) = (   0.0005686   0.7894571   0.0446985  )
        21           O   tau(  21) = (   0.4994314   0.2603770   0.0446985  )
        22           O   tau(  22) = (   0.5005686   0.7977830   0.9553015  )
        23           O   tau(  23) = (   0.0005686   0.2687030   0.5446985  )
        24           O   tau(  24) = (  -0.0005686   0.7894571   0.4553015  )
        25           O   tau(  25) = (   0.7053015   0.2636316   0.7491381  )
        26           O   tau(  26) = (   0.2946985   0.7945285   0.2508619  )
        27           O   tau(  27) = (   0.7946985   0.2654485   0.2491381  )
        28           O   tau(  28) = (   0.2053015   0.7927116   0.7508619  )
        29           O   tau(  29) = (   0.2946985   0.2636316   0.7508619  )
        30           O   tau(  30) = (   0.7053015   0.7945285   0.2491381  )
        31           O   tau(  31) = (   0.2053015   0.2654485   0.2508619  )
        32           O   tau(  32) = (   0.7946985   0.7927116   0.7491381  )

     number of k points=    64  gaussian smearing, width (Ry)=  0.0007
                       cart. coord. in units 2pi/alat
        k(    1) = (   0.0000000   0.0000000   0.0000000), wk =   0.0092593
        k(    2) = (   0.0000000   0.0000000   0.1666667), wk =   0.0185185
        k(    3) = (   0.0000000   0.0000000   0.3333333), wk =   0.0185185
        k(    4) = (   0.0000000   0.0000000  -0.5000000), wk =   0.0092593
        k(    5) = (   0.0000000   0.1575061   0.0000000), wk =   0.0185185
        k(    6) = (   0.0000000   0.1575061   0.1666667), wk =   0.0370370
        k(    7) = (   0.0000000   0.1575061   0.3333333), wk =   0.0370370
        k(    8) = (   0.0000000   0.1575061  -0.5000000), wk =   0.0185185
        k(    9) = (   0.0000000   0.3150122   0.0000000), wk =   0.0185185
        k(   10) = (   0.0000000   0.3150122   0.1666667), wk =   0.0370370
        k(   11) = (   0.0000000   0.3150122   0.3333333), wk =   0.0370370
        k(   12) = (   0.0000000   0.3150122  -0.5000000), wk =   0.0185185
        k(   13) = (   0.0000000  -0.4725183   0.0000000), wk =   0.0092593
        k(   14) = (   0.0000000  -0.4725183   0.1666667), wk =   0.0185185
        k(   15) = (   0.0000000  -0.4725183   0.3333333), wk =   0.0185185
        k(   16) = (   0.0000000  -0.4725183  -0.5000000), wk =   0.0092593
        k(   17) = (   0.1666667   0.0000000   0.1666667), wk =   0.0370370
        k(   18) = (   0.1666667   0.0000000   0.3333333), wk =   0.0370370
        k(   19) = (   0.1666667   0.0000000  -0.5000000), wk =   0.0185185
        k(   20) = (   0.1666667   0.1575061   0.1666667), wk =   0.0740741
        k(   21) = (   0.1666667   0.1575061   0.3333333), wk =   0.0740741
        k(   22) = (   0.1666667   0.1575061  -0.5000000), wk =   0.0370370
        k(   23) = (   0.1666667   0.3150122   0.1666667), wk =   0.0740741
        k(   24) = (   0.1666667   0.3150122   0.3333333), wk =   0.0740741
        k(   25) = (   0.1666667   0.3150122  -0.5000000), wk =   0.0370370
        k(   26) = (   0.1666667  -0.4725183   0.1666667), wk =   0.0370370
        k(   27) = (   0.1666667  -0.4725183   0.3333333), wk =   0.0370370
        k(   28) = (   0.1666667  -0.4725183  -0.5000000), wk =   0.0185185
        k(   29) = (   0.3333333   0.0000000   0.3333333), wk =   0.0370370
        k(   30) = (   0.3333333   0.0000000  -0.5000000), wk =   0.0185185
        k(   31) = (   0.3333333   0.1575061   0.3333333), wk =   0.0740741
        k(   32) = (   0.3333333   0.1575061  -0.5000000), wk =   0.0370370
        k(   33) = (   0.3333333   0.3150122   0.3333333), wk =   0.0740741
        k(   34) = (   0.3333333   0.3150122  -0.5000000), wk =   0.0370370
        k(   35) = (   0.3333333  -0.4725183   0.3333333), wk =   0.0370370
        k(   36) = (   0.3333333  -0.4725183  -0.5000000), wk =   0.0185185
        k(   37) = (  -0.5000000   0.0000000  -0.5000000), wk =   0.0092593
        k(   38) = (  -0.5000000   0.1575061  -0.5000000), wk =   0.0185185
        k(   39) = (  -0.5000000   0.3150122  -0.5000000), wk =   0.0185185
        k(   40) = (  -0.5000000  -0.4725183  -0.5000000), wk =   0.0092593
        k(   41) = (   0.1666667   0.0000000   0.0000000), wk =   0.0185185
        k(   42) = (   0.3333333   0.0000000   0.0000000), wk =   0.0185185
        k(   43) = (  -0.5000000   0.0000000   0.0000000), wk =   0.0092593
        k(   44) = (   0.1666667  -0.1575061   0.0000000), wk =   0.0370370
        k(   45) = (   0.3333333  -0.1575061   0.0000000), wk =   0.0370370
        k(   46) = (  -0.5000000  -0.1575061   0.0000000), wk =   0.0185185
        k(   47) = (   0.1666667  -0.3150122   0.0000000), wk =   0.0370370
        k(   48) = (   0.3333333  -0.3150122   0.0000000), wk =   0.0370370
        k(   49) = (  -0.5000000  -0.3150122   0.0000000), wk =   0.0185185
        k(   50) = (   0.1666667   0.4725183   0.0000000), wk =   0.0185185
        k(   51) = (   0.3333333   0.4725183   0.0000000), wk =   0.0185185
        k(   52) = (  -0.5000000   0.4725183   0.0000000), wk =   0.0092593
        k(   53) = (   0.3333333   0.0000000   0.1666667), wk =   0.0370370
        k(   54) = (  -0.5000000   0.0000000   0.1666667), wk =   0.0185185
        k(   55) = (   0.3333333  -0.1575061   0.1666667), wk =   0.0740741
        k(   56) = (  -0.5000000  -0.1575061   0.1666667), wk =   0.0370370
        k(   57) = (   0.3333333  -0.3150122   0.1666667), wk =   0.0740741
        k(   58) = (  -0.5000000  -0.3150122   0.1666667), wk =   0.0370370
        k(   59) = (   0.3333333   0.4725183   0.1666667), wk =   0.0370370
        k(   60) = (  -0.5000000   0.4725183   0.1666667), wk =   0.0185185
        k(   61) = (  -0.5000000   0.0000000   0.3333333), wk =   0.0185185
        k(   62) = (  -0.5000000  -0.1575061   0.3333333), wk =   0.0370370
        k(   63) = (  -0.5000000  -0.3150122   0.3333333), wk =   0.0370370
        k(   64) = (  -0.5000000   0.4725183   0.3333333), wk =   0.0185185

     Dense  grid:   498127 G-vectors     FFT dimensions: ( 100, 108, 100)

     Estimated max dynamical RAM per process >       3.15 GB

     Estimated total dynamical RAM >     125.81 GB

     Initial potential from superposition of free atoms

     starting charge  367.99656, renormalised to  368.00000
     Starting wfc are  232 randomized atomic wfcs

     total cpu time spent up to now is       69.2 secs

     Self-consistent Calculation

     iteration #  1     ecut=   120.00 Ry     beta= 0.70
     Davidson diagonalization with overlap
     ethr =  1.00E-02,  avg # of iterations =  5.2

     total cpu time spent up to now is      246.2 secs

     total energy              =   -6254.01941739 Ry
     Harris-Foulkes estimate   =   -6264.58771358 Ry
     estimated scf accuracy    <      13.39154336 Ry

     iteration #  2     ecut=   120.00 Ry     beta= 0.70
     Davidson diagonalization with overlap
     ethr =  3.64E-03,  avg # of iterations =  3.4

     total cpu time spent up to now is      420.8 secs

     total energy              =   -6250.96225909 Ry
     Harris-Foulkes estimate   =   -6270.66527406 Ry
     estimated scf accuracy    <      52.76281263 Ry

     iteration #  3     ecut=   120.00 Ry     beta= 0.70
     Davidson diagonalization with overlap
     ethr =  3.64E-03,  avg # of iterations =  3.5

     total cpu time spent up to now is      585.0 secs

     total energy              =   -6261.07523364 Ry
     Harris-Foulkes estimate   =   -6261.38627724 Ry
     estimated scf accuracy    <       1.00633073 Ry

     iteration #  4     ecut=   120.00 Ry     beta= 0.70
     Davidson diagonalization with overlap
     ethr =  2.73E-04,  avg # of iterations =  3.2

     total cpu time spent up to now is      720.4 secs

     total energy              =   -6261.09288051 Ry
     Harris-Foulkes estimate   =   -6261.16643707 Ry
     estimated scf accuracy    <       0.25370046 Ry

     iteration #  5     ecut=   120.00 Ry     beta= 0.70
     Davidson diagonalization with overlap
     ethr =  6.89E-05,  avg # of iterations =  4.0

     total cpu time spent up to now is      859.1 secs

     total energy              =   -6261.08502213 Ry
     Harris-Foulkes estimate   =   -6261.12161954 Ry
     estimated scf accuracy    <       0.07974068 Ry

     iteration #  6     ecut=   120.00 Ry     beta= 0.70
     Davidson diagonalization with overlap
     ethr =  2.17E-05,  avg # of iterations =  5.3

     total cpu time spent up to now is     1012.2 secs

     total energy              =   -6261.10289223 Ry
     Harris-Foulkes estimate   =   -6261.10474538 Ry
     estimated scf accuracy    <       0.00514723 Ry

     iteration #  7     ecut=   120.00 Ry     beta= 0.70
     Davidson diagonalization with overlap
     ethr =  1.40E-06,  avg # of iterations =  5.3

     total cpu time spent up to now is     1159.4 secs

     total energy              =   -6261.10348177 Ry
     Harris-Foulkes estimate   =   -6261.10357652 Ry
     estimated scf accuracy    <       0.00020824 Ry

     iteration #  8     ecut=   120.00 Ry     beta= 0.70
     Davidson diagonalization with overlap
     ethr =  5.66E-08,  avg # of iterations =  3.3

     total cpu time spent up to now is     1322.6 secs

     total energy              =   -6261.10354343 Ry
     Harris-Foulkes estimate   =   -6261.10354640 Ry
     estimated scf accuracy    <       0.00001149 Ry

     iteration #  9     ecut=   120.00 Ry     beta= 0.70
     Davidson diagonalization with overlap
     ethr =  3.12E-09,  avg # of iterations =  2.0

     total cpu time spent up to now is     1468.0 secs

     total energy              =   -6261.10354315 Ry
     Harris-Foulkes estimate   =   -6261.10354535 Ry
     estimated scf accuracy    <       0.00000842 Ry

     iteration # 10     ecut=   120.00 Ry     beta= 0.70
     Davidson diagonalization with overlap
     ethr =  2.29E-09,  avg # of iterations =  1.8

     total cpu time spent up to now is     1595.3 secs

     total energy              =   -6261.10354279 Ry
     Harris-Foulkes estimate   =   -6261.10354374 Ry
     estimated scf accuracy    <       0.00000215 Ry

     iteration # 11     ecut=   120.00 Ry     beta= 0.70
     Davidson diagonalization with overlap
     ethr =  5.85E-10,  avg # of iterations =  3.0

     total cpu time spent up to now is     1739.3 secs

     total energy              =   -6261.10354329 Ry
     Harris-Foulkes estimate   =   -6261.10354334 Ry
     estimated scf accuracy    <       0.00000012 Ry

     iteration # 12     ecut=   120.00 Ry     beta= 0.70
     Davidson diagonalization with overlap
     ethr =  3.34E-11,  avg # of iterations =  2.0

     total cpu time spent up to now is     1880.4 secs

     total energy              =   -6261.10354329 Ry
     Harris-Foulkes estimate   =   -6261.10354330 Ry
     estimated scf accuracy    <       0.00000002 Ry

     iteration # 13     ecut=   120.00 Ry     beta= 0.70
     Davidson diagonalization with overlap
     ethr =  5.68E-12,  avg # of iterations =  2.9

     total cpu time spent up to now is     2039.6 secs

     End of self-consistent calculation

          k = 0.0000 0.0000 0.0000 ( 62239 PWs)   bands (ev):

   -66.1693 -66.1689 -66.1683 -66.1683 -66.1679 -66.1679 -66.1673 -66.1669
   -30.5427 -30.5402 -30.5379 -30.5375 -30.5364 -30.5362 -30.5346 -30.5346
   -30.5316 -30.5316 -30.5310 -30.5303 -30.4794 -30.4767 -30.4765 -30.4738
   -30.4358 -30.4353 -30.4332 -30.4325 -30.4312 -30.4307 -30.4286 -30.4279
   -20.3258 -20.3257 -20.3257 -20.3256 -20.3256 -20.3256 -20.3256 -20.3255
   -20.3060 -20.3057 -20.3056 -20.3053 -20.3018 -20.3017 -20.3015 -20.3014
   -20.3014 -20.3010 -20.3010 -20.3008 -20.3003 -20.3003 -20.3002 -20.3002
   -20.3002 -20.3001 -20.2999 -20.2999 -20.2994 -20.2993 -20.2993 -20.2992
   -20.2942 -20.2942 -20.2937 -20.2937 -20.2935 -20.2935 -20.2933 -20.2932
   -20.2914 -20.2914 -20.2911 -20.2910 -20.2910 -20.2909 -20.2907 -20.2906
   -20.2855 -20.2855 -20.2850 -20.2849 -20.2847 -20.2847 -20.2843 -20.2843
    -9.9980  -9.7573  -9.5592  -9.5576  -9.3510  -9.3483  -9.1459  -9.1326
    -9.0176  -8.8593  -8.8546  -8.8541  -7.8023  -7.7888  -7.7819  -7.7616
    -7.7613  -7.7369  -7.7360  -7.6834  -7.6583  -7.6567  -7.6356  -7.6348
     1.0307   1.0316   1.1492   1.1522   1.1592   1.1627   1.3266   1.5044
     1.6519   1.6529   1.6560   1.8036   2.3018   2.3779   2.5659   2.5662
     2.7073   2.7074   4.1323   4.1357   4.2900   4.2948   4.7049   4.7056
     4.7362   4.7372   4.8987   4.9074   5.0396   5.0404   5.0449   5.4911
     5.4960   5.5000   5.5029   5.5472   5.5476   5.5690   5.5741   5.8661
     5.8858   5.8863   5.8964   5.8994   6.0080   6.0341   6.0359   6.1046
     6.1060   6.2712   6.2727   6.4816   6.4840   6.8205   6.8674   6.8707
     6.9016   6.9037   6.9795   7.0399   7.0708   7.0731   7.3134   7.3163
     7.3395   7.3423   7.8683   7.8819   8.0942   8.0971   8.1663   8.1693
     9.1811   9.1831   9.8802   9.8812   9.8951   9.8965  12.2825  12.2847
    12.3508  12.3521  12.4145  12.4160  12.4604  12.4628  13.0719  13.0965
    13.2452  13.2621  13.3886  13.3928  13.8236  14.1497  14.1685  14.1784
    14.1794  14.3444  14.3694  14.8893  15.4475  15.4495  15.4606  16.1588
    16.1589  16.9637  17.1673  17.1692  17.4953

          k = 0.0000 0.0000 0.1667 ( 62262 PWs)   bands (ev):

   -66.1692 -66.1688 -66.1683 -66.1682 -66.1680 -66.1678 -66.1673 -66.1669
   -30.5424 -30.5379 -30.5372 -30.5366 -30.5361 -30.5335 -30.5320 -30.5319
   -30.5313 -30.5281 -30.5277 -30.5232 -30.4789 -30.4771 -30.4763 -30.4744
   -30.4424 -30.4401 -30.4378 -30.4354 -30.4350 -30.4322 -30.4310 -30.4282
   -20.3258 -20.3257 -20.3257 -20.3257 -20.3256 -20.3256 -20.3256 -20.3255
   -20.3060 -20.3057 -20.3057 -20.3054 -20.3017 -20.3017 -20.3014 -20.3014
   -20.3013 -20.3010 -20.3010 -20.3008 -20.3004 -20.3003 -20.3003 -20.3003
   -20.3001 -20.3001 -20.3000 -20.2999 -20.2994 -20.2994 -20.2993 -20.2992
   -20.2942 -20.2939 -20.2938 -20.2935 -20.2934 -20.2933 -20.2931 -20.2929
   -20.2911 -20.2911 -20.2911 -20.2910 -20.2909 -20.2908 -20.2908 -20.2907
   -20.2859 -20.2854 -20.2854 -20.2852 -20.2849 -20.2849 -20.2847 -20.2843
    -9.9483  -9.7025  -9.5733  -9.4855  -9.3608  -9.2576  -9.1043  -9.0891
    -9.0266  -8.8584  -8.8503  -8.8329  -7.9182  -7.9017  -7.8114  -7.7962
    -7.7770  -7.7630  -7.7531  -7.7408  -7.7301  -7.6869  -7.6651  -7.6431
     1.1238   1.1279   1.1554   1.1678   1.3852   1.4149   1.4302   1.6447
     1.6487   1.6831   1.6882   1.9001   2.3908   2.4690   2.5750   2.6558
     2.6987   2.7949   4.0854   4.1378   4.2805   4.2837   4.3160   4.3615
     4.6779   4.7491   4.7817   4.7968   4.8910   5.0265   5.0320   5.2817
     5.3097   5.4585   5.4758   5.5291   5.5884   5.6209   5.6314   5.6340
     5.7157   5.8625   5.8916   5.9200   6.0192   6.0697   6.0972   6.1062
     6.2832   6.3900   6.4740   6.4740   6.7313   6.7706   6.7952   6.8187
     6.8320   6.8965   6.9603   6.9763   7.0208   7.0720   7.0783   7.0819
     7.1337   7.1894   7.8663   7.8700   8.0568   8.1160   8.1250   8.1671
     9.5479   9.5703   9.8812   9.8938  10.1592  10.1898  12.2444  12.2761
    12.2997  12.3577  12.4016  12.4291  12.4648  12.5703  13.0134  13.0492
    13.1141  13.2603  13.3255  13.3881  13.9403  14.0172  14.0418  14.1481
    14.1808  14.3642  14.4726  15.0074  15.4141  15.4985  15.5298  16.1320
    16.4923  16.8779  17.1365  17.3708  17.5466

          k = 0.0000 0.0000 0.3333 ( 62268 PWs)   bands (ev):

   -66.1690 -66.1686 -66.1685 -66.1681 -66.1680 -66.1676 -66.1675 -66.1671
   -30.5416 -30.5389 -30.5360 -30.5358 -30.5351 -30.5331 -30.5330 -30.5323
   -30.5154 -30.5103 -30.5094 -30.5046 -30.4791 -30.4775 -30.4771 -30.4750
   -30.4595 -30.4588 -30.4555 -30.4540 -30.4342 -30.4318 -30.4314 -30.4291
   -20.3257 -20.3257 -20.3257 -20.3256 -20.3256 -20.3256 -20.3256 -20.3255
   -20.3060 -20.3058 -20.3056 -20.3055 -20.3016 -20.3015 -20.3014 -20.3012
   -20.3011 -20.3009 -20.3009 -20.3008 -20.3006 -20.3005 -20.3005 -20.3003
   -20.3002 -20.3002 -20.3000 -20.2998 -20.2996 -20.2994 -20.2994 -20.2993
   -20.2941 -20.2939 -20.2936 -20.2934 -20.2928 -20.2927 -20.2924 -20.2923
   -20.2915 -20.2914 -20.2912 -20.2911 -20.2901 -20.2901 -20.2900 -20.2899
   -20.2872 -20.2868 -20.2866 -20.2862 -20.2853 -20.2849 -20.2848 -20.2845
    -9.8298  -9.6218  -9.5792  -9.3992  -9.3042  -9.0590  -8.9913  -8.9869
    -8.9327  -8.8716  -8.8010  -8.7424  -8.2398  -8.2371  -8.1526  -8.1344
    -7.7793  -7.7516  -7.7512  -7.7295  -7.7212  -7.6967  -7.6878  -7.6660
     1.1637   1.1728   1.1810   1.1937   1.5633   1.5926   1.6277   1.6331
     2.1561   2.2022   2.3540   2.4384   2.5989   2.6503   2.6816   2.7362
     2.9007   3.0252   3.6636   3.7447   3.8545   3.9453   4.1716   4.2178
     4.2396   4.4341   4.5216   4.7531   4.8290   4.8527   4.8732   4.9634
     5.0626   5.0928   5.1482   5.3472   5.4063   5.4375   5.6535   5.7320
     5.7817   5.8236   5.8540   5.9757   6.0464   6.1484   6.2349   6.2678
     6.2804   6.4151   6.4405   6.5263   6.5735   6.6015   6.6087   6.7271
     6.7879   6.8889   6.8893   6.9608   6.9955   7.0407   7.0759   7.0808
     7.2976   7.3395   7.7658   7.7872   7.9313   7.9825   8.1513   8.1685
     9.8796   9.8899  10.3011  10.3571  10.8091  10.8889  11.8441  11.8825
    12.0965  12.4712  12.4824  12.5451  12.5717  12.5911  12.6823  12.8365
    13.0415  13.1792  13.1913  13.3924  13.6661  13.6905  14.1087  14.1436
    14.2287  14.3474  14.7941  15.3062  15.3068  15.6829  15.9701  16.0483
    16.3151  17.3793  17.4877  17.6871  17.6935

          k = 0.0000 0.0000-0.5000 ( 62264 PWs)   bands (ev):

   -66.1688 -66.1688 -66.1684 -66.1684 -66.1678 -66.1678 -66.1674 -66.1674
   -30.5403 -30.5403 -30.5345 -30.5345 -30.5344 -30.5344 -30.5337 -30.5337
   -30.4916 -30.4916 -30.4882 -30.4882 -30.4842 -30.4842 -30.4794 -30.4793
   -30.4731 -30.4731 -30.4719 -30.4718 -30.4330 -30.4330 -30.4302 -30.4302
   -20.3257 -20.3257 -20.3256 -20.3256 -20.3256 -20.3256 -20.3256 -20.3255
   -20.3059 -20.3059 -20.3056 -20.3056 -20.3016 -20.3016 -20.3011 -20.3011
   -20.3009 -20.3009 -20.3008 -20.3008 -20.3008 -20.3007 -20.3005 -20.3005
   -20.3002 -20.3002 -20.2998 -20.2998 -20.2997 -20.2996 -20.2993 -20.2993
   -20.2940 -20.2940 -20.2935 -20.2935 -20.2920 -20.2920 -20.2920 -20.2920
   -20.2917 -20.2917 -20.2917 -20.2917 -20.2888 -20.2888 -20.2885 -20.2885
   -20.2884 -20.2884 -20.2881 -20.2881 -20.2851 -20.2851 -20.2846 -20.2846
    -9.7080  -9.7080  -9.4688  -9.4688  -9.1387  -9.1387  -8.8999  -8.8999
    -8.6301  -8.6301  -8.5956  -8.5955  -8.5892  -8.5892  -8.5050  -8.5050
    -7.7653  -7.7653  -7.7205  -7.7205  -7.7083  -7.7083  -7.6975  -7.6975
     1.1729   1.1729   1.1951   1.1952   1.6074   1.6074   1.6169   1.6169
     2.6298   2.6298   2.9359   2.9359   3.0557   3.0557   3.1190   3.1190
     3.1815   3.1815   3.2449   3.2449   3.3796   3.3796   3.7347   3.7347
     3.8579   3.8579   4.3564   4.3564   4.7833   4.7833   4.8578   4.8578
     5.2188   5.2188   5.2481   5.2481   5.2499   5.2499   5.7613   5.7613
     5.7842   5.7842   5.9870   5.9870   6.1429   6.1429   6.2312   6.2312
     6.2890   6.2890   6.3852   6.3852   6.4793   6.4793   6.5131   6.5131
     6.7911   6.7911   6.8854   6.8855   7.0595   7.0595   7.4713   7.4713
     7.5276   7.5276   7.6928   7.6928   7.7180   7.7180   8.1661   8.1661
     9.8845   9.8845  11.1294  11.1294  11.1862  11.1862  11.5479  11.5479
    11.7177  11.7177  12.5088  12.5088  12.7832  12.7832  12.8621  12.8621
    12.9390  12.9390  13.2377  13.2377  13.4366  13.4367  14.1364  14.1364
    14.3105  14.3105  15.1046  15.1046  15.7534  15.7534  15.8984  15.8984
    16.7585  16.7585  17.8823  17.8823  18.0778

          k = 0.0000 0.1575 0.0000 ( 62231 PWs)   bands (ev):

   -66.1693 -66.1689 -66.1683 -66.1683 -66.1679 -66.1679 -66.1672 -66.1669
   -30.5412 -30.5400 -30.5377 -30.5367 -30.5357 -30.5344 -30.5337 -30.5324
   -30.5312 -30.5293 -30.5291 -30.5277 -30.4834 -30.4806 -30.4804 -30.4777
   -30.4356 -30.4351 -30.4334 -30.4327 -30.4310 -30.4305 -30.4288 -30.4281
   -20.3258 -20.3257 -20.3257 -20.3256 -20.3256 -20.3256 -20.3256 -20.3255
   -20.3056 -20.3053 -20.3053 -20.3050 -20.3018 -20.3017 -20.3015 -20.3015
   -20.3014 -20.3011 -20.3011 -20.3008 -20.3006 -20.3005 -20.3003 -20.3002
   -20.3002 -20.3002 -20.3002 -20.3000 -20.2995 -20.2994 -20.2993 -20.2993
   -20.2942 -20.2942 -20.2938 -20.2937 -20.2936 -20.2935 -20.2933 -20.2932
   -20.2914 -20.2914 -20.2911 -20.2910 -20.2910 -20.2909 -20.2907 -20.2906
   -20.2854 -20.2854 -20.2850 -20.2850 -20.2847 -20.2847 -20.2843 -20.2843
    -9.9739  -9.7675  -9.5323  -9.5306  -9.3574  -9.3548  -9.1450  -9.1335
    -8.9439  -8.8082  -8.8066  -8.8061  -7.8929  -7.8377  -7.8371  -7.7908
    -7.7870  -7.7858  -7.7637  -7.7632  -7.6568  -7.6557  -7.6372  -7.6363
     1.0308   1.0316   1.1537   1.1568   1.1592   1.1627   1.4082   1.5039
     1.8333   1.8897   1.8906   2.0270   2.3067   2.3726   2.6369   2.6370
     2.7746   2.7748   3.9915   3.9952   4.0481   4.0521   4.7072   4.7077
     4.7319   4.7329   4.8032   4.9681   4.9761   5.0203   5.0214   5.2837
     5.2853   5.4430   5.4434   5.6042   5.6049   5.6552   5.6740   5.6813
     5.8262   5.8279   5.9062   5.9758   5.9777   6.0348   6.0360   6.1104
     6.1108   6.2633   6.2663   6.5041   6.5071   6.8318   6.8388   6.8769
     6.8799   6.9220   6.9220   6.9698   6.9718   6.9727   7.3198   7.3222
     7.3398   7.3420   7.8729   7.8814   8.0533   8.0556   8.0862   8.0883
     9.1814   9.1829  10.0804  10.0805  10.0908  10.0911  12.1489  12.1532
    12.3034  12.3054  12.3660  12.3674  12.4136  12.4147  13.0769  13.0968
    13.2800  13.2934  13.4007  13.4045  14.0500  14.0709  14.0770  14.0873
    14.2107  14.6340  14.6404  15.0349  15.4499  15.4593  15.8551  16.1230
    16.1234  16.6409  17.2934  17.2955  17.5298

          k = 0.0000 0.1575 0.1667 ( 62237 PWs)   bands (ev):

   -66.1692 -66.1689 -66.1683 -66.1682 -66.1680 -66.1678 -66.1673 -66.1670
   -30.5408 -30.5363 -30.5361 -30.5352 -30.5340 -30.5333 -30.5316 -30.5297
   -30.5281 -30.5279 -30.5266 -30.5230 -30.4829 -30.4810 -30.4802 -30.4783
   -30.4423 -30.4402 -30.4377 -30.4356 -30.4348 -30.4324 -30.4308 -30.4284
   -20.3258 -20.3257 -20.3257 -20.3256 -20.3256 -20.3256 -20.3256 -20.3255
   -20.3056 -20.3053 -20.3053 -20.3050 -20.3017 -20.3016 -20.3014 -20.3014
   -20.3014 -20.3011 -20.3010 -20.3008 -20.3007 -20.3005 -20.3003 -20.3003
   -20.3003 -20.3002 -20.3001 -20.3000 -20.2995 -20.2995 -20.2994 -20.2993
   -20.2942 -20.2939 -20.2937 -20.2935 -20.2934 -20.2933 -20.2931 -20.2929
   -20.2911 -20.2911 -20.2911 -20.2910 -20.2909 -20.2908 -20.2908 -20.2907
   -20.2859 -20.2855 -20.2854 -20.2852 -20.2850 -20.2849 -20.2847 -20.2844
    -9.9233  -9.7127  -9.5461  -9.4549  -9.3675  -9.2641  -9.1031  -9.0900
    -8.9529  -8.8107  -8.8004  -8.7885  -7.9165  -7.9126  -7.8936  -7.8381
    -7.8272  -7.8102  -7.7947  -7.7759  -7.7603  -7.7548  -7.6641  -7.6447
     1.1262   1.1279   1.1610   1.1679   1.4088   1.4302   1.5377   1.6825
     1.8393   1.8831   1.9022   2.0640   2.3962   2.4635   2.6456   2.7288
     2.7664   2.8629   3.9699   4.0126   4.0396   4.0866   4.3074   4.3594
     4.7162   4.7354   4.7753   4.7809   4.7936   4.9677   5.0259   5.2335
     5.2442   5.2885   5.3018   5.4537   5.5644   5.5698   5.6668   5.7138
     5.7359   5.8145   5.8685   5.9052   5.9530   6.0904   6.1047   6.1191
     6.2046   6.3812   6.4455   6.4971   6.7264   6.8052   6.8125   6.8230
     6.8371   6.9259   6.9374   6.9452   6.9861   6.9865   7.0731   7.0771
     7.1507   7.1911   7.8688   7.8705   8.0169   8.0495   8.0596   8.0874
     9.5526   9.5695  10.0823  10.0910  10.3317  10.3404  12.1380  12.2295
    12.2662  12.2984  12.3088  12.3481  12.4184  12.4966  13.0294  13.0804
    13.1191  13.2885  13.3316  13.3985  13.9167  13.9501  14.0578  14.0750
    14.3185  14.6361  14.7859  15.1409  15.4979  15.5307  15.8226  16.0968
    16.4541  16.7951  16.9942  17.4772  17.6009

          k = 0.0000 0.1575 0.3333 ( 62284 PWs)   bands (ev):

   -66.1690 -66.1687 -66.1685 -66.1682 -66.1680 -66.1677 -66.1675 -66.1672
   -30.5398 -30.5371 -30.5353 -30.5336 -30.5326 -30.5324 -30.5308 -30.5292
   -30.5153 -30.5102 -30.5094 -30.5046 -30.4828 -30.4812 -30.4805 -30.4788
   -30.4599 -30.4590 -30.4556 -30.4542 -30.4340 -30.4316 -30.4316 -30.4293
   -20.3257 -20.3257 -20.3257 -20.3256 -20.3256 -20.3256 -20.3256 -20.3255
   -20.3056 -20.3054 -20.3053 -20.3051 -20.3016 -20.3015 -20.3014 -20.3013
   -20.3011 -20.3010 -20.3009 -20.3009 -20.3008 -20.3005 -20.3005 -20.3005
   -20.3004 -20.3001 -20.3001 -20.3001 -20.2997 -20.2996 -20.2994 -20.2994
   -20.2941 -20.2938 -20.2937 -20.2934 -20.2928 -20.2927 -20.2924 -20.2923
   -20.2915 -20.2914 -20.2912 -20.2911 -20.2901 -20.2901 -20.2900 -20.2899
   -20.2872 -20.2868 -20.2866 -20.2863 -20.2852 -20.2849 -20.2848 -20.2845
    -9.8029  -9.5943  -9.5888  -9.4064  -9.2594  -8.9981  -8.9866  -8.9766
    -8.9344  -8.8252  -8.7616  -8.7122  -8.2448  -8.2347  -8.1624  -8.1320
    -7.8721  -7.8475  -7.8221  -7.7968  -7.7519  -7.7311  -7.6873  -7.6675
     1.1717   1.1811   1.1832   1.1937   1.7680   1.7899   1.8680   1.8788
     2.1550   2.2220   2.3541   2.4642   2.6574   2.6687   2.7204   2.7583
     2.9752   3.0886   3.6632   3.7403   3.8410   3.8933   4.0503   4.0916
     4.2316   4.3052   4.5388   4.7201   4.7283   4.7733   4.7840   4.9001
     5.0445   5.0567   5.0590   5.1613   5.3641   5.3731   5.4497   5.6647
     5.7261   5.7951   5.8701   5.9347   5.9646   6.1089   6.1715   6.2308
     6.2973   6.4640   6.5207   6.5593   6.6038   6.6750   6.7158   6.7601
     6.8279   6.8416   6.9181   6.9320   6.9726   7.0101   7.0606   7.0695
     7.2923   7.3350   7.7712   7.7855   7.8969   7.9240   8.0794   8.0897
    10.0808  10.0879  10.3091  10.3590  10.9256  10.9839  11.8454  11.8805
    12.0478  12.3178  12.4770  12.4952  12.5250  12.5902  12.6396  12.7460
    13.0301  13.1875  13.2073  13.3954  13.5705  13.6029  14.0619  14.0712
    14.5094  14.6224  15.1510  15.4170  15.6720  15.7199  15.9910  16.0157
    16.4316  17.2433  17.3315  17.5413  17.8568

          k = 0.0000 0.1575-0.5000 ( 62234 PWs)   bands (ev):

   -66.1688 -66.1688 -66.1684 -66.1684 -66.1677 -66.1677 -66.1674 -66.1674
   -30.5385 -30.5384 -30.5339 -30.5339 -30.5322 -30.5322 -30.5307 -30.5307
   -30.4923 -30.4923 -30.4896 -30.4896 -30.4843 -30.4843 -30.4795 -30.4795
   -30.4757 -30.4757 -30.4747 -30.4747 -30.4328 -30.4328 -30.4304 -30.4304
   -20.3257 -20.3257 -20.3256 -20.3256 -20.3256 -20.3256 -20.3256 -20.3256
   -20.3055 -20.3055 -20.3052 -20.3052 -20.3015 -20.3015 -20.3011 -20.3011
   -20.3010 -20.3010 -20.3008 -20.3008 -20.3008 -20.3008 -20.3007 -20.3007
   -20.3002 -20.3002 -20.2999 -20.2999 -20.2999 -20.2999 -20.2994 -20.2994
   -20.2940 -20.2940 -20.2936 -20.2935 -20.2920 -20.2920 -20.2920 -20.2920
   -20.2917 -20.2917 -20.2917 -20.2917 -20.2888 -20.2888 -20.2885 -20.2885
   -20.2884 -20.2884 -20.2882 -20.2881 -20.2851 -20.2851 -20.2847 -20.2847
    -9.6802  -9.6802  -9.4771  -9.4771  -9.0733  -9.0733  -8.8610  -8.8610
    -8.6334  -8.6334  -8.6029  -8.6029  -8.5796  -8.5796  -8.4953  -8.4953
    -7.8607  -7.8607  -7.8101  -7.8101  -7.7194  -7.7194  -7.6991  -7.6991
     1.1835   1.1835   1.1951   1.1952   1.8035   1.8035   1.8808   1.8808
     2.6970   2.6970   2.9499   2.9499   3.0489   3.0489   3.1541   3.1541
     3.1938   3.1938   3.2424   3.2424   3.3702   3.3702   3.7433   3.7433
     3.9097   3.9097   4.1806   4.1806   4.6186   4.6186   4.7542   4.7542
     5.0885   5.0885   5.2235   5.2235   5.2406   5.2406   5.4939   5.4939
     5.7447   5.7447   5.9074   5.9074   6.1422   6.1422   6.2811   6.2811
     6.3006   6.3006   6.4089   6.4089   6.4679   6.4679   6.6998   6.6998
     6.8654   6.8654   6.8837   6.8837   6.9550   6.9550   7.4854   7.4854
     7.5221   7.5221   7.6688   7.6688   7.6874   7.6874   8.0891   8.0891
    10.0866  10.0866  11.1342  11.1342  11.1844  11.1844  11.6131  11.6131
    11.7797  11.7797  12.3706  12.3706  12.7499  12.7499  12.8701  12.8701
    12.8756  12.8756  13.1472  13.1472  13.4148  13.4148  14.0661  14.0661
    14.5920  14.5920  15.4846  15.4846  15.8731  15.8731  15.8816  15.8816
    16.8017  16.8017  17.6844  17.6844  18.2071

          k = 0.0000 0.3150 0.0000 ( 62175 PWs)   bands (ev):

   -66.1692 -66.1690 -66.1682 -66.1682 -66.1680 -66.1680 -66.1672 -66.1670
   -30.5395 -30.5394 -30.5379 -30.5373 -30.5339 -30.5339 -30.5326 -30.5318
   -30.5231 -30.5202 -30.5199 -30.5172 -30.4942 -30.4913 -30.4912 -30.4883
   -30.4351 -30.4346 -30.4338 -30.4332 -30.4306 -30.4300 -30.4292 -30.4286
   -20.3257 -20.3257 -20.3256 -20.3256 -20.3256 -20.3256 -20.3256 -20.3255
   -20.3047 -20.3043 -20.3043 -20.3040 -20.3021 -20.3017 -20.3017 -20.3016
   -20.3015 -20.3013 -20.3012 -20.3012 -20.3012 -20.3011 -20.3009 -20.3008
   -20.3001 -20.3000 -20.3000 -20.2999 -20.2997 -20.2996 -20.2995 -20.2995
   -20.2941 -20.2941 -20.2938 -20.2937 -20.2936 -20.2934 -20.2934 -20.2933
   -20.2914 -20.2914 -20.2911 -20.2911 -20.2910 -20.2909 -20.2907 -20.2906
   -20.2853 -20.2853 -20.2851 -20.2851 -20.2846 -20.2846 -20.2844 -20.2844
    -9.9150  -9.7984  -9.4723  -9.4703  -9.3779  -9.3754  -9.1426  -9.1359
    -8.7359  -8.6538  -8.6536  -8.6520  -8.1375  -8.0933  -8.0929  -8.0642
    -7.7822  -7.7816  -7.7687  -7.7682  -7.6527  -7.6518  -7.6415  -7.6405
     1.0309   1.0314   1.1577   1.1593   1.1611   1.1628   1.4755   1.5017
     2.3203   2.3584   2.4092   2.5514   2.5530   2.7080   2.8453   2.8467
     2.9709   2.9725   3.6009   3.6049   3.6499   3.6542   4.1605   4.4865
     4.4880   4.7136   4.7141   4.7414   4.7422   4.7760   5.0940   5.0951
     5.1370   5.1384   5.3722   5.3728   5.6454   5.6461   5.6610   5.6620
     5.8929   5.8947   5.9204   5.9207   6.0215   6.0265   6.0271   6.1298
     6.1304   6.2190   6.2239   6.4931   6.5690   6.5709   6.8053   6.8058
     6.8621   6.9418   7.1204   7.1213   7.1214   7.1216   7.3280   7.3283
     7.3444   7.3446   7.8492   7.8510   7.8747   7.8757   7.8785   7.8811
     9.1819   9.1826  10.5636  10.5656  10.6146  10.6155  11.7561  11.7603
    11.8705  11.8723  12.3895  12.3911  12.4105  12.4115  13.0862  13.0962
    13.3910  13.3979  13.4721  13.4758  13.8369  13.8377  13.8655  13.8704
    14.8799  15.2429  15.2439  15.4511  15.4564  15.5897  16.0003  16.0013
    16.0706  16.8671  17.2253  17.7298  17.7321

          k = 0.0000 0.3150 0.1667 ( 62260 PWs)   bands (ev):

   -66.1691 -66.1689 -66.1683 -66.1681 -66.1681 -66.1679 -66.1672 -66.1670
   -30.5390 -30.5370 -30.5342 -30.5328 -30.5324 -30.5322 -30.5283 -30.5274
   -30.5205 -30.5203 -30.5185 -30.5176 -30.4936 -30.4916 -30.4908 -30.4888
   -30.4419 -30.4407 -30.4373 -30.4361 -30.4343 -30.4329 -30.4303 -30.4289
   -20.3257 -20.3257 -20.3256 -20.3256 -20.3256 -20.3256 -20.3256 -20.3255
   -20.3047 -20.3043 -20.3043 -20.3040 -20.3021 -20.3017 -20.3017 -20.3015
   -20.3015 -20.3013 -20.3012 -20.3012 -20.3012 -20.3010 -20.3009 -20.3007
   -20.3002 -20.3001 -20.3000 -20.2999 -20.2997 -20.2996 -20.2996 -20.2995
   -20.2941 -20.2939 -20.2937 -20.2935 -20.2935 -20.2934 -20.2931 -20.2930
   -20.2911 -20.2911 -20.2911 -20.2911 -20.2909 -20.2908 -20.2908 -20.2908
   -20.2858 -20.2856 -20.2853 -20.2851 -20.2851 -20.2850 -20.2846 -20.2844
    -9.8625  -9.7437  -9.4853  -9.3886  -9.3872  -9.2851  -9.1001  -9.0927
    -8.7447  -8.6590  -8.6472  -8.6434  -8.1380  -8.1043  -8.0901  -8.0726
    -7.9119  -7.8962  -7.7905  -7.7778  -7.7715  -7.7595  -7.6602  -7.6489
     1.1278   1.1280   1.1659   1.1679   1.4242   1.4298   1.6448   1.6797
     2.4087   2.4122   2.4489   2.5258   2.5527   2.6926   2.8529   2.9532
     2.9634   3.0709   3.6056   3.6456   3.6483   3.6941   4.1513   4.3231
     4.3392   4.4935   4.5037   4.7716   4.7786   4.7985   4.7989   4.9041
     5.0850   5.1415   5.1604   5.2867   5.4310   5.4350   5.6146   5.6437
     5.6998   5.7554   5.8033   5.9022   6.0566   6.0760   6.0962   6.1224
     6.2099   6.3898   6.3923   6.5608   6.5657   6.7956   6.8367   6.8991
     6.9410   6.9510   7.0636   7.0673   7.0794   7.0846   7.1105   7.1351
     7.2059   7.2142   7.8262   7.8434   7.8491   7.8571   7.8738   7.8834
     9.5599   9.5677  10.5708  10.6147  10.7516  10.7890  11.7600  11.8531
    11.8729  11.9546  12.2801  12.2954  12.4422  12.4676  13.0619  13.1202
    13.1976  13.3769  13.3868  13.4679  13.6768  13.7345  13.8365  13.8624
    15.0075  15.2376  15.4613  15.4941  15.5386  15.6634  15.9770  16.2307
    16.3211  16.8317  17.2975  17.3719  17.7049

          k = 0.0000 0.3150 0.3333 ( 62269 PWs)   bands (ev):

   -66.1689 -66.1687 -66.1684 -66.1682 -66.1679 -66.1677 -66.1674 -66.1672
   -30.5380 -30.5359 -30.5352 -30.5332 -30.5251 -30.5233 -30.5214 -30.5187
   -30.5153 -30.5106 -30.5083 -30.5043 -30.4931 -30.4912 -30.4904 -30.4889
   -30.4601 -30.4594 -30.4555 -30.4546 -30.4335 -30.4321 -30.4312 -30.4298
   -20.3257 -20.3257 -20.3257 -20.3256 -20.3256 -20.3256 -20.3256 -20.3255
   -20.3046 -20.3044 -20.3043 -20.3041 -20.3020 -20.3018 -20.3017 -20.3014
   -20.3014 -20.3013 -20.3012 -20.3010 -20.3010 -20.3010 -20.3007 -20.3005
   -20.3004 -20.3003 -20.3001 -20.3000 -20.2999 -20.2998 -20.2996 -20.2995
   -20.2940 -20.2938 -20.2938 -20.2935 -20.2928 -20.2927 -20.2924 -20.2923
   -20.2915 -20.2914 -20.2912 -20.2911 -20.2901 -20.2901 -20.2900 -20.2900
   -20.2871 -20.2869 -20.2865 -20.2863 -20.2852 -20.2849 -20.2848 -20.2846
    -9.7386  -9.6186  -9.5318  -9.4292  -9.1580  -9.0210  -8.9600  -8.9392
    -8.7811  -8.6793  -8.6267  -8.6006  -8.2738  -8.2323  -8.2266  -8.1240
    -8.1042  -8.0862  -8.0648  -8.0158  -7.7478  -7.7357  -7.6834  -7.6718
     1.1783   1.1810   1.1907   1.1936   2.1032   2.1516   2.2311   2.3504
     2.4193   2.5214   2.5531   2.6681   2.7118   2.7427   2.8731   2.9473
     3.2020   3.2821   3.5723   3.6187   3.7032   3.7205   3.7472   3.7658
     4.1237   4.2907   4.3955   4.4040   4.5011   4.5492   4.5991   4.7285
     4.7567   4.8553   4.9763   5.0711   5.1066   5.1861   5.2218   5.3320
     5.3793   5.5375   5.7027   5.8597   6.1421   6.1683   6.1750   6.2298
     6.3781   6.5274   6.5848   6.5880   6.6481   6.7658   6.7665   6.7754
     6.8730   6.9493   7.0225   7.0525   7.0776   7.1342   7.1697   7.1968
     7.2694   7.3253   7.7456   7.7529   7.7687   7.7828   7.8587   7.8746
    10.3242  10.3380  10.5896  10.6110  11.2428  11.2692  11.7508  11.8387
    11.8747  11.9115  12.1506  12.2067  12.6025  12.6533  12.6537  12.6831
    12.9677  13.1592  13.2081  13.3822  13.4595  13.4819  13.8403  13.8573
    15.1378  15.2195  15.6278  15.8929  15.9053  15.9778  16.0913  16.7099
    16.7312  16.8103  17.1619  17.5515  17.7365

          k = 0.0000 0.3150-0.5000 ( 62306 PWs)   bands (ev):

   -66.1687 -66.1687 -66.1685 -66.1685 -66.1677 -66.1677 -66.1675 -66.1675
   -30.5366 -30.5366 -30.5346 -30.5346 -30.5230 -30.5230 -30.5205 -30.5205
   -30.4969 -30.4969 -30.4957 -30.4957 -30.4845 -30.4845 -30.4814 -30.4814
   -30.4798 -30.4797 -30.4786 -30.4786 -30.4323 -30.4323 -30.4309 -30.4309
   -20.3257 -20.3257 -20.3257 -20.3257 -20.3256 -20.3256 -20.3256 -20.3256
   -20.3046 -20.3046 -20.3042 -20.3042 -20.3019 -20.3019 -20.3016 -20.3016
   -20.3013 -20.3013 -20.3011 -20.3011 -20.3008 -20.3008 -20.3007 -20.3006
   -20.3004 -20.3004 -20.3002 -20.3002 -20.2999 -20.2999 -20.2995 -20.2995
   -20.2939 -20.2939 -20.2937 -20.2936 -20.2920 -20.2920 -20.2920 -20.2920
   -20.2917 -20.2917 -20.2917 -20.2917 -20.2888 -20.2888 -20.2886 -20.2886
   -20.2884 -20.2884 -20.2882 -20.2882 -20.2850 -20.2850 -20.2848 -20.2848
    -9.6156  -9.6156  -9.5032  -9.5032  -8.9012  -8.9012  -8.7577  -8.7577
    -8.6450  -8.6450  -8.6317  -8.6317  -8.5314  -8.5314  -8.4543  -8.4543
    -8.0996  -8.0996  -8.0603  -8.0603  -7.7154  -7.7154  -7.7035  -7.7035
     1.1917   1.1917   1.1950   1.1950   2.4054   2.4054   2.5338   2.5338
     2.8894   2.8894   2.9910   2.9910   3.0279   3.0279   3.1906   3.1906
     3.2360   3.2360   3.2792   3.2792   3.3350   3.3350   3.6083   3.6083
     4.0337   4.0337   4.0927   4.0927   4.1003   4.1003   4.3513   4.3513
     4.8217   4.8217   4.9428   4.9428   5.1660   5.1660   5.2037   5.2037
     5.3478   5.3478   5.7778   5.7778   6.2615   6.2615   6.3008   6.3008
     6.4104   6.4104   6.4626   6.4626   6.4847   6.4847   6.7310   6.7310
     7.0528   7.0528   7.0691   7.0691   7.1105   7.1105   7.5048   7.5048
     7.5066   7.5066   7.5738   7.5738   7.5957   7.5957   7.8662   7.8662
    10.5930  10.5930  11.1455  11.1455  11.1801  11.1801  11.6778  11.6778
    11.9701  11.9701  12.0996  12.0996  12.5858  12.5858  12.6241  12.6241
    12.8982  12.8982  12.9929  12.9929  13.4543  13.4543  13.8490  13.8490
    15.1872  15.1872  15.7843  15.7843  16.2767  16.2767  16.4554  16.4554
    16.9731  16.9731  17.2964  17.2964  18.0284

          k = 0.0000-0.4725 0.0000 ( 62212 PWs)   bands (ev):

   -66.1691 -66.1691 -66.1681 -66.1681 -66.1681 -66.1681 -66.1671 -66.1671
   -30.5387 -30.5387 -30.5382 -30.5382 -30.5331 -30.5331 -30.5327 -30.5327
   -30.5088 -30.5088 -30.5059 -30.5059 -30.5057 -30.5057 -30.5028 -30.5028
   -30.4345 -30.4345 -30.4339 -30.4339 -30.4300 -30.4300 -30.4293 -30.4293
   -20.3257 -20.3257 -20.3256 -20.3256 -20.3256 -20.3256 -20.3255 -20.3255
   -20.3033 -20.3033 -20.3030 -20.3030 -20.3030 -20.3030 -20.3026 -20.3026
   -20.3015 -20.3015 -20.3013 -20.3013 -20.3011 -20.3011 -20.3011 -20.3011
   -20.2999 -20.2999 -20.2999 -20.2998 -20.2998 -20.2998 -20.2996 -20.2996
   -20.2940 -20.2940 -20.2938 -20.2938 -20.2935 -20.2935 -20.2934 -20.2933
   -20.2914 -20.2914 -20.2911 -20.2911 -20.2909 -20.2909 -20.2907 -20.2907
   -20.2852 -20.2852 -20.2852 -20.2852 -20.2846 -20.2846 -20.2844 -20.2844
    -9.8497  -9.8497  -9.4157  -9.4157  -9.4134  -9.4134  -9.1392  -9.1392
    -8.4413  -8.4413  -8.3984  -8.3983  -8.3981  -8.3981  -8.3913  -8.3913
    -7.7759  -7.7759  -7.7745  -7.7745  -7.6471  -7.6471  -7.6462  -7.6462
     1.0311   1.0311   1.1591   1.1591   1.1625   1.1625   1.4952   1.4952
     2.3392   2.3392   3.1671   3.1671   3.1774   3.1774   3.2721   3.2721
     3.2748   3.2748   3.2771   3.2771   3.4957   3.4957   3.4979   3.4979
     3.6978   3.6979   4.7234   4.7234   4.7238   4.7238   5.2461   5.2461
     5.2489   5.2489   5.3837   5.3837   5.3855   5.3855   5.7591   5.7591
     5.7603   5.7603   5.9903   5.9903   5.9945   5.9945   6.1619   6.1619
     6.1666   6.1666   6.2211   6.2211   6.6702   6.6702   6.6712   6.6712
     6.9024   6.9024   7.3241   7.3241   7.3263   7.3263   7.4945   7.4945
     7.4948   7.4948   7.5435   7.5435   7.5439   7.5439   7.8788   7.8788
     9.1823   9.1823  11.1798  11.1798  11.1833  11.1833  11.2609  11.2609
    11.2652  11.2652  12.4036  12.4036  12.4049  12.4049  13.0929  13.0929
    13.5826  13.5826  13.5888  13.5888  13.6354  13.6354  13.6392  13.6392
    15.4531  15.4531  15.4783  15.4783  15.7348  15.7348  15.7363  15.7363
    16.4849  16.4849  17.9410  17.9410  18.1195

          k = 0.0000-0.4725 0.1667 ( 62246 PWs)   bands (ev):

   -66.1690 -66.1690 -66.1682 -66.1682 -66.1680 -66.1680 -66.1671 -66.1671
   -30.5379 -30.5379 -30.5331 -30.5331 -30.5323 -30.5323 -30.5271 -30.5270
   -30.5079 -30.5079 -30.5061 -30.5061 -30.5051 -30.5051 -30.5032 -30.5032
   -30.4413 -30.4413 -30.4367 -30.4367 -30.4336 -30.4336 -30.4296 -30.4296
   -20.3257 -20.3257 -20.3256 -20.3256 -20.3256 -20.3256 -20.3255 -20.3255
   -20.3033 -20.3033 -20.3030 -20.3030 -20.3030 -20.3030 -20.3026 -20.3026
   -20.3014 -20.3014 -20.3013 -20.3013 -20.3011 -20.3011 -20.3010 -20.3010
   -20.3000 -20.3000 -20.2999 -20.2999 -20.2998 -20.2998 -20.2997 -20.2997
   -20.2940 -20.2940 -20.2936 -20.2936 -20.2935 -20.2935 -20.2930 -20.2930
   -20.2911 -20.2911 -20.2911 -20.2911 -20.2909 -20.2909 -20.2908 -20.2908
   -20.2857 -20.2857 -20.2852 -20.2852 -20.2851 -20.2850 -20.2845 -20.2845
    -9.7957  -9.7957  -9.4274  -9.4274  -9.3250  -9.3250  -9.0963  -9.0963
    -8.4465  -8.4464  -8.4056  -8.4056  -8.3933  -8.3933  -8.3925  -8.3925
    -7.9052  -7.9052  -7.7846  -7.7846  -7.7657  -7.7656  -7.6546  -7.6546
     1.1280   1.1280   1.1675   1.1675   1.4286   1.4286   1.6716   1.6716
     2.4294   2.4294   3.1767   3.1767   3.1976   3.1976   3.2686   3.2686
     3.2752   3.2752   3.3168   3.3168   3.4938   3.4938   3.5417   3.5417
     3.7218   3.7218   4.3407   4.3407   4.7806   4.7806   4.9847   4.9847
     5.1579   5.1579   5.2265   5.2265   5.3941   5.3941   5.4826   5.4826
     5.7305   5.7305   5.7640   5.7640   6.0882   6.0882   6.1237   6.1237
     6.3592   6.3592   6.3860   6.3860   6.6616   6.6616   6.8776   6.8776
     6.9758   6.9758   7.0743   7.0743   7.1426   7.1426   7.4805   7.4805
     7.5009   7.5009   7.5212   7.5212   7.5344   7.5344   7.8722   7.8722
     9.5647   9.5647  11.1882  11.1882  11.2579  11.2579  11.3108  11.3108
    11.3870  11.3870  12.2891  12.2891  12.4570  12.4570  13.1013  13.1013
    13.3974  13.3974  13.5051  13.5051  13.5969  13.5970  13.6323  13.6323
    15.4525  15.4525  15.6893  15.6893  15.7199  15.7199  16.0233  16.0233
    16.5523  16.5523  17.8891  17.8891  18.0783

          k = 0.0000-0.4725 0.3333 ( 62268 PWs)   bands (ev):

   -66.1688 -66.1688 -66.1683 -66.1683 -66.1678 -66.1678 -66.1673 -66.1673
   -30.5369 -30.5369 -30.5341 -30.5341 -30.5167 -30.5167 -30.5141 -30.5141
   -30.5073 -30.5073 -30.5045 -30.5045 -30.5021 -30.5021 -30.5008 -30.5008
   -30.4599 -30.4598 -30.4551 -30.4551 -30.4328 -30.4328 -30.4305 -30.4305
   -20.3257 -20.3257 -20.3257 -20.3256 -20.3256 -20.3256 -20.3256 -20.3256
   -20.3033 -20.3033 -20.3031 -20.3031 -20.3030 -20.3030 -20.3027 -20.3027
   -20.3013 -20.3013 -20.3011 -20.3011 -20.3010 -20.3010 -20.3008 -20.3008
   -20.3002 -20.3002 -20.3001 -20.3001 -20.2998 -20.2998 -20.2997 -20.2997
   -20.2939 -20.2939 -20.2937 -20.2936 -20.2928 -20.2927 -20.2924 -20.2924
   -20.2914 -20.2914 -20.2912 -20.2912 -20.2901 -20.2901 -20.2900 -20.2900
   -20.2870 -20.2870 -20.2864 -20.2864 -20.2851 -20.2850 -20.2847 -20.2847
    -9.6701  -9.6701  -9.4709  -9.4709  -9.0700  -9.0700  -8.9474  -8.9474
    -8.4899  -8.4899  -8.4459  -8.4459  -8.3894  -8.3894  -8.3761  -8.3761
    -8.2035  -8.2035  -8.1044  -8.1044  -7.7418  -7.7418  -7.6777  -7.6777
     1.1805   1.1805   1.1930   1.1930   2.1434   2.1434   2.3331   2.3331
     2.6926   2.6926   3.1854   3.1854   3.2330   3.2330   3.2538   3.2538
     3.2652   3.2652   3.4033   3.4034   3.4775   3.4775   3.6837   3.6837
     3.7280   3.7280   3.7696   3.7696   4.4652   4.4652   4.6169   4.6169
     4.7873   4.7873   4.8145   4.8145   5.1220   5.1220   5.2615   5.2615
     5.4300   5.4300   5.6476   5.6476   6.1729   6.1729   6.2255   6.2255
     6.4889   6.4889   6.6094   6.6094   6.6366   6.6367   6.7842   6.7842
     6.9618   6.9618   7.1819   7.1820   7.1910   7.1910   7.4537   7.4537
     7.4809   7.4809   7.5130   7.5130   7.5206   7.5206   7.7901   7.7901
    10.3359  10.3359  11.2028  11.2028  11.2401  11.2401  11.6963  11.6963
    11.7473  11.7473  11.8692  11.8692  12.6259  12.6259  12.8119  12.8119
    12.9096  12.9096  13.2572  13.2572  13.6019  13.6019  13.6268  13.6268
    15.4953  15.4953  15.6703  15.6703  16.2973  16.2973  16.7541  16.7541
    16.8030  16.8030  17.3627  17.3627  17.9189

          k = 0.0000-0.4725-0.5000 ( 62284 PWs)   bands (ev):

   -66.1686 -66.1686 -66.1686 -66.1686 -66.1676 -66.1676 -66.1676 -66.1676
   -30.5355 -30.5355 -30.5355 -30.5355 -30.5094 -30.5094 -30.5094 -30.5094
   -30.5070 -30.5070 -30.5070 -30.5070 -30.4842 -30.4842 -30.4842 -30.4842
   -30.4798 -30.4798 -30.4798 -30.4798 -30.4316 -30.4316 -30.4316 -30.4316
   -20.3257 -20.3257 -20.3257 -20.3257 -20.3256 -20.3256 -20.3256 -20.3256
   -20.3032 -20.3032 -20.3032 -20.3032 -20.3029 -20.3029 -20.3029 -20.3029
   -20.3012 -20.3012 -20.3012 -20.3012 -20.3006 -20.3006 -20.3006 -20.3006
   -20.3004 -20.3004 -20.3004 -20.3004 -20.2997 -20.2997 -20.2997 -20.2997
   -20.2938 -20.2938 -20.2938 -20.2938 -20.2920 -20.2920 -20.2920 -20.2920
   -20.2917 -20.2917 -20.2917 -20.2917 -20.2887 -20.2887 -20.2887 -20.2887
   -20.2883 -20.2883 -20.2883 -20.2883 -20.2849 -20.2849 -20.2849 -20.2849
    -9.5499  -9.5499  -9.5499  -9.5499  -8.7189  -8.7189  -8.7189  -8.7189
    -8.6740  -8.6740  -8.6740  -8.6740  -8.3653  -8.3653  -8.3653  -8.3653
    -8.3227  -8.3227  -8.3227  -8.3227  -7.7095  -7.7095  -7.7095  -7.7095
     1.1943   1.1943   1.1943   1.1943   2.9720   2.9720   2.9720   2.9720
     3.1096   3.1096   3.1096   3.1096   3.1957   3.1957   3.1957   3.1957
     3.2516   3.2516   3.2516   3.2516   3.4134   3.4134   3.4134   3.4134
     3.6065   3.6065   3.6065   3.6065   4.2952   4.2952   4.2952   4.2952
     4.4046   4.4046   4.4046   4.4046   5.1876   5.1876   5.1876   5.1876
     5.5132   5.5132   5.5132   5.5132   6.2978   6.2978   6.2978   6.2978
     6.4603   6.4603   6.4603   6.4603   6.5904   6.5904   6.5904   6.5904
     7.3006   7.3006   7.3006   7.3006   7.3826   7.3826   7.3826   7.3827
     7.4605   7.4605   7.4605   7.4605   7.5957   7.5957   7.5957   7.5957
    11.1318  11.1318  11.1318  11.1318  11.2522  11.2522  11.2522  11.2522
    12.2684  12.2684  12.2684  12.2684  12.2824  12.2824  12.2824  12.2824
    12.9255  12.9255  12.9255  12.9255  13.6145  13.6145  13.6145  13.6145
    15.5877  15.5877  15.5877  15.5877  16.8681  16.8681  16.8681  16.8681
    17.4222  17.4222  17.4222  17.4223  17.5379

          k = 0.1667 0.0000 0.1667 ( 62234 PWs)   bands (ev):

   -66.1692 -66.1688 -66.1683 -66.1683 -66.1679 -66.1679 -66.1674 -66.1670
   -30.5413 -30.5376 -30.5373 -30.5331 -30.5323 -30.5318 -30.5288 -30.5284
   -30.5277 -30.5259 -30.5243 -30.5228 -30.4785 -30.4768 -30.4766 -30.4750
   -30.4423 -30.4416 -30.4398 -30.4391 -30.4381 -30.4376 -30.4357 -30.4350
   -20.3258 -20.3257 -20.3257 -20.3257 -20.3256 -20.3256 -20.3256 -20.3255
   -20.3060 -20.3057 -20.3057 -20.3054 -20.3017 -20.3016 -20.3015 -20.3013
   -20.3013 -20.3010 -20.3009 -20.3007 -20.3003 -20.3003 -20.3003 -20.3003
   -20.3002 -20.3001 -20.3000 -20.2999 -20.2995 -20.2994 -20.2994 -20.2992
   -20.2939 -20.2938 -20.2935 -20.2935 -20.2933 -20.2931 -20.2929 -20.2927
   -20.2910 -20.2910 -20.2910 -20.2909 -20.2909 -20.2909 -20.2908 -20.2907
   -20.2860 -20.2858 -20.2855 -20.2854 -20.2853 -20.2852 -20.2848 -20.2848
    -9.8957  -9.6423  -9.5013  -9.5000  -9.2703  -9.2678  -9.0648  -9.0518
    -9.0353  -8.8421  -8.8372  -8.8365  -7.9111  -7.9104  -7.8911  -7.8904
    -7.8359  -7.8244  -7.7836  -7.7673  -7.7618  -7.7338  -7.7337  -7.6903
     1.3040   1.3055   1.3858   1.3878   1.4307   1.4357   1.4398   1.6412
     1.6833   1.6847   1.7776   1.9731   2.4825   2.5640   2.6639   2.6643
     2.7743   2.8001   4.0820   4.0980   4.2457   4.2459   4.4194   4.4205
     4.4297   4.4302   4.6780   4.6806   4.7046   4.7988   5.0033   5.2213
     5.2482   5.2977   5.3339   5.5019   5.5055   5.6040   5.6046   5.7108
     5.7111   5.7525   5.7531   5.8348   5.8984   6.0291   6.3032   6.4246
     6.4317   6.4815   6.4985   6.6186   6.6382   6.7211   6.7456   6.7664
     6.7672   6.7978   6.7998   6.8206   6.8981   6.9768   6.9777   7.0689
     7.2229   7.2750   7.8579   7.8584   8.0620   8.0992   8.1235   8.1260
     9.7894   9.8454  10.1449  10.1604  10.1619  10.2438  12.3012  12.3121
    12.3174  12.3349  12.3360  12.3567  12.5513  12.5533  13.0115  13.0227
    13.0479  13.1688  13.1828  13.3923  13.9761  13.9927  14.0139  14.0705
    14.0893  14.4646  14.4718  15.1363  15.3815  15.6036  15.6173  16.4603
    16.4606  17.0528  17.0535  17.2754  17.5952

          k = 0.1667 0.0000 0.3333 ( 62265 PWs)   bands (ev):

   -66.1690 -66.1686 -66.1685 -66.1681 -66.1681 -66.1677 -66.1676 -66.1672
   -30.5406 -30.5384 -30.5363 -30.5334 -30.5308 -30.5288 -30.5262 -30.5246
   -30.5150 -30.5106 -30.5091 -30.5049 -30.4788 -30.4775 -30.4770 -30.4755
   -30.4594 -30.4585 -30.4558 -30.4544 -30.4408 -30.4386 -30.4381 -30.4359
   -20.3257 -20.3257 -20.3257 -20.3256 -20.3256 -20.3256 -20.3256 -20.3255
   -20.3060 -20.3058 -20.3057 -20.3055 -20.3015 -20.3014 -20.3014 -20.3012
   -20.3011 -20.3009 -20.3008 -20.3008 -20.3006 -20.3005 -20.3005 -20.3003
   -20.3003 -20.3002 -20.3000 -20.2998 -20.2996 -20.2995 -20.2994 -20.2994
   -20.2938 -20.2937 -20.2934 -20.2933 -20.2927 -20.2926 -20.2922 -20.2921
   -20.2913 -20.2913 -20.2911 -20.2911 -20.2902 -20.2901 -20.2900 -20.2898
   -20.2872 -20.2868 -20.2867 -20.2863 -20.2857 -20.2854 -20.2853 -20.2850
    -9.7691  -9.5496  -9.5035  -9.3202  -9.3069  -9.0699  -9.0048  -8.9515
    -8.9099  -8.8490  -8.7967  -8.7474  -8.2307  -8.2285  -8.1674  -8.1447
    -7.8851  -7.8683  -7.8219  -7.8095  -7.7657  -7.7436  -7.7250  -7.6997
     1.3891   1.3913   1.4526   1.4566   1.5834   1.6038   1.6249   1.6754
     2.1619   2.2078   2.3419   2.4316   2.6863   2.7471   2.7774   2.8480
     2.9061   3.0245   3.7192   3.8191   3.8636   3.9252   4.1589   4.2176
     4.2463   4.4243   4.5064   4.5661   4.6131   4.6432   4.6942   4.8493
     4.9454   4.9906   5.0308   5.1591   5.2319   5.3548   5.5649   5.6371
     5.7331   5.7692   5.8227   5.8908   5.9001   6.0173   6.1093   6.1328
     6.4128   6.4631   6.5431   6.5603   6.5992   6.6331   6.7215   6.7341
     6.7696   6.8539   6.8615   6.8636   7.0787   7.1116   7.1185   7.1663
     7.3039   7.3642   7.7730   7.7859   7.9477   7.9845   8.1147   8.1256
    10.1486  10.1603  10.4510  10.5036  10.8154  10.9077  11.9019  11.9372
    12.1460  12.4548  12.4840  12.5022  12.5470  12.5483  12.7294  12.8086
    12.9802  13.0564  13.1051  13.2806  13.6431  13.6646  14.0002  14.0248
    14.2649  14.4455  14.7795  15.2774  15.4577  15.9057  16.0807  16.3674
    16.4657  17.3516  17.5056  17.6128  17.6954

          k = 0.1667 0.0000-0.5000 ( 62322 PWs)   bands (ev):

   -66.1687 -66.1687 -66.1683 -66.1683 -66.1678 -66.1678 -66.1675 -66.1674
   -30.5395 -30.5395 -30.5349 -30.5348 -30.5296 -30.5296 -30.5256 -30.5256
   -30.4914 -30.4914 -30.4883 -30.4883 -30.4839 -30.4839 -30.4797 -30.4797
   -30.4729 -30.4729 -30.4723 -30.4723 -30.4397 -30.4397 -30.4370 -30.4370
   -20.3257 -20.3257 -20.3256 -20.3256 -20.3256 -20.3256 -20.3256 -20.3256
   -20.3059 -20.3059 -20.3056 -20.3056 -20.3015 -20.3015 -20.3011 -20.3011
   -20.3009 -20.3009 -20.3008 -20.3008 -20.3006 -20.3006 -20.3005 -20.3005
   -20.3003 -20.3003 -20.2998 -20.2998 -20.2997 -20.2997 -20.2994 -20.2994
   -20.2937 -20.2937 -20.2933 -20.2933 -20.2919 -20.2919 -20.2919 -20.2918
   -20.2916 -20.2916 -20.2915 -20.2915 -20.2889 -20.2889 -20.2885 -20.2885
   -20.2884 -20.2884 -20.2881 -20.2881 -20.2856 -20.2856 -20.2851 -20.2851
    -9.6395  -9.6395  -9.3807  -9.3807  -9.1522  -9.1522  -8.8740  -8.8740
    -8.6237  -8.6237  -8.6203  -8.6203  -8.5696  -8.5695  -8.5081  -8.5081
    -7.8537  -7.8536  -7.8379  -7.8379  -7.7561  -7.7561  -7.7124  -7.7124
     1.3914   1.3914   1.4669   1.4669   1.6080   1.6080   1.6614   1.6614
     2.7114   2.7114   2.9531   2.9531   3.0336   3.0336   3.1509   3.1509
     3.2069   3.2069   3.3242   3.3242   3.4275   3.4275   3.7491   3.7491
     3.8503   3.8503   4.3365   4.3365   4.5707   4.5707   4.8218   4.8218
     4.9537   4.9537   4.9676   4.9676   5.1881   5.1881   5.6668   5.6668
     5.7444   5.7444   5.8266   5.8266   5.8845   5.8845   6.0307   6.0307
     6.3542   6.3542   6.4852   6.4852   6.6878   6.6878   6.7378   6.7378
     6.7751   6.7751   6.9339   6.9339   6.9870   6.9870   7.5156   7.5156
     7.5484   7.5484   7.7019   7.7019   7.7241   7.7241   8.1249   8.1249
    10.1617  10.1617  11.2090  11.2090  11.2674  11.2674  11.5678  11.5678
    11.7293  11.7293  12.5746  12.5746  12.7182  12.7182  12.7449  12.7449
    12.9271  12.9271  13.2099  13.2099  13.3170  13.3170  14.0095  14.0096
    14.3883  14.3883  15.0814  15.0814  15.9088  15.9088  16.1928  16.1928
    16.8754  16.8754  17.8989  17.9011  17.9317

          k = 0.1667 0.1575 0.1667 ( 62255 PWs)   bands (ev):

   -66.1691 -66.1688 -66.1683 -66.1683 -66.1679 -66.1679 -66.1674 -66.1670
   -30.5383 -30.5348 -30.5345 -30.5330 -30.5314 -30.5288 -30.5285 -30.5282
   -30.5270 -30.5249 -30.5242 -30.5223 -30.4824 -30.4807 -30.4805 -30.4788
   -30.4421 -30.4415 -30.4400 -30.4393 -30.4380 -30.4375 -30.4359 -30.4352
   -20.3257 -20.3257 -20.3257 -20.3257 -20.3256 -20.3256 -20.3256 -20.3255
   -20.3056 -20.3053 -20.3053 -20.3050 -20.3017 -20.3015 -20.3014 -20.3014
   -20.3013 -20.3011 -20.3010 -20.3008 -20.3006 -20.3005 -20.3004 -20.3003
   -20.3003 -20.3002 -20.3002 -20.3001 -20.2995 -20.2995 -20.2994 -20.2994
   -20.2939 -20.2938 -20.2935 -20.2935 -20.2933 -20.2931 -20.2929 -20.2927
   -20.2910 -20.2910 -20.2910 -20.2909 -20.2909 -20.2909 -20.2908 -20.2907
   -20.2860 -20.2858 -20.2855 -20.2854 -20.2853 -20.2852 -20.2849 -20.2849
    -9.8695  -9.6525  -9.4707  -9.4692  -9.2770  -9.2745  -9.0638  -9.0521
    -8.9623  -8.7932  -8.7928  -8.7924  -7.9164  -7.9098  -7.9004  -7.9001
    -7.8955  -7.8312  -7.8300  -7.8254  -7.8190  -7.7812  -7.7676  -7.7627
     1.3041   1.3053   1.4125   1.4150   1.4356   1.4386   1.5822   1.7768
     1.8403   1.8957   1.8967   2.1006   2.4884   2.5588   2.7366   2.7369
     2.8456   2.8653   3.9725   4.0034   4.0655   4.0669   4.3827   4.3843
     4.4323   4.4333   4.6796   4.7139   4.7324   4.7814   4.7981   5.1739
     5.1974   5.2519   5.2556   5.3139   5.3302   5.5672   5.5676   5.6669
     5.7206   5.7239   5.8427   5.8466   5.8493   5.9435   6.3202   6.3506
     6.3520   6.4687   6.4858   6.6110   6.6248   6.7127   6.7543   6.7841
     6.7863   6.8459   6.8559   6.8586   6.9400   6.9592   6.9615   7.0763
     7.2261   7.2748   7.8587   7.8589   8.0076   8.0449   8.0492   8.0507
     9.8049   9.8430  10.3023  10.3328  10.3348  10.3865  12.1947  12.2356
    12.3047  12.3052  12.3205  12.3213  12.4264  12.4275  13.0307  13.0487
    13.0751  13.1760  13.1869  13.3995  13.8984  13.9083  13.9141  13.9834
    14.4168  14.7799  14.7821  15.2576  15.6044  15.6164  15.7915  16.4237
    16.4243  16.9177  17.1486  17.1493  17.6030

          k = 0.1667 0.1575 0.3333 ( 62260 PWs)   bands (ev):

   -66.1689 -66.1686 -66.1684 -66.1681 -66.1681 -66.1677 -66.1676 -66.1672
   -30.5375 -30.5354 -30.5327 -30.5304 -30.5295 -30.5288 -30.5254 -30.5245
   -30.5149 -30.5105 -30.5090 -30.5049 -30.4824 -30.4810 -30.4808 -30.4793
   -30.4596 -30.4587 -30.4559 -30.4545 -30.4407 -30.4385 -30.4382 -30.4361
   -20.3257 -20.3257 -20.3257 -20.3256 -20.3256 -20.3256 -20.3256 -20.3255
   -20.3056 -20.3054 -20.3053 -20.3051 -20.3015 -20.3014 -20.3014 -20.3013
   -20.3012 -20.3010 -20.3010 -20.3008 -20.3007 -20.3005 -20.3005 -20.3005
   -20.3004 -20.3002 -20.3001 -20.3001 -20.2997 -20.2996 -20.2995 -20.2994
   -20.2938 -20.2936 -20.2934 -20.2933 -20.2927 -20.2926 -20.2922 -20.2921
   -20.2913 -20.2913 -20.2911 -20.2911 -20.2902 -20.2901 -20.2900 -20.2899
   -20.2872 -20.2868 -20.2866 -20.2863 -20.2857 -20.2854 -20.2853 -20.2850
    -9.7402  -9.5187  -9.5134  -9.3144  -9.2754  -9.0118  -8.9977  -8.9440
    -8.9109  -8.8059  -8.7570  -8.7169  -8.2357  -8.2262  -8.1779  -8.1421
    -7.8864  -7.8832  -7.8685  -7.8390  -7.8195  -7.8176  -7.8147  -7.7818
     1.4244   1.4332   1.4525   1.4566   1.7751   1.7880   1.8594   1.8894
     2.1609   2.2270   2.3421   2.4549   2.7577   2.7628   2.8294   2.8534
     2.9797   3.0864   3.7160   3.8133   3.8496   3.8864   4.0534   4.1280
     4.2281   4.3155   4.5168   4.5571   4.5988   4.6682   4.6885   4.7383
     4.8501   4.8626   4.8912   5.1331   5.1541   5.1868   5.3163   5.6058
     5.6466   5.6927   5.7383   5.8241   5.8928   5.9094   6.0860   6.1285
     6.3420   6.5157   6.5203   6.6492   6.7057   6.7082   6.7354   6.7444
     6.8245   6.8667   6.9008   6.9429   7.0706   7.1053   7.1120   7.1787
     7.2967   7.3593   7.7746   7.7833   7.9017   7.9262   8.0480   8.0523
    10.2932  10.3312  10.4683  10.5138  10.9311  10.9999  11.9025  11.9342
    12.1089  12.3966  12.4340  12.4569  12.4863  12.5453  12.6707  12.6969
    12.9945  13.0665  13.0895  13.2895  13.5375  13.5695  13.9095  13.9367
    14.6113  14.7619  15.1396  15.5424  15.7035  15.8998  16.0925  16.3344
    16.5640  17.3012  17.3079  17.5579  17.6546

          k = 0.1667 0.1575-0.5000 ( 62292 PWs)   bands (ev):

   -66.1687 -66.1687 -66.1684 -66.1684 -66.1678 -66.1678 -66.1675 -66.1675
   -30.5364 -30.5364 -30.5311 -30.5311 -30.5293 -30.5293 -30.5252 -30.5252
   -30.4921 -30.4921 -30.4896 -30.4896 -30.4840 -30.4840 -30.4798 -30.4798
   -30.4757 -30.4757 -30.4749 -30.4749 -30.4395 -30.4395 -30.4372 -30.4372
   -20.3257 -20.3257 -20.3256 -20.3256 -20.3256 -20.3256 -20.3256 -20.3256
   -20.3055 -20.3055 -20.3052 -20.3052 -20.3014 -20.3014 -20.3012 -20.3012
   -20.3010 -20.3009 -20.3008 -20.3008 -20.3007 -20.3007 -20.3007 -20.3007
   -20.3003 -20.3003 -20.2999 -20.2999 -20.2999 -20.2999 -20.2995 -20.2995
   -20.2937 -20.2937 -20.2933 -20.2933 -20.2919 -20.2919 -20.2919 -20.2919
   -20.2916 -20.2916 -20.2916 -20.2916 -20.2888 -20.2888 -20.2885 -20.2885
   -20.2884 -20.2884 -20.2882 -20.2882 -20.2855 -20.2855 -20.2852 -20.2852
    -9.6088  -9.6088  -9.3892  -9.3892  -9.0873  -9.0873  -8.8377  -8.8377
    -8.6270  -8.6270  -8.6232  -8.6232  -8.5642  -8.5642  -8.4986  -8.4986
    -7.8707  -7.8707  -7.8507  -7.8507  -7.8352  -7.8352  -7.8006  -7.8006
     1.4355   1.4355   1.4668   1.4668   1.8088   1.8088   1.8845   1.8845
     2.7781   2.7781   2.9690   2.9690   3.0407   3.0407   3.1681   3.1681
     3.2122   3.2122   3.3319   3.3319   3.4197   3.4197   3.7600   3.7600
     3.9021   3.9021   4.1900   4.1900   4.5775   4.5775   4.6332   4.6332
     4.8842   4.8842   4.9366   4.9366   5.0296   5.0296   5.4445   5.4445
     5.7114   5.7114   5.7463   5.7463   5.8441   5.8441   5.9183   5.9183
     6.4680   6.4680   6.6309   6.6309   6.6600   6.6600   6.7585   6.7585
     6.8700   6.8700   6.9019   6.9019   7.0242   7.0242   7.5176   7.5176
     7.5431   7.5431   7.6733   7.6733   7.6930   7.6930   8.0533   8.0533
    10.3279  10.3279  11.2142  11.2142  11.2669  11.2669  11.6348  11.6348
    11.7908  11.7908  12.4348  12.4348  12.6976  12.6976  12.7334  12.7334
    12.9054  12.9054  13.1097  13.1097  13.2667  13.2667  13.9190  13.9190
    14.7166  14.7167  15.4664  15.4664  16.0166  16.0166  16.1701  16.1701
    16.9078  16.9078  17.7059  17.7059  17.9525

          k = 0.1667 0.3150 0.1667 ( 62249 PWs)   bands (ev):

   -66.1691 -66.1689 -66.1682 -66.1682 -66.1680 -66.1680 -66.1673 -66.1671
   -30.5334 -30.5325 -30.5317 -30.5314 -30.5291 -30.5283 -30.5275 -30.5258
   -30.5192 -30.5186 -30.5185 -30.5180 -30.4930 -30.4913 -30.4911 -30.4893
   -30.4417 -30.4411 -30.4404 -30.4398 -30.4376 -30.4371 -30.4363 -30.4357
   -20.3257 -20.3257 -20.3256 -20.3256 -20.3256 -20.3256 -20.3256 -20.3255
   -20.3047 -20.3044 -20.3044 -20.3040 -20.3021 -20.3018 -20.3017 -20.3015
   -20.3014 -20.3013 -20.3012 -20.3011 -20.3010 -20.3010 -20.3008 -20.3008
   -20.3002 -20.3001 -20.3001 -20.3000 -20.2997 -20.2997 -20.2996 -20.2996
   -20.2938 -20.2938 -20.2935 -20.2934 -20.2934 -20.2932 -20.2929 -20.2928
   -20.2910 -20.2910 -20.2909 -20.2909 -20.2909 -20.2909 -20.2908 -20.2908
   -20.2859 -20.2857 -20.2856 -20.2855 -20.2852 -20.2852 -20.2849 -20.2849
    -9.8061  -9.6839  -9.4025  -9.4007  -9.2985  -9.2961  -9.0614  -9.0545
    -8.7541  -8.6486  -8.6484  -8.6423  -8.1406  -8.1011  -8.1008  -8.0804
    -7.9033  -7.9023  -7.8874  -7.8866  -7.8177  -7.8014  -7.7776  -7.7668
     1.3042   1.3049   1.4293   1.4322   1.4352   1.4383   1.7290   1.7737
     2.4116   2.5032   2.5263   2.5274   2.5383   2.6808   2.9585   2.9595
     3.0570   3.0699   3.6459   3.6501   3.6639   3.7130   4.1435   4.3816
     4.3826   4.4042   4.4062   4.5207   4.5236   4.7610   4.7678   4.8666
     4.9069   4.9090   5.0973   5.1341   5.3266   5.3738   5.4296   5.4298
     5.6692   5.6915   5.7304   5.7311   5.8293   5.8294   6.3495   6.3569
     6.4055   6.4554   6.4682   6.5988   6.6451   6.6869   6.8258   6.8273
     6.8999   6.9007   6.9897   6.9950   7.0918   7.1161   7.1220   7.1269
     7.2559   7.2867   7.8214   7.8261   7.8285   7.8396   7.8609   7.8819
     9.8239   9.8391  10.7263  10.7808  10.7897  10.7991  11.8310  11.8780
    11.9531  11.9543  12.3289  12.3296  12.3582  12.3587  13.0523  13.1166
    13.1963  13.2172  13.2549  13.4423  13.6654  13.6711  13.6777  13.7760
    15.1617  15.4536  15.4566  15.6077  15.6137  15.7372  16.2952  16.2963
    16.3522  16.7978  17.3604  17.4646  17.4652

          k = 0.1667 0.3150 0.3333 ( 62265 PWs)   bands (ev):

   -66.1689 -66.1687 -66.1684 -66.1682 -66.1680 -66.1678 -66.1675 -66.1673
   -30.5322 -30.5309 -30.5287 -30.5285 -30.5236 -30.5220 -30.5195 -30.5191
   -30.5149 -30.5108 -30.5081 -30.5046 -30.4925 -30.4909 -30.4907 -30.4893
   -30.4598 -30.4591 -30.4558 -30.4549 -30.4402 -30.4389 -30.4379 -30.4366
   -20.3257 -20.3257 -20.3257 -20.3256 -20.3256 -20.3256 -20.3256 -20.3256
   -20.3046 -20.3045 -20.3043 -20.3041 -20.3020 -20.3018 -20.3017 -20.3015
   -20.3013 -20.3012 -20.3011 -20.3010 -20.3009 -20.3009 -20.3007 -20.3005
   -20.3004 -20.3003 -20.3001 -20.3001 -20.2999 -20.2998 -20.2997 -20.2996
   -20.2937 -20.2936 -20.2935 -20.2934 -20.2927 -20.2926 -20.2922 -20.2921
   -20.2913 -20.2913 -20.2911 -20.2911 -20.2902 -20.2901 -20.2900 -20.2899
   -20.2871 -20.2869 -20.2866 -20.2864 -20.2856 -20.2854 -20.2853 -20.2851
    -9.6712  -9.5443  -9.4487  -9.3379  -9.1743  -9.0354  -8.9316  -8.9161
    -8.7920  -8.6672  -8.6223  -8.6054  -8.2651  -8.2489  -8.2184  -8.1336
    -8.1019  -8.0932  -8.0640  -8.0209  -7.8783  -7.8639  -7.8152  -7.8026
     1.4450   1.4510   1.4522   1.4563   2.1080   2.1576   2.2218   2.3392
     2.4180   2.5209   2.5321   2.6846   2.7817   2.8503   2.9743   3.0483
     3.2035   3.2784   3.6141   3.6421   3.6979   3.7332   3.7945   3.8773
     4.1180   4.2932   4.3837   4.4101   4.4836   4.5405   4.5453   4.5920
     4.6203   4.7972   4.8137   4.8781   4.8960   4.9458   5.1017   5.1507
     5.3019   5.3412   5.4625   5.6389   5.7524   5.8333   6.1156   6.1294
     6.4869   6.5788   6.6088   6.7430   6.7841   6.8000   6.9188   6.9575
     6.9870   7.0192   7.0364   7.0546   7.1063   7.1550   7.1914   7.2454
     7.2771   7.3460   7.7412   7.7488   7.7631   7.7838   7.8351   7.8613
    10.4542  10.4827  10.7776  10.7877  11.2515  11.2824  11.8393  11.8887
    11.9108  12.0241  12.1545  12.2001  12.4914  12.5622  12.6638  12.6890
    12.9547  13.0968  13.1197  13.3161  13.3429  13.3654  13.6756  13.7197
    15.3427  15.4383  15.8686  15.9714  15.9725  16.1530  16.2218  16.6816
    16.7916  16.8806  17.1571  17.5864  17.7129

          k = 0.1667 0.3150-0.5000 ( 62264 PWs)   bands (ev):

   -66.1686 -66.1686 -66.1684 -66.1684 -66.1677 -66.1677 -66.1676 -66.1675
   -30.5311 -30.5311 -30.5289 -30.5289 -30.5209 -30.5209 -30.5206 -30.5206
   -30.4966 -30.4966 -30.4957 -30.4957 -30.4842 -30.4842 -30.4814 -30.4814
   -30.4801 -30.4801 -30.4788 -30.4788 -30.4391 -30.4391 -30.4378 -30.4378
   -20.3257 -20.3257 -20.3257 -20.3256 -20.3256 -20.3256 -20.3256 -20.3256
   -20.3046 -20.3046 -20.3043 -20.3043 -20.3019 -20.3019 -20.3016 -20.3016
   -20.3012 -20.3012 -20.3010 -20.3010 -20.3007 -20.3007 -20.3007 -20.3007
   -20.3004 -20.3004 -20.3002 -20.3002 -20.3000 -20.3000 -20.2996 -20.2996
   -20.2936 -20.2936 -20.2934 -20.2934 -20.2919 -20.2919 -20.2919 -20.2919
   -20.2916 -20.2916 -20.2916 -20.2916 -20.2888 -20.2888 -20.2886 -20.2886
   -20.2884 -20.2884 -20.2882 -20.2882 -20.2855 -20.2855 -20.2853 -20.2853
    -9.5374  -9.5374  -9.4164  -9.4164  -8.9172  -8.9172  -8.7417  -8.7417
    -8.6474  -8.6473  -8.6327  -8.6327  -8.5241  -8.5241  -8.4579  -8.4579
    -8.0977  -8.0977  -8.0674  -8.0674  -7.8467  -7.8467  -7.8332  -7.8332
     1.4589   1.4589   1.4663   1.4663   2.4072   2.4072   2.5128   2.5128
     2.9543   2.9543   3.0261   3.0261   3.0414   3.0414   3.2036   3.2036
     3.2377   3.2377   3.3674   3.3674   3.3895   3.3895   3.6503   3.6503
     4.0391   4.0391   4.0847   4.0847   4.0995   4.0995   4.3583   4.3583
     4.7334   4.7334   4.8037   4.8037   4.9670   4.9671   5.0097   5.0097
     5.0697   5.0697   5.5336   5.5336   5.8449   5.8449   5.8816   5.8816
     6.6401   6.6401   6.7672   6.7672   6.7948   6.7948   6.8259   6.8259
     7.0260   7.0260   7.0763   7.0763   7.1742   7.1742   7.5151   7.5151
     7.5262   7.5262   7.5781   7.5781   7.6038   7.6038   7.8450   7.8450
    10.7636  10.7637  11.2255  11.2255  11.2668  11.2668  11.7424  11.7424
    11.9803  11.9803  12.1319  12.1319  12.5716  12.5716  12.6041  12.6041
    12.8242  12.8242  12.9293  12.9293  13.2804  13.2804  13.6921  13.6921
    15.4055  15.4055  16.0818  16.0818  16.3475  16.3475  16.4513  16.4513
    17.0417  17.0417  17.3403  17.3403  17.9169

          k = 0.1667-0.4725 0.1667 ( 62220 PWs)   bands (ev):

   -66.1690 -66.1690 -66.1681 -66.1681 -66.1681 -66.1681 -66.1672 -66.1672
   -30.5320 -30.5320 -30.5315 -30.5315 -30.5279 -30.5279 -30.5265 -30.5265
   -30.5070 -30.5070 -30.5055 -30.5055 -30.5053 -30.5053 -30.5036 -30.5036
   -30.4411 -30.4411 -30.4405 -30.4405 -30.4370 -30.4370 -30.4363 -30.4363
   -20.3257 -20.3257 -20.3256 -20.3256 -20.3256 -20.3256 -20.3256 -20.3255
   -20.3033 -20.3033 -20.3030 -20.3030 -20.3030 -20.3030 -20.3027 -20.3027
   -20.3013 -20.3013 -20.3012 -20.3012 -20.3011 -20.3011 -20.3010 -20.3010
   -20.3000 -20.3000 -20.2999 -20.2999 -20.2999 -20.2999 -20.2997 -20.2997
   -20.2938 -20.2937 -20.2935 -20.2935 -20.2933 -20.2933 -20.2928 -20.2928
   -20.2910 -20.2910 -20.2909 -20.2909 -20.2909 -20.2909 -20.2908 -20.2908
   -20.2858 -20.2858 -20.2856 -20.2856 -20.2851 -20.2851 -20.2850 -20.2850
    -9.7371  -9.7370  -9.3394  -9.3393  -9.3372  -9.3371  -9.0579  -9.0579
    -8.4537  -8.4537  -8.4008  -8.4004  -8.4004  -8.4001  -8.3923  -8.3922
    -7.8969  -7.8966  -7.8953  -7.8951  -7.8109  -7.8109  -7.7723  -7.7723
     1.3045   1.3046   1.4337   1.4341   1.4367   1.4371   1.7637   1.7638
     2.5226   2.5226   3.1937   3.1970   3.2023   3.2080   3.2711   3.2712
     3.2796   3.2797   3.3525   3.3540   3.5354   3.5370   3.5404   3.5426
     3.7403   3.7405   4.3902   4.3916   4.4277   4.4289   4.9370   4.9383
     5.0218   5.0224   5.1422   5.1441   5.1797   5.1814   5.4230   5.4234
     5.4719   5.4720   5.7437   5.7459   5.7730   5.7746   6.4098   6.4224
     6.4270   6.4420   6.5202   6.5212   6.6469   6.6489   6.8658   6.8662
     6.8765   6.8779   7.0525   7.0527   7.2136   7.2138   7.4821   7.4826
     7.4892   7.4918   7.5007   7.5033   7.5390   7.5392   7.8626   7.8627
     9.8337   9.8338  11.2887  11.2902  11.3421  11.3448  11.3790  11.3823
    11.3834  11.3853  12.3327  12.3334  12.3531  12.3539  13.0989  13.0990
    13.3949  13.3972  13.4074  13.4109  13.4265  13.4281  13.5724  13.5726
    15.6092  15.6095  15.7738  15.7745  16.0028  16.0044  16.0121  16.0132
    16.6114  16.6115  17.9036  17.9147  17.9189

          k = 0.1667-0.4725 0.3333 ( 62252 PWs)   bands (ev):

   -66.1688 -66.1688 -66.1683 -66.1683 -66.1679 -66.1679 -66.1674 -66.1674
   -30.5306 -30.5306 -30.5281 -30.5281 -30.5164 -30.5164 -30.5138 -30.5137
   -30.5065 -30.5065 -30.5049 -30.5049 -30.5020 -30.5019 -30.5009 -30.5009
   -30.4596 -30.4595 -30.4555 -30.4555 -30.4396 -30.4396 -30.4373 -30.4373
   -20.3257 -20.3257 -20.3256 -20.3256 -20.3256 -20.3256 -20.3256 -20.3256
   -20.3033 -20.3033 -20.3031 -20.3031 -20.3030 -20.3030 -20.3028 -20.3028
   -20.3012 -20.3012 -20.3010 -20.3010 -20.3010 -20.3010 -20.3008 -20.3008
   -20.3002 -20.3002 -20.3001 -20.3001 -20.2999 -20.2999 -20.2998 -20.2998
   -20.2936 -20.2936 -20.2935 -20.2935 -20.2927 -20.2927 -20.2922 -20.2922
   -20.2913 -20.2913 -20.2911 -20.2911 -20.2902 -20.2902 -20.2900 -20.2899
   -20.2870 -20.2870 -20.2865 -20.2865 -20.2855 -20.2855 -20.2852 -20.2852
    -9.5982  -9.5982  -9.3821  -9.3820  -9.0856  -9.0853  -8.9223  -8.9223
    -8.5028  -8.5023  -8.4395  -8.4378  -8.3877  -8.3866  -8.3821  -8.3819
    -8.1964  -8.1957  -8.1126  -8.1119  -7.8722  -7.8718  -7.8095  -7.8092
     1.4501   1.4508   1.4547   1.4557   2.1491   2.1497   2.3226   2.3237
     2.7954   2.7979   3.2025   3.2072   3.2323   3.2411   3.2505   3.2642
     3.2749   3.2909   3.4189   3.4528   3.5078   3.5351   3.6600   3.6656
     3.7710   3.7815   3.8036   3.8577   4.4385   4.4806   4.5435   4.5522
     4.6353   4.6888   4.7582   4.7885   4.9689   4.9698   4.9858   5.0675
     5.1634   5.2140   5.3141   5.4055   5.7643   5.7821   6.1221   6.1292
     6.5673   6.5718   6.6830   6.7000   6.8247   6.8331   6.9817   7.0319
     7.0330   7.0594   7.1671   7.1853   7.2085   7.2163   7.4513   7.4546
     7.4736   7.4785   7.4984   7.5045   7.5214   7.5290   7.7888   7.7906
    10.4756  10.4781  11.3211  11.3349  11.3581  11.3672  11.7014  11.7138
    11.7289  11.7468  11.9125  11.9590  12.4928  12.5451  12.7971  12.8308
    12.9057  12.9361  13.1304  13.2288  13.4079  13.4345  13.4597  13.5245
    15.7465  15.7633  15.9524  15.9664  16.3409  16.3673  16.7326  16.7553
    16.8306  16.8355  17.3942  17.4254  17.8879

          k = 0.1667-0.4725-0.5000 ( 62232 PWs)   bands (ev):

   -66.1685 -66.1685 -66.1685 -66.1685 -66.1676 -66.1676 -66.1676 -66.1676
   -30.5293 -30.5293 -30.5293 -30.5293 -30.5085 -30.5085 -30.5085 -30.5085
   -30.5073 -30.5073 -30.5073 -30.5073 -30.4839 -30.4839 -30.4839 -30.4839
   -30.4801 -30.4801 -30.4801 -30.4801 -30.4384 -30.4384 -30.4384 -30.4384
   -20.3257 -20.3257 -20.3257 -20.3257 -20.3256 -20.3256 -20.3256 -20.3256
   -20.3032 -20.3032 -20.3032 -20.3032 -20.3029 -20.3029 -20.3029 -20.3029
   -20.3011 -20.3011 -20.3011 -20.3011 -20.3006 -20.3006 -20.3006 -20.3006
   -20.3005 -20.3004 -20.3004 -20.3004 -20.2998 -20.2998 -20.2998 -20.2998
   -20.2935 -20.2935 -20.2935 -20.2935 -20.2919 -20.2919 -20.2919 -20.2919
   -20.2916 -20.2916 -20.2916 -20.2916 -20.2887 -20.2887 -20.2887 -20.2887
   -20.2883 -20.2883 -20.2883 -20.2883 -20.2854 -20.2854 -20.2854 -20.2854
    -9.4660  -9.4660  -9.4659  -9.4659  -8.7416  -8.7416  -8.7393  -8.7393
    -8.6567  -8.6566  -8.6533  -8.6532  -8.3645  -8.3645  -8.3598  -8.3598
    -8.3287  -8.3287  -8.3245  -8.3245  -7.8408  -7.8408  -7.8404  -7.8404
     1.4641   1.4641   1.4652   1.4652   2.9744   2.9744   2.9797   2.9797
     3.0992   3.0992   3.1371   3.1371   3.2045   3.2045   3.2061   3.2061
     3.2873   3.2873   3.3604   3.3604   3.4238   3.4238   3.4626   3.4626
     3.6292   3.6292   3.6426   3.6426   4.2920   4.2920   4.3003   4.3003
     4.3925   4.3925   4.4001   4.4001   4.8319   4.8319   4.9748   4.9748
     5.1555   5.1555   5.2911   5.2911   5.8480   5.8480   5.8623   5.8623
     6.7199   6.7199   6.7515   6.7515   6.8223   6.8223   6.8541   6.8541
     7.2836   7.2836   7.3287   7.3287   7.3675   7.3676   7.3999   7.3999
     7.4502   7.4502   7.4819   7.4819   7.5877   7.5877   7.6175   7.6175
    11.1880  11.1880  11.2293  11.2293  11.3477  11.3477  11.4145  11.4145
    12.2547  12.2547  12.2805  12.2805  12.2831  12.2831  12.2934  12.2934
    12.8056  12.8056  12.8751  12.8751  13.4224  13.4224  13.4701  13.4701
    15.8646  15.8646  15.8821  15.8821  16.9235  16.9235  16.9342  16.9342
    17.4246  17.4248  17.4425  17.4429  17.5211

          k = 0.3333 0.0000 0.3333 ( 62316 PWs)   bands (ev):

   -66.1688 -66.1684 -66.1683 -66.1683 -66.1679 -66.1679 -66.1678 -66.1674
   -30.5398 -30.5373 -30.5372 -30.5344 -30.5141 -30.5134 -30.5125 -30.5101
   -30.5086 -30.5077 -30.5066 -30.5045 -30.4795 -30.4777 -30.4775 -30.4756
   -30.4605 -30.4581 -30.4576 -30.4569 -30.4563 -30.4557 -30.4550 -30.4537
   -20.3257 -20.3257 -20.3257 -20.3256 -20.3256 -20.3256 -20.3256 -20.3256
   -20.3059 -20.3058 -20.3058 -20.3056 -20.3014 -20.3013 -20.3012 -20.3011
   -20.3011 -20.3009 -20.3007 -20.3007 -20.3006 -20.3005 -20.3005 -20.3003
   -20.3003 -20.3003 -20.3000 -20.2999 -20.2997 -20.2996 -20.2995 -20.2995
   -20.2933 -20.2932 -20.2929 -20.2928 -20.2927 -20.2926 -20.2917 -20.2916
   -20.2914 -20.2912 -20.2904 -20.2903 -20.2902 -20.2902 -20.2896 -20.2894
   -20.2874 -20.2870 -20.2868 -20.2867 -20.2867 -20.2864 -20.2863 -20.2862
    -9.6211  -9.3712  -9.3704  -9.3146  -9.1081  -9.0476  -9.0454  -8.8346
    -8.8188  -8.7768  -8.7602  -8.7591  -8.2752  -8.2171  -8.2097  -8.2092
    -8.1992  -8.1991  -8.0992  -8.0795  -7.7612  -7.7351  -7.7349  -7.7093
     1.5260   1.5642   1.5643   1.6074   2.0435   2.0471   2.1761   2.1784
     2.2204   2.2225   2.4361   2.5399   2.9195   2.9200   2.9555   2.9872
     3.1303   3.1570   3.7982   3.8093   3.8373   3.8506   4.0374   4.0377
     4.1359   4.1362   4.1847   4.2873   4.3610   4.3619   4.4490   4.4758
     4.8080   4.8224   4.8501   4.9167   4.9901   4.9914   5.1057   5.4021
     5.4050   5.4217   5.4290   5.6692   5.9507   5.9509   5.9663   6.0809
     6.4949   6.5028   6.5272   6.5439   6.5442   6.5552   6.5556   6.6419
     6.9852   7.1629   7.1641   7.1770   7.1778   7.2537   7.3171   7.3193
     7.3422   7.4824   7.7251   7.7282   7.9150   7.9892   7.9907   8.0318
    10.7105  10.7833  10.8192  10.8251  10.9323  11.1215  12.0752  12.0770
    12.1278  12.1292  12.2247  12.2841  12.5114  12.5143  12.7793  12.7812
    12.8071  12.8195  12.9204  13.0365  13.5581  13.6276  13.6294  13.7278
    14.4616  14.7311  14.7314  15.1831  15.8471  16.4757  16.5223  16.8269
    16.8273  17.3303  17.3312  17.8276  17.8353

          k = 0.3333 0.0000-0.5000 ( 62288 PWs)   bands (ev):

   -66.1685 -66.1685 -66.1681 -66.1681 -66.1680 -66.1680 -66.1676 -66.1676
   -30.5386 -30.5386 -30.5359 -30.5359 -30.5122 -30.5122 -30.5069 -30.5069
   -30.4909 -30.4909 -30.4885 -30.4885 -30.4830 -30.4830 -30.4806 -30.4806
   -30.4744 -30.4744 -30.4720 -30.4720 -30.4574 -30.4574 -30.4552 -30.4552
   -20.3257 -20.3257 -20.3256 -20.3256 -20.3256 -20.3256 -20.3256 -20.3256
   -20.3059 -20.3059 -20.3057 -20.3057 -20.3012 -20.3012 -20.3011 -20.3011
   -20.3009 -20.3009 -20.3008 -20.3008 -20.3006 -20.3006 -20.3005 -20.3005
   -20.3003 -20.3003 -20.2998 -20.2998 -20.2997 -20.2997 -20.2996 -20.2996
   -20.2931 -20.2931 -20.2929 -20.2929 -20.2922 -20.2922 -20.2921 -20.2921
   -20.2907 -20.2907 -20.2905 -20.2905 -20.2889 -20.2889 -20.2886 -20.2886
   -20.2884 -20.2884 -20.2881 -20.2881 -20.2868 -20.2868 -20.2865 -20.2865
    -9.4695  -9.4695  -9.1985  -9.1985  -9.1366  -9.1366  -8.7781  -8.7781
    -8.6722  -8.6722  -8.5986  -8.5986  -8.5471  -8.5471  -8.5137  -8.5137
    -8.1708  -8.1708  -8.1661  -8.1661  -7.7484  -7.7484  -7.7222  -7.7222
     1.5456   1.5457   1.5891   1.5891   2.1884   2.1884   2.2217   2.2217
     2.9089   2.9089   2.9877   2.9877   3.0208   3.0209   3.1648   3.1648
     3.2489   3.2489   3.5410   3.5410   3.6401   3.6401   3.7912   3.7912
     3.8331   3.8331   4.0258   4.0258   4.1542   4.1542   4.2989   4.2989
     4.6296   4.6296   4.8582   4.8582   4.9749   4.9749   5.0434   5.0434
[...]
   -20.4377 -20.4377 -20.4376 -20.4376 -20.4374 -20.4374 -20.4371 -20.4371
   -20.4304 -20.4304 -20.4303 -20.4303 -20.4292 -20.4292 -20.4291 -20.4291
   -20.4287 -20.4287 -20.4286 -20.4286 -20.4259 -20.4259 -20.4257 -20.4257
   -20.4255 -20.4255 -20.4253 -20.4253 -20.4227 -20.4227 -20.4224 -20.4224
    -9.5884  -9.5883  -9.4390  -9.4390  -9.0620  -9.0620  -8.8460  -8.8460
    -8.7013  -8.7013  -8.6716  -8.6716  -8.6039  -8.6039  -8.5391  -8.5391
    -8.2529  -8.2529  -8.2235  -8.2235  -7.9211  -7.9211  -7.9083  -7.9083
     1.4391   1.4391   1.4498   1.4498   2.2429   2.2429   2.3510   2.3510
     2.8799   2.8799   2.9691   2.9692   2.9939   2.9939   3.1554   3.1554
     3.1898   3.1898   3.3290   3.3290   3.3488   3.3488   3.5864   3.5864
     3.9298   3.9298   3.9660   3.9660   4.0194   4.0194   4.2561   4.2561
     4.6089   4.6089   4.6880   4.6880   4.8660   4.8660   4.8836   4.8836
     4.9922   4.9922   5.3980   5.3980   5.7588   5.7588   5.7836   5.7836
     6.5649   6.5649   6.6795   6.6795   6.7229   6.7229   6.7526   6.7526
     6.9227   6.9227   6.9705   6.9705   7.0775   7.0775   7.4201   7.4201
     7.4489   7.4489   7.4812   7.4812   7.5135   7.5135   7.7413   7.7413
    10.6460  10.6460  11.0800  11.0801  11.1200  11.1200  11.6170  11.6170
    11.8340  11.8340  12.0175  12.0175  12.4299  12.4299  12.4755  12.4755
    12.6534  12.6534  12.7704  12.7704  13.1049  13.1049  13.5372  13.5372
    15.2380  15.2380  15.8243  15.8243  16.2687  16.2687  16.3673  16.3673
    16.8069  16.8069  17.2013  17.2013  17.7837

          k = 0.3316 0.4744 0.1658 ( 62660 PWs)   bands (ev):

   -66.2996 -66.2996 -66.2991 -66.2991 -66.2988 -66.2987 -66.2983 -66.2983
   -30.6547 -30.6547 -30.6527 -30.6527 -30.6516 -30.6516 -30.6494 -30.6494
   -30.6323 -30.6323 -30.6299 -30.6299 -30.6150 -30.6150 -30.6110 -30.6110
   -30.5673 -30.5673 -30.5635 -30.5635 -30.5491 -30.5491 -30.5470 -30.5470
   -20.4630 -20.4630 -20.4630 -20.4630 -20.4629 -20.4629 -20.4629 -20.4629
   -20.4405 -20.4405 -20.4403 -20.4403 -20.4402 -20.4402 -20.4400 -20.4400
   -20.4387 -20.4387 -20.4385 -20.4385 -20.4383 -20.4383 -20.4380 -20.4380
   -20.4376 -20.4376 -20.4374 -20.4374 -20.4374 -20.4374 -20.4372 -20.4372
   -20.4305 -20.4305 -20.4302 -20.4302 -20.4296 -20.4296 -20.4290 -20.4290
   -20.4287 -20.4287 -20.4284 -20.4284 -20.4274 -20.4274 -20.4271 -20.4271
   -20.4242 -20.4241 -20.4237 -20.4237 -20.4227 -20.4227 -20.4225 -20.4225
    -9.6281  -9.6281  -9.4142  -9.4140  -9.1312  -9.1309  -8.9448  -8.9447
    -8.6660  -8.6653  -8.5869  -8.5857  -8.5477  -8.5469  -8.5386  -8.5385
    -8.2648  -8.2643  -8.1852  -8.1847  -7.9454  -7.9451  -7.8849  -7.8846
     1.4321   1.4327   1.4422   1.4430   2.1133   2.1139   2.2750   2.2764
     2.8046   2.8072   3.0953   3.0954   3.1258   3.1259   3.1430   3.1437
     3.1803   3.2014   3.3246   3.3617   3.3707   3.4020   3.5469   3.5578
     3.6358   3.6490   3.7799   3.8403   4.3184   4.3563   4.4682   4.4877
     4.5233   4.5963   4.6577   4.6782   4.8372   4.8755   4.8845   4.9189
     5.0082   5.0624   5.2257   5.2965   5.6659   5.6827   6.0533   6.0584
     6.5161   6.5200   6.5907   6.6054   6.7433   6.7486   6.9145   6.9589
     6.9801   6.9866   7.0633   7.0867   7.1190   7.1231   7.3427   7.3515
     7.3634   7.3821   7.3947   7.4004   7.4192   7.4294   7.7127   7.7141
    10.3449  10.3479  11.2166  11.2313  11.2487  11.2601  11.5900  11.6022
    11.6110  11.6303  11.7507  11.8014  12.3168  12.3686  12.6331  12.6650
    12.7537  12.7821  12.9582  13.0538  13.2383  13.2666  13.2865  13.3485
    15.5053  15.5201  15.7316  15.7464  16.1528  16.1746  16.5443  16.5692
    16.7663  16.7690  17.2928  17.3341  17.8254

          k =-0.4973 0.4744 0.1658 ( 62672 PWs)   bands (ev):

   -66.2993 -66.2993 -66.2993 -66.2993 -66.2985 -66.2985 -66.2985 -66.2985
   -30.6539 -30.6539 -30.6537 -30.6537 -30.6507 -30.6507 -30.6505 -30.6505
   -30.6311 -30.6311 -30.6311 -30.6311 -30.5913 -30.5913 -30.5911 -30.5911
   -30.5873 -30.5873 -30.5871 -30.5871 -30.5480 -30.5480 -30.5480 -30.5480
   -20.4630 -20.4630 -20.4630 -20.4630 -20.4629 -20.4629 -20.4629 -20.4629
   -20.4405 -20.4405 -20.4404 -20.4404 -20.4401 -20.4401 -20.4401 -20.4401
   -20.4386 -20.4386 -20.4386 -20.4386 -20.4379 -20.4379 -20.4379 -20.4379
   -20.4377 -20.4377 -20.4377 -20.4377 -20.4373 -20.4373 -20.4373 -20.4373
   -20.4303 -20.4303 -20.4303 -20.4303 -20.4291 -20.4291 -20.4291 -20.4291
   -20.4287 -20.4287 -20.4287 -20.4287 -20.4258 -20.4258 -20.4258 -20.4258
   -20.4255 -20.4255 -20.4254 -20.4254 -20.4226 -20.4226 -20.4226 -20.4226
    -9.4988  -9.4988  -9.4977  -9.4977  -8.8324  -8.8324  -8.8271  -8.8271
    -8.7150  -8.7150  -8.7095  -8.7095  -8.5087  -8.5087  -8.4995  -8.4995
    -8.4561  -8.4561  -8.4479  -8.4479  -7.9151  -7.9151  -7.9148  -7.9148
     1.4468   1.4468   1.4484   1.4484   2.8978   2.8978   2.9251   2.9251
     3.0274   3.0274   3.0430   3.0430   3.1154   3.1154   3.1666   3.1666
     3.1837   3.1837   3.2812   3.2812   3.3664   3.3664   3.3982   3.3982
     3.4847   3.4847   3.5577   3.5577   4.1722   4.1722   4.1895   4.1895
     4.2606   4.2606   4.2874   4.2874   4.7430   4.7430   4.8901   4.8901
     5.0299   5.0299   5.1668   5.1668   5.7606   5.7606   5.7734   5.7734
     6.6449   6.6449   6.6824   6.6824   6.7463   6.7463   6.7835   6.7835
     7.1876   7.1876   7.2193   7.2193   7.2595   7.2595   7.3031   7.3031
     7.3488   7.3488   7.3918   7.3918   7.5050   7.5050   7.5332   7.5332
    11.0555  11.0555  11.0867  11.0867  11.2386  11.2386  11.2943  11.2943
    12.1136  12.1136  12.1372  12.1372  12.1557  12.1557  12.1692  12.1692
    12.6279  12.6279  12.6963  12.6963  13.2537  13.2537  13.3005  13.3005
    15.6347  15.6347  15.6517  15.6517  16.8008  16.8008  16.8206  16.8206
    17.2807  17.2808  17.3068  17.3068  17.3915

          k =-0.4973 0.0000 0.3315 ( 62740 PWs)   bands (ev):

   -66.2994 -66.2994 -66.2989 -66.2989 -66.2989 -66.2989 -66.2985 -66.2985
   -30.6835 -30.6835 -30.6816 -30.6816 -30.6257 -30.6257 -30.6216 -30.6216
   -30.6126 -30.6126 -30.6121 -30.6121 -30.5914 -30.5914 -30.5894 -30.5894
   -30.5885 -30.5885 -30.5866 -30.5866 -30.5668 -30.5668 -30.5642 -30.5642
   -20.4630 -20.4630 -20.4630 -20.4630 -20.4629 -20.4629 -20.4629 -20.4629
   -20.4432 -20.4432 -20.4430 -20.4430 -20.4387 -20.4387 -20.4384 -20.4384
   -20.4382 -20.4382 -20.4381 -20.4381 -20.4380 -20.4380 -20.4378 -20.4378
   -20.4374 -20.4374 -20.4374 -20.4374 -20.4371 -20.4371 -20.4368 -20.4368
   -20.4301 -20.4301 -20.4300 -20.4300 -20.4294 -20.4294 -20.4294 -20.4294
   -20.4278 -20.4278 -20.4273 -20.4273 -20.4260 -20.4260 -20.4257 -20.4257
   -20.4256 -20.4256 -20.4252 -20.4252 -20.4241 -20.4241 -20.4235 -20.4235
    -9.5791  -9.5791  -9.3637  -9.3637  -9.1639  -9.1639  -8.8763  -8.8763
    -8.7145  -8.7145  -8.6454  -8.6454  -8.5954  -8.5954  -8.5704  -8.5704
    -8.2310  -8.2310  -8.2228  -8.2228  -7.8983  -7.8983  -7.8742  -7.8742
     1.3591   1.3591   1.3966   1.3966   2.1546   2.1546   2.1857   2.1857
     2.8209   2.8209   2.9164   2.9164   2.9555   2.9556   3.1013   3.1013
     3.1996   3.1996   3.5011   3.5011   3.6065   3.6065   3.7291   3.7291
     3.7406   3.7406   3.9175   3.9175   4.0567   4.0567   4.2550   4.2550
     4.5946   4.5946   4.8120   4.8120   4.9135   4.9135   4.9796   4.9796
     5.1477   5.1477   5.4263   5.4263   5.8320   5.8320   5.9156   5.9156
     6.3025   6.3025   6.3197   6.3197   6.3858   6.3858   6.4815   6.4815
     7.0512   7.0512   7.1890   7.1890   7.2688   7.2688   7.4608   7.4608
     7.4811   7.4811   7.5866   7.5866   7.6394   7.6394   7.8910   7.8910
    10.6756  10.6756  11.2809  11.2809  11.3576  11.3576  11.4636  11.4636
    11.6434  11.6434  12.1159  12.1159  12.2833  12.2833  12.4714  12.4714
    12.7025  12.7025  13.0602  13.0602  13.0953  13.0953  13.5186  13.5186
    14.5607  14.5607  14.9437  14.9437  16.1708  16.1708  16.6518  16.6518
    16.9968  16.9968  17.3542  17.3542  17.8289

          k =-0.4973-0.1581 0.3315 ( 62722 PWs)   bands (ev):

   -66.2993 -66.2993 -66.2990 -66.2990 -66.2989 -66.2989 -66.2985 -66.2985
   -30.6795 -30.6795 -30.6776 -30.6776 -30.6288 -30.6288 -30.6255 -30.6255
   -30.6132 -30.6132 -30.6123 -30.6123 -30.5913 -30.5913 -30.5894 -30.5894
   -30.5886 -30.5886 -30.5868 -30.5868 -30.5666 -30.5666 -30.5644 -30.5644
   -20.4630 -20.4630 -20.4630 -20.4630 -20.4629 -20.4629 -20.4629 -20.4629
   -20.4428 -20.4428 -20.4427 -20.4427 -20.4387 -20.4387 -20.4385 -20.4385
   -20.4382 -20.4382 -20.4381 -20.4381 -20.4380 -20.4380 -20.4379 -20.4379
   -20.4376 -20.4376 -20.4375 -20.4375 -20.4373 -20.4373 -20.4370 -20.4370
   -20.4301 -20.4301 -20.4300 -20.4300 -20.4294 -20.4294 -20.4294 -20.4294
   -20.4277 -20.4277 -20.4274 -20.4274 -20.4260 -20.4260 -20.4257 -20.4257
   -20.4256 -20.4256 -20.4253 -20.4253 -20.4241 -20.4241 -20.4236 -20.4236
    -9.5288  -9.5288  -9.2950  -9.2950  -9.1744  -9.1744  -8.8520  -8.8520
    -8.7232  -8.7231  -8.6430  -8.6429  -8.5935  -8.5935  -8.5670  -8.5670
    -8.2293  -8.2293  -8.2280  -8.2280  -7.9970  -7.9970  -7.9728  -7.9728
     1.5927   1.5927   1.6311   1.6311   2.1539   2.1539   2.1950   2.1950
     2.8749   2.8749   2.9457   2.9457   2.9759   2.9759   3.1097   3.1098
     3.2003   3.2003   3.5189   3.5189   3.6052   3.6052   3.7354   3.7354
     3.7759   3.7759   3.9488   3.9488   4.0552   4.0552   4.2630   4.2630
     4.4654   4.4654   4.5869   4.5869   4.8625   4.8625   4.9096   4.9096
     4.9532   4.9532   5.2038   5.2038   5.5998   5.5998   5.6923   5.6923
     6.4417   6.4417   6.4753   6.4753   6.5346   6.5346   6.6590   6.6590
     7.0554   7.0554   7.1808   7.1808   7.2699   7.2699   7.4550   7.4550
     7.4755   7.4755   7.5616   7.5616   7.6111   7.6111   7.8368   7.8368
    10.7851  10.7851  11.2988  11.2988  11.3731  11.3731  11.5238  11.5238
    11.6954  11.6954  12.1386  12.1386  12.2802  12.2802  12.4890  12.4890
    12.5657  12.5657  12.9358  12.9358  12.9709  12.9709  13.4080  13.4080
    14.9360  14.9360  15.3356  15.3356  16.2559  16.2559  16.6514  16.6514
    17.0020  17.0020  17.3717  17.3717  17.6775

          k =-0.4973-0.3163 0.3315 ( 62700 PWs)   bands (ev):

   -66.2993 -66.2993 -66.2990 -66.2990 -66.2988 -66.2988 -66.2986 -66.2986
   -30.6684 -30.6684 -30.6665 -30.6665 -30.6388 -30.6388 -30.6364 -30.6364
   -30.6137 -30.6137 -30.6128 -30.6128 -30.5910 -30.5910 -30.5897 -30.5897
   -30.5886 -30.5886 -30.5874 -30.5874 -30.5662 -30.5662 -30.5649 -30.5649
   -20.4630 -20.4630 -20.4630 -20.4629 -20.4629 -20.4629 -20.4629 -20.4629
   -20.4418 -20.4418 -20.4416 -20.4416 -20.4391 -20.4391 -20.4389 -20.4389
   -20.4385 -20.4385 -20.4381 -20.4381 -20.4380 -20.4380 -20.4379 -20.4379
   -20.4378 -20.4378 -20.4377 -20.4377 -20.4375 -20.4375 -20.4374 -20.4374
   -20.4301 -20.4301 -20.4300 -20.4300 -20.4294 -20.4294 -20.4294 -20.4294
   -20.4277 -20.4277 -20.4275 -20.4275 -20.4260 -20.4259 -20.4257 -20.4257
   -20.4256 -20.4256 -20.4254 -20.4254 -20.4240 -20.4240 -20.4237 -20.4237
    -9.4069  -9.4069  -9.2104  -9.2104  -9.1094  -9.1094  -8.7812  -8.7812
    -8.7486  -8.7486  -8.6389  -8.6389  -8.5824  -8.5824  -8.5478  -8.5477
    -8.2805  -8.2805  -8.2406  -8.2406  -8.2216  -8.2216  -8.1696  -8.1696
     2.0739   2.0739   2.1508   2.1508   2.2496   2.2496   2.3740   2.3740
     2.9525   2.9525   2.9974   2.9974   3.0754   3.0754   3.1469   3.1469
     3.2301   3.2301   3.5146   3.5146   3.5958   3.5958   3.6834   3.6834
     3.9239   3.9239   3.9657   3.9657   4.0188   4.0188   4.1168   4.1169
     4.2072   4.2072   4.3449   4.3449   4.4794   4.4794   4.7206   4.7206
     4.8316   4.8316   4.8820   4.8820   4.9264   4.9264   5.1862   5.1862
     6.7656   6.7656   6.8218   6.8218   6.8795   6.8795   6.9370   6.9370
     7.0651   7.0651   7.1623   7.1623   7.2839   7.2839   7.4057   7.4057
     7.4430   7.4430   7.5090   7.5090   7.5368   7.5368   7.6798   7.6798
    11.0821  11.0821  11.3273  11.3273  11.4039  11.4039  11.7059  11.7059
    11.8727  11.8727  12.1606  12.1606  12.2165  12.2165  12.2617  12.2617
    12.5430  12.5430  12.6396  12.6396  12.7056  12.7056  13.1389  13.1389
    15.7915  15.7915  16.2932  16.2932  16.5187  16.5187  16.6244  16.6244
    17.0371  17.0371  17.2764  17.2764  17.5231

          k =-0.4973 0.4744 0.3315 ( 62652 PWs)   bands (ev):

   -66.2992 -66.2992 -66.2991 -66.2991 -66.2987 -66.2987 -66.2987 -66.2987
   -30.6535 -30.6535 -30.6534 -30.6534 -30.6515 -30.6515 -30.6513 -30.6513
   -30.6134 -30.6134 -30.6134 -30.6134 -30.5905 -30.5905 -30.5903 -30.5903
   -30.5882 -30.5882 -30.5880 -30.5880 -30.5656 -30.5656 -30.5655 -30.5655
   -20.4630 -20.4630 -20.4630 -20.4630 -20.4629 -20.4629 -20.4629 -20.4629
   -20.4404 -20.4404 -20.4404 -20.4404 -20.4402 -20.4402 -20.4402 -20.4402
   -20.4383 -20.4383 -20.4383 -20.4383 -20.4379 -20.4379 -20.4379 -20.4379
   -20.4377 -20.4377 -20.4377 -20.4377 -20.4375 -20.4375 -20.4375 -20.4375
   -20.4300 -20.4300 -20.4300 -20.4300 -20.4294 -20.4294 -20.4294 -20.4294
   -20.4276 -20.4276 -20.4276 -20.4276 -20.4259 -20.4259 -20.4258 -20.4258
   -20.4255 -20.4255 -20.4255 -20.4255 -20.4238 -20.4238 -20.4238 -20.4238
    -9.2863  -9.2863  -9.2845  -9.2845  -8.8919  -8.8919  -8.8870  -8.8870
    -8.6594  -8.6594  -8.6542  -8.6542  -8.5024  -8.5024  -8.4943  -8.4943
    -8.4612  -8.4612  -8.4544  -8.4544  -8.2142  -8.2142  -8.2133  -8.2133
     2.1406   2.1406   2.1439   2.1440   2.9030   2.9030   2.9199   2.9199
     3.0161   3.0161   3.0236   3.0236   3.1659   3.1659   3.1875   3.1875
     3.2635   3.2635   3.2891   3.2891   3.5336   3.5336   3.5525   3.5525
     3.6578   3.6578   3.7049   3.7049   4.1370   4.1370   4.1598   4.1598
     4.2029   4.2029   4.2612   4.2612   4.3298   4.3298   4.4221   4.4221
     4.5400   4.5401   4.6774   4.6774   4.9416   4.9416   4.9567   4.9567
     6.9329   6.9329   6.9653   6.9653   7.0780   7.0780   7.0800   7.0800
     7.1847   7.1847   7.2209   7.2209   7.2406   7.2406   7.3073   7.3073
     7.3805   7.3805   7.4401   7.4401   7.5180   7.5180   7.5417   7.5417
    11.2950  11.2950  11.3307  11.3307  11.5880  11.5880  11.6587  11.6587
    12.0570  12.0570  12.1126  12.1126  12.1596  12.1596  12.1756  12.1756
    12.3408  12.3408  12.4534  12.4534  12.8033  12.8033  12.8815  12.8815
    16.4046  16.4046  16.4477  16.4477  16.9717  16.9717  16.9832  16.9832
    17.2685  17.2685  17.3314  17.3319  17.3626

     the Fermi energy is     8.8622 ev

!    total energy              =   -6261.10832518 Ry
     Harris-Foulkes estimate   =   -6261.10832518 Ry
     estimated scf accuracy    <          1.4E-11 Ry

     The total energy is the sum of the following terms:

     one-electron contribution =   -4750.29190013 Ry
     hartree contribution      =    2610.26864258 Ry
     xc contribution           =    -965.66909161 Ry
     ewald contribution        =   -3155.41597602 Ry
     smearing contrib. (-TS)   =      -0.00000000 Ry

     convergence has been achieved in  15 iterations

     Forces acting on atoms (cartesian axes, Ry/au):

     atom    1 type  1   force =    -0.00129627    0.00576242    0.00098589
     atom    2 type  1   force =     0.00129627   -0.00576242   -0.00098589
     atom    3 type  1   force =     0.00129627   -0.00576242    0.00098589
     atom    4 type  1   force =    -0.00129627    0.00576242   -0.00098589
     atom    5 type  1   force =     0.00129627    0.00576242   -0.00098589
     atom    6 type  1   force =    -0.00129627   -0.00576242    0.00098589
     atom    7 type  1   force =    -0.00129627   -0.00576242   -0.00098589
     atom    8 type  1   force =     0.00129627    0.00576242    0.00098589
     atom    9 type  2   force =    -0.00011358   -0.00289855    0.00002203
     atom   10 type  2   force =     0.00011358    0.00289855   -0.00002203
     atom   11 type  2   force =     0.00011358    0.00289855    0.00002203
     atom   12 type  2   force =    -0.00011358   -0.00289855   -0.00002203
     atom   13 type  2   force =     0.00011358   -0.00289855   -0.00002203
     atom   14 type  2   force =    -0.00011358    0.00289855    0.00002203
     atom   15 type  2   force =    -0.00011358    0.00289855   -0.00002203
     atom   16 type  2   force =     0.00011358   -0.00289855    0.00002203
     atom   17 type  2   force =    -0.00066123   -0.00005376   -0.00089776
     atom   18 type  2   force =     0.00066123    0.00005376    0.00089776
     atom   19 type  2   force =     0.00066123    0.00005376   -0.00089776
     atom   20 type  2   force =    -0.00066123   -0.00005376    0.00089776
     atom   21 type  2   force =     0.00066123   -0.00005376    0.00089776
     atom   22 type  2   force =    -0.00066123    0.00005376   -0.00089776
     atom   23 type  2   force =    -0.00066123    0.00005376    0.00089776
     atom   24 type  2   force =     0.00066123   -0.00005376   -0.00089776
     atom   25 type  2   force =    -0.00096239   -0.00022194    0.00066840
     atom   26 type  2   force =     0.00096239    0.00022194   -0.00066840
     atom   27 type  2   force =     0.00096239    0.00022194    0.00066840
     atom   28 type  2   force =    -0.00096239   -0.00022194   -0.00066840
     atom   29 type  2   force =     0.00096239   -0.00022194   -0.00066840
     atom   30 type  2   force =    -0.00096239    0.00022194    0.00066840
     atom   31 type  2   force =    -0.00096239    0.00022194   -0.00066840
     atom   32 type  2   force =     0.00096239   -0.00022194    0.00066840

     Total force =     0.000000     Total SCF correction =     0.000000


     Computing stress (Cartesian axis) and pressure

          total   stress  (Ry/bohr**3)                   (kbar)     P=    0.19
   0.00000191   0.00000000   0.00000000          0.28      0.00      0.00
   0.00000000  -0.00000001   0.00000000          0.00     -0.00      0.00
   0.00000000   0.00000000   0.00000194          0.00      0.00      0.29


     Writing output data file Landau_6.save
 
     init_run     :     96.93s CPU     99.61s WALL (       2 calls)
     electrons    :  12739.12s CPU  14847.07s WALL (       6 calls)
     update_pot   :    116.60s CPU    125.00s WALL (       4 calls)
     forces       :    220.36s CPU    235.18s WALL (       6 calls)
     stress       :   1793.85s CPU   1808.51s WALL (       6 calls)

     Called by init_run:
     wfcinit      :     71.41s CPU     73.75s WALL (       2 calls)
     potinit      :     11.09s CPU     11.14s WALL (       2 calls)

     Called by electrons:
     c_bands      :  11158.96s CPU  13118.06s WALL (      81 calls)
     sum_band     :   1457.21s CPU   1497.14s WALL (      81 calls)
     v_of_rho     :     11.54s CPU     14.17s WALL (      86 calls)
     mix_rho      :     18.98s CPU    106.26s WALL (      81 calls)

     Called by c_bands:
     init_us_2    :     78.27s CPU     91.86s WALL (     352 calls)
     cegterg      :   7670.00s CPU   9443.53s WALL (     162 calls)

     Called by sum_band:

     Called by *egterg:
     h_psi        :   5784.90s CPU   6979.98s WALL (     648 calls)
     g_psi        :     26.00s CPU     50.25s WALL (     482 calls)
     cdiaghg      :     86.29s CPU    109.98s WALL (     634 calls)

     Called by h_psi:
     h_psi:pot    :   5744.11s CPU   6734.09s WALL (     648 calls)
     h_psi:calbec :    724.09s CPU   1569.64s WALL (     648 calls)
     vloc_psi     :   4268.94s CPU   4387.63s WALL (     648 calls)
     add_vuspsi   :    751.06s CPU    775.44s WALL (     648 calls)

     General routines
     calbec       :    829.00s CPU   1674.06s WALL (     708 calls)
     fft          :      8.20s CPU      8.21s WALL (     392 calls)
     fftw         :   4369.47s CPU   4462.72s WALL (  212048 calls)
 
     Parallel routines
 
     PWSCF        :     4h10m CPU        4h46m WALL

 
   This run was terminated on:   7:46:24  20Mar2020            

=------------------------------------------------------------------------------=
   JOB DONE.
=------------------------------------------------------------------------------=
