
     Program PWSCF v.6.2 (svn rev. 14038) starts on 24Mar2020 at 15:48:16 

     This program is part of the open-source Quantum ESPRESSO suite
     for quantum simulation of materials; please cite
         "P. Giannozzi et al., J. Phys.:Condens. Matter 21 395502 (2009);
         "P. Giannozzi et al., J. Phys.:Condens. Matter 29 465901 (2017);
          URL http://www.quantum-espresso.org", 
     in publications or presentations arising from this work. More details at
     http://www.quantum-espresso.org/quote

     Parallel version (MPI), running on    40 processors

     MPI processes distributed on    10 nodes
     K-points division:     npool     =      40
     Reading input from rscf.in

     Current dimensions of program PWSCF are:
     Max number of different atomic species (ntypx) = 10
     Max number of k-points (npk) =  40000
     Max angular momentum in pseudopotentials (lmaxx) =  3

     Subspace diagonalization in iterative solution of the eigenvalue problem:
     a serial algorithm will be used

 
     G-vector sticks info
     --------------------
     sticks:   dense  smooth     PW     G-vecs:    dense   smooth      PW
     Sum        7747    7747   2077               498127   498127   69057
 


     bravais-lattice index     =            0
     lattice parameter (alat)  =      13.8397  a.u.
     unit-cell volume          =    2804.9816 (a.u.)^3
     number of atoms/cell      =           32
     number of atomic types    =            2
     number of electrons       =       368.00
     number of Kohn-Sham states=          221
     kinetic-energy cutoff     =     120.0000  Ry
     charge density cutoff     =     480.0000  Ry
     convergence threshold     =      1.0E-08
     mixing beta               =       0.7000
     number of iterations used =            8  plain     mixing
     Exchange-correlation      = SLA PW NOGX NOGC ( 1  4  0  0 0 0)
     nstep                     =           50


     celldm(1)=  13.839685  celldm(2)=   0.000000  celldm(3)=   0.000000
     celldm(4)=   0.000000  celldm(5)=   0.000000  celldm(6)=   0.000000

     crystal axes: (cart. coord. in units of alat)
               a(1) = (   1.000000   0.000000   0.000000 )  
               a(2) = (   0.000000   1.058160   0.000000 )  
               a(3) = (   0.000000   0.000000   1.000000 )  

     reciprocal axes: (cart. coord. in units 2 pi/alat)
               b(1) = (  1.000000  0.000000  0.000000 )  
               b(2) = (  0.000000  0.945037  0.000000 )  
               b(3) = (  0.000000  0.000000  1.000000 )  


     PseudoPot. # 1 for W  read from file:
     /cluster/scratch/mnoe/QE/pps/W_ONCV_LDA-4.0.upf
     MD5 check sum: ba0307d5d4cd419d6f1d13dc49d7c13a
     Pseudo is Norm-conserving + core correction, Zval = 28.0
     Generated using ONCVPSP code by D. R. Hamann
     Using radial grid of 1380 points,  8 beta functions with: 
                l(1) =   0
                l(2) =   0
                l(3) =   1
                l(4) =   1
                l(5) =   2
                l(6) =   2
                l(7) =   3
                l(8) =   3

     PseudoPot. # 2 for O  read from file:
     /cluster/scratch/mnoe/QE/pps/O_ONCV_LDA-3.0.upf
     MD5 check sum: a1bd6164e7280c17a38c229939bfbd54
     Pseudo is Norm-conserving + core correction, Zval =  6.0
     Generated using ONCVPSP code by D. R. Hamann
     Using radial grid of  926 points,  5 beta functions with: 
                l(1) =   0
                l(2) =   0
                l(3) =   1
                l(4) =   1
                l(5) =   2

     atomic species   valence    mass     pseudopotential
        W             28.00   183.84000     W ( 1.00)
        O              6.00    15.99940     O ( 1.00)

      4 Sym. Ops. (no inversion) found ( 3 have fractional translation)



   Cartesian axes

     site n.     atom                  positions (alat units)
         1           W   tau(   1) = (   0.2405771   0.2892322   0.0052930  )
         2           W   tau(   2) = (   0.7558235   0.7689279  -0.0091046  )
         3           W   tau(   3) = (   0.2594229   0.2398479   0.5052930  )
         4           W   tau(   4) = (   0.7441765   0.8183123   0.4908954  )
         5           W   tau(   5) = (   0.7594228   0.2892322   0.4947070  )
         6           W   tau(   6) = (   0.2441765   0.7689279   0.5091046  )
         7           W   tau(   7) = (   0.7405771   0.2398479  -0.0052930  )
         8           W   tau(   8) = (   0.2558235   0.8183123   0.0091046  )
         9           O   tau(   9) = (   0.2353768   0.0063463  -0.0012784  )
        10           O   tau(  10) = (   0.7635043  -0.0063464  -0.0057535  )
        11           O   tau(  11) = (   0.2646232   0.5227337   0.4987216  )
        12           O   tau(  12) = (   0.7364956   0.5354264   0.4942465  )
        13           O   tau(  13) = (   0.7646231   0.0063463   0.5012784  )
        14           O   tau(  14) = (   0.2364956  -0.0063464   0.5057534  )
        15           O   tau(  15) = (   0.7353768   0.5227337   0.0012784  )
        16           O   tau(  16) = (   0.2635044   0.5354264   0.0057535  )
        17           O   tau(  17) = (   0.5028752   0.2484418   0.4703854  )
        18           O   tau(  18) = (   0.4987051   0.8080527   0.5296147  )
        19           O   tau(  19) = (  -0.0028752   0.2806383   0.9703854  )
        20           O   tau(  20) = (   0.0012949   0.7791875   0.0296146  )
        21           O   tau(  21) = (   0.4971248   0.2484418   0.0296146  )
        22           O   tau(  22) = (   0.5012949   0.8080527   0.9703854  )
        23           O   tau(  23) = (   0.0028752   0.2806383   0.5296147  )
        24           O   tau(  24) = (  -0.0012949   0.7791875   0.4703854  )
        25           O   tau(  25) = (   0.7203854   0.2650251   0.7473607  )
        26           O   tau(  26) = (   0.2796146   0.8007677   0.2536818  )
        27           O   tau(  27) = (   0.7796147   0.2640549   0.2473608  )
        28           O   tau(  28) = (   0.2203854   0.7864725   0.7536818  )
        29           O   tau(  29) = (   0.2796146   0.2650251   0.7526392  )
        30           O   tau(  30) = (   0.7203854   0.8007677   0.2463182  )
        31           O   tau(  31) = (   0.2203854   0.2640549   0.2526393  )
        32           O   tau(  32) = (   0.7796147   0.7864725   0.7463182  )

     number of k points=    64  gaussian smearing, width (Ry)=  0.0007
                       cart. coord. in units 2pi/alat
        k(    1) = (   0.0000000   0.0000000   0.0000000), wk =   0.0092593
        k(    2) = (   0.0000000   0.0000000   0.1666667), wk =   0.0185185
        k(    3) = (   0.0000000   0.0000000   0.3333333), wk =   0.0185185
        k(    4) = (   0.0000000   0.0000000  -0.5000000), wk =   0.0092593
        k(    5) = (   0.0000000   0.1575061   0.0000000), wk =   0.0185185
        k(    6) = (   0.0000000   0.1575061   0.1666667), wk =   0.0370370
        k(    7) = (   0.0000000   0.1575061   0.3333333), wk =   0.0370370
        k(    8) = (   0.0000000   0.1575061  -0.5000000), wk =   0.0185185
        k(    9) = (   0.0000000   0.3150122   0.0000000), wk =   0.0185185
        k(   10) = (   0.0000000   0.3150122   0.1666667), wk =   0.0370370
        k(   11) = (   0.0000000   0.3150122   0.3333333), wk =   0.0370370
        k(   12) = (   0.0000000   0.3150122  -0.5000000), wk =   0.0185185
        k(   13) = (   0.0000000  -0.4725183   0.0000000), wk =   0.0092593
        k(   14) = (   0.0000000  -0.4725183   0.1666667), wk =   0.0185185
        k(   15) = (   0.0000000  -0.4725183   0.3333333), wk =   0.0185185
        k(   16) = (   0.0000000  -0.4725183  -0.5000000), wk =   0.0092593
        k(   17) = (   0.1666667   0.0000000   0.1666667), wk =   0.0370370
        k(   18) = (   0.1666667   0.0000000   0.3333333), wk =   0.0370370
        k(   19) = (   0.1666667   0.0000000  -0.5000000), wk =   0.0185185
        k(   20) = (   0.1666667   0.1575061   0.1666667), wk =   0.0740741
        k(   21) = (   0.1666667   0.1575061   0.3333333), wk =   0.0740741
        k(   22) = (   0.1666667   0.1575061  -0.5000000), wk =   0.0370370
        k(   23) = (   0.1666667   0.3150122   0.1666667), wk =   0.0740741
        k(   24) = (   0.1666667   0.3150122   0.3333333), wk =   0.0740741
        k(   25) = (   0.1666667   0.3150122  -0.5000000), wk =   0.0370370
        k(   26) = (   0.1666667  -0.4725183   0.1666667), wk =   0.0370370
        k(   27) = (   0.1666667  -0.4725183   0.3333333), wk =   0.0370370
        k(   28) = (   0.1666667  -0.4725183  -0.5000000), wk =   0.0185185
        k(   29) = (   0.3333333   0.0000000   0.3333333), wk =   0.0370370
        k(   30) = (   0.3333333   0.0000000  -0.5000000), wk =   0.0185185
        k(   31) = (   0.3333333   0.1575061   0.3333333), wk =   0.0740741
        k(   32) = (   0.3333333   0.1575061  -0.5000000), wk =   0.0370370
        k(   33) = (   0.3333333   0.3150122   0.3333333), wk =   0.0740741
        k(   34) = (   0.3333333   0.3150122  -0.5000000), wk =   0.0370370
        k(   35) = (   0.3333333  -0.4725183   0.3333333), wk =   0.0370370
        k(   36) = (   0.3333333  -0.4725183  -0.5000000), wk =   0.0185185
        k(   37) = (  -0.5000000   0.0000000  -0.5000000), wk =   0.0092593
        k(   38) = (  -0.5000000   0.1575061  -0.5000000), wk =   0.0185185
        k(   39) = (  -0.5000000   0.3150122  -0.5000000), wk =   0.0185185
        k(   40) = (  -0.5000000  -0.4725183  -0.5000000), wk =   0.0092593
        k(   41) = (   0.1666667   0.0000000   0.0000000), wk =   0.0185185
        k(   42) = (   0.3333333   0.0000000   0.0000000), wk =   0.0185185
        k(   43) = (  -0.5000000   0.0000000   0.0000000), wk =   0.0092593
        k(   44) = (   0.1666667  -0.1575061   0.0000000), wk =   0.0370370
        k(   45) = (   0.3333333  -0.1575061   0.0000000), wk =   0.0370370
        k(   46) = (  -0.5000000  -0.1575061   0.0000000), wk =   0.0185185
        k(   47) = (   0.1666667  -0.3150122   0.0000000), wk =   0.0370370
        k(   48) = (   0.3333333  -0.3150122   0.0000000), wk =   0.0370370
        k(   49) = (  -0.5000000  -0.3150122   0.0000000), wk =   0.0185185
        k(   50) = (   0.1666667   0.4725183   0.0000000), wk =   0.0185185
        k(   51) = (   0.3333333   0.4725183   0.0000000), wk =   0.0185185
        k(   52) = (  -0.5000000   0.4725183   0.0000000), wk =   0.0092593
        k(   53) = (   0.3333333   0.0000000   0.1666667), wk =   0.0370370
        k(   54) = (  -0.5000000   0.0000000   0.1666667), wk =   0.0185185
        k(   55) = (   0.3333333  -0.1575061   0.1666667), wk =   0.0740741
        k(   56) = (  -0.5000000  -0.1575061   0.1666667), wk =   0.0370370
        k(   57) = (   0.3333333  -0.3150122   0.1666667), wk =   0.0740741
        k(   58) = (  -0.5000000  -0.3150122   0.1666667), wk =   0.0370370
        k(   59) = (   0.3333333   0.4725183   0.1666667), wk =   0.0370370
        k(   60) = (  -0.5000000   0.4725183   0.1666667), wk =   0.0185185
        k(   61) = (  -0.5000000   0.0000000   0.3333333), wk =   0.0185185
        k(   62) = (  -0.5000000  -0.1575061   0.3333333), wk =   0.0370370
        k(   63) = (  -0.5000000  -0.3150122   0.3333333), wk =   0.0370370
        k(   64) = (  -0.5000000   0.4725183   0.3333333), wk =   0.0185185

     Dense  grid:   498127 G-vectors     FFT dimensions: ( 100, 108, 100)

     Estimated max dynamical RAM per process >       3.15 GB

     Estimated total dynamical RAM >     125.81 GB

     Initial potential from superposition of free atoms

     starting charge  367.99656, renormalised to  368.00000
     Starting wfc are  232 randomized atomic wfcs

     total cpu time spent up to now is       64.1 secs

     Self-consistent Calculation

     iteration #  1     ecut=   120.00 Ry     beta= 0.70
     Davidson diagonalization with overlap
     ethr =  1.00E-02,  avg # of iterations =  5.2

     total cpu time spent up to now is      233.8 secs

     total energy              =   -6254.04392633 Ry
     Harris-Foulkes estimate   =   -6264.55042726 Ry
     estimated scf accuracy    <      13.33255170 Ry

     iteration #  2     ecut=   120.00 Ry     beta= 0.70
     Davidson diagonalization with overlap
     ethr =  3.62E-03,  avg # of iterations =  3.6

     total cpu time spent up to now is      400.4 secs

     total energy              =   -6251.11325578 Ry
     Harris-Foulkes estimate   =   -6270.35955464 Ry
     estimated scf accuracy    <      51.24039149 Ry

     iteration #  3     ecut=   120.00 Ry     beta= 0.70
     Davidson diagonalization with overlap
     ethr =  3.62E-03,  avg # of iterations =  3.7

     total cpu time spent up to now is      551.5 secs

     total energy              =   -6260.99494256 Ry
     Harris-Foulkes estimate   =   -6261.38963899 Ry
     estimated scf accuracy    <       1.24292647 Ry

     iteration #  4     ecut=   120.00 Ry     beta= 0.70
     Davidson diagonalization with overlap
     ethr =  3.38E-04,  avg # of iterations =  3.4

     total cpu time spent up to now is      678.4 secs

     total energy              =   -6261.04118721 Ry
     Harris-Foulkes estimate   =   -6261.12978218 Ry
     estimated scf accuracy    <       0.30538089 Ry

     iteration #  5     ecut=   120.00 Ry     beta= 0.70
     Davidson diagonalization with overlap
     ethr =  8.30E-05,  avg # of iterations =  4.7

     total cpu time spent up to now is      807.8 secs

     total energy              =   -6261.02635811 Ry
     Harris-Foulkes estimate   =   -6261.06896586 Ry
     estimated scf accuracy    <       0.09188095 Ry

     iteration #  6     ecut=   120.00 Ry     beta= 0.70
     Davidson diagonalization with overlap
     ethr =  2.50E-05,  avg # of iterations =  5.9

     total cpu time spent up to now is      945.9 secs

     total energy              =   -6261.04736430 Ry
     Harris-Foulkes estimate   =   -6261.04903240 Ry
     estimated scf accuracy    <       0.00499966 Ry

     iteration #  7     ecut=   120.00 Ry     beta= 0.70
     Davidson diagonalization with overlap
     ethr =  1.36E-06,  avg # of iterations =  4.7

     total cpu time spent up to now is     1078.3 secs

     total energy              =   -6261.04783491 Ry
     Harris-Foulkes estimate   =   -6261.04796984 Ry
     estimated scf accuracy    <       0.00038950 Ry

     iteration #  8     ecut=   120.00 Ry     beta= 0.70
     Davidson diagonalization with overlap
     ethr =  1.06E-07,  avg # of iterations =  3.1

     total cpu time spent up to now is     1212.4 secs

     total energy              =   -6261.04787194 Ry
     Harris-Foulkes estimate   =   -6261.04791759 Ry
     estimated scf accuracy    <       0.00011695 Ry

     iteration #  9     ecut=   120.00 Ry     beta= 0.70
     Davidson diagonalization with overlap
     ethr =  3.18E-08,  avg # of iterations =  2.8

     total cpu time spent up to now is     1338.4 secs

     total energy              =   -6261.04789315 Ry
     Harris-Foulkes estimate   =   -6261.04790142 Ry
     estimated scf accuracy    <       0.00002491 Ry

     iteration # 10     ecut=   120.00 Ry     beta= 0.70
     Davidson diagonalization with overlap
     ethr =  6.77E-09,  avg # of iterations =  2.1

     total cpu time spent up to now is     1460.6 secs

     total energy              =   -6261.04789659 Ry
     Harris-Foulkes estimate   =   -6261.04789804 Ry
     estimated scf accuracy    <       0.00000395 Ry

     iteration # 11     ecut=   120.00 Ry     beta= 0.70
     Davidson diagonalization with overlap
     ethr =  1.07E-09,  avg # of iterations =  2.0

     total cpu time spent up to now is     1577.8 secs

     total energy              =   -6261.04789700 Ry
     Harris-Foulkes estimate   =   -6261.04789715 Ry
     estimated scf accuracy    <       0.00000029 Ry

     iteration # 12     ecut=   120.00 Ry     beta= 0.70
     Davidson diagonalization with overlap
     ethr =  7.76E-11,  avg # of iterations =  3.0

     total cpu time spent up to now is     1740.4 secs

     total energy              =   -6261.04789708 Ry
     Harris-Foulkes estimate   =   -6261.04789710 Ry
     estimated scf accuracy    <       0.00000004 Ry

     iteration # 13     ecut=   120.00 Ry     beta= 0.70
     Davidson diagonalization with overlap
     ethr =  1.08E-11,  avg # of iterations =  2.0

     total cpu time spent up to now is     1869.4 secs

     End of self-consistent calculation

          k = 0.0000 0.0000 0.0000 ( 62239 PWs)   bands (ev):

   -66.1535 -66.1530 -66.1525 -66.1525 -66.1520 -66.1520 -66.1515 -66.1510
   -30.5969 -30.5936 -30.5909 -30.5865 -30.5803 -30.5767 -30.5758 -30.5708
   -30.4865 -30.4822 -30.4815 -30.4780 -30.4719 -30.4672 -30.4661 -30.4617
   -30.4578 -30.4522 -30.4515 -30.4461 -30.3995 -30.3951 -30.3949 -30.3905
   -20.3011 -20.3009 -20.3009 -20.3008 -20.3008 -20.3006 -20.3006 -20.3005
   -20.2782 -20.2778 -20.2771 -20.2770 -20.2767 -20.2763 -20.2759 -20.2756
   -20.2751 -20.2750 -20.2750 -20.2748 -20.2748 -20.2744 -20.2744 -20.2740
   -20.2739 -20.2739 -20.2739 -20.2729 -20.2712 -20.2700 -20.2699 -20.2699
   -20.2696 -20.2694 -20.2688 -20.2687 -20.2684 -20.2679 -20.2677 -20.2665
   -20.2652 -20.2650 -20.2642 -20.2640 -20.2632 -20.2626 -20.2617 -20.2612
   -20.2601 -20.2590 -20.2588 -20.2587 -20.2577 -20.2576 -20.2573 -20.2561
   -10.1190  -9.9411  -9.7143  -9.6948  -9.5859  -9.5595  -9.3415  -9.3243
    -8.8387  -8.7641  -8.7640  -8.7572  -7.8319  -7.8198  -7.7836  -7.7767
    -7.7383  -7.7373  -7.7028  -7.6963  -7.6280  -7.5696  -7.5660  -7.5140
     0.7180   0.7238   0.8795   0.8991   0.9180   0.9374   1.1638   1.2274
     1.7547   1.7731   1.7818   1.8558   2.0996   2.1820   2.5486   2.5599
     2.6830   2.6859   4.0988   4.1423   4.1452   4.1967   4.3899   4.4037
     4.4320   4.4451   4.9048   5.0983   5.1117   5.1175   5.1589   5.4129
     5.4244   5.5289   5.5526   5.5643   5.5781   5.5835   5.5962   5.6713
     5.8810   5.8941   5.9680   5.9900   6.0479   6.0670   6.1096   6.1631
     6.1707   6.2789   6.3709   6.3760   6.3936   6.6688   6.8656   7.0259
     7.0346   7.0776   7.0790   7.0884   7.1133   7.1205   7.1267   7.1288
     7.1481   7.1502   8.0314   8.0392   8.1504   8.1921   8.1929   8.2345
     9.1639   9.1906   9.6155   9.6252   9.6594   9.6709  12.2689  12.3228
    12.3886  12.4231  12.6814  12.6822  12.7381  12.7473  13.0648  13.2192
    13.2768  13.3272  13.6532  13.8015  13.8327  13.9416  14.1677  14.1877
    14.3302  14.3704  14.5360  14.9033  15.3776  15.4629  15.4766  16.3889
    16.3984  17.1771  17.2848  17.3913  17.5242

          k = 0.0000 0.0000 0.1667 ( 62262 PWs)   bands (ev):

   -66.1534 -66.1530 -66.1526 -66.1524 -66.1521 -66.1520 -66.1516 -66.1511
   -30.5928 -30.5896 -30.5869 -30.5838 -30.5763 -30.5735 -30.5712 -30.5685
   -30.4940 -30.4889 -30.4818 -30.4802 -30.4789 -30.4722 -30.4669 -30.4622
   -30.4574 -30.4519 -30.4518 -30.4465 -30.3992 -30.3951 -30.3948 -30.3908
   -20.3011 -20.3009 -20.3009 -20.3008 -20.3008 -20.3006 -20.3006 -20.3005
   -20.2782 -20.2778 -20.2771 -20.2769 -20.2766 -20.2763 -20.2759 -20.2756
   -20.2752 -20.2751 -20.2750 -20.2750 -20.2745 -20.2745 -20.2743 -20.2742
   -20.2739 -20.2739 -20.2738 -20.2730 -20.2711 -20.2701 -20.2699 -20.2698
   -20.2696 -20.2695 -20.2689 -20.2685 -20.2682 -20.2674 -20.2671 -20.2661
   -20.2651 -20.2650 -20.2641 -20.2641 -20.2630 -20.2625 -20.2619 -20.2613
   -20.2606 -20.2593 -20.2593 -20.2589 -20.2582 -20.2576 -20.2574 -20.2562
   -10.0634  -9.8827  -9.7067  -9.6207  -9.5686  -9.4855  -9.2968  -9.2790
    -8.8496  -8.7702  -8.7548  -8.7516  -7.9727  -7.9412  -7.8935  -7.8678
    -7.8140  -7.7730  -7.7440  -7.7018  -7.6240  -7.5736  -7.5633  -7.5177
     0.8309   0.8435   0.9191   0.9391   1.1717   1.1937   1.3170   1.4159
     1.7498   1.7746   1.7866   1.8930   2.1898   2.2718   2.5629   2.6465
     2.6743   2.7747   4.0285   4.1084   4.1199   4.1394   4.1818   4.1944
     4.4767   4.5015   4.6970   4.7441   4.8894   5.1161   5.1537   5.2072
     5.2910   5.3832   5.4584   5.5177   5.5642   5.5975   5.6646   5.6916
     5.7480   5.9086   5.9220   6.0366   6.0560   6.0767   6.1511   6.1764
     6.2630   6.3641   6.3905   6.5017   6.6630   6.7475   6.8102   6.8611
     6.8849   6.8981   6.9310   6.9390   6.9966   7.0460   7.0593   7.0687
     7.1248   7.1466   7.9893   7.9909   8.1483   8.1711   8.1835   8.1991
     9.5288   9.5597   9.6180   9.6794   9.9441   9.9814  12.3080  12.3410
    12.4193  12.4630  12.5353  12.5832  12.7366  12.7918  13.0002  13.0811
    13.0915  13.2786  13.6549  13.7834  13.9163  13.9411  14.0320  14.0532
    14.3314  14.4891  14.5307  15.0335  15.3483  15.5661  15.6096  16.3743
    16.7760  17.0278  17.2703  17.4623  17.5758

          k = 0.0000 0.0000 0.3333 ( 62268 PWs)   bands (ev):

   -66.1533 -66.1528 -66.1528 -66.1523 -66.1522 -66.1518 -66.1517 -66.1513
   -30.5913 -30.5880 -30.5758 -30.5724 -30.5693 -30.5638 -30.5542 -30.5489
   -30.5144 -30.5092 -30.4998 -30.4952 -30.4808 -30.4776 -30.4659 -30.4632
   -30.4562 -30.4530 -30.4507 -30.4476 -30.3982 -30.3958 -30.3938 -30.3915
   -20.3010 -20.3009 -20.3009 -20.3008 -20.3007 -20.3006 -20.3006 -20.3005
   -20.2781 -20.2779 -20.2769 -20.2766 -20.2764 -20.2763 -20.2760 -20.2755
   -20.2754 -20.2752 -20.2751 -20.2750 -20.2746 -20.2745 -20.2743 -20.2742
   -20.2740 -20.2739 -20.2735 -20.2731 -20.2709 -20.2703 -20.2698 -20.2697
   -20.2695 -20.2695 -20.2691 -20.2688 -20.2670 -20.2663 -20.2657 -20.2653
   -20.2651 -20.2646 -20.2640 -20.2637 -20.2626 -20.2624 -20.2622 -20.2621
   -20.2618 -20.2607 -20.2606 -20.2597 -20.2586 -20.2577 -20.2573 -20.2565
    -9.9362  -9.7566  -9.7450  -9.5977  -9.3640  -9.1985  -9.1443  -9.1079
    -8.8954  -8.7950  -8.7301  -8.7175  -8.3389  -8.3113  -8.2846  -8.2483
    -7.8016  -7.7595  -7.7581  -7.7169  -7.6136  -7.5845  -7.5540  -7.5275
     0.9087   0.9217   0.9306   0.9431   1.6623   1.6757   1.7397   1.7596
     1.9859   2.0883   2.1440   2.2803   2.4533   2.5309   2.5890   2.6527
     2.9028   3.0128   3.4484   3.5269   3.9129   3.9580   4.1460   4.1599
     4.1642   4.3031   4.4450   4.6229   4.6752   4.7550   4.8092   4.8212
     4.9039   5.0923   5.1466   5.2526   5.2968   5.3351   5.6508   5.8173
     5.8948   5.9460   6.0058   6.0102   6.0946   6.1115   6.2007   6.2196
     6.3275   6.3278   6.3686   6.4270   6.4460   6.6146   6.6264   6.7916
     6.8257   6.9678   6.9978   7.0099   7.0437   7.0485   7.1182   7.1389
     7.2428   7.3044   7.8145   7.8268   7.9991   8.0355   8.1929   8.1982
     9.6243   9.6396  10.3444  10.3758  10.6857  10.7169  12.0142  12.0560
    12.1948  12.4166  12.4228  12.5664  12.6049  12.6798  12.9116  12.9623
    13.0704  13.2954  13.4811  13.5160  13.6014  13.7489  13.9413  13.9797
    14.4051  14.5135  14.7984  15.2544  15.3467  15.8685  16.2050  16.2935
    16.4099  17.5313  17.7153  17.7410  17.7512

          k = 0.0000 0.0000-0.5000 ( 62264 PWs)   bands (ev):

   -66.1530 -66.1530 -66.1525 -66.1525 -66.1520 -66.1520 -66.1515 -66.1515
   -30.5896 -30.5896 -30.5739 -30.5739 -30.5421 -30.5421 -30.5367 -30.5366
   -30.5272 -30.5272 -30.5220 -30.5220 -30.4794 -30.4793 -30.4645 -30.4645
   -30.4546 -30.4546 -30.4492 -30.4492 -30.3970 -30.3970 -30.3926 -30.3926
   -20.3010 -20.3010 -20.3009 -20.3008 -20.3007 -20.3007 -20.3005 -20.3005
   -20.2780 -20.2780 -20.2767 -20.2766 -20.2763 -20.2763 -20.2758 -20.2758
   -20.2754 -20.2754 -20.2749 -20.2749 -20.2748 -20.2748 -20.2741 -20.2741
   -20.2740 -20.2740 -20.2733 -20.2733 -20.2706 -20.2706 -20.2697 -20.2697
   -20.2694 -20.2694 -20.2692 -20.2692 -20.2658 -20.2658 -20.2654 -20.2654
   -20.2639 -20.2639 -20.2636 -20.2635 -20.2629 -20.2629 -20.2623 -20.2623
   -20.2616 -20.2616 -20.2616 -20.2616 -20.2582 -20.2582 -20.2569 -20.2569
    -9.8185  -9.8185  -9.6548  -9.6548  -9.0535  -9.0535  -8.9032  -8.9032
    -8.7756  -8.7756  -8.7631  -8.7631  -8.6398  -8.6398  -8.5891  -8.5891
    -7.7806  -7.7806  -7.7375  -7.7375  -7.5992  -7.5992  -7.5409  -7.5409
     0.9224   0.9224   0.9450   0.9450   1.7272   1.7272   1.7384   1.7384
     2.6106   2.6106   2.8379   2.8379   2.9194   2.9194   3.0147   3.0147
     3.0682   3.0682   3.1302   3.1302   3.2863   3.2863   3.6689   3.6690
     3.7571   3.7571   4.2230   4.2230   4.6826   4.6826   4.8770   4.8770
     5.0121   5.0121   5.0556   5.0556   5.1901   5.1901   5.7859   5.7859
     5.9611   5.9611   6.0506   6.0506   6.0791   6.0791   6.2195   6.2195
     6.2529   6.2529   6.2565   6.2565   6.4004   6.4004   6.6784   6.6784
     6.8584   6.8584   7.0387   7.0387   7.1304   7.1305   7.4737   7.4737
     7.4925   7.4925   7.7035   7.7035   7.7427   7.7427   8.1991   8.1991
     9.6326   9.6326  11.2283  11.2283  11.2683  11.2683  11.5372  11.5372
    11.5970  11.5970  12.4414  12.4414  12.9036  12.9036  13.0386  13.0386
    13.2024  13.2024  13.2308  13.2308  13.4139  13.4139  13.9495  13.9495
    14.4773  14.4773  15.0773  15.0773  15.8153  15.8153  16.1406  16.1406
    17.0518  17.0518  17.9182  17.9182  17.9401

          k = 0.0000 0.1575 0.0000 ( 62231 PWs)   bands (ev):

   -66.1535 -66.1531 -66.1525 -66.1525 -66.1521 -66.1520 -66.1515 -66.1510
   -30.5969 -30.5935 -30.5909 -30.5864 -30.5803 -30.5768 -30.5758 -30.5708
   -30.4864 -30.4821 -30.4814 -30.4780 -30.4718 -30.4672 -30.4658 -30.4618
   -30.4539 -30.4485 -30.4479 -30.4426 -30.4034 -30.3990 -30.3987 -30.3944
   -20.3011 -20.3009 -20.3009 -20.3008 -20.3008 -20.3006 -20.3006 -20.3005
   -20.2781 -20.2777 -20.2771 -20.2770 -20.2767 -20.2762 -20.2759 -20.2756
   -20.2751 -20.2750 -20.2750 -20.2747 -20.2745 -20.2744 -20.2742 -20.2740
   -20.2740 -20.2738 -20.2737 -20.2730 -20.2712 -20.2702 -20.2700 -20.2700
   -20.2699 -20.2697 -20.2692 -20.2687 -20.2684 -20.2679 -20.2677 -20.2666
   -20.2652 -20.2650 -20.2642 -20.2640 -20.2632 -20.2626 -20.2617 -20.2612
   -20.2601 -20.2590 -20.2588 -20.2587 -20.2577 -20.2576 -20.2573 -20.2561
   -10.1023  -9.9494  -9.7007  -9.6803  -9.5906  -9.5645  -9.3404  -9.3255
    -8.7657  -8.7041  -8.7032  -8.6987  -7.8349  -7.8187  -7.7854  -7.7784
    -7.7419  -7.7377  -7.7205  -7.7072  -7.6982  -7.6661  -7.6632  -7.6210
     0.7183   0.7234   0.8803   0.9000   0.9192   0.9386   1.1877   1.2273
     1.9499   2.0083   2.0184   2.1010   2.1137   2.1763   2.6190   2.6316
     2.7504   2.7557   3.9445   3.9475   3.9899   3.9914   4.3925   4.4027
     4.4277   4.4410   4.7508   5.1217   5.1377   5.1573   5.1886   5.2966
     5.3162   5.4014   5.4202   5.5963   5.5987   5.6569   5.6908   5.7122
     5.7750   5.8623   5.8724   5.9722   5.9881   6.1108   6.1116   6.1168
     6.2252   6.3208   6.3760   6.4115   6.4468   6.6959   6.8420   6.8657
     6.8857   6.8938   7.0251   7.0319   7.0914   7.0948   7.0963   7.1118
     7.1325   7.1531   8.0317   8.0390   8.1100   8.1268   8.1446   8.1569
     9.1694   9.1909   9.8417   9.8501   9.8963   9.9045  12.1191  12.1745
    12.2247  12.2582  12.6901  12.6924  12.7423  12.7502  13.1001  13.2529
    13.2984  13.3478  13.6511  13.8170  13.9598  13.9969  14.0941  14.1009
    14.4485  14.6617  14.7372  15.0026  15.4629  15.4743  15.7925  16.3497
    16.3575  16.8870  17.2519  17.4979  17.5199

          k = 0.0000 0.1575 0.1667 ( 62237 PWs)   bands (ev):

   -66.1534 -66.1530 -66.1525 -66.1524 -66.1521 -66.1520 -66.1515 -66.1511
   -30.5928 -30.5896 -30.5869 -30.5837 -30.5763 -30.5735 -30.5713 -30.5686
   -30.4939 -30.4889 -30.4817 -30.4802 -30.4788 -30.4720 -30.4669 -30.4622
   -30.4535 -30.4482 -30.4481 -30.4430 -30.4031 -30.3990 -30.3986 -30.3946
   -20.3010 -20.3009 -20.3009 -20.3008 -20.3008 -20.3006 -20.3006 -20.3005
   -20.2781 -20.2777 -20.2770 -20.2769 -20.2766 -20.2762 -20.2759 -20.2756
   -20.2751 -20.2751 -20.2750 -20.2747 -20.2744 -20.2743 -20.2743 -20.2741
   -20.2739 -20.2738 -20.2737 -20.2730 -20.2711 -20.2702 -20.2701 -20.2700
   -20.2698 -20.2697 -20.2693 -20.2685 -20.2682 -20.2674 -20.2671 -20.2661
   -20.2651 -20.2650 -20.2641 -20.2641 -20.2630 -20.2625 -20.2619 -20.2613
   -20.2606 -20.2593 -20.2593 -20.2589 -20.2582 -20.2576 -20.2574 -20.2562
   -10.0462  -9.8910  -9.6920  -9.6057  -9.5737  -9.4903  -9.2956  -9.2802
    -8.7767  -8.7106  -8.6955  -8.6938  -7.9723  -7.9438  -7.8941  -7.8715
    -7.8146  -7.7748  -7.7472  -7.7172  -7.7037  -7.6686  -7.6647  -7.6220
     0.8311   0.8437   0.9204   0.9404   1.1760   1.1961   1.3567   1.4159
     1.9507   2.0073   2.0170   2.1216   2.1960   2.2661   2.6325   2.7209
     2.7420   2.8457   3.9511   3.9718   3.9851   4.0088   4.0839   4.1077
     4.4688   4.4950   4.7198   4.7248   4.8133   5.1270   5.1604   5.1744
     5.2588   5.2948   5.3570   5.3730   5.5276   5.5461   5.6920   5.7534
     5.7981   5.8561   5.8750   5.9666   6.0753   6.1052   6.1094   6.1357
     6.2657   6.2890   6.4310   6.5041   6.6868   6.7546   6.7991   6.8309
     6.8646   6.8805   6.8887   6.8974   6.9203   6.9388   7.0628   7.0661
     7.0869   7.1062   7.9886   7.9925   8.1023   8.1153   8.1173   8.1309
     9.5467   9.5635   9.8556   9.9052  10.1144  10.1631  12.1676  12.1960
    12.2548  12.3036  12.5382  12.5846  12.7450  12.7945  13.0371  13.1115
    13.1203  13.2988  13.6731  13.7605  13.9036  13.9599  13.9838  14.0513
    14.5026  14.7275  14.8262  15.1268  15.5648  15.6126  15.7647  16.3335
    16.7342  17.0227  17.1191  17.3407  17.6580

          k = 0.0000 0.1575 0.3333 ( 62284 PWs)   bands (ev):

   -66.1532 -66.1528 -66.1527 -66.1523 -66.1522 -66.1518 -66.1517 -66.1513
   -30.5913 -30.5880 -30.5758 -30.5724 -30.5693 -30.5638 -30.5542 -30.5489
   -30.5144 -30.5092 -30.4998 -30.4952 -30.4807 -30.4775 -30.4659 -30.4632
   -30.4523 -30.4492 -30.4470 -30.4440 -30.4021 -30.3997 -30.3977 -30.3953
   -20.3010 -20.3009 -20.3009 -20.3008 -20.3007 -20.3006 -20.3006 -20.3005
   -20.2780 -20.2778 -20.2768 -20.2766 -20.2763 -20.2762 -20.2761 -20.2755
   -20.2754 -20.2751 -20.2750 -20.2747 -20.2745 -20.2743 -20.2743 -20.2740
   -20.2740 -20.2737 -20.2735 -20.2731 -20.2709 -20.2703 -20.2701 -20.2700
   -20.2699 -20.2695 -20.2695 -20.2688 -20.2670 -20.2663 -20.2657 -20.2653
   -20.2651 -20.2646 -20.2640 -20.2637 -20.2626 -20.2624 -20.2622 -20.2621
   -20.2618 -20.2607 -20.2606 -20.2597 -20.2586 -20.2577 -20.2573 -20.2565
    -9.9184  -9.7644  -9.7294  -9.6033  -9.3422  -9.2033  -9.1409  -9.1093
    -8.8255  -8.7393  -8.6756  -8.6648  -8.3406  -8.3087  -8.2889  -8.2444
    -7.8032  -7.7622  -7.7600  -7.7188  -7.7076  -7.6788  -7.6561  -7.6307
     0.9101   0.9233   0.9319   0.9445   1.8297   1.8461   1.9595   1.9866
     2.0011   2.1436   2.1530   2.3412   2.4591   2.5267   2.6550   2.7219
     2.9788   3.0815   3.4504   3.5227   3.8859   3.9014   3.9945   4.0481
     4.1822   4.2340   4.4584   4.5997   4.6151   4.6531   4.6701   4.8139
     4.8525   5.0112   5.1420   5.2201   5.2404   5.3645   5.4022   5.7809
     5.8224   5.9057   5.9164   5.9906   6.0501   6.0799   6.1104   6.1544
     6.3013   6.3509   6.4217   6.4497   6.4963   6.6191   6.7534   6.8337
     6.8521   6.8906   6.9086   6.9799   7.0146   7.0432   7.0508   7.1594
     7.2472   7.3070   7.8213   7.8249   7.9631   7.9829   8.1280   8.1329
     9.8598   9.8827  10.3503  10.3802  10.7912  10.8260  12.0098  12.0544
    12.1286  12.2604  12.4384  12.4617  12.5375  12.5673  12.9198  12.9599
    13.1028  13.3096  13.3995  13.4970  13.5431  13.7244  13.9609  14.0047
    14.6253  14.7170  15.1763  15.4256  15.6743  15.8561  16.2356  16.2578
    16.4986  17.3743  17.5869  17.6922  17.7968

          k = 0.0000 0.1575-0.5000 ( 62234 PWs)   bands (ev):

   -66.1530 -66.1530 -66.1526 -66.1525 -66.1520 -66.1520 -66.1515 -66.1515
   -30.5896 -30.5896 -30.5740 -30.5740 -30.5421 -30.5420 -30.5366 -30.5366
   -30.5272 -30.5272 -30.5220 -30.5220 -30.4793 -30.4792 -30.4646 -30.4645
   -30.4508 -30.4508 -30.4455 -30.4455 -30.4009 -30.4009 -30.3965 -30.3965
   -20.3010 -20.3010 -20.3009 -20.3008 -20.3007 -20.3007 -20.3005 -20.3005
   -20.2779 -20.2779 -20.2766 -20.2765 -20.2763 -20.2763 -20.2758 -20.2758
   -20.2753 -20.2753 -20.2748 -20.2748 -20.2746 -20.2746 -20.2741 -20.2741
   -20.2739 -20.2738 -20.2733 -20.2733 -20.2706 -20.2706 -20.2700 -20.2700
   -20.2698 -20.2697 -20.2692 -20.2692 -20.2658 -20.2658 -20.2655 -20.2655
   -20.2639 -20.2639 -20.2636 -20.2635 -20.2629 -20.2629 -20.2623 -20.2623
   -20.2616 -20.2616 -20.2616 -20.2616 -20.2582 -20.2582 -20.2569 -20.2569
    -9.8015  -9.8015  -9.6614  -9.6614  -9.0077  -9.0077  -8.8782  -8.8782
    -8.7793  -8.7793  -8.7668  -8.7668  -8.6062  -8.6062  -8.5603  -8.5603
    -7.7828  -7.7828  -7.7394  -7.7394  -7.6933  -7.6933  -7.6435  -7.6434
     0.9242   0.9243   0.9465   0.9466   1.9302   1.9302   1.9918   1.9918
     2.6757   2.6757   2.8437   2.8437   2.9167   2.9167   3.0245   3.0245
     3.0663   3.0663   3.1624   3.1624   3.2813   3.2813   3.7011   3.7011
     3.8160   3.8160   4.0614   4.0614   4.5104   4.5104   4.7254   4.7254
     4.9978   4.9978   5.0374   5.0374   5.2131   5.2131   5.5314   5.5314
     5.8692   5.8692   6.0008   6.0008   6.0877   6.0877   6.1636   6.1636
     6.2554   6.2554   6.3246   6.3246   6.4145   6.4145   6.8328   6.8328
     6.8948   6.8948   6.9550   6.9550   7.0321   7.0321   7.4865   7.4865
     7.4988   7.4988   7.6869   7.6869   7.7161   7.7161   8.1330   8.1331
     9.8738   9.8738  11.2316  11.2316  11.2693  11.2693  11.6016  11.6016
    11.6591  11.6591  12.2845  12.2845  12.8351  12.8351  12.9283  12.9283
    13.1789  13.1789  13.2316  13.2316  13.4139  13.4139  13.9691  13.9691
    14.6894  14.6895  15.4745  15.4745  15.9099  15.9099  16.1123  16.1123
    17.1040  17.1040  17.7237  17.7237  17.9492

          k = 0.0000 0.3150 0.0000 ( 62175 PWs)   bands (ev):

   -66.1534 -66.1531 -66.1524 -66.1524 -66.1521 -66.1521 -66.1514 -66.1511
   -30.5968 -30.5935 -30.5908 -30.5864 -30.5803 -30.5769 -30.5759 -30.5709
   -30.4862 -30.4819 -30.4812 -30.4780 -30.4716 -30.4672 -30.4655 -30.4619
   -30.4433 -30.4382 -30.4377 -30.4328 -30.4142 -30.4096 -30.4093 -30.4048
   -20.3011 -20.3009 -20.3009 -20.3008 -20.3008 -20.3006 -20.3006 -20.3005
   -20.2779 -20.2775 -20.2770 -20.2769 -20.2767 -20.2760 -20.2760 -20.2756
   -20.2752 -20.2750 -20.2748 -20.2744 -20.2743 -20.2741 -20.2738 -20.2738
   -20.2735 -20.2733 -20.2732 -20.2727 -20.2714 -20.2710 -20.2709 -20.2707
   -20.2702 -20.2700 -20.2699 -20.2687 -20.2685 -20.2679 -20.2677 -20.2666
   -20.2652 -20.2650 -20.2642 -20.2640 -20.2632 -20.2626 -20.2617 -20.2612
   -20.2601 -20.2590 -20.2588 -20.2587 -20.2577 -20.2576 -20.2573 -20.2561
   -10.0609  -9.9741  -9.6700  -9.6477  -9.6043  -9.5791  -9.3372  -9.3286
    -8.5623  -8.5261  -8.5237  -8.5230  -7.9850  -7.9371  -7.9318  -7.8968
    -7.8174  -7.8118  -7.7874  -7.7822  -7.7314  -7.7270  -7.7048  -7.7010
     0.7191   0.7225   0.8813   0.9010   0.9206   0.9402   1.2132   1.2267
     2.1194   2.1609   2.5278   2.6416   2.6670   2.7568   2.8255   2.8828
     2.9471   2.9740   3.5385   3.5828   3.6003   3.6473   4.2077   4.3978
     4.4068   4.4136   4.4282   4.5818   4.5981   4.8848   5.2208   5.2312
     5.3213   5.3316   5.3649   5.3670   5.6853   5.6913   5.7119   5.7413
     5.8187   5.8498   5.8643   5.9755   5.9842   6.1014   6.1318   6.1368
     6.1431   6.2661   6.3467   6.3699   6.4418   6.4592   6.6574   6.6892
     6.7376   6.8387   7.0841   7.1024   7.1274   7.1450   7.2065   7.2133
     7.2212   7.2225   7.9088   7.9287   7.9294   7.9479   8.0395   8.0413
     9.1773   9.1890  10.3903  10.4227  10.4587  10.4823  11.6885  11.7416
    11.7745  11.8083  12.7003  12.7044  12.7500  12.7554  13.2080  13.3596
    13.3893  13.4407  13.5696  13.7798  13.8024  13.8725  13.8988  13.9703
    15.1957  15.3288  15.3465  15.3792  15.4639  15.4730  16.2086  16.2188
    16.2955  16.8209  17.1558  17.8718  17.8986

          k = 0.0000 0.3150 0.1667 ( 62260 PWs)   bands (ev):

   -66.1534 -66.1530 -66.1525 -66.1523 -66.1522 -66.1520 -66.1515 -66.1512
   -30.5927 -30.5895 -30.5868 -30.5837 -30.5764 -30.5736 -30.5713 -30.5686
   -30.4938 -30.4887 -30.4815 -30.4802 -30.4787 -30.4717 -30.4669 -30.4623
   -30.4429 -30.4380 -30.4378 -30.4331 -30.4138 -30.4095 -30.4092 -30.4050
   -20.3010 -20.3009 -20.3009 -20.3008 -20.3008 -20.3006 -20.3006 -20.3005
   -20.2779 -20.2776 -20.2769 -20.2768 -20.2766 -20.2760 -20.2760 -20.2755
   -20.2752 -20.2751 -20.2749 -20.2744 -20.2743 -20.2742 -20.2738 -20.2737
   -20.2735 -20.2735 -20.2732 -20.2727 -20.2714 -20.2710 -20.2709 -20.2707
   -20.2703 -20.2701 -20.2698 -20.2686 -20.2683 -20.2674 -20.2671 -20.2661
   -20.2651 -20.2650 -20.2641 -20.2641 -20.2630 -20.2625 -20.2619 -20.2613
   -20.2606 -20.2593 -20.2593 -20.2589 -20.2582 -20.2576 -20.2574 -20.2562
   -10.0038  -9.9157  -9.6586  -9.5889  -9.5722  -9.5042  -9.2924  -9.2832
    -8.5721  -8.5342  -8.5214  -8.5186  -8.0047  -7.9780  -7.9559  -7.9373
    -7.9243  -7.8976  -7.8794  -7.8340  -7.8041  -7.7782  -7.7326  -7.7066
     0.8315   0.8437   0.9219   0.9420   1.1795   1.1992   1.3950   1.4157
     2.2092   2.2507   2.5301   2.6199   2.6622   2.7585   2.8367   2.9386
     2.9687   3.0751   3.5812   3.5926   3.6395   3.6601   4.0742   4.0918
     4.1985   4.4676   4.4742   4.5586   4.6103   4.8472   4.8863   4.9744
     5.1142   5.2337   5.3037   5.3384   5.3817   5.4372   5.6411   5.6937
     5.7837   5.8179   5.8750   5.9607   6.0052   6.0267   6.0976   6.1408
     6.1696   6.2865   6.4013   6.4313   6.5272   6.6518   6.7350   6.8471
     6.8704   6.8935   6.9018   6.9138   6.9347   6.9667   7.2045   7.2116
     7.2233   7.2401   7.9010   7.9102   7.9193   7.9210   7.9953   8.0061
     9.5552   9.5661  10.4286  10.4793  10.5793  10.6442  11.7429  11.7806
    11.8055  11.8684  12.5430  12.5872  12.7546  12.8015  13.1534  13.2077
    13.2331  13.3877  13.5856  13.6240  13.6754  13.8005  13.8978  13.9652
    15.2673  15.3359  15.4689  15.5499  15.5810  15.6508  16.1930  16.4407
    16.5828  16.7910  17.2537  17.4089  18.1063

          k = 0.0000 0.3150 0.3333 ( 62269 PWs)   bands (ev):

   -66.1532 -66.1529 -66.1527 -66.1524 -66.1522 -66.1518 -66.1517 -66.1513
   -30.5912 -30.5879 -30.5759 -30.5725 -30.5692 -30.5637 -30.5543 -30.5490
   -30.5143 -30.5091 -30.4997 -30.4952 -30.4805 -30.4773 -30.4659 -30.4632
   -30.4418 -30.4389 -30.4368 -30.4340 -30.4128 -30.4103 -30.4083 -30.4058
   -20.3010 -20.3009 -20.3009 -20.3008 -20.3007 -20.3006 -20.3006 -20.3005
   -20.2778 -20.2776 -20.2767 -20.2766 -20.2762 -20.2762 -20.2762 -20.2754
   -20.2753 -20.2750 -20.2750 -20.2745 -20.2743 -20.2742 -20.2740 -20.2737
   -20.2734 -20.2733 -20.2732 -20.2729 -20.2712 -20.2709 -20.2708 -20.2707
   -20.2705 -20.2703 -20.2696 -20.2689 -20.2670 -20.2664 -20.2657 -20.2653
   -20.2651 -20.2646 -20.2640 -20.2637 -20.2626 -20.2624 -20.2622 -20.2621
   -20.2618 -20.2607 -20.2606 -20.2597 -20.2586 -20.2577 -20.2573 -20.2565
    -9.8754  -9.7877  -9.6936  -9.6199  -9.2959  -9.2181  -9.1336  -9.1132
    -8.6342  -8.5806  -8.5113  -8.5004  -8.3520  -8.3100  -8.2909  -8.2257
    -7.9628  -7.9376  -7.9145  -7.8883  -7.7895  -7.7633  -7.7479  -7.7218
     0.9116   0.9250   0.9335   0.9464   1.9609   1.9893   2.0812   2.1414
     2.4704   2.5117   2.5371   2.6063   2.6618   2.7752   2.8557   2.9205
     3.2162   3.2956   3.4411   3.5103   3.6173   3.6382   3.6955   3.7525
     4.1433   4.2422   4.3765   4.4060   4.4277   4.5355   4.5576   4.6305
     4.7051   4.8163   4.8643   4.9542   5.1807   5.2197   5.2996   5.3349
     5.4435   5.5109   5.8028   5.9869   6.0481   6.1234   6.1459   6.1731
     6.3351   6.3953   6.4483   6.5173   6.5275   6.6015   6.6323   6.6409
     6.8327   6.9391   7.0774   7.0933   7.1425   7.2084   7.2242   7.2589
     7.2908   7.3270   7.7961   7.8156   7.8184   7.8389   7.9233   7.9481
    10.3218  10.3613  10.4526  10.4995  11.1026  11.1544  11.7411  11.8023
    12.0300  12.0555  12.0862  12.1547  12.5987  12.6405  12.9252  12.9658
    13.1187  13.1590  13.3086  13.3930  13.5262  13.7104  13.7979  13.8659
    15.3027  15.3309  15.7516  15.8083  16.0672  16.1319  16.3767  16.6863
    16.7928  16.8512  17.4782  17.6422  17.7706

          k = 0.0000 0.3150-0.5000 ( 62306 PWs)   bands (ev):

   -66.1529 -66.1529 -66.1526 -66.1526 -66.1519 -66.1519 -66.1516 -66.1516
   -30.5895 -30.5895 -30.5741 -30.5740 -30.5420 -30.5420 -30.5365 -30.5365
   -30.5272 -30.5272 -30.5221 -30.5220 -30.4791 -30.4791 -30.4646 -30.4646
   -30.4403 -30.4403 -30.4353 -30.4353 -30.4115 -30.4115 -30.4070 -30.4070
   -20.3010 -20.3010 -20.3009 -20.3008 -20.3007 -20.3007 -20.3005 -20.3005
   -20.2777 -20.2777 -20.2764 -20.2764 -20.2764 -20.2764 -20.2758 -20.2758
   -20.2752 -20.2752 -20.2748 -20.2748 -20.2741 -20.2741 -20.2740 -20.2740
   -20.2733 -20.2733 -20.2731 -20.2731 -20.2710 -20.2710 -20.2707 -20.2707
   -20.2705 -20.2705 -20.2692 -20.2692 -20.2657 -20.2657 -20.2655 -20.2655
   -20.2639 -20.2639 -20.2636 -20.2636 -20.2629 -20.2629 -20.2623 -20.2623
   -20.2616 -20.2616 -20.2616 -20.2616 -20.2582 -20.2582 -20.2569 -20.2569
    -9.7617  -9.7617  -9.6809  -9.6809  -8.9094  -8.9094  -8.8323  -8.8323
    -8.7931  -8.7931  -8.7773  -8.7773  -8.4791  -8.4791  -8.4468  -8.4468
    -7.9512  -7.9511  -7.9032  -7.9032  -7.7687  -7.7687  -7.7426  -7.7426
     0.9261   0.9261   0.9484   0.9485   2.5086   2.5086   2.6187   2.6187
     2.8388   2.8388   2.8637   2.8637   2.9298   2.9298   3.0565   3.0566
     3.0663   3.0663   3.2370   3.2370   3.2730   3.2730   3.6008   3.6008
     3.9453   3.9453   4.0121   4.0121   4.0731   4.0731   4.3099   4.3099
     4.8754   4.8754   4.9864   4.9864   4.9988   4.9988   5.1233   5.1233
     5.3917   5.3917   5.8849   5.8849   6.1885   6.1885   6.2120   6.2120
     6.3054   6.3054   6.3523   6.3523   6.4488   6.4488   6.6214   6.6214
     7.1000   7.1000   7.1611   7.1611   7.1935   7.1935   7.4721   7.4721
     7.5350   7.5350   7.6111   7.6111   7.6293   7.6293   7.9324   7.9324
    10.4483  10.4484  11.2351  11.2351  11.2718  11.2718  11.6923  11.6923
    11.8564  11.8564  11.9669  11.9669  12.5576  12.5576  12.6208  12.6208
    13.1789  13.1790  13.2415  13.2415  13.4566  13.4566  13.8085  13.8085
    15.3193  15.3193  16.0080  16.0080  16.2092  16.2092  16.4766  16.4766
    17.2734  17.2734  17.3138  17.3138  18.0308

          k = 0.0000-0.4725 0.0000 ( 62212 PWs)   bands (ev):

   -66.1534 -66.1531 -66.1524 -66.1524 -66.1521 -66.1521 -66.1514 -66.1511
   -30.5967 -30.5935 -30.5908 -30.5863 -30.5803 -30.5769 -30.5759 -30.5710
   -30.4862 -30.4818 -30.4811 -30.4780 -30.4716 -30.4672 -30.4654 -30.4619
   -30.4289 -30.4286 -30.4240 -30.4240 -30.4238 -30.4234 -30.4190 -30.4188
   -20.3011 -20.3009 -20.3009 -20.3008 -20.3008 -20.3006 -20.3006 -20.3005
   -20.2778 -20.2774 -20.2771 -20.2768 -20.2767 -20.2761 -20.2759 -20.2754
   -20.2753 -20.2750 -20.2747 -20.2744 -20.2744 -20.2742 -20.2738 -20.2733
   -20.2727 -20.2725 -20.2724 -20.2721 -20.2720 -20.2719 -20.2716 -20.2714
   -20.2711 -20.2700 -20.2699 -20.2687 -20.2685 -20.2679 -20.2677 -20.2666
   -20.2652 -20.2650 -20.2642 -20.2640 -20.2632 -20.2626 -20.2617 -20.2612
   -20.2601 -20.2590 -20.2588 -20.2587 -20.2577 -20.2576 -20.2573 -20.2561
   -10.0139 -10.0129  -9.6476  -9.6236  -9.6186  -9.5947  -9.3334  -9.3325
    -8.2834  -8.2831  -8.2509  -8.2503  -8.2469  -8.2466  -8.2331  -8.2329
    -7.8169  -7.8123  -7.7892  -7.7845  -7.7300  -7.7262  -7.7069  -7.7032
     0.7197   0.7218   0.8816   0.9013   0.9211   0.9407   1.2224   1.2246
     2.1400   2.1402   3.0933   3.1055   3.1508   3.1640   3.1840   3.2033
     3.2355   3.2565   3.4018   3.4025   3.6155   3.6178   3.6500   3.6523
     3.8174   3.8179   4.4054   4.4143   4.4174   4.4268   5.3008   5.3093
     5.3149   5.3229   5.5363   5.5364   5.5534   5.5549   5.8634   5.8739
     5.8771   5.8873   5.8886   5.9000   5.9743   5.9805   6.0351   6.0363
     6.1826   6.1947   6.2473   6.2564   6.4763   6.4936   6.4969   6.5154
     6.7819   6.7827   7.0879   7.1068   7.1306   7.1499   7.5650   7.5705
     7.5857   7.5893   7.5948   7.5958   7.6032   7.6137   8.0392   8.0397
     9.1837   9.1845  11.0495  11.0790  11.0977  11.1139  11.1260  11.1384
    11.1747  11.1984  12.7036  12.7082  12.7530  12.7577  13.3695  13.3803
    13.5647  13.5671  13.5722  13.5807  13.6232  13.6282  13.8890  13.8938
    15.4584  15.4650  15.7263  15.7330  15.8763  15.8933  15.9125  15.9293
    16.3395  16.3396  17.8136  18.0429  18.0441

          k = 0.0000-0.4725 0.1667 ( 62246 PWs)   bands (ev):

   -66.1533 -66.1531 -66.1525 -66.1523 -66.1522 -66.1521 -66.1514 -66.1512
   -30.5927 -30.5895 -30.5867 -30.5836 -30.5764 -30.5736 -30.5714 -30.5687
   -30.4937 -30.4887 -30.4815 -30.4802 -30.4787 -30.4716 -30.4669 -30.4623
   -30.4285 -30.4282 -30.4241 -30.4236 -30.4236 -30.4236 -30.4192 -30.4191
   -20.3010 -20.3009 -20.3009 -20.3008 -20.3008 -20.3006 -20.3006 -20.3005
   -20.2778 -20.2775 -20.2770 -20.2767 -20.2766 -20.2761 -20.2759 -20.2754
   -20.2753 -20.2751 -20.2748 -20.2745 -20.2743 -20.2742 -20.2738 -20.2734
   -20.2727 -20.2725 -20.2724 -20.2721 -20.2720 -20.2720 -20.2717 -20.2714
   -20.2710 -20.2701 -20.2698 -20.2686 -20.2683 -20.2674 -20.2671 -20.2661
   -20.2651 -20.2650 -20.2642 -20.2641 -20.2630 -20.2625 -20.2619 -20.2613
   -20.2606 -20.2593 -20.2593 -20.2589 -20.2582 -20.2576 -20.2574 -20.2562
    -9.9570  -9.9539  -9.6337  -9.6051  -9.5480  -9.5192  -9.2892  -9.2864
    -8.2870  -8.2863  -8.2625  -8.2622  -8.2452  -8.2438  -8.2416  -8.2403
    -7.9592  -7.9361  -7.8806  -7.8588  -7.8034  -7.7806  -7.7319  -7.7088
     0.8317   0.8436   0.9224   0.9425   1.1804   1.2002   1.4054   1.4151
     2.2298   2.2301   3.1087   3.1298   3.1607   3.1863   3.2066   3.2500
     3.2529   3.3018   3.3959   3.3977   3.6090   3.6446   3.6505   3.6812
     3.8354   3.8363   4.0863   4.0875   4.4756   4.4805   5.0031   5.0166
     5.2147   5.2221   5.2820   5.2880   5.5039   5.5113   5.5515   5.5606
     5.7779   5.7813   5.8355   5.8550   5.9562   6.0060   6.1328   6.1652
     6.2311   6.2763   6.3168   6.3478   6.4752   6.4969   6.7976   6.8259
     6.8711   6.8859   6.9035   6.9292   6.9397   6.9749   7.5576   7.5727
     7.5769   7.5840   7.5884   7.5949   7.5973   7.6052   7.9970   7.9978
     9.5580   9.5661  11.1003  11.1280  11.1517  11.1590  11.2024  11.2085
    11.2541  11.2832  12.5448  12.5884  12.7579  12.8046  13.3324  13.3523
    13.3780  13.3985  13.4480  13.4597  13.5651  13.5696  13.8969  13.9018
    15.5175  15.5427  15.8693  15.8976  15.8999  15.9234  16.2144  16.2430
    16.4324  16.4351  17.8075  17.8275  17.8594

          k = 0.0000-0.4725 0.3333 ( 62268 PWs)   bands (ev):

   -66.1531 -66.1529 -66.1526 -66.1524 -66.1521 -66.1519 -66.1516 -66.1514
   -30.5912 -30.5879 -30.5759 -30.5725 -30.5692 -30.5637 -30.5543 -30.5490
   -30.5142 -30.5090 -30.4997 -30.4952 -30.4804 -30.4772 -30.4659 -30.4633
   -30.4275 -30.4272 -30.4249 -30.4245 -30.4226 -30.4226 -30.4200 -30.4199
   -20.3010 -20.3009 -20.3009 -20.3008 -20.3007 -20.3006 -20.3006 -20.3005
   -20.2777 -20.2775 -20.2767 -20.2765 -20.2762 -20.2762 -20.2761 -20.2753
   -20.2753 -20.2751 -20.2749 -20.2746 -20.2743 -20.2740 -20.2739 -20.2736
   -20.2725 -20.2724 -20.2723 -20.2722 -20.2720 -20.2719 -20.2719 -20.2716
   -20.2708 -20.2703 -20.2696 -20.2689 -20.2671 -20.2664 -20.2657 -20.2653
   -20.2651 -20.2646 -20.2640 -20.2637 -20.2626 -20.2624 -20.2622 -20.2621
   -20.2618 -20.2607 -20.2606 -20.2597 -20.2586 -20.2577 -20.2573 -20.2565
    -9.8337  -9.8196  -9.6658  -9.6385  -9.2637  -9.2358  -9.1289  -9.1164
    -8.4225  -8.4030  -8.4025  -8.3922  -8.2545  -8.2536  -8.2344  -8.2339
    -8.1943  -8.1876  -8.1467  -8.1371  -7.7890  -7.7657  -7.7472  -7.7241
     0.9120   0.9255   0.9339   0.9469   1.9735   1.9922   2.1232   2.1367
     2.4917   2.4922   3.1098   3.1557   3.1670   3.2214   3.2579   3.2851
     3.3475   3.3657   3.4074   3.4363   3.5158   3.5228   3.5781   3.6154
     3.7572   3.7728   3.8636   3.8700   4.3854   4.3934   4.5267   4.5477
     4.6856   4.6917   4.8269   4.8331   4.9936   4.9945   5.2115   5.2123
     5.5835   5.5988   5.7365   5.7621   6.0728   6.1288   6.1741   6.2096
     6.3803   6.4046   6.4055   6.4559   6.5027   6.5191   6.5770   6.6282
     6.9053   6.9140   7.1848   7.2101   7.2118   7.2323   7.5194   7.5405
     7.5514   7.5579   7.5657   7.5738   7.5978   7.6164   7.8456   7.8517
    10.3512  10.3692  11.1139  11.1359  11.1483  11.1701  11.5707  11.5888
    11.6308  11.6596  12.0325  12.0658  12.8369  12.8372  12.8648  12.8794
    12.9387  12.9743  13.4044  13.4202  13.5646  13.5669  13.7427  13.7441
    15.6525  15.6900  15.8384  15.8737  16.3412  16.3575  16.8908  16.8923
    16.9682  16.9809  17.2657  17.2770  17.9180

          k = 0.0000-0.4725-0.5000 ( 62284 PWs)   bands (ev):

   -66.1529 -66.1529 -66.1526 -66.1526 -66.1519 -66.1519 -66.1516 -66.1516
   -30.5895 -30.5895 -30.5741 -30.5741 -30.5420 -30.5419 -30.5365 -30.5365
   -30.5272 -30.5272 -30.5221 -30.5220 -30.4790 -30.4790 -30.4646 -30.4646
   -30.4261 -30.4261 -30.4258 -30.4258 -30.4213 -30.4213 -30.4212 -30.4212
   -20.3010 -20.3010 -20.3009 -20.3008 -20.3007 -20.3007 -20.3005 -20.3005
   -20.2776 -20.2776 -20.2764 -20.2764 -20.2763 -20.2763 -20.2758 -20.2757
   -20.2751 -20.2751 -20.2749 -20.2749 -20.2741 -20.2741 -20.2738 -20.2738
   -20.2723 -20.2723 -20.2722 -20.2722 -20.2721 -20.2721 -20.2718 -20.2718
   -20.2706 -20.2706 -20.2692 -20.2692 -20.2657 -20.2657 -20.2656 -20.2656
   -20.2639 -20.2639 -20.2636 -20.2636 -20.2629 -20.2629 -20.2623 -20.2623
   -20.2616 -20.2616 -20.2616 -20.2616 -20.2582 -20.2582 -20.2569 -20.2569
    -9.7282  -9.7282  -9.7047  -9.7047  -8.8457  -8.8457  -8.8184  -8.8184
    -8.8071  -8.8071  -8.7881  -8.7881  -8.2458  -8.2457  -8.2383  -8.2383
    -8.2130  -8.2129  -8.2054  -8.2054  -7.7681  -7.7681  -7.7449  -7.7449
     0.9266   0.9266   0.9490   0.9491   2.8531   2.8531   2.8727   2.8727
     2.9720   2.9721   3.0031   3.0031   3.1174   3.1174   3.1580   3.1580
     3.2241   3.2241   3.2505   3.2506   3.4070   3.4070   3.4521   3.4521
     3.6191   3.6192   3.6767   3.6767   4.2768   4.2768   4.2949   4.2950
     4.3731   4.3731   4.3947   4.3947   4.9946   4.9946   5.0125   5.0125
     5.6320   5.6320   5.6545   5.6545   6.2264   6.2264   6.2367   6.2367
     6.3285   6.3285   6.3530   6.3530   6.4593   6.4593   6.4677   6.4677
     7.3356   7.3356   7.3385   7.3385   7.4133   7.4134   7.4551   7.4552
     7.4701   7.4701   7.5024   7.5024   7.6532   7.6532   7.6712   7.6712
    11.0890  11.0890  11.1164  11.1164  11.2850  11.2850  11.3026  11.3026
    12.1631  12.1631  12.1806  12.1806  12.2217  12.2217  12.2454  12.2454
    13.2071  13.2071  13.2344  13.2344  13.5912  13.5912  13.5948  13.5948
    15.7699  15.7700  15.8071  15.8071  16.7677  16.7677  16.7705  16.7705
    17.5965  17.5965  17.6168  17.6168  17.7431

          k = 0.1667 0.0000 0.1667 ( 62234 PWs)   bands (ev):

   -66.1534 -66.1529 -66.1525 -66.1525 -66.1520 -66.1520 -66.1516 -66.1512
   -30.5893 -30.5860 -30.5841 -30.5798 -30.5727 -30.5691 -30.5689 -30.5640
   -30.4936 -30.4896 -30.4891 -30.4861 -30.4790 -30.4745 -30.4736 -30.4698
   -30.4569 -30.4519 -30.4515 -30.4467 -30.3988 -30.3950 -30.3948 -30.3910
   -20.3010 -20.3009 -20.3009 -20.3008 -20.3007 -20.3006 -20.3006 -20.3005
   -20.2781 -20.2777 -20.2771 -20.2769 -20.2766 -20.2764 -20.2759 -20.2756
   -20.2752 -20.2751 -20.2750 -20.2749 -20.2745 -20.2744 -20.2744 -20.2741
   -20.2740 -20.2739 -20.2738 -20.2730 -20.2708 -20.2700 -20.2698 -20.2696
   -20.2695 -20.2692 -20.2690 -20.2683 -20.2680 -20.2673 -20.2672 -20.2663
   -20.2654 -20.2651 -20.2644 -20.2643 -20.2629 -20.2623 -20.2617 -20.2611
   -20.2606 -20.2594 -20.2594 -20.2592 -20.2582 -20.2580 -20.2578 -20.2567
   -10.0056  -9.8214  -9.6329  -9.6149  -9.4946  -9.4692  -9.2550  -9.2375
    -8.8613  -8.7611  -8.7598  -8.7456  -7.9746  -7.9634  -7.9338  -7.9258
    -7.9097  -7.9026  -7.8661  -7.8411  -7.6205  -7.5711  -7.5676  -7.5216
     1.0167   1.0247   1.1728   1.1951   1.2050   1.2296   1.3911   1.5321
     1.7451   1.7802   1.7898   1.9330   2.2813   2.3640   2.6483   2.6603
     2.7552   2.7761   4.0404   4.0672   4.0931   4.1738   4.1837   4.1911
     4.2390   4.2742   4.6367   4.6830   4.7348   4.8099   4.9835   5.1297
     5.2023   5.2295   5.2889   5.4778   5.5158   5.5559   5.5673   5.6916
     5.7021   5.8601   5.8766   6.0636   6.1532   6.1711   6.1866   6.2541
     6.2891   6.4586   6.4766   6.5602   6.5693   6.6562   6.6780   6.7387
     6.8912   6.9126   6.9241   6.9415   6.9748   6.9980   7.0169   7.0207
     7.0354   7.1112   7.9531   7.9536   8.1278   8.1524   8.1711   8.1900
     9.7986   9.8240   9.9009   9.9529   9.9837  10.0379  12.3181  12.3806
    12.4578  12.4851  12.5839  12.5958  12.6297  12.6450  12.9189  13.0064
    13.0627  13.0988  13.7096  13.7142  13.8574  13.8997  14.0117  14.0505
    14.2632  14.4807  14.5572  15.1837  15.3182  15.7356  15.7427  16.7462
    16.7516  17.1977  17.2052  17.3537  17.6261

          k = 0.1667 0.0000 0.3333 ( 62265 PWs)   bands (ev):

   -66.1532 -66.1527 -66.1527 -66.1523 -66.1522 -66.1518 -66.1518 -66.1513
   -30.5842 -30.5809 -30.5704 -30.5677 -30.5650 -30.5639 -30.5537 -30.5493
   -30.5141 -30.5096 -30.4995 -30.4961 -30.4882 -30.4845 -30.4735 -30.4708
   -30.4558 -30.4526 -30.4508 -30.4478 -30.3979 -30.3955 -30.3940 -30.3917
   -20.3010 -20.3009 -20.3009 -20.3008 -20.3007 -20.3006 -20.3006 -20.3005
   -20.2780 -20.2778 -20.2769 -20.2766 -20.2765 -20.2763 -20.2760 -20.2755
   -20.2754 -20.2752 -20.2750 -20.2749 -20.2746 -20.2745 -20.2743 -20.2742
   -20.2740 -20.2738 -20.2736 -20.2732 -20.2706 -20.2701 -20.2697 -20.2696
   -20.2695 -20.2692 -20.2690 -20.2684 -20.2670 -20.2664 -20.2657 -20.2656
   -20.2651 -20.2647 -20.2641 -20.2639 -20.2625 -20.2622 -20.2621 -20.2619
   -20.2617 -20.2607 -20.2606 -20.2599 -20.2590 -20.2581 -20.2578 -20.2570
    -9.8645  -9.6760  -9.6549  -9.4990  -9.3776  -9.2079  -9.1152  -9.0860
    -8.9085  -8.7831  -8.7251  -8.7225  -8.3341  -8.3062  -8.2948  -8.2554
    -7.9467  -7.9124  -7.9050  -7.8708  -7.6104  -7.5818  -7.5582  -7.5316
     1.1881   1.2028   1.2150   1.2344   1.6645   1.6708   1.7343   1.7754
     1.9883   2.0888   2.1421   2.2835   2.5577   2.6335   2.6831   2.7409
     2.9087   3.0069   3.5132   3.6050   3.9251   3.9386   4.1298   4.1364
     4.1733   4.3126   4.3732   4.4123   4.5102   4.6479   4.6563   4.7285
     4.8310   4.8636   4.9192   5.0548   5.0688   5.2657   5.5721   5.5796
     5.7096   5.8759   5.9013   5.9491   6.0376   6.0682   6.1504   6.1919
     6.3938   6.4502   6.5244   6.5790   6.6283   6.6553   6.8054   6.8157
     6.8359   6.8599   6.9240   6.9637   7.0052   7.0493   7.0666   7.1123
     7.2465   7.3244   7.8036   7.8077   8.0086   8.0363   8.1550   8.1571
     9.9290   9.9519  10.4920  10.5338  10.6925  10.7368  12.0804  12.1187
    12.2359  12.4221  12.4934  12.5285  12.6424  12.6703  12.7604  12.8240
    12.9349  13.0889  13.4384  13.5082  13.5883  13.6508  13.8864  13.9079
    14.3751  14.5310  14.7822  15.2261  15.5211  16.1582  16.3477  16.5675
    16.6736  17.5895  17.5942  17.7290  17.7694

          k = 0.1667 0.0000-0.5000 ( 62322 PWs)   bands (ev):

   -66.1529 -66.1529 -66.1525 -66.1525 -66.1521 -66.1520 -66.1516 -66.1516
   -30.5825 -30.5825 -30.5669 -30.5668 -30.5417 -30.5417 -30.5370 -30.5370
   -30.5268 -30.5268 -30.5225 -30.5225 -30.4868 -30.4867 -30.4722 -30.4722
   -30.4542 -30.4542 -30.4493 -30.4493 -30.3967 -30.3966 -30.3928 -30.3928
   -20.3010 -20.3009 -20.3009 -20.3009 -20.3007 -20.3007 -20.3006 -20.3005
   -20.2779 -20.2779 -20.2767 -20.2767 -20.2763 -20.2762 -20.2759 -20.2758
   -20.2754 -20.2754 -20.2748 -20.2748 -20.2748 -20.2747 -20.2742 -20.2742
   -20.2739 -20.2739 -20.2733 -20.2733 -20.2704 -20.2703 -20.2696 -20.2696
   -20.2695 -20.2694 -20.2688 -20.2688 -20.2660 -20.2659 -20.2655 -20.2655
   -20.2639 -20.2639 -20.2635 -20.2635 -20.2630 -20.2629 -20.2623 -20.2623
   -20.2616 -20.2616 -20.2615 -20.2615 -20.2586 -20.2586 -20.2574 -20.2574
    -9.7340  -9.7339  -9.5600  -9.5600  -9.0690  -9.0690  -8.8857  -8.8857
    -8.7806  -8.7806  -8.7592  -8.7592  -8.6358  -8.6358  -8.5923  -8.5923
    -7.9268  -7.9268  -7.8915  -7.8915  -7.5963  -7.5963  -7.5450  -7.5450
     1.2071   1.2071   1.2365   1.2365   1.7214   1.7214   1.7528   1.7528
     2.6954   2.6955   2.8858   2.8858   2.9477   2.9477   3.0231   3.0231
     3.0675   3.0675   3.1859   3.1859   3.3235   3.3235   3.6811   3.6811
     3.7488   3.7488   4.2241   4.2241   4.5893   4.5893   4.7076   4.7076
     4.7449   4.7449   4.8205   4.8205   5.0149   5.0149   5.6496   5.6496
     5.7060   5.7060   5.7722   5.7722   6.0978   6.0978   6.2001   6.2001
     6.3635   6.3635   6.5735   6.5735   6.6536   6.6536   6.7001   6.7001
     6.8874   6.8874   6.9251   6.9251   7.0196   7.0196   7.4931   7.4931
     7.5056   7.5056   7.7103   7.7103   7.7453   7.7453   8.1586   8.1586
     9.9433   9.9433  11.3175  11.3175  11.3589  11.3589  11.5476  11.5476
    11.6103  11.6103  12.5040  12.5040  12.7929  12.7929  13.0112  13.0112
    13.1229  13.1229  13.1654  13.1654  13.2628  13.2628  13.8877  13.8877
    14.4764  14.4764  15.0534  15.0534  15.9885  15.9885  16.4902  16.4903
    17.2043  17.2043  17.9065  17.9082  17.9381

          k = 0.1667 0.1575 0.1667 ( 62255 PWs)   bands (ev):

   -66.1533 -66.1529 -66.1525 -66.1525 -66.1521 -66.1520 -66.1516 -66.1512
   -30.5893 -30.5860 -30.5841 -30.5797 -30.5727 -30.5692 -30.5689 -30.5641
   -30.4936 -30.4895 -30.4890 -30.4861 -30.4789 -30.4745 -30.4735 -30.4698
   -30.4531 -30.4482 -30.4478 -30.4432 -30.4028 -30.3988 -30.3986 -30.3948
   -20.3010 -20.3009 -20.3009 -20.3008 -20.3007 -20.3006 -20.3006 -20.3005
   -20.2780 -20.2776 -20.2770 -20.2769 -20.2766 -20.2763 -20.2759 -20.2755
   -20.2751 -20.2750 -20.2750 -20.2747 -20.2745 -20.2743 -20.2742 -20.2740
   -20.2739 -20.2739 -20.2737 -20.2731 -20.2708 -20.2702 -20.2701 -20.2698
   -20.2697 -20.2693 -20.2693 -20.2683 -20.2680 -20.2673 -20.2672 -20.2663
   -20.2654 -20.2651 -20.2644 -20.2643 -20.2629 -20.2623 -20.2617 -20.2611
   -20.2606 -20.2594 -20.2594 -20.2592 -20.2582 -20.2580 -20.2578 -20.2567
    -9.9877  -9.8298  -9.6175  -9.5987  -9.4995  -9.4744  -9.2539  -9.2386
    -8.7885  -8.7024  -8.7017  -8.6885  -7.9756  -7.9625  -7.9365  -7.9286
    -7.9094  -7.9071  -7.8657  -7.8429  -7.7159  -7.6702  -7.6670  -7.6238
     1.0172   1.0241   1.1773   1.1976   1.2111   1.2321   1.4495   1.5319
     1.9509   2.0067   2.0163   2.1351   2.2870   2.3593   2.7211   2.7339
     2.8279   2.8437   3.9406   3.9567   3.9965   4.0424   4.1540   4.1706
     4.1797   4.1842   4.6503   4.6590   4.7868   4.8359   4.8955   5.0916
     5.1670   5.2330   5.2514   5.2972   5.3148   5.5271   5.5374   5.6795
     5.7058   5.8090   5.9692   5.9848   6.0372   6.1499   6.1964   6.2534
     6.2954   6.3618   6.4382   6.5091   6.5632   6.6756   6.7136   6.7377
     6.7556   6.8768   6.8912   6.9476   6.9555   6.9923   7.0453   7.0602
     7.0782   7.1296   7.9515   7.9545   8.0760   8.0928   8.1137   8.1197
     9.8246   9.8301  10.0835  10.1282  10.1677  10.2021  12.1812  12.2442
    12.3019  12.3291  12.5853  12.5967  12.6301  12.6435  12.9592  13.0432
    13.0809  13.1161  13.6897  13.6953  13.8415  13.8829  13.9285  13.9858
    14.5406  14.8141  14.8431  15.2762  15.7257  15.7393  15.7486  16.7042
    16.7111  17.1195  17.2756  17.2792  17.4227

          k = 0.1667 0.1575 0.3333 ( 62260 PWs)   bands (ev):

   -66.1532 -66.1527 -66.1527 -66.1523 -66.1522 -66.1519 -66.1518 -66.1514
   -30.5842 -30.5808 -30.5703 -30.5677 -30.5650 -30.5639 -30.5537 -30.5493
   -30.5140 -30.5095 -30.4995 -30.4961 -30.4881 -30.4844 -30.4735 -30.4708
   -30.4519 -30.4489 -30.4471 -30.4442 -30.4018 -30.3994 -30.3979 -30.3956
   -20.3010 -20.3009 -20.3009 -20.3008 -20.3007 -20.3006 -20.3006 -20.3005
   -20.2779 -20.2777 -20.2769 -20.2766 -20.2764 -20.2762 -20.2760 -20.2754
   -20.2754 -20.2751 -20.2750 -20.2747 -20.2745 -20.2744 -20.2743 -20.2741
   -20.2739 -20.2737 -20.2736 -20.2732 -20.2707 -20.2702 -20.2700 -20.2699
   -20.2698 -20.2695 -20.2691 -20.2685 -20.2670 -20.2664 -20.2657 -20.2656
   -20.2651 -20.2647 -20.2641 -20.2639 -20.2625 -20.2622 -20.2621 -20.2619
   -20.2617 -20.2607 -20.2606 -20.2599 -20.2590 -20.2581 -20.2578 -20.2570
    -9.8454  -9.6840  -9.6376  -9.5048  -9.3554  -9.2129  -9.1127  -9.0872
    -8.8391  -8.7289  -8.6712  -8.6702  -8.3359  -8.3036  -8.2995  -8.2510
    -7.9461  -7.9157  -7.9043  -7.8739  -7.7069  -7.6797  -7.6583  -7.6327
     1.1926   1.2097   1.2173   1.2370   1.8288   1.8434   1.9540   1.9889
     2.0053   2.1420   2.1514   2.3390   2.5630   2.6348   2.7490   2.8125
     2.9836   3.0754   3.5140   3.6009   3.8798   3.9172   4.0055   4.0703
     4.1826   4.2376   4.3375   4.3857   4.5062   4.6008   4.6237   4.7279
     4.7617   4.7920   4.8562   5.0191   5.0715   5.0860   5.3444   5.5577
     5.6958   5.7454   5.8250   5.8767   5.9419   6.0091   6.0944   6.1521
     6.2801   6.4613   6.5392   6.6534   6.6839   6.7061   6.7309   6.7525
     6.8435   6.8949   6.9617   7.0056   7.0296   7.0535   7.1087   7.1461
     7.2478   7.3261   7.8030   7.8078   7.9637   7.9831   8.0946   8.0985
    10.1128  10.1440  10.5043  10.5416  10.8000  10.8363  12.0756  12.1152
    12.1854  12.3361  12.4248  12.4675  12.5320  12.5871  12.7606  12.8125
    12.9732  13.0915  13.3810  13.4782  13.5126  13.5982  13.8547  13.8725
    14.6833  14.8202  15.1625  15.5732  15.6709  16.1501  16.3632  16.6209
    16.6594  17.4209  17.6340  17.6493  17.6818

          k = 0.1667 0.1575-0.5000 ( 62292 PWs)   bands (ev):

   -66.1529 -66.1529 -66.1525 -66.1525 -66.1520 -66.1520 -66.1516 -66.1516
   -30.5824 -30.5824 -30.5669 -30.5669 -30.5417 -30.5416 -30.5370 -30.5370
   -30.5268 -30.5268 -30.5225 -30.5225 -30.4867 -30.4867 -30.4722 -30.4721
   -30.4504 -30.4504 -30.4457 -30.4457 -30.4006 -30.4005 -30.3967 -30.3967
   -20.3010 -20.3009 -20.3009 -20.3008 -20.3007 -20.3007 -20.3006 -20.3005
   -20.2778 -20.2778 -20.2766 -20.2766 -20.2763 -20.2763 -20.2758 -20.2758
   -20.2753 -20.2753 -20.2748 -20.2747 -20.2745 -20.2745 -20.2742 -20.2742
   -20.2738 -20.2738 -20.2733 -20.2733 -20.2704 -20.2704 -20.2699 -20.2699
   -20.2698 -20.2698 -20.2688 -20.2688 -20.2660 -20.2659 -20.2655 -20.2655
   -20.2639 -20.2639 -20.2635 -20.2635 -20.2630 -20.2629 -20.2623 -20.2623
   -20.2616 -20.2616 -20.2615 -20.2615 -20.2586 -20.2586 -20.2574 -20.2574
    -9.7153  -9.7153  -9.5668  -9.5668  -9.0233  -9.0233  -8.8630  -8.8630
    -8.7848  -8.7848  -8.7615  -8.7615  -8.6023  -8.6023  -8.5638  -8.5638
    -7.9264  -7.9264  -7.8945  -7.8945  -7.6934  -7.6934  -7.6456  -7.6456
     1.2148   1.2149   1.2387   1.2387   1.9312   1.9312   1.9899   1.9899
     2.7590   2.7590   2.8932   2.8932   2.9511   2.9511   3.0318   3.0318
     3.0677   3.0677   3.2129   3.2129   3.3189   3.3189   3.7150   3.7150
     3.8079   3.8079   4.0834   4.0834   4.4832   4.4832   4.6454   4.6454
     4.7126   4.7126   4.7918   4.7918   4.8997   4.8997   5.4761   5.4761
     5.6397   5.6397   5.7621   5.7621   5.8870   5.8870   6.1258   6.1258
     6.4446   6.4446   6.6032   6.6032   6.6623   6.6624   6.7561   6.7561
     6.8464   6.8464   6.9825   6.9825   7.0661   7.0661   7.4913   7.4913
     7.5106   7.5106   7.6878   7.6878   7.7188   7.7188   8.0982   8.0982
    10.1339  10.1339  11.3218  11.3218  11.3616  11.3616  11.6122  11.6123
    11.6708  11.6708  12.3488  12.3488  12.7717  12.7717  12.9148  12.9148
    13.0734  13.0734  13.1325  13.1325  13.2506  13.2506  13.8496  13.8496
    14.7755  14.7755  15.4535  15.4535  16.0719  16.0719  16.4624  16.4624
    17.2414  17.2414  17.7453  17.7454  17.9475

          k = 0.1667 0.3150 0.1667 ( 62249 PWs)   bands (ev):

   -66.1533 -66.1530 -66.1524 -66.1524 -66.1521 -66.1521 -66.1515 -66.1512
   -30.5892 -30.5860 -30.5840 -30.5797 -30.5727 -30.5693 -30.5690 -30.5642
   -30.4934 -30.4892 -30.4890 -30.4860 -30.4787 -30.4744 -30.4733 -30.4698
   -30.4425 -30.4380 -30.4376 -30.4333 -30.4135 -30.4094 -30.4092 -30.4052
   -20.3010 -20.3009 -20.3009 -20.3008 -20.3007 -20.3006 -20.3006 -20.3005
   -20.2778 -20.2774 -20.2769 -20.2769 -20.2766 -20.2761 -20.2760 -20.2755
   -20.2751 -20.2751 -20.2748 -20.2744 -20.2743 -20.2743 -20.2739 -20.2736
   -20.2735 -20.2734 -20.2731 -20.2727 -20.2713 -20.2710 -20.2708 -20.2705
   -20.2703 -20.2697 -20.2694 -20.2683 -20.2680 -20.2673 -20.2672 -20.2663
   -20.2654 -20.2651 -20.2644 -20.2643 -20.2629 -20.2623 -20.2617 -20.2611
   -20.2606 -20.2594 -20.2594 -20.2592 -20.2582 -20.2580 -20.2578 -20.2567
    -9.9441  -9.8547  -9.5832  -9.5622  -9.5140  -9.4898  -9.2507  -9.2418
    -8.5838  -8.5285  -8.5269  -8.5185  -8.0205  -7.9840  -7.9788  -7.9523
    -7.9471  -7.9341  -7.9096  -7.8929  -7.8841  -7.8599  -7.8462  -7.8309
     1.0184   1.0226   1.1810   1.2009   1.2159   1.2357   1.5057   1.5304
     2.3008   2.3408   2.5319   2.6172   2.6340   2.7374   2.9459   2.9759
     3.0417   3.0742   3.5859   3.6264   3.6492   3.7119   4.1351   4.1442
     4.1509   4.1660   4.1985   4.5646   4.5775   4.7950   4.8686   4.9461
     4.9787   4.9965   5.0628   5.1240   5.2799   5.3722   5.4356   5.4432
     5.7141   5.7219   5.8023   5.8063   5.9238   5.9349   6.1561   6.1730
     6.3213   6.3540   6.3896   6.5252   6.5563   6.6751   6.7226   6.7555
     6.8722   6.8854   6.9634   6.9823   6.9948   7.0061   7.1950   7.2207
     7.2380   7.2486   7.8817   7.8919   7.9065   7.9152   7.9581   7.9781
     9.8354   9.8390  10.5641  10.6054  10.6567  10.6725  11.7736  11.8303
    11.8738  11.8960  12.5891  12.6002  12.6346  12.6447  13.0816  13.1553
    13.1763  13.2090  13.5452  13.5881  13.6252  13.6648  13.8499  13.8698
    15.4244  15.5399  15.5692  15.5754  15.7401  15.7498  16.5438  16.5531
    16.5635  16.7633  17.3210  17.5060  17.5177

          k = 0.1667 0.3150 0.3333 ( 62265 PWs)   bands (ev):

   -66.1531 -66.1528 -66.1526 -66.1523 -66.1522 -66.1519 -66.1517 -66.1514
   -30.5841 -30.5808 -30.5703 -30.5677 -30.5650 -30.5639 -30.5538 -30.5494
   -30.5139 -30.5094 -30.4995 -30.4961 -30.4880 -30.4842 -30.4735 -30.4708
   -30.4414 -30.4385 -30.4369 -30.4342 -30.4125 -30.4100 -30.4085 -30.4060
   -20.3010 -20.3009 -20.3009 -20.3008 -20.3007 -20.3006 -20.3006 -20.3005
   -20.2777 -20.2775 -20.2767 -20.2766 -20.2763 -20.2762 -20.2761 -20.2754
   -20.2753 -20.2750 -20.2750 -20.2745 -20.2744 -20.2742 -20.2741 -20.2738
   -20.2734 -20.2733 -20.2731 -20.2729 -20.2712 -20.2709 -20.2708 -20.2705
   -20.2703 -20.2699 -20.2691 -20.2685 -20.2670 -20.2664 -20.2657 -20.2656
   -20.2651 -20.2648 -20.2641 -20.2639 -20.2625 -20.2622 -20.2621 -20.2619
   -20.2617 -20.2607 -20.2606 -20.2599 -20.2590 -20.2582 -20.2578 -20.2570
    -9.7995  -9.7082  -9.5986  -9.5218  -9.3080  -9.2283  -9.1071  -9.0907
    -8.6493  -8.5731  -8.5081  -8.5074  -8.3477  -8.3220  -8.2865  -8.2310
    -7.9754  -7.9654  -7.9326  -7.9209  -7.9191  -7.8880  -7.8740  -7.8462
     1.1959   1.2147   1.2202   1.2408   1.9630   1.9917   2.0797   2.1404
     2.5332   2.5740   2.5991   2.6091   2.6324   2.7652   2.9650   3.0304
     3.2166   3.2896   3.4967   3.5887   3.6523   3.6614   3.7317   3.7807
     4.1324   4.2283   4.3091   4.3431   4.3807   4.4208   4.5112   4.5586
     4.5882   4.7577   4.7902   4.8628   4.9614   4.9906   5.0022   5.1533
     5.3016   5.4073   5.4675   5.6975   5.7335   5.9242   5.9581   6.0056
     6.3902   6.4848   6.5815   6.7018   6.7339   6.7781   6.8200   6.8316
     6.9228   6.9908   7.0768   7.0949   7.1486   7.2165   7.2326   7.2696
     7.3029   7.3349   7.7765   7.8061   7.8173   7.8231   7.9034   7.9290
    10.4767  10.5123  10.6371  10.6763  11.1129  11.1583  11.8242  11.8797
    12.0673  12.1059  12.1318  12.1634  12.6034  12.6387  12.7654  12.8163
    13.0623  13.1531  13.1605  13.2334  13.4723  13.5335  13.6720  13.7160
    15.5062  15.5460  15.8715  16.0519  16.1205  16.4233  16.5191  16.6607
    16.8903  16.9194  17.4746  17.6445  17.7653

          k = 0.1667 0.3150-0.5000 ( 62264 PWs)   bands (ev):

   -66.1529 -66.1529 -66.1525 -66.1525 -66.1520 -66.1520 -66.1517 -66.1517
   -30.5824 -30.5823 -30.5670 -30.5669 -30.5416 -30.5416 -30.5369 -30.5369
   -30.5268 -30.5268 -30.5225 -30.5225 -30.4865 -30.4865 -30.4721 -30.4721
   -30.4400 -30.4399 -30.4355 -30.4355 -30.4112 -30.4112 -30.4072 -30.4072
   -20.3010 -20.3009 -20.3009 -20.3008 -20.3007 -20.3007 -20.3006 -20.3005
   -20.2776 -20.2776 -20.2765 -20.2764 -20.2763 -20.2763 -20.2758 -20.2758
   -20.2752 -20.2752 -20.2747 -20.2747 -20.2742 -20.2742 -20.2740 -20.2740
   -20.2732 -20.2732 -20.2731 -20.2731 -20.2710 -20.2710 -20.2707 -20.2707
   -20.2702 -20.2702 -20.2688 -20.2688 -20.2659 -20.2659 -20.2656 -20.2656
   -20.2639 -20.2639 -20.2635 -20.2635 -20.2630 -20.2630 -20.2623 -20.2623
   -20.2616 -20.2616 -20.2615 -20.2615 -20.2586 -20.2586 -20.2574 -20.2574
    -9.6719  -9.6719  -9.5871  -9.5871  -8.9247  -8.9247  -8.8252  -8.8252
    -8.7971  -8.7971  -8.7683  -8.7683  -8.4754  -8.4754  -8.4520  -8.4520
    -7.9657  -7.9657  -7.9338  -7.9338  -7.9031  -7.9031  -7.8622  -7.8622
     1.2206   1.2206   1.2421   1.2422   2.5107   2.5107   2.5955   2.5955
     2.8841   2.8841   2.9225   2.9225   2.9969   2.9969   3.0616   3.0616
     3.0872   3.0872   3.2759   3.2759   3.3120   3.3120   3.6485   3.6485
     3.9516   3.9517   4.0040   4.0040   4.0692   4.0692   4.3167   4.3167
     4.6606   4.6607   4.7220   4.7220   4.9061   4.9061   5.0190   5.0190
     5.0922   5.0923   5.5323   5.5323   5.7855   5.7855   5.9319   5.9319
     6.5530   6.5530   6.6481   6.6481   6.6903   6.6903   6.8103   6.8104
     7.0964   7.0964   7.1622   7.1622   7.2295   7.2296   7.4766   7.4766
     7.5361   7.5361   7.6069   7.6069   7.6332   7.6332   7.9120   7.9120
    10.6231  10.6232  11.3268  11.3268  11.3658  11.3659  11.7480  11.7480
    11.8682  11.8682  11.9965  11.9965  12.5552  12.5552  12.6158  12.6158
    13.0250  13.0250  13.1291  13.1291  13.2805  13.2805  13.6511  13.6512
    15.5329  15.5329  16.3039  16.3039  16.3636  16.3637  16.4664  16.4664
    17.3271  17.3271  17.4006  17.4007  17.9504

          k = 0.1667-0.4725 0.1667 ( 62220 PWs)   bands (ev):

   -66.1533 -66.1530 -66.1524 -66.1524 -66.1521 -66.1521 -66.1515 -66.1513
   -30.5891 -30.5860 -30.5840 -30.5796 -30.5727 -30.5693 -30.5691 -30.5642
   -30.4934 -30.4891 -30.4890 -30.4860 -30.4787 -30.4744 -30.4732 -30.4698
   -30.4282 -30.4279 -30.4238 -30.4238 -30.4237 -30.4233 -30.4195 -30.4193
   -20.3010 -20.3009 -20.3009 -20.3008 -20.3007 -20.3006 -20.3006 -20.3005
   -20.2777 -20.2773 -20.2769 -20.2768 -20.2766 -20.2761 -20.2760 -20.2754
   -20.2752 -20.2751 -20.2747 -20.2744 -20.2744 -20.2742 -20.2739 -20.2735
   -20.2726 -20.2725 -20.2724 -20.2721 -20.2720 -20.2719 -20.2717 -20.2714
   -20.2706 -20.2697 -20.2694 -20.2683 -20.2680 -20.2673 -20.2672 -20.2663
   -20.2654 -20.2651 -20.2644 -20.2643 -20.2629 -20.2623 -20.2617 -20.2611
   -20.2606 -20.2594 -20.2594 -20.2592 -20.2582 -20.2580 -20.2578 -20.2567
    -9.8953  -9.8942  -9.5581  -9.5352  -9.5297  -9.5070  -9.2467  -9.2458
    -8.2950  -8.2945  -8.2601  -8.2594  -8.2567  -8.2558  -8.2460  -8.2451
    -7.9557  -7.9488  -7.9294  -7.9224  -7.8903  -7.8862  -7.8540  -7.8499
     1.0194   1.0213   1.1820   1.2019   1.2171   1.2368   1.5237   1.5257
     2.3209   2.3214   3.1353   3.1427   3.1881   3.1947   3.2345   3.2384
     3.3240   3.3308   3.3978   3.4010   3.6418   3.6455   3.6750   3.6770
     3.8484   3.8490   4.1406   4.1531   4.1605   4.1690   4.9407   4.9541
     5.0519   5.0598   5.2044   5.2205   5.2307   5.2414   5.4300   5.4415
     5.5331   5.5380   5.7492   5.7693   5.7762   5.7881   6.1789   6.1852
     6.3475   6.3583   6.5196   6.5256   6.5462   6.5536   6.7883   6.7986
     6.8139   6.8256   6.9816   6.9854   7.0301   7.0323   7.5535   7.5587
     7.5765   7.5796   7.5845   7.5918   7.5958   7.6063   7.9614   7.9618
     9.8387   9.8401  11.1671  11.1899  11.2179  11.2385  11.2650  11.2707
    11.3054  11.3232  12.5910  12.6015  12.6371  12.6455  13.2653  13.2757
    13.3490  13.3702  13.3864  13.3927  13.3988  13.4167  13.8334  13.8338
    15.7272  15.7327  15.9959  16.0016  16.1881  16.2070  16.2168  16.2365
    16.4980  16.5002  17.8132  17.8262  17.8620

          k = 0.1667-0.4725 0.3333 ( 62252 PWs)   bands (ev):

   -66.1531 -66.1528 -66.1526 -66.1523 -66.1522 -66.1519 -66.1517 -66.1514
   -30.5841 -30.5807 -30.5703 -30.5678 -30.5651 -30.5638 -30.5538 -30.5494
   -30.5139 -30.5094 -30.4995 -30.4960 -30.4879 -30.4841 -30.4735 -30.4708
   -30.4271 -30.4268 -30.4245 -30.4241 -30.4228 -30.4227 -30.4202 -30.4201
   -20.3010 -20.3009 -20.3009 -20.3008 -20.3007 -20.3006 -20.3006 -20.3005
   -20.2776 -20.2774 -20.2767 -20.2766 -20.2762 -20.2762 -20.2761 -20.2754
   -20.2752 -20.2750 -20.2749 -20.2746 -20.2743 -20.2741 -20.2740 -20.2736
   -20.2725 -20.2724 -20.2723 -20.2722 -20.2720 -20.2720 -20.2719 -20.2716
   -20.2704 -20.2700 -20.2691 -20.2685 -20.2670 -20.2665 -20.2657 -20.2656
   -20.2651 -20.2648 -20.2641 -20.2639 -20.2625 -20.2622 -20.2621 -20.2619
   -20.2617 -20.2607 -20.2606 -20.2599 -20.2590 -20.2582 -20.2578 -20.2570
    -9.7540  -9.7430  -9.5683  -9.5415  -9.2745  -9.2470  -9.1034  -9.0935
    -8.4339  -8.4179  -8.4021  -8.3885  -8.2544  -8.2517  -8.2443  -8.2420
    -8.1916  -8.1847  -8.1518  -8.1418  -7.9316  -7.9089  -7.8918  -7.8691
     1.1967   1.2157   1.2211   1.2420   1.9757   1.9947   2.1230   2.1361
     2.5916   2.5937   3.1461   3.1918   3.1944   3.2433   3.2591   3.2907
     3.3600   3.3726   3.4413   3.4604   3.5657   3.5802   3.6282   3.6586
     3.7611   3.7754   3.8712   3.8817   4.2962   4.3350   4.4033   4.4630
     4.5600   4.5993   4.8070   4.8124   4.9146   4.9487   4.9670   4.9973
     5.2262   5.2594   5.3355   5.4223   5.7678   5.7825   5.9571   5.9760
     6.4502   6.4676   6.6657   6.6952   6.7638   6.7888   6.8226   6.8384
     6.9268   6.9747   7.1795   7.2053   7.2314   7.2542   7.5226   7.5296
     7.5476   7.5613   7.5631   7.5696   7.5889   7.6156   7.8257   7.8342
    10.5094  10.5216  11.2305  11.2505  11.2698  11.2893  11.5817  11.5988
    11.6270  11.6579  12.0959  12.1383  12.7464  12.8155  12.8415  12.8585
    12.8645  12.9015  13.2455  13.2931  13.3753  13.3904  13.5958  13.6403
    15.9649  15.9989  16.1571  16.1847  16.4238  16.4446  16.8981  16.9054
    16.9666  16.9778  17.3169  17.3316  17.8236

          k = 0.1667-0.4725-0.5000 ( 62232 PWs)   bands (ev):

   -66.1528 -66.1528 -66.1526 -66.1526 -66.1520 -66.1519 -66.1517 -66.1517
   -30.5823 -30.5823 -30.5670 -30.5670 -30.5415 -30.5415 -30.5369 -30.5369
   -30.5268 -30.5268 -30.5225 -30.5225 -30.4865 -30.4864 -30.4722 -30.4721
   -30.4258 -30.4258 -30.4255 -30.4254 -30.4215 -30.4215 -30.4214 -30.4214
   -20.3010 -20.3009 -20.3009 -20.3008 -20.3007 -20.3007 -20.3006 -20.3005
   -20.2775 -20.2775 -20.2764 -20.2764 -20.2764 -20.2763 -20.2758 -20.2758
   -20.2751 -20.2751 -20.2748 -20.2748 -20.2742 -20.2742 -20.2739 -20.2739
   -20.2723 -20.2723 -20.2722 -20.2722 -20.2721 -20.2721 -20.2718 -20.2718
   -20.2702 -20.2702 -20.2688 -20.2688 -20.2659 -20.2659 -20.2656 -20.2656
   -20.2639 -20.2639 -20.2635 -20.2635 -20.2630 -20.2630 -20.2623 -20.2623
   -20.2616 -20.2616 -20.2615 -20.2615 -20.2586 -20.2586 -20.2574 -20.2574
    -9.6351  -9.6351  -9.6128  -9.6128  -8.8595  -8.8595  -8.8339  -8.8338
    -8.7945  -8.7945  -8.7754  -8.7754  -8.2446  -8.2445  -8.2369  -8.2369
    -8.2209  -8.2208  -8.2133  -8.2133  -7.9119  -7.9119  -7.8891  -7.8891
     1.2218   1.2218   1.2432   1.2433   2.8896   2.8896   2.9036   2.9037
     2.9833   2.9833   3.0139   3.0139   3.1353   3.1353   3.1867   3.1867
     3.2721   3.2721   3.3121   3.3121   3.4168   3.4168   3.4587   3.4587
     3.6488   3.6488   3.7023   3.7023   4.2758   4.2758   4.2931   4.2931
     4.3624   4.3624   4.3861   4.3861   4.6883   4.6883   4.7486   4.7486
     5.2343   5.2344   5.3075   5.3075   5.8046   5.8046   5.8234   5.8235
     6.6057   6.6057   6.6334   6.6334   6.7503   6.7503   6.7755   6.7755
     7.3188   7.3189   7.3780   7.3780   7.4085   7.4085   7.4516   7.4516
     7.4655   7.4655   7.5131   7.5131   7.6426   7.6426   7.6710   7.6710
    11.1846  11.1846  11.2343  11.2343  11.3681  11.3681  11.4298  11.4298
    12.1700  12.1700  12.1830  12.1830  12.2222  12.2222  12.2431  12.2431
    13.0489  13.0489  13.1264  13.1264  13.3853  13.3853  13.4497  13.4497
    16.0959  16.0959  16.1271  16.1271  16.8335  16.8335  16.8357  16.8358
    17.5710  17.5711  17.6073  17.6073  17.7450

          k = 0.3333 0.0000 0.3333 ( 62316 PWs)   bands (ev):

   -66.1530 -66.1525 -66.1525 -66.1525 -66.1520 -66.1520 -66.1520 -66.1515
   -30.5685 -30.5655 -30.5652 -30.5613 -30.5521 -30.5502 -30.5483 -30.5455
   -30.5131 -30.5108 -30.5085 -30.5076 -30.4980 -30.4946 -30.4937 -30.4910
   -30.4547 -30.4517 -30.4515 -30.4487 -30.3970 -30.3947 -30.3946 -30.3924
   -20.3010 -20.3009 -20.3009 -20.3008 -20.3007 -20.3006 -20.3006 -20.3005
   -20.2777 -20.2775 -20.2771 -20.2768 -20.2765 -20.2763 -20.2759 -20.2755
   -20.2753 -20.2752 -20.2750 -20.2748 -20.2747 -20.2745 -20.2743 -20.2743
   -20.2740 -20.2737 -20.2737 -20.2733 -20.2701 -20.2698 -20.2697 -20.2693
   -20.2690 -20.2688 -20.2680 -20.2675 -20.2670 -20.2667 -20.2664 -20.2657
   -20.2653 -20.2651 -20.2645 -20.2643 -20.2621 -20.2619 -20.2616 -20.2615
   -20.2613 -20.2606 -20.2604 -20.2602 -20.2598 -20.2591 -20.2589 -20.2581
    -9.6893  -9.4795  -9.4230  -9.4104  -9.2397  -9.2179  -9.0079  -8.9926
    -8.9583  -8.7416  -8.7364  -8.7057  -8.3931  -8.3182  -8.3109  -8.2996
    -8.2900  -8.2784  -8.2171  -8.1928  -7.6000  -7.5718  -7.5696  -7.5425
     1.6386   1.6604   1.6622   1.7233   1.8292   1.8372   1.9922   2.0165
     2.0885   2.1082   2.2810   2.4218   2.8462   2.8983   2.9145   2.9499
     2.9648   3.0329   3.6532   3.6845   3.7869   3.8234   3.8784   3.9183
     4.1020   4.1102   4.1299   4.2190   4.2553   4.2645   4.3925   4.4143
     4.6089   4.7315   4.7648   4.8236   4.8303   4.8400   4.9319   5.2222
     5.2615   5.3255   5.3601   5.7101   6.1681   6.1728   6.2112   6.2318
     6.5222   6.5444   6.5619   6.6607   6.6997   6.7573   6.7818   6.7830
     6.9830   7.0373   7.0412   7.0635   7.1406   7.1537   7.2077   7.2380
     7.2537   7.4491   7.7032   7.7140   7.9609   8.0162   8.0416   8.0719
    10.5952  10.6613  10.6850  10.7280  10.9953  11.0597  12.2151  12.2289
    12.2693  12.3161  12.3262  12.3468  12.4678  12.4843  12.6922  12.7248
    12.7475  12.8182  13.1370  13.2159  13.5000  13.5612  13.5884  13.6772
    14.4779  14.7291  14.7350  15.1370  15.9339  16.8465  16.8666  16.9580
    16.9825  17.6626  17.6795  17.7490  17.8580

          k = 0.3333 0.0000-0.5000 ( 62288 PWs)   bands (ev):

   -66.1528 -66.1527 -66.1523 -66.1523 -66.1522 -66.1522 -66.1518 -66.1518
   -30.5629 -30.5629 -30.5479 -30.5479 -30.5402 -30.5402 -30.5379 -30.5379
   -30.5259 -30.5259 -30.5238 -30.5238 -30.5064 -30.5064 -30.4925 -30.4925
   -30.4531 -30.4531 -30.4502 -30.4502 -30.3958 -30.3957 -30.3935 -30.3935
   -20.3009 -20.3009 -20.3009 -20.3009 -20.3006 -20.3006 -20.3006 -20.3006
   -20.2776 -20.2776 -20.2769 -20.2769 -20.2762 -20.2761 -20.2759 -20.2759
   -20.2753 -20.2753 -20.2748 -20.2748 -20.2747 -20.2746 -20.2744 -20.2744
   -20.2738 -20.2738 -20.2735 -20.2735 -20.2700 -20.2699 -20.2696 -20.2696
   -20.2689 -20.2689 -20.2678 -20.2678 -20.2666 -20.2666 -20.2658 -20.2658
   -20.2639 -20.2639 -20.2632 -20.2632 -20.2632 -20.2632 -20.2624 -20.2624
   -20.2614 -20.2614 -20.2609 -20.2609 -20.2596 -20.2596 -20.2585 -20.2585
    -9.5112  -9.5112  -9.2969  -9.2969  -9.1253  -9.1253  -8.8333  -8.8333
    -8.8009  -8.8009  -8.7294  -8.7294  -8.6253  -8.6253  -8.6014  -8.6014
    -8.2815  -8.2815  -8.2579  -8.2579  -7.5861  -7.5860  -7.5561  -7.5561
     1.6550   1.6550   1.7096   1.7096   2.0118   2.0118   2.0835   2.0835
     2.8964   2.8964   2.9583   2.9583   2.9862   2.9862   3.0610   3.0610
     3.0834   3.0834   3.3810   3.3810   3.4917   3.4918   3.7158   3.7158
     3.7218   3.7218   3.9404   3.9404   4.0984   4.0984   4.1617   4.1617
     4.4639   4.4639   4.7311   4.7311   4.8246   4.8246   4.9073   4.9073
[...]
   -20.6544 -20.6544 -20.6541 -20.6541 -20.6518 -20.6518 -20.6512 -20.6512
   -20.6491 -20.6491 -20.6489 -20.6489 -20.6475 -20.6475 -20.6469 -20.6469
   -20.6463 -20.6463 -20.6463 -20.6463 -20.6439 -20.6439 -20.6435 -20.6435
   -20.6432 -20.6432 -20.6427 -20.6427 -20.6412 -20.6412 -20.6406 -20.6406
    -9.7691  -9.7691  -9.6110  -9.6110  -9.2828  -9.2828  -9.0630  -9.0630
    -8.8936  -8.8935  -8.8369  -8.8368  -8.7836  -8.7835  -8.7527  -8.7527
    -8.4283  -8.4283  -8.4022  -8.4022  -8.1104  -8.1104  -8.0795  -8.0795
     1.1989   1.1989   1.2228   1.2228   2.0011   2.0011   2.0916   2.0916
     2.7310   2.7310   2.8296   2.8296   2.8611   2.8612   2.9512   2.9512
     2.9777   2.9777   3.1797   3.1797   3.2161   3.2161   3.4651   3.4651
     3.6337   3.6337   3.6747   3.6747   3.8833   3.8833   4.0794   4.0794
     4.3849   4.3849   4.5153   4.5153   4.6157   4.6157   4.6818   4.6818
     4.7641   4.7641   5.1851   5.1851   5.5422   5.5422   5.6399   5.6399
     6.3679   6.3679   6.4542   6.4542   6.5289   6.5289   6.5674   6.5674
     6.7711   6.7711   6.8240   6.8240   6.9279   6.9279   7.2580   7.2581
     7.2835   7.2835   7.3314   7.3314   7.3653   7.3654   7.6246   7.6246
    10.2935  10.2935  10.9046  10.9046  10.9406  10.9406  11.3634  11.3634
    11.4630  11.4630  11.7267  11.7267  12.2777  12.2777  12.3032  12.3032
    12.5494  12.5494  12.6255  12.6255  12.7314  12.7314  13.2409  13.2409
    15.1003  15.1003  15.5701  15.5701  16.0657  16.0657  16.3555  16.3555
    16.6796  16.6796  17.0253  17.0253  17.5642

          k = 0.3278 0.4799 0.1638 ( 63446 PWs)   bands (ev):

   -66.5138 -66.5135 -66.5135 -66.5132 -66.5132 -66.5129 -66.5128 -66.5125
   -30.8571 -30.8548 -30.8497 -30.8463 -30.8439 -30.8415 -30.8410 -30.8396
   -30.8375 -30.8369 -30.8360 -30.8348 -30.8263 -30.8254 -30.8212 -30.8181
   -30.7908 -30.7883 -30.7805 -30.7771 -30.7745 -30.7718 -30.7636 -30.7613
   -20.6831 -20.6831 -20.6829 -20.6829 -20.6828 -20.6827 -20.6826 -20.6825
   -20.6591 -20.6589 -20.6584 -20.6581 -20.6581 -20.6578 -20.6573 -20.6570
   -20.6559 -20.6555 -20.6554 -20.6551 -20.6549 -20.6547 -20.6542 -20.6541
   -20.6538 -20.6535 -20.6532 -20.6531 -20.6529 -20.6528 -20.6525 -20.6523
   -20.6494 -20.6493 -20.6489 -20.6488 -20.6486 -20.6482 -20.6478 -20.6477
   -20.6463 -20.6456 -20.6453 -20.6452 -20.6444 -20.6440 -20.6438 -20.6434
   -20.6432 -20.6427 -20.6424 -20.6418 -20.6414 -20.6407 -20.6406 -20.6405
    -9.7943  -9.7837  -9.6138  -9.5874  -9.3384  -9.3132  -9.1186  -9.1104
    -8.8697  -8.8678  -8.7934  -8.7909  -8.7539  -8.7528  -8.7482  -8.7449
    -8.4435  -8.4183  -8.4002  -8.3766  -8.1260  -8.1003  -8.0898  -8.0642
     1.1943   1.1990   1.2150   1.2212   1.9195   1.9390   2.0365   2.0527
     2.6775   2.6809   2.8468   2.8582   2.9159   2.9282   2.9571   2.9748
     3.0082   3.0234   3.1602   3.1986   3.2364   3.2762   3.4085   3.4257
     3.4732   3.4827   3.6152   3.6508   4.0280   4.0405   4.2093   4.2234
     4.3179   4.3669   4.5157   4.5410   4.5739   4.6478   4.6697   4.6802
     4.7823   4.8171   5.0808   5.1271   5.4946   5.5067   5.7738   5.7822
     6.3436   6.3647   6.3939   6.4142   6.5229   6.5525   6.6742   6.6828
     6.7944   6.8015   6.8633   6.8969   6.9573   6.9727   7.2061   7.2140
     7.2367   7.2474   7.2731   7.2850   7.2906   7.3175   7.6297   7.6367
    10.1414  10.1547  10.9380  10.9583  10.9729  10.9892  11.3230  11.3393
    11.3462  11.3773  11.6200  11.6666  12.2473  12.3015  12.4011  12.4041
    12.4399  12.4573  12.8025  12.8838  12.9039  12.9308  12.9984  13.0722
    15.2189  15.2490  15.5197  15.5548  15.9949  16.0166  16.4418  16.4703
    16.6525  16.6622  17.0650  17.0982  17.5559

          k =-0.4917 0.4799 0.1638 ( 63412 PWs)   bands (ev):

   -66.5137 -66.5136 -66.5133 -66.5133 -66.5130 -66.5130 -66.5127 -66.5127
   -30.8559 -30.8559 -30.8450 -30.8450 -30.8404 -30.8404 -30.8386 -30.8386
   -30.8382 -30.8382 -30.8365 -30.8365 -30.8108 -30.8108 -30.8086 -30.8086
   -30.8015 -30.8015 -30.7978 -30.7978 -30.7736 -30.7736 -30.7625 -30.7625
   -20.6831 -20.6831 -20.6829 -20.6829 -20.6828 -20.6828 -20.6826 -20.6826
   -20.6590 -20.6590 -20.6583 -20.6583 -20.6580 -20.6580 -20.6571 -20.6571
   -20.6557 -20.6557 -20.6553 -20.6553 -20.6545 -20.6545 -20.6544 -20.6544
   -20.6536 -20.6536 -20.6531 -20.6531 -20.6529 -20.6529 -20.6524 -20.6524
   -20.6491 -20.6491 -20.6489 -20.6489 -20.6475 -20.6475 -20.6469 -20.6469
   -20.6464 -20.6464 -20.6463 -20.6463 -20.6439 -20.6439 -20.6435 -20.6435
   -20.6432 -20.6432 -20.6427 -20.6427 -20.6411 -20.6411 -20.6406 -20.6406
    -9.6824  -9.6824  -9.6609  -9.6609  -9.0365  -9.0364  -9.0158  -9.0158
    -8.9005  -8.9004  -8.8859  -8.8859  -8.7092  -8.7092  -8.6864  -8.6864
    -8.6718  -8.6718  -8.6486  -8.6485  -8.1083  -8.1083  -8.0824  -8.0824
     1.2038   1.2039   1.2261   1.2261   2.7096   2.7096   2.7888   2.7888
     2.8171   2.8171   2.8632   2.8632   2.9240   2.9240   2.9600   2.9601
     3.0572   3.0572   3.1278   3.1278   3.1757   3.1757   3.2313   3.2313
     3.2625   3.2625   3.4558   3.4558   3.9213   3.9213   3.9834   3.9835
     4.0016   4.0016   4.0716   4.0716   4.5133   4.5133   4.5896   4.5896
     4.8657   4.8657   4.9453   4.9453   5.5568   5.5568   5.5703   5.5704
     6.4425   6.4425   6.4993   6.4993   6.5137   6.5137   6.5598   6.5598
     7.0338   7.0338   7.0605   7.0606   7.1185   7.1185   7.1642   7.1642
     7.1801   7.1802   7.2592   7.2592   7.3911   7.3911   7.4246   7.4247
    10.8442  10.8442  10.8974  10.8974  10.9861  10.9861  11.0488  11.0488
    11.7965  11.7965  11.8328  11.8328  11.8973  11.8973  11.9131  11.9131
    12.5443  12.5443  12.6146  12.6147  12.9064  12.9064  12.9636  12.9636
    15.4106  15.4106  15.4466  15.4466  16.5398  16.5399  16.5907  16.5907
    17.2652  17.2652  17.3112  17.3113  17.3821

          k =-0.4917 0.0000 0.3275 ( 63402 PWs)   bands (ev):

   -66.5137 -66.5137 -66.5133 -66.5133 -66.5131 -66.5131 -66.5127 -66.5127
   -30.8760 -30.8760 -30.8735 -30.8735 -30.8368 -30.8368 -30.8246 -30.8246
   -30.8174 -30.8174 -30.8165 -30.8165 -30.8053 -30.8053 -30.8046 -30.8046
   -30.7982 -30.7982 -30.7930 -30.7930 -30.7857 -30.7857 -30.7776 -30.7776
   -20.6831 -20.6831 -20.6829 -20.6829 -20.6827 -20.6827 -20.6826 -20.6826
   -20.6590 -20.6590 -20.6586 -20.6586 -20.6578 -20.6578 -20.6573 -20.6573
   -20.6566 -20.6566 -20.6562 -20.6562 -20.6553 -20.6553 -20.6551 -20.6551
   -20.6544 -20.6544 -20.6542 -20.6542 -20.6504 -20.6504 -20.6499 -20.6499
   -20.6481 -20.6481 -20.6478 -20.6478 -20.6474 -20.6474 -20.6466 -20.6465
   -20.6461 -20.6461 -20.6460 -20.6460 -20.6443 -20.6443 -20.6440 -20.6440
   -20.6433 -20.6433 -20.6425 -20.6425 -20.6419 -20.6419 -20.6414 -20.6414
    -9.7892  -9.7891  -9.6030  -9.6030  -9.3366  -9.3366  -9.0952  -9.0952
    -8.8913  -8.8912  -8.8185  -8.8185  -8.7925  -8.7924  -8.7686  -8.7686
    -8.4267  -8.4267  -8.3976  -8.3976  -8.0326  -8.0326  -8.0103  -8.0103
     1.0668   1.0668   1.0903   1.0903   1.9374   1.9374   1.9928   1.9928
     2.6504   2.6504   2.7889   2.7889   2.8119   2.8119   2.9230   2.9231
     2.9778   2.9779   3.3009   3.3009   3.3900   3.3900   3.4564   3.4564
     3.5484   3.5484   3.6772   3.6773   3.8517   3.8517   4.0951   4.0951
     4.4049   4.4049   4.6305   4.6306   4.7163   4.7163   4.7334   4.7334
     4.9905   4.9905   5.3211   5.3211   5.7775   5.7775   5.8376   5.8376
     6.1326   6.1326   6.1620   6.1620   6.2871   6.2871   6.3100   6.3100
     6.8247   6.8247   6.9514   6.9514   7.0194   7.0194   7.2830   7.2830
     7.3001   7.3002   7.3691   7.3691   7.4237   7.4237   7.7237   7.7237
    10.2841  10.2841  11.0356  11.0356  11.0628  11.0628  11.2322  11.2322
    11.3098  11.3098  11.8597  11.8597  12.1933  12.1933  12.2542  12.2542
    12.5136  12.5136  12.8572  12.8572  12.8808  12.8808  13.2853  13.2853
    14.5532  14.5532  14.9280  14.9280  15.9677  15.9677  16.5076  16.5076
    16.8190  16.8191  17.0648  17.0648  17.6723

          k =-0.4917-0.1600 0.3275 ( 63422 PWs)   bands (ev):

   -66.5136 -66.5136 -66.5133 -66.5133 -66.5131 -66.5131 -66.5127 -66.5127
   -30.8715 -30.8715 -30.8690 -30.8690 -30.8368 -30.8368 -30.8247 -30.8247
   -30.8187 -30.8187 -30.8179 -30.8179 -30.8063 -30.8063 -30.8057 -30.8057
   -30.7990 -30.7990 -30.7952 -30.7952 -30.7867 -30.7867 -30.7778 -30.7778
   -20.6831 -20.6831 -20.6829 -20.6829 -20.6827 -20.6827 -20.6826 -20.6826
   -20.6590 -20.6590 -20.6586 -20.6586 -20.6578 -20.6578 -20.6573 -20.6573
   -20.6563 -20.6563 -20.6560 -20.6560 -20.6552 -20.6552 -20.6549 -20.6549
   -20.6544 -20.6544 -20.6542 -20.6542 -20.6507 -20.6507 -20.6503 -20.6503
   -20.6481 -20.6481 -20.6479 -20.6479 -20.6475 -20.6475 -20.6465 -20.6465
   -20.6462 -20.6462 -20.6460 -20.6460 -20.6443 -20.6443 -20.6440 -20.6440
   -20.6433 -20.6433 -20.6425 -20.6425 -20.6419 -20.6419 -20.6414 -20.6414
    -9.7320  -9.7320  -9.5279  -9.5279  -9.3467  -9.3467  -9.0709  -9.0709
    -8.9008  -8.9007  -8.8140  -8.8140  -8.7894  -8.7893  -8.7684  -8.7683
    -8.4264  -8.4264  -8.4010  -8.4010  -8.1437  -8.1437  -8.1216  -8.1216
     1.3131   1.3131   1.3411   1.3411   1.9377   1.9377   1.9994   1.9994
     2.7205   2.7205   2.8061   2.8062   2.8375   2.8375   2.9290   2.9291
     2.9799   2.9800   3.3331   3.3332   3.4183   3.4184   3.4786   3.4786
     3.5527   3.5528   3.7292   3.7292   3.8243   3.8243   4.1035   4.1035
     4.2676   4.2676   4.4272   4.4273   4.6409   4.6410   4.6922   4.6922
     4.7355   4.7356   5.0562   5.0562   5.4789   5.4789   5.6139   5.6139
     6.2988   6.2988   6.3332   6.3332   6.4045   6.4045   6.5292   6.5292
     6.8356   6.8356   6.9467   6.9468   7.0289   7.0289   7.2770   7.2771
     7.2952   7.2952   7.3593   7.3593   7.4089   7.4090   7.6770   7.6770
    10.4028  10.4028  11.0844  11.0845  11.1325  11.1325  11.2489  11.2489
    11.3386  11.3386  11.9034  11.9034  12.1924  12.1924  12.2563  12.2563
    12.3541  12.3541  12.7182  12.7183  12.7394  12.7394  13.1576  13.1576
    14.9335  14.9335  15.3274  15.3274  16.0487  16.0487  16.5060  16.5060
    16.8310  16.8310  17.0978  17.0978  17.5004

          k =-0.4917-0.3199 0.3275 ( 63428 PWs)   bands (ev):

   -66.5136 -66.5136 -66.5132 -66.5132 -66.5132 -66.5132 -66.5128 -66.5128
   -30.8596 -30.8596 -30.8567 -30.8567 -30.8377 -30.8377 -30.8260 -30.8260
   -30.8248 -30.8248 -30.8232 -30.8232 -30.8091 -30.8091 -30.8076 -30.8076
   -30.8006 -30.8006 -30.7981 -30.7981 -30.7881 -30.7881 -30.7781 -30.7781
   -20.6831 -20.6831 -20.6829 -20.6829 -20.6827 -20.6827 -20.6826 -20.6826
   -20.6589 -20.6589 -20.6585 -20.6585 -20.6578 -20.6578 -20.6573 -20.6573
   -20.6558 -20.6558 -20.6555 -20.6555 -20.6546 -20.6546 -20.6545 -20.6545
   -20.6544 -20.6544 -20.6542 -20.6542 -20.6517 -20.6517 -20.6514 -20.6514
   -20.6481 -20.6481 -20.6479 -20.6479 -20.6475 -20.6475 -20.6465 -20.6465
   -20.6463 -20.6463 -20.6461 -20.6461 -20.6443 -20.6443 -20.6441 -20.6440
   -20.6433 -20.6433 -20.6425 -20.6425 -20.6418 -20.6418 -20.6415 -20.6415
    -9.5935  -9.5935  -9.3819  -9.3819  -9.3232  -9.3232  -8.9838  -8.9838
    -8.9404  -8.9403  -8.8089  -8.8088  -8.7710  -8.7709  -8.7589  -8.7588
    -8.4626  -8.4626  -8.4174  -8.4174  -8.4087  -8.4087  -8.3486  -8.3486
     1.8417   1.8417   1.9381   1.9381   2.0083   2.0083   2.1487   2.1487
     2.8277   2.8277   2.8591   2.8591   2.9077   2.9077   2.9583   2.9583
     3.0282   3.0282   3.3890   3.3891   3.4232   3.4232   3.5280   3.5280
     3.6169   3.6170   3.7128   3.7128   3.8538   3.8538   3.8992   3.8992
     4.0036   4.0036   4.1803   4.1803   4.2512   4.2512   4.5170   4.5170
     4.5847   4.5847   4.6884   4.6884   4.7055   4.7055   5.0449   5.0449
     6.6254   6.6254   6.6818   6.6818   6.7433   6.7433   6.7769   6.7769
     6.8678   6.8678   6.9410   6.9410   7.0735   7.0735   7.2342   7.2343
     7.2674   7.2675   7.3410   7.3410   7.3558   7.3558   7.5378   7.5378
    10.7509  10.7509  11.1566  11.1566  11.2206  11.2206  11.4076  11.4076
    11.5082  11.5082  11.9062  11.9062  12.0406  12.0406  12.1636  12.1636
    12.2855  12.2855  12.3768  12.3768  12.3974  12.3974  12.8429  12.8429
    15.7850  15.7850  16.2749  16.2749  16.3110  16.3110  16.4911  16.4911
    16.8935  16.8935  17.1127  17.1127  17.2405

          k =-0.4917 0.4799 0.3275 ( 63428 PWs)   bands (ev):

   -66.5135 -66.5135 -66.5132 -66.5132 -66.5131 -66.5131 -66.5128 -66.5128
   -30.8466 -30.8466 -30.8433 -30.8433 -30.8411 -30.8411 -30.8395 -30.8395
   -30.8294 -30.8294 -30.8245 -30.8245 -30.8101 -30.8101 -30.8085 -30.8085
   -30.8013 -30.8012 -30.7987 -30.7987 -30.7885 -30.7885 -30.7782 -30.7782
   -20.6831 -20.6831 -20.6829 -20.6829 -20.6827 -20.6827 -20.6826 -20.6826
   -20.6589 -20.6589 -20.6584 -20.6584 -20.6578 -20.6578 -20.6573 -20.6573
   -20.6556 -20.6556 -20.6554 -20.6554 -20.6545 -20.6545 -20.6544 -20.6544
   -20.6536 -20.6536 -20.6532 -20.6532 -20.6528 -20.6528 -20.6525 -20.6525
   -20.6481 -20.6481 -20.6479 -20.6479 -20.6475 -20.6475 -20.6465 -20.6465
   -20.6464 -20.6464 -20.6462 -20.6462 -20.6443 -20.6443 -20.6441 -20.6441
   -20.6433 -20.6433 -20.6426 -20.6426 -20.6417 -20.6417 -20.6416 -20.6416
    -9.4673  -9.4672  -9.4513  -9.4513  -9.0860  -9.0859  -9.0680  -9.0680
    -8.8490  -8.8489  -8.8368  -8.8367  -8.7031  -8.7031  -8.6850  -8.6850
    -8.6732  -8.6732  -8.6548  -8.6548  -8.4120  -8.4120  -8.3881  -8.3880
     1.9212   1.9212   1.9413   1.9413   2.7241   2.7241   2.7661   2.7661
     2.8339   2.8339   2.8589   2.8589   2.9332   2.9332   2.9787   2.9787
     3.1165   3.1165   3.1419   3.1419   3.3388   3.3388   3.4018   3.4018
     3.4785   3.4785   3.5827   3.5827   3.9032   3.9032   3.9233   3.9233
     3.9782   3.9782   4.0169   4.0169   4.1035   4.1035   4.1487   4.1488
     4.3648   4.3648   4.4448   4.4449   4.7301   4.7301   4.7418   4.7418
     6.7437   6.7437   6.8195   6.8195   6.8579   6.8579   6.8698   6.8698
     7.0116   7.0116   7.0730   7.0730   7.1269   7.1270   7.1342   7.1342
     7.2091   7.2091   7.2760   7.2760   7.3609   7.3609   7.4002   7.4003
    11.1218  11.1218  11.1701  11.1701  11.3002  11.3002  11.3829  11.3829
    11.7904  11.7904  11.8373  11.8374  11.8833  11.8833  11.9226  11.9226
    12.1490  12.1490  12.2800  12.2800  12.4511  12.4511  12.5376  12.5376
    16.2945  16.2945  16.3402  16.3402  16.7435  16.7435  16.7757  16.7757
    17.1859  17.1860  17.2911  17.2911  17.3730

     the Fermi energy is     8.6223 ev

!    total energy              =   -6261.10151124 Ry
     Harris-Foulkes estimate   =   -6261.10151124 Ry
     estimated scf accuracy    <          5.3E-11 Ry

     The total energy is the sum of the following terms:

     one-electron contribution =   -4800.84119030 Ry
     hartree contribution      =    2632.83533466 Ry
     xc contribution           =    -965.67370288 Ry
     ewald contribution        =   -3127.42195272 Ry
     smearing contrib. (-TS)   =      -0.00000000 Ry

     convergence has been achieved in  16 iterations

     Forces acting on atoms (cartesian axes, Ry/au):

     atom    1 type  1   force =    -0.00704597    0.01504191    0.00496339
     atom    2 type  1   force =     0.00585431   -0.01516711   -0.00645753
     atom    3 type  1   force =     0.00704597   -0.01504191    0.00496339
     atom    4 type  1   force =    -0.00585431    0.01516711   -0.00645753
     atom    5 type  1   force =     0.00704597    0.01504191   -0.00496339
     atom    6 type  1   force =    -0.00585431   -0.01516711    0.00645753
     atom    7 type  1   force =    -0.00704597   -0.01504191   -0.00496339
     atom    8 type  1   force =     0.00585431    0.01516711    0.00645753
     atom    9 type  2   force =    -0.00007900   -0.00795245   -0.00051730
     atom   10 type  2   force =     0.00001703    0.00792747    0.00051148
     atom   11 type  2   force =     0.00007900    0.00795245   -0.00051730
     atom   12 type  2   force =    -0.00001703   -0.00792747    0.00051148
     atom   13 type  2   force =     0.00007900   -0.00795245    0.00051730
     atom   14 type  2   force =    -0.00001703    0.00792747   -0.00051148
     atom   15 type  2   force =    -0.00007900    0.00795245    0.00051730
     atom   16 type  2   force =     0.00001703   -0.00792747   -0.00051148
     atom   17 type  2   force =    -0.00408172   -0.00055560   -0.00087809
     atom   18 type  2   force =     0.00303436    0.00086391    0.00101359
     atom   19 type  2   force =     0.00408172    0.00055560   -0.00087809
     atom   20 type  2   force =    -0.00303436   -0.00086391    0.00101359
     atom   21 type  2   force =     0.00408172   -0.00055560    0.00087809
     atom   22 type  2   force =    -0.00303436    0.00086391   -0.00101359
     atom   23 type  2   force =    -0.00408172    0.00055560    0.00087809
     atom   24 type  2   force =     0.00303436   -0.00086391   -0.00101359
     atom   25 type  2   force =    -0.00193961    0.00125027    0.00427856
     atom   26 type  2   force =     0.00170484   -0.00096224   -0.00491797
     atom   27 type  2   force =     0.00193961   -0.00125027    0.00427856
     atom   28 type  2   force =    -0.00170484    0.00096224   -0.00491797
     atom   29 type  2   force =     0.00193961    0.00125027   -0.00427856
     atom   30 type  2   force =    -0.00170484   -0.00096224    0.00491797
     atom   31 type  2   force =    -0.00193961   -0.00125027   -0.00427856
     atom   32 type  2   force =     0.00170484    0.00096224    0.00491797

     Total force =     0.000000     Total SCF correction =     0.000000


     Computing stress (Cartesian axis) and pressure

          total   stress  (Ry/bohr**3)                   (kbar)     P=    0.96
   0.00000928   0.00000000   0.00000000          1.36      0.00      0.00
   0.00000000   0.00000046   0.00000000          0.00      0.07      0.00
   0.00000000   0.00000000   0.00000977          0.00      0.00      1.44


     Writing output data file Landau_11.save
 
     init_run     :     95.78s CPU     99.00s WALL (       2 calls)
     electrons    :  14019.86s CPU  14320.60s WALL (       7 calls)
     update_pot   :    110.53s CPU    110.98s WALL (       5 calls)
     forces       :    245.92s CPU    249.23s WALL (       7 calls)
     stress       :   1334.06s CPU   1354.31s WALL (       7 calls)

     Called by init_run:
     wfcinit      :     75.91s CPU     78.83s WALL (       2 calls)
     potinit      :      8.79s CPU      8.88s WALL (       2 calls)

     Called by electrons:
     c_bands      :  12705.61s CPU  12987.84s WALL (     100 calls)
     sum_band     :   1238.09s CPU   1249.48s WALL (     100 calls)
     v_of_rho     :      9.83s CPU     10.03s WALL (     105 calls)
     mix_rho      :     15.87s CPU     20.37s WALL (     100 calls)

     Called by c_bands:
     init_us_2    :     60.64s CPU     65.92s WALL (     432 calls)
     cegterg      :  10125.53s CPU  10389.24s WALL (     200 calls)

     Called by sum_band:

     Called by *egterg:
     h_psi        :   7177.65s CPU   7229.39s WALL (     824 calls)
     g_psi        :     11.52s CPU     11.59s WALL (     620 calls)
     cdiaghg      :    128.24s CPU    128.77s WALL (     806 calls)

     Called by h_psi:
     h_psi:pot    :   7147.44s CPU   7197.75s WALL (     824 calls)
     h_psi:calbec :   1168.08s CPU   1194.63s WALL (     824 calls)
     vloc_psi     :   4776.17s CPU   4791.89s WALL (     824 calls)
     add_vuspsi   :   1203.18s CPU   1211.23s WALL (     824 calls)

     General routines
     calbec       :   1331.59s CPU   1358.67s WALL (     894 calls)
     fft          :      9.30s CPU      9.33s WALL (     478 calls)
     fftw         :   5118.49s CPU   5132.84s WALL (  259184 calls)
 
     Parallel routines
 
     PWSCF        :     4h23m CPU        4h29m WALL

 
   This run was terminated on:  20:17:33  24Mar2020            

=------------------------------------------------------------------------------=
   JOB DONE.
=------------------------------------------------------------------------------=
