
     Program PWSCF v.6.4.1 starts on 22Nov2019 at  1: 8:11 

     This program is part of the open-source Quantum ESPRESSO suite
     for quantum simulation of materials; please cite
         "P. Giannozzi et al., J. Phys.:Condens. Matter 21 395502 (2009);
         "P. Giannozzi et al., J. Phys.:Condens. Matter 29 465901 (2017);
          URL http://www.quantum-espresso.org", 
     in publications or presentations arising from this work. More details at
     http://www.quantum-espresso.org/quote

     Parallel version (MPI), running on    40 processors

     MPI processes distributed on     6 nodes
     K-points division:     npool     =      40
     Reading input from scf.in

     Current dimensions of program PWSCF are:
     Max number of different atomic species (ntypx) = 10
     Max number of k-points (npk) =  40000
     Max angular momentum in pseudopotentials (lmaxx) =  3

     Subspace diagonalization in iterative solution of the eigenvalue problem:
     a serial algorithm will be used

     Message from routine setup:
     using ibrav=0 with symmetry is DISCOURAGED, use correct ibrav instead
 
     G-vector sticks info
     --------------------
     sticks:   dense  smooth     PW     G-vecs:    dense   smooth      PW
     Sum        7661    7661   2053               500593   500593   69419
 


     bravais-lattice index     =            0
     lattice parameter (alat)  =      14.0953  a.u.
     unit-cell volume          =    2819.4891 (a.u.)^3
     number of atoms/cell      =           32
     number of atomic types    =            2
     number of electrons       =       368.36
     number of Kohn-Sham states=          221
     kinetic-energy cutoff     =     120.0000  Ry
     charge density cutoff     =     480.0000  Ry
     convergence threshold     =      1.0E-08
     mixing beta               =       0.7000
     number of iterations used =            8  plain     mixing
     Exchange-correlation      = SLA PW NOGX NOGC ( 1  4  0  0 0 0)

     celldm(1)=  14.095302  celldm(2)=   0.000000  celldm(3)=   0.000000
     celldm(4)=   0.000000  celldm(5)=   0.000000  celldm(6)=   0.000000

     crystal axes: (cart. coord. in units of alat)
               a(1) = (   1.000000   0.000000   0.000000 )  
               a(2) = (   0.000000   1.011045   0.000000 )  
               a(3) = (   0.000000   0.000000   0.995811 )  

     reciprocal axes: (cart. coord. in units 2 pi/alat)
               b(1) = (  1.000000  0.000000  0.000000 )  
               b(2) = (  0.000000  0.989076  0.000000 )  
               b(3) = (  0.000000  0.000000  1.004207 )  


     PseudoPot. # 1 for W  read from file:
     /cluster/scratch/mnoe/QE/pps/W_ONCV_LDA-4.0.upf
     MD5 check sum: ba0307d5d4cd419d6f1d13dc49d7c13a
     Pseudo is Norm-conserving + core correction, Zval = 28.0
     Generated using ONCVPSP code by D. R. Hamann
     Using radial grid of 1380 points,  8 beta functions with: 
                l(1) =   0
                l(2) =   0
                l(3) =   1
                l(4) =   1
                l(5) =   2
                l(6) =   2
                l(7) =   3
                l(8) =   3

     PseudoPot. # 2 for O  read from file:
     /cluster/scratch/mnoe/QE/pps/O_ONCV_LDA-3.0.upf
     MD5 check sum: b55cdb4f45ae2203d24ad12cf8d61a31
     Pseudo is Norm-conserving + core correction, Zval =  6.0
     Generated using ONCVPSP code by D. R. Hamann
     Using radial grid of  926 points,  5 beta functions with: 
                l(1) =   0
                l(2) =   0
                l(3) =   1
                l(4) =   1
                l(5) =   2

     atomic species   valence    mass     pseudopotential
        W             28.00   183.84000     W ( 1.00)
        O              6.00    15.99940     O ( 1.00)

      8 Sym. Ops., with inversion, found ( 6 have fractional translation)



   Cartesian axes

     site n.     atom                  positions (alat units)
         1           W   tau(   1) = (   0.2347400   0.2963036   0.0143496  )
         2           W   tau(   2) = (   0.7652600   0.7147411   0.9814613  )
         3           W   tau(   3) = (   0.2652600   0.2092187   0.5122552  )
         4           W   tau(   4) = (   0.7347400   0.8018259   0.4835559  )
         5           W   tau(   5) = (   0.7652600   0.2963036   0.4835559  )
         6           W   tau(   6) = (   0.2347400   0.7147411   0.5122552  )
         7           W   tau(   7) = (   0.7347400   0.2092187   0.9814613  )
         8           W   tau(   8) = (   0.2652600   0.8018259   0.0143496  )
         9           O   tau(   9) = (   0.2218500   0.0298519   0.0044612  )
        10           O   tau(  10) = (   0.7781500   0.9811928   0.9913498  )
        11           O   tau(  11) = (   0.2781500   0.4756704   0.5023667  )
        12           O   tau(  12) = (   0.7218500   0.5353743   0.4934443  )
        13           O   tau(  13) = (   0.7781500   0.0298519   0.4934443  )
        14           O   tau(  14) = (   0.2218500   0.9811928   0.5023667  )
        15           O   tau(  15) = (   0.7218500   0.4756704   0.9913498  )
        16           O   tau(  16) = (   0.2781500   0.5353743   0.0044612  )
        17           O   tau(  17) = (   0.5041700   0.2235622   0.5053392  )
        18           O   tau(  18) = (   0.4958300   0.7874825   0.4904719  )
        19           O   tau(  19) = (   0.9958300   0.2819601   1.0032447  )
        20           O   tau(  20) = (   0.0041699   0.7290846  -0.0074336  )
        21           O   tau(  21) = (   0.4958300   0.2235622  -0.0074336  )
        22           O   tau(  22) = (   0.5041700   0.7874825   1.0032447  )
        23           O   tau(  23) = (   0.0041699   0.2819601   0.4904719  )
        24           O   tau(  24) = (   0.9958300   0.7290846   0.5053392  )
        25           O   tau(  25) = (   0.7574650   0.2463815   0.7405548  )
        26           O   tau(  26) = (   0.2425351   0.7646632   0.2552563  )
        27           O   tau(  27) = (   0.7425351   0.2591409   0.2426493  )
        28           O   tau(  28) = (   0.2574650   0.7519039   0.7531617  )
        29           O   tau(  29) = (   0.2425351   0.2463815   0.7531617  )
        30           O   tau(  30) = (   0.7574650   0.7646632   0.2426493  )
        31           O   tau(  31) = (   0.2574650   0.2591409   0.2552563  )
        32           O   tau(  32) = (   0.7425351   0.7519039   0.7405548  )

     number of k points=    64  gaussian smearing, width (Ry)=  0.0007
                       cart. coord. in units 2pi/alat
        k(    1) = (   0.0000000   0.0000000   0.0000000), wk =   0.0092593
        k(    2) = (   0.0000000   0.0000000   0.1673678), wk =   0.0185185
        k(    3) = (   0.0000000   0.0000000   0.3347355), wk =   0.0185185
        k(    4) = (   0.0000000   0.0000000  -0.5021033), wk =   0.0092593
        k(    5) = (   0.0000000   0.1648460   0.0000000), wk =   0.0185185
        k(    6) = (   0.0000000   0.1648460   0.1673678), wk =   0.0370370
        k(    7) = (   0.0000000   0.1648460   0.3347355), wk =   0.0370370
        k(    8) = (   0.0000000   0.1648460  -0.5021033), wk =   0.0185185
        k(    9) = (   0.0000000   0.3296920   0.0000000), wk =   0.0185185
        k(   10) = (   0.0000000   0.3296920   0.1673678), wk =   0.0370370
        k(   11) = (   0.0000000   0.3296920   0.3347355), wk =   0.0370370
        k(   12) = (   0.0000000   0.3296920  -0.5021033), wk =   0.0185185
        k(   13) = (   0.0000000  -0.4945380   0.0000000), wk =   0.0092593
        k(   14) = (   0.0000000  -0.4945380   0.1673678), wk =   0.0185185
        k(   15) = (   0.0000000  -0.4945380   0.3347355), wk =   0.0185185
        k(   16) = (   0.0000000  -0.4945380  -0.5021033), wk =   0.0092593
        k(   17) = (   0.1666667   0.0000000   0.0000000), wk =   0.0185185
        k(   18) = (   0.1666667   0.0000000   0.1673678), wk =   0.0370370
        k(   19) = (   0.1666667   0.0000000   0.3347355), wk =   0.0370370
        k(   20) = (   0.1666667   0.0000000  -0.5021033), wk =   0.0185185
        k(   21) = (   0.1666667   0.1648460   0.0000000), wk =   0.0370370
        k(   22) = (   0.1666667   0.1648460   0.1673678), wk =   0.0740741
        k(   23) = (   0.1666667   0.1648460   0.3347355), wk =   0.0740741
        k(   24) = (   0.1666667   0.1648460  -0.5021033), wk =   0.0370370
        k(   25) = (   0.1666667   0.3296920   0.0000000), wk =   0.0370370
        k(   26) = (   0.1666667   0.3296920   0.1673678), wk =   0.0740741
        k(   27) = (   0.1666667   0.3296920   0.3347355), wk =   0.0740741
        k(   28) = (   0.1666667   0.3296920  -0.5021033), wk =   0.0370370
        k(   29) = (   0.1666667  -0.4945380   0.0000000), wk =   0.0185185
        k(   30) = (   0.1666667  -0.4945380   0.1673678), wk =   0.0370370
        k(   31) = (   0.1666667  -0.4945380   0.3347355), wk =   0.0370370
        k(   32) = (   0.1666667  -0.4945380  -0.5021033), wk =   0.0185185
        k(   33) = (   0.3333333   0.0000000   0.0000000), wk =   0.0185185
        k(   34) = (   0.3333333   0.0000000   0.1673678), wk =   0.0370370
        k(   35) = (   0.3333333   0.0000000   0.3347355), wk =   0.0370370
        k(   36) = (   0.3333333   0.0000000  -0.5021033), wk =   0.0185185
        k(   37) = (   0.3333333   0.1648460   0.0000000), wk =   0.0370370
        k(   38) = (   0.3333333   0.1648460   0.1673678), wk =   0.0740741
        k(   39) = (   0.3333333   0.1648460   0.3347355), wk =   0.0740741
        k(   40) = (   0.3333333   0.1648460  -0.5021033), wk =   0.0370370
        k(   41) = (   0.3333333   0.3296920   0.0000000), wk =   0.0370370
        k(   42) = (   0.3333333   0.3296920   0.1673678), wk =   0.0740741
        k(   43) = (   0.3333333   0.3296920   0.3347355), wk =   0.0740741
        k(   44) = (   0.3333333   0.3296920  -0.5021033), wk =   0.0370370
        k(   45) = (   0.3333333  -0.4945380   0.0000000), wk =   0.0185185
        k(   46) = (   0.3333333  -0.4945380   0.1673678), wk =   0.0370370
        k(   47) = (   0.3333333  -0.4945380   0.3347355), wk =   0.0370370
        k(   48) = (   0.3333333  -0.4945380  -0.5021033), wk =   0.0185185
        k(   49) = (  -0.5000000   0.0000000   0.0000000), wk =   0.0092593
        k(   50) = (  -0.5000000   0.0000000   0.1673678), wk =   0.0185185
        k(   51) = (  -0.5000000   0.0000000   0.3347355), wk =   0.0185185
        k(   52) = (  -0.5000000   0.0000000  -0.5021033), wk =   0.0092593
        k(   53) = (  -0.5000000   0.1648460   0.0000000), wk =   0.0185185
        k(   54) = (  -0.5000000   0.1648460   0.1673678), wk =   0.0370370
        k(   55) = (  -0.5000000   0.1648460   0.3347355), wk =   0.0370370
        k(   56) = (  -0.5000000   0.1648460  -0.5021033), wk =   0.0185185
        k(   57) = (  -0.5000000   0.3296920   0.0000000), wk =   0.0185185
        k(   58) = (  -0.5000000   0.3296920   0.1673678), wk =   0.0370370
        k(   59) = (  -0.5000000   0.3296920   0.3347355), wk =   0.0370370
        k(   60) = (  -0.5000000   0.3296920  -0.5021033), wk =   0.0185185
        k(   61) = (  -0.5000000  -0.4945380   0.0000000), wk =   0.0092593
        k(   62) = (  -0.5000000  -0.4945380   0.1673678), wk =   0.0185185
        k(   63) = (  -0.5000000  -0.4945380   0.3347355), wk =   0.0185185
        k(   64) = (  -0.5000000  -0.4945380  -0.5021033), wk =   0.0092593

     Dense  grid:   500593 G-vectors     FFT dimensions: ( 100, 100, 100)

     Estimated max dynamical RAM per process >       3.14 GB

     Estimated total dynamical RAM >     125.50 GB

     Initial potential from superposition of free atoms

     starting charge  367.99656, renormalised to  368.36000
     Starting wfcs are  232 randomized atomic wfcs

     total cpu time spent up to now is       48.9 secs

     Self-consistent Calculation

     iteration #  1     ecut=   120.00 Ry     beta= 0.70
     Davidson diagonalization with overlap
     ethr =  1.00E-02,  avg # of iterations =  5.1

     total cpu time spent up to now is      218.8 secs

     total energy              =   -6253.36117948 Ry
     Harris-Foulkes estimate   =   -6264.33887855 Ry
     estimated scf accuracy    <      13.84627337 Ry

     iteration #  2     ecut=   120.00 Ry     beta= 0.70
     Davidson diagonalization with overlap
     ethr =  3.76E-03,  avg # of iterations =  3.5

     total cpu time spent up to now is      382.4 secs

     total energy              =   -6250.04384270 Ry
     Harris-Foulkes estimate   =   -6270.79331240 Ry
     estimated scf accuracy    <      55.85749768 Ry

     iteration #  3     ecut=   120.00 Ry     beta= 0.70
     Davidson diagonalization with overlap
     ethr =  3.76E-03,  avg # of iterations =  3.4

     total cpu time spent up to now is      531.6 secs

     total energy              =   -6260.72570793 Ry
     Harris-Foulkes estimate   =   -6261.00294599 Ry
     estimated scf accuracy    <       0.93436097 Ry

     iteration #  4     ecut=   120.00 Ry     beta= 0.70
     Davidson diagonalization with overlap
     ethr =  2.54E-04,  avg # of iterations =  2.8

     total cpu time spent up to now is      649.6 secs

     total energy              =   -6260.71021702 Ry
     Harris-Foulkes estimate   =   -6260.78953468 Ry
     estimated scf accuracy    <       0.23548074 Ry

     iteration #  5     ecut=   120.00 Ry     beta= 0.70
     Davidson diagonalization with overlap
     ethr =  6.39E-05,  avg # of iterations =  5.1

     total cpu time spent up to now is      783.9 secs

     total energy              =   -6260.72028464 Ry
     Harris-Foulkes estimate   =   -6260.74760453 Ry
     estimated scf accuracy    <       0.06078475 Ry

     iteration #  6     ecut=   120.00 Ry     beta= 0.70
     Davidson diagonalization with overlap
     ethr =  1.65E-05,  avg # of iterations =  5.8

     total cpu time spent up to now is      927.4 secs

     total energy              =   -6260.73344328 Ry
     Harris-Foulkes estimate   =   -6260.73631709 Ry
     estimated scf accuracy    <       0.00794068 Ry

     iteration #  7     ecut=   120.00 Ry     beta= 0.70
     Davidson diagonalization with overlap
     ethr =  2.16E-06,  avg # of iterations =  5.5

     total cpu time spent up to now is     1057.9 secs

     total energy              =   -6260.73430624 Ry
     Harris-Foulkes estimate   =   -6260.73448121 Ry
     estimated scf accuracy    <       0.00033930 Ry

     iteration #  8     ecut=   120.00 Ry     beta= 0.70
     Davidson diagonalization with overlap
     ethr =  9.21E-08,  avg # of iterations =  3.1

     total cpu time spent up to now is     1202.8 secs

     total energy              =   -6260.73441689 Ry
     Harris-Foulkes estimate   =   -6260.73443299 Ry
     estimated scf accuracy    <       0.00006370 Ry

     iteration #  9     ecut=   120.00 Ry     beta= 0.70
     Davidson diagonalization with overlap
     ethr =  1.73E-08,  avg # of iterations =  2.4

     total cpu time spent up to now is     1323.9 secs

     total energy              =   -6260.73441859 Ry
     Harris-Foulkes estimate   =   -6260.73442750 Ry
     estimated scf accuracy    <       0.00003698 Ry

     iteration # 10     ecut=   120.00 Ry     beta= 0.70
     Davidson diagonalization with overlap
     ethr =  1.00E-08,  avg # of iterations =  1.7

     total cpu time spent up to now is     1434.6 secs

     total energy              =   -6260.73441654 Ry
     Harris-Foulkes estimate   =   -6260.73442090 Ry
     estimated scf accuracy    <       0.00001008 Ry

     iteration # 11     ecut=   120.00 Ry     beta= 0.70
     Davidson diagonalization with overlap
     ethr =  2.74E-09,  avg # of iterations =  2.9

     total cpu time spent up to now is     1554.6 secs

     total energy              =   -6260.73441869 Ry
     Harris-Foulkes estimate   =   -6260.73441875 Ry
     estimated scf accuracy    <       0.00000016 Ry

     iteration # 12     ecut=   120.00 Ry     beta= 0.70
     Davidson diagonalization with overlap
     ethr =  4.31E-11,  avg # of iterations =  2.0

     total cpu time spent up to now is     1703.3 secs

     total energy              =   -6260.73441872 Ry
     Harris-Foulkes estimate   =   -6260.73441873 Ry
     estimated scf accuracy    <       0.00000003 Ry

     iteration # 13     ecut=   120.00 Ry     beta= 0.70
     Davidson diagonalization with overlap
     ethr =  8.87E-12,  avg # of iterations =  2.1

     total cpu time spent up to now is     1825.6 secs

     End of self-consistent calculation

          k = 0.0000 0.0000 0.0000 ( 62617 PWs)   bands (ev):

   -66.1544 -66.1538 -66.1538 -66.1537 -66.1532 -66.1531 -66.1531 -66.1525
   -30.5545 -30.5495 -30.5478 -30.5426 -30.5049 -30.5037 -30.5021 -30.5012
   -30.4996 -30.4971 -30.4864 -30.4770 -30.4734 -30.4721 -30.4608 -30.4542
   -30.4279 -30.4244 -30.4147 -30.4101 -30.4058 -30.4017 -30.3992 -30.3951
   -20.3188 -20.3187 -20.3183 -20.3182 -20.3176 -20.3174 -20.3172 -20.3170
   -20.3096 -20.3093 -20.3092 -20.3090 -20.3081 -20.3078 -20.3078 -20.3075
   -20.2973 -20.2967 -20.2965 -20.2959 -20.2942 -20.2936 -20.2932 -20.2925
   -20.2911 -20.2911 -20.2899 -20.2898 -20.2895 -20.2893 -20.2884 -20.2884
   -20.2781 -20.2780 -20.2778 -20.2777 -20.2753 -20.2752 -20.2733 -20.2732
   -20.2723 -20.2723 -20.2701 -20.2700 -20.2687 -20.2686 -20.2679 -20.2679
   -20.2612 -20.2611 -20.2609 -20.2608 -20.2600 -20.2599 -20.2595 -20.2594
   -10.0253  -9.6378  -9.6323  -9.5988  -9.2410  -9.2106  -9.1946  -8.9324
    -8.8962  -8.8228  -8.8224  -8.8210  -7.9779  -7.8938  -7.8870  -7.8220
    -7.8189  -7.8167  -7.7912  -7.7799  -7.6716  -7.6417  -7.6167  -7.5937
     1.2456   1.2509   1.2528   1.2838   1.3075   1.3278   1.3895   1.4169
     1.4495   1.5141   1.5454   1.6376   2.3977   2.4352   2.4587   2.5156
     2.5159   2.6431   4.0050   4.1251   4.1960   4.3526   4.5637   4.6188
     4.6478   4.6776   4.6945   4.7802   4.8564   4.9034   5.2239   5.5043
     5.5307   5.5311   5.6141   5.6543   5.6763   5.7849   5.8018   5.8281
     5.8521   5.9040   5.9182   6.0084   6.0180   6.0349   6.0661   6.1035
     6.2230   6.4166   6.4279   6.4331   6.4465   6.7068   6.7425   6.7463
     6.7945   6.8077   6.9836   6.9974   7.0536   7.0660   7.0929   7.0992
     7.1757   7.1768   8.1209   8.1732   8.2687   8.2933   8.4244   8.4459
     9.4650   9.4661   9.6962   9.8371   9.8473   9.9990  12.4387  12.4686
    12.5234  12.5979  12.6582  12.7131  12.7445  12.7789  12.8219  12.8254
    13.0509  13.1499  13.1929  13.3219  13.8213  13.9137  13.9876  14.0722
    14.1211  14.1740  14.4684  14.7057  14.8524  14.8668  15.2952  15.4770
    15.8129  16.3165  16.8422  16.9563  17.0882

          k = 0.0000 0.0000 0.1674 ( 62579 PWs)   bands (ev):

   -66.1544 -66.1538 -66.1537 -66.1537 -66.1532 -66.1532 -66.1531 -66.1526
   -30.5541 -30.5498 -30.5474 -30.5429 -30.5043 -30.5012 -30.4999 -30.4972
   -30.4964 -30.4931 -30.4869 -30.4743 -30.4729 -30.4724 -30.4617 -30.4532
   -30.4326 -30.4291 -30.4196 -30.4148 -30.4055 -30.4014 -30.3999 -30.3959
   -20.3187 -20.3186 -20.3183 -20.3182 -20.3177 -20.3175 -20.3173 -20.3171
   -20.3096 -20.3093 -20.3092 -20.3090 -20.3081 -20.3079 -20.3078 -20.3076
   -20.2972 -20.2967 -20.2964 -20.2959 -20.2942 -20.2935 -20.2932 -20.2926
   -20.2911 -20.2910 -20.2900 -20.2899 -20.2894 -20.2892 -20.2885 -20.2884
   -20.2781 -20.2780 -20.2779 -20.2778 -20.2751 -20.2751 -20.2735 -20.2734
   -20.2722 -20.2721 -20.2703 -20.2702 -20.2686 -20.2686 -20.2680 -20.2680
   -20.2611 -20.2610 -20.2608 -20.2607 -20.2601 -20.2600 -20.2596 -20.2595
    -9.9856  -9.6525  -9.5799  -9.5489  -9.2204  -9.2059  -9.1601  -8.9015
    -8.8634  -8.8244  -8.8094  -8.7910  -8.0060  -7.9467  -7.9079  -7.8973
    -7.8951  -7.8784  -7.8538  -7.8252  -7.6788  -7.6453  -7.6270  -7.5970
     1.2481   1.3002   1.3235   1.3586   1.3745   1.3834   1.4462   1.5093
     1.5649   1.6124   1.6920   1.7690   2.4014   2.4570   2.5186   2.5861
     2.6107   2.7218   3.9818   4.0906   4.1828   4.2969   4.3438   4.4053
     4.5536   4.6086   4.6722   4.6855   4.7084   4.7934   5.2293   5.4054
     5.4764   5.5370   5.5387   5.5740   5.6287   5.6560   5.7500   5.7667
     5.7944   5.8450   5.8771   5.9835   6.0038   6.0546   6.1279   6.1614
     6.2112   6.4098   6.5527   6.6219   6.6579   6.6645   6.7325   6.7965
     6.8097   6.8476   6.8688   6.8755   6.9273   6.9400   6.9816   7.0656
     7.0948   7.0995   8.1258   8.1659   8.2039   8.2313   8.3581   8.3850
     9.7802   9.7803   9.8519   9.9921  10.0256  10.1284  12.5029  12.5228
    12.5406  12.5942  12.6459  12.6587  12.7143  12.7196  12.7360  12.7790
    12.9066  12.9822  13.1746  13.3210  13.7210  13.7854  13.9436  13.9906
    14.3025  14.4393  14.6301  14.7769  14.8505  14.9270  15.4568  15.7060
    15.7812  16.5026  16.7117  16.9782  17.1769

          k = 0.0000 0.0000 0.3347 ( 62573 PWs)   bands (ev):

   -66.1543 -66.1539 -66.1536 -66.1536 -66.1533 -66.1533 -66.1530 -66.1527
   -30.5532 -30.5507 -30.5463 -30.5438 -30.5032 -30.5008 -30.4957 -30.4885
   -30.4849 -30.4833 -30.4825 -30.4735 -30.4702 -30.4652 -30.4646 -30.4494
   -30.4459 -30.4420 -30.4326 -30.4268 -30.4046 -30.4015 -30.4005 -30.3976
   -20.3185 -20.3184 -20.3181 -20.3180 -20.3179 -20.3178 -20.3175 -20.3174
   -20.3095 -20.3093 -20.3092 -20.3090 -20.3080 -20.3079 -20.3077 -20.3076
   -20.2971 -20.2968 -20.2963 -20.2960 -20.2939 -20.2934 -20.2933 -20.2927
   -20.2908 -20.2908 -20.2902 -20.2901 -20.2892 -20.2891 -20.2887 -20.2886
   -20.2780 -20.2780 -20.2779 -20.2778 -20.2748 -20.2748 -20.2739 -20.2738
   -20.2718 -20.2717 -20.2707 -20.2706 -20.2685 -20.2685 -20.2681 -20.2681
   -20.2609 -20.2608 -20.2606 -20.2604 -20.2603 -20.2602 -20.2598 -20.2597
    -9.8878  -9.6987  -9.4528  -9.4318  -9.2533  -9.2446  -8.9303  -8.8555
    -8.8299  -8.7459  -8.7152  -8.6839  -8.2347  -8.1982  -8.1903  -8.1635
    -7.9243  -7.9066  -7.8562  -7.8340  -7.6777  -7.6548  -7.6272  -7.6060
     1.2550   1.2838   1.3428   1.3696   1.4153   1.4387   1.4606   1.4984
     2.1871   2.2232   2.3029   2.3327   2.4076   2.4757   2.7363   2.7859
     2.8628   2.9462   3.7347   3.7567   3.9043   3.9971   4.0227   4.0684
     4.2264   4.2550   4.5582   4.6794   4.7259   4.7556   4.9013   5.0738
     5.1914   5.2412   5.3715   5.3891   5.4222   5.6022   5.7067   5.7356
     5.7720   5.8622   5.8975   6.0234   6.0722   6.1086   6.1737   6.2071
     6.2665   6.2690   6.3867   6.4319   6.5361   6.5726   6.5939   6.6508
     6.7981   6.8122   6.8492   6.8790   7.0931   7.0957   7.1938   7.2026
     7.3055   7.3503   8.0003   8.0316   8.1353   8.1529   8.1544   8.1898
     9.8883   9.9673  10.4836  10.4923  10.7661  10.7972  12.0398  12.0627
    12.3509  12.4058  12.6384  12.6535  12.6902  12.7569  12.7794  12.7837
    12.8535  12.9115  13.1567  13.3205  13.4141  13.4961  13.5960  13.6485
    14.7859  14.8437  14.9855  14.9898  15.1050  15.2957  15.3897  15.6718
    16.1877  16.7168  16.9697  17.1160  17.4350

          k = 0.0000 0.0000-0.5021 ( 62516 PWs)   bands (ev):

   -66.1541 -66.1541 -66.1535 -66.1535 -66.1534 -66.1534 -66.1528 -66.1528
   -30.5519 -30.5519 -30.5450 -30.5450 -30.5020 -30.5020 -30.4913 -30.4913
   -30.4761 -30.4761 -30.4712 -30.4712 -30.4646 -30.4646 -30.4590 -30.4590
   -30.4497 -30.4497 -30.4406 -30.4406 -30.4032 -30.4032 -30.3992 -30.3992
   -20.3182 -20.3182 -20.3181 -20.3181 -20.3178 -20.3178 -20.3177 -20.3177
   -20.3094 -20.3094 -20.3091 -20.3091 -20.3079 -20.3079 -20.3076 -20.3076
   -20.2970 -20.2970 -20.2961 -20.2961 -20.2937 -20.2937 -20.2930 -20.2930
   -20.2905 -20.2905 -20.2905 -20.2905 -20.2890 -20.2890 -20.2889 -20.2889
   -20.2780 -20.2780 -20.2779 -20.2779 -20.2744 -20.2744 -20.2743 -20.2743
   -20.2712 -20.2712 -20.2711 -20.2711 -20.2683 -20.2683 -20.2683 -20.2683
   -20.2606 -20.2606 -20.2605 -20.2605 -20.2602 -20.2602 -20.2601 -20.2601
    -9.7800  -9.7800  -9.3250  -9.3250  -9.3206  -9.3206  -8.8390  -8.8390
    -8.5938  -8.5937  -8.5110  -8.5109  -8.4914  -8.4913  -8.4655  -8.4655
    -7.9182  -7.9182  -7.8456  -7.8456  -7.6673  -7.6673  -7.6176  -7.6176
     1.2673   1.2673   1.3552   1.3553   1.4297   1.4297   1.4848   1.4848
     2.4109   2.4109   2.8246   2.8246   2.8916   2.8916   3.0303   3.0304
     3.1251   3.1252   3.2511   3.2511   3.5384   3.5385   3.9144   3.9145
     3.9258   3.9258   4.2295   4.2295   4.6895   4.6895   5.0942   5.0942
     5.2089   5.2089   5.3053   5.3053   5.3371   5.3371   5.7428   5.7428
     5.8665   5.8666   6.0203   6.0203   6.0596   6.0596   6.1454   6.1454
     6.2259   6.2259   6.3444   6.3444   6.4692   6.4692   6.5261   6.5261
     6.8040   6.8040   6.8136   6.8136   7.0943   7.0944   7.6509   7.6509
     7.6798   7.6798   7.7949   7.7949   7.8397   7.8397   8.1444   8.1444
     9.9311   9.9311  11.2916  11.2916  11.3104  11.3104  11.5999  11.5999
    11.6216  11.6216  12.6687  12.6688  12.7782  12.7782  12.9588  12.9588
    13.0441  13.0441  13.1813  13.1813  13.2426  13.2427  13.3380  13.3380
    14.8286  14.8286  15.2511  15.2511  15.4341  15.4341  15.6248  15.6248
    16.1770  16.1771  17.4864  17.4865  17.7992

          k = 0.0000 0.1648 0.0000 ( 62574 PWs)   bands (ev):

   -66.1544 -66.1538 -66.1538 -66.1537 -66.1532 -66.1532 -66.1531 -66.1526
   -30.5539 -30.5489 -30.5481 -30.5430 -30.5037 -30.5019 -30.5010 -30.5004
   -30.4970 -30.4959 -30.4816 -30.4742 -30.4734 -30.4727 -30.4594 -30.4524
   -30.4293 -30.4258 -30.4148 -30.4111 -30.4101 -30.4065 -30.4029 -30.3985
   -20.3188 -20.3187 -20.3183 -20.3182 -20.3175 -20.3174 -20.3172 -20.3170
   -20.3096 -20.3094 -20.3092 -20.3090 -20.3081 -20.3078 -20.3078 -20.3076
   -20.2972 -20.2966 -20.2965 -20.2959 -20.2942 -20.2937 -20.2931 -20.2925
   -20.2911 -20.2911 -20.2899 -20.2898 -20.2895 -20.2893 -20.2884 -20.2884
   -20.2777 -20.2777 -20.2774 -20.2774 -20.2753 -20.2753 -20.2735 -20.2734
   -20.2722 -20.2722 -20.2701 -20.2699 -20.2690 -20.2690 -20.2682 -20.2682
   -20.2612 -20.2611 -20.2610 -20.2608 -20.2600 -20.2599 -20.2595 -20.2594
    -9.9836  -9.6162  -9.5895  -9.5824  -9.2523  -9.2234  -9.1104  -8.9299
    -8.8987  -8.7861  -8.7811  -8.7771  -7.9999  -7.9063  -7.8888  -7.8402
    -7.8334  -7.8250  -7.8156  -7.7778  -7.7448  -7.7425  -7.7188  -7.6939
     1.2461   1.2518   1.3198   1.3282   1.4028   1.4127   1.4481   1.5437
     1.6027   1.6294   1.6856   1.7760   2.4690   2.4883   2.5326   2.5574
     2.5978   2.6415   3.8365   3.9544   3.9574   4.0957   4.5608   4.6185
     4.6234   4.6241   4.6825   4.8166   4.9241   4.9580   5.1080   5.2631
     5.3849   5.5794   5.5891   5.6251   5.6368   5.6575   5.6790   5.6860
     5.8083   5.9285   5.9338   5.9433   5.9956   6.0214   6.1763   6.2332
     6.2801   6.3757   6.4144   6.4680   6.6277   6.6631   6.7086   6.7175
     6.8095   6.8325   6.9504   6.9563   6.9826   6.9828   7.0600   7.0824
     7.1430   7.1480   8.0873   8.1322   8.2701   8.2909   8.3328   8.3616
     9.4720   9.4897   9.9085  10.0248  10.0935  10.2298  12.3331  12.4149
    12.4777  12.5655  12.5783  12.5936  12.6040  12.7559  12.8212  12.8266
    13.0752  13.2078  13.2118  13.3733  13.7949  13.9057  14.0140  14.0204
    14.1088  14.3642  14.4546  14.7960  14.8950  14.9617  15.2745  15.4492
    16.0769  16.2135  17.0466  17.1791  17.2688

          k = 0.0000 0.1648 0.1674 ( 62604 PWs)   bands (ev):

   -66.1543 -66.1538 -66.1537 -66.1537 -66.1532 -66.1532 -66.1531 -66.1526
   -30.5535 -30.5492 -30.5477 -30.5433 -30.5015 -30.4987 -30.4971 -30.4962
   -30.4961 -30.4933 -30.4822 -30.4736 -30.4730 -30.4713 -30.4603 -30.4515
   -30.4336 -30.4302 -30.4196 -30.4147 -30.4107 -30.4062 -30.4039 -30.3996
   -20.3187 -20.3186 -20.3183 -20.3182 -20.3176 -20.3175 -20.3172 -20.3171
   -20.3095 -20.3093 -20.3092 -20.3090 -20.3080 -20.3078 -20.3078 -20.3076
   -20.2972 -20.2967 -20.2965 -20.2959 -20.2941 -20.2936 -20.2932 -20.2926
   -20.2911 -20.2910 -20.2900 -20.2899 -20.2894 -20.2893 -20.2885 -20.2884
   -20.2777 -20.2777 -20.2775 -20.2774 -20.2752 -20.2752 -20.2736 -20.2736
   -20.2721 -20.2720 -20.2702 -20.2701 -20.2690 -20.2690 -20.2683 -20.2682
   -20.2611 -20.2610 -20.2609 -20.2607 -20.2601 -20.2600 -20.2596 -20.2595
    -9.9426  -9.6024  -9.5665  -9.5281  -9.2338  -9.1713  -9.1219  -8.8981
    -8.8658  -8.7873  -8.7659  -8.7560  -8.0304  -7.9446  -7.9295  -7.9040
    -7.8934  -7.8833  -7.8559  -7.8282  -7.7703  -7.7468  -7.7334  -7.7138
     1.3308   1.3568   1.3958   1.4446   1.4879   1.4991   1.5653   1.6125
     1.6721   1.6909   1.6996   1.8491   2.4754   2.5307   2.5693   2.6441
     2.6777   2.7171   3.8357   3.9440   3.9686   4.0691   4.3401   4.4006
     4.5820   4.6099   4.6572   4.6851   4.6862   4.8201   5.1169   5.2264
     5.3436   5.4131   5.5065   5.5450   5.5658   5.5829   5.5989   5.6711
     5.7294   5.8868   5.8869   5.9398   5.9733   6.0157   6.2003   6.2147
     6.2986   6.5110   6.5458   6.5877   6.6204   6.6764   6.6889   6.8046
     6.8240   6.8371   6.8476   6.9193   6.9256   6.9579   6.9734   6.9939
     7.0677   7.1089   8.0932   8.1254   8.2065   8.2309   8.2789   8.3074
     9.7817   9.7948  10.1079  10.1876  10.2229  10.2742  12.4052  12.4818
    12.5317  12.5651  12.5823  12.5981  12.6167  12.6363  12.6633  12.7564
    12.9323  13.0071  13.2189  13.3733  13.6916  13.7795  13.8567  13.8975
    14.4202  14.6247  14.6269  14.8229  14.9164  15.0682  15.4252  15.6876
    16.1812  16.2451  16.8985  17.1464  17.2574

          k = 0.0000 0.1648 0.3347 ( 62562 PWs)   bands (ev):

   -66.1542 -66.1539 -66.1536 -66.1536 -66.1533 -66.1533 -66.1530 -66.1527
   -30.5525 -30.5501 -30.5467 -30.5442 -30.4996 -30.4971 -30.4925 -30.4847
   -30.4840 -30.4832 -30.4825 -30.4741 -30.4709 -30.4637 -30.4632 -30.4479
   -30.4464 -30.4426 -30.4324 -30.4266 -30.4097 -30.4061 -30.4052 -30.4018
   -20.3185 -20.3184 -20.3181 -20.3180 -20.3179 -20.3178 -20.3175 -20.3174
   -20.3094 -20.3093 -20.3092 -20.3090 -20.3080 -20.3079 -20.3077 -20.3076
   -20.2971 -20.2968 -20.2963 -20.2960 -20.2939 -20.2933 -20.2933 -20.2928
   -20.2908 -20.2908 -20.2902 -20.2901 -20.2892 -20.2891 -20.2887 -20.2886
   -20.2777 -20.2776 -20.2776 -20.2775 -20.2749 -20.2749 -20.2740 -20.2739
   -20.2717 -20.2716 -20.2706 -20.2705 -20.2689 -20.2688 -20.2684 -20.2684
   -20.2609 -20.2608 -20.2606 -20.2605 -20.2603 -20.2602 -20.2599 -20.2598
    -9.8417  -9.6487  -9.4491  -9.3897  -9.2676  -9.1621  -8.9420  -8.8339
    -8.7936  -8.7487  -8.6930  -8.6606  -8.2498  -8.1997  -8.1945  -8.1597
    -7.9309  -7.9164  -7.8593  -7.8370  -7.7749  -7.7572  -7.7401  -7.7242
     1.3622   1.3856   1.4131   1.4369   1.5691   1.5791   1.6457   1.6692
     2.1913   2.2329   2.3019   2.3468   2.4827   2.5426   2.7849   2.8609
     2.9028   2.9394   3.6881   3.7298   3.8842   3.9003   3.9944   4.0526
     4.1072   4.2006   4.5428   4.5909   4.7343   4.7392   4.8522   5.0402
     5.0534   5.0594   5.1368   5.1759   5.4255   5.4616   5.5274   5.7084
     5.7991   5.8609   5.9158   5.9400   5.9589   5.9883   6.0387   6.0592
     6.3634   6.4701   6.4853   6.5491   6.6158   6.6471   6.6659   6.6797
     6.7000   6.7946   6.9355   6.9636   6.9690   7.0145   7.1961   7.2311
     7.3273   7.3519   8.0059   8.0217   8.1019   8.1032   8.1258   8.1327
    10.1278  10.2004  10.4886  10.4990  10.8587  10.8918  12.0455  12.0617
    12.3769  12.4261  12.6159  12.6193  12.6440  12.6762  12.6934  12.7057
    12.7604  12.8191  13.2085  13.3695  13.3820  13.4823  13.4960  13.5464
    14.8153  14.8512  14.9793  15.1825  15.3257  15.3611  15.4572  16.0673
    16.3469  16.6903  16.7634  17.0727  17.4818

          k = 0.0000 0.1648-0.5021 ( 62544 PWs)   bands (ev):

   -66.1541 -66.1541 -66.1535 -66.1535 -66.1534 -66.1534 -66.1529 -66.1529
   -30.5513 -30.5513 -30.5454 -30.5454 -30.4982 -30.4982 -30.4871 -30.4871
   -30.4765 -30.4765 -30.4707 -30.4707 -30.4647 -30.4647 -30.4595 -30.4595
   -30.4490 -30.4490 -30.4398 -30.4398 -30.4081 -30.4081 -30.4037 -30.4037
   -20.3182 -20.3182 -20.3181 -20.3181 -20.3178 -20.3178 -20.3177 -20.3177
   -20.3093 -20.3093 -20.3091 -20.3091 -20.3079 -20.3079 -20.3076 -20.3076
   -20.2969 -20.2969 -20.2962 -20.2962 -20.2936 -20.2936 -20.2931 -20.2931
   -20.2905 -20.2905 -20.2905 -20.2905 -20.2890 -20.2890 -20.2889 -20.2889
   -20.2777 -20.2776 -20.2776 -20.2776 -20.2745 -20.2745 -20.2744 -20.2744
   -20.2712 -20.2711 -20.2711 -20.2711 -20.2687 -20.2687 -20.2686 -20.2686
   -20.2606 -20.2606 -20.2605 -20.2605 -20.2602 -20.2602 -20.2601 -20.2601
    -9.7311  -9.7311  -9.3366  -9.3366  -9.2488  -9.2488  -8.8055  -8.8055
    -8.6064  -8.6063  -8.5158  -8.5158  -8.4835  -8.4835  -8.4556  -8.4555
    -7.9276  -7.9276  -7.8487  -7.8487  -7.7665  -7.7665  -7.7344  -7.7344
     1.3741   1.3741   1.4277   1.4277   1.5794   1.5794   1.6596   1.6596
     2.4835   2.4835   2.8534   2.8534   2.9259   2.9259   3.0198   3.0198
     3.1173   3.1173   3.2726   3.2726   3.5215   3.5215   3.9597   3.9597
     3.9703   3.9704   4.0423   4.0423   4.5906   4.5906   4.9239   4.9239
     5.0371   5.0371   5.2372   5.2373   5.2497   5.2497   5.6330   5.6330
     5.8259   5.8259   5.8646   5.8646   5.9859   5.9859   6.0188   6.0188
     6.3185   6.3185   6.5121   6.5122   6.5752   6.5752   6.6947   6.6947
     6.7339   6.7339   6.9121   6.9121   6.9727   6.9727   7.6631   7.6631
     7.6735   7.6736   7.7797   7.7797   7.8123   7.8124   8.1127   8.1127
    10.1676  10.1676  11.2927  11.2927  11.3113  11.3113  11.6576  11.6576
    11.6747  11.6747  12.6204  12.6204  12.7075  12.7075  12.9814  12.9814
    13.0012  13.0012  13.0385  13.0385  13.1386  13.1386  13.3738  13.3739
    14.8452  14.8452  15.2284  15.2284  15.7655  15.7655  15.8112  15.8112
    16.3025  16.3025  17.2799  17.2799  17.8111

          k = 0.0000 0.3297 0.0000 ( 62650 PWs)   bands (ev):

   -66.1542 -66.1539 -66.1536 -66.1536 -66.1533 -66.1533 -66.1530 -66.1527
   -30.5524 -30.5492 -30.5474 -30.5440 -30.5019 -30.5015 -30.5003 -30.4986
   -30.4907 -30.4871 -30.4768 -30.4747 -30.4684 -30.4620 -30.4540 -30.4463
   -30.4359 -30.4318 -30.4253 -30.4191 -30.4148 -30.4101 -30.4100 -30.4050
   -20.3188 -20.3187 -20.3183 -20.3182 -20.3175 -20.3175 -20.3171 -20.3171
   -20.3095 -20.3094 -20.3092 -20.3090 -20.3080 -20.3079 -20.3078 -20.3076
   -20.2971 -20.2967 -20.2965 -20.2961 -20.2941 -20.2938 -20.2930 -20.2927
   -20.2911 -20.2911 -20.2899 -20.2898 -20.2895 -20.2894 -20.2884 -20.2884
   -20.2770 -20.2769 -20.2764 -20.2764 -20.2756 -20.2755 -20.2741 -20.2740
   -20.2718 -20.2718 -20.2700 -20.2700 -20.2699 -20.2698 -20.2688 -20.2688
   -20.2612 -20.2611 -20.2610 -20.2609 -20.2599 -20.2598 -20.2596 -20.2596
    -9.8795  -9.6700  -9.4754  -9.4633  -9.2896  -9.2647  -8.9246  -8.9055
    -8.8704  -8.6574  -8.6478  -8.6314  -8.1805  -8.0931  -8.0738  -8.0345
    -7.8941  -7.8922  -7.8439  -7.8331  -7.8120  -7.7925  -7.7719  -7.7478
     1.2463   1.2497   1.3289   1.3291   1.4328   1.4446   1.5133   1.5392
     2.2060   2.2813   2.3575   2.4103   2.5432   2.5716   2.7396   2.7430
     2.8247   2.8642   3.4417   3.4791   3.5836   3.6248   4.0988   4.4115
     4.4707   4.5651   4.6164   4.6385   4.6951   4.7559   5.1127   5.1268
     5.1328   5.1374   5.4727   5.5306   5.5701   5.6224   5.6403   5.7132
     5.8338   5.8791   5.9043   5.9396   5.9892   5.9908   6.0871   6.1284
     6.2543   6.2959   6.3553   6.5179   6.6200   6.6311   6.7463   6.8569
     6.8659   6.9294   6.9775   6.9797   7.0614   7.0664   7.1370   7.1745
     7.2004   7.2162   7.9310   7.9583   8.0632   8.1044   8.2742   8.2857
     9.4872   9.5052  10.4749  10.5472  10.7098  10.7950  11.8774  11.9267
    12.1289  12.1417  12.4948  12.5308  12.6904  12.8219  12.8256  12.8903
    13.0505  13.2899  13.2926  13.3444  13.6641  13.7777  13.8891  13.9231
    14.3608  14.4423  14.7385  14.7595  15.0478  15.1981  15.3671  15.5790
    15.6452  17.0257  17.1896  17.3866  17.6751

          k = 0.0000 0.3297 0.1674 ( 62625 PWs)   bands (ev):

   -66.1542 -66.1539 -66.1537 -66.1536 -66.1533 -66.1533 -66.1531 -66.1527
   -30.5520 -30.5488 -30.5477 -30.5444 -30.4980 -30.4967 -30.4956 -30.4942
   -30.4902 -30.4873 -30.4763 -30.4750 -30.4691 -30.4608 -30.4552 -30.4455
   -30.4388 -30.4351 -30.4248 -30.4194 -30.4187 -30.4144 -30.4125 -30.4074
   -20.3187 -20.3186 -20.3182 -20.3182 -20.3176 -20.3176 -20.3172 -20.3171
   -20.3095 -20.3094 -20.3092 -20.3090 -20.3080 -20.3078 -20.3078 -20.3076
   -20.2970 -20.2966 -20.2965 -20.2961 -20.2940 -20.2937 -20.2930 -20.2927
   -20.2911 -20.2910 -20.2899 -20.2899 -20.2894 -20.2893 -20.2885 -20.2885
   -20.2769 -20.2769 -20.2765 -20.2764 -20.2755 -20.2755 -20.2742 -20.2742
   -20.2717 -20.2717 -20.2700 -20.2699 -20.2699 -20.2699 -20.2689 -20.2689
   -20.2611 -20.2610 -20.2610 -20.2608 -20.2600 -20.2599 -20.2597 -20.2596
    -9.8353  -9.6209  -9.4817  -9.4047  -9.2769  -9.2087  -8.8943  -8.8802
    -8.8725  -8.6599  -8.6330  -8.6245  -8.1992  -8.1091  -8.0752  -8.0389
    -7.9387  -7.8964  -7.8891  -7.8823  -7.8605  -7.8483  -7.8379  -7.8361
     1.3439   1.3527   1.4286   1.4408   1.5582   1.5657   1.6558   1.6874
     2.2129   2.2797   2.3561   2.4169   2.6176   2.6325   2.7375   2.7619
     2.9058   2.9390   3.4699   3.5218   3.5792   3.6201   4.0861   4.3497
     4.3529   4.4574   4.4673   4.6010   4.6538   4.7731   4.8443   4.8568
     5.1254   5.1618   5.3594   5.4005   5.4268   5.4690   5.6005   5.6056
     5.6796   5.8317   5.8519   5.8668   5.8784   5.9307   5.9985   6.0065
     6.3985   6.4878   6.5602   6.5665   6.6669   6.7592   6.8073   6.8262
     6.8580   6.8881   6.8979   6.9670   6.9967   7.0176   7.1268   7.2055
     7.2091   7.2445   7.9364   7.9519   8.0357   8.0676   8.2138   8.2267
     9.7922   9.8060  10.6602  10.7183  10.7225  10.7895  11.9644  12.0094
    12.1284  12.1454  12.5473  12.5720  12.6124  12.6201  12.7516  12.8893
    13.0073  13.1077  13.2142  13.3236  13.5286  13.6117  13.7618  13.7942
    14.6209  14.6431  14.8075  14.9513  15.1806  15.3300  15.6188  15.7375
    15.7453  17.1193  17.1498  17.3398  17.4416

          k = 0.0000 0.3297 0.3347 ( 62606 PWs)   bands (ev):

   -66.1541 -66.1538 -66.1538 -66.1535 -66.1535 -66.1532 -66.1532 -66.1528
   -30.5511 -30.5486 -30.5478 -30.5453 -30.4912 -30.4884 -30.4857 -30.4844
   -30.4834 -30.4827 -30.4760 -30.4734 -30.4716 -30.4595 -30.4560 -30.4487
   -30.4455 -30.4427 -30.4314 -30.4253 -30.4235 -30.4176 -30.4172 -30.4118
   -20.3185 -20.3184 -20.3180 -20.3180 -20.3179 -20.3178 -20.3175 -20.3174
   -20.3094 -20.3093 -20.3092 -20.3091 -20.3079 -20.3078 -20.3078 -20.3076
   -20.2969 -20.2966 -20.2965 -20.2962 -20.2938 -20.2935 -20.2932 -20.2929
   -20.2908 -20.2908 -20.2902 -20.2902 -20.2892 -20.2891 -20.2887 -20.2886
   -20.2769 -20.2768 -20.2766 -20.2765 -20.2752 -20.2752 -20.2745 -20.2745
   -20.2714 -20.2713 -20.2704 -20.2703 -20.2697 -20.2697 -20.2692 -20.2691
   -20.2609 -20.2607 -20.2607 -20.2606 -20.2602 -20.2601 -20.2600 -20.2599
    -9.7270  -9.5270  -9.5036  -9.3136  -9.2327  -8.9829  -8.9304  -8.7950
    -8.7570  -8.6713  -8.5906  -8.5717  -8.3367  -8.2505  -8.1824  -8.1468
    -8.0807  -8.0540  -8.0193  -7.9864  -7.8784  -7.8678  -7.8540  -7.8451
     1.3944   1.4082   1.4194   1.4326   2.0758   2.1456   2.1929   2.2267
     2.2952   2.3359   2.3936   2.5130   2.6890   2.7437   2.8409   2.9277
     3.0967   3.1164   3.4707   3.5507   3.5740   3.6196   3.8603   3.8674
     4.0707   4.2872   4.3351   4.3814   4.4130   4.5768   4.5959   4.7904
     4.8551   4.9398   5.0290   5.0585   5.1615   5.1861   5.3584   5.3609
     5.3943   5.5246   5.7320   5.8420   5.9131   5.9569   6.0057   6.0261
     6.4949   6.5012   6.5286   6.5577   6.5836   6.6375   6.7365   6.7613
     6.9135   7.0785   7.1027   7.1248   7.1782   7.2056   7.2578   7.3025
     7.3520   7.3716   7.9174   7.9261   7.9425   7.9473   8.0252   8.0546
    10.4746  10.4940  10.7517  10.7729  11.1639  11.2020  12.0374  12.0492
    12.1183  12.1742  12.2492  12.2650  12.5502  12.5940  12.7273  12.7392
    12.8161  12.8906  13.1488  13.1991  13.2108  13.3134  13.4588  13.4599
    14.8508  14.9489  14.9702  15.2750  15.4155  15.9382  16.0862  16.2499
    16.5994  16.7254  17.0272  17.4202  17.4940

          k = 0.0000 0.3297-0.5021 ( 62604 PWs)   bands (ev):

   -66.1539 -66.1539 -66.1536 -66.1536 -66.1533 -66.1533 -66.1530 -66.1530
   -30.5498 -30.5498 -30.5465 -30.5465 -30.4894 -30.4894 -30.4779 -30.4779
   -30.4769 -30.4769 -30.4689 -30.4689 -30.4654 -30.4654 -30.4612 -30.4612
   -30.4458 -30.4458 -30.4364 -30.4363 -30.4211 -30.4211 -30.4153 -30.4152
   -20.3182 -20.3182 -20.3181 -20.3181 -20.3178 -20.3178 -20.3177 -20.3177
   -20.3093 -20.3093 -20.3092 -20.3092 -20.3078 -20.3078 -20.3077 -20.3077
   -20.2968 -20.2968 -20.2963 -20.2963 -20.2935 -20.2935 -20.2932 -20.2932
   -20.2905 -20.2905 -20.2905 -20.2905 -20.2889 -20.2889 -20.2889 -20.2889
   -20.2768 -20.2768 -20.2767 -20.2767 -20.2749 -20.2749 -20.2748 -20.2748
   -20.2709 -20.2709 -20.2708 -20.2708 -20.2695 -20.2695 -20.2694 -20.2694
   -20.2605 -20.2605 -20.2604 -20.2604 -20.2603 -20.2603 -20.2602 -20.2602
    -9.6107  -9.6107  -9.3875  -9.3875  -9.0435  -9.0435  -8.7032  -8.7032
    -8.6571  -8.6571  -8.5334  -8.5333  -8.4500  -8.4499  -8.4159  -8.4159
    -8.0779  -8.0779  -8.0229  -8.0229  -7.8665  -7.8665  -7.8570  -7.8570
     1.4089   1.4089   1.4230   1.4230   2.2024   2.2024   2.3238   2.3238
     2.6791   2.6791   2.9380   2.9380   2.9853   2.9853   3.0214   3.0214
     3.0990   3.0990   3.3257   3.3257   3.4628   3.4628   3.6463   3.6463
     4.0854   4.0854   4.1141   4.1141   4.1432   4.1433   4.3498   4.3498
     4.9297   4.9297   5.0594   5.0594   5.1584   5.1584   5.1848   5.1848
     5.3168   5.3168   5.7898   5.7898   5.9667   5.9667   6.0035   6.0035
     6.4245   6.4245   6.4892   6.4892   6.5604   6.5604   6.7510   6.7510
     7.0597   7.0597   7.1627   7.1627   7.2184   7.2185   7.6462   7.6462
     7.6677   7.6677   7.7035   7.7035   7.7312   7.7312   7.9643   7.9643
    10.7438  10.7438  11.2929  11.2929  11.3169  11.3169  11.8308  11.8308
    11.8703  11.8703  12.1960  12.1960  12.6545  12.6545  12.6760  12.6760
    12.8585  12.8585  13.0050  13.0050  13.0865  13.0865  13.3167  13.3167
    14.9265  14.9265  15.1596  15.1596  16.1192  16.1192  16.6543  16.6544
    16.7769  16.7769  16.8791  16.8791  17.8223

          k = 0.0000-0.4945 0.0000 ( 62598 PWs)   bands (ev):

   -66.1541 -66.1541 -66.1535 -66.1535 -66.1535 -66.1535 -66.1529 -66.1529
   -30.5507 -30.5507 -30.5456 -30.5456 -30.5013 -30.5013 -30.4994 -30.4994
   -30.4821 -30.4821 -30.4792 -30.4791 -30.4508 -30.4508 -30.4442 -30.4442
   -30.4434 -30.4434 -30.4345 -30.4344 -30.4139 -30.4139 -30.4089 -30.4089
   -20.3187 -20.3187 -20.3183 -20.3183 -20.3175 -20.3175 -20.3171 -20.3171
   -20.3095 -20.3095 -20.3091 -20.3091 -20.3079 -20.3079 -20.3077 -20.3077
   -20.2969 -20.2969 -20.2963 -20.2963 -20.2939 -20.2939 -20.2928 -20.2928
   -20.2911 -20.2911 -20.2898 -20.2898 -20.2894 -20.2894 -20.2884 -20.2884
   -20.2761 -20.2761 -20.2761 -20.2761 -20.2752 -20.2751 -20.2751 -20.2751
   -20.2711 -20.2711 -20.2710 -20.2710 -20.2695 -20.2695 -20.2694 -20.2694
   -20.2611 -20.2611 -20.2610 -20.2610 -20.2598 -20.2598 -20.2597 -20.2597
    -9.7618  -9.7618  -9.3627  -9.3627  -9.3438  -9.3437  -8.9147  -8.9147
    -8.5274  -8.5274  -8.4114  -8.4114  -8.3977  -8.3977  -8.3749  -8.3749
    -7.8998  -7.8998  -7.8428  -7.8428  -7.8050  -7.8050  -7.7626  -7.7626
     1.2475   1.2475   1.3298   1.3298   1.4401   1.4401   1.5316   1.5316
     2.5526   2.5526   2.9057   2.9057   2.9530   2.9530   3.0029   3.0029
     3.0794   3.0794   3.2678   3.2678   3.5043   3.5043   3.5176   3.5176
     3.6807   3.6807   4.5813   4.5813   4.6602   4.6603   5.2933   5.2933
     5.3602   5.3602   5.3804   5.3804   5.3870   5.3870   5.7139   5.7139
     5.8337   5.8337   5.8949   5.8949   5.9825   5.9825   5.9916   5.9916
     6.3223   6.3223   6.3579   6.3579   6.5943   6.5943   6.7288   6.7288
     6.9255   6.9255   6.9764   6.9764   7.0662   7.0662   7.6028   7.6028
     7.6068   7.6068   7.6453   7.6453   7.6963   7.6963   8.2798   8.2798
     9.5009   9.5009  11.1926  11.1926  11.2221  11.2221  11.4529  11.4529
    11.5182  11.5182  12.5118  12.5118  12.8238  12.8238  12.8838  12.8838
    13.1045  13.1045  13.4506  13.4506  13.5146  13.5146  13.8903  13.8903
    14.4443  14.4443  15.0311  15.0311  15.0656  15.0656  15.2312  15.2312
    16.4420  16.4420  17.7042  17.7042  17.9475

          k = 0.0000-0.4945 0.1674 ( 62616 PWs)   bands (ev):

   -66.1540 -66.1540 -66.1535 -66.1535 -66.1534 -66.1534 -66.1529 -66.1529
   -30.5503 -30.5503 -30.5459 -30.5459 -30.4967 -30.4967 -30.4949 -30.4949
   -30.4817 -30.4817 -30.4794 -30.4794 -30.4521 -30.4521 -30.4452 -30.4452
   -30.4435 -30.4435 -30.4339 -30.4339 -30.4179 -30.4179 -30.4127 -30.4126
   -20.3187 -20.3187 -20.3182 -20.3182 -20.3176 -20.3176 -20.3172 -20.3172
   -20.3094 -20.3094 -20.3091 -20.3091 -20.3079 -20.3079 -20.3077 -20.3077
   -20.2968 -20.2968 -20.2963 -20.2963 -20.2938 -20.2938 -20.2929 -20.2929
   -20.2910 -20.2910 -20.2899 -20.2899 -20.2893 -20.2893 -20.2885 -20.2885
   -20.2761 -20.2761 -20.2760 -20.2760 -20.2752 -20.2752 -20.2752 -20.2752
   -20.2710 -20.2710 -20.2709 -20.2709 -20.2696 -20.2696 -20.2695 -20.2695
   -20.2610 -20.2610 -20.2609 -20.2609 -20.2599 -20.2599 -20.2598 -20.2598
    -9.7144  -9.7144  -9.3590  -9.3590  -9.2842  -9.2842  -8.8816  -8.8816
    -8.5411  -8.5411  -8.4180  -8.4180  -8.3919  -8.3919  -8.3728  -8.3727
    -7.9277  -7.9277  -7.8850  -7.8850  -7.8612  -7.8612  -7.8451  -7.8451
     1.3483   1.3483   1.4361   1.4361   1.5647   1.5647   1.6797   1.6797
     2.6323   2.6323   2.9111   2.9111   2.9564   2.9564   3.0144   3.0144
     3.1344   3.1344   3.2569   3.2569   3.5016   3.5016   3.5511   3.5511
     3.6993   3.6993   4.3734   4.3734   4.6240   4.6240   5.1153   5.1153
     5.1421   5.1421   5.3099   5.3099   5.4104   5.4104   5.5500   5.5500
     5.6635   5.6636   5.7033   5.7033   5.9148   5.9148   5.9912   5.9912
     6.4590   6.4590   6.5527   6.5527   6.6095   6.6095   6.8250   6.8250
     6.8948   6.8948   6.9478   6.9478   7.0523   7.0523   7.5902   7.5902
     7.6152   7.6152   7.6509   7.6509   7.6834   7.6834   8.2202   8.2202
     9.8027   9.8027  11.2895  11.2895  11.3339  11.3339  11.4602  11.4602
    11.5409  11.5409  12.5608  12.5608  12.6186  12.6186  12.9339  12.9339
    13.1031  13.1032  13.2842  13.2842  13.3364  13.3364  13.7645  13.7645
    14.6341  14.6341  15.1683  15.1683  15.2138  15.2138  15.4644  15.4644
    16.5437  16.5437  17.6440  17.6440  17.7458

          k = 0.0000-0.4945 0.3347 ( 62590 PWs)   bands (ev):

   -66.1539 -66.1539 -66.1536 -66.1536 -66.1533 -66.1533 -66.1530 -66.1530
   -30.5493 -30.5493 -30.5468 -30.5468 -30.4855 -30.4855 -30.4835 -30.4835
   -30.4804 -30.4804 -30.4783 -30.4783 -30.4570 -30.4570 -30.4521 -30.4521
   -30.4412 -30.4412 -30.4320 -30.4320 -30.4274 -30.4274 -30.4211 -30.4211
   -20.3185 -20.3185 -20.3180 -20.3180 -20.3178 -20.3178 -20.3174 -20.3174
   -20.3093 -20.3093 -20.3091 -20.3091 -20.3078 -20.3078 -20.3077 -20.3077
   -20.2967 -20.2967 -20.2964 -20.2964 -20.2936 -20.2936 -20.2931 -20.2931
   -20.2908 -20.2908 -20.2902 -20.2902 -20.2892 -20.2892 -20.2887 -20.2887
   -20.2759 -20.2759 -20.2759 -20.2759 -20.2754 -20.2754 -20.2754 -20.2754
   -20.2707 -20.2707 -20.2707 -20.2707 -20.2699 -20.2699 -20.2698 -20.2698
   -20.2608 -20.2608 -20.2607 -20.2606 -20.2601 -20.2601 -20.2600 -20.2600
    -9.5996  -9.5996  -9.4004  -9.4004  -9.0748  -9.0748  -8.7711  -8.7711
    -8.6064  -8.6064  -8.4507  -8.4507  -8.3703  -8.3703  -8.3615  -8.3615
    -8.1514  -8.1514  -8.1137  -8.1137  -7.8779  -7.8779  -7.8547  -7.8547
     1.4024   1.4024   1.4275   1.4275   2.1813   2.1813   2.2745   2.2745
     2.8320   2.8320   2.9097   2.9097   3.0019   3.0019   3.0448   3.0448
     3.2287   3.2287   3.2551   3.2551   3.4702   3.4702   3.6167   3.6167
     3.7363   3.7363   3.8713   3.8713   4.5269   4.5269   4.6630   4.6630
     4.8181   4.8181   4.9509   4.9509   5.0611   5.0611   5.2721   5.2721
     5.4489   5.4489   5.6107   5.6107   5.9458   5.9458   6.0264   6.0264
     6.5145   6.5145   6.5455   6.5455   6.6110   6.6110   6.6315   6.6315
     7.1172   7.1172   7.2705   7.2705   7.3068   7.3068   7.5645   7.5645
     7.6163   7.6163   7.6370   7.6370   7.6474   7.6474   8.0341   8.0341
    10.4914  10.4914  11.4240  11.4240  11.4579  11.4579  11.6874  11.6874
    11.7497  11.7497  12.0767  12.0767  12.7279  12.7279  12.7977  12.7977
    12.8449  12.8449  13.0573  13.0573  13.0998  13.0998  13.4430  13.4430
    14.9015  14.9015  15.1365  15.1365  15.7764  15.7764  16.3877  16.3877
    16.8757  16.8757  17.1204  17.1204  17.8062

          k = 0.0000-0.4945-0.5021 ( 62624 PWs)   bands (ev):

   -66.1538 -66.1538 -66.1538 -66.1538 -66.1532 -66.1532 -66.1532 -66.1532
   -30.5481 -30.5481 -30.5480 -30.5480 -30.4816 -30.4816 -30.4816 -30.4816
   -30.4682 -30.4682 -30.4682 -30.4682 -30.4652 -30.4652 -30.4652 -30.4652
   -30.4363 -30.4363 -30.4363 -30.4363 -30.4281 -30.4281 -30.4281 -30.4281
   -20.3182 -20.3182 -20.3182 -20.3182 -20.3177 -20.3177 -20.3177 -20.3177
   -20.3092 -20.3092 -20.3092 -20.3092 -20.3078 -20.3078 -20.3078 -20.3078
   -20.2966 -20.2966 -20.2965 -20.2965 -20.2933 -20.2933 -20.2933 -20.2933
   -20.2905 -20.2905 -20.2905 -20.2905 -20.2889 -20.2889 -20.2889 -20.2889
   -20.2757 -20.2757 -20.2757 -20.2757 -20.2757 -20.2756 -20.2756 -20.2756
   -20.2703 -20.2703 -20.2703 -20.2703 -20.2703 -20.2703 -20.2702 -20.2702
   -20.2605 -20.2604 -20.2604 -20.2604 -20.2603 -20.2603 -20.2603 -20.2603
    -9.4808  -9.4808  -9.4808  -9.4808  -8.8001  -8.8001  -8.8000  -8.8000
    -8.5834  -8.5834  -8.5834  -8.5834  -8.3257  -8.3257  -8.3257  -8.3257
    -8.2959  -8.2959  -8.2959  -8.2959  -7.8669  -7.8669  -7.8669  -7.8669
     1.4173   1.4173   1.4173   1.4173   2.7851   2.7851   2.7851   2.7851
     2.8929   2.8929   2.8930   2.8930   3.1553   3.1553   3.1553   3.1553
     3.2260   3.2260   3.2260   3.2260   3.4335   3.4335   3.4335   3.4335
     3.6119   3.6119   3.6119   3.6119   4.4324   4.4324   4.4324   4.4324
     4.4806   4.4806   4.4806   4.4806   5.1572   5.1572   5.1573   5.1573
     5.5037   5.5037   5.5037   5.5037   5.9993   5.9993   5.9993   5.9993
     6.4649   6.4649   6.4649   6.4649   6.5996   6.5996   6.5996   6.5996
     7.4810   7.4810   7.4810   7.4810   7.5041   7.5041   7.5041   7.5041
     7.5171   7.5171   7.5172   7.5172   7.7644   7.7644   7.7644   7.7644
    11.2678  11.2678  11.2678  11.2678  11.4912  11.4912  11.4912  11.4912
    12.2221  12.2221  12.2221  12.2221  12.2630  12.2630  12.2630  12.2630
    12.9883  12.9883  12.9883  12.9883  13.1412  13.1412  13.1412  13.1412
    15.0495  15.0495  15.0495  15.0495  16.4815  16.4815  16.4815  16.4815
    17.4380  17.4380  17.4380  17.4381  17.5330

          k = 0.1667 0.0000 0.0000 ( 62613 PWs)   bands (ev):

   -66.1544 -66.1538 -66.1537 -66.1537 -66.1532 -66.1532 -66.1531 -66.1526
   -30.5501 -30.5452 -30.5432 -30.5380 -30.5051 -30.5046 -30.5021 -30.5017
   -30.5013 -30.4984 -30.4857 -30.4778 -30.4770 -30.4762 -30.4640 -30.4568
   -30.4277 -30.4246 -30.4144 -30.4105 -30.4056 -30.4020 -30.3989 -30.3954
   -20.3188 -20.3187 -20.3184 -20.3183 -20.3175 -20.3174 -20.3172 -20.3170
   -20.3095 -20.3092 -20.3091 -20.3089 -20.3082 -20.3080 -20.3079 -20.3076
   -20.2971 -20.2965 -20.2963 -20.2956 -20.2944 -20.2938 -20.2934 -20.2927
   -20.2910 -20.2910 -20.2898 -20.2897 -20.2896 -20.2895 -20.2885 -20.2885
   -20.2780 -20.2780 -20.2778 -20.2777 -20.2752 -20.2752 -20.2733 -20.2732
   -20.2723 -20.2723 -20.2701 -20.2700 -20.2687 -20.2686 -20.2679 -20.2679
   -20.2612 -20.2611 -20.2609 -20.2608 -20.2600 -20.2599 -20.2595 -20.2594
    -9.9866  -9.6480  -9.5888  -9.5531  -9.2510  -9.2073  -9.1342  -8.9047
    -8.8636  -8.8236  -8.8089  -8.7932  -8.0545  -7.9865  -7.9812  -7.9406
    -7.8245  -7.8221  -7.7947  -7.7832  -7.6695  -7.6435  -7.6208  -7.5979
     1.2515   1.2791   1.2953   1.3227   1.3271   1.3398   1.3845   1.4136
     1.6680   1.6963   1.7552   1.8094   2.4427   2.4832   2.5110   2.5398
     2.5906   2.7230   3.9870   4.0543   4.2105   4.2516   4.3327   4.3801
     4.4405   4.4490   4.6910   4.7423   4.8883   4.9245   5.1648   5.3209
     5.4452   5.5508   5.5686   5.6226   5.6644   5.7077   5.7204   5.7879
     5.8672   5.9187   5.9484   6.0085   6.0213   6.0262   6.1297   6.1976
     6.2041   6.4297   6.4391   6.4564   6.5170   6.6478   6.7114   6.7116
     6.7403   6.7928   6.9090   6.9379   6.9469   7.0278   7.0294   7.0957
     7.1724   7.1983   8.0850   8.1316   8.1952   8.2237   8.4257   8.4448
     9.6432   9.7033   9.7438   9.9270  10.1188  10.2486  12.3056  12.3118
    12.4830  12.5841  12.5965  12.6355  12.7960  12.8313  12.8648  12.8678
    13.1328  13.1950  13.2700  13.4286  13.7610  13.8134  14.0241  14.0583
    14.1188  14.1701  14.5361  14.7834  14.8878  14.9285  15.2743  15.7790
    15.7809  16.4810  16.5954  17.0875  17.1761

          k = 0.1667 0.0000 0.1674 ( 62613 PWs)   bands (ev):

   -66.1543 -66.1538 -66.1538 -66.1537 -66.1533 -66.1532 -66.1531 -66.1526
   -30.5497 -30.5455 -30.5428 -30.5383 -30.5055 -30.5018 -30.5011 -30.4975
   -30.4966 -30.4944 -30.4862 -30.4773 -30.4771 -30.4736 -30.4648 -30.4557
   -30.4323 -30.4293 -30.4193 -30.4152 -30.4052 -30.4017 -30.3997 -30.3963
   -20.3187 -20.3186 -20.3183 -20.3182 -20.3176 -20.3175 -20.3173 -20.3171
   -20.3095 -20.3092 -20.3091 -20.3089 -20.3082 -20.3080 -20.3078 -20.3076
   -20.2970 -20.2965 -20.2962 -20.2957 -20.2944 -20.2937 -20.2935 -20.2928
   -20.2910 -20.2909 -20.2899 -20.2898 -20.2895 -20.2894 -20.2886 -20.2886
   -20.2780 -20.2780 -20.2778 -20.2778 -20.2751 -20.2751 -20.2735 -20.2734
   -20.2722 -20.2721 -20.2703 -20.2702 -20.2686 -20.2686 -20.2680 -20.2680
   -20.2611 -20.2610 -20.2608 -20.2607 -20.2601 -20.2600 -20.2596 -20.2595
    -9.9455  -9.6030  -9.5959  -9.4998  -9.2194  -9.1697  -9.1441  -8.8701
    -8.8354  -8.8007  -8.7945  -8.7934  -8.0660  -7.9972  -7.9838  -7.9568
    -7.9203  -7.9167  -7.8868  -7.8805  -7.6783  -7.6470  -7.6312  -7.6013
     1.2744   1.3188   1.3314   1.3777   1.4841   1.4868   1.5648   1.6098
     1.6712   1.6981   1.8080   1.8729   2.4863   2.5160   2.5486   2.5887
     2.6793   2.8026   3.9653   4.0211   4.1910   4.1952   4.4027   4.4030
     4.4376   4.4496   4.4521   4.5135   4.6122   4.6465   5.1598   5.2903
     5.3674   5.4338   5.5022   5.5077   5.5863   5.6747   5.7542   5.7565
     5.7757   5.8027   5.8570   5.9144   6.0466   6.0524   6.1184   6.1869
     6.2436   6.4750   6.5691   6.6175   6.6533   6.6764   6.6767   6.6936
     6.7224   6.7400   6.8308   6.8966   6.9299   6.9921   7.0585   7.0610
     7.0823   7.1210   8.0896   8.1244   8.1415   8.1682   8.3615   8.3840
     9.9338   9.9977  10.0212  10.1246  10.1932  10.2421  12.3689  12.3693
    12.4998  12.5906  12.6483  12.6603  12.6768  12.6890  12.7873  12.8318
    12.9433  12.9969  13.3089  13.4295  13.6379  13.6786  13.9386  13.9838
    14.3346  14.4329  14.7363  14.8481  14.9003  15.0151  15.6798  15.7531
    15.7620  16.6317  16.7115  16.8302  17.2585

          k = 0.1667 0.0000 0.3347 ( 62606 PWs)   bands (ev):

   -66.1542 -66.1539 -66.1537 -66.1536 -66.1534 -66.1532 -66.1530 -66.1527
   -30.5487 -30.5463 -30.5417 -30.5392 -30.5048 -30.5026 -30.4953 -30.4879
   -30.4868 -30.4842 -30.4830 -30.4782 -30.4733 -30.4674 -30.4647 -30.4515
   -30.4456 -30.4423 -30.4323 -30.4274 -30.4043 -30.4013 -30.4008 -30.3979
   -20.3185 -20.3184 -20.3181 -20.3180 -20.3179 -20.3178 -20.3175 -20.3174
   -20.3094 -20.3092 -20.3091 -20.3089 -20.3081 -20.3080 -20.3078 -20.3077
   -20.2969 -20.2966 -20.2961 -20.2958 -20.2941 -20.2936 -20.2935 -20.2930
   -20.2907 -20.2907 -20.2901 -20.2901 -20.2894 -20.2892 -20.2888 -20.2888
   -20.2780 -20.2779 -20.2779 -20.2778 -20.2748 -20.2748 -20.2738 -20.2738
   -20.2718 -20.2717 -20.2707 -20.2706 -20.2685 -20.2685 -20.2681 -20.2681
   -20.2609 -20.2608 -20.2606 -20.2604 -20.2603 -20.2602 -20.2598 -20.2597
    -9.8442  -9.6497  -9.4691  -9.3716  -9.2589  -9.1777  -8.9408  -8.8217
    -8.8017  -8.7271  -8.7124  -8.6862  -8.2490  -8.1973  -8.1913  -8.1701
    -8.0083  -7.9927  -7.9579  -7.9347  -7.6784  -7.6564  -7.6315  -7.6103
     1.2847   1.3146   1.3363   1.3636   1.6431   1.6460   1.6730   1.6908
     2.1963   2.2252   2.3057   2.3369   2.4906   2.5462   2.7486   2.7858
     2.9366   3.0281   3.7394   3.7566   3.9721   4.0018   4.0532   4.0723
     4.1473   4.2319   4.4425   4.4759   4.5256   4.6675   4.7315   4.8433
     5.1152   5.2026   5.2092   5.3086   5.3649   5.4288   5.6179   5.7463
     5.8231   5.8310   5.8568   5.8938   5.8967   5.9647   6.1019   6.1908
     6.3269   6.3839   6.4382   6.5179   6.5330   6.6217   6.6370   6.7026
     6.7441   6.8597   6.9362   6.9762   6.9904   7.0493   7.2096   7.2312
     7.3367   7.3629   7.9637   7.9863   8.0996   8.1080   8.1606   8.1943
    10.1500  10.2210  10.5982  10.6221  10.7717  10.8167  12.0974  12.1126
    12.3668  12.4071  12.5495  12.5607  12.5715  12.6127  12.8242  12.8319
    12.8545  12.9020  13.2177  13.2963  13.4353  13.4565  13.5969  13.6382
    14.7741  14.8583  14.9817  15.2055  15.2207  15.3926  15.6442  15.7063
    16.2892  16.6915  17.0635  17.0672  17.1697

          k = 0.1667 0.0000-0.5021 ( 62530 PWs)   bands (ev):

   -66.1541 -66.1541 -66.1535 -66.1535 -66.1534 -66.1534 -66.1529 -66.1529
   -30.5475 -30.5475 -30.5405 -30.5405 -30.5037 -30.5037 -30.4907 -30.4907
   -30.4806 -30.4806 -30.4735 -30.4735 -30.4643 -30.4643 -30.4597 -30.4597
   -30.4494 -30.4494 -30.4418 -30.4418 -30.4029 -30.4029 -30.3995 -30.3995
   -20.3182 -20.3182 -20.3181 -20.3181 -20.3178 -20.3178 -20.3177 -20.3177
   -20.3093 -20.3093 -20.3090 -20.3090 -20.3080 -20.3080 -20.3077 -20.3077
   -20.2968 -20.2967 -20.2959 -20.2959 -20.2939 -20.2939 -20.2932 -20.2932
   -20.2904 -20.2904 -20.2904 -20.2904 -20.2891 -20.2891 -20.2890 -20.2890
   -20.2780 -20.2780 -20.2779 -20.2779 -20.2744 -20.2743 -20.2743 -20.2743
   -20.2712 -20.2712 -20.2711 -20.2711 -20.2683 -20.2683 -20.2683 -20.2683
   -20.2606 -20.2606 -20.2605 -20.2605 -20.2602 -20.2602 -20.2601 -20.2601
    -9.7328  -9.7328  -9.3406  -9.3406  -9.2494  -9.2494  -8.8092  -8.8092
    -8.6053  -8.6052  -8.5042  -8.5042  -8.4885  -8.4884  -8.4685  -8.4685
    -8.0046  -8.0046  -7.9490  -7.9490  -7.6685  -7.6685  -7.6219  -7.6219
     1.2976   1.2976   1.3489   1.3489   1.6589   1.6589   1.6841   1.6841
     2.4900   2.4900   2.8263   2.8263   2.8784   2.8785   3.0421   3.0421
     3.1118   3.1119   3.3453   3.3454   3.6085   3.6086   3.9040   3.9040
     3.9361   3.9361   4.1831   4.1831   4.4456   4.4456   4.9126   4.9126
     5.0838   5.0838   5.1149   5.1149   5.2588   5.2588   5.6511   5.6511
     5.8116   5.8116   5.8689   5.8689   5.9572   5.9572   6.1505   6.1505
     6.2638   6.2638   6.4590   6.4590   6.5030   6.5030   6.6771   6.6771
     6.7806   6.7806   6.9245   6.9245   7.0363   7.0363   7.6479   7.6479
     7.6605   7.6606   7.8101   7.8101   7.8325   7.8325   8.1097   8.1097
    10.1883  10.1883  11.3656  11.3656  11.3923  11.3923  11.6083  11.6083
    11.6278  11.6278  12.5843  12.5843  12.8215  12.8215  12.8664  12.8664
    12.9112  12.9112  13.1857  13.1857  13.2299  13.2299  13.4295  13.4295
    14.8408  14.8408  15.4170  15.4170  15.5230  15.5230  15.7288  15.7288
    16.2870  16.2870  17.4119  17.4119  17.7385

          k = 0.1667 0.1648 0.0000 ( 62595 PWs)   bands (ev):

   -66.1543 -66.1538 -66.1537 -66.1537 -66.1532 -66.1532 -66.1531 -66.1526
   -30.5494 -30.5446 -30.5435 -30.5384 -30.5034 -30.5017 -30.5017 -30.5015
   -30.4986 -30.4979 -30.4809 -30.4785 -30.4776 -30.4727 -30.4623 -30.4549
   -30.4291 -30.4261 -30.4145 -30.4108 -30.4105 -30.4069 -30.4026 -30.3988
   -20.3187 -20.3187 -20.3184 -20.3183 -20.3175 -20.3174 -20.3172 -20.3171
   -20.3095 -20.3093 -20.3091 -20.3089 -20.3082 -20.3079 -20.3079 -20.3077
   -20.2970 -20.2964 -20.2963 -20.2957 -20.2944 -20.2938 -20.2934 -20.2928
   -20.2910 -20.2910 -20.2898 -20.2897 -20.2896 -20.2895 -20.2885 -20.2885
   -20.2777 -20.2777 -20.2774 -20.2774 -20.2753 -20.2753 -20.2735 -20.2734
   -20.2722 -20.2722 -20.2701 -20.2700 -20.2690 -20.2690 -20.2682 -20.2682
   -20.2612 -20.2611 -20.2610 -20.2608 -20.2600 -20.2599 -20.2595 -20.2594
    -9.9438  -9.6003  -9.5718  -9.5333  -9.2623  -9.1480  -9.1225  -8.9007
    -8.8661  -8.7853  -8.7658  -8.7593  -8.0645  -7.9886  -7.9880  -7.9518
    -7.8532  -7.8366  -7.8196  -7.7811  -7.7544  -7.7394  -7.7201  -7.6968
     1.2901   1.2946   1.3192   1.3278   1.4921   1.5398   1.6136   1.6222
     1.6809   1.7442   1.7692   1.8687   2.5210   2.5532   2.5944   2.6003
     2.6199   2.7230   3.8302   3.8871   4.0004   4.1068   4.2634   4.3477
     4.4538   4.5015   4.6915   4.7418   4.9564   4.9601   4.9816   5.2288
     5.3156   5.3652   5.3895   5.5365   5.5549   5.6412   5.6543   5.7570
     5.7642   5.9234   5.9473   5.9946   5.9993   6.0672   6.2389   6.2575
     6.2693   6.3336   6.4358   6.4581   6.5854   6.6580   6.6776   6.7290
     6.7646   6.8767   6.9197   6.9315   6.9392   6.9472   7.0469   7.0567
     7.1425   7.1781   8.0564   8.0962   8.1973   8.2197   8.3358   8.3605
     9.7201   9.7449   9.9172  10.0527  10.3260  10.4414  12.2605  12.3144
    12.4165  12.4769  12.5284  12.6240  12.6514  12.6860  12.8632  12.8680
    13.1582  13.2159  13.3038  13.4353  13.7473  13.8000  13.9840  14.0197
    14.1481  14.3679  14.5309  14.8722  14.9773  15.0433  15.2560  15.7504
    16.1754  16.2287  16.7915  17.2812  17.3348

          k = 0.1667 0.1648 0.1674 ( 62591 PWs)   bands (ev):

   -66.1543 -66.1538 -66.1537 -66.1537 -66.1532 -66.1532 -66.1532 -66.1527
   -30.5490 -30.5448 -30.5431 -30.5387 -30.5024 -30.4993 -30.4983 -30.4971
   -30.4965 -30.4945 -30.4815 -30.4779 -30.4778 -30.4706 -30.4631 -30.4538
   -30.4334 -30.4304 -30.4193 -30.4152 -30.4105 -30.4065 -30.4037 -30.4000
   -20.3187 -20.3186 -20.3183 -20.3182 -20.3176 -20.3175 -20.3173 -20.3171
   -20.3094 -20.3092 -20.3091 -20.3089 -20.3081 -20.3079 -20.3079 -20.3077
   -20.2970 -20.2964 -20.2963 -20.2957 -20.2943 -20.2938 -20.2934 -20.2928
   -20.2910 -20.2909 -20.2899 -20.2898 -20.2895 -20.2894 -20.2886 -20.2886
   -20.2777 -20.2776 -20.2775 -20.2774 -20.2752 -20.2752 -20.2736 -20.2735
   -20.2721 -20.2720 -20.2702 -20.2701 -20.2690 -20.2690 -20.2683 -20.2682
   -20.2611 -20.2610 -20.2609 -20.2607 -20.2601 -20.2600 -20.2596 -20.2595
    -9.9012  -9.5514  -9.5427  -9.5166  -9.1821  -9.1580  -9.1342  -8.8677
    -8.8373  -8.7629  -8.7583  -8.7566  -8.0806  -7.9987  -7.9903  -7.9673
    -7.9304  -7.9190  -7.8904  -7.8848  -7.7726  -7.7530  -7.7365  -7.7163
     1.4638   1.4760   1.4869   1.5119   1.5424   1.5682   1.6106   1.6776
     1.6873   1.7573   1.8089   1.9236   2.5605   2.5957   2.6179   2.6681
     2.7001   2.7989   3.8290   3.8788   4.0046   4.0587   4.3576   4.3836
     4.4220   4.4388   4.4849   4.5189   4.6586   4.6991   4.9781   5.1964
     5.2778   5.3384   5.3444   5.3862   5.5260   5.5508   5.5549   5.6091
     5.6130   5.7772   5.9589   5.9862   5.9967   6.0429   6.1948   6.2058
     6.3233   6.4549   6.5041   6.5380   6.5987   6.6729   6.6996   6.7440
     6.8015   6.8256   6.8607   6.9228   6.9769   6.9894   7.0099   7.0691
     7.1048   7.1440   8.0615   8.0894   8.1434   8.1662   8.2817   8.3068
     9.9796   9.9963  10.1887  10.2825  10.3536  10.4354  12.3296  12.3718
    12.4834  12.5251  12.5477  12.6308  12.6382  12.6525  12.6839  12.6949
    12.9674  13.0147  13.3369  13.4413  13.6239  13.6676  13.8457  13.8812
    14.4630  14.6407  14.7479  14.9145  14.9919  15.1472  15.6599  15.7355
    16.1455  16.3663  16.8850  16.9880  17.3163

          k = 0.1667 0.1648 0.3347 ( 62590 PWs)   bands (ev):

   -66.1542 -66.1539 -66.1536 -66.1536 -66.1533 -66.1533 -66.1531 -66.1528
   -30.5481 -30.5456 -30.5421 -30.5396 -30.5013 -30.4991 -30.4923 -30.4868
   -30.4843 -30.4833 -30.4829 -30.4787 -30.4738 -30.4660 -30.4629 -30.4500
   -30.4461 -30.4429 -30.4322 -30.4272 -30.4094 -30.4059 -30.4055 -30.4021
   -20.3185 -20.3184 -20.3181 -20.3180 -20.3179 -20.3178 -20.3175 -20.3174
   -20.3093 -20.3092 -20.3091 -20.3089 -20.3081 -20.3079 -20.3078 -20.3077
   -20.2969 -20.2965 -20.2961 -20.2958 -20.2941 -20.2936 -20.2935 -20.2930
   -20.2907 -20.2907 -20.2901 -20.2901 -20.2894 -20.2892 -20.2888 -20.2888
   -20.2777 -20.2776 -20.2775 -20.2775 -20.2749 -20.2749 -20.2740 -20.2739
   -20.2717 -20.2716 -20.2706 -20.2705 -20.2689 -20.2688 -20.2684 -20.2684
   -20.2609 -20.2608 -20.2606 -20.2605 -20.2603 -20.2602 -20.2599 -20.2598
    -9.7962  -9.5965  -9.4067  -9.3886  -9.1934  -9.1755  -8.9528  -8.8015
    -8.7692  -8.7293  -8.6907  -8.6629  -8.2657  -8.2003  -8.1934  -8.1662
    -8.0083  -7.9951  -7.9633  -7.9400  -7.7809  -7.7627  -7.7446  -7.7265
     1.4954   1.5179   1.5708   1.5952   1.6482   1.6708   1.6996   1.7460
     2.1983   2.2349   2.3040   2.3501   2.5662   2.6177   2.8152   2.8603
     2.9574   3.0218   3.6842   3.7174   3.9382   3.9631   3.9966   4.0453
     4.1177   4.1927   4.4385   4.4766   4.5181   4.6402   4.7386   4.8222
     4.9342   5.0029   5.1047   5.1164   5.1949   5.2818   5.4937   5.5643
     5.5997   5.7805   5.8108   5.8479   5.8852   5.9888   6.0202   6.0331
     6.3400   6.4710   6.5415   6.5696   6.6585   6.6720   6.7038   6.7643
     6.8154   6.8750   6.9798   6.9934   6.9970   7.0724   7.2037   7.2459
     7.3405   7.3650   7.9668   7.9776   8.0712   8.0784   8.1068   8.1412
    10.3427  10.4140  10.6105  10.6300  10.8658  10.9033  12.1007  12.1130
    12.3921  12.4312  12.5344  12.5603  12.6148  12.6369  12.6833  12.6900
    12.6984  12.7590  13.2373  13.2892  13.4424  13.4573  13.4791  13.5227
    14.8735  14.9287  15.2101  15.2584  15.3449  15.5095  15.6824  16.0381
    16.4305  16.6667  16.8151  17.1370  17.2268

          k = 0.1667 0.1648-0.5021 ( 62540 PWs)   bands (ev):

   -66.1540 -66.1540 -66.1535 -66.1535 -66.1534 -66.1534 -66.1529 -66.1529
   -30.5468 -30.5468 -30.5408 -30.5408 -30.5002 -30.5002 -30.4867 -30.4866
   -30.4809 -30.4809 -30.4727 -30.4727 -30.4644 -30.4644 -30.4601 -30.4601
   -30.4487 -30.4487 -30.4410 -30.4410 -30.4079 -30.4079 -30.4041 -30.4041
   -20.3182 -20.3182 -20.3181 -20.3181 -20.3178 -20.3178 -20.3177 -20.3177
   -20.3092 -20.3092 -20.3090 -20.3090 -20.3080 -20.3080 -20.3077 -20.3077
   -20.2967 -20.2967 -20.2960 -20.2960 -20.2938 -20.2938 -20.2933 -20.2933
   -20.2904 -20.2904 -20.2904 -20.2904 -20.2891 -20.2891 -20.2890 -20.2890
   -20.2776 -20.2776 -20.2776 -20.2775 -20.2745 -20.2745 -20.2744 -20.2744
   -20.2712 -20.2711 -20.2711 -20.2711 -20.2687 -20.2687 -20.2686 -20.2686
   -20.2606 -20.2606 -20.2605 -20.2605 -20.2602 -20.2602 -20.2601 -20.2601
    -9.6813  -9.6813  -9.2695  -9.2695  -9.2610  -9.2609  -8.7782  -8.7782
    -8.6185  -8.6185  -8.5088  -8.5087  -8.4806  -8.4805  -8.4586  -8.4586
    -8.0061  -8.0061  -7.9551  -7.9551  -7.7732  -7.7732  -7.7372  -7.7372
     1.5060   1.5060   1.5844   1.5844   1.6653   1.6653   1.7351   1.7351
     2.5621   2.5621   2.8555   2.8555   2.9112   2.9113   3.0331   3.0331
     3.1070   3.1070   3.3637   3.3637   3.5929   3.5929   3.9521   3.9522
     3.9742   3.9743   4.0344   4.0344   4.4487   4.4487   4.8245   4.8245
     4.9043   4.9043   5.0119   5.0119   5.0673   5.0673   5.5857   5.5857
     5.6387   5.6387   5.6942   5.6942   5.8769   5.8769   6.0031   6.0031
     6.4647   6.4647   6.5324   6.5324   6.6987   6.6987   6.7265   6.7265
     6.7771   6.7771   6.9760   6.9760   7.0224   7.0224   7.6534   7.6534
     7.6546   7.6546   7.7883   7.7883   7.8059   7.8059   8.0821   8.0821
    10.3829  10.3829  11.3678  11.3679  11.3918  11.3918  11.6638  11.6638
    11.6826  11.6826  12.6210  12.6210  12.6787  12.6787  12.8622  12.8622
    12.9039  12.9039  13.0426  13.0426  13.0981  13.0981  13.4417  13.4417
    14.9214  14.9214  15.5028  15.5028  15.7846  15.7846  15.8681  15.8682
    16.3880  16.3880  17.2829  17.2829  17.6695

          k = 0.1667 0.3297 0.0000 ( 62594 PWs)   bands (ev):

   -66.1542 -66.1539 -66.1537 -66.1536 -66.1533 -66.1533 -66.1531 -66.1527
   -30.5479 -30.5446 -30.5428 -30.5395 -30.5016 -30.5011 -30.5010 -30.4993
   -30.4934 -30.4901 -30.4809 -30.4794 -30.4679 -30.4614 -30.4560 -30.4482
   -30.4357 -30.4321 -30.4250 -30.4197 -30.4145 -30.4104 -30.4098 -30.4055
   -20.3187 -20.3187 -20.3183 -20.3183 -20.3175 -20.3174 -20.3172 -20.3171
   -20.3094 -20.3093 -20.3091 -20.3089 -20.3081 -20.3080 -20.3078 -20.3077
   -20.2969 -20.2965 -20.2963 -20.2958 -20.2943 -20.2940 -20.2932 -20.2929
   -20.2910 -20.2910 -20.2898 -20.2897 -20.2896 -20.2895 -20.2885 -20.2885
   -20.2770 -20.2769 -20.2764 -20.2764 -20.2756 -20.2755 -20.2741 -20.2740
   -20.2718 -20.2718 -20.2700 -20.2700 -20.2699 -20.2698 -20.2688 -20.2688
   -20.2612 -20.2610 -20.2610 -20.2609 -20.2599 -20.2598 -20.2596 -20.2596
    -9.8373  -9.6252  -9.4865  -9.4039  -9.3002  -9.1898  -8.8984  -8.8791
    -8.8731  -8.6548  -8.6393  -8.6251  -8.1997  -8.0980  -8.0962  -8.0554
    -7.9728  -7.9727  -7.9310  -7.9158  -7.8140  -7.7903  -7.7752  -7.7508
     1.2923   1.2939   1.3282   1.3286   1.6436   1.6554   1.7099   1.7430
     2.2157   2.2790   2.3436   2.4005   2.6143   2.6499   2.8205   2.8313
     2.8346   2.8647   3.4407   3.4598   3.6284   3.6660   4.0820   4.2759
     4.2945   4.3960   4.4840   4.6720   4.7422   4.7730   4.8601   4.8694
     5.1147   5.1491   5.2832   5.3609   5.3943   5.5076   5.5612   5.6654
     5.6988   5.7092   5.7299   5.9632   6.0456   6.0602   6.1069   6.1553
     6.2943   6.3667   6.4141   6.5420   6.7134   6.7301   6.8188   6.8410
     6.9022   6.9175   6.9336   6.9503   6.9536   7.0133   7.1761   7.1936
     7.2206   7.2694   7.9138   7.9375   8.0705   8.0948   8.2033   8.2207
     9.7574   9.7661  10.4792  10.5476  10.8601  10.9378  11.8713  11.9240
    12.1925  12.2054  12.3330  12.3672  12.6760  12.7979  12.8631  12.8671
    13.1638  13.2830  13.2937  13.3269  13.6561  13.7534  13.8107  13.8484
    14.3990  14.5227  14.7489  14.9033  15.1869  15.2273  15.6530  15.7219
    15.7318  17.1003  17.1393  17.2993  17.4458

          k = 0.1667 0.3297 0.1674 ( 62593 PWs)   bands (ev):

   -66.1542 -66.1538 -66.1536 -66.1536 -66.1533 -66.1533 -66.1531 -66.1528
   -30.5475 -30.5442 -30.5431 -30.5398 -30.4979 -30.4967 -30.4962 -30.4951
   -30.4926 -30.4903 -30.4801 -30.4797 -30.4686 -30.4602 -30.4571 -30.4473
   -30.4385 -30.4353 -30.4245 -30.4193 -30.4191 -30.4148 -30.4122 -30.4078
   -20.3187 -20.3186 -20.3183 -20.3182 -20.3176 -20.3175 -20.3172 -20.3172
   -20.3094 -20.3093 -20.3091 -20.3089 -20.3081 -20.3079 -20.3079 -20.3077
   -20.2968 -20.2964 -20.2963 -20.2959 -20.2942 -20.2939 -20.2933 -20.2930
   -20.2910 -20.2909 -20.2899 -20.2898 -20.2895 -20.2894 -20.2886 -20.2886
   -20.2769 -20.2769 -20.2765 -20.2764 -20.2755 -20.2754 -20.2742 -20.2741
   -20.2717 -20.2717 -20.2700 -20.2699 -20.2699 -20.2699 -20.2689 -20.2689
   -20.2611 -20.2610 -20.2609 -20.2608 -20.2600 -20.2599 -20.2597 -20.2597
    -9.7909  -9.5725  -9.4249  -9.4141  -9.2213  -9.2003  -8.8993  -8.8598
    -8.8436  -8.6458  -8.6352  -8.6189  -8.2201  -8.1135  -8.0956  -8.0586
    -7.9826  -7.9700  -7.9383  -7.9202  -7.9115  -7.8819  -7.8764  -7.8446
     1.4774   1.4818   1.5566   1.5638   1.6460   1.6612   1.7541   1.7984
     2.2218   2.2795   2.3402   2.4023   2.6929   2.7150   2.8244   2.8508
     2.9086   2.9376   3.4692   3.4930   3.6323   3.6570   4.0706   4.3171
     4.3484   4.3848   4.4227   4.4718   4.4934   4.7559   4.7955   4.8739
     4.8905   4.9055   5.2437   5.3183   5.3325   5.4117   5.4314   5.4516
     5.5840   5.6093   5.6963   5.7392   5.8467   5.8686   6.0577   6.0603
     6.4700   6.5443   6.6039   6.6642   6.6915   6.7130   6.8003   6.8698
     6.8926   6.9077   6.9764   6.9962   7.0258   7.0570   7.1685   7.2042
     7.2436   7.2777   7.9181   7.9311   8.0399   8.0582   8.1499   8.1694
    10.0031  10.0130  10.6613  10.7208  10.8728  10.9326  11.9584  12.0055
    12.1935  12.2092  12.3896  12.4205  12.6410  12.6583  12.7326  12.8022
    13.0615  13.1113  13.2416  13.3117  13.5169  13.6009  13.6583  13.7119
    14.7107  14.7553  14.9425  15.0753  15.2541  15.5698  15.6563  15.8086
    15.8617  17.1068  17.1841  17.3355  17.3910

          k = 0.1667 0.3297 0.3347 ( 62599 PWs)   bands (ev):

   -66.1540 -66.1537 -66.1537 -66.1535 -66.1534 -66.1532 -66.1532 -66.1529
   -30.5465 -30.5441 -30.5431 -30.5406 -30.4937 -30.4913 -30.4870 -30.4860
   -30.4835 -30.4831 -30.4804 -30.4757 -30.4711 -30.4611 -30.4556 -30.4485
   -30.4458 -30.4442 -30.4312 -30.4259 -30.4232 -30.4180 -30.4170 -30.4124
   -20.3185 -20.3184 -20.3181 -20.3180 -20.3178 -20.3178 -20.3175 -20.3174
   -20.3093 -20.3092 -20.3091 -20.3090 -20.3080 -20.3079 -20.3079 -20.3077
   -20.2967 -20.2964 -20.2963 -20.2960 -20.2940 -20.2937 -20.2935 -20.2931
   -20.2907 -20.2907 -20.2901 -20.2901 -20.2893 -20.2893 -20.2888 -20.2888
   -20.2769 -20.2768 -20.2766 -20.2765 -20.2752 -20.2752 -20.2745 -20.2744
   -20.2714 -20.2713 -20.2704 -20.2703 -20.2697 -20.2697 -20.2692 -20.2691
   -20.2608 -20.2607 -20.2607 -20.2606 -20.2602 -20.2601 -20.2600 -20.2599
    -9.6766  -9.4667  -9.4443  -9.2494  -9.2393  -8.9954  -8.9457  -8.7689
    -8.7384  -8.6544  -8.5874  -8.5745  -8.3565  -8.2488  -8.1811  -8.1529
    -8.0933  -8.0664  -8.0315  -8.0023  -7.9613  -7.9445  -7.9349  -7.9264
     1.6160   1.6293   1.6417   1.6565   2.0813   2.1395   2.1962   2.2330
     2.2958   2.3213   2.3894   2.4986   2.7759   2.8299   2.9165   3.0114
     3.0957   3.1215   3.4727   3.5095   3.6301   3.6561   3.9364   3.9406
     4.0610   4.2762   4.3084   4.3533   4.4084   4.4967   4.5319   4.7383
     4.7752   4.8080   4.8667   4.9017   4.9895   5.0487   5.1660   5.2027
     5.3587   5.4353   5.4679   5.6021   5.6600   5.7509   5.8353   5.8466
     6.5513   6.6225   6.6515   6.6917   6.7816   6.8445   6.8629   6.8801
     6.9684   7.0855   7.1194   7.1567   7.1965   7.2036   7.2826   7.3070
     7.3630   7.3807   7.8929   7.9214   7.9302   7.9352   7.9829   8.0241
    10.6002  10.6238  10.8934  10.9139  11.1728  11.2060  12.0864  12.0995
    12.1704  12.2349  12.2560  12.2693  12.5507  12.5621  12.6022  12.6289
    12.7680  12.7995  13.1354  13.1898  13.2362  13.3050  13.3379  13.3703
    15.0350  15.1488  15.2052  15.4572  15.6063  15.9310  16.1172  16.3186
    16.5770  16.7927  16.9949  17.4493  17.4638

          k = 0.1667 0.3297-0.5021 ( 62580 PWs)   bands (ev):

   -66.1539 -66.1539 -66.1536 -66.1536 -66.1534 -66.1534 -66.1530 -66.1530
   -30.5453 -30.5453 -30.5419 -30.5419 -30.4923 -30.4923 -30.4824 -30.4824
   -30.4766 -30.4766 -30.4700 -30.4700 -30.4652 -30.4652 -30.4616 -30.4616
   -30.4455 -30.4455 -30.4375 -30.4375 -30.4208 -30.4208 -30.4158 -30.4158
   -20.3182 -20.3182 -20.3181 -20.3181 -20.3178 -20.3178 -20.3177 -20.3177
   -20.3092 -20.3092 -20.3091 -20.3091 -20.3079 -20.3079 -20.3078 -20.3078
   -20.2965 -20.2965 -20.2961 -20.2961 -20.2937 -20.2937 -20.2934 -20.2934
   -20.2904 -20.2904 -20.2904 -20.2904 -20.2891 -20.2891 -20.2890 -20.2890
   -20.2767 -20.2767 -20.2767 -20.2767 -20.2749 -20.2749 -20.2748 -20.2748
   -20.2709 -20.2709 -20.2708 -20.2708 -20.2695 -20.2695 -20.2694 -20.2694
   -20.2605 -20.2605 -20.2604 -20.2604 -20.2603 -20.2603 -20.2602 -20.2602
    -9.5536  -9.5536  -9.3183  -9.3183  -9.0605  -9.0605  -8.6848  -8.6848
    -8.6696  -8.6695  -8.5249  -8.5249  -8.4475  -8.4474  -8.4186  -8.4186
    -8.0864  -8.0864  -8.0423  -8.0423  -7.9507  -7.9507  -7.9360  -7.9360
     1.6326   1.6326   1.6503   1.6503   2.2094   2.2094   2.3041   2.3041
     2.7517   2.7517   2.9399   2.9399   2.9796   2.9796   3.0278   3.0278
     3.1032   3.1032   3.4024   3.4025   3.5373   3.5373   3.6825   3.6825
     4.0717   4.0717   4.1202   4.1202   4.1361   4.1361   4.3528   4.3528
     4.7669   4.7669   4.9266   4.9266   4.9814   4.9814   5.0445   5.0445
     5.1508   5.1508   5.5333   5.5333   5.6667   5.6667   5.7607   5.7607
     6.6385   6.6385   6.6807   6.6807   6.7403   6.7403   6.8832   6.8832
     7.0925   7.0925   7.1663   7.1664   7.2453   7.2453   7.6266   7.6266
     7.6592   7.6593   7.7071   7.7071   7.7216   7.7216   7.9465   7.9465
    10.8837  10.8837  11.3703  11.3703  11.3971  11.3971  11.8413  11.8413
    11.8773  11.8773  12.2508  12.2508  12.6447  12.6447  12.6783  12.6783
    12.7841  12.7841  12.8925  12.8926  12.9551  12.9551  13.3131  13.3131
    15.1218  15.1218  15.4352  15.4352  16.2124  16.2124  16.6399  16.6399
    16.8033  16.8033  16.9311  16.9312  17.6802

          k = 0.1667-0.4945 0.0000 ( 62622 PWs)   bands (ev):

   -66.1540 -66.1540 -66.1535 -66.1535 -66.1534 -66.1534 -66.1529 -66.1529
   -30.5461 -30.5461 -30.5410 -30.5410 -30.5010 -30.5010 -30.5001 -30.5001
   -30.4857 -30.4857 -30.4832 -30.4832 -30.4505 -30.4505 -30.4442 -30.4442
   -30.4438 -30.4438 -30.4355 -30.4355 -30.4136 -30.4136 -30.4093 -30.4093
   -20.3187 -20.3187 -20.3183 -20.3183 -20.3175 -20.3175 -20.3171 -20.3171
   -20.3094 -20.3094 -20.3090 -20.3090 -20.3080 -20.3080 -20.3078 -20.3078
   -20.2967 -20.2967 -20.2961 -20.2960 -20.2941 -20.2941 -20.2931 -20.2931
   -20.2910 -20.2910 -20.2898 -20.2897 -20.2896 -20.2895 -20.2885 -20.2885
   -20.2761 -20.2761 -20.2761 -20.2761 -20.2751 -20.2751 -20.2751 -20.2751
   -20.2711 -20.2711 -20.2710 -20.2710 -20.2695 -20.2695 -20.2694 -20.2694
   -20.2611 -20.2611 -20.2610 -20.2610 -20.2598 -20.2598 -20.2597 -20.2597
    -9.7175  -9.7175  -9.3738  -9.3738  -9.2736  -9.2736  -8.8829  -8.8829
    -8.5418  -8.5418  -8.4113  -8.4113  -8.4015  -8.4014  -8.3725  -8.3725
    -7.9881  -7.9881  -7.9386  -7.9386  -7.8048  -7.8048  -7.7659  -7.7658
     1.2930   1.2930   1.3292   1.3292   1.6533   1.6533   1.7353   1.7353
     2.6287   2.6287   2.9031   2.9031   2.9720   2.9720   2.9902   2.9902
     3.1423   3.1423   3.2721   3.2721   3.5055   3.5055   3.5469   3.5469
     3.6946   3.6947   4.2960   4.2960   4.7124   4.7124   5.0470   5.0470
     5.1262   5.1262   5.3465   5.3465   5.4264   5.4264   5.4503   5.4503
     5.5970   5.5970   5.8082   5.8082   6.0041   6.0041   6.0940   6.0940
     6.4029   6.4029   6.4701   6.4701   6.6820   6.6820   6.8341   6.8341
     6.8985   6.8985   6.9465   6.9465   7.0188   7.0188   7.6034   7.6034
     7.6122   7.6122   7.6577   7.6577   7.6942   7.6942   8.2107   8.2107
     9.7677   9.7677  11.1950  11.1950  11.2265  11.2265  11.5379  11.5379
    11.6108  11.6108  12.3454  12.3454  12.8642  12.8642  12.9082  12.9082
    13.0485  13.0485  13.4459  13.4459  13.5117  13.5117  13.8022  13.8022
    14.5068  14.5068  15.0333  15.0333  15.2201  15.2201  15.4866  15.4866
    16.5211  16.5211  17.6143  17.6143  17.8033

          k = 0.1667-0.4945 0.1674 ( 62666 PWs)   bands (ev):

   -66.1540 -66.1540 -66.1535 -66.1535 -66.1535 -66.1535 -66.1529 -66.1529
   -30.5457 -30.5457 -30.5414 -30.5413 -30.4964 -30.4963 -30.4959 -30.4958
   -30.4850 -30.4850 -30.4835 -30.4834 -30.4519 -30.4518 -30.4460 -30.4460
   -30.4431 -30.4431 -30.4349 -30.4349 -30.4176 -30.4176 -30.4131 -30.4131
   -20.3186 -20.3186 -20.3182 -20.3182 -20.3176 -20.3176 -20.3172 -20.3172
   -20.3093 -20.3093 -20.3090 -20.3090 -20.3080 -20.3080 -20.3078 -20.3078
   -20.2966 -20.2966 -20.2961 -20.2961 -20.2940 -20.2940 -20.2931 -20.2931
   -20.2910 -20.2909 -20.2898 -20.2898 -20.2895 -20.2895 -20.2886 -20.2886
   -20.2761 -20.2761 -20.2760 -20.2760 -20.2752 -20.2752 -20.2752 -20.2752
   -20.2710 -20.2710 -20.2709 -20.2709 -20.2696 -20.2696 -20.2695 -20.2695
   -20.2610 -20.2610 -20.2609 -20.2609 -20.2599 -20.2599 -20.2598 -20.2598
    -9.6671  -9.6671  -9.3013  -9.2998  -9.2852  -9.2836  -8.8528  -8.8526
    -8.5566  -8.5565  -8.4135  -8.4126  -8.4001  -8.3998  -8.3703  -8.3697
    -7.9898  -7.9890  -7.9450  -7.9443  -7.9055  -7.9015  -7.8700  -7.8660
     1.4795   1.4795   1.5627   1.5633   1.6564   1.6572   1.7885   1.7893
     2.7028   2.7118   2.9023   2.9304   2.9621   2.9834   3.0073   3.0109
     3.1778   3.1934   3.2516   3.2763   3.5325   3.5326   3.5465   3.5548
     3.7048   3.7133   4.3451   4.3605   4.4414   4.4429   4.9995   5.0461
     5.0961   5.1019   5.1275   5.1703   5.1954   5.2079   5.4181   5.4214
[...]
    12.0184  12.0184  12.0184  12.0184  12.1247  12.1247  12.1247  12.1247
    13.0324  13.0324  13.0324  13.0324  13.1595  13.1595  13.1595  13.1595
    15.5699  15.5699  15.5699  15.5699  16.5456  16.5456  16.5457  16.5457
    17.2659  17.2659  17.2659  17.2660  17.3393

          k =-0.5000 0.3297 0.0000 ( 62588 PWs)   bands (ev):

   -66.1539 -66.1539 -66.1536 -66.1536 -66.1533 -66.1533 -66.1530 -66.1530
   -30.5197 -30.5196 -30.5165 -30.5165 -30.5143 -30.5142 -30.5096 -30.5096
   -30.4996 -30.4996 -30.4975 -30.4975 -30.4639 -30.4639 -30.4566 -30.4565
   -30.4340 -30.4340 -30.4226 -30.4226 -30.4126 -30.4126 -30.4078 -30.4078
   -20.3185 -20.3185 -20.3185 -20.3185 -20.3173 -20.3173 -20.3173 -20.3173
   -20.3088 -20.3087 -20.3086 -20.3086 -20.3084 -20.3084 -20.3083 -20.3083
   -20.2956 -20.2956 -20.2952 -20.2952 -20.2948 -20.2948 -20.2944 -20.2944
   -20.2904 -20.2904 -20.2903 -20.2903 -20.2892 -20.2892 -20.2892 -20.2892
   -20.2769 -20.2769 -20.2764 -20.2763 -20.2755 -20.2755 -20.2740 -20.2740
   -20.2718 -20.2718 -20.2700 -20.2700 -20.2698 -20.2698 -20.2688 -20.2688
   -20.2611 -20.2611 -20.2610 -20.2610 -20.2599 -20.2599 -20.2596 -20.2596
    -9.6183  -9.6182  -9.4082  -9.4082  -9.0555  -9.0555  -8.7159  -8.7159
    -8.6535  -8.6535  -8.5483  -8.5483  -8.4763  -8.4763  -8.4413  -8.4413
    -8.0788  -8.0788  -8.0253  -8.0253  -7.7962  -7.7962  -7.7709  -7.7709
     1.3219   1.3219   1.3270   1.3270   2.2093   2.2093   2.3088   2.3088
     2.8131   2.8131   2.9039   2.9039   2.9776   2.9776   3.0846   3.0846
     3.1026   3.1026   3.3376   3.3376   3.4011   3.4011   3.5148   3.5148
     4.0130   4.0130   4.0432   4.0432   4.2358   4.2358   4.4405   4.4405
     4.9086   4.9086   5.0264   5.0264   5.0796   5.0797   5.2222   5.2222
     5.3528   5.3528   5.8610   5.8610   6.0534   6.0534   6.1580   6.1580
     6.4493   6.4493   6.5137   6.5137   6.5744   6.5745   6.8147   6.8147
     7.0221   7.0221   7.1015   7.1015   7.1826   7.1826   7.6126   7.6126
     7.6391   7.6391   7.6874   7.6874   7.6888   7.6888   8.0972   8.0972
    10.4769  10.4769  11.1361  11.1361  11.1860  11.1860  11.8063  11.8063
    11.8734  11.8734  11.9844  11.9844  12.7267  12.7267  12.7881  12.7881
    13.1664  13.1664  13.2556  13.2556  13.3469  13.3469  13.7693  13.7694
    14.6384  14.6384  14.9949  14.9949  16.1436  16.1436  16.4983  16.4983
    16.5877  16.5877  16.9150  16.9151  17.6490

          k =-0.5000 0.3297 0.1674 ( 62586 PWs)   bands (ev):

   -66.1539 -66.1539 -66.1536 -66.1536 -66.1534 -66.1534 -66.1530 -66.1530
   -30.5191 -30.5191 -30.5158 -30.5158 -30.5142 -30.5142 -30.5099 -30.5099
   -30.4956 -30.4955 -30.4932 -30.4932 -30.4647 -30.4647 -30.4555 -30.4555
   -30.4370 -30.4370 -30.4222 -30.4222 -30.4172 -30.4172 -30.4103 -30.4102
   -20.3185 -20.3185 -20.3184 -20.3184 -20.3174 -20.3174 -20.3174 -20.3174
   -20.3087 -20.3087 -20.3086 -20.3086 -20.3084 -20.3084 -20.3083 -20.3083
   -20.2955 -20.2955 -20.2951 -20.2951 -20.2948 -20.2948 -20.2945 -20.2944
   -20.2903 -20.2903 -20.2903 -20.2903 -20.2893 -20.2893 -20.2893 -20.2892
   -20.2769 -20.2768 -20.2764 -20.2764 -20.2754 -20.2754 -20.2741 -20.2741
   -20.2717 -20.2717 -20.2700 -20.2700 -20.2699 -20.2699 -20.2689 -20.2689
   -20.2610 -20.2610 -20.2609 -20.2609 -20.2600 -20.2599 -20.2597 -20.2597
    -9.5588  -9.5587  -9.3352  -9.3351  -9.0710  -9.0710  -8.7019  -8.7019
    -8.6590  -8.6590  -8.5391  -8.5391  -8.4741  -8.4741  -8.4434  -8.4434
    -8.0893  -8.0893  -8.0288  -8.0288  -7.9011  -7.9011  -7.8641  -7.8641
     1.5556   1.5556   1.5665   1.5665   2.2160   2.2160   2.3010   2.3010
     2.8656   2.8656   2.9175   2.9175   2.9697   2.9697   3.0838   3.0838
     3.1090   3.1091   3.4105   3.4105   3.4743   3.4743   3.5639   3.5639
     4.0083   4.0083   4.0489   4.0489   4.2256   4.2256   4.4429   4.4429
     4.8155   4.8155   4.8785   4.8785   4.9735   4.9735   5.0357   5.0357
     5.1150   5.1150   5.5727   5.5727   5.7019   5.7020   5.8942   5.8942
     6.6695   6.6695   6.7689   6.7689   6.7952   6.7952   6.9075   6.9075
     7.0294   7.0294   7.1105   7.1105   7.2108   7.2108   7.5986   7.5987
     7.6299   7.6299   7.6845   7.6845   7.6915   7.6915   8.0633   8.0633
    10.6565  10.6565  11.2348  11.2348  11.2839  11.2840  11.8198  11.8198
    11.8910  11.8910  12.0456  12.0456  12.7210  12.7210  12.7870  12.7870
    13.0009  13.0009  13.0776  13.0776  13.1653  13.1653  13.6120  13.6120
    14.9897  14.9897  15.3770  15.3770  16.2398  16.2398  16.5091  16.5092
    16.6050  16.6050  16.9625  16.9625  17.5707

          k =-0.5000 0.3297 0.3347 ( 62568 PWs)   bands (ev):

   -66.1538 -66.1538 -66.1535 -66.1535 -66.1535 -66.1534 -66.1532 -66.1531
   -30.5180 -30.5180 -30.5158 -30.5158 -30.5133 -30.5133 -30.5107 -30.5107
   -30.4852 -30.4852 -30.4809 -30.4808 -30.4677 -30.4677 -30.4516 -30.4516
   -30.4470 -30.4470 -30.4290 -30.4290 -30.4209 -30.4209 -30.4150 -30.4150
   -20.3183 -20.3183 -20.3182 -20.3182 -20.3177 -20.3177 -20.3176 -20.3176
   -20.3087 -20.3087 -20.3086 -20.3086 -20.3084 -20.3084 -20.3083 -20.3083
   -20.2954 -20.2953 -20.2950 -20.2950 -20.2949 -20.2949 -20.2946 -20.2946
   -20.2901 -20.2901 -20.2901 -20.2901 -20.2895 -20.2895 -20.2895 -20.2895
   -20.2768 -20.2768 -20.2765 -20.2765 -20.2752 -20.2752 -20.2744 -20.2744
   -20.2713 -20.2713 -20.2704 -20.2703 -20.2697 -20.2697 -20.2692 -20.2691
   -20.2608 -20.2608 -20.2606 -20.2606 -20.2602 -20.2601 -20.2599 -20.2599
    -9.4069  -9.4069  -9.1420  -9.1420  -9.1200  -9.1200  -8.7369  -8.7369
    -8.6007  -8.6007  -8.5056  -8.5056  -8.4679  -8.4679  -8.4479  -8.4479
    -8.2044  -8.2044  -8.1542  -8.1542  -8.0332  -8.0332  -7.9962  -7.9962
     2.0828   2.0828   2.1931   2.1931   2.2363   2.2363   2.3704   2.3704
     2.8949   2.8949   2.9266   2.9266   3.0439   3.0439   3.0867   3.0867
     3.1513   3.1514   3.4875   3.4875   3.6799   3.6799   3.7363   3.7363
     3.9818   3.9818   4.0748   4.0749   4.1857   4.1857   4.3269   4.3269
     4.4036   4.4036   4.5374   4.5374   4.6696   4.6696   4.8828   4.8828
     4.9092   4.9092   4.9557   4.9558   5.1187   5.1187   5.4280   5.4280
     6.9136   6.9136   6.9960   6.9960   7.0075   7.0075   7.0946   7.0946
     7.1663   7.1663   7.2355   7.2355   7.3451   7.3451   7.5497   7.5497
     7.5961   7.5961   7.6746   7.6746   7.7059   7.7059   7.9530   7.9530
    11.1436  11.1436  11.5260  11.5260  11.5830  11.5830  11.8345  11.8345
    11.9171  11.9171  12.2740  12.2740  12.4799  12.4799  12.6203  12.6203
    12.6617  12.6617  12.7992  12.7992  12.8110  12.8110  13.2061  13.2061
    15.7926  15.7926  16.2772  16.2772  16.4848  16.4848  16.5423  16.5423
    16.7213  16.7213  17.0759  17.0759  17.2710

          k =-0.5000 0.3297-0.5021 ( 62516 PWs)   bands (ev):

   -66.1536 -66.1536 -66.1536 -66.1536 -66.1533 -66.1533 -66.1533 -66.1533
   -30.5168 -30.5168 -30.5168 -30.5168 -30.5120 -30.5119 -30.5119 -30.5119
   -30.4743 -30.4743 -30.4743 -30.4742 -30.4635 -30.4635 -30.4635 -30.4634
   -30.4426 -30.4426 -30.4426 -30.4425 -30.4186 -30.4186 -30.4186 -30.4186
   -20.3181 -20.3180 -20.3180 -20.3180 -20.3179 -20.3179 -20.3179 -20.3179
   -20.3086 -20.3086 -20.3086 -20.3086 -20.3084 -20.3084 -20.3084 -20.3084
   -20.2952 -20.2951 -20.2951 -20.2951 -20.2948 -20.2948 -20.2947 -20.2947
   -20.2898 -20.2898 -20.2898 -20.2898 -20.2898 -20.2897 -20.2897 -20.2897
   -20.2767 -20.2767 -20.2767 -20.2766 -20.2748 -20.2748 -20.2748 -20.2748
   -20.2709 -20.2708 -20.2708 -20.2708 -20.2695 -20.2694 -20.2694 -20.2694
   -20.2605 -20.2605 -20.2605 -20.2604 -20.2603 -20.2603 -20.2603 -20.2602
    -9.2391  -9.2390  -9.2390  -9.2390  -8.8913  -8.8913  -8.8913  -8.8912
    -8.4712  -8.4711  -8.4711  -8.4711  -8.4233  -8.4233  -8.4232  -8.4232
    -8.3942  -8.3942  -8.3942  -8.3941  -8.0255  -8.0255  -8.0255  -8.0255
     2.2141   2.2141   2.2141   2.2141   2.8036   2.8037   2.8037   2.8037
     2.9289   2.9290   2.9290   2.9290   3.0359   3.0359   3.0359   3.0360
     3.2286   3.2286   3.2287   3.2287   3.9048   3.9049   3.9049   3.9049
     4.0074   4.0074   4.0074   4.0074   4.1475   4.1475   4.1475   4.1475
     4.2489   4.2490   4.2490   4.2490   4.4329   4.4329   4.4330   4.4330
     4.7817   4.7817   4.7817   4.7817   5.1638   5.1638   5.1638   5.1638
     6.9942   6.9942   6.9942   6.9942   7.0829   7.0829   7.0829   7.0829
     7.3547   7.3548   7.3548   7.3548   7.5076   7.5076   7.5076   7.5076
     7.6189   7.6189   7.6189   7.6189   7.7766   7.7766   7.7766   7.7766
    11.7183  11.7183  11.7183  11.7183  11.9060  11.9060  11.9060  11.9060
    12.0457  12.0457  12.0457  12.0457  12.1499  12.1499  12.1499  12.1499
    12.6818  12.6818  12.6818  12.6818  12.8191  12.8191  12.8191  12.8191
    16.3570  16.3570  16.3570  16.3570  16.7802  16.7802  16.7802  16.7802
    17.2070  17.2070  17.2070  17.2070  17.3341

          k =-0.5000-0.4945 0.0000 ( 62600 PWs)   bands (ev):

   -66.1538 -66.1538 -66.1538 -66.1538 -66.1532 -66.1532 -66.1532 -66.1531
   -30.5180 -30.5180 -30.5171 -30.5171 -30.5121 -30.5121 -30.5110 -30.5110
   -30.4984 -30.4984 -30.4979 -30.4979 -30.4486 -30.4486 -30.4474 -30.4474
   -30.4413 -30.4413 -30.4396 -30.4396 -30.4118 -30.4118 -30.4115 -30.4115
   -20.3185 -20.3185 -20.3185 -20.3185 -20.3173 -20.3173 -20.3173 -20.3173
   -20.3087 -20.3087 -20.3087 -20.3087 -20.3084 -20.3084 -20.3084 -20.3084
   -20.2954 -20.2954 -20.2954 -20.2954 -20.2946 -20.2946 -20.2946 -20.2946
   -20.2904 -20.2904 -20.2903 -20.2903 -20.2892 -20.2892 -20.2892 -20.2892
   -20.2761 -20.2761 -20.2760 -20.2760 -20.2751 -20.2751 -20.2751 -20.2751
   -20.2711 -20.2711 -20.2710 -20.2710 -20.2695 -20.2694 -20.2694 -20.2694
   -20.2611 -20.2611 -20.2610 -20.2610 -20.2598 -20.2597 -20.2597 -20.2597
    -9.5026  -9.5026  -9.4875  -9.4875  -8.8422  -8.8422  -8.7763  -8.7763
    -8.6184  -8.6183  -8.5686  -8.5686  -8.3786  -8.3786  -8.3481  -8.3481
    -8.2976  -8.2976  -8.2754  -8.2754  -7.7869  -7.7869  -7.7860  -7.7860
     1.3227   1.3227   1.3274   1.3274   2.8354   2.8354   2.8746   2.8746
     2.8801   2.8801   2.9155   2.9155   3.0655   3.0655   3.1939   3.1939
     3.2072   3.2072   3.3152   3.3152   3.3517   3.3517   3.4368   3.4368
     3.4659   3.4659   3.7399   3.7399   4.3098   4.3098   4.3985   4.3985
     4.4301   4.4301   4.4805   4.4805   5.1597   5.1597   5.2080   5.2080
     5.4718   5.4718   5.6539   5.6539   6.0674   6.0674   6.0871   6.0871
     6.5128   6.5128   6.5491   6.5491   6.6345   6.6345   6.6747   6.6747
     7.2363   7.2363   7.2788   7.2788   7.5179   7.5179   7.5183   7.5183
     7.6231   7.6231   7.6483   7.6483   7.7406   7.7406   7.7850   7.7850
    11.0060  11.0061  11.1125  11.1125  11.2487  11.2487  11.3833  11.3833
    12.0955  12.0955  12.2540  12.2540  12.3664  12.3664  12.4317  12.4317
    13.1732  13.1732  13.2591  13.2591  13.5001  13.5001  13.5383  13.5383
    14.8561  14.8561  14.8884  14.8884  16.3671  16.3671  16.5885  16.5885
    17.2116  17.2116  17.2243  17.2244  17.3625

          k =-0.5000-0.4945 0.1674 ( 62572 PWs)   bands (ev):

   -66.1537 -66.1537 -66.1537 -66.1537 -66.1532 -66.1532 -66.1532 -66.1532
   -30.5173 -30.5173 -30.5163 -30.5163 -30.5124 -30.5124 -30.5113 -30.5113
   -30.4941 -30.4941 -30.4937 -30.4937 -30.4500 -30.4500 -30.4489 -30.4489
   -30.4407 -30.4407 -30.4390 -30.4390 -30.4158 -30.4158 -30.4154 -30.4154
   -20.3185 -20.3185 -20.3184 -20.3184 -20.3174 -20.3174 -20.3174 -20.3174
   -20.3087 -20.3087 -20.3087 -20.3086 -20.3084 -20.3084 -20.3084 -20.3084
   -20.2953 -20.2953 -20.2953 -20.2953 -20.2947 -20.2946 -20.2946 -20.2946
   -20.2903 -20.2903 -20.2903 -20.2903 -20.2893 -20.2893 -20.2892 -20.2892
   -20.2760 -20.2760 -20.2760 -20.2760 -20.2752 -20.2752 -20.2751 -20.2751
   -20.2710 -20.2710 -20.2709 -20.2709 -20.2696 -20.2696 -20.2695 -20.2695
   -20.2610 -20.2610 -20.2610 -20.2609 -20.2598 -20.2598 -20.2598 -20.2598
    -9.4354  -9.4354  -9.4183  -9.4183  -8.8580  -8.8580  -8.7939  -8.7938
    -8.6036  -8.6036  -8.5558  -8.5558  -8.3772  -8.3772  -8.3501  -8.3501
    -8.2960  -8.2960  -8.2784  -8.2784  -7.8902  -7.8902  -7.8888  -7.8888
     1.5607   1.5607   1.5663   1.5663   2.8390   2.8390   2.8787   2.8787
     2.8861   2.8861   2.9160   2.9160   3.0741   3.0741   3.1745   3.1745
     3.2579   3.2580   3.3683   3.3683   3.3921   3.3921   3.4628   3.4628
     3.5250   3.5251   3.7754   3.7754   4.3126   4.3126   4.3927   4.3927
     4.4350   4.4350   4.4682   4.4682   4.9319   4.9319   4.9622   4.9623
     5.1978   5.1978   5.3595   5.3595   5.7289   5.7289   5.7410   5.7410
     6.7422   6.7422   6.7674   6.7674   6.8340   6.8340   6.9094   6.9094
     7.2345   7.2345   7.2918   7.2918   7.5012   7.5012   7.5220   7.5221
     7.6205   7.6205   7.6492   7.6492   7.7231   7.7231   7.7743   7.7743
    11.1157  11.1157  11.2227  11.2227  11.3505  11.3505  11.4879  11.4879
    12.1088  12.1088  12.2529  12.2529  12.3723  12.3723  12.4267  12.4267
    13.0077  13.0077  13.0812  13.0812  13.3208  13.3208  13.3657  13.3657
    15.2440  15.2440  15.2538  15.2538  16.4468  16.4468  16.6599  16.6599
    17.1899  17.1899  17.2261  17.2261  17.3685

          k =-0.5000-0.4945 0.3347 ( 62556 PWs)   bands (ev):

   -66.1536 -66.1536 -66.1536 -66.1536 -66.1533 -66.1533 -66.1533 -66.1533
   -30.5159 -30.5159 -30.5149 -30.5149 -30.5133 -30.5133 -30.5121 -30.5121
   -30.4822 -30.4822 -30.4819 -30.4819 -30.4554 -30.4554 -30.4546 -30.4545
   -30.4385 -30.4385 -30.4369 -30.4369 -30.4253 -30.4253 -30.4245 -30.4245
   -20.3183 -20.3183 -20.3182 -20.3182 -20.3177 -20.3176 -20.3176 -20.3176
   -20.3086 -20.3086 -20.3086 -20.3086 -20.3084 -20.3084 -20.3084 -20.3084
   -20.2952 -20.2952 -20.2952 -20.2951 -20.2948 -20.2948 -20.2947 -20.2947
   -20.2901 -20.2901 -20.2901 -20.2901 -20.2895 -20.2895 -20.2895 -20.2895
   -20.2759 -20.2759 -20.2758 -20.2758 -20.2754 -20.2754 -20.2753 -20.2753
   -20.2707 -20.2707 -20.2707 -20.2707 -20.2699 -20.2699 -20.2699 -20.2699
   -20.2607 -20.2607 -20.2607 -20.2607 -20.2601 -20.2601 -20.2600 -20.2600
    -9.2581  -9.2581  -9.2336  -9.2336  -8.9167  -8.9167  -8.8597  -8.8597
    -8.5489  -8.5489  -8.5098  -8.5098  -8.3770  -8.3770  -8.3530  -8.3530
    -8.3022  -8.3022  -8.2822  -8.2822  -8.1285  -8.1285  -8.1259  -8.1259
     2.1748   2.1748   2.1885   2.1885   2.8307   2.8307   2.8821   2.8821
     2.9092   2.9092   2.9247   2.9247   3.1100   3.1101   3.1676   3.1676
     3.3021   3.3021   3.4043   3.4044   3.4922   3.4922   3.5183   3.5183
     3.7526   3.7526   3.9140   3.9140   4.3107   4.3107   4.3753   4.3753
     4.3898   4.3898   4.4408   4.4408   4.5406   4.5406   4.5471   4.5471
     4.7123   4.7123   4.8795   4.8795   4.9997   4.9997   5.0249   5.0249
     7.0673   7.0673   7.0803   7.0803   7.1081   7.1081   7.1994   7.1994
     7.2752   7.2752   7.3485   7.3486   7.4572   7.4573   7.5304   7.5304
     7.6035   7.6035   7.6451   7.6451   7.6882   7.6882   7.7379   7.7379
    11.4378  11.4378  11.5344  11.5344  11.6717  11.6717  11.8009  11.8009
    12.1133  12.1133  12.2516  12.2516  12.3655  12.3655  12.4067  12.4067
    12.6202  12.6202  12.6415  12.6415  12.8563  12.8563  12.9110  12.9110
    16.1207  16.1207  16.1850  16.1850  16.6745  16.6745  16.8495  16.8495
    17.1188  17.1188  17.1671  17.1671  17.4136

          k =-0.5000-0.4945-0.5021 ( 62528 PWs)   bands (ev):

   -66.1535 -66.1535 -66.1535 -66.1535 -66.1535 -66.1535 -66.1534 -66.1534
   -30.5146 -30.5146 -30.5146 -30.5146 -30.5133 -30.5133 -30.5133 -30.5133
   -30.4670 -30.4670 -30.4670 -30.4670 -30.4666 -30.4666 -30.4665 -30.4665
   -30.4338 -30.4338 -30.4338 -30.4338 -30.4325 -30.4325 -30.4325 -30.4325
   -20.3180 -20.3180 -20.3180 -20.3180 -20.3179 -20.3179 -20.3179 -20.3179
   -20.3086 -20.3086 -20.3086 -20.3086 -20.3084 -20.3084 -20.3084 -20.3084
   -20.2950 -20.2950 -20.2950 -20.2950 -20.2949 -20.2949 -20.2949 -20.2949
   -20.2898 -20.2898 -20.2898 -20.2898 -20.2898 -20.2897 -20.2897 -20.2897
   -20.2757 -20.2756 -20.2756 -20.2756 -20.2756 -20.2756 -20.2756 -20.2756
   -20.2703 -20.2703 -20.2703 -20.2703 -20.2703 -20.2703 -20.2702 -20.2702
   -20.2604 -20.2604 -20.2604 -20.2604 -20.2604 -20.2604 -20.2604 -20.2604
    -9.0528  -9.0528  -9.0528  -9.0528  -9.0105  -9.0105  -9.0105  -9.0105
    -8.4312  -8.4312  -8.4312  -8.4312  -8.4081  -8.4081  -8.4081  -8.4081
    -8.3192  -8.3192  -8.3192  -8.3192  -8.2624  -8.2624  -8.2624  -8.2624
     2.7056   2.7056   2.7056   2.7056   2.8205   2.8205   2.8206   2.8206
     2.9911   2.9911   2.9911   2.9911   3.1704   3.1704   3.1704   3.1704
     3.2757   3.2757   3.2757   3.2757   3.4365   3.4365   3.4365   3.4365
     4.1346   4.1346   4.1346   4.1346   4.2262   4.2262   4.2262   4.2262
     4.3201   4.3201   4.3201   4.3201   4.3843   4.3843   4.3843   4.3843
     4.5215   4.5215   4.5215   4.5215   4.6215   4.6215   4.6215   4.6215
     7.1735   7.1735   7.1735   7.1735   7.2645   7.2645   7.2645   7.2645
     7.3840   7.3841   7.3841   7.3841   7.4900   7.4900   7.4901   7.4901
     7.6006   7.6006   7.6006   7.6006   7.6919   7.6919   7.6919   7.6919
    11.8605  11.8605  11.8605  11.8605  12.0039  12.0039  12.0039  12.0039
    12.1960  12.1960  12.1960  12.1960  12.2596  12.2596  12.2596  12.2596
    12.3902  12.3902  12.3902  12.3902  12.4738  12.4739  12.4739  12.4739
    16.7570  16.7570  16.7570  16.7570  16.9713  16.9713  16.9713  16.9713
    17.3082  17.3082  17.3085  17.3086  17.3653

     the Fermi energy is     9.7637 ev

!    total energy              =   -6260.73441872 Ry
     Harris-Foulkes estimate   =   -6260.73441872 Ry
     estimated scf accuracy    <          3.3E-09 Ry

     The total energy is the sum of the following terms:

     one-electron contribution =   -4740.30890644 Ry
     hartree contribution      =    2607.29457462 Ry
     xc contribution           =    -966.09904679 Ry
     ewald contribution        =   -3161.62102007 Ry
     smearing contrib. (-TS)   =      -0.00002004 Ry

     convergence has been achieved in  13 iterations

     Writing output data file Landau_33.save/
 
     init_run     :     44.85s CPU     46.98s WALL (       1 calls)
     electrons    :   1743.32s CPU   1776.79s WALL (       1 calls)

     Called by init_run:
     wfcinit      :     42.10s CPU     44.06s WALL (       1 calls)
     potinit      :      1.05s CPU      1.10s WALL (       1 calls)
     hinit0       :      1.48s CPU      1.54s WALL (       1 calls)

     Called by electrons:
     c_bands      :   1575.62s CPU   1606.83s WALL (      13 calls)
     sum_band     :    161.70s CPU    163.04s WALL (      13 calls)
     v_of_rho     :      1.32s CPU      1.40s WALL (      14 calls)
     mix_rho      :      2.19s CPU      2.84s WALL (      13 calls)

     Called by c_bands:
     init_us_2    :      6.81s CPU      7.53s WALL (      54 calls)
     cegterg      :   1399.71s CPU   1428.87s WALL (      26 calls)

     Called by sum_band:

     Called by *egterg:
     h_psi        :   1018.57s CPU   1033.48s WALL (     117 calls)
     g_psi        :      1.54s CPU      1.55s WALL (      89 calls)
     cdiaghg      :     19.34s CPU     19.49s WALL (     115 calls)

     Called by h_psi:
     h_psi:pot    :   1015.96s CPU   1024.32s WALL (     117 calls)
     h_psi:calbec :    169.85s CPU    174.20s WALL (     117 calls)
     vloc_psi     :    671.64s CPU    674.10s WALL (     117 calls)
     add_vuspsi   :    174.47s CPU    176.01s WALL (     117 calls)

     General routines
     calbec       :    169.85s CPU    174.20s WALL (     117 calls)
     fft          :      0.86s CPU      0.86s WALL (      42 calls)
     ffts         :      0.29s CPU      0.29s WALL (      13 calls)
     fftw         :    724.66s CPU    726.70s WALL (   33522 calls)
 
     Parallel routines
 
     PWSCF        :  29m51.41s CPU  30m29.50s WALL

 
   This run was terminated on:   1:38:41  22Nov2019            

=------------------------------------------------------------------------------=
   JOB DONE.
=------------------------------------------------------------------------------=
