
     Program PWSCF v.6.2 (svn rev. 14038) starts on 28Aug2019 at 21:37:16 

     This program is part of the open-source Quantum ESPRESSO suite
     for quantum simulation of materials; please cite
         "P. Giannozzi et al., J. Phys.:Condens. Matter 21 395502 (2009);
         "P. Giannozzi et al., J. Phys.:Condens. Matter 29 465901 (2017);
          URL http://www.quantum-espresso.org", 
     in publications or presentations arising from this work. More details at
     http://www.quantum-espresso.org/quote

     Parallel version (MPI), running on    64 processors

     MPI processes distributed on     6 nodes
     K-points division:     npool     =      64
     Reading input from scf.in

     Current dimensions of program PWSCF are:
     Max number of different atomic species (ntypx) = 10
     Max number of k-points (npk) =  40000
     Max angular momentum in pseudopotentials (lmaxx) =  3

     Subspace diagonalization in iterative solution of the eigenvalue problem:
     a serial algorithm will be used

 
     G-vector sticks info
     --------------------
     sticks:   dense  smooth     PW     G-vecs:    dense   smooth      PW
     Sum        7731    7731   2077               497643   497643   69001
 


     bravais-lattice index     =            0
     lattice parameter (alat)  =      13.8380  a.u.
     unit-cell volume          =    2802.2609 (a.u.)^3
     number of atoms/cell      =           32
     number of atomic types    =            2
     number of electrons       =       369.00
     number of Kohn-Sham states=          222
     kinetic-energy cutoff     =     120.0000  Ry
     charge density cutoff     =     480.0000  Ry
     convergence threshold     =      1.0E-08
     mixing beta               =       0.7000
     number of iterations used =            8  plain     mixing
     Exchange-correlation      = SLA PW NOGX NOGC ( 1  4  0  0 0 0)

     celldm(1)=  13.838017  celldm(2)=   0.000000  celldm(3)=   0.000000
     celldm(4)=   0.000000  celldm(5)=   0.000000  celldm(6)=   0.000000

     crystal axes: (cart. coord. in units of alat)
               a(1) = (   1.000000   0.000000   0.000000 )  
               a(2) = (   0.000000   1.056984   0.000000 )  
               a(3) = (   0.000000   0.000000   1.000503 )  

     reciprocal axes: (cart. coord. in units 2 pi/alat)
               b(1) = (  1.000000  0.000000  0.000000 )  
               b(2) = (  0.000000  0.946088  0.000000 )  
               b(3) = (  0.000000  0.000000  0.999497 )  


     PseudoPot. # 1 for W  read from file:
     /cluster/scratch/mnoe/QE/pps/W_ONCV_LDA-4.0.upf
     MD5 check sum: ba0307d5d4cd419d6f1d13dc49d7c13a
     Pseudo is Norm-conserving + core correction, Zval = 28.0
     Generated using ONCVPSP code by D. R. Hamann
     Using radial grid of 1380 points,  8 beta functions with: 
                l(1) =   0
                l(2) =   0
                l(3) =   1
                l(4) =   1
                l(5) =   2
                l(6) =   2
                l(7) =   3
                l(8) =   3

     PseudoPot. # 2 for O  read from file:
     /cluster/scratch/mnoe/QE/pps/O_ONCV_LDA-3.0.upf
     MD5 check sum: b55cdb4f45ae2203d24ad12cf8d61a31
     Pseudo is Norm-conserving + core correction, Zval =  6.0
     Generated using ONCVPSP code by D. R. Hamann
     Using radial grid of  926 points,  5 beta functions with: 
                l(1) =   0
                l(2) =   0
                l(3) =   1
                l(4) =   1
                l(5) =   2

     atomic species   valence    mass     pseudopotential
        W             28.00   183.84000     W ( 1.00)
        O              6.00    15.99940     O ( 1.00)

      8 Sym. Ops., with inversion, found ( 6 have fractional translation)



   Cartesian axes

     site n.     atom                  positions (alat units)
         1           W   tau(   1) = (   0.2453800   0.2979216   0.0043722  )
         2           W   tau(   2) = (   0.7546200   0.7590626   0.9961310  )
         3           W   tau(   3) = (   0.2546200   0.2305705   0.5046238  )
         4           W   tau(   4) = (   0.7453800   0.8264136   0.4958794  )
         5           W   tau(   5) = (   0.7546200   0.2979216   0.4958794  )
         6           W   tau(   6) = (   0.2453800   0.7590626   0.5046238  )
         7           W   tau(   7) = (   0.7453800   0.2305705   0.9961310  )
         8           W   tau(   8) = (   0.2546200   0.8264136   0.0043722  )
         9           O   tau(   9) = (   0.2414700   0.0087941   0.0013607  )
        10           O   tau(  10) = (   0.7585300   1.0481901   0.9991425  )
        11           O   tau(  11) = (   0.2585300   0.5196980   0.5016123  )
        12           O   tau(  12) = (   0.7414700   0.5372862   0.4988909  )
        13           O   tau(  13) = (   0.7585300   0.0087941   0.4988909  )
        14           O   tau(  14) = (   0.2414700   1.0481901   0.5016123  )
        15           O   tau(  15) = (   0.7414700   0.5196980   0.9991425  )
        16           O   tau(  16) = (   0.2585300   0.5372862   0.0013607  )
        17           O   tau(  17) = (   0.5012600   0.2549974   0.4497662  )
        18           O   tau(  18) = (   0.4987400   0.8019867   0.5507370  )
        19           O   tau(  19) = (   0.9987400   0.2734947   0.9500179  )
        20           O   tau(  20) = (   0.0012600   0.7834894   0.0504854  )
        21           O   tau(  21) = (   0.4987400   0.2549974   0.0504854  )
        22           O   tau(  22) = (   0.5012600   0.8019867   0.9500179  )
        23           O   tau(  23) = (   0.0012600   0.2734947   0.5507370  )
        24           O   tau(  24) = (   0.9987400   0.7834894   0.4497662  )
        25           O   tau(  25) = (   0.6995400   0.2622272   0.7484565  )
        26           O   tau(  26) = (   0.3004600   0.7947569   0.2520468  )
        27           O   tau(  27) = (   0.8004600   0.2662649   0.2482049  )
        28           O   tau(  28) = (   0.1995400   0.7907193   0.7522983  )
        29           O   tau(  29) = (   0.3004600   0.2622272   0.7522983  )
        30           O   tau(  30) = (   0.6995400   0.7947569   0.2482049  )
        31           O   tau(  31) = (   0.1995400   0.2662649   0.2520468  )
        32           O   tau(  32) = (   0.8004600   0.7907193   0.7484565  )

     number of k points=    64  gaussian smearing, width (Ry)=  0.0007
                       cart. coord. in units 2pi/alat
        k(    1) = (   0.0000000   0.0000000   0.0000000), wk =   0.0092593
        k(    2) = (   0.0000000   0.0000000   0.1665828), wk =   0.0185185
        k(    3) = (   0.0000000   0.0000000   0.3331657), wk =   0.0185185
        k(    4) = (   0.0000000   0.0000000  -0.4997485), wk =   0.0092593
        k(    5) = (   0.0000000   0.1576813   0.0000000), wk =   0.0185185
        k(    6) = (   0.0000000   0.1576813   0.1665828), wk =   0.0370370
        k(    7) = (   0.0000000   0.1576813   0.3331657), wk =   0.0370370
        k(    8) = (   0.0000000   0.1576813  -0.4997485), wk =   0.0185185
        k(    9) = (   0.0000000   0.3153627   0.0000000), wk =   0.0185185
        k(   10) = (   0.0000000   0.3153627   0.1665828), wk =   0.0370370
        k(   11) = (   0.0000000   0.3153627   0.3331657), wk =   0.0370370
        k(   12) = (   0.0000000   0.3153627  -0.4997485), wk =   0.0185185
        k(   13) = (   0.0000000  -0.4730440   0.0000000), wk =   0.0092593
        k(   14) = (   0.0000000  -0.4730440   0.1665828), wk =   0.0185185
        k(   15) = (   0.0000000  -0.4730440   0.3331657), wk =   0.0185185
        k(   16) = (   0.0000000  -0.4730440  -0.4997485), wk =   0.0092593
        k(   17) = (   0.1666667   0.0000000   0.0000000), wk =   0.0185185
        k(   18) = (   0.1666667   0.0000000   0.1665828), wk =   0.0370370
        k(   19) = (   0.1666667   0.0000000   0.3331657), wk =   0.0370370
        k(   20) = (   0.1666667   0.0000000  -0.4997485), wk =   0.0185185
        k(   21) = (   0.1666667   0.1576813   0.0000000), wk =   0.0370370
        k(   22) = (   0.1666667   0.1576813   0.1665828), wk =   0.0740741
        k(   23) = (   0.1666667   0.1576813   0.3331657), wk =   0.0740741
        k(   24) = (   0.1666667   0.1576813  -0.4997485), wk =   0.0370370
        k(   25) = (   0.1666667   0.3153627   0.0000000), wk =   0.0370370
        k(   26) = (   0.1666667   0.3153627   0.1665828), wk =   0.0740741
        k(   27) = (   0.1666667   0.3153627   0.3331657), wk =   0.0740741
        k(   28) = (   0.1666667   0.3153627  -0.4997485), wk =   0.0370370
        k(   29) = (   0.1666667  -0.4730440   0.0000000), wk =   0.0185185
        k(   30) = (   0.1666667  -0.4730440   0.1665828), wk =   0.0370370
        k(   31) = (   0.1666667  -0.4730440   0.3331657), wk =   0.0370370
        k(   32) = (   0.1666667  -0.4730440  -0.4997485), wk =   0.0185185
        k(   33) = (   0.3333333   0.0000000   0.0000000), wk =   0.0185185
        k(   34) = (   0.3333333   0.0000000   0.1665828), wk =   0.0370370
        k(   35) = (   0.3333333   0.0000000   0.3331657), wk =   0.0370370
        k(   36) = (   0.3333333   0.0000000  -0.4997485), wk =   0.0185185
        k(   37) = (   0.3333333   0.1576813   0.0000000), wk =   0.0370370
        k(   38) = (   0.3333333   0.1576813   0.1665828), wk =   0.0740741
        k(   39) = (   0.3333333   0.1576813   0.3331657), wk =   0.0740741
        k(   40) = (   0.3333333   0.1576813  -0.4997485), wk =   0.0370370
        k(   41) = (   0.3333333   0.3153627   0.0000000), wk =   0.0370370
        k(   42) = (   0.3333333   0.3153627   0.1665828), wk =   0.0740741
        k(   43) = (   0.3333333   0.3153627   0.3331657), wk =   0.0740741
        k(   44) = (   0.3333333   0.3153627  -0.4997485), wk =   0.0370370
        k(   45) = (   0.3333333  -0.4730440   0.0000000), wk =   0.0185185
        k(   46) = (   0.3333333  -0.4730440   0.1665828), wk =   0.0370370
        k(   47) = (   0.3333333  -0.4730440   0.3331657), wk =   0.0370370
        k(   48) = (   0.3333333  -0.4730440  -0.4997485), wk =   0.0185185
        k(   49) = (  -0.5000000   0.0000000   0.0000000), wk =   0.0092593
        k(   50) = (  -0.5000000   0.0000000   0.1665828), wk =   0.0185185
        k(   51) = (  -0.5000000   0.0000000   0.3331657), wk =   0.0185185
        k(   52) = (  -0.5000000   0.0000000  -0.4997485), wk =   0.0092593
        k(   53) = (  -0.5000000   0.1576813   0.0000000), wk =   0.0185185
        k(   54) = (  -0.5000000   0.1576813   0.1665828), wk =   0.0370370
        k(   55) = (  -0.5000000   0.1576813   0.3331657), wk =   0.0370370
        k(   56) = (  -0.5000000   0.1576813  -0.4997485), wk =   0.0185185
        k(   57) = (  -0.5000000   0.3153627   0.0000000), wk =   0.0185185
        k(   58) = (  -0.5000000   0.3153627   0.1665828), wk =   0.0370370
        k(   59) = (  -0.5000000   0.3153627   0.3331657), wk =   0.0370370
        k(   60) = (  -0.5000000   0.3153627  -0.4997485), wk =   0.0185185
        k(   61) = (  -0.5000000  -0.4730440   0.0000000), wk =   0.0092593
        k(   62) = (  -0.5000000  -0.4730440   0.1665828), wk =   0.0185185
        k(   63) = (  -0.5000000  -0.4730440   0.3331657), wk =   0.0185185
        k(   64) = (  -0.5000000  -0.4730440  -0.4997485), wk =   0.0092593

     Dense  grid:   497643 G-vectors     FFT dimensions: ( 100, 108, 100)

     Estimated max dynamical RAM per process >       2.72 GB

     Estimated total dynamical RAM >     174.28 GB

     Initial potential from superposition of free atoms

     starting charge  367.99656, renormalised to  369.00000
     Starting wfc are  232 randomized atomic wfcs

     total cpu time spent up to now is       27.6 secs

     Self-consistent Calculation

     iteration #  1     ecut=   120.00 Ry     beta= 0.70
     Davidson diagonalization with overlap
     ethr =  1.00E-02,  avg # of iterations =  5.6

     total cpu time spent up to now is      120.4 secs

     total energy              =   -6253.08390281 Ry
     Harris-Foulkes estimate   =   -6264.04670265 Ry
     estimated scf accuracy    <      13.76407259 Ry

     iteration #  2     ecut=   120.00 Ry     beta= 0.70
     Davidson diagonalization with overlap
     ethr =  3.73E-03,  avg # of iterations =  3.6

     total cpu time spent up to now is      211.2 secs

     total energy              =   -6250.14896461 Ry
     Harris-Foulkes estimate   =   -6269.91147138 Ry
     estimated scf accuracy    <      52.18123176 Ry

     iteration #  3     ecut=   120.00 Ry     beta= 0.70
     Davidson diagonalization with overlap
     ethr =  3.73E-03,  avg # of iterations =  3.3

     total cpu time spent up to now is      293.7 secs

     total energy              =   -6260.38121304 Ry
     Harris-Foulkes estimate   =   -6260.64373221 Ry
     estimated scf accuracy    <       0.89342568 Ry

     iteration #  4     ecut=   120.00 Ry     beta= 0.70
     Davidson diagonalization with overlap
     ethr =  2.42E-04,  avg # of iterations =  3.4

     total cpu time spent up to now is      362.9 secs

     total energy              =   -6260.37203875 Ry
     Harris-Foulkes estimate   =   -6260.44633060 Ry
     estimated scf accuracy    <       0.23322925 Ry

     iteration #  5     ecut=   120.00 Ry     beta= 0.70
     Davidson diagonalization with overlap
     ethr =  6.32E-05,  avg # of iterations =  4.9

     total cpu time spent up to now is      436.7 secs

     total energy              =   -6260.37272124 Ry
     Harris-Foulkes estimate   =   -6260.40477097 Ry
     estimated scf accuracy    <       0.07151341 Ry

     iteration #  6     ecut=   120.00 Ry     beta= 0.70
     Davidson diagonalization with overlap
     ethr =  1.94E-05,  avg # of iterations =  5.4

     total cpu time spent up to now is      516.1 secs

     total energy              =   -6260.38829262 Ry
     Harris-Foulkes estimate   =   -6260.39124669 Ry
     estimated scf accuracy    <       0.00748888 Ry

     iteration #  7     ecut=   120.00 Ry     beta= 0.70
     Davidson diagonalization with overlap
     ethr =  2.03E-06,  avg # of iterations =  6.2

     total cpu time spent up to now is      591.3 secs

     total energy              =   -6260.38937814 Ry
     Harris-Foulkes estimate   =   -6260.38943828 Ry
     estimated scf accuracy    <       0.00010016 Ry

     iteration #  8     ecut=   120.00 Ry     beta= 0.70
     Davidson diagonalization with overlap
     ethr =  2.71E-08,  avg # of iterations =  3.5

     total cpu time spent up to now is      682.7 secs

     total energy              =   -6260.38943405 Ry
     Harris-Foulkes estimate   =   -6260.38944783 Ry
     estimated scf accuracy    <       0.00005750 Ry

     iteration #  9     ecut=   120.00 Ry     beta= 0.70
     Davidson diagonalization with overlap
     ethr =  1.56E-08,  avg # of iterations =  1.0

     total cpu time spent up to now is      744.7 secs

     total energy              =   -6260.38943026 Ry
     Harris-Foulkes estimate   =   -6260.38943736 Ry
     estimated scf accuracy    <       0.00001886 Ry

     iteration # 10     ecut=   120.00 Ry     beta= 0.70
     Davidson diagonalization with overlap
     ethr =  5.11E-09,  avg # of iterations =  2.9

     total cpu time spent up to now is      811.2 secs

     total energy              =   -6260.38943311 Ry
     Harris-Foulkes estimate   =   -6260.38943346 Ry
     estimated scf accuracy    <       0.00000083 Ry

     iteration # 11     ecut=   120.00 Ry     beta= 0.70
     Davidson diagonalization with overlap
     ethr =  2.24E-10,  avg # of iterations =  3.0

     total cpu time spent up to now is      893.4 secs

     total energy              =   -6260.38943330 Ry
     Harris-Foulkes estimate   =   -6260.38943338 Ry
     estimated scf accuracy    <       0.00000023 Ry

     iteration # 12     ecut=   120.00 Ry     beta= 0.70
     Davidson diagonalization with overlap
     ethr =  6.34E-11,  avg # of iterations =  1.8

     total cpu time spent up to now is      956.8 secs

     total energy              =   -6260.38943328 Ry
     Harris-Foulkes estimate   =   -6260.38943331 Ry
     estimated scf accuracy    <       0.00000006 Ry

     iteration # 13     ecut=   120.00 Ry     beta= 0.70
     Davidson diagonalization with overlap
     ethr =  1.72E-11,  avg # of iterations =  2.8

     total cpu time spent up to now is     1040.3 secs

     End of self-consistent calculation

          k = 0.0000 0.0000 0.0000 ( 62199 PWs)   bands (ev):

   -65.9258 -65.9254 -65.9248 -65.9248 -65.9244 -65.9243 -65.9237 -65.9233
   -30.4012 -30.3976 -30.3975 -30.3940 -30.3413 -30.3379 -30.3376 -30.3344
   -30.2658 -30.2643 -30.2613 -30.2596 -30.2585 -30.2583 -30.2567 -30.2542
   -30.1635 -30.1616 -30.1609 -30.1596 -30.1587 -30.1579 -30.1559 -30.1540
   -20.0826 -20.0823 -20.0823 -20.0820 -20.0773 -20.0770 -20.0769 -20.0766
   -20.0694 -20.0692 -20.0688 -20.0686 -20.0685 -20.0684 -20.0681 -20.0676
   -20.0674 -20.0671 -20.0668 -20.0666 -20.0664 -20.0663 -20.0656 -20.0654
   -20.0653 -20.0648 -20.0646 -20.0641 -20.0636 -20.0634 -20.0633 -20.0631
   -20.0476 -20.0475 -20.0473 -20.0472 -20.0472 -20.0471 -20.0469 -20.0468
   -20.0009 -20.0008 -20.0001 -20.0001 -19.9993 -19.9993 -19.9987 -19.9987
   -19.9951 -19.9950 -19.9945 -19.9945 -19.9936 -19.9936 -19.9929 -19.9929
    -9.8786  -9.5752  -9.4433  -9.4430  -9.1384  -9.1341  -9.0507  -8.9435
    -8.9308  -8.8296  -8.7891  -8.7880  -7.8342  -7.7722  -7.7692  -7.7168
    -7.6867  -7.6834  -7.6592  -7.6582  -7.5299  -7.5272  -7.5076  -7.5056
     1.3426   1.3431   1.4019   1.4062   1.4261   1.4347   1.4501   1.6829
     1.6845   1.6907   1.7674   1.9532   2.4873   2.5653   2.6175   2.6205
     2.7709   2.7766   4.2053   4.2153   4.4349   4.4533   4.8508   4.8755
     4.9532   4.9628   4.9830   4.9831   5.0915   5.0926   5.1284   5.4557
     5.4688   5.5651   5.5934   5.5939   5.5969   5.6279   5.6542   5.8617
     5.8764   5.9422   5.9425   5.9693   5.9997   6.1081   6.1130   6.2198
     6.2213   6.3083   6.3152   6.6206   6.6244   6.8396   6.8555   6.8826
     6.8918   6.9277   7.0576   7.0680   7.1304   7.1386   7.4724   7.4843
     7.5168   7.5280   7.8648   7.8798   8.1071   8.1234   8.1696   8.1858
     9.4700   9.4742  10.1131  10.1185  10.1457  10.1520  12.3749  12.3777
    12.4242  12.4426  12.4771  12.4954  12.6154  12.6260  12.9777  13.0294
    13.3458  13.3750  13.5050  13.5183  13.8689  14.1906  14.2661  14.2711
    14.3179  14.4945  14.5684  14.8579  15.5848  15.6058  15.6188  16.2009
    16.2108  16.9098  17.1337  17.1476  17.4293  17.9782

          k = 0.0000 0.0000 0.1666 ( 62184 PWs)   bands (ev):

   -65.9257 -65.9253 -65.9248 -65.9247 -65.9244 -65.9243 -65.9238 -65.9234
   -30.4011 -30.3979 -30.3973 -30.3943 -30.3412 -30.3382 -30.3375 -30.3347
   -30.2635 -30.2610 -30.2587 -30.2564 -30.2551 -30.2546 -30.2527 -30.2500
   -30.1704 -30.1678 -30.1661 -30.1635 -30.1613 -30.1584 -30.1574 -30.1545
   -20.0826 -20.0823 -20.0823 -20.0821 -20.0773 -20.0770 -20.0770 -20.0767
   -20.0692 -20.0690 -20.0688 -20.0687 -20.0684 -20.0682 -20.0682 -20.0676
   -20.0675 -20.0672 -20.0668 -20.0665 -20.0664 -20.0663 -20.0656 -20.0653
   -20.0653 -20.0649 -20.0647 -20.0641 -20.0638 -20.0634 -20.0633 -20.0632
   -20.0476 -20.0475 -20.0473 -20.0472 -20.0472 -20.0471 -20.0469 -20.0468
   -20.0005 -20.0005 -20.0000 -20.0000 -19.9989 -19.9989 -19.9988 -19.9988
   -19.9955 -19.9955 -19.9944 -19.9944 -19.9940 -19.9940 -19.9930 -19.9930
    -9.8327  -9.5210  -9.4600  -9.3868  -9.1491  -9.0591  -9.0489  -8.9059
    -8.8895  -8.8155  -8.7928  -8.7541  -7.8359  -7.8068  -7.7942  -7.7759
    -7.7571  -7.7202  -7.6704  -7.6605  -7.6464  -7.6404  -7.5371  -7.5154
     1.4069   1.4075   1.4332   1.4411   1.5197   1.5582   1.6751   1.6824
     1.6852   1.7861   1.9368   2.0814   2.5741   2.6272   2.6571   2.7097
     2.7622   2.8667   4.1444   4.2082   4.4414   4.4577   4.4587   4.5813
     4.7236   4.8426   4.8512   5.0191   5.0244   5.0941   5.1149   5.3781
     5.4059   5.4559   5.5524   5.5946   5.6016   5.6599   5.6613   5.7149
     5.7801   5.8336   5.8559   5.9948   6.0120   6.1435   6.1930   6.2175
     6.3259   6.4902   6.5592   6.6132   6.7024   6.7369   6.8224   6.8832
     6.8908   6.9020   7.0229   7.0640   7.0683   7.1471   7.2626   7.2677
     7.2999   7.3616   7.8858   7.8889   8.0817   8.1211   8.1432   8.1712
     9.8005   9.8293  10.1204  10.1432  10.3759  10.4303  12.3175  12.3855
    12.3979  12.4470  12.4731  12.5176  12.6292  12.7176  13.0214  13.0357
    13.1565  13.3690  13.4112  13.5059  13.9849  14.1250  14.1450  14.1888
    14.3274  14.5624  14.6122  14.9675  15.5505  15.6335  15.6654  16.1824
    16.5044  16.8458  17.0800  17.3205  17.4813  17.4917

          k = 0.0000 0.0000 0.3332 ( 62192 PWs)   bands (ev):

   -65.9255 -65.9251 -65.9250 -65.9246 -65.9245 -65.9241 -65.9240 -65.9236
   -30.4006 -30.3987 -30.3969 -30.3951 -30.3407 -30.3389 -30.3371 -30.3354
   -30.2624 -30.2597 -30.2585 -30.2556 -30.2394 -30.2367 -30.2344 -30.2317
   -30.1890 -30.1863 -30.1844 -30.1817 -30.1605 -30.1583 -30.1576 -30.1553
   -20.0825 -20.0824 -20.0823 -20.0821 -20.0772 -20.0771 -20.0769 -20.0768
   -20.0689 -20.0688 -20.0687 -20.0686 -20.0683 -20.0680 -20.0678 -20.0677
   -20.0673 -20.0673 -20.0670 -20.0666 -20.0663 -20.0661 -20.0656 -20.0655
   -20.0653 -20.0651 -20.0650 -20.0642 -20.0640 -20.0635 -20.0634 -20.0633
   -20.0475 -20.0474 -20.0473 -20.0472 -20.0471 -20.0470 -20.0470 -20.0469
   -19.9999 -19.9999 -19.9994 -19.9994 -19.9991 -19.9991 -19.9979 -19.9979
   -19.9966 -19.9966 -19.9951 -19.9951 -19.9941 -19.9941 -19.9933 -19.9933
    -9.7212  -9.5119  -9.3949  -9.2584  -9.1944  -9.0875  -8.8482  -8.8058
    -8.7943  -8.7441  -8.7079  -8.6219  -8.1048  -8.1048  -8.0004  -7.9804
    -7.8083  -7.7860  -7.7534  -7.7294  -7.6413  -7.6187  -7.5645  -7.5424
     1.4109   1.4170   1.4583   1.4862   1.6245   1.6381   1.6582   1.6757
     2.3691   2.4008   2.5676   2.6484   2.6535   2.7580   2.8244   2.9253
     2.9536   3.1095   3.8417   3.8955   3.9509   4.0433   4.2291   4.3610
     4.3969   4.5975   4.6423   4.8106   4.8599   4.9123   5.0363   5.0627
     5.2313   5.2903   5.2964   5.3885   5.5290   5.5665   5.6444   5.7168
     5.7257   5.7824   5.8228   6.0376   6.0544   6.2578   6.3137   6.3568
     6.3741   6.4294   6.5713   6.5743   6.6297   6.6559   6.7032   6.8394
     6.8768   6.9146   6.9369   7.0671   7.0965   7.1137   7.1422   7.2066
     7.3742   7.4070   7.8321   7.8518   7.9538   8.0075   8.1550   8.1733
    10.1103  10.1357  10.5038  10.5862  10.9834  11.0975  11.9618  12.0160
    12.1947  12.5971  12.6112  12.6120  12.6665  12.6960  12.8182  12.9846
    13.0103  13.2379  13.2839  13.5161  13.7940  13.8239  14.1426  14.1839
    14.4057  14.5428  14.9214  15.2670  15.4405  15.7674  16.0222  16.0967
    16.2758  17.3283  17.4598  17.6166  17.6237  17.7376

          k = 0.0000 0.0000-0.4997 ( 62208 PWs)   bands (ev):

   -65.9253 -65.9253 -65.9249 -65.9249 -65.9243 -65.9243 -65.9238 -65.9238
   -30.3997 -30.3997 -30.3960 -30.3960 -30.3399 -30.3399 -30.3363 -30.3363
   -30.2610 -30.2610 -30.2570 -30.2570 -30.2143 -30.2143 -30.2115 -30.2115
   -30.2094 -30.2094 -30.2067 -30.2067 -30.1594 -30.1594 -30.1565 -30.1565
   -20.0825 -20.0825 -20.0822 -20.0822 -20.0772 -20.0772 -20.0769 -20.0769
   -20.0688 -20.0688 -20.0686 -20.0685 -20.0681 -20.0681 -20.0676 -20.0676
   -20.0674 -20.0673 -20.0670 -20.0670 -20.0659 -20.0659 -20.0658 -20.0657
   -20.0653 -20.0653 -20.0647 -20.0647 -20.0638 -20.0638 -20.0634 -20.0634
   -20.0474 -20.0474 -20.0473 -20.0473 -20.0470 -20.0470 -20.0470 -20.0470
   -19.9995 -19.9995 -19.9995 -19.9995 -19.9980 -19.9980 -19.9980 -19.9980
   -19.9965 -19.9965 -19.9965 -19.9965 -19.9937 -19.9937 -19.9937 -19.9937
    -9.6013  -9.6013  -9.2746  -9.2746  -9.1480  -9.1480  -8.8239  -8.8239
    -8.4660  -8.4660  -8.4456  -8.4456  -8.4165  -8.4164  -8.3475  -8.3475
    -7.7992  -7.7992  -7.7418  -7.7418  -7.6025  -7.6025  -7.5801  -7.5801
     1.4148   1.4148   1.4788   1.4788   1.6416   1.6416   1.6668   1.6668
     2.6874   2.6874   3.0632   3.0632   3.2155   3.2156   3.2174   3.2174
     3.3745   3.3745   3.4330   3.4330   3.5785   3.5785   3.8574   3.8575
     3.9553   3.9553   4.5317   4.5317   4.7678   4.7678   4.9748   4.9748
     5.2922   5.2922   5.4273   5.4273   5.4296   5.4297   5.6872   5.6872
     5.7865   5.7865   5.9653   5.9653   6.2481   6.2481   6.3073   6.3073
     6.4151   6.4151   6.5020   6.5020   6.5284   6.5284   6.6129   6.6129
     6.8455   6.8455   6.8815   6.8815   7.1204   7.1204   7.5656   7.5656
     7.6308   7.6308   7.7332   7.7332   7.7628   7.7628   8.1708   8.1708
    10.1242  10.1242  11.2888  11.2888  11.3682  11.3682  11.6723  11.6723
    11.8890  11.8891  12.6698  12.6698  12.8063  12.8063  12.9328  12.9328
    13.0267  13.0267  13.3797  13.3797  13.5763  13.5763  14.1758  14.1758
    14.4995  14.4995  15.2337  15.2337  15.7144  15.7144  15.9526  15.9526
    16.7493  16.7493  17.8059  17.8059  18.0806  18.1610

          k = 0.0000 0.1577 0.0000 ( 62175 PWs)   bands (ev):

   -65.9258 -65.9254 -65.9248 -65.9247 -65.9244 -65.9244 -65.9237 -65.9234
   -30.3972 -30.3937 -30.3935 -30.3901 -30.3453 -30.3419 -30.3416 -30.3384
   -30.2656 -30.2642 -30.2614 -30.2595 -30.2589 -30.2581 -30.2569 -30.2545
   -30.1634 -30.1614 -30.1611 -30.1594 -30.1589 -30.1579 -30.1559 -30.1542
   -20.0822 -20.0820 -20.0819 -20.0817 -20.0776 -20.0773 -20.0773 -20.0770
   -20.0693 -20.0691 -20.0687 -20.0686 -20.0685 -20.0684 -20.0681 -20.0677
   -20.0674 -20.0671 -20.0668 -20.0665 -20.0664 -20.0664 -20.0656 -20.0654
   -20.0652 -20.0648 -20.0645 -20.0641 -20.0637 -20.0635 -20.0633 -20.0632
   -20.0476 -20.0475 -20.0473 -20.0472 -20.0472 -20.0471 -20.0469 -20.0468
   -20.0009 -20.0008 -20.0001 -20.0001 -19.9993 -19.9993 -19.9987 -19.9987
   -19.9950 -19.9950 -19.9945 -19.9945 -19.9936 -19.9936 -19.9929 -19.9929
    -9.8477  -9.5873  -9.4033  -9.4026  -9.1464  -9.1421  -8.9769  -8.9427
    -8.9317  -8.7852  -8.7542  -8.7533  -7.9274  -7.8709  -7.8683  -7.8234
    -7.6850  -7.6831  -7.6610  -7.6600  -7.5284  -7.5262  -7.5092  -7.5071
     1.3426   1.3430   1.4148   1.4210   1.4260   1.4346   1.5966   1.7666
     1.8633   1.9122   1.9172   2.1056   2.4924   2.5599   2.6896   2.6933
     2.8391   2.8456   4.0702   4.0821   4.1567   4.1714   4.8091   4.9366
     4.9485   4.9650   4.9664   4.9775   4.9930   5.0319   5.0351   5.3275
     5.3369   5.5322   5.5366   5.6359   5.6725   5.7010   5.7039   5.7088
     5.8631   5.8694   5.9205   5.9282   6.0098   6.1150   6.1196   6.2228
     6.2249   6.3056   6.3172   6.6419   6.6486   6.8716   6.8766   6.8882
     6.9199   6.9266   6.9401   7.0566   7.0590   7.0593   7.4811   7.4918
     7.5171   7.5270   7.8691   7.8789   8.0670   8.0801   8.0922   8.1036
     9.4706   9.4750  10.3105  10.3124  10.3162  10.3167  12.2586  12.2800
    12.4303  12.4411  12.4601  12.4690  12.4768  12.4894  12.9845  13.0289
    13.3792  13.4053  13.5102  13.5213  14.0784  14.1429  14.1675  14.1795
    14.3251  14.7712  14.8002  15.0372  15.6059  15.6167  15.9841  16.1670
    16.1757  16.5678  17.2655  17.2791  17.4611  17.5150

          k = 0.0000 0.1577 0.1666 ( 62197 PWs)   bands (ev):

   -65.9257 -65.9253 -65.9248 -65.9247 -65.9245 -65.9243 -65.9238 -65.9234
   -30.3971 -30.3939 -30.3934 -30.3903 -30.3452 -30.3422 -30.3415 -30.3387
   -30.2633 -30.2610 -30.2584 -30.2565 -30.2552 -30.2549 -30.2526 -30.2502
   -30.1702 -30.1679 -30.1659 -30.1636 -30.1611 -30.1586 -30.1572 -30.1547
   -20.0822 -20.0820 -20.0819 -20.0817 -20.0776 -20.0773 -20.0773 -20.0770
   -20.0692 -20.0689 -20.0688 -20.0686 -20.0684 -20.0682 -20.0682 -20.0676
   -20.0674 -20.0672 -20.0668 -20.0665 -20.0665 -20.0663 -20.0656 -20.0653
   -20.0653 -20.0649 -20.0646 -20.0641 -20.0638 -20.0635 -20.0634 -20.0633
   -20.0476 -20.0475 -20.0473 -20.0472 -20.0472 -20.0471 -20.0469 -20.0468
   -20.0005 -20.0005 -20.0000 -20.0000 -19.9989 -19.9989 -19.9988 -19.9988
   -19.9955 -19.9955 -19.9944 -19.9944 -19.9940 -19.9940 -19.9930 -19.9930
    -9.8005  -9.5331  -9.4198  -9.3420  -9.1573  -9.0570  -8.9853  -8.9039
    -8.8904  -8.7736  -8.7579  -8.7238  -7.9268  -7.8800  -7.8672  -7.8297
    -7.8052  -7.7812  -7.6699  -7.6594  -7.6478  -7.6395  -7.5361  -7.5169
     1.4250   1.4268   1.4331   1.4410   1.6372   1.6821   1.6836   1.8729
     1.9124   1.9360   1.9401   2.1775   2.5805   2.6511   2.6991   2.7844
     2.8310   2.9353   4.0463   4.0878   4.1618   4.1949   4.4947   4.5780
     4.7554   4.7839   4.7936   4.9775   5.0041   5.0180   5.0573   5.2849
     5.3099   5.3757   5.3916   5.5562   5.6373   5.6559   5.7027   5.7369
     5.7709   5.8266   5.8613   5.8866   5.9423   6.1673   6.2099   6.2211
     6.2778   6.4701   6.5403   6.6359   6.7532   6.8157   6.8382   6.8623
     6.9060   6.9291   7.0056   7.0213   7.0679   7.0748   7.2634   7.2676
     7.3155   7.3604   7.8880   7.8880   8.0410   8.0664   8.0678   8.0945
     9.8069   9.8318  10.3132  10.3179  10.5384  10.5662  12.2546  12.3369
    12.3592  12.3864  12.4635  12.4709  12.4914  12.6084  13.0257  13.0422
    13.1902  13.3962  13.4131  13.5088  14.0238  14.0529  14.1144  14.1414
    14.4164  14.7929  14.9125  15.1315  15.6322  15.6648  15.9502  16.1476
    16.4683  16.7205  16.9674  17.4332  17.5458  17.5845

          k = 0.0000 0.1577 0.3332 ( 62218 PWs)   bands (ev):

   -65.9255 -65.9251 -65.9250 -65.9246 -65.9245 -65.9241 -65.9240 -65.9236
   -30.3965 -30.3947 -30.3929 -30.3911 -30.3447 -30.3429 -30.3411 -30.3394
   -30.2622 -30.2594 -30.2588 -30.2559 -30.2392 -30.2369 -30.2343 -30.2319
   -30.1888 -30.1865 -30.1842 -30.1819 -30.1603 -30.1581 -30.1578 -30.1555
   -20.0822 -20.0820 -20.0819 -20.0818 -20.0776 -20.0774 -20.0773 -20.0771
   -20.0689 -20.0688 -20.0687 -20.0685 -20.0683 -20.0680 -20.0678 -20.0677
   -20.0674 -20.0673 -20.0670 -20.0667 -20.0662 -20.0661 -20.0655 -20.0655
   -20.0653 -20.0651 -20.0649 -20.0643 -20.0640 -20.0635 -20.0635 -20.0634
   -20.0475 -20.0474 -20.0473 -20.0472 -20.0471 -20.0470 -20.0470 -20.0469
   -19.9999 -19.9999 -19.9994 -19.9994 -19.9991 -19.9991 -19.9979 -19.9979
   -19.9966 -19.9966 -19.9951 -19.9951 -19.9941 -19.9941 -19.9933 -19.9933
    -9.6860  -9.4724  -9.4066  -9.2034  -9.2003  -9.0141  -8.8244  -8.8029
    -8.7707  -8.7457  -8.6909  -8.6049  -8.1126  -8.1029  -8.0238  -7.9785
    -7.8946  -7.8783  -7.8511  -7.8212  -7.6405  -7.6203  -7.5635  -7.5440
     1.4377   1.4582   1.4609   1.4861   1.8030   1.8265   1.9056   1.9122
     2.3675   2.4101   2.5726   2.6640   2.7249   2.8167   2.8354   2.9225
     3.0301   3.1710   3.8419   3.8949   3.9441   3.9897   4.1805   4.2114
     4.2877   4.4201   4.6614   4.7424   4.8494   4.8804   4.8971   4.9432
     5.0735   5.2036   5.2443   5.2839   5.4290   5.4936   5.5801   5.6550
     5.7346   5.7795   5.8140   5.8624   6.0319   6.2126   6.2959   6.3187
     6.4040   6.5973   6.6067   6.6528   6.6789   6.7111   6.7877   6.8614
     6.8829   6.8875   6.9941   7.0178   7.0567   7.0991   7.1460   7.1953
     7.3678   7.3993   7.8349   7.8499   7.9187   7.9480   8.0860   8.0975
    10.3008  10.3153  10.5141  10.5895  11.0960  11.1851  11.9627  12.0134
    12.1621  12.4840  12.5576  12.5986  12.6417  12.6686  12.7701  12.8797
    13.0064  13.2379  13.2944  13.5100  13.6942  13.7390  14.1337  14.1384
    14.6254  14.7740  15.2656  15.4028  15.7546  15.8407  16.0373  16.0635
    16.4007  17.1647  17.2849  17.5101  17.7784  17.8267

          k = 0.0000 0.1577-0.4997 ( 62170 PWs)   bands (ev):

   -65.9253 -65.9253 -65.9249 -65.9249 -65.9242 -65.9242 -65.9239 -65.9239
   -30.3957 -30.3957 -30.3920 -30.3920 -30.3439 -30.3439 -30.3403 -30.3403
   -30.2608 -30.2608 -30.2573 -30.2573 -30.2141 -30.2141 -30.2117 -30.2117
   -30.2093 -30.2093 -30.2069 -30.2069 -30.1592 -30.1592 -30.1567 -30.1567
   -20.0821 -20.0821 -20.0819 -20.0819 -20.0775 -20.0775 -20.0772 -20.0772
   -20.0687 -20.0687 -20.0685 -20.0685 -20.0680 -20.0680 -20.0676 -20.0676
   -20.0674 -20.0674 -20.0670 -20.0670 -20.0659 -20.0659 -20.0657 -20.0657
   -20.0653 -20.0653 -20.0647 -20.0647 -20.0638 -20.0638 -20.0634 -20.0634
   -20.0474 -20.0474 -20.0473 -20.0473 -20.0470 -20.0470 -20.0470 -20.0470
   -19.9995 -19.9995 -19.9995 -19.9995 -19.9980 -19.9980 -19.9980 -19.9980
   -19.9965 -19.9965 -19.9965 -19.9965 -19.9937 -19.9937 -19.9937 -19.9937
    -9.5633  -9.5633  -9.2849  -9.2849  -9.0781  -9.0781  -8.7899  -8.7899
    -8.4698  -8.4698  -8.4413  -8.4413  -8.4268  -8.4268  -8.3422  -8.3422
    -7.8917  -7.8917  -7.8399  -7.8399  -7.6016  -7.6016  -7.5817  -7.5817
     1.4529   1.4529   1.4786   1.4786   1.8246   1.8246   1.9146   1.9146
     2.7559   2.7559   3.0812   3.0812   3.2093   3.2093   3.2630   3.2630
     3.3830   3.3830   3.4299   3.4299   3.5665   3.5666   3.8552   3.8552
     4.0026   4.0026   4.3243   4.3243   4.6730   4.6730   4.8080   4.8080
     5.1181   5.1181   5.3927   5.3927   5.3973   5.3973   5.5508   5.5508
     5.7430   5.7430   5.8391   5.8391   6.2471   6.2471   6.3815   6.3815
     6.4419   6.4419   6.5241   6.5241   6.6035   6.6035   6.7012   6.7013
     6.9018   6.9018   6.9062   6.9062   7.0399   7.0399   7.5734   7.5734
     7.6250   7.6250   7.7063   7.7063   7.7336   7.7336   8.0966   8.0966
    10.3128  10.3128  11.2951  11.2951  11.3656  11.3656  11.7366  11.7366
    11.9478  11.9478  12.5394  12.5394  12.7832  12.7832  12.9385  12.9385
    12.9675  12.9675  13.2821  13.2821  13.5437  13.5437  14.1354  14.1354
    14.7325  14.7325  15.5990  15.5990  15.8600  15.8600  15.9256  15.9256
    16.7878  16.7878  17.6144  17.6145  18.1471  18.1471

          k = 0.0000 0.3154 0.0000 ( 62133 PWs)   bands (ev):

   -65.9257 -65.9255 -65.9247 -65.9247 -65.9245 -65.9244 -65.9236 -65.9234
   -30.3863 -30.3827 -30.3826 -30.3792 -30.3563 -30.3529 -30.3526 -30.3494
   -30.2651 -30.2642 -30.2612 -30.2597 -30.2590 -30.2575 -30.2574 -30.2553
   -30.1629 -30.1616 -30.1609 -30.1594 -30.1590 -30.1580 -30.1558 -30.1547
   -20.0813 -20.0810 -20.0810 -20.0807 -20.0786 -20.0783 -20.0783 -20.0780
   -20.0692 -20.0690 -20.0688 -20.0686 -20.0684 -20.0684 -20.0682 -20.0679
   -20.0673 -20.0672 -20.0667 -20.0665 -20.0665 -20.0664 -20.0656 -20.0655
   -20.0650 -20.0648 -20.0644 -20.0640 -20.0639 -20.0637 -20.0634 -20.0633
   -20.0476 -20.0475 -20.0473 -20.0472 -20.0472 -20.0472 -20.0469 -20.0469
   -20.0009 -20.0008 -20.0001 -20.0001 -19.9993 -19.9993 -19.9987 -19.9987
   -19.9950 -19.9950 -19.9945 -19.9945 -19.9936 -19.9936 -19.9929 -19.9929
    -9.7720  -9.6247  -9.3114  -9.3097  -9.1728  -9.1690  -8.9403  -8.9340
    -8.7683  -8.6464  -8.6336  -8.6330  -8.1665  -8.1194  -8.1173  -8.0940
    -7.6803  -7.6794  -7.6658  -7.6649  -7.5245  -7.5225  -7.5135  -7.5113
     1.3426   1.3428   1.4228   1.4258   1.4303   1.4342   1.7258   1.7634
     2.4165   2.5064   2.5452   2.5632   2.5703   2.7362   2.9017   2.9108
     3.0378   3.0503   3.6775   3.6927   3.7245   3.7397   4.1841   4.5056
     4.5173   4.7843   4.9511   4.9729   4.9774   4.9990   5.0858   5.0950
     5.1051   5.1141   5.4323   5.4396   5.6307   5.6314   5.7619   5.7693
     5.9089   5.9123   5.9570   5.9661   6.1122   6.1123   6.1241   6.2365
     6.2405   6.2886   6.3062   6.5747   6.7036   6.7101   6.9193   6.9236
     6.9674   7.0364   7.1249   7.1253   7.1450   7.1491   7.4935   7.4988
     7.5208   7.5263   7.8465   7.8542   7.8852   7.8864   7.8968   7.9033
     9.4720   9.4751  10.7609  10.7702  10.8087  10.8121  11.8907  11.9120
    12.0331  12.0410  12.4509  12.4653  12.4736  12.4846  13.0002  13.0252
    13.4871  13.5048  13.5689  13.5787  13.9308  13.9326  13.9470  13.9624
    14.8256  15.3471  15.3531  15.6064  15.6123  15.6803  15.9849  16.0518
    16.0574  16.9760  17.2833  17.6353  17.7193  17.7312

          k = 0.0000 0.3154 0.1666 ( 62193 PWs)   bands (ev):

   -65.9256 -65.9254 -65.9247 -65.9246 -65.9245 -65.9244 -65.9237 -65.9235
   -30.3861 -30.3830 -30.3824 -30.3795 -30.3561 -30.3531 -30.3525 -30.3496
   -30.2626 -30.2613 -30.2577 -30.2565 -30.2557 -30.2557 -30.2521 -30.2507
   -30.1697 -30.1684 -30.1655 -30.1641 -30.1606 -30.1591 -30.1567 -30.1552
   -20.0813 -20.0810 -20.0810 -20.0807 -20.0786 -20.0783 -20.0783 -20.0780
   -20.0690 -20.0688 -20.0687 -20.0685 -20.0685 -20.0682 -20.0682 -20.0678
   -20.0674 -20.0672 -20.0668 -20.0666 -20.0664 -20.0663 -20.0655 -20.0654
   -20.0651 -20.0649 -20.0645 -20.0640 -20.0640 -20.0637 -20.0634 -20.0634
   -20.0475 -20.0475 -20.0473 -20.0472 -20.0472 -20.0471 -20.0469 -20.0469
   -20.0005 -20.0005 -20.0000 -20.0000 -19.9989 -19.9989 -19.9988 -19.9988
   -19.9955 -19.9955 -19.9944 -19.9944 -19.9940 -19.9940 -19.9930 -19.9930
    -9.7219  -9.5708  -9.3270  -9.2381  -9.1848  -9.0845  -8.9003  -8.8929
    -8.7764  -8.6394  -8.6378  -8.6150  -8.1665  -8.1264  -8.1139  -8.0996
    -7.8008  -7.7885  -7.6667  -7.6580  -7.6499  -7.6426  -7.5324  -7.5212
     1.4313   1.4329   1.4364   1.4406   1.6725   1.6813   1.8826   1.9324
     2.4194   2.5433   2.5675   2.5963   2.6360   2.7279   2.9102   3.0136
     3.0304   3.1464   3.6954   3.7198   3.7297   3.7701   4.1752   4.4790
     4.5233   4.5276   4.6010   4.7888   4.8119   4.9235   5.0215   5.0296
     5.0829   5.1316   5.2317   5.3648   5.4682   5.5340   5.6390   5.6882
     5.7475   5.8541   5.8646   5.8903   6.1009   6.1811   6.1926   6.2347
     6.3068   6.4927   6.5074   6.6336   6.6946   6.9002   6.9378   6.9791
     7.0145   7.0324   7.1108   7.1222   7.1284   7.1576   7.2646   7.2715
     7.3453   7.3635   7.8352   7.8529   7.8616   7.8798   7.9017   7.9026
     9.8176   9.8309  10.7748  10.8134  10.9437  10.9778  11.9100  11.9879
    12.0427  12.1108  12.3642  12.3811  12.5144  12.5423  13.0374  13.0530
    13.3035  13.4587  13.4853  13.5647  13.7835  13.8374  13.9315  13.9437
    14.9650  15.3433  15.5508  15.6238  15.6660  15.7467  16.0305  16.1499
    16.3444  16.9390  17.3512  17.3584  17.7058  17.8341

          k = 0.0000 0.3154 0.3332 ( 62211 PWs)   bands (ev):

   -65.9254 -65.9252 -65.9249 -65.9247 -65.9244 -65.9242 -65.9239 -65.9237
   -30.3856 -30.3838 -30.3820 -30.3802 -30.3556 -30.3539 -30.3521 -30.3504
   -30.2615 -30.2595 -30.2587 -30.2567 -30.2388 -30.2374 -30.2338 -30.2324
   -30.1883 -30.1870 -30.1838 -30.1824 -30.1598 -30.1583 -30.1576 -30.1561
   -20.0812 -20.0811 -20.0810 -20.0808 -20.0786 -20.0784 -20.0783 -20.0781
   -20.0687 -20.0687 -20.0685 -20.0684 -20.0683 -20.0681 -20.0678 -20.0676
   -20.0675 -20.0674 -20.0670 -20.0668 -20.0662 -20.0661 -20.0654 -20.0654
   -20.0653 -20.0652 -20.0648 -20.0644 -20.0639 -20.0636 -20.0636 -20.0635
   -20.0475 -20.0474 -20.0473 -20.0473 -20.0471 -20.0471 -20.0469 -20.0469
   -19.9999 -19.9999 -19.9994 -19.9994 -19.9991 -19.9991 -19.9979 -19.9979
   -19.9966 -19.9966 -19.9951 -19.9951 -19.9941 -19.9941 -19.9933 -19.9933
    -9.6007  -9.4436  -9.3803  -9.2330  -9.0549  -8.8345  -8.8073  -8.7811
    -8.7508  -8.6519  -8.6024  -8.5374  -8.1986  -8.1854  -8.1178  -8.1040
    -8.0973  -8.0428  -7.9730  -7.9378  -7.6368  -7.6249  -7.5598  -7.5483
     1.4522   1.4577   1.4795   1.4854   2.2726   2.3628   2.3706   2.4455
     2.5700   2.5730   2.5774   2.8143   2.8712   2.8948   2.9333   3.0202
     3.2613   3.3633   3.6834   3.6980   3.7806   3.8281   3.9300   3.9411
     4.1571   4.3468   4.4374   4.4615   4.5317   4.6422   4.7078   4.8671
     4.8756   4.8896   5.0463   5.1114   5.2442   5.2719   5.2897   5.4330
     5.4461   5.6696   5.6866   5.8465   6.2067   6.2774   6.2962   6.3294
     6.4836   6.6530   6.6982   6.7502   6.7648   6.8643   6.8908   6.9113
     6.9743   7.0181   7.0803   7.1038   7.1199   7.1927   7.2224   7.2370
     7.3397   7.3813   7.7623   7.7800   7.8271   7.8428   7.8684   7.8940
    10.5346  10.5528  10.7887  10.8209  11.4029  11.4519  11.8839  11.9884
    12.0057  12.0759  12.2842  12.3366  12.6729  12.7372  12.7404  12.8120
    12.9708  13.2551  13.2552  13.4763  13.5601  13.6122  13.9299  13.9396
    15.1688  15.3141  15.7010  15.9350  15.9529  16.0560  16.1268  16.6595
    16.8019  16.8118  17.1314  17.5828  17.6972  17.8024

          k = 0.0000 0.3154-0.4997 ( 62270 PWs)   bands (ev):

   -65.9252 -65.9252 -65.9250 -65.9250 -65.9242 -65.9242 -65.9239 -65.9239
   -30.3847 -30.3847 -30.3812 -30.3812 -30.3548 -30.3548 -30.3513 -30.3513
   -30.2601 -30.2601 -30.2581 -30.2581 -30.2136 -30.2136 -30.2123 -30.2123
   -30.2088 -30.2088 -30.2074 -30.2074 -30.1587 -30.1587 -30.1572 -30.1572
   -20.0812 -20.0812 -20.0809 -20.0809 -20.0785 -20.0785 -20.0782 -20.0782
   -20.0686 -20.0686 -20.0685 -20.0685 -20.0679 -20.0679 -20.0677 -20.0677
   -20.0674 -20.0674 -20.0672 -20.0672 -20.0658 -20.0658 -20.0657 -20.0657
   -20.0652 -20.0652 -20.0649 -20.0649 -20.0638 -20.0638 -20.0636 -20.0636
   -20.0474 -20.0474 -20.0473 -20.0473 -20.0470 -20.0470 -20.0470 -20.0470
   -19.9995 -19.9995 -19.9995 -19.9995 -19.9980 -19.9980 -19.9980 -19.9980
   -19.9965 -19.9965 -19.9965 -19.9965 -19.9937 -19.9937 -19.9937 -19.9937
    -9.4730  -9.4730  -9.3183  -9.3182  -8.8854  -8.8854  -8.6823  -8.6823
    -8.4867  -8.4867  -8.4728  -8.4727  -8.4229  -8.4229  -8.3220  -8.3220
    -8.1167  -8.1167  -8.0725  -8.0725  -7.5978  -7.5978  -7.5861  -7.5861
     1.4716   1.4716   1.4780   1.4780   2.4221   2.4221   2.5623   2.5623
     2.9530   2.9530   3.1322   3.1322   3.1836   3.1836   3.3516   3.3516
     3.4187   3.4187   3.4329   3.4329   3.5190   3.5190   3.7040   3.7041
     4.1302   4.1302   4.1524   4.1524   4.1842   4.1842   4.4068   4.4068
     4.8591   4.8591   4.9702   4.9702   5.1674   5.1674   5.3665   5.3665
     5.5216   5.5216   5.7670   5.7670   6.3685   6.3685   6.4394   6.4394
     6.5377   6.5377   6.5794   6.5794   6.6196   6.6196   6.8157   6.8157
     7.0869   7.0869   7.0955   7.0955   7.1395   7.1395   7.5674   7.5674
     7.6056   7.6056   7.6085   7.6085   7.6572   7.6572   7.8781   7.8781
    10.7926  10.7926  11.3100  11.3100  11.3596  11.3596  11.8155  11.8155
    12.1281  12.1281  12.2611  12.2611  12.6623  12.6623  12.7466  12.7466
    12.9578  12.9578  13.0909  13.0909  13.5595  13.5595  13.9331  13.9331
    15.2609  15.2609  15.8316  15.8316  16.2959  16.2959  16.5388  16.5388
    16.9498  16.9498  17.2447  17.2448  17.9861  17.9861

          k = 0.0000-0.4730 0.0000 ( 62124 PWs)   bands (ev):

   -65.9256 -65.9256 -65.9246 -65.9246 -65.9246 -65.9245 -65.9235 -65.9235
   -30.3713 -30.3712 -30.3678 -30.3678 -30.3676 -30.3676 -30.3643 -30.3643
   -30.2645 -30.2645 -30.2606 -30.2606 -30.2583 -30.2583 -30.2564 -30.2564
   -30.1622 -30.1622 -30.1602 -30.1602 -30.1584 -30.1584 -30.1553 -30.1553
   -20.0800 -20.0799 -20.0797 -20.0797 -20.0796 -20.0796 -20.0794 -20.0794
   -20.0690 -20.0690 -20.0688 -20.0688 -20.0683 -20.0683 -20.0682 -20.0682
   -20.0672 -20.0672 -20.0667 -20.0667 -20.0664 -20.0664 -20.0655 -20.0655
   -20.0649 -20.0649 -20.0641 -20.0641 -20.0639 -20.0638 -20.0634 -20.0634
   -20.0476 -20.0475 -20.0472 -20.0472 -20.0472 -20.0472 -20.0469 -20.0469
   -20.0009 -20.0008 -20.0001 -20.0001 -19.9993 -19.9993 -19.9987 -19.9987
   -19.9950 -19.9950 -19.9945 -19.9945 -19.9936 -19.9936 -19.9929 -19.9929
    -9.6887  -9.6887  -9.2257  -9.2257  -9.2227  -9.2227  -8.9372  -8.9372
    -8.4698  -8.4698  -8.4083  -8.4082  -8.4077  -8.4077  -8.4068  -8.4068
    -7.6755  -7.6755  -7.6699  -7.6699  -7.5190  -7.5190  -7.5170  -7.5170
     1.3426   1.3426   1.4251   1.4251   1.4332   1.4332   1.7547   1.7547
     2.5255   2.5255   3.1881   3.1881   3.2435   3.2435   3.3201   3.3201
     3.3301   3.3301   3.3325   3.3325   3.5264   3.5264   3.5433   3.5433
     3.7210   3.7210   4.9633   4.9634   4.9827   4.9827   5.2498   5.2498
     5.2731   5.2731   5.3525   5.3526   5.3614   5.3615   5.8207   5.8207
     5.8284   5.8284   6.0678   6.0678   6.0851   6.0852   6.2468   6.2468
     6.2651   6.2651   6.3334   6.3334   6.7986   6.7986   6.8043   6.8043
     7.0034   7.0034   7.4729   7.4730   7.4760   7.4760   7.4985   7.4985
     7.5004   7.5005   7.5944   7.5945   7.5988   7.5988   7.8771   7.8771
     9.4737   9.4738  11.3423  11.3423  11.3593  11.3594  11.4296  11.4296
    11.4498  11.4499  12.4659  12.4659  12.4787  12.4787  13.0156  13.0156
    13.6699  13.6699  13.6965  13.6965  13.7232  13.7232  13.7340  13.7340
    15.3883  15.3883  15.6090  15.6090  15.8051  15.8051  15.8080  15.8080
    16.5867  16.5867  17.9233  17.9233  18.1752  18.1752

          k = 0.0000-0.4730 0.1666 ( 62190 PWs)   bands (ev):

   -65.9255 -65.9255 -65.9246 -65.9246 -65.9245 -65.9245 -65.9236 -65.9236
   -30.3711 -30.3711 -30.3681 -30.3681 -30.3675 -30.3675 -30.3646 -30.3646
   -30.2619 -30.2619 -30.2567 -30.2567 -30.2562 -30.2562 -30.2514 -30.2514
   -30.1691 -30.1691 -30.1648 -30.1648 -30.1599 -30.1599 -30.1559 -30.1559
   -20.0800 -20.0799 -20.0797 -20.0797 -20.0797 -20.0797 -20.0794 -20.0794
   -20.0689 -20.0688 -20.0686 -20.0686 -20.0683 -20.0683 -20.0681 -20.0681
   -20.0673 -20.0673 -20.0667 -20.0667 -20.0663 -20.0663 -20.0655 -20.0655
   -20.0650 -20.0650 -20.0643 -20.0643 -20.0638 -20.0638 -20.0635 -20.0635
   -20.0475 -20.0475 -20.0473 -20.0472 -20.0472 -20.0472 -20.0469 -20.0469
   -20.0005 -20.0005 -20.0000 -20.0000 -19.9989 -19.9989 -19.9988 -19.9988
   -19.9955 -19.9955 -19.9944 -19.9944 -19.9940 -19.9940 -19.9930 -19.9930
    -9.6360  -9.6360  -9.2395  -9.2395  -9.1416  -9.1416  -8.8964  -8.8964
    -8.4755  -8.4755  -8.4137  -8.4137  -8.4063  -8.4063  -8.3993  -8.3993
    -7.7948  -7.7948  -7.6615  -7.6615  -7.6473  -7.6473  -7.5269  -7.5269
     1.4324   1.4324   1.4395   1.4396   1.6793   1.6793   1.9219   1.9219
     2.6158   2.6158   3.2014   3.2014   3.2458   3.2458   3.3184   3.3184
     3.3327   3.3327   3.3711   3.3711   3.5364   3.5364   3.5820   3.5820
     3.7513   3.7513   4.5556   4.5556   4.9965   4.9965   5.0397   5.0397
     5.1754   5.1754   5.2444   5.2445   5.3720   5.3720   5.5598   5.5598
     5.7987   5.7987   5.8677   5.8677   6.1829   6.1829   6.2175   6.2175
     6.4438   6.4438   6.5037   6.5037   6.7876   6.7876   6.9699   6.9699
     7.0627   7.0627   7.2595   7.2595   7.3023   7.3023   7.4869   7.4869
     7.5085   7.5086   7.5489   7.5489   7.5708   7.5708   7.8922   7.8922
     9.8259   9.8259  11.3635  11.3635  11.4391  11.4391  11.4734  11.4735
    11.5562  11.5562  12.3737  12.3737  12.5293  12.5293  13.0523  13.0523
    13.4964  13.4964  13.5882  13.5882  13.7096  13.7096  13.7205  13.7205
    15.4813  15.4813  15.7051  15.7051  15.7897  15.7897  16.0702  16.0702
    16.6498  16.6498  17.8680  17.8681  17.9685  17.9685

          k = 0.0000-0.4730 0.3332 ( 62224 PWs)   bands (ev):

   -65.9253 -65.9253 -65.9248 -65.9248 -65.9243 -65.9243 -65.9238 -65.9238
   -30.3706 -30.3706 -30.3688 -30.3688 -30.3670 -30.3670 -30.3653 -30.3653
   -30.2605 -30.2605 -30.2577 -30.2577 -30.2381 -30.2381 -30.2331 -30.2331
   -30.1877 -30.1877 -30.1831 -30.1831 -30.1591 -30.1591 -30.1568 -30.1568
   -20.0799 -20.0799 -20.0798 -20.0797 -20.0796 -20.0796 -20.0795 -20.0795
   -20.0687 -20.0686 -20.0684 -20.0684 -20.0683 -20.0682 -20.0677 -20.0677
   -20.0675 -20.0675 -20.0669 -20.0669 -20.0661 -20.0661 -20.0653 -20.0653
   -20.0653 -20.0653 -20.0646 -20.0646 -20.0638 -20.0638 -20.0636 -20.0636
   -20.0474 -20.0474 -20.0473 -20.0473 -20.0471 -20.0471 -20.0469 -20.0469
   -19.9999 -19.9999 -19.9994 -19.9994 -19.9991 -19.9991 -19.9979 -19.9979
   -19.9966 -19.9966 -19.9951 -19.9951 -19.9941 -19.9941 -19.9933 -19.9933
    -9.5098  -9.5098  -9.2908  -9.2908  -8.9113  -8.9113  -8.7606  -8.7606
    -8.5065  -8.5064  -8.4354  -8.4353  -8.3960  -8.3959  -8.3688  -8.3688
    -8.0862  -8.0862  -7.9628  -7.9628  -7.6310  -7.6309  -7.5541  -7.5541
     1.4563   1.4563   1.4839   1.4839   2.3515   2.3515   2.5517   2.5517
     2.8768   2.8768   3.2178   3.2179   3.2578   3.2578   3.3084   3.3084
     3.3240   3.3240   3.4538   3.4538   3.5276   3.5276   3.7380   3.7380
     3.8236   3.8236   3.9306   3.9306   4.5372   4.5372   4.7068   4.7069
     4.8527   4.8527   4.9311   4.9311   5.2932   5.2932   5.3102   5.3102
     5.4324   5.4324   5.7259   5.7259   6.2795   6.2795   6.3287   6.3287
     6.5864   6.5865   6.7397   6.7397   6.7907   6.7907   6.9342   6.9342
     7.0883   7.0883   7.2330   7.2330   7.2388   7.2388   7.4698   7.4698
     7.5065   7.5065   7.5312   7.5312   7.5440   7.5440   7.8488   7.8489
    10.5512  10.5512  11.3763  11.3763  11.4228  11.4228  11.8521  11.8521
    11.9030  11.9030  11.9996  11.9997  12.6956  12.6957  12.8617  12.8617
    13.0311  13.0311  13.3196  13.3196  13.7012  13.7012  13.7166  13.7166
    15.5373  15.5373  15.7272  15.7272  16.2598  16.2598  16.7701  16.7701
    16.8785  16.8785  17.3579  17.3580  17.9740  17.9740

          k = 0.0000-0.4730-0.4997 ( 62200 PWs)   bands (ev):

   -65.9251 -65.9251 -65.9251 -65.9251 -65.9241 -65.9241 -65.9240 -65.9240
   -30.3698 -30.3698 -30.3698 -30.3698 -30.3662 -30.3662 -30.3662 -30.3662
   -30.2591 -30.2591 -30.2591 -30.2591 -30.2130 -30.2130 -30.2129 -30.2129
   -30.2081 -30.2081 -30.2081 -30.2081 -30.1580 -30.1580 -30.1579 -30.1579
   -20.0799 -20.0799 -20.0798 -20.0798 -20.0796 -20.0796 -20.0796 -20.0796
   -20.0685 -20.0685 -20.0685 -20.0685 -20.0678 -20.0678 -20.0678 -20.0678
   -20.0673 -20.0673 -20.0673 -20.0673 -20.0657 -20.0657 -20.0657 -20.0657
   -20.0650 -20.0650 -20.0650 -20.0650 -20.0637 -20.0637 -20.0637 -20.0637
   -20.0474 -20.0474 -20.0473 -20.0473 -20.0470 -20.0470 -20.0470 -20.0470
   -19.9995 -19.9995 -19.9995 -19.9995 -19.9980 -19.9980 -19.9980 -19.9980
   -19.9965 -19.9965 -19.9965 -19.9965 -19.9937 -19.9937 -19.9937 -19.9937
    -9.3811  -9.3811  -9.3811  -9.3811  -8.6361  -8.6361  -8.6361  -8.6361
    -8.5395  -8.5395  -8.5395  -8.5395  -8.3406  -8.3405  -8.3405  -8.3405
    -8.2594  -8.2594  -8.2594  -8.2594  -7.5921  -7.5921  -7.5921  -7.5921
     1.4763   1.4764   1.4764   1.4764   3.0889   3.0889   3.0889   3.0889
     3.2091   3.2091   3.2091   3.2091   3.2935   3.2935   3.2935   3.2935
     3.3616   3.3617   3.3617   3.3617   3.5413   3.5413   3.5414   3.5414
     3.6862   3.6862   3.6862   3.6863   4.3595   4.3595   4.3595   4.3595
     4.4721   4.4721   4.4721   4.4721   5.2838   5.2838   5.2838   5.2838
     5.5841   5.5841   5.5841   5.5841   6.4282   6.4283   6.4283   6.4283
     6.5893   6.5893   6.5893   6.5893   6.7055   6.7055   6.7055   6.7055
     7.3324   7.3324   7.3324   7.3324   7.4143   7.4143   7.4143   7.4143
     7.5104   7.5104   7.5104   7.5104   7.6536   7.6536   7.6536   7.6536
    11.2952  11.2952  11.2952  11.2952  11.4393  11.4393  11.4393  11.4393
    12.3882  12.3882  12.3882  12.3882  12.4244  12.4244  12.4244  12.4244
    12.9918  12.9918  12.9918  12.9918  13.7053  13.7053  13.7053  13.7053
    15.6317  15.6317  15.6318  15.6318  16.8551  16.8551  16.8551  16.8551
    17.4256  17.4256  17.4256  17.4257  17.5663  17.5663

          k = 0.1667 0.0000 0.0000 ( 62184 PWs)   bands (ev):

   -65.9257 -65.9253 -65.9248 -65.9247 -65.9244 -65.9243 -65.9238 -65.9234
   -30.4011 -30.3978 -30.3975 -30.3943 -30.3411 -30.3379 -30.3378 -30.3347
   -30.2651 -30.2620 -30.2600 -30.2571 -30.2564 -30.2524 -30.2513 -30.2476
   -30.1685 -30.1655 -30.1642 -30.1632 -30.1620 -30.1606 -30.1586 -30.1567
   -20.0826 -20.0823 -20.0823 -20.0821 -20.0773 -20.0770 -20.0769 -20.0767
   -20.0694 -20.0692 -20.0686 -20.0685 -20.0685 -20.0684 -20.0680 -20.0675
   -20.0674 -20.0672 -20.0667 -20.0666 -20.0664 -20.0662 -20.0655 -20.0654
   -20.0653 -20.0648 -20.0646 -20.0642 -20.0636 -20.0636 -20.0635 -20.0632
   -20.0476 -20.0475 -20.0473 -20.0472 -20.0472 -20.0471 -20.0469 -20.0468
   -20.0007 -20.0007 -19.9998 -19.9998 -19.9994 -19.9994 -19.9983 -19.9983
   -19.9949 -19.9949 -19.9949 -19.9949 -19.9937 -19.9937 -19.9933 -19.9933
    -9.8329  -9.5216  -9.4603  -9.3868  -9.1534  -9.0593  -9.0447  -8.9066
    -8.8889  -8.8145  -8.7941  -8.7526  -7.8410  -7.7948  -7.7940  -7.7730
    -7.7598  -7.7203  -7.6766  -7.6532  -7.6519  -7.6371  -7.5399  -7.5174
     1.4035   1.4046   1.4280   1.4326   1.5183   1.5587   1.6752   1.6789
     1.6897   1.7944   1.9424   2.0849   2.5730   2.6305   2.6569   2.7069
     2.7676   2.8623   4.1385   4.2163   4.4261   4.4542   4.4736   4.5826
     4.7160   4.8408   4.8712   5.0103   5.0237   5.0761   5.1063   5.3928
     5.4353   5.4516   5.5657   5.5720   5.6064   5.6420   5.6752   5.7123
     5.7960   5.8309   5.8469   5.9903   6.0244   6.1583   6.1709   6.2149
     6.3446   6.4874   6.5431   6.6054   6.7192   6.7426   6.8092   6.8734
     6.8759   6.9272   7.0223   7.0624   7.0650   7.1367   7.2750   7.2768
     7.2951   7.3531   7.8856   7.8890   8.0674   8.1291   8.1368   8.1867
     9.8002   9.8377  10.1181  10.1499  10.3703  10.4277  12.3375  12.3519
    12.4075  12.4375  12.4966  12.5045  12.6193  12.7253  12.9917  13.0350
    13.2301  13.3178  13.4171  13.5184  13.9566  14.1023  14.2176  14.2635
    14.2697  14.4879  14.6442  14.9683  15.5498  15.6342  15.6604  16.1727
    16.5135  16.8362  17.0780  17.3349  17.4810  17.4917

          k = 0.1667 0.0000 0.1666 ( 62200 PWs)   bands (ev):

   -65.9257 -65.9252 -65.9248 -65.9248 -65.9244 -65.9243 -65.9239 -65.9235
   -30.4009 -30.3978 -30.3976 -30.3946 -30.3410 -30.3380 -30.3378 -30.3349
   -30.2587 -30.2572 -30.2543 -30.2537 -30.2520 -30.2509 -30.2503 -30.2479
   -30.1701 -30.1684 -30.1676 -30.1664 -30.1656 -30.1646 -30.1628 -30.1609
   -20.0826 -20.0823 -20.0823 -20.0821 -20.0773 -20.0770 -20.0770 -20.0767
   -20.0692 -20.0690 -20.0687 -20.0685 -20.0684 -20.0682 -20.0680 -20.0675
   -20.0675 -20.0672 -20.0668 -20.0666 -20.0664 -20.0663 -20.0655 -20.0655
   -20.0653 -20.0650 -20.0647 -20.0642 -20.0638 -20.0636 -20.0635 -20.0633
   -20.0475 -20.0474 -20.0473 -20.0472 -20.0472 -20.0471 -20.0469 -20.0469
   -20.0004 -20.0004 -19.9997 -19.9997 -19.9990 -19.9990 -19.9984 -19.9984
   -19.9954 -19.9953 -19.9948 -19.9948 -19.9941 -19.9941 -19.9934 -19.9934
    -9.7851  -9.4624  -9.4035  -9.4035  -9.0682  -9.0641  -9.0599  -8.8656
    -8.8525  -8.8057  -8.7595  -8.7579  -7.8420  -7.7983  -7.7901  -7.7875
    -7.7830  -7.7584  -7.7561  -7.7238  -7.6874  -7.6728  -7.6445  -7.6240
     1.4996   1.5509   1.5513   1.6008   1.6012   1.6671   1.6894   1.6966
     1.7893   1.7974   2.0236   2.1630   2.6614   2.7161   2.7188   2.7534
     2.8395   2.8763   4.1428   4.1476   4.4036   4.4099   4.5468   4.5477
     4.6434   4.6437   4.7456   4.7509   4.8122   4.8786   5.0936   5.3268
     5.3527   5.4027   5.4379   5.5235   5.5341   5.6875   5.6957   5.7341
     5.7377   5.7675   5.8225   5.8425   5.8488   6.0318   6.3686   6.4983
     6.5219   6.5565   6.6108   6.6781   6.7256   6.7310   6.7345   6.7815
     6.8312   6.9106   6.9287   6.9307   6.9700   7.0401   7.0432   7.1630
     7.3915   7.4538   7.8884   7.8888   8.0702   8.1207   8.1309   8.1444
    10.0179  10.0924  10.3685  10.3770  10.3926  10.4874  12.3749  12.3943
    12.4019  12.4177  12.4435  12.4742  12.7074  12.7165  13.0192  13.0562
    13.1472  13.2381  13.3087  13.4767  14.0178  14.0752  14.1213  14.1646
    14.2571  14.6036  14.6357  15.0853  15.5168  15.7110  15.7268  16.4692
    16.4782  17.0011  17.0077  17.2186  17.5296  17.5766

          k = 0.1667 0.0000 0.3332 ( 62202 PWs)   bands (ev):

   -65.9255 -65.9251 -65.9250 -65.9246 -65.9245 -65.9242 -65.9241 -65.9237
   -30.4004 -30.3985 -30.3971 -30.3954 -30.3405 -30.3388 -30.3373 -30.3356
   -30.2556 -30.2529 -30.2519 -30.2490 -30.2389 -30.2363 -30.2347 -30.2320
   -30.1887 -30.1860 -30.1848 -30.1821 -30.1673 -30.1650 -30.1643 -30.1620
   -20.0825 -20.0824 -20.0823 -20.0821 -20.0772 -20.0771 -20.0770 -20.0768
   -20.0689 -20.0687 -20.0686 -20.0685 -20.0683 -20.0680 -20.0677 -20.0677
   -20.0674 -20.0672 -20.0669 -20.0665 -20.0664 -20.0661 -20.0657 -20.0654
   -20.0653 -20.0650 -20.0650 -20.0642 -20.0641 -20.0636 -20.0636 -20.0635
   -20.0475 -20.0474 -20.0473 -20.0472 -20.0471 -20.0471 -20.0470 -20.0469
   -19.9996 -19.9996 -19.9992 -19.9992 -19.9987 -19.9987 -19.9980 -19.9980
   -19.9965 -19.9965 -19.9952 -19.9952 -19.9945 -19.9945 -19.9937 -19.9937
    -9.6691  -9.4550  -9.3229  -9.2737  -9.1064  -9.0976  -8.8107  -8.8104
    -8.7718  -8.7206  -8.7004  -8.6298  -8.0939  -8.0936  -8.0171  -7.9930
    -7.8100  -7.7897  -7.7603  -7.7549  -7.7392  -7.7331  -7.6846  -7.6671
     1.5122   1.5365   1.6145   1.6496   1.7145   1.7368   1.7897   1.8073
     2.3764   2.4082   2.5509   2.6344   2.7406   2.8341   2.9306   2.9620
     3.0409   3.1194   3.8716   3.9231   4.0141   4.0196   4.2199   4.3753
     4.3911   4.5721   4.5788   4.6399   4.6779   4.8288   4.8558   4.9964
     5.0657   5.1143   5.1664   5.2939   5.3633   5.4184   5.5872   5.7123
     5.7389   5.7854   5.8336   5.8543   5.8644   6.0444   6.2335   6.2979
     6.4722   6.4929   6.5237   6.6174   6.6320   6.7053   6.7081   6.7503
     6.8430   6.9274   6.9462   6.9587   7.1939   7.2174   7.2582   7.3172
     7.3908   7.4296   7.8409   7.8566   7.9711   8.0099   8.1247   8.1338
    10.3653  10.3711  10.6544  10.7259  10.9924  11.1192  12.0184  12.0662
    12.2428  12.5336  12.5655  12.6168  12.6470  12.7158  12.8722  12.9636
    12.9840  13.1534  13.1986  13.4040  13.7737  13.7918  14.0712  14.1034
    14.4170  14.6075  14.9070  15.4020  15.4104  15.9539  16.1134  16.3824
    16.4119  17.3007  17.4347  17.5731  17.6489  17.8393

          k = 0.1667 0.0000-0.4997 ( 62258 PWs)   bands (ev):

   -65.9252 -65.9252 -65.9248 -65.9248 -65.9243 -65.9243 -65.9239 -65.9239
   -30.3995 -30.3995 -30.3963 -30.3963 -30.3397 -30.3397 -30.3366 -30.3366
   -30.2542 -30.2542 -30.2504 -30.2503 -30.2139 -30.2139 -30.2112 -30.2112
   -30.2098 -30.2098 -30.2070 -30.2070 -30.1662 -30.1662 -30.1632 -30.1632
   -20.0825 -20.0825 -20.0822 -20.0822 -20.0772 -20.0772 -20.0769 -20.0769
   -20.0687 -20.0687 -20.0684 -20.0684 -20.0681 -20.0681 -20.0676 -20.0676
   -20.0673 -20.0673 -20.0668 -20.0668 -20.0660 -20.0660 -20.0658 -20.0658
   -20.0652 -20.0652 -20.0647 -20.0647 -20.0639 -20.0639 -20.0636 -20.0636
   -20.0474 -20.0474 -20.0473 -20.0473 -20.0470 -20.0470 -20.0470 -20.0470
   -19.9991 -19.9991 -19.9991 -19.9991 -19.9979 -19.9979 -19.9979 -19.9979
   -19.9966 -19.9966 -19.9966 -19.9966 -19.9941 -19.9941 -19.9941 -19.9941
    -9.5455  -9.5455  -9.1909  -9.1909  -9.1602  -9.1602  -8.7904  -8.7904
    -8.4653  -8.4653  -8.4589  -8.4588  -8.4042  -8.4042  -8.3498  -8.3497
    -7.8006  -7.8006  -7.7458  -7.7458  -7.7219  -7.7219  -7.7033  -7.7033
     1.5223   1.5223   1.6322   1.6322   1.7359   1.7359   1.8168   1.8168
     2.7685   2.7685   3.0775   3.0775   3.1637   3.1637   3.2880   3.2881
     3.3978   3.3978   3.5001   3.5001   3.6284   3.6284   3.8777   3.8777
     3.9484   3.9484   4.4892   4.4892   4.5899   4.5900   4.9463   4.9463
     5.1088   5.1088   5.1350   5.1350   5.3094   5.3094   5.6533   5.6533
     5.8240   5.8240   5.8699   5.8699   5.9795   5.9795   6.0108   6.0108
     6.3975   6.3975   6.4769   6.4769   6.7020   6.7020   6.7689   6.7689
     6.8888   6.8888   7.0332   7.0332   7.0986   7.0986   7.6077   7.6077
     7.6571   7.6571   7.7471   7.7471   7.7694   7.7694   8.1335   8.1335
    10.3805  10.3805  11.3651  11.3651  11.4451  11.4451  11.6949  11.6949
    11.9027  11.9028  12.7348  12.7348  12.7516  12.7516  12.8288  12.8288
    13.0246  13.0246  13.3571  13.3571  13.4690  13.4690  14.0860  14.0860
    14.5465  14.5465  15.2105  15.2105  15.8550  15.8551  16.2098  16.2098
    16.8534  16.8534  17.8185  17.8186  17.8764  17.8764

          k = 0.1667 0.1577 0.0000 ( 62180 PWs)   bands (ev):

   -65.9257 -65.9253 -65.9248 -65.9247 -65.9244 -65.9243 -65.9238 -65.9234
   -30.3971 -30.3938 -30.3935 -30.3903 -30.3451 -30.3419 -30.3418 -30.3387
   -30.2649 -30.2622 -30.2598 -30.2573 -30.2562 -30.2527 -30.2511 -30.2479
   -30.1683 -30.1657 -30.1640 -30.1631 -30.1621 -30.1608 -30.1585 -30.1569
   -20.0822 -20.0820 -20.0819 -20.0817 -20.0776 -20.0774 -20.0773 -20.0770
   -20.0693 -20.0691 -20.0686 -20.0685 -20.0685 -20.0684 -20.0680 -20.0676
   -20.0674 -20.0672 -20.0667 -20.0666 -20.0664 -20.0663 -20.0655 -20.0654
   -20.0653 -20.0648 -20.0645 -20.0642 -20.0637 -20.0637 -20.0635 -20.0632
   -20.0476 -20.0475 -20.0473 -20.0472 -20.0472 -20.0472 -20.0469 -20.0469
   -20.0007 -20.0007 -19.9998 -19.9998 -19.9994 -19.9994 -19.9983 -19.9983
   -19.9949 -19.9949 -19.9949 -19.9949 -19.9937 -19.9937 -19.9933 -19.9933
    -9.8007  -9.5337  -9.4205  -9.3417  -9.1616  -9.0529  -8.9854  -8.9042
    -8.8898  -8.7729  -8.7589  -8.7226  -7.9274  -7.8783  -7.8690  -7.8298
    -7.8000  -7.7785  -7.6753  -7.6538  -7.6530  -7.6360  -7.5385  -7.5191
     1.4193   1.4224   1.4282   1.4326   1.6405   1.6815   1.6921   1.8737
     1.9064   1.9417   1.9471   2.1796   2.5795   2.6509   2.7029   2.7810
     2.8373   2.9300   4.0364   4.0954   4.1531   4.2075   4.4910   4.5800
     4.7309   4.7633   4.9008   4.9218   4.9906   5.0199   5.0391   5.2876
     5.3421   5.3541   5.4083   5.5583   5.6350   5.6582   5.6968   5.7218
     5.7836   5.8351   5.8595   5.8939   5.9433   6.1822   6.1826   6.2180
     6.2914   6.4811   6.5198   6.6310   6.7555   6.8092   6.8377   6.8596
     6.9010   6.9379   7.0040   7.0244   7.0579   7.0834   7.2752   7.2761
     7.3092   7.3520   7.8875   7.8883   8.0294   8.0573   8.0806   8.1048
     9.8073   9.8366  10.3111  10.3175  10.5371  10.5668  12.2376  12.3576
    12.3618  12.3959  12.4598  12.4608  12.4837  12.6086  13.0094  13.0335
    13.2518  13.3460  13.4274  13.5194  13.9963  14.0273  14.1658  14.1772
    14.3943  14.7663  14.9233  15.1321  15.6339  15.6594  15.9481  16.1405
    16.4763  16.7182  16.9602  17.4435  17.5454  17.5864

          k = 0.1667 0.1577 0.1666 ( 62193 PWs)   bands (ev):

   -65.9256 -65.9253 -65.9248 -65.9247 -65.9244 -65.9244 -65.9239 -65.9235
   -30.3969 -30.3938 -30.3936 -30.3906 -30.3450 -30.3420 -30.3418 -30.3390
   -30.2585 -30.2571 -30.2544 -30.2536 -30.2519 -30.2510 -30.2505 -30.2482
   -30.1699 -30.1683 -30.1677 -30.1662 -30.1657 -30.1646 -30.1629 -30.1611
   -20.0822 -20.0820 -20.0819 -20.0817 -20.0776 -20.0774 -20.0773 -20.0771
   -20.0692 -20.0690 -20.0686 -20.0684 -20.0684 -20.0682 -20.0680 -20.0675
   -20.0675 -20.0672 -20.0668 -20.0665 -20.0664 -20.0663 -20.0655 -20.0654
   -20.0653 -20.0650 -20.0646 -20.0642 -20.0638 -20.0637 -20.0635 -20.0633
   -20.0475 -20.0474 -20.0473 -20.0472 -20.0472 -20.0471 -20.0469 -20.0469
   -20.0004 -20.0004 -19.9997 -19.9997 -19.9990 -19.9990 -19.9984 -19.9984
   -19.9954 -19.9953 -19.9948 -19.9948 -19.9941 -19.9941 -19.9934 -19.9934
    -9.7514  -9.4747  -9.3592  -9.3587  -9.0725  -9.0684  -8.9943  -8.8647
    -8.8533  -8.7642  -8.7289  -8.7276  -7.9277  -7.8781  -7.8758  -7.8367
    -7.7945  -7.7902  -7.7700  -7.7686  -7.6869  -7.6689  -7.6437  -7.6256
     1.5991   1.6005   1.6404   1.6436   1.6890   1.6902   1.7025   1.8723
     1.9380   1.9441   2.0230   2.2355   2.6702   2.7476   2.7899   2.7931
     2.9122   2.9399   4.0463   4.0681   4.1822   4.1907   4.5378   4.5466
     4.6417   4.6477   4.7373   4.7433   4.7748   4.8268   4.8952   5.2563
     5.2906   5.2984   5.3241   5.4355   5.4524   5.6362   5.6521   5.6768
     5.7934   5.8073   5.8109   5.8561   5.8586   5.8887   6.3853   6.4374
     6.4491   6.5514   6.6077   6.6992   6.7395   6.7849   6.8251   6.8326
     6.8572   6.8809   6.9406   6.9518   7.0079   7.0207   7.0387   7.1694
     7.3958   7.4516   7.8886   7.8888   8.0185   8.0597   8.0671   8.0678
    10.0376  10.0919  10.5202  10.5386  10.5485  10.6172  12.3018  12.3426
    12.4007  12.4095  12.4098  12.4145  12.5739  12.5791  13.0401  13.0498
    13.1800  13.2543  13.3118  13.4799  13.9880  13.9994  14.0216  14.0814
    14.5016  14.9043  14.9172  15.2328  15.7119  15.7251  15.9169  16.4354
    16.4432  16.8404  17.1038  17.1099  17.6113  17.6607

          k = 0.1667 0.1577 0.3332 ( 62209 PWs)   bands (ev):

   -65.9254 -65.9251 -65.9249 -65.9246 -65.9245 -65.9242 -65.9240 -65.9237
   -30.3964 -30.3945 -30.3932 -30.3914 -30.3445 -30.3428 -30.3414 -30.3397
   -30.2554 -30.2527 -30.2522 -30.2493 -30.2388 -30.2365 -30.2346 -30.2322
   -30.1885 -30.1862 -30.1846 -30.1822 -30.1671 -30.1648 -30.1645 -30.1623
   -20.0822 -20.0820 -20.0819 -20.0818 -20.0776 -20.0774 -20.0773 -20.0772
   -20.0689 -20.0686 -20.0686 -20.0684 -20.0683 -20.0680 -20.0677 -20.0677
   -20.0674 -20.0673 -20.0669 -20.0665 -20.0663 -20.0661 -20.0656 -20.0654
   -20.0653 -20.0651 -20.0649 -20.0642 -20.0641 -20.0637 -20.0636 -20.0636
   -20.0475 -20.0474 -20.0473 -20.0472 -20.0471 -20.0471 -20.0470 -20.0469
   -19.9996 -19.9996 -19.9992 -19.9992 -19.9987 -19.9987 -19.9980 -19.9980
   -19.9965 -19.9965 -19.9952 -19.9952 -19.9945 -19.9945 -19.9937 -19.9937
    -9.6315  -9.4114  -9.3349  -9.2161  -9.1156  -9.0244  -8.8196  -8.7869
    -8.7409  -8.7219  -8.6853  -8.6123  -8.1015  -8.0921  -8.0406  -7.9911
    -7.8932  -7.8785  -7.8562  -7.8259  -7.7605  -7.7408  -7.6850  -7.6672
     1.6492   1.6641   1.7139   1.7359   1.8242   1.8311   1.9137   1.9446
     2.3749   2.4175   2.5539   2.6475   2.8134   2.8967   2.9505   3.0372
     3.0378   3.1749   3.8730   3.9219   3.9700   4.0103   4.1815   4.2401
     4.3048   4.4332   4.5843   4.6571   4.7027   4.7722   4.8045   4.8487
     4.9416   5.0094   5.0532   5.1986   5.2790   5.3262   5.3702   5.6413
     5.6862   5.7012   5.7919   5.8455   5.8599   5.8786   6.2439   6.2970
     6.4273   6.5587   6.5912   6.6727   6.7348   6.7373   6.7685   6.8319
     6.8967   6.9326   6.9598   6.9983   7.1917   7.2094   7.2547   7.3201
     7.3826   7.4230   7.8419   7.8537   7.9247   7.9503   8.0598   8.0644
    10.4963  10.5311  10.6813  10.7368  11.1044  11.2035  12.0190  12.0622
    12.2194  12.5097  12.5545  12.5692  12.5769  12.6709  12.8064  12.8470
    12.9921  13.1708  13.1762  13.4036  13.6680  13.6965  14.0025  14.0289
    14.7183  14.8929  15.2542  15.5168  15.8142  15.9474  16.1211  16.3501
    16.5184  17.2217  17.2605  17.4939  17.6117  17.7907

          k = 0.1667 0.1577-0.4997 ( 62238 PWs)   bands (ev):

   -65.9252 -65.9252 -65.9248 -65.9248 -65.9243 -65.9243 -65.9239 -65.9239
   -30.3955 -30.3955 -30.3923 -30.3923 -30.3437 -30.3437 -30.3406 -30.3406
   -30.2540 -30.2540 -30.2506 -30.2506 -30.2138 -30.2137 -30.2114 -30.2114
   -30.2096 -30.2096 -30.2072 -30.2072 -30.1660 -30.1660 -30.1634 -30.1634
   -20.0821 -20.0821 -20.0819 -20.0819 -20.0775 -20.0775 -20.0773 -20.0773
   -20.0686 -20.0686 -20.0684 -20.0684 -20.0681 -20.0681 -20.0677 -20.0676
   -20.0673 -20.0673 -20.0669 -20.0669 -20.0660 -20.0660 -20.0658 -20.0658
   -20.0652 -20.0652 -20.0647 -20.0647 -20.0639 -20.0639 -20.0636 -20.0636
   -20.0474 -20.0474 -20.0473 -20.0473 -20.0470 -20.0470 -20.0470 -20.0470
   -19.9991 -19.9991 -19.9991 -19.9991 -19.9979 -19.9979 -19.9979 -19.9979
   -19.9966 -19.9966 -19.9966 -19.9966 -19.9941 -19.9941 -19.9941 -19.9941
    -9.5041  -9.5041  -9.2015  -9.2015  -9.0908  -9.0908  -8.7596  -8.7596
    -8.4692  -8.4692  -8.4611  -8.4610  -8.4075  -8.4074  -8.3450  -8.3450
    -7.8902  -7.8902  -7.8456  -7.8456  -7.7226  -7.7226  -7.7038  -7.7038
     1.6578   1.6578   1.7351   1.7351   1.8352   1.8352   1.9452   1.9452
     2.8371   2.8371   3.0972   3.0972   3.1827   3.1827   3.3045   3.3046
     3.4010   3.4011   3.5050   3.5050   3.6181   3.6181   3.8780   3.8781
     3.9956   3.9956   4.3314   4.3314   4.5837   4.5837   4.7291   4.7291
     4.9861   4.9861   5.1039   5.1040   5.1801   5.1801   5.4834   5.4834
     5.7265   5.7266   5.8044   5.8044   5.9112   5.9112   5.9904   5.9904
     6.5222   6.5222   6.6459   6.6459   6.6924   6.6924   6.8206   6.8206
     6.9544   6.9544   7.0016   7.0016   7.1186   7.1186   7.6057   7.6057
     7.6516   7.6516   7.7169   7.7169   7.7400   7.7400   8.0645   8.0645
    10.5384  10.5384  11.3723  11.3723  11.4437  11.4437  11.7610  11.7610
    11.9609  11.9609  12.6039  12.6039  12.7393  12.7393  12.8119  12.8119
    13.0044  13.0044  13.2538  13.2538  13.4121  13.4121  14.0106  14.0106
    14.8408  14.8408  15.5830  15.5830  15.9761  15.9761  16.1865  16.1865
    16.8820  16.8820  17.6318  17.6318  17.9014  17.9014

          k = 0.1667 0.3154 0.0000 ( 62195 PWs)   bands (ev):

   -65.9256 -65.9254 -65.9247 -65.9246 -65.9245 -65.9244 -65.9237 -65.9235
   -30.3861 -30.3829 -30.3826 -30.3795 -30.3561 -30.3529 -30.3527 -30.3497
   -30.2643 -30.2628 -30.2594 -30.2579 -30.2555 -30.2534 -30.2505 -30.2486
   -30.1678 -30.1663 -30.1635 -30.1626 -30.1624 -30.1613 -30.1583 -30.1573
   -20.0813 -20.0810 -20.0810 -20.0807 -20.0786 -20.0784 -20.0783 -20.0780
   -20.0692 -20.0690 -20.0688 -20.0686 -20.0683 -20.0683 -20.0680 -20.0677
   -20.0673 -20.0672 -20.0667 -20.0665 -20.0664 -20.0664 -20.0655 -20.0654
   -20.0652 -20.0648 -20.0643 -20.0641 -20.0638 -20.0638 -20.0636 -20.0634
   -20.0475 -20.0475 -20.0472 -20.0472 -20.0472 -20.0472 -20.0469 -20.0469
   -20.0007 -20.0007 -19.9998 -19.9998 -19.9994 -19.9994 -19.9983 -19.9983
   -19.9949 -19.9949 -19.9949 -19.9949 -19.9937 -19.9937 -19.9933 -19.9933
    -9.7223  -9.5714  -9.3288  -9.2366  -9.1887  -9.0808  -8.9001  -8.8924
    -8.7765  -8.6390  -8.6380  -8.6147  -8.1664  -8.1247  -8.1156  -8.0998
    -7.7975  -7.7851  -7.6711  -7.6588  -7.6497  -7.6390  -7.5345  -7.5234
     1.4269   1.4272   1.4296   1.4324   1.6784   1.6881   1.8869   1.9375
     2.4193   2.5424   2.5684   2.5951   2.6359   2.7256   2.9197   3.0040
     3.0449   3.1359   3.6782   3.7115   3.7422   3.7841   4.1760   4.4681
     4.5301   4.5328   4.6110   4.7855   4.8151   4.9325   4.9839   5.0183
     5.0946   5.1211   5.2466   5.3757   5.4694   5.5393   5.6383   5.6886
     5.7477   5.8538   5.8672   5.8880   6.1105   6.1751   6.1948   6.2308
     6.3054   6.4867   6.4978   6.6338   6.6980   6.9048   6.9331   6.9757
     7.0150   7.0303   7.1120   7.1227   7.1356   7.1564   7.2767   7.2788
     7.3405   7.3551   7.8289   7.8527   7.8663   7.8879   7.8985   7.9014
     9.8189   9.8333  10.7655  10.8053  10.9570  10.9769  11.8887  12.0043
    12.0399  12.1173  12.3739  12.3901  12.5012  12.5336  13.0380  13.0393
    13.3366  13.4283  13.5027  13.5741  13.7829  13.8191  13.9331  13.9587
    14.9678  15.3385  15.5375  15.6404  15.6570  15.7469  16.0253  16.1450
    16.3492  16.9389  17.3275  17.3784  17.7065  17.8436

          k = 0.1667 0.3154 0.1666 ( 62192 PWs)   bands (ev):

   -65.9256 -65.9253 -65.9247 -65.9247 -65.9245 -65.9244 -65.9238 -65.9236
   -30.3859 -30.3829 -30.3827 -30.3798 -30.3559 -30.3530 -30.3528 -30.3499
   -30.2580 -30.2571 -30.2543 -30.2535 -30.2518 -30.2510 -30.2507 -30.2489
   -30.1695 -30.1682 -30.1677 -30.1662 -30.1658 -30.1647 -30.1627 -30.1616
   -20.0813 -20.0810 -20.0810 -20.0808 -20.0786 -20.0784 -20.0783 -20.0781
   -20.0690 -20.0688 -20.0687 -20.0685 -20.0683 -20.0682 -20.0680 -20.0677
   -20.0674 -20.0673 -20.0667 -20.0665 -20.0665 -20.0664 -20.0655 -20.0654
   -20.0652 -20.0650 -20.0645 -20.0641 -20.0640 -20.0638 -20.0636 -20.0635
   -20.0475 -20.0475 -20.0472 -20.0472 -20.0472 -20.0471 -20.0469 -20.0469
   -20.0004 -20.0004 -19.9997 -19.9997 -19.9990 -19.9990 -19.9984 -19.9984
   -19.9954 -19.9953 -19.9948 -19.9948 -19.9941 -19.9941 -19.9934 -19.9934
    -9.6692  -9.5129  -9.2557  -9.2542  -9.1006  -9.0969  -8.8623  -8.8560
    -8.7850  -8.6324  -8.6198  -8.6192  -8.1678  -8.1226  -8.1209  -8.1049
    -7.7903  -7.7885  -7.7761  -7.7747  -7.6833  -7.6722  -7.6403  -7.6296
     1.5996   1.6003   1.6790   1.6845   1.6886   1.6950   1.9542   2.0186
     2.4215   2.5424   2.5482   2.6882   2.6927   2.7545   3.0133   3.0213
     3.1288   3.1408   3.7181   3.7311   3.7479   3.7961   4.1680   4.4891
     4.4986   4.5734   4.5826   4.6633   4.6776   4.7798   4.7914   4.8767
     4.9342   4.9456   5.1826   5.2077   5.4460   5.4641   5.4676   5.4933
     5.6805   5.6991   5.8413   5.8482   5.8859   5.8903   6.4467   6.4718
     6.4799   6.5472   6.5934   6.6825   6.8377   6.8474   6.9167   6.9276
     6.9754   6.9816   7.0331   7.0658   7.1280   7.1375   7.1486   7.2039
     7.4138   7.4502   7.8296   7.8373   7.8444   7.8751   7.8938   7.9075
    10.0641  10.0877  10.9216  10.9623  10.9811  11.0036  11.9704  12.0201
    12.1113  12.1160  12.4119  12.4201  12.4476  12.4549  13.0499  13.0732
    13.2960  13.3303  13.3685  13.5222  13.7575  13.7784  13.7855  13.8759
    15.1185  15.5366  15.5427  15.7171  15.7215  15.8084  16.2648  16.3156
    16.3222  16.9040  17.3946  17.4413  17.4554  17.7676

          k = 0.1667 0.3154 0.3332 ( 62204 PWs)   bands (ev):

   -65.9254 -65.9252 -65.9249 -65.9246 -65.9245 -65.9243 -65.9240 -65.9238
   -30.3854 -30.3836 -30.3823 -30.3805 -30.3555 -30.3537 -30.3523 -30.3507
   -30.2547 -30.2529 -30.2520 -30.2500 -30.2383 -30.2370 -30.2341 -30.2327
   -30.1880 -30.1867 -30.1841 -30.1827 -30.1666 -30.1651 -30.1643 -30.1628
   -20.0812 -20.0811 -20.0810 -20.0808 -20.0786 -20.0784 -20.0783 -20.0782
   -20.0687 -20.0686 -20.0684 -20.0683 -20.0683 -20.0681 -20.0677 -20.0676
   -20.0675 -20.0674 -20.0669 -20.0667 -20.0663 -20.0661 -20.0655 -20.0654
   -20.0653 -20.0652 -20.0648 -20.0644 -20.0641 -20.0638 -20.0637 -20.0637
   -20.0474 -20.0474 -20.0473 -20.0472 -20.0471 -20.0471 -20.0470 -20.0469
   -19.9996 -19.9996 -19.9992 -19.9992 -19.9987 -19.9987 -19.9980 -19.9980
   -19.9965 -19.9965 -19.9952 -19.9952 -19.9945 -19.9945 -19.9937 -19.9937
    -9.5402  -9.3734  -9.3084  -9.1465  -9.0723  -8.8519  -8.8179  -8.7494
    -8.7254  -8.6328  -8.5979  -8.5434  -8.2084  -8.1786  -8.1181  -8.1109
    -8.0852  -8.0361  -7.9850  -7.9460  -7.7576  -7.7459  -7.6819  -7.6710
     1.7010   1.7129   1.7258   1.7354   2.2776   2.3623   2.3708   2.4390
     2.5501   2.5541   2.5807   2.7837   2.9649   3.0256   3.0389   3.1197
     3.2659   3.3610   3.7136   3.7297   3.7744   3.8338   3.9768   4.0484
     4.1537   4.3520   4.4379   4.4605   4.5224   4.6374   4.6662   4.7309
     4.7912   4.8421   4.8877   4.9149   4.9978   5.0795   5.2079   5.2136
     5.3770   5.4103   5.5004   5.6527   5.8766   5.9004   6.2798   6.2988
     6.6024   6.6730   6.6939   6.7854   6.8682   6.8902   6.9735   7.0089
     7.0518   7.0767   7.0978   7.1238   7.2138   7.2359   7.2632   7.3355
     7.3618   7.4086   7.7659   7.7679   7.8233   7.8480   7.8510   7.8902
    10.6524  10.6925  10.9722  10.9909  11.4146  11.4666  11.9683  12.0262
    12.0487  12.1884  12.2867  12.3284  12.5778  12.6680  12.7576  12.8189
    12.9703  13.1721  13.2142  13.4340  13.4485  13.4952  13.7781  13.8203
    15.3578  15.5147  15.9103  16.0050  16.0491  16.1636  16.2497  16.7151
    16.7818  16.8569  17.1287  17.6052  17.6688  17.7372

          k = 0.1667 0.3154-0.4997 ( 62214 PWs)   bands (ev):

   -65.9251 -65.9251 -65.9249 -65.9249 -65.9242 -65.9242 -65.9240 -65.9240
   -30.3846 -30.3846 -30.3814 -30.3814 -30.3547 -30.3547 -30.3516 -30.3516
   -30.2533 -30.2533 -30.2514 -30.2514 -30.2133 -30.2133 -30.2119 -30.2119
   -30.2091 -30.2091 -30.2077 -30.2077 -30.1655 -30.1655 -30.1640 -30.1640
   -20.0812 -20.0812 -20.0809 -20.0809 -20.0785 -20.0785 -20.0783 -20.0783
   -20.0685 -20.0685 -20.0684 -20.0684 -20.0680 -20.0680 -20.0677 -20.0677
   -20.0673 -20.0673 -20.0670 -20.0670 -20.0659 -20.0659 -20.0658 -20.0658
   -20.0651 -20.0651 -20.0648 -20.0648 -20.0639 -20.0639 -20.0637 -20.0637
   -20.0473 -20.0473 -20.0473 -20.0473 -20.0470 -20.0470 -20.0470 -20.0470
   -19.9991 -19.9991 -19.9991 -19.9991 -19.9979 -19.9979 -19.9979 -19.9979
   -19.9966 -19.9966 -19.9966 -19.9966 -19.9941 -19.9941 -19.9941 -19.9941
    -9.4048  -9.4048  -9.2365  -9.2364  -8.8996  -8.8995  -8.6603  -8.6603
    -8.5015  -8.5014  -8.4726  -8.4725  -8.4066  -8.4066  -8.3262  -8.3262
    -8.1134  -8.1134  -8.0773  -8.0772  -7.7195  -7.7195  -7.7082  -7.7082
     1.7215   1.7215   1.7342   1.7342   2.4246   2.4246   2.5434   2.5434
     3.0298   3.0298   3.1567   3.1567   3.1895   3.1895   3.3641   3.3641
     3.4076   3.4076   3.5289   3.5289   3.5737   3.5737   3.7551   3.7551
     4.1299   4.1299   4.1558   4.1558   4.1766   4.1766   4.4173   4.4173
     4.7889   4.7889   4.8600   4.8600   5.0352   5.0352   5.1108   5.1108
     5.2232   5.2232   5.5667   5.5667   5.9819   5.9819   5.9938   5.9938
     6.7262   6.7262   6.8263   6.8263   6.8964   6.8964   6.9332   6.9332
     7.0685   7.0685   7.1118   7.1118   7.2254   7.2254   7.5720   7.5720
     7.6082   7.6082   7.6394   7.6395   7.6760   7.6760   7.8611   7.8611
    10.9538  10.9538  11.3880  11.3880  11.4422  11.4422  11.8772  11.8772
    12.1400  12.1400  12.2978  12.2978  12.6495  12.6495  12.7136  12.7136
    12.9160  12.9160  13.0448  13.0448  13.4005  13.4005  13.7916  13.7916
    15.4630  15.4630  16.0940  16.0941  16.3646  16.3646  16.5256  16.5256
    17.0076  17.0076  17.2840  17.2840  17.8734  17.8734

          k = 0.1667-0.4730 0.0000 ( 62192 PWs)   bands (ev):

   -65.9255 -65.9255 -65.9246 -65.9246 -65.9245 -65.9245 -65.9236 -65.9236
   -30.3711 -30.3711 -30.3679 -30.3679 -30.3677 -30.3677 -30.3646 -30.3646
   -30.2636 -30.2636 -30.2586 -30.2586 -30.2545 -30.2545 -30.2496 -30.2496
   -30.1671 -30.1670 -30.1629 -30.1629 -30.1619 -30.1619 -30.1578 -30.1578
   -20.0800 -20.0799 -20.0797 -20.0797 -20.0796 -20.0796 -20.0794 -20.0794
   -20.0690 -20.0690 -20.0688 -20.0688 -20.0682 -20.0682 -20.0680 -20.0680
   -20.0673 -20.0673 -20.0666 -20.0666 -20.0665 -20.0665 -20.0655 -20.0655
   -20.0650 -20.0650 -20.0641 -20.0641 -20.0640 -20.0640 -20.0635 -20.0635
   -20.0475 -20.0475 -20.0472 -20.0472 -20.0472 -20.0472 -20.0469 -20.0469
   -20.0007 -20.0007 -19.9998 -19.9998 -19.9994 -19.9994 -19.9983 -19.9983
   -19.9949 -19.9949 -19.9949 -19.9949 -19.9937 -19.9937 -19.9933 -19.9933
    -9.6365  -9.6365  -9.2425  -9.2425  -9.1388  -9.1388  -8.8960  -8.8960
    -8.4757  -8.4757  -8.4139  -8.4139  -8.4053  -8.4053  -8.3998  -8.3998
    -7.7916  -7.7915  -7.6651  -7.6651  -7.6444  -7.6444  -7.5290  -7.5290
     1.4275   1.4275   1.4317   1.4317   1.6858   1.6858   1.9268   1.9268
     2.6156   2.6156   3.1926   3.1926   3.2485   3.2485   3.3203   3.3204
     3.3387   3.3387   3.3726   3.3726   3.5277   3.5277   3.5899   3.5899
     3.7499   3.7499   4.5614   4.5614   4.9539   4.9539   5.0711   5.0711
     5.1789   5.1789   5.2449   5.2449   5.3699   5.3699   5.5673   5.5673
     5.7952   5.7952   5.8689   5.8689   6.1848   6.1848   6.2157   6.2157
     6.4461   6.4461   6.4934   6.4934   6.7912   6.7912   6.9689   6.9689
     7.0636   7.0636   7.2684   7.2684   7.2970   7.2970   7.4872   7.4872
     7.5079   7.5079   7.5477   7.5477   7.5736   7.5736   7.8921   7.8921
     9.8276   9.8276  11.3472  11.3472  11.4200  11.4200  11.4929  11.4929
    11.5689  11.5689  12.3836  12.3836  12.5180  12.5180  13.0480  13.0480
    13.5047  13.5047  13.6049  13.6049  13.6845  13.6845  13.7302  13.7302
    15.4940  15.4940  15.6897  15.6897  15.7858  15.7858  16.0714  16.0715
    16.6499  16.6499  17.8670  17.8670  18.1647  18.1651

          k = 0.1667-0.4730 0.1666 ( 62152 PWs)   bands (ev):

   -65.9255 -65.9254 -65.9246 -65.9246 -65.9246 -65.9245 -65.9237 -65.9237
   -30.3709 -30.3709 -30.3680 -30.3679 -30.3678 -30.3678 -30.3649 -30.3649
   -30.2575 -30.2574 -30.2539 -30.2539 -30.2516 -30.2515 -30.2499 -30.2499
   -30.1688 -30.1688 -30.1670 -30.1670 -30.1652 -30.1652 -30.1623 -30.1623
   -20.0799 -20.0799 -20.0797 -20.0797 -20.0797 -20.0797 -20.0794 -20.0794
   -20.0688 -20.0688 -20.0687 -20.0686 -20.0682 -20.0682 -20.0679 -20.0679
   -20.0673 -20.0673 -20.0666 -20.0666 -20.0664 -20.0664 -20.0654 -20.0654
   -20.0651 -20.0651 -20.0642 -20.0642 -20.0640 -20.0640 -20.0636 -20.0636
   -20.0475 -20.0475 -20.0472 -20.0472 -20.0472 -20.0472 -20.0469 -20.0469
   -20.0004 -20.0004 -19.9997 -19.9997 -19.9990 -19.9990 -19.9984 -19.9984
   -19.9954 -19.9953 -19.9948 -19.9948 -19.9941 -19.9941 -19.9934 -19.9934
    -9.5799  -9.5799  -9.1589  -9.1587  -9.1560  -9.1559  -8.8591  -8.8591
    -8.4827  -8.4826  -8.4083  -8.4079  -8.4051  -8.4050  -8.4014  -8.4010
    -7.7855  -7.7852  -7.7800  -7.7798  -7.6778  -7.6778  -7.6350  -7.6350
     1.5996   1.6002   1.6856   1.6866   1.6924   1.6931   2.0058   2.0061
     2.7090   2.7094   3.2059   3.2066   3.2473   3.2578   3.3181   3.3212
[...]
    12.1255  12.1255  12.1255  12.1255  12.3402  12.3402  12.3402  12.3402
    13.1040  13.1040  13.1040  13.1040  13.2851  13.2851  13.2851  13.2851
    15.3724  15.3724  15.3724  15.3724  16.7664  16.7664  16.7664  16.7664
    17.7328  17.7328  17.7328  17.7328  18.0011  18.0011

          k =-0.5000 0.3154 0.0000 ( 62266 PWs)   bands (ev):

   -65.9252 -65.9252 -65.9250 -65.9250 -65.9242 -65.9242 -65.9240 -65.9239
   -30.3846 -30.3846 -30.3812 -30.3812 -30.3546 -30.3546 -30.3514 -30.3514
   -30.2617 -30.2617 -30.2602 -30.2602 -30.2118 -30.2118 -30.2101 -30.2101
   -30.2070 -30.2070 -30.2054 -30.2054 -30.1606 -30.1606 -30.1594 -30.1593
   -20.0812 -20.0812 -20.0809 -20.0809 -20.0785 -20.0785 -20.0782 -20.0782
   -20.0691 -20.0691 -20.0687 -20.0687 -20.0677 -20.0677 -20.0676 -20.0676
   -20.0672 -20.0672 -20.0669 -20.0669 -20.0660 -20.0660 -20.0655 -20.0655
   -20.0649 -20.0649 -20.0648 -20.0648 -20.0641 -20.0641 -20.0637 -20.0637
   -20.0474 -20.0474 -20.0473 -20.0473 -20.0470 -20.0470 -20.0470 -20.0470
   -20.0001 -20.0001 -20.0001 -20.0001 -19.9975 -19.9975 -19.9974 -19.9974
   -19.9959 -19.9959 -19.9959 -19.9959 -19.9943 -19.9943 -19.9943 -19.9943
    -9.4748  -9.4747  -9.3216  -9.3216  -8.8860  -8.8860  -8.6834  -8.6834
    -8.4817  -8.4817  -8.4729  -8.4729  -8.4187  -8.4187  -8.3198  -8.3198
    -8.1148  -8.1148  -8.0724  -8.0724  -7.6003  -7.6003  -7.5887  -7.5887
     1.4640   1.4640   1.4700   1.4700   2.4199   2.4199   2.5612   2.5612
     2.9642   2.9642   3.1229   3.1229   3.1791   3.1791   3.3581   3.3581
     3.3933   3.3933   3.4612   3.4612   3.5259   3.5260   3.7034   3.7034
     4.1176   4.1177   4.1416   4.1416   4.2143   4.2143   4.4184   4.4184
     4.8577   4.8577   4.9545   4.9545   5.1668   5.1668   5.3690   5.3690
     5.5226   5.5226   5.7670   5.7670   6.3663   6.3663   6.4334   6.4334
     6.5404   6.5404   6.6016   6.6016   6.6057   6.6057   6.8173   6.8173
     7.0792   7.0792   7.1022   7.1022   7.1329   7.1329   7.5630   7.5630
     7.5874   7.5874   7.6319   7.6319   7.6640   7.6640   7.8811   7.8811
    10.7886  10.7886  11.3162  11.3162  11.3601  11.3601  11.7854  11.7854
    12.1318  12.1318  12.2650  12.2650  12.6614  12.6614  12.7656  12.7656
    12.9554  12.9554  13.1017  13.1017  13.5578  13.5578  13.9433  13.9433
    15.2581  15.2581  15.8237  15.8237  16.2956  16.2956  16.5375  16.5375
    16.9298  16.9298  17.2452  17.2452  17.9799  17.9800

          k =-0.5000 0.3154 0.1666 ( 62216 PWs)   bands (ev):

   -65.9251 -65.9251 -65.9249 -65.9249 -65.9242 -65.9242 -65.9240 -65.9240
   -30.3845 -30.3845 -30.3815 -30.3815 -30.3545 -30.3545 -30.3516 -30.3516
   -30.2550 -30.2550 -30.2535 -30.2535 -30.2115 -30.2115 -30.2098 -30.2098
   -30.2073 -30.2073 -30.2057 -30.2057 -30.1674 -30.1674 -30.1661 -30.1661
   -20.0812 -20.0812 -20.0809 -20.0809 -20.0785 -20.0785 -20.0782 -20.0782
   -20.0690 -20.0689 -20.0686 -20.0686 -20.0677 -20.0677 -20.0676 -20.0676
   -20.0671 -20.0671 -20.0669 -20.0669 -20.0660 -20.0660 -20.0656 -20.0656
   -20.0649 -20.0649 -20.0648 -20.0648 -20.0642 -20.0642 -20.0638 -20.0638
   -20.0473 -20.0473 -20.0473 -20.0473 -20.0471 -20.0470 -20.0470 -20.0470
   -19.9997 -19.9997 -19.9997 -19.9997 -19.9974 -19.9973 -19.9973 -19.9973
   -19.9961 -19.9960 -19.9960 -19.9960 -19.9947 -19.9947 -19.9947 -19.9946
    -9.4063  -9.4063  -9.2396  -9.2396  -8.9000  -8.9000  -8.6617  -8.6617
    -8.4983  -8.4983  -8.4704  -8.4704  -8.4031  -8.4031  -8.3240  -8.3240
    -8.1116  -8.1116  -8.0770  -8.0770  -7.7223  -7.7223  -7.7109  -7.7109
     1.7150   1.7150   1.7270   1.7270   2.4228   2.4228   2.5427   2.5427
     3.0399   3.0399   3.1499   3.1499   3.1832   3.1832   3.3668   3.3668
     3.4070   3.4070   3.5384   3.5384   3.5768   3.5768   3.7548   3.7549
     4.1131   4.1131   4.1470   4.1470   4.2099   4.2099   4.4260   4.4260
     4.7844   4.7844   4.8511   4.8511   5.0350   5.0350   5.1118   5.1118
     5.2263   5.2263   5.5658   5.5658   5.9784   5.9784   5.9917   5.9917
     6.7257   6.7257   6.8330   6.8330   6.8993   6.8993   6.9347   6.9347
     7.0611   7.0611   7.1158   7.1158   7.2206   7.2206   7.5679   7.5679
     7.6001   7.6001   7.6506   7.6506   7.6814   7.6814   7.8627   7.8627
    10.9525  10.9525  11.3919  11.3919  11.4407  11.4407  11.8491  11.8491
    12.1439  12.1439  12.3019  12.3019  12.6484  12.6484  12.7322  12.7323
    12.9178  12.9178  13.0546  13.0546  13.3956  13.3956  13.7970  13.7970
    15.4637  15.4638  16.0864  16.0864  16.3639  16.3639  16.5270  16.5270
    16.9907  16.9907  17.2848  17.2848  17.8666  17.8666

          k =-0.5000 0.3154 0.3332 ( 62204 PWs)   bands (ev):

   -65.9249 -65.9249 -65.9247 -65.9247 -65.9244 -65.9244 -65.9242 -65.9242
   -30.3840 -30.3840 -30.3823 -30.3822 -30.3541 -30.3541 -30.3524 -30.3524
   -30.2367 -30.2367 -30.2352 -30.2352 -30.2106 -30.2106 -30.2090 -30.2089
   -30.2082 -30.2082 -30.2067 -30.2067 -30.1857 -30.1857 -30.1845 -30.1845
   -20.0811 -20.0811 -20.0810 -20.0810 -20.0785 -20.0785 -20.0783 -20.0783
   -20.0686 -20.0686 -20.0683 -20.0683 -20.0679 -20.0679 -20.0677 -20.0677
   -20.0669 -20.0669 -20.0667 -20.0666 -20.0662 -20.0662 -20.0659 -20.0658
   -20.0648 -20.0648 -20.0648 -20.0647 -20.0644 -20.0644 -20.0642 -20.0641
   -20.0473 -20.0472 -20.0472 -20.0472 -20.0471 -20.0471 -20.0470 -20.0470
   -19.9988 -19.9987 -19.9987 -19.9987 -19.9971 -19.9971 -19.9971 -19.9971
   -19.9964 -19.9964 -19.9964 -19.9964 -19.9957 -19.9957 -19.9957 -19.9957
    -9.2334  -9.2334  -9.0155  -9.0155  -8.9482  -8.9482  -8.5919  -8.5919
    -8.5549  -8.5549  -8.4387  -8.4386  -8.3747  -8.3747  -8.3323  -8.3323
    -8.1109  -8.1109  -8.0956  -8.0956  -8.0159  -8.0159  -7.9871  -7.9871
     2.3106   2.3106   2.4069   2.4069   2.4342   2.4342   2.5791   2.5791
     3.1310   3.1310   3.1865   3.1866   3.2687   3.2687   3.3692   3.3692
     3.4475   3.4475   3.6825   3.6825   3.7984   3.7984   3.8965   3.8966
     4.0905   4.0905   4.1602   4.1602   4.2126   4.2126   4.3029   4.3029
     4.4020   4.4020   4.5376   4.5376   4.6893   4.6893   4.8987   4.8987
     5.0163   5.0163   5.0929   5.0929   5.1689   5.1689   5.3513   5.3513
     6.8881   6.8881   6.9436   6.9436   7.0113   7.0113   7.0748   7.0748
     7.2199   7.2199   7.3656   7.3656   7.4704   7.4704   7.5564   7.5564
     7.6101   7.6101   7.6846   7.6846   7.7060   7.7060   7.8158   7.8158
    11.3738  11.3739  11.6297  11.6297  11.7126  11.7126  11.9558  11.9558
    12.1928  12.1928  12.4393  12.4393  12.4757  12.4757  12.5125  12.5125
    12.8351  12.8351  12.9234  12.9234  13.0056  13.0056  13.4130  13.4130
    15.9637  15.9637  16.4430  16.4430  16.5983  16.5984  16.8174  16.8174
    17.2189  17.2189  17.3519  17.3519  17.6391  17.6391

          k =-0.5000 0.3154-0.4997 ( 62180 PWs)   bands (ev):

   -65.9247 -65.9247 -65.9247 -65.9247 -65.9245 -65.9245 -65.9245 -65.9244
   -30.3832 -30.3832 -30.3832 -30.3832 -30.3533 -30.3533 -30.3533 -30.3533
   -30.2133 -30.2133 -30.2133 -30.2133 -30.2112 -30.2112 -30.2112 -30.2112
   -30.2080 -30.2079 -30.2079 -30.2079 -30.2058 -30.2058 -30.2058 -30.2058
   -20.0811 -20.0811 -20.0811 -20.0811 -20.0784 -20.0784 -20.0784 -20.0784
   -20.0682 -20.0682 -20.0682 -20.0682 -20.0679 -20.0679 -20.0679 -20.0679
   -20.0666 -20.0666 -20.0666 -20.0666 -20.0662 -20.0662 -20.0662 -20.0662
   -20.0646 -20.0646 -20.0646 -20.0646 -20.0645 -20.0645 -20.0645 -20.0645
   -20.0472 -20.0472 -20.0472 -20.0471 -20.0471 -20.0471 -20.0471 -20.0471
   -19.9975 -19.9975 -19.9975 -19.9975 -19.9974 -19.9973 -19.9973 -19.9973
   -19.9966 -19.9966 -19.9966 -19.9966 -19.9964 -19.9964 -19.9964 -19.9964
    -9.0545  -9.0545  -9.0545  -9.0545  -8.7386  -8.7386  -8.7386  -8.7386
    -8.4357  -8.4357  -8.4356  -8.4356  -8.3004  -8.3004  -8.3004  -8.3004
    -8.2801  -8.2801  -8.2801  -8.2800  -8.0822  -8.0822  -8.0821  -8.0821
     2.4362   2.4362   2.4362   2.4362   3.0958   3.0958   3.0958   3.0958
     3.2030   3.2030   3.2030   3.2030   3.3325   3.3325   3.3325   3.3325
     3.4110   3.4110   3.4110   3.4110   4.0192   4.0192   4.0192   4.0192
     4.0665   4.0665   4.0665   4.0665   4.1451   4.1451   4.1451   4.1451
     4.4155   4.4155   4.4155   4.4155   4.4474   4.4474   4.4474   4.4474
     4.7758   4.7758   4.7758   4.7758   5.0789   5.0789   5.0789   5.0789
     6.9445   6.9445   6.9445   6.9445   7.0508   7.0508   7.0508   7.0508
     7.4451   7.4451   7.4451   7.4451   7.5518   7.5518   7.5518   7.5518
     7.6691   7.6691   7.6691   7.6691   7.7520   7.7520   7.7520   7.7520
    11.8563  11.8563  11.8563  11.8563  11.9459  11.9459  11.9459  11.9459
    12.1639  12.1639  12.1639  12.1639  12.4256  12.4256  12.4256  12.4256
    12.7895  12.7895  12.7895  12.7895  12.9915  12.9915  12.9915  12.9915
    16.3115  16.3116  16.3116  16.3116  16.9511  16.9511  16.9511  16.9511
    17.4829  17.4829  17.4829  17.4829  17.9977  17.9978

          k =-0.5000-0.4730 0.0000 ( 62216 PWs)   bands (ev):

   -65.9251 -65.9251 -65.9251 -65.9251 -65.9241 -65.9241 -65.9241 -65.9240
   -30.3697 -30.3697 -30.3695 -30.3695 -30.3664 -30.3664 -30.3662 -30.3662
   -30.2610 -30.2610 -30.2610 -30.2610 -30.2111 -30.2111 -30.2109 -30.2109
   -30.2063 -30.2063 -30.2061 -30.2061 -30.1600 -30.1600 -30.1600 -30.1600
   -20.0799 -20.0799 -20.0798 -20.0798 -20.0796 -20.0796 -20.0795 -20.0795
   -20.0689 -20.0689 -20.0689 -20.0689 -20.0676 -20.0676 -20.0676 -20.0676
   -20.0671 -20.0671 -20.0670 -20.0670 -20.0658 -20.0658 -20.0657 -20.0657
   -20.0649 -20.0649 -20.0649 -20.0649 -20.0639 -20.0639 -20.0639 -20.0639
   -20.0473 -20.0473 -20.0473 -20.0473 -20.0470 -20.0470 -20.0470 -20.0470
   -20.0001 -20.0001 -20.0001 -20.0001 -19.9975 -19.9975 -19.9975 -19.9974
   -19.9959 -19.9959 -19.9959 -19.9959 -19.9943 -19.9943 -19.9943 -19.9943
    -9.3850  -9.3850  -9.3824  -9.3824  -8.6407  -8.6407  -8.6308  -8.6308
    -8.5424  -8.5424  -8.5344  -8.5343  -8.3480  -8.3480  -8.3282  -8.3281
    -8.2663  -8.2663  -8.2489  -8.2489  -7.5946  -7.5946  -7.5945  -7.5945
     1.4670   1.4670   1.4699   1.4699   3.0557   3.0557   3.1132   3.1132
     3.2124   3.2125   3.2237   3.2237   3.2562   3.2562   3.2777   3.2777
     3.3865   3.3865   3.4138   3.4138   3.5064   3.5065   3.5650   3.5651
     3.6068   3.6068   3.7712   3.7712   4.3426   4.3426   4.3742   4.3742
     4.4394   4.4394   4.4951   4.4951   5.2722   5.2722   5.2927   5.2928
     5.5729   5.5729   5.5953   5.5953   6.4159   6.4159   6.4279   6.4279
     6.5997   6.5997   6.6022   6.6022   6.6879   6.6879   6.7179   6.7179
     7.3171   7.3172   7.3421   7.3421   7.3611   7.3612   7.4695   7.4695
     7.4885   7.4885   7.5430   7.5431   7.6472   7.6472   7.6578   7.6578
    11.3103  11.3103  11.3157  11.3157  11.4040  11.4040  11.4124  11.4124
    12.3571  12.3571  12.3989  12.3989  12.4249  12.4249  12.4655  12.4655
    12.9935  12.9935  12.9989  12.9989  13.7009  13.7009  13.7172  13.7172
    15.6299  15.6299  15.6313  15.6313  16.8304  16.8305  16.8675  16.8675
    17.4007  17.4007  17.4370  17.4370  17.5465  17.5465

          k =-0.5000-0.4730 0.1666 ( 62188 PWs)   bands (ev):

   -65.9250 -65.9250 -65.9250 -65.9250 -65.9241 -65.9241 -65.9241 -65.9241
   -30.3696 -30.3696 -30.3694 -30.3694 -30.3667 -30.3667 -30.3665 -30.3665
   -30.2543 -30.2543 -30.2543 -30.2542 -30.2108 -30.2108 -30.2105 -30.2105
   -30.2066 -30.2066 -30.2064 -30.2064 -30.1668 -30.1668 -30.1668 -30.1667
   -20.0799 -20.0799 -20.0798 -20.0798 -20.0796 -20.0796 -20.0796 -20.0796
   -20.0688 -20.0688 -20.0687 -20.0687 -20.0677 -20.0677 -20.0677 -20.0676
   -20.0670 -20.0670 -20.0670 -20.0669 -20.0658 -20.0658 -20.0658 -20.0658
   -20.0649 -20.0649 -20.0649 -20.0649 -20.0640 -20.0640 -20.0640 -20.0640
   -20.0473 -20.0473 -20.0473 -20.0473 -20.0470 -20.0470 -20.0470 -20.0470
   -19.9997 -19.9997 -19.9997 -19.9997 -19.9974 -19.9974 -19.9973 -19.9973
   -19.9961 -19.9960 -19.9960 -19.9960 -19.9947 -19.9947 -19.9947 -19.9946
    -9.3078  -9.3078  -9.3048  -9.3048  -8.6598  -8.6598  -8.6497  -8.6497
    -8.5250  -8.5250  -8.5151  -8.5150  -8.3452  -8.3451  -8.3261  -8.3261
    -8.2679  -8.2678  -8.2515  -8.2515  -7.7168  -7.7168  -7.7165  -7.7165
     1.7224   1.7224   1.7261   1.7261   3.0616   3.0617   3.1197   3.1198
     3.1977   3.1977   3.2199   3.2200   3.2641   3.2641   3.3326   3.3326
     3.3841   3.3841   3.5077   3.5077   3.5508   3.5508   3.6128   3.6128
     3.6461   3.6461   3.7994   3.7994   4.3464   4.3464   4.3732   4.3732
     4.4331   4.4331   4.4879   4.4880   4.9469   4.9469   5.1161   5.1162
     5.2177   5.2177   5.3638   5.3638   5.9838   5.9838   5.9955   5.9955
     6.8019   6.8019   6.8461   6.8462   6.9460   6.9460   6.9820   6.9820
     7.3094   7.3094   7.3353   7.3353   7.3946   7.3946   7.4556   7.4556
     7.4894   7.4894   7.5502   7.5502   7.6628   7.6628   7.6848   7.6848
    11.3583  11.3583  11.4020  11.4020  11.5021  11.5021  11.5783  11.5783
    12.3577  12.3578  12.4025  12.4025  12.4271  12.4271  12.4744  12.4744
    12.8951  12.8951  12.9671  12.9671  13.5270  13.5270  13.5773  13.5773
    15.8745  15.8746  15.9010  15.9010  16.8884  16.8884  16.9247  16.9247
    17.4046  17.4046  17.4485  17.4485  17.5356  17.5356

          k =-0.5000-0.4730 0.3332 ( 62136 PWs)   bands (ev):

   -65.9248 -65.9248 -65.9248 -65.9248 -65.9243 -65.9243 -65.9243 -65.9243
   -30.3691 -30.3691 -30.3690 -30.3690 -30.3674 -30.3674 -30.3672 -30.3672
   -30.2360 -30.2360 -30.2359 -30.2359 -30.2099 -30.2099 -30.2096 -30.2096
   -30.2076 -30.2076 -30.2073 -30.2073 -30.1851 -30.1851 -30.1851 -30.1851
   -20.0798 -20.0798 -20.0798 -20.0798 -20.0797 -20.0797 -20.0796 -20.0796
   -20.0684 -20.0684 -20.0684 -20.0684 -20.0678 -20.0678 -20.0678 -20.0678
   -20.0668 -20.0668 -20.0667 -20.0667 -20.0661 -20.0660 -20.0660 -20.0660
   -20.0648 -20.0648 -20.0648 -20.0648 -20.0643 -20.0643 -20.0643 -20.0643
   -20.0472 -20.0472 -20.0472 -20.0472 -20.0471 -20.0471 -20.0471 -20.0471
   -19.9987 -19.9987 -19.9987 -19.9987 -19.9971 -19.9971 -19.9971 -19.9971
   -19.9964 -19.9964 -19.9964 -19.9964 -19.9957 -19.9957 -19.9957 -19.9957
    -9.1025  -9.1025  -9.0980  -9.0980  -8.7221  -8.7221  -8.7121  -8.7120
    -8.4642  -8.4642  -8.4541  -8.4541  -8.3378  -8.3378  -8.3234  -8.3234
    -8.2698  -8.2698  -8.2584  -8.2583  -8.0093  -8.0093  -8.0082  -8.0082
     2.3944   2.3944   2.4019   2.4019   3.0759   3.0759   3.1116   3.1117
     3.1924   3.1924   3.2125   3.2125   3.3179   3.3180   3.3461   3.3461
     3.4725   3.4725   3.5131   3.5131   3.7049   3.7050   3.7273   3.7273
     3.8712   3.8712   3.9403   3.9403   4.3225   4.3225   4.3395   4.3395
     4.3910   4.3910   4.4522   4.4522   4.5263   4.5263   4.6546   4.6546
     4.7170   4.7170   4.8736   4.8737   5.1741   5.1741   5.1924   5.1924
     7.0551   7.0551   7.1161   7.1161   7.2336   7.2336   7.2632   7.2632
     7.3198   7.3198   7.3596   7.3596   7.3935   7.3935   7.4478   7.4478
     7.5438   7.5438   7.6097   7.6097   7.6894   7.6894   7.7114   7.7114
    11.5862  11.5862  11.6250  11.6250  11.8580  11.8580  11.9441  11.9441
    12.3143  12.3143  12.3651  12.3651  12.4366  12.4366  12.4787  12.4787
    12.6394  12.6394  12.7510  12.7510  13.0963  13.0963  13.1788  13.1788
    16.5634  16.5634  16.6269  16.6269  17.0684  17.0684  17.0830  17.0830
    17.3744  17.3745  17.4606  17.4606  17.5050  17.5050

          k =-0.5000-0.4730-0.4997 ( 62208 PWs)   bands (ev):

   -65.9246 -65.9246 -65.9246 -65.9246 -65.9246 -65.9246 -65.9246 -65.9245
   -30.3683 -30.3683 -30.3683 -30.3683 -30.3682 -30.3682 -30.3682 -30.3682
   -30.2131 -30.2131 -30.2131 -30.2130 -30.2113 -30.2113 -30.2113 -30.2113
   -30.2079 -30.2078 -30.2078 -30.2078 -30.2061 -30.2061 -30.2061 -30.2061
   -20.0798 -20.0798 -20.0798 -20.0798 -20.0797 -20.0797 -20.0797 -20.0797
   -20.0681 -20.0681 -20.0681 -20.0681 -20.0680 -20.0680 -20.0680 -20.0680
   -20.0664 -20.0664 -20.0664 -20.0664 -20.0663 -20.0663 -20.0663 -20.0663
   -20.0646 -20.0646 -20.0646 -20.0646 -20.0646 -20.0646 -20.0646 -20.0646
   -20.0472 -20.0471 -20.0471 -20.0471 -20.0471 -20.0471 -20.0471 -20.0471
   -19.9975 -19.9975 -19.9975 -19.9975 -19.9974 -19.9973 -19.9973 -19.9973
   -19.9966 -19.9966 -19.9966 -19.9966 -19.9964 -19.9964 -19.9964 -19.9964
    -8.8663  -8.8662  -8.8662  -8.8662  -8.8583  -8.8583  -8.8583  -8.8582
    -8.3424  -8.3424  -8.3423  -8.3423  -8.3257  -8.3257  -8.3257  -8.3256
    -8.2674  -8.2674  -8.2674  -8.2674  -8.2619  -8.2619  -8.2619  -8.2619
     3.0697   3.0697   3.0697   3.0697   3.0983   3.0983   3.0983   3.0983
     3.2370   3.2370   3.2370   3.2370   3.2721   3.2721   3.2721   3.2721
     3.4910   3.4910   3.4910   3.4910   3.5592   3.5592   3.5593   3.5593
     4.2316   4.2316   4.2316   4.2316   4.2376   4.2376   4.2376   4.2376
     4.4348   4.4348   4.4348   4.4348   4.4490   4.4490   4.4490   4.4490
     4.5332   4.5332   4.5332   4.5332   4.5517   4.5517   4.5517   4.5517
     7.1963   7.1963   7.1963   7.1963   7.2864   7.2864   7.2864   7.2865
     7.3816   7.3816   7.3816   7.3816   7.3985   7.3985   7.3985   7.3985
     7.6711   7.6711   7.6711   7.6711   7.6930   7.6930   7.6930   7.6930
    11.9640  11.9640  11.9640  11.9640  11.9720  11.9720  11.9720  11.9720
    12.3563  12.3563  12.3563  12.3563  12.4379  12.4379  12.4379  12.4379
    12.6503  12.6503  12.6503  12.6503  12.6858  12.6858  12.6858  12.6858
    17.1532  17.1532  17.1533  17.1533  17.1989  17.1989  17.1989  17.1989
    17.4436  17.4436  17.4437  17.4438  17.4641  17.4641

     the Fermi energy is    10.1042 ev

!    total energy              =   -6260.38943329 Ry
     Harris-Foulkes estimate   =   -6260.38943329 Ry
     estimated scf accuracy    <          2.2E-09 Ry

     The total energy is the sum of the following terms:

     one-electron contribution =   -4719.18925701 Ry
     hartree contribution      =    2599.54925043 Ry
     xc contribution           =    -966.77868312 Ry
     ewald contribution        =   -3173.97073250 Ry
     smearing contrib. (-TS)   =      -0.00001109 Ry

     convergence has been achieved in  13 iterations

     Writing output data file Landau_10.save
 
     init_run     :     25.13s CPU     26.40s WALL (       1 calls)
     electrons    :    990.98s CPU   1013.07s WALL (       1 calls)

     Called by init_run:
     wfcinit      :     22.29s CPU     23.40s WALL (       1 calls)
     potinit      :      1.11s CPU      1.15s WALL (       1 calls)

     Called by electrons:
     c_bands      :    883.26s CPU    903.37s WALL (      13 calls)
     sum_band     :     99.30s CPU    100.33s WALL (      13 calls)
     v_of_rho     :      1.48s CPU      1.52s WALL (      14 calls)
     mix_rho      :      2.86s CPU      3.38s WALL (      13 calls)

     Called by c_bands:
     init_us_2    :      5.40s CPU      6.14s WALL (      27 calls)
     cegterg      :    739.47s CPU    759.00s WALL (      13 calls)

     Called by sum_band:

     Called by *egterg:
     h_psi        :    546.69s CPU    551.35s WALL (      54 calls)
     g_psi        :      0.83s CPU      0.84s WALL (      40 calls)
     cdiaghg      :      9.05s CPU      9.10s WALL (      53 calls)

     Called by h_psi:
     h_psi:pot    :    544.42s CPU    548.94s WALL (      54 calls)
     h_psi:calbec :     85.72s CPU     88.06s WALL (      54 calls)
     vloc_psi     :    370.21s CPU    371.72s WALL (      54 calls)
     add_vuspsi   :     88.49s CPU     89.15s WALL (      54 calls)

     General routines
     calbec       :     85.72s CPU     88.06s WALL (      54 calls)
     fft          :      1.23s CPU      1.23s WALL (      56 calls)
     fftw         :    395.04s CPU    396.40s WALL (   17068 calls)
 
     Parallel routines
 
     PWSCF        : 16m59.18s CPU    17m29.45s WALL

 
   This run was terminated on:  21:54:46  28Aug2019            

=------------------------------------------------------------------------------=
   JOB DONE.
=------------------------------------------------------------------------------=
