
     Program PWSCF v.6.4.1 starts on 21Nov2019 at 23:25:50 

     This program is part of the open-source Quantum ESPRESSO suite
     for quantum simulation of materials; please cite
         "P. Giannozzi et al., J. Phys.:Condens. Matter 21 395502 (2009);
         "P. Giannozzi et al., J. Phys.:Condens. Matter 29 465901 (2017);
          URL http://www.quantum-espresso.org", 
     in publications or presentations arising from this work. More details at
     http://www.quantum-espresso.org/quote

     Parallel version (MPI), running on    40 processors

     MPI processes distributed on     6 nodes
     K-points division:     npool     =      40
     Reading input from scf.in

     Current dimensions of program PWSCF are:
     Max number of different atomic species (ntypx) = 10
     Max number of k-points (npk) =  40000
     Max angular momentum in pseudopotentials (lmaxx) =  3

     Subspace diagonalization in iterative solution of the eigenvalue problem:
     a serial algorithm will be used

     Message from routine setup:
     using ibrav=0 with symmetry is DISCOURAGED, use correct ibrav instead
 
     G-vector sticks info
     --------------------
     sticks:   dense  smooth     PW     G-vecs:    dense   smooth      PW
     Sum        7749    7749   2083               501065   501065   69457
 


     bravais-lattice index     =            0
     lattice parameter (alat)  =      13.8955  a.u.
     unit-cell volume          =    2820.3317 (a.u.)^3
     number of atoms/cell      =           32
     number of atomic types    =            2
     number of electrons       =       368.05
     number of Kohn-Sham states=          221
     kinetic-energy cutoff     =     120.0000  Ry
     charge density cutoff     =     480.0000  Ry
     convergence threshold     =      1.0E-08
     mixing beta               =       0.7000
     number of iterations used =            8  plain     mixing
     Exchange-correlation      = SLA PW NOGX NOGC ( 1  4  0  0 0 0)

     celldm(1)=  13.895501  celldm(2)=   0.000000  celldm(3)=   0.000000
     celldm(4)=   0.000000  celldm(5)=   0.000000  celldm(6)=   0.000000

     crystal axes: (cart. coord. in units of alat)
               a(1) = (   1.000000   0.000000   0.000000 )  
               a(2) = (   0.000000   1.051113   0.000000 )  
               a(3) = (   0.000000   0.000000   1.000065 )  

     reciprocal axes: (cart. coord. in units 2 pi/alat)
               b(1) = (  1.000000  0.000000  0.000000 )  
               b(2) = (  0.000000  0.951372  0.000000 )  
               b(3) = (  0.000000  0.000000  0.999935 )  


     PseudoPot. # 1 for W  read from file:
     /cluster/scratch/mnoe/QE/pps/W_ONCV_LDA-4.0.upf
     MD5 check sum: ba0307d5d4cd419d6f1d13dc49d7c13a
     Pseudo is Norm-conserving + core correction, Zval = 28.0
     Generated using ONCVPSP code by D. R. Hamann
     Using radial grid of 1380 points,  8 beta functions with: 
                l(1) =   0
                l(2) =   0
                l(3) =   1
                l(4) =   1
                l(5) =   2
                l(6) =   2
                l(7) =   3
                l(8) =   3

     PseudoPot. # 2 for O  read from file:
     /cluster/scratch/mnoe/QE/pps/O_ONCV_LDA-3.0.upf
     MD5 check sum: b55cdb4f45ae2203d24ad12cf8d61a31
     Pseudo is Norm-conserving + core correction, Zval =  6.0
     Generated using ONCVPSP code by D. R. Hamann
     Using radial grid of  926 points,  5 beta functions with: 
                l(1) =   0
                l(2) =   0
                l(3) =   1
                l(4) =   1
                l(5) =   2

     atomic species   valence    mass     pseudopotential
        W             28.00   183.84000     W ( 1.00)
        O              6.00    15.99940     O ( 1.00)

      8 Sym. Ops., with inversion, found ( 6 have fractional translation)



   Cartesian axes

     site n.     atom                  positions (alat units)
         1           W   tau(   1) = (   0.2481500   0.2976946   0.0017501  )
         2           W   tau(   2) = (   0.7518500   0.7534186   0.9983145  )
         3           W   tau(   3) = (   0.2518500   0.2278620   0.5017824  )
         4           W   tau(   4) = (   0.7481500   0.8232512   0.4982822  )
         5           W   tau(   5) = (   0.7518500   0.2976946   0.4982822  )
         6           W   tau(   6) = (   0.2481500   0.7534186   0.5017824  )
         7           W   tau(   7) = (   0.7481500   0.2278620   0.9983145  )
         8           W   tau(   8) = (   0.2518500   0.8232512   0.0017501  )
         9           O   tau(   9) = (   0.2465900   0.0114470   0.0005400  )
        10           O   tau(  10) = (   0.7534100   1.0396662   0.9995245  )
        11           O   tau(  11) = (   0.2534100   0.5141096   0.5005723  )
        12           O   tau(  12) = (   0.7465900   0.5370036   0.4994923  )
        13           O   tau(  13) = (   0.7534100   0.0114470   0.4994923  )
        14           O   tau(  14) = (   0.2465900   1.0396662   0.5005723  )
        15           O   tau(  15) = (   0.7465900   0.5141096   0.9995245  )
        16           O   tau(  16) = (   0.2534100   0.5370036   0.0005400  )
        17           O   tau(  17) = (   0.5005100   0.2590994   0.4565907  )
        18           O   tau(  18) = (   0.4994900   0.7920138   0.5434739  )
        19           O   tau(  19) = (   0.9994900   0.2664572   0.9566230  )
        20           O   tau(  20) = (   0.0005100   0.7846560   0.0434416  )
        21           O   tau(  21) = (   0.4994900   0.2590994   0.0434416  )
        22           O   tau(  22) = (   0.5005100   0.7920138   0.9566230  )
        23           O   tau(  23) = (   0.0005100   0.2664572   0.5434739  )
        24           O   tau(  24) = (   0.9994900   0.7846560   0.4565907  )
        25           O   tau(  25) = (   0.7065612   0.2619795   0.7492784  )
        26           O   tau(  26) = (   0.2934388   0.7891338   0.2507862  )
        27           O   tau(  27) = (   0.7934388   0.2635772   0.2492461  )
        28           O   tau(  28) = (   0.2065612   0.7875361   0.7508184  )
        29           O   tau(  29) = (   0.2934388   0.2619795   0.7508184  )
        30           O   tau(  30) = (   0.7065612   0.7891338   0.2492461  )
        31           O   tau(  31) = (   0.2065612   0.2635772   0.2507862  )
        32           O   tau(  32) = (   0.7934388   0.7875361   0.7492784  )

     number of k points=    64  gaussian smearing, width (Ry)=  0.0007
                       cart. coord. in units 2pi/alat
        k(    1) = (   0.0000000   0.0000000   0.0000000), wk =   0.0092593
        k(    2) = (   0.0000000   0.0000000   0.1666559), wk =   0.0185185
        k(    3) = (   0.0000000   0.0000000   0.3333118), wk =   0.0185185
        k(    4) = (   0.0000000   0.0000000  -0.4999677), wk =   0.0092593
        k(    5) = (   0.0000000   0.1585620   0.0000000), wk =   0.0185185
        k(    6) = (   0.0000000   0.1585620   0.1666559), wk =   0.0370370
        k(    7) = (   0.0000000   0.1585620   0.3333118), wk =   0.0370370
        k(    8) = (   0.0000000   0.1585620  -0.4999677), wk =   0.0185185
        k(    9) = (   0.0000000   0.3171241   0.0000000), wk =   0.0185185
        k(   10) = (   0.0000000   0.3171241   0.1666559), wk =   0.0370370
        k(   11) = (   0.0000000   0.3171241   0.3333118), wk =   0.0370370
        k(   12) = (   0.0000000   0.3171241  -0.4999677), wk =   0.0185185
        k(   13) = (   0.0000000  -0.4756861   0.0000000), wk =   0.0092593
        k(   14) = (   0.0000000  -0.4756861   0.1666559), wk =   0.0185185
        k(   15) = (   0.0000000  -0.4756861   0.3333118), wk =   0.0185185
        k(   16) = (   0.0000000  -0.4756861  -0.4999677), wk =   0.0092593
        k(   17) = (   0.1666667   0.0000000   0.0000000), wk =   0.0185185
        k(   18) = (   0.1666667   0.0000000   0.1666559), wk =   0.0370370
        k(   19) = (   0.1666667   0.0000000   0.3333118), wk =   0.0370370
        k(   20) = (   0.1666667   0.0000000  -0.4999677), wk =   0.0185185
        k(   21) = (   0.1666667   0.1585620   0.0000000), wk =   0.0370370
        k(   22) = (   0.1666667   0.1585620   0.1666559), wk =   0.0740741
        k(   23) = (   0.1666667   0.1585620   0.3333118), wk =   0.0740741
        k(   24) = (   0.1666667   0.1585620  -0.4999677), wk =   0.0370370
        k(   25) = (   0.1666667   0.3171241   0.0000000), wk =   0.0370370
        k(   26) = (   0.1666667   0.3171241   0.1666559), wk =   0.0740741
        k(   27) = (   0.1666667   0.3171241   0.3333118), wk =   0.0740741
        k(   28) = (   0.1666667   0.3171241  -0.4999677), wk =   0.0370370
        k(   29) = (   0.1666667  -0.4756861   0.0000000), wk =   0.0185185
        k(   30) = (   0.1666667  -0.4756861   0.1666559), wk =   0.0370370
        k(   31) = (   0.1666667  -0.4756861   0.3333118), wk =   0.0370370
        k(   32) = (   0.1666667  -0.4756861  -0.4999677), wk =   0.0185185
        k(   33) = (   0.3333333   0.0000000   0.0000000), wk =   0.0185185
        k(   34) = (   0.3333333   0.0000000   0.1666559), wk =   0.0370370
        k(   35) = (   0.3333333   0.0000000   0.3333118), wk =   0.0370370
        k(   36) = (   0.3333333   0.0000000  -0.4999677), wk =   0.0185185
        k(   37) = (   0.3333333   0.1585620   0.0000000), wk =   0.0370370
        k(   38) = (   0.3333333   0.1585620   0.1666559), wk =   0.0740741
        k(   39) = (   0.3333333   0.1585620   0.3333118), wk =   0.0740741
        k(   40) = (   0.3333333   0.1585620  -0.4999677), wk =   0.0370370
        k(   41) = (   0.3333333   0.3171241   0.0000000), wk =   0.0370370
        k(   42) = (   0.3333333   0.3171241   0.1666559), wk =   0.0740741
        k(   43) = (   0.3333333   0.3171241   0.3333118), wk =   0.0740741
        k(   44) = (   0.3333333   0.3171241  -0.4999677), wk =   0.0370370
        k(   45) = (   0.3333333  -0.4756861   0.0000000), wk =   0.0185185
        k(   46) = (   0.3333333  -0.4756861   0.1666559), wk =   0.0370370
        k(   47) = (   0.3333333  -0.4756861   0.3333118), wk =   0.0370370
        k(   48) = (   0.3333333  -0.4756861  -0.4999677), wk =   0.0185185
        k(   49) = (  -0.5000000   0.0000000   0.0000000), wk =   0.0092593
        k(   50) = (  -0.5000000   0.0000000   0.1666559), wk =   0.0185185
        k(   51) = (  -0.5000000   0.0000000   0.3333118), wk =   0.0185185
        k(   52) = (  -0.5000000   0.0000000  -0.4999677), wk =   0.0092593
        k(   53) = (  -0.5000000   0.1585620   0.0000000), wk =   0.0185185
        k(   54) = (  -0.5000000   0.1585620   0.1666559), wk =   0.0370370
        k(   55) = (  -0.5000000   0.1585620   0.3333118), wk =   0.0370370
        k(   56) = (  -0.5000000   0.1585620  -0.4999677), wk =   0.0185185
        k(   57) = (  -0.5000000   0.3171241   0.0000000), wk =   0.0185185
        k(   58) = (  -0.5000000   0.3171241   0.1666559), wk =   0.0370370
        k(   59) = (  -0.5000000   0.3171241   0.3333118), wk =   0.0370370
        k(   60) = (  -0.5000000   0.3171241  -0.4999677), wk =   0.0185185
        k(   61) = (  -0.5000000  -0.4756861   0.0000000), wk =   0.0092593
        k(   62) = (  -0.5000000  -0.4756861   0.1666559), wk =   0.0185185
        k(   63) = (  -0.5000000  -0.4756861   0.3333118), wk =   0.0185185
        k(   64) = (  -0.5000000  -0.4756861  -0.4999677), wk =   0.0092593

     Dense  grid:   501065 G-vectors     FFT dimensions: ( 100, 108, 100)

     Estimated max dynamical RAM per process >       3.14 GB

     Estimated total dynamical RAM >     125.75 GB

     Initial potential from superposition of free atoms

     starting charge  367.99656, renormalised to  368.05000
     Starting wfcs are  232 randomized atomic wfcs

     total cpu time spent up to now is       47.4 secs

     Self-consistent Calculation

     iteration #  1     ecut=   120.00 Ry     beta= 0.70
     Davidson diagonalization with overlap
     ethr =  1.00E-02,  avg # of iterations =  5.0

     total cpu time spent up to now is      204.3 secs

     total energy              =   -6253.91678805 Ry
     Harris-Foulkes estimate   =   -6264.57044825 Ry
     estimated scf accuracy    <      13.48369222 Ry

     iteration #  2     ecut=   120.00 Ry     beta= 0.70
     Davidson diagonalization with overlap
     ethr =  3.66E-03,  avg # of iterations =  3.5

     total cpu time spent up to now is      354.8 secs

     total energy              =   -6250.74249284 Ry
     Harris-Foulkes estimate   =   -6270.81561805 Ry
     estimated scf accuracy    <      53.96251259 Ry

     iteration #  3     ecut=   120.00 Ry     beta= 0.70
     Davidson diagonalization with overlap
     ethr =  3.66E-03,  avg # of iterations =  3.4

     total cpu time spent up to now is      498.9 secs

     total energy              =   -6261.05633902 Ry
     Harris-Foulkes estimate   =   -6261.34003649 Ry
     estimated scf accuracy    <       0.93486748 Ry

     iteration #  4     ecut=   120.00 Ry     beta= 0.70
     Davidson diagonalization with overlap
     ethr =  2.54E-04,  avg # of iterations =  2.9

     total cpu time spent up to now is      616.1 secs

     total energy              =   -6261.05486404 Ry
     Harris-Foulkes estimate   =   -6261.12625310 Ry
     estimated scf accuracy    <       0.22407686 Ry

     iteration #  5     ecut=   120.00 Ry     beta= 0.70
     Davidson diagonalization with overlap
     ethr =  6.09E-05,  avg # of iterations =  5.1

     total cpu time spent up to now is      744.3 secs

     total energy              =   -6261.05805169 Ry
     Harris-Foulkes estimate   =   -6261.08835787 Ry
     estimated scf accuracy    <       0.06841559 Ry

     iteration #  6     ecut=   120.00 Ry     beta= 0.70
     Davidson diagonalization with overlap
     ethr =  1.86E-05,  avg # of iterations =  5.1

     total cpu time spent up to now is      876.5 secs

     total energy              =   -6261.07256299 Ry
     Harris-Foulkes estimate   =   -6261.07513779 Ry
     estimated scf accuracy    <       0.00667180 Ry

     iteration #  7     ecut=   120.00 Ry     beta= 0.70
     Davidson diagonalization with overlap
     ethr =  1.81E-06,  avg # of iterations =  5.1

     total cpu time spent up to now is     1000.7 secs

     total energy              =   -6261.07351061 Ry
     Harris-Foulkes estimate   =   -6261.07356597 Ry
     estimated scf accuracy    <       0.00010048 Ry

     iteration #  8     ecut=   120.00 Ry     beta= 0.70
     Davidson diagonalization with overlap
     ethr =  2.73E-08,  avg # of iterations =  3.4

     total cpu time spent up to now is     1159.3 secs

     total energy              =   -6261.07356112 Ry
     Harris-Foulkes estimate   =   -6261.07356779 Ry
     estimated scf accuracy    <       0.00003553 Ry

     iteration #  9     ecut=   120.00 Ry     beta= 0.70
     Davidson diagonalization with overlap
     ethr =  9.65E-09,  avg # of iterations =  2.0

     total cpu time spent up to now is     1272.1 secs

     total energy              =   -6261.07355615 Ry
     Harris-Foulkes estimate   =   -6261.07356300 Ry
     estimated scf accuracy    <       0.00001893 Ry

     iteration # 10     ecut=   120.00 Ry     beta= 0.70
     Davidson diagonalization with overlap
     ethr =  5.14E-09,  avg # of iterations =  2.0

     total cpu time spent up to now is     1386.0 secs

     total energy              =   -6261.07355858 Ry
     Harris-Foulkes estimate   =   -6261.07355887 Ry
     estimated scf accuracy    <       0.00000065 Ry

     iteration # 11     ecut=   120.00 Ry     beta= 0.70
     Davidson diagonalization with overlap
     ethr =  1.76E-10,  avg # of iterations =  2.9

     total cpu time spent up to now is     1525.4 secs

     total energy              =   -6261.07355875 Ry
     Harris-Foulkes estimate   =   -6261.07355878 Ry
     estimated scf accuracy    <       0.00000010 Ry

     iteration # 12     ecut=   120.00 Ry     beta= 0.70
     Davidson diagonalization with overlap
     ethr =  2.76E-11,  avg # of iterations =  1.9

     total cpu time spent up to now is     1636.6 secs

     total energy              =   -6261.07355873 Ry
     Harris-Foulkes estimate   =   -6261.07355876 Ry
     estimated scf accuracy    <       0.00000006 Ry

     iteration # 13     ecut=   120.00 Ry     beta= 0.70
     Davidson diagonalization with overlap
     ethr =  1.55E-11,  avg # of iterations =  2.0

     total cpu time spent up to now is     1768.8 secs

     End of self-consistent calculation

          k = 0.0000 0.0000 0.0000 ( 62635 PWs)   bands (ev):

   -66.2557 -66.2552 -66.2548 -66.2547 -66.2543 -66.2543 -66.2538 -66.2534
   -30.6445 -30.6414 -30.6413 -30.6383 -30.5998 -30.5993 -30.5968 -30.5960
   -30.5948 -30.5942 -30.5919 -30.5910 -30.5818 -30.5803 -30.5797 -30.5783
   -30.5030 -30.5029 -30.5003 -30.5001 -30.4988 -30.4986 -30.4960 -30.4958
   -20.4158 -20.4157 -20.4157 -20.4157 -20.4156 -20.4156 -20.4156 -20.4155
   -20.3978 -20.3976 -20.3976 -20.3974 -20.3938 -20.3936 -20.3934 -20.3931
   -20.3931 -20.3929 -20.3927 -20.3923 -20.3921 -20.3920 -20.3920 -20.3918
   -20.3918 -20.3917 -20.3917 -20.3914 -20.3913 -20.3912 -20.3908 -20.3907
   -20.3852 -20.3849 -20.3849 -20.3847 -20.3847 -20.3844 -20.3840 -20.3839
   -20.3834 -20.3833 -20.3832 -20.3831 -20.3830 -20.3830 -20.3829 -20.3828
   -20.3776 -20.3775 -20.3771 -20.3770 -20.3769 -20.3768 -20.3765 -20.3764
   -10.0301  -9.7358  -9.6112  -9.6112  -9.3310  -9.3303  -9.1781  -9.1160
    -9.1014  -8.9560  -8.9379  -8.9378  -7.9246  -7.8648  -7.8642  -7.8503
    -7.8493  -7.8241  -7.8240  -7.8128  -7.7280  -7.7276  -7.7059  -7.7059
     1.0820   1.0820   1.1753   1.1761   1.1958   1.1972   1.2512   1.5062
     1.5071   1.5074   1.5132   1.7114   2.3525   2.4336   2.4851   2.4857
     2.6102   2.6112   4.0578   4.0594   4.2724   4.2751   4.7075   4.7082
     4.7413   4.7415   4.7508   4.7553   4.9101   4.9101   4.9911   5.3887
     5.3906   5.4536   5.4615   5.4724   5.4728   5.4942   5.5015   5.7395
     5.7419   5.8007   5.8008   5.8749   5.8986   6.0019   6.0031   6.0305
     6.0309   6.2148   6.2173   6.4733   6.4739   6.6942   6.6967   6.7225
     6.7239   6.8038   6.9755   6.9765   7.0249   7.0258   7.2582   7.2598
     7.2937   7.2951   7.8644   7.8755   8.0311   8.0339   8.0917   8.0946
     9.0931   9.0968   9.8683   9.8689   9.8695   9.8704  12.2073  12.2138
    12.2483  12.2585  12.2727  12.2758  12.4166  12.4186  12.9296  12.9421
    13.1775  13.1857  13.3128  13.3157  13.6554  14.0607  14.0939  14.0947
    14.1016  14.1968  14.2293  14.7916  15.1393  15.1491  15.4172  15.8403
    15.8421  16.6713  16.9605  16.9627  17.3607

          k = 0.0000 0.0000 0.1667 ( 62605 PWs)   bands (ev):

   -66.2556 -66.2552 -66.2548 -66.2547 -66.2544 -66.2543 -66.2539 -66.2535
   -30.6445 -30.6417 -30.6414 -30.6386 -30.5989 -30.5966 -30.5945 -30.5944
   -30.5922 -30.5900 -30.5894 -30.5845 -30.5802 -30.5800 -30.5790 -30.5787
   -30.5094 -30.5067 -30.5051 -30.5026 -30.5024 -30.4998 -30.4989 -30.4961
   -20.4158 -20.4157 -20.4157 -20.4157 -20.4156 -20.4156 -20.4156 -20.4156
   -20.3978 -20.3977 -20.3976 -20.3975 -20.3936 -20.3935 -20.3934 -20.3931
   -20.3930 -20.3929 -20.3927 -20.3923 -20.3921 -20.3921 -20.3920 -20.3919
   -20.3917 -20.3917 -20.3916 -20.3914 -20.3914 -20.3911 -20.3909 -20.3907
   -20.3850 -20.3848 -20.3847 -20.3847 -20.3847 -20.3844 -20.3840 -20.3839
   -20.3835 -20.3834 -20.3832 -20.3831 -20.3828 -20.3827 -20.3825 -20.3824
   -20.3779 -20.3775 -20.3774 -20.3772 -20.3771 -20.3769 -20.3768 -20.3765
    -9.9846  -9.6831  -9.6266  -9.5505  -9.3428  -9.2420  -9.1868  -9.0783
    -9.0606  -8.9437  -8.9416  -8.9078  -7.9707  -7.9569  -7.9276  -7.8684
    -7.8578  -7.8568  -7.8400  -7.8335  -7.8165  -7.8161  -7.7355  -7.7137
     1.1590   1.1720   1.1775   1.2020   1.3174   1.3572   1.4551   1.4999
     1.5051   1.5846   1.6815   1.8334   2.4371   2.4927   2.5230   2.5735
     2.6028   2.6989   4.0059   4.0530   4.2549   4.2766   4.2854   4.3741
     4.5676   4.6585   4.7477   4.7885   4.7991   4.8976   4.9758   5.2220
     5.3012   5.3713   5.4443   5.4615   5.5010   5.5123   5.5340   5.5654
     5.6267   5.6980   5.7393   5.8320   5.9098   6.0050   6.0589   6.0836
     6.2297   6.3774   6.4396   6.4643   6.5581   6.5875   6.6740   6.7174
     6.7638   6.7814   6.9106   6.9266   6.9676   7.0285   7.0338   7.0375
     7.0860   7.1479   7.8562   7.8578   7.9932   8.0475   8.0501   8.0926
     9.4513   9.4791   9.8682   9.8691  10.1401  10.1616  12.1150  12.1569
    12.2282  12.2646  12.2980  12.3272  12.4205  12.5122  12.8934  12.9748
    12.9755  13.1794  13.2268  13.3131  13.7876  13.9473  13.9638  14.0592
    14.1007  14.2245  14.3443  14.8979  15.1907  15.2216  15.3824  15.8169
    16.1759  16.7016  16.8450  17.1465  17.4096

          k = 0.0000 0.0000 0.3333 ( 62586 PWs)   bands (ev):

   -66.2554 -66.2550 -66.2550 -66.2546 -66.2545 -66.2541 -66.2541 -66.2537
   -30.6443 -30.6425 -30.6412 -30.6394 -30.5980 -30.5957 -30.5955 -30.5932
   -30.5850 -30.5841 -30.5809 -30.5796 -30.5717 -30.5711 -30.5677 -30.5669
   -30.5266 -30.5241 -30.5222 -30.5197 -30.5018 -30.4997 -30.4990 -30.4969
   -20.4157 -20.4157 -20.4157 -20.4157 -20.4156 -20.4156 -20.4156 -20.4156
   -20.3978 -20.3977 -20.3976 -20.3975 -20.3933 -20.3933 -20.3931 -20.3930
   -20.3929 -20.3927 -20.3925 -20.3925 -20.3924 -20.3923 -20.3920 -20.3920
   -20.3919 -20.3917 -20.3916 -20.3915 -20.3914 -20.3911 -20.3910 -20.3908
   -20.3848 -20.3847 -20.3847 -20.3845 -20.3844 -20.3842 -20.3840 -20.3839
   -20.3838 -20.3837 -20.3835 -20.3834 -20.3818 -20.3817 -20.3813 -20.3813
   -20.3790 -20.3786 -20.3783 -20.3781 -20.3774 -20.3772 -20.3768 -20.3766
    -9.8750  -9.6747  -9.5626  -9.4089  -9.3813  -9.2169  -9.0024  -8.9884
    -8.9523  -8.9151  -8.8582  -8.7908  -8.2704  -8.2694  -8.1952  -8.1749
    -7.9024  -7.8782  -7.8492  -7.8251  -7.8175  -7.7944  -7.7572  -7.7350
     1.1811   1.1852   1.2145   1.2288   1.4333   1.4498   1.4852   1.4877
     2.1507   2.1796   2.3286   2.3949   2.5136   2.5925   2.6811   2.7842
     2.8111   2.9307   3.6789   3.7717   3.7761   3.8503   4.0878   4.1365
     4.1985   4.3815   4.4861   4.7169   4.7205   4.7449   4.8843   4.9254
     5.0489   5.0815   5.1183   5.2883   5.3860   5.3883   5.5803   5.5855
     5.6602   5.6633   5.7304   5.8918   5.9329   6.0530   6.2207   6.2225
     6.2473   6.2725   6.4246   6.4317   6.4632   6.4880   6.5575   6.6740
     6.7122   6.7315   6.7558   6.9119   6.9579   6.9988   7.0302   7.0494
     7.2490   7.2830   7.7383   7.7669   7.8710   7.9077   8.0786   8.0939
     9.8651   9.8680  10.1904  10.2490  10.7753  10.8518  11.7039  11.7434
    12.0482  12.4137  12.4162  12.4262  12.4467  12.5536  12.6027  12.7744
    12.8957  13.0509  13.1234  13.3198  13.6043  13.6195  13.9925  14.0545
    14.1231  14.2091  14.7075  15.1776  15.2691  15.3796  15.6763  15.7376
    16.1669  17.0686  17.2338  17.4029  17.7146

          k = 0.0000 0.0000-0.5000 ( 62628 PWs)   bands (ev):

   -66.2552 -66.2552 -66.2548 -66.2548 -66.2543 -66.2543 -66.2539 -66.2539
   -30.6435 -30.6435 -30.6404 -30.6404 -30.5967 -30.5967 -30.5944 -30.5944
   -30.5824 -30.5824 -30.5812 -30.5812 -30.5498 -30.5498 -30.5479 -30.5479
   -30.5454 -30.5454 -30.5433 -30.5433 -30.5008 -30.5008 -30.4980 -30.4980
   -20.4157 -20.4157 -20.4157 -20.4156 -20.4156 -20.4156 -20.4156 -20.4156
   -20.3978 -20.3978 -20.3976 -20.3976 -20.3932 -20.3932 -20.3928 -20.3928
   -20.3927 -20.3927 -20.3926 -20.3926 -20.3923 -20.3923 -20.3923 -20.3923
   -20.3917 -20.3917 -20.3916 -20.3916 -20.3914 -20.3914 -20.3909 -20.3909
   -20.3848 -20.3848 -20.3842 -20.3842 -20.3842 -20.3841 -20.3840 -20.3840
   -20.3839 -20.3839 -20.3838 -20.3838 -20.3804 -20.3804 -20.3802 -20.3801
   -20.3799 -20.3799 -20.3797 -20.3797 -20.3773 -20.3773 -20.3767 -20.3767
    -9.7591  -9.7591  -9.4518  -9.4518  -9.2838  -9.2838  -8.9693  -8.9693
    -8.6342  -8.6342  -8.6126  -8.6126  -8.6085  -8.6084  -8.5336  -8.5336
    -7.8912  -7.8912  -7.8373  -7.8373  -7.7872  -7.7872  -7.7645  -7.7645
     1.1850   1.1851   1.2282   1.2282   1.4685   1.4685   1.4699   1.4699
     2.5404   2.5404   2.8723   2.8723   3.0213   3.0213   3.0343   3.0343
     3.1880   3.1880   3.2544   3.2544   3.3239   3.3239   3.6982   3.6982
     3.8241   3.8241   4.3196   4.3196   4.6814   4.6814   4.8489   4.8489
     5.1728   5.1728   5.2213   5.2213   5.2456   5.2456   5.6248   5.6248
     5.6808   5.6808   5.8513   5.8513   6.0684   6.0684   6.1526   6.1526
     6.2121   6.2121   6.3685   6.3686   6.3763   6.3763   6.4574   6.4574
     6.7129   6.7129   6.7329   6.7329   7.0157   7.0157   7.4326   7.4326
     7.5009   7.5009   7.6364   7.6364   7.6488   7.6488   8.0919   8.0919
     9.8664   9.8664  11.0022  11.0022  11.0600  11.0600  11.4981  11.4982
    11.6696  11.6696  12.4574  12.4574  12.6437  12.6437  12.7265  12.7265
    12.8921  12.8921  13.1724  13.1724  13.3686  13.3686  14.0440  14.0440
    14.1778  14.1778  15.0510  15.0510  15.5931  15.5931  15.6185  15.6185
    16.4792  16.4792  17.7085  17.7085  18.0556

          k = 0.0000 0.1586 0.0000 ( 62595 PWs)   bands (ev):

   -66.2556 -66.2553 -66.2547 -66.2547 -66.2544 -66.2543 -66.2538 -66.2534
   -30.6405 -30.6374 -30.6373 -30.6343 -30.5997 -30.5990 -30.5973 -30.5962
   -30.5947 -30.5939 -30.5925 -30.5912 -30.5856 -30.5843 -30.5834 -30.5824
   -30.5028 -30.5027 -30.5005 -30.5003 -30.4986 -30.4984 -30.4962 -30.4960
   -20.4158 -20.4157 -20.4157 -20.4157 -20.4156 -20.4156 -20.4156 -20.4156
   -20.3975 -20.3973 -20.3972 -20.3970 -20.3937 -20.3936 -20.3935 -20.3931
   -20.3931 -20.3929 -20.3928 -20.3924 -20.3924 -20.3923 -20.3921 -20.3921
   -20.3920 -20.3917 -20.3916 -20.3914 -20.3914 -20.3912 -20.3909 -20.3907
   -20.3852 -20.3848 -20.3848 -20.3848 -20.3846 -20.3845 -20.3840 -20.3840
   -20.3833 -20.3833 -20.3832 -20.3831 -20.3830 -20.3830 -20.3830 -20.3828
   -20.3775 -20.3774 -20.3771 -20.3770 -20.3769 -20.3768 -20.3765 -20.3764
   -10.0000  -9.7476  -9.5744  -9.5743  -9.3386  -9.3381  -9.1150  -9.1030
    -9.1024  -8.9094  -8.8984  -8.8983  -8.0219  -7.9670  -7.9666  -7.9221
    -7.8486  -7.8483  -7.8259  -7.8258  -7.7266  -7.7264  -7.7075  -7.7074
     1.0820   1.0820   1.1854   1.1864   1.1958   1.1972   1.3768   1.5067
     1.6880   1.7418   1.7426   1.9005   2.3577   2.4280   2.5569   2.5576
     2.6783   2.6795   3.9175   3.9194   4.0093   4.0115   4.7094   4.7110
     4.7302   4.7353   4.7364   4.8169   4.8300   4.8814   4.8817   5.1952
     5.1964   5.3840   5.3840   5.5459   5.5459   5.5467   5.5901   5.5939
     5.7325   5.7335   5.8227   5.8240   5.9144   5.9942   5.9947   6.0405
     6.0407   6.1944   6.1981   6.4960   6.4972   6.7272   6.7288   6.7652
     6.7680   6.7957   6.8159   6.9379   6.9385   6.9649   7.2643   7.2657
     7.2933   7.2945   7.8680   7.8750   7.9834   7.9857   8.0094   8.0115
     9.0933   9.0967  10.0521  10.0522  10.0726  10.0726  12.1153  12.1181
    12.2276  12.2285  12.2605  12.2621  12.2718  12.2731  12.9317  12.9421
    13.2120  13.2188  13.3246  13.3272  13.9422  13.9944  13.9964  14.0038
    14.0415  14.4673  14.4751  14.9664  15.1397  15.1480  15.8072  15.8088
    15.8221  16.3736  17.1072  17.1094  17.3931

          k = 0.0000 0.1586 0.1667 ( 62615 PWs)   bands (ev):

   -66.2556 -66.2552 -66.2548 -66.2547 -66.2544 -66.2543 -66.2539 -66.2535
   -30.6405 -30.6377 -30.6374 -30.6346 -30.5987 -30.5972 -30.5947 -30.5943
   -30.5929 -30.5908 -30.5896 -30.5847 -30.5837 -30.5833 -30.5827 -30.5822
   -30.5092 -30.5069 -30.5049 -30.5025 -30.5024 -30.5000 -30.4987 -30.4963
   -20.4158 -20.4157 -20.4157 -20.4157 -20.4156 -20.4156 -20.4156 -20.4156
   -20.3975 -20.3973 -20.3973 -20.3971 -20.3936 -20.3935 -20.3934 -20.3931
   -20.3930 -20.3929 -20.3928 -20.3924 -20.3924 -20.3923 -20.3922 -20.3921
   -20.3920 -20.3917 -20.3916 -20.3915 -20.3914 -20.3912 -20.3910 -20.3907
   -20.3850 -20.3848 -20.3847 -20.3847 -20.3846 -20.3844 -20.3840 -20.3840
   -20.3835 -20.3834 -20.3832 -20.3831 -20.3828 -20.3827 -20.3825 -20.3824
   -20.3778 -20.3775 -20.3774 -20.3773 -20.3771 -20.3769 -20.3768 -20.3765
    -9.9534  -9.6949  -9.5898  -9.5092  -9.3507  -9.2498  -9.1118  -9.0765
    -9.0616  -8.9022  -8.8991  -8.8727  -8.0237  -7.9897  -7.9690  -7.9665
    -7.9312  -7.9307  -7.8553  -7.8391  -7.8327  -7.8181  -7.7343  -7.7152
     1.1675   1.1720   1.1899   1.2020   1.4174   1.4549   1.4799   1.6807
     1.6989   1.7369   1.7638   1.9559   2.4435   2.5166   2.5644   2.6472
     2.6716   2.7667   3.8938   3.9297   3.9970   4.0400   4.3048   4.3714
     4.6111   4.6239   4.7147   4.7778   4.7848   4.8324   4.8863   5.1578
     5.1903   5.2198   5.2271   5.4083   5.4902   5.5047   5.5575   5.6241
     5.6462   5.6994   5.7668   5.7731   5.8053   6.0038   6.0768   6.1013
     6.1371   6.3722   6.4015   6.4873   6.6081   6.6841   6.6915   6.7551
     6.7583   6.7954   6.8878   6.9036   6.9362   6.9451   7.0285   7.0353
     7.1003   7.1498   7.8577   7.8586   7.9466   7.9725   7.9869   8.0106
     9.4558   9.4777  10.0547  10.0720  10.3064  10.3131  12.0967  12.1307
    12.1549  12.1965  12.2633  12.2643  12.2793  12.3953  12.8993  12.9747
    13.0134  13.2116  13.2349  13.3231  13.8467  13.8721  13.9771  13.9930
    14.1354  14.4699  14.6396  15.0595  15.1902  15.2235  15.7840  15.7877
    16.1404  16.5329  16.8385  17.2717  17.4582

          k = 0.0000 0.1586 0.3333 ( 62631 PWs)   bands (ev):

   -66.2554 -66.2550 -66.2549 -66.2546 -66.2545 -66.2541 -66.2540 -66.2537
   -30.6402 -30.6385 -30.6372 -30.6354 -30.5978 -30.5963 -30.5952 -30.5938
   -30.5879 -30.5872 -30.5846 -30.5836 -30.5720 -30.5719 -30.5681 -30.5671
   -30.5265 -30.5243 -30.5221 -30.5198 -30.5017 -30.4995 -30.4992 -30.4971
   -20.4157 -20.4157 -20.4157 -20.4157 -20.4156 -20.4156 -20.4156 -20.4156
   -20.3975 -20.3974 -20.3973 -20.3972 -20.3933 -20.3932 -20.3931 -20.3930
   -20.3929 -20.3927 -20.3927 -20.3926 -20.3925 -20.3924 -20.3924 -20.3922
   -20.3919 -20.3919 -20.3917 -20.3915 -20.3915 -20.3912 -20.3911 -20.3908
   -20.3848 -20.3847 -20.3847 -20.3845 -20.3844 -20.3842 -20.3840 -20.3840
   -20.3838 -20.3837 -20.3835 -20.3834 -20.3818 -20.3817 -20.3814 -20.3813
   -20.3789 -20.3786 -20.3784 -20.3781 -20.3774 -20.3771 -20.3768 -20.3766
    -9.8411  -9.6380  -9.5739  -9.3899  -9.3536  -9.1426  -8.9966  -8.9830
    -8.9169  -8.9133  -8.8339  -8.7697  -8.2769  -8.2673  -8.2102  -8.1727
    -7.9953  -7.9752  -7.9501  -7.9252  -7.8165  -7.7960  -7.7560  -7.7366
     1.1990   1.2112   1.2144   1.2287   1.6263   1.6537   1.7330   1.7358
     2.1492   2.1919   2.3296   2.4142   2.5845   2.6558   2.6920   2.7808
     2.8855   2.9904   3.6777   3.7661   3.7666   3.7963   4.0006   4.0105
     4.1482   4.2387   4.5025   4.6644   4.6876   4.7481   4.7517   4.7932
     4.9416   5.0201   5.0363   5.0798   5.2832   5.3353   5.3974   5.5521
     5.6210   5.6778   5.7455   5.7887   5.8628   6.0415   6.1010   6.2153
     6.2764   6.4483   6.4527   6.4616   6.5377   6.5924   6.6086   6.6930
     6.7022   6.7599   6.8129   6.9019   6.9380   6.9563   6.9994   7.0372
     7.2417   7.2772   7.7425   7.7642   7.8321   7.8478   8.0043   8.0129
    10.0538  10.0670  10.1975  10.2521  10.8905  10.9474  11.7053  11.7411
    12.0053  12.2738  12.3816  12.4389  12.4422  12.4803  12.5548  12.6661
    12.8834  13.0569  13.1425  13.3220  13.5074  13.5292  13.9845  13.9906
    14.3353  14.4537  15.0519  15.3181  15.3691  15.6741  15.7009  15.7067
    16.3036  17.0126  17.0257  17.2897  17.6832

          k = 0.0000 0.1586-0.5000 ( 62602 PWs)   bands (ev):

   -66.2552 -66.2552 -66.2548 -66.2548 -66.2543 -66.2543 -66.2539 -66.2539
   -30.6395 -30.6395 -30.6364 -30.6364 -30.5965 -30.5965 -30.5950 -30.5950
   -30.5860 -30.5860 -30.5851 -30.5851 -30.5498 -30.5498 -30.5481 -30.5480
   -30.5453 -30.5453 -30.5434 -30.5434 -30.5006 -30.5006 -30.4981 -30.4981
   -20.4157 -20.4157 -20.4157 -20.4156 -20.4156 -20.4156 -20.4156 -20.4156
   -20.3974 -20.3974 -20.3972 -20.3972 -20.3931 -20.3931 -20.3928 -20.3928
   -20.3928 -20.3928 -20.3927 -20.3927 -20.3926 -20.3926 -20.3923 -20.3923
   -20.3920 -20.3920 -20.3916 -20.3916 -20.3914 -20.3914 -20.3909 -20.3909
   -20.3847 -20.3847 -20.3843 -20.3842 -20.3842 -20.3841 -20.3840 -20.3840
   -20.3839 -20.3839 -20.3838 -20.3838 -20.3804 -20.3804 -20.3801 -20.3801
   -20.3799 -20.3799 -20.3797 -20.3797 -20.3773 -20.3773 -20.3767 -20.3767
    -9.7232  -9.7232  -9.4617  -9.4617  -9.2142  -9.2141  -8.9332  -8.9332
    -8.6380  -8.6380  -8.6219  -8.6219  -8.6029  -8.6029  -8.5267  -8.5267
    -7.9876  -7.9876  -7.9391  -7.9391  -7.7860  -7.7860  -7.7661  -7.7661
     1.2094   1.2094   1.2281   1.2281   1.6530   1.6530   1.7397   1.7397
     2.6089   2.6089   2.8919   2.8919   3.0258   3.0258   3.0642   3.0642
     3.1929   3.1929   3.2504   3.2504   3.3131   3.3131   3.7002   3.7002
     3.8731   3.8731   4.1359   4.1359   4.5913   4.5913   4.6857   4.6857
     4.9840   4.9840   5.2025   5.2025   5.2037   5.2037   5.4124   5.4124
     5.6269   5.6269   5.7692   5.7692   6.0605   6.0605   6.2170   6.2170
     6.2296   6.2296   6.3997   6.3997   6.4439   6.4439   6.5731   6.5731
     6.7384   6.7384   6.7961   6.7961   6.9241   6.9242   7.4444   7.4444
     7.4946   7.4946   7.6073   7.6073   7.6191   7.6192   8.0127   8.0127
    10.0635  10.0635  11.0064  11.0064  11.0579  11.0579  11.5643  11.5643
    11.7324  11.7324  12.3202  12.3202  12.6176  12.6176  12.7362  12.7362
    12.8243  12.8243  13.0749  13.0749  13.3441  13.3441  13.9874  13.9874
    14.4198  14.4198  15.4244  15.4244  15.5688  15.5688  15.7708  15.7708
    16.5244  16.5244  17.5057  17.5057  18.0450

          k = 0.0000 0.3171 0.0000 ( 62619 PWs)   bands (ev):

   -66.2556 -66.2553 -66.2547 -66.2546 -66.2544 -66.2544 -66.2537 -66.2535
   -30.6295 -30.6264 -30.6263 -30.6234 -30.6019 -30.5983 -30.5983 -30.5976
   -30.5972 -30.5968 -30.5939 -30.5933 -30.5932 -30.5923 -30.5918 -30.5901
   -30.5023 -30.5022 -30.5010 -30.5008 -30.4981 -30.4979 -30.4967 -30.4965
   -20.4157 -20.4157 -20.4157 -20.4156 -20.4156 -20.4156 -20.4156 -20.4156
   -20.3965 -20.3962 -20.3962 -20.3960 -20.3939 -20.3937 -20.3935 -20.3934
   -20.3934 -20.3932 -20.3932 -20.3931 -20.3930 -20.3927 -20.3926 -20.3924
   -20.3919 -20.3916 -20.3916 -20.3915 -20.3913 -20.3913 -20.3910 -20.3908
   -20.3851 -20.3849 -20.3848 -20.3846 -20.3845 -20.3845 -20.3842 -20.3841
   -20.3833 -20.3833 -20.3832 -20.3831 -20.3830 -20.3830 -20.3830 -20.3829
   -20.3774 -20.3773 -20.3771 -20.3770 -20.3769 -20.3769 -20.3766 -20.3765
    -9.9266  -9.7840  -9.4909  -9.4906  -9.3638  -9.3633  -9.1123  -9.1051
    -8.8907  -8.7653  -8.7652  -8.7644  -8.2705  -8.2241  -8.2238  -8.1985
    -7.8438  -7.8438  -7.8308  -7.8307  -7.7226  -7.7225  -7.7116  -7.7115
     1.0820   1.0820   1.1926   1.1937   1.1956   1.1969   1.4741   1.5041
     2.2624   2.3722   2.4099   2.4111   2.4128   2.5729   2.7684   2.7701
     2.8774   2.8796   3.5422   3.5446   3.5699   3.5723   4.0578   4.3752
     4.3768   4.6568   4.7161   4.7182   4.7431   4.7454   4.9565   4.9576
     4.9890   4.9903   5.2929   5.2936   5.5259   5.5263   5.5902   5.5911
     5.7831   5.7833   5.8384   5.8391   5.9793   5.9801   6.0281   6.0622
     6.0622   6.1432   6.1484   6.4766   6.5608   6.5621   6.7884   6.7895
     6.8483   6.9339   7.0051   7.0052   7.0056   7.0057   7.2724   7.2731
     7.2957   7.2964   7.7668   7.7679   7.7936   7.7947   7.8715   7.8743
     9.0940   9.0960  10.5307  10.5324  10.5858  10.5867  11.7212  11.7246
    11.8302  11.8317  12.2481  12.2499  12.2684  12.2696  12.9360  12.9415
    13.3213  13.3252  13.3950  13.3974  13.7630  13.7636  13.7842  13.7878
    14.6174  15.0206  15.0223  15.1409  15.1455  15.5718  15.6949  15.6960
    15.8133  16.8276  17.1321  17.6008  17.6028

          k = 0.0000 0.3171 0.1667 ( 62604 PWs)   bands (ev):

   -66.2555 -66.2553 -66.2547 -66.2546 -66.2545 -66.2544 -66.2538 -66.2536
   -30.6295 -30.6267 -30.6265 -30.6237 -30.6016 -30.5983 -30.5980 -30.5979
   -30.5951 -30.5937 -30.5936 -30.5905 -30.5901 -30.5895 -30.5857 -30.5852
   -30.5087 -30.5074 -30.5044 -30.5030 -30.5019 -30.5005 -30.4982 -30.4968
   -20.4157 -20.4157 -20.4157 -20.4157 -20.4156 -20.4156 -20.4156 -20.4156
   -20.3965 -20.3963 -20.3962 -20.3961 -20.3938 -20.3935 -20.3935 -20.3934
   -20.3934 -20.3932 -20.3931 -20.3930 -20.3928 -20.3928 -20.3925 -20.3925
   -20.3920 -20.3917 -20.3916 -20.3915 -20.3913 -20.3913 -20.3911 -20.3909
   -20.3850 -20.3848 -20.3846 -20.3846 -20.3845 -20.3845 -20.3842 -20.3841
   -20.3835 -20.3834 -20.3832 -20.3831 -20.3828 -20.3826 -20.3826 -20.3825
   -20.3777 -20.3774 -20.3774 -20.3773 -20.3771 -20.3770 -20.3769 -20.3767
    -9.8774  -9.7315  -9.5058  -9.4150  -9.3766  -9.2757  -9.0728  -9.0645
    -8.8993  -8.7696  -8.7581  -8.7502  -8.2722  -8.2325  -8.2208  -8.2044
    -7.9645  -7.9508  -7.8513  -7.8398  -7.8344  -7.8227  -7.7304  -7.7193
     1.1707   1.1719   1.1982   1.2017   1.4456   1.4541   1.6372   1.6775
     2.2646   2.3878   2.4112   2.4589   2.5010   2.5606   2.7748   2.8713
     2.8714   2.9741   3.5439   3.5651   3.5842   3.6084   4.0508   4.3205
     4.3288   4.3900   4.4145   4.6594   4.6898   4.7687   4.7944   4.7973
     4.9579   4.9985   5.0915   5.2128   5.3386   5.3753   5.5304   5.5316
     5.5993   5.6539   5.6930   5.7660   5.9518   6.0141   6.0601   6.0849
     6.1942   6.3599   6.3847   6.5350   6.5518   6.7755   6.7995   6.8569
     6.8940   6.9046   6.9689   6.9976   6.9999   7.0127   7.0360   7.0392
     7.1363   7.1642   7.7428   7.7648   7.7689   7.7792   7.8599   7.8630
     9.4637   9.4745  10.5378  10.5854  10.7188  10.7580  11.7240  11.8181
    11.8319  11.9104  12.1368  12.1519  12.3009  12.3282  12.9206  12.9691
    13.1314  13.2883  13.3147  13.3913  13.6068  13.6560  13.7618  13.7816
    14.7481  15.0139  15.1868  15.2319  15.2581  15.6428  15.6731  15.9766
    16.0191  16.7898  17.2012  17.2700  17.7070

          k = 0.0000 0.3171 0.3333 ( 62608 PWs)   bands (ev):

   -66.2553 -66.2551 -66.2549 -66.2547 -66.2544 -66.2542 -66.2540 -66.2538
   -30.6293 -30.6275 -30.6263 -30.6245 -30.6010 -30.5988 -30.5971 -30.5971
   -30.5947 -30.5945 -30.5938 -30.5914 -30.5729 -30.5724 -30.5684 -30.5676
   -30.5261 -30.5248 -30.5216 -30.5203 -30.5011 -30.4997 -30.4990 -30.4976
   -20.4157 -20.4157 -20.4157 -20.4156 -20.4156 -20.4156 -20.4156 -20.4156
   -20.3965 -20.3963 -20.3963 -20.3961 -20.3938 -20.3936 -20.3935 -20.3933
   -20.3932 -20.3932 -20.3930 -20.3929 -20.3927 -20.3926 -20.3925 -20.3923
   -20.3922 -20.3920 -20.3918 -20.3915 -20.3914 -20.3912 -20.3912 -20.3909
   -20.3847 -20.3846 -20.3845 -20.3845 -20.3843 -20.3842 -20.3842 -20.3841
   -20.3838 -20.3837 -20.3835 -20.3834 -20.3817 -20.3816 -20.3815 -20.3814
   -20.3788 -20.3785 -20.3785 -20.3782 -20.3773 -20.3770 -20.3770 -20.3767
    -9.7595  -9.6095  -9.5533  -9.4178  -9.2194  -9.0258  -8.9514  -8.9316
    -8.9222  -8.7841  -8.7277  -8.6870  -8.3318  -8.3267  -8.2608  -8.2233
    -8.2140  -8.1713  -8.1660  -8.1042  -7.8124  -7.8005  -7.7521  -7.7408
     1.2098   1.2141   1.2238   1.2282   2.0708   2.1444   2.1726   2.2797
     2.3262   2.4026   2.4144   2.6219   2.7193   2.7521   2.7921   2.8645
     3.1105   3.1778   3.5234   3.5425   3.6110   3.6555   3.7496   3.7623
     4.0322   4.2197   4.3005   4.3236   4.3982   4.4963   4.5559   4.6853
     4.7200   4.7651   4.9034   4.9776   5.0408   5.0946   5.1192   5.2738
     5.2759   5.4807   5.5781   5.7250   6.0278   6.0723   6.1595   6.2221
     6.3577   6.5146   6.5331   6.5354   6.6032   6.7258   6.7408   6.7423
     6.8105   6.9100   6.9517   6.9755   6.9757   7.0533   7.0936   7.1096
     7.2144   7.2588   7.6635   7.6717   7.7289   7.7618   7.7752   7.8088
    10.2120  10.2307  10.5557  10.5798  11.2042  11.2322  11.6947  11.7282
    11.7347  11.8580  12.1130  12.1451  12.4651  12.5250  12.5611  12.6200
    12.8293  13.0806  13.1008  13.3036  13.3869  13.4027  13.7645  13.7778
    14.8791  14.9876  15.3271  15.6029  15.7920  15.8317  15.8750  16.4985
    16.6576  16.7298  16.8745  17.4356  17.4995

          k = 0.0000 0.3171-0.5000 ( 62592 PWs)   bands (ev):

   -66.2551 -66.2551 -66.2549 -66.2549 -66.2542 -66.2542 -66.2540 -66.2540
   -30.6285 -30.6285 -30.6255 -30.6255 -30.5999 -30.5999 -30.5959 -30.5959
   -30.5958 -30.5958 -30.5926 -30.5926 -30.5496 -30.5496 -30.5485 -30.5485
   -30.5451 -30.5451 -30.5439 -30.5439 -30.5001 -30.5001 -30.4987 -30.4987
   -20.4157 -20.4157 -20.4157 -20.4157 -20.4156 -20.4156 -20.4156 -20.4156
   -20.3964 -20.3964 -20.3962 -20.3962 -20.3937 -20.3937 -20.3935 -20.3935
   -20.3930 -20.3930 -20.3928 -20.3928 -20.3927 -20.3927 -20.3924 -20.3924
   -20.3922 -20.3922 -20.3918 -20.3918 -20.3913 -20.3913 -20.3910 -20.3910
   -20.3846 -20.3846 -20.3843 -20.3843 -20.3841 -20.3841 -20.3841 -20.3841
   -20.3839 -20.3839 -20.3839 -20.3839 -20.3803 -20.3803 -20.3800 -20.3800
   -20.3800 -20.3800 -20.3798 -20.3798 -20.3772 -20.3772 -20.3769 -20.3769
    -9.6383  -9.6383  -9.4934  -9.4934  -9.0244  -9.0244  -8.8234  -8.8234
    -8.6631  -8.6631  -8.6510  -8.6510  -8.5773  -8.5773  -8.4997  -8.4996
    -8.2230  -8.2230  -8.1858  -8.1858  -7.7820  -7.7820  -7.7704  -7.7704
     1.2227   1.2227   1.2277   1.2277   2.2663   2.2663   2.4013   2.4013
     2.8064   2.8064   2.9476   2.9476   2.9983   2.9983   3.1690   3.1690
     3.2096   3.2097   3.2352   3.2353   3.2761   3.2761   3.5397   3.5397
     3.9954   3.9954   4.0344   4.0344   4.0462   4.0462   4.2847   4.2847
     4.7380   4.7380   4.8454   4.8454   5.0351   5.0351   5.1716   5.1716
     5.3059   5.3059   5.6496   5.6496   6.1715   6.1715   6.2213   6.2213
     6.3817   6.3817   6.4467   6.4467   6.4739   6.4739   6.7047   6.7047
     6.9447   6.9447   6.9758   6.9758   7.0326   7.0326   7.4478   7.4478
     7.4751   7.4751   7.5025   7.5025   7.5388   7.5388   7.7848   7.7848
    10.5609  10.5609  11.0169  11.0169  11.0533  11.0533  11.6369  11.6369
    11.9237  11.9237  12.0401  12.0401  12.4871  12.4871  12.5782  12.5782
    12.7579  12.7579  12.8871  12.8871  13.3805  13.3805  13.7715  13.7715
    14.9418  14.9418  15.4841  15.4841  16.2222  16.2222  16.3656  16.3656
    16.7129  16.7129  17.1207  17.1207  17.8700

          k = 0.0000-0.4757 0.0000 ( 62658 PWs)   bands (ev):

   -66.2555 -66.2554 -66.2546 -66.2545 -66.2545 -66.2545 -66.2536 -66.2536
   -30.6146 -30.6146 -30.6115 -30.6115 -30.6113 -30.6113 -30.6085 -30.6084
   -30.5979 -30.5979 -30.5967 -30.5967 -30.5925 -30.5925 -30.5922 -30.5922
   -30.5017 -30.5016 -30.5015 -30.5015 -30.4975 -30.4975 -30.4971 -30.4971
   -20.4157 -20.4157 -20.4157 -20.4157 -20.4156 -20.4156 -20.4156 -20.4156
   -20.3951 -20.3951 -20.3948 -20.3948 -20.3948 -20.3948 -20.3946 -20.3946
   -20.3935 -20.3935 -20.3933 -20.3933 -20.3928 -20.3928 -20.3926 -20.3926
   -20.3918 -20.3917 -20.3914 -20.3914 -20.3913 -20.3913 -20.3910 -20.3910
   -20.3850 -20.3850 -20.3847 -20.3846 -20.3844 -20.3844 -20.3843 -20.3843
   -20.3833 -20.3833 -20.3831 -20.3831 -20.3830 -20.3830 -20.3829 -20.3829
   -20.3772 -20.3772 -20.3771 -20.3771 -20.3768 -20.3768 -20.3767 -20.3767
    -9.8460  -9.8460  -9.4130  -9.4130  -9.4126  -9.4126  -9.1087  -9.1087
    -8.5855  -8.5855  -8.5250  -8.5250  -8.5248  -8.5248  -8.5177  -8.5177
    -7.8377  -7.8377  -7.8369  -7.8369  -7.7171  -7.7171  -7.7170  -7.7170
     1.0820   1.0820   1.1949   1.1949   1.1961   1.1961   1.4969   1.4969
     2.3923   2.3923   3.0900   3.0900   3.1068   3.1069   3.1547   3.1548
     3.1843   3.1843   3.1862   3.1862   3.3654   3.3654   3.3680   3.3680
     3.5691   3.5691   4.7267   4.7268   4.7289   4.7289   5.1315   5.1315
     5.1344   5.1344   5.2447   5.2447   5.2460   5.2460   5.6603   5.6603
     5.6613   5.6613   5.9444   5.9444   5.9456   5.9456   6.0942   6.0942
     6.0975   6.0975   6.2186   6.2186   6.6604   6.6604   6.6617   6.6617
     6.8918   6.8918   7.2670   7.2670   7.2679   7.2679   7.3986   7.3986
     7.3991   7.3991   7.4543   7.4543   7.4546   7.4546   7.8728   7.8728
     9.0950   9.0950  11.1446  11.1446  11.1474  11.1474  11.2251  11.2251
    11.2286  11.2286  12.2614  12.2614  12.2629  12.2629  12.9396  12.9396
    13.5107  13.5107  13.5154  13.5154  13.5562  13.5562  13.5588  13.5588
    15.1429  15.1429  15.2157  15.2157  15.4569  15.4570  15.4578  15.4578
    16.4428  16.4428  17.8538  17.8539  18.0670

          k = 0.0000-0.4757 0.1667 ( 62608 PWs)   bands (ev):

   -66.2554 -66.2554 -66.2546 -66.2546 -66.2545 -66.2545 -66.2537 -66.2537
   -30.6148 -30.6148 -30.6119 -30.6118 -30.6117 -30.6117 -30.6088 -30.6088
   -30.5969 -30.5969 -30.5925 -30.5925 -30.5906 -30.5906 -30.5858 -30.5858
   -30.5080 -30.5080 -30.5037 -30.5037 -30.5012 -30.5012 -30.4975 -30.4975
   -20.4157 -20.4157 -20.4157 -20.4157 -20.4156 -20.4156 -20.4156 -20.4156
   -20.3951 -20.3951 -20.3949 -20.3949 -20.3949 -20.3948 -20.3946 -20.3946
   -20.3934 -20.3934 -20.3933 -20.3932 -20.3927 -20.3927 -20.3926 -20.3926
   -20.3919 -20.3918 -20.3914 -20.3914 -20.3914 -20.3914 -20.3910 -20.3910
   -20.3849 -20.3849 -20.3846 -20.3846 -20.3844 -20.3844 -20.3843 -20.3843
   -20.3834 -20.3834 -20.3832 -20.3831 -20.3827 -20.3827 -20.3826 -20.3826
   -20.3776 -20.3776 -20.3772 -20.3772 -20.3772 -20.3772 -20.3768 -20.3768
    -9.7945  -9.7945  -9.4269  -9.4269  -9.3283  -9.3283  -9.0685  -9.0685
    -8.5922  -8.5922  -8.5309  -8.5309  -8.5185  -8.5185  -8.5166  -8.5165
    -7.9582  -7.9582  -7.8457  -7.8457  -7.8287  -7.8287  -7.7249  -7.7249
     1.1715   1.1715   1.2008   1.2008   1.4520   1.4520   1.6685   1.6685
     2.4802   2.4802   3.0979   3.0979   3.1146   3.1146   3.1532   3.1532
     3.1814   3.1815   3.2237   3.2237   3.3649   3.3649   3.4203   3.4204
     3.5955   3.5955   4.3507   4.3507   4.7821   4.7821   4.8949   4.8949
     5.0462   5.0462   5.1160   5.1160   5.2581   5.2581   5.4021   5.4021
     5.6329   5.6329   5.6631   5.6631   6.0130   6.0130   6.0841   6.0841
     6.3419   6.3419   6.3732   6.3732   6.6513   6.6513   6.8380   6.8380
     6.9390   6.9390   7.0317   7.0317   7.0946   7.0946   7.3854   7.3854
     7.4052   7.4053   7.4268   7.4268   7.4432   7.4432   7.8605   7.8605
     9.4700   9.4700  11.1523  11.1523  11.2215  11.2215  11.2756  11.2756
    11.3490  11.3490  12.1453  12.1453  12.3153  12.3153  12.9506  12.9506
    13.3293  13.3293  13.4273  13.4273  13.5211  13.5212  13.5535  13.5535
    15.1540  15.1540  15.4200  15.4200  15.4410  15.4411  15.7544  15.7544
    16.5093  16.5093  17.7927  17.7927  18.0223

          k = 0.0000-0.4757 0.3333 ( 62552 PWs)   bands (ev):

   -66.2552 -66.2552 -66.2548 -66.2548 -66.2543 -66.2543 -66.2539 -66.2538
   -30.6146 -30.6145 -30.6127 -30.6127 -30.6116 -30.6115 -30.6096 -30.6096
   -30.5960 -30.5960 -30.5935 -30.5934 -30.5729 -30.5729 -30.5682 -30.5681
   -30.5254 -30.5254 -30.5210 -30.5210 -30.5004 -30.5004 -30.4983 -30.4983
   -20.4157 -20.4157 -20.4157 -20.4157 -20.4156 -20.4156 -20.4156 -20.4156
   -20.3951 -20.3951 -20.3949 -20.3949 -20.3949 -20.3949 -20.3947 -20.3947
   -20.3931 -20.3931 -20.3930 -20.3930 -20.3927 -20.3927 -20.3924 -20.3924
   -20.3922 -20.3921 -20.3917 -20.3917 -20.3913 -20.3913 -20.3911 -20.3911
   -20.3846 -20.3846 -20.3844 -20.3844 -20.3843 -20.3843 -20.3843 -20.3843
   -20.3837 -20.3837 -20.3835 -20.3835 -20.3816 -20.3816 -20.3815 -20.3815
   -20.3787 -20.3787 -20.3783 -20.3783 -20.3771 -20.3771 -20.3769 -20.3769
    -9.6728  -9.6728  -9.4714  -9.4714  -9.0934  -9.0934  -8.9321  -8.9321
    -8.6298  -8.6298  -8.5573  -8.5572  -8.5080  -8.5080  -8.4945  -8.4945
    -8.2461  -8.2461  -8.1520  -8.1520  -7.8065  -7.8064  -7.7465  -7.7465
     1.2130   1.2130   1.2271   1.2271   2.1334   2.1334   2.3067   2.3067
     2.7352   2.7352   3.1029   3.1029   3.1319   3.1319   3.1445   3.1445
     3.1688   3.1688   3.2973   3.2973   3.3543   3.3543   3.5727   3.5727
     3.6481   3.6481   3.7486   3.7486   4.4200   4.4200   4.5607   4.5607
     4.7186   4.7186   4.7598   4.7598   5.0743   5.0743   5.1641   5.1642
     5.2960   5.2960   5.5534   5.5535   6.0710   6.0710   6.2160   6.2160
     6.4617   6.4617   6.5620   6.5620   6.6233   6.6234   6.7531   6.7531
     6.9343   6.9343   7.1142   7.1142   7.1335   7.1335   7.3625   7.3625
     7.3905   7.3905   7.4187   7.4187   7.4279   7.4279   7.7672   7.7672
    10.2248  10.2248  11.1667  11.1667  11.2034  11.2034  11.6583  11.6583
    11.6964  11.6964  11.7322  11.7322  12.4865  12.4865  12.7006  12.7006
    12.8507  12.8507  13.1478  13.1479  13.5272  13.5272  13.5488  13.5488
    15.2034  15.2034  15.3871  15.3871  16.0532  16.0532  16.5218  16.5219
    16.7385  16.7385  17.2737  17.2738  17.8431

          k = 0.0000-0.4757-0.5000 ( 62596 PWs)   bands (ev):

   -66.2550 -66.2550 -66.2550 -66.2550 -66.2541 -66.2541 -66.2541 -66.2541
   -30.6137 -30.6137 -30.6137 -30.6137 -30.6107 -30.6107 -30.6107 -30.6107
   -30.5947 -30.5947 -30.5947 -30.5947 -30.5491 -30.5491 -30.5491 -30.5491
   -30.5445 -30.5445 -30.5445 -30.5445 -30.4994 -30.4994 -30.4994 -30.4994
   -20.4157 -20.4157 -20.4157 -20.4157 -20.4156 -20.4156 -20.4156 -20.4156
   -20.3950 -20.3950 -20.3950 -20.3950 -20.3948 -20.3948 -20.3948 -20.3948
   -20.3929 -20.3929 -20.3929 -20.3929 -20.3926 -20.3926 -20.3926 -20.3926
   -20.3920 -20.3920 -20.3920 -20.3920 -20.3912 -20.3912 -20.3912 -20.3912
   -20.3844 -20.3844 -20.3844 -20.3844 -20.3841 -20.3841 -20.3841 -20.3841
   -20.3839 -20.3839 -20.3839 -20.3839 -20.3802 -20.3802 -20.3802 -20.3801
   -20.3799 -20.3799 -20.3799 -20.3799 -20.3770 -20.3770 -20.3770 -20.3770
    -9.5524  -9.5524  -9.5524  -9.5524  -8.7931  -8.7931  -8.7931  -8.7931
    -8.6972  -8.6972  -8.6972  -8.6972  -8.4666  -8.4666  -8.4666  -8.4666
    -8.4122  -8.4121  -8.4121  -8.4121  -7.7762  -7.7762  -7.7762  -7.7762
     1.2264   1.2264   1.2264   1.2264   2.9141   2.9142   2.9142   2.9142
     3.0480   3.0481   3.0481   3.0481   3.1269   3.1269   3.1269   3.1269
     3.1992   3.1992   3.1992   3.1992   3.3424   3.3424   3.3424   3.3424
     3.5023   3.5023   3.5023   3.5023   4.2398   4.2398   4.2398   4.2398
     4.3450   4.3450   4.3451   4.3451   5.1230   5.1230   5.1230   5.1230
     5.4088   5.4088   5.4088   5.4088   6.2140   6.2140   6.2140   6.2140
     6.4416   6.4416   6.4416   6.4416   6.5787   6.5787   6.5788   6.5788
     7.2323   7.2323   7.2323   7.2323   7.2996   7.2996   7.2996   7.2996
     7.3780   7.3780   7.3780   7.3780   7.5432   7.5432   7.5432   7.5432
    11.0178  11.0178  11.0178  11.0178  11.2015  11.2015  11.2015  11.2015
    12.2005  12.2005  12.2005  12.2005  12.2329  12.2329  12.2329  12.2329
    12.7925  12.7925  12.7925  12.7925  13.5386  13.5386  13.5386  13.5386
    15.2997  15.2997  15.2997  15.2997  16.7338  16.7338  16.7338  16.7338
    17.2686  17.2686  17.2686  17.2686  17.3820

          k = 0.1667 0.0000 0.0000 ( 62609 PWs)   bands (ev):

   -66.2556 -66.2552 -66.2548 -66.2547 -66.2544 -66.2543 -66.2539 -66.2535
   -30.6445 -30.6416 -30.6414 -30.6386 -30.5995 -30.5957 -30.5951 -30.5939
   -30.5916 -30.5913 -30.5883 -30.5858 -30.5806 -30.5798 -30.5787 -30.5780
   -30.5093 -30.5065 -30.5049 -30.5027 -30.5022 -30.5000 -30.4990 -30.4963
   -20.4158 -20.4157 -20.4157 -20.4157 -20.4156 -20.4156 -20.4156 -20.4156
   -20.3978 -20.3977 -20.3976 -20.3975 -20.3937 -20.3935 -20.3933 -20.3932
   -20.3930 -20.3928 -20.3928 -20.3922 -20.3920 -20.3920 -20.3919 -20.3919
   -20.3918 -20.3917 -20.3917 -20.3915 -20.3913 -20.3913 -20.3908 -20.3908
   -20.3853 -20.3849 -20.3849 -20.3847 -20.3845 -20.3845 -20.3840 -20.3836
   -20.3832 -20.3831 -20.3831 -20.3830 -20.3829 -20.3829 -20.3827 -20.3826
   -20.3780 -20.3775 -20.3775 -20.3773 -20.3770 -20.3769 -20.3768 -20.3764
    -9.9847  -9.6832  -9.6267  -9.5505  -9.3434  -9.2414  -9.1869  -9.0783
    -9.0605  -8.9436  -8.9418  -8.9076  -7.9721  -7.9556  -7.9264  -7.8678
    -7.8644  -7.8498  -7.8406  -7.8343  -7.8164  -7.8161  -7.7359  -7.7137
     1.1586   1.1713   1.1767   1.2007   1.3173   1.3574   1.4563   1.4990
     1.5051   1.5858   1.6823   1.8339   2.4369   2.4934   2.5228   2.5730
     2.6037   2.6981   4.0051   4.0541   4.2529   4.2756   4.2878   4.3742
     4.5661   4.6573   4.7528   4.7874   4.7990   4.8960   4.9736   5.2239
     5.3053   5.3702   5.4444   5.4605   5.5023   5.5088   5.5363   5.5651
     5.6262   5.7004   5.7377   5.8318   5.9124   6.0034   6.0606   6.0814
     6.2322   6.3777   6.4359   6.4630   6.5609   6.5885   6.6720   6.7159
     6.7563   6.7897   6.9068   6.9298   6.9685   7.0299   7.0319   7.0382
     7.0860   7.1468   7.8563   7.8578   7.9907   8.0475   8.0503   8.0953
     9.4512   9.4800   9.8679   9.8701  10.1397  10.1609  12.1186  12.1573
    12.2225  12.2601  12.2988  12.3319  12.4186  12.5138  12.8963  12.9299
    13.0288  13.1653  13.2292  13.3159  13.7821  13.9539  13.9628  14.0909
    14.0940  14.1911  14.3521  14.8981  15.1908  15.2206  15.3822  15.8151
    16.1774  16.6999  16.8447  17.1488  17.4095

          k = 0.1667 0.0000 0.1667 ( 62586 PWs)   bands (ev):

   -66.2555 -66.2551 -66.2548 -66.2547 -66.2543 -66.2543 -66.2540 -66.2535
   -30.6445 -30.6418 -30.6417 -30.6389 -30.5943 -30.5937 -30.5922 -30.5892
   -30.5891 -30.5882 -30.5861 -30.5847 -30.5794 -30.5790 -30.5786 -30.5784
   -30.5092 -30.5089 -30.5064 -30.5062 -30.5054 -30.5052 -30.5026 -30.5024
   -20.4158 -20.4157 -20.4157 -20.4157 -20.4156 -20.4156 -20.4156 -20.4156
   -20.3979 -20.3977 -20.3976 -20.3975 -20.3936 -20.3934 -20.3933 -20.3931
   -20.3929 -20.3928 -20.3927 -20.3923 -20.3921 -20.3921 -20.3919 -20.3919
   -20.3918 -20.3917 -20.3917 -20.3915 -20.3914 -20.3912 -20.3909 -20.3908
   -20.3852 -20.3849 -20.3848 -20.3847 -20.3844 -20.3844 -20.3839 -20.3835
   -20.3833 -20.3832 -20.3830 -20.3829 -20.3827 -20.3826 -20.3825 -20.3823
   -20.3780 -20.3778 -20.3776 -20.3775 -20.3773 -20.3771 -20.3769 -20.3768
    -9.9370  -9.6253  -9.5660  -9.5660  -9.2546  -9.2540  -9.1960  -9.0396
    -9.0248  -8.9344  -8.9117  -8.9116  -7.9669  -7.9636  -7.9470  -7.9466
    -7.9349  -7.8859  -7.8614  -7.8605  -7.8540  -7.8422  -7.8219  -7.8193
     1.3141   1.3423   1.3425   1.3522   1.3530   1.4602   1.4614   1.4968
     1.5842   1.5854   1.7702   1.9141   2.5212   2.5798   2.5805   2.6155
     2.6774   2.7094   3.9952   4.0107   4.2127   4.2129   4.3945   4.3946
     4.4406   4.4409   4.5897   4.5907   4.6149   4.6891   4.9597   5.1709
     5.2354   5.2457   5.3235   5.4242   5.4270   5.5398   5.5406   5.6144
     5.6144   5.6403   5.6409   5.6863   5.7334   5.9203   6.2672   6.3873
     6.3943   6.4595   6.4762   6.5425   6.5650   6.5731   6.5826   6.5940
     6.6073   6.7649   6.7663   6.8034   6.8294   6.9265   6.9265   7.0317
     7.1776   7.2348   7.8408   7.8436   7.9935   8.0323   8.0485   8.0510
     9.6906   9.7481  10.1183  10.1412  10.1417  10.2130  12.1676  12.1703
    12.1951  12.1954  12.2773  12.3180  12.5032  12.5049  12.9092  12.9392
    12.9713  13.0364  13.0953  13.2913  13.8751  13.9182  13.9431  13.9778
    13.9913  14.3366  14.3445  15.0155  15.2988  15.3110  15.3487  16.1470
    16.1485  16.8641  16.8651  16.9866  17.4563

          k = 0.1667 0.0000 0.3333 ( 62621 PWs)   bands (ev):

   -66.2554 -66.2550 -66.2549 -66.2546 -66.2545 -66.2542 -66.2541 -66.2537
   -30.6443 -30.6425 -30.6415 -30.6397 -30.5930 -30.5919 -30.5884 -30.5869
   -30.5848 -30.5825 -30.5800 -30.5792 -30.5714 -30.5709 -30.5679 -30.5672
   -30.5263 -30.5238 -30.5225 -30.5200 -30.5082 -30.5060 -30.5054 -30.5032
   -20.4157 -20.4157 -20.4157 -20.4157 -20.4156 -20.4156 -20.4156 -20.4156
   -20.3978 -20.3977 -20.3977 -20.3976 -20.3932 -20.3932 -20.3930 -20.3929
   -20.3928 -20.3927 -20.3926 -20.3924 -20.3923 -20.3922 -20.3921 -20.3920
   -20.3918 -20.3917 -20.3916 -20.3916 -20.3915 -20.3912 -20.3911 -20.3909
   -20.3850 -20.3848 -20.3847 -20.3845 -20.3843 -20.3843 -20.3838 -20.3836
   -20.3836 -20.3833 -20.3832 -20.3830 -20.3818 -20.3816 -20.3814 -20.3812
   -20.3790 -20.3786 -20.3784 -20.3781 -20.3778 -20.3776 -20.3772 -20.3770
    -9.8219  -9.6145  -9.4908  -9.4236  -9.2935  -9.2272  -9.0018  -8.9643
    -8.9223  -8.8932  -8.8538  -8.7962  -8.2618  -8.2613  -8.2103  -8.1852
    -7.9412  -7.9282  -7.9038  -7.8834  -7.8646  -7.8549  -7.8524  -7.8283
     1.3216   1.3409   1.4398   1.4745   1.4786   1.4817   1.5463   1.5867
     2.1562   2.1850   2.3193   2.3904   2.5989   2.6702   2.7763   2.8154
     2.8900   2.9425   3.7230   3.7828   3.8312   3.8428   4.0735   4.1693
     4.1760   4.3595   4.4593   4.4814   4.5338   4.6298   4.6806   4.7995
     4.9139   4.9981   5.0448   5.1181   5.2351   5.3077   5.4902   5.5779
     5.6437   5.6502   5.6826   5.7486   5.7541   5.9288   6.0319   6.0792
     6.3407   6.3548   6.3953   6.4859   6.5207   6.5599   6.5636   6.5826
     6.7180   6.8070   6.8132   6.8190   7.0407   7.0701   7.0847   7.1270
     7.2553   7.3079   7.7444   7.7620   7.8826   7.9098   8.0425   8.0507
    10.1149  10.1399  10.3485  10.3916  10.7817  10.8674  11.7613  11.7969
    12.0962  12.3261  12.3415  12.4360  12.5036  12.5055  12.6544  12.7544
    12.8629  12.9577  12.9905  13.1935  13.5825  13.5962  13.9275  13.9484
    14.1417  14.3193  14.6941  15.2393  15.3162  15.6063  15.7854  16.0604
    16.3053  17.0433  17.3108  17.3522  17.4514

          k = 0.1667 0.0000-0.5000 ( 62586 PWs)   bands (ev):

   -66.2551 -66.2551 -66.2547 -66.2547 -66.2543 -66.2543 -66.2539 -66.2539
   -30.6435 -30.6435 -30.6407 -30.6407 -30.5922 -30.5922 -30.5878 -30.5878
   -30.5816 -30.5816 -30.5805 -30.5805 -30.5495 -30.5495 -30.5476 -30.5476
   -30.5457 -30.5457 -30.5436 -30.5436 -30.5071 -30.5071 -30.5043 -30.5043
   -20.4157 -20.4157 -20.4157 -20.4157 -20.4156 -20.4156 -20.4156 -20.4156
   -20.3978 -20.3978 -20.3976 -20.3976 -20.3931 -20.3931 -20.3928 -20.3928
   -20.3927 -20.3927 -20.3925 -20.3925 -20.3924 -20.3924 -20.3923 -20.3923
   -20.3917 -20.3917 -20.3916 -20.3916 -20.3914 -20.3914 -20.3910 -20.3910
   -20.3849 -20.3849 -20.3845 -20.3845 -20.3840 -20.3840 -20.3839 -20.3839
   -20.3836 -20.3836 -20.3831 -20.3831 -20.3804 -20.3804 -20.3802 -20.3802
   -20.3799 -20.3799 -20.3797 -20.3797 -20.3777 -20.3777 -20.3771 -20.3771
    -9.7010  -9.7010  -9.3681  -9.3681  -9.2961  -9.2961  -8.9382  -8.9382
    -8.6388  -8.6388  -8.6275  -8.6275  -8.5886  -8.5886  -8.5363  -8.5363
    -7.9147  -7.9147  -7.9047  -7.9047  -7.8698  -7.8698  -7.8405  -7.8405
     1.3295   1.3295   1.4600   1.4600   1.4886   1.4886   1.5853   1.5853
     2.6203   2.6203   2.8814   2.8814   2.9728   2.9728   3.0849   3.0849
     3.1980   3.1980   3.3381   3.3381   3.3931   3.3931   3.7126   3.7126
     3.8172   3.8172   4.2840   4.2840   4.4664   4.4664   4.8157   4.8157
     4.9447   4.9447   4.9752   4.9752   5.1767   5.1767   5.5757   5.5757
     5.6885   5.6885   5.7226   5.7226   5.7813   5.7813   5.8951   5.8951
     6.2581   6.2581   6.3407   6.3407   6.5553   6.5553   6.6486   6.6486
     6.7364   6.7364   6.8909   6.8909   6.9485   6.9485   7.4757   7.4757
     7.5181   7.5181   7.6438   7.6438   7.6547   7.6547   8.0506   8.0506
    10.1385  10.1385  11.0824  11.0824  11.1391  11.1391  11.5182  11.5182
    11.6789  11.6789  12.5248  12.5248  12.5817  12.5817  12.6172  12.6172
    12.8542  12.8542  13.1489  13.1489  13.2551  13.2551  13.9358  13.9358
    14.2644  14.2644  15.0285  15.0285  15.7596  15.7596  15.8913  15.8913
    16.5924  16.5924  17.7260  17.7273  17.7613

          k = 0.1667 0.1586 0.0000 ( 62613 PWs)   bands (ev):

   -66.2556 -66.2552 -66.2548 -66.2547 -66.2544 -66.2543 -66.2539 -66.2535
   -30.6405 -30.6376 -30.6375 -30.6346 -30.5994 -30.5959 -30.5950 -30.5942
   -30.5927 -30.5915 -30.5884 -30.5868 -30.5846 -30.5828 -30.5826 -30.5809
   -30.5091 -30.5067 -30.5048 -30.5026 -30.5024 -30.5002 -30.4988 -30.4965
   -20.4158 -20.4157 -20.4157 -20.4157 -20.4156 -20.4156 -20.4156 -20.4156
   -20.3975 -20.3973 -20.3973 -20.3971 -20.3937 -20.3935 -20.3933 -20.3931
   -20.3931 -20.3929 -20.3927 -20.3924 -20.3923 -20.3922 -20.3921 -20.3921
   -20.3919 -20.3918 -20.3916 -20.3914 -20.3914 -20.3913 -20.3909 -20.3908
   -20.3853 -20.3849 -20.3849 -20.3846 -20.3845 -20.3844 -20.3840 -20.3837
   -20.3832 -20.3831 -20.3831 -20.3830 -20.3829 -20.3829 -20.3827 -20.3826
   -20.3779 -20.3775 -20.3774 -20.3774 -20.3770 -20.3770 -20.3768 -20.3764
    -9.9534  -9.6950  -9.5899  -9.5092  -9.3513  -9.2492  -9.1118  -9.0765
    -9.0615  -8.9023  -8.8990  -8.8726  -8.0241  -7.9897  -7.9678  -7.9666
    -7.9311  -7.9309  -7.8550  -7.8391  -7.8330  -7.8181  -7.7345  -7.7153
     1.1669   1.1712   1.1889   1.2006   1.4180   1.4559   1.4803   1.6813
     1.6990   1.7363   1.7647   1.9562   2.4433   2.5166   2.5651   2.6465
     2.6727   2.7658   3.8923   3.9308   3.9957   4.0420   4.3044   4.3716
     4.6127   4.6133   4.7372   4.7755   4.7791   4.8246   4.8857   5.1583
     5.2048   5.2059   5.2292   5.4088   5.4905   5.5036   5.5557   5.6272
     5.6441   5.7016   5.7661   5.7733   5.8066   6.0037   6.0808   6.0931
     6.1418   6.3746   6.3969   6.4866   6.6084   6.6810   6.6931   6.7538
     6.7571   6.7976   6.8863   6.9056   6.9343   6.9475   7.0298   7.0366
     7.0994   7.1487   7.8577   7.8586   7.9447   7.9708   7.9891   8.0124
     9.4559   9.4783  10.0546  10.0712  10.3097  10.3102  12.0995  12.1248
    12.1567  12.1983  12.2628  12.2631  12.2790  12.3959  12.9008  12.9490
    13.0463  13.1974  13.2402  13.3256  13.8404  13.8669  13.9938  14.0022
    14.1254  14.4627  14.6419  15.0598  15.1905  15.2223  15.7780  15.7920
    16.1418  16.5326  16.8371  17.2735  17.4583

          k = 0.1667 0.1586 0.1667 ( 62619 PWs)   bands (ev):

   -66.2555 -66.2551 -66.2547 -66.2547 -66.2544 -66.2543 -66.2539 -66.2536
   -30.6405 -30.6378 -30.6377 -30.6349 -30.5949 -30.5940 -30.5933 -30.5894
   -30.5893 -30.5881 -30.5870 -30.5849 -30.5831 -30.5828 -30.5812 -30.5812
   -30.5090 -30.5088 -30.5066 -30.5064 -30.5052 -30.5050 -30.5028 -30.5026
   -20.4158 -20.4157 -20.4157 -20.4157 -20.4156 -20.4156 -20.4156 -20.4156
   -20.3975 -20.3973 -20.3973 -20.3971 -20.3936 -20.3934 -20.3933 -20.3930
   -20.3930 -20.3929 -20.3928 -20.3924 -20.3924 -20.3922 -20.3922 -20.3921
   -20.3920 -20.3918 -20.3917 -20.3915 -20.3914 -20.3913 -20.3910 -20.3908
   -20.3852 -20.3849 -20.3848 -20.3847 -20.3845 -20.3843 -20.3839 -20.3835
   -20.3833 -20.3832 -20.3830 -20.3829 -20.3827 -20.3826 -20.3825 -20.3823
   -20.3780 -20.3778 -20.3775 -20.3774 -20.3774 -20.3772 -20.3770 -20.3769
    -9.9043  -9.6372  -9.5249  -9.5248  -9.2626  -9.2621  -9.1210  -9.0386
    -9.0257  -8.8906  -8.8766  -8.8765  -8.0284  -7.9869  -7.9867  -7.9604
    -7.9594  -7.9414  -7.9258  -7.9253  -7.8827  -7.8530  -7.8417  -7.8235
     1.3424   1.3428   1.4197   1.4203   1.4600   1.4610   1.5034   1.7001
     1.7594   1.7606   1.7697   2.0064   2.5302   2.6090   2.6533   2.6538
     2.7496   2.7726   3.8894   3.9201   4.0162   4.0171   4.3723   4.3735
     4.4425   4.4434   4.5815   4.6216   4.6300   4.6654   4.7263   5.1378
     5.1462   5.1672   5.1731   5.2760   5.2807   5.4973   5.4981   5.5544
     5.6311   5.6329   5.7153   5.7208   5.7218   5.7988   6.2822   6.2977
     6.3018   6.4556   6.4704   6.5567   6.5618   6.5962   6.6466   6.6932
     6.6947   6.7670   6.7901   6.7906   6.8878   6.8999   6.9019   7.0375
     7.1797   7.2349   7.8415   7.8429   7.9347   7.9720   7.9737   7.9748
     9.7037   9.7453  10.2734  10.3096  10.3114  10.3560  12.1551  12.1738
    12.1760  12.1832  12.1841  12.2064  12.3626  12.3639  12.9017  12.9630
    13.0101  13.0477  13.1080  13.2996  13.8241  13.8379  13.8428  13.9041
    14.2452  14.6335  14.6363  15.1637  15.2998  15.3103  15.7548  16.1128
    16.1141  16.6610  16.9788  16.9800  17.5019

          k = 0.1667 0.1586 0.3333 ( 62621 PWs)   bands (ev):

   -66.2553 -66.2550 -66.2549 -66.2545 -66.2545 -66.2542 -66.2541 -66.2537
   -30.6403 -30.6385 -30.6375 -30.6357 -30.5935 -30.5933 -30.5884 -30.5878
   -30.5875 -30.5845 -30.5840 -30.5820 -30.5718 -30.5716 -30.5683 -30.5674
   -30.5262 -30.5240 -30.5224 -30.5201 -30.5080 -30.5058 -30.5056 -30.5034
   -20.4157 -20.4157 -20.4157 -20.4157 -20.4156 -20.4156 -20.4156 -20.4156
   -20.3975 -20.3974 -20.3973 -20.3972 -20.3932 -20.3932 -20.3931 -20.3929
   -20.3928 -20.3928 -20.3927 -20.3924 -20.3924 -20.3924 -20.3923 -20.3921
   -20.3920 -20.3919 -20.3917 -20.3916 -20.3915 -20.3912 -20.3911 -20.3909
   -20.3850 -20.3848 -20.3847 -20.3845 -20.3843 -20.3843 -20.3838 -20.3836
   -20.3836 -20.3834 -20.3832 -20.3830 -20.3818 -20.3816 -20.3814 -20.3813
   -20.3789 -20.3786 -20.3784 -20.3781 -20.3778 -20.3775 -20.3772 -20.3771
    -9.7857  -9.5737  -9.5024  -9.3687  -9.3022  -9.1530  -9.0103  -8.9466
    -8.8947  -8.8873  -8.8301  -8.7747  -8.2684  -8.2592  -8.2262  -8.1830
    -7.9943  -7.9827  -7.9570  -7.9374  -7.9323  -7.9088  -7.8782  -7.8565
     1.4262   1.4357   1.4742   1.4814   1.6434   1.6536   1.7298   1.7571
     2.1547   2.1972   2.3199   2.4081   2.6710   2.7340   2.7968   2.8864
     2.8889   2.9956   3.7167   3.7652   3.7962   3.8346   3.9902   4.0612
     4.1520   4.2445   4.4759   4.5024   4.5718   4.6024   4.6452   4.6783
     4.8012   4.8391   4.8678   5.0681   5.1197   5.1596   5.2394   5.5386
     5.5447   5.5839   5.6512   5.7005   5.7535   5.7753   6.0327   6.0791
     6.2744   6.4355   6.4544   6.5476   6.6047   6.6105   6.6448   6.6701
     6.7624   6.8100   6.8331   6.8673   7.0318   7.0635   7.0759   7.1367
     7.2471   7.3019   7.7441   7.7585   7.8348   7.8499   7.9735   7.9756
    10.2403  10.3052  10.3691  10.4143  10.8961  10.9614  11.7619  11.7939
    12.0645  12.3073  12.3455  12.3532  12.4173  12.4837  12.5909  12.6321
    12.8558  12.9742  12.9902  13.1994  13.4762  13.4991  13.8382  13.8602
    14.4615  14.6156  15.0416  15.4322  15.5997  15.6530  15.7991  16.0291
    16.4203  17.0039  17.0739  17.3679  17.4048

          k = 0.1667 0.1586-0.5000 ( 62598 PWs)   bands (ev):

   -66.2551 -66.2551 -66.2548 -66.2548 -66.2543 -66.2543 -66.2540 -66.2540
   -30.6395 -30.6395 -30.6367 -30.6367 -30.5931 -30.5931 -30.5882 -30.5882
   -30.5854 -30.5854 -30.5831 -30.5831 -30.5495 -30.5495 -30.5477 -30.5477
   -30.5456 -30.5456 -30.5437 -30.5437 -30.5069 -30.5069 -30.5045 -30.5045
   -20.4157 -20.4157 -20.4157 -20.4157 -20.4156 -20.4156 -20.4156 -20.4156
   -20.3974 -20.3974 -20.3973 -20.3973 -20.3931 -20.3931 -20.3929 -20.3929
   -20.3927 -20.3927 -20.3926 -20.3926 -20.3925 -20.3924 -20.3923 -20.3923
   -20.3920 -20.3920 -20.3917 -20.3917 -20.3915 -20.3915 -20.3910 -20.3910
   -20.3849 -20.3849 -20.3846 -20.3846 -20.3840 -20.3840 -20.3839 -20.3839
   -20.3835 -20.3835 -20.3832 -20.3832 -20.3804 -20.3804 -20.3801 -20.3801
   -20.3799 -20.3799 -20.3797 -20.3797 -20.3777 -20.3777 -20.3772 -20.3772
    -9.6617  -9.6617  -9.3783  -9.3783  -9.2269  -9.2269  -8.9052  -8.9052
    -8.6453  -8.6453  -8.6302  -8.6302  -8.5866  -8.5866  -8.5299  -8.5299
    -7.9889  -7.9889  -7.9478  -7.9478  -7.9078  -7.9078  -7.8833  -7.8833
     1.4337   1.4337   1.4883   1.4883   1.6624   1.6624   1.7550   1.7550
     2.6885   2.6885   2.9021   2.9022   2.9919   2.9919   3.0956   3.0956
     3.1983   3.1983   3.3405   3.3405   3.3860   3.3860   3.7165   3.7165
     3.8663   3.8663   4.1378   4.1378   4.4941   4.4941   4.5963   4.5963
     4.8560   4.8560   4.9174   4.9174   5.0061   5.0061   5.3653   5.3653
     5.6148   5.6148   5.6667   5.6667   5.7717   5.7717   5.7807   5.7807
     6.3844   6.3844   6.5265   6.5265   6.5516   6.5516   6.6909   6.6909
     6.8096   6.8096   6.8493   6.8493   6.9757   6.9757   7.4752   7.4752
     7.5119   7.5119   7.6134   7.6134   7.6240   7.6240   7.9770   7.9770
    10.3012  10.3012  11.0867  11.0867  11.1382  11.1382  11.5855  11.5855
    11.7416  11.7416  12.3869  12.3869  12.5624  12.5624  12.6133  12.6133
    12.8287  12.8287  13.0435  13.0435  13.2005  13.2005  13.8455  13.8455
    14.5696  14.5696  15.4072  15.4072  15.8645  15.8645  15.8923  15.8923
    16.6273  16.6273  17.5262  17.5262  17.7944

          k = 0.1667 0.3171 0.0000 ( 62604 PWs)   bands (ev):

   -66.2555 -66.2553 -66.2547 -66.2546 -66.2545 -66.2544 -66.2538 -66.2536
   -30.6295 -30.6266 -30.6266 -30.6237 -30.6015 -30.5984 -30.5975 -30.5972
   -30.5965 -30.5938 -30.5926 -30.5921 -30.5901 -30.5892 -30.5858 -30.5843
   -30.5086 -30.5072 -30.5043 -30.5029 -30.5021 -30.5007 -30.4983 -30.4970
   -20.4157 -20.4157 -20.4157 -20.4156 -20.4156 -20.4156 -20.4156 -20.4156
   -20.3965 -20.3963 -20.3962 -20.3961 -20.3939 -20.3936 -20.3935 -20.3935
   -20.3933 -20.3932 -20.3931 -20.3930 -20.3930 -20.3926 -20.3926 -20.3923
   -20.3918 -20.3917 -20.3915 -20.3915 -20.3914 -20.3914 -20.3910 -20.3909
   -20.3852 -20.3850 -20.3848 -20.3846 -20.3845 -20.3844 -20.3841 -20.3838
   -20.3832 -20.3831 -20.3830 -20.3830 -20.3829 -20.3829 -20.3828 -20.3827
   -20.3778 -20.3775 -20.3774 -20.3773 -20.3771 -20.3769 -20.3769 -20.3766
    -9.8774  -9.7315  -9.5061  -9.4148  -9.3771  -9.2752  -9.0727  -9.0644
    -8.8993  -8.7696  -8.7581  -8.7502  -8.2722  -8.2323  -8.2211  -8.2045
    -7.9642  -7.9506  -7.8513  -7.8395  -7.8348  -7.8227  -7.7305  -7.7194
     1.1700   1.1711   1.1970   1.2004   1.4465   1.4551   1.6378   1.6782
     2.2645   2.3877   2.4112   2.4589   2.5010   2.5602   2.7765   2.8679
     2.8756   2.9723   3.5409   3.5621   3.5882   3.6104   4.0510   4.3189
     4.3294   4.3907   4.4163   4.6585   4.6894   4.7662   4.7950   4.7970
     4.9588   4.9970   5.0926   5.2142   5.3384   5.3760   5.5294   5.5320
     5.5998   5.6541   5.6928   5.7660   5.9528   6.0141   6.0591   6.0864
     6.1942   6.3556   6.3853   6.5344   6.5534   6.7767   6.7981   6.8563
     6.8945   6.9042   6.9705   6.9913   7.0028   7.0178   7.0361   7.0394
     7.1359   7.1632   7.7417   7.7639   7.7699   7.7806   7.8600   7.8630
     9.4638   9.4748  10.5361  10.5838  10.7211  10.7582  11.7206  11.8192
    11.8326  11.9117  12.1378  12.1529  12.2993  12.3273  12.9206  12.9638
    13.1404  13.2799  13.3199  13.3937  13.6067  13.6526  13.7626  13.7850
    14.7485  15.0126  15.1838  15.2304  15.2613  15.6425  15.6720  15.9763
    16.0198  16.7897  17.2002  17.2702  17.7095

          k = 0.1667 0.3171 0.1667 ( 62585 PWs)   bands (ev):

   -66.2554 -66.2552 -66.2547 -66.2546 -66.2544 -66.2544 -66.2539 -66.2536
   -30.6296 -30.6269 -30.6268 -30.6240 -30.6013 -30.5986 -30.5984 -30.5941
   -30.5904 -30.5902 -30.5896 -30.5888 -30.5870 -30.5855 -30.5849 -30.5846
   -30.5085 -30.5083 -30.5071 -30.5069 -30.5047 -30.5045 -30.5033 -30.5031
   -20.4157 -20.4157 -20.4157 -20.4157 -20.4156 -20.4156 -20.4156 -20.4156
   -20.3965 -20.3963 -20.3963 -20.3961 -20.3939 -20.3936 -20.3936 -20.3934
   -20.3933 -20.3932 -20.3930 -20.3929 -20.3929 -20.3926 -20.3925 -20.3923
   -20.3919 -20.3917 -20.3916 -20.3916 -20.3914 -20.3914 -20.3911 -20.3909
   -20.3851 -20.3850 -20.3847 -20.3846 -20.3845 -20.3843 -20.3839 -20.3837
   -20.3833 -20.3832 -20.3830 -20.3829 -20.3827 -20.3826 -20.3825 -20.3824
   -20.3779 -20.3777 -20.3775 -20.3774 -20.3773 -20.3773 -20.3771 -20.3770
    -9.8249  -9.6743  -9.4305  -9.4303  -9.2893  -9.2888  -9.0359  -9.0286
    -8.9083  -8.7545  -8.7544  -8.7521  -8.2758  -8.2293  -8.2291  -8.2096
    -7.9565  -7.9564  -7.9425  -7.9425  -7.8787  -7.8649  -7.8381  -7.8275
     1.3424   1.3426   1.4503   1.4512   1.4592   1.4602   1.7135   1.7656
     2.2663   2.3886   2.3896   2.5346   2.5491   2.6046   2.8751   2.8765
     2.9633   2.9725   3.5762   3.5804   3.5858   3.6273   4.0447   4.3490
     4.3503   4.3894   4.3906   4.4697   4.4721   4.6504   4.6611   4.7489
     4.7957   4.7972   5.0438   5.0691   5.2787   5.3087   5.3404   5.3409
     5.5542   5.5792   5.6390   5.6396   5.7109   5.7113   6.3294   6.3346
     6.3683   6.4446   6.4550   6.5464   6.5966   6.6441   6.7866   6.7888
     6.8548   6.8560   6.9131   6.9338   7.0007   7.0147   7.0157   7.0622
     7.2004   7.2432   7.7382   7.7449   7.7452   7.7705   7.8445   7.8528
     9.7219   9.7401  10.6935  10.7495  10.7586  10.7660  11.7956  11.8418
    11.9074  11.9083  12.1852  12.1861  12.2185  12.2192  12.9130  12.9757
    13.1302  13.1380  13.1809  13.3501  13.5936  13.6006  13.6040  13.6961
    14.9109  15.2473  15.2509  15.3048  15.3083  15.7116  15.9947  15.9958
    16.1019  16.7541  17.2622  17.3493  17.3498

          k = 0.1667 0.3171 0.3333 ( 62602 PWs)   bands (ev):

   -66.2553 -66.2551 -66.2548 -66.2546 -66.2545 -66.2543 -66.2540 -66.2538
   -30.6294 -30.6277 -30.6266 -30.6248 -30.6008 -30.5992 -30.5974 -30.5949
   -30.5894 -30.5885 -30.5870 -30.5855 -30.5726 -30.5720 -30.5687 -30.5679
   -30.5258 -30.5245 -30.5219 -30.5206 -30.5075 -30.5061 -30.5053 -30.5039
   -20.4157 -20.4157 -20.4157 -20.4157 -20.4156 -20.4156 -20.4156 -20.4156
   -20.3965 -20.3964 -20.3963 -20.3962 -20.3938 -20.3936 -20.3936 -20.3934
   -20.3931 -20.3931 -20.3928 -20.3927 -20.3927 -20.3926 -20.3924 -20.3922
   -20.3922 -20.3919 -20.3918 -20.3915 -20.3915 -20.3913 -20.3912 -20.3910
   -20.3850 -20.3848 -20.3846 -20.3845 -20.3844 -20.3843 -20.3837 -20.3836
   -20.3836 -20.3834 -20.3832 -20.3831 -20.3817 -20.3816 -20.3815 -20.3813
   -20.3788 -20.3785 -20.3785 -20.3782 -20.3777 -20.3775 -20.3774 -20.3772
    -9.6983  -9.5393  -9.4791  -9.3312  -9.2354  -9.0403  -8.9446  -8.9203
    -8.8981  -8.7678  -8.7234  -8.6914  -8.3453  -8.3202  -8.2533  -8.2227
    -8.2197  -8.1757  -8.1679  -8.1092  -7.9339  -7.9210  -7.8746  -7.8630
     1.4634   1.4729   1.4734   1.4807   2.0751   2.1500   2.1641   2.2772
     2.3168   2.3904   2.4085   2.5951   2.8121   2.8728   2.8897   2.9606
     3.1110   3.1763   3.5527   3.5620   3.6186   3.6426   3.8096   3.8759
     4.0278   4.2235   4.2994   4.3234   4.3883   4.4933   4.5217   4.5528
     4.6052   4.7013   4.7366   4.7870   4.8385   4.8723   5.0582   5.0711
     5.2354   5.2445   5.3727   5.5301   5.6677   5.7211   6.0624   6.0801
     6.4529   6.5571   6.5648   6.6849   6.7365   6.7595   6.8552   6.8771
     6.9065   6.9511   6.9690   6.9924   7.0455   7.0832   7.1153   7.1877
     7.2233   7.2818   7.6596   7.6670   7.7176   7.7519   7.7599   7.7999
    10.3407  10.3712  10.7424  10.7541  11.2124  11.2445  11.7581  11.7721
    11.8103  11.9609  12.1157  12.1325  12.3503  12.4370  12.5727  12.6282
    12.8121  12.9822  13.0582  13.2509  13.2567  13.2838  13.6042  13.6424
    15.1008  15.2267  15.5717  15.8258  15.8634  15.9165  15.9382  16.5592
    16.6290  16.7611  16.8950  17.4706  17.5651

          k = 0.1667 0.3171-0.5000 ( 62602 PWs)   bands (ev):

   -66.2550 -66.2550 -66.2548 -66.2548 -66.2542 -66.2542 -66.2540 -66.2540
   -30.6286 -30.6286 -30.6258 -30.6258 -30.6000 -30.6000 -30.5962 -30.5962
   -30.5886 -30.5886 -30.5866 -30.5866 -30.5493 -30.5493 -30.5482 -30.5482
   -30.5454 -30.5454 -30.5442 -30.5442 -30.5064 -30.5064 -30.5050 -30.5050
   -20.4157 -20.4157 -20.4157 -20.4157 -20.4156 -20.4156 -20.4156 -20.4156
   -20.3964 -20.3964 -20.3962 -20.3962 -20.3937 -20.3937 -20.3935 -20.3935
   -20.3929 -20.3929 -20.3926 -20.3926 -20.3926 -20.3926 -20.3923 -20.3923
   -20.3922 -20.3922 -20.3919 -20.3919 -20.3914 -20.3914 -20.3911 -20.3911
   -20.3848 -20.3848 -20.3846 -20.3846 -20.3840 -20.3840 -20.3840 -20.3840
   -20.3835 -20.3835 -20.3833 -20.3833 -20.3803 -20.3803 -20.3801 -20.3800
   -20.3800 -20.3800 -20.3798 -20.3798 -20.3776 -20.3776 -20.3773 -20.3773
    -9.5684  -9.5684  -9.4114  -9.4114  -9.0386  -9.0386  -8.8032  -8.8032
    -8.6804  -8.6804  -8.6412  -8.6412  -8.5683  -8.5683  -8.5034  -8.5034
    -8.2208  -8.2208  -8.1911  -8.1911  -7.9042  -7.9042  -7.8919  -7.8919
     1.4770   1.4770   1.4874   1.4874   2.2685   2.2685   2.3822   2.3822
     2.8777   2.8778   2.9676   2.9676   2.9979   2.9979   3.1538   3.1538
     3.1971   3.1971   3.3398   3.3398   3.3670   3.3670   3.5819   3.5819
     3.9992   3.9992   4.0348   4.0348   4.0385   4.0385   4.2930   4.2930
     4.6559   4.6559   4.7260   4.7260   4.9107   4.9107   4.9351   4.9351
     5.0306   5.0306   5.4416   5.4416   5.7751   5.7751   5.7895   5.7895
     6.5942   6.5942   6.7167   6.7167   6.7551   6.7551   6.7865   6.7865
     6.9282   6.9282   6.9810   6.9811   7.1032   7.1032   7.4515   7.4515
     7.4854   7.4854   7.5164   7.5164   7.5508   7.5508   7.7645   7.7645
    10.7278  10.7278  11.0968  11.0968  11.1394  11.1394  11.6983  11.6983
    11.9324  11.9324  12.0764  12.0764  12.4650  12.4650  12.5408  12.5408
    12.7006  12.7006  12.8287  12.8287  13.2088  13.2088  13.6185  13.6185
    15.1800  15.1800  15.7856  15.7856  16.2838  16.2838  16.3614  16.3614
    16.7766  16.7766  17.1635  17.1635  17.7694

          k = 0.1667-0.4757 0.0000 ( 62608 PWs)   bands (ev):

   -66.2554 -66.2554 -66.2546 -66.2546 -66.2545 -66.2545 -66.2537 -66.2537
   -30.6147 -30.6147 -30.6119 -30.6118 -30.6116 -30.6116 -30.6088 -30.6087
   -30.5973 -30.5973 -30.5929 -30.5928 -30.5903 -30.5903 -30.5855 -30.5855
   -30.5079 -30.5079 -30.5036 -30.5036 -30.5014 -30.5014 -30.4977 -30.4976
   -20.4157 -20.4157 -20.4157 -20.4157 -20.4156 -20.4156 -20.4156 -20.4156
   -20.3951 -20.3951 -20.3949 -20.3949 -20.3949 -20.3948 -20.3946 -20.3946
   -20.3935 -20.3934 -20.3931 -20.3931 -20.3928 -20.3928 -20.3924 -20.3924
   -20.3917 -20.3917 -20.3916 -20.3915 -20.3914 -20.3914 -20.3911 -20.3910
   -20.3851 -20.3851 -20.3847 -20.3847 -20.3844 -20.3844 -20.3840 -20.3840
   -20.3832 -20.3831 -20.3830 -20.3830 -20.3829 -20.3829 -20.3827 -20.3827
   -20.3777 -20.3777 -20.3772 -20.3772 -20.3771 -20.3771 -20.3767 -20.3767
    -9.7946  -9.7945  -9.4273  -9.4273  -9.3279  -9.3279  -9.0684  -9.0684
    -8.5922  -8.5922  -8.5308  -8.5308  -8.5187  -8.5187  -8.5164  -8.5164
    -7.9579  -7.9579  -7.8456  -7.8456  -7.8288  -7.8288  -7.7250  -7.7250
     1.1708   1.1708   1.1996   1.1996   1.4530   1.4530   1.6692   1.6692
     2.4802   2.4802   3.0940   3.0940   3.1166   3.1166   3.1554   3.1554
     3.1814   3.1814   3.2241   3.2241   3.3634   3.3634   3.4216   3.4216
     3.5953   3.5953   4.3515   4.3515   4.7766   4.7766   4.8994   4.8994
     5.0463   5.0463   5.1158   5.1159   5.2580   5.2580   5.4028   5.4028
     5.6326   5.6326   5.6630   5.6630   6.0131   6.0131   6.0846   6.0846
     6.3426   6.3426   6.3709   6.3709   6.6522   6.6522   6.8375   6.8375
     6.9392   6.9392   7.0329   7.0329   7.0938   7.0938   7.3850   7.3850
     7.4054   7.4054   7.4265   7.4266   7.4440   7.4440   7.8606   7.8606
     9.4702   9.4702  11.1496  11.1496  11.2183  11.2183  11.2788  11.2788
    11.3512  11.3512  12.1464  12.1464  12.3140  12.3140  12.9495  12.9495
    13.3302  13.3302  13.4313  13.4313  13.5163  13.5163  13.5560  13.5560
    15.1550  15.1550  15.4187  15.4187  15.4399  15.4399  15.7546  15.7546
    16.5093  16.5093  17.7923  17.7923  18.0259

          k = 0.1667-0.4757 0.1667 ( 62622 PWs)   bands (ev):

   -66.2553 -66.2553 -66.2546 -66.2545 -66.2545 -66.2545 -66.2538 -66.2537
   -30.6149 -30.6149 -30.6122 -30.6121 -30.6120 -30.6120 -30.6091 -30.6091
   -30.5907 -30.5907 -30.5898 -30.5898 -30.5863 -30.5863 -30.5855 -30.5855
   -30.5078 -30.5078 -30.5076 -30.5076 -30.5041 -30.5041 -30.5037 -30.5037
   -20.4157 -20.4157 -20.4157 -20.4157 -20.4156 -20.4156 -20.4156 -20.4156
   -20.3951 -20.3951 -20.3949 -20.3949 -20.3949 -20.3949 -20.3947 -20.3947
   -20.3933 -20.3933 -20.3931 -20.3931 -20.3927 -20.3927 -20.3925 -20.3925
   -20.3918 -20.3918 -20.3915 -20.3915 -20.3914 -20.3914 -20.3911 -20.3911
   -20.3850 -20.3850 -20.3846 -20.3846 -20.3844 -20.3844 -20.3838 -20.3838
   -20.3833 -20.3833 -20.3830 -20.3830 -20.3826 -20.3826 -20.3825 -20.3825
   -20.3777 -20.3777 -20.3775 -20.3775 -20.3773 -20.3773 -20.3771 -20.3771
    -9.7389  -9.7389  -9.3430  -9.3429  -9.3426  -9.3425  -9.0323  -9.0323
    -8.6002  -8.6001  -8.5246  -8.5244  -8.5242  -8.5241  -8.5146  -8.5146
    -7.9505  -7.9502  -7.9497  -7.9495  -7.8724  -7.8724  -7.8328  -7.8328
     1.3424   1.3425   1.4567   1.4572   1.4578   1.4583   1.7546   1.7546
     2.5704   2.5705   3.1026   3.1049   3.1181   3.1234   3.1529   3.1542
     3.1834   3.1840   3.2621   3.2636   3.4150   3.4166   3.4199   3.4221
     3.6155   3.6157   4.3954   4.3969   4.4383   4.4400   4.8552   4.8565
     4.9249   4.9254   5.0312   5.0326   5.0738   5.0751   5.3530   5.3533
[...]
    11.8674  11.8674  11.8674  11.8674  12.0608  12.0608  12.0608  12.0608
    12.9103  12.9103  12.9103  12.9103  13.0742  13.0742  13.0742  13.0742
    15.1938  15.1938  15.1938  15.1938  16.6823  16.6823  16.6823  16.6823
    17.5867  17.5867  17.5867  17.5867  17.7847

          k =-0.5000 0.3171 0.0000 ( 62592 PWs)   bands (ev):

   -66.2551 -66.2551 -66.2549 -66.2549 -66.2542 -66.2542 -66.2540 -66.2540
   -30.6284 -30.6284 -30.6256 -30.6256 -30.5995 -30.5995 -30.5959 -30.5959
   -30.5948 -30.5948 -30.5943 -30.5943 -30.5495 -30.5495 -30.5483 -30.5483
   -30.5450 -30.5450 -30.5437 -30.5437 -30.5002 -30.5002 -30.4988 -30.4988
   -20.4157 -20.4157 -20.4157 -20.4157 -20.4156 -20.4156 -20.4156 -20.4156
   -20.3964 -20.3964 -20.3962 -20.3962 -20.3938 -20.3938 -20.3935 -20.3935
   -20.3933 -20.3933 -20.3929 -20.3929 -20.3924 -20.3924 -20.3921 -20.3921
   -20.3919 -20.3919 -20.3917 -20.3917 -20.3915 -20.3915 -20.3913 -20.3913
   -20.3851 -20.3851 -20.3849 -20.3849 -20.3839 -20.3839 -20.3839 -20.3839
   -20.3835 -20.3835 -20.3833 -20.3833 -20.3804 -20.3804 -20.3802 -20.3802
   -20.3801 -20.3801 -20.3799 -20.3799 -20.3771 -20.3771 -20.3768 -20.3768
    -9.6385  -9.6385  -9.4938  -9.4938  -9.0245  -9.0245  -8.8235  -8.8235
    -8.6624  -8.6624  -8.6510  -8.6510  -8.5769  -8.5769  -8.4994  -8.4994
    -8.2227  -8.2227  -8.1859  -8.1859  -7.7822  -7.7822  -7.7706  -7.7706
     1.2215   1.2215   1.2264   1.2264   2.2660   2.2660   2.4012   2.4012
     2.8085   2.8086   2.9460   2.9460   2.9973   2.9973   3.1729   3.1729
     3.1978   3.1978   3.2502   3.2502   3.2717   3.2717   3.5391   3.5391
     3.9945   3.9945   4.0242   4.0242   4.0581   4.0581   4.2866   4.2866
     4.7375   4.7375   4.8430   4.8430   5.0351   5.0351   5.1723   5.1723
     5.3061   5.3061   5.6497   5.6498   6.1716   6.1716   6.2209   6.2209
     6.3823   6.3823   6.4487   6.4487   6.4725   6.4725   6.7054   6.7054
     6.9436   6.9436   6.9761   6.9761   7.0319   7.0319   7.4472   7.4472
     7.4723   7.4724   7.5062   7.5062   7.5396   7.5396   7.7854   7.7854
    10.5602  10.5602  11.0176  11.0176  11.0528  11.0528  11.6320  11.6320
    11.9239  11.9239  12.0409  12.0409  12.4871  12.4871  12.5810  12.5810
    12.7576  12.7576  12.8889  12.8889  13.3815  13.3815  13.7744  13.7744
    14.9406  14.9406  15.4826  15.4826  16.2221  16.2221  16.3650  16.3650
    16.7099  16.7099  17.1207  17.1207  17.8691

          k =-0.5000 0.3171 0.1667 ( 62610 PWs)   bands (ev):

   -66.2550 -66.2550 -66.2548 -66.2548 -66.2542 -66.2542 -66.2540 -66.2540
   -30.6286 -30.6286 -30.6259 -30.6259 -30.5998 -30.5998 -30.5962 -30.5962
   -30.5881 -30.5881 -30.5877 -30.5877 -30.5492 -30.5492 -30.5480 -30.5480
   -30.5453 -30.5453 -30.5440 -30.5440 -30.5065 -30.5065 -30.5052 -30.5052
   -20.4157 -20.4157 -20.4157 -20.4157 -20.4156 -20.4156 -20.4156 -20.4156
   -20.3964 -20.3964 -20.3963 -20.3963 -20.3938 -20.3938 -20.3935 -20.3935
   -20.3931 -20.3931 -20.3927 -20.3927 -20.3924 -20.3924 -20.3921 -20.3921
   -20.3919 -20.3919 -20.3918 -20.3918 -20.3915 -20.3915 -20.3914 -20.3914
   -20.3850 -20.3850 -20.3849 -20.3849 -20.3840 -20.3840 -20.3839 -20.3839
   -20.3831 -20.3831 -20.3829 -20.3829 -20.3804 -20.3804 -20.3802 -20.3802
   -20.3801 -20.3801 -20.3799 -20.3799 -20.3775 -20.3775 -20.3772 -20.3772
    -9.5686  -9.5686  -9.4118  -9.4118  -9.0387  -9.0387  -8.8034  -8.8034
    -8.6800  -8.6800  -8.6409  -8.6409  -8.5679  -8.5679  -8.5032  -8.5032
    -8.2205  -8.2205  -8.1911  -8.1911  -7.9045  -7.9045  -7.8921  -7.8921
     1.4760   1.4760   1.4863   1.4863   2.2683   2.2683   2.3821   2.3821
     2.8796   2.8796   2.9670   2.9670   2.9963   2.9963   3.1545   3.1545
     3.1972   3.1972   3.3423   3.3423   3.3661   3.3661   3.5813   3.5813
     3.9978   3.9978   4.0221   4.0221   4.0536   4.0536   4.2944   4.2945
     4.6553   4.6553   4.7245   4.7245   4.9104   4.9104   4.9357   4.9357
     5.0309   5.0309   5.4417   5.4417   5.7747   5.7747   5.7894   5.7894
     6.5945   6.5945   6.7178   6.7178   6.7557   6.7557   6.7867   6.7867
     6.9268   6.9268   6.9811   6.9811   7.1025   7.1025   7.4509   7.4509
     7.4832   7.4832   7.5193   7.5193   7.5514   7.5514   7.7649   7.7649
    10.7275  10.7275  11.0972  11.0972  11.1387  11.1387  11.6938  11.6938
    11.9326  11.9326  12.0772  12.0772  12.4648  12.4648  12.5436  12.5436
    12.7011  12.7011  12.8303  12.8303  13.2089  13.2089  13.6201  13.6201
    15.1799  15.1799  15.7844  15.7844  16.2837  16.2837  16.3612  16.3612
    16.7740  16.7740  17.1636  17.1636  17.7683

          k =-0.5000 0.3171 0.3333 ( 62606 PWs)   bands (ev):

   -66.2549 -66.2549 -66.2547 -66.2547 -66.2544 -66.2544 -66.2542 -66.2542
   -30.6284 -30.6284 -30.6266 -30.6266 -30.5992 -30.5992 -30.5970 -30.5970
   -30.5709 -30.5709 -30.5700 -30.5700 -30.5484 -30.5484 -30.5472 -30.5472
   -30.5461 -30.5461 -30.5449 -30.5449 -30.5238 -30.5238 -30.5225 -30.5225
   -20.4157 -20.4157 -20.4157 -20.4157 -20.4156 -20.4156 -20.4156 -20.4156
   -20.3964 -20.3964 -20.3963 -20.3963 -20.3938 -20.3938 -20.3936 -20.3936
   -20.3928 -20.3928 -20.3925 -20.3925 -20.3923 -20.3923 -20.3920 -20.3920
   -20.3920 -20.3920 -20.3919 -20.3919 -20.3916 -20.3916 -20.3916 -20.3916
   -20.3848 -20.3848 -20.3848 -20.3847 -20.3842 -20.3842 -20.3842 -20.3842
   -20.3821 -20.3821 -20.3818 -20.3818 -20.3805 -20.3805 -20.3802 -20.3802
   -20.3801 -20.3801 -20.3799 -20.3799 -20.3786 -20.3786 -20.3783 -20.3783
    -9.3900  -9.3900  -9.1871  -9.1871  -9.0885  -9.0885  -8.7525  -8.7525
    -8.7139  -8.7139  -8.6064  -8.6063  -8.5482  -8.5482  -8.5122  -8.5122
    -8.2552  -8.2551  -8.2092  -8.2092  -8.1954  -8.1954  -8.1402  -8.1402
     2.1043   2.1043   2.1757   2.1757   2.2759   2.2759   2.3939   2.3939
     2.9421   2.9422   2.9949   2.9949   3.0771   3.0771   3.1446   3.1446
     3.2280   3.2280   3.5105   3.5105   3.6208   3.6209   3.6956   3.6956
     3.9875   3.9875   4.0202   4.0202   4.0538   4.0538   4.1754   4.1754
     4.2484   4.2484   4.3823   4.3823   4.5371   4.5371   4.7713   4.7713
     4.8712   4.8712   4.9236   4.9236   4.9593   4.9593   5.2104   5.2104
     6.7855   6.7855   6.8358   6.8358   6.8887   6.8887   6.9515   6.9515
     7.1007   7.1007   7.1873   7.1873   7.3209   7.3209   7.4365   7.4366
     7.4724   7.4724   7.5512   7.5512   7.5713   7.5713   7.7084   7.7084
    11.1525  11.1525  11.3492  11.3492  11.4357  11.4357  11.7869  11.7869
    11.9661  11.9661  12.2181  12.2181  12.2624  12.2624  12.2921  12.2921
    12.6185  12.6185  12.7057  12.7057  12.7884  12.7884  13.2161  13.2161
    15.7483  15.7483  16.2836  16.2836  16.5185  16.5185  16.5982  16.5983
    17.0178  17.0178  17.2431  17.2431  17.5056

          k =-0.5000 0.3171-0.5000 ( 62624 PWs)   bands (ev):

   -66.2547 -66.2547 -66.2546 -66.2546 -66.2544 -66.2544 -66.2544 -66.2544
   -30.6276 -30.6276 -30.6276 -30.6276 -30.5981 -30.5981 -30.5981 -30.5981
   -30.5486 -30.5486 -30.5486 -30.5486 -30.5474 -30.5474 -30.5474 -30.5473
   -30.5459 -30.5459 -30.5459 -30.5459 -30.5450 -30.5450 -30.5450 -30.5450
   -20.4157 -20.4157 -20.4157 -20.4157 -20.4157 -20.4156 -20.4156 -20.4156
   -20.3964 -20.3964 -20.3964 -20.3964 -20.3937 -20.3937 -20.3937 -20.3937
   -20.3925 -20.3924 -20.3924 -20.3924 -20.3922 -20.3922 -20.3921 -20.3921
   -20.3920 -20.3920 -20.3920 -20.3920 -20.3918 -20.3918 -20.3917 -20.3917
   -20.3845 -20.3845 -20.3845 -20.3845 -20.3845 -20.3845 -20.3845 -20.3845
   -20.3809 -20.3809 -20.3809 -20.3809 -20.3806 -20.3806 -20.3806 -20.3806
   -20.3798 -20.3798 -20.3797 -20.3797 -20.3795 -20.3795 -20.3795 -20.3795
    -9.2009  -9.2009  -9.2009  -9.2009  -8.9088  -8.9088  -8.9088  -8.9088
    -8.5792  -8.5792  -8.5792  -8.5792  -8.4889  -8.4889  -8.4889  -8.4889
    -8.4715  -8.4715  -8.4715  -8.4715  -8.1925  -8.1925  -8.1925  -8.1925
     2.2802   2.2802   2.2802   2.2802   2.8881   2.8881   2.8881   2.8881
     2.9843   2.9843   2.9843   2.9843   3.1226   3.1226   3.1226   3.1226
     3.1784   3.1784   3.1784   3.1784   3.9063   3.9063   3.9063   3.9063
     3.9325   3.9325   3.9325   3.9325   4.0067   4.0067   4.0067   4.0067
     4.2142   4.2142   4.2142   4.2142   4.2437   4.2437   4.2437   4.2437
     4.6493   4.6493   4.6493   4.6493   4.9565   4.9565   4.9565   4.9565
     6.8465   6.8465   6.8465   6.8465   6.9234   6.9234   6.9234   6.9234
     7.3370   7.3371   7.3371   7.3371   7.3939   7.3939   7.3940   7.3940
     7.5114   7.5114   7.5114   7.5114   7.6290   7.6290   7.6290   7.6290
    11.6438  11.6438  11.6438  11.6438  11.6974  11.6974  11.6974  11.6974
    11.9424  11.9424  11.9424  11.9424  12.1676  12.1676  12.1676  12.1676
    12.5925  12.5925  12.5925  12.5925  12.7739  12.7739  12.7739  12.7739
    16.1403  16.1403  16.1403  16.1403  16.8716  16.8716  16.8716  16.8717
    17.3680  17.3681  17.3681  17.3681  17.7833

          k =-0.5000-0.4757 0.0000 ( 62596 PWs)   bands (ev):

   -66.2550 -66.2550 -66.2550 -66.2550 -66.2541 -66.2541 -66.2541 -66.2541
   -30.6136 -30.6136 -30.6134 -30.6134 -30.6108 -30.6108 -30.6106 -30.6106
   -30.5951 -30.5951 -30.5950 -30.5950 -30.5491 -30.5491 -30.5489 -30.5489
   -30.5445 -30.5445 -30.5443 -30.5443 -30.4995 -30.4995 -30.4995 -30.4995
   -20.4157 -20.4157 -20.4157 -20.4157 -20.4156 -20.4156 -20.4156 -20.4156
   -20.3951 -20.3951 -20.3951 -20.3950 -20.3948 -20.3948 -20.3948 -20.3948
   -20.3931 -20.3931 -20.3931 -20.3931 -20.3923 -20.3923 -20.3923 -20.3923
   -20.3918 -20.3918 -20.3918 -20.3918 -20.3914 -20.3914 -20.3914 -20.3914
   -20.3850 -20.3850 -20.3850 -20.3850 -20.3839 -20.3839 -20.3838 -20.3838
   -20.3835 -20.3835 -20.3834 -20.3834 -20.3803 -20.3803 -20.3803 -20.3803
   -20.3800 -20.3800 -20.3800 -20.3800 -20.3769 -20.3769 -20.3769 -20.3769
    -9.5533  -9.5533  -9.5523  -9.5522  -8.7957  -8.7957  -8.7904  -8.7904
    -8.6991  -8.6991  -8.6950  -8.6950  -8.4706  -8.4706  -8.4621  -8.4621
    -8.4161  -8.4160  -8.4080  -8.4080  -7.7764  -7.7764  -7.7764  -7.7764
     1.2247   1.2247   1.2257   1.2257   2.9017   2.9017   2.9257   2.9257
     3.0476   3.0477   3.0573   3.0573   3.1115   3.1115   3.1200   3.1200
     3.2097   3.2097   3.2106   3.2106   3.3261   3.3261   3.3546   3.3546
     3.4685   3.4685   3.5367   3.5367   4.2326   4.2326   4.2462   4.2462
     4.3330   4.3330   4.3553   4.3553   5.1191   5.1191   5.1272   5.1272
     5.4038   5.4038   5.4137   5.4138   6.2123   6.2123   6.2149   6.2149
     6.4422   6.4422   6.4433   6.4433   6.5733   6.5733   6.5844   6.5844
     7.2261   7.2261   7.2368   7.2368   7.2770   7.2771   7.3222   7.3222
     7.3656   7.3656   7.3929   7.3929   7.5425   7.5425   7.5437   7.5437
    11.0176  11.0176  11.0222  11.0222  11.1937  11.1937  11.1999  11.1999
    12.1842  12.1842  12.2178  12.2178  12.2196  12.2196  12.2484  12.2484
    12.7924  12.7924  12.7939  12.7939  13.5371  13.5371  13.5434  13.5434
    15.2982  15.2982  15.2999  15.2999  16.7219  16.7219  16.7440  16.7440
    17.2577  17.2578  17.2764  17.2765  17.3745

          k =-0.5000-0.4757 0.1667 ( 62600 PWs)   bands (ev):

   -66.2549 -66.2549 -66.2549 -66.2549 -66.2541 -66.2541 -66.2541 -66.2541
   -30.6139 -30.6139 -30.6137 -30.6137 -30.6111 -30.6111 -30.6109 -30.6109
   -30.5883 -30.5883 -30.5883 -30.5883 -30.5488 -30.5488 -30.5486 -30.5486
   -30.5448 -30.5448 -30.5446 -30.5446 -30.5059 -30.5059 -30.5059 -30.5059
   -20.4157 -20.4157 -20.4157 -20.4157 -20.4156 -20.4156 -20.4156 -20.4156
   -20.3951 -20.3951 -20.3951 -20.3951 -20.3949 -20.3949 -20.3949 -20.3949
   -20.3930 -20.3930 -20.3930 -20.3930 -20.3922 -20.3922 -20.3922 -20.3922
   -20.3918 -20.3918 -20.3918 -20.3918 -20.3915 -20.3915 -20.3915 -20.3915
   -20.3850 -20.3850 -20.3849 -20.3849 -20.3839 -20.3839 -20.3839 -20.3839
   -20.3830 -20.3830 -20.3830 -20.3830 -20.3803 -20.3803 -20.3803 -20.3803
   -20.3800 -20.3800 -20.3800 -20.3800 -20.3774 -20.3774 -20.3773 -20.3773
    -9.4755  -9.4755  -9.4742  -9.4742  -8.8138  -8.8138  -8.8083  -8.8083
    -8.6831  -8.6831  -8.6777  -8.6777  -8.4685  -8.4685  -8.4591  -8.4591
    -8.4188  -8.4188  -8.4104  -8.4104  -7.8988  -7.8988  -7.8984  -7.8984
     1.4829   1.4829   1.4847   1.4847   2.9028   2.9028   2.9259   2.9259
     3.0297   3.0297   3.0453   3.0453   3.1218   3.1218   3.1735   3.1735
     3.2072   3.2072   3.2978   3.2978   3.3821   3.3821   3.4117   3.4117
     3.5029   3.5029   3.5685   3.5685   4.2338   4.2338   4.2483   4.2483
     4.3257   4.3257   4.3482   4.3483   4.7878   4.7878   4.9502   4.9502
     5.0585   5.0585   5.2063   5.2063   5.7761   5.7761   5.7853   5.7853
     6.6807   6.6807   6.7165   6.7165   6.7852   6.7852   6.8232   6.8232
     7.2146   7.2146   7.2410   7.2410   7.2827   7.2827   7.3279   7.3279
     7.3606   7.3606   7.4071   7.4071   7.5419   7.5419   7.5667   7.5667
    11.0775  11.0775  11.1029  11.1029  11.3044  11.3044  11.3552  11.3552
    12.1757  12.1757  12.2159  12.2159  12.2301  12.2302  12.2550  12.2550
    12.6732  12.6732  12.7438  12.7438  13.3516  13.3516  13.3970  13.3970
    15.5808  15.5808  15.6013  15.6013  16.7820  16.7820  16.8059  16.8059
    17.2662  17.2662  17.2915  17.2916  17.3591

          k =-0.5000-0.4757 0.3333 ( 62556 PWs)   bands (ev):

   -66.2548 -66.2548 -66.2548 -66.2548 -66.2543 -66.2543 -66.2543 -66.2543
   -30.6137 -30.6137 -30.6136 -30.6136 -30.6119 -30.6119 -30.6117 -30.6117
   -30.5706 -30.5706 -30.5706 -30.5706 -30.5479 -30.5479 -30.5477 -30.5477
   -30.5456 -30.5456 -30.5455 -30.5455 -30.5232 -30.5232 -30.5232 -30.5232
   -20.4157 -20.4157 -20.4157 -20.4157 -20.4156 -20.4156 -20.4156 -20.4156
   -20.3951 -20.3951 -20.3951 -20.3951 -20.3950 -20.3949 -20.3949 -20.3949
   -20.3927 -20.3927 -20.3927 -20.3927 -20.3921 -20.3921 -20.3921 -20.3921
   -20.3919 -20.3919 -20.3919 -20.3919 -20.3917 -20.3917 -20.3917 -20.3917
   -20.3848 -20.3848 -20.3848 -20.3848 -20.3842 -20.3842 -20.3842 -20.3842
   -20.3819 -20.3819 -20.3819 -20.3819 -20.3804 -20.3804 -20.3804 -20.3804
   -20.3800 -20.3800 -20.3800 -20.3800 -20.3784 -20.3784 -20.3784 -20.3784
    -9.2670  -9.2669  -9.2650  -9.2650  -8.8749  -8.8749  -8.8699  -8.8699
    -8.6272  -8.6272  -8.6221  -8.6220  -8.4625  -8.4625  -8.4542  -8.4542
    -8.4242  -8.4242  -8.4170  -8.4170  -8.1898  -8.1898  -8.1888  -8.1888
     2.1647   2.1647   2.1680   2.1680   2.9063   2.9063   2.9210   2.9210
     3.0174   3.0174   3.0243   3.0243   3.1667   3.1667   3.1922   3.1922
     3.2797   3.2797   3.3051   3.3051   3.5417   3.5417   3.5540   3.5540
     3.6814   3.6814   3.7227   3.7227   4.1969   4.1969   4.2206   4.2206
     4.2677   4.2677   4.3204   4.3204   4.3867   4.3867   4.4896   4.4896
     4.5836   4.5836   4.7287   4.7287   4.9662   4.9662   4.9793   4.9793
     6.9655   6.9655   6.9965   6.9965   7.1030   7.1030   7.1106   7.1106
     7.2094   7.2094   7.2405   7.2405   7.2603   7.2603   7.3187   7.3187
     7.4125   7.4125   7.4650   7.4650   7.5554   7.5555   7.5763   7.5763
    11.3153  11.3153  11.3448  11.3448  11.6611  11.6611  11.7258  11.7258
    12.1036  12.1036  12.1583  12.1583  12.2449  12.2449  12.2598  12.2598
    12.4050  12.4050  12.5096  12.5096  12.8960  12.8960  12.9705  12.9705
    16.3495  16.3495  16.3986  16.3986  16.9585  16.9585  16.9722  16.9722
    17.2528  17.2528  17.3217  17.3217  17.3331

          k =-0.5000-0.4757-0.5000 ( 62584 PWs)   bands (ev):

   -66.2546 -66.2546 -66.2545 -66.2545 -66.2545 -66.2545 -66.2545 -66.2545
   -30.6129 -30.6129 -30.6129 -30.6129 -30.6127 -30.6127 -30.6127 -30.6127
   -30.5482 -30.5482 -30.5482 -30.5482 -30.5476 -30.5476 -30.5475 -30.5475
   -30.5460 -30.5460 -30.5460 -30.5460 -30.5454 -30.5454 -30.5453 -30.5453
   -20.4157 -20.4157 -20.4157 -20.4157 -20.4156 -20.4156 -20.4156 -20.4156
   -20.3951 -20.3950 -20.3950 -20.3950 -20.3950 -20.3950 -20.3950 -20.3950
   -20.3923 -20.3923 -20.3923 -20.3923 -20.3923 -20.3923 -20.3923 -20.3923
   -20.3919 -20.3919 -20.3919 -20.3919 -20.3919 -20.3919 -20.3919 -20.3919
   -20.3845 -20.3845 -20.3845 -20.3845 -20.3845 -20.3845 -20.3845 -20.3845
   -20.3808 -20.3808 -20.3808 -20.3808 -20.3807 -20.3807 -20.3807 -20.3807
   -20.3797 -20.3796 -20.3796 -20.3796 -20.3796 -20.3796 -20.3796 -20.3796
    -9.0230  -9.0230  -9.0230  -9.0230  -9.0195  -9.0195  -9.0195  -9.0194
    -8.4958  -8.4958  -8.4958  -8.4958  -8.4922  -8.4922  -8.4922  -8.4922
    -8.4241  -8.4241  -8.4241  -8.4241  -8.4192  -8.4192  -8.4192  -8.4192
     2.9023   2.9023   2.9023   2.9023   2.9113   2.9113   2.9113   2.9114
     3.0214   3.0214   3.0214   3.0214   3.0342   3.0342   3.0342   3.0342
     3.3421   3.3421   3.3421   3.3421   3.3711   3.3711   3.3711   3.3711
     4.0715   4.0715   4.0715   4.0715   4.0796   4.0796   4.0796   4.0796
     4.2930   4.2930   4.2930   4.2930   4.2958   4.2958   4.2958   4.2958
     4.3832   4.3832   4.3832   4.3832   4.3913   4.3913   4.3913   4.3914
     7.1222   7.1222   7.1222   7.1222   7.1585   7.1585   7.1585   7.1585
     7.2529   7.2529   7.2529   7.2529   7.2564   7.2564   7.2564   7.2564
     7.5295   7.5295   7.5295   7.5295   7.5391   7.5391   7.5391   7.5391
    11.7167  11.7167  11.7167  11.7167  11.7195  11.7195  11.7195  11.7195
    12.1856  12.1856  12.1856  12.1856  12.2196  12.2196  12.2196  12.2196
    12.4265  12.4265  12.4265  12.4265  12.4420  12.4420  12.4420  12.4420
    17.0429  17.0429  17.0429  17.0429  17.0604  17.0604  17.0604  17.0605
    17.3204  17.3204  17.3205  17.3205  17.3276

     the Fermi energy is     9.0941 ev

!    total energy              =   -6261.07355874 Ry
     Harris-Foulkes estimate   =   -6261.07355874 Ry
     estimated scf accuracy    <          1.0E-09 Ry

     The total energy is the sum of the following terms:

     one-electron contribution =   -4744.19053983 Ry
     hartree contribution      =    2607.75727884 Ry
     xc contribution           =    -965.73233792 Ry
     ewald contribution        =   -3158.90793739 Ry
     smearing contrib. (-TS)   =      -0.00002244 Ry

     convergence has been achieved in  13 iterations

     Writing output data file Landau_4.save/
 
     init_run     :     34.73s CPU     36.23s WALL (       1 calls)
     electrons    :   1701.03s CPU   1721.53s WALL (       1 calls)

     Called by init_run:
     wfcinit      :     31.34s CPU     32.69s WALL (       1 calls)
     potinit      :      1.35s CPU      1.38s WALL (       1 calls)
     hinit0       :      1.79s CPU      1.85s WALL (       1 calls)

     Called by electrons:
     c_bands      :   1483.57s CPU   1502.18s WALL (      13 calls)
     sum_band     :    209.39s CPU    210.56s WALL (      13 calls)
     v_of_rho     :      1.62s CPU      1.68s WALL (      14 calls)
     mix_rho      :      2.02s CPU      2.55s WALL (      13 calls)

     Called by c_bands:
     init_us_2    :      8.84s CPU      9.72s WALL (      54 calls)
     cegterg      :   1024.28s CPU   1041.47s WALL (      26 calls)

     Called by sum_band:

     Called by *egterg:
     h_psi        :    783.90s CPU    792.37s WALL (     111 calls)
     g_psi        :      3.62s CPU      3.63s WALL (      83 calls)
     cdiaghg      :     12.82s CPU     12.88s WALL (     109 calls)

     Called by h_psi:
     h_psi:pot    :    781.64s CPU    784.56s WALL (     111 calls)
     h_psi:calbec :    104.21s CPU    106.17s WALL (     111 calls)
     vloc_psi     :    567.51s CPU    568.10s WALL (     111 calls)
     add_vuspsi   :    109.92s CPU    110.28s WALL (     111 calls)

     General routines
     calbec       :    104.21s CPU    106.17s WALL (     111 calls)
     fft          :      0.72s CPU      0.74s WALL (      42 calls)
     ffts         :      0.24s CPU      0.24s WALL (      13 calls)
     fftw         :    597.17s CPU    597.45s WALL (   33650 calls)
 
     Parallel routines
 
     PWSCF        :  29m 9.60s CPU  29m34.54s WALL

 
   This run was terminated on:  23:55:25  21Nov2019            

=------------------------------------------------------------------------------=
   JOB DONE.
=------------------------------------------------------------------------------=
