
     Program PWSCF v.6.2 (svn rev. 14038) starts on 21Mar2020 at  0: 0:19 

     This program is part of the open-source Quantum ESPRESSO suite
     for quantum simulation of materials; please cite
         "P. Giannozzi et al., J. Phys.:Condens. Matter 21 395502 (2009);
         "P. Giannozzi et al., J. Phys.:Condens. Matter 29 465901 (2017);
          URL http://www.quantum-espresso.org", 
     in publications or presentations arising from this work. More details at
     http://www.quantum-espresso.org/quote

     Parallel version (MPI), running on    40 processors

     MPI processes distributed on     9 nodes
     K-points division:     npool     =      40
     Reading input from scf.in

     Current dimensions of program PWSCF are:
     Max number of different atomic species (ntypx) = 10
     Max number of k-points (npk) =  40000
     Max angular momentum in pseudopotentials (lmaxx) =  3

     Subspace diagonalization in iterative solution of the eigenvalue problem:
     a serial algorithm will be used

 
     G-vector sticks info
     --------------------
     sticks:   dense  smooth     PW     G-vecs:    dense   smooth      PW
     Sum        7697    7697   2063               499069   499069   69113
 


     bravais-lattice index     =            0
     lattice parameter (alat)  =      13.9067  a.u.
     unit-cell volume          =    2809.8277 (a.u.)^3
     number of atoms/cell      =           32
     number of atomic types    =            2
     number of electrons       =       368.60
     number of Kohn-Sham states=          221
     kinetic-energy cutoff     =     120.0000  Ry
     charge density cutoff     =     480.0000  Ry
     convergence threshold     =      1.0E-08
     mixing beta               =       0.7000
     number of iterations used =            8  plain     mixing
     Exchange-correlation      = SLA PW NOGX NOGC ( 1  4  0  0 0 0)

     celldm(1)=  13.906652  celldm(2)=   0.000000  celldm(3)=   0.000000
     celldm(4)=   0.000000  celldm(5)=   0.000000  celldm(6)=   0.000000

     crystal axes: (cart. coord. in units of alat)
               a(1) = (   1.000000   0.000000   0.000000 )  
               a(2) = (   0.000000   1.041915   0.000000 )  
               a(3) = (   0.000000   0.000000   1.002720 )  

     reciprocal axes: (cart. coord. in units 2 pi/alat)
               b(1) = (  1.000000  0.000000  0.000000 )  
               b(2) = (  0.000000  0.959772  0.000000 )  
               b(3) = (  0.000000  0.000000  0.997287 )  


     PseudoPot. # 1 for W  read from file:
     /cluster/scratch/mnoe/QE/pps/W_ONCV_LDA-4.0.upf
     MD5 check sum: ba0307d5d4cd419d6f1d13dc49d7c13a
     Pseudo is Norm-conserving + core correction, Zval = 28.0
     Generated using ONCVPSP code by D. R. Hamann
     Using radial grid of 1380 points,  8 beta functions with: 
                l(1) =   0
                l(2) =   0
                l(3) =   1
                l(4) =   1
                l(5) =   2
                l(6) =   2
                l(7) =   3
                l(8) =   3

     PseudoPot. # 2 for O  read from file:
     /cluster/scratch/mnoe/QE/pps/O_ONCV_LDA-3.0.upf
     MD5 check sum: a1bd6164e7280c17a38c229939bfbd54
     Pseudo is Norm-conserving + core correction, Zval =  6.0
     Generated using ONCVPSP code by D. R. Hamann
     Using radial grid of  926 points,  5 beta functions with: 
                l(1) =   0
                l(2) =   0
                l(3) =   1
                l(4) =   1
                l(5) =   2

     atomic species   valence    mass     pseudopotential
        W             28.00   183.84000     W ( 1.00)
        O              6.00    15.99940     O ( 1.00)

      8 Sym. Ops., with inversion, found ( 6 have fractional translation)



   Cartesian axes

     site n.     atom                  positions (alat units)
         1           W   tau(   1) = (   0.2389000   0.2911880   0.0105085  )
         2           W   tau(   2) = (   0.7611000   0.7507266   0.9922119  )
         3           W   tau(   3) = (   0.2611000   0.2297693   0.5118687  )
         4           W   tau(   4) = (   0.7389000   0.8121453   0.4908517  )
         5           W   tau(   5) = (   0.7611000   0.2911880   0.4908517  )
         6           W   tau(   6) = (   0.2389000   0.7507266   0.5118687  )
         7           W   tau(   7) = (   0.7389000   0.2297693   0.9922119  )
         8           W   tau(   8) = (   0.2611000   0.8121453   0.0105085  )
         9           O   tau(   9) = (   0.2295300   0.0079915   0.0032689  )
        10           O   tau(  10) = (   0.7704700   1.0339232   0.9994514  )
        11           O   tau(  11) = (   0.2704700   0.5129659   0.5046291  )
        12           O   tau(  12) = (   0.7295300   0.5289488   0.4980913  )
        13           O   tau(  13) = (   0.7704700   0.0079915   0.4980913  )
        14           O   tau(  14) = (   0.2295300   1.0339232   0.5046291  )
        15           O   tau(  15) = (   0.7295300   0.5129659   0.9994514  )
        16           O   tau(  16) = (   0.2704700   0.5289488   0.0032689  )
        17           O   tau(  17) = (   0.5030300   0.2385880   0.4566131  )
        18           O   tau(  18) = (   0.4969700   0.8033266   0.5461072  )
        19           O   tau(  19) = (   0.9969700   0.2823693   0.9579733  )
        20           O   tau(  20) = (   0.0030301   0.7595454   0.0447470  )
        21           O   tau(  21) = (   0.4969700   0.2385880   0.0447470  )
        22           O   tau(  22) = (   0.5030300   0.8033266   0.9579733  )
        23           O   tau(  23) = (   0.0030301   0.2823693   0.5461072  )
        24           O   tau(  24) = (   0.9969700   0.7595454   0.4566131  )
        25           O   tau(  25) = (   0.7053744   0.2556963   0.7474278  )
        26           O   tau(  26) = (   0.2946256   0.7862184   0.2552926  )
        27           O   tau(  27) = (   0.7946257   0.2652611   0.2460675  )
        28           O   tau(  28) = (   0.2053744   0.7766536   0.7566527  )
        29           O   tau(  29) = (   0.2946256   0.2556963   0.7566527  )
        30           O   tau(  30) = (   0.7053744   0.7862184   0.2460675  )
        31           O   tau(  31) = (   0.2053744   0.2652611   0.2552926  )
        32           O   tau(  32) = (   0.7946257   0.7766536   0.7474278  )

     number of k points=    64  gaussian smearing, width (Ry)=  0.0007
                       cart. coord. in units 2pi/alat
        k(    1) = (   0.0000000   0.0000000   0.0000000), wk =   0.0092593
        k(    2) = (   0.0000000   0.0000000   0.1662145), wk =   0.0185185
        k(    3) = (   0.0000000   0.0000000   0.3324290), wk =   0.0185185
        k(    4) = (   0.0000000   0.0000000  -0.4986435), wk =   0.0092593
        k(    5) = (   0.0000000   0.1599619   0.0000000), wk =   0.0185185
        k(    6) = (   0.0000000   0.1599619   0.1662145), wk =   0.0370370
        k(    7) = (   0.0000000   0.1599619   0.3324290), wk =   0.0370370
        k(    8) = (   0.0000000   0.1599619  -0.4986435), wk =   0.0185185
        k(    9) = (   0.0000000   0.3199238   0.0000000), wk =   0.0185185
        k(   10) = (   0.0000000   0.3199238   0.1662145), wk =   0.0370370
        k(   11) = (   0.0000000   0.3199238   0.3324290), wk =   0.0370370
        k(   12) = (   0.0000000   0.3199238  -0.4986435), wk =   0.0185185
        k(   13) = (   0.0000000  -0.4798858   0.0000000), wk =   0.0092593
        k(   14) = (   0.0000000  -0.4798858   0.1662145), wk =   0.0185185
        k(   15) = (   0.0000000  -0.4798858   0.3324290), wk =   0.0185185
        k(   16) = (   0.0000000  -0.4798858  -0.4986435), wk =   0.0092593
        k(   17) = (   0.1666667   0.0000000   0.0000000), wk =   0.0185185
        k(   18) = (   0.1666667   0.0000000   0.1662145), wk =   0.0370370
        k(   19) = (   0.1666667   0.0000000   0.3324290), wk =   0.0370370
        k(   20) = (   0.1666667   0.0000000  -0.4986435), wk =   0.0185185
        k(   21) = (   0.1666667   0.1599619   0.0000000), wk =   0.0370370
        k(   22) = (   0.1666667   0.1599619   0.1662145), wk =   0.0740741
        k(   23) = (   0.1666667   0.1599619   0.3324290), wk =   0.0740741
        k(   24) = (   0.1666667   0.1599619  -0.4986435), wk =   0.0370370
        k(   25) = (   0.1666667   0.3199238   0.0000000), wk =   0.0370370
        k(   26) = (   0.1666667   0.3199238   0.1662145), wk =   0.0740741
        k(   27) = (   0.1666667   0.3199238   0.3324290), wk =   0.0740741
        k(   28) = (   0.1666667   0.3199238  -0.4986435), wk =   0.0370370
        k(   29) = (   0.1666667  -0.4798858   0.0000000), wk =   0.0185185
        k(   30) = (   0.1666667  -0.4798858   0.1662145), wk =   0.0370370
        k(   31) = (   0.1666667  -0.4798858   0.3324290), wk =   0.0370370
        k(   32) = (   0.1666667  -0.4798858  -0.4986435), wk =   0.0185185
        k(   33) = (   0.3333333   0.0000000   0.0000000), wk =   0.0185185
        k(   34) = (   0.3333333   0.0000000   0.1662145), wk =   0.0370370
        k(   35) = (   0.3333333   0.0000000   0.3324290), wk =   0.0370370
        k(   36) = (   0.3333333   0.0000000  -0.4986435), wk =   0.0185185
        k(   37) = (   0.3333333   0.1599619   0.0000000), wk =   0.0370370
        k(   38) = (   0.3333333   0.1599619   0.1662145), wk =   0.0740741
        k(   39) = (   0.3333333   0.1599619   0.3324290), wk =   0.0740741
        k(   40) = (   0.3333333   0.1599619  -0.4986435), wk =   0.0370370
        k(   41) = (   0.3333333   0.3199238   0.0000000), wk =   0.0370370
        k(   42) = (   0.3333333   0.3199238   0.1662145), wk =   0.0740741
        k(   43) = (   0.3333333   0.3199238   0.3324290), wk =   0.0740741
        k(   44) = (   0.3333333   0.3199238  -0.4986435), wk =   0.0370370
        k(   45) = (   0.3333333  -0.4798858   0.0000000), wk =   0.0185185
        k(   46) = (   0.3333333  -0.4798858   0.1662145), wk =   0.0370370
        k(   47) = (   0.3333333  -0.4798858   0.3324290), wk =   0.0370370
        k(   48) = (   0.3333333  -0.4798858  -0.4986435), wk =   0.0185185
        k(   49) = (  -0.5000000   0.0000000   0.0000000), wk =   0.0092593
        k(   50) = (  -0.5000000   0.0000000   0.1662145), wk =   0.0185185
        k(   51) = (  -0.5000000   0.0000000   0.3324290), wk =   0.0185185
        k(   52) = (  -0.5000000   0.0000000  -0.4986435), wk =   0.0092593
        k(   53) = (  -0.5000000   0.1599619   0.0000000), wk =   0.0185185
        k(   54) = (  -0.5000000   0.1599619   0.1662145), wk =   0.0370370
        k(   55) = (  -0.5000000   0.1599619   0.3324290), wk =   0.0370370
        k(   56) = (  -0.5000000   0.1599619  -0.4986435), wk =   0.0185185
        k(   57) = (  -0.5000000   0.3199238   0.0000000), wk =   0.0185185
        k(   58) = (  -0.5000000   0.3199238   0.1662145), wk =   0.0370370
        k(   59) = (  -0.5000000   0.3199238   0.3324290), wk =   0.0370370
        k(   60) = (  -0.5000000   0.3199238  -0.4986435), wk =   0.0185185
        k(   61) = (  -0.5000000  -0.4798858   0.0000000), wk =   0.0092593
        k(   62) = (  -0.5000000  -0.4798858   0.1662145), wk =   0.0185185
        k(   63) = (  -0.5000000  -0.4798858   0.3324290), wk =   0.0185185
        k(   64) = (  -0.5000000  -0.4798858  -0.4986435), wk =   0.0092593

     Dense  grid:   499069 G-vectors     FFT dimensions: ( 100, 108, 100)

     Estimated max dynamical RAM per process >       3.13 GB

     Estimated total dynamical RAM >     125.30 GB

     Initial potential from superposition of free atoms

     starting charge  367.99656, renormalised to  368.60000
     Starting wfc are  232 randomized atomic wfcs

     total cpu time spent up to now is       40.8 secs

     Self-consistent Calculation

     iteration #  1     ecut=   120.00 Ry     beta= 0.70
     Davidson diagonalization with overlap
     ethr =  1.00E-02,  avg # of iterations =  5.2

     total cpu time spent up to now is      183.2 secs

     total energy              =   -6253.45184298 Ry
     Harris-Foulkes estimate   =   -6264.26113316 Ry
     estimated scf accuracy    <      13.61809000 Ry

     iteration #  2     ecut=   120.00 Ry     beta= 0.70
     Davidson diagonalization with overlap
     ethr =  3.69E-03,  avg # of iterations =  3.6

     total cpu time spent up to now is      324.3 secs

     total energy              =   -6250.41503997 Ry
     Harris-Foulkes estimate   =   -6270.25747784 Ry
     estimated scf accuracy    <      52.76846432 Ry

     iteration #  3     ecut=   120.00 Ry     beta= 0.70
     Davidson diagonalization with overlap
     ethr =  3.69E-03,  avg # of iterations =  3.4

     total cpu time spent up to now is      453.8 secs

     total energy              =   -6260.67423412 Ry
     Harris-Foulkes estimate   =   -6260.94018398 Ry
     estimated scf accuracy    <       0.88906283 Ry

     iteration #  4     ecut=   120.00 Ry     beta= 0.70
     Davidson diagonalization with overlap
     ethr =  2.41E-04,  avg # of iterations =  3.1

     total cpu time spent up to now is      559.0 secs

     total energy              =   -6260.66116727 Ry
     Harris-Foulkes estimate   =   -6260.73675224 Ry
     estimated scf accuracy    <       0.21980960 Ry

     iteration #  5     ecut=   120.00 Ry     beta= 0.70
     Davidson diagonalization with overlap
     ethr =  5.96E-05,  avg # of iterations =  5.2

     total cpu time spent up to now is      675.5 secs

     total energy              =   -6260.67110804 Ry
     Harris-Foulkes estimate   =   -6260.69766156 Ry
     estimated scf accuracy    <       0.06063289 Ry

     iteration #  6     ecut=   120.00 Ry     beta= 0.70
     Davidson diagonalization with overlap
     ethr =  1.64E-05,  avg # of iterations =  5.8

     total cpu time spent up to now is      796.3 secs

     total energy              =   -6260.68362823 Ry
     Harris-Foulkes estimate   =   -6260.68646250 Ry
     estimated scf accuracy    <       0.00736542 Ry

     iteration #  7     ecut=   120.00 Ry     beta= 0.70
     Davidson diagonalization with overlap
     ethr =  2.00E-06,  avg # of iterations =  6.2

     total cpu time spent up to now is      918.6 secs

     total energy              =   -6260.68460792 Ry
     Harris-Foulkes estimate   =   -6260.68469190 Ry
     estimated scf accuracy    <       0.00014443 Ry

     iteration #  8     ecut=   120.00 Ry     beta= 0.70
     Davidson diagonalization with overlap
     ethr =  3.92E-08,  avg # of iterations =  3.2

     total cpu time spent up to now is     1059.8 secs

     total energy              =   -6260.68467669 Ry
     Harris-Foulkes estimate   =   -6260.68469010 Ry
     estimated scf accuracy    <       0.00005964 Ry

     iteration #  9     ecut=   120.00 Ry     beta= 0.70
     Davidson diagonalization with overlap
     ethr =  1.62E-08,  avg # of iterations =  1.0

     total cpu time spent up to now is     1155.7 secs

     total energy              =   -6260.68467397 Ry
     Harris-Foulkes estimate   =   -6260.68468022 Ry
     estimated scf accuracy    <       0.00002319 Ry

     iteration # 10     ecut=   120.00 Ry     beta= 0.70
     Davidson diagonalization with overlap
     ethr =  6.29E-09,  avg # of iterations =  2.0

     total cpu time spent up to now is     1255.3 secs

     total energy              =   -6260.68467402 Ry
     Harris-Foulkes estimate   =   -6260.68467617 Ry
     estimated scf accuracy    <       0.00000503 Ry

     iteration # 11     ecut=   120.00 Ry     beta= 0.70
     Davidson diagonalization with overlap
     ethr =  1.36E-09,  avg # of iterations =  3.0

     total cpu time spent up to now is     1363.6 secs

     total energy              =   -6260.68467513 Ry
     Harris-Foulkes estimate   =   -6260.68467519 Ry
     estimated scf accuracy    <       0.00000016 Ry

     iteration # 12     ecut=   120.00 Ry     beta= 0.70
     Davidson diagonalization with overlap
     ethr =  4.41E-11,  avg # of iterations =  2.2

     total cpu time spent up to now is     1485.0 secs

     total energy              =   -6260.68467513 Ry
     Harris-Foulkes estimate   =   -6260.68467516 Ry
     estimated scf accuracy    <       0.00000004 Ry

     iteration # 13     ecut=   120.00 Ry     beta= 0.70
     Davidson diagonalization with overlap
     ethr =  1.19E-11,  avg # of iterations =  2.7

     total cpu time spent up to now is     1606.6 secs

     End of self-consistent calculation

          k = 0.0000 0.0000 0.0000 ( 62299 PWs)   bands (ev):

   -66.0597 -66.0592 -66.0588 -66.0588 -66.0583 -66.0583 -66.0579 -66.0574
   -30.4916 -30.4862 -30.4853 -30.4802 -30.4388 -30.4301 -30.4299 -30.4168
   -30.4158 -30.4144 -30.4043 -30.3987 -30.3987 -30.3969 -30.3865 -30.3813
   -30.3174 -30.3167 -30.3154 -30.3154 -30.3080 -30.3033 -30.3013 -30.2971
   -20.2111 -20.2109 -20.2105 -20.2104 -20.2098 -20.2097 -20.2092 -20.2092
   -20.2023 -20.2022 -20.2019 -20.2017 -20.1996 -20.1990 -20.1989 -20.1981
   -20.1978 -20.1973 -20.1966 -20.1964 -20.1963 -20.1953 -20.1946 -20.1946
   -20.1944 -20.1941 -20.1938 -20.1932 -20.1929 -20.1924 -20.1922 -20.1921
   -20.1833 -20.1831 -20.1829 -20.1827 -20.1815 -20.1812 -20.1811 -20.1808
   -20.1623 -20.1622 -20.1608 -20.1608 -20.1579 -20.1578 -20.1573 -20.1573
   -20.1558 -20.1558 -20.1553 -20.1553 -20.1529 -20.1529 -20.1515 -20.1515
    -9.9341  -9.6234  -9.5170  -9.5164  -9.2224  -9.1999  -9.1185  -8.9965
    -8.9777  -8.9016  -8.8690  -8.8635  -7.8686  -7.7953  -7.7781  -7.7726
    -7.7497  -7.7302  -7.7249  -7.7248  -7.6456  -7.6325  -7.6154  -7.6079
     1.2543   1.2612   1.3144   1.3356   1.3366   1.3616   1.3839   1.5628
     1.5903   1.6257   1.6451   1.8556   2.4449   2.5371   2.5539   2.5739
     2.6902   2.7250   4.1694   4.2226   4.3851   4.4861   4.7063   4.7630
     4.7998   4.8022   4.8088   4.8143   5.0040   5.0186   5.1721   5.4365
     5.4519   5.5042   5.5370   5.5628   5.5698   5.6203   5.6913   5.8210
     5.8296   5.8342   5.8362   5.9102   5.9823   6.0256   6.0744   6.1187
     6.1347   6.2804   6.3008   6.4829   6.4944   6.7889   6.8134   6.8699
     6.8954   6.9247   6.9485   7.0018   7.0120   7.0599   7.2587   7.2853
     7.3150   7.3369   7.8718   7.8903   8.0047   8.0703   8.1000   8.1610
     9.4710   9.4937   9.9719   9.9749   9.9970  10.0061  12.2822  12.3353
    12.4411  12.4696  12.4944  12.5140  12.5979  12.6490  12.7006  12.9439
    13.2346  13.2678  13.3298  13.3644  13.7357  13.8624  14.1300  14.1364
    14.4389  14.4935  14.7122  14.8412  15.3648  15.3890  15.6094  16.0025
    16.0692  16.8471  17.0054  17.0825  17.3604

          k = 0.0000 0.0000 0.1662 ( 62327 PWs)   bands (ev):

   -66.0597 -66.0592 -66.0589 -66.0587 -66.0584 -66.0582 -66.0579 -66.0574
   -30.4912 -30.4866 -30.4850 -30.4805 -30.4375 -30.4304 -30.4279 -30.4172
   -30.4117 -30.4107 -30.3991 -30.3986 -30.3946 -30.3939 -30.3871 -30.3797
   -30.3236 -30.3220 -30.3219 -30.3202 -30.3077 -30.3030 -30.3025 -30.2979
   -20.2110 -20.2109 -20.2106 -20.2105 -20.2098 -20.2097 -20.2093 -20.2092
   -20.2023 -20.2022 -20.2019 -20.2017 -20.1995 -20.1990 -20.1989 -20.1982
   -20.1977 -20.1972 -20.1965 -20.1965 -20.1962 -20.1954 -20.1947 -20.1947
   -20.1945 -20.1940 -20.1937 -20.1933 -20.1929 -20.1924 -20.1923 -20.1921
   -20.1833 -20.1830 -20.1829 -20.1827 -20.1815 -20.1812 -20.1811 -20.1808
   -20.1619 -20.1619 -20.1605 -20.1604 -20.1578 -20.1577 -20.1576 -20.1575
   -20.1561 -20.1561 -20.1556 -20.1556 -20.1528 -20.1528 -20.1516 -20.1515
    -9.8893  -9.5693  -9.5325  -9.4594  -9.2128  -9.1346  -9.1268  -8.9591
    -8.9391  -8.8895  -8.8674  -8.8361  -7.8967  -7.8901  -7.8364  -7.7991
    -7.7826  -7.7736  -7.7380  -7.7312  -7.7280  -7.7165  -7.6400  -7.6156
     1.3257   1.3346   1.3540   1.3875   1.4417   1.4599   1.5574   1.5942
     1.6220   1.7048   1.8060   1.9731   2.5317   2.5614   2.6272   2.6599
     2.6820   2.8102   4.1250   4.1715   4.3736   4.4155   4.4591   4.4708
     4.5928   4.6957   4.7977   4.8410   4.8578   5.0154   5.1676   5.2902
     5.3381   5.4590   5.4712   5.5802   5.5804   5.5853   5.6385   5.6991
     5.7141   5.7800   5.8837   5.8885   5.9905   6.0139   6.1359   6.1480
     6.2063   6.4318   6.4830   6.4929   6.6827   6.7345   6.7569   6.7978
     6.8365   6.9172   6.9202   6.9614   6.9940   7.0634   7.1002   7.1081
     7.1455   7.1911   7.8684   7.8782   8.0250   8.0534   8.0735   8.1144
     9.7636   9.7952   9.9725  10.0082  10.2432  10.2861  12.2653  12.3375
    12.3440  12.4401  12.5166  12.5405  12.6515  12.6881  12.7479  12.8699
    13.0827  13.2747  13.2767  13.3716  13.8116  13.8619  13.9928  14.0192
    14.4710  14.6236  14.7079  14.9523  15.4049  15.4540  15.5774  16.0411
    16.3169  16.7966  17.0170  17.1882  17.4483

          k = 0.0000 0.0000 0.3324 ( 62354 PWs)   bands (ev):

   -66.0595 -66.0590 -66.0590 -66.0586 -66.0585 -66.0581 -66.0581 -66.0576
   -30.4902 -30.4876 -30.4841 -30.4815 -30.4352 -30.4315 -30.4239 -30.4185
   -30.4051 -30.4017 -30.4002 -30.3891 -30.3835 -30.3815 -30.3804 -30.3730
   -30.3400 -30.3390 -30.3372 -30.3360 -30.3069 -30.3042 -30.3022 -30.2995
   -20.2109 -20.2108 -20.2107 -20.2106 -20.2097 -20.2096 -20.2094 -20.2093
   -20.2023 -20.2022 -20.2018 -20.2017 -20.1994 -20.1991 -20.1988 -20.1983
   -20.1974 -20.1968 -20.1967 -20.1962 -20.1960 -20.1958 -20.1952 -20.1951
   -20.1943 -20.1939 -20.1937 -20.1936 -20.1928 -20.1924 -20.1923 -20.1921
   -20.1832 -20.1830 -20.1830 -20.1828 -20.1814 -20.1812 -20.1811 -20.1809
   -20.1610 -20.1610 -20.1595 -20.1595 -20.1584 -20.1584 -20.1575 -20.1574
   -20.1569 -20.1569 -20.1564 -20.1564 -20.1525 -20.1525 -20.1518 -20.1518
    -9.7808  -9.5808  -9.4441  -9.3291  -9.2529  -9.1551  -8.9105  -8.8849
    -8.8778  -8.8008  -8.7786  -8.7106  -8.1834  -8.1808  -8.1012  -8.0872
    -7.8343  -7.8093  -7.7585  -7.7366  -7.7171  -7.6953  -7.6606  -7.6366
     1.3333   1.3340   1.3978   1.4118   1.5197   1.5456   1.5749   1.6152
     2.2855   2.3342   2.4427   2.5311   2.5843   2.6715   2.7800   2.8856
     2.8976   3.0431   3.7491   3.8614   3.8759   3.9996   4.1094   4.2981
     4.4152   4.5419   4.5918   4.6631   4.7139   4.8078   4.9385   5.1150
     5.1233   5.1648   5.2023   5.3480   5.4233   5.5000   5.6488   5.7336
     5.7392   5.7732   5.8591   5.9224   6.0242   6.1598   6.1832   6.2652
     6.2691   6.3865   6.4432   6.4903   6.5456   6.5653   6.5682   6.7875
     6.8203   6.9021   6.9170   6.9547   7.0159   7.0616   7.0854   7.1574
     7.2560   7.3171   7.7832   7.7954   7.9055   7.9674   8.0571   8.0753
     9.9349   9.9648  10.4654  10.5494  10.8567  10.9391  11.8984  11.9649
    12.1727  12.4248  12.4875  12.6508  12.6779  12.6782  12.7667  12.8013
    12.9266  13.1717  13.2454  13.3095  13.6664  13.7222  13.8624  13.8812
    14.5815  14.6934  14.9545  15.2448  15.4732  15.5800  15.8777  15.9539
    16.2425  17.1772  17.3784  17.5585  17.7514

          k = 0.0000 0.0000-0.4986 ( 62384 PWs)   bands (ev):

   -66.0593 -66.0593 -66.0588 -66.0588 -66.0583 -66.0583 -66.0578 -66.0578
   -30.4889 -30.4889 -30.4828 -30.4828 -30.4331 -30.4331 -30.4207 -30.4207
   -30.4021 -30.4021 -30.3932 -30.3932 -30.3617 -30.3617 -30.3614 -30.3614
   -30.3583 -30.3583 -30.3574 -30.3574 -30.3057 -30.3057 -30.3010 -30.3009
   -20.2108 -20.2108 -20.2107 -20.2107 -20.2095 -20.2095 -20.2095 -20.2094
   -20.2023 -20.2023 -20.2018 -20.2018 -20.1992 -20.1992 -20.1985 -20.1985
   -20.1970 -20.1970 -20.1963 -20.1963 -20.1957 -20.1957 -20.1956 -20.1955
   -20.1939 -20.1939 -20.1938 -20.1937 -20.1926 -20.1926 -20.1922 -20.1922
   -20.1831 -20.1831 -20.1829 -20.1829 -20.1813 -20.1813 -20.1810 -20.1810
   -20.1597 -20.1597 -20.1597 -20.1596 -20.1582 -20.1582 -20.1582 -20.1582
   -20.1570 -20.1570 -20.1570 -20.1570 -20.1522 -20.1522 -20.1522 -20.1521
    -9.6654  -9.6654  -9.3271  -9.3271  -9.2163  -9.2163  -8.8923  -8.8923
    -8.5367  -8.5367  -8.5188  -8.5188  -8.5086  -8.5086  -8.4455  -8.4455
    -7.8231  -7.8231  -7.7481  -7.7481  -7.6888  -7.6888  -7.6657  -7.6657
     1.3334   1.3334   1.4103   1.4104   1.5336   1.5336   1.6064   1.6064
     2.6136   2.6136   3.0299   3.0300   3.1296   3.1296   3.1680   3.1681
     3.2921   3.2922   3.3015   3.3015   3.5250   3.5250   3.7736   3.7737
     3.8374   3.8374   4.5353   4.5353   4.6234   4.6234   4.9856   4.9856
     5.2113   5.2113   5.3043   5.3043   5.3406   5.3406   5.6950   5.6950
     5.8083   5.8083   5.9673   5.9673   6.0807   6.0807   6.2345   6.2345
     6.2605   6.2606   6.3593   6.3593   6.4924   6.4924   6.5695   6.5695
     6.7917   6.7917   6.9089   6.9089   7.0424   7.0424   7.5092   7.5092
     7.5562   7.5562   7.6400   7.6400   7.7035   7.7035   8.0719   8.0719
     9.9528   9.9528  11.2314  11.2314  11.3151  11.3151  11.5771  11.5771
    11.7168  11.7168  12.6650  12.6650  12.6888  12.6888  12.9217  12.9218
    12.9530  12.9530  13.2832  13.2832  13.4310  13.4310  13.8704  13.8704
    14.6604  14.6604  15.2721  15.2721  15.6875  15.6875  15.7986  15.7986
    16.6570  16.6570  17.8519  17.8519  18.0453

          k = 0.0000 0.1600 0.0000 ( 62407 PWs)   bands (ev):

   -66.0597 -66.0593 -66.0588 -66.0587 -66.0584 -66.0583 -66.0578 -66.0574
   -30.4875 -30.4821 -30.4812 -30.4759 -30.4416 -30.4333 -30.4326 -30.4210
   -30.4157 -30.4145 -30.4044 -30.4001 -30.3982 -30.3964 -30.3879 -30.3831
   -30.3173 -30.3167 -30.3155 -30.3155 -30.3077 -30.3037 -30.3011 -30.2974
   -20.2109 -20.2108 -20.2104 -20.2103 -20.2098 -20.2098 -20.2093 -20.2092
   -20.2021 -20.2020 -20.2017 -20.2015 -20.1997 -20.1991 -20.1991 -20.1983
   -20.1977 -20.1973 -20.1968 -20.1965 -20.1963 -20.1952 -20.1946 -20.1946
   -20.1945 -20.1942 -20.1939 -20.1933 -20.1929 -20.1925 -20.1923 -20.1922
   -20.1833 -20.1831 -20.1829 -20.1827 -20.1815 -20.1812 -20.1811 -20.1808
   -20.1623 -20.1622 -20.1608 -20.1608 -20.1579 -20.1578 -20.1573 -20.1573
   -20.1558 -20.1558 -20.1553 -20.1553 -20.1529 -20.1529 -20.1515 -20.1515
    -9.9019  -9.6356  -9.4767  -9.4749  -9.2300  -9.2084  -9.0416  -8.9951
    -8.9789  -8.8553  -8.8307  -8.8266  -7.9551  -7.8961  -7.8815  -7.8373
    -7.7711  -7.7617  -7.7316  -7.7269  -7.6439  -7.6345  -7.6192  -7.6102
     1.2545   1.2603   1.3300   1.3370   1.3631   1.3839   1.4938   1.6445
     1.7619   1.8152   1.8434   2.0083   2.4517   2.5311   2.6281   2.6516
     2.7611   2.8006   4.0244   4.0899   4.1098   4.1910   4.6539   4.7502
     4.7847   4.8076   4.8167   4.8642   4.9541   4.9576   5.0620   5.2882
     5.3303   5.4802   5.4824   5.5956   5.6480   5.6504   5.6758   5.7325
     5.7541   5.7832   5.8811   5.9329   5.9734   6.0328   6.0672   6.1181
     6.1298   6.2592   6.3150   6.5034   6.5398   6.7856   6.8053   6.8253
     6.8849   6.9185   6.9270   6.9580   6.9682   6.9755   7.2664   7.2837
     7.3243   7.3354   7.8715   7.8886   7.9793   8.0172   8.0582   8.0828
     9.4807   9.4947  10.1707  10.1742  10.1839  10.1886  12.1781  12.2903
    12.4297  12.4356  12.4433  12.4803  12.4831  12.4977  12.7295  12.9494
    13.2509  13.2630  13.3174  13.3805  13.8576  13.8609  14.0290  14.0364
    14.5321  14.7530  14.8755  15.0110  15.3636  15.3841  15.9763  16.0105
    16.0354  16.5523  17.1483  17.2246  17.5340

          k = 0.0000 0.1600 0.1662 ( 62386 PWs)   bands (ev):

   -66.0596 -66.0592 -66.0588 -66.0587 -66.0584 -66.0582 -66.0579 -66.0575
   -30.4872 -30.4825 -30.4808 -30.4763 -30.4404 -30.4336 -30.4309 -30.4215
   -30.4116 -30.4107 -30.3987 -30.3985 -30.3956 -30.3934 -30.3885 -30.3814
   -30.3236 -30.3222 -30.3219 -30.3204 -30.3074 -30.3034 -30.3022 -30.2983
   -20.2109 -20.2108 -20.2104 -20.2103 -20.2098 -20.2097 -20.2093 -20.2093
   -20.2021 -20.2020 -20.2016 -20.2015 -20.1996 -20.1992 -20.1990 -20.1984
   -20.1976 -20.1972 -20.1966 -20.1964 -20.1964 -20.1953 -20.1948 -20.1947
   -20.1945 -20.1941 -20.1938 -20.1934 -20.1929 -20.1924 -20.1923 -20.1922
   -20.1833 -20.1831 -20.1829 -20.1828 -20.1815 -20.1812 -20.1811 -20.1809
   -20.1619 -20.1619 -20.1605 -20.1604 -20.1578 -20.1577 -20.1576 -20.1575
   -20.1561 -20.1561 -20.1556 -20.1556 -20.1528 -20.1528 -20.1516 -20.1515
    -9.8557  -9.5816  -9.4907  -9.4148  -9.2215  -9.1423  -9.0500  -8.9571
    -8.9403  -8.8451  -8.8305  -8.8024  -7.9607  -7.9081  -7.8883  -7.8859
    -7.8492  -7.8432  -7.7719  -7.7473  -7.7373  -7.7187  -7.6422  -7.6178
     1.3488   1.3540   1.3651   1.3876   1.5495   1.5891   1.5944   1.7672
     1.8054   1.8395   1.8496   2.0751   2.5392   2.6184   2.6374   2.7389
     2.7538   2.8853   4.0381   4.0413   4.1573   4.1775   4.3981   4.4526
     4.6383   4.6393   4.7079   4.8325   4.8536   4.9657   5.0568   5.2095
     5.2565   5.3423   5.4055   5.4681   5.5240   5.6049   5.6611   5.7037
     5.7665   5.7718   5.8409   5.8981   5.9090   6.0424   6.1127   6.1757
     6.1762   6.3771   6.4838   6.5256   6.7035   6.7730   6.7762   6.8035
     6.8257   6.9173   6.9195   6.9438   6.9749   6.9785   7.1009   7.1136
     7.1629   7.1902   7.8671   7.8770   7.9870   8.0143   8.0211   8.0423
     9.7947   9.8015  10.1737  10.1979  10.3946  10.4301  12.2398  12.2429
    12.3487  12.3751  12.4613  12.4833  12.5292  12.5812  12.7793  12.8932
    13.0752  13.2644  13.2669  13.3781  13.8608  13.8875  13.8927  13.9222
    14.6092  14.8559  14.9236  15.1042  15.4021  15.4537  15.9786  16.0073
    16.2891  16.7087  16.9251  17.3093  17.5991

          k = 0.0000 0.1600 0.3324 ( 62350 PWs)   bands (ev):

   -66.0595 -66.0590 -66.0590 -66.0586 -66.0585 -66.0581 -66.0581 -66.0576
   -30.4861 -30.4835 -30.4799 -30.4772 -30.4382 -30.4346 -30.4276 -30.4227
   -30.4048 -30.4018 -30.3998 -30.3903 -30.3835 -30.3819 -30.3804 -30.3743
   -30.3400 -30.3391 -30.3373 -30.3362 -30.3066 -30.3039 -30.3026 -30.2999
   -20.2108 -20.2107 -20.2105 -20.2104 -20.2097 -20.2096 -20.2094 -20.2094
   -20.2021 -20.2020 -20.2016 -20.2015 -20.1995 -20.1992 -20.1989 -20.1985
   -20.1973 -20.1968 -20.1966 -20.1963 -20.1961 -20.1957 -20.1952 -20.1952
   -20.1943 -20.1940 -20.1938 -20.1936 -20.1928 -20.1924 -20.1923 -20.1922
   -20.1832 -20.1830 -20.1830 -20.1828 -20.1814 -20.1812 -20.1811 -20.1809
   -20.1610 -20.1610 -20.1595 -20.1595 -20.1584 -20.1584 -20.1575 -20.1574
   -20.1569 -20.1569 -20.1564 -20.1564 -20.1525 -20.1525 -20.1518 -20.1518
    -9.7439  -9.5395  -9.4560  -9.2703  -9.2623  -9.0789  -8.8929  -8.8838
    -8.8409  -8.8026  -8.7621  -8.6912  -8.1878  -8.1812  -8.1159  -8.0849
    -7.9239  -7.9037  -7.8631  -7.8391  -7.7219  -7.6976  -7.6633  -7.6389
     1.3706   1.3830   1.3977   1.4116   1.7236   1.7370   1.8060   1.8349
     2.2847   2.3421   2.4444   2.5468   2.6580   2.7375   2.7905   2.8812
     2.9780   3.1119   3.7559   3.8664   3.8733   3.9434   4.1608   4.1641
     4.2042   4.3891   4.5590   4.5894   4.6755   4.7680   4.8031   4.9802
     4.9995   5.1482   5.1596   5.1720   5.3885   5.4267   5.5234   5.6640
     5.7192   5.8043   5.8084   5.8772   5.9213   6.1180   6.1777   6.1868
     6.3165   6.4841   6.4870   6.5395   6.5603   6.6581   6.7400   6.7726
     6.8347   6.8655   6.9260   6.9306   6.9679   7.0079   7.1262   7.1498
     7.2577   7.3130   7.7854   7.7930   7.8738   7.9135   8.0060   8.0219
    10.1444  10.1719  10.4763  10.5582  10.9627  11.0283  11.9002  11.9630
    12.1686  12.4423  12.4602  12.5003  12.5933  12.6646  12.7204  12.7926
    12.8184  13.1716  13.2191  13.2907  13.5530  13.6440  13.8623  13.8986
    14.7579  14.8512  15.2954  15.3763  15.5673  15.8610  15.9149  15.9219
    16.3702  17.1393  17.1743  17.4386  17.7373

          k = 0.0000 0.1600-0.4986 ( 62366 PWs)   bands (ev):

   -66.0592 -66.0592 -66.0588 -66.0588 -66.0583 -66.0583 -66.0579 -66.0579
   -30.4848 -30.4848 -30.4785 -30.4785 -30.4362 -30.4362 -30.4247 -30.4247
   -30.4017 -30.4017 -30.3941 -30.3941 -30.3618 -30.3618 -30.3616 -30.3616
   -30.3585 -30.3584 -30.3578 -30.3578 -30.3054 -30.3054 -30.3013 -30.3013
   -20.2107 -20.2107 -20.2106 -20.2106 -20.2096 -20.2096 -20.2095 -20.2095
   -20.2021 -20.2021 -20.2016 -20.2016 -20.1994 -20.1994 -20.1987 -20.1987
   -20.1969 -20.1969 -20.1962 -20.1962 -20.1958 -20.1958 -20.1957 -20.1957
   -20.1940 -20.1940 -20.1938 -20.1938 -20.1926 -20.1926 -20.1922 -20.1922
   -20.1831 -20.1831 -20.1829 -20.1829 -20.1813 -20.1813 -20.1810 -20.1810
   -20.1597 -20.1597 -20.1597 -20.1596 -20.1582 -20.1582 -20.1582 -20.1582
   -20.1570 -20.1570 -20.1570 -20.1570 -20.1522 -20.1522 -20.1522 -20.1521
    -9.6256  -9.6256  -9.3378  -9.3378  -9.1443  -9.1443  -8.8564  -8.8564
    -8.5416  -8.5416  -8.5166  -8.5166  -8.5142  -8.5142  -8.4392  -8.4392
    -7.9167  -7.9167  -7.8530  -7.8530  -7.6925  -7.6925  -7.6681  -7.6681
     1.3791   1.3791   1.4102   1.4102   1.7403   1.7403   1.8293   1.8293
     2.6842   2.6842   3.0460   3.0461   3.1610   3.1610   3.1650   3.1650
     3.2883   3.2883   3.3251   3.3251   3.5150   3.5150   3.7874   3.7874
     3.8887   3.8887   4.3024   4.3024   4.5274   4.5274   4.7902   4.7902
     5.0601   5.0601   5.2754   5.2754   5.3346   5.3347   5.5357   5.5357
     5.7391   5.7391   5.8491   5.8491   6.0835   6.0836   6.2575   6.2575
     6.3253   6.3253   6.4034   6.4034   6.5546   6.5546   6.6750   6.6750
     6.8529   6.8529   6.8967   6.8967   6.9582   6.9582   7.5184   7.5184
     7.5520   7.5520   7.6219   7.6219   7.6757   7.6757   8.0177   8.0177
    10.1661  10.1661  11.2388  11.2388  11.3145  11.3145  11.6441  11.6442
    11.7739  11.7739  12.5321  12.5321  12.6697  12.6697  12.8812  12.8812
    12.9311  12.9311  13.1688  13.1688  13.3878  13.3879  13.8720  13.8720
    14.8250  14.8250  15.6388  15.6388  15.7728  15.7728  15.8314  15.8315
    16.7085  16.7085  17.6430  17.6430  18.1391

          k = 0.0000 0.3199 0.0000 ( 62404 PWs)   bands (ev):

   -66.0596 -66.0593 -66.0587 -66.0586 -66.0585 -66.0584 -66.0578 -66.0575
   -30.4768 -30.4711 -30.4699 -30.4643 -30.4498 -30.4425 -30.4412 -30.4326
   -30.4156 -30.4148 -30.4044 -30.4026 -30.3967 -30.3946 -30.3911 -30.3872
   -30.3169 -30.3166 -30.3159 -30.3159 -30.3070 -30.3047 -30.3004 -30.2983
   -20.2106 -20.2105 -20.2101 -20.2100 -20.2100 -20.2099 -20.2095 -20.2094
   -20.2016 -20.2014 -20.2010 -20.2008 -20.2001 -20.1997 -20.1994 -20.1990
   -20.1976 -20.1973 -20.1970 -20.1969 -20.1960 -20.1951 -20.1950 -20.1947
   -20.1946 -20.1944 -20.1939 -20.1935 -20.1929 -20.1926 -20.1923 -20.1923
   -20.1833 -20.1831 -20.1829 -20.1828 -20.1815 -20.1813 -20.1810 -20.1809
   -20.1623 -20.1622 -20.1608 -20.1608 -20.1579 -20.1578 -20.1573 -20.1573
   -20.1558 -20.1558 -20.1553 -20.1553 -20.1529 -20.1529 -20.1515 -20.1515
    -9.8235  -9.6733  -9.3869  -9.3792  -9.2552  -9.2360  -8.9916  -8.9823
    -8.8245  -8.7093  -8.7005  -8.6972  -8.2009  -8.1563  -8.1447  -8.1224
    -7.7678  -7.7658  -7.7345  -7.7316  -7.6392  -7.6316  -7.6255  -7.6162
     1.2552   1.2585   1.3380   1.3382   1.3794   1.3840   1.6078   1.6421
     2.3334   2.4550   2.4686   2.4928   2.5136   2.6273   2.8449   2.8958
     2.9659   3.0349   3.6197   3.6528   3.7011   3.7361   4.1362   4.4487
     4.5110   4.7453   4.7485   4.7871   4.8124   4.8495   5.0248   5.0400
     5.0736   5.0948   5.3695   5.4026   5.5757   5.5814   5.6988   5.7336
     5.8890   5.9117   5.9122   5.9275   5.9720   6.0494   6.0620   6.1358
     6.1527   6.2067   6.2972   6.5037   6.5666   6.6020   6.8009   6.8308
     6.8589   6.9492   7.1050   7.1058   7.1110   7.1218   7.2809   7.2817
     7.3354   7.3371   7.7941   7.8353   7.8372   7.8793   7.9016   7.9022
     9.4906   9.4958  10.6298  10.6890  10.6939  10.7226  11.8119  11.9330
    11.9766  12.0288  12.4280  12.4442  12.4915  12.4983  12.8046  12.9453
    13.3142  13.3251  13.3683  13.4330  13.7073  13.7847  13.7925  13.7970
    14.9277  15.2766  15.3162  15.3614  15.3758  15.6552  15.8834  15.9245
    16.0054  16.9985  17.2474  17.6375  17.7049

          k = 0.0000 0.3199 0.1662 ( 62395 PWs)   bands (ev):

   -66.0595 -66.0593 -66.0588 -66.0586 -66.0585 -66.0583 -66.0578 -66.0576
   -30.4763 -30.4714 -30.4695 -30.4647 -30.4490 -30.4429 -30.4402 -30.4330
   -30.4114 -30.4108 -30.3988 -30.3975 -30.3971 -30.3920 -30.3916 -30.3853
   -30.3233 -30.3225 -30.3217 -30.3208 -30.3067 -30.3044 -30.3015 -30.2993
   -20.2106 -20.2105 -20.2101 -20.2100 -20.2100 -20.2099 -20.2095 -20.2094
   -20.2016 -20.2014 -20.2010 -20.2009 -20.2001 -20.1997 -20.1994 -20.1990
   -20.1974 -20.1971 -20.1969 -20.1968 -20.1961 -20.1952 -20.1951 -20.1949
   -20.1946 -20.1943 -20.1938 -20.1936 -20.1928 -20.1926 -20.1924 -20.1923
   -20.1832 -20.1831 -20.1829 -20.1828 -20.1814 -20.1813 -20.1810 -20.1809
   -20.1619 -20.1619 -20.1604 -20.1604 -20.1578 -20.1577 -20.1575 -20.1575
   -20.1561 -20.1561 -20.1556 -20.1556 -20.1528 -20.1528 -20.1516 -20.1516
    -9.7742  -9.6198  -9.3950  -9.3132  -9.2498  -9.1682  -8.9531  -8.9437
    -8.8327  -8.7040  -8.7022  -8.6820  -8.2016  -8.1632  -8.1427  -8.1286
    -7.8834  -7.8681  -7.7675  -7.7554  -7.7374  -7.7246  -7.6393  -7.6239
     1.3541   1.3544   1.3826   1.3875   1.5894   1.5949   1.7585   1.8029
     2.3390   2.4478   2.4875   2.5537   2.6018   2.6297   2.8519   2.9592
     2.9860   3.1206   3.6511   3.7034   3.7124   3.7254   4.1197   4.4034
     4.4296   4.4540   4.5249   4.7269   4.7540   4.8253   4.8715   4.8825
     5.0404   5.1086   5.1845   5.3193   5.3760   5.4560   5.5832   5.6791
     5.7017   5.7673   5.8202   5.9004   6.0294   6.0752   6.0759   6.1357
     6.2543   6.3963   6.4474   6.5607   6.5731   6.7849   6.8196   6.9018
     6.9226   6.9621   7.0469   7.0602   7.0819   7.0940   7.1031   7.1695
     7.2132   7.2164   7.7980   7.8123   7.8300   7.8464   7.8886   7.8988
     9.8105   9.8116  10.6923  10.7267  10.8009  10.8636  11.8997  11.9280
    12.0295  12.0544  12.3362  12.3463  12.5392  12.5440  12.8618  12.9433
    13.1401  13.2668  13.3140  13.3860  13.6357  13.7060  13.7134  13.7938
    15.0341  15.2969  15.3922  15.4712  15.5085  15.7195  15.8967  16.1625
    16.1969  16.9636  17.3164  17.3321  17.6690

          k = 0.0000 0.3199 0.3324 ( 62362 PWs)   bands (ev):

   -66.0594 -66.0591 -66.0589 -66.0587 -66.0584 -66.0582 -66.0580 -66.0577
   -30.4752 -30.4724 -30.4684 -30.4656 -30.4472 -30.4439 -30.4380 -30.4341
   -30.4041 -30.4024 -30.3984 -30.3932 -30.3835 -30.3828 -30.3801 -30.3769
   -30.3400 -30.3394 -30.3372 -30.3365 -30.3058 -30.3035 -30.3032 -30.3008
   -20.2105 -20.2104 -20.2102 -20.2101 -20.2099 -20.2098 -20.2096 -20.2095
   -20.2015 -20.2014 -20.2010 -20.2009 -20.2000 -20.1998 -20.1994 -20.1991
   -20.1971 -20.1967 -20.1965 -20.1964 -20.1963 -20.1956 -20.1955 -20.1954
   -20.1943 -20.1942 -20.1939 -20.1938 -20.1927 -20.1925 -20.1924 -20.1923
   -20.1832 -20.1830 -20.1830 -20.1829 -20.1813 -20.1812 -20.1811 -20.1810
   -20.1610 -20.1610 -20.1595 -20.1595 -20.1584 -20.1584 -20.1575 -20.1574
   -20.1569 -20.1569 -20.1564 -20.1564 -20.1525 -20.1525 -20.1518 -20.1518
    -9.6552  -9.4938  -9.4439  -9.2928  -9.1264  -8.9220  -8.8643  -8.8378
    -8.8080  -8.7156  -8.6687  -8.6132  -8.2565  -8.2311  -8.1745  -8.1561
    -8.1348  -8.0959  -8.0779  -8.0184  -7.7198  -7.7040  -7.6606  -7.6451
     1.3914   1.3975   1.4054   1.4112   2.1874   2.2684   2.2818   2.3611
     2.4424   2.4897   2.4998   2.7152   2.8193   2.8453   2.8753   2.9526
     3.2194   3.3252   3.6690   3.6969   3.6982   3.8000   3.8551   3.8684
     4.1065   4.2608   4.3541   4.3637   4.4273   4.5964   4.6123   4.7659
     4.7709   4.8618   5.0141   5.0883   5.1696   5.1908   5.2353   5.3383
     5.3955   5.5967   5.6452   5.8453   6.1118   6.1728   6.1840   6.2145
     6.4131   6.5162   6.5408   6.6132   6.6392   6.7644   6.7780   6.7943
     6.9294   6.9844   7.0370   7.0590   7.0804   7.1328   7.1896   7.2099
     7.2587   7.3111   7.7264   7.7468   7.7633   7.8004   7.8257   7.8600
    10.4797  10.4954  10.6992  10.7612  11.2648  11.3220  11.8509  11.9559
    11.9945  12.0544  12.1754  12.2869  12.5849  12.6385  12.6921  12.7111
    12.8636  13.0844  13.1556  13.2830  13.3272  13.5419  13.7057  13.7618
    15.1540  15.2724  15.5209  15.8185  15.9002  16.0479  16.0620  16.6666
    16.7794  16.8427  17.0194  17.5554  17.6523

          k = 0.0000 0.3199-0.4986 ( 62378 PWs)   bands (ev):

   -66.0591 -66.0591 -66.0589 -66.0589 -66.0582 -66.0582 -66.0580 -66.0579
   -30.4738 -30.4738 -30.4670 -30.4670 -30.4454 -30.4454 -30.4359 -30.4359
   -30.4005 -30.4005 -30.3962 -30.3962 -30.3620 -30.3619 -30.3619 -30.3619
   -30.3587 -30.3587 -30.3585 -30.3585 -30.3046 -30.3046 -30.3023 -30.3023
   -20.2104 -20.2104 -20.2103 -20.2103 -20.2097 -20.2097 -20.2097 -20.2097
   -20.2015 -20.2015 -20.2010 -20.2010 -20.1999 -20.1999 -20.1992 -20.1992
   -20.1967 -20.1967 -20.1962 -20.1962 -20.1960 -20.1960 -20.1959 -20.1959
   -20.1941 -20.1941 -20.1940 -20.1940 -20.1926 -20.1926 -20.1924 -20.1924
   -20.1831 -20.1831 -20.1830 -20.1829 -20.1812 -20.1812 -20.1811 -20.1811
   -20.1597 -20.1597 -20.1597 -20.1597 -20.1582 -20.1582 -20.1582 -20.1582
   -20.1570 -20.1570 -20.1570 -20.1570 -20.1522 -20.1522 -20.1522 -20.1522
    -9.5314  -9.5314  -9.3721  -9.3721  -8.9470  -8.9470  -8.7430  -8.7430
    -8.5696  -8.5696  -8.5429  -8.5429  -8.4942  -8.4942  -8.4145  -8.4144
    -8.1554  -8.1554  -8.1065  -8.1065  -7.6901  -7.6901  -7.6743  -7.6743
     1.4029   1.4029   1.4098   1.4098   2.3423   2.3423   2.4740   2.4740
     2.8822   2.8822   3.0916   3.0916   3.1408   3.1408   3.2264   3.2264
     3.2745   3.2745   3.4090   3.4090   3.4750   3.4751   3.6963   3.6963
     4.0347   4.0348   4.0629   4.0629   4.0924   4.0924   4.3208   4.3208
     4.8394   4.8394   4.9685   4.9685   5.1234   5.1235   5.2520   5.2520
     5.4221   5.4221   5.7419   5.7419   6.2121   6.2121   6.2728   6.2728
     6.4582   6.4582   6.4916   6.4916   6.5461   6.5461   6.7266   6.7266
     7.0546   7.0546   7.0593   7.0593   7.1084   7.1084   7.5173   7.5173
     7.5378   7.5378   7.5426   7.5426   7.6002   7.6002   7.8357   7.8357
    10.6952  10.6952  11.2531  11.2531  11.3159  11.3160  11.7960  11.7960
    11.9587  11.9587  12.1557  12.1557  12.5912  12.5912  12.6306  12.6306
    12.9354  12.9354  12.9589  12.9589  13.3803  13.3803  13.7187  13.7187
    15.2252  15.2252  15.6876  15.6876  16.2732  16.2732  16.5696  16.5697
    16.9069  16.9069  17.2476  17.2476  17.9683

          k = 0.0000-0.4799 0.0000 ( 62442 PWs)   bands (ev):

   -66.0595 -66.0595 -66.0586 -66.0586 -66.0585 -66.0585 -66.0576 -66.0576
   -30.4627 -30.4627 -30.4564 -30.4564 -30.4550 -30.4550 -30.4484 -30.4484
   -30.4152 -30.4152 -30.4041 -30.4041 -30.3943 -30.3943 -30.3915 -30.3915
   -30.3164 -30.3164 -30.3163 -30.3163 -30.3059 -30.3059 -30.2995 -30.2995
   -20.2103 -20.2103 -20.2102 -20.2102 -20.2097 -20.2097 -20.2097 -20.2097
   -20.2008 -20.2008 -20.2005 -20.2005 -20.2002 -20.2002 -20.1999 -20.1999
   -20.1973 -20.1973 -20.1972 -20.1972 -20.1955 -20.1955 -20.1949 -20.1949
   -20.1946 -20.1946 -20.1937 -20.1937 -20.1928 -20.1928 -20.1924 -20.1923
   -20.1832 -20.1832 -20.1828 -20.1828 -20.1814 -20.1814 -20.1810 -20.1810
   -20.1622 -20.1622 -20.1608 -20.1608 -20.1579 -20.1578 -20.1573 -20.1573
   -20.1558 -20.1558 -20.1553 -20.1553 -20.1529 -20.1529 -20.1515 -20.1515
    -9.7382  -9.7382  -9.3052  -9.3052  -9.2907  -9.2907  -8.9869  -8.9869
    -8.5149  -8.5149  -8.4612  -8.4612  -8.4560  -8.4560  -8.4533  -8.4533
    -7.7654  -7.7654  -7.7353  -7.7352  -7.6325  -7.6325  -7.6243  -7.6243
     1.2566   1.2566   1.3390   1.3390   1.3833   1.3833   1.6346   1.6346
     2.4899   2.4899   3.0534   3.0534   3.1830   3.1830   3.2047   3.2047
     3.2171   3.2171   3.3341   3.3341   3.5358   3.5358   3.5910   3.5910
     3.7036   3.7036   4.7597   4.7597   4.8222   4.8222   5.1801   5.1801
     5.2696   5.2696   5.2877   5.2877   5.3342   5.3342   5.7745   5.7745
     5.8124   5.8124   5.9560   5.9560   6.0513   6.0513   6.1180   6.1180
     6.1869   6.1869   6.2871   6.2871   6.6665   6.6665   6.6996   6.6996
     6.9081   6.9081   7.2769   7.2769   7.3215   7.3215   7.4737   7.4737
     7.4878   7.4878   7.5305   7.5305   7.5499   7.5499   7.8918   7.8918
     9.4950   9.4950  11.2378  11.2378  11.3159  11.3159  11.3393  11.3393
    11.4277  11.4277  12.4388  12.4388  12.4989  12.4989  12.8937  12.8937
    13.4670  13.4670  13.4773  13.4773  13.5419  13.5419  13.6293  13.6293
    15.3432  15.3432  15.4602  15.4602  15.6756  15.6756  15.7024  15.7024
    16.5487  16.5487  17.9139  17.9139  18.1008

          k = 0.0000-0.4799 0.1662 ( 62364 PWs)   bands (ev):

   -66.0594 -66.0594 -66.0586 -66.0586 -66.0585 -66.0585 -66.0577 -66.0577
   -30.4621 -30.4621 -30.4567 -30.4567 -30.4544 -30.4544 -30.4488 -30.4488
   -30.4111 -30.4110 -30.3985 -30.3985 -30.3948 -30.3948 -30.3893 -30.3893
   -30.3230 -30.3230 -30.3213 -30.3213 -30.3056 -30.3056 -30.3005 -30.3005
   -20.2102 -20.2102 -20.2101 -20.2101 -20.2098 -20.2098 -20.2097 -20.2097
   -20.2008 -20.2008 -20.2006 -20.2006 -20.2002 -20.2002 -20.1999 -20.1999
   -20.1972 -20.1972 -20.1970 -20.1970 -20.1956 -20.1956 -20.1951 -20.1950
   -20.1945 -20.1945 -20.1937 -20.1937 -20.1927 -20.1927 -20.1924 -20.1924
   -20.1832 -20.1832 -20.1829 -20.1829 -20.1813 -20.1813 -20.1810 -20.1810
   -20.1619 -20.1619 -20.1604 -20.1604 -20.1577 -20.1577 -20.1575 -20.1575
   -20.1561 -20.1561 -20.1556 -20.1556 -20.1528 -20.1528 -20.1516 -20.1516
    -9.6860  -9.6860  -9.3055  -9.3055  -9.2218  -9.2218  -8.9483  -8.9483
    -8.5204  -8.5204  -8.4661  -8.4661  -8.4555  -8.4555  -8.4469  -8.4469
    -7.8765  -7.8765  -7.7615  -7.7615  -7.7319  -7.7319  -7.6320  -7.6320
     1.3545   1.3545   1.3867   1.3867   1.5947   1.5947   1.7941   1.7941
     2.5778   2.5778   3.0705   3.0705   3.1627   3.1627   3.2125   3.2125
     3.2778   3.2778   3.3306   3.3306   3.5476   3.5476   3.6164   3.6164
     3.7362   3.7362   4.4248   4.4248   4.8351   4.8351   4.9722   4.9722
     5.0930   5.0930   5.2165   5.2165   5.3333   5.3333   5.5063   5.5063
     5.7671   5.7671   5.7861   5.7861   6.0804   6.0804   6.1244   6.1244
     6.3595   6.3595   6.4313   6.4313   6.6609   6.6609   6.8707   6.8707
     6.9739   6.9739   7.0903   7.0903   7.1464   7.1464   7.4746   7.4746
     7.4880   7.4880   7.5210   7.5210   7.5354   7.5354   7.8836   7.8836
     9.8143   9.8143  11.3294  11.3294  11.3659  11.3659  11.3918  11.3918
    11.4721  11.4721  12.3407  12.3407  12.5442  12.5442  12.9460  12.9460
    13.3026  13.3026  13.3765  13.3765  13.4762  13.4762  13.6467  13.6467
    15.3441  15.3441  15.6424  15.6424  15.6952  15.6952  15.9620  15.9620
    16.6140  16.6140  17.8293  17.8296  17.9519

          k = 0.0000-0.4799 0.3324 ( 62388 PWs)   bands (ev):

   -66.0592 -66.0592 -66.0588 -66.0588 -66.0583 -66.0583 -66.0579 -66.0578
   -30.4608 -30.4608 -30.4577 -30.4577 -30.4530 -30.4530 -30.4498 -30.4498
   -30.4032 -30.4032 -30.3962 -30.3961 -30.3833 -30.3833 -30.3791 -30.3791
   -30.3398 -30.3398 -30.3370 -30.3370 -30.3047 -30.3047 -30.3021 -30.3021
   -20.2102 -20.2102 -20.2101 -20.2101 -20.2099 -20.2099 -20.2098 -20.2098
   -20.2008 -20.2008 -20.2006 -20.2006 -20.2002 -20.2002 -20.2000 -20.2000
   -20.1968 -20.1968 -20.1966 -20.1966 -20.1959 -20.1959 -20.1955 -20.1955
   -20.1943 -20.1943 -20.1939 -20.1939 -20.1926 -20.1926 -20.1924 -20.1924
   -20.1831 -20.1831 -20.1829 -20.1829 -20.1813 -20.1813 -20.1811 -20.1811
   -20.1610 -20.1610 -20.1595 -20.1595 -20.1584 -20.1584 -20.1574 -20.1574
   -20.1569 -20.1569 -20.1564 -20.1564 -20.1525 -20.1525 -20.1518 -20.1518
    -9.5615  -9.5615  -9.3519  -9.3519  -8.9916  -8.9916  -8.8179  -8.8179
    -8.5539  -8.5539  -8.4875  -8.4875  -8.4474  -8.4474  -8.4217  -8.4217
    -8.1609  -8.1609  -8.0640  -8.0640  -7.7124  -7.7124  -7.6533  -7.6532
     1.3963   1.3963   1.4100   1.4100   2.2725   2.2725   2.4226   2.4226
     2.8300   2.8300   3.0969   3.0970   3.1560   3.1560   3.2335   3.2335
     3.2818   3.2818   3.4146   3.4146   3.5253   3.5253   3.7313   3.7313
     3.8122   3.8123   3.8542   3.8542   4.4406   4.4406   4.5970   4.5970
     4.7860   4.7860   4.8681   4.8681   5.1980   5.1980   5.2388   5.2388
     5.3840   5.3840   5.6814   5.6814   6.1670   6.1670   6.2240   6.2240
     6.4911   6.4911   6.5741   6.5741   6.6607   6.6607   6.8067   6.8067
     7.0475   7.0475   7.1702   7.1702   7.1736   7.1736   7.4457   7.4457
     7.4748   7.4748   7.5086   7.5086   7.5230   7.5230   7.8042   7.8042
    10.5052  10.5052  11.3424  11.3424  11.3960  11.3960  11.7163  11.7163
    11.7948  11.7948  11.9620  11.9620  12.6857  12.6857  12.7781  12.7781
    12.8645  12.8645  13.1264  13.1264  13.4776  13.4776  13.5894  13.5894
    15.4048  15.4048  15.6180  15.6180  16.2372  16.2372  16.7060  16.7060
    16.8559  16.8559  17.3272  17.3273  17.9397

          k = 0.0000-0.4799-0.4986 ( 62424 PWs)   bands (ev):

   -66.0590 -66.0590 -66.0590 -66.0590 -66.0581 -66.0581 -66.0581 -66.0581
   -30.4592 -30.4592 -30.4592 -30.4592 -30.4514 -30.4513 -30.4513 -30.4513
   -30.3986 -30.3986 -30.3986 -30.3986 -30.3621 -30.3620 -30.3620 -30.3620
   -30.3588 -30.3588 -30.3588 -30.3588 -30.3035 -30.3035 -30.3035 -30.3035
   -20.2100 -20.2100 -20.2100 -20.2100 -20.2099 -20.2099 -20.2099 -20.2099
   -20.2007 -20.2007 -20.2007 -20.2007 -20.2001 -20.2001 -20.2001 -20.2001
   -20.1964 -20.1964 -20.1964 -20.1964 -20.1961 -20.1961 -20.1961 -20.1961
   -20.1941 -20.1941 -20.1941 -20.1941 -20.1925 -20.1925 -20.1925 -20.1925
   -20.1830 -20.1830 -20.1830 -20.1830 -20.1812 -20.1812 -20.1812 -20.1812
   -20.1597 -20.1597 -20.1597 -20.1597 -20.1582 -20.1582 -20.1582 -20.1582
   -20.1570 -20.1570 -20.1570 -20.1570 -20.1522 -20.1522 -20.1522 -20.1522
    -9.4365  -9.4365  -9.4365  -9.4365  -8.7031  -8.7031  -8.7030  -8.7030
    -8.5983  -8.5983  -8.5983  -8.5983  -8.4000  -8.4000  -8.4000  -8.4000
    -8.3329  -8.3329  -8.3329  -8.3329  -7.6826  -7.6826  -7.6826  -7.6826
     1.4084   1.4084   1.4084   1.4084   3.0008   3.0008   3.0009   3.0009
     3.1201   3.1201   3.1201   3.1201   3.2233   3.2233   3.2233   3.2233
     3.2889   3.2889   3.2889   3.2889   3.5080   3.5080   3.5080   3.5080
     3.6382   3.6382   3.6382   3.6382   4.3014   4.3015   4.3015   4.3015
     4.4061   4.4061   4.4061   4.4061   5.2022   5.2022   5.2022   5.2022
     5.5214   5.5214   5.5214   5.5214   6.2656   6.2656   6.2656   6.2656
     6.5060   6.5061   6.5061   6.5061   6.6091   6.6091   6.6091   6.6091
     7.2931   7.2931   7.2931   7.2931   7.3690   7.3690   7.3690   7.3690
     7.4683   7.4683   7.4683   7.4683   7.6102   7.6102   7.6102   7.6102
    11.2182  11.2182  11.2182  11.2182  11.4380  11.4380  11.4380  11.4380
    12.2492  12.2492  12.2492  12.2492  12.3003  12.3003  12.3003  12.3003
    12.9223  12.9223  12.9223  12.9223  13.5048  13.5048  13.5048  13.5048
    15.5191  15.5191  15.5191  15.5191  16.8299  16.8299  16.8299  16.8299
    17.4194  17.4195  17.4195  17.4197  17.5527

          k = 0.1667 0.0000 0.0000 ( 62391 PWs)   bands (ev):

   -66.0596 -66.0592 -66.0588 -66.0588 -66.0583 -66.0583 -66.0579 -66.0575
   -30.4911 -30.4858 -30.4857 -30.4806 -30.4376 -30.4303 -30.4283 -30.4173
   -30.4135 -30.4125 -30.4047 -30.3993 -30.3926 -30.3923 -30.3819 -30.3778
   -30.3194 -30.3179 -30.3164 -30.3150 -30.3140 -30.3094 -30.3054 -30.3018
   -20.2110 -20.2109 -20.2105 -20.2104 -20.2098 -20.2097 -20.2092 -20.2092
   -20.2023 -20.2021 -20.2019 -20.2017 -20.1995 -20.1990 -20.1989 -20.1982
   -20.1977 -20.1973 -20.1967 -20.1964 -20.1962 -20.1953 -20.1947 -20.1945
   -20.1943 -20.1940 -20.1937 -20.1932 -20.1930 -20.1925 -20.1923 -20.1923
   -20.1832 -20.1829 -20.1828 -20.1826 -20.1816 -20.1813 -20.1812 -20.1809
   -20.1622 -20.1621 -20.1609 -20.1609 -20.1577 -20.1576 -20.1570 -20.1570
   -20.1556 -20.1556 -20.1554 -20.1554 -20.1532 -20.1532 -20.1518 -20.1518
    -9.8901  -9.5726  -9.5325  -9.4616  -9.2353  -9.1277  -9.1126  -8.9642
    -8.9360  -8.8827  -8.8733  -8.8289  -7.9121  -7.8535  -7.8189  -7.8118
    -7.7823  -7.7619  -7.7399  -7.7335  -7.7287  -7.7224  -7.6537  -7.6233
     1.3120   1.3146   1.3247   1.3405   1.4358   1.4635   1.5579   1.5867
     1.6346   1.7485   1.8361   1.9914   2.5260   2.5833   2.6240   2.6424
     2.7152   2.7823   4.0982   4.2105   4.3501   4.3902   4.4630   4.5043
     4.5617   4.7396   4.8017   4.8045   4.8301   4.9998   5.1401   5.3881
     5.3967   5.4116   5.5002   5.5488   5.5810   5.6117   5.6263   5.6930
     5.7202   5.8407   5.8525   5.8672   6.0159   6.0369   6.1023   6.1131
     6.2913   6.4262   6.4289   6.4654   6.7242   6.7550   6.7658   6.7699
     6.8612   6.8806   6.8999   6.9639   6.9819   6.9993   7.1288   7.1483
     7.1486   7.1527   7.8718   7.8789   7.9722   8.0345   8.1180   8.1616
     9.7881   9.8103   9.9844  10.0052  10.2238  10.2737  12.2317  12.3561
    12.3953  12.4130  12.4727  12.5445  12.6043  12.6937  12.7293  12.9653
    13.1094  13.2788  13.3127  13.3321  13.7468  13.8331  14.1262  14.1344
    14.3939  14.4897  14.7449  14.9587  15.4051  15.4247  15.5725  15.9765
    16.3765  16.7408  17.0085  17.2675  17.5550

          k = 0.1667 0.0000 0.1662 ( 62372 PWs)   bands (ev):

   -66.0596 -66.0591 -66.0588 -66.0588 -66.0583 -66.0583 -66.0580 -66.0575
   -30.4907 -30.4861 -30.4854 -30.4809 -30.4362 -30.4287 -30.4283 -30.4177
   -30.4094 -30.4079 -30.3989 -30.3952 -30.3930 -30.3903 -30.3825 -30.3764
   -30.3246 -30.3227 -30.3220 -30.3208 -30.3139 -30.3091 -30.3076 -30.3032
   -20.2110 -20.2109 -20.2106 -20.2105 -20.2098 -20.2097 -20.2093 -20.2092
   -20.2023 -20.2021 -20.2019 -20.2017 -20.1995 -20.1989 -20.1989 -20.1982
   -20.1976 -20.1972 -20.1967 -20.1963 -20.1962 -20.1954 -20.1948 -20.1947
   -20.1943 -20.1940 -20.1936 -20.1933 -20.1930 -20.1925 -20.1923 -20.1922
   -20.1832 -20.1829 -20.1828 -20.1826 -20.1816 -20.1813 -20.1812 -20.1809
   -20.1618 -20.1618 -20.1606 -20.1605 -20.1576 -20.1576 -20.1572 -20.1572
   -20.1560 -20.1560 -20.1557 -20.1557 -20.1531 -20.1531 -20.1519 -20.1519
    -9.8433  -9.5137  -9.4769  -9.4755  -9.1477  -9.1364  -9.1256  -8.9223
    -8.9024  -8.8772  -8.8405  -8.8330  -7.9204  -7.8842  -7.8485  -7.8457
    -7.8191  -7.8186  -7.7863  -7.7777  -7.7545  -7.7357  -7.7314  -7.7206
     1.4165   1.4544   1.4545   1.5119   1.5165   1.5522   1.5987   1.6391
     1.7075   1.7502   1.9072   2.0627   2.6132   2.6478   2.6665   2.7190
     2.7701   2.8106   4.0959   4.1270   4.3571   4.3573   4.4763   4.4994
     4.5137   4.5145   4.6083   4.6096   4.7404   4.8145   5.1283   5.2413
     5.2968   5.3357   5.3500   5.5138   5.5442   5.5723   5.6063   5.7135
     5.7271   5.7441   5.7554   5.7915   5.8607   6.0424   6.2141   6.3064
     6.3628   6.4869   6.5722   6.6586   6.6686   6.6785   6.7172   6.7623
     6.7626   6.8066   6.8478   6.8602   6.9054   6.9551   6.9574   7.0560
     7.2174   7.2585   7.8635   7.8668   7.9902   8.0374   8.0783   8.1151
     9.9857  10.0316  10.2055  10.2499  10.2548  10.3566  12.2809  12.3257
    12.3825  12.4036  12.4541  12.4936  12.6785  12.7205  12.7271  12.8971
    13.0500  13.1525  13.2890  13.3528  13.7862  13.8235  13.9893  14.0203
    14.4394  14.6177  14.7389  15.0792  15.4920  15.5049  15.5437  16.2849
    16.3442  16.9057  16.9474  17.1623  17.5319

          k = 0.1667 0.0000 0.3324 ( 62384 PWs)   bands (ev):

   -66.0594 -66.0590 -66.0589 -66.0586 -66.0585 -66.0582 -66.0581 -66.0577
   -30.4897 -30.4871 -30.4844 -30.4819 -30.4336 -30.4297 -30.4244 -30.4190
   -30.4000 -30.3987 -30.3942 -30.3850 -30.3829 -30.3819 -30.3796 -30.3709
   -30.3403 -30.3389 -30.3372 -30.3364 -30.3131 -30.3102 -30.3082 -30.3052
   -20.2109 -20.2108 -20.2107 -20.2106 -20.2097 -20.2096 -20.2094 -20.2093
   -20.2023 -20.2022 -20.2019 -20.2018 -20.1993 -20.1990 -20.1988 -20.1984
   -20.1973 -20.1968 -20.1967 -20.1961 -20.1960 -20.1957 -20.1952 -20.1951
   -20.1942 -20.1938 -20.1936 -20.1935 -20.1929 -20.1925 -20.1924 -20.1922
   -20.1831 -20.1829 -20.1828 -20.1827 -20.1815 -20.1813 -20.1812 -20.1810
   -20.1609 -20.1609 -20.1596 -20.1596 -20.1583 -20.1583 -20.1571 -20.1571
   -20.1570 -20.1569 -20.1562 -20.1562 -20.1529 -20.1528 -20.1522 -20.1522
    -9.7303  -9.5251  -9.3746  -9.3442  -9.1667  -9.1658  -8.8985  -8.8739
    -8.8443  -8.7778  -8.7709  -8.7166  -8.1752  -8.1734  -8.1155  -8.0982
    -7.8706  -7.8364  -7.8125  -7.7971  -7.7632  -7.7553  -7.7538  -7.7403
     1.4280   1.4453   1.5127   1.5399   1.6499   1.6604   1.7240   1.7549
     2.2908   2.3394   2.4339   2.5271   2.6692   2.7491   2.8715   2.9121
     2.9893   3.0487   3.7766   3.8902   3.9401   3.9702   4.1036   4.3195
     4.3505   4.4640   4.5063   4.5464   4.6005   4.7592   4.7759   4.8901
     4.9916   5.0782   5.0910   5.2316   5.2533   5.3693   5.6137   5.6145
     5.7359   5.7516   5.8014   5.8585   5.8734   6.0116   6.0890   6.1186
     6.4090   6.4253   6.4947   6.5370   6.5446   6.6790   6.7114   6.7384
     6.7469   6.8710   6.8819   6.8892   7.0700   7.0907   7.1908   7.1938
     7.2801   7.3311   7.7873   7.7979   7.9187   7.9681   8.0298   8.0388
    10.1945  10.1994  10.6090  10.6922  10.8640  10.9646  11.9611  12.0205
    12.2025  12.4170  12.4348  12.5318  12.6081  12.7208  12.7592  12.8467
    12.9069  13.1053  13.1635  13.2766  13.6507  13.6694  13.8244  13.8544
    14.5760  14.7196  14.9421  15.3894  15.4435  15.7715  15.9443  16.2530
    16.3813  17.1440  17.3626  17.4704  17.6083

          k = 0.1667 0.0000-0.4986 ( 62332 PWs)   bands (ev):

   -66.0592 -66.0592 -66.0587 -66.0587 -66.0584 -66.0584 -66.0579 -66.0579
   -30.4884 -30.4884 -30.4832 -30.4831 -30.4314 -30.4314 -30.4212 -30.4212
   -30.3962 -30.3962 -30.3891 -30.3891 -30.3617 -30.3617 -30.3614 -30.3614
   -30.3585 -30.3585 -30.3568 -30.3567 -30.3118 -30.3118 -30.3069 -30.3069
   -20.2108 -20.2108 -20.2107 -20.2107 -20.2095 -20.2095 -20.2095 -20.2094
   -20.2022 -20.2022 -20.2018 -20.2018 -20.1992 -20.1992 -20.1986 -20.1986
   -20.1970 -20.1970 -20.1963 -20.1963 -20.1957 -20.1957 -20.1955 -20.1955
   -20.1939 -20.1939 -20.1936 -20.1936 -20.1927 -20.1927 -20.1923 -20.1923
   -20.1830 -20.1830 -20.1828 -20.1828 -20.1814 -20.1814 -20.1811 -20.1811
   -20.1596 -20.1596 -20.1596 -20.1596 -20.1583 -20.1583 -20.1583 -20.1583
   -20.1567 -20.1567 -20.1567 -20.1567 -20.1525 -20.1525 -20.1525 -20.1525
    -9.6110  -9.6110  -9.2453  -9.2453  -9.2289  -9.2289  -8.8590  -8.8590
    -8.5463  -8.5463  -8.5254  -8.5254  -8.4925  -8.4925  -8.4474  -8.4474
    -7.8517  -7.8517  -7.7943  -7.7943  -7.7693  -7.7693  -7.7518  -7.7518
     1.4350   1.4350   1.5272   1.5272   1.6648   1.6648   1.7580   1.7580
     2.6933   2.6933   3.0422   3.0423   3.1044   3.1044   3.2090   3.2091
     3.2805   3.2805   3.3924   3.3924   3.5798   3.5798   3.7946   3.7946
     3.8308   3.8308   4.4194   4.4194   4.5268   4.5268   4.9285   4.9285
     5.0126   5.0126   5.0609   5.0609   5.2169   5.2169   5.6714   5.6714
     5.7311   5.7311   5.8208   5.8208   5.8874   5.8874   6.0178   6.0178
     6.3308   6.3308   6.4574   6.4574   6.6100   6.6100   6.7415   6.7415
     6.8383   6.8383   6.9304   6.9304   6.9863   6.9863   7.5426   7.5426
     7.5781   7.5781   7.6554   7.6554   7.7053   7.7053   8.0370   8.0370
    10.2073  10.2073  11.3130  11.3130  11.3976  11.3977  11.5912  11.5912
    11.7323  11.7323  12.5635  12.5635  12.7466  12.7466  12.8307  12.8307
    12.9609  12.9610  13.2666  13.2666  13.3450  13.3450  13.8308  13.8308
    14.6750  14.6750  15.2498  15.2498  15.8309  15.8309  16.0597  16.0597
    16.7455  16.7455  17.8026  17.8026  17.9216

          k = 0.1667 0.1600 0.0000 ( 62377 PWs)   bands (ev):

   -66.0596 -66.0592 -66.0588 -66.0587 -66.0584 -66.0583 -66.0579 -66.0575
   -30.4870 -30.4817 -30.4815 -30.4763 -30.4404 -30.4330 -30.4316 -30.4215
   -30.4136 -30.4127 -30.4048 -30.4007 -30.3922 -30.3917 -30.3831 -30.3794
   -30.3193 -30.3180 -30.3163 -30.3152 -30.3138 -30.3097 -30.3053 -30.3022
   -20.2109 -20.2108 -20.2104 -20.2103 -20.2098 -20.2098 -20.2093 -20.2092
   -20.2021 -20.2019 -20.2017 -20.2015 -20.1996 -20.1991 -20.1991 -20.1984
   -20.1977 -20.1973 -20.1968 -20.1966 -20.1961 -20.1952 -20.1948 -20.1945
   -20.1944 -20.1941 -20.1937 -20.1932 -20.1930 -20.1926 -20.1923 -20.1923
   -20.1832 -20.1830 -20.1828 -20.1826 -20.1816 -20.1813 -20.1812 -20.1809
   -20.1622 -20.1621 -20.1609 -20.1609 -20.1577 -20.1576 -20.1570 -20.1570
   -20.1556 -20.1556 -20.1554 -20.1554 -20.1532 -20.1532 -20.1518 -20.1518
    -9.8566  -9.5848  -9.4928  -9.4150  -9.2432  -9.1212  -9.0509  -8.9595
    -8.9374  -8.8410  -8.8349  -8.7968  -7.9648  -7.9039  -7.8907  -7.8599
    -7.8464  -7.8407  -7.7678  -7.7463  -7.7422  -7.7232  -7.6520  -7.6271
     1.3246   1.3266   1.3333   1.3410   1.5677   1.5951   1.6341   1.7711
     1.8058   1.8414   1.8833   2.0854   2.5349   2.6184   2.6603   2.7172
     2.7917   2.8523   3.9894   4.0666   4.1415   4.2283   4.3815   4.4599
     4.5638   4.6656   4.7781   4.8163   4.8721   4.9549   4.9669   5.2624
     5.3219   5.3233   5.3941   5.4876   5.5343   5.5727   5.6366   5.7231
     5.7654   5.8025   5.8599   5.8868   5.9408   6.0422   6.1008   6.1185
     6.2378   6.3934   6.4307   6.4952   6.7021   6.7437   6.7824   6.8081
     6.8215   6.8948   6.9154   6.9671   6.9673   6.9979   7.1252   7.1482
     7.1542   7.1584   7.8685   7.8794   7.9475   7.9882   8.0629   8.0835
     9.7999   9.8153  10.1718  10.1748  10.4029  10.4316  12.1491  12.3565
    12.3641  12.3927  12.4317  12.4522  12.4901  12.5879  12.7302  12.9569
    13.1183  13.2858  13.3167  13.3192  13.7886  13.7951  14.0266  14.0340
    14.5743  14.7526  14.9611  15.1106  15.4086  15.4208  15.9215  16.0021
    16.3416  16.6994  16.8795  17.3737  17.6047

          k = 0.1667 0.1600 0.1662 ( 62386 PWs)   bands (ev):

   -66.0596 -66.0591 -66.0588 -66.0587 -66.0584 -66.0583 -66.0580 -66.0575
   -30.4867 -30.4820 -30.4812 -30.4767 -30.4392 -30.4321 -30.4313 -30.4219
   -30.4094 -30.4080 -30.3989 -30.3962 -30.3926 -30.3898 -30.3836 -30.3780
   -30.3245 -30.3228 -30.3220 -30.3209 -30.3136 -30.3095 -30.3074 -30.3035
   -20.2109 -20.2108 -20.2104 -20.2103 -20.2098 -20.2097 -20.2093 -20.2093
   -20.2021 -20.2019 -20.2017 -20.2015 -20.1996 -20.1991 -20.1991 -20.1984
   -20.1976 -20.1972 -20.1967 -20.1965 -20.1962 -20.1954 -20.1949 -20.1948
   -20.1944 -20.1940 -20.1937 -20.1933 -20.1930 -20.1926 -20.1924 -20.1923
   -20.1832 -20.1829 -20.1828 -20.1826 -20.1816 -20.1813 -20.1812 -20.1810
   -20.1618 -20.1618 -20.1606 -20.1605 -20.1576 -20.1576 -20.1572 -20.1572
   -20.1560 -20.1560 -20.1557 -20.1557 -20.1531 -20.1531 -20.1519 -20.1519
    -9.8082  -9.5260  -9.4313  -9.4304  -9.1556  -9.1345  -9.0596  -8.9204
    -8.9036  -8.8342  -8.8068  -8.8007  -7.9706  -7.9089  -7.8985  -7.8820
    -7.8576  -7.8532  -7.8398  -7.8322  -7.7890  -7.7606  -7.7473  -7.7258
     1.5054   1.5143   1.5517   1.5699   1.5996   1.6042   1.6409   1.7695
     1.8473   1.8811   1.9082   2.1378   2.6239   2.7076   2.7281   2.7453
     2.8437   2.8818   4.0022   4.0409   4.1581   4.2062   4.4149   4.4541
     4.4981   4.5227   4.5834   4.6372   4.6672   4.7585   4.9578   5.1578
     5.2345   5.2603   5.3310   5.3686   5.4101   5.5177   5.5269   5.6278
     5.7434   5.7689   5.8128   5.8492   5.8573   5.9219   6.2130   6.2972
     6.3516   6.4045   6.5535   6.6234   6.6852   6.6958   6.7436   6.7671
     6.8096   6.8228   6.8706   6.9039   6.9411   6.9522   6.9894   7.0659
     7.2224   7.2579   7.8601   7.8671   7.9532   7.9908   8.0266   8.0428
    10.0170  10.0503  10.3619  10.3929  10.4227  10.4947  12.2099  12.3057
    12.3756  12.4078  12.4151  12.4291  12.5354  12.5695  12.7609  12.9203
    13.0302  13.1270  13.2901  13.3470  13.7751  13.8022  13.8853  13.9303
    14.6592  14.9032  14.9615  15.2137  15.4947  15.5018  15.9415  16.2604
    16.3111  16.8262  17.0215  17.0619  17.6586

          k = 0.1667 0.1600 0.3324 ( 62355 PWs)   bands (ev):

   -66.0594 -66.0590 -66.0589 -66.0586 -66.0585 -66.0581 -66.0581 -66.0577
   -30.4856 -30.4830 -30.4802 -30.4776 -30.4368 -30.4331 -30.4280 -30.4232
   -30.3998 -30.3987 -30.3938 -30.3859 -30.3830 -30.3823 -30.3795 -30.3722
   -30.3403 -30.3390 -30.3373 -30.3365 -30.3128 -30.3099 -30.3086 -30.3056
   -20.2108 -20.2107 -20.2105 -20.2104 -20.2097 -20.2096 -20.2094 -20.2094
   -20.2021 -20.2020 -20.2017 -20.2016 -20.1995 -20.1992 -20.1989 -20.1986
   -20.1973 -20.1968 -20.1966 -20.1962 -20.1961 -20.1957 -20.1952 -20.1952
   -20.1942 -20.1939 -20.1937 -20.1936 -20.1929 -20.1925 -20.1924 -20.1923
   -20.1831 -20.1829 -20.1829 -20.1827 -20.1815 -20.1813 -20.1812 -20.1810
   -20.1609 -20.1609 -20.1596 -20.1596 -20.1583 -20.1583 -20.1571 -20.1571
   -20.1569 -20.1569 -20.1562 -20.1562 -20.1529 -20.1529 -20.1522 -20.1522
    -9.6910  -9.4797  -9.3869  -9.2858  -9.1763  -9.0897  -8.9069  -8.8471
    -8.8117  -8.7792  -8.7568  -8.6968  -8.1810  -8.1731  -8.1305  -8.0958
    -7.9273  -7.9078  -7.8727  -7.8461  -7.8324  -7.8116  -7.7764  -7.7566
     1.5689   1.5796   1.6473   1.6576   1.7332   1.7495   1.8264   1.8793
     2.2901   2.3472   2.4351   2.5409   2.7441   2.8168   2.8931   2.9848
     2.9880   3.1122   3.7840   3.9019   3.9141   3.9394   4.1528   4.1734
     4.2364   4.3970   4.4297   4.5359   4.5652   4.6964   4.7323   4.8331
     4.8404   4.9375   4.9815   5.1312   5.1791   5.2563   5.3891   5.5751
     5.6433   5.6712   5.7914   5.8246   5.8646   5.8803   6.0544   6.1087
     6.3521   6.5031   6.5401   6.6245   6.6803   6.6878   6.7060   6.7724
     6.8046   6.8695   6.9186   6.9639   7.0637   7.1021   7.1867   7.2019
     7.2796   7.3277   7.7883   7.7947   7.8767   7.9131   7.9822   7.9909
    10.3579  10.3726  10.6317  10.7046  10.9702  11.0476  11.9625  12.0176
    12.2060  12.3930  12.4715  12.5405  12.5523  12.5686  12.7276  12.7810
    12.7967  13.0592  13.1493  13.2719  13.5390  13.5712  13.8003  13.8169
    14.8255  14.9424  15.2860  15.4973  15.7631  15.8422  15.9624  16.2241
    16.4884  17.1147  17.2248  17.4304  17.5252

          k = 0.1667 0.1600-0.4986 ( 62348 PWs)   bands (ev):

   -66.0592 -66.0592 -66.0587 -66.0587 -66.0584 -66.0583 -66.0579 -66.0579
   -30.4843 -30.4843 -30.4789 -30.4789 -30.4347 -30.4347 -30.4252 -30.4252
   -30.3959 -30.3959 -30.3898 -30.3898 -30.3618 -30.3618 -30.3615 -30.3615
   -30.3586 -30.3586 -30.3573 -30.3572 -30.3116 -30.3116 -30.3073 -30.3073
   -20.2107 -20.2107 -20.2106 -20.2106 -20.2096 -20.2096 -20.2095 -20.2095
   -20.2020 -20.2020 -20.2016 -20.2016 -20.1993 -20.1993 -20.1987 -20.1987
   -20.1969 -20.1969 -20.1963 -20.1963 -20.1958 -20.1958 -20.1957 -20.1957
   -20.1939 -20.1939 -20.1937 -20.1937 -20.1927 -20.1927 -20.1923 -20.1923
   -20.1830 -20.1830 -20.1828 -20.1828 -20.1814 -20.1814 -20.1811 -20.1811
   -20.1596 -20.1596 -20.1596 -20.1596 -20.1583 -20.1583 -20.1583 -20.1583
   -20.1567 -20.1567 -20.1567 -20.1567 -20.1525 -20.1525 -20.1525 -20.1525
    -9.5677  -9.5677  -9.2563  -9.2563  -9.1573  -9.1573  -8.8264  -8.8264
    -8.5524  -8.5524  -8.5269  -8.5268  -8.4927  -8.4927  -8.4418  -8.4417
    -7.9202  -7.9202  -7.8616  -7.8616  -7.8058  -7.8058  -7.7835  -7.7835
     1.5746   1.5746   1.6618   1.6618   1.7475   1.7475   1.8737   1.8737
     2.7638   2.7638   3.0599   3.0599   3.1288   3.1288   3.2128   3.2128
     3.2823   3.2823   3.4113   3.4113   3.5708   3.5708   3.8099   3.8099
     3.8808   3.8808   4.3059   4.3059   4.4308   4.4308   4.7341   4.7341
     4.9021   4.9021   5.0219   5.0219   5.0848   5.0848   5.4884   5.4884
     5.7015   5.7015   5.7217   5.7217   5.8721   5.8721   5.9032   5.9032
     6.4573   6.4573   6.6100   6.6100   6.6368   6.6368   6.7359   6.7359
     6.8892   6.8892   6.9182   6.9183   7.0269   7.0269   7.5429   7.5429
     7.5739   7.5739   7.6325   7.6325   7.6773   7.6773   7.9876   7.9876
    10.3845  10.3845  11.3212  11.3213  11.3985  11.3985  11.6586  11.6586
    11.7880  11.7880  12.5644  12.5644  12.6053  12.6053  12.8048  12.8048
    12.9382  12.9382  13.1495  13.1495  13.2750  13.2750  13.7961  13.7961
    14.9090  14.9090  15.6232  15.6232  15.9422  15.9422  16.0428  16.0428
    16.7867  16.7867  17.6490  17.6490  17.8944

          k = 0.1667 0.3199 0.0000 ( 62405 PWs)   bands (ev):

   -66.0595 -66.0593 -66.0587 -66.0586 -66.0585 -66.0584 -66.0578 -66.0576
   -30.4762 -30.4706 -30.4703 -30.4647 -30.4489 -30.4418 -30.4412 -30.4330
   -30.4137 -30.4130 -30.4048 -30.4031 -30.3909 -30.3902 -30.3857 -30.3831
   -30.3190 -30.3182 -30.3162 -30.3155 -30.3130 -30.3107 -30.3048 -30.3030
   -20.2106 -20.2105 -20.2101 -20.2100 -20.2100 -20.2099 -20.2095 -20.2094
   -20.2015 -20.2014 -20.2011 -20.2009 -20.2001 -20.1997 -20.1995 -20.1990
   -20.1975 -20.1973 -20.1971 -20.1969 -20.1959 -20.1951 -20.1950 -20.1947
   -20.1944 -20.1943 -20.1938 -20.1934 -20.1930 -20.1927 -20.1924 -20.1924
   -20.1831 -20.1830 -20.1827 -20.1826 -20.1816 -20.1814 -20.1811 -20.1810
   -20.1622 -20.1621 -20.1609 -20.1609 -20.1576 -20.1576 -20.1570 -20.1570
   -20.1556 -20.1556 -20.1554 -20.1554 -20.1532 -20.1532 -20.1518 -20.1518
    -9.7756  -9.6225  -9.4028  -9.3072  -9.2690  -9.1497  -8.9526  -8.9411
    -8.8335  -8.7032  -8.7015  -8.6814  -8.2011  -8.1554  -8.1501  -8.1296
    -7.8695  -7.8535  -7.7663  -7.7507  -7.7437  -7.7289  -7.6472  -7.6335
     1.3260   1.3290   1.3421   1.3421   1.6222   1.6329   1.7829   1.8309
     2.3391   2.4458   2.4855   2.5537   2.6010   2.6177   2.9050   2.9405
     3.0298   3.0605   3.6168   3.6408   3.7531   3.7874   4.1215   4.3809
     4.4304   4.4975   4.5491   4.7121   4.7361   4.7873   4.8817   4.8969
     5.0254   5.0446   5.2286   5.3331   5.3793   5.4905   5.5845   5.6524
     5.7213   5.7753   5.8242   5.8917   6.0492   6.0719   6.1008   6.1216
     6.2290   6.3528   6.4176   6.5462   6.5990   6.8127   6.8163   6.8851
     6.9375   6.9581   7.0369   7.0775   7.0819   7.0939   7.1568   7.1584
     7.1932   7.2226   7.7781   7.8129   7.8391   7.8732   7.8933   7.8967
     9.8139   9.8201  10.6338  10.6792  10.8715  10.8750  11.8077  11.9685
    12.0284  12.0989  12.3780  12.3855  12.4794  12.5028  12.8246  12.9527
    13.1856  13.3100  13.3642  13.3650  13.6085  13.6469  13.7910  13.7940
    15.0627  15.2733  15.3623  15.4138  15.5419  15.7157  15.8566  16.1547
    16.2252  16.9619  17.2542  17.3693  17.8060

          k = 0.1667 0.3199 0.1662 ( 62398 PWs)   bands (ev):

   -66.0595 -66.0592 -66.0587 -66.0586 -66.0585 -66.0584 -66.0579 -66.0576
   -30.4757 -30.4709 -30.4699 -30.4651 -30.4480 -30.4418 -30.4406 -30.4334
   -30.4092 -30.4083 -30.3991 -30.3979 -30.3913 -30.3885 -30.3860 -30.3816
   -30.3241 -30.3232 -30.3219 -30.3212 -30.3128 -30.3104 -30.3067 -30.3045
   -20.2106 -20.2105 -20.2101 -20.2100 -20.2100 -20.2099 -20.2095 -20.2094
   -20.2015 -20.2014 -20.2011 -20.2009 -20.2000 -20.1997 -20.1995 -20.1991
   -20.1974 -20.1971 -20.1969 -20.1968 -20.1959 -20.1952 -20.1951 -20.1949
   -20.1944 -20.1942 -20.1938 -20.1935 -20.1929 -20.1927 -20.1924 -20.1924
   -20.1831 -20.1830 -20.1828 -20.1827 -20.1815 -20.1814 -20.1812 -20.1810
   -20.1618 -20.1618 -20.1606 -20.1605 -20.1576 -20.1576 -20.1572 -20.1572
   -20.1560 -20.1560 -20.1557 -20.1557 -20.1531 -20.1531 -20.1519 -20.1519
    -9.7233  -9.5645  -9.3295  -9.3230  -9.1823  -9.1637  -8.9165  -8.9072
    -8.8420  -8.6957  -8.6874  -8.6845  -8.2034  -8.1596  -8.1503  -8.1353
    -7.8789  -7.8730  -7.8461  -7.8419  -7.7881  -7.7728  -7.7460  -7.7321
     1.5081   1.5126   1.5928   1.5986   1.6276   1.6383   1.8414   1.9023
     2.3435   2.4446   2.4757   2.6046   2.6482   2.7001   2.9490   2.9940
     3.0553   3.1140   3.6454   3.6887   3.7557   3.7872   4.1073   4.4071
     4.4355   4.4566   4.4839   4.5316   4.5945   4.7253   4.7530   4.8202
     4.8549   4.9037   5.1212   5.1528   5.3719   5.3809   5.3866   5.4371
     5.6768   5.6930   5.7412   5.7589   5.8448   5.8490   6.2495   6.2825
     6.3911   6.4494   6.5353   6.6192   6.7300   6.7765   6.7938   6.8346
     6.8894   6.9144   6.9918   7.0077   7.0801   7.1074   7.1206   7.1486
     7.2608   7.2701   7.7796   7.8027   7.8171   7.8491   7.8776   7.8899
    10.0481  10.0603  10.7956  10.8194  10.8823  10.9151  11.8918  12.0037
    12.0665  12.0973  12.3848  12.4118  12.4181  12.4455  12.8621  12.9578
    13.0923  13.1685  13.2931  13.3406  13.5588  13.6300  13.6579  13.7264
    15.2024  15.4244  15.4920  15.5002  15.5626  15.7755  16.1576  16.1989
    16.2874  16.9294  17.3207  17.4101  17.4455

          k = 0.1667 0.3199 0.3324 ( 62363 PWs)   bands (ev):

   -66.0593 -66.0591 -66.0589 -66.0586 -66.0585 -66.0582 -66.0580 -66.0578
   -30.4746 -30.4718 -30.4688 -30.4660 -30.4462 -30.4428 -30.4384 -30.4346
   -30.3994 -30.3988 -30.3926 -30.3882 -30.3833 -30.3830 -30.3789 -30.3749
   -30.3401 -30.3393 -30.3374 -30.3369 -30.3120 -30.3096 -30.3091 -30.3067
   -20.2105 -20.2104 -20.2102 -20.2101 -20.2099 -20.2098 -20.2096 -20.2095
   -20.2015 -20.2014 -20.2011 -20.2009 -20.2000 -20.1998 -20.1994 -20.1992
   -20.1971 -20.1967 -20.1966 -20.1965 -20.1962 -20.1956 -20.1955 -20.1954
   -20.1942 -20.1941 -20.1938 -20.1937 -20.1928 -20.1926 -20.1925 -20.1924
   -20.1830 -20.1829 -20.1828 -20.1827 -20.1815 -20.1813 -20.1812 -20.1811
   -20.1609 -20.1609 -20.1596 -20.1596 -20.1583 -20.1583 -20.1571 -20.1571
   -20.1569 -20.1569 -20.1562 -20.1562 -20.1529 -20.1529 -20.1522 -20.1522
    -9.5963  -9.4259  -9.3731  -9.2079  -9.1429  -8.9369  -8.8753  -8.8069
    -8.7836  -8.6970  -8.6643  -8.6180  -8.2647  -8.2291  -8.1670  -8.1555
    -8.1401  -8.0939  -8.0866  -8.0241  -7.8368  -7.8213  -7.7786  -7.7638
     1.6343   1.6462   1.6511   1.6594   2.1915   2.2597   2.2874   2.3606
     2.4334   2.4733   2.5039   2.6924   2.9077   2.9487   2.9858   3.0478
     3.2260   3.3211   3.6810   3.6939   3.7418   3.8171   3.8972   3.9633
     4.0987   4.2639   4.3347   4.3761   4.4144   4.5395   4.5907   4.6931
     4.7040   4.7987   4.8386   4.8623   4.9251   4.9938   5.1177   5.1978
     5.3300   5.3528   5.4281   5.6430   5.7797   5.8523   6.0896   6.1077
     6.5233   6.5895   6.6229   6.7235   6.7790   6.8006   6.9244   6.9394
     6.9856   7.0141   7.0458   7.0658   7.1240   7.1943   7.2001   7.2391
     7.2914   7.3237   7.7297   7.7336   7.7615   7.8000   7.8134   7.8484
    10.6107  10.6313  10.8696  10.9142  11.2750  11.3329  11.9243  11.9867
    12.0552  12.1482  12.1821  12.2832  12.5495  12.6004  12.6279  12.6606
    12.8617  13.0296  13.0628  13.2680  13.2826  13.3900  13.6158  13.6412
    15.3572  15.4666  15.7367  15.9682  16.0165  16.0549  16.1641  16.7246
    16.7983  16.8388  17.0229  17.5449  17.6511

          k = 0.1667 0.3199-0.4986 ( 62366 PWs)   bands (ev):

   -66.0591 -66.0591 -66.0588 -66.0588 -66.0583 -66.0583 -66.0580 -66.0580
   -30.4732 -30.4732 -30.4674 -30.4674 -30.4443 -30.4443 -30.4363 -30.4363
   -30.3948 -30.3948 -30.3914 -30.3914 -30.3619 -30.3619 -30.3617 -30.3617
   -30.3588 -30.3588 -30.3582 -30.3582 -30.3108 -30.3108 -30.3083 -30.3083
   -20.2104 -20.2104 -20.2103 -20.2103 -20.2097 -20.2097 -20.2097 -20.2097
   -20.2015 -20.2015 -20.2010 -20.2010 -20.1999 -20.1999 -20.1993 -20.1993
   -20.1967 -20.1967 -20.1962 -20.1962 -20.1960 -20.1960 -20.1959 -20.1959
   -20.1940 -20.1940 -20.1939 -20.1939 -20.1927 -20.1927 -20.1925 -20.1925
   -20.1829 -20.1829 -20.1828 -20.1828 -20.1813 -20.1813 -20.1812 -20.1812
   -20.1596 -20.1596 -20.1596 -20.1596 -20.1583 -20.1583 -20.1583 -20.1583
   -20.1567 -20.1567 -20.1567 -20.1567 -20.1525 -20.1525 -20.1525 -20.1525
    -9.4646  -9.4646  -9.2921  -9.2921  -8.9615  -8.9615  -8.7212  -8.7212
    -8.5860  -8.5859  -8.5365  -8.5365  -8.4825  -8.4825  -8.4183  -8.4182
    -8.1522  -8.1522  -8.1122  -8.1122  -7.8080  -7.8080  -7.7925  -7.7925
     1.6493   1.6493   1.6626   1.6626   2.3457   2.3457   2.4584   2.4584
     2.9564   2.9564   3.1101   3.1101   3.1498   3.1498   3.2413   3.2413
     3.2848   3.2848   3.4756   3.4756   3.5324   3.5324   3.7427   3.7427
     4.0303   4.0303   4.0624   4.0624   4.0885   4.0885   4.3355   4.3355
     4.7407   4.7407   4.8552   4.8552   4.9983   4.9983   5.0189   5.0189
     5.1355   5.1355   5.5152   5.5152   5.8628   5.8628   5.9019   5.9019
     6.6329   6.6329   6.7447   6.7447   6.7997   6.7997   6.8364   6.8364
     7.0320   7.0320   7.0734   7.0734   7.1767   7.1767   7.5216   7.5216
     7.5442   7.5442   7.5634   7.5634   7.6101   7.6101   7.8192   7.8192
    10.8440  10.8440  11.3365  11.3365  11.4048  11.4048  11.8320  11.8320
    11.9714  11.9714  12.1997  12.1997  12.5563  12.5563  12.6240  12.6240
    12.8586  12.8586  12.9284  12.9284  13.2379  13.2380  13.6035  13.6035
    15.4306  15.4306  15.9501  15.9501  16.3445  16.3445  16.5541  16.5541
    16.9501  16.9501  17.2856  17.2856  17.8602

          k = 0.1667-0.4799 0.0000 ( 62376 PWs)   bands (ev):

   -66.0594 -66.0594 -66.0586 -66.0586 -66.0585 -66.0585 -66.0577 -66.0577
   -30.4620 -30.4620 -30.4557 -30.4557 -30.4553 -30.4553 -30.4488 -30.4488
   -30.4135 -30.4135 -30.4045 -30.4045 -30.3890 -30.3890 -30.3867 -30.3867
   -30.3186 -30.3186 -30.3159 -30.3159 -30.3119 -30.3119 -30.3040 -30.3040
   -20.2103 -20.2103 -20.2102 -20.2102 -20.2097 -20.2097 -20.2097 -20.2097
   -20.2008 -20.2008 -20.2005 -20.2005 -20.2002 -20.2002 -20.2000 -20.2000
   -20.1973 -20.1973 -20.1972 -20.1972 -20.1954 -20.1954 -20.1949 -20.1949
   -20.1944 -20.1944 -20.1936 -20.1936 -20.1929 -20.1929 -20.1925 -20.1925
   -20.1831 -20.1831 -20.1827 -20.1827 -20.1815 -20.1815 -20.1811 -20.1811
   -20.1622 -20.1622 -20.1609 -20.1609 -20.1576 -20.1576 -20.1570 -20.1570
   -20.1556 -20.1556 -20.1554 -20.1554 -20.1532 -20.1532 -20.1518 -20.1518
    -9.6881  -9.6881  -9.3201  -9.3201  -9.2083  -9.2083  -8.9465  -8.9465
    -8.5216  -8.5216  -8.4663  -8.4663  -8.4521  -8.4521  -8.4489  -8.4488
    -7.8627  -7.8627  -7.7591  -7.7591  -7.7365  -7.7365  -7.6405  -7.6405
     1.3276   1.3276   1.3430   1.3430   1.6312   1.6312   1.8213   1.8213
     2.5766   2.5766   3.0568   3.0568   3.1589   3.1589   3.2132   3.2132
     3.2901   3.2902   3.3420   3.3420   3.5457   3.5457   3.6239   3.6239
     3.7297   3.7297   4.4517   4.4517   4.7423   4.7423   5.0311   5.0311
     5.1122   5.1122   5.2004   5.2004   5.3167   5.3167   5.5403   5.5403
     5.7520   5.7520   5.7878   5.7878   6.0777   6.0777   6.1261   6.1261
     6.3744   6.3744   6.3845   6.3845   6.6805   6.6805   6.8675   6.8675
     6.9817   6.9817   7.1108   7.1108   7.1338   7.1339   7.4673   7.4673
     7.4959   7.4959   7.5193   7.5193   7.5481   7.5481   7.8862   7.8862
     9.8200   9.8200  11.2416  11.2416  11.3080  11.3080  11.4614  11.4614
    11.5305  11.5305  12.3856  12.3856  12.4917  12.4917  12.9264  12.9264
    13.3161  13.3161  13.4361  13.4361  13.5330  13.5330  13.5693  13.5693
    15.3813  15.3813  15.5989  15.5989  15.6613  15.6613  15.9703  15.9703
    16.6134  16.6134  17.8317  17.8317  17.9522

          k = 0.1667-0.4799 0.1662 ( 62382 PWs)   bands (ev):

   -66.0593 -66.0593 -66.0586 -66.0586 -66.0585 -66.0585 -66.0578 -66.0578
   -30.4614 -30.4614 -30.4560 -30.4560 -30.4548 -30.4548 -30.4492 -30.4492
   -30.4088 -30.4088 -30.3989 -30.3989 -30.3893 -30.3893 -30.3853 -30.3853
   -30.3237 -30.3237 -30.3217 -30.3216 -30.3117 -30.3117 -30.3057 -30.3057
   -20.2102 -20.2102 -20.2102 -20.2101 -20.2098 -20.2098 -20.2097 -20.2097
   -20.2008 -20.2008 -20.2005 -20.2005 -20.2002 -20.2002 -20.2000 -20.2000
   -20.1972 -20.1972 -20.1970 -20.1970 -20.1956 -20.1956 -20.1951 -20.1951
   -20.1944 -20.1944 -20.1937 -20.1937 -20.1928 -20.1928 -20.1925 -20.1925
   -20.1831 -20.1830 -20.1827 -20.1827 -20.1815 -20.1815 -20.1811 -20.1811
   -20.1618 -20.1618 -20.1606 -20.1606 -20.1576 -20.1576 -20.1572 -20.1572
   -20.1560 -20.1560 -20.1557 -20.1557 -20.1531 -20.1531 -20.1519 -20.1519
    -9.6321  -9.6321  -9.2373  -9.2370  -9.2234  -9.2233  -8.9118  -8.9117
    -8.5288  -8.5285  -8.4636  -8.4627  -8.4552  -8.4543  -8.4465  -8.4454
    -7.8759  -7.8750  -7.8464  -7.8463  -7.7814  -7.7812  -7.7394  -7.7394
     1.5089   1.5113   1.5974   1.5994   1.6361   1.6373   1.8901   1.8916
     2.6661   2.6675   3.0733   3.0750   3.1511   3.1749   3.2092   3.2251
     3.2983   3.3223   3.3421   3.3834   3.5715   3.5875   3.6263   3.6331
     3.7520   3.7564   4.4444   4.4815   4.4934   4.5336   4.8992   4.9293
     5.0029   5.0083   5.0625   5.1131   5.1135   5.1586   5.4606   5.4649
     5.5107   5.5155   5.7388   5.7748   5.7904   5.8100   6.2798   6.2822
[...]
    11.5551  11.5551  11.5551  11.5551  11.6928  11.6928  11.6928  11.6928
    12.0877  12.0877  12.0877  12.0877  12.2437  12.2437  12.2437  12.2437
    13.0220  13.0220  13.0221  13.0221  13.2039  13.2040  13.2040  13.2040
    15.4147  15.4147  15.4147  15.4147  16.7659  16.7659  16.7659  16.7659
    17.6334  17.6335  17.6335  17.6335  17.8292

          k =-0.5000 0.3199 0.0000 ( 62378 PWs)   bands (ev):

   -66.0591 -66.0591 -66.0589 -66.0589 -66.0582 -66.0582 -66.0580 -66.0580
   -30.4730 -30.4730 -30.4674 -30.4674 -30.4446 -30.4446 -30.4363 -30.4363
   -30.4078 -30.4078 -30.4068 -30.4068 -30.3539 -30.3538 -30.3525 -30.3524
   -30.3493 -30.3493 -30.3487 -30.3487 -30.3136 -30.3136 -30.3131 -30.3131
   -20.2106 -20.2106 -20.2101 -20.2100 -20.2100 -20.2099 -20.2094 -20.2094
   -20.2013 -20.2013 -20.2011 -20.2011 -20.1998 -20.1998 -20.1994 -20.1994
   -20.1974 -20.1974 -20.1970 -20.1970 -20.1954 -20.1954 -20.1949 -20.1949
   -20.1936 -20.1936 -20.1935 -20.1935 -20.1931 -20.1931 -20.1929 -20.1929
   -20.1823 -20.1823 -20.1822 -20.1821 -20.1819 -20.1819 -20.1818 -20.1818
   -20.1616 -20.1615 -20.1615 -20.1615 -20.1564 -20.1564 -20.1564 -20.1564
   -20.1552 -20.1552 -20.1552 -20.1552 -20.1540 -20.1539 -20.1539 -20.1539
    -9.5393  -9.5392  -9.3886  -9.3886  -8.9513  -8.9513  -8.7490  -8.7490
    -8.5537  -8.5537  -8.5341  -8.5340  -8.4749  -8.4748  -8.4038  -8.4038
    -8.1459  -8.1459  -8.1077  -8.1077  -7.6999  -7.6998  -7.6855  -7.6855
     1.3613   1.3613   1.3665   1.3665   2.3361   2.3361   2.4647   2.4647
     2.9442   2.9442   3.0462   3.0462   3.1138   3.1138   3.2390   3.2390
     3.2857   3.2857   3.4401   3.4401   3.5128   3.5128   3.6802   3.6802
     3.9745   3.9746   4.0315   4.0315   4.2172   4.2172   4.3869   4.3869
     4.8313   4.8313   4.8851   4.8851   5.1175   5.1175   5.2657   5.2657
     5.4256   5.4256   5.7412   5.7413   6.2148   6.2148   6.2514   6.2514
     6.4522   6.4522   6.5154   6.5155   6.5495   6.5495   6.7421   6.7421
     7.0340   7.0340   7.0745   7.0745   7.0894   7.0894   7.4936   7.4936
     7.5136   7.5136   7.5962   7.5962   7.6280   7.6280   7.8637   7.8637
    10.6569  10.6569  11.2684  11.2684  11.3196  11.3196  11.6626  11.6626
    11.9782  11.9782  12.1744  12.1744  12.6275  12.6276  12.7006  12.7006
    12.9201  12.9201  13.0324  13.0324  13.3533  13.3533  13.7792  13.7792
    15.2056  15.2056  15.6390  15.6390  16.2678  16.2678  16.5534  16.5534
    16.8009  16.8009  17.2575  17.2575  17.9367

          k =-0.5000 0.3199 0.1662 ( 62368 PWs)   bands (ev):

   -66.0591 -66.0590 -66.0588 -66.0588 -66.0583 -66.0583 -66.0580 -66.0580
   -30.4726 -30.4726 -30.4677 -30.4677 -30.4436 -30.4436 -30.4367 -30.4367
   -30.4020 -30.4019 -30.4015 -30.4015 -30.3536 -30.3536 -30.3529 -30.3529
   -30.3497 -30.3496 -30.3487 -30.3487 -30.3192 -30.3192 -30.3190 -30.3190
   -20.2105 -20.2105 -20.2101 -20.2101 -20.2099 -20.2099 -20.2095 -20.2095
   -20.2013 -20.2013 -20.2012 -20.2011 -20.1998 -20.1997 -20.1994 -20.1994
   -20.1972 -20.1972 -20.1969 -20.1969 -20.1955 -20.1955 -20.1951 -20.1950
   -20.1936 -20.1936 -20.1935 -20.1935 -20.1931 -20.1931 -20.1930 -20.1930
   -20.1823 -20.1823 -20.1821 -20.1821 -20.1819 -20.1819 -20.1818 -20.1818
   -20.1612 -20.1612 -20.1612 -20.1612 -20.1567 -20.1567 -20.1567 -20.1567
   -20.1552 -20.1552 -20.1552 -20.1552 -20.1541 -20.1541 -20.1540 -20.1540
    -9.4712  -9.4712  -9.3076  -9.3075  -8.9648  -8.9648  -8.7285  -8.7285
    -8.5717  -8.5717  -8.5255  -8.5255  -8.4653  -8.4653  -8.4074  -8.4074
    -8.1433  -8.1433  -8.1125  -8.1125  -7.8196  -7.8196  -7.8048  -7.8048
     1.6134   1.6134   1.6231   1.6231   2.3412   2.3413   2.4522   2.4522
     3.0103   3.0103   3.0744   3.0744   3.1176   3.1176   3.2573   3.2573
     3.3037   3.3037   3.5021   3.5021   3.5576   3.5576   3.7285   3.7285
     3.9665   3.9665   4.0423   4.0423   4.2120   4.2120   4.3846   4.3846
     4.7135   4.7135   4.8149   4.8149   4.9971   4.9971   5.0230   5.0230
     5.1442   5.1442   5.5109   5.5110   5.8495   5.8495   5.8893   5.8893
     6.6359   6.6359   6.7699   6.7699   6.8178   6.8178   6.8378   6.8379
     7.0098   7.0098   7.0829   7.0830   7.1548   7.1548   7.4964   7.4964
     7.5230   7.5230   7.6048   7.6048   7.6332   7.6332   7.8398   7.8398
    10.8190  10.8190  11.3414  11.3414  11.4027  11.4027  11.7128  11.7128
    11.9932  11.9932  12.2127  12.2127  12.6118  12.6118  12.6779  12.6779
    12.8654  12.8654  12.9827  12.9827  13.1987  13.1987  13.6372  13.6372
    15.4324  15.4324  15.9108  15.9108  16.3360  16.3361  16.5471  16.5471
    16.8572  16.8572  17.2981  17.2981  17.8232

          k =-0.5000 0.3199 0.3324 ( 62352 PWs)   bands (ev):

   -66.0589 -66.0589 -66.0587 -66.0586 -66.0585 -66.0584 -66.0582 -66.0582
   -30.4715 -30.4715 -30.4687 -30.4687 -30.4415 -30.4415 -30.4378 -30.4378
   -30.3868 -30.3867 -30.3861 -30.3861 -30.3554 -30.3554 -30.3548 -30.3548
   -30.3506 -30.3506 -30.3475 -30.3475 -30.3340 -30.3340 -30.3330 -30.3330
   -20.2105 -20.2104 -20.2102 -20.2102 -20.2098 -20.2098 -20.2096 -20.2096
   -20.2013 -20.2013 -20.2012 -20.2012 -20.1997 -20.1997 -20.1995 -20.1995
   -20.1969 -20.1969 -20.1966 -20.1966 -20.1958 -20.1958 -20.1954 -20.1954
   -20.1936 -20.1936 -20.1934 -20.1934 -20.1931 -20.1930 -20.1930 -20.1930
   -20.1822 -20.1822 -20.1821 -20.1821 -20.1820 -20.1820 -20.1819 -20.1819
   -20.1603 -20.1603 -20.1603 -20.1603 -20.1576 -20.1576 -20.1576 -20.1576
   -20.1551 -20.1550 -20.1550 -20.1550 -20.1544 -20.1543 -20.1543 -20.1543
    -9.2986  -9.2986  -9.0854  -9.0854  -9.0119  -9.0119  -8.6603  -8.6602
    -8.6248  -8.6248  -8.4976  -8.4976  -8.4436  -8.4435  -8.4145  -8.4145
    -8.1625  -8.1625  -8.1303  -8.1303  -8.1059  -8.1059  -8.0576  -8.0576
     2.2093   2.2093   2.3060   2.3060   2.3582   2.3582   2.4971   2.4971
     3.0716   3.0716   3.1139   3.1139   3.2115   3.2116   3.2811   3.2811
     3.3584   3.3584   3.6668   3.6668   3.7249   3.7250   3.8319   3.8319
     3.9376   3.9376   4.0767   4.0767   4.1971   4.1971   4.2120   4.2120
     4.3479   4.3479   4.5012   4.5012   4.6296   4.6296   4.8404   4.8404
     4.9285   4.9286   5.0358   5.0358   5.0576   5.0576   5.3262   5.3262
     6.8427   6.8427   6.9051   6.9051   6.9822   6.9822   7.0197   7.0197
     7.1631   7.1631   7.2636   7.2636   7.3405   7.3405   7.4913   7.4913
     7.5354   7.5354   7.6157   7.6157   7.6331   7.6331   7.7706   7.7706
    11.2517  11.2517  11.5621  11.5621  11.6618  11.6618  11.8028  11.8028
    12.0543  12.0543  12.3580  12.3580  12.4038  12.4038  12.4788  12.4788
    12.7430  12.7430  12.8337  12.8338  12.8565  12.8565  13.2683  13.2684
    15.9870  15.9870  16.4285  16.4285  16.5690  16.5690  16.7255  16.7255
    17.0750  17.0750  17.3682  17.3682  17.5753

          k =-0.5000 0.3199-0.4986 ( 62340 PWs)   bands (ev):

   -66.0587 -66.0587 -66.0587 -66.0586 -66.0584 -66.0584 -66.0584 -66.0584
   -30.4701 -30.4701 -30.4701 -30.4700 -30.4395 -30.4395 -30.4394 -30.4394
   -30.3680 -30.3680 -30.3680 -30.3680 -30.3655 -30.3655 -30.3655 -30.3655
   -30.3475 -30.3475 -30.3475 -30.3475 -30.3435 -30.3435 -30.3435 -30.3435
   -20.2103 -20.2103 -20.2103 -20.2103 -20.2097 -20.2097 -20.2097 -20.2097
   -20.2013 -20.2013 -20.2013 -20.2012 -20.1996 -20.1996 -20.1996 -20.1996
   -20.1965 -20.1965 -20.1965 -20.1964 -20.1959 -20.1959 -20.1959 -20.1959
   -20.1935 -20.1935 -20.1935 -20.1935 -20.1931 -20.1930 -20.1930 -20.1930
   -20.1821 -20.1821 -20.1821 -20.1821 -20.1819 -20.1819 -20.1819 -20.1819
   -20.1590 -20.1590 -20.1590 -20.1590 -20.1589 -20.1589 -20.1589 -20.1589
   -20.1548 -20.1548 -20.1548 -20.1548 -20.1547 -20.1546 -20.1546 -20.1546
    -9.1187  -9.1187  -9.1187  -9.1186  -8.8071  -8.8071  -8.8071  -8.8071
    -8.5050  -8.5050  -8.5050  -8.5050  -8.3819  -8.3818  -8.3818  -8.3818
    -8.3590  -8.3590  -8.3590  -8.3590  -8.1162  -8.1162  -8.1162  -8.1162
     2.3528   2.3528   2.3528   2.3528   3.0153   3.0153   3.0153   3.0153
     3.1233   3.1233   3.1233   3.1233   3.2386   3.2386   3.2386   3.2386
     3.3819   3.3819   3.3819   3.3819   3.8710   3.8710   3.8710   3.8710
     3.9953   3.9953   3.9953   3.9953   4.0895   4.0895   4.0895   4.0895
     4.3159   4.3159   4.3159   4.3159   4.4105   4.4106   4.4106   4.4106
     4.7136   4.7136   4.7136   4.7136   5.0658   5.0658   5.0658   5.0658
     6.9112   6.9112   6.9112   6.9112   7.0151   7.0151   7.0151   7.0151
     7.3870   7.3870   7.3870   7.3870   7.4606   7.4606   7.4606   7.4606
     7.5614   7.5614   7.5615   7.5615   7.6800   7.6800   7.6800   7.6800
    11.7459  11.7459  11.7459  11.7459  11.8507  11.8507  11.8507  11.8507
    12.0968  12.0968  12.0968  12.0968  12.3026  12.3026  12.3026  12.3026
    12.6861  12.6861  12.6861  12.6861  12.8879  12.8879  12.8879  12.8879
    16.3384  16.3384  16.3384  16.3384  16.9365  16.9365  16.9365  16.9365
    17.4580  17.4580  17.4580  17.4580  17.8263

          k =-0.5000-0.4799 0.0000 ( 62372 PWs)   bands (ev):

   -66.0590 -66.0590 -66.0590 -66.0590 -66.0581 -66.0581 -66.0581 -66.0581
   -30.4585 -30.4585 -30.4580 -30.4580 -30.4520 -30.4520 -30.4514 -30.4514
   -30.4078 -30.4078 -30.4076 -30.4076 -30.3530 -30.3530 -30.3523 -30.3523
   -30.3501 -30.3501 -30.3493 -30.3493 -30.3135 -30.3135 -30.3134 -30.3134
   -20.2102 -20.2102 -20.2102 -20.2102 -20.2097 -20.2097 -20.2097 -20.2097
   -20.2006 -20.2006 -20.2005 -20.2005 -20.2003 -20.2003 -20.2002 -20.2002
   -20.1973 -20.1973 -20.1972 -20.1972 -20.1952 -20.1952 -20.1951 -20.1951
   -20.1936 -20.1936 -20.1936 -20.1935 -20.1931 -20.1931 -20.1931 -20.1931
   -20.1823 -20.1823 -20.1822 -20.1822 -20.1819 -20.1819 -20.1818 -20.1818
   -20.1616 -20.1616 -20.1615 -20.1615 -20.1564 -20.1564 -20.1564 -20.1564
   -20.1552 -20.1552 -20.1552 -20.1552 -20.1540 -20.1540 -20.1539 -20.1539
    -9.4520  -9.4520  -9.4464  -9.4464  -8.7126  -8.7125  -8.6897  -8.6897
    -8.6032  -8.6032  -8.5839  -8.5838  -8.4087  -8.4087  -8.3664  -8.3664
    -8.3445  -8.3445  -8.3062  -8.3062  -7.6930  -7.6930  -7.6928  -7.6928
     1.3625   1.3625   1.3678   1.3678   2.9399   2.9399   3.0434   3.0434
     3.0881   3.0881   3.0913   3.0913   3.2427   3.2427   3.2499   3.2499
     3.3079   3.3079   3.3958   3.3958   3.4719   3.4719   3.4989   3.4989
     3.5457   3.5457   3.8296   3.8297   4.2464   4.2464   4.3267   4.3267
     4.3362   4.3362   4.4389   4.4389   5.1739   5.1739   5.2191   5.2191
     5.4867   5.4867   5.5486   5.5486   6.2426   6.2426   6.2507   6.2507
     6.5318   6.5318   6.5488   6.5488   6.5768   6.5768   6.6336   6.6336
     7.2589   7.2589   7.2618   7.2618   7.3148   7.3148   7.4333   7.4333
     7.4856   7.4856   7.5538   7.5538   7.6050   7.6050   7.6151   7.6151
    11.2283  11.2283  11.2496  11.2496  11.3204  11.3204  11.3457  11.3457
    12.2236  12.2236  12.2692  12.2692  12.3575  12.3576  12.3869  12.3869
    12.9500  12.9500  12.9533  12.9533  13.4998  13.4998  13.5428  13.5428
    15.4966  15.4966  15.5067  15.5067  16.7504  16.7504  16.8462  16.8462
    17.3543  17.3543  17.4197  17.4197  17.5089

          k =-0.5000-0.4799 0.1662 ( 62368 PWs)   bands (ev):

   -66.0589 -66.0589 -66.0589 -66.0589 -66.0582 -66.0582 -66.0582 -66.0582
   -30.4579 -30.4579 -30.4574 -30.4574 -30.4524 -30.4524 -30.4518 -30.4518
   -30.4021 -30.4021 -30.4019 -30.4019 -30.3530 -30.3530 -30.3524 -30.3524
   -30.3503 -30.3503 -30.3495 -30.3495 -30.3193 -30.3193 -30.3191 -30.3191
   -20.2102 -20.2102 -20.2102 -20.2102 -20.2098 -20.2098 -20.2097 -20.2097
   -20.2006 -20.2006 -20.2005 -20.2005 -20.2003 -20.2003 -20.2002 -20.2002
   -20.1971 -20.1971 -20.1971 -20.1971 -20.1953 -20.1953 -20.1953 -20.1953
   -20.1936 -20.1936 -20.1935 -20.1935 -20.1931 -20.1931 -20.1931 -20.1931
   -20.1822 -20.1822 -20.1822 -20.1822 -20.1819 -20.1819 -20.1819 -20.1819
   -20.1612 -20.1612 -20.1612 -20.1612 -20.1567 -20.1567 -20.1567 -20.1567
   -20.1552 -20.1552 -20.1552 -20.1552 -20.1541 -20.1541 -20.1540 -20.1540
    -9.3756  -9.3756  -9.3692  -9.3692  -8.7298  -8.7298  -8.7070  -8.7069
    -8.5880  -8.5880  -8.5675  -8.5675  -8.4058  -8.4058  -8.3671  -8.3671
    -8.3436  -8.3435  -8.3091  -8.3091  -7.8127  -7.8127  -7.8126  -7.8125
     1.6181   1.6181   1.6246   1.6246   2.9521   2.9521   3.0594   3.0594
     3.0799   3.0799   3.1092   3.1092   3.2163   3.2163   3.2625   3.2625
     3.3661   3.3661   3.4429   3.4429   3.5253   3.5253   3.5448   3.5448
     3.5882   3.5882   3.8539   3.8539   4.2524   4.2524   4.3109   4.3109
     4.3404   4.3404   4.4288   4.4288   4.8757   4.8757   5.0169   5.0169
     5.1684   5.1684   5.2946   5.2946   5.8503   5.8503   5.8716   5.8716
     6.7073   6.7073   6.7762   6.7762   6.8366   6.8366   6.8758   6.8758
     7.2420   7.2420   7.2711   7.2711   7.3495   7.3495   7.4210   7.4210
     7.4756   7.4756   7.5522   7.5522   7.6017   7.6017   7.6349   7.6349
    11.2974  11.2974  11.3639  11.3639  11.3861  11.3861  11.4845  11.4845
    12.2316  12.2316  12.2724  12.2724  12.3501  12.3501  12.3981  12.3981
    12.8443  12.8443  12.9172  12.9172  13.3378  13.3378  13.4004  13.4004
    15.7626  15.7626  15.7836  15.7836  16.8132  16.8132  16.9038  16.9038
    17.3563  17.3564  17.4295  17.4296  17.5081

          k =-0.5000-0.4799 0.3324 ( 62356 PWs)   bands (ev):

   -66.0588 -66.0588 -66.0588 -66.0588 -66.0583 -66.0583 -66.0583 -66.0583
   -30.4565 -30.4565 -30.4560 -30.4560 -30.4534 -30.4534 -30.4528 -30.4528
   -30.3866 -30.3866 -30.3865 -30.3865 -30.3551 -30.3551 -30.3548 -30.3548
   -30.3497 -30.3497 -30.3489 -30.3489 -30.3339 -30.3339 -30.3335 -30.3335
   -20.2101 -20.2101 -20.2101 -20.2101 -20.2099 -20.2099 -20.2098 -20.2098
   -20.2005 -20.2005 -20.2004 -20.2004 -20.2004 -20.2004 -20.2003 -20.2003
   -20.1968 -20.1968 -20.1967 -20.1967 -20.1957 -20.1957 -20.1956 -20.1956
   -20.1936 -20.1935 -20.1935 -20.1935 -20.1931 -20.1931 -20.1931 -20.1931
   -20.1822 -20.1822 -20.1821 -20.1821 -20.1819 -20.1819 -20.1819 -20.1819
   -20.1603 -20.1603 -20.1603 -20.1603 -20.1576 -20.1576 -20.1576 -20.1576
   -20.1551 -20.1550 -20.1550 -20.1550 -20.1543 -20.1543 -20.1543 -20.1543
    -9.1718  -9.1717  -9.1623  -9.1623  -8.7901  -8.7900  -8.7677  -8.7677
    -8.5332  -8.5332  -8.5126  -8.5126  -8.3983  -8.3983  -8.3716  -8.3716
    -8.3381  -8.3381  -8.3168  -8.3168  -8.0987  -8.0987  -8.0975  -8.0975
     2.2903   2.2903   2.3041   2.3041   2.9807   2.9807   3.0400   3.0400
     3.1029   3.1029   3.1391   3.1391   3.2217   3.2217   3.2570   3.2570
     3.4480   3.4480   3.4985   3.4985   3.6178   3.6178   3.6694   3.6694
     3.8205   3.8205   3.9515   3.9515   4.2392   4.2392   4.2505   4.2506
     4.3016   4.3016   4.3715   4.3715   4.4754   4.4754   4.5734   4.5734
     4.6852   4.6852   4.8111   4.8111   5.0597   5.0597   5.0892   5.0892
     6.9654   6.9654   7.0689   7.0689   7.1484   7.1484   7.1722   7.1722
     7.2530   7.2530   7.3089   7.3089   7.3845   7.3845   7.4009   7.4009
     7.4754   7.4754   7.5657   7.5657   7.5973   7.5973   7.6475   7.6475
    11.5440  11.5440  11.5937  11.5937  11.7114  11.7114  11.8230  11.8230
    12.2241  12.2241  12.2911  12.2911  12.2968  12.2968  12.4160  12.4160
    12.5389  12.5389  12.6795  12.6795  12.9273  12.9273  13.0142  13.0142
    16.4959  16.4959  16.5538  16.5538  16.9953  16.9953  17.0659  17.0659
    17.3259  17.3259  17.4391  17.4394  17.5017

          k =-0.5000-0.4799-0.4986 ( 62296 PWs)   bands (ev):

   -66.0586 -66.0586 -66.0586 -66.0586 -66.0586 -66.0585 -66.0585 -66.0585
   -30.4549 -30.4549 -30.4549 -30.4549 -30.4543 -30.4543 -30.4543 -30.4543
   -30.3679 -30.3678 -30.3678 -30.3678 -30.3657 -30.3657 -30.3656 -30.3656
   -30.3468 -30.3468 -30.3468 -30.3468 -30.3446 -30.3446 -30.3446 -30.3446
   -20.2100 -20.2100 -20.2100 -20.2100 -20.2100 -20.2100 -20.2100 -20.2100
   -20.2005 -20.2005 -20.2005 -20.2005 -20.2003 -20.2003 -20.2003 -20.2003
   -20.1964 -20.1964 -20.1963 -20.1963 -20.1960 -20.1960 -20.1960 -20.1960
   -20.1935 -20.1935 -20.1935 -20.1935 -20.1931 -20.1931 -20.1931 -20.1931
   -20.1821 -20.1821 -20.1821 -20.1821 -20.1820 -20.1820 -20.1820 -20.1820
   -20.1590 -20.1590 -20.1590 -20.1590 -20.1589 -20.1589 -20.1589 -20.1589
   -20.1548 -20.1548 -20.1548 -20.1548 -20.1547 -20.1546 -20.1546 -20.1546
    -8.9357  -8.9357  -8.9357  -8.9357  -8.9170  -8.9169  -8.9169  -8.9169
    -8.4124  -8.4124  -8.4124  -8.4124  -8.3801  -8.3801  -8.3801  -8.3801
    -8.3502  -8.3502  -8.3501  -8.3501  -8.3252  -8.3252  -8.3252  -8.3252
     2.9397   2.9397   2.9397   2.9397   3.0244   3.0244   3.0244   3.0244
     3.1569   3.1569   3.1569   3.1569   3.2695   3.2695   3.2695   3.2695
     3.3633   3.3633   3.3633   3.3633   3.5296   3.5296   3.5296   3.5297
     4.1508   4.1508   4.1508   4.1508   4.1711   4.1711   4.1711   4.1711
     4.3278   4.3278   4.3279   4.3279   4.3843   4.3843   4.3844   4.3844
     4.4599   4.4599   4.4599   4.4599   4.5284   4.5284   4.5284   4.5284
     7.1065   7.1065   7.1065   7.1065   7.2656   7.2656   7.2656   7.2656
     7.3222   7.3222   7.3222   7.3222   7.3747   7.3747   7.3747   7.3747
     7.5565   7.5565   7.5565   7.5565   7.6178   7.6178   7.6178   7.6178
    11.9092  11.9092  11.9092  11.9092  11.9360  11.9360  11.9360  11.9360
    12.1849  12.1849  12.1849  12.1849  12.3445  12.3446  12.3446  12.3446
    12.4944  12.4944  12.4944  12.4944  12.5842  12.5842  12.5842  12.5842
    17.0985  17.0985  17.0985  17.0985  17.1903  17.1903  17.1903  17.1903
    17.4490  17.4490  17.4490  17.4490  17.4888

     the Fermi energy is     9.9622 ev

!    total energy              =   -6260.68467514 Ry
     Harris-Foulkes estimate   =   -6260.68467514 Ry
     estimated scf accuracy    <          1.4E-09 Ry

     The total energy is the sum of the following terms:

     one-electron contribution =   -4725.60940255 Ry
     hartree contribution      =    2600.95392099 Ry
     xc contribution           =    -966.32765177 Ry
     ewald contribution        =   -3169.70153411 Ry
     smearing contrib. (-TS)   =      -0.00000771 Ry

     convergence has been achieved in  13 iterations

     Writing output data file Landau_12.save
 
     init_run     :     37.02s CPU     38.58s WALL (       1 calls)
     electrons    :   1537.05s CPU   1566.20s WALL (       1 calls)

     Called by init_run:
     wfcinit      :     33.64s CPU     35.07s WALL (       1 calls)
     potinit      :      1.35s CPU      1.38s WALL (       1 calls)

     Called by electrons:
     c_bands      :   1367.60s CPU   1395.13s WALL (      13 calls)
     sum_band     :    159.02s CPU    159.76s WALL (      13 calls)
     v_of_rho     :      1.71s CPU      1.75s WALL (      14 calls)
     mix_rho      :      2.43s CPU      2.87s WALL (      13 calls)

     Called by c_bands:
     init_us_2    :     10.39s CPU     10.94s WALL (      54 calls)
     cegterg      :   1091.22s CPU   1117.46s WALL (      26 calls)

     Called by sum_band:

     Called by *egterg:
     h_psi        :    846.28s CPU    849.72s WALL (     120 calls)
     g_psi        :      3.76s CPU      3.76s WALL (      92 calls)
     cdiaghg      :     14.57s CPU     14.61s WALL (     118 calls)

     Called by h_psi:
     h_psi:pot    :    840.96s CPU    844.13s WALL (     120 calls)
     h_psi:calbec :    105.25s CPU    107.43s WALL (     120 calls)
     vloc_psi     :    625.04s CPU    625.72s WALL (     120 calls)
     add_vuspsi   :    110.67s CPU    110.99s WALL (     120 calls)

     General routines
     calbec       :    105.25s CPU    107.43s WALL (     120 calls)
     fft          :      1.05s CPU      1.05s WALL (      56 calls)
     fftw         :    644.96s CPU    645.26s WALL (   33854 calls)
 
     Parallel routines
 
     PWSCF        : 26m17.40s CPU    26m50.77s WALL

 
   This run was terminated on:   0:27:10  21Mar2020            

=------------------------------------------------------------------------------=
   JOB DONE.
=------------------------------------------------------------------------------=
