unknown system                          
   1.00000000000000     
    83.737472    0.006065   -0.020186
     0.000755   10.468720   -0.008034
    -0.001857   -0.005891    7.649663
   W    O 
   128   384
Direct
  0.017497  0.650252  0.276844
  0.019004  0.151446  0.776667
  0.017474  0.638251  0.777496
  0.019142  0.138575  0.277337
  0.048490  0.891428  0.719528
  0.048922  0.403028  0.221949
  0.050050  0.886489  0.220211
  0.050464  0.399942  0.721902
  0.079511  0.148570  0.277042
  0.080979  0.655097  0.777063
  0.080324  0.137043  0.778158
  0.081930  0.641720  0.277159
  0.110694  0.395736  0.720726
  0.111634  0.906671  0.222264
  0.112311  0.385043  0.221963
  0.113180  0.898180  0.722073
  0.141838  0.648897  0.276970
  0.143228  0.158088  0.776650
  0.143190  0.636715  0.778041
  0.144721  0.144558  0.276349
  0.173156  0.898607  0.722585
  0.174364  0.409617  0.222099
  0.174919  0.885470  0.223836
  0.175923  0.397616  0.722093
  0.204177  0.150838  0.280460
  0.205668  0.659555  0.772961
  0.205885  0.137163  0.772961
  0.207376  0.645880  0.280460
  0.235295  0.399862  0.719540
  0.236785  0.908579  0.227039
  0.237003  0.386187  0.227039
  0.238494  0.894904  0.719540
  0.267058  0.647623  0.280460
  0.268391  0.161506  0.772961
  0.268767  0.633949  0.772961
  0.270100  0.147832  0.280460
  0.298176  0.896648  0.719540
  0.299509  0.410531  0.227039
  0.299885  0.882973  0.227039
  0.301218  0.396856  0.719540
  0.329280  0.150294  0.277618
  0.330902  0.658782  0.778342
  0.330821  0.136361  0.776624
  0.332514  0.645450  0.277437
  0.360864  0.397121  0.723005
  0.361841  0.910505  0.222973
  0.362497  0.386474  0.222496
  0.363462  0.899286  0.721826
  0.392041  0.652560  0.277547
  0.393765  0.158527  0.778909
  0.393255  0.639459  0.777160
  0.394718  0.146248  0.277723
  0.423661  0.895883  0.723019
  0.424126  0.408167  0.221322
  0.425144  0.889968  0.222939
  0.425767  0.402534  0.720706
  0.454835  0.155207  0.277460
  0.456611  0.657408  0.779006
  0.455371  0.143070  0.776948
  0.456679  0.644736  0.278189
  0.486364  0.393789  0.722281
  0.486227  0.904917  0.220280
  0.487832  0.393859  0.222152
  0.487841  0.906967  0.720489
  0.517294  0.646548  0.777620
  0.518611  0.142467  0.277662
  0.517658  0.657576  0.278773
  0.519351  0.156040  0.777579
  0.548309  0.401873  0.219967
  0.549014  0.891306  0.722677
  0.549872  0.410695  0.721024
  0.550511  0.897181  0.222599
  0.579308  0.148615  0.777295
  0.580741  0.639786  0.277548
  0.580442  0.159792  0.278559
  0.582020  0.653370  0.777576
  0.610532  0.899401  0.221105
  0.611695  0.388506  0.723101
  0.612061  0.911988  0.722484
  0.613276  0.398899  0.223197
  0.641609  0.648795  0.776922
  0.643120  0.137092  0.276967
  0.643253  0.660938  0.278058
  0.644679  0.150231  0.777308
  0.672933  0.397254  0.221654
  0.674440  0.885837  0.722759
  0.674480  0.411287  0.722804
  0.676159  0.899771  0.223616
  0.704171  0.147832  0.772961
  0.705504  0.633949  0.280460
  0.705880  0.161506  0.280460
  0.707213  0.647623  0.772961
  0.735131  0.893642  0.227039
  0.736622  0.384924  0.719540
  0.736840  0.907316  0.719540
  0.738331  0.398599  0.227039
  0.766894  0.645880  0.772961
  0.768385  0.137163  0.280460
  0.768603  0.659555  0.280460
  0.770094  0.150838  0.772961
  0.798012  0.396856  0.227039
  0.799346  0.882973  0.719540
  0.799721  0.410531  0.719540
  0.801054  0.896648  0.227039
  0.829144  0.145753  0.776427
  0.830796  0.633356  0.278375
  0.830780  0.159287  0.276668
  0.832355  0.647213  0.777462
  0.860642  0.895900  0.222811
  0.861950  0.383304  0.723047
  0.862245  0.908042  0.723088
  0.863624  0.395103  0.221967
  0.891929  0.643090  0.776652
  0.893547  0.134357  0.278189
  0.893331  0.656057  0.276772
  0.894862  0.146777  0.776862
  0.923463  0.396587  0.222320
  0.924320  0.883649  0.721141
  0.925036  0.405496  0.722808
  0.925930  0.893060  0.220161
  0.954681  0.140350  0.777325
  0.956345  0.636027  0.277854
  0.955532  0.153193  0.277389
  0.957079  0.648348  0.776629
  0.986202  0.899404  0.221399
  0.986463  0.386814  0.719725
  0.987782  0.902897  0.721526
  0.987996  0.389691  0.219352
  0.999733  0.542450  0.230479
  0.999822  0.245329  0.768591
  0.000023  0.042147  0.262480
  0.999880  0.747747  0.734296
  0.005148  0.494026  0.775654
  0.005191  0.793903  0.273763
  0.005726  0.288906  0.220075
  0.005953  0.999703  0.725423
  0.018077  0.665921  0.007424
  0.018134  0.166512  0.507091
  0.017945  0.623271  0.506604
  0.019081  0.123177  0.006217
  0.030883  0.789442  0.723807
  0.030734  0.499870  0.223979
  0.031494  0.994450  0.278008
  0.031435  0.294372  0.771256
  0.036862  0.043511  0.726497
  0.036757  0.745332  0.264182
  0.036640  0.542533  0.765749
  0.036764  0.248137  0.237641
  0.046587  0.896619  0.990966
  0.047169  0.400465  0.491425
  0.052348  0.888768  0.490743
  0.051922  0.394111  0.991404
  0.062033  0.041682  0.237989
  0.062144  0.748229  0.773126
  0.062394  0.248268  0.730195
  0.062485  0.543466  0.257987
  0.067545  0.995372  0.770982
  0.067589  0.294253  0.276330
  0.068129  0.789584  0.218345
  0.068294  0.501264  0.729702
  0.079910  0.164562  0.008206
  0.080107  0.666483  0.507050
  0.080976  0.125746  0.507323
  0.081852  0.626324  0.006498
  0.093277  0.291246  0.731948
  0.093224  0.000585  0.223068
  0.093910  0.495755  0.278095
  0.093869  0.795918  0.766590
  0.099070  0.245570  0.256494
  0.099143  0.545703  0.724562
  0.099175  0.043057  0.770373
  0.099329  0.749711  0.243389
  0.109579  0.402306  0.991882
  0.109880  0.905175  0.491658
  0.114226  0.386230  0.491348
  0.114250  0.891489  0.991677
  0.124535  0.541987  0.248066
  0.124606  0.250799  0.774221
  0.125047  0.045669  0.252945
  0.125006  0.748989  0.726501
  0.130116  0.496861  0.762619
  0.130113  0.795753  0.276947
  0.130686  0.291336  0.220722
  0.130731  0.002661  0.735007
  0.141769  0.661631  0.008312
  0.142416  0.164497  0.506871
  0.144314  0.631116  0.507511
  0.144600  0.131664  0.006663
  0.155816  0.793013  0.743057
  0.155883  0.502406  0.222483
  0.156466  0.997484  0.274429
  0.156421  0.297353  0.761181
  0.161566  0.046905  0.725879
  0.161520  0.747625  0.246656
  0.161854  0.543710  0.774361
  0.162021  0.251914  0.248973
  0.173239  0.907218  0.992749
  0.172718  0.410635  0.491953
  0.175940  0.884218  0.492041
  0.176684  0.388845  0.991852
  0.187037  0.045090  0.259124
  0.187263  0.750976  0.771116
  0.187682  0.249568  0.721385
  0.187764  0.547694  0.248375
  0.192750  0.997417  0.751625
  0.192753  0.298125  0.278615
  0.193330  0.791552  0.228884
  0.193398  0.502603  0.740876
  0.204005  0.160298  0.007500
  0.204486  0.660928  0.507499
  0.207068  0.135790  0.507499
  0.207548  0.636420  0.007500
  0.218155  0.294115  0.740876
  0.218302  0.002583  0.228884
  0.218800  0.498592  0.278615
  0.218882  0.796718  0.751625
  0.223789  0.249024  0.248375
  0.223871  0.547150  0.721385
  0.224290  0.045742  0.771116
  0.224516  0.751627  0.259124
  0.235123  0.409322  0.992501
  0.235603  0.909952  0.492501
  0.238186  0.384814  0.492501
  0.238666  0.885444  0.992501
  0.249595  0.542508  0.259124
  0.249663  0.253559  0.771116
  0.250165  0.050276  0.248375
  0.250241  0.746985  0.721385
  0.255553  0.496786  0.751625
  0.255634  0.794911  0.278615
  0.256054  0.293504  0.228884
  0.256201  0.001972  0.740876
  0.266886  0.657084  0.007500
  0.267209  0.162880  0.507499
  0.269949  0.632576  0.507499
  0.270272  0.138371  0.007500
  0.281036  0.790900  0.740876
  0.281104  0.501951  0.228884
  0.281603  0.997961  0.278615
  0.281605  0.298669  0.751625
  0.286594  0.049101  0.721385
  0.286671  0.745810  0.248375
  0.287172  0.542528  0.771116
  0.287240  0.253579  0.259124
  0.298004  0.906108  0.992501
  0.298327  0.411904  0.492501
  0.301067  0.881600  0.492501
  0.301389  0.387396  0.992501
  0.311996  0.045090  0.259124
  0.312222  0.750976  0.771116
  0.312642  0.249568  0.721385
  0.312723  0.547694  0.248375
  0.317709  0.997417  0.751625
  0.317712  0.298125  0.278615
  0.318290  0.791552  0.228884
  0.318358  0.502603  0.740876
  0.328830  0.160131  0.006897
  0.330218  0.663177  0.508147
  0.332492  0.133827  0.507336
  0.332153  0.634342  0.008943
  0.343381  0.292853  0.742761
  0.343442  0.003368  0.220683
  0.344072  0.498066  0.275249
  0.344027  0.798413  0.764415
  0.349156  0.248269  0.245048
  0.349155  0.546430  0.728368
  0.349471  0.044140  0.777339
  0.349752  0.752604  0.247485
  0.360469  0.406185  0.991924
  0.359829  0.908945  0.492423
  0.363747  0.386930  0.491890
  0.364698  0.893134  0.993016
  0.374772  0.545085  0.249481
  0.374989  0.252322  0.770359
  0.375112  0.049831  0.258387
  0.375042  0.749808  0.724722
  0.380325  0.499176  0.760823
  0.380328  0.799716  0.278984
  0.381077  0.294801  0.225553
  0.380849  0.004289  0.732231
  0.391989  0.666186  0.007247
  0.393342  0.169140  0.508156
  0.394425  0.631215  0.507466
  0.394171  0.130767  0.008949
  0.405887  0.794087  0.734759
  0.406056  0.505071  0.219351
  0.406603  0.000413  0.276064
  0.406651  0.299587  0.772432
  0.411763  0.046917  0.731178
  0.411724  0.750704  0.253811
  0.412027  0.546415  0.775005
  0.412241  0.252794  0.238490
  0.422569  0.902857  0.992150
  0.421829  0.406054  0.491923
  0.426734  0.892748  0.492050
  0.427645  0.397975  0.992135
  0.437389  0.046850  0.242132
  0.437543  0.752804  0.767018
  0.437385  0.251302  0.726110
  0.437442  0.549747  0.265441
  0.442798  0.000780  0.767913
  0.442777  0.300881  0.279269
  0.443522  0.795569  0.225561
  0.443292  0.505652  0.725265
  0.454877  0.170908  0.006819
  0.456241  0.671931  0.507954
  0.456412  0.129884  0.507382
  0.456108  0.629258  0.008687
  0.468266  0.295733  0.728700
  0.468531  0.006274  0.219533
  0.469039  0.501499  0.274597
  0.469061  0.800959  0.777213
  0.474204  0.252829  0.259494
  0.474297  0.547799  0.734542
  0.474420  0.049244  0.771746
  0.474475  0.752621  0.231804
  0.484827  0.399883  0.991506
  0.483958  0.903709  0.491773
  0.489378  0.397572  0.491605
  0.490192  0.901974  0.991700
  0.499626  0.753272  0.730051
  0.499910  0.547665  0.236764
  0.499946  0.252826  0.762103
  0.499731  0.048703  0.270515
  0.505100  0.800856  0.278280
  0.505171  0.501917  0.772662
  0.505662  0.006614  0.720646
  0.505914  0.295511  0.226938
  0.518322  0.629855  0.508502
  0.518007  0.129644  0.007399
  0.517690  0.672620  0.007620
  0.519039  0.171861  0.507171
  0.530860  0.506080  0.223073
  0.530646  0.796710  0.726371
  0.531359  0.301890  0.778622
  0.531383  0.001190  0.270308
  0.536711  0.551327  0.766943
  0.536740  0.251465  0.227255
  0.536640  0.753468  0.265023
  0.536804  0.048022  0.739368
  0.546390  0.400505  0.491801
  0.547351  0.895796  0.991784
  0.552363  0.405367  0.991472
  0.551705  0.901801  0.491894
  0.561877  0.254388  0.736113
  0.562062  0.546956  0.273903
  0.562401  0.751724  0.756619
  0.562396  0.047995  0.232139
  0.567502  0.300655  0.273913
  0.567558  0.001883  0.774914
  0.568086  0.506097  0.719417
  0.568250  0.794663  0.232184
  0.580195  0.131649  0.508525
  0.579925  0.630563  0.007457
  0.580591  0.171368  0.007863
  0.581898  0.668244  0.507280
  0.593225  0.005268  0.229177
  0.593143  0.296218  0.725914
  0.593736  0.800815  0.778883
  0.593826  0.499997  0.264169
  0.599039  0.750193  0.225171
  0.598989  0.051409  0.760477
  0.599204  0.253267  0.268955
  0.599371  0.546552  0.746305
  0.609143  0.896025  0.492479
  0.610261  0.390695  0.992139
  0.614355  0.907989  0.992048
  0.613919  0.405005  0.492199
  0.624284  0.753994  0.743535
  0.624544  0.044941  0.276009
  0.624984  0.547791  0.229680
  0.624987  0.249634  0.749956
  0.629999  0.799698  0.267533
  0.630106  0.500500  0.774484
  0.630563  0.004378  0.720608
  0.630761  0.293629  0.239175
  0.642279  0.634664  0.508442
  0.641955  0.132183  0.007340
  0.643626  0.667084  0.007984
  0.644899  0.162403  0.507146
  0.655719  0.503962  0.236734
  0.655762  0.794819  0.727796
  0.656311  0.298353  0.777605
  0.656436  0.998647  0.256177
  0.661427  0.549997  0.752605
  0.661492  0.248726  0.223457
  0.661823  0.753554  0.270589
  0.661935  0.043551  0.753589
  0.672141  0.389781  0.492547
  0.673620  0.885781  0.992333
  0.676358  0.410596  0.992152
  0.676081  0.907708  0.491951
  0.687031  0.253579  0.751625
  0.687099  0.542528  0.278615
  0.687601  0.745810  0.740876
  0.687677  0.049101  0.228884
  0.692666  0.298669  0.259124
  0.692668  0.997961  0.771116
  0.693167  0.501951  0.721385
  0.693235  0.790900  0.248375
  0.704000  0.138371  0.507499
  0.704322  0.632575  0.007500
  0.707062  0.162880  0.007500
  0.707385  0.657084  0.507499
  0.718070  0.001970  0.248375
  0.718217  0.293504  0.721385
  0.718637  0.794911  0.771116
  0.718718  0.496786  0.259124
  0.723707  0.746354  0.228884
  0.723784  0.049645  0.740876
  0.724285  0.252927  0.278615
  0.724353  0.541876  0.751625
  0.734960  0.884181  0.492501
  0.735440  0.383551  0.992501
  0.738022  0.908690  0.992501
  0.738503  0.408059  0.492501
  0.749432  0.750996  0.751625
  0.749658  0.045111  0.278615
  0.750078  0.546518  0.228884
  0.750159  0.248393  0.740876
  0.755389  0.796718  0.259124
  0.755470  0.498592  0.771116
  0.755969  0.002580  0.721385
  0.756116  0.294115  0.248375
  0.766723  0.636420  0.507499
  0.767203  0.135790  0.007500
  0.769785  0.660928  0.007500
  0.770266  0.160298  0.507499
  0.780872  0.502603  0.248375
  0.780941  0.791552  0.721385
  0.781518  0.298125  0.771116
  0.781521  0.997417  0.259124
  0.786507  0.547693  0.740876
  0.786588  0.249568  0.228884
  0.787008  0.750976  0.278615
  0.787234  0.045090  0.751625
  0.797841  0.387396  0.492501
  0.798163  0.881600  0.992501
  0.800903  0.411904  0.992501
  0.801226  0.906108  0.492501
  0.811990  0.253579  0.751625
  0.812058  0.542528  0.278615
  0.812560  0.745810  0.740876
  0.812636  0.049101  0.228884
  0.817625  0.298669  0.259124
  0.817627  0.997961  0.771116
  0.818126  0.501951  0.721385
  0.818194  0.790900  0.248375
  0.829531  0.135541  0.507488
  0.829351  0.631683  0.007854
  0.831692  0.163024  0.007085
  0.832728  0.657828  0.508323
  0.843411  0.002621  0.238402
  0.843434  0.291730  0.723927
  0.843875  0.795227  0.776876
  0.843951  0.495207  0.257976
  0.848936  0.747515  0.225555
  0.848986  0.046254  0.751156
  0.849586  0.250663  0.272563
  0.849627  0.541113  0.753732
  0.859889  0.889555  0.492322
  0.860470  0.384520  0.991788
  0.863941  0.905355  0.992294
  0.864218  0.403219  0.492458
  0.874626  0.749396  0.745755
  0.874890  0.041728  0.271754
  0.875092  0.545061  0.226518
  0.875162  0.244488  0.752535
  0.880207  0.795522  0.264808
  0.880328  0.495339  0.775904
  0.880831  0.999693  0.724420
  0.881050  0.290810  0.236528
  0.892353  0.628299  0.506759
  0.892964  0.126584  0.007557
  0.894041  0.664794  0.007016
  0.894462  0.161298  0.508357
  0.905929  0.500962  0.231786
  0.906004  0.789560  0.720250
  0.906584  0.293577  0.775946
  0.906647  0.994708  0.267856
  0.911674  0.544145  0.756823
  0.911768  0.246819  0.229387
  0.912072  0.748714  0.272244
  0.912215  0.040363  0.741649
  0.922314  0.392963  0.491936
  0.922198  0.887694  0.990961
  0.926881  0.400559  0.991898
  0.927426  0.896817  0.491376
  0.937317  0.247873  0.739775
  0.937516  0.541813  0.267151
  0.937536  0.743870  0.761648
  0.937475  0.043931  0.227039
  0.942792  0.294657  0.270428
  0.942787  0.993958  0.777119
  0.943471  0.499024  0.724674
  0.943428  0.789562  0.226535
  0.955133  0.124087  0.506759
  0.956189  0.623535  0.006832
  0.956156  0.165990  0.007275
  0.956287  0.664621  0.507741
  0.968351  0.000339  0.226697
  0.968512  0.288611  0.719999
  0.969076  0.793409  0.774023
  0.969121  0.494292  0.274615
  0.974293  0.747416  0.233015
  0.974205  0.042767  0.761245
  0.974468  0.246747  0.269901
  0.974605  0.541336  0.732389
  0.984692  0.896591  0.491034
  0.984163  0.391625  0.990526
  0.989524  0.897171  0.991046
  0.990130  0.392258  0.490705
 
  896  112   84
 0.33406700884E+03 0.27230503793E+03 0.22584130718E+03 0.19322424484E+03 0.17306600894E+03
 0.16410504716E+03 0.16500561842E+03 0.17482573527E+03 0.19282313405E+03 0.21827514510E+03
 0.24986042086E+03 0.28603069397E+03 0.32466779853E+03 0.36315425859E+03 0.39867932532E+03
 0.42729222413E+03 0.44629132267E+03 0.45376114149E+03 0.44905982865E+03 0.43269903334E+03
 0.40635680119E+03 0.37255440107E+03 0.33577205370E+03 0.29886792335E+03 0.26469858972E+03
 0.23574879042E+03 0.21351679410E+03 0.19991166889E+03 0.19640865307E+03 0.20450777790E+03
 0.22543135649E+03 0.26040875081E+03 0.31023835806E+03 0.37586935011E+03 0.45854030957E+03
 0.55778695735E+03 0.67129177528E+03 0.79316297055E+03 0.91570693643E+03 0.10272603285E+04
 0.11152669138E+04 0.11700613540E+04 0.11847574928E+04 0.11577768134E+04 0.10930139582E+04
 0.99858508105E+03 0.88515798879E+03 0.76565404161E+03 0.64926273003E+03 0.54273995560E+03
 0.45036986871E+03 0.37313531590E+03 0.31057775370E+03 0.26109856668E+03 0.22322564257E+03
 0.19503736914E+03 0.17479816098E+03 0.16045671863E+03 0.15003547100E+03 0.14261312086E+03
 0.13750489958E+03 0.13421968010E+03 0.13226773484E+03 0.13137328189E+03 0.13132450770E+03
 0.13166034014E+03 0.13258571877E+03 0.13414409529E+03 0.13540117711E+03 0.13674904803E+03
 0.13807625197E+03 0.13894264660E+03 0.13926219441E+03 0.13909995612E+03 0.13857282270E+03
 0.13801632862E+03 0.13775702001E+03 0.13736187531E+03 0.13748969856E+03 0.13842963947E+03
 0.13966639517E+03 0.14193795651E+03 0.14493072764E+03 0.14853947611E+03 0.15286005348E+03
 0.15831154238E+03 0.16517743560E+03 0.17442047641E+03 0.18722540871E+03 0.20441615537E+03
 0.22804375144E+03 0.26011478771E+03 0.30212280887E+03 0.35529800011E+03 0.42029442122E+03
 0.49731452583E+03 0.58485417943E+03 0.68006442795E+03 0.77681174568E+03 0.86761181028E+03
 0.94384232197E+03 0.99622806467E+03 0.10180190431E+04 0.10061537261E+04 0.96183435086E+03
 0.89011413354E+03 0.79920319765E+03 0.69885931379E+03 0.59705550508E+03 0.50072661526E+03
 0.41447836222E+03 0.34034826149E+03 0.27903196972E+03 0.22988718052E+03 0.19246555240E+03
 0.16572296027E+03 0.14805319017E+03 0.13818207403E+03 0.13505464103E+03 0.13792000160E+03
 0.14629370968E+03 0.15991903030E+03 0.17824031333E+03 0.19983653055E+03 0.22352639254E+03
 0.24784815713E+03 0.27034475749E+03 0.28964990383E+03 0.30423109557E+03 0.31220752687E+03
 0.31264693085E+03 0.30551067936E+03 0.29189291717E+03 0.27353495279E+03 0.25214207930E+03
 0.22920001564E+03 0.20764431030E+03 0.18910706152E+03 0.17539758938E+03 0.16809706012E+03
 0.16871154919E+03 0.17908004436E+03 0.20139099844E+03 0.23799744506E+03 0.29158694148E+03
 0.36507241261E+03 0.46258769385E+03 0.58801599180E+03 0.74381081871E+03 0.92854481014E+03
 0.11365361770E+04 0.13549560506E+04 0.15660386422E+04 0.17489628178E+04 0.18796697047E+04
 0.19395691360E+04 0.19193327268E+04 0.18226241624E+04 0.16638462188E+04 0.14654447189E+04
 0.12500777510E+04 0.10364231454E+04 0.84021804578E+03 0.67000641005E+03 0.52933354445E+03
 0.41693766418E+03 0.32921749814E+03 0.26206786316E+03 0.21179430693E+03 0.17515227100E+03
 0.14959119097E+03 0.13270943576E+03 0.12200902746E+03 0.11601225096E+03 0.11348451663E+03
 0.11380136318E+03 0.11621247007E+03 0.12030029260E+03 0.12482678139E+03 0.12965749978E+03
 0.13440804081E+03 0.13838390403E+03 0.14111698487E+03 0.14259343681E+03 0.14293938282E+03
 0.14209638513E+03 0.14012232967E+03 0.13749338376E+03 0.13479639299E+03 0.13222742602E+03
 0.13025970656E+03 0.12916081887E+03 0.12897106880E+03 0.12957131018E+03 0.13118861388E+03
 0.13404304301E+03 0.13814865323E+03 0.14387032432E+03 0.15154339809E+03 0.16166332319E+03
 0.17465899818E+03 0.19191628892E+03 0.21497340251E+03 0.24501534379E+03 0.28321579877E+03
 0.33001608491E+03 0.38540353347E+03 0.44876155682E+03 0.51790856221E+03 0.58984993558E+03
 0.65928976204E+03 0.72007044844E+03 0.76676154513E+03 0.79358430043E+03 0.79689194437E+03
 0.77585827346E+03 0.73306718451E+03 0.67338409799E+03 0.60294119025E+03 0.52718878549E+03
 0.45231495446E+03 0.38247577635E+03 0.32004256924E+03 0.26646176087E+03 0.22194547666E+03
 0.18630556254E+03 0.15920310495E+03 0.13935882000E+03 0.12576055269E+03 0.11748459613E+03
 0.11386509030E+03 0.11441315198E+03 0.11893363169E+03 0.12693454717E+03 0.13805007560E+03
 0.15187959756E+03 0.16768554460E+03 0.18442266974E+03 0.20109142333E+03 0.21650458181E+03
 0.22852629992E+03 0.23645127820E+03 0.23967451196E+03 0.23822159053E+03 0.23222597730E+03
 0.22210895592E+03 0.20886727233E+03 0.19425733165E+03 0.18065197801E+03 0.16904433781E+03
 0.16104945012E+03 0.15836630846E+03 0.16274481750E+03 0.17621004463E+03 0.20114321353E+03
 0.23990826366E+03 0.29508206642E+03 0.36959507081E+03 0.46764263598E+03 0.59239657481E+03
 0.74552130654E+03 0.92478098235E+03 0.11237884325E+04 0.13288936618E+04 0.15227169157E+04
 0.16854799671E+04 0.17953887332E+04 0.18367064309E+04 0.18030852522E+04 0.17003066255E+04
 0.15433839009E+04 0.13538736786E+04 0.11513266295E+04 0.95316622483E+03 0.77307194510E+03
 0.61781800699E+03 0.49006409176E+03 0.38795273318E+03 0.30818256897E+03 0.24699413960E+03
 0.20130530802E+03 0.16809979241E+03 0.14511589299E+03 0.13000431099E+03 0.12056276790E+03
 0.11544773661E+03 0.11363536961E+03 0.11448435062E+03 0.11733884023E+03 0.12172905060E+03
 0.12647755825E+03 0.13155413603E+03 0.13651517671E+03 0.14061399409E+03 0.14364455402E+03
 0.14554580383E+03 0.14645036859E+03 0.14636621520E+03 0.14542473845E+03 0.14412590547E+03
 0.14312606542E+03 0.14249644601E+03 0.14271096898E+03 0.14390745226E+03 0.14576616402E+03
 0.14883678989E+03 0.15282373538E+03 0.15734801603E+03 0.16253094392E+03 0.16853428159E+03
 0.17571125789E+03 0.18478528813E+03 0.19699047929E+03 0.21325012941E+03 0.23532473665E+03
 0.26565073217E+03 0.30580646668E+03 0.35767488727E+03 0.42212862145E+03 0.50002529544E+03
 0.59058607617E+03 0.69141252101E+03 0.79713768127E+03 0.90028850576E+03 0.99160490467E+03
 0.10602121438E+04 0.10976835543E+04 0.10988894739E+04 0.10634199956E+04 0.99531141600E+03
 0.90207730999E+03 0.79412590560E+03 0.68200461723E+03 0.57345300043E+03 0.47476204902E+03
 0.38907433011E+03 0.31770044363E+03 0.26020568605E+03 0.21583514762E+03 0.18377860224E+03
 0.16239959661E+03 0.15031538465E+03 0.14616367656E+03 0.14901084642E+03 0.15809476781E+03
 0.17298314083E+03 0.19279674210E+03 0.21578690637E+03 0.24083284093E+03 0.26559081634E+03
 0.28781060151E+03 0.30640563178E+03 0.31925582736E+03 0.32476807481E+03 0.32225306321E+03
 0.31200576127E+03 0.29531684377E+03 0.27463207100E+03 0.25119096050E+03 0.22704558777E+03
 0.20515624268E+03 0.18691263512E+03 0.17394779503E+03 0.16782526086E+03 0.17005575371E+03
 0.18227699936E+03 0.20641811494E+03 0.24451270698E+03 0.29861214140E+03 0.37094492005E+03
 0.46456923136E+03 0.58152483961E+03 0.72196165870E+03 0.88232963793E+03 0.10551628907E+04
 0.12270829113E+04 0.13821181430E+04 0.15036013778E+04 0.15754986133E+04 0.15875439015E+04
 0.15381967849E+04 0.14353437243E+04 0.12933090200E+04 0.11288079610E+04 0.95770342519E+03
 0.79489524641E+03 0.64922621667E+03 0.52559210596E+03 0.42456681747E+03 0.34411875337E+03
 0.28164389449E+03 0.23406812415E+03 0.19868920199E+03 0.17338481452E+03 0.15504071692E+03
 0.14179689857E+03 0.13242074558E+03 0.12577276951E+03 0.12123884315E+03 0.11838942136E+03
 0.11671150738E+03 0.11551072370E+03 0.11487903984E+03 0.11497289114E+03 0.11523177464E+03
 0.11568431243E+03 0.11599373317E+03 0.11639036014E+03 0.11692800047E+03 0.11773952150E+03
 0.11882840078E+03 0.12026516985E+03 0.12185252828E+03 0.12385019970E+03 0.12662669928E+03
 0.13018842375E+03 0.13404932041E+03 0.13884809276E+03 0.14421686504E+03 0.14987343183E+03
 0.15591296455E+03 0.16272758999E+03 0.17085003054E+03 0.18099290796E+03 0.19484162674E+03
 0.21407296517E+03 0.24084944517E+03 0.27831306039E+03 0.32878171949E+03 0.39499613804E+03
 0.47964146137E+03 0.58515942534E+03 0.71267952177E+03 0.86054292064E+03 0.10226703239E+04
 0.11891164971E+04 0.13444234347E+04 0.14727403541E+04 0.15584249725E+04 0.15891906509E+04
 0.15595732020E+04 0.14735230288E+04 0.13424020920E+04 0.11824099463E+04 0.10095601121E+04
 0.83964059736E+03 0.68436996708E+03 0.55022021197E+03 0.43971369753E+03 0.35237130864E+03
 0.28570397714E+03 0.23698062353E+03 0.20411594656E+03 0.18504221346E+03 0.17792217096E+03
 0.18083514871E+03 0.19190881021E+03 0.20934957493E+03 0.23128502052E+03 0.25661467486E+03
 0.28215059692E+03 0.30554507813E+03 0.32538562650E+03 0.33895211693E+03 0.34458961941E+03
 0.34146341075E+03 0.32997685696E+03 0.31144158310E+03 0.28842922432E+03 0.26233801643E+03
 0.23496197880E+03 0.20936936778E+03 0.18670067915E+03 0.16879031035E+03 0.15692111830E+03
 0.15169826324E+03 0.15386049462E+03 0.16447988711E+03 0.18492034233E+03 0.21652990536E+03
 0.26096763759E+03 0.31950370311E+03 0.39300817927E+03 0.48237417136E+03 0.58669097809E+03
 0.70282522460E+03 0.82450284842E+03 0.94364431454E+03 0.10478367508E+04 0.11257318779E+04
 0.11683703869E+04 0.11708810879E+04 0.11330838336E+04 0.10601849112E+04 0.96097520283E+03
 0.84714195512E+03 0.73059675181E+03 0.61917146481E+03 0.51918490682E+03 0.43335995758E+03
 0.36227832770E+03 0.30522130620E+03 0.26042262012E+03 0.22633517541E+03 0.20110425543E+03
 0.18237836954E+03 0.16844309159E+03 0.15783637767E+03 0.14925729929E+03 0.14219149819E+03
 0.13614185072E+03 0.13090991741E+03 0.12644996777E+03 0.12274752260E+03 0.11941628809E+03
 0.11673297661E+03 0.11481271574E+03 0.11321619751E+03 0.11163950044E+03 0.11042476153E+03
 0.10949525747E+03 0.10895637142E+03 0.10869883522E+03 0.10878960919E+03 0.10880197788E+03
 0.10915929229E+03 0.11002253448E+03 0.11145140050E+03 0.11362252665E+03 0.11629294922E+03
 0.11987965665E+03 0.12477731319E+03 0.13132052853E+03 0.14016041499E+03 0.15212322793E+03
 0.16856709242E+03 0.19112965388E+03 0.22296982984E+03 0.26714991358E+03 0.32677801034E+03
 0.40558898006E+03 0.50792187969E+03 0.63808255210E+03 0.79931552797E+03 0.99076568015E+03
 0.12070567274E+04 0.14360475404E+04 0.16595032720E+04 0.18560510213E+04 0.20003358618E+04
 0.20711946948E+04 0.20571667276E+04 0.19599368213E+04 0.17934663805E+04 0.15807131522E+04
 0.13475407603E+04 0.11149143192E+04 0.90016226962E+03 0.71411565589E+03 0.56089038177E+03
 0.44004858609E+03 0.34816307880E+03 0.28053805962E+03 0.23289949236E+03 0.20237983672E+03
 0.18620124591E+03 0.18199537953E+03 0.18718908320E+03 0.19978212909E+03 0.21736726880E+03
 0.23835035003E+03 0.26081859472E+03 0.28163337449E+03 0.29947858403E+03 0.31205648684E+03
 0.31779510475E+03 0.31600869095E+03 0.30683778287E+03 0.29134055200E+03 0.27126961929E+03
 0.24790812803E+03 0.22295215032E+03 0.19897158053E+03 0.17685440146E+03 0.15811599825E+03
 0.14337335816E+03 0.13280133804E+03 0.12702342176E+03 0.12607972686E+03 0.13009121367E+03
 0.13946703914E+03 0.15515360022E+03 0.17774302031E+03 0.20813961467E+03 0.24742491078E+03
 0.29551940034E+03 0.35233644349E+03 0.41717290417E+03 0.48794781028E+03 0.56153495262E+03
 0.63220942171E+03 0.69441514784E+03 0.74244992245E+03 0.77072531786E+03 0.77591257891E+03
 0.75760078142E+03 0.71851830916E+03 0.66385077479E+03 0.59935637042E+03 0.53033818616E+03
 0.46286090351E+03 0.40037446971E+03 0.34505364125E+03 0.29788107624E+03 0.25898218239E+03
 0.22780508571E+03 0.20358780945E+03 0.18503420246E+03 0.17039065670E+03 0.15877728000E+03
 0.14938375458E+03 0.14170700285E+03 0.13547223644E+03 0.13051270627E+03 0.12675906861E+03
 0.12373958960E+03 0.12163417762E+03 0.12067459869E+03 0.12045785244E+03 0.12080906229E+03
 0.12125331237E+03 0.12193595937E+03 0.12238224604E+03 0.12226903862E+03 0.12144716963E+03
 0.11977316882E+03 0.11730815723E+03 0.11449365159E+03 0.11175791833E+03 0.10907967125E+03
 0.10676870963E+03 0.10579534345E+03 0.10659568736E+03 0.10985672517E+03 0.11624951245E+03
 0.12681881241E+03 0.14305280815E+03 0.16724017353E+03 0.20199847047E+03 0.24993157660E+03
 0.31451440244E+03 0.39939595016E+03 0.50916769644E+03 0.64834774878E+03 0.81973969181E+03
 0.10219777739E+04 0.12487483486E+04 0.14863319249E+04 0.17158895726E+04 0.19138920327E+04
 0.20538079083E+04 0.21150672323E+04 0.20877072470E+04 0.19756288536E+04 0.17950530778E+04
 0.15710637711E+04 0.13301354526E+04 0.10933081433E+04 0.87721915514E+03 0.69146758600E+03
 0.53913013897E+03 0.41923918072E+03 0.32746862023E+03 0.25941699740E+03 0.21070990927E+03
 0.17781573559E+03 0.15805188264E+03 0.14911805197E+03 0.14871301177E+03 0.15527106183E+03
 0.16740773705E+03 0.18386020982E+03 0.20265247440E+03 0.22269062652E+03 0.24194599900E+03
 0.25811184238E+03 0.27004500399E+03 0.27664442379E+03 0.27711143751E+03 0.27138378291E+03
 0.26009710018E+03 0.24421636825E+03 0.22497703870E+03 0.20449362167E+03 0.18420326933E+03
 0.16529674143E+03 0.14899938042E+03 0.13621425969E+03 0.12709230230E+03 0.12219119841E+03
 0.12168741795E+03 0.12584591006E+03 0.13499258484E+03 0.14990571751E+03 0.17110550573E+03
 0.19931382372E+03 0.23508937706E+03 0.27805661813E+03 0.32766899614E+03 0.38285708161E+03
 0.44117525393E+03 0.49982332248E+03 0.55434129880E+03 0.59946929474E+03 0.63134236231E+03
 0.64675810499E+03 0.64416106672E+03 0.62407599982E+03 0.58919028846E+03 0.54305061490E+03
 0.49033582634E+03 0.43614675972E+03 0.38367454242E+03 0.33553054831E+03 0.29320789422E+03
 0.25746105601E+03 0.22831391423E+03 0.20521218795E+03 0.18738906452E+03 0.17367687322E+03
 0.16260785433E+03 0.15371265318E+03 0.14644106384E+03 0.14048252539E+03 0.13557767268E+03
 0.13163792443E+03 0.12861972948E+03 0.12617810306E+03 0.12452078291E+03 0.12389835130E+03
 0.12395481952E+03 0.12429726716E+03 0.12473730456E+03 0.12543799320E+03 0.12581852173E+03
 0.12573833902E+03 0.12503149464E+03 0.12363165742E+03 0.12157084928E+03 0.11948722156E+03
 0.11743829200E+03 0.11537156328E+03 0.11398726808E+03 0.11356199371E+03 0.11414997956E+03
 0.11640292169E+03 0.12090492426E+03 0.12840331150E+03 0.13960267498E+03 0.15585953876E+03