
     Program PWSCF v.6.2 (svn rev. 14038) starts on 25Mar2020 at 22:55:38 

     This program is part of the open-source Quantum ESPRESSO suite
     for quantum simulation of materials; please cite
         "P. Giannozzi et al., J. Phys.:Condens. Matter 21 395502 (2009);
         "P. Giannozzi et al., J. Phys.:Condens. Matter 29 465901 (2017);
          URL http://www.quantum-espresso.org", 
     in publications or presentations arising from this work. More details at
     http://www.quantum-espresso.org/quote

     Parallel version (MPI), running on    40 processors

     MPI processes distributed on     7 nodes
     K-points division:     npool     =      40
     Reading input from scf.in

     Current dimensions of program PWSCF are:
     Max number of different atomic species (ntypx) = 10
     Max number of k-points (npk) =  40000
     Max angular momentum in pseudopotentials (lmaxx) =  3

     Subspace diagonalization in iterative solution of the eigenvalue problem:
     a serial algorithm will be used

 
     G-vector sticks info
     --------------------
     sticks:   dense  smooth     PW     G-vecs:    dense   smooth      PW
     Sum        7575    7575   2025               495425   495425   68659
 


     bravais-lattice index     =            0
     lattice parameter (alat)  =      14.0208  a.u.
     unit-cell volume          =    2790.0315 (a.u.)^3
     number of atoms/cell      =           32
     number of atomic types    =            2
     number of electrons       =       369.00
     number of Kohn-Sham states=          222
     kinetic-energy cutoff     =     120.0000  Ry
     charge density cutoff     =     480.0000  Ry
     convergence threshold     =      1.0E-08
     mixing beta               =       0.7000
     number of iterations used =            8  plain     mixing
     Exchange-correlation      = SLA PW NOGX NOGC ( 1  4  0  0 0 0)

     celldm(1)=  14.020762  celldm(2)=   0.000000  celldm(3)=   0.000000
     celldm(4)=   0.000000  celldm(5)=   0.000000  celldm(6)=   0.000000

     crystal axes: (cart. coord. in units of alat)
               a(1) = (   1.000000   0.000000   0.000000 )  
               a(2) = (   0.000000   1.008288   0.000000 )  
               a(3) = (   0.000000   0.000000   1.003945 )  

     reciprocal axes: (cart. coord. in units 2 pi/alat)
               b(1) = (  1.000000  0.000000  0.000000 )  
               b(2) = (  0.000000  0.991780  0.000000 )  
               b(3) = (  0.000000  0.000000  0.996071 )  


     PseudoPot. # 1 for W  read from file:
     /cluster/scratch/mnoe/QE/pps/W_ONCV_LDA-4.0.upf
     MD5 check sum: ba0307d5d4cd419d6f1d13dc49d7c13a
     Pseudo is Norm-conserving + core correction, Zval = 28.0
     Generated using ONCVPSP code by D. R. Hamann
     Using radial grid of 1380 points,  8 beta functions with: 
                l(1) =   0
                l(2) =   0
                l(3) =   1
                l(4) =   1
                l(5) =   2
                l(6) =   2
                l(7) =   3
                l(8) =   3

     PseudoPot. # 2 for O  read from file:
     /cluster/scratch/mnoe/QE/pps/O_ONCV_LDA-3.0.upf
     MD5 check sum: a1bd6164e7280c17a38c229939bfbd54
     Pseudo is Norm-conserving + core correction, Zval =  6.0
     Generated using ONCVPSP code by D. R. Hamann
     Using radial grid of  926 points,  5 beta functions with: 
                l(1) =   0
                l(2) =   0
                l(3) =   1
                l(4) =   1
                l(5) =   2

     atomic species   valence    mass     pseudopotential
        W             28.00   183.84000     W ( 1.00)
        O              6.00    15.99940     O ( 1.00)

      4 Sym. Ops. (no inversion) found ( 3 have fractional translation)



   Cartesian axes

     site n.     atom                  positions (alat units)
         1           W   tau(   1) = (   0.2198665   0.2782531   0.0051710  )
         2           W   tau(   2) = (   0.7568665   0.7300346  -0.0299068  )
         3           W   tau(   3) = (   0.2801335   0.2258908   0.5071433  )
         4           W   tau(   4) = (   0.7431335   0.7823970   0.4720654  )
         5           W   tau(   5) = (   0.7801334   0.2782531   0.4968014  )
         6           W   tau(   6) = (   0.2431335   0.7300346   0.5318792  )
         7           W   tau(   7) = (   0.7198665   0.2258908  -0.0051709  )
         8           W   tau(   8) = (   0.2568665   0.7823970   0.0299069  )
         9           O   tau(   9) = (   0.2122541   0.0067699  -0.0173658  )
        10           O   tau(  10) = (   0.7805140  -0.0067700  -0.0282686  )
        11           O   tau(  11) = (   0.2877459   0.4973740   0.4846065  )
        12           O   tau(  12) = (   0.7194859   0.5109138   0.4737037  )
        13           O   tau(  13) = (   0.7877458   0.0067699   0.5193381  )
        14           O   tau(  14) = (   0.2194859  -0.0067700   0.5302410  )
        15           O   tau(  15) = (   0.7122541   0.4973740   0.0173658  )
        16           O   tau(  16) = (   0.2805141   0.5109138   0.0282686  )
        17           O   tau(  17) = (   0.5101675   0.2116421   0.4657822  )
        18           O   tau(  18) = (   0.5000475   0.7863863   0.5381625  )
        19           O   tau(  19) = (  -0.0101675   0.2925018   0.9677545  )
        20           O   tau(  20) = (  -0.0000475   0.7260455   0.0361901  )
        21           O   tau(  21) = (   0.4898325   0.2116421   0.0361901  )
        22           O   tau(  22) = (   0.4999525   0.7863863   0.9677545  )
        23           O   tau(  23) = (   0.0101675   0.2925018   0.5381625  )
        24           O   tau(  24) = (   0.0000475   0.7260455   0.4657822  )
        25           O   tau(  25) = (   0.7139521   0.2678754   0.7486410  )
        26           O   tau(  26) = (   0.2860479   0.7874260   0.2620692  )
        27           O   tau(  27) = (   0.7860480   0.2362685   0.2466688  )
        28           O   tau(  28) = (   0.2139521   0.7250058   0.7640415  )
        29           O   tau(  29) = (   0.2860479   0.2678754   0.7572759  )
        30           O   tau(  30) = (   0.7139521   0.7874260   0.2399032  )
        31           O   tau(  31) = (   0.2139521   0.2362685   0.2553036  )
        32           O   tau(  32) = (   0.7860480   0.7250058   0.7418754  )

     number of k points=    64  gaussian smearing, width (Ry)=  0.0007
                       cart. coord. in units 2pi/alat
        k(    1) = (   0.0000000   0.0000000   0.0000000), wk =   0.0092593
        k(    2) = (   0.0000000   0.0000000   0.1660118), wk =   0.0185185
        k(    3) = (   0.0000000   0.0000000   0.3320236), wk =   0.0185185
        k(    4) = (   0.0000000   0.0000000  -0.4980354), wk =   0.0092593
        k(    5) = (   0.0000000   0.1652967   0.0000000), wk =   0.0185185
        k(    6) = (   0.0000000   0.1652967   0.1660118), wk =   0.0370370
        k(    7) = (   0.0000000   0.1652967   0.3320236), wk =   0.0370370
        k(    8) = (   0.0000000   0.1652967  -0.4980354), wk =   0.0185185
        k(    9) = (   0.0000000   0.3305935   0.0000000), wk =   0.0185185
        k(   10) = (   0.0000000   0.3305935   0.1660118), wk =   0.0370370
        k(   11) = (   0.0000000   0.3305935   0.3320236), wk =   0.0370370
        k(   12) = (   0.0000000   0.3305935  -0.4980354), wk =   0.0185185
        k(   13) = (   0.0000000  -0.4958902   0.0000000), wk =   0.0092593
        k(   14) = (   0.0000000  -0.4958902   0.1660118), wk =   0.0185185
        k(   15) = (   0.0000000  -0.4958902   0.3320236), wk =   0.0185185
        k(   16) = (   0.0000000  -0.4958902  -0.4980354), wk =   0.0092593
        k(   17) = (   0.1666667   0.0000000   0.0000000), wk =   0.0185185
        k(   18) = (   0.1666667   0.0000000   0.1660118), wk =   0.0370370
        k(   19) = (   0.1666667   0.0000000   0.3320236), wk =   0.0370370
        k(   20) = (   0.1666667   0.0000000  -0.4980354), wk =   0.0185185
        k(   21) = (   0.1666667   0.1652967   0.0000000), wk =   0.0370370
        k(   22) = (   0.1666667   0.1652967   0.1660118), wk =   0.0740741
        k(   23) = (   0.1666667   0.1652967   0.3320236), wk =   0.0740741
        k(   24) = (   0.1666667   0.1652967  -0.4980354), wk =   0.0370370
        k(   25) = (   0.1666667   0.3305935   0.0000000), wk =   0.0370370
        k(   26) = (   0.1666667   0.3305935   0.1660118), wk =   0.0740741
        k(   27) = (   0.1666667   0.3305935   0.3320236), wk =   0.0740741
        k(   28) = (   0.1666667   0.3305935  -0.4980354), wk =   0.0370370
        k(   29) = (   0.1666667  -0.4958902   0.0000000), wk =   0.0185185
        k(   30) = (   0.1666667  -0.4958902   0.1660118), wk =   0.0370370
        k(   31) = (   0.1666667  -0.4958902   0.3320236), wk =   0.0370370
        k(   32) = (   0.1666667  -0.4958902  -0.4980354), wk =   0.0185185
        k(   33) = (   0.3333333   0.0000000   0.0000000), wk =   0.0185185
        k(   34) = (   0.3333333   0.0000000   0.1660118), wk =   0.0370370
        k(   35) = (   0.3333333   0.0000000   0.3320236), wk =   0.0370370
        k(   36) = (   0.3333333   0.0000000  -0.4980354), wk =   0.0185185
        k(   37) = (   0.3333333   0.1652967   0.0000000), wk =   0.0370370
        k(   38) = (   0.3333333   0.1652967   0.1660118), wk =   0.0740741
        k(   39) = (   0.3333333   0.1652967   0.3320236), wk =   0.0740741
        k(   40) = (   0.3333333   0.1652967  -0.4980354), wk =   0.0370370
        k(   41) = (   0.3333333   0.3305935   0.0000000), wk =   0.0370370
        k(   42) = (   0.3333333   0.3305935   0.1660118), wk =   0.0740741
        k(   43) = (   0.3333333   0.3305935   0.3320236), wk =   0.0740741
        k(   44) = (   0.3333333   0.3305935  -0.4980354), wk =   0.0370370
        k(   45) = (   0.3333333  -0.4958902   0.0000000), wk =   0.0185185
        k(   46) = (   0.3333333  -0.4958902   0.1660118), wk =   0.0370370
        k(   47) = (   0.3333333  -0.4958902   0.3320236), wk =   0.0370370
        k(   48) = (   0.3333333  -0.4958902  -0.4980354), wk =   0.0185185
        k(   49) = (  -0.5000000   0.0000000   0.0000000), wk =   0.0092593
        k(   50) = (  -0.5000000   0.0000000   0.1660118), wk =   0.0185185
        k(   51) = (  -0.5000000   0.0000000   0.3320236), wk =   0.0185185
        k(   52) = (  -0.5000000   0.0000000  -0.4980354), wk =   0.0092593
        k(   53) = (  -0.5000000   0.1652967   0.0000000), wk =   0.0185185
        k(   54) = (  -0.5000000   0.1652967   0.1660118), wk =   0.0370370
        k(   55) = (  -0.5000000   0.1652967   0.3320236), wk =   0.0370370
        k(   56) = (  -0.5000000   0.1652967  -0.4980354), wk =   0.0185185
        k(   57) = (  -0.5000000   0.3305935   0.0000000), wk =   0.0185185
        k(   58) = (  -0.5000000   0.3305935   0.1660118), wk =   0.0370370
        k(   59) = (  -0.5000000   0.3305935   0.3320236), wk =   0.0370370
        k(   60) = (  -0.5000000   0.3305935  -0.4980354), wk =   0.0185185
        k(   61) = (  -0.5000000  -0.4958902   0.0000000), wk =   0.0092593
        k(   62) = (  -0.5000000  -0.4958902   0.1660118), wk =   0.0185185
        k(   63) = (  -0.5000000  -0.4958902   0.3320236), wk =   0.0185185
        k(   64) = (  -0.5000000  -0.4958902  -0.4980354), wk =   0.0092593

     Dense  grid:   495425 G-vectors     FFT dimensions: ( 100, 100, 100)

     Estimated max dynamical RAM per process >       3.12 GB

     Estimated total dynamical RAM >     124.66 GB

     Initial potential from superposition of free atoms

     starting charge  367.99656, renormalised to  369.00000
     Starting wfc are  232 randomized atomic wfcs

     total cpu time spent up to now is       47.9 secs

     Self-consistent Calculation

     iteration #  1     ecut=   120.00 Ry     beta= 0.70
     Davidson diagonalization with overlap
     ethr =  1.00E-02,  avg # of iterations =  5.4

     total cpu time spent up to now is      216.6 secs

     total energy              =   -6253.05137961 Ry
     Harris-Foulkes estimate   =   -6263.97430450 Ry
     estimated scf accuracy    <      13.71680789 Ry

     iteration #  2     ecut=   120.00 Ry     beta= 0.70
     Davidson diagonalization with overlap
     ethr =  3.72E-03,  avg # of iterations =  3.8

     total cpu time spent up to now is      382.0 secs

     total energy              =   -6250.02613253 Ry
     Harris-Foulkes estimate   =   -6269.81311770 Ry
     estimated scf accuracy    <      52.33401019 Ry

     iteration #  3     ecut=   120.00 Ry     beta= 0.70
     Davidson diagonalization with overlap
     ethr =  3.72E-03,  avg # of iterations =  3.4

     total cpu time spent up to now is      535.4 secs

     total energy              =   -6260.32089902 Ry
     Harris-Foulkes estimate   =   -6260.59000319 Ry
     estimated scf accuracy    <       0.90794847 Ry

     iteration #  4     ecut=   120.00 Ry     beta= 0.70
     Davidson diagonalization with overlap
     ethr =  2.46E-04,  avg # of iterations =  3.7

     total cpu time spent up to now is      666.5 secs

     total energy              =   -6260.31884253 Ry
     Harris-Foulkes estimate   =   -6260.39831614 Ry
     estimated scf accuracy    <       0.29841759 Ry

     iteration #  5     ecut=   120.00 Ry     beta= 0.70
     Davidson diagonalization with overlap
     ethr =  8.09E-05,  avg # of iterations =  5.1

     total cpu time spent up to now is      797.7 secs

     total energy              =   -6260.29919422 Ry
     Harris-Foulkes estimate   =   -6260.36480986 Ry
     estimated scf accuracy    <       0.17502648 Ry

     iteration #  6     ecut=   120.00 Ry     beta= 0.70
     Davidson diagonalization with overlap
     ethr =  4.74E-05,  avg # of iterations =  4.8

     total cpu time spent up to now is      933.3 secs

     total energy              =   -6260.32676233 Ry
     Harris-Foulkes estimate   =   -6260.33615105 Ry
     estimated scf accuracy    <       0.02947859 Ry

     iteration #  7     ecut=   120.00 Ry     beta= 0.70
     Davidson diagonalization with overlap
     ethr =  7.99E-06,  avg # of iterations =  3.9

     total cpu time spent up to now is     1069.2 secs

     total energy              =   -6260.33027698 Ry
     Harris-Foulkes estimate   =   -6260.33170785 Ry
     estimated scf accuracy    <       0.00473158 Ry

     iteration #  8     ecut=   120.00 Ry     beta= 0.70
     Davidson diagonalization with overlap
     ethr =  1.28E-06,  avg # of iterations =  3.5

     total cpu time spent up to now is     1196.6 secs

     total energy              =   -6260.33040182 Ry
     Harris-Foulkes estimate   =   -6260.33072907 Ry
     estimated scf accuracy    <       0.00073366 Ry

     iteration #  9     ecut=   120.00 Ry     beta= 0.70
     Davidson diagonalization with overlap
     ethr =  1.99E-07,  avg # of iterations =  3.1

     total cpu time spent up to now is     1330.8 secs

     total energy              =   -6260.33055809 Ry
     Harris-Foulkes estimate   =   -6260.33056988 Ry
     estimated scf accuracy    <       0.00003323 Ry

     iteration # 10     ecut=   120.00 Ry     beta= 0.70
     Davidson diagonalization with overlap
     ethr =  9.00E-09,  avg # of iterations =  3.2

     total cpu time spent up to now is     1471.3 secs

     total energy              =   -6260.33056172 Ry
     Harris-Foulkes estimate   =   -6260.33056660 Ry
     estimated scf accuracy    <       0.00001190 Ry

     iteration # 11     ecut=   120.00 Ry     beta= 0.70
     Davidson diagonalization with overlap
     ethr =  3.23E-09,  avg # of iterations =  2.0

     total cpu time spent up to now is     1593.4 secs

     total energy              =   -6260.33056330 Ry
     Harris-Foulkes estimate   =   -6260.33056358 Ry
     estimated scf accuracy    <       0.00000052 Ry

     iteration # 12     ecut=   120.00 Ry     beta= 0.70
     Davidson diagonalization with overlap
     ethr =  1.40E-10,  avg # of iterations =  3.0

     total cpu time spent up to now is     1754.3 secs

     total energy              =   -6260.33056342 Ry
     Harris-Foulkes estimate   =   -6260.33056357 Ry
     estimated scf accuracy    <       0.00000038 Ry

     iteration # 13     ecut=   120.00 Ry     beta= 0.70
     Davidson diagonalization with overlap
     ethr =  1.03E-10,  avg # of iterations =  2.0

     total cpu time spent up to now is     1952.0 secs

     total energy              =   -6260.33056348 Ry
     Harris-Foulkes estimate   =   -6260.33056350 Ry
     estimated scf accuracy    <       0.00000004 Ry

     iteration # 14     ecut=   120.00 Ry     beta= 0.70
     Davidson diagonalization with overlap
     ethr =  1.11E-11,  avg # of iterations =  2.0

     total cpu time spent up to now is     2220.8 secs

     End of self-consistent calculation

          k = 0.0000 0.0000 0.0000 ( 61981 PWs)   bands (ev):

   -65.8515 -65.8508 -65.8507 -65.8500 -65.8450 -65.8443 -65.8441 -65.8434
   -30.3618 -30.3580 -30.3497 -30.3458 -30.2820 -30.2798 -30.2697 -30.2631
   -30.2183 -30.2101 -30.2090 -30.2011 -30.1552 -30.1491 -30.1468 -30.1425
   -30.1300 -30.1296 -30.1271 -30.1241 -30.0705 -30.0667 -30.0646 -30.0590
   -19.9924 -19.9923 -19.9898 -19.9897 -19.9831 -19.9829 -19.9817 -19.9816
   -19.9783 -19.9780 -19.9755 -19.9752 -19.9739 -19.9736 -19.9733 -19.9730
   -19.9728 -19.9726 -19.9720 -19.9719 -19.9713 -19.9712 -19.9679 -19.9675
   -19.9669 -19.9659 -19.9645 -19.9636 -19.9595 -19.9592 -19.9584 -19.9577
   -19.9577 -19.9570 -19.9561 -19.9558 -19.9531 -19.9529 -19.9528 -19.9522
   -19.9521 -19.9518 -19.9513 -19.9510 -19.9507 -19.9496 -19.9488 -19.9476
   -19.9475 -19.9465 -19.9465 -19.9453 -19.9442 -19.9438 -19.9418 -19.9414
    -9.8172  -9.4702  -9.4345  -9.4343  -9.0216  -9.0094  -8.9873  -8.8353
    -8.7189  -8.6625  -8.6618  -8.6335  -7.8743  -7.8168  -7.7546  -7.7486
    -7.6138  -7.5599  -7.5450  -7.5063  -7.4995  -7.4926  -7.4255  -7.4142
     1.4159   1.4729   1.4771   1.5147   1.6243   1.6590   1.6689   1.6883
     1.8245   1.8764   1.8819   2.0845   2.5543   2.5985   2.7140   2.7535
     2.7706   2.8289   4.3833   4.4277   4.6130   4.6580   4.6987   4.7191
     4.8032   4.8352   4.8439   4.9222   5.1317   5.1907   5.3871   5.5116
     5.5406   5.5608   5.5678   5.6184   5.7870   5.7908   5.8188   5.8725
     5.8907   5.8921   6.0157   6.0227   6.0363   6.0980   6.1471   6.2169
     6.3393   6.4819   6.4840   6.4878   6.7054   6.7411   6.9206   6.9626
     7.0316   7.1043   7.1297   7.1817   7.1920   7.2213   7.2291   7.2747
     7.4437   7.4826   7.9980   8.0613   8.0693   8.0896   8.2143   8.2879
    10.0000  10.0904  10.1665  10.1945  10.2260  10.2811  12.3873  12.4298
    12.4735  12.6290  12.6381  12.7806  12.8640  13.0789  13.1048  13.1152
    13.2893  13.2975  13.3285  13.5667  13.7151  13.8748  13.9627  14.2302
    14.8879  14.9482  15.0176  15.1491  15.2802  15.5453  15.9962  16.0918
    16.0935  16.9354  17.0520  17.1527  17.4726  17.8704

          k = 0.0000 0.0000 0.1660 ( 62009 PWs)   bands (ev):

   -65.8515 -65.8508 -65.8507 -65.8500 -65.8450 -65.8443 -65.8441 -65.8435
   -30.3565 -30.3525 -30.3493 -30.3460 -30.2870 -30.2844 -30.2693 -30.2638
   -30.2179 -30.2099 -30.2096 -30.2019 -30.1548 -30.1496 -30.1429 -30.1395
   -30.1300 -30.1285 -30.1276 -30.1218 -30.0702 -30.0699 -30.0672 -30.0638
   -19.9922 -19.9921 -19.9899 -19.9899 -19.9831 -19.9830 -19.9817 -19.9816
   -19.9781 -19.9778 -19.9757 -19.9754 -19.9738 -19.9735 -19.9733 -19.9730
   -19.9729 -19.9726 -19.9720 -19.9719 -19.9713 -19.9712 -19.9678 -19.9675
   -19.9668 -19.9658 -19.9647 -19.9638 -19.9595 -19.9592 -19.9583 -19.9577
   -19.9576 -19.9571 -19.9558 -19.9555 -19.9532 -19.9530 -19.9528 -19.9522
   -19.9522 -19.9518 -19.9513 -19.9510 -19.9506 -19.9497 -19.9487 -19.9476
   -19.9475 -19.9466 -19.9464 -19.9454 -19.9441 -19.9436 -19.9419 -19.9416
    -9.7752  -9.4489  -9.4199  -9.3739  -9.0220  -8.9972  -8.9621  -8.8186
    -8.6890  -8.6681  -8.6170  -8.5999  -7.9606  -7.8665  -7.8311  -7.7537
    -7.6158  -7.6061  -7.5640  -7.5472  -7.5218  -7.5032  -7.4964  -7.4306
     1.4723   1.5087   1.6047   1.6453   1.6620   1.6678   1.6870   1.7829
     1.8764   2.0097   2.0381   2.2047   2.5983   2.6676   2.7624   2.7945
     2.8178   2.9113   4.2591   4.3822   4.4164   4.4806   4.5057   4.6864
     4.7398   4.8160   4.8217   4.8535   5.0034   5.1416   5.2799   5.4395
     5.4925   5.5573   5.5854   5.6501   5.6729   5.7603   5.7784   5.8311
     5.8770   5.8823   5.9246   6.0290   6.0308   6.0922   6.1520   6.2396
     6.3385   6.4601   6.5235   6.6223   6.7592   6.8280   6.8808   6.9475
     6.9620   7.0178   7.0445   7.1455   7.1956   7.2075   7.2305   7.2800
     7.3066   7.3934   7.9852   8.0350   8.0710   8.0788   8.1695   8.2596
    10.1004  10.1646  10.3043  10.3516  10.4466  10.5421  12.4098  12.4140
    12.4584  12.5521  12.6864  12.7163  12.8932  12.9686  13.1200  13.1549
    13.1955  13.3141  13.3738  13.6039  13.7195  13.8364  13.9820  14.1300
    14.9343  14.9945  15.1351  15.1433  15.3473  15.6200  16.0244  16.0896
    16.2523  16.8962  17.0905  17.2125  17.5557  17.8050

          k = 0.0000 0.0000 0.3320 ( 61947 PWs)   bands (ev):

   -65.8513 -65.8509 -65.8506 -65.8502 -65.8448 -65.8445 -65.8439 -65.8436
   -30.3493 -30.3468 -30.3408 -30.3377 -30.3011 -30.2981 -30.2683 -30.2653
   -30.2166 -30.2121 -30.2082 -30.2039 -30.1537 -30.1507 -30.1360 -30.1344
   -30.1310 -30.1289 -30.1202 -30.1127 -30.0840 -30.0780 -30.0695 -30.0675
   -19.9917 -19.9916 -19.9903 -19.9903 -19.9830 -19.9830 -19.9817 -19.9817
   -19.9777 -19.9773 -19.9763 -19.9759 -19.9737 -19.9734 -19.9734 -19.9730
   -19.9730 -19.9727 -19.9720 -19.9719 -19.9713 -19.9712 -19.9678 -19.9676
   -19.9664 -19.9654 -19.9652 -19.9643 -19.9595 -19.9593 -19.9582 -19.9579
   -19.9575 -19.9572 -19.9552 -19.9549 -19.9536 -19.9535 -19.9527 -19.9524
   -19.9519 -19.9516 -19.9515 -19.9511 -19.9505 -19.9500 -19.9486 -19.9479
   -19.9473 -19.9468 -19.9462 -19.9456 -19.9437 -19.9433 -19.9424 -19.9421
    -9.6752  -9.4933  -9.2910  -9.2309  -9.0645  -9.0305  -8.7957  -8.7691
    -8.6848  -8.6215  -8.4599  -8.4561  -8.2181  -8.1525  -7.8827  -7.8643
    -7.7675  -7.7665  -7.6042  -7.5753  -7.5380  -7.5130  -7.4830  -7.4445
     1.4812   1.4968   1.6621   1.6664   1.6824   1.6854   1.8446   1.8773
     2.3996   2.5547   2.6493   2.6512   2.7380   2.7792   2.8975   3.0174
     3.0436   3.1423   3.8157   3.9171   4.0442   4.0718   4.1786   4.4845
     4.5952   4.6258   4.7274   4.7735   4.8757   4.9141   5.0562   5.0910
     5.2763   5.3938   5.4188   5.4867   5.5705   5.5913   5.7630   5.8357
     5.8560   5.9195   6.0374   6.0534   6.0918   6.1512   6.1833   6.3117
     6.3319   6.3750   6.5109   6.5463   6.6843   6.7659   6.8224   6.8423
     6.9172   7.0945   7.1780   7.1920   7.2124   7.2296   7.2705   7.3229
     7.3808   7.4718   7.9003   7.9035   7.9816   8.0319   8.1066   8.1827
    10.1328  10.1575  10.8345  10.9400  10.9786  11.1726  12.0982  12.1721
    12.3080  12.4696  12.5038  12.6196  12.8614  12.9560  13.0701  13.2016
    13.2712  13.3618  13.4060  13.5105  13.7239  13.7391  13.8634  13.9316
    15.0307  15.1255  15.1892  15.4530  15.7410  15.8590  15.9340  16.0020
    16.4308  17.0129  17.4180  17.5914  17.7264  17.7814

          k = 0.0000 0.0000-0.4980 ( 61950 PWs)   bands (ev):

   -65.8511 -65.8511 -65.8504 -65.8504 -65.8447 -65.8446 -65.8438 -65.8438
   -30.3480 -30.3480 -30.3209 -30.3209 -30.3177 -30.3177 -30.2669 -30.2668
   -30.2145 -30.2145 -30.2062 -30.2062 -30.1523 -30.1523 -30.1327 -30.1327
   -30.1310 -30.1310 -30.1029 -30.1029 -30.0961 -30.0961 -30.0685 -30.0685
   -19.9910 -19.9910 -19.9909 -19.9909 -19.9830 -19.9830 -19.9817 -19.9817
   -19.9770 -19.9770 -19.9767 -19.9767 -19.9735 -19.9735 -19.9732 -19.9732
   -19.9728 -19.9728 -19.9720 -19.9719 -19.9713 -19.9713 -19.9677 -19.9677
   -19.9658 -19.9658 -19.9649 -19.9649 -19.9594 -19.9594 -19.9581 -19.9580
   -19.9573 -19.9573 -19.9543 -19.9543 -19.9541 -19.9541 -19.9526 -19.9526
   -19.9517 -19.9517 -19.9514 -19.9514 -19.9503 -19.9503 -19.9483 -19.9483
   -19.9471 -19.9471 -19.9459 -19.9459 -19.9431 -19.9431 -19.9427 -19.9427
    -9.5704  -9.5704  -9.1525  -9.1525  -9.1018  -9.1018  -8.7157  -8.7157
    -8.5287  -8.5287  -8.4562  -8.4562  -8.1953  -8.1953  -8.1769  -8.1769
    -7.7845  -7.7845  -7.5903  -7.5903  -7.5261  -7.5261  -7.4638  -7.4638
     1.4872   1.4872   1.6661   1.6661   1.6853   1.6853   1.8755   1.8755
     2.6882   2.6882   3.1683   3.1683   3.2503   3.2503   3.3256   3.3256
     3.3714   3.3714   3.4473   3.4473   3.6615   3.6615   3.8139   3.8139
     4.0086   4.0086   4.6764   4.6764   4.8295   4.8295   5.2214   5.2215
     5.2546   5.2546   5.3752   5.3752   5.4947   5.4947   5.8283   5.8283
     5.9246   5.9246   6.0633   6.0633   6.0945   6.0945   6.2647   6.2648
     6.3896   6.3896   6.4324   6.4324   6.6804   6.6804   6.7295   6.7295
     7.0177   7.0177   7.1693   7.1693   7.2042   7.2042   7.6295   7.6295
     7.6754   7.6754   7.7248   7.7248   7.7992   7.7992   8.1310   8.1310
    10.1462  10.1462  11.4981  11.4981  11.6167  11.6167  11.6631  11.6631
    11.9086  11.9086  12.5360  12.5360  13.0026  13.0026  13.1435  13.1435
    13.3455  13.3455  13.4829  13.4829  13.6016  13.6016  13.7990  13.7990
    15.0923  15.0923  15.5395  15.5395  15.7861  15.7861  16.0710  16.0710
    16.6983  16.6983  17.9190  17.9190  18.1285  18.1285

          k = 0.0000 0.1653 0.0000 ( 61985 PWs)   bands (ev):

   -65.8515 -65.8508 -65.8507 -65.8500 -65.8450 -65.8443 -65.8441 -65.8434
   -30.3617 -30.3579 -30.3497 -30.3457 -30.2816 -30.2790 -30.2692 -30.2630
   -30.2130 -30.2054 -30.2041 -30.1967 -30.1559 -30.1495 -30.1477 -30.1448
   -30.1348 -30.1341 -30.1323 -30.1270 -30.0705 -30.0667 -30.0647 -30.0590
   -19.9924 -19.9923 -19.9898 -19.9897 -19.9831 -19.9829 -19.9817 -19.9816
   -19.9783 -19.9780 -19.9755 -19.9752 -19.9738 -19.9736 -19.9732 -19.9731
   -19.9728 -19.9726 -19.9720 -19.9719 -19.9713 -19.9712 -19.9679 -19.9675
   -19.9669 -19.9660 -19.9645 -19.9636 -19.9595 -19.9592 -19.9581 -19.9575
   -19.9575 -19.9568 -19.9561 -19.9558 -19.9531 -19.9530 -19.9528 -19.9525
   -19.9521 -19.9520 -19.9515 -19.9512 -19.9507 -19.9496 -19.9488 -19.9476
   -19.9475 -19.9465 -19.9465 -19.9453 -19.9443 -19.9438 -19.9418 -19.9414
    -9.7811  -9.4838  -9.4014  -9.3969  -9.0071  -8.9991  -8.9055  -8.8020
    -8.7177  -8.6363  -8.6341  -8.6203  -7.8872  -7.8179  -7.7654  -7.7648
    -7.7056  -7.6547  -7.6463  -7.6197  -7.5063  -7.4942  -7.4264  -7.4152
     1.4235   1.4810   1.4812   1.5370   1.7230   1.7393   1.7527   1.8800
     1.8911   1.9815   2.0262   2.1985   2.5812   2.6604   2.7064   2.8520
     2.8548   2.9181   4.2370   4.3073   4.3388   4.4505   4.6078   4.6741
     4.7111   4.8292   4.8435   4.9975   5.0646   5.0799   5.3268   5.4633
     5.5033   5.5857   5.6160   5.6225   5.6461   5.6975   5.7830   5.7962
     5.8342   5.8427   5.9268   6.0348   6.0676   6.1187   6.2095   6.2285
     6.3052   6.4645   6.6033   6.6388   6.6869   6.7498   6.9096   6.9374
     7.0323   7.0521   7.0948   7.1022   7.1928   7.1937   7.1987   7.2095
     7.4338   7.4796   7.9799   8.0579   8.0666   8.0942   8.1897   8.2275
    10.0498  10.1186  10.3581  10.3841  10.4040  10.4412  12.3651  12.4474
    12.4887  12.5737  12.6399  12.6776  12.8258  12.9754  13.0508  13.0712
    13.2440  13.2752  13.3014  13.5960  13.7213  13.9153  13.9238  14.1600
    14.9163  15.1101  15.1574  15.2165  15.2688  15.5229  16.0007  16.0866
    16.4509  16.7081  17.2121  17.3116  17.5329  17.8268

          k = 0.0000 0.1653 0.1660 ( 61948 PWs)   bands (ev):

   -65.8515 -65.8508 -65.8507 -65.8500 -65.8450 -65.8444 -65.8441 -65.8435
   -30.3563 -30.3525 -30.3493 -30.3460 -30.2867 -30.2838 -30.2688 -30.2637
   -30.2125 -30.2050 -30.2049 -30.1975 -30.1554 -30.1500 -30.1447 -30.1426
   -30.1351 -30.1328 -30.1318 -30.1240 -30.0703 -30.0698 -30.0671 -30.0639
   -19.9922 -19.9921 -19.9899 -19.9898 -19.9831 -19.9829 -19.9817 -19.9816
   -19.9781 -19.9778 -19.9757 -19.9754 -19.9737 -19.9735 -19.9733 -19.9731
   -19.9728 -19.9726 -19.9720 -19.9719 -19.9713 -19.9712 -19.9678 -19.9675
   -19.9667 -19.9658 -19.9646 -19.9638 -19.9595 -19.9592 -19.9581 -19.9575
   -19.9574 -19.9569 -19.9559 -19.9556 -19.9532 -19.9531 -19.9528 -19.9525
   -19.9522 -19.9520 -19.9516 -19.9513 -19.9506 -19.9497 -19.9487 -19.9476
   -19.9475 -19.9466 -19.9464 -19.9454 -19.9441 -19.9437 -19.9420 -19.9416
    -9.7378  -9.4336  -9.4109  -9.3358  -9.0131  -8.9469  -8.9154  -8.7839
    -8.6871  -8.6409  -8.5958  -8.5901  -7.9648  -7.8702  -7.8394  -7.7700
    -7.7074  -7.6647  -7.6558  -7.6250  -7.5997  -7.5230  -7.4974  -7.4315
     1.4915   1.5309   1.6353   1.6892   1.7542   1.7936   1.8871   1.8933
     2.0254   2.0284   2.0782   2.2755   2.6578   2.6989   2.7884   2.8478
     2.9127   2.9991   4.2121   4.2445   4.3654   4.3792   4.4749   4.5001
     4.5626   4.7670   4.7920   4.8301   4.8887   5.0736   5.2444   5.3277
     5.4364   5.5088   5.5573   5.6299   5.6534   5.7002   5.7408   5.7877
     5.8103   5.8465   5.9101   5.9297   6.0315   6.0755   6.1842   6.2103
     6.3925   6.4944   6.6166   6.6960   6.7632   6.8182   6.8594   6.9279
     6.9643   7.0349   7.0663   7.0951   7.1576   7.1965   7.2086   7.2412
     7.2846   7.3988   7.9702   8.0329   8.0653   8.0765   8.1480   8.2043
    10.2487  10.3361  10.3829  10.4643  10.5654  10.6574  12.3872  12.4387
    12.4639  12.5456  12.6703  12.7095  12.7722  12.9631  13.0018  13.0700
    13.1299  13.2941  13.3447  13.5989  13.7245  13.8139  13.9770  14.0688
    14.9531  15.1918  15.2270  15.2689  15.3515  15.6100  16.0492  16.2533
    16.4260  16.8525  17.0375  17.3416  17.6121  17.8578

          k = 0.0000 0.1653 0.3320 ( 61973 PWs)   bands (ev):

   -65.8513 -65.8509 -65.8506 -65.8502 -65.8448 -65.8445 -65.8439 -65.8436
   -30.3491 -30.3468 -30.3408 -30.3376 -30.3009 -30.2977 -30.2678 -30.2650
   -30.2113 -30.2070 -30.2036 -30.1994 -30.1542 -30.1512 -30.1401 -30.1389
   -30.1361 -30.1341 -30.1213 -30.1135 -30.0841 -30.0780 -30.0695 -30.0675
   -19.9917 -19.9916 -19.9903 -19.9903 -19.9830 -19.9830 -19.9817 -19.9816
   -19.9777 -19.9774 -19.9763 -19.9759 -19.9736 -19.9734 -19.9733 -19.9730
   -19.9729 -19.9727 -19.9720 -19.9719 -19.9713 -19.9712 -19.9678 -19.9676
   -19.9663 -19.9654 -19.9651 -19.9642 -19.9594 -19.9593 -19.9580 -19.9577
   -19.9573 -19.9570 -19.9552 -19.9549 -19.9536 -19.9535 -19.9527 -19.9525
   -19.9521 -19.9519 -19.9517 -19.9514 -19.9505 -19.9500 -19.9486 -19.9479
   -19.9473 -19.9468 -19.9462 -19.9456 -19.9437 -19.9433 -19.9425 -19.9421
    -9.6357  -9.4546  -9.3024  -9.1758  -9.0599  -8.9502  -8.7838  -8.7309
    -8.6556  -8.6201  -8.4548  -8.4514  -8.2190  -8.1537  -7.8891  -7.8739
    -7.7803  -7.7719  -7.6991  -7.6675  -7.6501  -7.6242  -7.4840  -7.4455
     1.5037   1.5194   1.7575   1.7632   1.8716   1.8842   1.9747   2.0213
     2.4019   2.5630   2.6530   2.7264   2.7626   2.8400   2.9097   3.0263
     3.1247   3.2250   3.8232   3.9426   4.0361   4.1059   4.1395   4.4120
     4.4892   4.5740   4.5827   4.6187   4.7394   4.8059   4.9435   5.0534
     5.1635   5.2290   5.3346   5.4579   5.4653   5.5848   5.6932   5.8095
     5.8348   5.8756   5.9336   5.9440   6.0355   6.0795   6.1591   6.2024
     6.4587   6.4998   6.5017   6.6289   6.8024   6.8213   6.8405   6.9509
     6.9802   7.0185   7.0753   7.1522   7.1873   7.2170   7.3047   7.3185
     7.3944   7.4823   7.8935   7.9041   7.9823   8.0166   8.0881   8.1399
    10.3539  10.3764  10.8658  10.9756  11.0707  11.2250  12.1036  12.2028
    12.3420  12.4854  12.5167  12.6541  12.7889  12.8545  12.9304  13.0938
    13.1753  13.3574  13.3860  13.4407  13.6344  13.7444  13.8293  13.9237
    15.0492  15.1787  15.3813  15.6332  15.7733  15.9510  15.9658  16.3385
    16.5238  17.0028  17.2978  17.5169  17.7765  17.8470

          k = 0.0000 0.1653-0.4980 ( 61922 PWs)   bands (ev):

   -65.8511 -65.8511 -65.8504 -65.8504 -65.8447 -65.8446 -65.8438 -65.8438
   -30.3479 -30.3479 -30.3208 -30.3208 -30.3175 -30.3175 -30.2664 -30.2664
   -30.2093 -30.2093 -30.2016 -30.2016 -30.1527 -30.1527 -30.1377 -30.1377
   -30.1360 -30.1360 -30.1032 -30.1032 -30.0963 -30.0963 -30.0685 -30.0685
   -19.9910 -19.9910 -19.9909 -19.9909 -19.9830 -19.9830 -19.9817 -19.9817
   -19.9770 -19.9770 -19.9767 -19.9767 -19.9735 -19.9735 -19.9732 -19.9732
   -19.9729 -19.9728 -19.9720 -19.9719 -19.9713 -19.9712 -19.9677 -19.9677
   -19.9658 -19.9658 -19.9649 -19.9649 -19.9593 -19.9593 -19.9578 -19.9578
   -19.9571 -19.9571 -19.9544 -19.9544 -19.9542 -19.9541 -19.9526 -19.9526
   -19.9519 -19.9519 -19.9516 -19.9516 -19.9503 -19.9503 -19.9483 -19.9483
   -19.9471 -19.9471 -19.9459 -19.9459 -19.9431 -19.9431 -19.9428 -19.9427
    -9.5307  -9.5307  -9.1562  -9.1562  -9.0279  -9.0279  -8.6814  -8.6814
    -8.5269  -8.5269  -8.4559  -8.4559  -8.1964  -8.1964  -8.1787  -8.1787
    -7.7962  -7.7962  -7.6839  -7.6839  -7.6389  -7.6389  -7.4647  -7.4647
     1.5103   1.5103   1.7636   1.7636   1.8847   1.8847   2.0153   2.0153
     2.7689   2.7690   3.1742   3.1742   3.2512   3.2512   3.3459   3.3460
     3.3940   3.3940   3.4617   3.4617   3.6857   3.6858   3.8591   3.8591
     4.0150   4.0150   4.5149   4.5149   4.6457   4.6457   4.9818   4.9818
     5.1945   5.1945   5.2961   5.2962   5.4571   5.4571   5.7710   5.7710
     5.8470   5.8470   5.9540   5.9540   6.0616   6.0616   6.1601   6.1601
     6.4436   6.4437   6.5762   6.5762   6.7354   6.7354   6.8870   6.8870
     7.0256   7.0256   7.0706   7.0706   7.1959   7.1959   7.6310   7.6310
     7.6687   7.6687   7.7353   7.7353   7.8007   7.8007   8.1024   8.1024
    10.3693  10.3693  11.5163  11.5163  11.6460  11.6460  11.7238  11.7238
    11.9340  11.9340  12.5690  12.5690  12.8556  12.8556  13.1185  13.1185
    13.2749  13.2749  13.3575  13.3576  13.5770  13.5771  13.8002  13.8002
    15.1341  15.1341  15.6472  15.6472  16.0432  16.0432  16.1754  16.1754
    16.7550  16.7550  17.7929  17.7929  18.0739  18.0740

          k = 0.0000 0.3306 0.0000 ( 61953 PWs)   bands (ev):

   -65.8515 -65.8508 -65.8507 -65.8499 -65.8450 -65.8443 -65.8441 -65.8434
   -30.3615 -30.3578 -30.3497 -30.3456 -30.2808 -30.2776 -30.2682 -30.2630
   -30.1984 -30.1922 -30.1905 -30.1842 -30.1616 -30.1558 -30.1533 -30.1511
   -30.1461 -30.1452 -30.1405 -30.1310 -30.0706 -30.0666 -30.0647 -30.0592
   -19.9924 -19.9923 -19.9898 -19.9897 -19.9830 -19.9829 -19.9817 -19.9816
   -19.9783 -19.9780 -19.9755 -19.9752 -19.9736 -19.9736 -19.9732 -19.9730
   -19.9727 -19.9727 -19.9719 -19.9719 -19.9712 -19.9712 -19.9679 -19.9676
   -19.9668 -19.9660 -19.9644 -19.9635 -19.9594 -19.9591 -19.9575 -19.9570
   -19.9570 -19.9564 -19.9561 -19.9559 -19.9533 -19.9533 -19.9530 -19.9530
   -19.9524 -19.9522 -19.9519 -19.9518 -19.9507 -19.9496 -19.9488 -19.9476
   -19.9475 -19.9465 -19.9465 -19.9453 -19.9443 -19.9439 -19.9418 -19.9415
    -9.6936  -9.5256  -9.3400  -9.3240  -8.9739  -8.9709  -8.7409  -8.7148
    -8.6744  -8.5337  -8.5290  -8.5225  -8.0416  -7.9772  -7.9600  -7.9287
    -7.8265  -7.8045  -7.7325  -7.7201  -7.5059  -7.4977  -7.4283  -7.4165
     1.4254   1.4808   1.4842   1.5467   1.7436   1.7807   1.8456   1.8930
     2.4437   2.5450   2.5962   2.6096   2.6814   2.7128   2.8745   3.1150
     3.1918   3.2006   3.8219   3.8488   3.9339   3.9403   4.2231   4.6119
     4.6571   4.7119   4.7629   4.8348   4.8823   4.9896   5.1725   5.1820
     5.2590   5.2692   5.5005   5.5314   5.5679   5.5985   5.6736   5.7792
     5.8543   5.8659   5.8666   6.0438   6.0675   6.1081   6.2081   6.2441
     6.4517   6.5066   6.5680   6.6191   6.6621   6.7761   6.9546   6.9890
     6.9907   7.0255   7.0752   7.1226   7.2597   7.2788   7.2836   7.2966
     7.4369   7.4815   7.9001   7.9787   8.0271   8.0603   8.0817   8.0864
    10.0919  10.1233  10.8273  10.8517  10.9318  11.0100  12.1322  12.2310
    12.2971  12.3881  12.5249  12.5986  12.7046  12.8975  13.0078  13.0379
    13.2384  13.2512  13.2845  13.5449  13.5972  13.7105  13.9309  14.0242
    15.0131  15.2268  15.3270  15.4014  15.5591  15.8506  16.0079  16.0647
    16.2477  17.3251  17.3737  17.7387  17.7850  17.8277

          k = 0.0000 0.3306 0.1660 ( 61958 PWs)   bands (ev):

   -65.8515 -65.8508 -65.8507 -65.8500 -65.8450 -65.8444 -65.8441 -65.8435
   -30.3560 -30.3523 -30.3494 -30.3458 -30.2860 -30.2827 -30.2678 -30.2634
   -30.1980 -30.1918 -30.1912 -30.1849 -30.1609 -30.1553 -30.1535 -30.1505
   -30.1465 -30.1453 -30.1360 -30.1269 -30.0704 -30.0699 -30.0670 -30.0642
   -19.9922 -19.9921 -19.9899 -19.9899 -19.9830 -19.9829 -19.9817 -19.9816
   -19.9781 -19.9778 -19.9757 -19.9754 -19.9736 -19.9735 -19.9732 -19.9731
   -19.9728 -19.9727 -19.9719 -19.9719 -19.9712 -19.9712 -19.9678 -19.9676
   -19.9667 -19.9658 -19.9646 -19.9637 -19.9594 -19.9592 -19.9575 -19.9570
   -19.9569 -19.9564 -19.9559 -19.9557 -19.9535 -19.9534 -19.9531 -19.9529
   -19.9524 -19.9522 -19.9520 -19.9518 -19.9506 -19.9497 -19.9488 -19.9476
   -19.9475 -19.9466 -19.9464 -19.9454 -19.9442 -19.9437 -19.9420 -19.9417
    -9.6473  -9.4757  -9.3368  -9.2639  -8.9906  -8.9054  -8.7178  -8.6848
    -8.6769  -8.5324  -8.5196  -8.5013  -8.0529  -7.9872  -7.9673  -7.9393
    -7.9141  -7.8334  -7.8001  -7.7254  -7.6039  -7.5251  -7.4995  -7.4334
     1.4986   1.5406   1.6347   1.7088   1.7827   1.9405   1.9747   2.0657
     2.4548   2.5476   2.5955   2.6875   2.7248   2.7644   2.9107   3.1046
     3.2423   3.2714   3.8523   3.8916   3.9168   3.9673   4.1916   4.4283
     4.4753   4.6021   4.7082   4.7811   4.8236   4.9491   4.9589   5.0176
     5.2010   5.2732   5.3164   5.3983   5.4687   5.6416   5.6669   5.7354
     5.8164   5.8510   5.8679   5.8962   5.9245   6.0648   6.0944   6.2215
     6.5130   6.5612   6.6386   6.6893   6.7862   6.8410   6.8518   6.9462
     6.9930   7.0776   7.1321   7.1856   7.2385   7.2470   7.2725   7.3115
     7.3456   7.4138   7.8970   7.9727   8.0081   8.0331   8.0564   8.0656
    10.3324  10.3696  10.9102  10.9370  10.9753  11.1036  12.1943  12.2647
    12.2892  12.4182  12.4714  12.6499  12.7335  12.8472  12.9728  13.0211
    13.0747  13.2293  13.3011  13.4957  13.5937  13.6094  13.9287  13.9801
    15.0305  15.3056  15.3676  15.5821  15.6906  15.9138  16.0391  16.2555
    16.3990  17.2886  17.4039  17.5008  17.7743  17.8905

          k = 0.0000 0.3306 0.3320 ( 61912 PWs)   bands (ev):

   -65.8513 -65.8509 -65.8505 -65.8501 -65.8448 -65.8445 -65.8440 -65.8436
   -30.3488 -30.3466 -30.3408 -30.3374 -30.3004 -30.2971 -30.2668 -30.2643
   -30.1968 -30.1929 -30.1904 -30.1865 -30.1594 -30.1559 -30.1524 -30.1499
   -30.1471 -30.1459 -30.1226 -30.1146 -30.0842 -30.0781 -30.0696 -30.0676
   -19.9917 -19.9916 -19.9903 -19.9903 -19.9830 -19.9830 -19.9817 -19.9816
   -19.9777 -19.9774 -19.9763 -19.9759 -19.9735 -19.9734 -19.9731 -19.9731
   -19.9728 -19.9728 -19.9719 -19.9719 -19.9712 -19.9712 -19.9678 -19.9676
   -19.9663 -19.9654 -19.9651 -19.9642 -19.9593 -19.9592 -19.9574 -19.9571
   -19.9567 -19.9564 -19.9554 -19.9551 -19.9539 -19.9537 -19.9530 -19.9528
   -19.9525 -19.9523 -19.9520 -19.9519 -19.9505 -19.9500 -19.9486 -19.9479
   -19.9474 -19.9468 -19.9462 -19.9456 -19.9438 -19.9434 -19.9425 -19.9422
    -9.5439  -9.3768  -9.3361  -9.0602  -9.0489  -8.7410  -8.7199  -8.6388
    -8.5992  -8.5432  -8.4334  -8.4105  -8.2301  -8.1672  -8.0131  -7.9968
    -7.9450  -7.9331  -7.8533  -7.8088  -7.7547  -7.7393  -7.4859  -7.4474
     1.5132   1.5294   1.7870   1.7884   2.3004   2.3713   2.4659   2.5209
     2.6113   2.6228   2.6971   2.8263   2.9280   2.9888   2.9958   3.0944
     3.4134   3.4542   3.7983   3.8761   3.8992   3.9553   4.0099   4.1158
     4.1562   4.3143   4.3658   4.5286   4.5942   4.6896   4.7500   4.8057
     4.9999   5.0557   5.1000   5.2366   5.2798   5.3978   5.4333   5.4756
     5.5811   5.6325   5.7383   5.8243   6.0451   6.0749   6.0958   6.2335
     6.5630   6.6174   6.6309   6.6780   6.8118   6.8545   6.9534   7.0242
     7.0950   7.1155   7.1700   7.2000   7.2535   7.2888   7.3396   7.3672
     7.4783   7.5282   7.8501   7.9021   7.9232   7.9476   7.9993   8.0119
    10.8187  10.9003  10.9565  11.0778  11.3707  11.4908  12.1071  12.2273
    12.3280  12.3737  12.4241  12.5487  12.6590  12.6991  12.8062  12.8350
    13.0763  13.1513  13.2802  13.3705  13.3886  13.6253  13.7885  13.8605
    15.0942  15.3143  15.5958  15.9287  16.0296  16.1958  16.3151  16.8068
    16.9360  16.9876  17.1993  17.6811  17.6973  17.9171

          k = 0.0000 0.3306-0.4980 ( 61928 PWs)   bands (ev):

   -65.8511 -65.8511 -65.8503 -65.8503 -65.8447 -65.8447 -65.8438 -65.8438
   -30.3477 -30.3477 -30.3205 -30.3205 -30.3171 -30.3171 -30.2656 -30.2656
   -30.1950 -30.1950 -30.1886 -30.1886 -30.1577 -30.1577 -30.1507 -30.1507
   -30.1468 -30.1467 -30.1036 -30.1036 -30.0967 -30.0967 -30.0686 -30.0686
   -19.9910 -19.9910 -19.9909 -19.9909 -19.9830 -19.9830 -19.9817 -19.9816
   -19.9770 -19.9770 -19.9767 -19.9767 -19.9733 -19.9733 -19.9731 -19.9731
   -19.9729 -19.9729 -19.9719 -19.9719 -19.9712 -19.9712 -19.9677 -19.9677
   -19.9657 -19.9657 -19.9649 -19.9649 -19.9593 -19.9593 -19.9572 -19.9572
   -19.9566 -19.9565 -19.9546 -19.9546 -19.9543 -19.9543 -19.9528 -19.9528
   -19.9524 -19.9524 -19.9520 -19.9520 -19.9503 -19.9503 -19.9483 -19.9483
   -19.9471 -19.9471 -19.9459 -19.9459 -19.9432 -19.9431 -19.9428 -19.9428
    -9.4454  -9.4454  -9.1673  -9.1673  -8.8350  -8.8350  -8.5662  -8.5662
    -8.5158  -8.5158  -8.4542  -8.4541  -8.2035  -8.2034  -8.1901  -8.1901
    -7.9737  -7.9736  -7.9083  -7.9082  -7.7585  -7.7585  -7.4667  -7.4667
     1.5204   1.5204   1.7944   1.7944   2.4553   2.4553   2.5926   2.5926
     2.9967   2.9967   3.1881   3.1881   3.2517   3.2518   3.3575   3.3575
     3.4431   3.4431   3.5021   3.5021   3.7561   3.7561   3.8852   3.8852
     4.0428   4.0428   4.1423   4.1423   4.3496   4.3496   4.5011   4.5011
     5.0436   5.0436   5.1816   5.1816   5.2575   5.2576   5.3242   5.3243
     5.4948   5.4949   5.8116   5.8116   6.0713   6.0713   6.1700   6.1700
     6.5480   6.5481   6.6851   6.6851   6.8142   6.8142   6.9219   6.9219
     7.1997   7.1997   7.2317   7.2317   7.2498   7.2498   7.6210   7.6210
     7.6599   7.6599   7.7418   7.7418   7.7855   7.7856   7.9904   7.9904
    10.9190  10.9190  11.5464  11.5464  11.7168  11.7168  11.9274  11.9274
    12.0658  12.0658  12.3935  12.3935  12.6870  12.6870  12.8662  12.8662
    13.0374  13.0374  13.1911  13.1911  13.5569  13.5569  13.7048  13.7048
    15.2162  15.2162  15.8074  15.8074  16.4200  16.4200  16.8714  16.8715
    16.9766  16.9766  17.4607  17.4607  17.9811  17.9812

          k = 0.0000-0.4959 0.0000 ( 61958 PWs)   bands (ev):

   -65.8515 -65.8507 -65.8507 -65.8499 -65.8450 -65.8443 -65.8441 -65.8434
   -30.3613 -30.3577 -30.3497 -30.3455 -30.2804 -30.2769 -30.2678 -30.2629
   -30.1797 -30.1779 -30.1755 -30.1729 -30.1720 -30.1695 -30.1668 -30.1651
   -30.1513 -30.1470 -30.1420 -30.1322 -30.0706 -30.0666 -30.0648 -30.0592
   -19.9924 -19.9923 -19.9898 -19.9897 -19.9830 -19.9829 -19.9817 -19.9816
   -19.9783 -19.9780 -19.9755 -19.9752 -19.9735 -19.9735 -19.9732 -19.9729
   -19.9728 -19.9727 -19.9719 -19.9719 -19.9712 -19.9712 -19.9679 -19.9676
   -19.9668 -19.9660 -19.9644 -19.9635 -19.9593 -19.9591 -19.9570 -19.9567
   -19.9566 -19.9563 -19.9562 -19.9557 -19.9537 -19.9537 -19.9533 -19.9532
   -19.9525 -19.9523 -19.9521 -19.9520 -19.9507 -19.9496 -19.9488 -19.9476
   -19.9475 -19.9465 -19.9465 -19.9453 -19.9443 -19.9439 -19.9418 -19.9415
    -9.6068  -9.5895  -9.3129  -9.2904  -8.9584  -8.9512  -8.7230  -8.7123
    -8.3547  -8.3489  -8.3131  -8.2978  -8.2896  -8.2859  -8.2742  -8.2623
    -7.8322  -7.8112  -7.7365  -7.7234  -7.5051  -7.5001  -7.4292  -7.4171
     1.4251   1.4797   1.4844   1.5481   1.7462   1.7846   1.8603   1.8993
     2.6315   2.6499   2.9862   2.9979   3.0188   3.0537   3.4413   3.4481
     3.4511   3.5070   3.5198   3.5521   3.6349   3.7676   3.9561   4.0026
     4.0150   4.0289   4.6757   4.7342   4.7860   4.8195   5.2669   5.3738
     5.3764   5.3858   5.4110   5.4229   5.4442   5.4654   5.6754   5.7265
     5.8741   5.8813   5.9977   6.0001   6.0246   6.0526   6.2257   6.2461
     6.4580   6.4644   6.5809   6.6066   6.6138   6.6157   6.9217   6.9758
     7.0012   7.0295   7.0307   7.0676   7.4215   7.4593   7.4958   7.5235
     7.5771   7.6160   7.7844   7.8205   7.8213   7.8745   8.0723   8.0774
    10.1038  10.1213  11.2850  11.3420  11.4520  11.4655  11.7365  11.8500
    11.8745  11.9671  12.5338  12.6105  12.8018  12.8072  13.0324  13.0510
    13.3223  13.3761  13.3796  13.3826  13.4103  13.4603  13.9161  13.9557
    15.0986  15.2042  15.4363  15.5009  15.7760  15.8351  16.0101  16.0481
    16.6915  16.6938  18.0582  18.0806  18.0924  18.0940

          k = 0.0000-0.4959 0.1660 ( 61956 PWs)   bands (ev):

   -65.8515 -65.8508 -65.8507 -65.8500 -65.8450 -65.8444 -65.8441 -65.8435
   -30.3558 -30.3522 -30.3495 -30.3458 -30.2857 -30.2822 -30.2674 -30.2632
   -30.1792 -30.1774 -30.1750 -30.1731 -30.1718 -30.1699 -30.1676 -30.1655
   -30.1510 -30.1473 -30.1369 -30.1278 -30.0705 -30.0699 -30.0669 -30.0643
   -19.9922 -19.9921 -19.9899 -19.9899 -19.9830 -19.9829 -19.9817 -19.9816
   -19.9782 -19.9778 -19.9757 -19.9754 -19.9735 -19.9735 -19.9732 -19.9729
   -19.9728 -19.9727 -19.9719 -19.9719 -19.9712 -19.9712 -19.9678 -19.9676
   -19.9666 -19.9658 -19.9646 -19.9637 -19.9593 -19.9591 -19.9570 -19.9567
   -19.9564 -19.9562 -19.9562 -19.9556 -19.9538 -19.9536 -19.9534 -19.9532
   -19.9526 -19.9523 -19.9521 -19.9521 -19.9506 -19.9497 -19.9488 -19.9477
   -19.9475 -19.9466 -19.9464 -19.9454 -19.9442 -19.9438 -19.9420 -19.9417
    -9.5571  -9.5415  -9.3022  -9.2322  -8.9771  -8.8800  -8.7021  -8.6668
    -8.3625  -8.3561  -8.3181  -8.2974  -8.2896  -8.2832  -8.2764  -8.2522
    -7.9340  -7.8472  -7.8070  -7.7287  -7.6046  -7.5256  -7.5006  -7.4343
     1.4991   1.5419   1.6336   1.7105   1.7865   1.9598   1.9810   2.0769
     2.7116   2.7345   2.9908   2.9962   3.0727   3.0837   3.4117   3.4213
     3.4493   3.5262   3.5281   3.6218   3.6322   3.8383   3.9498   4.0170
     4.0462   4.0512   4.4509   4.4566   4.7568   4.7822   5.0119   5.1451
     5.1878   5.2003   5.3379   5.3833   5.4221   5.5013   5.6918   5.7124
     5.7233   5.8194   5.8637   5.8736   5.9268   6.0485   6.0759   6.2500
     6.5068   6.5555   6.5726   6.6525   6.7876   6.7977   6.8465   6.9194
     6.9872   7.0822   7.1490   7.1942   7.2546   7.3514   7.5059   7.5191
     7.5803   7.5992   7.7942   7.8088   7.8217   7.8683   8.0466   8.0480
    10.3408  10.3780  11.3771  11.4525  11.4678  11.4704  11.8102  11.8820
    11.9414  11.9679  12.4640  12.6618  12.8544  12.8679  12.8991  13.0514
    13.2200  13.2731  13.2921  13.3362  13.3951  13.3957  13.9106  13.9320
    15.0830  15.3044  15.4596  15.7409  15.8810  15.9797  16.0638  16.2564
    16.7464  16.7737  17.8310  17.9525  18.0814  18.1343

          k = 0.0000-0.4959 0.3320 ( 61880 PWs)   bands (ev):

   -65.8513 -65.8509 -65.8505 -65.8501 -65.8448 -65.8445 -65.8440 -65.8436
   -30.3487 -30.3466 -30.3408 -30.3373 -30.3002 -30.2968 -30.2664 -30.2640
   -30.1778 -30.1764 -30.1743 -30.1734 -30.1732 -30.1695 -30.1691 -30.1664
   -30.1502 -30.1481 -30.1230 -30.1150 -30.0843 -30.0782 -30.0696 -30.0676
   -19.9917 -19.9916 -19.9903 -19.9903 -19.9830 -19.9829 -19.9817 -19.9816
   -19.9777 -19.9774 -19.9763 -19.9760 -19.9733 -19.9733 -19.9732 -19.9729
   -19.9729 -19.9728 -19.9719 -19.9719 -19.9712 -19.9712 -19.9678 -19.9677
   -19.9663 -19.9654 -19.9651 -19.9642 -19.9593 -19.9592 -19.9569 -19.9567
   -19.9561 -19.9561 -19.9557 -19.9552 -19.9542 -19.9539 -19.9533 -19.9529
   -19.9527 -19.9523 -19.9522 -19.9521 -19.9505 -19.9500 -19.9486 -19.9479
   -19.9474 -19.9468 -19.9462 -19.9456 -19.9438 -19.9434 -19.9425 -19.9422
    -9.4801  -9.3722  -9.3370  -9.0421  -9.0060  -8.6904  -8.6284  -8.5347
    -8.4321  -8.3853  -8.3389  -8.3058  -8.2864  -8.2698  -8.2696  -8.2137
    -8.1599  -8.0882  -7.8651  -7.8279  -7.7569  -7.7431  -7.4869  -7.4484
     1.5142   1.5307   1.7899   1.7922   2.3458   2.4928   2.5906   2.6791
     2.9384   2.9614   3.0054   3.0126   3.1668   3.2096   3.3336   3.4123
     3.4433   3.4906   3.5578   3.6001   3.7849   3.9001   3.9130   4.0061
     4.0091   4.0906   4.1119   4.1239   4.4281   4.4903   4.5940   4.7242
     4.8265   4.9464   5.0454   5.0796   5.2205   5.3268   5.3587   5.4327
     5.4557   5.6014   5.6735   5.7519   6.0633   6.0933   6.0952   6.2624
     6.5710   6.6154   6.6162   6.6540   6.7602   6.8521   6.8856   7.1025
     7.1042   7.1805   7.2206   7.2450   7.4353   7.4426   7.4912   7.5293
     7.5571   7.6186   7.7791   7.7956   7.8078   7.8367   7.9289   7.9647
    10.8777  11.0013  11.4435  11.4739  11.7115  11.7543  11.8617  11.9942
    12.0735  12.1530  12.1913  12.4534  12.7678  12.7817  12.8081  12.8420
    13.0197  13.0764  13.0935  13.1316  13.4246  13.4696  13.7900  13.8042
    15.1248  15.3827  15.6066  15.9488  16.2206  16.5409  16.5872  16.9209
    16.9615  17.0320  17.4285  17.4703  18.0378  18.0581

          k = 0.0000-0.4959-0.4980 ( 61892 PWs)   bands (ev):

   -65.8511 -65.8511 -65.8503 -65.8503 -65.8447 -65.8447 -65.8438 -65.8438
   -30.3476 -30.3476 -30.3204 -30.3204 -30.3170 -30.3170 -30.2652 -30.2652
   -30.1757 -30.1757 -30.1752 -30.1752 -30.1717 -30.1717 -30.1677 -30.1677
   -30.1491 -30.1491 -30.1037 -30.1037 -30.0968 -30.0968 -30.0686 -30.0686
   -19.9910 -19.9910 -19.9909 -19.9909 -19.9830 -19.9830 -19.9816 -19.9816
   -19.9770 -19.9770 -19.9767 -19.9767 -19.9732 -19.9732 -19.9731 -19.9731
   -19.9729 -19.9729 -19.9719 -19.9719 -19.9712 -19.9712 -19.9677 -19.9677
   -19.9657 -19.9657 -19.9649 -19.9649 -19.9592 -19.9592 -19.9568 -19.9568
   -19.9561 -19.9561 -19.9549 -19.9549 -19.9545 -19.9545 -19.9530 -19.9530
   -19.9526 -19.9526 -19.9522 -19.9522 -19.9503 -19.9503 -19.9483 -19.9483
   -19.9471 -19.9471 -19.9459 -19.9459 -19.9432 -19.9432 -19.9428 -19.9428
    -9.3990  -9.3989  -9.1760  -9.1760  -8.6915  -8.6915  -8.4821  -8.4821
    -8.4720  -8.4720  -8.3870  -8.3870  -8.2692  -8.2691  -8.2360  -8.2360
    -8.1362  -8.1361  -8.0771  -8.0771  -7.7620  -7.7620  -7.4676  -7.4676
     1.5216   1.5216   1.7983   1.7983   2.9256   2.9256   3.1635   3.1635
     3.1889   3.1889   3.2244   3.2244   3.2410   3.2410   3.3644   3.3644
     3.4487   3.4487   3.5320   3.5320   3.5776   3.5776   3.6908   3.6908
     3.9523   3.9523   3.9952   3.9952   4.4201   4.4201   4.4947   4.4947
     4.5462   4.5462   4.6280   4.6280   5.2290   5.2290   5.3360   5.3360
     5.4943   5.4943   5.7143   5.7143   6.0930   6.0930   6.1843   6.1843
     6.5654   6.5654   6.6549   6.6549   6.8074   6.8074   6.8845   6.8845
     7.3294   7.3294   7.3679   7.3679   7.4745   7.4745   7.5894   7.5894
     7.6712   7.6712   7.7220   7.7220   7.7419   7.7419   7.8775   7.8775
    11.3792  11.3792  11.6037  11.6037  11.7211  11.7211  11.9340  11.9340
    12.2043  12.2043  12.2896  12.2896  12.5173  12.5174  12.6065  12.6065
    12.9827  12.9827  13.0963  13.0963  13.5483  13.5483  13.6239  13.6239
    15.2571  15.2571  15.8270  15.8270  16.8042  16.8042  17.0095  17.0095
    17.4579  17.4579  17.5927  17.5927  17.7331  17.7331

          k = 0.1667 0.0000 0.0000 ( 61995 PWs)   bands (ev):

   -65.8515 -65.8508 -65.8507 -65.8500 -65.8449 -65.8442 -65.8442 -65.8435
   -30.3615 -30.3582 -30.3442 -30.3402 -30.2817 -30.2805 -30.2747 -30.2677
   -30.2180 -30.2109 -30.2087 -30.2020 -30.1508 -30.1463 -30.1437 -30.1428
   -30.1292 -30.1288 -30.1275 -30.1248 -30.0759 -30.0720 -30.0643 -30.0594
   -19.9924 -19.9923 -19.9898 -19.9897 -19.9830 -19.9828 -19.9818 -19.9817
   -19.9783 -19.9780 -19.9755 -19.9752 -19.9738 -19.9736 -19.9732 -19.9729
   -19.9728 -19.9724 -19.9718 -19.9718 -19.9713 -19.9713 -19.9682 -19.9679
   -19.9668 -19.9660 -19.9644 -19.9636 -19.9594 -19.9591 -19.9584 -19.9578
   -19.9574 -19.9568 -19.9560 -19.9558 -19.9533 -19.9531 -19.9528 -19.9522
   -19.9522 -19.9518 -19.9513 -19.9510 -19.9505 -19.9495 -19.9489 -19.9477
   -19.9475 -19.9466 -19.9465 -19.9454 -19.9442 -19.9438 -19.9417 -19.9414
    -9.7762  -9.4492  -9.4216  -9.3768  -9.0350  -8.9989  -8.9478  -8.8175
    -8.6881  -8.6679  -8.6176  -8.5982  -7.9451  -7.8559  -7.8440  -7.7600
    -7.6144  -7.6097  -7.5605  -7.5503  -7.5339  -7.5044  -7.4914  -7.4197
     1.4305   1.4674   1.6179   1.6348   1.6580   1.6688   1.6727   1.8260
     1.8391   2.0232   2.0690   2.2331   2.6100   2.6658   2.7848   2.8099
     2.8187   2.8643   4.2473   4.3826   4.4130   4.4910   4.5047   4.6509
     4.7521   4.8062   4.8372   4.8804   4.8964   5.1760   5.3780   5.4310
     5.4532   5.5567   5.5656   5.6698   5.6820   5.7819   5.7949   5.8603
     5.8773   5.9124   5.9470   5.9966   6.0008   6.0863   6.1686   6.2342
     6.3360   6.4648   6.5254   6.6222   6.7765   6.7801   6.8354   6.9891
     7.0213   7.0426   7.0640   7.1229   7.1346   7.1769   7.1994   7.2633
     7.3455   7.3783   7.9807   8.0208   8.0544   8.0710   8.2291   8.2854
    10.1287  10.1938  10.2706  10.3228  10.4567  10.5436  12.3261  12.3867
    12.5191  12.5670  12.6784  12.7878  12.8860  13.0145  13.0948  13.1535
    13.1682  13.3160  13.4462  13.5586  13.6933  13.8802  13.9650  14.1774
    14.9301  14.9873  15.0106  15.2057  15.3188  15.6081  15.9386  16.0763
    16.3414  16.8172  17.0898  17.3138  17.5543  17.7838

          k = 0.1667 0.0000 0.1660 ( 61941 PWs)   bands (ev):

   -65.8514 -65.8508 -65.8507 -65.8501 -65.8449 -65.8443 -65.8441 -65.8435
   -30.3561 -30.3528 -30.3439 -30.3405 -30.2868 -30.2849 -30.2743 -30.2687
   -30.2175 -30.2105 -30.2096 -30.2028 -30.1501 -30.1451 -30.1418 -30.1397
   -30.1292 -30.1280 -30.1277 -30.1226 -30.0756 -30.0724 -30.0695 -30.0645
   -19.9922 -19.9921 -19.9899 -19.9899 -19.9830 -19.9828 -19.9818 -19.9817
   -19.9781 -19.9779 -19.9757 -19.9754 -19.9737 -19.9735 -19.9732 -19.9729
   -19.9728 -19.9725 -19.9718 -19.9718 -19.9713 -19.9713 -19.9682 -19.9679
   -19.9667 -19.9659 -19.9646 -19.9638 -19.9594 -19.9591 -19.9584 -19.9578
   -19.9573 -19.9568 -19.9558 -19.9556 -19.9534 -19.9530 -19.9530 -19.9523
   -19.9521 -19.9518 -19.9513 -19.9510 -19.9505 -19.9496 -19.9488 -19.9478
   -19.9475 -19.9465 -19.9465 -19.9455 -19.9441 -19.9437 -19.9419 -19.9416
    -9.7319  -9.3921  -9.3888  -9.3690  -9.0092  -8.9747  -8.9593  -8.8024
    -8.6510  -8.6250  -8.6229  -8.5750  -7.9681  -7.9200  -7.8727  -7.8616
    -7.6196  -7.6078  -7.5978  -7.5644  -7.5515  -7.5391  -7.5232  -7.5081
     1.5816   1.6091   1.6205   1.6674   1.7152   1.7699   1.7835   1.8387
     2.0291   2.0674   2.1315   2.2900   2.6597   2.7418   2.8264   2.8666
     2.8888   2.9068   4.2192   4.2921   4.3646   4.4123   4.4966   4.5214
     4.5786   4.7019   4.7190   4.8313   4.9179   5.0113   5.2381   5.3027
     5.4276   5.5093   5.5396   5.5792   5.5964   5.7383   5.7761   5.8113
     5.8537   5.8924   5.9065   5.9809   6.0161   6.0360   6.1096   6.3262
     6.3356   6.5349   6.5885   6.6394   6.7917   6.8189   6.9073   6.9531
     6.9805   7.0094   7.0154   7.0516   7.0995   7.1575   7.2024   7.2593
     7.3134   7.3377   7.9698   8.0067   8.0407   8.0643   8.1869   8.2539
    10.3001  10.3090  10.4188  10.4374  10.6287  10.6911  12.3453  12.4138
    12.4670  12.5651  12.6310  12.7226  12.9181  13.0007  13.0509  13.1561
    13.1873  13.2321  13.5101  13.5675  13.7109  13.8210  13.9726  14.0698
    14.9890  15.0505  15.1318  15.2156  15.3792  15.7055  16.0214  16.2098
    16.2930  16.9707  17.0403  17.2409  17.6328  17.8176

          k = 0.1667 0.0000 0.3320 ( 61931 PWs)   bands (ev):

   -65.8513 -65.8509 -65.8506 -65.8502 -65.8448 -65.8444 -65.8440 -65.8436
   -30.3443 -30.3413 -30.3400 -30.3379 -30.3009 -30.2984 -30.2733 -30.2704
   -30.2162 -30.2118 -30.2091 -30.2048 -30.1489 -30.1460 -30.1353 -30.1344
   -30.1302 -30.1292 -30.1197 -30.1134 -30.0836 -30.0786 -30.0749 -30.0727
   -19.9916 -19.9916 -19.9903 -19.9903 -19.9829 -19.9829 -19.9818 -19.9817
   -19.9777 -19.9774 -19.9762 -19.9760 -19.9736 -19.9734 -19.9733 -19.9730
   -19.9728 -19.9726 -19.9718 -19.9718 -19.9713 -19.9713 -19.9681 -19.9680
   -19.9663 -19.9655 -19.9651 -19.9643 -19.9593 -19.9592 -19.9583 -19.9580
   -19.9572 -19.9569 -19.9551 -19.9549 -19.9537 -19.9535 -19.9530 -19.9526
   -19.9519 -19.9516 -19.9514 -19.9512 -19.9504 -19.9499 -19.9487 -19.9481
   -19.9473 -19.9467 -19.9463 -19.9457 -19.9436 -19.9433 -19.9424 -19.9421
    -9.6264  -9.4368  -9.2476  -9.2330  -9.0438  -8.9997  -8.8052  -8.7538
    -8.6445  -8.5802  -8.4702  -8.4467  -8.2156  -8.1556  -7.9477  -7.8822
    -7.8685  -7.7875  -7.6077  -7.5947  -7.5710  -7.5501  -7.5419  -7.5179
     1.6056   1.6150   1.6600   1.6655   1.8303   1.8401   2.0211   2.0723
     2.4015   2.5583   2.6564   2.7252   2.7541   2.8345   2.9847   3.0445
     3.1293   3.1425   3.8401   3.9367   4.0503   4.1039   4.1353   4.3986
     4.5054   4.5337   4.5801   4.6817   4.8392   4.8910   4.8969   5.0040
     5.1732   5.2183   5.2764   5.3648   5.4128   5.5780   5.6076   5.7977
     5.8324   5.8674   5.9050   5.9320   6.0644   6.0929   6.1583   6.3411
     6.4187   6.4933   6.5791   6.6563   6.6718   6.7678   6.8614   6.9451
     6.9780   7.0385   7.0899   7.1215   7.1504   7.2252   7.3206   7.3469
     7.3950   7.4716   7.8881   7.8972   7.9708   8.0295   8.0940   8.1667
    10.3574  10.3655  10.9072  10.9725  11.0964  11.2550  12.1558  12.1949
    12.3216  12.4112  12.4634  12.6181  12.8100  12.9906  13.1029  13.1528
    13.2492  13.2829  13.4433  13.5133  13.6794  13.7257  13.8371  13.8643
    15.1085  15.1872  15.3023  15.4579  15.8114  15.9276  16.0277  16.1100
    16.6063  16.9331  17.4602  17.4788  17.6709  17.8523

          k = 0.1667 0.0000-0.4980 ( 61914 PWs)   bands (ev):

   -65.8511 -65.8511 -65.8504 -65.8504 -65.8446 -65.8446 -65.8438 -65.8438
   -30.3424 -30.3424 -30.3206 -30.3206 -30.3179 -30.3179 -30.2719 -30.2719
   -30.2142 -30.2142 -30.2071 -30.2071 -30.1475 -30.1474 -30.1319 -30.1319
   -30.1313 -30.1313 -30.1025 -30.1025 -30.0967 -30.0967 -30.0739 -30.0739
   -19.9910 -19.9910 -19.9909 -19.9909 -19.9829 -19.9829 -19.9818 -19.9817
   -19.9770 -19.9770 -19.9767 -19.9767 -19.9735 -19.9735 -19.9732 -19.9732
   -19.9727 -19.9727 -19.9718 -19.9718 -19.9713 -19.9713 -19.9681 -19.9680
   -19.9657 -19.9657 -19.9649 -19.9649 -19.9593 -19.9593 -19.9581 -19.9581
   -19.9570 -19.9570 -19.9543 -19.9543 -19.9542 -19.9542 -19.9528 -19.9528
   -19.9517 -19.9517 -19.9514 -19.9514 -19.9502 -19.9502 -19.9484 -19.9484
   -19.9470 -19.9470 -19.9460 -19.9460 -19.9431 -19.9430 -19.9428 -19.9427
    -9.5165  -9.5165  -9.1173  -9.1173  -9.0876  -9.0876  -8.6867  -8.6867
    -8.5347  -8.5347  -8.4383  -8.4382  -8.2089  -8.2089  -8.1752  -8.1752
    -7.8771  -7.8771  -7.5969  -7.5969  -7.5651  -7.5651  -7.5310  -7.5310
     1.6092   1.6092   1.6645   1.6645   1.8388   1.8388   2.0701   2.0701
     2.7648   2.7648   3.1958   3.1958   3.2515   3.2515   3.3218   3.3218
     3.4067   3.4067   3.4789   3.4789   3.6986   3.6986   3.8039   3.8040
     4.0366   4.0366   4.4673   4.4673   4.7932   4.7932   5.0547   5.0547
     5.1078   5.1078   5.2379   5.2379   5.3962   5.3962   5.6656   5.6656
     5.8529   5.8529   5.8977   5.8977   6.0953   6.0953   6.2833   6.2833
     6.4532   6.4532   6.5604   6.5604   6.6695   6.6695   6.8825   6.8825
     7.0490   7.0490   7.1114   7.1114   7.1559   7.1559   7.6351   7.6351
     7.6823   7.6823   7.7349   7.7349   7.7989   7.7989   8.1077   8.1077
    10.3680  10.3680  11.5543  11.5543  11.6481  11.6481  11.7140  11.7140
    11.9649  11.9649  12.4601  12.4601  13.0383  13.0383  13.1037  13.1037
    13.3292  13.3292  13.4788  13.4788  13.5137  13.5137  13.7751  13.7751
    15.1670  15.1670  15.6683  15.6683  15.7838  15.7838  16.2551  16.2551
    16.7531  16.7531  17.7708  17.7708  18.1017  18.1017

          k = 0.1667 0.1653 0.0000 ( 61927 PWs)   bands (ev):

   -65.8515 -65.8508 -65.8507 -65.8500 -65.8449 -65.8442 -65.8442 -65.8435
   -30.3614 -30.3582 -30.3442 -30.3401 -30.2813 -30.2796 -30.2742 -30.2679
   -30.2126 -30.2062 -30.2038 -30.1975 -30.1522 -30.1469 -30.1454 -30.1439
   -30.1337 -30.1332 -30.1327 -30.1277 -30.0760 -30.0720 -30.0643 -30.0595
   -19.9924 -19.9923 -19.9898 -19.9897 -19.9829 -19.9828 -19.9818 -19.9817
   -19.9783 -19.9780 -19.9755 -19.9752 -19.9737 -19.9736 -19.9731 -19.9729
   -19.9728 -19.9725 -19.9718 -19.9718 -19.9713 -19.9713 -19.9682 -19.9679
   -19.9668 -19.9660 -19.9644 -19.9636 -19.9593 -19.9590 -19.9582 -19.9576
   -19.9573 -19.9566 -19.9560 -19.9558 -19.9533 -19.9531 -19.9528 -19.9525
   -19.9523 -19.9520 -19.9515 -19.9513 -19.9505 -19.9495 -19.9489 -19.9477
   -19.9475 -19.9466 -19.9465 -19.9454 -19.9442 -19.9438 -19.9417 -19.9415
    -9.7392  -9.4348  -9.4156  -9.3342  -9.0218  -8.9374  -8.9168  -8.7823
    -8.6870  -8.6399  -8.5972  -8.5880  -7.9501  -7.8601  -7.8497  -7.7704
    -7.7102  -7.6734  -7.6546  -7.6268  -7.6011  -7.5318  -7.4923  -7.4207
     1.4375   1.4758   1.6602   1.7177   1.7347   1.7829   1.8923   1.9181
     1.9845   2.0484   2.1176   2.2914   2.6572   2.7123   2.7870   2.8935
     2.9123   2.9467   4.1685   4.2922   4.3332   4.3730   4.4834   4.5361
     4.5594   4.7005   4.7668   4.8350   4.9457   5.0848   5.2791   5.3360
     5.4125   5.5072   5.5545   5.6240   5.6636   5.6974   5.7167   5.7961
     5.8270   5.8480   5.8871   5.9717   6.0603   6.0681   6.1738   6.2266
     6.3672   6.5085   6.5923   6.6857   6.7736   6.7918   6.8341   6.9519
     6.9715   7.0110   7.0675   7.0974   7.1483   7.1935   7.2250   7.2366
     7.3312   7.3844   7.9660   8.0218   8.0497   8.0742   8.1944   8.2266
    10.2393  10.3264  10.3718  10.4494  10.5871  10.6712  12.3192  12.4083
    12.5225  12.5645  12.6512  12.7009  12.8301  12.9991  13.0032  13.0640
    13.1271  13.2618  13.4061  13.5685  13.6970  13.8968  13.9184  14.1145
    14.9672  15.1068  15.1862  15.2958  15.3450  15.6006  15.9628  16.3308
    16.4231  16.8478  16.9694  17.4347  17.6104  17.8475

          k = 0.1667 0.1653 0.1660 ( 61974 PWs)   bands (ev):

   -65.8514 -65.8508 -65.8507 -65.8501 -65.8449 -65.8443 -65.8441 -65.8435
   -30.3560 -30.3527 -30.3439 -30.3404 -30.2864 -30.2842 -30.2739 -30.2687
   -30.2122 -30.2057 -30.2047 -30.1983 -30.1514 -30.1461 -30.1434 -30.1420
   -30.1340 -30.1331 -30.1310 -30.1248 -30.0757 -30.0724 -30.0695 -30.0645
   -19.9922 -19.9921 -19.9899 -19.9899 -19.9829 -19.9828 -19.9818 -19.9817
   -19.9781 -19.9779 -19.9757 -19.9754 -19.9737 -19.9735 -19.9732 -19.9729
   -19.9728 -19.9725 -19.9718 -19.9718 -19.9713 -19.9713 -19.9682 -19.9679
   -19.9667 -19.9659 -19.9646 -19.9638 -19.9593 -19.9591 -19.9582 -19.9576
   -19.9572 -19.9566 -19.9558 -19.9556 -19.9534 -19.9532 -19.9530 -19.9525
   -19.9523 -19.9520 -19.9516 -19.9513 -19.9505 -19.9496 -19.9489 -19.9478
   -19.9475 -19.9465 -19.9465 -19.9455 -19.9441 -19.9437 -19.9419 -19.9417
    -9.6932  -9.3830  -9.3511  -9.3479  -8.9612  -8.9501  -8.9271  -8.7668
    -8.6502  -8.6033  -8.6008  -8.5668  -7.9736  -7.9211  -7.8766  -7.8656
    -7.7160  -7.6790  -7.6672  -7.6311  -7.6008  -7.5912  -7.5362  -7.5266
     1.6541   1.6864   1.7129   1.7394   1.8533   1.8895   1.8968   1.9218
     2.0742   2.1158   2.1348   2.3417   2.7298   2.7680   2.8714   2.9244
     2.9590   2.9925   4.1653   4.2210   4.3337   4.3572   4.4416   4.5157
     4.5406   4.5686   4.5906   4.7706   4.7987   4.8823   5.1905   5.2380
     5.2755   5.4773   5.5083   5.5443   5.5566   5.5921   5.6611   5.7518
     5.8165   5.8487   5.9227   5.9376   5.9610   6.0554   6.0982   6.2138
     6.4616   6.5524   6.6531   6.7347   6.7825   6.7992   6.8870   6.9139
     6.9401   7.0015   7.0622   7.0786   7.1392   7.1554   7.2306   7.2566
     7.3193   7.3390   7.9573   8.0057   8.0386   8.0601   8.1555   8.1996
    10.4195  10.4496  10.5653  10.5793  10.6780  10.7699  12.3464  12.4331
    12.4814  12.5521  12.6325  12.7227  12.7837  12.9820  13.0216  13.0423
    13.1090  13.1454  13.4631  13.5627  13.7016  13.7991  13.9478  14.0082
    15.0478  15.2430  15.2671  15.3342  15.3837  15.7049  16.1988  16.2852
    16.4081  16.9670  17.0967  17.1629  17.6829  17.8739

          k = 0.1667 0.1653 0.3320 ( 61957 PWs)   bands (ev):

   -65.8513 -65.8509 -65.8506 -65.8502 -65.8448 -65.8444 -65.8440 -65.8437
   -30.3440 -30.3412 -30.3401 -30.3378 -30.3006 -30.2980 -30.2729 -30.2701
   -30.2109 -30.2067 -30.2044 -30.2002 -30.1500 -30.1469 -30.1394 -30.1382
   -30.1349 -30.1343 -30.1208 -30.1142 -30.0837 -30.0786 -30.0749 -30.0728
   -19.9917 -19.9916 -19.9903 -19.9903 -19.9829 -19.9828 -19.9818 -19.9817
   -19.9777 -19.9774 -19.9762 -19.9760 -19.9736 -19.9734 -19.9732 -19.9730
   -19.9728 -19.9726 -19.9718 -19.9718 -19.9713 -19.9713 -19.9681 -19.9680
   -19.9663 -19.9655 -19.9651 -19.9643 -19.9593 -19.9591 -19.9581 -19.9577
   -19.9570 -19.9567 -19.9552 -19.9550 -19.9537 -19.9535 -19.9530 -19.9527
   -19.9522 -19.9519 -19.9517 -19.9514 -19.9504 -19.9499 -19.9487 -19.9481
   -19.9473 -19.9467 -19.9463 -19.9457 -19.9437 -19.9433 -19.9424 -19.9422
    -9.5842  -9.3934  -9.2464  -9.1913  -8.9959  -8.9630  -8.7944  -8.7174
    -8.6202  -8.5788  -8.4620  -8.4444  -8.2168  -8.1568  -7.9535  -7.8870
    -7.8713  -7.7915  -7.7080  -7.6813  -7.6570  -7.6314  -7.5849  -7.5485
     1.7090   1.7247   1.8721   1.8896   1.9184   1.9274   2.0467   2.1164
     2.4043   2.5647   2.6560   2.7530   2.8144   2.9121   3.0060   3.1116
     3.1484   3.2209   3.8492   3.9621   4.0671   4.0954   4.1224   4.3764
     4.4747   4.4947   4.5460   4.5865   4.6515   4.7357   4.8557   4.8820
     5.0471   5.1319   5.1966   5.2197   5.3660   5.3964   5.5579   5.6665
     5.7791   5.8107   5.8746   5.9012   5.9419   6.0229   6.0942   6.1670
     6.5023   6.5759   6.6911   6.7217   6.7789   6.8407   6.9154   6.9433
     6.9865   7.0037   7.0622   7.1592   7.2016   7.2339   7.3297   7.3478
     7.4131   7.4873   7.8851   7.8948   7.9720   8.0107   8.0750   8.1249
    10.5407  10.5495  10.9697  11.0702  11.1162  11.2891  12.1642  12.2272
    12.3531  12.4375  12.4963  12.6358  12.7857  12.8499  12.9604  13.0934
    13.1486  13.1950  13.4159  13.4724  13.6263  13.6474  13.8127  13.8404
    15.2063  15.3048  15.4423  15.6771  15.8321  16.0470  16.1310  16.3189
    16.6671  16.9394  17.3560  17.5080  17.5828  17.8929

          k = 0.1667 0.1653-0.4980 ( 61904 PWs)   bands (ev):

   -65.8511 -65.8511 -65.8504 -65.8504 -65.8446 -65.8446 -65.8438 -65.8438
   -30.3423 -30.3423 -30.3205 -30.3205 -30.3177 -30.3177 -30.2715 -30.2715
   -30.2090 -30.2090 -30.2024 -30.2024 -30.1484 -30.1484 -30.1369 -30.1369
   -30.1357 -30.1357 -30.1028 -30.1028 -30.0969 -30.0969 -30.0739 -30.0739
   -19.9910 -19.9910 -19.9909 -19.9909 -19.9829 -19.9829 -19.9818 -19.9817
   -19.9770 -19.9770 -19.9767 -19.9767 -19.9734 -19.9734 -19.9732 -19.9732
   -19.9727 -19.9727 -19.9718 -19.9718 -19.9713 -19.9713 -19.9681 -19.9681
   -19.9657 -19.9657 -19.9649 -19.9649 -19.9592 -19.9592 -19.9579 -19.9579
   -19.9569 -19.9569 -19.9544 -19.9544 -19.9542 -19.9542 -19.9529 -19.9528
   -19.9519 -19.9519 -19.9516 -19.9516 -19.9502 -19.9502 -19.9484 -19.9484
   -19.9470 -19.9470 -19.9460 -19.9460 -19.9431 -19.9431 -19.9428 -19.9428
    -9.4727  -9.4727  -9.0934  -9.0934  -9.0426  -9.0426  -8.6554  -8.6554
    -8.5333  -8.5333  -8.4381  -8.4381  -8.2100  -8.2100  -8.1768  -8.1768
    -7.8794  -7.8794  -7.6962  -7.6962  -7.6460  -7.6460  -7.5667  -7.5667
     1.7158   1.7158   1.8872   1.8872   1.9258   1.9258   2.1110   2.1110
     2.8449   2.8449   3.2031   3.2031   3.2583   3.2583   3.3370   3.3370
     3.4210   3.4210   3.5070   3.5070   3.7186   3.7186   3.8489   3.8489
     4.0409   4.0409   4.4505   4.4505   4.5865   4.5865   4.9267   4.9267
     5.0120   5.0120   5.1296   5.1296   5.2124   5.2124   5.6323   5.6323
     5.7552   5.7553   5.8345   5.8345   5.9705   5.9705   6.1208   6.1208
     6.5699   6.5699   6.6893   6.6893   6.8229   6.8229   6.9111   6.9111
     6.9830   6.9830   7.1093   7.1093   7.2240   7.2240   7.6346   7.6346
     7.6777   7.6777   7.7406   7.7406   7.8000   7.8000   8.0813   8.0813
    10.5556  10.5556  11.5855  11.5855  11.7005  11.7005  11.7448  11.7448
    11.9842  11.9842  12.5011  12.5011  12.8905  12.8905  13.0853  13.0853
    13.2589  13.2589  13.3528  13.3528  13.4667  13.4668  13.7605  13.7606
    15.2780  15.2780  15.7643  15.7643  16.0864  16.0864  16.2925  16.2925
    16.8008  16.8008  17.7287  17.7287  17.9817  17.9817

          k = 0.1667 0.3306 0.0000 ( 61924 PWs)   bands (ev):

   -65.8515 -65.8508 -65.8507 -65.8500 -65.8450 -65.8443 -65.8442 -65.8435
   -30.3612 -30.3580 -30.3442 -30.3400 -30.2805 -30.2780 -30.2734 -30.2682
   -30.1981 -30.1927 -30.1903 -30.1848 -30.1605 -30.1558 -30.1528 -30.1481
   -30.1446 -30.1409 -30.1395 -30.1318 -30.0760 -30.0720 -30.0644 -30.0596
   -19.9924 -19.9923 -19.9898 -19.9897 -19.9829 -19.9828 -19.9818 -19.9816
   -19.9783 -19.9780 -19.9755 -19.9752 -19.9736 -19.9735 -19.9730 -19.9729
   -19.9727 -19.9725 -19.9718 -19.9717 -19.9713 -19.9713 -19.9682 -19.9679
   -19.9668 -19.9660 -19.9643 -19.9636 -19.9592 -19.9589 -19.9576 -19.9571
   -19.9569 -19.9562 -19.9560 -19.9558 -19.9535 -19.9534 -19.9531 -19.9530
   -19.9526 -19.9523 -19.9520 -19.9518 -19.9506 -19.9495 -19.9489 -19.9477
   -19.9476 -19.9466 -19.9465 -19.9454 -19.9443 -19.9439 -19.9418 -19.9415
    -9.6507  -9.4747  -9.3528  -9.2498  -8.9894  -8.9073  -8.7105  -8.6877
    -8.6816  -8.5284  -8.5181  -8.5049  -8.0497  -7.9798  -7.9712  -7.9416
    -7.8949  -7.8262  -7.8154  -7.7380  -7.6060  -7.5345  -7.4938  -7.4220
     1.4392   1.4791   1.6596   1.7451   1.7634   1.9301   2.0037   2.1060
     2.4568   2.5426   2.5946   2.6858   2.7137   2.7627   2.9346   3.1765
     3.1994   3.2420   3.8231   3.8362   3.9507   4.0222   4.1890   4.4429
     4.4786   4.6170   4.6811   4.7138   4.8429   4.9983   5.0204   5.0421
     5.1798   5.1977   5.3096   5.4016   5.4498   5.6412   5.6848   5.6929
     5.8049   5.8308   5.8856   5.9238   5.9662   6.0546   6.1028   6.2281
     6.4679   6.5528   6.6062   6.6947   6.7756   6.8135   6.8548   6.9895
     7.0567   7.0996   7.1464   7.1564   7.2287   7.2646   7.2768   7.2997
     7.3585   7.4181   7.8945   7.9607   8.0191   8.0499   8.0676   8.0685
    10.3128  10.3878  10.8338  10.8705  11.0572  11.1400  12.1218  12.2433
    12.3544  12.4163  12.5265  12.5858  12.7124  12.8941  12.9926  13.0270
    13.0846  13.2659  13.2959  13.4807  13.5616  13.7114  13.8693  13.9829
    15.0808  15.2469  15.3230  15.5765  15.6918  15.9074  15.9847  16.3028
    16.3869  17.2888  17.3532  17.5120  17.8223  17.9221

          k = 0.1667 0.3306 0.1660 ( 61951 PWs)   bands (ev):

   -65.8514 -65.8507 -65.8507 -65.8500 -65.8449 -65.8443 -65.8441 -65.8435
   -30.3557 -30.3526 -30.3439 -30.3402 -30.2857 -30.2830 -30.2731 -30.2686
   -30.1977 -30.1923 -30.1910 -30.1855 -30.1597 -30.1550 -30.1531 -30.1483
   -30.1442 -30.1410 -30.1354 -30.1277 -30.0758 -30.0723 -30.0696 -30.0647
   -19.9922 -19.9921 -19.9899 -19.9899 -19.9829 -19.9828 -19.9818 -19.9817
   -19.9781 -19.9779 -19.9757 -19.9754 -19.9736 -19.9735 -19.9730 -19.9729
   -19.9727 -19.9726 -19.9718 -19.9718 -19.9713 -19.9713 -19.9682 -19.9679
   -19.9666 -19.9659 -19.9645 -19.9638 -19.9592 -19.9590 -19.9576 -19.9571
   -19.9568 -19.9562 -19.9559 -19.9557 -19.9535 -19.9534 -19.9531 -19.9530
   -19.9526 -19.9524 -19.9520 -19.9519 -19.9505 -19.9496 -19.9489 -19.9478
   -19.9475 -19.9465 -19.9465 -19.9455 -19.9441 -19.9438 -19.9420 -19.9417
    -9.5997  -9.4249  -9.2772  -9.2628  -8.9257  -8.9221  -8.6978  -8.6871
    -8.6481  -8.5109  -8.5068  -8.5036  -8.0613  -7.9877  -7.9784  -7.9503
    -7.9187  -7.8864  -7.8412  -7.8212  -7.6037  -7.5968  -7.5388  -7.5290
     1.6736   1.7089   1.7259   1.7681   1.9779   2.0074   2.0688   2.1355
     2.4660   2.5487   2.5926   2.7086   2.7800   2.8505   2.9752   3.1850
     3.2484   3.2898   3.8452   3.8957   3.9388   4.0284   4.1650   4.4321
     4.4818   4.4921   4.5380   4.6585   4.7214   4.8893   4.9595   4.9771
     5.0389   5.0792   5.2206   5.2430   5.3799   5.4639   5.5800   5.6034
     5.7832   5.8125   5.8296   5.8611   5.9261   5.9550   5.9842   6.0814
     6.5345   6.6703   6.6949   6.7626   6.8323   6.8453   6.8824   6.9066
     7.1250   7.1422   7.1687   7.1915   7.2061   7.2224   7.2918   7.3119
     7.3658   7.3935   7.8918   7.9531   7.9990   8.0257   8.0434   8.0484
    10.5373  10.5606  10.9706  10.9887  11.0668  11.1862  12.1830  12.2836
    12.3435  12.4476  12.5261  12.5806  12.7293  12.8623  12.9511  13.0154
    13.0495  13.0995  13.3139  13.4654  13.5305  13.5986  13.8831  13.9002
    15.1619  15.3256  15.5538  15.6150  15.7938  15.9599  16.2247  16.2769
    16.5137  17.2625  17.4067  17.5015  17.6037  17.9027

          k = 0.1667 0.3306 0.3320 ( 61926 PWs)   bands (ev):

   -65.8513 -65.8509 -65.8506 -65.8502 -65.8448 -65.8444 -65.8440 -65.8437
   -30.3434 -30.3411 -30.3404 -30.3376 -30.3002 -30.2973 -30.2721 -30.2696
   -30.1965 -30.1927 -30.1910 -30.1871 -30.1582 -30.1548 -30.1527 -30.1493
   -30.1434 -30.1416 -30.1221 -30.1153 -30.0839 -30.0786 -30.0750 -30.0730
   -19.9917 -19.9916 -19.9903 -19.9903 -19.9829 -19.9828 -19.9817 -19.9817
   -19.9777 -19.9774 -19.9763 -19.9760 -19.9734 -19.9733 -19.9731 -19.9730
   -19.9728 -19.9727 -19.9718 -19.9718 -19.9713 -19.9713 -19.9681 -19.9680
   -19.9662 -19.9655 -19.9650 -19.9643 -19.9591 -19.9590 -19.9575 -19.9572
   -19.9565 -19.9562 -19.9553 -19.9551 -19.9539 -19.9537 -19.9531 -19.9529
   -19.9525 -19.9524 -19.9521 -19.9520 -19.9504 -19.9499 -19.9487 -19.9481
   -19.9473 -19.9467 -19.9463 -19.9457 -19.9437 -19.9434 -19.9425 -19.9422
    -9.4845  -9.3049  -9.2833  -9.0747  -8.9836  -8.7567  -8.7343  -8.6201
    -8.5672  -8.5211  -8.4251  -8.4172  -8.2320  -8.1689  -8.0283  -7.9946
    -7.9567  -7.9445  -7.8769  -7.8510  -7.8337  -7.7728  -7.5888  -7.5515
     1.7475   1.7679   1.9927   2.0174   2.3032   2.3717   2.4733   2.5196
     2.6070   2.6149   2.7002   2.8238   3.0112   3.0556   3.0971   3.1754
     3.4236   3.4563   3.8179   3.8868   3.9300   3.9625   4.0617   4.1323
     4.1698   4.3204   4.3580   4.4894   4.5566   4.6529   4.6921   4.7590
     4.8409   4.9760   5.0164   5.0745   5.1195   5.1617   5.2307   5.3961
     5.4373   5.5149   5.5369   5.7362   5.8451   5.9096   5.9674   6.0099
     6.6604   6.6816   6.7722   6.8009   6.9199   6.9724   7.0273   7.0743
     7.1075   7.1595   7.1946   7.2341   7.2797   7.2960   7.3653   7.3929
     7.4829   7.5292   7.8491   7.8862   7.9162   7.9423   7.9900   7.9981
    10.9449  11.0051  11.1053  11.2060  11.3814  11.5140  12.1730  12.2634
    12.3625  12.3773  12.4564  12.5623  12.6622  12.7028  12.7445  12.8254
    13.0049  13.1209  13.2117  13.3109  13.4304  13.4894  13.7340  13.7464
    15.3044  15.5497  15.7140  16.0857  16.1413  16.2439  16.3276  16.8566
    16.9239  17.0478  17.1746  17.6179  17.7235  17.8184

          k = 0.1667 0.3306-0.4980 ( 61926 PWs)   bands (ev):

   -65.8511 -65.8511 -65.8504 -65.8504 -65.8446 -65.8446 -65.8438 -65.8438
   -30.3421 -30.3421 -30.3203 -30.3203 -30.3174 -30.3174 -30.2709 -30.2709
   -30.1947 -30.1947 -30.1892 -30.1892 -30.1564 -30.1564 -30.1509 -30.1509
   -30.1425 -30.1425 -30.1032 -30.1032 -30.0972 -30.0972 -30.0740 -30.0740
   -19.9910 -19.9910 -19.9909 -19.9909 -19.9829 -19.9829 -19.9817 -19.9817
   -19.9770 -19.9770 -19.9767 -19.9767 -19.9733 -19.9732 -19.9731 -19.9731
   -19.9727 -19.9727 -19.9718 -19.9718 -19.9713 -19.9713 -19.9681 -19.9681
   -19.9657 -19.9657 -19.9649 -19.9649 -19.9591 -19.9591 -19.9573 -19.9573
   -19.9564 -19.9564 -19.9546 -19.9546 -19.9543 -19.9543 -19.9530 -19.9529
   -19.9524 -19.9524 -19.9521 -19.9521 -19.9502 -19.9501 -19.9485 -19.9484
   -19.9470 -19.9470 -19.9460 -19.9460 -19.9431 -19.9431 -19.9428 -19.9428
    -9.3768  -9.3768  -9.1078  -9.1078  -8.8506  -8.8506  -8.5480  -8.5480
    -8.5246  -8.5246  -8.4373  -8.4373  -8.2166  -8.2166  -8.1867  -8.1867
    -7.9724  -7.9723  -7.9163  -7.9163  -7.8502  -7.8502  -7.5701  -7.5701
     1.7577   1.7577   2.0186   2.0186   2.4637   2.4637   2.5833   2.5833
     3.0577   3.0577   3.2227   3.2227   3.2608   3.2608   3.3655   3.3655
     3.4539   3.4539   3.5617   3.5617   3.7813   3.7813   3.8996   3.8996
     4.0585   4.0585   4.1655   4.1655   4.3330   4.3330   4.5105   4.5105
     4.8773   4.8773   5.0271   5.0271   5.1052   5.1052   5.2163   5.2163
     5.2819   5.2819   5.5717   5.5717   5.8596   5.8596   5.9817   5.9817
     6.7011   6.7011   6.8118   6.8118   6.9469   6.9469   7.0347   7.0347
     7.1923   7.1923   7.2387   7.2387   7.3122   7.3122   7.6244   7.6245
     7.6656   7.6656   7.7395   7.7395   7.7856   7.7856   7.9778   7.9778
    11.0413  11.0413  11.6422  11.6422  11.7800  11.7800  11.9404  11.9404
    12.0905  12.0905  12.4345  12.4345  12.6488  12.6488  12.8697  12.8697
    13.0172  13.0172  13.1368  13.1368  13.4379  13.4379  13.6193  13.6193
    15.4557  15.4557  15.9868  15.9868  16.5063  16.5063  16.8712  16.8712
    16.9859  16.9859  17.4876  17.4876  17.8787  17.8787

          k = 0.1667-0.4959 0.0000 ( 61954 PWs)   bands (ev):

   -65.8515 -65.8508 -65.8506 -65.8500 -65.8450 -65.8443 -65.8442 -65.8435
   -30.3611 -30.3580 -30.3441 -30.3399 -30.2802 -30.2771 -30.2731 -30.2683
   -30.1794 -30.1775 -30.1757 -30.1725 -30.1723 -30.1697 -30.1671 -30.1657
   -30.1459 -30.1417 -30.1415 -30.1330 -30.0761 -30.0720 -30.0644 -30.0597
   -19.9924 -19.9923 -19.9898 -19.9897 -19.9829 -19.9828 -19.9818 -19.9816
   -19.9783 -19.9780 -19.9755 -19.9752 -19.9735 -19.9735 -19.9730 -19.9728
   -19.9727 -19.9727 -19.9718 -19.9717 -19.9713 -19.9713 -19.9682 -19.9679
   -19.9667 -19.9660 -19.9643 -19.9636 -19.9591 -19.9589 -19.9571 -19.9568
   -19.9566 -19.9563 -19.9560 -19.9556 -19.9538 -19.9536 -19.9533 -19.9532
   -19.9526 -19.9525 -19.9522 -19.9520 -19.9506 -19.9495 -19.9490 -19.9477
   -19.9476 -19.9466 -19.9465 -19.9454 -19.9443 -19.9439 -19.9418 -19.9415
    -9.5754  -9.5255  -9.3246  -9.2106  -8.9709  -8.8878  -8.6905  -8.6770
    -8.3641  -8.3581  -8.3175  -8.2965  -8.2945  -8.2793  -8.2648  -8.2605
    -7.9118  -7.8321  -7.8287  -7.7419  -7.6070  -7.5354  -7.4945  -7.4225
     1.4387   1.4793   1.6584   1.7488   1.7657   1.9488   2.0111   2.1208
     2.7136   2.7291   2.9850   2.9854   3.0627   3.1091   3.3981   3.4304
     3.4484   3.4971   3.5170   3.6721   3.7012   3.7844   3.9601   4.0174
     4.0287   4.0541   4.4776   4.4834   4.6844   4.7310   5.1108   5.1486
     5.2155   5.2428   5.2855   5.3558   5.3766   5.4811   5.6622   5.7205
     5.7262   5.8223   5.8429   5.9080   5.9702   6.0093   6.0694   6.2429
     6.5004   6.5478   6.5776   6.6526   6.7720   6.7877   6.8316   6.9728
     7.0298   7.1228   7.1502   7.1576   7.2833   7.3299   7.5090   7.5336
     7.5639   7.6219   7.7900   7.8228   7.8272   7.8636   8.0470   8.0551
    10.3236  10.3964  11.2923  11.3416  11.5275  11.5739  11.7421  11.8544
    11.9444  12.0457  12.5141  12.5935  12.8263  12.8765  12.9347  13.0785
    13.1686  13.2876  13.3106  13.3765  13.4142  13.4633  13.8454  13.9213
    15.1640  15.2215  15.4221  15.7504  15.9152  15.9425  16.0126  16.2682
    16.7490  16.7660  17.8503  17.9907  18.0698  18.0977

          k = 0.1667-0.4959 0.1660 ( 61904 PWs)   bands (ev):

   -65.8514 -65.8507 -65.8507 -65.8500 -65.8449 -65.8443 -65.8441 -65.8435
   -30.3556 -30.3525 -30.3439 -30.3402 -30.2854 -30.2824 -30.2727 -30.2686
   -30.1789 -30.1770 -30.1753 -30.1727 -30.1720 -30.1702 -30.1678 -30.1661
   -30.1456 -30.1419 -30.1364 -30.1285 -30.0758 -30.0723 -30.0697 -30.0648
   -19.9922 -19.9921 -19.9899 -19.9899 -19.9829 -19.9828 -19.9817 -19.9816
   -19.9781 -19.9779 -19.9757 -19.9754 -19.9735 -19.9735 -19.9730 -19.9728
   -19.9727 -19.9727 -19.9718 -19.9717 -19.9713 -19.9713 -19.9682 -19.9680
   -19.9666 -19.9659 -19.9645 -19.9638 -19.9591 -19.9589 -19.9571 -19.9568
   -19.9563 -19.9562 -19.9560 -19.9555 -19.9538 -19.9536 -19.9534 -19.9532
   -19.9527 -19.9525 -19.9522 -19.9521 -19.9505 -19.9496 -19.9489 -19.9478
   -19.9475 -19.9465 -19.9465 -19.9455 -19.9442 -19.9438 -19.9420 -19.9417
    -9.5078  -9.4906  -9.2442  -9.2224  -8.9076  -8.8999  -8.6584  -8.6474
[...]
    12.4275  12.4275  12.4559  12.4559  12.5402  12.5403  12.5814  12.5814
    13.1390  13.1390  13.2435  13.2435  13.3816  13.3816  13.4768  13.4768
    15.8350  15.8350  15.8919  15.8919  16.7032  16.7032  17.0181  17.0181
    17.3595  17.3595  17.4673  17.4673  17.5898  17.5898

          k =-0.5000 0.3306 0.0000 ( 61928 PWs)   bands (ev):

   -65.8511 -65.8511 -65.8503 -65.8503 -65.8446 -65.8446 -65.8439 -65.8439
   -30.3597 -30.3596 -30.3083 -30.3083 -30.3040 -30.3040 -30.2789 -30.2789
   -30.1957 -30.1957 -30.1880 -30.1880 -30.1576 -30.1576 -30.1498 -30.1498
   -30.1367 -30.1367 -30.1109 -30.1109 -30.1067 -30.1067 -30.0621 -30.0621
   -19.9923 -19.9923 -19.9897 -19.9897 -19.9823 -19.9823 -19.9821 -19.9821
   -19.9782 -19.9782 -19.9754 -19.9754 -19.9736 -19.9735 -19.9728 -19.9728
   -19.9718 -19.9718 -19.9718 -19.9718 -19.9704 -19.9704 -19.9701 -19.9701
   -19.9664 -19.9664 -19.9640 -19.9640 -19.9583 -19.9582 -19.9579 -19.9579
   -19.9564 -19.9564 -19.9547 -19.9547 -19.9546 -19.9546 -19.9530 -19.9530
   -19.9528 -19.9528 -19.9520 -19.9520 -19.9498 -19.9498 -19.9486 -19.9486
   -19.9471 -19.9471 -19.9460 -19.9460 -19.9441 -19.9441 -19.9416 -19.9416
    -9.4603  -9.4603  -9.1674  -9.1674  -8.8402  -8.8402  -8.5698  -8.5698
    -8.5014  -8.5013  -8.4349  -8.4349  -8.2078  -8.2078  -8.1874  -8.1874
    -7.9628  -7.9628  -7.9137  -7.9137  -7.7721  -7.7721  -7.4577  -7.4577
     1.4599   1.4599   1.7593   1.7593   2.4575   2.4575   2.5749   2.5749
     3.0589   3.0590   3.1512   3.1512   3.2298   3.2298   3.3814   3.3814
     3.4582   3.4582   3.5284   3.5284   3.7641   3.7641   3.8849   3.8849
     3.9959   3.9959   4.1219   4.1219   4.4299   4.4299   4.5832   4.5832
     5.0426   5.0426   5.0937   5.0937   5.2670   5.2670   5.3158   5.3158
     5.4803   5.4803   5.7906   5.7906   6.0881   6.0881   6.1444   6.1444
     6.5659   6.5659   6.6363   6.6363   6.8585   6.8585   6.9610   6.9610
     7.1987   7.1987   7.2316   7.2316   7.2797   7.2797   7.6174   7.6175
     7.6538   7.6538   7.7411   7.7411   7.7927   7.7927   8.0509   8.0509
    10.8316  10.8316  11.5284  11.5284  11.7257  11.7257  11.8617  11.8618
    12.1043  12.1043  12.3641  12.3642  12.8196  12.8196  12.8862  12.8862
    13.0708  13.0708  13.2507  13.2507  13.4969  13.4969  13.7538  13.7538
    15.1803  15.1803  15.7527  15.7527  16.4063  16.4063  16.8088  16.8088
    16.8746  16.8746  17.4787  17.4787  17.9403  17.9403

          k =-0.5000 0.3306 0.1660 ( 61930 PWs)   bands (ev):

   -65.8511 -65.8511 -65.8504 -65.8504 -65.8445 -65.8445 -65.8439 -65.8439
   -30.3542 -30.3542 -30.3080 -30.3080 -30.3043 -30.3043 -30.2841 -30.2841
   -30.1953 -30.1953 -30.1887 -30.1887 -30.1567 -30.1567 -30.1502 -30.1502
   -30.1322 -30.1322 -30.1107 -30.1106 -30.1070 -30.1070 -30.0673 -30.0673
   -19.9922 -19.9921 -19.9899 -19.9899 -19.9823 -19.9823 -19.9822 -19.9821
   -19.9780 -19.9780 -19.9756 -19.9756 -19.9735 -19.9735 -19.9728 -19.9728
   -19.9719 -19.9719 -19.9717 -19.9717 -19.9704 -19.9704 -19.9701 -19.9701
   -19.9663 -19.9663 -19.9642 -19.9642 -19.9582 -19.9582 -19.9579 -19.9579
   -19.9561 -19.9561 -19.9548 -19.9548 -19.9546 -19.9546 -19.9531 -19.9531
   -19.9528 -19.9528 -19.9520 -19.9520 -19.9497 -19.9497 -19.9487 -19.9487
   -19.9471 -19.9471 -19.9461 -19.9461 -19.9440 -19.9439 -19.9418 -19.9418
    -9.3899  -9.3899  -9.1080  -9.1080  -8.8547  -8.8547  -8.5504  -8.5504
    -8.5116  -8.5116  -8.4191  -8.4191  -8.2181  -8.2181  -8.1878  -8.1878
    -7.9638  -7.9638  -7.9203  -7.9202  -7.8641  -7.8641  -7.5630  -7.5630
     1.7030   1.7030   1.9895   1.9895   2.4677   2.4677   2.5698   2.5698
     3.1082   3.1082   3.1822   3.1822   3.2415   3.2415   3.3983   3.3983
     3.4651   3.4652   3.5851   3.5851   3.7897   3.7897   3.8994   3.8995
     4.0214   4.0214   4.1430   4.1430   4.4069   4.4070   4.5729   4.5729
     4.8691   4.8691   5.0087   5.0087   5.1153   5.1153   5.1781   5.1781
     5.2711   5.2711   5.5547   5.5547   5.8593   5.8593   5.9706   5.9706
     6.6990   6.6990   6.8013   6.8013   6.9831   6.9831   7.0502   7.0502
     7.1894   7.1894   7.2555   7.2555   7.3184   7.3185   7.6121   7.6121
     7.6530   7.6530   7.7427   7.7427   7.7883   7.7884   8.0292   8.0292
    10.9711  10.9711  11.6137  11.6137  11.7891  11.7891  11.8826  11.8827
    12.1345  12.1345  12.4061  12.4061  12.7782  12.7782  12.8885  12.8885
    13.0497  13.0498  13.1554  13.1554  13.3995  13.3995  13.6509  13.6509
    15.4432  15.4432  15.9513  15.9513  16.4897  16.4897  16.8274  16.8274
    16.8817  16.8817  17.5071  17.5071  17.8409  17.8409

          k =-0.5000 0.3306 0.3320 ( 61890 PWs)   bands (ev):

   -65.8509 -65.8509 -65.8505 -65.8505 -65.8444 -65.8444 -65.8441 -65.8440
   -30.3392 -30.3392 -30.3072 -30.3072 -30.3053 -30.3053 -30.2984 -30.2984
   -30.1941 -30.1941 -30.1904 -30.1903 -30.1550 -30.1550 -30.1515 -30.1515
   -30.1192 -30.1192 -30.1099 -30.1099 -30.1078 -30.1078 -30.0814 -30.0814
   -19.9916 -19.9916 -19.9903 -19.9903 -19.9822 -19.9822 -19.9822 -19.9822
   -19.9775 -19.9775 -19.9761 -19.9761 -19.9734 -19.9733 -19.9730 -19.9729
   -19.9719 -19.9719 -19.9717 -19.9717 -19.9704 -19.9704 -19.9702 -19.9702
   -19.9659 -19.9659 -19.9647 -19.9646 -19.9582 -19.9581 -19.9580 -19.9580
   -19.9556 -19.9556 -19.9549 -19.9548 -19.9544 -19.9544 -19.9535 -19.9535
   -19.9526 -19.9526 -19.9521 -19.9521 -19.9496 -19.9496 -19.9490 -19.9490
   -19.9469 -19.9469 -19.9463 -19.9463 -19.9436 -19.9436 -19.9423 -19.9423
    -9.2078  -9.2078  -8.9501  -8.9500  -8.9033  -8.9033  -8.5609  -8.5609
    -8.4983  -8.4983  -8.3476  -8.3475  -8.2911  -8.2911  -8.1806  -8.1805
    -8.0672  -8.0672  -7.9479  -7.9478  -7.9295  -7.9295  -7.8128  -7.8128
     2.3073   2.3073   2.4875   2.4875   2.5195   2.5195   2.6818   2.6818
     3.1744   3.1744   3.2414   3.2414   3.3074   3.3074   3.4153   3.4153
     3.5397   3.5397   3.7217   3.7217   3.8462   3.8462   3.9078   3.9078
     4.1012   4.1012   4.2124   4.2124   4.2626   4.2626   4.3770   4.3770
     4.5467   4.5467   4.7181   4.7181   4.7811   4.7811   4.9540   4.9541
     5.0506   5.0506   5.1451   5.1451   5.2763   5.2763   5.5578   5.5578
     6.9338   6.9338   7.0730   7.0730   7.1097   7.1098   7.1795   7.1795
     7.2639   7.2639   7.3658   7.3659   7.4516   7.4516   7.6044   7.6045
     7.6428   7.6428   7.7460   7.7460   7.7703   7.7703   7.9564   7.9564
    11.3495  11.3496  11.7825  11.7825  11.9075  11.9075  12.0350  12.0350
    12.2510  12.2510  12.4535  12.4535  12.5915  12.5915  12.8024  12.8024
    12.9336  12.9336  13.0102  13.0102  13.1083  13.1083  13.3818  13.3818
    16.1687  16.1687  16.4342  16.4342  16.7420  16.7421  16.8616  16.8616
    17.0099  17.0099  17.4571  17.4571  17.7143  17.7143

          k =-0.5000 0.3306-0.4980 ( 61900 PWs)   bands (ev):

   -65.8507 -65.8507 -65.8507 -65.8507 -65.8442 -65.8442 -65.8442 -65.8442
   -30.3192 -30.3191 -30.3189 -30.3188 -30.3062 -30.3061 -30.3058 -30.3057
   -30.1924 -30.1924 -30.1922 -30.1922 -30.1533 -30.1533 -30.1530 -30.1530
   -30.1092 -30.1091 -30.1088 -30.1088 -30.1005 -30.1005 -30.1001 -30.1001
   -19.9910 -19.9909 -19.9909 -19.9909 -19.9822 -19.9822 -19.9822 -19.9822
   -19.9769 -19.9769 -19.9768 -19.9768 -19.9732 -19.9732 -19.9731 -19.9731
   -19.9720 -19.9719 -19.9717 -19.9717 -19.9704 -19.9704 -19.9702 -19.9702
   -19.9653 -19.9653 -19.9653 -19.9652 -19.9581 -19.9581 -19.9581 -19.9580
   -19.9551 -19.9551 -19.9551 -19.9551 -19.9541 -19.9541 -19.9540 -19.9540
   -19.9524 -19.9524 -19.9523 -19.9523 -19.9494 -19.9494 -19.9492 -19.9492
   -19.9466 -19.9466 -19.9466 -19.9466 -19.9430 -19.9430 -19.9429 -19.9429
    -9.0258  -9.0258  -9.0065  -9.0065  -8.7436  -8.7435  -8.7080  -8.7080
    -8.4491  -8.4491  -8.4057  -8.4057  -8.1978  -8.1977  -8.1555  -8.1555
    -8.1421  -8.1421  -8.0889  -8.0889  -7.9265  -7.9265  -7.9183  -7.9183
     2.4765   2.4765   2.4860   2.4861   3.0948   3.0948   3.1290   3.1290
     3.2058   3.2058   3.2078   3.2078   3.4288   3.4288   3.4747   3.4747
     3.5411   3.5411   3.5874   3.5874   3.8242   3.8242   3.8336   3.8336
     4.0259   4.0259   4.1111   4.1111   4.2891   4.2891   4.3362   4.3362
     4.3856   4.3856   4.5244   4.5244   4.5966   4.5966   4.6316   4.6316
     4.8768   4.8768   4.8781   4.8782   5.3193   5.3193   5.3372   5.3372
     7.0308   7.0308   7.1093   7.1093   7.1296   7.1296   7.2057   7.2057
     7.4149   7.4149   7.4767   7.4767   7.5159   7.5159   7.5956   7.5956
     7.6835   7.6835   7.7131   7.7131   7.7671   7.7671   7.8746   7.8746
    11.7568  11.7568  11.8244  11.8244  11.9623  11.9623  12.0413  12.0413
    12.4317  12.4317  12.4419  12.4419  12.5490  12.5490  12.5842  12.5843
    12.7995  12.7995  12.8849  12.8849  13.0733  13.0733  13.1502  13.1502
    16.6132  16.6132  16.6571  16.6571  16.8870  16.8870  17.1013  17.1013
    17.2398  17.2398  17.4902  17.4902  17.6282  17.6282

          k =-0.5000-0.4959 0.0000 ( 61940 PWs)   bands (ev):

   -65.8511 -65.8511 -65.8503 -65.8503 -65.8446 -65.8446 -65.8439 -65.8439
   -30.3596 -30.3596 -30.3082 -30.3082 -30.3038 -30.3038 -30.2786 -30.2786
   -30.1775 -30.1775 -30.1750 -30.1749 -30.1695 -30.1695 -30.1687 -30.1687
   -30.1378 -30.1378 -30.1111 -30.1111 -30.1068 -30.1068 -30.0621 -30.0621
   -19.9923 -19.9923 -19.9897 -19.9897 -19.9823 -19.9822 -19.9821 -19.9821
   -19.9782 -19.9782 -19.9754 -19.9754 -19.9735 -19.9735 -19.9728 -19.9728
   -19.9718 -19.9718 -19.9718 -19.9718 -19.9704 -19.9704 -19.9701 -19.9701
   -19.9664 -19.9664 -19.9640 -19.9639 -19.9580 -19.9580 -19.9577 -19.9577
   -19.9564 -19.9564 -19.9546 -19.9545 -19.9544 -19.9544 -19.9534 -19.9534
   -19.9532 -19.9532 -19.9522 -19.9522 -19.9498 -19.9498 -19.9486 -19.9486
   -19.9471 -19.9471 -19.9460 -19.9460 -19.9441 -19.9441 -19.9416 -19.9416
    -9.4213  -9.4213  -9.1684  -9.1684  -8.6799  -8.6798  -8.4961  -8.4961
    -8.4607  -8.4607  -8.3904  -8.3904  -8.2579  -8.2579  -8.2300  -8.2300
    -8.1302  -8.1302  -8.0776  -8.0775  -7.7760  -7.7760  -7.4583  -7.4582
     1.4599   1.4600   1.7620   1.7620   2.9131   2.9131   3.1077   3.1077
     3.1985   3.1985   3.2138   3.2138   3.2842   3.2842   3.3822   3.3822
     3.4749   3.4749   3.5638   3.5638   3.6421   3.6422   3.6660   3.6660
     3.9120   3.9120   4.1000   4.1000   4.4043   4.4043   4.4694   4.4694
     4.5308   4.5309   4.6093   4.6093   5.2345   5.2345   5.3234   5.3235
     5.4698   5.4698   5.6895   5.6895   6.1047   6.1047   6.1435   6.1436
     6.5844   6.5844   6.6393   6.6393   6.8527   6.8527   6.9210   6.9211
     7.3331   7.3331   7.3723   7.3723   7.4996   7.4996   7.5953   7.5953
     7.6659   7.6659   7.7354   7.7355   7.7742   7.7742   7.8879   7.8879
    11.2514  11.2514  11.5908  11.5908  11.7084  11.7084  11.8358  11.8358
    12.2542  12.2542  12.3435  12.3435  12.5636  12.5636  12.6543  12.6543
    13.0050  13.0050  13.2586  13.2586  13.5408  13.5408  13.5586  13.5586
    15.2324  15.2324  15.7849  15.7849  16.7482  16.7482  16.9920  16.9920
    17.4212  17.4212  17.5530  17.5530  17.7089  17.7089

          k =-0.5000-0.4959 0.1660 ( 61960 PWs)   bands (ev):

   -65.8511 -65.8511 -65.8504 -65.8504 -65.8445 -65.8445 -65.8439 -65.8439
   -30.3541 -30.3541 -30.3079 -30.3079 -30.3041 -30.3041 -30.2839 -30.2839
   -30.1771 -30.1771 -30.1745 -30.1745 -30.1698 -30.1698 -30.1695 -30.1695
   -30.1329 -30.1329 -30.1109 -30.1108 -30.1071 -30.1071 -30.0673 -30.0673
   -19.9922 -19.9921 -19.9899 -19.9899 -19.9823 -19.9822 -19.9821 -19.9821
   -19.9780 -19.9780 -19.9756 -19.9756 -19.9735 -19.9735 -19.9728 -19.9728
   -19.9719 -19.9719 -19.9717 -19.9717 -19.9704 -19.9704 -19.9702 -19.9701
   -19.9663 -19.9663 -19.9641 -19.9641 -19.9580 -19.9580 -19.9577 -19.9577
   -19.9562 -19.9562 -19.9546 -19.9546 -19.9544 -19.9544 -19.9534 -19.9534
   -19.9532 -19.9532 -19.9522 -19.9522 -19.9497 -19.9497 -19.9487 -19.9487
   -19.9471 -19.9471 -19.9461 -19.9461 -19.9440 -19.9440 -19.9418 -19.9418
    -9.3439  -9.3439  -9.1113  -9.1113  -8.6933  -8.6932  -8.5167  -8.5167
    -8.4415  -8.4415  -8.3789  -8.3789  -8.2538  -8.2537  -8.2335  -8.2334
    -8.1287  -8.1287  -8.0815  -8.0815  -7.8751  -7.8751  -7.5637  -7.5637
     1.7051   1.7051   1.9954   1.9954   2.9418   2.9418   3.1226   3.1227
     3.2000   3.2000   3.2274   3.2274   3.2758   3.2758   3.3722   3.3722
     3.5325   3.5326   3.5839   3.5840   3.6413   3.6413   3.7695   3.7696
     3.9385   3.9386   4.1221   4.1221   4.4014   4.4015   4.4557   4.4557
     4.5332   4.5332   4.5958   4.5958   4.9857   4.9857   5.0832   5.0832
     5.2385   5.2385   5.4177   5.4177   5.8695   5.8695   5.8881   5.8882
     6.7232   6.7232   6.8152   6.8152   7.0037   7.0037   7.0884   7.0884
     7.3310   7.3310   7.3911   7.3911   7.4993   7.4993   7.5964   7.5964
     7.6446   7.6446   7.7416   7.7416   7.7727   7.7727   7.8816   7.8816
    11.3558  11.3558  11.6847  11.6847  11.7813  11.7813  11.9116  11.9116
    12.2532  12.2532  12.3621  12.3621  12.5694  12.5694  12.6531  12.6531
    12.9851  12.9851  13.1226  13.1226  13.4101  13.4101  13.4714  13.4715
    15.5107  15.5107  16.0057  16.0057  16.8111  16.8111  17.0492  17.0492
    17.4097  17.4097  17.5589  17.5589  17.7044  17.7045

          k =-0.5000-0.4959 0.3320 ( 61920 PWs)   bands (ev):

   -65.8509 -65.8509 -65.8505 -65.8505 -65.8444 -65.8444 -65.8441 -65.8440
   -30.3391 -30.3391 -30.3071 -30.3071 -30.3049 -30.3048 -30.2985 -30.2985
   -30.1758 -30.1758 -30.1734 -30.1734 -30.1713 -30.1713 -30.1706 -30.1706
   -30.1194 -30.1194 -30.1101 -30.1101 -30.1079 -30.1079 -30.0814 -30.0814
   -19.9916 -19.9916 -19.9903 -19.9903 -19.9822 -19.9822 -19.9822 -19.9822
   -19.9776 -19.9775 -19.9761 -19.9761 -19.9733 -19.9733 -19.9729 -19.9729
   -19.9719 -19.9719 -19.9717 -19.9717 -19.9704 -19.9704 -19.9702 -19.9702
   -19.9659 -19.9659 -19.9646 -19.9646 -19.9579 -19.9579 -19.9578 -19.9577
   -19.9556 -19.9556 -19.9546 -19.9546 -19.9544 -19.9543 -19.9538 -19.9538
   -19.9530 -19.9530 -19.9524 -19.9524 -19.9496 -19.9496 -19.9490 -19.9490
   -19.9469 -19.9469 -19.9463 -19.9463 -19.9436 -19.9436 -19.9424 -19.9423
    -9.1299  -9.1299  -8.9701  -8.9700  -8.7375  -8.7374  -8.6077  -8.6077
    -8.3894  -8.3894  -8.3257  -8.3257  -8.2487  -8.2487  -8.2345  -8.2345
    -8.1364  -8.1364  -8.1159  -8.1159  -8.0498  -8.0497  -7.8223  -7.8223
     2.3563   2.3563   2.6022   2.6022   3.0082   3.0082   3.1188   3.1188
     3.1956   3.1956   3.2641   3.2641   3.3166   3.3166   3.3542   3.3542
     3.5820   3.5820   3.6198   3.6198   3.7431   3.7431   3.9831   3.9831
     4.0375   4.0375   4.1698   4.1698   4.2810   4.2810   4.4139   4.4139
     4.5086   4.5086   4.5358   4.5358   4.6337   4.6338   4.6959   4.6960
     4.8313   4.8313   4.9566   4.9566   5.1832   5.1832   5.2096   5.2096
     7.0015   7.0015   7.1587   7.1588   7.2308   7.2308   7.2676   7.2676
     7.3428   7.3428   7.4854   7.4854   7.4948   7.4948   7.5828   7.5828
     7.6385   7.6385   7.7499   7.7499   7.7607   7.7607   7.8505   7.8506
    11.6532  11.6532  11.9102  11.9102  12.0122  12.0122  12.1194  12.1194
    12.2616  12.2616  12.4251  12.4251  12.5517  12.5517  12.6400  12.6400
    12.7235  12.7235  12.8563  12.8563  13.0764  13.0764  13.1662  13.1662
    16.2945  16.2945  16.6324  16.6324  16.9989  16.9989  17.1976  17.1976
    17.3590  17.3590  17.5689  17.5689  17.6817  17.6818

          k =-0.5000-0.4959-0.4980 ( 61832 PWs)   bands (ev):

   -65.8507 -65.8507 -65.8507 -65.8507 -65.8443 -65.8442 -65.8442 -65.8442
   -30.3189 -30.3189 -30.3186 -30.3186 -30.3061 -30.3061 -30.3057 -30.3057
   -30.1740 -30.1740 -30.1737 -30.1737 -30.1718 -30.1718 -30.1717 -30.1717
   -30.1092 -30.1092 -30.1089 -30.1089 -30.1007 -30.1007 -30.1003 -30.1003
   -19.9910 -19.9909 -19.9909 -19.9909 -19.9822 -19.9822 -19.9822 -19.9822
   -19.9769 -19.9769 -19.9768 -19.9768 -19.9732 -19.9732 -19.9730 -19.9730
   -19.9719 -19.9719 -19.9717 -19.9717 -19.9704 -19.9704 -19.9702 -19.9702
   -19.9653 -19.9653 -19.9653 -19.9652 -19.9578 -19.9578 -19.9578 -19.9578
   -19.9550 -19.9550 -19.9549 -19.9549 -19.9542 -19.9542 -19.9542 -19.9542
   -19.9528 -19.9528 -19.9526 -19.9526 -19.9494 -19.9494 -19.9492 -19.9492
   -19.9466 -19.9466 -19.9466 -19.9466 -19.9431 -19.9430 -19.9429 -19.9429
    -8.8769  -8.8769  -8.8212  -8.8212  -8.8166  -8.8166  -8.8153  -8.8153
    -8.3466  -8.3466  -8.2858  -8.2858  -8.2584  -8.2584  -8.2267  -8.2267
    -8.1279  -8.1279  -8.1134  -8.1134  -8.0852  -8.0852  -8.0646  -8.0646
     3.0121   3.0121   3.0541   3.0541   3.0671   3.0672   3.0757   3.0757
     3.2113   3.2113   3.3167   3.3167   3.3578   3.3578   3.4570   3.4570
     3.5258   3.5258   3.5895   3.5895   3.6633   3.6633   3.6934   3.6934
     4.2203   4.2203   4.2884   4.2884   4.3099   4.3100   4.3358   4.3359
     4.4569   4.4569   4.5035   4.5035   4.5290   4.5291   4.5757   4.5757
     4.6303   4.6303   4.6846   4.6846   4.7349   4.7349   4.7620   4.7620
     7.1574   7.1574   7.2394   7.2394   7.2701   7.2701   7.3860   7.3861
     7.4122   7.4122   7.4540   7.4540   7.5094   7.5094   7.5825   7.5825
     7.7181   7.7181   7.7453   7.7453   7.7541   7.7541   7.7895   7.7896
    12.0506  12.0506  12.0507  12.0507  12.1272  12.1272  12.1607  12.1607
    12.4033  12.4033  12.4167  12.4167  12.4856  12.4856  12.5837  12.5837
    12.6336  12.6336  12.7275  12.7275  12.8039  12.8039  12.8220  12.8220
    17.0034  17.0034  17.0626  17.0626  17.1181  17.1181  17.2584  17.2584
    17.5991  17.5992  17.6057  17.6057  17.6526  17.6526

     the Fermi energy is    10.3661 ev

!    total energy              =   -6260.33056349 Ry
     Harris-Foulkes estimate   =   -6260.33056349 Ry
     estimated scf accuracy    <          2.8E-09 Ry

     The total energy is the sum of the following terms:

     one-electron contribution =   -4685.46289319 Ry
     hartree contribution      =    2583.66854593 Ry
     xc contribution           =    -966.74714792 Ry
     ewald contribution        =   -3191.78901606 Ry
     smearing contrib. (-TS)   =      -0.00005226 Ry

     convergence has been achieved in  14 iterations

     Writing output data file Landau_20.save
 
     init_run     :     34.41s CPU     35.91s WALL (       1 calls)
     electrons    :   2142.13s CPU   2173.17s WALL (       1 calls)

     Called by init_run:
     wfcinit      :     31.06s CPU     32.44s WALL (       1 calls)
     potinit      :      1.35s CPU      1.37s WALL (       1 calls)

     Called by electrons:
     c_bands      :   1899.03s CPU   1928.08s WALL (      14 calls)
     sum_band     :    226.76s CPU    227.87s WALL (      14 calls)
     v_of_rho     :      1.67s CPU      1.70s WALL (      15 calls)
     mix_rho      :      2.66s CPU      3.20s WALL (      14 calls)

     Called by c_bands:
     init_us_2    :     10.66s CPU     11.52s WALL (      58 calls)
     cegterg      :   1080.53s CPU   1107.75s WALL (      28 calls)

     Called by sum_band:

     Called by *egterg:
     h_psi        :    822.97s CPU    825.96s WALL (     111 calls)
     g_psi        :      3.90s CPU      3.90s WALL (      81 calls)
     cdiaghg      :     12.95s CPU     12.98s WALL (     109 calls)

     Called by h_psi:
     h_psi:pot    :    816.98s CPU    819.77s WALL (     111 calls)
     h_psi:calbec :    110.70s CPU    112.92s WALL (     111 calls)
     vloc_psi     :    587.97s CPU    588.34s WALL (     111 calls)
     add_vuspsi   :    118.31s CPU    118.51s WALL (     111 calls)

     General routines
     calbec       :    110.70s CPU    112.92s WALL (     111 calls)
     fft          :      0.97s CPU      0.97s WALL (      60 calls)
     fftw         :    610.04s CPU    610.24s WALL (   36146 calls)
 
     Parallel routines
 
     PWSCF        : 36m29.73s CPU    37m 6.48s WALL

 
   This run was terminated on:  23:32:45  25Mar2020            

=------------------------------------------------------------------------------=
   JOB DONE.
=------------------------------------------------------------------------------=
