
     Program PWSCF v.6.2 (svn rev. 14038) starts on 25Mar2020 at 19:59:59 

     This program is part of the open-source Quantum ESPRESSO suite
     for quantum simulation of materials; please cite
         "P. Giannozzi et al., J. Phys.:Condens. Matter 21 395502 (2009);
         "P. Giannozzi et al., J. Phys.:Condens. Matter 29 465901 (2017);
          URL http://www.quantum-espresso.org", 
     in publications or presentations arising from this work. More details at
     http://www.quantum-espresso.org/quote

     Parallel version (MPI), running on    40 processors

     MPI processes distributed on     8 nodes
     K-points division:     npool     =      40
     Reading input from scf.in

     Current dimensions of program PWSCF are:
     Max number of different atomic species (ntypx) = 10
     Max number of k-points (npk) =  40000
     Max angular momentum in pseudopotentials (lmaxx) =  3

     Subspace diagonalization in iterative solution of the eigenvalue problem:
     a serial algorithm will be used

 
     G-vector sticks info
     --------------------
     sticks:   dense  smooth     PW     G-vecs:    dense   smooth      PW
     Sum        7745    7745   2083               499205   499205   69173
 


     bravais-lattice index     =            0
     lattice parameter (alat)  =      13.8651  a.u.
     unit-cell volume          =    2811.0315 (a.u.)^3
     number of atoms/cell      =           32
     number of atomic types    =            2
     number of electrons       =       368.60
     number of Kohn-Sham states=          221
     kinetic-energy cutoff     =     120.0000  Ry
     charge density cutoff     =     480.0000  Ry
     convergence threshold     =      1.0E-08
     mixing beta               =       0.7000
     number of iterations used =            8  plain     mixing
     Exchange-correlation      = SLA PW NOGX NOGC ( 1  4  0  0 0 0)

     celldm(1)=  13.865081  celldm(2)=   0.000000  celldm(3)=   0.000000
     celldm(4)=   0.000000  celldm(5)=   0.000000  celldm(6)=   0.000000

     crystal axes: (cart. coord. in units of alat)
               a(1) = (   1.000000   0.000000   0.000000 )  
               a(2) = (   0.000000   1.054572   0.000000 )  
               a(3) = (   0.000000   0.000000   1.000052 )  

     reciprocal axes: (cart. coord. in units 2 pi/alat)
               b(1) = (  1.000000  0.000000  0.000000 )  
               b(2) = (  0.000000  0.948252  0.000000 )  
               b(3) = (  0.000000  0.000000  0.999948 )  


     PseudoPot. # 1 for W  read from file:
     /cluster/scratch/mnoe/QE/pps/W_ONCV_LDA-4.0.upf
     MD5 check sum: ba0307d5d4cd419d6f1d13dc49d7c13a
     Pseudo is Norm-conserving + core correction, Zval = 28.0
     Generated using ONCVPSP code by D. R. Hamann
     Using radial grid of 1380 points,  8 beta functions with: 
                l(1) =   0
                l(2) =   0
                l(3) =   1
                l(4) =   1
                l(5) =   2
                l(6) =   2
                l(7) =   3
                l(8) =   3

     PseudoPot. # 2 for O  read from file:
     /cluster/scratch/mnoe/QE/pps/O_ONCV_LDA-3.0.upf
     MD5 check sum: a1bd6164e7280c17a38c229939bfbd54
     Pseudo is Norm-conserving + core correction, Zval =  6.0
     Generated using ONCVPSP code by D. R. Hamann
     Using radial grid of  926 points,  5 beta functions with: 
                l(1) =   0
                l(2) =   0
                l(3) =   1
                l(4) =   1
                l(5) =   2

     atomic species   valence    mass     pseudopotential
        W             28.00   183.84000     W ( 1.00)
        O              6.00    15.99940     O ( 1.00)

      4 Sym. Ops. (no inversion) found ( 3 have fractional translation)



   Cartesian axes

     site n.     atom                  positions (alat units)
         1           W   tau(   1) = (   0.2471321   0.2964143   0.0006691  )
         2           W   tau(   2) = (   0.7508321   0.7581573  -0.0028251  )
         3           W   tau(   3) = (   0.2528679   0.2308715   0.5006949  )
         4           W   tau(   4) = (   0.7491679   0.8237001   0.4972007  )
         5           W   tau(   5) = (   0.7528679   0.2964143   0.4993567  )
         6           W   tau(   6) = (   0.2491679   0.7581573   0.5028509  )
         7           W   tau(   7) = (   0.7471321   0.2308715  -0.0006691  )
         8           W   tau(   8) = (   0.2508321   0.8237001   0.0028251  )
         9           O   tau(   9) = (   0.2462706   0.0085487  -0.0014457  )
        10           O   tau(  10) = (   0.7530966  -0.0085486  -0.0025318  )
        11           O   tau(  11) = (   0.2537294   0.5187371   0.4985800  )
        12           O   tau(  12) = (   0.7469034   0.5358345   0.4974940  )
        13           O   tau(  13) = (   0.7537294   0.0085487   0.5014715  )
        14           O   tau(  14) = (   0.2469034  -0.0085486   0.5025576  )
        15           O   tau(  15) = (   0.7462706   0.5187371   0.0014457  )
        16           O   tau(  16) = (   0.2530966   0.5358345   0.0025318  )
        17           O   tau(  17) = (   0.5009529   0.2594814   0.4514814  )
        18           O   tau(  18) = (   0.4999409   0.7941513   0.5485701  )
        19           O   tau(  19) = (  -0.0009529   0.2678044   0.9515073  )
        20           O   tau(  20) = (   0.0000591   0.7877061   0.0485443  )
        21           O   tau(  21) = (   0.4990471   0.2594814   0.0485443  )
        22           O   tau(  22) = (   0.5000591   0.7941513   0.9515073  )
        23           O   tau(  23) = (   0.0009529   0.2678044   0.5485701  )
        24           O   tau(  24) = (  -0.0000591   0.7877061   0.4514814  )
        25           O   tau(  25) = (   0.7014582   0.2649885   0.7495665  )
        26           O   tau(  26) = (   0.2985418   0.7938857   0.2510748  )
        27           O   tau(  27) = (   0.7985418   0.2622973   0.2495407  )
        28           O   tau(  28) = (   0.2014582   0.7879717   0.7511006  )
        29           O   tau(  29) = (   0.2985418   0.2649885   0.7505109  )
        30           O   tau(  30) = (   0.7014582   0.7938857   0.2489510  )
        31           O   tau(  31) = (   0.2014582   0.2622973   0.2504851  )
        32           O   tau(  32) = (   0.7985418   0.7879717   0.7489768  )

     number of k points=    64  gaussian smearing, width (Ry)=  0.0007
                       cart. coord. in units 2pi/alat
        k(    1) = (   0.0000000   0.0000000   0.0000000), wk =   0.0092593
        k(    2) = (   0.0000000   0.0000000   0.1666581), wk =   0.0185185
        k(    3) = (   0.0000000   0.0000000   0.3333161), wk =   0.0185185
        k(    4) = (   0.0000000   0.0000000  -0.4999742), wk =   0.0092593
        k(    5) = (   0.0000000   0.1580421   0.0000000), wk =   0.0185185
        k(    6) = (   0.0000000   0.1580421   0.1666581), wk =   0.0370370
        k(    7) = (   0.0000000   0.1580421   0.3333161), wk =   0.0370370
        k(    8) = (   0.0000000   0.1580421  -0.4999742), wk =   0.0185185
        k(    9) = (   0.0000000   0.3160841   0.0000000), wk =   0.0185185
        k(   10) = (   0.0000000   0.3160841   0.1666581), wk =   0.0370370
        k(   11) = (   0.0000000   0.3160841   0.3333161), wk =   0.0370370
        k(   12) = (   0.0000000   0.3160841  -0.4999742), wk =   0.0185185
        k(   13) = (   0.0000000  -0.4741262   0.0000000), wk =   0.0092593
        k(   14) = (   0.0000000  -0.4741262   0.1666581), wk =   0.0185185
        k(   15) = (   0.0000000  -0.4741262   0.3333161), wk =   0.0185185
        k(   16) = (   0.0000000  -0.4741262  -0.4999742), wk =   0.0092593
        k(   17) = (   0.1666667   0.0000000   0.0000000), wk =   0.0185185
        k(   18) = (   0.1666667   0.0000000   0.1666581), wk =   0.0370370
        k(   19) = (   0.1666667   0.0000000   0.3333161), wk =   0.0370370
        k(   20) = (   0.1666667   0.0000000  -0.4999742), wk =   0.0185185
        k(   21) = (   0.1666667   0.1580421   0.0000000), wk =   0.0370370
        k(   22) = (   0.1666667   0.1580421   0.1666581), wk =   0.0740741
        k(   23) = (   0.1666667   0.1580421   0.3333161), wk =   0.0740741
        k(   24) = (   0.1666667   0.1580421  -0.4999742), wk =   0.0370370
        k(   25) = (   0.1666667   0.3160841   0.0000000), wk =   0.0370370
        k(   26) = (   0.1666667   0.3160841   0.1666581), wk =   0.0740741
        k(   27) = (   0.1666667   0.3160841   0.3333161), wk =   0.0740741
        k(   28) = (   0.1666667   0.3160841  -0.4999742), wk =   0.0370370
        k(   29) = (   0.1666667  -0.4741262   0.0000000), wk =   0.0185185
        k(   30) = (   0.1666667  -0.4741262   0.1666581), wk =   0.0370370
        k(   31) = (   0.1666667  -0.4741262   0.3333161), wk =   0.0370370
        k(   32) = (   0.1666667  -0.4741262  -0.4999742), wk =   0.0185185
        k(   33) = (   0.3333333   0.0000000   0.0000000), wk =   0.0185185
        k(   34) = (   0.3333333   0.0000000   0.1666581), wk =   0.0370370
        k(   35) = (   0.3333333   0.0000000   0.3333161), wk =   0.0370370
        k(   36) = (   0.3333333   0.0000000  -0.4999742), wk =   0.0185185
        k(   37) = (   0.3333333   0.1580421   0.0000000), wk =   0.0370370
        k(   38) = (   0.3333333   0.1580421   0.1666581), wk =   0.0740741
        k(   39) = (   0.3333333   0.1580421   0.3333161), wk =   0.0740741
        k(   40) = (   0.3333333   0.1580421  -0.4999742), wk =   0.0370370
        k(   41) = (   0.3333333   0.3160841   0.0000000), wk =   0.0370370
        k(   42) = (   0.3333333   0.3160841   0.1666581), wk =   0.0740741
        k(   43) = (   0.3333333   0.3160841   0.3333161), wk =   0.0740741
        k(   44) = (   0.3333333   0.3160841  -0.4999742), wk =   0.0370370
        k(   45) = (   0.3333333  -0.4741262   0.0000000), wk =   0.0185185
        k(   46) = (   0.3333333  -0.4741262   0.1666581), wk =   0.0370370
        k(   47) = (   0.3333333  -0.4741262   0.3333161), wk =   0.0370370
        k(   48) = (   0.3333333  -0.4741262  -0.4999742), wk =   0.0185185
        k(   49) = (  -0.5000000   0.0000000   0.0000000), wk =   0.0092593
        k(   50) = (  -0.5000000   0.0000000   0.1666581), wk =   0.0185185
        k(   51) = (  -0.5000000   0.0000000   0.3333161), wk =   0.0185185
        k(   52) = (  -0.5000000   0.0000000  -0.4999742), wk =   0.0092593
        k(   53) = (  -0.5000000   0.1580421   0.0000000), wk =   0.0185185
        k(   54) = (  -0.5000000   0.1580421   0.1666581), wk =   0.0370370
        k(   55) = (  -0.5000000   0.1580421   0.3333161), wk =   0.0370370
        k(   56) = (  -0.5000000   0.1580421  -0.4999742), wk =   0.0185185
        k(   57) = (  -0.5000000   0.3160841   0.0000000), wk =   0.0185185
        k(   58) = (  -0.5000000   0.3160841   0.1666581), wk =   0.0370370
        k(   59) = (  -0.5000000   0.3160841   0.3333161), wk =   0.0370370
        k(   60) = (  -0.5000000   0.3160841  -0.4999742), wk =   0.0185185
        k(   61) = (  -0.5000000  -0.4741262   0.0000000), wk =   0.0092593
        k(   62) = (  -0.5000000  -0.4741262   0.1666581), wk =   0.0185185
        k(   63) = (  -0.5000000  -0.4741262   0.3333161), wk =   0.0185185
        k(   64) = (  -0.5000000  -0.4741262  -0.4999742), wk =   0.0092593

     Dense  grid:   499205 G-vectors     FFT dimensions: ( 100, 108, 100)

     Estimated max dynamical RAM per process >       3.13 GB

     Estimated total dynamical RAM >     125.34 GB

     Initial potential from superposition of free atoms

     starting charge  367.99656, renormalised to  368.60000
     Starting wfc are  232 randomized atomic wfcs

     total cpu time spent up to now is       50.1 secs

     Self-consistent Calculation

     iteration #  1     ecut=   120.00 Ry     beta= 0.70
     Davidson diagonalization with overlap
     ethr =  1.00E-02,  avg # of iterations =  5.2

     total cpu time spent up to now is      216.8 secs

     total energy              =   -6253.44152007 Ry
     Harris-Foulkes estimate   =   -6264.27378233 Ry
     estimated scf accuracy    <      13.64547284 Ry

     iteration #  2     ecut=   120.00 Ry     beta= 0.70
     Davidson diagonalization with overlap
     ethr =  3.70E-03,  avg # of iterations =  3.6

     total cpu time spent up to now is      380.7 secs

     total energy              =   -6250.40426578 Ry
     Harris-Foulkes estimate   =   -6270.30105300 Ry
     estimated scf accuracy    <      52.93098979 Ry

     iteration #  3     ecut=   120.00 Ry     beta= 0.70
     Davidson diagonalization with overlap
     ethr =  3.70E-03,  avg # of iterations =  3.3

     total cpu time spent up to now is      534.3 secs

     total energy              =   -6260.67691180 Ry
     Harris-Foulkes estimate   =   -6260.94639087 Ry
     estimated scf accuracy    <       0.90429133 Ry

     iteration #  4     ecut=   120.00 Ry     beta= 0.70
     Davidson diagonalization with overlap
     ethr =  2.45E-04,  avg # of iterations =  3.1

     total cpu time spent up to now is      659.9 secs

     total energy              =   -6260.66795291 Ry
     Harris-Foulkes estimate   =   -6260.74203391 Ry
     estimated scf accuracy    <       0.22579860 Ry

     iteration #  5     ecut=   120.00 Ry     beta= 0.70
     Davidson diagonalization with overlap
     ethr =  6.13E-05,  avg # of iterations =  4.5

     total cpu time spent up to now is      794.4 secs

     total energy              =   -6260.67316205 Ry
     Harris-Foulkes estimate   =   -6260.70214035 Ry
     estimated scf accuracy    <       0.06518081 Ry

     iteration #  6     ecut=   120.00 Ry     beta= 0.70
     Davidson diagonalization with overlap
     ethr =  1.77E-05,  avg # of iterations =  5.1

     total cpu time spent up to now is      941.1 secs

     total energy              =   -6260.68697939 Ry
     Harris-Foulkes estimate   =   -6260.68976940 Ry
     estimated scf accuracy    <       0.00713255 Ry

     iteration #  7     ecut=   120.00 Ry     beta= 0.70
     Davidson diagonalization with overlap
     ethr =  1.94E-06,  avg # of iterations =  6.0

     total cpu time spent up to now is     1078.1 secs

     total energy              =   -6260.68799218 Ry
     Harris-Foulkes estimate   =   -6260.68806124 Ry
     estimated scf accuracy    <       0.00012153 Ry

     iteration #  8     ecut=   120.00 Ry     beta= 0.70
     Davidson diagonalization with overlap
     ethr =  3.30E-08,  avg # of iterations =  3.3

     total cpu time spent up to now is     1247.7 secs

     total energy              =   -6260.68804035 Ry
     Harris-Foulkes estimate   =   -6260.68807671 Ry
     estimated scf accuracy    <       0.00015337 Ry

     iteration #  9     ecut=   120.00 Ry     beta= 0.70
     Davidson diagonalization with overlap
     ethr =  3.30E-08,  avg # of iterations =  2.0

     total cpu time spent up to now is     1366.1 secs

     total energy              =   -6260.68805241 Ry
     Harris-Foulkes estimate   =   -6260.68806161 Ry
     estimated scf accuracy    <       0.00004414 Ry

     iteration # 10     ecut=   120.00 Ry     beta= 0.70
     Davidson diagonalization with overlap
     ethr =  1.20E-08,  avg # of iterations =  1.2

     total cpu time spent up to now is     1483.8 secs

     total energy              =   -6260.68804819 Ry
     Harris-Foulkes estimate   =   -6260.68805473 Ry
     estimated scf accuracy    <       0.00001520 Ry

     iteration # 11     ecut=   120.00 Ry     beta= 0.70
     Davidson diagonalization with overlap
     ethr =  4.12E-09,  avg # of iterations =  2.9

     total cpu time spent up to now is     1611.2 secs

     total energy              =   -6260.68805141 Ry
     Harris-Foulkes estimate   =   -6260.68805156 Ry
     estimated scf accuracy    <       0.00000046 Ry

     iteration # 12     ecut=   120.00 Ry     beta= 0.70
     Davidson diagonalization with overlap
     ethr =  1.24E-10,  avg # of iterations =  2.2

     total cpu time spent up to now is     1756.5 secs

     total energy              =   -6260.68805148 Ry
     Harris-Foulkes estimate   =   -6260.68805152 Ry
     estimated scf accuracy    <       0.00000014 Ry

     iteration # 13     ecut=   120.00 Ry     beta= 0.70
     Davidson diagonalization with overlap
     ethr =  3.78E-11,  avg # of iterations =  1.5

     total cpu time spent up to now is     1872.3 secs

     total energy              =   -6260.68805146 Ry
     Harris-Foulkes estimate   =   -6260.68805148 Ry
     estimated scf accuracy    <       0.00000004 Ry

     iteration # 14     ecut=   120.00 Ry     beta= 0.70
     Davidson diagonalization with overlap
     ethr =  1.20E-11,  avg # of iterations =  3.0

     total cpu time spent up to now is     2030.7 secs

     End of self-consistent calculation

          k = 0.0000 0.0000 0.0000 ( 62335 PWs)   bands (ev):

   -66.0746 -66.0742 -66.0736 -66.0736 -66.0732 -66.0732 -66.0726 -66.0722
   -30.5158 -30.5124 -30.5123 -30.5090 -30.4552 -30.4521 -30.4521 -30.4492
   -30.4141 -30.4133 -30.4102 -30.4096 -30.4085 -30.4084 -30.4048 -30.4046
   -30.3134 -30.3132 -30.3101 -30.3100 -30.3093 -30.3085 -30.3061 -30.3054
   -20.2269 -20.2267 -20.2266 -20.2264 -20.2238 -20.2237 -20.2237 -20.2237
   -20.2236 -20.2236 -20.2236 -20.2235 -20.2214 -20.2211 -20.2211 -20.2208
   -20.2149 -20.2148 -20.2146 -20.2146 -20.2136 -20.2136 -20.2136 -20.2135
   -20.2119 -20.2118 -20.2118 -20.2118 -20.2108 -20.2107 -20.2106 -20.2105
   -20.2005 -20.2004 -20.2001 -20.2001 -20.2000 -20.2000 -20.1997 -20.1996
   -20.1725 -20.1724 -20.1724 -20.1723 -20.1710 -20.1709 -20.1709 -20.1709
   -20.1664 -20.1663 -20.1663 -20.1663 -20.1650 -20.1648 -20.1648 -20.1648
    -9.9474  -9.6544  -9.5191  -9.5191  -9.2297  -9.2293  -9.1156  -9.0327
    -9.0198  -8.9021  -8.8696  -8.8695  -7.8801  -7.8207  -7.8204  -7.7688
    -7.7580  -7.7568  -7.7313  -7.7295  -7.6120  -7.6117  -7.5894  -7.5893
     1.2199   1.2201   1.2908   1.2913   1.3165   1.3174   1.3554   1.5960
     1.6024   1.6030   1.6498   1.8503   2.4199   2.4972   2.5598   2.5618
     2.7084   2.7090   4.1522   4.1533   4.3702   4.3720   4.8055   4.8116
     4.8536   4.8546   4.8830   4.8832   5.0038   5.0038   5.0567   5.4229
     5.4243   5.4972   5.5006   5.5321   5.5321   5.5622   5.5651   5.8122
     5.8137   5.8636   5.8639   5.9116   5.9438   6.0644   6.0655   6.1327
     6.1329   6.2621   6.2630   6.5468   6.5471   6.7942   6.7958   6.8330
     6.8340   6.8683   7.0160   7.0170   7.0812   7.0821   7.3916   7.3928
     7.4293   7.4304   7.8322   7.8466   8.0638   8.0656   8.1304   8.1339
     9.2964   9.2997   9.9712   9.9722  10.0011  10.0018  12.2977  12.3030
    12.3178  12.3249  12.3769  12.3790  12.5189  12.5227  12.9568  12.9734
    13.2304  13.2437  13.4025  13.4040  13.8174  14.1624  14.1744  14.1747
    14.1869  14.3879  14.3990  14.8295  15.4469  15.4582  15.4998  16.0889
    16.0900  16.8491  17.0734  17.0749  17.4105

          k = 0.0000 0.0000 0.1667 ( 62411 PWs)   bands (ev):

   -66.0746 -66.0741 -66.0737 -66.0736 -66.0733 -66.0731 -66.0727 -66.0723
   -30.5157 -30.5127 -30.5122 -30.5093 -30.4552 -30.4524 -30.4521 -30.4495
   -30.4133 -30.4096 -30.4087 -30.4068 -30.4050 -30.4033 -30.4017 -30.3982
   -30.3201 -30.3169 -30.3157 -30.3129 -30.3125 -30.3097 -30.3091 -30.3059
   -20.2269 -20.2267 -20.2266 -20.2264 -20.2238 -20.2237 -20.2237 -20.2237
   -20.2236 -20.2236 -20.2236 -20.2235 -20.2214 -20.2211 -20.2211 -20.2208
   -20.2148 -20.2146 -20.2146 -20.2144 -20.2136 -20.2136 -20.2134 -20.2134
   -20.2120 -20.2120 -20.2119 -20.2118 -20.2109 -20.2108 -20.2107 -20.2106
   -20.2005 -20.2004 -20.2001 -20.2001 -20.2000 -20.1999 -20.1997 -20.1996
   -20.1723 -20.1723 -20.1721 -20.1720 -20.1710 -20.1710 -20.1706 -20.1705
   -20.1669 -20.1667 -20.1662 -20.1662 -20.1654 -20.1652 -20.1649 -20.1649
    -9.9015  -9.6007  -9.5354  -9.4607  -9.2432  -9.1398  -9.1239  -8.9948
    -8.9781  -8.8885  -8.8739  -8.8361  -7.8849  -7.8750  -7.8642  -7.8243
    -7.8116  -7.7722  -7.7463  -7.7420  -7.7238  -7.7207  -7.6211  -7.5984
     1.2906   1.2932   1.3097   1.3235   1.4231   1.4586   1.5754   1.5887
     1.5973   1.6951   1.8235   1.9769   2.5063   2.5700   2.5882   2.6494
     2.6998   2.7978   4.0865   4.1549   4.3594   4.3781   4.3912   4.4911
     4.6438   4.7610   4.8010   4.9216   4.9343   4.9923   5.0391   5.2987
     5.3311   5.4094   5.4867   5.5302   5.5408   5.5819   5.6009   5.6291
     5.7470   5.7478   5.8012   5.9104   5.9577   6.1007   6.1257   6.1304
     6.2816   6.4323   6.4993   6.5361   6.6571   6.6885   6.7655   6.8257
     6.8280   6.8427   6.9694   7.0009   7.0183   7.0908   7.1642   7.1674
     7.2114   7.2692   7.8443   7.8479   8.0244   8.0807   8.0896   8.1322
     9.6424   9.6731   9.9732   9.9989  10.2371  10.2848  12.2292  12.2738
    12.2888  12.3587  12.3824  12.4058  12.5238  12.6174  12.9576  12.9981
    13.0535  13.2317  13.3042  13.4029  13.9362  14.0395  14.0486  14.1610
    14.1845  14.3930  14.5089  14.9400  15.4655  15.4823  15.5118  16.0621
    16.4038  16.7875  17.0205  17.2625  17.4595

          k = 0.0000 0.0000 0.3333 ( 62422 PWs)   bands (ev):

   -66.0744 -66.0739 -66.0739 -66.0735 -66.0734 -66.0730 -66.0729 -66.0725
   -30.5152 -30.5134 -30.5118 -30.5101 -30.4548 -30.4531 -30.4518 -30.4502
   -30.4123 -30.4097 -30.4086 -30.4059 -30.3884 -30.3850 -30.3834 -30.3800
   -30.3384 -30.3352 -30.3339 -30.3306 -30.3121 -30.3099 -30.3089 -30.3067
   -20.2269 -20.2267 -20.2266 -20.2265 -20.2238 -20.2237 -20.2237 -20.2237
   -20.2236 -20.2236 -20.2236 -20.2235 -20.2214 -20.2212 -20.2211 -20.2209
   -20.2148 -20.2147 -20.2142 -20.2139 -20.2137 -20.2134 -20.2130 -20.2128
   -20.2125 -20.2124 -20.2120 -20.2117 -20.2114 -20.2111 -20.2107 -20.2106
   -20.2004 -20.2003 -20.2002 -20.2001 -20.2000 -20.1998 -20.1998 -20.1996
   -20.1720 -20.1720 -20.1713 -20.1712 -20.1711 -20.1709 -20.1696 -20.1694
   -20.1680 -20.1679 -20.1666 -20.1664 -20.1659 -20.1659 -20.1652 -20.1652
    -9.7905  -9.5856  -9.4772  -9.3274  -9.2858  -9.1522  -8.9302  -8.8860
    -8.8836  -8.8303  -8.7873  -8.7078  -8.1823  -8.1783  -8.0838  -8.0660
    -7.8576  -7.8342  -7.8055  -7.7813  -7.7187  -7.6946  -7.6467  -7.6237
     1.2981   1.3068   1.3396   1.3636   1.5383   1.5424   1.5726   1.5864
     2.2702   2.3045   2.4679   2.5453   2.5953   2.6898   2.7564   2.8544
     2.8913   3.0363   3.7717   3.8281   3.8676   3.9764   4.1533   4.2822
     4.3150   4.5051   4.5615   4.7699   4.7908   4.8201   4.9536   4.9830
     5.1606   5.1823   5.1929   5.3349   5.4416   5.4826   5.6152   5.6429
     5.6982   5.7301   5.7728   5.9724   5.9831   6.1750   6.2733   6.2875
     6.3083   6.3735   6.5000   6.5185   6.5694   6.5708   6.6759   6.7321
     6.8195   6.8517   6.8564   6.9955   7.0288   7.0455   7.0849   7.1247
     7.3080   7.3415   7.7720   7.7941   7.9001   7.9508   8.1157   8.1338
     9.9748   9.9924  10.3649  10.4327  10.8578  10.9618  11.8489  11.8930
    12.0936  12.4998  12.5057  12.5106  12.5531  12.6133  12.7115  12.8805
    12.9640  13.1330  13.1737  13.4106  13.6979  13.7147  14.1259  14.1569
    14.2354  14.3738  14.8290  15.2334  15.3552  15.6338  15.8994  15.9766
    16.2301  17.2534  17.3793  17.5626  17.6022

          k = 0.0000 0.0000-0.5000 ( 62428 PWs)   bands (ev):

   -66.0741 -66.0741 -66.0737 -66.0737 -66.0731 -66.0731 -66.0727 -66.0727
   -30.5144 -30.5144 -30.5110 -30.5110 -30.4541 -30.4541 -30.4511 -30.4511
   -30.4110 -30.4110 -30.4072 -30.4072 -30.3634 -30.3634 -30.3601 -30.3601
   -30.3586 -30.3586 -30.3553 -30.3553 -30.3110 -30.3110 -30.3078 -30.3078
   -20.2268 -20.2268 -20.2266 -20.2266 -20.2238 -20.2238 -20.2237 -20.2237
   -20.2237 -20.2237 -20.2235 -20.2235 -20.2213 -20.2213 -20.2210 -20.2210
   -20.2147 -20.2147 -20.2138 -20.2138 -20.2132 -20.2132 -20.2130 -20.2130
   -20.2124 -20.2124 -20.2121 -20.2121 -20.2115 -20.2115 -20.2107 -20.2107
   -20.2003 -20.2003 -20.2002 -20.2002 -20.1999 -20.1999 -20.1997 -20.1997
   -20.1716 -20.1716 -20.1716 -20.1716 -20.1696 -20.1696 -20.1694 -20.1694
   -20.1681 -20.1681 -20.1679 -20.1679 -20.1656 -20.1656 -20.1655 -20.1655
    -9.6726  -9.6726  -9.3616  -9.3616  -9.2134  -9.2134  -8.9035  -8.9035
    -8.5466  -8.5466  -8.5252  -8.5252  -8.5042  -8.5042  -8.4351  -8.4351
    -7.8473  -7.8473  -7.7936  -7.7936  -7.6823  -7.6823  -7.6588  -7.6588
     1.3038   1.3039   1.3583   1.3583   1.5564   1.5564   1.5747   1.5747
     2.6280   2.6280   2.9897   2.9897   3.1375   3.1375   3.1437   3.1437
     3.2887   3.2887   3.3579   3.3579   3.4701   3.4701   3.7752   3.7752
     3.8748   3.8748   4.4405   4.4405   4.7228   4.7228   4.8969   4.8969
     5.2286   5.2286   5.3315   5.3315   5.3351   5.3351   5.6598   5.6598
     5.7251   5.7251   5.9146   5.9146   6.1684   6.1684   6.2388   6.2388
     6.3375   6.3375   6.4402   6.4402   6.4644   6.4644   6.5312   6.5312
     6.7866   6.7866   6.8218   6.8218   7.0658   7.0658   7.4936   7.4936
     7.5601   7.5601   7.6798   7.6798   7.6975   7.6975   8.1313   8.1313
     9.9834   9.9834  11.1634  11.1634  11.2310  11.2310  11.5607  11.5607
    11.7637  11.7637  12.5638  12.5638  12.7289  12.7289  12.8228  12.8228
    12.9427  12.9427  13.2760  13.2760  13.4652  13.4652  14.1504  14.1504
    14.3315  14.3315  15.1468  15.1468  15.6748  15.6748  15.8300  15.8300
    16.6539  16.6539  17.7808  17.7808  18.1211

          k = 0.0000 0.1580 0.0000 ( 62375 PWs)   bands (ev):

   -66.0746 -66.0742 -66.0736 -66.0736 -66.0732 -66.0732 -66.0726 -66.0722
   -30.5118 -30.5084 -30.5083 -30.5050 -30.4592 -30.4562 -30.4561 -30.4532
   -30.4139 -30.4131 -30.4104 -30.4099 -30.4083 -30.4082 -30.4050 -30.4048
   -30.3132 -30.3130 -30.3103 -30.3102 -30.3091 -30.3084 -30.3062 -30.3056
   -20.2266 -20.2263 -20.2263 -20.2260 -20.2238 -20.2237 -20.2237 -20.2237
   -20.2236 -20.2236 -20.2236 -20.2235 -20.2218 -20.2215 -20.2215 -20.2212
   -20.2148 -20.2147 -20.2146 -20.2145 -20.2137 -20.2137 -20.2137 -20.2136
   -20.2118 -20.2117 -20.2117 -20.2117 -20.2109 -20.2108 -20.2107 -20.2106
   -20.2005 -20.2004 -20.2001 -20.2001 -20.2000 -20.2000 -20.1997 -20.1996
   -20.1725 -20.1724 -20.1724 -20.1723 -20.1710 -20.1709 -20.1709 -20.1709
   -20.1664 -20.1663 -20.1663 -20.1663 -20.1650 -20.1648 -20.1648 -20.1648
    -9.9172  -9.6660  -9.4806  -9.4805  -9.2373  -9.2369  -9.0411  -9.0319
    -9.0207  -8.8564  -8.8325  -8.8324  -7.9762  -7.9216  -7.9213  -7.8768
    -7.7565  -7.7551  -7.7331  -7.7314  -7.6106  -7.6104  -7.5909  -7.5908
     1.2199   1.2201   1.3037   1.3044   1.3165   1.3174   1.4933   1.6491
     1.7796   1.8331   1.8336   2.0139   2.4249   2.4918   2.6319   2.6340
     2.7767   2.7774   4.0164   4.0177   4.0972   4.0987   4.7909   4.8551
     4.8568   4.8729   4.8755   4.8766   4.8915   4.9522   4.9523   5.2642
     5.2652   5.4437   5.4440   5.5943   5.6229   5.6235   5.6310   5.6369
     5.7928   5.7935   5.8774   5.8782   5.9512   6.0653   6.0662   6.1385
     6.1393   6.2555   6.2570   6.5691   6.5698   6.8253   6.8265   6.8292
     6.8655   6.8683   6.8796   6.9978   6.9981   7.0077   7.3990   7.4001
     7.4292   7.4301   7.8368   7.8459   8.0221   8.0236   8.0499   8.0523
     9.2966   9.2996  10.1744  10.1746  10.1763  10.1764  12.1836  12.1857
    12.3261  12.3272  12.3620  12.3653  12.3755  12.3768  12.9593  12.9732
    13.2665  13.2779  13.4096  13.4109  14.0468  14.0751  14.0816  14.0861
    14.1830  14.6615  14.6650  15.0021  15.4472  15.4567  15.9029  16.0550
    16.0560  16.5217  17.2079  17.2094  17.4751

          k = 0.0000 0.1580 0.1667 ( 62373 PWs)   bands (ev):

   -66.0745 -66.0742 -66.0737 -66.0735 -66.0733 -66.0732 -66.0727 -66.0723
   -30.5116 -30.5087 -30.5082 -30.5053 -30.4592 -30.4565 -30.4562 -30.4535
   -30.4131 -30.4098 -30.4085 -30.4066 -30.4052 -30.4035 -30.4015 -30.3984
   -30.3200 -30.3170 -30.3155 -30.3127 -30.3126 -30.3099 -30.3089 -30.3061
   -20.2266 -20.2263 -20.2263 -20.2260 -20.2238 -20.2237 -20.2237 -20.2237
   -20.2236 -20.2236 -20.2236 -20.2235 -20.2218 -20.2215 -20.2215 -20.2212
   -20.2147 -20.2146 -20.2145 -20.2143 -20.2137 -20.2137 -20.2135 -20.2134
   -20.2119 -20.2119 -20.2118 -20.2117 -20.2110 -20.2109 -20.2108 -20.2107
   -20.2005 -20.2004 -20.2001 -20.2001 -20.2000 -20.1999 -20.1997 -20.1996
   -20.1723 -20.1723 -20.1721 -20.1720 -20.1710 -20.1710 -20.1706 -20.1705
   -20.1669 -20.1667 -20.1662 -20.1662 -20.1654 -20.1652 -20.1649 -20.1649
    -9.8701  -9.6123  -9.4970  -9.4174  -9.2511  -9.1475  -9.0495  -8.9928
    -8.9790  -8.8451  -8.8367  -8.8038  -7.9757  -7.9330  -7.9201  -7.8835
    -7.8771  -7.8510  -7.7450  -7.7407  -7.7237  -7.7211  -7.6197  -7.6000
     1.3038   1.3088   1.3099   1.3235   1.5310   1.5751   1.5882   1.7882
     1.8223   1.8291   1.8598   2.0818   2.5124   2.5823   2.6418   2.7234
     2.7687   2.8660   3.9846   4.0346   4.0885   4.1332   4.4122   4.4888
     4.6847   4.6954   4.7822   4.8712   4.9131   4.9319   4.9611   5.2232
     5.2438   5.2833   5.3100   5.4678   5.5731   5.5784   5.6236   5.6789
     5.7243   5.7499   5.8132   5.8483   5.8649   6.1239   6.1275   6.1451
     6.2169   6.4198   6.4736   6.5587   6.6979   6.7669   6.7810   6.8106
     6.8354   6.8765   6.9494   6.9654   7.0055   7.0131   7.1642   7.1674
     7.2261   7.2689   7.8468   7.8476   7.9844   8.0137   8.0249   8.0518
     9.6481   9.6721  10.1749  10.1777  10.4067  10.4276  12.1655  12.2429
    12.2623  12.2774  12.3612  12.3664  12.3787  12.5010  12.9600  13.0067
    13.0841  13.2649  13.3096  13.4077  13.9273  13.9561  14.0629  14.0796
    14.2942  14.6596  14.8091  15.0984  15.4817  15.5119  15.8689  16.0285
    16.3676  16.6758  16.9125  17.3770  17.5436

          k = 0.0000 0.1580 0.3333 ( 62420 PWs)   bands (ev):

   -66.0743 -66.0740 -66.0738 -66.0735 -66.0734 -66.0730 -66.0729 -66.0725
   -30.5112 -30.5094 -30.5078 -30.5061 -30.4589 -30.4572 -30.4559 -30.4542
   -30.4121 -30.4095 -30.4088 -30.4062 -30.3882 -30.3852 -30.3832 -30.3802
   -30.3383 -30.3353 -30.3337 -30.3307 -30.3119 -30.3097 -30.3091 -30.3069
   -20.2265 -20.2264 -20.2263 -20.2261 -20.2238 -20.2237 -20.2237 -20.2237
   -20.2236 -20.2236 -20.2236 -20.2235 -20.2218 -20.2216 -20.2214 -20.2213
   -20.2147 -20.2146 -20.2141 -20.2138 -20.2137 -20.2135 -20.2130 -20.2129
   -20.2124 -20.2124 -20.2120 -20.2117 -20.2115 -20.2112 -20.2108 -20.2107
   -20.2004 -20.2003 -20.2002 -20.2001 -20.2000 -20.1999 -20.1998 -20.1997
   -20.1720 -20.1720 -20.1713 -20.1712 -20.1711 -20.1709 -20.1696 -20.1694
   -20.1680 -20.1679 -20.1666 -20.1664 -20.1659 -20.1659 -20.1652 -20.1652
    -9.7562  -9.5477  -9.4883  -9.2943  -9.2701  -9.0782  -8.9073  -8.8918
    -8.8488  -8.8320  -8.7678  -8.6894  -8.1874  -8.1784  -8.1026  -8.0642
    -7.9481  -7.9294  -7.9049  -7.8772  -7.7173  -7.6963  -7.6454  -7.6253
     1.3209   1.3396   1.3417   1.3636   1.7214   1.7432   1.8206   1.8273
     2.2687   2.3153   2.4706   2.5624   2.6666   2.7510   2.7665   2.8519
     2.9670   3.0979   3.7707   3.8282   3.8623   3.9235   4.1049   4.1400
     4.2130   4.3354   4.5797   4.7247   4.7783   4.7987   4.8065   4.8528
     5.0025   5.1319   5.1520   5.1755   5.3501   5.4048   5.4965   5.5981
     5.6750   5.7221   5.7732   5.8255   5.9584   6.1410   6.2122   6.2718
     6.3324   6.5214   6.5474   6.5683   6.6497   6.6565   6.6993   6.8005
     6.8095   6.8192   6.9214   6.9580   6.9970   7.0291   7.0682   7.1133
     7.3010   7.3358   7.7760   7.7922   7.8656   7.8920   8.0440   8.0543
    10.1726  10.1766  10.3743  10.4337  10.9740  11.0538  11.8508  11.8907
    12.0577  12.3777  12.4734  12.5080  12.5308  12.5620  12.6602  12.7724
    12.9526  13.1362  13.1946  13.4065  13.5997  13.6227  14.0665  14.0756
    14.5087  14.6425  15.1758  15.3665  15.6229  15.7598  15.9170  15.9453
    16.3569  17.1278  17.2092  17.4321  17.7805

          k = 0.0000 0.1580-0.5000 ( 62392 PWs)   bands (ev):

   -66.0741 -66.0741 -66.0737 -66.0737 -66.0731 -66.0731 -66.0727 -66.0727
   -30.5104 -30.5104 -30.5070 -30.5070 -30.4581 -30.4581 -30.4551 -30.4551
   -30.4108 -30.4108 -30.4075 -30.4075 -30.3633 -30.3633 -30.3603 -30.3603
   -30.3585 -30.3585 -30.3555 -30.3555 -30.3108 -30.3108 -30.3080 -30.3080
   -20.2265 -20.2265 -20.2262 -20.2262 -20.2238 -20.2238 -20.2237 -20.2237
   -20.2237 -20.2237 -20.2235 -20.2235 -20.2217 -20.2217 -20.2214 -20.2214
   -20.2146 -20.2146 -20.2138 -20.2138 -20.2131 -20.2131 -20.2130 -20.2130
   -20.2124 -20.2124 -20.2122 -20.2122 -20.2115 -20.2115 -20.2108 -20.2108
   -20.2003 -20.2003 -20.2002 -20.2002 -20.1999 -20.1999 -20.1997 -20.1997
   -20.1716 -20.1716 -20.1716 -20.1716 -20.1696 -20.1696 -20.1694 -20.1694
   -20.1681 -20.1681 -20.1679 -20.1679 -20.1656 -20.1656 -20.1655 -20.1655
    -9.6358  -9.6358  -9.3713  -9.3713  -9.1433  -9.1433  -8.8680  -8.8680
    -8.5502  -8.5502  -8.5209  -8.5209  -8.5136  -8.5136  -8.4295  -8.4295
    -7.9424  -7.9424  -7.8937  -7.8937  -7.6810  -7.6810  -7.6604  -7.6604
     1.3353   1.3353   1.3582   1.3582   1.7441   1.7441   1.8299   1.8299
     2.6966   2.6966   3.0072   3.0072   3.1300   3.1300   3.1907   3.1907
     3.2945   3.2945   3.3553   3.3553   3.4588   3.4589   3.7771   3.7771
     3.9231   3.9231   4.2388   4.2388   4.6411   4.6412   4.7258   4.7258
     5.0490   5.0490   5.3009   5.3009   5.3086   5.3086   5.4748   5.4748
     5.6821   5.6821   5.8011   5.8011   6.1707   6.1707   6.3142   6.3142
     6.3548   6.3548   6.4620   6.4620   6.5196   6.5196   6.6483   6.6483
     6.8433   6.8433   6.8476   6.8476   6.9793   6.9793   7.5035   7.5035
     7.5542   7.5542   7.6530   7.6530   7.6691   7.6692   8.0540   8.0540
    10.1767  10.1767  11.1692  11.1692  11.2286  11.2286  11.6267  11.6267
    11.8252  11.8252  12.4309  12.4309  12.7024  12.7024  12.8306  12.8306
    12.8846  12.8846  13.1777  13.1777  13.4324  13.4324  14.0706  14.0706
    14.6056  14.6056  15.5176  15.5176  15.8043  15.8043  15.8202  15.8202
    16.6949  16.6949  17.5844  17.5844  18.1078

          k = 0.0000 0.3161 0.0000 ( 62351 PWs)   bands (ev):

   -66.0745 -66.0743 -66.0735 -66.0735 -66.0733 -66.0733 -66.0725 -66.0723
   -30.5007 -30.4974 -30.4974 -30.4941 -30.4703 -30.4673 -30.4672 -30.4642
   -30.4133 -30.4127 -30.4110 -30.4105 -30.4078 -30.4076 -30.4055 -30.4054
   -30.3128 -30.3126 -30.3107 -30.3106 -30.3087 -30.3081 -30.3065 -30.3060
   -20.2256 -20.2253 -20.2253 -20.2250 -20.2238 -20.2237 -20.2237 -20.2237
   -20.2236 -20.2236 -20.2236 -20.2235 -20.2228 -20.2225 -20.2225 -20.2222
   -20.2145 -20.2145 -20.2144 -20.2143 -20.2139 -20.2139 -20.2138 -20.2138
   -20.2116 -20.2116 -20.2115 -20.2115 -20.2111 -20.2110 -20.2109 -20.2108
   -20.2005 -20.2004 -20.2001 -20.2001 -20.2000 -20.2000 -20.1997 -20.1996
   -20.1725 -20.1724 -20.1724 -20.1723 -20.1710 -20.1709 -20.1709 -20.1709
   -20.1664 -20.1663 -20.1663 -20.1663 -20.1650 -20.1648 -20.1648 -20.1648
    -9.8438  -9.7019  -9.3931  -9.3930  -9.2624  -9.2620  -9.0295  -9.0231
    -8.8307  -8.7136  -8.7054  -8.7054  -8.2207  -8.1752  -8.1750  -8.1508
    -7.7519  -7.7503  -7.7380  -7.7364  -7.6067  -7.6065  -7.5949  -7.5948
     1.2199   1.2200   1.3121   1.3130   1.3167   1.3174   1.6106   1.6462
     2.3482   2.4387   2.4773   2.4940   2.4948   2.6598   2.8440   2.8473
     2.9765   2.9779   3.6231   3.6249   3.6705   3.6721   4.1294   4.4465
     4.4477   4.7195   4.8611   4.8632   4.8859   4.8880   5.0115   5.0125
     5.0425   5.0439   5.3506   5.3513   5.5694   5.5699   5.6795   5.6803
     5.8516   5.8519   5.9033   5.9043   6.0558   6.0567   6.0658   6.1570
     6.1588   6.2271   6.2294   6.5148   6.6324   6.6331   6.8535   6.8541
     6.9078   6.9820   7.0761   7.0765   7.0886   7.0890   7.4082   7.4088
     7.4310   7.4316   7.8108   7.8127   7.8428   7.8458   7.8461   7.8468
     9.2971   9.2990  10.6404  10.6414  10.6855  10.6868  11.8034  11.8057
    11.9302  11.9328  12.3494  12.3509  12.3723  12.3734  12.9645  12.9720
    13.3804  13.3875  13.4733  13.4745  13.8352  13.8376  13.8655  13.8674
    14.7707  15.2364  15.2371  15.4483  15.4535  15.6241  15.9397  15.9403
    15.9463  16.9047  17.2274  17.6697  17.6709

          k = 0.0000 0.3161 0.1667 ( 62383 PWs)   bands (ev):

   -66.0745 -66.0742 -66.0736 -66.0735 -66.0734 -66.0732 -66.0726 -66.0724
   -30.5006 -30.4977 -30.4973 -30.4944 -30.4703 -30.4675 -30.4672 -30.4645
   -30.4126 -30.4103 -30.4080 -30.4062 -30.4058 -30.4040 -30.4011 -30.3988
   -30.3196 -30.3174 -30.3152 -30.3130 -30.3123 -30.3103 -30.3085 -30.3065
   -20.2256 -20.2253 -20.2253 -20.2250 -20.2238 -20.2237 -20.2237 -20.2237
   -20.2236 -20.2236 -20.2236 -20.2235 -20.2228 -20.2225 -20.2225 -20.2222
   -20.2145 -20.2144 -20.2143 -20.2141 -20.2139 -20.2138 -20.2137 -20.2136
   -20.2118 -20.2117 -20.2116 -20.2116 -20.2112 -20.2111 -20.2110 -20.2109
   -20.2005 -20.2004 -20.2001 -20.2001 -20.2001 -20.2000 -20.1997 -20.1996
   -20.1723 -20.1723 -20.1721 -20.1720 -20.1710 -20.1710 -20.1706 -20.1705
   -20.1669 -20.1667 -20.1662 -20.1662 -20.1654 -20.1652 -20.1649 -20.1649
    -9.7938  -9.6485  -9.4094  -9.3181  -9.2768  -9.1735  -8.9891  -8.9815
    -8.8388  -8.7099  -8.7068  -8.6884  -8.2209  -8.1826  -8.1717  -8.1566
    -7.8729  -7.8596  -7.7410  -7.7369  -7.7280  -7.7247  -7.6158  -7.6040
     1.3078   1.3100   1.3187   1.3235   1.5649   1.5746   1.7718   1.8193
     2.3504   2.4725   2.4951   2.5272   2.5673   2.6508   2.8533   2.9485
     2.9694   3.0735   3.6265   3.6619   3.6690   3.7129   4.1220   4.4079
     4.4428   4.4619   4.5156   4.7232   4.7439   4.8490   4.9149   4.9287
     5.0123   5.0565   5.1449   5.2861   5.3949   5.4471   5.5761   5.6194
     5.6694   5.7802   5.7865   5.8322   6.0453   6.1152   6.1347   6.1514
     6.2369   6.4323   6.4405   6.5758   6.6219   6.8382   6.8673   6.9171
     6.9572   6.9731   7.0570   7.0681   7.0850   7.0931   7.1664   7.1682
     7.2571   7.2749   7.7883   7.8103   7.8142   7.8293   7.8534   7.8545
     9.6573   9.6691  10.6463  10.6860  10.8253  10.8548  11.8044  11.8997
    11.9334  12.0094  12.2549  12.2726  12.4012  12.4317  12.9731  13.0092
    13.1991  13.3551  13.3779  13.4688  13.6843  13.7356  13.8353  13.8620
    14.9086  15.2287  15.4468  15.4791  15.5158  15.6919  15.9149  16.1079
    16.2430  16.8678  17.2942  17.3158  17.6640

          k = 0.0000 0.3161 0.3333 ( 62389 PWs)   bands (ev):

   -66.0743 -66.0740 -66.0738 -66.0736 -66.0733 -66.0731 -66.0728 -66.0726
   -30.5002 -30.4984 -30.4969 -30.4952 -30.4699 -30.4683 -30.4669 -30.4652
   -30.4116 -30.4094 -30.4090 -30.4067 -30.3879 -30.3857 -30.3829 -30.3806
   -30.3379 -30.3357 -30.3333 -30.3311 -30.3115 -30.3095 -30.3093 -30.3073
   -20.2256 -20.2254 -20.2253 -20.2251 -20.2238 -20.2237 -20.2237 -20.2237
   -20.2236 -20.2236 -20.2236 -20.2235 -20.2228 -20.2226 -20.2225 -20.2223
   -20.2145 -20.2144 -20.2140 -20.2139 -20.2137 -20.2136 -20.2132 -20.2131
   -20.2123 -20.2122 -20.2118 -20.2117 -20.2115 -20.2113 -20.2110 -20.2109
   -20.2004 -20.2003 -20.2002 -20.2001 -20.2000 -20.1999 -20.1998 -20.1997
   -20.1720 -20.1720 -20.1713 -20.1712 -20.1711 -20.1709 -20.1696 -20.1694
   -20.1680 -20.1679 -20.1666 -20.1664 -20.1659 -20.1659 -20.1652 -20.1652
    -9.6738  -9.5236  -9.4601  -9.3221  -9.1286  -8.9216  -8.8724  -8.8641
    -8.8371  -8.7239  -8.6721  -8.6161  -8.2577  -8.2522  -8.1761  -8.1717
    -8.1629  -8.1090  -8.0583  -8.0168  -7.7132  -7.7007  -7.6414  -7.6294
     1.3338   1.3395   1.3575   1.3635   2.1801   2.2638   2.2826   2.3692
     2.4678   2.4930   2.5050   2.7342   2.7958   2.8251   2.8754   2.9577
     3.1957   3.2886   3.6119   3.6322   3.7325   3.7557   3.8488   3.8619
     4.1011   4.2746   4.3744   4.3858   4.4814   4.5561   4.6289   4.7856
     4.7910   4.8099   4.9671   5.0356   5.1750   5.1845   5.1885   5.3462
     5.3640   5.5806   5.6251   5.7888   6.1394   6.1995   6.2249   6.2743
     6.4128   6.5852   6.6362   6.6594   6.6980   6.7961   6.8176   6.8377
     6.8985   6.9573   7.0161   7.0433   7.0585   7.1318   7.1531   7.1747
     7.2729   7.3215   7.7115   7.7239   7.7724   7.7848   7.8217   7.8432
    10.3926  10.4133  10.6634  10.6835  11.2891  11.3309  11.7902  11.8560
    11.8839  11.9644  12.1936  12.2384  12.5633  12.6275  12.6488  12.6973
    12.9015  13.1524  13.1753  13.3907  13.4633  13.4806  13.8391  13.8561
    15.0819  15.2021  15.5760  15.8385  15.8888  15.9722  16.0178  16.6155
    16.7402  16.7640  17.0547  17.5298  17.6277

          k = 0.0000 0.3161-0.5000 ( 62442 PWs)   bands (ev):

   -66.0740 -66.0740 -66.0738 -66.0738 -66.0730 -66.0730 -66.0728 -66.0728
   -30.4994 -30.4994 -30.4961 -30.4961 -30.4692 -30.4692 -30.4662 -30.4662
   -30.4103 -30.4103 -30.4081 -30.4080 -30.3629 -30.3629 -30.3607 -30.3607
   -30.3581 -30.3581 -30.3559 -30.3559 -30.3104 -30.3104 -30.3084 -30.3084
   -20.2255 -20.2255 -20.2252 -20.2252 -20.2238 -20.2238 -20.2237 -20.2237
   -20.2237 -20.2237 -20.2236 -20.2236 -20.2227 -20.2227 -20.2224 -20.2224
   -20.2144 -20.2144 -20.2139 -20.2139 -20.2130 -20.2130 -20.2129 -20.2129
   -20.2125 -20.2125 -20.2124 -20.2124 -20.2115 -20.2115 -20.2110 -20.2110
   -20.2003 -20.2003 -20.2002 -20.2002 -20.1999 -20.1999 -20.1998 -20.1998
   -20.1716 -20.1716 -20.1716 -20.1716 -20.1696 -20.1696 -20.1694 -20.1694
   -20.1681 -20.1681 -20.1679 -20.1679 -20.1656 -20.1656 -20.1655 -20.1655
    -9.5492  -9.5492  -9.4028  -9.4028  -8.9505  -8.9505  -8.7569  -8.7569
    -8.5655  -8.5655  -8.5568  -8.5568  -8.5002  -8.5002  -8.4074  -8.4074
    -8.1738  -8.1738  -8.1335  -8.1335  -7.6769  -7.6769  -7.6647  -7.6647
     1.3515   1.3515   1.3581   1.3581   2.3512   2.3512   2.4860   2.4860
     2.8950   2.8950   3.0567   3.0567   3.1046   3.1047   3.2845   3.2845
     3.3292   3.3292   3.3490   3.3490   3.4146   3.4146   3.6339   3.6339
     4.0508   4.0508   4.0912   4.0912   4.1112   4.1112   4.3459   4.3459
     4.7916   4.7916   4.8928   4.8928   5.0976   5.0976   5.2715   5.2715
     5.4234   5.4234   5.7065   5.7065   6.2951   6.2951   6.3561   6.3561
     6.4633   6.4633   6.5173   6.5173   6.5355   6.5355   6.7560   6.7560
     7.0268   7.0268   7.0427   7.0427   7.0835   7.0835   7.5048   7.5048
     7.5359   7.5359   7.5532   7.5532   7.5925   7.5925   7.8306   7.8306
    10.6675  10.6675  11.1831  11.1831  11.2224  11.2224  11.7050  11.7050
    12.0133  12.0133  12.1505  12.1505  12.5726  12.5726  12.6556  12.6556
    12.8525  12.8525  12.9873  12.9873  13.4550  13.4550  13.8480  13.8480
    15.1552  15.1552  15.7167  15.7167  16.2569  16.2569  16.4649  16.4649
    16.8661  16.8661  17.2063  17.2063  17.9468

          k = 0.0000-0.4741 0.0000 ( 62338 PWs)   bands (ev):

   -66.0744 -66.0744 -66.0735 -66.0735 -66.0734 -66.0734 -66.0725 -66.0724
   -30.4856 -30.4855 -30.4824 -30.4824 -30.4823 -30.4822 -30.4793 -30.4792
   -30.4127 -30.4126 -30.4111 -30.4111 -30.4075 -30.4072 -30.4059 -30.4058
   -30.3126 -30.3123 -30.3109 -30.3109 -30.3083 -30.3081 -30.3065 -30.3065
   -20.2243 -20.2242 -20.2241 -20.2240 -20.2239 -20.2239 -20.2238 -20.2237
   -20.2237 -20.2237 -20.2236 -20.2236 -20.2236 -20.2235 -20.2235 -20.2235
   -20.2143 -20.2142 -20.2142 -20.2141 -20.2141 -20.2141 -20.2141 -20.2140
   -20.2114 -20.2113 -20.2113 -20.2113 -20.2113 -20.2112 -20.2112 -20.2111
   -20.2005 -20.2004 -20.2001 -20.2001 -20.2000 -20.2000 -20.1997 -20.1996
   -20.1725 -20.1724 -20.1724 -20.1723 -20.1710 -20.1709 -20.1709 -20.1709
   -20.1664 -20.1663 -20.1663 -20.1663 -20.1650 -20.1648 -20.1648 -20.1648
    -9.7634  -9.7633  -9.3144  -9.3140  -9.3103  -9.3101  -9.0264  -9.0262
    -8.5291  -8.5290  -8.4715  -8.4714  -8.4712  -8.4710  -8.4695  -8.4694
    -7.7463  -7.7459  -7.7424  -7.7423  -7.6027  -7.6024  -7.5990  -7.5990
     1.2199   1.2200   1.3139   1.3148   1.3167   1.3175   1.6379   1.6380
     2.4577   2.4578   3.1631   3.1636   3.1854   3.1861   3.2359   3.2361
     3.2748   3.2763   3.2890   3.2907   3.4382   3.4405   3.4510   3.4529
     3.6438   3.6439   4.8710   4.8714   4.8728   4.8734   5.1823   5.1842
     5.1846   5.1865   5.2937   5.2939   5.2947   5.2949   5.7462   5.7470
     5.7472   5.7480   6.0138   6.0142   6.0207   6.0210   6.1839   6.1858
     6.1884   6.1905   6.2585   6.2587   6.7264   6.7270   6.7323   6.7330
     6.9456   6.9457   7.3929   7.3936   7.3969   7.3973   7.4516   7.4517
     7.4548   7.4550   7.5295   7.5297   7.5297   7.5299   7.8429   7.8430
     9.2980   9.2981  11.2383  11.2400  11.2422  11.2441  11.3231  11.3245
    11.3280  11.3295  12.3611  12.3625  12.3679  12.3691  12.9691  12.9692
    13.5761  13.5773  13.5819  13.5829  13.6334  13.6339  13.6346  13.6353
    15.3500  15.3501  15.4505  15.4505  15.6907  15.6910  15.6958  15.6962
    16.5245  16.5245  17.8886  17.8886  18.1384

          k = 0.0000-0.4741 0.1667 ( 62402 PWs)   bands (ev):

   -66.0744 -66.0743 -66.0735 -66.0734 -66.0734 -66.0733 -66.0725 -66.0725
   -30.4855 -30.4854 -30.4827 -30.4826 -30.4824 -30.4821 -30.4795 -30.4794
   -30.4121 -30.4108 -30.4076 -30.4062 -30.4059 -30.4044 -30.4008 -30.3992
   -30.3193 -30.3177 -30.3149 -30.3132 -30.3121 -30.3106 -30.3082 -30.3068
   -20.2243 -20.2242 -20.2241 -20.2240 -20.2239 -20.2239 -20.2238 -20.2238
   -20.2237 -20.2237 -20.2237 -20.2236 -20.2236 -20.2235 -20.2235 -20.2235
   -20.2142 -20.2142 -20.2141 -20.2141 -20.2141 -20.2139 -20.2139 -20.2138
   -20.2116 -20.2115 -20.2114 -20.2113 -20.2113 -20.2113 -20.2112 -20.2112
   -20.2005 -20.2004 -20.2001 -20.2001 -20.2001 -20.2000 -20.1997 -20.1996
   -20.1723 -20.1723 -20.1721 -20.1720 -20.1710 -20.1710 -20.1706 -20.1705
   -20.1669 -20.1667 -20.1662 -20.1662 -20.1654 -20.1652 -20.1649 -20.1649
    -9.7112  -9.7109  -9.3297  -9.3259  -9.2293  -9.2253  -8.9854  -8.9849
    -8.5348  -8.5347  -8.4772  -8.4768  -8.4682  -8.4681  -8.4643  -8.4639
    -7.8684  -7.8646  -7.7370  -7.7334  -7.7322  -7.7284  -7.6117  -7.6082
     1.3083   1.3101   1.3208   1.3235   1.5708   1.5737   1.8081   1.8100
     2.5473   2.5475   3.1678   3.1769   3.1908   3.1998   3.2333   3.2358
     3.2735   3.2830   3.3149   3.3287   3.4374   3.4504   3.4954   3.5043
     3.6729   3.6733   4.4676   4.4681   4.9052   4.9178   4.9433   4.9569
     5.1036   5.1039   5.1699   5.1709   5.3065   5.3074   5.4801   5.4823
     5.7207   5.7213   5.7854   5.7865   6.1239   6.1308   6.1379   6.1394
     6.3822   6.3842   6.4316   6.4407   6.7155   6.7215   6.9001   6.9058
     7.0039   7.0051   7.1618   7.1652   7.2138   7.2194   7.4377   7.4407
     7.4591   7.4614   7.4900   7.4924   7.5114   7.5131   7.8495   7.8495
     9.6637   9.6650  11.2449  11.2489  11.3178  11.3215  11.3689  11.3716
    11.4460  11.4504  12.2621  12.2681  12.4144  12.4205  12.9961  12.9962
    13.3984  13.4000  13.5002  13.5039  13.5863  13.5909  13.6295  13.6302
    15.4004  15.4053  15.5934  15.5976  15.6723  15.6779  15.9666  15.9708
    16.5885  16.5888  17.8323  17.8340  18.0956

          k = 0.0000-0.4741 0.3333 ( 62368 PWs)   bands (ev):

   -66.0742 -66.0741 -66.0737 -66.0736 -66.0732 -66.0731 -66.0727 -66.0726
   -30.4851 -30.4851 -30.4834 -30.4833 -30.4820 -30.4818 -30.4803 -30.4802
   -30.4112 -30.4098 -30.4086 -30.4072 -30.3876 -30.3860 -30.3826 -30.3809
   -30.3376 -30.3360 -30.3331 -30.3314 -30.3112 -30.3098 -30.3091 -30.3076
   -20.2242 -20.2242 -20.2241 -20.2240 -20.2240 -20.2239 -20.2239 -20.2238
   -20.2238 -20.2237 -20.2237 -20.2236 -20.2236 -20.2235 -20.2235 -20.2235
   -20.2142 -20.2142 -20.2141 -20.2141 -20.2135 -20.2134 -20.2134 -20.2132
   -20.2121 -20.2120 -20.2120 -20.2118 -20.2113 -20.2113 -20.2112 -20.2112
   -20.2004 -20.2003 -20.2002 -20.2001 -20.2000 -20.1999 -20.1998 -20.1997
   -20.1720 -20.1720 -20.1712 -20.1712 -20.1711 -20.1709 -20.1696 -20.1694
   -20.1680 -20.1679 -20.1666 -20.1664 -20.1659 -20.1659 -20.1652 -20.1652
    -9.5875  -9.5859  -9.3779  -9.3744  -8.9948  -8.9912  -8.8476  -8.8462
    -8.5668  -8.5666  -8.5000  -8.4997  -8.4585  -8.4585  -8.4367  -8.4361
    -8.1626  -8.1591  -8.0490  -8.0455  -7.7087  -7.7052  -7.6372  -7.6337
     1.3365   1.3394   1.3603   1.3634   2.2518   2.2543   2.4462   2.4487
     2.8073   2.8074   3.1726   3.1955   3.2025   3.2214   3.2218   3.2347
     3.2620   3.2628   3.3894   3.4036   3.4273   3.4433   3.6623   3.6647
     3.7426   3.7435   3.8461   3.8475   4.4625   4.4626   4.6255   4.6267
     4.7801   4.7844   4.8454   4.8496   5.2041   5.2071   5.2230   5.2231
     5.3567   5.3588   5.6461   5.6466   6.1979   6.1986   6.2655   6.2752
     6.5204   6.5232   6.6715   6.6858   6.6975   6.7022   6.8513   6.8577
     7.0035   7.0078   7.1712   7.1757   7.1805   7.1830   7.4169   7.4210
     7.4492   7.4521   7.4802   7.4832   7.4869   7.4889   7.7917   7.7918
    10.4063  10.4090  11.2597  11.2635  11.2992  11.3031  11.7482  11.7506
    11.7934  11.7971  11.8746  11.8792  12.5843  12.5894  12.7766  12.7773
    12.9280  12.9296  13.2284  13.2314  13.5968  13.5973  13.6225  13.6236
    15.4321  15.4376  15.6146  15.6199  16.1907  16.1946  16.6886  16.6913
    16.8167  16.8179  17.3204  17.3206  17.9271

          k = 0.0000-0.4741-0.5000 ( 62420 PWs)   bands (ev):

   -66.0740 -66.0740 -66.0739 -66.0739 -66.0730 -66.0730 -66.0729 -66.0729
   -30.4843 -30.4843 -30.4843 -30.4843 -30.4812 -30.4812 -30.4811 -30.4811
   -30.4099 -30.4099 -30.4085 -30.4085 -30.3626 -30.3626 -30.3610 -30.3610
   -30.3578 -30.3578 -30.3562 -30.3562 -30.3102 -30.3102 -30.3087 -30.3087
   -20.2242 -20.2242 -20.2241 -20.2241 -20.2240 -20.2240 -20.2239 -20.2239
   -20.2237 -20.2237 -20.2237 -20.2237 -20.2236 -20.2236 -20.2235 -20.2235
   -20.2142 -20.2142 -20.2142 -20.2141 -20.2128 -20.2128 -20.2127 -20.2127
   -20.2127 -20.2127 -20.2125 -20.2125 -20.2113 -20.2113 -20.2113 -20.2113
   -20.2003 -20.2003 -20.2002 -20.2002 -20.1999 -20.1999 -20.1998 -20.1998
   -20.1716 -20.1716 -20.1716 -20.1716 -20.1696 -20.1696 -20.1694 -20.1694
   -20.1681 -20.1681 -20.1679 -20.1679 -20.1656 -20.1656 -20.1655 -20.1655
    -9.4635  -9.4635  -9.4606  -9.4606  -8.7075  -8.7075  -8.7043  -8.7042
    -8.6178  -8.6178  -8.6154  -8.6154  -8.4105  -8.4105  -8.4057  -8.4057
    -8.3392  -8.3391  -8.3345  -8.3345  -7.6726  -7.6726  -7.6691  -7.6691
     1.3547   1.3547   1.3579   1.3579   3.0131   3.0131   3.0286   3.0286
     3.1465   3.1465   3.1500   3.1500   3.2162   3.2163   3.2212   3.2213
     3.2882   3.2882   3.2959   3.2959   3.4425   3.4425   3.4573   3.4574
     3.5846   3.5847   3.6241   3.6241   4.2828   4.2828   4.2908   4.2908
     4.3890   4.3890   4.4025   4.4025   5.1995   5.1995   5.2042   5.2043
     5.4979   5.4979   5.5037   5.5037   6.3458   6.3458   6.3483   6.3483
     6.5155   6.5155   6.5198   6.5198   6.6315   6.6315   6.6395   6.6395
     7.2769   7.2769   7.2827   7.2827   7.3447   7.3447   7.3701   7.3701
     7.4446   7.4446   7.4583   7.4583   7.5902   7.5902   7.5924   7.5924
    11.1780  11.1780  11.1813  11.1813  11.3029  11.3030  11.3057  11.3057
    12.2823  12.2823  12.2983  12.2983  12.3104  12.3104  12.3255  12.3255
    12.8869  12.8869  12.8907  12.8907  13.6089  13.6089  13.6126  13.6126
    15.5229  15.5229  15.5285  15.5285  16.8060  16.8060  16.8154  16.8155
    17.3604  17.3604  17.3696  17.3696  17.4973

          k = 0.1667 0.0000 0.0000 ( 62411 PWs)   bands (ev):

   -66.0746 -66.0741 -66.0737 -66.0736 -66.0733 -66.0731 -66.0727 -66.0723
   -30.5157 -30.5126 -30.5123 -30.5093 -30.4551 -30.4524 -30.4522 -30.4495
   -30.4134 -30.4097 -30.4088 -30.4067 -30.4052 -30.4031 -30.4015 -30.3980
   -30.3199 -30.3167 -30.3155 -30.3131 -30.3123 -30.3099 -30.3092 -30.3061
   -20.2269 -20.2267 -20.2266 -20.2264 -20.2238 -20.2237 -20.2237 -20.2237
   -20.2236 -20.2236 -20.2236 -20.2235 -20.2214 -20.2211 -20.2211 -20.2208
   -20.2148 -20.2147 -20.2146 -20.2144 -20.2136 -20.2135 -20.2134 -20.2134
   -20.2120 -20.2120 -20.2118 -20.2118 -20.2110 -20.2107 -20.2107 -20.2105
   -20.2005 -20.2004 -20.2001 -20.2001 -20.2000 -20.2000 -20.1997 -20.1996
   -20.1724 -20.1723 -20.1720 -20.1720 -20.1711 -20.1710 -20.1705 -20.1705
   -20.1667 -20.1667 -20.1663 -20.1662 -20.1652 -20.1652 -20.1651 -20.1649
    -9.9015  -9.6008  -9.5355  -9.4607  -9.2437  -9.1394  -9.1239  -8.9949
    -8.9780  -8.8884  -8.8740  -8.8360  -7.8872  -7.8714  -7.8647  -7.8240
    -7.8120  -7.7722  -7.7473  -7.7408  -7.7244  -7.7203  -7.6213  -7.5986
     1.2903   1.2928   1.3092   1.3227   1.4230   1.4587   1.5762   1.5887
     1.5966   1.6959   1.8240   1.9773   2.5062   2.5704   2.5881   2.6490
     2.7004   2.7973   4.0859   4.1557   4.3579   4.3776   4.3929   4.4912
     4.6429   4.7600   4.8042   4.9201   4.9348   4.9904   5.0379   5.3003
     5.3341   5.4087   5.4869   5.5284   5.5425   5.5799   5.6022   5.6288
     5.7471   5.7490   5.8002   5.9100   5.9589   6.1021   6.1236   6.1301
     6.2835   6.4320   6.4975   6.5354   6.6588   6.6891   6.7641   6.8244
     6.8247   6.8473   6.9691   7.0012   7.0179   7.0896   7.1653   7.1684
     7.2110   7.2683   7.8443   7.8479   8.0229   8.0824   8.0880   8.1339
     9.6424   9.6740   9.9730   9.9996  10.2366  10.2845  12.2330  12.2691
    12.2892  12.3544  12.3894  12.4032  12.5228  12.6183  12.9597  12.9816
    13.0746  13.2240  13.3049  13.4043  13.9290  14.0435  14.0549  14.1730
    14.1765  14.3818  14.5127  14.9401  15.4654  15.4823  15.5112  16.0610
    16.4048  16.7865  17.0202  17.2641  17.4605

          k = 0.1667 0.0000 0.1667 ( 62404 PWs)   bands (ev):

   -66.0745 -66.0741 -66.0736 -66.0736 -66.0732 -66.0732 -66.0728 -66.0724
   -30.5156 -30.5126 -30.5125 -30.5096 -30.4551 -30.4524 -30.4524 -30.4497
   -30.4069 -30.4061 -30.4033 -30.4027 -30.4021 -30.4017 -30.3985 -30.3983
   -30.3198 -30.3196 -30.3167 -30.3166 -30.3160 -30.3154 -30.3130 -30.3123
   -20.2269 -20.2267 -20.2267 -20.2264 -20.2238 -20.2237 -20.2237 -20.2237
   -20.2236 -20.2236 -20.2236 -20.2235 -20.2214 -20.2211 -20.2211 -20.2208
   -20.2146 -20.2146 -20.2145 -20.2144 -20.2135 -20.2134 -20.2134 -20.2133
   -20.2121 -20.2120 -20.2119 -20.2119 -20.2110 -20.2109 -20.2108 -20.2107
   -20.2005 -20.2003 -20.2001 -20.2001 -20.2000 -20.2000 -20.1997 -20.1996
   -20.1720 -20.1719 -20.1719 -20.1718 -20.1707 -20.1706 -20.1706 -20.1706
   -20.1668 -20.1666 -20.1666 -20.1666 -20.1655 -20.1654 -20.1653 -20.1653
    -9.8535  -9.5419  -9.4769  -9.4768  -9.1540  -9.1536  -9.1326  -8.9546
    -8.9413  -8.8791  -8.8409  -8.8408  -7.8877  -7.8699  -7.8654  -7.8560
    -7.8536  -7.8141  -7.8133  -7.7757  -7.7719  -7.7545  -7.7291  -7.7080
     1.4114   1.4530   1.4533   1.4812   1.4813   1.5809   1.5820   1.5827
     1.6970   1.6978   1.9101   2.0575   2.5940   2.6569   2.6589   2.6834
     2.7740   2.8078   4.0878   4.0928   4.3284   4.3290   4.4783   4.4786
     4.5545   4.5557   4.6682   4.6723   4.7241   4.7898   5.0223   5.2460
     5.2754   5.3211   5.3553   5.4710   5.4728   5.6129   5.6136   5.6751
     5.6756   5.7269   5.7593   5.7610   5.7834   5.9683   6.3110   6.4511
     6.4617   6.5241   6.5394   6.6330   6.6740   6.6780   6.6855   6.6983
     6.7328   6.8365   6.8377   6.8755   6.8812   6.9847   6.9860   7.0976
     7.3042   7.3612   7.8430   7.8438   8.0242   8.0691   8.0883   8.0916
     9.8701   9.9382  10.2356  10.2387  10.2463  10.3394  12.2819  12.2847
    12.3093  12.3115  12.3361  12.3753  12.6071  12.6108  12.9828  12.9909
    13.0308  13.0991  13.1959  13.3700  13.9868  14.0048  14.0272  14.0795
    14.1029  14.5007  14.5045  15.0590  15.4322  15.5692  15.5842  16.3698
    16.3711  16.9526  16.9537  17.1601  17.5104

          k = 0.1667 0.0000 0.3333 ( 62403 PWs)   bands (ev):

   -66.0743 -66.0739 -66.0738 -66.0734 -66.0734 -66.0730 -66.0729 -66.0725
   -30.5151 -30.5133 -30.5121 -30.5104 -30.4548 -30.4532 -30.4521 -30.4505
   -30.4055 -30.4029 -30.4019 -30.3993 -30.3880 -30.3847 -30.3837 -30.3804
   -30.3381 -30.3349 -30.3342 -30.3309 -30.3188 -30.3166 -30.3156 -30.3134
   -20.2269 -20.2267 -20.2266 -20.2265 -20.2238 -20.2237 -20.2237 -20.2237
   -20.2237 -20.2236 -20.2236 -20.2235 -20.2214 -20.2212 -20.2211 -20.2209
   -20.2146 -20.2145 -20.2141 -20.2139 -20.2135 -20.2133 -20.2130 -20.2128
   -20.2125 -20.2124 -20.2122 -20.2119 -20.2114 -20.2112 -20.2109 -20.2108
   -20.2004 -20.2002 -20.2002 -20.2000 -20.2000 -20.1999 -20.1998 -20.1997
   -20.1716 -20.1716 -20.1710 -20.1709 -20.1708 -20.1708 -20.1697 -20.1695
   -20.1679 -20.1678 -20.1667 -20.1665 -20.1663 -20.1663 -20.1656 -20.1656
    -9.7376  -9.5269  -9.4045  -9.3423  -9.1972  -9.1620  -8.8991  -8.8919
    -8.8534  -8.8075  -8.7809  -8.7148  -8.1722  -8.1680  -8.0998  -8.0780
    -7.8584  -7.8440  -7.8393  -7.8100  -7.8087  -7.7852  -7.7695  -7.7496
     1.4220   1.4414   1.5289   1.5644   1.5994   1.6170   1.6773   1.7047
     2.2770   2.3114   2.4533   2.5347   2.6813   2.7672   2.8608   2.8979
     2.9668   3.0448   3.8164   3.8414   3.9378   3.9491   4.1441   4.2934
     4.3126   4.4883   4.5202   4.5531   4.6041   4.7344   4.7661   4.9201
     4.9740   5.0480   5.0826   5.2088   5.2760   5.3609   5.5319   5.6547
     5.6760   5.7340   5.7704   5.7925   5.8128   5.9810   6.1543   6.2125
     6.4163   6.4328   6.4763   6.5588   6.5840   6.6480   6.6527   6.6681
     6.7872   6.8624   6.8718   6.8910   7.1317   7.1494   7.1666   7.2321
     7.3180   7.3671   7.7810   7.7966   7.9172   7.9532   8.0817   8.0917
    10.2329  10.2426  10.5135  10.5734  10.8657  10.9817  11.9043  11.9446
    12.1420  12.4349  12.4536  12.5111  12.5592  12.6087  12.7643  12.8607
    12.9419  13.0183  13.0934  13.2908  13.6751  13.6915  14.0159  14.0396
    14.2868  14.4773  14.8148  15.3255  15.3719  15.8334  15.9991  16.2745
    16.3696  17.2247  17.3935  17.4979  17.5972

          k = 0.1667 0.0000-0.5000 ( 62426 PWs)   bands (ev):

   -66.0741 -66.0741 -66.0736 -66.0736 -66.0732 -66.0732 -66.0728 -66.0728
   -30.5143 -30.5143 -30.5113 -30.5113 -30.4541 -30.4541 -30.4514 -30.4514
   -30.4042 -30.4042 -30.4006 -30.4006 -30.3631 -30.3631 -30.3598 -30.3598
   -30.3589 -30.3589 -30.3556 -30.3556 -30.3177 -30.3177 -30.3145 -30.3145
   -20.2268 -20.2268 -20.2266 -20.2266 -20.2238 -20.2238 -20.2237 -20.2237
   -20.2236 -20.2236 -20.2236 -20.2236 -20.2213 -20.2213 -20.2210 -20.2210
   -20.2145 -20.2145 -20.2137 -20.2137 -20.2132 -20.2132 -20.2130 -20.2130
   -20.2124 -20.2124 -20.2121 -20.2121 -20.2116 -20.2116 -20.2109 -20.2109
   -20.2003 -20.2003 -20.2001 -20.2001 -20.1999 -20.1999 -20.1998 -20.1998
   -20.1713 -20.1712 -20.1712 -20.1712 -20.1695 -20.1695 -20.1693 -20.1693
   -20.1682 -20.1682 -20.1680 -20.1680 -20.1660 -20.1660 -20.1660 -20.1660
    -9.6153  -9.6153  -9.2771  -9.2771  -9.2253  -9.2253  -8.8709  -8.8709
    -8.5455  -8.5455  -8.5400  -8.5400  -8.4906  -8.4906  -8.4375  -8.4375
    -7.8490  -7.8490  -7.8063  -7.8063  -7.7959  -7.7959  -7.7826  -7.7826
     1.4299   1.4299   1.5475   1.5475   1.6186   1.6186   1.7100   1.7100
     2.7088   2.7088   3.0025   3.0025   3.0878   3.0878   3.2065   3.2065
     3.3129   3.3129   3.4280   3.4280   3.5239   3.5239   3.7935   3.7935
     3.8681   3.8681   4.4058   4.4058   4.5245   4.5245   4.8763   4.8763
     5.0320   5.0320   5.0427   5.0427   5.2354   5.2354   5.6088   5.6088
     5.7747   5.7747   5.7837   5.7837   5.9003   5.9003   5.9508   5.9508
     6.3376   6.3376   6.4232   6.4232   6.6485   6.6485   6.7131   6.7131
     6.8111   6.8111   6.9666   6.9666   7.0259   7.0259   7.5374   7.5374
     7.5842   7.5842   7.6913   7.6913   7.7044   7.7044   8.0914   8.0914
    10.2471  10.2471  11.2395  11.2395  11.3084  11.3084  11.5825  11.5825
    11.7762  11.7762  12.6295  12.6295  12.6798  12.6798  12.7139  12.7139
    12.9228  12.9228  13.2531  13.2531  13.3586  13.3587  14.0246  14.0246
    14.4178  14.4178  15.1239  15.1239  15.8185  15.8185  16.1018  16.1018
    16.7614  16.7614  17.7999  17.8008  17.8286

          k = 0.1667 0.1580 0.0000 ( 62369 PWs)   bands (ev):

   -66.0745 -66.0742 -66.0737 -66.0735 -66.0733 -66.0732 -66.0727 -66.0723
   -30.5116 -30.5086 -30.5083 -30.5053 -30.4592 -30.4564 -30.4562 -30.4535
   -30.4132 -30.4099 -30.4086 -30.4065 -30.4054 -30.4033 -30.4014 -30.3982
   -30.3198 -30.3169 -30.3153 -30.3129 -30.3125 -30.3100 -30.3091 -30.3062
   -20.2266 -20.2263 -20.2263 -20.2260 -20.2238 -20.2237 -20.2237 -20.2237
   -20.2236 -20.2236 -20.2236 -20.2235 -20.2218 -20.2215 -20.2215 -20.2212
   -20.2147 -20.2146 -20.2145 -20.2144 -20.2137 -20.2136 -20.2135 -20.2135
   -20.2120 -20.2119 -20.2118 -20.2117 -20.2110 -20.2108 -20.2108 -20.2106
   -20.2005 -20.2004 -20.2001 -20.2001 -20.2000 -20.2000 -20.1997 -20.1996
   -20.1724 -20.1723 -20.1720 -20.1720 -20.1711 -20.1710 -20.1705 -20.1705
   -20.1667 -20.1667 -20.1663 -20.1662 -20.1653 -20.1652 -20.1651 -20.1649
    -9.8701  -9.6124  -9.4971  -9.4174  -9.2515  -9.1471  -9.0495  -8.9928
    -8.9789  -8.8451  -8.8368  -8.8037  -7.9758  -7.9328  -7.9202  -7.8836
    -7.8766  -7.8508  -7.7459  -7.7397  -7.7247  -7.7204  -7.6199  -7.6001
     1.3034   1.3081   1.3095   1.3227   1.5313   1.5757   1.5885   1.7883
     1.8222   1.8293   1.8604   2.0820   2.5123   2.5823   2.6423   2.7230
     2.7694   2.8654   3.9836   4.0354   4.0877   4.1345   4.4119   4.4891
     4.6840   4.6905   4.7973   4.8624   4.9104   4.9332   4.9592   5.2234
     5.2490   5.2791   5.3117   5.4680   5.5735   5.5777   5.6229   5.6774
     5.7259   5.7507   5.8129   5.8491   5.8650   6.1259   6.1271   6.1417
     6.2186   6.4211   6.4712   6.5582   6.6981   6.7655   6.7816   6.8101
     6.8353   6.8773   6.9491   6.9659   7.0036   7.0150   7.1653   7.1684
     7.2254   7.2680   7.8468   7.8477   7.9831   8.0127   8.0263   8.0529
     9.6481   9.6725  10.1747  10.1776  10.4067  10.4276  12.1641  12.2425
    12.2652  12.2777  12.3607  12.3655  12.3780  12.5011  12.9611  12.9958
    13.0990  13.2577  13.3115  13.4089  13.9243  13.9532  14.0692  14.0839
    14.2912  14.6564  14.8103  15.0985  15.4818  15.5113  15.8687  16.0277
    16.3684  16.6755  16.9117  17.3781  17.5438

          k = 0.1667 0.1580 0.1667 ( 62411 PWs)   bands (ev):

   -66.0745 -66.0741 -66.0736 -66.0736 -66.0732 -66.0732 -66.0727 -66.0724
   -30.5115 -30.5085 -30.5085 -30.5056 -30.4592 -30.4565 -30.4564 -30.4538
   -30.4067 -30.4059 -30.4035 -30.4029 -30.4019 -30.4016 -30.3987 -30.3985
   -30.3197 -30.3195 -30.3168 -30.3167 -30.3159 -30.3153 -30.3131 -30.3125
   -20.2266 -20.2263 -20.2263 -20.2261 -20.2238 -20.2237 -20.2237 -20.2237
   -20.2236 -20.2236 -20.2236 -20.2235 -20.2218 -20.2215 -20.2215 -20.2212
   -20.2146 -20.2145 -20.2144 -20.2143 -20.2135 -20.2135 -20.2135 -20.2134
   -20.2120 -20.2120 -20.2119 -20.2119 -20.2111 -20.2110 -20.2109 -20.2108
   -20.2005 -20.2003 -20.2001 -20.2001 -20.2000 -20.2000 -20.1997 -20.1996
   -20.1720 -20.1719 -20.1719 -20.1718 -20.1707 -20.1706 -20.1706 -20.1706
   -20.1668 -20.1666 -20.1666 -20.1666 -20.1655 -20.1654 -20.1653 -20.1653
    -9.8206  -9.5537  -9.4338  -9.4338  -9.1619  -9.1615  -9.0582  -8.9537
    -8.9422  -8.8362  -8.8083  -8.8082  -7.9765  -7.9307  -7.9305  -7.8912
    -7.8675  -7.8668  -7.8422  -7.8409  -7.7709  -7.7503  -7.7279  -7.7095
     1.4808   1.4811   1.5339   1.5342   1.5816   1.5822   1.6054   1.7877
     1.8571   1.8577   1.9093   2.1375   2.6021   2.6775   2.7305   2.7327
     2.8463   2.8717   3.9889   4.0141   4.1154   4.1167   4.4676   4.4685
     4.5578   4.5590   4.6618   4.6898   4.7057   4.7413   4.7954   5.1890
     5.2115   5.2352   5.2394   5.3449   5.3639   5.5690   5.5703   5.6092
     5.7426   5.7447   5.7574   5.7801   5.7805   5.8427   6.3317   6.3750
     6.3826   6.5202   6.5347   6.6442   6.6681   6.7206   6.7615   6.7731
     6.7767   6.8189   6.8603   6.8629   6.9521   6.9622   6.9670   7.1037
     7.3077   7.3597   7.8436   7.8443   7.9706   8.0135   8.0151   8.0158
     9.8875   9.9357  10.3897  10.4077  10.4110  10.4745  12.2219  12.2618
    12.2905  12.2935  12.2973  12.3031  12.4685  12.4713  12.9737  13.0147
    13.0698  13.1128  13.2006  13.3752  13.9084  13.9194  13.9255  13.9908
    14.4029  14.8026  14.8041  15.2023  15.5700  15.5832  15.8366  16.3356
    16.3366  16.7993  17.0567  17.0574  17.5661

          k = 0.1667 0.1580 0.3333 ( 62423 PWs)   bands (ev):

   -66.0743 -66.0739 -66.0738 -66.0734 -66.0734 -66.0731 -66.0729 -66.0726
   -30.5111 -30.5093 -30.5081 -30.5064 -30.4588 -30.4572 -30.4562 -30.4545
   -30.4053 -30.4027 -30.4021 -30.3995 -30.3879 -30.3849 -30.3836 -30.3805
   -30.3380 -30.3350 -30.3340 -30.3311 -30.3186 -30.3164 -30.3158 -30.3136
   -20.2265 -20.2264 -20.2263 -20.2261 -20.2238 -20.2237 -20.2237 -20.2237
   -20.2236 -20.2236 -20.2236 -20.2235 -20.2218 -20.2216 -20.2215 -20.2213
   -20.2145 -20.2144 -20.2140 -20.2138 -20.2135 -20.2134 -20.2130 -20.2129
   -20.2124 -20.2124 -20.2121 -20.2118 -20.2115 -20.2112 -20.2110 -20.2109
   -20.2004 -20.2002 -20.2002 -20.2000 -20.2000 -20.1999 -20.1998 -20.1997
   -20.1716 -20.1716 -20.1710 -20.1709 -20.1708 -20.1708 -20.1697 -20.1695
   -20.1679 -20.1678 -20.1667 -20.1665 -20.1663 -20.1663 -20.1656 -20.1656
    -9.7008  -9.4847  -9.4160  -9.2855  -9.2058  -9.0882  -8.9074  -8.8699
    -8.8205  -8.8088  -8.7631  -8.6959  -8.1770  -8.1685  -8.1193  -8.0761
    -7.9460  -7.9308  -7.9101  -7.8822  -7.8397  -7.8173  -7.7691  -7.7496
     1.5415   1.5573   1.5992   1.6168   1.7412   1.7439   1.8236   1.8567
     2.2756   2.3221   2.4549   2.5496   2.7541   2.8300   2.8797   2.9635
     2.9731   3.1009   3.8142   3.8436   3.9060   3.9293   4.1059   4.1674
     4.2297   4.3477   4.5426   4.5725   4.6360   4.6914   4.7277   4.7508
     4.8807   4.9130   4.9547   5.1339   5.1941   5.2394   5.2964   5.5852
     5.6161   5.6363   5.7303   5.7863   5.8052   5.8155   6.1610   6.2120
     6.3624   6.5003   6.5290   6.6170   6.6794   6.6847   6.7161   6.7567
     6.8356   6.8685   6.8961   6.9315   7.1264   7.1428   7.1604   7.2377
     7.3094   7.3616   7.7819   7.7938   7.8715   7.8946   8.0152   8.0179
    10.3678  10.4088  10.5363  10.5834  10.9811  11.0707  11.9054  11.9413
    12.1163  12.4140  12.4545  12.4597  12.4819  12.5600  12.6980  12.7404
    12.9386  13.0479  13.0740  13.2914  13.5680  13.5934  13.9212  13.9481
    14.6179  14.7820  15.1649  15.4831  15.7350  15.8281  16.0089  16.2432
    16.4770  17.1835  17.1879  17.4509  17.5390

          k = 0.1667 0.1580-0.5000 ( 62430 PWs)   bands (ev):

   -66.0740 -66.0740 -66.0737 -66.0737 -66.0732 -66.0732 -66.0728 -66.0728
   -30.5103 -30.5103 -30.5073 -30.5073 -30.4581 -30.4581 -30.4554 -30.4554
   -30.4040 -30.4040 -30.4008 -30.4008 -30.3629 -30.3629 -30.3600 -30.3600
   -30.3588 -30.3588 -30.3558 -30.3558 -30.3175 -30.3175 -30.3147 -30.3147
   -20.2265 -20.2265 -20.2262 -20.2262 -20.2238 -20.2238 -20.2237 -20.2237
   -20.2237 -20.2237 -20.2236 -20.2236 -20.2217 -20.2217 -20.2214 -20.2214
   -20.2144 -20.2144 -20.2137 -20.2137 -20.2131 -20.2131 -20.2130 -20.2130
   -20.2124 -20.2124 -20.2122 -20.2122 -20.2117 -20.2117 -20.2110 -20.2110
   -20.2002 -20.2002 -20.2001 -20.2001 -20.1999 -20.1999 -20.1998 -20.1998
   -20.1713 -20.1712 -20.1712 -20.1712 -20.1695 -20.1695 -20.1693 -20.1693
   -20.1682 -20.1682 -20.1680 -20.1680 -20.1660 -20.1660 -20.1660 -20.1660
    -9.5751  -9.5751  -9.2872  -9.2872  -9.1557  -9.1556  -8.8386  -8.8386
    -8.5493  -8.5493  -8.5426  -8.5426  -8.4925  -8.4925  -8.4323  -8.4323
    -7.9411  -7.9411  -7.8998  -7.8998  -7.8043  -7.8043  -7.7835  -7.7835
     1.5511   1.5511   1.6184   1.6184   1.7530   1.7530   1.8554   1.8554
     2.7775   2.7775   3.0214   3.0215   3.1049   3.1049   3.2239   3.2239
     3.3156   3.3156   3.4320   3.4320   3.5148   3.5148   3.7974   3.7974
     3.9164   3.9164   4.2467   4.2467   4.5421   4.5421   4.6490   4.6490
     4.9197   4.9197   5.0143   5.0143   5.0907   5.0907   5.4158   5.4158
     5.6683   5.6683   5.7381   5.7381   5.8488   5.8488   5.8993   5.8993
     6.4637   6.4637   6.5944   6.5944   6.6337   6.6337   6.7598   6.7598
     6.8882   6.8882   6.9289   6.9289   7.0487   7.0487   7.5364   7.5364
     7.5785   7.5785   7.6611   7.6611   7.6758   7.6758   8.0194   8.0194
    10.4082  10.4082  11.2460  11.2460  11.3072  11.3072  11.6501  11.6501
    11.8370  11.8370  12.4956  12.4956  12.6596  12.6596  12.7068  12.7068
    12.9051  12.9051  13.1480  13.1480  13.2982  13.2982  13.9306  13.9306
    14.7332  14.7332  15.5012  15.5012  15.9390  15.9390  16.0801  16.0801
    16.7924  16.7924  17.6030  17.6030  17.8604

          k = 0.1667 0.3161 0.0000 ( 62379 PWs)   bands (ev):

   -66.0745 -66.0742 -66.0736 -66.0735 -66.0734 -66.0732 -66.0726 -66.0724
   -30.5006 -30.4976 -30.4973 -30.4944 -30.4703 -30.4675 -30.4672 -30.4645
   -30.4128 -30.4105 -30.4082 -30.4060 -30.4059 -30.4039 -30.4009 -30.3987
   -30.3194 -30.3173 -30.3150 -30.3129 -30.3126 -30.3104 -30.3087 -30.3066
   -20.2256 -20.2253 -20.2253 -20.2250 -20.2238 -20.2237 -20.2237 -20.2237
   -20.2236 -20.2236 -20.2236 -20.2235 -20.2228 -20.2225 -20.2225 -20.2222
   -20.2145 -20.2144 -20.2144 -20.2141 -20.2138 -20.2138 -20.2137 -20.2136
   -20.2118 -20.2117 -20.2116 -20.2115 -20.2113 -20.2111 -20.2110 -20.2109
   -20.2005 -20.2004 -20.2001 -20.2001 -20.2000 -20.2000 -20.1997 -20.1996
   -20.1724 -20.1723 -20.1720 -20.1720 -20.1711 -20.1710 -20.1705 -20.1705
   -20.1667 -20.1667 -20.1663 -20.1662 -20.1653 -20.1652 -20.1651 -20.1649
    -9.7939  -9.6485  -9.4096  -9.3180  -9.2772  -9.1732  -8.9891  -8.9815
    -8.8388  -8.7099  -8.7067  -8.6884  -8.2209  -8.1824  -8.1718  -8.1567
    -7.8726  -7.8593  -7.7419  -7.7359  -7.7290  -7.7240  -7.6160  -7.6042
     1.3072   1.3096   1.3179   1.3228   1.5656   1.5753   1.7722   1.8198
     2.3503   2.4724   2.4952   2.5271   2.5673   2.6505   2.8544   2.9473
     2.9711   3.0723   3.6247   3.6597   3.6716   3.7144   4.1220   4.4067
     4.4434   4.4625   4.5168   4.7228   4.7441   4.8499   4.9110   4.9278
     5.0137   5.0554   5.1462   5.2872   5.3949   5.4476   5.5760   5.6191
     5.6697   5.7804   5.7865   5.8321   6.0463   6.1147   6.1351   6.1508
     6.2369   6.4307   6.4402   6.5758   6.6224   6.8388   6.8668   6.9167
     6.9573   6.9728   7.0582   7.0665   7.0863   7.0930   7.1674   7.1693
     7.2565   7.2741   7.7874   7.8095   7.8155   7.8302   7.8533   7.8542
     9.6575   9.6693  10.6453  10.6851  10.8267  10.8547  11.8022  11.9013
    11.9331  12.0101  12.2559  12.2735  12.3999  12.4308  12.9732  13.0066
    13.2042  13.3491  13.3820  13.4699  13.6842  13.7336  13.8355  13.8638
    14.9089  15.2282  15.4432  15.4829  15.5148  15.6918  15.9142  16.1075
    16.2436  16.8678  17.2914  17.3182  17.7835

          k = 0.1667 0.3161 0.1667 ( 62357 PWs)   bands (ev):

   -66.0744 -66.0742 -66.0735 -66.0735 -66.0733 -66.0733 -66.0727 -66.0725
   -30.5005 -30.4976 -30.4976 -30.4947 -30.4702 -30.4675 -30.4675 -30.4648
   -30.4062 -30.4056 -30.4039 -30.4034 -30.4014 -30.4012 -30.3992 -30.3990
   -30.3193 -30.3191 -30.3172 -30.3171 -30.3155 -30.3150 -30.3135 -30.3129
   -20.2256 -20.2253 -20.2253 -20.2251 -20.2238 -20.2237 -20.2237 -20.2237
   -20.2236 -20.2236 -20.2236 -20.2235 -20.2228 -20.2225 -20.2225 -20.2223
   -20.2143 -20.2143 -20.2142 -20.2141 -20.2137 -20.2137 -20.2136 -20.2136
   -20.2118 -20.2117 -20.2117 -20.2117 -20.2113 -20.2112 -20.2111 -20.2110
   -20.2005 -20.2004 -20.2001 -20.2001 -20.2000 -20.2000 -20.1997 -20.1996
   -20.1720 -20.1719 -20.1719 -20.1718 -20.1707 -20.1706 -20.1706 -20.1706
   -20.1668 -20.1666 -20.1666 -20.1666 -20.1655 -20.1654 -20.1653 -20.1653
    -9.7407  -9.5904  -9.3348  -9.3346  -9.1886  -9.1882  -8.9513  -8.9448
    -8.8472  -8.7003  -8.6929  -8.6928  -8.2224  -8.1790  -8.1788  -8.1619
    -7.8639  -7.8625  -7.8501  -7.8486  -7.7669  -7.7550  -7.7242  -7.7135
     1.4808   1.4809   1.5709   1.5715   1.5811   1.5817   1.8442   1.9054
     2.3519   2.4736   2.4743   2.6196   2.6201   2.6813   2.9537   2.9568
     3.0637   3.0692   3.6671   3.6688   3.6809   3.7298   4.1154   4.4290
     4.4300   4.4946   4.4959   4.5809   4.5826   4.7135   4.7153   4.8076
     4.8586   4.8604   5.0971   5.1285   5.3592   5.3924   5.3935   5.4045
     5.6189   5.6385   5.7609   5.7616   5.8143   5.8150   6.4003   6.4044
     6.4130   6.5101   6.5210   6.6221   6.7311   6.7466   6.8537   6.8552
     6.9154   6.9163   6.9751   7.0025   7.0780   7.0824   7.0866   7.1361
     7.3259   7.3609   7.7865   7.7895   7.7931   7.8185   7.8457   7.8589
     9.9103   9.9306  10.7997  10.8499  10.8560  10.8698  11.8760  11.9227
    12.0066  12.0092  12.3028  12.3038  12.3378  12.3385  12.9780  13.0310
    13.1945  13.2051  13.2623  13.4230  13.6722  13.6765  13.6845  13.7775
    15.0638  15.4401  15.4418  15.5736  15.5800  15.7573  16.2150  16.2160
    16.2300  16.8328  17.3538  17.3975  17.4010

          k = 0.1667 0.3161 0.3333 ( 62393 PWs)   bands (ev):

   -66.0742 -66.0740 -66.0737 -66.0735 -66.0733 -66.0731 -66.0729 -66.0726
   -30.5001 -30.4983 -30.4972 -30.4955 -30.4699 -30.4682 -30.4672 -30.4655
   -30.4048 -30.4026 -30.4022 -30.4001 -30.3875 -30.3853 -30.3832 -30.3810
   -30.3376 -30.3354 -30.3336 -30.3314 -30.3182 -30.3162 -30.3160 -30.3140
   -20.2255 -20.2254 -20.2253 -20.2252 -20.2238 -20.2237 -20.2237 -20.2237
   -20.2236 -20.2236 -20.2236 -20.2235 -20.2228 -20.2226 -20.2225 -20.2224
   -20.2143 -20.2142 -20.2139 -20.2137 -20.2136 -20.2135 -20.2132 -20.2131
   -20.2123 -20.2122 -20.2119 -20.2117 -20.2117 -20.2114 -20.2112 -20.2111
   -20.2004 -20.2003 -20.2001 -20.2001 -20.2000 -20.1999 -20.1998 -20.1997
   -20.1716 -20.1716 -20.1710 -20.1709 -20.1708 -20.1708 -20.1697 -20.1695
   -20.1679 -20.1678 -20.1667 -20.1665 -20.1663 -20.1663 -20.1656 -20.1656
    -9.6123  -9.4526  -9.3865  -9.2348  -9.1453  -8.9379  -8.8804  -8.8357
    -8.8121  -8.7061  -8.6678  -8.6213  -8.2690  -8.2449  -8.1755  -8.1713
    -8.1597  -8.1035  -8.0697  -8.0238  -7.8359  -7.8233  -7.7654  -7.7537
     1.5871   1.5985   1.6072   1.6163   2.1850   2.2701   2.2743   2.3648
     2.4525   2.4765   2.5057   2.7041   2.8925   2.9558   2.9736   3.0550
     3.1990   3.2861   3.6494   3.6571   3.7281   3.7560   3.8992   3.9718
     4.0964   4.2800   4.3693   4.3913   4.4727   4.5500   4.6044   4.6316
     4.7048   4.7535   4.8130   4.8423   4.9110   4.9806   5.1258   5.1402
     5.3085   5.3250   5.4274   5.5902   5.7893   5.8255   6.1952   6.2135
     6.5333   6.6123   6.6245   6.7301   6.8064   6.8248   6.9156   6.9470
     6.9939   7.0192   7.0359   7.0587   7.1488   7.1621   7.1843   7.2684
     7.2858   7.3467   7.7115   7.7153   7.7671   7.7902   7.7990   7.8366
    10.5150  10.5520  10.8488  10.8564  11.2997  11.3446  11.8760  11.9089
    11.9165  12.0725  12.1959  12.2290  12.4652  12.5533  12.6625  12.7061
    12.8959  13.0724  13.1234  13.3369  13.3424  13.3750  13.6822  13.7261
    15.2820  15.4174  15.7954  15.9618  15.9671  16.0677  16.1363  16.6739
    16.7117  16.8176  17.0538  17.5633  17.6220

          k = 0.1667 0.3161-0.5000 ( 62384 PWs)   bands (ev):

   -66.0740 -66.0740 -66.0737 -66.0737 -66.0731 -66.0731 -66.0729 -66.0729
   -30.4993 -30.4993 -30.4964 -30.4964 -30.4691 -30.4691 -30.4664 -30.4664
   -30.4035 -30.4035 -30.4013 -30.4013 -30.3626 -30.3625 -30.3604 -30.3604
   -30.3584 -30.3584 -30.3562 -30.3562 -30.3171 -30.3171 -30.3151 -30.3151
   -20.2255 -20.2255 -20.2252 -20.2252 -20.2238 -20.2238 -20.2237 -20.2237
   -20.2237 -20.2237 -20.2236 -20.2236 -20.2227 -20.2227 -20.2224 -20.2224
   -20.2142 -20.2142 -20.2137 -20.2137 -20.2130 -20.2130 -20.2129 -20.2129
   -20.2125 -20.2125 -20.2124 -20.2124 -20.2116 -20.2116 -20.2112 -20.2112
   -20.2002 -20.2002 -20.2002 -20.2001 -20.1999 -20.1999 -20.1998 -20.1998
   -20.1712 -20.1712 -20.1712 -20.1712 -20.1695 -20.1695 -20.1693 -20.1693
   -20.1682 -20.1682 -20.1680 -20.1680 -20.1660 -20.1660 -20.1660 -20.1660
    -9.4795  -9.4795  -9.3202  -9.3202  -8.9644  -8.9644  -8.7359  -8.7359
    -8.5806  -8.5806  -8.5539  -8.5538  -8.4863  -8.4862  -8.4114  -8.4114
    -8.1708  -8.1708  -8.1383  -8.1383  -7.8005  -7.8005  -7.7883  -7.7883
     1.6056   1.6056   1.6177   1.6177   2.3534   2.3534   2.4683   2.4683
     2.9708   2.9708   3.0798   3.0798   3.1083   3.1083   3.2858   3.2858
     3.3228   3.3228   3.4484   3.4484   3.4781   3.4781   3.6811   3.6811
     4.0539   4.0539   4.0889   4.0889   4.1077   4.1077   4.3544   4.3544
     4.7161   4.7161   4.7851   4.7851   4.9666   4.9666   5.0200   5.0200
     5.1305   5.1305   5.4984   5.4984   5.8980   5.8980   5.9070   5.9070
     6.6647   6.6647   6.7715   6.7715   6.8302   6.8302   6.8627   6.8627
     7.0067   7.0067   7.0517   7.0517   7.1640   7.1640   7.5098   7.5098
     7.5480   7.5480   7.5719   7.5719   7.6090   7.6090   7.8112   7.8112
    10.8324  10.8324  11.2605  11.2605  11.3056  11.3056  11.7668  11.7668
    12.0238  12.0238  12.1871  12.1871  12.5573  12.5573  12.6225  12.6225
    12.8073  12.8074  12.9369  12.9369  13.2898  13.2899  13.6991  13.6991
    15.3704  15.3704  15.9938  15.9938  16.3250  16.3250  16.4541  16.4541
    16.9266  16.9266  17.2463  17.2463  17.8349

          k = 0.1667-0.4741 0.0000 ( 62402 PWs)   bands (ev):

   -66.0744 -66.0743 -66.0735 -66.0734 -66.0734 -66.0733 -66.0725 -66.0725
   -30.4855 -30.4854 -30.4827 -30.4825 -30.4823 -30.4822 -30.4795 -30.4795
   -30.4124 -30.4109 -30.4078 -30.4063 -30.4056 -30.4043 -30.4005 -30.3991
   -30.3191 -30.3176 -30.3147 -30.3132 -30.3123 -30.3106 -30.3085 -30.3068
   -20.2243 -20.2242 -20.2241 -20.2240 -20.2240 -20.2239 -20.2238 -20.2238
   -20.2237 -20.2237 -20.2236 -20.2236 -20.2236 -20.2236 -20.2235 -20.2235
   -20.2143 -20.2142 -20.2141 -20.2140 -20.2140 -20.2140 -20.2139 -20.2139
   -20.2115 -20.2115 -20.2114 -20.2114 -20.2114 -20.2113 -20.2112 -20.2111
   -20.2005 -20.2004 -20.2001 -20.2001 -20.2000 -20.2000 -20.1997 -20.1996
   -20.1724 -20.1723 -20.1720 -20.1720 -20.1711 -20.1710 -20.1705 -20.1705
   -20.1667 -20.1667 -20.1663 -20.1662 -20.1653 -20.1653 -20.1651 -20.1649
    -9.7114  -9.7108  -9.3301  -9.3261  -9.2289  -9.2252  -8.9852  -8.9850
    -8.5348  -8.5347  -8.4772  -8.4768  -8.4682  -8.4681  -8.4643  -8.4640
    -7.8680  -7.8644  -7.7376  -7.7341  -7.7313  -7.7281  -7.6119  -7.6083
     1.3077   1.3098   1.3199   1.3228   1.5716   1.5742   1.8087   1.8104
     2.5473   2.5474   3.1657   3.1740   3.1926   3.2010   3.2348   3.2368
     3.2732   3.2826   3.3153   3.3295   3.4359   3.4494   3.4964   3.5052
     3.6729   3.6731   4.4683   4.4686   4.8984   4.9071   4.9531   4.9626
     5.1039   5.1042   5.1698   5.1708   5.3063   5.3072   5.4808   5.4830
     5.7203   5.7210   5.7856   5.7865   6.1241   6.1313   6.1378   6.1391
     6.3824   6.3847   6.4305   6.4395   6.7159   6.7220   6.9000   6.9055
     7.0041   7.0051   7.1628   7.1660   7.2131   7.2189   7.4377   7.4406
     7.4590   7.4615   7.4898   7.4922   7.5118   7.5135   7.8494   7.8496
     9.6639   9.6651  11.2433  11.2471  11.3158  11.3193  11.3710  11.3738
    11.4472  11.4518  12.2632  12.2690  12.4131  12.4195  12.9955  12.9956
    13.3993  13.4010  13.5023  13.5067  13.5828  13.5877  13.6307  13.6315
    15.4018  15.4066  15.5917  15.5960  15.6720  15.6773  15.9666  15.9710
    16.5885  16.5888  17.8321  17.8338  18.0988

          k = 0.1667-0.4741 0.1667 ( 62370 PWs)   bands (ev):

   -66.0743 -66.0742 -66.0735 -66.0735 -66.0734 -66.0734 -66.0726 -66.0725
   -30.4854 -30.4853 -30.4827 -30.4826 -30.4825 -30.4824 -30.4798 -30.4797
   -30.4056 -30.4055 -30.4040 -30.4039 -30.4011 -30.4009 -30.3995 -30.3994
   -30.3190 -30.3188 -30.3174 -30.3174 -30.3151 -30.3150 -30.3134 -30.3134
   -20.2243 -20.2242 -20.2241 -20.2240 -20.2240 -20.2239 -20.2238 -20.2238
   -20.2237 -20.2237 -20.2237 -20.2236 -20.2236 -20.2236 -20.2235 -20.2235
   -20.2141 -20.2141 -20.2140 -20.2139 -20.2139 -20.2139 -20.2139 -20.2138
   -20.2116 -20.2116 -20.2115 -20.2115 -20.2114 -20.2114 -20.2114 -20.2112
   -20.2004 -20.2004 -20.2001 -20.2001 -20.2000 -20.2000 -20.1997 -20.1996
   -20.1720 -20.1719 -20.1719 -20.1718 -20.1707 -20.1706 -20.1706 -20.1706
   -20.1668 -20.1666 -20.1666 -20.1666 -20.1655 -20.1654 -20.1653 -20.1653
    -9.6547  -9.6546  -9.2453  -9.2450  -9.2414  -9.2413  -8.9481  -8.9480
    -8.5418  -8.5417  -8.4703  -8.4702  -8.4696  -8.4694  -8.4657  -8.4656
    -7.8586  -7.8582  -7.8547  -7.8545  -7.7611  -7.7610  -7.7189  -7.7188
     1.4807   1.4809   1.5771   1.5779   1.5801   1.5807   1.8930   1.8931
[...]
    11.6256  11.6256  11.6308  11.6308  11.6786  11.6786  11.6832  11.6832
    12.0063  12.0063  12.0074  12.0075  12.2023  12.2023  12.2029  12.2029
    13.0020  13.0020  13.0040  13.0040  13.1767  13.1767  13.1784  13.1784
    15.2918  15.2918  15.2920  15.2920  16.7374  16.7374  16.7399  16.7399
    17.6882  17.6882  17.6901  17.6901  17.9450

          k =-0.5000 0.3161 0.0000 ( 62442 PWs)   bands (ev):

   -66.0740 -66.0740 -66.0738 -66.0738 -66.0730 -66.0730 -66.0728 -66.0728
   -30.4994 -30.4994 -30.4961 -30.4961 -30.4692 -30.4692 -30.4662 -30.4662
   -30.4105 -30.4105 -30.4082 -30.4082 -30.3627 -30.3627 -30.3606 -30.3606
   -30.3579 -30.3579 -30.3558 -30.3558 -30.3107 -30.3106 -30.3085 -30.3085
   -20.2255 -20.2255 -20.2252 -20.2252 -20.2238 -20.2238 -20.2237 -20.2237
   -20.2237 -20.2237 -20.2236 -20.2236 -20.2227 -20.2227 -20.2224 -20.2224
   -20.2144 -20.2144 -20.2139 -20.2139 -20.2130 -20.2130 -20.2129 -20.2129
   -20.2125 -20.2125 -20.2124 -20.2124 -20.2115 -20.2115 -20.2110 -20.2109
   -20.2003 -20.2003 -20.2002 -20.2002 -20.1999 -20.1999 -20.1998 -20.1998
   -20.1718 -20.1718 -20.1716 -20.1716 -20.1695 -20.1694 -20.1694 -20.1694
   -20.1680 -20.1680 -20.1679 -20.1679 -20.1657 -20.1657 -20.1655 -20.1655
    -9.5494  -9.5494  -9.4031  -9.4031  -8.9506  -8.9506  -8.7570  -8.7570
    -8.5649  -8.5649  -8.5569  -8.5569  -8.4998  -8.4998  -8.4072  -8.4072
    -8.1736  -8.1736  -8.1335  -8.1335  -7.6772  -7.6772  -7.6649  -7.6648
     1.3507   1.3507   1.3573   1.3573   2.3510   2.3510   2.4859   2.4859
     2.8963   2.8963   3.0556   3.0556   3.1041   3.1041   3.2860   3.2860
     3.3226   3.3226   3.3556   3.3556   3.4149   3.4149   3.6338   3.6338
     4.0499   4.0499   4.0856   4.0856   4.1183   4.1183   4.3472   4.3472
     4.7913   4.7913   4.8911   4.8911   5.0976   5.0976   5.2718   5.2718
     5.4235   5.4235   5.7065   5.7065   6.2949   6.2949   6.3556   6.3556
     6.4637   6.4637   6.5200   6.5200   6.5335   6.5335   6.7562   6.7562
     7.0260   7.0260   7.0434   7.0434   7.0829   7.0829   7.5043   7.5043
     7.5332   7.5332   7.5564   7.5564   7.5932   7.5932   7.8310   7.8310
    10.6671  10.6671  11.1837  11.1837  11.2224  11.2224  11.7019  11.7019
    12.0136  12.0136  12.1510  12.1510  12.5725  12.5725  12.6576  12.6576
    12.8522  12.8522  12.9885  12.9885  13.4550  13.4550  13.8493  13.8493
    15.1548  15.1548  15.7158  15.7158  16.2569  16.2569  16.4647  16.4647
    16.8640  16.8640  17.2064  17.2064  17.9462

          k =-0.5000 0.3161 0.1667 ( 62382 PWs)   bands (ev):

   -66.0740 -66.0740 -66.0737 -66.0737 -66.0731 -66.0731 -66.0729 -66.0729
   -30.4993 -30.4993 -30.4964 -30.4964 -30.4691 -30.4691 -30.4664 -30.4664
   -30.4037 -30.4037 -30.4015 -30.4015 -30.3623 -30.3623 -30.3603 -30.3603
   -30.3582 -30.3582 -30.3561 -30.3561 -30.3173 -30.3173 -30.3152 -30.3152
   -20.2255 -20.2255 -20.2252 -20.2252 -20.2238 -20.2238 -20.2237 -20.2237
   -20.2237 -20.2237 -20.2236 -20.2236 -20.2227 -20.2227 -20.2225 -20.2225
   -20.2142 -20.2142 -20.2137 -20.2137 -20.2129 -20.2129 -20.2129 -20.2129
   -20.2125 -20.2125 -20.2124 -20.2124 -20.2117 -20.2117 -20.2111 -20.2111
   -20.2002 -20.2002 -20.2001 -20.2001 -20.1999 -20.1999 -20.1998 -20.1998
   -20.1714 -20.1714 -20.1712 -20.1712 -20.1694 -20.1693 -20.1693 -20.1693
   -20.1681 -20.1681 -20.1681 -20.1680 -20.1661 -20.1661 -20.1660 -20.1660
    -9.4796  -9.4796  -9.3205  -9.3205  -8.9644  -8.9644  -8.7360  -8.7360
    -8.5803  -8.5803  -8.5537  -8.5537  -8.4859  -8.4859  -8.4112  -8.4112
    -8.1706  -8.1706  -8.1383  -8.1383  -7.8007  -7.8007  -7.7885  -7.7885
     1.6049   1.6049   1.6170   1.6170   2.3532   2.3532   2.4682   2.4682
     2.9720   2.9720   3.0791   3.0791   3.1075   3.1075   3.2862   3.2862
     3.3226   3.3226   3.4498   3.4499   3.4781   3.4781   3.6810   3.6810
     4.0526   4.0526   4.0837   4.0837   4.1149   4.1149   4.3553   4.3553
     4.7156   4.7156   4.7841   4.7841   4.9666   4.9666   5.0201   5.0201
     5.1308   5.1308   5.4983   5.4983   5.8977   5.8977   5.9068   5.9068
     6.6648   6.6648   6.7722   6.7722   6.8305   6.8305   6.8628   6.8629
     7.0059   7.0059   7.0521   7.0521   7.1635   7.1635   7.5093   7.5093
     7.5462   7.5462   7.5739   7.5739   7.6096   7.6096   7.8114   7.8114
    10.8323  10.8323  11.2609  11.2609  11.3054  11.3054  11.7638  11.7638
    12.0242  12.0242  12.1876  12.1876  12.5572  12.5572  12.6244  12.6244
    12.8075  12.8075  12.9380  12.9380  13.2895  13.2895  13.6998  13.6998
    15.3704  15.3704  15.9929  15.9929  16.3249  16.3249  16.4542  16.4542
    16.9247  16.9247  17.2465  17.2465  17.8342

          k =-0.5000 0.3161 0.3333 ( 62378 PWs)   bands (ev):

   -66.0738 -66.0738 -66.0736 -66.0736 -66.0733 -66.0733 -66.0731 -66.0731
   -30.4989 -30.4989 -30.4972 -30.4971 -30.4688 -30.4688 -30.4672 -30.4672
   -30.3854 -30.3854 -30.3832 -30.3832 -30.3615 -30.3614 -30.3594 -30.3594
   -30.3591 -30.3591 -30.3570 -30.3570 -30.3356 -30.3356 -30.3334 -30.3334
   -20.2255 -20.2255 -20.2253 -20.2253 -20.2238 -20.2238 -20.2237 -20.2237
   -20.2236 -20.2236 -20.2236 -20.2236 -20.2227 -20.2227 -20.2225 -20.2225
   -20.2137 -20.2137 -20.2133 -20.2133 -20.2129 -20.2129 -20.2128 -20.2128
   -20.2125 -20.2125 -20.2124 -20.2124 -20.2121 -20.2121 -20.2116 -20.2116
   -20.2001 -20.2001 -20.2000 -20.2000 -20.1999 -20.1999 -20.1998 -20.1998
   -20.1703 -20.1703 -20.1702 -20.1702 -20.1691 -20.1691 -20.1691 -20.1691
   -20.1683 -20.1683 -20.1683 -20.1683 -20.1673 -20.1673 -20.1671 -20.1671
    -9.3030  -9.3030  -9.0942  -9.0942  -9.0125  -9.0125  -8.6682  -8.6682
    -8.6330  -8.6330  -8.5209  -8.5209  -8.4599  -8.4599  -8.4198  -8.4198
    -8.1785  -8.1784  -8.1563  -8.1563  -8.0981  -8.0981  -8.0625  -8.0625
     2.2188   2.2188   2.3056   2.3056   2.3614   2.3614   2.4972   2.4972
     3.0591   3.0591   3.1114   3.1114   3.1900   3.1900   3.2807   3.2807
     3.3598   3.3598   3.6095   3.6095   3.7168   3.7168   3.8094   3.8094
     4.0418   4.0418   4.0806   4.0806   4.1228   4.1228   4.2318   4.2318
     4.3209   4.3209   4.4572   4.4572   4.6032   4.6032   4.8257   4.8257
     4.9514   4.9514   5.0006   5.0006   5.0739   5.0739   5.2810   5.2810
     6.8390   6.8391   6.8953   6.8953   6.9555   6.9555   7.0195   7.0195
     7.1571   7.1571   7.2845   7.2845   7.3996   7.3996   7.4959   7.4959
     7.5444   7.5444   7.6125   7.6125   7.6366   7.6366   7.7597   7.7597
    11.2582  11.2582  11.5041  11.5041  11.5854  11.5854  11.8649  11.8649
    12.0673  12.0673  12.3255  12.3255  12.3694  12.3694  12.4077  12.4077
    12.7160  12.7160  12.8081  12.8081  12.8914  12.8914  13.3081  13.3081
    15.8873  15.8873  16.3797  16.3797  16.5664  16.5664  16.7442  16.7442
    17.1557  17.1557  17.3165  17.3165  17.5936

          k =-0.5000 0.3161-0.5000 ( 62392 PWs)   bands (ev):

   -66.0735 -66.0735 -66.0735 -66.0735 -66.0733 -66.0733 -66.0733 -66.0733
   -30.4981 -30.4981 -30.4981 -30.4981 -30.4681 -30.4681 -30.4681 -30.4681
   -30.3613 -30.3613 -30.3612 -30.3612 -30.3605 -30.3605 -30.3601 -30.3601
   -30.3585 -30.3585 -30.3581 -30.3581 -30.3576 -30.3576 -30.3574 -30.3574
   -20.2254 -20.2254 -20.2254 -20.2254 -20.2237 -20.2237 -20.2237 -20.2237
   -20.2236 -20.2236 -20.2236 -20.2236 -20.2226 -20.2226 -20.2226 -20.2226
   -20.2131 -20.2131 -20.2131 -20.2131 -20.2129 -20.2129 -20.2129 -20.2129
   -20.2125 -20.2125 -20.2124 -20.2124 -20.2123 -20.2123 -20.2122 -20.2122
   -20.2000 -20.2000 -20.2000 -20.2000 -20.1999 -20.1999 -20.1999 -20.1999
   -20.1689 -20.1689 -20.1689 -20.1689 -20.1689 -20.1689 -20.1688 -20.1688
   -20.1686 -20.1686 -20.1686 -20.1686 -20.1686 -20.1686 -20.1685 -20.1685
    -9.1200  -9.1200  -9.1197  -9.1197  -8.8154  -8.8154  -8.8144  -8.8144
    -8.5117  -8.5117  -8.5097  -8.5097  -8.3891  -8.3891  -8.3881  -8.3881
    -8.3710  -8.3710  -8.3688  -8.3688  -8.1422  -8.1422  -8.1421  -8.1421
     2.3642   2.3642   2.3643   2.3643   3.0180   3.0180   3.0197   3.0197
     3.1163   3.1163   3.1166   3.1166   3.2484   3.2484   3.2520   3.2520
     3.3097   3.3097   3.3112   3.3112   3.9626   3.9626   3.9751   3.9751
     3.9837   3.9837   3.9932   3.9932   4.0642   4.0642   4.0682   4.0682
     4.3212   4.3212   4.3256   4.3256   4.3436   4.3436   4.3451   4.3451
     4.7035   4.7035   4.7035   4.7035   5.0091   5.0091   5.0095   5.0095
     6.8975   6.8976   6.8996   6.8996   6.9939   6.9939   6.9957   6.9957
     7.3855   7.3855   7.3861   7.3861   7.4784   7.4784   7.4807   7.4807
     7.5931   7.5931   7.5932   7.5932   7.6878   7.6878   7.6889   7.6889
    11.7565  11.7565  11.7583  11.7583  11.8217  11.8217  11.8233  11.8233
    12.0522  12.0522  12.0529  12.0529  12.2918  12.2918  12.2922  12.2922
    12.6833  12.6833  12.6849  12.6849  12.8765  12.8765  12.8776  12.8776
    16.2427  16.2427  16.2429  16.2429  16.9228  16.9228  16.9246  16.9246
    17.4448  17.4448  17.4482  17.4482  17.9343

          k =-0.5000-0.4741 0.0000 ( 62420 PWs)   bands (ev):

   -66.0740 -66.0740 -66.0739 -66.0739 -66.0730 -66.0730 -66.0729 -66.0729
   -30.4844 -30.4844 -30.4842 -30.4842 -30.4812 -30.4812 -30.4811 -30.4811
   -30.4101 -30.4101 -30.4086 -30.4086 -30.3624 -30.3624 -30.3609 -30.3609
   -30.3576 -30.3576 -30.3561 -30.3561 -30.3104 -30.3104 -30.3087 -30.3087
   -20.2242 -20.2242 -20.2241 -20.2241 -20.2239 -20.2239 -20.2238 -20.2238
   -20.2237 -20.2237 -20.2237 -20.2237 -20.2236 -20.2236 -20.2236 -20.2236
   -20.2142 -20.2142 -20.2141 -20.2140 -20.2128 -20.2128 -20.2127 -20.2127
   -20.2126 -20.2126 -20.2126 -20.2126 -20.2113 -20.2113 -20.2112 -20.2112
   -20.2003 -20.2003 -20.2002 -20.2002 -20.1999 -20.1998 -20.1998 -20.1998
   -20.1718 -20.1718 -20.1716 -20.1716 -20.1695 -20.1695 -20.1694 -20.1694
   -20.1680 -20.1680 -20.1680 -20.1680 -20.1657 -20.1657 -20.1655 -20.1655
    -9.4639  -9.4639  -9.4607  -9.4607  -8.7082  -8.7082  -8.7035  -8.7035
    -8.6183  -8.6183  -8.6146  -8.6146  -8.4119  -8.4118  -8.4039  -8.4039
    -8.3404  -8.3404  -8.3330  -8.3330  -7.6729  -7.6729  -7.6692  -7.6692
     1.3537   1.3537   1.3572   1.3572   3.0075   3.0075   3.0332   3.0332
     3.1479   3.1479   3.1532   3.1532   3.2085   3.2085   3.2164   3.2164
     3.2928   3.2928   3.3045   3.3045   3.4363   3.4363   3.4616   3.4617
     3.5706   3.5706   3.6386   3.6386   4.2798   4.2798   4.2935   4.2935
     4.3836   4.3836   4.4067   4.4068   5.1978   5.1978   5.2058   5.2059
     5.4961   5.4961   5.5054   5.5055   6.3444   6.3444   6.3485   6.3485
     6.5166   6.5166   6.5211   6.5211   6.6291   6.6291   6.6416   6.6416
     7.2747   7.2747   7.2843   7.2843   7.3358   7.3358   7.3791   7.3791
     7.4403   7.4403   7.4639   7.4639   7.5895   7.5895   7.5928   7.5928
    11.1796  11.1796  11.1838  11.1838  11.2987  11.2987  11.3031  11.3031
    12.2767  12.2767  12.3027  12.3027  12.3074  12.3074  12.3319  12.3319
    12.8871  12.8871  12.8913  12.8913  13.6082  13.6082  13.6146  13.6146
    15.5228  15.5228  15.5282  15.5282  16.8022  16.8022  16.8180  16.8181
    17.3565  17.3565  17.3720  17.3720  17.4941

          k =-0.5000-0.4741 0.1667 ( 62356 PWs)   bands (ev):

   -66.0739 -66.0739 -66.0738 -66.0738 -66.0730 -66.0730 -66.0729 -66.0729
   -30.4843 -30.4843 -30.4841 -30.4841 -30.4815 -30.4815 -30.4814 -30.4814
   -30.4034 -30.4034 -30.4018 -30.4018 -30.3620 -30.3620 -30.3606 -30.3606
   -30.3579 -30.3579 -30.3564 -30.3564 -30.3171 -30.3171 -30.3154 -30.3154
   -20.2242 -20.2242 -20.2241 -20.2241 -20.2239 -20.2239 -20.2238 -20.2238
   -20.2237 -20.2237 -20.2236 -20.2236 -20.2236 -20.2236 -20.2236 -20.2236
   -20.2140 -20.2140 -20.2139 -20.2139 -20.2127 -20.2127 -20.2127 -20.2127
   -20.2126 -20.2126 -20.2126 -20.2126 -20.2115 -20.2115 -20.2113 -20.2113
   -20.2002 -20.2002 -20.2001 -20.2001 -20.1999 -20.1999 -20.1998 -20.1998
   -20.1714 -20.1714 -20.1712 -20.1712 -20.1694 -20.1693 -20.1693 -20.1693
   -20.1681 -20.1681 -20.1681 -20.1681 -20.1661 -20.1661 -20.1660 -20.1660
    -9.3855  -9.3855  -9.3824  -9.3824  -8.7272  -8.7272  -8.7221  -8.7221
    -8.6014  -8.6013  -8.5955  -8.5955  -8.4097  -8.4097  -8.4008  -8.4008
    -8.3429  -8.3428  -8.3353  -8.3353  -7.7966  -7.7966  -7.7929  -7.7929
     1.6123   1.6123   1.6161   1.6161   3.0095   3.0095   3.0350   3.0350
     3.1349   3.1349   3.1555   3.1555   3.2087   3.2087   3.2709   3.2709
     3.2906   3.2906   3.3946   3.3946   3.4879   3.4879   3.5175   3.5175
     3.6041   3.6041   3.6701   3.6701   4.2815   4.2815   4.2958   4.2958
     4.3763   4.3763   4.3998   4.3998   4.8658   4.8658   5.0319   5.0319
     5.1352   5.1352   5.2840   5.2840   5.8999   5.8999   5.9093   5.9093
     6.7452   6.7452   6.7789   6.7789   6.8673   6.8673   6.9037   6.9037
     7.2619   7.2619   7.2961   7.2961   7.3411   7.3411   7.3843   7.3843
     7.4338   7.4338   7.4764   7.4764   7.5963   7.5963   7.6210   7.6210
    11.2316  11.2316  11.2682  11.2682  11.4005  11.4005  11.4657  11.4657
    12.2705  12.2705  12.3029  12.3029  12.3165  12.3165  12.3409  12.3409
    12.7832  12.7832  12.8538  12.8538  13.4271  13.4271  13.4749  13.4749
    15.7832  15.7832  15.8063  15.8063  16.8580  16.8580  16.8782  16.8782
    17.3598  17.3598  17.3863  17.3864  17.4784

          k =-0.5000-0.4741 0.3333 ( 62352 PWs)   bands (ev):

   -66.0737 -66.0737 -66.0736 -66.0736 -66.0732 -66.0732 -66.0731 -66.0731
   -30.4839 -30.4839 -30.4838 -30.4838 -30.4822 -30.4822 -30.4821 -30.4821
   -30.3851 -30.3851 -30.3835 -30.3835 -30.3611 -30.3611 -30.3598 -30.3598
   -30.3588 -30.3588 -30.3573 -30.3573 -30.3353 -30.3353 -30.3337 -30.3337
   -20.2242 -20.2242 -20.2241 -20.2241 -20.2240 -20.2240 -20.2239 -20.2239
   -20.2237 -20.2237 -20.2236 -20.2236 -20.2236 -20.2236 -20.2236 -20.2236
   -20.2135 -20.2135 -20.2133 -20.2133 -20.2127 -20.2127 -20.2127 -20.2127
   -20.2126 -20.2126 -20.2126 -20.2126 -20.2120 -20.2120 -20.2118 -20.2118
   -20.2001 -20.2001 -20.2000 -20.2000 -20.1999 -20.1999 -20.1998 -20.1998
   -20.1703 -20.1703 -20.1702 -20.1702 -20.1691 -20.1691 -20.1691 -20.1691
   -20.1683 -20.1683 -20.1683 -20.1683 -20.1673 -20.1673 -20.1671 -20.1671
    -9.1762  -9.1762  -9.1735  -9.1735  -8.7886  -8.7886  -8.7840  -8.7840
    -8.5418  -8.5418  -8.5363  -8.5363  -8.4035  -8.4035  -8.3956  -8.3956
    -8.3475  -8.3475  -8.3412  -8.3411  -8.0922  -8.0922  -8.0887  -8.0887
     2.2946   2.2946   2.2993   2.2993   3.0146   3.0146   3.0309   3.0309
     3.1273   3.1273   3.1383   3.1383   3.2622   3.2622   3.2895   3.2895
     3.3777   3.3777   3.4073   3.4073   3.6428   3.6428   3.6565   3.6566
     3.7882   3.7882   3.8289   3.8289   4.2498   4.2498   4.2715   4.2715
     4.3199   4.3199   4.3748   4.3748   4.4447   4.4447   4.5611   4.5611
     4.6427   4.6427   4.7945   4.7945   5.0847   5.0847   5.0975   5.0975
     7.0169   7.0169   7.0481   7.0481   7.1826   7.1826   7.1903   7.1903
     7.2609   7.2610   7.3048   7.3048   7.3220   7.3220   7.3904   7.3904
     7.4781   7.4781   7.5386   7.5386   7.6214   7.6214   7.6408   7.6408
    11.4634  11.4634  11.5009  11.5009  11.7561  11.7561  11.8336  11.8336
    12.2114  12.2114  12.2625  12.2625  12.3340  12.3340  12.3497  12.3498
    12.5183  12.5183  12.6277  12.6277  12.9858  12.9858  13.0664  13.0664
    16.5036  16.5036  16.5576  16.5576  17.0304  17.0304  17.0404  17.0404
    17.3363  17.3363  17.4061  17.4063  17.4451

          k =-0.5000-0.4741-0.5000 ( 62408 PWs)   bands (ev):

   -66.0735 -66.0735 -66.0735 -66.0735 -66.0734 -66.0734 -66.0734 -66.0734
   -30.4832 -30.4832 -30.4831 -30.4831 -30.4830 -30.4830 -30.4830 -30.4830
   -30.3609 -30.3609 -30.3607 -30.3607 -30.3605 -30.3605 -30.3604 -30.3604
   -30.3583 -30.3582 -30.3582 -30.3582 -30.3579 -30.3579 -30.3578 -30.3578
   -20.2241 -20.2241 -20.2241 -20.2241 -20.2240 -20.2240 -20.2240 -20.2240
   -20.2237 -20.2237 -20.2237 -20.2237 -20.2236 -20.2236 -20.2236 -20.2236
   -20.2129 -20.2129 -20.2129 -20.2129 -20.2128 -20.2128 -20.2128 -20.2128
   -20.2126 -20.2126 -20.2125 -20.2125 -20.2125 -20.2125 -20.2124 -20.2124
   -20.2000 -20.2000 -20.2000 -20.2000 -20.1999 -20.1999 -20.1999 -20.1999
   -20.1689 -20.1689 -20.1689 -20.1689 -20.1689 -20.1689 -20.1688 -20.1688
   -20.1686 -20.1686 -20.1686 -20.1686 -20.1686 -20.1686 -20.1685 -20.1685
    -8.9353  -8.9353  -8.9328  -8.9328  -8.9315  -8.9315  -8.9303  -8.9303
    -8.4146  -8.4146  -8.4096  -8.4096  -8.4072  -8.4072  -8.4056  -8.4056
    -8.3487  -8.3487  -8.3477  -8.3477  -8.3476  -8.3475  -8.3438  -8.3438
     3.0147   3.0147   3.0171   3.0171   3.0215   3.0215   3.0250   3.0250
     3.1509   3.1509   3.1545   3.1545   3.1601   3.1601   3.1649   3.1649
     3.4254   3.4254   3.4441   3.4441   3.4561   3.4561   3.4708   3.4709
     4.1558   4.1558   4.1593   4.1593   4.1611   4.1611   4.1623   4.1623
     4.3593   4.3593   4.3609   4.3609   4.3619   4.3619   4.3645   4.3645
     4.4462   4.4462   4.4527   4.4527   4.4562   4.4562   4.4582   4.4582
     7.1624   7.1624   7.1824   7.1824   7.1973   7.1973   7.2199   7.2199
     7.3232   7.3232   7.3259   7.3259   7.3278   7.3278   7.3292   7.3292
     7.6030   7.6031   7.6074   7.6074   7.6112   7.6112   7.6168   7.6168
    11.8536  11.8536  11.8548  11.8548  11.8560  11.8560  11.8579  11.8579
    12.2648  12.2648  12.2827  12.2827  12.2964  12.2964  12.3172  12.3172
    12.5319  12.5319  12.5412  12.5412  12.5471  12.5471  12.5542  12.5542
    17.1321  17.1321  17.1424  17.1424  17.1501  17.1501  17.1605  17.1605
    17.3914  17.3915  17.3919  17.3921  17.3954

     the Fermi energy is     9.8799 ev

!    total energy              =   -6260.68805147 Ry
     Harris-Foulkes estimate   =   -6260.68805147 Ry
     estimated scf accuracy    <          4.2E-09 Ry

     The total energy is the sum of the following terms:

     one-electron contribution =   -4732.19756077 Ry
     hartree contribution      =    2604.11558690 Ry
     xc contribution           =    -966.33315369 Ry
     ewald contribution        =   -3166.27291233 Ry
     smearing contrib. (-TS)   =      -0.00001157 Ry

     convergence has been achieved in  14 iterations

     Writing output data file Landau_2.save
 
     init_run     :     46.14s CPU     48.20s WALL (       1 calls)
     electrons    :   1936.82s CPU   1981.07s WALL (       1 calls)

     Called by init_run:
     wfcinit      :     43.14s CPU     45.05s WALL (       1 calls)
     potinit      :      1.24s CPU      1.27s WALL (       1 calls)

     Called by electrons:
     c_bands      :   1740.10s CPU   1781.49s WALL (      14 calls)
     sum_band     :    188.20s CPU    189.68s WALL (      14 calls)
     v_of_rho     :      1.52s CPU      1.56s WALL (      15 calls)
     mix_rho      :      2.42s CPU      3.16s WALL (      14 calls)

     Called by c_bands:
     init_us_2    :      8.73s CPU      9.36s WALL (      58 calls)
     cegterg      :   1513.49s CPU   1552.59s WALL (      28 calls)

     Called by sum_band:

     Called by *egterg:
     h_psi        :   1115.90s CPU   1125.07s WALL (     116 calls)
     g_psi        :      1.64s CPU      1.65s WALL (      86 calls)
     cdiaghg      :     18.43s CPU     18.52s WALL (     114 calls)

     Called by h_psi:
     h_psi:pot    :   1111.38s CPU   1120.19s WALL (     116 calls)
     h_psi:calbec :    178.36s CPU    183.72s WALL (     116 calls)
     vloc_psi     :    749.45s CPU    751.92s WALL (     116 calls)
     add_vuspsi   :    183.57s CPU    184.55s WALL (     116 calls)

     General routines
     calbec       :    178.36s CPU    183.72s WALL (     116 calls)
     fft          :      1.31s CPU      1.32s WALL (      60 calls)
     fftw         :    807.09s CPU    809.30s WALL (   36114 calls)
 
     Parallel routines
 
     PWSCF        : 33m 5.64s CPU    34m 3.60s WALL

 
   This run was terminated on:  20:34: 3  25Mar2020            

=------------------------------------------------------------------------------=
   JOB DONE.
=------------------------------------------------------------------------------=
