
     Program PWSCF v.6.2 (svn rev. 14038) starts on 28Aug2019 at 12: 6:31 

     This program is part of the open-source Quantum ESPRESSO suite
     for quantum simulation of materials; please cite
         "P. Giannozzi et al., J. Phys.:Condens. Matter 21 395502 (2009);
         "P. Giannozzi et al., J. Phys.:Condens. Matter 29 465901 (2017);
          URL http://www.quantum-espresso.org", 
     in publications or presentations arising from this work. More details at
     http://www.quantum-espresso.org/quote

     Parallel version (MPI), running on    64 processors

     MPI processes distributed on     4 nodes
     K-points division:     npool     =      64
     Reading input from scf.in

     Current dimensions of program PWSCF are:
     Max number of different atomic species (ntypx) = 10
     Max number of k-points (npk) =  40000
     Max angular momentum in pseudopotentials (lmaxx) =  3

     Subspace diagonalization in iterative solution of the eigenvalue problem:
     a serial algorithm will be used

 
     G-vector sticks info
     --------------------
     sticks:   dense  smooth     PW     G-vecs:    dense   smooth      PW
     Sum        7735    7735   2077               497847   497847   69025
 


     bravais-lattice index     =            0
     lattice parameter (alat)  =      13.8387  a.u.
     unit-cell volume          =    2803.5476 (a.u.)^3
     number of atoms/cell      =           32
     number of atomic types    =            2
     number of electrons       =       368.36
     number of Kohn-Sham states=          221
     kinetic-energy cutoff     =     120.0000  Ry
     charge density cutoff     =     480.0000  Ry
     convergence threshold     =      1.0E-08
     mixing beta               =       0.7000
     number of iterations used =            8  plain     mixing
     Exchange-correlation      = SLA PW NOGX NOGC ( 1  4  0  0 0 0)

     celldm(1)=  13.838741  celldm(2)=   0.000000  celldm(3)=   0.000000
     celldm(4)=   0.000000  celldm(5)=   0.000000  celldm(6)=   0.000000

     crystal axes: (cart. coord. in units of alat)
               a(1) = (   1.000000   0.000000   0.000000 )  
               a(2) = (   0.000000   1.057576   0.000000 )  
               a(3) = (   0.000000   0.000000   1.000246 )  

     reciprocal axes: (cart. coord. in units 2 pi/alat)
               b(1) = (  1.000000  0.000000  0.000000 )  
               b(2) = (  0.000000  0.945559  0.000000 )  
               b(3) = (  0.000000  0.000000  0.999754 )  


     PseudoPot. # 1 for W  read from file:
     /cluster/scratch/mnoe/QE/pps/W_ONCV_LDA-4.0.upf
     MD5 check sum: ba0307d5d4cd419d6f1d13dc49d7c13a
     Pseudo is Norm-conserving + core correction, Zval = 28.0
     Generated using ONCVPSP code by D. R. Hamann
     Using radial grid of 1380 points,  8 beta functions with: 
                l(1) =   0
                l(2) =   0
                l(3) =   1
                l(4) =   1
                l(5) =   2
                l(6) =   2
                l(7) =   3
                l(8) =   3

     PseudoPot. # 2 for O  read from file:
     /cluster/scratch/mnoe/QE/pps/O_ONCV_LDA-3.0.upf
     MD5 check sum: b55cdb4f45ae2203d24ad12cf8d61a31
     Pseudo is Norm-conserving + core correction, Zval =  6.0
     Generated using ONCVPSP code by D. R. Hamann
     Using radial grid of  926 points,  5 beta functions with: 
                l(1) =   0
                l(2) =   0
                l(3) =   1
                l(4) =   1
                l(5) =   2

     atomic species   valence    mass     pseudopotential
        W             28.00   183.84000     W ( 1.00)
        O              6.00    15.99940     O ( 1.00)

      8 Sym. Ops., with inversion, found ( 6 have fractional translation)



   Cartesian axes

     site n.     atom                  positions (alat units)
         1           W   tau(   1) = (   0.2467600   0.2980883   0.0030608  )
         2           W   tau(   2) = (   0.7532400   0.7594875   0.9971849  )
         3           W   tau(   3) = (   0.2532400   0.2306996   0.5031836  )
         4           W   tau(   4) = (   0.7467600   0.8268762   0.4970621  )
         5           W   tau(   5) = (   0.7532400   0.2980883   0.4970621  )
         6           W   tau(   6) = (   0.2467600   0.7594875   0.5031836  )
         7           W   tau(   7) = (   0.7467600   0.2306996   0.9971849  )
         8           W   tau(   8) = (   0.2532400   0.8268762   0.0030608  )
         9           O   tau(   9) = (   0.2440300   0.0087990   0.0009502  )
        10           O   tau(  10) = (   0.7559700   1.0487768   0.9992954  )
        11           O   tau(  11) = (   0.2559700   0.5199888   0.5010730  )
        12           O   tau(  12) = (   0.7440300   0.5375869   0.4991726  )
        13           O   tau(  13) = (   0.7559700   0.0087990   0.4991726  )
        14           O   tau(  14) = (   0.2440300   1.0487768   0.5010730  )
        15           O   tau(  15) = (   0.7440300   0.5199888   0.9992954  )
        16           O   tau(  16) = (   0.2559700   0.5375869   0.0009502  )
        17           O   tau(  17) = (   0.5008800   0.2579110   0.4496504  )
        18           O   tau(  18) = (   0.4991200   0.7996647   0.5505952  )
        19           O   tau(  19) = (   0.9991200   0.2708769   0.9497733  )
        20           O   tau(  20) = (   0.0008800   0.7866989   0.0504724  )
        21           O   tau(  21) = (   0.4991200   0.2579110   0.0504724  )
        22           O   tau(  22) = (   0.5008800   0.7996647   0.9497733  )
        23           O   tau(  23) = (   0.0008800   0.2708769   0.5505952  )
        24           O   tau(  24) = (   0.9991200   0.7866989   0.4496504  )
        25           O   tau(  25) = (   0.6995400   0.2629768   0.7488439  )
        26           O   tau(  26) = (   0.3004600   0.7945990   0.2514017  )
        27           O   tau(  27) = (   0.8004600   0.2658111   0.2487212  )
        28           O   tau(  28) = (   0.1995400   0.7917647   0.7515246  )
        29           O   tau(  29) = (   0.3004600   0.2629768   0.7515246  )
        30           O   tau(  30) = (   0.6995400   0.7945990   0.2487212  )
        31           O   tau(  31) = (   0.1995400   0.2658111   0.2514017  )
        32           O   tau(  32) = (   0.8004600   0.7917647   0.7488439  )

     number of k points=    64  gaussian smearing, width (Ry)=  0.0007
                       cart. coord. in units 2pi/alat
        k(    1) = (   0.0000000   0.0000000   0.0000000), wk =   0.0092593
        k(    2) = (   0.0000000   0.0000000   0.1666257), wk =   0.0185185
        k(    3) = (   0.0000000   0.0000000   0.3332515), wk =   0.0185185
        k(    4) = (   0.0000000   0.0000000  -0.4998772), wk =   0.0092593
        k(    5) = (   0.0000000   0.1575931   0.0000000), wk =   0.0185185
        k(    6) = (   0.0000000   0.1575931   0.1666257), wk =   0.0370370
        k(    7) = (   0.0000000   0.1575931   0.3332515), wk =   0.0370370
        k(    8) = (   0.0000000   0.1575931  -0.4998772), wk =   0.0185185
        k(    9) = (   0.0000000   0.3151862   0.0000000), wk =   0.0185185
        k(   10) = (   0.0000000   0.3151862   0.1666257), wk =   0.0370370
        k(   11) = (   0.0000000   0.3151862   0.3332515), wk =   0.0370370
        k(   12) = (   0.0000000   0.3151862  -0.4998772), wk =   0.0185185
        k(   13) = (   0.0000000  -0.4727794   0.0000000), wk =   0.0092593
        k(   14) = (   0.0000000  -0.4727794   0.1666257), wk =   0.0185185
        k(   15) = (   0.0000000  -0.4727794   0.3332515), wk =   0.0185185
        k(   16) = (   0.0000000  -0.4727794  -0.4998772), wk =   0.0092593
        k(   17) = (   0.1666667   0.0000000   0.0000000), wk =   0.0185185
        k(   18) = (   0.1666667   0.0000000   0.1666257), wk =   0.0370370
        k(   19) = (   0.1666667   0.0000000   0.3332515), wk =   0.0370370
        k(   20) = (   0.1666667   0.0000000  -0.4998772), wk =   0.0185185
        k(   21) = (   0.1666667   0.1575931   0.0000000), wk =   0.0370370
        k(   22) = (   0.1666667   0.1575931   0.1666257), wk =   0.0740741
        k(   23) = (   0.1666667   0.1575931   0.3332515), wk =   0.0740741
        k(   24) = (   0.1666667   0.1575931  -0.4998772), wk =   0.0370370
        k(   25) = (   0.1666667   0.3151862   0.0000000), wk =   0.0370370
        k(   26) = (   0.1666667   0.3151862   0.1666257), wk =   0.0740741
        k(   27) = (   0.1666667   0.3151862   0.3332515), wk =   0.0740741
        k(   28) = (   0.1666667   0.3151862  -0.4998772), wk =   0.0370370
        k(   29) = (   0.1666667  -0.4727794   0.0000000), wk =   0.0185185
        k(   30) = (   0.1666667  -0.4727794   0.1666257), wk =   0.0370370
        k(   31) = (   0.1666667  -0.4727794   0.3332515), wk =   0.0370370
        k(   32) = (   0.1666667  -0.4727794  -0.4998772), wk =   0.0185185
        k(   33) = (   0.3333333   0.0000000   0.0000000), wk =   0.0185185
        k(   34) = (   0.3333333   0.0000000   0.1666257), wk =   0.0370370
        k(   35) = (   0.3333333   0.0000000   0.3332515), wk =   0.0370370
        k(   36) = (   0.3333333   0.0000000  -0.4998772), wk =   0.0185185
        k(   37) = (   0.3333333   0.1575931   0.0000000), wk =   0.0370370
        k(   38) = (   0.3333333   0.1575931   0.1666257), wk =   0.0740741
        k(   39) = (   0.3333333   0.1575931   0.3332515), wk =   0.0740741
        k(   40) = (   0.3333333   0.1575931  -0.4998772), wk =   0.0370370
        k(   41) = (   0.3333333   0.3151862   0.0000000), wk =   0.0370370
        k(   42) = (   0.3333333   0.3151862   0.1666257), wk =   0.0740741
        k(   43) = (   0.3333333   0.3151862   0.3332515), wk =   0.0740741
        k(   44) = (   0.3333333   0.3151862  -0.4998772), wk =   0.0370370
        k(   45) = (   0.3333333  -0.4727794   0.0000000), wk =   0.0185185
        k(   46) = (   0.3333333  -0.4727794   0.1666257), wk =   0.0370370
        k(   47) = (   0.3333333  -0.4727794   0.3332515), wk =   0.0370370
        k(   48) = (   0.3333333  -0.4727794  -0.4998772), wk =   0.0185185
        k(   49) = (  -0.5000000   0.0000000   0.0000000), wk =   0.0092593
        k(   50) = (  -0.5000000   0.0000000   0.1666257), wk =   0.0185185
        k(   51) = (  -0.5000000   0.0000000   0.3332515), wk =   0.0185185
        k(   52) = (  -0.5000000   0.0000000  -0.4998772), wk =   0.0092593
        k(   53) = (  -0.5000000   0.1575931   0.0000000), wk =   0.0185185
        k(   54) = (  -0.5000000   0.1575931   0.1666257), wk =   0.0370370
        k(   55) = (  -0.5000000   0.1575931   0.3332515), wk =   0.0370370
        k(   56) = (  -0.5000000   0.1575931  -0.4998772), wk =   0.0185185
        k(   57) = (  -0.5000000   0.3151862   0.0000000), wk =   0.0185185
        k(   58) = (  -0.5000000   0.3151862   0.1666257), wk =   0.0370370
        k(   59) = (  -0.5000000   0.3151862   0.3332515), wk =   0.0370370
        k(   60) = (  -0.5000000   0.3151862  -0.4998772), wk =   0.0185185
        k(   61) = (  -0.5000000  -0.4727794   0.0000000), wk =   0.0092593
        k(   62) = (  -0.5000000  -0.4727794   0.1666257), wk =   0.0185185
        k(   63) = (  -0.5000000  -0.4727794   0.3332515), wk =   0.0185185
        k(   64) = (  -0.5000000  -0.4727794  -0.4998772), wk =   0.0092593

     Dense  grid:   497847 G-vectors     FFT dimensions: ( 100, 108, 100)

     Estimated max dynamical RAM per process >       2.72 GB

     Estimated total dynamical RAM >     173.80 GB

     Initial potential from superposition of free atoms

     starting charge  367.99656, renormalised to  368.36000
     Starting wfc are  232 randomized atomic wfcs

     total cpu time spent up to now is       27.9 secs

     Self-consistent Calculation

     iteration #  1     ecut=   120.00 Ry     beta= 0.70
     Davidson diagonalization with overlap
     ethr =  1.00E-02,  avg # of iterations =  5.1

     total cpu time spent up to now is      118.4 secs

     total energy              =   -6253.66164637 Ry
     Harris-Foulkes estimate   =   -6264.39285664 Ry
     estimated scf accuracy    <      13.54608038 Ry

     iteration #  2     ecut=   120.00 Ry     beta= 0.70
     Davidson diagonalization with overlap
     ethr =  3.68E-03,  avg # of iterations =  3.5

     total cpu time spent up to now is      206.7 secs

     total energy              =   -6250.56929921 Ry
     Harris-Foulkes estimate   =   -6270.51043391 Ry
     estimated scf accuracy    <      53.29529188 Ry

     iteration #  3     ecut=   120.00 Ry     beta= 0.70
     Davidson diagonalization with overlap
     ethr =  3.68E-03,  avg # of iterations =  3.3

     total cpu time spent up to now is      290.1 secs

     total energy              =   -6260.84078599 Ry
     Harris-Foulkes estimate   =   -6261.12100005 Ry
     estimated scf accuracy    <       0.92824927 Ry

     iteration #  4     ecut=   120.00 Ry     beta= 0.70
     Davidson diagonalization with overlap
     ethr =  2.52E-04,  avg # of iterations =  3.1

     total cpu time spent up to now is      359.2 secs

     total energy              =   -6260.84211156 Ry
     Harris-Foulkes estimate   =   -6260.91313648 Ry
     estimated scf accuracy    <       0.23109578 Ry

     iteration #  5     ecut=   120.00 Ry     beta= 0.70
     Davidson diagonalization with overlap
     ethr =  6.27E-05,  avg # of iterations =  4.8

     total cpu time spent up to now is      432.7 secs

     total energy              =   -6260.84097312 Ry
     Harris-Foulkes estimate   =   -6260.87318704 Ry
     estimated scf accuracy    <       0.07101124 Ry

     iteration #  6     ecut=   120.00 Ry     beta= 0.70
     Davidson diagonalization with overlap
     ethr =  1.93E-05,  avg # of iterations =  4.8

     total cpu time spent up to now is      509.4 secs

     total energy              =   -6260.85654871 Ry
     Harris-Foulkes estimate   =   -6260.85896252 Ry
     estimated scf accuracy    <       0.00633957 Ry

     iteration #  7     ecut=   120.00 Ry     beta= 0.70
     Davidson diagonalization with overlap
     ethr =  1.72E-06,  avg # of iterations =  5.2

     total cpu time spent up to now is      587.3 secs

     total energy              =   -6260.85739948 Ry
     Harris-Foulkes estimate   =   -6260.85747030 Ry
     estimated scf accuracy    <       0.00013087 Ry

     iteration #  8     ecut=   120.00 Ry     beta= 0.70
     Davidson diagonalization with overlap
     ethr =  3.55E-08,  avg # of iterations =  3.1

     total cpu time spent up to now is      677.2 secs

     total energy              =   -6260.85745834 Ry
     Harris-Foulkes estimate   =   -6260.85746545 Ry
     estimated scf accuracy    <       0.00003411 Ry

     iteration #  9     ecut=   120.00 Ry     beta= 0.70
     Davidson diagonalization with overlap
     ethr =  9.26E-09,  avg # of iterations =  2.0

     total cpu time spent up to now is      742.9 secs

     total energy              =   -6260.85745401 Ry
     Harris-Foulkes estimate   =   -6260.85746024 Ry
     estimated scf accuracy    <       0.00001574 Ry

     iteration # 10     ecut=   120.00 Ry     beta= 0.70
     Davidson diagonalization with overlap
     ethr =  4.27E-09,  avg # of iterations =  2.0

     total cpu time spent up to now is      810.8 secs

     total energy              =   -6260.85745669 Ry
     Harris-Foulkes estimate   =   -6260.85745679 Ry
     estimated scf accuracy    <       0.00000022 Ry

     iteration # 11     ecut=   120.00 Ry     beta= 0.70
     Davidson diagonalization with overlap
     ethr =  5.98E-11,  avg # of iterations =  2.8

     total cpu time spent up to now is      896.2 secs

     total energy              =   -6260.85745675 Ry
     Harris-Foulkes estimate   =   -6260.85745678 Ry
     estimated scf accuracy    <       0.00000007 Ry

     iteration # 12     ecut=   120.00 Ry     beta= 0.70
     Davidson diagonalization with overlap
     ethr =  1.81E-11,  avg # of iterations =  1.3

     total cpu time spent up to now is      961.3 secs

     total energy              =   -6260.85745674 Ry
     Harris-Foulkes estimate   =   -6260.85745675 Ry
     estimated scf accuracy    <       0.00000002 Ry

     iteration # 13     ecut=   120.00 Ry     beta= 0.70
     Davidson diagonalization with overlap
     ethr =  4.19E-12,  avg # of iterations =  2.0

     total cpu time spent up to now is     1042.1 secs

     End of self-consistent calculation

          k = 0.0000 0.0000 0.0000 ( 62231 PWs)   bands (ev):

   -66.0804 -66.0800 -66.0794 -66.0793 -66.0789 -66.0789 -66.0783 -66.0779
   -30.5050 -30.5016 -30.5014 -30.4981 -30.4468 -30.4433 -30.4428 -30.4395
   -30.4229 -30.4224 -30.4195 -30.4172 -30.4171 -30.4170 -30.4144 -30.4128
   -30.3219 -30.3213 -30.3192 -30.3184 -30.3177 -30.3169 -30.3148 -30.3140
   -20.2331 -20.2330 -20.2330 -20.2330 -20.2330 -20.2329 -20.2329 -20.2328
   -20.2284 -20.2281 -20.2281 -20.2279 -20.2230 -20.2227 -20.2227 -20.2224
   -20.2174 -20.2171 -20.2171 -20.2169 -20.2163 -20.2162 -20.2161 -20.2160
   -20.2151 -20.2149 -20.2148 -20.2147 -20.2142 -20.2139 -20.2138 -20.2136
   -20.2058 -20.2057 -20.2055 -20.2054 -20.2052 -20.2050 -20.2048 -20.2047
   -20.1912 -20.1912 -20.1907 -20.1907 -20.1898 -20.1898 -20.1894 -20.1893
   -20.1845 -20.1845 -20.1842 -20.1842 -20.1832 -20.1832 -20.1829 -20.1828
    -9.9229  -9.6376  -9.4826  -9.4825  -9.2037  -9.2021  -9.0624  -9.0128
    -9.0005  -8.8576  -8.8267  -8.8264  -7.8456  -7.7846  -7.7830  -7.7467
    -7.7448  -7.7311  -7.7203  -7.7203  -7.5909  -7.5899  -7.5693  -7.5689
     1.2448   1.2449   1.3189   1.3211   1.3384   1.3422   1.4006   1.6510
     1.6537   1.6550   1.6865   1.8928   2.4248   2.4997   2.5951   2.5969
     2.7450   2.7481   4.1605   4.1653   4.3843   4.3927   4.8405   4.8536
     4.8837   4.8883   4.9114   4.9130   5.0575   5.0577   5.0944   5.4479
     5.4545   5.5336   5.5494   5.5547   5.5558   5.5997   5.6140   5.8282
     5.8354   5.9036   5.9042   5.9512   5.9771   6.0616   6.0633   6.1484
     6.1494   6.2675   6.2724   6.5928   6.5945   6.8179   6.8256   6.8511
     6.8555   6.8993   7.0340   7.0381   7.1038   7.1076   7.4191   7.4248
     7.4636   7.4689   7.8102   7.8244   8.0868   8.0950   8.1539   8.1622
     9.3233   9.3290  10.0364  10.0394  10.0730  10.0765  12.2821  12.3025
    12.3149  12.3458  12.3636  12.3756  12.5418  12.5470  12.8943  12.9191
    13.2729  13.2846  13.4395  13.4468  13.8056  14.1482  14.1927  14.1974
    14.2176  14.3969  14.4423  14.8967  15.4804  15.4925  15.5071  16.1001
    16.1049  16.8466  17.0816  17.0883  17.4715

          k = 0.0000 0.0000 0.1666 ( 62222 PWs)   bands (ev):

   -66.0803 -66.0799 -66.0794 -66.0793 -66.0790 -66.0789 -66.0784 -66.0780
   -30.5049 -30.5019 -30.5014 -30.4984 -30.4467 -30.4435 -30.4429 -30.4398
   -30.4220 -30.4185 -30.4174 -30.4145 -30.4131 -30.4128 -30.4101 -30.4076
   -30.3286 -30.3260 -30.3242 -30.3216 -30.3210 -30.3181 -30.3171 -30.3143
   -20.2331 -20.2330 -20.2330 -20.2330 -20.2329 -20.2329 -20.2329 -20.2328
   -20.2284 -20.2282 -20.2281 -20.2279 -20.2230 -20.2227 -20.2227 -20.2224
   -20.2174 -20.2171 -20.2170 -20.2167 -20.2163 -20.2161 -20.2161 -20.2158
   -20.2151 -20.2150 -20.2148 -20.2147 -20.2142 -20.2140 -20.2139 -20.2137
   -20.2058 -20.2057 -20.2055 -20.2054 -20.2051 -20.2050 -20.2048 -20.2047
   -20.1908 -20.1908 -20.1906 -20.1906 -20.1894 -20.1894 -20.1894 -20.1894
   -20.1850 -20.1849 -20.1841 -20.1841 -20.1837 -20.1836 -20.1829 -20.1829
    -9.8762  -9.5837  -9.4996  -9.4224  -9.2168  -9.1141  -9.0710  -8.9741
    -8.9589  -8.8453  -8.8311  -8.7951  -7.8671  -7.8587  -7.8396  -7.7883
    -7.7763  -7.7345  -7.7324  -7.7214  -7.7095  -7.7017  -7.5998  -7.5786
     1.3200   1.3235   1.3359   1.3487   1.4661   1.5007   1.5957   1.6464
     1.6477   1.7280   1.8568   2.0148   2.5120   2.5913   2.6046   2.6856
     2.7364   2.8369   4.1014   4.1613   4.3796   4.4020   4.4051   4.5122
     4.6929   4.8108   4.8331   4.9545   4.9608   5.0476   5.0779   5.3167
     5.3671   5.4383   5.5268   5.5549   5.5680   5.6263   5.6382   5.6664
     5.7661   5.7683   5.8222   5.9481   5.9899   6.1112   6.1470   6.1554
     6.2886   6.4373   6.5116   6.5834   6.6826   6.7132   6.7950   6.8470
     6.8623   6.8744   6.9954   7.0338   7.0385   7.1166   7.1990   7.2012
     7.2411   7.3052   7.8308   7.8330   8.0539   8.1019   8.1194   8.1551
     9.6673   9.6990  10.0404  10.0704  10.2990  10.3544  12.2171  12.2709
    12.3079  12.3518  12.3754  12.4124  12.5498  12.6383  12.9254  12.9556
    13.0782  13.2764  13.3299  13.4400  13.9259  14.0516  14.0697  14.1464
    14.2217  14.4363  14.5183  15.0071  15.4725  15.5114  15.5422  16.0766
    16.4073  16.8177  17.0165  17.2688  17.5225

          k = 0.0000 0.0000 0.3333 ( 62228 PWs)   bands (ev):

   -66.0801 -66.0797 -66.0796 -66.0792 -66.0791 -66.0787 -66.0786 -66.0782
   -30.5045 -30.5027 -30.5010 -30.4992 -30.4463 -30.4443 -30.4426 -30.4406
   -30.4210 -30.4184 -30.4168 -30.4141 -30.3968 -30.3944 -30.3919 -30.3894
   -30.3470 -30.3443 -30.3424 -30.3398 -30.3202 -30.3179 -30.3173 -30.3152
   -20.2331 -20.2330 -20.2330 -20.2330 -20.2329 -20.2329 -20.2329 -20.2329
   -20.2284 -20.2282 -20.2281 -20.2280 -20.2230 -20.2228 -20.2227 -20.2225
   -20.2173 -20.2172 -20.2168 -20.2164 -20.2163 -20.2158 -20.2158 -20.2154
   -20.2153 -20.2152 -20.2150 -20.2146 -20.2144 -20.2141 -20.2140 -20.2139
   -20.2057 -20.2056 -20.2055 -20.2054 -20.2051 -20.2050 -20.2049 -20.2048
   -20.1904 -20.1904 -20.1897 -20.1897 -20.1896 -20.1896 -20.1882 -20.1882
   -20.1863 -20.1862 -20.1849 -20.1849 -20.1839 -20.1838 -20.1832 -20.1832
    -9.7629  -9.5517  -9.4587  -9.2838  -9.2615  -9.1000  -8.8969  -8.8588
    -8.8439  -8.8120  -8.7586  -8.6728  -8.1670  -8.1662  -8.0612  -8.0422
    -7.8226  -7.7984  -7.7680  -7.7437  -7.7035  -7.6815  -7.6270  -7.6056
     1.3299   1.3410   1.3659   1.3919   1.5862   1.5938   1.6298   1.6344
     2.2858   2.3192   2.4928   2.5719   2.6301   2.7274   2.7639   2.8593
     2.9274   3.0733   3.7864   3.8593   3.8824   3.9800   4.2042   4.2954
     4.3314   4.5418   4.5791   4.8012   4.8323   4.8461   4.9796   5.0210
     5.1997   5.2192   5.2307   5.3645   5.4831   5.5055   5.6381   5.6832
     5.7193   5.7655   5.7978   6.0108   6.0148   6.1930   6.2721   6.3155
     6.3443   6.4096   6.5455   6.5514   6.6028   6.6113   6.6753   6.7732
     6.8401   6.8691   6.8793   7.0207   7.0527   7.0675   7.1106   7.1471
     7.3444   7.3785   7.7753   7.7956   7.9272   7.9828   8.1376   8.1568
    10.0382  10.0625  10.3849  10.4593  10.9082  11.0221  11.8518  11.8993
    12.1148  12.4943  12.5035  12.5438  12.5745  12.6264  12.7280  12.9026
    12.9208  13.1355  13.2055  13.4484  13.7224  13.7413  14.0977  14.1416
    14.2832  14.4168  14.8346  15.2953  15.3614  15.6529  15.9194  15.9905
    16.2756  17.2442  17.4056  17.5537  17.6636

          k = 0.0000 0.0000-0.4999 ( 62232 PWs)   bands (ev):

   -66.0799 -66.0798 -66.0795 -66.0794 -66.0788 -66.0788 -66.0784 -66.0784
   -30.5037 -30.5037 -30.5002 -30.5002 -30.4454 -30.4454 -30.4417 -30.4417
   -30.4197 -30.4197 -30.4155 -30.4154 -30.3719 -30.3719 -30.3694 -30.3694
   -30.3671 -30.3671 -30.3646 -30.3645 -30.3191 -30.3190 -30.3163 -30.3162
   -20.2330 -20.2330 -20.2330 -20.2330 -20.2329 -20.2329 -20.2329 -20.2329
   -20.2283 -20.2283 -20.2280 -20.2280 -20.2229 -20.2229 -20.2226 -20.2226
   -20.2172 -20.2172 -20.2165 -20.2165 -20.2158 -20.2158 -20.2155 -20.2155
   -20.2154 -20.2154 -20.2149 -20.2149 -20.2144 -20.2144 -20.2140 -20.2140
   -20.2056 -20.2056 -20.2055 -20.2055 -20.2050 -20.2050 -20.2049 -20.2049
   -20.1901 -20.1900 -20.1900 -20.1900 -20.1880 -20.1879 -20.1879 -20.1879
   -20.1866 -20.1866 -20.1866 -20.1866 -20.1835 -20.1835 -20.1835 -20.1835
    -9.6417  -9.6417  -9.3402  -9.3402  -9.1639  -9.1638  -8.8631  -8.8631
    -8.5309  -8.5309  -8.5063  -8.5063  -8.4803  -8.4803  -8.4071  -8.4071
    -7.8117  -7.8117  -7.7561  -7.7561  -7.6648  -7.6648  -7.6431  -7.6431
     1.3373   1.3374   1.3859   1.3859   1.6126   1.6126   1.6207   1.6207
     2.6627   2.6627   2.9996   2.9996   3.1435   3.1435   3.1709   3.1709
     3.3085   3.3085   3.3670   3.3670   3.4951   3.4951   3.8005   3.8005
     3.9182   3.9182   4.4711   4.4711   4.7544   4.7544   4.9298   4.9298
     5.2634   5.2634   5.3625   5.3625   5.3709   5.3709   5.6818   5.6818
     5.7575   5.7576   5.9472   5.9472   6.2031   6.2031   6.2757   6.2757
     6.3600   6.3600   6.4771   6.4771   6.4983   6.4983   6.5520   6.5520
     6.8055   6.8055   6.8426   6.8426   7.0904   7.0904   7.5115   7.5115
     7.5731   7.5731   7.7069   7.7069   7.7335   7.7335   8.1541   8.1541
    10.0510  10.0510  11.1765  11.1765  11.2481  11.2481  11.5958  11.5958
    11.8158  11.8158  12.5860  12.5860  12.7044  12.7044  12.8202  12.8202
    12.9603  12.9603  13.2990  13.2990  13.5029  13.5029  14.1330  14.1330
    14.3742  14.3742  15.1520  15.1520  15.7288  15.7288  15.8441  15.8441
    16.6700  16.6700  17.8328  17.8328  18.1695

          k = 0.0000 0.1576 0.0000 ( 62207 PWs)   bands (ev):

   -66.0803 -66.0800 -66.0793 -66.0793 -66.0790 -66.0790 -66.0783 -66.0780
   -30.5011 -30.4977 -30.4975 -30.4942 -30.4505 -30.4471 -30.4467 -30.4435
   -30.4228 -30.4222 -30.4197 -30.4177 -30.4170 -30.4168 -30.4146 -30.4132
   -30.3217 -30.3211 -30.3194 -30.3186 -30.3175 -30.3168 -30.3150 -30.3142
   -20.2331 -20.2330 -20.2330 -20.2330 -20.2330 -20.2329 -20.2329 -20.2328
   -20.2280 -20.2278 -20.2278 -20.2275 -20.2233 -20.2231 -20.2230 -20.2228
   -20.2173 -20.2171 -20.2170 -20.2168 -20.2163 -20.2162 -20.2162 -20.2160
   -20.2150 -20.2149 -20.2147 -20.2146 -20.2143 -20.2140 -20.2139 -20.2137
   -20.2058 -20.2057 -20.2054 -20.2054 -20.2052 -20.2051 -20.2048 -20.2047
   -20.1912 -20.1912 -20.1907 -20.1907 -20.1898 -20.1898 -20.1893 -20.1893
   -20.1845 -20.1845 -20.1842 -20.1842 -20.1832 -20.1832 -20.1829 -20.1828
    -9.8938  -9.6492  -9.4457  -9.4456  -9.2113  -9.2097  -9.0120  -9.0014
    -8.9888  -8.8115  -8.7887  -8.7885  -7.9394  -7.8838  -7.8825  -7.8376
    -7.7450  -7.7443  -7.7222  -7.7221  -7.5895  -7.5888  -7.5708  -7.5703
     1.2448   1.2449   1.3283   1.3312   1.3383   1.3421   1.5336   1.6857
     1.8324   1.8829   1.8853   2.0630   2.4296   2.4945   2.6666   2.6688
     2.8125   2.8161   4.0284   4.0340   4.1166   4.1235   4.8077   4.8834
     4.8912   4.9023   4.9065   4.9146   4.9476   5.0044   5.0047   5.3019
     5.3061   5.4850   5.4864   5.6225   5.6476   5.6502   5.6510   5.6680
     5.8277   5.8312   5.8917   5.8954   5.9905   6.0677   6.0688   6.1531
     6.1544   6.2611   6.2686   6.6140   6.6173   6.8486   6.8551   6.8607
     6.8887   6.8931   6.9101   7.0260   7.0277   7.0290   7.4278   7.4329
     7.4635   7.4681   7.8151   7.8237   8.0466   8.0533   8.0743   8.0802
     9.3238   9.3291  10.2351  10.2364  10.2431  10.2437  12.1953  12.2044
    12.3153  12.3194  12.3629  12.3694  12.3873  12.3916  12.8975  12.9186
    13.3076  13.3179  13.4457  13.4519  14.0378  14.0870  14.0949  14.1069
    14.2143  14.6737  14.6893  15.0656  15.4806  15.4908  15.9083  16.0663
    16.0706  16.5363  17.2145  17.2212  17.5196

          k = 0.0000 0.1576 0.1666 ( 62217 PWs)   bands (ev):

   -66.0803 -66.0799 -66.0794 -66.0792 -66.0790 -66.0789 -66.0784 -66.0780
   -30.5010 -30.4980 -30.4975 -30.4945 -30.4505 -30.4474 -30.4468 -30.4438
   -30.4218 -30.4187 -30.4172 -30.4147 -30.4135 -30.4130 -30.4100 -30.4078
   -30.3284 -30.3262 -30.3241 -30.3218 -30.3208 -30.3183 -30.3169 -30.3145
   -20.2331 -20.2330 -20.2330 -20.2330 -20.2329 -20.2329 -20.2329 -20.2328
   -20.2280 -20.2278 -20.2278 -20.2275 -20.2233 -20.2231 -20.2230 -20.2228
   -20.2173 -20.2170 -20.2169 -20.2167 -20.2163 -20.2161 -20.2161 -20.2159
   -20.2150 -20.2149 -20.2148 -20.2147 -20.2143 -20.2141 -20.2139 -20.2138
   -20.2058 -20.2057 -20.2055 -20.2054 -20.2051 -20.2050 -20.2048 -20.2047
   -20.1908 -20.1908 -20.1906 -20.1906 -20.1894 -20.1894 -20.1894 -20.1894
   -20.1850 -20.1849 -20.1841 -20.1841 -20.1837 -20.1836 -20.1829 -20.1829
    -9.8460  -9.5952  -9.4627  -9.3810  -9.2246  -9.1217  -8.9973  -8.9725
    -8.9598  -8.8012  -8.7931  -8.7617  -7.9394  -7.8991  -7.8820  -7.8655
    -7.8448  -7.8354  -7.7318  -7.7202  -7.7109  -7.7004  -7.5987  -7.5801
     1.3304   1.3358   1.3361   1.3487   1.5585   1.5954   1.6290   1.8414
     1.8559   1.8797   1.9047   2.1256   2.5178   2.5857   2.6759   2.7594
     2.8045   2.9047   4.0013   4.0446   4.1129   4.1525   4.4346   4.5096
     4.7321   4.7510   4.7911   4.9265   4.9469   4.9617   5.0142   5.2590
     5.2742   5.3279   5.3318   5.5094   5.6060   5.6096   5.6528   5.7070
     5.7500   5.7673   5.8321   5.8648   5.8932   6.1262   6.1430   6.1878
     6.2295   6.4237   6.4886   6.6053   6.7313   6.7913   6.8128   6.8352
     6.8757   6.9001   6.9777   6.9881   7.0362   7.0440   7.1995   7.2008
     7.2579   7.3044   7.8324   7.8335   8.0143   8.0428   8.0479   8.0759
     9.6729   9.6990  10.2371  10.2440  10.4643  10.4922  12.1784  12.2445
    12.2644  12.2811  12.3631  12.3680  12.3951  12.5161  12.9265  12.9573
    13.1162  13.3084  13.3343  13.4440  13.9513  13.9781  14.0630  14.0852
    14.3129  14.6830  14.8181  15.1622  15.5106  15.5423  15.8744  16.0427
    16.3713  16.6925  16.9430  17.3823  17.5849

          k = 0.0000 0.1576 0.3333 ( 62238 PWs)   bands (ev):

   -66.0801 -66.0797 -66.0796 -66.0792 -66.0791 -66.0787 -66.0786 -66.0782
   -30.5006 -30.4987 -30.4971 -30.4953 -30.4501 -30.4482 -30.4465 -30.4446
   -30.4208 -30.4181 -30.4172 -30.4145 -30.3967 -30.3946 -30.3917 -30.3895
   -30.3468 -30.3445 -30.3422 -30.3399 -30.3200 -30.3178 -30.3175 -30.3154
   -20.2331 -20.2330 -20.2330 -20.2330 -20.2329 -20.2329 -20.2329 -20.2329
   -20.2280 -20.2279 -20.2277 -20.2276 -20.2233 -20.2232 -20.2230 -20.2229
   -20.2172 -20.2171 -20.2167 -20.2164 -20.2163 -20.2159 -20.2158 -20.2154
   -20.2153 -20.2152 -20.2150 -20.2147 -20.2144 -20.2142 -20.2141 -20.2140
   -20.2057 -20.2056 -20.2055 -20.2054 -20.2051 -20.2050 -20.2049 -20.2048
   -20.1904 -20.1904 -20.1897 -20.1897 -20.1896 -20.1896 -20.1882 -20.1882
   -20.1863 -20.1862 -20.1849 -20.1849 -20.1839 -20.1838 -20.1832 -20.1832
    -9.7300  -9.5154  -9.4698  -9.2700  -9.2283  -9.0270  -8.8772  -8.8669
    -8.8136  -8.8060  -8.7353  -8.6533  -8.1735  -8.1642  -8.0786  -8.0402
    -7.9118  -7.8921  -7.8664  -7.8390  -7.7027  -7.6831  -7.6260  -7.6071
     1.3489   1.3657   1.3712   1.3917   1.7687   1.7937   1.8731   1.8788
     2.2842   2.3311   2.4955   2.5902   2.7008   2.7737   2.7866   2.8581
     3.0026   3.1342   3.7857   3.8552   3.8767   3.9292   4.1265   4.1564
     4.2629   4.3801   4.5977   4.7364   4.8142   4.8212   4.8457   4.8960
     5.0482   5.1698   5.1864   5.2124   5.3930   5.4460   5.5177   5.6300
     5.7064   5.7515   5.7971   5.8435   5.9881   6.1663   6.2321   6.2733
     6.3738   6.5674   6.5821   6.6083   6.6559   6.6860   6.7336   6.8190
     6.8381   6.8474   6.9466   6.9842   7.0256   7.0557   7.0896   7.1350
     7.3375   7.3715   7.7784   7.7939   7.8933   7.9231   8.0671   8.0787
    10.2299  10.2416  10.3940  10.4624  11.0223  11.1117  11.8533  11.8967
    12.0809  12.4056  12.4633  12.5258  12.5308  12.5939  12.6817  12.7924
    12.9124  13.1349  13.2224  13.4436  13.6249  13.6533  14.0742  14.0815
    14.5230  14.6647  15.1791  15.4238  15.6418  15.7656  15.9371  15.9588
    16.4028  17.1571  17.2013  17.4557  17.8060

          k = 0.0000 0.1576-0.4999 ( 62196 PWs)   bands (ev):

   -66.0798 -66.0798 -66.0795 -66.0795 -66.0788 -66.0788 -66.0785 -66.0785
   -30.4997 -30.4997 -30.4963 -30.4963 -30.4492 -30.4492 -30.4456 -30.4456
   -30.4195 -30.4195 -30.4158 -30.4158 -30.3718 -30.3718 -30.3696 -30.3695
   -30.3670 -30.3670 -30.3647 -30.3647 -30.3189 -30.3189 -30.3165 -30.3164
   -20.2330 -20.2330 -20.2330 -20.2330 -20.2329 -20.2329 -20.2329 -20.2329
   -20.2280 -20.2279 -20.2277 -20.2277 -20.2233 -20.2233 -20.2230 -20.2230
   -20.2172 -20.2171 -20.2165 -20.2165 -20.2158 -20.2158 -20.2155 -20.2154
   -20.2154 -20.2154 -20.2149 -20.2149 -20.2144 -20.2144 -20.2141 -20.2141
   -20.2056 -20.2056 -20.2055 -20.2055 -20.2050 -20.2050 -20.2049 -20.2049
   -20.1901 -20.1900 -20.1900 -20.1900 -20.1880 -20.1879 -20.1879 -20.1879
   -20.1866 -20.1866 -20.1866 -20.1866 -20.1835 -20.1835 -20.1835 -20.1835
    -9.6065  -9.6064  -9.3499  -9.3499  -9.0949  -9.0949  -8.8275  -8.8274
    -8.5344  -8.5344  -8.5012  -8.5012  -8.4898  -8.4897  -8.4011  -8.4011
    -7.9051  -7.9051  -7.8549  -7.8548  -7.6639  -7.6639  -7.6447  -7.6447
     1.3644   1.3644   1.3857   1.3857   1.7941   1.7941   1.8818   1.8818
     2.7305   2.7305   3.0166   3.0166   3.1357   3.1357   3.2158   3.2158
     3.3156   3.3156   3.3642   3.3642   3.4838   3.4839   3.8004   3.8004
     3.9672   3.9672   4.2755   4.2755   4.6580   4.6580   4.7695   4.7695
     5.0922   5.0922   5.3343   5.3343   5.3402   5.3402   5.5132   5.5132
     5.7163   5.7164   5.8217   5.8217   6.2008   6.2008   6.3450   6.3450
     6.3753   6.3753   6.4961   6.4961   6.5443   6.5444   6.6806   6.6806
     6.8680   6.8680   6.8695   6.8695   7.0078   7.0078   7.5206   7.5206
     7.5672   7.5672   7.6813   7.6813   7.7027   7.7027   8.0780   8.0780
    10.2399  10.2399  11.1820  11.1820  11.2456  11.2456  11.6605  11.6605
    11.8760  11.8760  12.4599  12.4599  12.6815  12.6815  12.8234  12.8234
    12.9024  12.9024  13.2001  13.2001  13.4713  13.4713  14.0774  14.0775
    14.6253  14.6253  15.5211  15.5211  15.8191  15.8191  15.8717  15.8717
    16.7094  16.7094  17.6378  17.6378  18.1535

          k = 0.0000 0.3152 0.0000 ( 62165 PWs)   bands (ev):

   -66.0803 -66.0801 -66.0792 -66.0792 -66.0790 -66.0790 -66.0782 -66.0780
   -30.4903 -30.4869 -30.4868 -30.4836 -30.4610 -30.4577 -30.4574 -30.4543
   -30.4223 -30.4217 -30.4201 -30.4187 -30.4166 -30.4161 -30.4151 -30.4141
   -30.3212 -30.3206 -30.3199 -30.3191 -30.3170 -30.3164 -30.3153 -30.3146
   -20.2331 -20.2331 -20.2330 -20.2330 -20.2329 -20.2329 -20.2329 -20.2328
   -20.2271 -20.2268 -20.2268 -20.2265 -20.2244 -20.2241 -20.2240 -20.2238
   -20.2171 -20.2169 -20.2168 -20.2166 -20.2165 -20.2164 -20.2163 -20.2163
   -20.2148 -20.2148 -20.2146 -20.2145 -20.2145 -20.2142 -20.2141 -20.2139
   -20.2058 -20.2057 -20.2054 -20.2054 -20.2051 -20.2051 -20.2047 -20.2047
   -20.1912 -20.1912 -20.1907 -20.1907 -20.1898 -20.1898 -20.1893 -20.1893
   -20.1845 -20.1845 -20.1842 -20.1842 -20.1832 -20.1832 -20.1829 -20.1828
    -9.8230  -9.6846  -9.3622  -9.3616  -9.2360  -9.2346  -9.0097  -9.0036
    -8.7808  -8.6683  -8.6602  -8.6598  -8.1799  -8.1339  -8.1328  -8.1082
    -7.7403  -7.7403  -7.7270  -7.7270  -7.5856  -7.5851  -7.5749  -7.5744
     1.2448   1.2448   1.3351   1.3381   1.3385   1.3418   1.6471   1.6827
     2.3915   2.4430   2.4804   2.5390   2.5425   2.7095   2.8772   2.8821
     3.0096   3.0161   3.6475   3.6547   3.6908   3.6980   4.1605   4.4817
     4.4872   4.7607   4.8877   4.8977   4.9135   4.9233   5.0592   5.0631
     5.0829   5.0870   5.3930   5.3960   5.6051   5.6059   5.7008   5.7043
     5.8658   5.8673   5.9154   5.9196   6.0635   6.0635   6.1014   6.1707
     6.1728   6.2348   6.2460   6.5456   6.6751   6.6785   6.8883   6.8909
     6.9370   7.0057   7.1018   7.1019   7.1224   7.1242   7.4394   7.4420
     7.4661   7.4686   7.8134   7.8184   7.8435   7.8447   7.8750   7.8784
     9.3250   9.3283  10.6920  10.6963  10.7368  10.7382  11.8255  11.8357
    11.9619  11.9656  12.3367  12.3437  12.3595  12.3650  12.9047  12.9166
    13.4176  13.4242  13.5056  13.5113  13.8601  13.8618  13.8838  13.8922
    14.7868  15.2486  15.2517  15.4816  15.4872  15.6719  15.9514  15.9542
    15.9705  16.9026  17.2633  17.6718  17.6777

          k = 0.0000 0.3152 0.1666 ( 62215 PWs)   bands (ev):

   -66.0802 -66.0800 -66.0793 -66.0792 -66.0791 -66.0790 -66.0783 -66.0781
   -30.4902 -30.4872 -30.4867 -30.4839 -30.4610 -30.4580 -30.4574 -30.4546
   -30.4211 -30.4193 -30.4165 -30.4146 -30.4144 -30.4135 -30.4097 -30.4083
   -30.3280 -30.3266 -30.3236 -30.3222 -30.3203 -30.3189 -30.3164 -30.3150
   -20.2331 -20.2330 -20.2330 -20.2330 -20.2330 -20.2329 -20.2329 -20.2328
   -20.2271 -20.2268 -20.2268 -20.2266 -20.2244 -20.2241 -20.2241 -20.2238
   -20.2171 -20.2168 -20.2168 -20.2165 -20.2164 -20.2163 -20.2162 -20.2160
   -20.2148 -20.2148 -20.2148 -20.2146 -20.2144 -20.2143 -20.2142 -20.2140
   -20.2058 -20.2057 -20.2055 -20.2054 -20.2051 -20.2051 -20.2048 -20.2047
   -20.1908 -20.1908 -20.1906 -20.1906 -20.1894 -20.1894 -20.1894 -20.1894
   -20.1850 -20.1850 -20.1841 -20.1841 -20.1837 -20.1836 -20.1829 -20.1829
    -9.7725  -9.6309  -9.3788  -9.2863  -9.2501  -9.1473  -8.9693  -8.9622
    -8.7890  -8.6649  -8.6619  -8.6440  -8.1802  -8.1418  -8.1297  -8.1143
    -7.8612  -7.8485  -7.7284  -7.7188  -7.7129  -7.7043  -7.5950  -7.5842
     1.3342   1.3356   1.3445   1.3483   1.5863   1.5946   1.8054   1.8524
     2.3938   2.5168   2.5310   2.5431   2.5711   2.6991   2.8854   2.9850
     3.0022   3.1119   3.6567   3.6885   3.6906   3.7331   4.1522   4.4383
     4.4635   4.4977   4.5451   4.7644   4.7903   4.8960   4.9504   4.9634
     5.0571   5.0981   5.1884   5.3114   5.4378   5.4831   5.6119   5.6347
     5.6936   5.7965   5.8004   5.8476   6.0557   6.1307   6.1422   6.1668
     6.2774   6.4450   6.4525   6.6061   6.6649   6.8711   6.9096   6.9501
     6.9864   6.9998   7.0861   7.0977   7.1057   7.1267   7.2008   7.2043
     7.2928   7.3102   7.8109   7.8250   7.8253   7.8472   7.8604   7.8643
     9.6828   9.6962  10.7009  10.7389  10.8756  10.9049  11.8338  11.9227
    11.9672  12.0378  12.2493  12.2661  12.3932  12.4247  12.9346  12.9578
    13.2343  13.3856  13.4093  13.5013  13.7124  13.7624  13.8592  13.8804
    14.9228  15.2428  15.4556  15.5053  15.5459  15.7400  15.9285  16.1343
    16.2475  16.8653  17.3286  17.3514  17.7631

          k = 0.0000 0.3152 0.3333 ( 62246 PWs)   bands (ev):

   -66.0800 -66.0798 -66.0795 -66.0793 -66.0790 -66.0788 -66.0785 -66.0783
   -30.4898 -30.4880 -30.4864 -30.4846 -30.4606 -30.4588 -30.4571 -30.4554
   -30.4201 -30.4181 -30.4174 -30.4154 -30.3964 -30.3951 -30.3913 -30.3901
   -30.3463 -30.3450 -30.3417 -30.3404 -30.3195 -30.3181 -30.3173 -30.3159
   -20.2331 -20.2330 -20.2330 -20.2330 -20.2330 -20.2329 -20.2329 -20.2329
   -20.2270 -20.2269 -20.2268 -20.2266 -20.2243 -20.2242 -20.2240 -20.2239
   -20.2170 -20.2169 -20.2166 -20.2165 -20.2162 -20.2159 -20.2158 -20.2156
   -20.2151 -20.2150 -20.2149 -20.2147 -20.2146 -20.2144 -20.2143 -20.2142
   -20.2057 -20.2056 -20.2055 -20.2055 -20.2050 -20.2050 -20.2048 -20.2048
   -20.1904 -20.1904 -20.1897 -20.1897 -20.1896 -20.1896 -20.1882 -20.1882
   -20.1863 -20.1862 -20.1849 -20.1849 -20.1839 -20.1838 -20.1832 -20.1832
    -9.6507  -9.5046  -9.4314  -9.2975  -9.0928  -8.8958  -8.8456  -8.8197
    -8.8184  -8.6800  -8.6312  -8.5764  -8.2289  -8.2184  -8.1582  -8.1347
    -8.1216  -8.0799  -8.0343  -7.9882  -7.6990  -7.6874  -7.6222  -7.6112
     1.3605   1.3653   1.3860   1.3912   2.2045   2.2797   2.3171   2.4124
     2.4938   2.5343   2.5448   2.7634   2.8124   2.8320   2.9074   2.9897
     3.2302   3.3229   3.6403   3.6583   3.7412   3.7804   3.8660   3.8773
     4.1319   4.3223   4.4065   4.4349   4.5075   4.5975   4.6482   4.8094
     4.8230   4.8543   5.0110   5.0833   5.2081   5.2189   5.2253   5.3903
     5.3963   5.6061   5.6592   5.8073   6.1522   6.2146   6.2442   6.2819
     6.4520   6.6251   6.6620   6.6905   6.7189   6.8291   6.8467   6.8610
     6.9287   6.9810   7.0503   7.0769   7.0889   7.1532   7.1837   7.1975
     7.3067   7.3550   7.7398   7.7550   7.7797   7.7855   7.8471   7.8637
    10.4127  10.4346  10.7154  10.7405  11.3310  11.3813  11.8077  11.8755
    11.8894  11.9980  12.2185  12.2562  12.5546  12.6284  12.6596  12.7399
    12.8716  13.1563  13.1918  13.4090  13.4957  13.5231  13.8609  13.8749
    15.0970  15.2158  15.5958  15.8522  15.9489  15.9687  16.0219  16.6516
    16.7367  16.8151  17.0476  17.5480  17.6402

          k = 0.0000 0.3152-0.4999 ( 62278 PWs)   bands (ev):

   -66.0798 -66.0797 -66.0796 -66.0795 -66.0787 -66.0787 -66.0785 -66.0785
   -30.4890 -30.4890 -30.4856 -30.4856 -30.4598 -30.4597 -30.4563 -30.4563
   -30.4188 -30.4188 -30.4167 -30.4167 -30.3714 -30.3713 -30.3701 -30.3700
   -30.3665 -30.3665 -30.3652 -30.3652 -30.3184 -30.3184 -30.3170 -30.3170
   -20.2330 -20.2330 -20.2330 -20.2330 -20.2329 -20.2329 -20.2329 -20.2329
   -20.2270 -20.2270 -20.2267 -20.2267 -20.2243 -20.2243 -20.2240 -20.2240
   -20.2170 -20.2170 -20.2166 -20.2165 -20.2157 -20.2157 -20.2154 -20.2154
   -20.2154 -20.2154 -20.2151 -20.2150 -20.2145 -20.2145 -20.2143 -20.2143
   -20.2056 -20.2056 -20.2056 -20.2055 -20.2050 -20.2049 -20.2049 -20.2049
   -20.1901 -20.1900 -20.1900 -20.1900 -20.1880 -20.1879 -20.1879 -20.1879
   -20.1866 -20.1866 -20.1866 -20.1866 -20.1835 -20.1835 -20.1835 -20.1835
    -9.5233  -9.5233  -9.3811  -9.3811  -8.9061  -8.9061  -8.7185  -8.7185
    -8.5483  -8.5483  -8.5308  -8.5308  -8.4776  -8.4776  -8.3775  -8.3774
    -8.1341  -8.1341  -8.0928  -8.0928  -7.6602  -7.6602  -7.6489  -7.6489
     1.3794   1.3794   1.3852   1.3852   2.3940   2.3940   2.5321   2.5321
     2.9255   2.9255   3.0657   3.0657   3.1111   3.1111   3.2979   3.2979
     3.3550   3.3550   3.3638   3.3638   3.4401   3.4402   3.6570   3.6570
     4.0947   4.0947   4.1269   4.1269   4.1479   4.1479   4.3810   4.3810
     4.8272   4.8272   4.9377   4.9377   5.1427   5.1427   5.3121   5.3121
     5.4546   5.4547   5.7335   5.7336   6.3119   6.3119   6.3727   6.3727
     6.4891   6.4891   6.5345   6.5345   6.5780   6.5780   6.7861   6.7862
     7.0589   7.0589   7.0734   7.0734   7.1115   7.1115   7.5268   7.5268
     7.5519   7.5519   7.5817   7.5817   7.6152   7.6152   7.8557   7.8557
    10.7199  10.7199  11.1957  11.1957  11.2395  11.2395  11.7363  11.7363
    12.0593  12.0593  12.1872  12.1872  12.5698  12.5698  12.6814  12.6814
    12.8436  12.8436  12.9988  12.9988  13.4901  13.4901  13.8675  13.8675
    15.1692  15.1693  15.7316  15.7316  16.3071  16.3071  16.4661  16.4661
    16.8684  16.8684  17.2641  17.2641  17.9585

          k = 0.0000-0.4728 0.0000 ( 62140 PWs)   bands (ev):

   -66.0802 -66.0802 -66.0792 -66.0791 -66.0791 -66.0791 -66.0781 -66.0781
   -30.4756 -30.4756 -30.4723 -30.4723 -30.4721 -30.4721 -30.4690 -30.4689
   -30.4217 -30.4217 -30.4198 -30.4198 -30.4159 -30.4159 -30.4151 -30.4151
   -30.3206 -30.3205 -30.3199 -30.3199 -30.3165 -30.3165 -30.3152 -30.3152
   -20.2331 -20.2331 -20.2330 -20.2330 -20.2329 -20.2329 -20.2329 -20.2328
   -20.2257 -20.2257 -20.2255 -20.2254 -20.2254 -20.2254 -20.2252 -20.2252
   -20.2168 -20.2168 -20.2166 -20.2166 -20.2166 -20.2165 -20.2164 -20.2164
   -20.2147 -20.2147 -20.2145 -20.2145 -20.2144 -20.2144 -20.2142 -20.2142
   -20.2058 -20.2058 -20.2054 -20.2054 -20.2051 -20.2051 -20.2047 -20.2047
   -20.1912 -20.1912 -20.1907 -20.1907 -20.1898 -20.1898 -20.1893 -20.1893
   -20.1845 -20.1845 -20.1842 -20.1842 -20.1832 -20.1832 -20.1828 -20.1828
    -9.7449  -9.7449  -9.2846  -9.2846  -9.2835  -9.2835  -9.0067  -9.0067
    -8.4835  -8.4835  -8.4269  -8.4268  -8.4261  -8.4261  -8.4245  -8.4245
    -7.7349  -7.7349  -7.7325  -7.7325  -7.5803  -7.5803  -7.5798  -7.5798
     1.2447   1.2448   1.3373   1.3373   1.3409   1.3409   1.6742   1.6743
     2.4615   2.4615   3.1809   3.1809   3.2151   3.2151   3.2859   3.2859
     3.3027   3.3027   3.3090   3.3090   3.4908   3.4908   3.4995   3.4995
     3.6920   3.6920   4.8979   4.8979   4.9073   4.9073   5.2245   5.2245
     5.2353   5.2353   5.3306   5.3306   5.3350   5.3350   5.7645   5.7645
     5.7681   5.7681   6.0234   6.0234   6.0311   6.0311   6.1948   6.1948
     6.2024   6.2024   6.2971   6.2971   6.7688   6.7688   6.7719   6.7719
     6.9723   6.9723   7.4245   7.4245   7.4267   7.4267   7.4783   7.4783
     7.4795   7.4795   7.5655   7.5655   7.5668   7.5668   7.8213   7.8213
     9.3267   9.3267  11.2759  11.2759  11.2840  11.2840  11.3625  11.3625
    11.3724  11.3724  12.3517  12.3517  12.3581  12.3581  12.9119  12.9119
    13.6051  13.6051  13.6170  13.6170  13.6599  13.6599  13.6660  13.6660
    15.3750  15.3750  15.4840  15.4840  15.7054  15.7054  15.7068  15.7068
    16.5604  16.5604  17.9840  17.9841  18.1257

          k = 0.0000-0.4728 0.1666 ( 62216 PWs)   bands (ev):

   -66.0801 -66.0801 -66.0792 -66.0792 -66.0791 -66.0791 -66.0782 -66.0782
   -30.4755 -30.4755 -30.4726 -30.4726 -30.4721 -30.4721 -30.4693 -30.4692
   -30.4202 -30.4202 -30.4155 -30.4155 -30.4142 -30.4142 -30.4091 -30.4090
   -30.3273 -30.3273 -30.3229 -30.3229 -30.3196 -30.3196 -30.3158 -30.3157
   -20.2331 -20.2331 -20.2330 -20.2330 -20.2329 -20.2329 -20.2329 -20.2329
   -20.2257 -20.2257 -20.2255 -20.2255 -20.2254 -20.2254 -20.2252 -20.2252
   -20.2168 -20.2168 -20.2166 -20.2166 -20.2164 -20.2164 -20.2162 -20.2162
   -20.2147 -20.2146 -20.2146 -20.2146 -20.2144 -20.2144 -20.2143 -20.2143
   -20.2058 -20.2057 -20.2054 -20.2054 -20.2051 -20.2051 -20.2048 -20.2047
   -20.1908 -20.1908 -20.1906 -20.1906 -20.1894 -20.1894 -20.1894 -20.1894
   -20.1850 -20.1850 -20.1841 -20.1841 -20.1836 -20.1836 -20.1829 -20.1829
    -9.6922  -9.6922  -9.3000  -9.3000  -9.1995  -9.1995  -8.9656  -8.9656
    -8.4891  -8.4891  -8.4328  -8.4327  -8.4237  -8.4237  -8.4194  -8.4194
    -7.8552  -7.8552  -7.7230  -7.7230  -7.7094  -7.7094  -7.5896  -7.5896
     1.3352   1.3352   1.3473   1.3473   1.5926   1.5926   1.8421   1.8421
     2.5517   2.5517   3.1926   3.1926   3.2214   3.2214   3.2816   3.2816
     3.3049   3.3049   3.3466   3.3466   3.4950   3.4950   3.5448   3.5449
     3.7202   3.7202   4.4888   4.4888   4.9467   4.9467   4.9905   4.9905
     5.1492   5.1492   5.2108   5.2109   5.3458   5.3458   5.5049   5.5049
     5.7398   5.7398   5.8012   5.8012   6.1376   6.1376   6.1519   6.1519
     6.4167   6.4167   6.4516   6.4516   6.7577   6.7577   6.9412   6.9412
     7.0307   7.0307   7.1963   7.1963   7.2484   7.2484   7.4657   7.4657
     7.4865   7.4865   7.5243   7.5243   7.5455   7.5455   7.8362   7.8362
     9.6908   9.6908  11.2885  11.2885  11.3636  11.3636  11.4065  11.4065
    11.4866  11.4866  12.2588  12.2588  12.4093  12.4093  12.9497  12.9497
    13.4301  13.4301  13.5252  13.5252  13.6260  13.6260  13.6561  13.6561
    15.4278  15.4278  15.6251  15.6251  15.6889  15.6889  15.9738  15.9738
    16.6222  16.6222  17.8998  17.8998  18.0823

          k = 0.0000-0.4728 0.3333 ( 62248 PWs)   bands (ev):

   -66.0799 -66.0799 -66.0794 -66.0794 -66.0789 -66.0789 -66.0784 -66.0784
   -30.4752 -30.4751 -30.4734 -30.4734 -30.4718 -30.4718 -30.4700 -30.4700
   -30.4192 -30.4191 -30.4165 -30.4165 -30.3958 -30.3958 -30.3907 -30.3907
   -30.3457 -30.3457 -30.3411 -30.3411 -30.3188 -30.3188 -30.3166 -30.3166
   -20.2330 -20.2330 -20.2330 -20.2330 -20.2329 -20.2329 -20.2329 -20.2329
   -20.2257 -20.2257 -20.2256 -20.2256 -20.2254 -20.2254 -20.2253 -20.2253
   -20.2168 -20.2168 -20.2167 -20.2166 -20.2160 -20.2160 -20.2158 -20.2158
   -20.2150 -20.2150 -20.2147 -20.2147 -20.2146 -20.2146 -20.2144 -20.2144
   -20.2057 -20.2057 -20.2055 -20.2055 -20.2050 -20.2050 -20.2048 -20.2048
   -20.1904 -20.1904 -20.1897 -20.1897 -20.1896 -20.1896 -20.1882 -20.1882
   -20.1862 -20.1862 -20.1849 -20.1849 -20.1839 -20.1838 -20.1832 -20.1832
    -9.5664  -9.5664  -9.3504  -9.3504  -8.9643  -8.9643  -8.8275  -8.8275
    -8.5224  -8.5223  -8.4580  -8.4580  -8.4153  -8.4153  -8.3934  -8.3933
    -8.1450  -8.1450  -8.0227  -8.0227  -7.6933  -7.6933  -7.6168  -7.6168
     1.3641   1.3641   1.3898   1.3898   2.2689   2.2689   2.4731   2.4731
     2.8132   2.8132   3.2038   3.2038   3.2391   3.2391   3.2705   3.2705
     3.2926   3.2926   3.4250   3.4250   3.4852   3.4852   3.7006   3.7006
     3.7826   3.7826   3.8633   3.8633   4.5045   4.5045   4.6704   4.6705
     4.8067   4.8067   4.8740   4.8741   5.2417   5.2417   5.2715   5.2715
     5.3943   5.3944   5.6678   5.6678   6.2119   6.2119   6.2830   6.2830
     6.5553   6.5553   6.7050   6.7050   6.7357   6.7357   6.8813   6.8813
     7.0288   7.0288   7.2077   7.2077   7.2108   7.2108   7.4456   7.4457
     7.4818   7.4818   7.5075   7.5075   7.5199   7.5199   7.7923   7.7923
    10.4286  10.4286  11.3021  11.3021  11.3453  11.3453  11.7861  11.7861
    11.8300  11.8300  11.8841  11.8841  12.5789  12.5789  12.7703  12.7703
    12.9636  12.9636  13.2357  13.2357  13.6285  13.6285  13.6496  13.6496
    15.4551  15.4551  15.6305  15.6305  16.2292  16.2292  16.6831  16.6831
    16.8358  16.8359  17.3876  17.3876  17.9118

          k = 0.0000-0.4728-0.4999 ( 62244 PWs)   bands (ev):

   -66.0797 -66.0797 -66.0796 -66.0796 -66.0786 -66.0786 -66.0786 -66.0786
   -30.4744 -30.4743 -30.4743 -30.4743 -30.4710 -30.4710 -30.4710 -30.4710
   -30.4178 -30.4178 -30.4178 -30.4178 -30.3707 -30.3707 -30.3707 -30.3707
   -30.3659 -30.3659 -30.3659 -30.3659 -30.3177 -30.3177 -30.3177 -30.3177
   -20.2330 -20.2330 -20.2330 -20.2330 -20.2329 -20.2329 -20.2329 -20.2329
   -20.2257 -20.2256 -20.2256 -20.2256 -20.2254 -20.2254 -20.2254 -20.2253
   -20.2167 -20.2167 -20.2167 -20.2167 -20.2155 -20.2155 -20.2155 -20.2155
   -20.2152 -20.2152 -20.2152 -20.2152 -20.2145 -20.2145 -20.2145 -20.2145
   -20.2056 -20.2056 -20.2056 -20.2056 -20.2049 -20.2049 -20.2049 -20.2049
   -20.1901 -20.1900 -20.1900 -20.1900 -20.1880 -20.1879 -20.1879 -20.1879
   -20.1866 -20.1866 -20.1866 -20.1866 -20.1835 -20.1835 -20.1835 -20.1835
    -9.4391  -9.4391  -9.4391  -9.4391  -8.6706  -8.6706  -8.6706  -8.6706
    -8.5920  -8.5920  -8.5920  -8.5920  -8.3724  -8.3724  -8.3724  -8.3724
    -8.3015  -8.3015  -8.3014  -8.3014  -7.6546  -7.6546  -7.6546  -7.6546
     1.3837   1.3837   1.3837   1.3837   3.0311   3.0311   3.0311   3.0311
     3.1681   3.1681   3.1682   3.1682   3.2551   3.2551   3.2551   3.2551
     3.3086   3.3086   3.3086   3.3086   3.4807   3.4807   3.4807   3.4807
     3.6418   3.6418   3.6418   3.6418   4.3266   4.3266   4.3266   4.3266
     4.4402   4.4402   4.4402   4.4403   5.2466   5.2466   5.2466   5.2466
     5.5294   5.5294   5.5294   5.5294   6.3630   6.3630   6.3630   6.3630
     6.5385   6.5385   6.5385   6.5385   6.6728   6.6728   6.6728   6.6728
     7.3062   7.3062   7.3062   7.3062   7.3900   7.3900   7.3900   7.3900
     7.4818   7.4818   7.4818   7.4818   7.6039   7.6039   7.6039   7.6039
    11.1937  11.1937  11.1937  11.1937  11.3471  11.3471  11.3471  11.3471
    12.3129  12.3129  12.3129  12.3130  12.3551  12.3551  12.3551  12.3551
    12.8844  12.8844  12.8844  12.8844  13.6384  13.6384  13.6384  13.6384
    15.5410  15.5410  15.5410  15.5410  16.8771  16.8771  16.8771  16.8772
    17.3516  17.3516  17.3516  17.3516  17.4865

          k = 0.1667 0.0000 0.0000 ( 62224 PWs)   bands (ev):

   -66.0803 -66.0799 -66.0794 -66.0793 -66.0790 -66.0789 -66.0784 -66.0780
   -30.5049 -30.5018 -30.5015 -30.4984 -30.4466 -30.4433 -30.4431 -30.4399
   -30.4223 -30.4193 -30.4174 -30.4152 -30.4147 -30.4113 -30.4098 -30.4063
   -30.3280 -30.3252 -30.3236 -30.3216 -30.3210 -30.3189 -30.3176 -30.3151
   -20.2331 -20.2330 -20.2330 -20.2330 -20.2330 -20.2329 -20.2329 -20.2328
   -20.2284 -20.2281 -20.2281 -20.2279 -20.2230 -20.2227 -20.2227 -20.2224
   -20.2172 -20.2171 -20.2169 -20.2169 -20.2162 -20.2161 -20.2160 -20.2159
   -20.2152 -20.2150 -20.2148 -20.2146 -20.2144 -20.2139 -20.2139 -20.2136
   -20.2058 -20.2057 -20.2054 -20.2053 -20.2052 -20.2051 -20.2048 -20.2047
   -20.1911 -20.1911 -20.1903 -20.1903 -20.1899 -20.1899 -20.1889 -20.1889
   -20.1847 -20.1846 -20.1844 -20.1844 -20.1833 -20.1833 -20.1832 -20.1832
    -9.8763  -9.5839  -9.4996  -9.4226  -9.2185  -9.1125  -9.0710  -8.9742
    -8.9586  -8.8450  -8.8314  -8.7947  -7.8730  -7.8518  -7.8372  -7.7868
    -7.7791  -7.7357  -7.7346  -7.7168  -7.7117  -7.7008  -7.6008  -7.5791
     1.3187   1.3215   1.3336   1.3449   1.4657   1.5010   1.5990   1.6443
     1.6472   1.7316   1.8593   2.0163   2.5115   2.5912   2.6064   2.6840
     2.7394   2.8344   4.0986   4.1650   4.3727   4.4000   4.4124   4.5133
     4.6884   4.8062   4.8481   4.9478   4.9587   5.0419   5.0727   5.3244
     5.3812   5.4356   5.5287   5.5483   5.5723   5.6169   5.6449   5.6652
     5.7667   5.7736   5.8176   5.9470   5.9957   6.1217   6.1406   6.1453
     6.2994   6.4359   6.5028   6.5797   6.6907   6.7159   6.7886   6.8424
     6.8513   6.8899   6.9947   7.0341   7.0364   7.1113   7.2048   7.2057
     7.2394   7.3014   7.8308   7.8330   8.0466   8.1099   8.1122   8.1630
     9.6673   9.7028  10.0400  10.0741  10.2959  10.3526  12.2319  12.2627
    12.2997  12.3367  12.3867  12.4160  12.5450  12.6424  12.9306  12.9318
    13.1140  13.2542  13.3329  13.4470  13.9077  14.0467  14.1025  14.1896
    14.1962  14.3904  14.5354  15.0077  15.4722  15.5117  15.5395  16.0719
    16.4117  16.8128  17.0154  17.2758  17.5221

          k = 0.1667 0.0000 0.1666 ( 62210 PWs)   bands (ev):

   -66.0802 -66.0798 -66.0794 -66.0793 -66.0789 -66.0789 -66.0785 -66.0781
   -30.5048 -30.5018 -30.5017 -30.4987 -30.4466 -30.4436 -30.4432 -30.4401
   -30.4157 -30.4150 -30.4124 -30.4116 -30.4106 -30.4092 -30.4079 -30.4066
   -30.3283 -30.3278 -30.3258 -30.3249 -30.3246 -30.3238 -30.3217 -30.3209
   -20.2331 -20.2330 -20.2330 -20.2330 -20.2330 -20.2329 -20.2329 -20.2328
   -20.2284 -20.2282 -20.2281 -20.2279 -20.2230 -20.2227 -20.2227 -20.2225
   -20.2172 -20.2170 -20.2169 -20.2167 -20.2162 -20.2161 -20.2160 -20.2158
   -20.2152 -20.2150 -20.2149 -20.2147 -20.2143 -20.2140 -20.2140 -20.2137
   -20.2058 -20.2056 -20.2054 -20.2053 -20.2052 -20.2051 -20.2048 -20.2047
   -20.1907 -20.1907 -20.1902 -20.1902 -20.1895 -20.1895 -20.1890 -20.1890
   -20.1849 -20.1849 -20.1846 -20.1845 -20.1837 -20.1837 -20.1834 -20.1834
    -9.8275  -9.5249  -9.4394  -9.4393  -9.1291  -9.1275  -9.0800  -8.9346
    -8.9219  -8.8358  -8.8002  -8.7997  -7.8694  -7.8578  -7.8406  -7.8405
    -7.8347  -7.7827  -7.7792  -7.7486  -7.7381  -7.7322  -7.7072  -7.6874
     1.4593   1.4940   1.4959   1.5043   1.5065   1.6026   1.6059   1.6390
     1.7290   1.7326   1.9437   2.0941   2.6009   2.6871   2.6933   2.6944
     2.8120   2.8456   4.0983   4.1063   4.3456   4.3481   4.5036   4.5039
     4.5763   4.5770   4.7101   4.7135   4.7693   4.8400   5.0579   5.2640
     5.3126   5.3400   5.3953   5.5014   5.5070   5.6476   5.6507   5.7080
     5.7097   5.7481   5.7760   5.7786   5.8067   6.0042   6.3491   6.4585
     6.4709   6.5257   6.5565   6.6591   6.7019   6.7035   6.7068   6.7295
     6.7697   6.8789   6.8851   6.9000   6.9197   7.0109   7.0124   7.1333
     7.3355   7.3994   7.8319   7.8333   8.0483   8.0964   8.1136   8.1205
     9.8941   9.9641  10.2965  10.3007  10.3152  10.4065  12.2708  12.2822
    12.3025  12.3047  12.3504  12.3933  12.6309  12.6354  12.9623  12.9637
    13.0713  13.1178  13.2359  13.3931  13.9732  14.0152  14.0473  14.0941
    14.1381  14.5098  14.5270  15.1270  15.4388  15.5921  15.6070  16.3734
    16.3778  16.9813  16.9846  17.1562  17.5704

          k = 0.1667 0.0000 0.3333 ( 62235 PWs)   bands (ev):

   -66.0800 -66.0796 -66.0795 -66.0792 -66.0791 -66.0788 -66.0786 -66.0782
   -30.5044 -30.5026 -30.5013 -30.4995 -30.4462 -30.4443 -30.4429 -30.4409
   -30.4140 -30.4115 -30.4103 -30.4076 -30.3964 -30.3940 -30.3922 -30.3897
   -30.3467 -30.3440 -30.3427 -30.3401 -30.3269 -30.3246 -30.3240 -30.3218
   -20.2331 -20.2330 -20.2330 -20.2330 -20.2329 -20.2329 -20.2329 -20.2329
   -20.2283 -20.2282 -20.2281 -20.2280 -20.2230 -20.2228 -20.2227 -20.2225
   -20.2171 -20.2170 -20.2167 -20.2163 -20.2163 -20.2159 -20.2157 -20.2154
   -20.2153 -20.2153 -20.2150 -20.2147 -20.2144 -20.2142 -20.2140 -20.2140
   -20.2057 -20.2056 -20.2055 -20.2054 -20.2051 -20.2050 -20.2049 -20.2048
   -20.1900 -20.1900 -20.1895 -20.1895 -20.1893 -20.1893 -20.1883 -20.1883
   -20.1862 -20.1861 -20.1850 -20.1850 -20.1843 -20.1843 -20.1837 -20.1836
    -9.7090  -9.4915  -9.3864  -9.2994  -9.1732  -9.1103  -8.8750  -8.8588
    -8.8130  -8.7887  -8.7531  -8.6802  -8.1558  -8.1554  -8.0778  -8.0545
    -7.8354  -7.8199  -7.8113  -7.7859  -7.7714  -7.7502  -7.7443  -7.7301
     1.4677   1.4853   1.5835   1.6212   1.6237   1.6431   1.7073   1.7379
     2.2930   2.3266   2.4757   2.5592   2.7165   2.8041   2.8738   2.9343
     2.9743   3.0802   3.8290   3.8744   3.9522   3.9548   4.1924   4.3094
     4.3280   4.5220   4.5461   4.5815   4.6470   4.7571   4.7972   4.9435
     5.0130   5.0763   5.1198   5.2283   5.3170   5.3902   5.5625   5.6883
     5.6982   5.7667   5.7870   5.8186   5.8457   6.0155   6.1830   6.2335
     6.4522   6.4581   6.5068   6.5944   6.6128   6.6703   6.6772   6.7043
     6.8205   6.8931   6.8997   6.9201   7.1509   7.1679   7.1954   7.2641
     7.3561   7.4029   7.7844   7.7998   7.9455   7.9852   8.1058   8.1162
    10.2897  10.3006  10.5419  10.5992  10.9173  11.0407  11.9076  11.9495
    12.1643  12.4276  12.4484  12.5503  12.5743  12.6361  12.7839  12.8844
    12.9067  13.0556  13.1021  13.3244  13.7003  13.7144  14.0173  14.0451
    14.3068  14.4990  14.8203  15.3314  15.4357  15.8437  16.0098  16.2811
    16.4170  17.2147  17.4372  17.5172  17.6056

          k = 0.1667 0.0000-0.4999 ( 62282 PWs)   bands (ev):

   -66.0798 -66.0798 -66.0794 -66.0794 -66.0789 -66.0789 -66.0785 -66.0785
   -30.5036 -30.5035 -30.5005 -30.5005 -30.4453 -30.4453 -30.4420 -30.4420
   -30.4128 -30.4127 -30.4089 -30.4089 -30.3716 -30.3716 -30.3690 -30.3690
   -30.3675 -30.3674 -30.3649 -30.3649 -30.3258 -30.3258 -30.3229 -30.3229
   -20.2330 -20.2330 -20.2330 -20.2330 -20.2330 -20.2329 -20.2329 -20.2329
   -20.2283 -20.2283 -20.2281 -20.2281 -20.2229 -20.2229 -20.2226 -20.2226
   -20.2171 -20.2171 -20.2164 -20.2164 -20.2159 -20.2158 -20.2156 -20.2155
   -20.2154 -20.2154 -20.2149 -20.2148 -20.2144 -20.2144 -20.2141 -20.2141
   -20.2056 -20.2056 -20.2055 -20.2055 -20.2050 -20.2050 -20.2049 -20.2049
   -20.1897 -20.1896 -20.1896 -20.1896 -20.1879 -20.1879 -20.1879 -20.1878
   -20.1867 -20.1867 -20.1867 -20.1867 -20.1840 -20.1840 -20.1840 -20.1840
    -9.5832  -9.5832  -9.2562  -9.2562  -9.1764  -9.1764  -8.8319  -8.8319
    -8.5272  -8.5271  -8.5232  -8.5231  -8.4672  -8.4672  -8.4096  -8.4096
    -7.8178  -7.8178  -7.7851  -7.7851  -7.7635  -7.7635  -7.7589  -7.7589
     1.4748   1.4748   1.6032   1.6032   1.6443   1.6443   1.7423   1.7423
     2.7426   2.7426   3.0141   3.0141   3.1038   3.1038   3.2240   3.2240
     3.3316   3.3316   3.4396   3.4396   3.5476   3.5477   3.8189   3.8189
     3.9111   3.9111   4.4351   4.4351   4.5634   4.5634   4.9010   4.9010
     5.0553   5.0553   5.0778   5.0778   5.2706   5.2706   5.6335   5.6335
     5.8039   5.8039   5.8167   5.8167   5.9193   5.9193   5.9836   5.9836
     6.3732   6.3732   6.4608   6.4608   6.6752   6.6753   6.7488   6.7488
     6.8396   6.8396   6.9912   6.9912   7.0497   7.0498   7.5555   7.5555
     7.5989   7.5989   7.7202   7.7202   7.7400   7.7400   8.1157   8.1157
    10.3089  10.3089  11.2533  11.2533  11.3247  11.3247  11.6192  11.6192
    11.8276  11.8276  12.6479  12.6479  12.6594  12.6595  12.7248  12.7248
    12.9403  12.9403  13.2775  13.2776  13.3941  13.3941  14.0293  14.0293
    14.4381  14.4382  15.1289  15.1289  15.8744  15.8744  16.1072  16.1072
    16.7701  16.7701  17.8491  17.8501  17.8966

          k = 0.1667 0.1576 0.0000 ( 62213 PWs)   bands (ev):

   -66.0803 -66.0799 -66.0794 -66.0792 -66.0790 -66.0789 -66.0784 -66.0780
   -30.5010 -30.4978 -30.4976 -30.4945 -30.4504 -30.4471 -30.4470 -30.4438
   -30.4221 -30.4196 -30.4173 -30.4150 -30.4149 -30.4116 -30.4097 -30.4066
   -30.3278 -30.3254 -30.3234 -30.3214 -30.3211 -30.3191 -30.3174 -30.3153
   -20.2331 -20.2330 -20.2330 -20.2330 -20.2330 -20.2329 -20.2329 -20.2328
   -20.2280 -20.2278 -20.2278 -20.2275 -20.2233 -20.2231 -20.2231 -20.2228
   -20.2171 -20.2171 -20.2168 -20.2168 -20.2162 -20.2162 -20.2161 -20.2160
   -20.2151 -20.2150 -20.2148 -20.2146 -20.2144 -20.2140 -20.2140 -20.2137
   -20.2058 -20.2057 -20.2054 -20.2053 -20.2052 -20.2051 -20.2048 -20.2047
   -20.1911 -20.1911 -20.1903 -20.1903 -20.1899 -20.1899 -20.1889 -20.1889
   -20.1847 -20.1846 -20.1844 -20.1844 -20.1833 -20.1833 -20.1832 -20.1832
    -9.8461  -9.5955  -9.4629  -9.3810  -9.2262  -9.1202  -8.9974  -8.9725
    -8.9595  -8.8010  -8.7933  -8.7614  -7.9401  -7.8987  -7.8826  -7.8625
    -7.8449  -7.8349  -7.7344  -7.7169  -7.7136  -7.6991  -7.5994  -7.5807
     1.3287   1.3326   1.3342   1.3448   1.5601   1.5982   1.6298   1.8417
     1.8573   1.8784   1.9075   2.1264   2.5174   2.5856   2.6780   2.7574
     2.8079   2.9017   3.9967   4.0481   4.1089   4.1583   4.4335   4.5111
     4.7177   4.7378   4.8534   4.8963   4.9353   4.9594   5.0104   5.2599
     5.2965   5.3142   5.3372   5.5105   5.6035   5.6114   5.6496   5.6991
     5.7581   5.7710   5.8306   5.8685   5.8943   6.1319   6.1411   6.1719
     6.2416   6.4294   6.4774   6.6032   6.7319   6.7880   6.8129   6.8330
     6.8730   6.9052   6.9769   6.9901   7.0299   7.0497   7.2050   7.2050
     7.2549   7.3006   7.8325   7.8333   8.0084   8.0379   8.0545   8.0813
     9.6732   9.7012  10.2362  10.2444  10.4634  10.4921  12.1747  12.2396
    12.2758  12.2843  12.3595  12.3647  12.3917  12.5173  12.9295  12.9412
    13.1437  13.2847  13.3431  13.4500  13.9370  13.9647  14.0925  14.1047
    14.2990  14.6686  14.8236  15.1628  15.5114  15.5393  15.8732  16.0393
    16.3751  16.6914  16.9391  17.3877  17.5855

          k = 0.1667 0.1576 0.1666 ( 62216 PWs)   bands (ev):

   -66.0802 -66.0798 -66.0793 -66.0793 -66.0790 -66.0790 -66.0784 -66.0781
   -30.5009 -30.4979 -30.4978 -30.4948 -30.4504 -30.4474 -30.4471 -30.4441
   -30.4155 -30.4149 -30.4126 -30.4117 -30.4104 -30.4094 -30.4081 -30.4069
   -30.3282 -30.3276 -30.3259 -30.3251 -30.3244 -30.3236 -30.3219 -30.3211
   -20.2331 -20.2330 -20.2330 -20.2330 -20.2330 -20.2329 -20.2329 -20.2328
   -20.2280 -20.2278 -20.2278 -20.2276 -20.2233 -20.2231 -20.2231 -20.2228
   -20.2171 -20.2170 -20.2168 -20.2167 -20.2162 -20.2161 -20.2160 -20.2158
   -20.2151 -20.2150 -20.2149 -20.2147 -20.2144 -20.2141 -20.2140 -20.2138
   -20.2057 -20.2056 -20.2054 -20.2053 -20.2052 -20.2051 -20.2048 -20.2048
   -20.1907 -20.1907 -20.1902 -20.1902 -20.1895 -20.1895 -20.1890 -20.1890
   -20.1849 -20.1849 -20.1846 -20.1845 -20.1837 -20.1837 -20.1834 -20.1834
    -9.7958  -9.5366  -9.3982  -9.3981  -9.1370  -9.1354  -9.0064  -8.9338
    -8.9227  -8.7924  -8.7665  -8.7662  -7.9414  -7.8965  -7.8955  -7.8547
    -7.8533  -7.8518  -7.8266  -7.8262  -7.7489  -7.7279  -7.7065  -7.6889
     1.5038   1.5042   1.5621   1.5636   1.6023   1.6050   1.6490   1.8413
     1.9011   1.9039   1.9430   2.1782   2.6085   2.6821   2.7660   2.7679
     2.8836   2.9093   4.0015   4.0267   4.1360   4.1396   4.4900   4.4936
     4.5777   4.5806   4.7115   4.7213   4.7464   4.7947   4.8446   5.2200
     5.2366   5.2698   5.2814   5.3780   5.3864   5.6024   5.6068   5.6450
     5.7610   5.7630   5.7773   5.8003   5.8022   5.8634   6.3629   6.3972
     6.3999   6.5192   6.5511   6.6762   6.7013   6.7441   6.7938   6.8032
     6.8093   6.8479   6.9011   6.9046   6.9789   6.9913   7.0002   7.1391
     7.3398   7.3975   7.8322   7.8339   7.9962   8.0398   8.0430   8.0442
     9.9106   9.9621  10.4505  10.4655  10.4716  10.5389  12.2337  12.2654
    12.2886  12.2934  12.2965  12.3070  12.4926  12.4955  12.9515  12.9761
    13.1098  13.1432  13.2414  13.3973  13.9239  13.9356  13.9479  14.0089
    14.4089  14.8108  14.8174  15.2675  15.5930  15.6058  15.8417  16.3393
    16.3431  16.8175  17.0867  17.0901  17.6383

          k = 0.1667 0.1576 0.3333 ( 62236 PWs)   bands (ev):

   -66.0800 -66.0797 -66.0795 -66.0792 -66.0791 -66.0788 -66.0786 -66.0783
   -30.5004 -30.4987 -30.4974 -30.4956 -30.4500 -30.4481 -30.4468 -30.4449
   -30.4138 -30.4113 -30.4106 -30.4079 -30.3963 -30.3942 -30.3920 -30.3899
   -30.3465 -30.3442 -30.3425 -30.3403 -30.3267 -30.3245 -30.3242 -30.3220
   -20.2331 -20.2330 -20.2330 -20.2330 -20.2329 -20.2329 -20.2329 -20.2329
   -20.2280 -20.2279 -20.2278 -20.2276 -20.2233 -20.2232 -20.2231 -20.2229
   -20.2171 -20.2169 -20.2166 -20.2163 -20.2163 -20.2158 -20.2158 -20.2154
   -20.2153 -20.2153 -20.2150 -20.2148 -20.2144 -20.2143 -20.2141 -20.2141
   -20.2057 -20.2056 -20.2055 -20.2054 -20.2051 -20.2050 -20.2049 -20.2048
   -20.1900 -20.1900 -20.1895 -20.1895 -20.1893 -20.1893 -20.1883 -20.1883
   -20.1862 -20.1861 -20.1850 -20.1850 -20.1843 -20.1843 -20.1837 -20.1836
    -9.6738  -9.4511  -9.3978  -9.2445  -9.1819  -9.0374  -8.8833  -8.8404
    -8.7900  -8.7791  -8.7308  -8.6602  -8.1623  -8.1535  -8.0959  -8.0525
    -7.9102  -7.8946  -7.8727  -7.8445  -7.8234  -7.8012  -7.7483  -7.7300
     1.5721   1.5896   1.6233   1.6427   1.7874   1.7940   1.8721   1.9021
     2.2916   2.3384   2.4775   2.5751   2.7886   2.8603   2.8968   2.9718
     3.0086   3.1367   3.8261   3.8709   3.9148   3.9438   4.1257   4.1936
     4.2709   4.3901   4.5593   4.6022   4.6747   4.7176   4.7521   4.7922
     4.9107   4.9469   4.9897   5.1705   5.2246   5.2657   5.3363   5.6140
     5.6512   5.6669   5.7604   5.8056   5.8244   5.8383   6.1870   6.2335
     6.3953   6.5362   6.5510   6.6507   6.7115   6.7148   6.7466   6.7851
     6.8740   6.8925   6.9272   6.9610   7.1470   7.1597   7.1909   7.2691
     7.3467   7.3963   7.7858   7.7972   7.8995   7.9256   8.0401   8.0438
    10.4123  10.4609  10.5698  10.6152  11.0307  11.1279  11.9085  11.9459
    12.1397  12.4073  12.4535  12.4849  12.4979  12.6014  12.7213  12.7642
    12.9040  13.0807  13.0863  13.3232  13.5956  13.6182  13.9366  13.9628
    14.6239  14.7940  15.1678  15.5399  15.7438  15.8384  16.0200  16.2498
    16.5246  17.1751  17.2187  17.4953  17.5589

          k = 0.1667 0.1576-0.4999 ( 62274 PWs)   bands (ev):

   -66.0798 -66.0798 -66.0794 -66.0794 -66.0789 -66.0789 -66.0785 -66.0785
   -30.4996 -30.4996 -30.4966 -30.4966 -30.4491 -30.4491 -30.4459 -30.4459
   -30.4125 -30.4125 -30.4093 -30.4092 -30.3715 -30.3715 -30.3692 -30.3692
   -30.3673 -30.3673 -30.3651 -30.3650 -30.3256 -30.3256 -30.3231 -30.3231
   -20.2330 -20.2330 -20.2330 -20.2330 -20.2330 -20.2329 -20.2329 -20.2329
   -20.2280 -20.2279 -20.2277 -20.2277 -20.2233 -20.2233 -20.2230 -20.2230
   -20.2170 -20.2170 -20.2164 -20.2164 -20.2158 -20.2158 -20.2155 -20.2155
   -20.2154 -20.2154 -20.2149 -20.2149 -20.2145 -20.2145 -20.2142 -20.2142
   -20.2056 -20.2056 -20.2055 -20.2055 -20.2050 -20.2050 -20.2049 -20.2049
   -20.1897 -20.1896 -20.1896 -20.1896 -20.1879 -20.1879 -20.1879 -20.1878
   -20.1867 -20.1867 -20.1867 -20.1867 -20.1840 -20.1840 -20.1840 -20.1840
    -9.5446  -9.5446  -9.2662  -9.2662  -9.1079  -9.1079  -8.7993  -8.7993
    -8.5303  -8.5303  -8.5253  -8.5253  -8.4693  -8.4693  -8.4041  -8.4040
    -7.9044  -7.9044  -7.8617  -7.8617  -7.7857  -7.7857  -7.7657  -7.7657
     1.5833   1.5833   1.6439   1.6439   1.8033   1.8033   1.9010   1.9010
     2.8101   2.8101   3.0329   3.0329   3.1165   3.1165   3.2438   3.2438
     3.3344   3.3344   3.4446   3.4446   3.5383   3.5383   3.8211   3.8211
     3.9600   3.9601   4.2813   4.2813   4.5716   4.5716   4.6859   4.6859
     4.9508   4.9508   5.0401   5.0401   5.1282   5.1282   5.4521   5.4521
     5.7022   5.7022   5.7699   5.7699   5.8682   5.8683   5.9197   5.9198
     6.4963   6.4964   6.6237   6.6237   6.6672   6.6672   6.7990   6.7990
     6.9176   6.9176   6.9517   6.9517   7.0729   7.0729   7.5554   7.5554
     7.5935   7.5935   7.6901   7.6901   7.7086   7.7086   8.0448   8.0448
    10.4668  10.4668  11.2595  11.2595  11.3232  11.3232  11.6856  11.6856
    11.8874  11.8874  12.5251  12.5251  12.6423  12.6423  12.7099  12.7099
    12.9193  12.9193  13.1732  13.1732  13.3374  13.3374  13.9453  13.9453
    14.7432  14.7432  15.5035  15.5035  15.9934  15.9934  16.0864  16.0864
    16.8004  16.8004  17.6555  17.6555  17.9275

          k = 0.1667 0.3152 0.0000 ( 62221 PWs)   bands (ev):

   -66.0802 -66.0800 -66.0793 -66.0792 -66.0791 -66.0790 -66.0783 -66.0781
   -30.4902 -30.4871 -30.4869 -30.4839 -30.4609 -30.4577 -30.4576 -30.4546
   -30.4217 -30.4201 -30.4169 -30.4155 -30.4144 -30.4124 -30.4092 -30.4074
   -30.3273 -30.3259 -30.3229 -30.3216 -30.3209 -30.3196 -30.3170 -30.3158
   -20.2331 -20.2330 -20.2330 -20.2330 -20.2329 -20.2329 -20.2329 -20.2328
   -20.2271 -20.2268 -20.2268 -20.2266 -20.2244 -20.2241 -20.2241 -20.2238
   -20.2169 -20.2168 -20.2166 -20.2166 -20.2163 -20.2163 -20.2163 -20.2162
   -20.2149 -20.2149 -20.2146 -20.2146 -20.2145 -20.2142 -20.2141 -20.2139
   -20.2058 -20.2057 -20.2054 -20.2053 -20.2052 -20.2051 -20.2048 -20.2047
   -20.1911 -20.1911 -20.1903 -20.1903 -20.1899 -20.1899 -20.1889 -20.1889
   -20.1847 -20.1846 -20.1844 -20.1844 -20.1833 -20.1833 -20.1833 -20.1832
    -9.7726  -9.6311  -9.3794  -9.2859  -9.2516  -9.1459  -8.9692  -8.9620
    -8.7891  -8.6647  -8.6618  -8.6441  -8.1802  -8.1409  -8.1305  -8.1144
    -7.8600  -7.8474  -7.7303  -7.7184  -7.7135  -7.7028  -7.5955  -7.5847
     1.3323   1.3333   1.3413   1.3446   1.5889   1.5976   1.8073   1.8547
     2.3938   2.5166   2.5320   2.5417   2.5711   2.6979   2.8905   2.9796
     3.0101   3.1063   3.6483   3.6792   3.7022   3.7398   4.1526   4.4332
     4.4662   4.5006   4.5505   4.7624   4.7908   4.8985   4.9352   4.9580
     5.0634   5.0930   5.1940   5.3176   5.4379   5.4852   5.6116   5.6340
     5.6947   5.7973   5.8001   5.8467   6.0603   6.1288   6.1436   6.1645
     6.2778   6.4414   6.4474   6.6062   6.6670   6.8739   6.9068   6.9480
     6.9867   6.9986   7.0913   7.0918   7.1110   7.1256   7.2070   7.2075
     7.2908   7.3064   7.8078   7.8176   7.8407   7.8434   7.8588   7.8659
     9.6834   9.6975  10.6966  10.7351  10.8820  10.9041  11.8237  11.9305
    11.9659  12.0407  12.2538  12.2705  12.3868  12.4204  12.9347  12.9519
    13.2475  13.3679  13.4219  13.5067  13.7113  13.7530  13.8612  13.8886
    14.9242  15.2403  15.4455  15.5164  15.5418  15.7395  15.9257  16.1326
    16.2498  16.8653  17.3198  17.3577  17.7900

          k = 0.1667 0.3152 0.1666 ( 62216 PWs)   bands (ev):

   -66.0801 -66.0799 -66.0793 -66.0792 -66.0790 -66.0790 -66.0784 -66.0782
   -30.4901 -30.4872 -30.4870 -30.4842 -30.4609 -30.4580 -30.4577 -30.4549
   -30.4151 -30.4145 -30.4130 -30.4121 -30.4100 -30.4093 -30.4087 -30.4077
   -30.3277 -30.3271 -30.3264 -30.3257 -30.3239 -30.3233 -30.3223 -30.3216
   -20.2331 -20.2330 -20.2330 -20.2330 -20.2330 -20.2329 -20.2329 -20.2329
   -20.2271 -20.2268 -20.2268 -20.2266 -20.2244 -20.2241 -20.2241 -20.2239
   -20.2169 -20.2168 -20.2166 -20.2165 -20.2163 -20.2162 -20.2162 -20.2160
   -20.2149 -20.2149 -20.2148 -20.2146 -20.2146 -20.2143 -20.2142 -20.2140
   -20.2057 -20.2057 -20.2054 -20.2054 -20.2052 -20.2051 -20.2048 -20.2048
   -20.1907 -20.1907 -20.1902 -20.1902 -20.1895 -20.1895 -20.1890 -20.1890
   -20.1849 -20.1849 -20.1846 -20.1845 -20.1837 -20.1837 -20.1834 -20.1834
    -9.7190  -9.5727  -9.3038  -9.3033  -9.1632  -9.1618  -8.9315  -8.9253
    -8.7977  -8.6557  -8.6489  -8.6487  -8.1819  -8.1382  -8.1374  -8.1200
    -7.8507  -7.8501  -7.8371  -7.8368  -7.7452  -7.7334  -7.7031  -7.6928
     1.5038   1.5041   1.5927   1.5952   1.6016   1.6045   1.8787   1.9388
     2.3955   2.5170   2.5200   2.6256   2.6450   2.7071   2.9878   2.9922
     3.0984   3.1071   3.6889   3.6945   3.7063   3.7538   4.1451   4.4583
     4.4625   4.5153   4.5200   4.6055   4.6132   4.7540   4.7649   4.8526
     4.9059   4.9116   5.1375   5.1608   5.3849   5.4196   5.4359   5.4390
     5.6376   5.6596   5.7754   5.7782   5.8286   5.8303   6.4106   6.4267
     6.4495   6.5108   6.5371   6.6514   6.7671   6.7815   6.8924   6.8981
     6.9456   6.9489   7.0061   7.0359   7.1043   7.1108   7.1179   7.1719
     7.3602   7.3982   7.8079   7.8115   7.8199   7.8331   7.8413   7.8701
     9.9340   9.9568  10.8517  10.8959  10.9073  10.9258  11.9017  11.9487
    12.0364  12.0385  12.2969  12.3007  12.3343  12.3377  12.9496  12.9852
    13.2302  13.2436  13.3003  13.4454  13.6934  13.7048  13.7124  13.8012
    15.0752  15.4443  15.4480  15.5978  15.6026  15.8071  16.2191  16.2223
    16.2573  16.8300  17.3816  17.4382  17.4423

          k = 0.1667 0.3152 0.3333 ( 62240 PWs)   bands (ev):

   -66.0799 -66.0797 -66.0794 -66.0792 -66.0791 -66.0789 -66.0785 -66.0783
   -30.4897 -30.4879 -30.4867 -30.4849 -30.4605 -30.4587 -30.4574 -30.4556
   -30.4132 -30.4115 -30.4106 -30.4088 -30.3960 -30.3947 -30.3917 -30.3904
   -30.3460 -30.3447 -30.3421 -30.3407 -30.3262 -30.3248 -30.3239 -30.3225
   -20.2331 -20.2330 -20.2330 -20.2330 -20.2330 -20.2329 -20.2329 -20.2329
   -20.2270 -20.2269 -20.2268 -20.2267 -20.2243 -20.2242 -20.2241 -20.2239
   -20.2169 -20.2167 -20.2165 -20.2163 -20.2162 -20.2159 -20.2158 -20.2156
   -20.2152 -20.2151 -20.2149 -20.2148 -20.2146 -20.2145 -20.2143 -20.2143
   -20.2057 -20.2056 -20.2055 -20.2054 -20.2051 -20.2050 -20.2049 -20.2048
   -20.1900 -20.1900 -20.1895 -20.1895 -20.1893 -20.1893 -20.1883 -20.1883
   -20.1862 -20.1861 -20.1850 -20.1850 -20.1843 -20.1843 -20.1837 -20.1836
    -9.5888  -9.4339  -9.3571  -9.2105  -9.1103  -8.9130  -8.8334  -8.8137
    -8.7920  -8.6631  -8.6267  -8.5820  -8.2342  -8.2171  -8.1491  -8.1345
    -8.1261  -8.0750  -8.0460  -7.9951  -7.8205  -7.8086  -7.7451  -7.7343
     1.6117   1.6223   1.6334   1.6420   2.2099   2.2869   2.3074   2.4082
     2.4764   2.5212   2.5403   2.7366   2.9020   2.9673   3.0066   3.0887
     3.2335   3.3206   3.6720   3.6845   3.7392   3.7807   3.9145   3.9903
     4.1272   4.3264   4.4083   4.4310   4.4976   4.5936   4.6170   4.6639
     4.7307   4.8039   4.8478   4.8845   4.9514   5.0170   5.1619   5.1672
     5.3388   5.3544   5.4680   5.6140   5.8064   5.8403   6.2179   6.2355
     6.5573   6.6417   6.6493   6.7608   6.8371   6.8635   6.9390   6.9802
     7.0270   7.0460   7.0691   7.0871   7.1719   7.1927   7.2112   7.2981
     7.3184   7.3799   7.7425   7.7442   7.7786   7.7916   7.8261   7.8562
    10.5336  10.5727  10.8991  10.9115  11.3429  11.3950  11.8871  11.9181
    11.9396  12.1040  12.2204  12.2449  12.4620  12.5608  12.6770  12.7479
    12.8702  13.0825  13.1487  13.3658  13.3728  13.4078  13.7071  13.7493
    15.2897  15.4224  15.8074  15.9621  16.0190  16.0681  16.1467  16.7074
    16.7102  16.8632  17.0534  17.5813  17.6755

          k = 0.1667 0.3152-0.4999 ( 62232 PWs)   bands (ev):

   -66.0797 -66.0797 -66.0795 -66.0795 -66.0788 -66.0788 -66.0786 -66.0786
   -30.4889 -30.4889 -30.4859 -30.4859 -30.4597 -30.4597 -30.4566 -30.4566
   -30.4119 -30.4119 -30.4101 -30.4101 -30.3710 -30.3710 -30.3697 -30.3697
   -30.3669 -30.3669 -30.3656 -30.3655 -30.3251 -30.3251 -30.3237 -30.3237
   -20.2330 -20.2330 -20.2330 -20.2330 -20.2329 -20.2329 -20.2329 -20.2329
   -20.2270 -20.2270 -20.2267 -20.2267 -20.2243 -20.2243 -20.2240 -20.2240
   -20.2168 -20.2168 -20.2164 -20.2164 -20.2157 -20.2157 -20.2154 -20.2154
   -20.2154 -20.2154 -20.2151 -20.2150 -20.2146 -20.2146 -20.2144 -20.2144
   -20.2056 -20.2056 -20.2055 -20.2055 -20.2050 -20.2050 -20.2049 -20.2049
   -20.1897 -20.1896 -20.1896 -20.1896 -20.1879 -20.1879 -20.1879 -20.1878
   -20.1867 -20.1867 -20.1867 -20.1867 -20.1840 -20.1840 -20.1840 -20.1840
    -9.4530  -9.4530  -9.2988  -9.2988  -8.9208  -8.9208  -8.6983  -8.6982
    -8.5563  -8.5563  -8.5358  -8.5358  -8.4625  -8.4624  -8.3815  -8.3815
    -8.1311  -8.1311  -8.0980  -8.0980  -7.7825  -7.7825  -7.7712  -7.7712
     1.6315   1.6315   1.6429   1.6429   2.3963   2.3963   2.5128   2.5128
     2.9952   2.9952   3.0938   3.0938   3.1177   3.1177   3.3036   3.3036
     3.3429   3.3429   3.4673   3.4673   3.5006   3.5006   3.7037   3.7037
     4.0969   4.0969   4.1283   4.1283   4.1400   4.1400   4.3900   4.3900
     4.7549   4.7549   4.8222   4.8222   5.0051   5.0051   5.0596   5.0596
     5.1631   5.1631   5.5328   5.5328   5.9167   5.9167   5.9255   5.9255
     6.6938   6.6938   6.8023   6.8024   6.8565   6.8565   6.8945   6.8945
     7.0365   7.0365   7.0842   7.0842   7.1916   7.1916   7.5376   7.5376
     7.5728   7.5728   7.5925   7.5925   7.6292   7.6292   7.8372   7.8372
    10.8813  10.8813  11.2737  11.2737  11.3224  11.3224  11.7988  11.7988
    12.0698  12.0698  12.2244  12.2244  12.5545  12.5545  12.6403  12.6403
    12.8127  12.8127  12.9540  12.9540  13.3277  13.3277  13.7226  13.7226
    15.3759  15.3759  16.0001  16.0001  16.3686  16.3686  16.4623  16.4623
    16.9270  16.9270  17.3024  17.3024  17.8773

          k = 0.1667-0.4728 0.0000 ( 62214 PWs)   bands (ev):

   -66.0801 -66.0801 -66.0792 -66.0792 -66.0791 -66.0791 -66.0782 -66.0782
   -30.4755 -30.4755 -30.4724 -30.4724 -30.4723 -30.4722 -30.4693 -30.4692
   -30.4209 -30.4209 -30.4162 -30.4162 -30.4134 -30.4134 -30.4084 -30.4084
   -30.3266 -30.3266 -30.3223 -30.3222 -30.3203 -30.3203 -30.3164 -30.3164
   -20.2331 -20.2331 -20.2330 -20.2330 -20.2329 -20.2329 -20.2329 -20.2329
   -20.2257 -20.2257 -20.2255 -20.2255 -20.2255 -20.2254 -20.2252 -20.2252
   -20.2166 -20.2166 -20.2165 -20.2165 -20.2164 -20.2164 -20.2164 -20.2164
   -20.2148 -20.2148 -20.2146 -20.2146 -20.2144 -20.2144 -20.2142 -20.2142
   -20.2057 -20.2057 -20.2054 -20.2054 -20.2052 -20.2051 -20.2048 -20.2048
   -20.1911 -20.1911 -20.1903 -20.1903 -20.1899 -20.1899 -20.1889 -20.1889
   -20.1846 -20.1846 -20.1844 -20.1844 -20.1833 -20.1833 -20.1833 -20.1833
    -9.6923  -9.6923  -9.3011  -9.3011  -9.1985  -9.1985  -8.9654  -8.9654
    -8.4892  -8.4892  -8.4326  -8.4326  -8.4234  -8.4234  -8.4197  -8.4196
    -7.8540  -7.8540  -7.7245  -7.7245  -7.7082  -7.7082  -7.5902  -7.5902
     1.3331   1.3331   1.3438   1.3438   1.5955   1.5955   1.8443   1.8443
     2.5516   2.5516   3.1858   3.1858   3.2246   3.2246   3.2858   3.2858
     3.3047   3.3048   3.3482   3.3482   3.4900   3.4900   3.5490   3.5490
     3.7196   3.7196   4.4918   4.4918   4.9183   4.9183   5.0137   5.0137
     5.1504   5.1504   5.2109   5.2110   5.3451   5.3451   5.5081   5.5081
     5.7383   5.7383   5.8014   5.8014   6.1393   6.1393   6.1507   6.1508
     6.4193   6.4193   6.4451   6.4451   6.7600   6.7600   6.9403   6.9403
     7.0310   7.0310   7.2006   7.2006   7.2459   7.2459   7.4653   7.4653
     7.4865   7.4865   7.5236   7.5236   7.5473   7.5473   7.8362   7.8362
     9.6917   9.6917  11.2808  11.2808  11.3539  11.3539  11.4162  11.4162
    11.4927  11.4927  12.2636  12.2636  12.4037  12.4037  12.9478  12.9478
    13.4333  13.4333  13.5323  13.5323  13.6145  13.6145  13.6621  13.6621
    15.4341  15.4341  15.6176  15.6176  15.6868  15.6868  15.9743  15.9743
    16.6223  16.6223  17.8974  17.8975  18.0923

          k = 0.1667-0.4728 0.1666 ( 62190 PWs)   bands (ev):

   -66.0800 -66.0800 -66.0792 -66.0791 -66.0791 -66.0791 -66.0783 -66.0783
   -30.4754 -30.4754 -30.4726 -30.4725 -30.4724 -30.4724 -30.4695 -30.4695
   -30.4146 -30.4146 -30.4128 -30.4128 -30.4093 -30.4093 -30.4086 -30.4086
   -30.3271 -30.3270 -30.3264 -30.3264 -30.3234 -30.3234 -30.3222 -30.3221
   -20.2331 -20.2330 -20.2330 -20.2330 -20.2329 -20.2329 -20.2329 -20.2329
   -20.2257 -20.2257 -20.2255 -20.2255 -20.2255 -20.2255 -20.2252 -20.2252
   -20.2167 -20.2166 -20.2165 -20.2165 -20.2164 -20.2164 -20.2162 -20.2162
   -20.2148 -20.2148 -20.2147 -20.2147 -20.2144 -20.2144 -20.2143 -20.2143
   -20.2057 -20.2057 -20.2054 -20.2054 -20.2051 -20.2051 -20.2048 -20.2048
   -20.1907 -20.1907 -20.1902 -20.1902 -20.1895 -20.1895 -20.1890 -20.1890
   -20.1849 -20.1849 -20.1846 -20.1846 -20.1837 -20.1837 -20.1834 -20.1834
    -9.6356  -9.6356  -9.2164  -9.2163  -9.2154  -9.2152  -8.9283  -8.9283
    -8.4963  -8.4963  -8.4268  -8.4264  -8.4255  -8.4253  -8.4209  -8.4207
    -7.8454  -7.8451  -7.8430  -7.8427  -7.7396  -7.7396  -7.6980  -7.6980
     1.5038   1.5040   1.5989   1.5997   1.6020   1.6026   1.9264   1.9265
     2.6451   2.6453   3.1974   3.1990   3.2257   3.2334   3.2824   3.2831
     3.3056   3.3080   3.3876   3.3932   3.5393   3.5432   3.5456   3.5503
     3.7405   3.7411   4.5256   4.5311   4.5755   4.5819   4.9447   4.9485
     5.0184   5.0195   5.1259   5.1304   5.1764   5.1811   5.4542   5.4548
     5.4900   5.4904   5.7794   5.7839   5.8123   5.8155   6.4669   6.4860
[...]
    11.6427  11.6427  11.6427  11.6427  11.7289  11.7289  11.7289  11.7289
    12.0134  12.0134  12.0134  12.0134  12.2367  12.2367  12.2367  12.2367
    13.0311  13.0311  13.0311  13.0311  13.2064  13.2064  13.2064  13.2064
    15.2922  15.2922  15.2922  15.2922  16.7977  16.7977  16.7977  16.7977
    17.6998  17.6998  17.6998  17.6998  17.9368

          k =-0.5000 0.3152 0.0000 ( 62282 PWs)   bands (ev):

   -66.0797 -66.0797 -66.0795 -66.0795 -66.0787 -66.0787 -66.0785 -66.0785
   -30.4889 -30.4889 -30.4857 -30.4857 -30.4595 -30.4595 -30.4564 -30.4564
   -30.4192 -30.4192 -30.4178 -30.4178 -30.3708 -30.3708 -30.3693 -30.3693
   -30.3660 -30.3660 -30.3645 -30.3645 -30.3190 -30.3190 -30.3177 -30.3177
   -20.2330 -20.2330 -20.2330 -20.2330 -20.2329 -20.2329 -20.2329 -20.2329
   -20.2270 -20.2270 -20.2267 -20.2267 -20.2243 -20.2243 -20.2240 -20.2240
   -20.2167 -20.2167 -20.2164 -20.2164 -20.2157 -20.2157 -20.2157 -20.2157
   -20.2154 -20.2154 -20.2153 -20.2153 -20.2144 -20.2144 -20.2140 -20.2140
   -20.2054 -20.2054 -20.2054 -20.2054 -20.2051 -20.2051 -20.2050 -20.2050
   -20.1905 -20.1905 -20.1905 -20.1905 -20.1876 -20.1876 -20.1876 -20.1876
   -20.1862 -20.1862 -20.1862 -20.1862 -20.1838 -20.1838 -20.1838 -20.1838
    -9.5239  -9.5239  -9.3824  -9.3824  -8.9065  -8.9065  -8.7189  -8.7189
    -8.5464  -8.5464  -8.5309  -8.5309  -8.4760  -8.4760  -8.3768  -8.3768
    -8.1332  -8.1332  -8.0929  -8.0929  -7.6609  -7.6609  -7.6496  -7.6496
     1.3760   1.3760   1.3816   1.3816   2.3929   2.3929   2.5316   2.5316
     2.9317   2.9317   3.0610   3.0610   3.1083   3.1083   3.3028   3.3028
     3.3339   3.3339   3.3845   3.3845   3.4432   3.4432   3.6564   3.6564
     4.0898   4.0898   4.1128   4.1128   4.1694   4.1694   4.3867   4.3867
     4.8261   4.8261   4.9299   4.9299   5.1426   5.1426   5.3135   5.3135
     5.4551   5.4551   5.7336   5.7336   6.3109   6.3109   6.3701   6.3701
     6.4918   6.4918   6.5427   6.5427   6.5734   6.5734   6.7875   6.7875
     7.0553   7.0553   7.0766   7.0766   7.1078   7.1078   7.5243   7.5243
     7.5447   7.5447   7.5909   7.5909   7.6188   7.6188   7.8575   7.8575
    10.7186  10.7186  11.1988  11.1988  11.2392  11.2392  11.7214  11.7214
    12.0607  12.0607  12.1890  12.1890  12.5689  12.5689  12.6904  12.6904
    12.8422  12.8422  13.0035  13.0035  13.4908  13.4908  13.8735  13.8735
    15.1676  15.1676  15.7275  15.7275  16.3069  16.3069  16.4653  16.4653
    16.8588  16.8588  17.2640  17.2640  17.9562

          k =-0.5000 0.3152 0.1666 ( 62234 PWs)   bands (ev):

   -66.0797 -66.0797 -66.0795 -66.0795 -66.0788 -66.0788 -66.0786 -66.0786
   -30.4888 -30.4888 -30.4860 -30.4859 -30.4595 -30.4595 -30.4567 -30.4567
   -30.4124 -30.4124 -30.4110 -30.4110 -30.3705 -30.3705 -30.3689 -30.3689
   -30.3663 -30.3663 -30.3648 -30.3648 -30.3257 -30.3257 -30.3244 -30.3244
   -20.2330 -20.2330 -20.2330 -20.2330 -20.2329 -20.2329 -20.2329 -20.2329
   -20.2270 -20.2270 -20.2268 -20.2268 -20.2243 -20.2243 -20.2240 -20.2240
   -20.2166 -20.2166 -20.2163 -20.2163 -20.2157 -20.2157 -20.2157 -20.2157
   -20.2154 -20.2154 -20.2153 -20.2153 -20.2145 -20.2145 -20.2141 -20.2141
   -20.2054 -20.2054 -20.2054 -20.2054 -20.2051 -20.2051 -20.2051 -20.2051
   -20.1901 -20.1901 -20.1901 -20.1901 -20.1875 -20.1875 -20.1875 -20.1875
   -20.1863 -20.1863 -20.1863 -20.1863 -20.1843 -20.1843 -20.1843 -20.1843
    -9.4536  -9.4536  -9.3000  -9.3000  -8.9211  -8.9211  -8.6987  -8.6987
    -8.5549  -8.5549  -8.5352  -8.5352  -8.4612  -8.4612  -8.3808  -8.3808
    -8.1303  -8.1303  -8.0980  -8.0980  -7.7834  -7.7834  -7.7720  -7.7720
     1.6286   1.6286   1.6397   1.6397   2.3954   2.3954   2.5125   2.5125
     3.0002   3.0002   3.0919   3.0919   3.1130   3.1130   3.3052   3.3052
     3.3420   3.3420   3.4723   3.4723   3.5017   3.5017   3.7032   3.7032
     4.0890   4.0890   4.1144   4.1144   4.1649   4.1649   4.3942   4.3942
     4.7530   4.7530   4.8175   4.8175   5.0049   5.0049   5.0602   5.0602
     5.1645   5.1645   5.5326   5.5326   5.9150   5.9150   5.9252   5.9252
     6.6942   6.6942   6.8056   6.8056   6.8583   6.8583   6.8954   6.8954
     7.0328   7.0328   7.0858   7.0858   7.1890   7.1890   7.5346   7.5346
     7.5646   7.5646   7.6017   7.6017   7.6327   7.6328   7.8383   7.8383
    10.8814  10.8814  11.2757  11.2757  11.3210  11.3210  11.7847  11.7847
    12.0713  12.0713  12.2263  12.2263  12.5534  12.5534  12.6488  12.6488
    12.8139  12.8139  12.9584  12.9584  13.3265  13.3265  13.7260  13.7260
    15.3763  15.3763  15.9962  15.9962  16.3685  16.3685  16.4623  16.4623
    16.9188  16.9188  17.3026  17.3026  17.8742

          k =-0.5000 0.3152 0.3333 ( 62230 PWs)   bands (ev):

   -66.0795 -66.0795 -66.0793 -66.0793 -66.0790 -66.0790 -66.0788 -66.0788
   -30.4885 -30.4885 -30.4867 -30.4867 -30.4592 -30.4592 -30.4575 -30.4575
   -30.3940 -30.3940 -30.3927 -30.3927 -30.3696 -30.3696 -30.3681 -30.3681
   -30.3672 -30.3672 -30.3657 -30.3657 -30.3439 -30.3439 -30.3426 -30.3426
   -20.2330 -20.2330 -20.2330 -20.2330 -20.2329 -20.2329 -20.2329 -20.2329
   -20.2270 -20.2270 -20.2268 -20.2268 -20.2243 -20.2243 -20.2241 -20.2241
   -20.2162 -20.2162 -20.2161 -20.2161 -20.2158 -20.2158 -20.2155 -20.2155
   -20.2154 -20.2154 -20.2153 -20.2153 -20.2148 -20.2148 -20.2145 -20.2145
   -20.2054 -20.2053 -20.2053 -20.2053 -20.2052 -20.2052 -20.2051 -20.2051
   -20.1889 -20.1889 -20.1889 -20.1889 -20.1872 -20.1872 -20.1872 -20.1872
   -20.1865 -20.1865 -20.1865 -20.1865 -20.1856 -20.1856 -20.1856 -20.1856
    -9.2740  -9.2740  -9.0744  -9.0743  -8.9718  -8.9718  -8.6428  -8.6427
    -8.6005  -8.6005  -8.5010  -8.5010  -8.4350  -8.4350  -8.3895  -8.3895
    -8.1455  -8.1455  -8.1171  -8.1170  -8.0775  -8.0775  -8.0357  -8.0357
     2.2454   2.2454   2.3240   2.3240   2.4040   2.4040   2.5316   2.5316
     3.0674   3.0674   3.1187   3.1187   3.2169   3.2169   3.3015   3.3015
     3.3864   3.3864   3.6290   3.6290   3.7364   3.7364   3.8287   3.8287
     4.0699   4.0699   4.1212   4.1212   4.1671   4.1671   4.2661   4.2661
     4.3556   4.3556   4.4845   4.4845   4.6461   4.6461   4.8649   4.8649
     4.9830   4.9830   5.0397   5.0397   5.1003   5.1003   5.3105   5.3106
     6.8686   6.8686   6.9241   6.9241   6.9868   6.9868   7.0505   7.0505
     7.1949   7.1949   7.3116   7.3116   7.4249   7.4249   7.5254   7.5255
     7.5692   7.5692   7.6346   7.6346   7.6609   7.6609   7.7879   7.7879
    11.2942  11.2942  11.5188  11.5188  11.6040  11.6040  11.8876  11.8876
    12.1132  12.1132  12.3460  12.3460  12.3950  12.3950  12.4117  12.4117
    12.7468  12.7468  12.8406  12.8406  12.9313  12.9313  13.3387  13.3387
    15.8813  15.8813  16.3708  16.3708  16.6248  16.6249  16.7450  16.7450
    17.1465  17.1466  17.3702  17.3702  17.6564

          k =-0.5000 0.3152-0.4999 ( 62208 PWs)   bands (ev):

   -66.0793 -66.0792 -66.0792 -66.0792 -66.0791 -66.0790 -66.0790 -66.0790
   -30.4877 -30.4877 -30.4877 -30.4877 -30.4584 -30.4584 -30.4584 -30.4584
   -30.3705 -30.3705 -30.3705 -30.3705 -30.3689 -30.3689 -30.3689 -30.3689
   -30.3671 -30.3671 -30.3671 -30.3671 -30.3655 -30.3655 -30.3654 -30.3654
   -20.2330 -20.2330 -20.2330 -20.2330 -20.2330 -20.2329 -20.2329 -20.2329
   -20.2269 -20.2269 -20.2269 -20.2269 -20.2242 -20.2242 -20.2242 -20.2242
   -20.2160 -20.2160 -20.2160 -20.2160 -20.2157 -20.2157 -20.2157 -20.2157
   -20.2152 -20.2152 -20.2152 -20.2152 -20.2149 -20.2149 -20.2149 -20.2149
   -20.2053 -20.2053 -20.2053 -20.2052 -20.2052 -20.2052 -20.2052 -20.2052
   -20.1874 -20.1873 -20.1873 -20.1873 -20.1873 -20.1873 -20.1873 -20.1873
   -20.1869 -20.1869 -20.1868 -20.1868 -20.1868 -20.1868 -20.1868 -20.1868
    -9.0846  -9.0846  -9.0846  -9.0846  -8.7952  -8.7952  -8.7952  -8.7952
    -8.4808  -8.4807  -8.4807  -8.4807  -8.3665  -8.3665  -8.3665  -8.3665
    -8.3458  -8.3458  -8.3458  -8.3458  -8.1018  -8.1018  -8.1018  -8.1018
     2.4072   2.4072   2.4072   2.4072   3.0259   3.0259   3.0259   3.0259
     3.1253   3.1254   3.1254   3.1254   3.2720   3.2720   3.2720   3.2720
     3.3320   3.3320   3.3320   3.3320   3.9907   3.9907   3.9907   3.9907
     4.0229   4.0229   4.0229   4.0229   4.1081   4.1081   4.1081   4.1081
     4.3516   4.3516   4.3516   4.3516   4.3793   4.3793   4.3793   4.3793
     4.7435   4.7435   4.7435   4.7435   5.0490   5.0490   5.0490   5.0490
     6.9272   6.9272   6.9272   6.9272   7.0268   7.0268   7.0268   7.0268
     7.4193   7.4193   7.4193   7.4193   7.5043   7.5043   7.5043   7.5043
     7.6166   7.6166   7.6166   7.6166   7.7174   7.7174   7.7174   7.7174
    11.7645  11.7645  11.7645  11.7645  11.8517  11.8517  11.8517  11.8517
    12.0726  12.0726  12.0726  12.0726  12.3330  12.3330  12.3330  12.3330
    12.7171  12.7171  12.7171  12.7171  12.9125  12.9125  12.9125  12.9125
    16.2344  16.2344  16.2344  16.2344  16.9808  16.9808  16.9808  16.9808
    17.4845  17.4846  17.4846  17.4846  17.9266

          k =-0.5000-0.4728 0.0000 ( 62236 PWs)   bands (ev):

   -66.0797 -66.0797 -66.0796 -66.0796 -66.0786 -66.0786 -66.0786 -66.0786
   -30.4743 -30.4743 -30.4741 -30.4741 -30.4711 -30.4711 -30.4710 -30.4709
   -30.4186 -30.4186 -30.4185 -30.4185 -30.3702 -30.3702 -30.3699 -30.3699
   -30.3654 -30.3654 -30.3652 -30.3652 -30.3184 -30.3184 -30.3183 -30.3183
   -20.2330 -20.2330 -20.2330 -20.2330 -20.2329 -20.2329 -20.2329 -20.2329
   -20.2256 -20.2256 -20.2256 -20.2256 -20.2254 -20.2254 -20.2254 -20.2254
   -20.2165 -20.2165 -20.2165 -20.2165 -20.2157 -20.2157 -20.2156 -20.2156
   -20.2155 -20.2155 -20.2154 -20.2154 -20.2143 -20.2143 -20.2143 -20.2143
   -20.2054 -20.2054 -20.2054 -20.2054 -20.2051 -20.2051 -20.2051 -20.2050
   -20.1905 -20.1905 -20.1905 -20.1905 -20.1876 -20.1876 -20.1876 -20.1876
   -20.1862 -20.1862 -20.1862 -20.1862 -20.1838 -20.1838 -20.1838 -20.1838
    -9.4410  -9.4410  -9.4391  -9.4391  -8.6747  -8.6747  -8.6664  -8.6664
    -8.5945  -8.5945  -8.5882  -8.5882  -8.3788  -8.3788  -8.3643  -8.3642
    -8.3077  -8.3077  -8.2943  -8.2943  -7.6553  -7.6553  -7.6552  -7.6552
     1.3792   1.3792   1.3811   1.3811   3.0090   3.0090   3.0482   3.0482
     3.1770   3.1770   3.1779   3.1779   3.2244   3.2244   3.2333   3.2333
     3.3314   3.3315   3.3421   3.3422   3.4562   3.4562   3.4989   3.4989
     3.5829   3.5829   3.7023   3.7023   4.3142   4.3142   4.3371   4.3371
     4.4177   4.4177   4.4574   4.4574   5.2394   5.2395   5.2533   5.2533
     5.5217   5.5217   5.5367   5.5367   6.3565   6.3565   6.3639   6.3639
     6.5440   6.5440   6.5440   6.5440   6.6615   6.6615   6.6831   6.6831
     7.2966   7.2966   7.3123   7.3123   7.3516   7.3516   7.4288   7.4288
     7.4634   7.4634   7.5067   7.5067   7.6002   7.6002   7.6059   7.6059
    11.2006  11.2006  11.2055  11.2055  11.3276  11.3276  11.3351  11.3351
    12.2902  12.2902  12.3346  12.3346  12.3372  12.3373  12.3831  12.3831
    12.8837  12.8837  12.8885  12.8885  13.6358  13.6358  13.6470  13.6470
    15.5393  15.5393  15.5410  15.5410  16.8584  16.8584  16.8896  16.8896
    17.3330  17.3330  17.3632  17.3632  17.4728

          k =-0.5000-0.4728 0.1666 ( 62196 PWs)   bands (ev):

   -66.0796 -66.0796 -66.0796 -66.0796 -66.0787 -66.0787 -66.0787 -66.0787
   -30.4742 -30.4742 -30.4741 -30.4741 -30.4714 -30.4714 -30.4712 -30.4712
   -30.4118 -30.4118 -30.4117 -30.4117 -30.3698 -30.3698 -30.3696 -30.3696
   -30.3657 -30.3657 -30.3655 -30.3655 -30.3251 -30.3251 -30.3250 -30.3250
   -20.2330 -20.2330 -20.2330 -20.2330 -20.2329 -20.2329 -20.2329 -20.2329
   -20.2256 -20.2256 -20.2256 -20.2256 -20.2254 -20.2254 -20.2254 -20.2254
   -20.2164 -20.2164 -20.2164 -20.2164 -20.2156 -20.2156 -20.2156 -20.2156
   -20.2155 -20.2155 -20.2155 -20.2155 -20.2144 -20.2144 -20.2144 -20.2144
   -20.2054 -20.2054 -20.2054 -20.2054 -20.2051 -20.2051 -20.2051 -20.2051
   -20.1901 -20.1901 -20.1901 -20.1901 -20.1875 -20.1875 -20.1875 -20.1875
   -20.1863 -20.1863 -20.1863 -20.1863 -20.1843 -20.1843 -20.1843 -20.1843
    -9.3628  -9.3628  -9.3607  -9.3607  -8.6953  -8.6953  -8.6870  -8.6870
    -8.5763  -8.5763  -8.5680  -8.5680  -8.3762  -8.3762  -8.3616  -8.3615
    -8.3098  -8.3098  -8.2969  -8.2969  -7.7781  -7.7781  -7.7777  -7.7777
     1.6357   1.6357   1.6385   1.6385   3.0131   3.0132   3.0519   3.0519
     3.1583   3.1583   3.1792   3.1792   3.2303   3.2303   3.2937   3.2937
     3.3219   3.3219   3.4408   3.4409   3.5015   3.5015   3.5503   3.5503
     3.6176   3.6176   3.7310   3.7310   4.3165   4.3165   4.3372   4.3373
     4.4106   4.4106   4.4502   4.4502   4.9007   4.9007   5.0803   5.0803
     5.1609   5.1609   5.3194   5.3194   5.9177   5.9177   5.9278   5.9278
     6.7741   6.7741   6.8102   6.8102   6.8976   6.8976   6.9333   6.9333
     7.2856   7.2856   7.3192   7.3192   7.3708   7.3708   7.4231   7.4231
     7.4618   7.4618   7.5156   7.5156   7.6093   7.6093   7.6341   7.6341
    11.2517  11.2517  11.2831  11.2831  11.4356  11.4356  11.4971  11.4971
    12.2873  12.2874  12.3296  12.3296  12.3496  12.3496  12.3913  12.3913
    12.7877  12.7877  12.8569  12.8569  13.4596  13.4596  13.5059  13.5059
    15.7913  15.7913  15.8136  15.8136  16.9143  16.9143  16.9453  16.9453
    17.3421  17.3421  17.3769  17.3770  17.4606

          k =-0.5000-0.4728 0.3333 ( 62184 PWs)   bands (ev):

   -66.0794 -66.0794 -66.0794 -66.0794 -66.0789 -66.0789 -66.0789 -66.0789
   -30.4739 -30.4739 -30.4737 -30.4737 -30.4722 -30.4722 -30.4720 -30.4720
   -30.3934 -30.3934 -30.3934 -30.3934 -30.3689 -30.3689 -30.3687 -30.3687
   -30.3666 -30.3666 -30.3664 -30.3664 -30.3433 -30.3433 -30.3433 -30.3433
   -20.2330 -20.2330 -20.2330 -20.2330 -20.2329 -20.2329 -20.2329 -20.2329
   -20.2256 -20.2256 -20.2256 -20.2256 -20.2255 -20.2255 -20.2255 -20.2255
   -20.2161 -20.2161 -20.2161 -20.2161 -20.2156 -20.2156 -20.2156 -20.2156
   -20.2155 -20.2155 -20.2154 -20.2154 -20.2147 -20.2147 -20.2147 -20.2147
   -20.2053 -20.2053 -20.2053 -20.2053 -20.2051 -20.2051 -20.2051 -20.2051
   -20.1889 -20.1889 -20.1889 -20.1889 -20.1872 -20.1872 -20.1872 -20.1872
   -20.1865 -20.1865 -20.1865 -20.1865 -20.1856 -20.1856 -20.1856 -20.1856
    -9.1536  -9.1536  -9.1504  -9.1504  -8.7597  -8.7597  -8.7518  -8.7518
    -8.5168  -8.5168  -8.5086  -8.5086  -8.3695  -8.3694  -8.3576  -8.3575
    -8.3134  -8.3134  -8.3038  -8.3038  -8.0708  -8.0708  -8.0697  -8.0696
     2.3123   2.3123   2.3176   2.3176   3.0228   3.0228   3.0473   3.0473
     3.1525   3.1525   3.1637   3.1637   3.2837   3.2838   3.3085   3.3085
     3.4116   3.4116   3.4476   3.4476   3.6631   3.6631   3.6856   3.6856
     3.8053   3.8053   3.8699   3.8700   4.2793   4.2793   4.3053   4.3053
     4.3591   4.3591   4.4185   4.4186   4.4878   4.4878   4.6050   4.6050
     4.6787   4.6787   4.8353   4.8353   5.1077   5.1077   5.1237   5.1237
     7.0411   7.0411   7.0866   7.0866   7.2081   7.2081   7.2195   7.2195
     7.2894   7.2894   7.3325   7.3325   7.3609   7.3609   7.4199   7.4199
     7.5059   7.5059   7.5706   7.5706   7.6368   7.6368   7.6590   7.6590
    11.4779  11.4779  11.5099  11.5099  11.7915  11.7915  11.8647  11.8647
    12.2280  12.2280  12.2722  12.2722  12.3695  12.3695  12.3960  12.3960
    12.5500  12.5500  12.6518  12.6518  13.0235  13.0235  13.1011  13.1011
    16.5041  16.5041  16.5558  16.5558  17.0772  17.0772  17.0958  17.0958
    17.3406  17.3406  17.4025  17.4025  17.4298

          k =-0.5000-0.4728-0.4999 ( 62224 PWs)   bands (ev):

   -66.0792 -66.0792 -66.0791 -66.0791 -66.0791 -66.0791 -66.0791 -66.0791
   -30.4732 -30.4732 -30.4731 -30.4731 -30.4730 -30.4730 -30.4730 -30.4730
   -30.3703 -30.3703 -30.3703 -30.3703 -30.3689 -30.3689 -30.3689 -30.3689
   -30.3671 -30.3671 -30.3671 -30.3671 -30.3657 -30.3657 -30.3657 -30.3657
   -20.2330 -20.2330 -20.2330 -20.2330 -20.2330 -20.2330 -20.2330 -20.2329
   -20.2256 -20.2256 -20.2256 -20.2256 -20.2256 -20.2256 -20.2255 -20.2255
   -20.2159 -20.2159 -20.2159 -20.2159 -20.2157 -20.2157 -20.2157 -20.2156
   -20.2153 -20.2152 -20.2152 -20.2152 -20.2150 -20.2150 -20.2150 -20.2150
   -20.2053 -20.2053 -20.2052 -20.2052 -20.2052 -20.2052 -20.2052 -20.2052
   -20.1874 -20.1873 -20.1873 -20.1873 -20.1873 -20.1873 -20.1873 -20.1873
   -20.1869 -20.1868 -20.1868 -20.1868 -20.1868 -20.1868 -20.1868 -20.1868
    -8.9094  -8.9094  -8.9093  -8.9093  -8.9035  -8.9035  -8.9035  -8.9035
    -8.3882  -8.3882  -8.3882  -8.3882  -8.3794  -8.3794  -8.3794  -8.3794
    -8.3154  -8.3154  -8.3153  -8.3153  -8.3093  -8.3093  -8.3092  -8.3092
     3.0204   3.0204   3.0204   3.0204   3.0379   3.0379   3.0379   3.0379
     3.1727   3.1727   3.1727   3.1727   3.1956   3.1956   3.1956   3.1956
     3.4511   3.4511   3.4511   3.4511   3.5021   3.5021   3.5021   3.5021
     4.1809   4.1809   4.1809   4.1809   4.1886   4.1886   4.1886   4.1886
     4.4001   4.4001   4.4001   4.4001   4.4078   4.4078   4.4078   4.4078
     4.4878   4.4878   4.4878   4.4878   4.5022   4.5022   4.5023   4.5023
     7.1888   7.1888   7.1888   7.1888   7.2530   7.2530   7.2530   7.2530
     7.3527   7.3527   7.3527   7.3527   7.3618   7.3618   7.3618   7.3618
     7.6247   7.6247   7.6247   7.6247   7.6412   7.6412   7.6412   7.6412
    11.8592  11.8592  11.8593  11.8593  11.8640  11.8640  11.8640  11.8640
    12.2987  12.2987  12.2987  12.2987  12.3565  12.3565  12.3565  12.3565
    12.5720  12.5720  12.5720  12.5720  12.5968  12.5968  12.5968  12.5968
    17.1628  17.1629  17.1629  17.1629  17.1901  17.1902  17.1902  17.1902
    17.3948  17.3949  17.3949  17.3949  17.4038

     the Fermi energy is     9.6920 ev

!    total energy              =   -6260.85745675 Ry
     Harris-Foulkes estimate   =   -6260.85745675 Ry
     estimated scf accuracy    <          1.1E-09 Ry

     The total energy is the sum of the following terms:

     one-electron contribution =   -4720.13699834 Ry
     hartree contribution      =    2597.98541942 Ry
     xc contribution           =    -966.06728417 Ry
     ewald contribution        =   -3172.63854737 Ry
     smearing contrib. (-TS)   =      -0.00004628 Ry

     convergence has been achieved in  13 iterations

     Writing output data file Landau_7.save
 
     init_run     :     25.10s CPU     26.14s WALL (       1 calls)
     electrons    :    997.25s CPU   1014.36s WALL (       1 calls)

     Called by init_run:
     wfcinit      :     21.62s CPU     22.50s WALL (       1 calls)
     potinit      :      1.45s CPU      1.49s WALL (       1 calls)

     Called by electrons:
     c_bands      :    865.29s CPU    881.09s WALL (      13 calls)
     sum_band     :    121.83s CPU    122.35s WALL (      13 calls)
     v_of_rho     :      1.96s CPU      2.00s WALL (      14 calls)
     mix_rho      :      4.34s CPU      4.86s WALL (      13 calls)

     Called by c_bands:
     init_us_2    :      8.33s CPU      8.72s WALL (      27 calls)
     cegterg      :    697.52s CPU    713.25s WALL (      13 calls)

     Called by sum_band:

     Called by *egterg:
     h_psi        :    553.19s CPU    555.57s WALL (      54 calls)
     g_psi        :      2.16s CPU      2.16s WALL (      40 calls)
     cdiaghg      :      7.45s CPU      7.47s WALL (      53 calls)

     Called by h_psi:
     h_psi:pot    :    548.93s CPU    551.16s WALL (      54 calls)
     h_psi:calbec :     64.45s CPU     66.14s WALL (      54 calls)
     vloc_psi     :    416.78s CPU    417.15s WALL (      54 calls)
     add_vuspsi   :     67.70s CPU     67.87s WALL (      54 calls)

     General routines
     calbec       :     64.45s CPU     66.14s WALL (      54 calls)
     fft          :      1.25s CPU      1.27s WALL (      56 calls)
     fftw         :    405.85s CPU    406.03s WALL (   16919 calls)
 
     Parallel routines
 
     PWSCF        : 17m 4.44s CPU    17m27.44s WALL

 
   This run was terminated on:  12:23:59  28Aug2019            

=------------------------------------------------------------------------------=
   JOB DONE.
=------------------------------------------------------------------------------=
