
     Program PWSCF v.6.4.1 starts on 21Nov2019 at 15:33:34 

     This program is part of the open-source Quantum ESPRESSO suite
     for quantum simulation of materials; please cite
         "P. Giannozzi et al., J. Phys.:Condens. Matter 21 395502 (2009);
         "P. Giannozzi et al., J. Phys.:Condens. Matter 29 465901 (2017);
          URL http://www.quantum-espresso.org", 
     in publications or presentations arising from this work. More details at
     http://www.quantum-espresso.org/quote

     Parallel version (MPI), running on    40 processors

     MPI processes distributed on     3 nodes
     K-points division:     npool     =      40
     Reading input from scf.in

     Current dimensions of program PWSCF are:
     Max number of different atomic species (ntypx) = 10
     Max number of k-points (npk) =  40000
     Max angular momentum in pseudopotentials (lmaxx) =  3

     Subspace diagonalization in iterative solution of the eigenvalue problem:
     a serial algorithm will be used

     Message from routine setup:
     using ibrav=0 with symmetry is DISCOURAGED, use correct ibrav instead
 
     G-vector sticks info
     --------------------
     sticks:   dense  smooth     PW     G-vecs:    dense   smooth      PW
     Sum        3761    3761   1033               253309   253309   36117
 


     bravais-lattice index     =            0
     lattice parameter (alat)  =       9.9246  a.u.
     unit-cell volume          =    1425.4634 (a.u.)^3
     number of atoms/cell      =           16
     number of atomic types    =            2
     number of electrons       =       184.26
     number of Kohn-Sham states=          111
     kinetic-energy cutoff     =     120.0000  Ry
     charge density cutoff     =     480.0000  Ry
     convergence threshold     =      1.0E-08
     mixing beta               =       0.7000
     number of iterations used =            8  plain     mixing
     Exchange-correlation      = SLA PW NOGX NOGC ( 1  4  0  0 0 0)

     celldm(1)=   9.924574  celldm(2)=   0.000000  celldm(3)=   0.000000
     celldm(4)=   0.000000  celldm(5)=   0.000000  celldm(6)=   0.000000

     crystal axes: (cart. coord. in units of alat)
               a(1) = (   1.000000   0.000000   0.000000 )  
               a(2) = (   0.000000   1.000000   0.000000 )  
               a(3) = (   0.000000   0.000000   1.458211 )  

     reciprocal axes: (cart. coord. in units 2 pi/alat)
               b(1) = (  1.000000  0.000000  0.000000 )  
               b(2) = (  0.000000  1.000000  0.000000 )  
               b(3) = (  0.000000  0.000000  0.685772 )  


     PseudoPot. # 1 for W  read from file:
     /cluster/scratch/mnoe/QE/pps/W_ONCV_LDA-4.0.upf
     MD5 check sum: ba0307d5d4cd419d6f1d13dc49d7c13a
     Pseudo is Norm-conserving + core correction, Zval = 28.0
     Generated using ONCVPSP code by D. R. Hamann
     Using radial grid of 1380 points,  8 beta functions with: 
                l(1) =   0
                l(2) =   0
                l(3) =   1
                l(4) =   1
                l(5) =   2
                l(6) =   2
                l(7) =   3
                l(8) =   3

     PseudoPot. # 2 for O  read from file:
     /cluster/scratch/mnoe/QE/pps/O_ONCV_LDA-3.0.upf
     MD5 check sum: b55cdb4f45ae2203d24ad12cf8d61a31
     Pseudo is Norm-conserving + core correction, Zval =  6.0
     Generated using ONCVPSP code by D. R. Hamann
     Using radial grid of  926 points,  5 beta functions with: 
                l(1) =   0
                l(2) =   0
                l(3) =   1
                l(4) =   1
                l(5) =   2

     atomic species   valence    mass     pseudopotential
        W             28.00   183.84000     W ( 1.00)
        O              6.00    15.99940     O ( 1.00)

     16 Sym. Ops., with inversion, found (14 have fractional translation)



   Cartesian axes

     site n.     atom                  positions (alat units)
         1           W   tau(   1) = (   0.2500000   0.2500000   0.3071737  )
         2           W   tau(   2) = (   0.7500000   0.7500000   1.1510374  )
         3           W   tau(   3) = (   0.7500000   0.7500000   0.4219319  )
         4           W   tau(   4) = (   0.2500000   0.2500000   1.0362793  )
         5           O   tau(   5) = (   0.2500000   0.2500000   0.6963480  )
         6           O   tau(   6) = (   0.7500000   0.7500000   0.7618632  )
         7           O   tau(   7) = (   0.7500000   0.7500000   0.0327576  )
         8           O   tau(   8) = (   0.2500000   0.2500000   1.4254535  )
         9           O   tau(   9) = (   0.4880291   0.5119709   0.3645528  )
        10           O   tau(  10) = (   0.5119709   0.4880291   1.0936584  )
        11           O   tau(  11) = (   0.0119709   0.9880291   0.3645528  )
        12           O   tau(  12) = (   0.9880290   0.0119709   1.0936584  )
        13           O   tau(  13) = (   0.9880291   0.4880291   0.3645528  )
        14           O   tau(  14) = (   0.0119709   0.5119709   1.0936584  )
        15           O   tau(  15) = (   0.5119709   0.0119709   0.3645528  )
        16           O   tau(  16) = (   0.4880291   0.9880290   1.0936584  )

     number of k points=    40  gaussian smearing, width (Ry)=  0.0007
                       cart. coord. in units 2pi/alat
        k(    1) = (   0.0000000   0.0000000   0.0000000), wk =   0.0092593
        k(    2) = (   0.0000000   0.0000000   0.1142953), wk =   0.0185185
        k(    3) = (   0.0000000   0.0000000   0.2285906), wk =   0.0185185
        k(    4) = (   0.0000000   0.0000000  -0.3428859), wk =   0.0092593
        k(    5) = (   0.0000000   0.1666667   0.0000000), wk =   0.0370370
        k(    6) = (   0.0000000   0.1666667   0.1142953), wk =   0.0740741
        k(    7) = (   0.0000000   0.1666667   0.2285906), wk =   0.0740741
        k(    8) = (   0.0000000   0.1666667  -0.3428859), wk =   0.0370370
        k(    9) = (   0.0000000   0.3333333   0.0000000), wk =   0.0370370
        k(   10) = (   0.0000000   0.3333333   0.1142953), wk =   0.0740741
        k(   11) = (   0.0000000   0.3333333   0.2285906), wk =   0.0740741
        k(   12) = (   0.0000000   0.3333333  -0.3428859), wk =   0.0370370
        k(   13) = (   0.0000000  -0.5000000   0.0000000), wk =   0.0185185
        k(   14) = (   0.0000000  -0.5000000   0.1142953), wk =   0.0370370
        k(   15) = (   0.0000000  -0.5000000   0.2285906), wk =   0.0370370
        k(   16) = (   0.0000000  -0.5000000  -0.3428859), wk =   0.0185185
        k(   17) = (   0.1666667   0.1666667   0.0000000), wk =   0.0370370
        k(   18) = (   0.1666667   0.1666667   0.1142953), wk =   0.0740741
        k(   19) = (   0.1666667   0.1666667   0.2285906), wk =   0.0740741
        k(   20) = (   0.1666667   0.1666667  -0.3428859), wk =   0.0370370
        k(   21) = (   0.1666667   0.3333333   0.0000000), wk =   0.0740741
        k(   22) = (   0.1666667   0.3333333   0.1142953), wk =   0.1481481
        k(   23) = (   0.1666667   0.3333333   0.2285906), wk =   0.1481481
        k(   24) = (   0.1666667   0.3333333  -0.3428859), wk =   0.0740741
        k(   25) = (   0.1666667  -0.5000000   0.0000000), wk =   0.0370370
        k(   26) = (   0.1666667  -0.5000000   0.1142953), wk =   0.0740741
        k(   27) = (   0.1666667  -0.5000000   0.2285906), wk =   0.0740741
        k(   28) = (   0.1666667  -0.5000000  -0.3428859), wk =   0.0370370
        k(   29) = (   0.3333333   0.3333333   0.0000000), wk =   0.0370370
        k(   30) = (   0.3333333   0.3333333   0.1142953), wk =   0.0740741
        k(   31) = (   0.3333333   0.3333333   0.2285906), wk =   0.0740741
        k(   32) = (   0.3333333   0.3333333  -0.3428859), wk =   0.0370370
        k(   33) = (   0.3333333  -0.5000000   0.0000000), wk =   0.0370370
        k(   34) = (   0.3333333  -0.5000000   0.1142953), wk =   0.0740741
        k(   35) = (   0.3333333  -0.5000000   0.2285906), wk =   0.0740741
        k(   36) = (   0.3333333  -0.5000000  -0.3428859), wk =   0.0370370
        k(   37) = (  -0.5000000  -0.5000000   0.0000000), wk =   0.0092593
        k(   38) = (  -0.5000000  -0.5000000   0.1142953), wk =   0.0185185
        k(   39) = (  -0.5000000  -0.5000000   0.2285906), wk =   0.0185185
        k(   40) = (  -0.5000000  -0.5000000  -0.3428859), wk =   0.0092593

     Dense  grid:   253309 G-vectors     FFT dimensions: (  72,  72, 108)

     Estimated max dynamical RAM per process >     793.80 MB

     Estimated total dynamical RAM >      31.01 GB

     Initial potential from superposition of free atoms

     starting charge  183.99828, renormalised to  184.26000
     Starting wfcs are  116 randomized atomic wfcs

     total cpu time spent up to now is        5.0 secs

     Self-consistent Calculation

     iteration #  1     ecut=   120.00 Ry     beta= 0.70
     Davidson diagonalization with overlap
     ethr =  1.00E-02,  avg # of iterations =  4.6

     total cpu time spent up to now is       18.0 secs

     total energy              =   -3126.66331050 Ry
     Harris-Foulkes estimate   =   -3132.17018034 Ry
     estimated scf accuracy    <       6.93753173 Ry

     iteration #  2     ecut=   120.00 Ry     beta= 0.70
     Davidson diagonalization with overlap
     ethr =  3.77E-03,  avg # of iterations =  3.3

     total cpu time spent up to now is       30.6 secs

     total energy              =   -3125.12034937 Ry
     Harris-Foulkes estimate   =   -3135.33136940 Ry
     estimated scf accuracy    <      27.28489763 Ry

     iteration #  3     ecut=   120.00 Ry     beta= 0.70
     Davidson diagonalization with overlap
     ethr =  3.77E-03,  avg # of iterations =  3.2

     total cpu time spent up to now is       42.4 secs

     total energy              =   -3130.34532700 Ry
     Harris-Foulkes estimate   =   -3130.48078928 Ry
     estimated scf accuracy    <       0.46153525 Ry

     iteration #  4     ecut=   120.00 Ry     beta= 0.70
     Davidson diagonalization with overlap
     ethr =  2.50E-04,  avg # of iterations =  2.7

     total cpu time spent up to now is       52.4 secs

     total energy              =   -3130.33345526 Ry
     Harris-Foulkes estimate   =   -3130.37560126 Ry
     estimated scf accuracy    <       0.11610483 Ry

     iteration #  5     ecut=   120.00 Ry     beta= 0.70
     Davidson diagonalization with overlap
     ethr =  6.30E-05,  avg # of iterations =  4.0

     total cpu time spent up to now is       63.3 secs

     total energy              =   -3130.34214489 Ry
     Harris-Foulkes estimate   =   -3130.35439751 Ry
     estimated scf accuracy    <       0.02925878 Ry

     iteration #  6     ecut=   120.00 Ry     beta= 0.70
     Davidson diagonalization with overlap
     ethr =  1.59E-05,  avg # of iterations =  3.8

     total cpu time spent up to now is       74.3 secs

     total energy              =   -3130.34762024 Ry
     Harris-Foulkes estimate   =   -3130.34929573 Ry
     estimated scf accuracy    <       0.00416327 Ry

     iteration #  7     ecut=   120.00 Ry     beta= 0.70
     Davidson diagonalization with overlap
     ethr =  2.26E-06,  avg # of iterations =  4.2

     total cpu time spent up to now is       85.4 secs

     total energy              =   -3130.34827721 Ry
     Harris-Foulkes estimate   =   -3130.34829285 Ry
     estimated scf accuracy    <       0.00002446 Ry

     iteration #  8     ecut=   120.00 Ry     beta= 0.70
     Davidson diagonalization with overlap
     ethr =  1.33E-08,  avg # of iterations =  3.9

     total cpu time spent up to now is       99.1 secs

     total energy              =   -3130.34829828 Ry
     Harris-Foulkes estimate   =   -3130.34830419 Ry
     estimated scf accuracy    <       0.00003118 Ry

     iteration #  9     ecut=   120.00 Ry     beta= 0.70
     Davidson diagonalization with overlap
     ethr =  1.33E-08,  avg # of iterations =  1.8

     total cpu time spent up to now is      108.5 secs

     total energy              =   -3130.34829430 Ry
     Harris-Foulkes estimate   =   -3130.34829964 Ry
     estimated scf accuracy    <       0.00001481 Ry

     iteration # 10     ecut=   120.00 Ry     beta= 0.70
     Davidson diagonalization with overlap
     ethr =  8.04E-09,  avg # of iterations =  2.0

     total cpu time spent up to now is      118.3 secs

     total energy              =   -3130.34829621 Ry
     Harris-Foulkes estimate   =   -3130.34829644 Ry
     estimated scf accuracy    <       0.00000050 Ry

     iteration # 11     ecut=   120.00 Ry     beta= 0.70
     Davidson diagonalization with overlap
     ethr =  2.71E-10,  avg # of iterations =  2.7

     total cpu time spent up to now is      129.4 secs

     total energy              =   -3130.34829632 Ry
     Harris-Foulkes estimate   =   -3130.34829635 Ry
     estimated scf accuracy    <       0.00000005 Ry

     iteration # 12     ecut=   120.00 Ry     beta= 0.70
     Davidson diagonalization with overlap
     ethr =  2.52E-11,  avg # of iterations =  2.0

     total cpu time spent up to now is      140.0 secs

     End of self-consistent calculation

          k = 0.0000 0.0000 0.0000 ( 31655 PWs)   bands (ev):

   -66.3346 -66.3341 -66.3333 -66.3328 -30.7215 -30.7170 -30.6673 -30.6673
   -30.6633 -30.6633 -30.6514 -30.6482 -30.5870 -30.5870 -30.5838 -30.5838
   -20.4894 -20.4894 -20.4893 -20.4893 -20.4796 -20.4796 -20.4730 -20.4730
   -20.4715 -20.4714 -20.4713 -20.4713 -20.4701 -20.4701 -20.4691 -20.4691
   -20.4676 -20.4676 -20.4666 -20.4666 -20.4618 -20.4618 -20.4618 -20.4618
   -20.4586 -20.4586 -20.4585 -20.4585 -10.1853  -9.8016  -9.4055  -9.1680
    -9.1447  -9.0631  -8.0104  -7.8961  -7.8961  -7.8891  -7.8716  -7.8716
     0.9530   0.9532   1.0147   1.2276   1.3000   1.4115   2.3392   2.3392
     2.3485   2.4588   3.9332   3.9332   4.6244   4.6244   4.8514   5.4346
     5.4346   5.5101   5.5101   5.6875   5.6875   5.7938   5.8382   6.4680
     6.4680   6.6927   6.9725   7.0117   7.0405   7.0405   7.0560   7.0560
     8.1150   8.1150   8.2048   8.2129   8.8269   8.8326   9.4587   9.4587
    12.3005  12.3005  13.1846  13.1846  13.4182  13.5620  13.5716  14.0597
    14.0597  14.2016  14.2038  14.5065  15.4355  16.3345  17.0264

          k = 0.0000 0.0000 0.1143 ( 31675 PWs)   bands (ev):

   -66.3346 -66.3341 -66.3333 -66.3328 -30.7168 -30.7124 -30.6671 -30.6671
   -30.6636 -30.6636 -30.6562 -30.6528 -30.5868 -30.5868 -30.5840 -30.5840
   -20.4894 -20.4894 -20.4893 -20.4893 -20.4791 -20.4791 -20.4735 -20.4734
   -20.4715 -20.4714 -20.4713 -20.4713 -20.4700 -20.4700 -20.4691 -20.4691
   -20.4676 -20.4676 -20.4667 -20.4667 -20.4618 -20.4618 -20.4618 -20.4618
   -20.4585 -20.4585 -20.4585 -20.4585 -10.1464  -9.8165  -9.3242  -9.1665
    -9.1463  -9.0190  -8.1198  -8.0093  -7.8944  -7.8944  -7.8733  -7.8733
     0.9531   0.9533   1.1805   1.2994   1.4029   1.5932   2.3557   2.4104
     2.4104   2.4512   3.7506   3.7506   4.6055   4.6773   4.6773   5.3665
     5.3665   5.4542   5.4542   5.4567   5.8369   5.8722   5.8722   6.4792
     6.4792   6.7108   6.8178   6.9531   7.0400   7.0400   7.0521   7.0521
     8.0302   8.0302   8.2053   8.2125   8.8275   8.8324   9.6994   9.6994
    12.1313  12.1313  13.2147  13.2147  13.5627  13.5710  13.7013  13.9645
    13.9645  14.2019  14.2039  14.7299  15.8528  16.0202  17.0748

          k = 0.0000 0.0000 0.2286 ( 31670 PWs)   bands (ev):

   -66.3345 -66.3342 -66.3332 -66.3329 -30.7041 -30.6999 -30.6691 -30.6663
   -30.6663 -30.6655 -30.6643 -30.6643 -30.5862 -30.5862 -30.5846 -30.5846
   -20.4894 -20.4894 -20.4893 -20.4893 -20.4780 -20.4780 -20.4747 -20.4747
   -20.4715 -20.4714 -20.4713 -20.4713 -20.4698 -20.4698 -20.4693 -20.4693
   -20.4674 -20.4674 -20.4669 -20.4669 -20.4618 -20.4618 -20.4618 -20.4618
   -20.4585 -20.4585 -20.4585 -20.4585 -10.0503  -9.8630  -9.1622  -9.1506
    -9.0937  -8.8783  -8.3997  -8.3053  -7.8900  -7.8900  -7.8778  -7.8778
     0.9532   0.9533   1.2759   1.2971   2.0175   2.3118   2.3756   2.4307
     2.6187   2.6187   3.3553   3.3553   3.9045   4.5083   4.8397   4.8397
     5.2432   5.2432   5.4843   5.4843   5.7643   5.7643   5.9641   6.4654
     6.7606   6.8375   6.8375   6.9005   7.0394   7.0394   7.0512   7.0512
     7.7703   7.7703   8.2069   8.2112   8.8290   8.8319  10.2867  10.2867
    11.6622  11.6622  13.3149  13.3149  13.5645  13.5694  13.7383  13.7383
    14.2028  14.2039  14.2506  15.4038  15.4395  16.8613  16.8954

          k = 0.0000 0.0000-0.3429 ( 31746 PWs)   bands (ev):

   -66.3344 -66.3344 -66.3330 -66.3330 -30.6866 -30.6866 -30.6828 -30.6828
   -30.6653 -30.6653 -30.6653 -30.6653 -30.5854 -30.5854 -30.5854 -30.5854
   -20.4894 -20.4894 -20.4893 -20.4893 -20.4764 -20.4764 -20.4763 -20.4763
   -20.4714 -20.4714 -20.4713 -20.4713 -20.4695 -20.4695 -20.4695 -20.4695
   -20.4672 -20.4672 -20.4672 -20.4672 -20.4618 -20.4618 -20.4618 -20.4618
   -20.4585 -20.4585 -20.4585 -20.4585  -9.9440  -9.9440  -9.1564  -9.1564
    -8.7576  -8.7576  -8.6311  -8.6311  -7.8839  -7.8839  -7.8839  -7.8839
     0.9532   0.9532   1.2917   1.2918   2.4029   2.4029   2.9465   2.9465
     2.9469   2.9469   2.9469   2.9469   3.3617   3.3617   5.0637   5.0637
     5.0637   5.0637   5.5721   5.5721   5.5721   5.5721   6.1725   6.1726
     6.8299   6.8299   7.0377   7.0377   7.0377   7.0377   7.3539   7.3539
     7.3539   7.3539   8.2091   8.2091   8.8307   8.8307  10.9993  10.9993
    10.9993  10.9993  13.4960  13.4960  13.4960  13.4960  13.5670  13.5670
    14.2036  14.2036  14.8305  14.8305  16.2448  16.2449  17.4467

          k = 0.0000 0.1667 0.0000 ( 31679 PWs)   bands (ev):

   -66.3345 -66.3340 -66.3334 -66.3329 -30.7216 -30.7175 -30.6641 -30.6620
   -30.6581 -30.6577 -30.6492 -30.6489 -30.5924 -30.5921 -30.5891 -30.5890
   -20.4894 -20.4894 -20.4893 -20.4893 -20.4796 -20.4796 -20.4732 -20.4730
   -20.4718 -20.4718 -20.4715 -20.4714 -20.4697 -20.4695 -20.4688 -20.4687
   -20.4676 -20.4676 -20.4666 -20.4666 -20.4617 -20.4617 -20.4616 -20.4616
   -20.4588 -20.4588 -20.4588 -20.4587 -10.1028  -9.6971  -9.4251  -9.0980
    -9.0747  -9.0382  -8.0766  -8.0404  -8.0022  -7.9780  -7.9606  -7.8957
     1.0507   1.2067   1.2094   1.2103   1.5689   1.6467   2.4096   2.4176
     2.5222   2.6279   3.8832   3.9239   4.2952   4.3864   4.8376   5.1297
     5.1653   5.3192   5.4084   5.6985   5.7063   5.8621   6.1874   6.3109
     6.3269   6.3722   6.4088   6.6750   6.8374   6.9133   6.9709   7.0131
     8.0367   8.0796   8.0815   8.0884   9.4815   9.4969   9.7696   9.8614
    12.3570  12.3885  12.9216  12.9303  13.4101  13.4294  13.7076  13.8769
    13.8794  14.6644  14.6811  14.7114  15.3664  16.6651  17.1069

          k = 0.0000 0.1667 0.1143 ( 31656 PWs)   bands (ev):

   -66.3345 -66.3341 -66.3333 -66.3329 -30.7170 -30.7130 -30.6648 -30.6617
   -30.6583 -30.6579 -30.6535 -30.6530 -30.5922 -30.5919 -30.5894 -30.5892
   -20.4894 -20.4894 -20.4893 -20.4893 -20.4792 -20.4792 -20.4736 -20.4735
   -20.4718 -20.4718 -20.4715 -20.4714 -20.4697 -20.4694 -20.4688 -20.4687
   -20.4675 -20.4675 -20.4667 -20.4667 -20.4617 -20.4617 -20.4616 -20.4616
   -20.4588 -20.4588 -20.4588 -20.4587 -10.0609  -9.7121  -9.3440  -9.0964
    -9.0762  -8.9971  -8.1504  -8.0386  -8.0351  -8.0006  -7.9796  -7.9783
     1.2069   1.2092   1.2782   1.4321   1.5678   1.7159   2.4824   2.4838
     2.5329   2.6216   3.7284   3.7703   4.3498   4.4408   4.5879   5.1334
     5.1504   5.1871   5.2453   5.4681   5.7861   5.8432   6.2182   6.3448
     6.3541   6.3803   6.3804   6.7564   6.7894   6.9199   6.9719   7.0236
     7.9609   7.9938   8.0784   8.0921   9.4842   9.4931   9.9609  10.0426
    12.1925  12.2271  12.9589  12.9603  13.4053  13.4298  13.7797  13.7875
    14.0002  14.6647  14.6768  14.9126  15.7835  16.3092  17.0396

          k = 0.0000 0.1667 0.2286 ( 31653 PWs)   bands (ev):

   -66.3344 -66.3341 -66.3333 -66.3330 -30.7044 -30.7005 -30.6714 -30.6661
   -30.6610 -30.6590 -30.6586 -30.6585 -30.5916 -30.5914 -30.5900 -30.5898
   -20.4894 -20.4894 -20.4893 -20.4893 -20.4780 -20.4780 -20.4748 -20.4747
   -20.4718 -20.4718 -20.4715 -20.4715 -20.4695 -20.4692 -20.4690 -20.4688
   -20.4675 -20.4674 -20.4669 -20.4669 -20.4617 -20.4617 -20.4616 -20.4616
   -20.4588 -20.4588 -20.4588 -20.4587  -9.9577  -9.7597  -9.1140  -9.0922
    -9.0805  -8.8640  -8.4178  -8.3120  -8.0333  -8.0133  -7.9962  -7.9841
     1.2074   1.2088   1.5237   1.5642   2.0227   2.2786   2.5433   2.5983
     2.6969   2.7176   3.3630   3.4074   3.8965   4.5069   4.5315   4.6136
     5.0192   5.0636   5.1807   5.2083   5.5182   5.5495   6.3058   6.3480
     6.3765   6.5995   6.7838   6.8150   6.8885   6.9269   6.9883   7.0574
     7.7172   7.7475   8.0814   8.0898   9.4872   9.4903  10.4599  10.5260
    11.7377  11.7800  13.0621  13.0688  13.3753  13.4228  13.5528  13.5883
    14.5644  14.6653  14.6702  15.5615  15.7268  16.8191  17.0293

          k = 0.0000 0.1667-0.3429 ( 31644 PWs)   bands (ev):

   -66.3343 -66.3343 -66.3331 -66.3331 -30.6874 -30.6874 -30.6833 -30.6833
   -30.6600 -30.6600 -30.6591 -30.6591 -30.5908 -30.5908 -30.5906 -30.5906
   -20.4894 -20.4894 -20.4893 -20.4893 -20.4764 -20.4764 -20.4764 -20.4764
   -20.4718 -20.4718 -20.4715 -20.4715 -20.4692 -20.4692 -20.4690 -20.4689
   -20.4672 -20.4672 -20.4672 -20.4672 -20.4617 -20.4617 -20.4616 -20.4616
   -20.4588 -20.4588 -20.4588 -20.4588  -9.8443  -9.8443  -9.0863  -9.0863
    -8.7779  -8.7779  -8.6261  -8.6261  -8.0252  -8.0252  -7.9901  -7.9901
     1.2081   1.2081   1.5552   1.5552   2.5696   2.5696   2.9351   2.9351
     2.9596   2.9596   3.0158   3.0158   3.4018   3.4018   4.7963   4.7964
     4.8607   4.8607   5.2729   5.2729   5.2932   5.2932   6.3522   6.3522
     6.4586   6.4586   6.9175   6.9175   6.9963   6.9963   7.3176   7.3176
     7.3544   7.3544   8.0859   8.0859   9.4890   9.4890  11.1084  11.1084
    11.1614  11.1614  13.2242  13.2242  13.2710  13.2710  13.4780  13.4781
    14.6667  14.6667  15.1334  15.1334  16.4104  16.4104  17.4937

          k = 0.0000 0.3333 0.0000 ( 31674 PWs)   bands (ev):

   -66.3343 -66.3338 -66.3336 -66.3331 -30.7215 -30.7189 -30.6580 -30.6508
   -30.6474 -30.6436 -30.6428 -30.6403 -30.6072 -30.6057 -30.6038 -30.6033
   -20.4894 -20.4894 -20.4893 -20.4893 -20.4797 -20.4797 -20.4733 -20.4732
   -20.4722 -20.4721 -20.4718 -20.4718 -20.4690 -20.4686 -20.4683 -20.4682
   -20.4674 -20.4673 -20.4668 -20.4666 -20.4613 -20.4612 -20.4612 -20.4611
   -20.4596 -20.4596 -20.4594 -20.4594  -9.8891  -9.4953  -9.3993  -8.9463
    -8.8982  -8.8749  -8.4649  -8.3842  -8.2718  -8.2480  -7.9616  -7.9138
     1.0910   1.1707   1.8845   1.9077   2.2485   2.2709   2.5941   2.6271
     3.0491   3.1485   3.6297   3.6579   3.8241   3.9211   4.3683   4.4176
     4.8094   4.8885   5.2146   5.2149   5.2379   5.6875   5.7704   5.9094
     6.0977   6.1513   6.2038   6.5170   6.8431   7.0500   7.1239   7.3321
     7.7619   7.7654   7.8302   7.9527  10.5000  10.5509  10.6033  10.7159
    12.2498  12.3128  12.5955  12.6818  12.7235  12.7383  13.4403  13.5143
    14.2771  15.1543  15.3326  15.9672  15.9694  17.2340  17.3049

          k = 0.0000 0.3333 0.1143 ( 31640 PWs)   bands (ev):

   -66.3342 -66.3338 -66.3336 -66.3332 -30.7169 -30.7143 -30.6610 -30.6553
   -30.6471 -30.6438 -30.6430 -30.6417 -30.6070 -30.6057 -30.6040 -30.6035
   -20.4894 -20.4894 -20.4893 -20.4893 -20.4793 -20.4793 -20.4738 -20.4737
   -20.4722 -20.4721 -20.4718 -20.4718 -20.4690 -20.4685 -20.4683 -20.4682
   -20.4674 -20.4673 -20.4669 -20.4667 -20.4613 -20.4612 -20.4611 -20.4611
   -20.4596 -20.4596 -20.4594 -20.4594  -9.8371  -9.4165  -9.4149  -8.9155
    -8.8967  -8.8764  -8.4873  -8.3799  -8.2703  -8.2496  -8.0634  -8.0199
     1.3418   1.4202   1.8862   1.9064   2.2458   2.2822   2.6688   2.6899
     3.0541   3.1427   3.5603   3.6069   3.8787   3.9777   4.3816   4.4314
     4.5422   4.7141   4.9367   5.1976   5.2127   5.4509   5.5038   5.7290
     6.2605   6.3237   6.5246   6.5916   6.8511   7.0431   7.1359   7.3237
     7.7469   7.7554   7.7857   7.8964  10.5560  10.5666  10.6587  10.8134
    12.2884  12.3138  12.4843  12.5377  12.7254  12.7355  13.3264  13.4048
    14.6290  15.4601  15.5736  15.9673  15.9693  16.9095  17.3258

          k = 0.0000 0.3333 0.2286 ( 31609 PWs)   bands (ev):

   -66.3342 -66.3339 -66.3335 -66.3333 -30.7045 -30.7018 -30.6714 -30.6677
   -30.6464 -30.6445 -30.6435 -30.6434 -30.6064 -30.6054 -30.6046 -30.6041
   -20.4894 -20.4894 -20.4893 -20.4893 -20.4781 -20.4781 -20.4749 -20.4749
   -20.4721 -20.4721 -20.4718 -20.4718 -20.4688 -20.4683 -20.4683 -20.4680
   -20.4675 -20.4674 -20.4671 -20.4669 -20.4613 -20.4612 -20.4611 -20.4611
   -20.4596 -20.4596 -20.4594 -20.4594  -9.7071  -9.4665  -9.1952  -8.8924
    -8.8807  -8.8097  -8.6021  -8.3655  -8.3157  -8.2659  -8.2540  -8.2275
     1.8908   1.9025   1.9870   2.0406   2.2359   2.3880   2.8689   2.9014
     3.0637   3.1276   3.3355   3.4191   3.8808   4.0692   4.1506   4.3081
     4.4384   4.4846   4.6184   4.7373   4.9857   5.1344   5.2112   5.2265
     6.7305   6.7456   6.8027   6.8599   6.8680   7.0219   7.1868   7.2878
     7.5720   7.6490   7.7744   7.8012  10.5763  10.5779  10.9681  11.1280
    11.9847  12.1125  12.4471  12.5293  12.7318  12.7371  13.0568  13.1390
    15.3209  15.9648  15.9688  15.9792  16.3996  16.5754  17.3087

          k = 0.0000 0.3333-0.3429 ( 31610 PWs)   bands (ev):

   -66.3340 -66.3340 -66.3334 -66.3334 -30.6876 -30.6876 -30.6848 -30.6848
   -30.6455 -30.6455 -30.6438 -30.6438 -30.6055 -30.6055 -30.6048 -30.6048
   -20.4894 -20.4894 -20.4893 -20.4893 -20.4765 -20.4765 -20.4765 -20.4765
   -20.4721 -20.4721 -20.4718 -20.4718 -20.4685 -20.4685 -20.4681 -20.4681
   -20.4674 -20.4674 -20.4672 -20.4672 -20.4613 -20.4613 -20.4611 -20.4611
   -20.4596 -20.4596 -20.4594 -20.4594  -9.5655  -9.5655  -8.8889  -8.8889
    -8.8806  -8.8806  -8.6027  -8.6027  -8.3309  -8.3309  -8.2600  -8.2600
     1.8969   1.8969   2.2072   2.2072   2.8819   2.8819   2.9852   2.9852
     3.1083   3.1083   3.1543   3.1543   3.4565   3.4565   4.3432   4.3432
     4.3898   4.3898   4.6063   4.6063   4.6894   4.6894   5.2059   5.2059
     6.8343   6.8343   6.9684   6.9684   7.1750   7.1750   7.2453   7.2453
     7.3609   7.3610   7.7805   7.7805  10.5797  10.5797  11.4575  11.4575
    11.6050  11.6050  12.6082  12.6082  12.7575  12.7575  12.8830  12.8830
    15.8751  15.8751  15.9696  15.9696  16.8210  16.8210  17.4014

          k = 0.0000-0.5000 0.0000 ( 31670 PWs)   bands (ev):

   -66.3339 -66.3339 -66.3335 -66.3335 -30.7204 -30.7204 -30.6538 -30.6538
   -30.6273 -30.6273 -30.6238 -30.6238 -30.6237 -30.6237 -30.6229 -30.6229
   -20.4894 -20.4894 -20.4893 -20.4893 -20.4797 -20.4797 -20.4734 -20.4734
   -20.4722 -20.4722 -20.4721 -20.4721 -20.4684 -20.4684 -20.4681 -20.4681
   -20.4671 -20.4671 -20.4668 -20.4668 -20.4606 -20.4606 -20.4605 -20.4605
   -20.4603 -20.4603 -20.4603 -20.4603  -9.6501  -9.6501  -8.9579  -8.9579
    -8.7337  -8.7337  -8.6018  -8.6017  -8.5781  -8.5781  -7.9384  -7.9384
     1.1284   1.1284   2.6229   2.6229   2.7282   2.7283   2.8556   2.8556
     3.0427   3.0427   3.6703   3.6703   3.7479   3.7479   3.9553   3.9553
     4.0540   4.0540   4.8237   4.8237   5.4051   5.4051   5.8663   5.8663
     5.9965   5.9965   6.2615   6.2615   7.3627   7.3627   7.3887   7.3887
     7.4425   7.4425   7.7085   7.7085  11.3562  11.3562  11.5316  11.5316
    11.7399  11.7399  11.7607  11.7607  12.9548  12.9548  13.0732  13.0732
    14.7906  14.7906  16.2828  16.2828  17.4324  17.4325  17.5622

          k = 0.0000-0.5000 0.1143 ( 31624 PWs)   bands (ev):

   -66.3339 -66.3339 -66.3335 -66.3335 -30.7159 -30.7159 -30.6579 -30.6579
   -30.6271 -30.6271 -30.6241 -30.6241 -30.6240 -30.6240 -30.6231 -30.6231
   -20.4894 -20.4894 -20.4893 -20.4893 -20.4793 -20.4793 -20.4738 -20.4738
   -20.4721 -20.4721 -20.4721 -20.4721 -20.4684 -20.4684 -20.4680 -20.4680
   -20.4672 -20.4672 -20.4669 -20.4669 -20.4606 -20.4606 -20.4605 -20.4605
   -20.4603 -20.4603 -20.4603 -20.4603  -9.5817  -9.5817  -8.9750  -8.9750
    -8.7192  -8.7192  -8.6002  -8.6002  -8.5796  -8.5796  -8.0442  -8.0442
     1.3807   1.3807   2.6465   2.6465   2.7686   2.7686   2.8464   2.8464
     3.0271   3.0271   3.7190   3.7190   3.7872   3.7872   3.9525   3.9525
     4.0538   4.0538   4.5660   4.5660   5.0515   5.0515   5.5886   5.5886
     6.3484   6.3484   6.4234   6.4234   7.3535   7.3536   7.3784   7.3784
     7.4296   7.4296   7.6753   7.6753  11.4084  11.4084  11.5830  11.5830
    11.7567  11.7567  11.7760  11.7760  12.8191  12.8191  12.9429  12.9429
    15.1863  15.1863  16.3585  16.3585  17.3187  17.3187  17.5816

          k = 0.0000-0.5000 0.2286 ( 31604 PWs)   bands (ev):

   -66.3338 -66.3338 -66.3336 -66.3336 -30.7034 -30.7034 -30.6698 -30.6698
   -30.6264 -30.6264 -30.6246 -30.6246 -30.6244 -30.6244 -30.6236 -30.6236
   -20.4894 -20.4894 -20.4893 -20.4893 -20.4782 -20.4782 -20.4750 -20.4750
   -20.4721 -20.4721 -20.4721 -20.4721 -20.4681 -20.4681 -20.4678 -20.4678
   -20.4675 -20.4675 -20.4672 -20.4672 -20.4605 -20.4605 -20.4605 -20.4605
   -20.4603 -20.4603 -20.4603 -20.4603  -9.3998  -9.3997  -9.0385  -9.0385
    -8.6656  -8.6656  -8.5960  -8.5960  -8.5838  -8.5838  -8.2937  -8.2937
     2.0526   2.0526   2.7040   2.7041   2.8176   2.8176   2.8816   2.8816
     2.9710   2.9710   3.8423   3.8423   3.8856   3.8856   3.9097   3.9097
     4.0711   4.0711   4.0872   4.0872   4.5655   4.5655   4.8800   4.8800
     6.7896   6.7896   6.8180   6.8180   7.2965   7.2965   7.3128   7.3128
     7.4318   7.4318   7.5791   7.5791  11.5414  11.5414  11.6511  11.6511
    11.8513  11.8513  11.8914  11.8915  12.4804  12.4804  12.6117  12.6117
    16.1062  16.1062  16.6038  16.6038  17.0570  17.0570  17.5739

          k = 0.0000-0.5000-0.3429 ( 31672 PWs)   bands (ev):

   -66.3337 -66.3337 -66.3337 -66.3337 -30.6865 -30.6865 -30.6865 -30.6865
   -30.6255 -30.6255 -30.6255 -30.6255 -30.6241 -30.6241 -30.6241 -30.6241
   -20.4894 -20.4894 -20.4893 -20.4893 -20.4766 -20.4766 -20.4766 -20.4766
   -20.4721 -20.4721 -20.4721 -20.4721 -20.4679 -20.4679 -20.4678 -20.4678
   -20.4675 -20.4675 -20.4675 -20.4675 -20.4605 -20.4605 -20.4605 -20.4605
   -20.4603 -20.4603 -20.4603 -20.4603  -9.1838  -9.1838  -9.1838  -9.1838
    -8.5905  -8.5905  -8.5905  -8.5905  -8.5330  -8.5330  -8.5330  -8.5330
     2.7606   2.7606   2.7606   2.7606   2.7893   2.7893   2.7893   2.7893
     3.1828   3.1828   3.1828   3.1828   3.9934   3.9934   3.9934   3.9934
     4.1639   4.1639   4.1639   4.1640   4.2999   4.2999   4.2999   4.2999
     7.1007   7.1007   7.1007   7.1007   7.1632   7.1632   7.1632   7.1632
     7.4748   7.4748   7.4748   7.4748  11.6375  11.6375  11.6375  11.6375
    12.0932  12.0932  12.0932  12.0932  12.2188  12.2188  12.2188  12.2188
    16.7286  16.7286  16.7286  16.7286  17.3613  17.3613  17.3613

          k = 0.1667 0.1667 0.0000 ( 31647 PWs)   bands (ev):

   -66.3344 -66.3339 -66.3335 -66.3330 -30.7215 -30.7180 -30.6685 -30.6645
   -30.6553 -30.6495 -30.6421 -30.6420 -30.6075 -30.6046 -30.5859 -30.5827
   -20.4894 -20.4894 -20.4893 -20.4893 -20.4796 -20.4796 -20.4732 -20.4731
   -20.4718 -20.4717 -20.4716 -20.4715 -20.4701 -20.4691 -20.4688 -20.4682
   -20.4677 -20.4672 -20.4668 -20.4665 -20.4622 -20.4622 -20.4608 -20.4608
   -20.4599 -20.4598 -20.4582 -20.4581 -10.0474  -9.6392  -9.4481  -9.0935
    -8.9717  -8.9348  -8.3492  -8.3179  -7.9814  -7.9107  -7.9013  -7.8855
     1.0088   1.0859   1.1725   1.2000   2.1417   2.1543   2.3232   2.6131
     2.6913   2.7888   3.6661   3.7751   3.9969   4.4473   4.6260   4.8232
     5.1264   5.2967   5.3978   5.6554   5.7617   5.8763   6.0326   6.1497
     6.2604   6.3128   6.3408   6.5000   6.6302   6.7736   7.0044   7.1937
     7.8650   7.9265   7.9348   8.1117   9.5011   9.9903  10.0128  10.5829
    12.2088  12.3807  12.6095  13.1798  13.2199  13.2292  13.4807  13.7156
    14.0605  14.8209  14.9124  15.1991  15.2823  17.1401  17.1870

          k = 0.1667 0.1667 0.1143 ( 31654 PWs)   bands (ev):

   -66.3344 -66.3340 -66.3334 -66.3330 -30.7169 -30.7134 -30.6683 -30.6648
   -30.6588 -30.6541 -30.6431 -30.6423 -30.6074 -30.6049 -30.5857 -30.5829
   -20.4894 -20.4894 -20.4893 -20.4893 -20.4792 -20.4792 -20.4736 -20.4735
   -20.4718 -20.4718 -20.4716 -20.4715 -20.4700 -20.4691 -20.4687 -20.4682
   -20.4677 -20.4673 -20.4669 -20.4666 -20.4622 -20.4622 -20.4608 -20.4608
   -20.4599 -20.4598 -20.4582 -20.4582 -10.0041  -9.6536  -9.3679  -9.0701
    -8.9742  -8.9170  -8.3673  -8.3152  -8.0821  -8.0134  -7.9090  -7.8872
     1.0667   1.0857   1.3518   1.4679   2.1397   2.1684   2.3935   2.6642
     2.7142   2.7824   3.5937   3.7271   3.9202   4.4621   4.5666   4.6846
     4.8785   5.2738   5.3041   5.4878   5.5844   5.8607   6.1786   6.2340
     6.2493   6.3315   6.4649   6.5089   6.6301   6.8299   6.8887   7.1907
     7.8222   7.9181   7.9235   8.0315   9.7291   9.9919  10.0174  10.6947
    12.1131  12.3620  12.4563  13.1824  13.2236  13.2346  13.3898  13.9598
    13.9701  14.8091  15.0874  15.2620  15.6965  16.6619  17.1970

          k = 0.1667 0.1667 0.2286 ( 31671 PWs)   bands (ev):

   -66.3343 -66.3341 -66.3333 -66.3331 -30.7043 -30.7009 -30.6702 -30.6675
   -30.6666 -30.6655 -30.6438 -30.6428 -30.6069 -30.6054 -30.5851 -30.5835
   -20.4894 -20.4894 -20.4893 -20.4893 -20.4781 -20.4780 -20.4748 -20.4748
   -20.4718 -20.4718 -20.4716 -20.4716 -20.4698 -20.4693 -20.4685 -20.4681
   -20.4676 -20.4673 -20.4671 -20.4668 -20.4622 -20.4622 -20.4608 -20.4608
   -20.4599 -20.4599 -20.4582 -20.4582  -9.8978  -9.6995  -9.1412  -9.0235
    -8.9817  -8.8294  -8.4948  -8.3205  -8.3066  -8.2249  -7.9044  -7.8918
     1.0811   1.0853   1.9839   2.0411   2.1317   2.3531   2.5972   2.7032
     2.7689   2.8968   3.3528   3.3758   3.8900   4.0868   4.3954   4.5173
     4.7316   4.8506   5.0688   5.1741   5.3476   5.7130   6.2702   6.3115
     6.3298   6.4843   6.6143   6.6375   6.8178   6.8454   7.0111   7.1714
     7.6381   7.7348   7.9258   7.9489   9.9944   9.9954  10.3244  11.0241
    11.6702  12.0468  12.4924  13.0285  13.2394  13.2462  13.3417  13.7415
    14.3908  14.7661  15.3209  15.8123  16.1139  16.7111  17.2752

          k = 0.1667 0.1667-0.3429 ( 31642 PWs)   bands (ev):

   -66.3342 -66.3342 -66.3332 -66.3332 -30.6871 -30.6871 -30.6838 -30.6838
   -30.6665 -30.6665 -30.6435 -30.6435 -30.6062 -30.6062 -30.5843 -30.5843
   -20.4894 -20.4894 -20.4893 -20.4893 -20.4765 -20.4765 -20.4764 -20.4764
   -20.4718 -20.4718 -20.4716 -20.4716 -20.4695 -20.4695 -20.4683 -20.4683
   -20.4673 -20.4673 -20.4671 -20.4671 -20.4622 -20.4622 -20.4608 -20.4608
   -20.4599 -20.4599 -20.4582 -20.4582  -9.7829  -9.7829  -8.9958  -8.9958
    -8.8139  -8.8139  -8.6167  -8.6167  -8.2881  -8.2881  -7.8982  -7.8982
     1.0841   1.0841   2.1121   2.1121   2.7248   2.7248   2.9377   2.9377
     2.9456   2.9456   3.0470   3.0470   3.4203   3.4203   4.3761   4.3761
     4.6733   4.6733   5.0498   5.0498   5.4591   5.4591   6.3232   6.3232
     6.4147   6.4147   6.5984   6.5984   7.0984   7.0984   7.3142   7.3142
     7.3200   7.3200   7.9362   7.9362   9.9981   9.9981  11.0190  11.0190
    11.5162  11.5162  12.7353  12.7353  13.2424  13.2424  13.5042  13.5042
    14.6545  14.6545  15.6347  15.6347  16.6567  16.6567  17.9124

          k = 0.1667 0.3333 0.0000 ( 31639 PWs)   bands (ev):

   -66.3342 -66.3337 -66.3337 -66.3332 -30.7210 -30.7190 -30.6651 -30.6599
   -30.6517 -30.6514 -30.6272 -30.6252 -30.6237 -30.6214 -30.5904 -30.5873
   -20.4894 -20.4894 -20.4893 -20.4893 -20.4797 -20.4797 -20.4733 -20.4732
   -20.4720 -20.4719 -20.4718 -20.4718 -20.4696 -20.4688 -20.4682 -20.4680
   -20.4678 -20.4671 -20.4668 -20.4665 -20.4624 -20.4623 -20.4611 -20.4610
   -20.4598 -20.4597 -20.4582 -20.4582  -9.8935  -9.5298  -9.4584  -9.0430
    -8.7614  -8.6986  -8.6783  -8.6594  -8.0419  -8.0338  -7.9543  -7.9168
     1.0812   1.1710   1.3515   1.3921   2.3863   2.6734   2.7397   2.9343
     3.0180   3.2349   3.2827   3.6923   3.7478   3.9535   4.3589   4.7916
     4.8309   4.9264   5.1046   5.6041   5.6202   5.6307   5.7074   5.8297
     6.0886   6.1036   6.3430   6.5221   6.7017   6.7935   6.8472   7.5168
     7.5424   7.5875   7.6039   8.0597   9.8577  10.9317  10.9582  11.4756
    11.4790  12.3933  12.6905  12.7077  12.9053  13.0102  13.0460  13.8899
    14.0240  15.0196  15.4923  15.5179  16.3001  17.3633  17.3920

          k = 0.1667 0.3333 0.1143 ( 31631 PWs)   bands (ev):

   -66.3342 -66.3338 -66.3336 -66.3332 -30.7164 -30.7144 -30.6653 -30.6602
   -30.6559 -30.6554 -30.6273 -30.6255 -30.6237 -30.6216 -30.5902 -30.5875
   -20.4894 -20.4894 -20.4893 -20.4893 -20.4792 -20.4792 -20.4737 -20.4737
   -20.4720 -20.4719 -20.4718 -20.4718 -20.4696 -20.4688 -20.4681 -20.4680
   -20.4678 -20.4672 -20.4669 -20.4666 -20.4624 -20.4623 -20.4611 -20.4610
   -20.4598 -20.4597 -20.4582 -20.4582  -9.8444  -9.4715  -9.4547  -9.0129
    -8.7741  -8.7030  -8.6731  -8.6518  -8.0883  -8.0403  -8.0367  -7.9987
     1.2692   1.3512   1.3911   1.4949   2.4587   2.7026   2.7780   2.9222
     3.0092   3.2330   3.2800   3.6978   3.7942   3.8259   4.4193   4.5349
     4.7917   4.8174   4.8690   5.3012   5.5522   5.5636   5.6067   5.8178
     6.2469   6.3385   6.4165   6.5463   6.7066   6.7782   6.8837   7.5073
     7.5327   7.5673   7.5747   7.9803  10.0381  10.9323  10.9584  11.5372
    11.5578  12.2306  12.6842  12.6955  12.8550  12.8925  12.9976  13.7896
    14.3094  15.4097  15.4930  15.6435  16.3595  17.1574  17.4181

          k = 0.1667 0.3333 0.2286 ( 31627 PWs)   bands (ev):

   -66.3341 -66.3339 -66.3335 -66.3333 -30.7039 -30.7020 -30.6709 -30.6680
   -30.6615 -30.6608 -30.6272 -30.6260 -30.6235 -30.6222 -30.5896 -30.5881
   -20.4894 -20.4894 -20.4893 -20.4893 -20.4781 -20.4781 -20.4749 -20.4749
   -20.4719 -20.4719 -20.4718 -20.4718 -20.4694 -20.4689 -20.4679 -20.4679
   -20.4676 -20.4674 -20.4671 -20.4668 -20.4624 -20.4623 -20.4611 -20.4610
   -20.4598 -20.4597 -20.4582 -20.4582  -9.7243  -9.5148  -9.2492  -8.9152
    -8.8284  -8.7202  -8.6508  -8.6222  -8.3273  -8.2969  -8.0352  -8.0198
     1.3394   1.3499   2.0358   2.1466   2.6713   2.7844   2.8688   2.8963
     2.9737   3.2136   3.2737   3.4031   3.8977   3.9154   3.9521   4.1790
     4.5839   4.6689   4.7786   4.8424   4.8626   5.3814   5.6105   5.6622
     6.5221   6.6071   6.6854   6.7072   6.7806   6.8649   7.0357   7.4175
     7.4549   7.5097   7.5594   7.7596  10.5114  10.9330  10.9633  11.7125
    11.7635  11.8321  12.4820  12.5339  12.7021  12.7412  13.0924  13.5494
    14.8360  15.4041  16.0426  16.3437  16.6470  16.7763  17.4709

          k = 0.1667 0.3333-0.3429 ( 31634 PWs)   bands (ev):

   -66.3340 -66.3340 -66.3334 -66.3334 -30.6869 -30.6869 -30.6850 -30.6850
   -30.6616 -30.6616 -30.6267 -30.6267 -30.6229 -30.6229 -30.5889 -30.5888
   -20.4894 -20.4894 -20.4893 -20.4893 -20.4765 -20.4765 -20.4765 -20.4765
   -20.4719 -20.4719 -20.4718 -20.4718 -20.4691 -20.4691 -20.4677 -20.4677
   -20.4676 -20.4676 -20.4671 -20.4671 -20.4624 -20.4623 -20.4611 -20.4610
   -20.4598 -20.4598 -20.4582 -20.4582  -9.5992  -9.5991  -8.9911  -8.9908
    -8.7797  -8.7791  -8.5599  -8.5581  -8.5337  -8.5322  -8.0283  -8.0282
     1.3470   1.3473   2.7636   2.7655   2.8289   2.8309   2.9379   2.9512
     3.0809   3.0952   3.2487   3.2520   3.3203   3.3267   4.1851   4.1885
     4.2568   4.2570   4.7078   4.7611   5.0108   5.0611   5.6196   5.6224
     6.6211   6.6496   6.6719   6.7003   7.1964   7.1997   7.2159   7.2461
     7.2840   7.3015   7.5887   7.5953  10.9123  10.9244  11.1713  11.1920
    12.0753  12.0890  12.1348  12.1387  12.6956  12.7304  13.2772  13.3006
    15.2020  15.2117  16.4056  16.4135  17.2552  17.2916  17.3327

          k = 0.1667-0.5000 0.0000 ( 31634 PWs)   bands (ev):

   -66.3339 -66.3339 -66.3335 -66.3335 -30.7202 -30.7202 -30.6565 -30.6565
   -30.6454 -30.6454 -30.6441 -30.6441 -30.6043 -30.6043 -30.6014 -30.6014
   -20.4894 -20.4894 -20.4893 -20.4893 -20.4797 -20.4797 -20.4733 -20.4733
   -20.4720 -20.4720 -20.4720 -20.4720 -20.4689 -20.4689 -20.4679 -20.4679
   -20.4677 -20.4677 -20.4665 -20.4665 -20.4620 -20.4620 -20.4619 -20.4619
   -20.4588 -20.4588 -20.4588 -20.4588  -9.6915  -9.6915  -9.1550  -9.1550
    -8.9136  -8.9136  -8.3436  -8.3436  -8.3412  -8.3411  -7.9379  -7.9379
     1.1316   1.1316   2.0351   2.0351   2.0413   2.0413   2.5940   2.5940
     3.6414   3.6414   3.8598   3.8598   4.0288   4.0288   4.1429   4.1429
     4.6177   4.6177   4.9817   4.9818   5.4103   5.4103   5.7218   5.7218
     6.1551   6.1551   6.3916   6.3916   7.0720   7.0720   7.0800   7.0800
     7.1555   7.1555   7.8968   7.8968  10.6130  10.6130  11.8778  11.8778
    11.9065  11.9065  12.3269  12.3269  12.6252  12.6252  13.4867  13.4867
    14.5690  14.5690  16.3830  16.3830  16.7146  16.7146  17.5142

          k = 0.1667-0.5000 0.1143 ( 31634 PWs)   bands (ev):

   -66.3339 -66.3339 -66.3335 -66.3335 -30.7156 -30.7156 -30.6593 -30.6593
   -30.6457 -30.6457 -30.6456 -30.6456 -30.6042 -30.6042 -30.6016 -30.6016
   -20.4894 -20.4894 -20.4893 -20.4893 -20.4793 -20.4793 -20.4737 -20.4737
   -20.4720 -20.4720 -20.4720 -20.4720 -20.4688 -20.4688 -20.4679 -20.4679
   -20.4677 -20.4677 -20.4666 -20.4666 -20.4620 -20.4620 -20.4619 -20.4619
   -20.4588 -20.4588 -20.4588 -20.4588  -9.6298  -9.6298  -9.1673  -9.1673
    -8.8932  -8.8932  -8.3508  -8.3508  -8.3397  -8.3397  -8.0421  -8.0421
     1.3807   1.3807   2.0367   2.0368   2.0456   2.0456   2.6656   2.6656
     3.5858   3.5858   3.9004   3.9004   4.0478   4.0478   4.0984   4.0984
     4.6255   4.6255   4.7659   4.7660   5.0928   5.0928   5.6879   5.6879
     6.2251   6.2251   6.5726   6.5726   7.0630   7.0630   7.0819   7.0819
     7.1599   7.1599   7.8359   7.8359  10.7258  10.7258  11.8756  11.8756
    11.9055  11.9055  12.3730  12.3730  12.4765  12.4765  13.3706  13.3706
    14.9194  14.9194  16.4681  16.4681  16.6764  16.6764  17.5333

          k = 0.1667-0.5000 0.2286 ( 31644 PWs)   bands (ev):

   -66.3338 -66.3338 -66.3336 -66.3336 -30.7032 -30.7032 -30.6698 -30.6698
   -30.6470 -30.6470 -30.6462 -30.6462 -30.6037 -30.6037 -30.6022 -30.6022
   -20.4894 -20.4894 -20.4893 -20.4893 -20.4781 -20.4781 -20.4749 -20.4749
   -20.4720 -20.4720 -20.4720 -20.4720 -20.4686 -20.4686 -20.4680 -20.4680
   -20.4676 -20.4676 -20.4669 -20.4669 -20.4620 -20.4620 -20.4619 -20.4619
   -20.4588 -20.4588 -20.4588 -20.4588  -9.4735  -9.4735  -9.2111  -9.2111
    -8.8166  -8.8166  -8.4153  -8.4153  -8.3325  -8.3325  -8.2514  -8.2514
     1.9325   1.9325   2.0312   2.0312   2.1834   2.1834   2.8802   2.8802
     3.3689   3.3689   3.9444   3.9444   3.9813   3.9813   4.1826   4.1826
     4.2299   4.2299   4.6557   4.6557   4.7406   4.7406   5.1331   5.1331
     6.6652   6.6652   6.8419   6.8419   7.0296   7.0296   7.0795   7.0795
     7.1937   7.1937   7.6513   7.6513  11.0506  11.0506  11.8545  11.8545
    11.9006  11.9006  12.1039  12.1039  12.5179  12.5179  13.0862  13.0862
    15.6609  15.6609  16.5177  16.5177  16.7627  16.7628  17.3920

          k = 0.1667-0.5000-0.3429 ( 31652 PWs)   bands (ev):

   -66.3337 -66.3337 -66.3337 -66.3337 -30.6863 -30.6863 -30.6863 -30.6863
   -30.6469 -30.6469 -30.6469 -30.6469 -30.6030 -30.6030 -30.6030 -30.6030
   -20.4894 -20.4894 -20.4893 -20.4893 -20.4765 -20.4765 -20.4765 -20.4765
   -20.4720 -20.4720 -20.4720 -20.4720 -20.4683 -20.4683 -20.4683 -20.4683
   -20.4672 -20.4672 -20.4672 -20.4672 -20.4620 -20.4620 -20.4620 -20.4620
   -20.4588 -20.4588 -20.4588 -20.4588  -9.3097  -9.3097  -9.3096  -9.3096
    -8.6423  -8.6423  -8.6419  -8.6419  -8.3173  -8.3173  -8.3171  -8.3171
     2.0176   2.0176   2.0181   2.0181   2.9265   2.9265   2.9283   2.9283
     3.3131   3.3132   3.3222   3.3222   3.9637   3.9637   3.9953   3.9954
     4.4879   4.4879   4.5049   4.5049   4.7531   4.7531   4.7546   4.7546
     6.9303   6.9303   6.9391   6.9391   7.0193   7.0193   7.0442   7.0442
     7.3654   7.3654   7.3778   7.3778  11.5085  11.5085  11.5333  11.5333
    11.8933  11.8933  11.9398  11.9398  12.7575  12.7575  12.7771  12.7771
    16.2175  16.2175  16.2419  16.2419  17.1128  17.1128  17.1576

          k = 0.3333 0.3333 0.0000 ( 31608 PWs)   bands (ev):

   -66.3341 -66.3338 -66.3336 -66.3333 -30.7201 -30.7193 -30.6709 -30.6669
   -30.6565 -30.6510 -30.6466 -30.6439 -30.6033 -30.6003 -30.5838 -30.5806
   -20.4894 -20.4894 -20.4893 -20.4893 -20.4796 -20.4796 -20.4732 -20.4731
   -20.4718 -20.4717 -20.4717 -20.4716 -20.4701 -20.4692 -20.4685 -20.4678
   -20.4678 -20.4677 -20.4665 -20.4664 -20.4630 -20.4629 -20.4624 -20.4623
   -20.4584 -20.4584 -20.4575 -20.4574  -9.8685  -9.6352  -9.4801  -9.1125
    -9.0690  -8.9045  -8.3579  -8.3559  -7.9576  -7.9395  -7.9253  -7.9128
     1.0286   1.0930   1.1631   1.2123   2.0332   2.0339   2.2897   2.5952
     3.5934   3.6901   3.8730   3.9113   4.0034   4.5682   4.6472   4.8100
     4.8609   4.9950   5.2178   5.5237   5.5304   5.5719   5.8380   5.8916
     6.1641   6.1830   6.2636   6.2791   6.4893   6.6622   6.9745   7.0140
     7.0253   7.1244   7.8886   8.1055   9.5642  10.6217  11.6130  11.6412
    12.3063  12.3182  12.5614  12.5721  12.6511  13.1472  13.4897  13.8178
    14.0621  14.6185  15.2370  15.9630  16.7837  16.9063  17.5294

          k = 0.3333 0.3333 0.1143 ( 31628 PWs)   bands (ev):

   -66.3341 -66.3337 -66.3337 -66.3333 -30.7155 -30.7147 -30.6707 -30.6672
   -30.6589 -30.6557 -30.6468 -30.6459 -30.6031 -30.6005 -30.5836 -30.5808
   -20.4894 -20.4894 -20.4893 -20.4893 -20.4792 -20.4792 -20.4736 -20.4736
   -20.4717 -20.4717 -20.4717 -20.4716 -20.4700 -20.4692 -20.4685 -20.4678
   -20.4678 -20.4677 -20.4666 -20.4665 -20.4630 -20.4629 -20.4624 -20.4623
   -20.4584 -20.4584 -20.4575 -20.4574  -9.8220  -9.5721  -9.4912  -9.1232
    -9.0335  -8.8848  -8.3665  -8.3535  -8.0652  -8.0348  -7.9377  -7.9146
     1.0736   1.0929   1.3850   1.4561   2.0318   2.0414   2.3627   2.6695
     3.5866   3.6851   3.7605   3.8088   3.9784   4.5743   4.6963   4.7574
     4.8144   4.8296   4.9289   5.1624   5.6944   5.7191   5.8350   5.8901
     5.9153   6.2547   6.3077   6.4557   6.4867   6.7213   6.8969   7.0125
     7.0175   7.1225   7.8266   8.0177   9.7915  10.7379  11.6132  11.6400
    12.1529  12.3506  12.4543  12.5752  12.6053  13.1770  13.3749  13.9645
    14.0709  14.9594  15.2074  16.1164  16.7404  16.9962  17.6154

          k = 0.3333 0.3333 0.2286 ( 31643 PWs)   bands (ev):

   -66.3340 -66.3337 -66.3337 -66.3334 -30.7029 -30.7023 -30.6699 -30.6690
   -30.6683 -30.6679 -30.6479 -30.6474 -30.6026 -30.6011 -30.5830 -30.5814
   -20.4894 -20.4894 -20.4893 -20.4893 -20.4780 -20.4780 -20.4748 -20.4748
   -20.4717 -20.4717 -20.4717 -20.4716 -20.4698 -20.4693 -20.4685 -20.4680
   -20.4675 -20.4675 -20.4668 -20.4667 -20.4630 -20.4630 -20.4624 -20.4623
   -20.4584 -20.4584 -20.4575 -20.4575  -9.7109  -9.5280  -9.4133  -9.1617
    -8.9120  -8.8079  -8.4351  -8.3458  -8.3290  -8.2581  -7.9329  -7.9195
     1.0883   1.0926   1.9240   2.0254   2.1678   2.1819   2.5767   2.8938
     3.3361   3.4427   3.6442   3.6719   4.1604   4.1744   4.2210   4.6071
     4.6920   4.7730   4.7877   4.9477   5.1430   5.5466   5.9024   5.9151
     6.1064   6.2388   6.3900   6.6719   6.6810   6.8665   6.9147   6.9940
     7.0756   7.1351   7.6348   7.7621  10.3526  11.0684  11.5929  11.6367
    11.7199  12.0660  12.4942  12.5805  12.5911  13.0680  13.2997  13.7320
    14.5477  15.1079  15.6936  16.5131  16.5968  17.3055  17.3539

          k = 0.3333 0.3333-0.3429 ( 31636 PWs)   bands (ev):

   -66.3339 -66.3339 -66.3335 -66.3335 -30.6857 -30.6857 -30.6853 -30.6853
   -30.6689 -30.6689 -30.6480 -30.6480 -30.6019 -30.6019 -30.5822 -30.5822
   -20.4894 -20.4894 -20.4893 -20.4893 -20.4764 -20.4764 -20.4764 -20.4764
   -20.4717 -20.4717 -20.4716 -20.4716 -20.4695 -20.4695 -20.4683 -20.4683
   -20.4672 -20.4672 -20.4670 -20.4670 -20.4630 -20.4630 -20.4623 -20.4623
   -20.4584 -20.4584 -20.4575 -20.4575  -9.6002  -9.6002  -9.2523  -9.2523
    -8.6854  -8.6854  -8.6213  -8.6213  -8.3294  -8.3294  -7.9262  -7.9262
     1.0916   1.0916   2.0117   2.0117   2.9151   2.9151   2.9385   2.9385
     3.1562   3.1562   3.3513   3.3513   3.6546   3.6546   4.4560   4.4560
     4.7107   4.7107   4.8039   4.8039   5.2247   5.2247   5.9121   5.9121
     6.1983   6.1983   6.5179   6.5179   6.9171   6.9171   7.0246   7.0246
     7.3114   7.3114   7.3922   7.3922  11.0377  11.0377  11.5535  11.5535
    11.6342  11.6342  12.5844  12.5844  12.7475  12.7475  13.4827  13.4827
    14.9051  14.9051  16.2904  16.2904  16.9340  16.9340  17.7278

          k = 0.3333-0.5000 0.0000 ( 31620 PWs)   bands (ev):

   -66.3339 -66.3339 -66.3335 -66.3335 -30.7196 -30.7196 -30.6669 -30.6669
   -30.6619 -30.6619 -30.6492 -30.6492 -30.5886 -30.5886 -30.5854 -30.5854
   -20.4894 -20.4894 -20.4893 -20.4893 -20.4796 -20.4796 -20.4731 -20.4731
   -20.4717 -20.4717 -20.4716 -20.4716 -20.4697 -20.4697 -20.4685 -20.4685
   -20.4678 -20.4678 -20.4663 -20.4663 -20.4631 -20.4631 -20.4629 -20.4629
   -20.4576 -20.4576 -20.4575 -20.4575  -9.7735  -9.7735  -9.3656  -9.3656
    -9.0293  -9.0293  -8.0660  -8.0660  -8.0524  -8.0524  -7.9366  -7.9366
     1.1214   1.1214   1.3474   1.3474   1.3971   1.3971   2.3667   2.3667
     4.0096   4.0096   4.2638   4.2638   4.3068   4.3068   4.4305   4.4305
     5.3155   5.3155   5.4629   5.4629   5.5062   5.5062   5.6025   5.6025
     6.3528   6.3528   6.4313   6.4313   6.4785   6.4785   6.5978   6.5978
     6.8814   6.8814   8.0521   8.0521   9.8968   9.8968  12.2112  12.2112
    12.2315  12.2315  12.3944  12.3944  12.9184  12.9184  13.8929  13.8929
    14.0908  14.0908  15.7273  15.7273  16.6627  16.6627  17.4687

          k = 0.3333-0.5000 0.1143 ( 31656 PWs)   bands (ev):

   -66.3339 -66.3339 -66.3335 -66.3335 -30.7150 -30.7150 -30.6670 -30.6670
   -30.6622 -30.6622 -30.6536 -30.6536 -30.5884 -30.5884 -30.5856 -30.5856
   -20.4894 -20.4894 -20.4893 -20.4893 -20.4792 -20.4792 -20.4735 -20.4735
   -20.4717 -20.4716 -20.4716 -20.4716 -20.4696 -20.4696 -20.4686 -20.4686
   -20.4677 -20.4677 -20.4664 -20.4664 -20.4631 -20.4631 -20.4629 -20.4629
   -20.4576 -20.4576 -20.4575 -20.4575  -9.7227  -9.7227  -9.3761  -9.3761
    -8.9973  -8.9973  -8.0891  -8.0891  -8.0641  -8.0641  -8.0144  -8.0144
     1.2772   1.2772   1.3471   1.3471   1.5009   1.5009   2.4417   2.4417
     3.8202   3.8202   4.2631   4.2631   4.2877   4.2877   4.4804   4.4804
     5.0215   5.0216   5.4156   5.4156   5.4678   5.4678   5.7809   5.7809
     6.1667   6.1667   6.4718   6.4718   6.5861   6.5861   6.6351   6.6351
     6.8442   6.8442   7.9703   7.9703  10.0780  10.0780  12.1953  12.1953
    12.2236  12.2236  12.2563  12.2563  12.9532  12.9532  13.7891  13.7891
    14.3719  14.3719  15.6940  15.6940  16.7989  16.7989  17.5383

          k = 0.3333-0.5000 0.2286 ( 31662 PWs)   bands (ev):

   -66.3338 -66.3338 -66.3336 -66.3336 -30.7025 -30.7025 -30.6701 -30.6701
   -30.6628 -30.6628 -30.6625 -30.6625 -30.5878 -30.5878 -30.5862 -30.5862
   -20.4894 -20.4894 -20.4893 -20.4893 -20.4780 -20.4780 -20.4748 -20.4748
   -20.4716 -20.4716 -20.4716 -20.4716 -20.4694 -20.4694 -20.4688 -20.4688
   -20.4674 -20.4674 -20.4667 -20.4667 -20.4630 -20.4630 -20.4630 -20.4630
   -20.4576 -20.4576 -20.4575 -20.4575  -9.6015  -9.6015  -9.4113  -9.4113
    -8.8832  -8.8832  -8.3439  -8.3439  -8.0589  -8.0589  -8.0425  -8.0425
     1.3357   1.3357   1.3460   1.3460   2.1449   2.1449   2.6681   2.6681
     3.3927   3.3927   4.2172   4.2172   4.2650   4.2651   4.2904   4.2904
     4.6587   4.6587   5.2660   5.2660   5.4812   5.4812   5.6216   5.6216
     6.2897   6.2897   6.4516   6.4516   6.6583   6.6583   6.7809   6.7809
     6.9227   6.9227   7.7271   7.7271  10.5554  10.5554  11.7836  11.7836
    12.2192  12.2192  12.2315  12.2315  13.0667  13.0667  13.5398  13.5398
    14.9252  14.9252  15.5821  15.5821  17.1576  17.1576  17.7014

          k = 0.3333-0.5000-0.3429 ( 31668 PWs)   bands (ev):

   -66.3337 -66.3337 -66.3337 -66.3337 -30.6855 -30.6855 -30.6855 -30.6855
   -30.6635 -30.6635 -30.6635 -30.6635 -30.5870 -30.5870 -30.5870 -30.5870
   -20.4894 -20.4893 -20.4893 -20.4893 -20.4764 -20.4764 -20.4764 -20.4764
   -20.4716 -20.4716 -20.4716 -20.4716 -20.4691 -20.4691 -20.4691 -20.4691
   -20.4671 -20.4671 -20.4671 -20.4671 -20.4630 -20.4630 -20.4630 -20.4630
   -20.4576 -20.4576 -20.4576 -20.4576  -9.4838  -9.4838  -9.4837  -9.4837
    -8.6543  -8.6542  -8.6542  -8.6541  -8.0516  -8.0516  -8.0515  -8.0515
     1.3434   1.3434   1.3435   1.3435   2.9258   2.9258   2.9274   2.9274
     3.2145   3.2145   3.2157   3.2157   4.2688   4.2688   4.2819   4.2819
     4.9456   4.9456   4.9581   4.9581   5.5109   5.5109   5.5163   5.5163
     6.4016   6.4016   6.4059   6.4059   6.7240   6.7240   6.7268   6.7268
     7.3437   7.3437   7.3468   7.3468  11.1775  11.1775  11.1793  11.1793
    12.2207  12.2207  12.2293  12.2293  13.2667  13.2667  13.2727  13.2727
    15.3463  15.3463  15.3516  15.3516  17.4684  17.4716  17.4820

          k =-0.5000-0.5000 0.0000 ( 31560 PWs)   bands (ev):

   -66.3339 -66.3339 -66.3335 -66.3335 -30.7192 -30.7192 -30.6721 -30.6721
   -30.6681 -30.6681 -30.6498 -30.6498 -30.5827 -30.5827 -30.5796 -30.5796
   -20.4894 -20.4894 -20.4893 -20.4893 -20.4796 -20.4796 -20.4730 -20.4730
   -20.4714 -20.4714 -20.4713 -20.4713 -20.4702 -20.4702 -20.4689 -20.4689
   -20.4677 -20.4677 -20.4663 -20.4663 -20.4634 -20.4634 -20.4632 -20.4632
   -20.4571 -20.4571 -20.4571 -20.4571  -9.8132  -9.8132  -9.4425  -9.4424
    -9.0611  -9.0611  -7.9538  -7.9538  -7.9443  -7.9443  -7.9262  -7.9262
     1.0419   1.0419   1.0896   1.0896   1.2295   1.2295   2.2775   2.2775
     4.0971   4.0971   4.4857   4.4857   4.5444   4.5444   4.6362   4.6362
     5.3463   5.3463   5.3541   5.3541   5.7874   5.7874   5.8240   5.8240
     6.1347   6.1347   6.2364   6.2364   6.3079   6.3079   6.4921   6.4921
     7.0098   7.0098   8.1019   8.1019   9.5876   9.5876  12.3173  12.3173
    12.3514  12.3514  12.3737  12.3737  13.1455  13.1455  13.8388  13.8388
    14.0633  14.0633  15.3143  15.3143  16.8270  16.8270  17.4955

          k =-0.5000-0.5000 0.1143 ( 31588 PWs)   bands (ev):

   -66.3339 -66.3339 -66.3335 -66.3335 -30.7146 -30.7146 -30.6719 -30.6719
   -30.6683 -30.6683 -30.6545 -30.6545 -30.5825 -30.5825 -30.5798 -30.5798
   -20.4894 -20.4894 -20.4893 -20.4893 -20.4791 -20.4791 -20.4734 -20.4734
   -20.4714 -20.4714 -20.4713 -20.4713 -20.4701 -20.4701 -20.4690 -20.4690
   -20.4676 -20.4676 -20.4664 -20.4664 -20.4634 -20.4634 -20.4633 -20.4633
   -20.4571 -20.4571 -20.4571 -20.4571  -9.7667  -9.7667  -9.4525  -9.4525
    -9.0248  -9.0248  -8.0573  -8.0573  -7.9520  -7.9520  -7.9281  -7.9281
     1.0734   1.0734   1.0896   1.0896   1.4600   1.4600   2.3516   2.3516
     3.8392   3.8392   4.4897   4.4897   4.5401   4.5401   4.7010   4.7010
     5.0450   5.0450   5.5047   5.5047   5.7821   5.7821   5.8267   5.8267
     6.1162   6.1162   6.1609   6.1609   6.3357   6.3357   6.5802   6.5802
     6.8967   6.8967   8.0133   8.0133   9.8139   9.8139  12.1515  12.1515
    12.3545  12.3545  12.3727  12.3727  13.1779  13.1779  13.9638  13.9638
    14.0926  14.0926  15.2834  15.2834  17.0211  17.0211  17.5301

          k =-0.5000-0.5000 0.2286 ( 31696 PWs)   bands (ev):

   -66.3338 -66.3338 -66.3336 -66.3336 -30.7020 -30.7020 -30.6711 -30.6711
   -30.6691 -30.6691 -30.6673 -30.6673 -30.5820 -30.5820 -30.5804 -30.5804
   -20.4894 -20.4894 -20.4893 -20.4893 -20.4780 -20.4780 -20.4747 -20.4747
   -20.4714 -20.4714 -20.4714 -20.4714 -20.4699 -20.4699 -20.4692 -20.4692
   -20.4674 -20.4674 -20.4666 -20.4666 -20.4634 -20.4634 -20.4633 -20.4633
   -20.4571 -20.4571 -20.4571 -20.4571  -9.6575  -9.6575  -9.4857  -9.4857
    -8.8983  -8.8983  -8.3374  -8.3373  -7.9470  -7.9470  -7.9332  -7.9332
     1.0857   1.0857   1.0894   1.0894   2.1640   2.1640   2.5698   2.5698
     3.3660   3.3660   4.2216   4.2216   4.5004   4.5004   4.5308   4.5308
     4.8875   4.8875   5.4577   5.4577   5.8315   5.8315   5.8365   5.8365
     6.0491   6.0491   6.1165   6.1165   6.4155   6.4155   6.7028   6.7028
     6.8968   6.8968   7.7523   7.7523  10.3723  10.3723  11.6960  11.6960
    12.3601  12.3601  12.3698  12.3698  13.2831  13.2831  13.7264  13.7264
    14.5856  14.5856  15.1797  15.1797  17.6276  17.6298  17.6298

          k =-0.5000-0.5000-0.3429 ( 31664 PWs)   bands (ev):

   -66.3337 -66.3337 -66.3337 -66.3337 -30.6847 -30.6847 -30.6847 -30.6847
   -30.6701 -30.6701 -30.6701 -30.6701 -30.5812 -30.5812 -30.5812 -30.5812
   -20.4894 -20.4893 -20.4893 -20.4893 -20.4763 -20.4763 -20.4763 -20.4763
   -20.4714 -20.4714 -20.4714 -20.4714 -20.4695 -20.4695 -20.4695 -20.4695
   -20.4670 -20.4670 -20.4670 -20.4670 -20.4634 -20.4634 -20.4633 -20.4633
   -20.4571 -20.4571 -20.4571 -20.4571  -9.5521  -9.5521  -9.5521  -9.5521
    -8.6562  -8.6562  -8.6561  -8.6561  -7.9401  -7.9401  -7.9401  -7.9401
     1.0886   1.0886   1.0886   1.0886   2.9180   2.9180   2.9180   2.9180
     3.1626   3.1626   3.1626   3.1626   4.5152   4.5152   4.5152   4.5152
     5.1674   5.1674   5.1674   5.1674   5.8437   5.8437   5.8437   5.8437
     6.0797   6.0797   6.0797   6.0797   6.5396   6.5396   6.5396   6.5396
     7.3488   7.3488   7.3488   7.3488  11.0564  11.0564  11.0564  11.0564
    12.3654  12.3654  12.3654  12.3654  13.4722  13.4722  13.4722  13.4722
    14.9659  14.9659  14.9659  14.9659  17.7726  17.7726  17.7726

     the Fermi energy is     9.4843 ev

!    total energy              =   -3130.34829632 Ry
     Harris-Foulkes estimate   =   -3130.34829633 Ry
     estimated scf accuracy    <          1.6E-09 Ry

     The total energy is the sum of the following terms:

     one-electron contribution =   -2397.59076860 Ry
     hartree contribution      =    1316.22119134 Ry
     xc contribution           =    -483.14311540 Ry
     ewald contribution        =   -1565.83553493 Ry
     smearing contrib. (-TS)   =      -0.00006874 Ry

     convergence has been achieved in  12 iterations

     Writing output data file Landau_22.save/
 
     init_run     :      2.80s CPU      3.09s WALL (       1 calls)
     electrons    :    132.07s CPU    135.23s WALL (       1 calls)

     Called by init_run:
     wfcinit      :      2.14s CPU      2.36s WALL (       1 calls)
     potinit      :      0.26s CPU      0.28s WALL (       1 calls)
     hinit0       :      0.31s CPU      0.34s WALL (       1 calls)

     Called by electrons:
     c_bands      :    109.87s CPU    112.56s WALL (      12 calls)
     sum_band     :     19.20s CPU     19.31s WALL (      12 calls)
     v_of_rho     :      0.48s CPU      0.50s WALL (      13 calls)
     mix_rho      :      0.63s CPU      0.77s WALL (      12 calls)

     Called by c_bands:
     init_us_2    :      0.72s CPU      0.83s WALL (      25 calls)
     cegterg      :     61.14s CPU     63.67s WALL (      12 calls)

     Called by sum_band:

     Called by *egterg:
     h_psi        :     50.39s CPU     51.63s WALL (      46 calls)
     g_psi        :      0.16s CPU      0.16s WALL (      33 calls)
     cdiaghg      :      0.76s CPU      0.77s WALL (      45 calls)

     Called by h_psi:
     h_psi:pot    :     50.10s CPU     50.49s WALL (      46 calls)
     h_psi:calbec :      4.01s CPU      4.19s WALL (      46 calls)
     vloc_psi     :     41.59s CPU     41.77s WALL (      46 calls)
     add_vuspsi   :      4.50s CPU      4.53s WALL (      46 calls)

     General routines
     calbec       :      4.01s CPU      4.19s WALL (      46 calls)
     fft          :      0.22s CPU      0.22s WALL (      39 calls)
     ffts         :      0.08s CPU      0.08s WALL (      12 calls)
     fftw         :     43.49s CPU     43.63s WALL (    7920 calls)
 
     Parallel routines
 
     PWSCF        :   2m16.41s CPU   2m20.68s WALL

 
   This run was terminated on:  15:35:55  21Nov2019            

=------------------------------------------------------------------------------=
   JOB DONE.
=------------------------------------------------------------------------------=
