
     Program PWSCF v.6.4.1 starts on 19Nov2019 at 21:45:47 

     This program is part of the open-source Quantum ESPRESSO suite
     for quantum simulation of materials; please cite
         "P. Giannozzi et al., J. Phys.:Condens. Matter 21 395502 (2009);
         "P. Giannozzi et al., J. Phys.:Condens. Matter 29 465901 (2017);
          URL http://www.quantum-espresso.org", 
     in publications or presentations arising from this work. More details at
     http://www.quantum-espresso.org/quote

     Parallel version (MPI), running on    40 processors

     MPI processes distributed on     7 nodes
     K-points division:     npool     =      40
     Reading input from scf.in

     Current dimensions of program PWSCF are:
     Max number of different atomic species (ntypx) = 10
     Max number of k-points (npk) =  40000
     Max angular momentum in pseudopotentials (lmaxx) =  3

     Subspace diagonalization in iterative solution of the eigenvalue problem:
     a serial algorithm will be used

     Message from routine setup:
     using ibrav=0 with symmetry is DISCOURAGED, use correct ibrav instead
 
     G-vector sticks info
     --------------------
     sticks:   dense  smooth     PW     G-vecs:    dense   smooth      PW
     Sum        3729    3729   1009               252461   252461   35981
 


     bravais-lattice index     =            0
     lattice parameter (alat)  =       9.8862  a.u.
     unit-cell volume          =    1421.4019 (a.u.)^3
     number of atoms/cell      =           16
     number of atomic types    =            2
     number of electrons       =       184.05
     number of Kohn-Sham states=          110
     kinetic-energy cutoff     =     120.0000  Ry
     charge density cutoff     =     480.0000  Ry
     convergence threshold     =      1.0E-08
     mixing beta               =       0.7000
     number of iterations used =            8  plain     mixing
     Exchange-correlation      = SLA PW NOGX NOGC ( 1  4  0  0 0 0)

     celldm(1)=   9.886183  celldm(2)=   0.000000  celldm(3)=   0.000000
     celldm(4)=   0.000000  celldm(5)=   0.000000  celldm(6)=   0.000000

     crystal axes: (cart. coord. in units of alat)
               a(1) = (   1.000000   0.000000   0.000000 )  
               a(2) = (   0.000000   1.000000   0.000000 )  
               a(3) = (   0.000000   0.000000   1.471062 )  

     reciprocal axes: (cart. coord. in units 2 pi/alat)
               b(1) = (  1.000000  0.000000  0.000000 )  
               b(2) = (  0.000000  1.000000  0.000000 )  
               b(3) = (  0.000000  0.000000  0.679781 )  


     PseudoPot. # 1 for W  read from file:
     /cluster/scratch/mnoe/QE/pps/W_ONCV_LDA-4.0.upf
     MD5 check sum: ba0307d5d4cd419d6f1d13dc49d7c13a
     Pseudo is Norm-conserving + core correction, Zval = 28.0
     Generated using ONCVPSP code by D. R. Hamann
     Using radial grid of 1380 points,  8 beta functions with: 
                l(1) =   0
                l(2) =   0
                l(3) =   1
                l(4) =   1
                l(5) =   2
                l(6) =   2
                l(7) =   3
                l(8) =   3

     PseudoPot. # 2 for O  read from file:
     /cluster/scratch/mnoe/QE/pps/O_ONCV_LDA-3.0.upf
     MD5 check sum: b55cdb4f45ae2203d24ad12cf8d61a31
     Pseudo is Norm-conserving + core correction, Zval =  6.0
     Generated using ONCVPSP code by D. R. Hamann
     Using radial grid of  926 points,  5 beta functions with: 
                l(1) =   0
                l(2) =   0
                l(3) =   1
                l(4) =   1
                l(5) =   2

     atomic species   valence    mass     pseudopotential
        W             28.00   183.84000     W ( 1.00)
        O              6.00    15.99940     O ( 1.00)

     16 Sym. Ops., with inversion, found (14 have fractional translation)



   Cartesian axes

     site n.     atom                  positions (alat units)
         1           W   tau(   1) = (   0.2500000   0.2500000   0.3148750  )
         2           W   tau(   2) = (   0.7500000   0.7500000   1.1561869  )
         3           W   tau(   3) = (   0.7500000   0.7500000   0.4206560  )
         4           W   tau(   4) = (   0.2500000   0.2500000   1.0504058  )
         5           O   tau(   5) = (   0.2500000   0.2500000   0.7119357  )
         6           O   tau(   6) = (   0.7500000   0.7500000   0.7591261  )
         7           O   tau(   7) = (   0.7500000   0.7500000   0.0235952  )
         8           O   tau(   8) = (   0.2500000   0.2500000   1.4474666  )
         9           O   tau(   9) = (   0.4704749   0.5295250   0.3677655  )
        10           O   tau(  10) = (   0.5295251   0.4704750   1.1032964  )
        11           O   tau(  11) = (   0.0295250   0.9704750   0.3677655  )
        12           O   tau(  12) = (   0.9704749   0.0295251   1.1032964  )
        13           O   tau(  13) = (   0.9704750   0.4704749   0.3677655  )
        14           O   tau(  14) = (   0.0295251   0.5295251   1.1032964  )
        15           O   tau(  15) = (   0.5295250   0.0295250   0.3677655  )
        16           O   tau(  16) = (   0.4704750   0.9704749   1.1032964  )

     number of k points=    40  gaussian smearing, width (Ry)=  0.0007
                       cart. coord. in units 2pi/alat
        k(    1) = (   0.0000000   0.0000000   0.0000000), wk =   0.0092593
        k(    2) = (   0.0000000   0.0000000   0.1132968), wk =   0.0185185
        k(    3) = (   0.0000000   0.0000000   0.2265937), wk =   0.0185185
        k(    4) = (   0.0000000   0.0000000  -0.3398905), wk =   0.0092593
        k(    5) = (   0.0000000   0.1666667   0.0000000), wk =   0.0370370
        k(    6) = (   0.0000000   0.1666667   0.1132968), wk =   0.0740741
        k(    7) = (   0.0000000   0.1666667   0.2265937), wk =   0.0740741
        k(    8) = (   0.0000000   0.1666667  -0.3398905), wk =   0.0370370
        k(    9) = (   0.0000000   0.3333333   0.0000000), wk =   0.0370370
        k(   10) = (   0.0000000   0.3333333   0.1132968), wk =   0.0740741
        k(   11) = (   0.0000000   0.3333333   0.2265937), wk =   0.0740741
        k(   12) = (   0.0000000   0.3333333  -0.3398905), wk =   0.0370370
        k(   13) = (   0.0000000  -0.5000000   0.0000000), wk =   0.0185185
        k(   14) = (   0.0000000  -0.5000000   0.1132968), wk =   0.0370370
        k(   15) = (   0.0000000  -0.5000000   0.2265937), wk =   0.0370370
        k(   16) = (   0.0000000  -0.5000000  -0.3398905), wk =   0.0185185
        k(   17) = (   0.1666667   0.1666667   0.0000000), wk =   0.0370370
        k(   18) = (   0.1666667   0.1666667   0.1132968), wk =   0.0740741
        k(   19) = (   0.1666667   0.1666667   0.2265937), wk =   0.0740741
        k(   20) = (   0.1666667   0.1666667  -0.3398905), wk =   0.0370370
        k(   21) = (   0.1666667   0.3333333   0.0000000), wk =   0.0740741
        k(   22) = (   0.1666667   0.3333333   0.1132968), wk =   0.1481481
        k(   23) = (   0.1666667   0.3333333   0.2265937), wk =   0.1481481
        k(   24) = (   0.1666667   0.3333333  -0.3398905), wk =   0.0740741
        k(   25) = (   0.1666667  -0.5000000   0.0000000), wk =   0.0370370
        k(   26) = (   0.1666667  -0.5000000   0.1132968), wk =   0.0740741
        k(   27) = (   0.1666667  -0.5000000   0.2265937), wk =   0.0740741
        k(   28) = (   0.1666667  -0.5000000  -0.3398905), wk =   0.0370370
        k(   29) = (   0.3333333   0.3333333   0.0000000), wk =   0.0370370
        k(   30) = (   0.3333333   0.3333333   0.1132968), wk =   0.0740741
        k(   31) = (   0.3333333   0.3333333   0.2265937), wk =   0.0740741
        k(   32) = (   0.3333333   0.3333333  -0.3398905), wk =   0.0370370
        k(   33) = (   0.3333333  -0.5000000   0.0000000), wk =   0.0370370
        k(   34) = (   0.3333333  -0.5000000   0.1132968), wk =   0.0740741
        k(   35) = (   0.3333333  -0.5000000   0.2265937), wk =   0.0740741
        k(   36) = (   0.3333333  -0.5000000  -0.3398905), wk =   0.0370370
        k(   37) = (  -0.5000000  -0.5000000   0.0000000), wk =   0.0092593
        k(   38) = (  -0.5000000  -0.5000000   0.1132968), wk =   0.0185185
        k(   39) = (  -0.5000000  -0.5000000   0.2265937), wk =   0.0185185
        k(   40) = (  -0.5000000  -0.5000000  -0.3398905), wk =   0.0092593

     Dense  grid:   252461 G-vectors     FFT dimensions: (  72,  72, 108)

     Estimated max dynamical RAM per process >     787.11 MB

     Estimated total dynamical RAM >      30.75 GB

     Initial potential from superposition of free atoms

     starting charge  183.99828, renormalised to  184.05000
     Starting wfcs are  116 randomized atomic wfcs

     total cpu time spent up to now is        5.5 secs

     Self-consistent Calculation

     iteration #  1     ecut=   120.00 Ry     beta= 0.70
     Davidson diagonalization with overlap
     ethr =  1.00E-02,  avg # of iterations =  4.2

     total cpu time spent up to now is       21.1 secs

     total energy              =   -3126.89738056 Ry
     Harris-Foulkes estimate   =   -3132.27780126 Ry
     estimated scf accuracy    <       6.80511371 Ry

     iteration #  2     ecut=   120.00 Ry     beta= 0.70
     Davidson diagonalization with overlap
     ethr =  3.70E-03,  avg # of iterations =  3.2

     total cpu time spent up to now is       36.6 secs

     total energy              =   -3125.31969590 Ry
     Harris-Foulkes estimate   =   -3135.44350710 Ry
     estimated scf accuracy    <      27.20879121 Ry

     iteration #  3     ecut=   120.00 Ry     beta= 0.70
     Davidson diagonalization with overlap
     ethr =  3.70E-03,  avg # of iterations =  3.1

     total cpu time spent up to now is       50.4 secs

     total energy              =   -3130.50461435 Ry
     Harris-Foulkes estimate   =   -3130.64429387 Ry
     estimated scf accuracy    <       0.46406457 Ry

     iteration #  4     ecut=   120.00 Ry     beta= 0.70
     Davidson diagonalization with overlap
     ethr =  2.52E-04,  avg # of iterations =  2.4

     total cpu time spent up to now is       62.2 secs

     total energy              =   -3130.49945307 Ry
     Harris-Foulkes estimate   =   -3130.53748533 Ry
     estimated scf accuracy    <       0.11127649 Ry

     iteration #  5     ecut=   120.00 Ry     beta= 0.70
     Davidson diagonalization with overlap
     ethr =  6.05E-05,  avg # of iterations =  3.9

     total cpu time spent up to now is       75.1 secs

     total energy              =   -3130.50470575 Ry
     Harris-Foulkes estimate   =   -3130.51813075 Ry
     estimated scf accuracy    <       0.03123217 Ry

     iteration #  6     ecut=   120.00 Ry     beta= 0.70
     Davidson diagonalization with overlap
     ethr =  1.70E-05,  avg # of iterations =  3.6

     total cpu time spent up to now is       87.7 secs

     total energy              =   -3130.51096931 Ry
     Harris-Foulkes estimate   =   -3130.51238246 Ry
     estimated scf accuracy    <       0.00355255 Ry

     iteration #  7     ecut=   120.00 Ry     beta= 0.70
     Davidson diagonalization with overlap
     ethr =  1.93E-06,  avg # of iterations =  3.6

     total cpu time spent up to now is      100.1 secs

     total energy              =   -3130.51151863 Ry
     Harris-Foulkes estimate   =   -3130.51153436 Ry
     estimated scf accuracy    <       0.00002727 Ry

     iteration #  8     ecut=   120.00 Ry     beta= 0.70
     Davidson diagonalization with overlap
     ethr =  1.48E-08,  avg # of iterations =  4.0

     total cpu time spent up to now is      116.0 secs

     total energy              =   -3130.51153659 Ry
     Harris-Foulkes estimate   =   -3130.51154098 Ry
     estimated scf accuracy    <       0.00001781 Ry

     iteration #  9     ecut=   120.00 Ry     beta= 0.70
     Davidson diagonalization with overlap
     ethr =  9.68E-09,  avg # of iterations =  1.4

     total cpu time spent up to now is      127.3 secs

     total energy              =   -3130.51153552 Ry
     Harris-Foulkes estimate   =   -3130.51153763 Ry
     estimated scf accuracy    <       0.00000542 Ry

     iteration # 10     ecut=   120.00 Ry     beta= 0.70
     Davidson diagonalization with overlap
     ethr =  2.95E-09,  avg # of iterations =  3.0

     total cpu time spent up to now is      139.0 secs

     total energy              =   -3130.51153651 Ry
     Harris-Foulkes estimate   =   -3130.51153654 Ry
     estimated scf accuracy    <       0.00000006 Ry

     iteration # 11     ecut=   120.00 Ry     beta= 0.70
     Davidson diagonalization with overlap
     ethr =  3.23E-11,  avg # of iterations =  2.2

     total cpu time spent up to now is      153.2 secs

     total energy              =   -3130.51153652 Ry
     Harris-Foulkes estimate   =   -3130.51153653 Ry
     estimated scf accuracy    <       0.00000002 Ry

     iteration # 12     ecut=   120.00 Ry     beta= 0.70
     Davidson diagonalization with overlap
     ethr =  1.31E-11,  avg # of iterations =  2.0

     total cpu time spent up to now is      165.9 secs

     End of self-consistent calculation

          k = 0.0000 0.0000 0.0000 ( 31575 PWs)   bands (ev):

   -66.3784 -66.3779 -66.3769 -66.3764 -30.7538 -30.7486 -30.7148 -30.7148
   -30.7112 -30.7112 -30.6888 -30.6848 -30.6299 -30.6299 -30.6270 -30.6270
   -20.5395 -20.5395 -20.5395 -20.5394 -20.5199 -20.5196 -20.5188 -20.5188
   -20.5187 -20.5187 -20.5176 -20.5176 -20.5176 -20.5176 -20.5137 -20.5135
   -20.5112 -20.5110 -20.5107 -20.5107 -20.5095 -20.5095 -20.5083 -20.5083
   -20.5043 -20.5043 -20.5033 -20.5033 -10.1501  -9.8199  -9.3349  -9.1989
    -9.1800  -9.0627  -8.0136  -7.9011  -7.8698  -7.8698  -7.8465  -7.8465
     0.9401   0.9405   1.0780   1.3237   1.3253   1.4938   2.3065   2.4015
     2.4309   2.4309   3.9546   3.9546   4.7124   4.7124   4.8744   5.4031
     5.4031   5.4128   5.4128   5.6584   5.6584   5.7906   5.8199   6.5340
     6.5340   6.6992   6.9291   6.9390   7.0817   7.0817   7.1049   7.1049
     8.0124   8.0124   8.0154   8.0179   8.8733   8.8751   9.6063   9.6063
    12.2216  12.2216  13.1536  13.1568  13.1906  13.1906  13.4826  14.0194
    14.0194  14.6077  14.6453  14.6508  15.3663  16.4506

          k = 0.0000 0.0000 0.1133 ( 31567 PWs)   bands (ev):

   -66.3784 -66.3780 -66.3768 -66.3765 -30.7495 -30.7444 -30.7146 -30.7146
   -30.7114 -30.7114 -30.6932 -30.6891 -30.6297 -30.6297 -30.6272 -30.6272
   -20.5395 -20.5395 -20.5395 -20.5394 -20.5195 -20.5192 -20.5188 -20.5188
   -20.5187 -20.5187 -20.5176 -20.5176 -20.5176 -20.5176 -20.5142 -20.5139
   -20.5112 -20.5111 -20.5107 -20.5107 -20.5094 -20.5094 -20.5084 -20.5084
   -20.5042 -20.5042 -20.5033 -20.5033 -10.1163  -9.8328  -9.2570  -9.1977
    -9.1813  -9.0170  -8.1170  -8.0156  -7.8682  -7.8682  -7.8481  -7.8481
     0.9401   0.9404   1.2108   1.3248   1.4965   1.6936   2.3127   2.3950
     2.5006   2.5006   3.7936   3.7936   4.6290   4.7256   4.7256   5.3072
     5.3072   5.4504   5.4504   5.4538   5.7830   5.7830   5.8315   6.5580
     6.5580   6.7145   6.7521   6.9136   7.0837   7.0837   7.1037   7.1037
     7.9478   7.9478   8.0170   8.0180   8.8735   8.8750   9.8157   9.8157
    12.0692  12.0692  13.1537  13.1566  13.2121  13.2121  13.7921  13.9268
    13.9268  14.6457  14.6504  14.8019  15.7768  16.1512

          k = 0.0000 0.0000 0.2266 ( 31559 PWs)   bands (ev):

   -66.3783 -66.3781 -66.3768 -66.3765 -30.7377 -30.7328 -30.7139 -30.7139
   -30.7121 -30.7121 -30.7052 -30.7008 -30.6292 -30.6292 -30.6277 -30.6277
   -20.5395 -20.5395 -20.5395 -20.5394 -20.5188 -20.5188 -20.5187 -20.5187
   -20.5184 -20.5181 -20.5176 -20.5176 -20.5176 -20.5176 -20.5153 -20.5151
   -20.5111 -20.5111 -20.5107 -20.5107 -20.5092 -20.5092 -20.5086 -20.5086
   -20.5041 -20.5041 -20.5035 -20.5035 -10.0336  -9.8731  -9.1942  -9.1848
    -9.0361  -8.8729  -8.3802  -8.3020  -7.8640  -7.8640  -7.8524  -7.8524
     0.9402   0.9404   1.2984   1.3226   2.0932   2.3297   2.3772   2.3945
     2.7044   2.7044   3.4207   3.4207   3.9344   4.5338   4.8436   4.8436
     5.2056   5.2056   5.4844   5.4844   5.7187   5.7187   5.9517   6.4203
     6.7562   6.8656   6.8656   6.8712   7.0867   7.0867   7.1053   7.1053
     7.7232   7.7232   8.0181   8.0181   8.8739   8.8748  10.3485  10.3485
    11.6354  11.6354  13.1543  13.1559  13.2990  13.2990  13.7064  13.7064
    14.3904  14.6468  14.6495  15.4340  15.5854  16.8007

          k = 0.0000 0.0000-0.3399 ( 31578 PWs)   bands (ev):

   -66.3782 -66.3782 -66.3767 -66.3766 -30.7215 -30.7215 -30.7168 -30.7168
   -30.7130 -30.7130 -30.7130 -30.7130 -30.6284 -30.6284 -30.6284 -30.6284
   -20.5395 -20.5395 -20.5395 -20.5394 -20.5187 -20.5187 -20.5187 -20.5187
   -20.5176 -20.5176 -20.5176 -20.5176 -20.5169 -20.5169 -20.5166 -20.5166
   -20.5111 -20.5111 -20.5107 -20.5107 -20.5089 -20.5089 -20.5089 -20.5089
   -20.5038 -20.5038 -20.5038 -20.5038  -9.9426  -9.9426  -9.1895  -9.1895
    -8.7161  -8.7161  -8.6248  -8.6248  -7.8582  -7.8582  -7.8582  -7.8582
     0.9403   0.9403   1.3167   1.3167   2.3533   2.3533   2.9952   2.9952
     3.0248   3.0248   3.0248   3.0248   3.4165   3.4166   5.0404   5.0404
     5.0405   5.0405   5.5632   5.5632   5.5632   5.5632   6.1473   6.1473
     6.8136   6.8136   7.0858   7.0858   7.0858   7.0858   7.3434   7.3434
     7.3434   7.3434   8.0182   8.0182   8.8744   8.8744  11.0135  11.0135
    11.0135  11.0135  13.1551  13.1551  13.4711  13.4711  13.4711  13.4711
    14.6482  14.6482  14.9832  14.9832  16.2892  16.2892

          k = 0.0000 0.1667 0.0000 ( 31583 PWs)   bands (ev):

   -66.3783 -66.3778 -66.3770 -66.3765 -30.7540 -30.7492 -30.7104 -30.7092
   -30.7056 -30.7051 -30.6874 -30.6855 -30.6357 -30.6353 -30.6326 -30.6325
   -20.5395 -20.5395 -20.5395 -20.5394 -20.5200 -20.5197 -20.5187 -20.5186
   -20.5186 -20.5186 -20.5177 -20.5177 -20.5176 -20.5176 -20.5138 -20.5135
   -20.5113 -20.5113 -20.5109 -20.5108 -20.5091 -20.5088 -20.5080 -20.5078
   -20.5047 -20.5045 -20.5036 -20.5035 -10.0623  -9.7127  -9.3535  -9.1258
    -9.1068  -9.0399  -8.0549  -8.0204  -7.9808  -7.9648  -7.9579  -7.9076
     1.1332   1.1993   1.2003   1.3069   1.5937   1.7096   2.4566   2.4995
     2.5385   2.5754   3.8951   3.9219   4.4060   4.4856   4.8529   5.0976
     5.1456   5.2183   5.2963   5.6405   5.6665   5.8385   6.1788   6.3740
     6.3997   6.4012   6.4395   6.6875   6.7768   6.9200   7.0082   7.0553
     7.9136   7.9333   7.9758   7.9971   9.5018   9.5385   9.8836   9.9778
    12.2616  12.2969  12.8946  12.9505  13.1402  13.2757  13.7506  13.8433
    13.9004  14.8215  14.9136  14.9175  15.2974  16.7752

          k = 0.0000 0.1667 0.1133 ( 31558 PWs)   bands (ev):

   -66.3783 -66.3779 -66.3769 -66.3766 -30.7498 -30.7450 -30.7104 -30.7089
   -30.7058 -30.7053 -30.6915 -30.6898 -30.6355 -30.6351 -30.6328 -30.6327
   -20.5395 -20.5395 -20.5395 -20.5394 -20.5197 -20.5193 -20.5187 -20.5186
   -20.5186 -20.5185 -20.5177 -20.5177 -20.5176 -20.5176 -20.5142 -20.5140
   -20.5113 -20.5113 -20.5109 -20.5108 -20.5090 -20.5088 -20.5081 -20.5079
   -20.5046 -20.5045 -20.5037 -20.5036 -10.0257  -9.7258  -9.2756  -9.1246
    -9.1080  -8.9970  -8.1339  -8.0395  -8.0187  -7.9793  -7.9732  -7.9595
     1.1993   1.2002   1.3358   1.5159   1.5928   1.7989   2.4748   2.5590
     2.5821   2.5947   3.7671   3.8045   4.4133   4.4993   4.6062   5.0841
     5.0846   5.1781   5.2022   5.4612   5.6915   5.7598   6.2042   6.3891
     6.3930   6.4395   6.4571   6.7060   6.7898   6.9265   7.0076   7.0600
     7.8813   7.9116   7.9391   7.9487   9.5105   9.5353  10.0565  10.1387
    12.1214  12.1596  12.9028  12.9743  13.1344  13.2828  13.7453  13.8113
    14.0685  14.9131  14.9174  14.9912  15.7083  16.4422

          k = 0.0000 0.1667 0.2266 ( 31536 PWs)   bands (ev):

   -66.3782 -66.3780 -66.3769 -66.3766 -30.7382 -30.7333 -30.7119 -30.7083
   -30.7065 -30.7058 -30.7015 -30.7013 -30.6349 -30.6346 -30.6334 -30.6332
   -20.5395 -20.5395 -20.5395 -20.5394 -20.5190 -20.5187 -20.5186 -20.5186
   -20.5183 -20.5181 -20.5177 -20.5176 -20.5176 -20.5175 -20.5153 -20.5151
   -20.5113 -20.5113 -20.5109 -20.5108 -20.5089 -20.5086 -20.5083 -20.5081
   -20.5044 -20.5043 -20.5039 -20.5038  -9.9364  -9.7669  -9.1211  -9.1116
    -9.0549  -8.8599  -8.3917  -8.3109  -8.0138  -7.9969  -7.9751  -7.9637
     1.1995   1.2000   1.5451   1.5894   2.0976   2.3623   2.4996   2.5522
     2.7864   2.7999   3.4275   3.4739   3.9243   4.5304   4.5440   4.6284
     4.9704   5.0026   5.1795   5.2044   5.4843   5.5122   6.2881   6.3859
     6.4123   6.5573   6.8062   6.8129   6.8904   6.9402   7.0260   7.0820
     7.6701   7.7016   7.9320   7.9372   9.5212   9.5313  10.5165  10.5822
    11.7099  11.7547  12.9569  13.0574  13.1190  13.3141  13.5136  13.6066
    14.6952  14.9135  14.9165  15.5808  15.8746  16.7261

          k = 0.0000 0.1667-0.3399 ( 31560 PWs)   bands (ev):

   -66.3781 -66.3781 -66.3768 -66.3767 -30.7229 -30.7228 -30.7175 -30.7175
   -30.7074 -30.7074 -30.7058 -30.7058 -30.6342 -30.6342 -30.6340 -30.6340
   -20.5395 -20.5395 -20.5395 -20.5395 -20.5187 -20.5187 -20.5187 -20.5187
   -20.5177 -20.5177 -20.5177 -20.5177 -20.5168 -20.5168 -20.5166 -20.5166
   -20.5113 -20.5113 -20.5109 -20.5109 -20.5086 -20.5086 -20.5083 -20.5083
   -20.5042 -20.5042 -20.5040 -20.5040  -9.8393  -9.8393  -9.1163  -9.1163
    -8.7336  -8.7336  -8.6208  -8.6207  -8.0066  -8.0066  -7.9694  -7.9694
     1.1997   1.1997   1.5798   1.5798   2.5241   2.5241   2.9918   2.9918
     3.0249   3.0249   3.0963   3.0963   3.4602   3.4602   4.7712   4.7712
     4.8364   4.8364   5.2604   5.2604   5.2863   5.2863   6.3780   6.3780
     6.4431   6.4431   6.9272   6.9272   7.0040   7.0040   7.3023   7.3023
     7.3440   7.3440   7.9342   7.9342   9.5273   9.5273  11.1226  11.1226
    11.1768  11.1768  13.0425  13.0425  13.2553  13.2553  13.4197  13.4197
    14.9148  14.9148  15.2854  15.2854  16.4337  16.4337

          k = 0.0000 0.3333 0.0000 ( 31566 PWs)   bands (ev):

   -66.3780 -66.3776 -66.3773 -66.3768 -30.7538 -30.7507 -30.7001 -30.6937
   -30.6903 -30.6893 -30.6878 -30.6818 -30.6513 -30.6496 -30.6482 -30.6477
   -20.5395 -20.5395 -20.5394 -20.5394 -20.5202 -20.5199 -20.5185 -20.5184
   -20.5184 -20.5182 -20.5178 -20.5178 -20.5177 -20.5176 -20.5138 -20.5137
   -20.5116 -20.5115 -20.5112 -20.5112 -20.5082 -20.5076 -20.5072 -20.5067
   -20.5056 -20.5052 -20.5046 -20.5043  -9.8336  -9.4212  -9.4073  -8.9538
    -8.9178  -8.8981  -8.4469  -8.3793  -8.2624  -8.2407  -7.9728  -7.9254
     1.1872   1.2685   1.8940   1.9096   2.2624   2.3203   2.6808   2.7190
     3.0399   3.1147   3.6224   3.6360   3.9228   4.0170   4.3431   4.3695
     4.8077   4.8226   5.1080   5.2386   5.2504   5.5741   5.7327   5.8770
     6.1664   6.2389   6.2416   6.4837   6.8255   7.0688   7.1518   7.3224
     7.6756   7.6861   7.7893   7.8995  10.5044  10.5639  10.6275  10.8312
    12.1635  12.1907  12.6307  12.6320  12.7105  12.7634  13.4111  13.5306
    14.2630  15.0875  15.4692  16.0121  16.0338  17.3989

          k = 0.0000 0.3333 0.1133 ( 31559 PWs)   bands (ev):

   -66.3780 -66.3776 -66.3772 -66.3768 -30.7496 -30.7465 -30.7016 -30.6935
   -30.6920 -30.6905 -30.6895 -30.6844 -30.6511 -30.6496 -30.6484 -30.6479
   -20.5395 -20.5395 -20.5394 -20.5394 -20.5198 -20.5196 -20.5185 -20.5184
   -20.5184 -20.5181 -20.5178 -20.5178 -20.5177 -20.5176 -20.5142 -20.5141
   -20.5116 -20.5115 -20.5112 -20.5112 -20.5081 -20.5076 -20.5072 -20.5068
   -20.5055 -20.5052 -20.5047 -20.5043  -9.7868  -9.4208  -9.3456  -8.9211
    -8.9165  -8.8993  -8.4662  -8.3753  -8.2610  -8.2421  -8.0713  -8.0262
     1.4281   1.5074   1.8951   1.9087   2.2616   2.3331   2.7549   2.7773
     3.0461   3.1096   3.5805   3.6211   3.9448   4.0463   4.3533   4.3808
     4.5514   4.6521   4.8686   5.2273   5.2322   5.3955   5.4905   5.6753
     6.3060   6.3440   6.5432   6.5605   6.8358   7.0603   7.1594   7.3121
     7.6656   7.6790   7.7414   7.8436  10.5366  10.5973  10.7009  10.9099
    12.1571  12.2155  12.5282  12.5890  12.6310  12.7680  13.3011  13.4289
    14.6280  15.4758  15.6012  16.0138  16.0320  17.0638

          k = 0.0000 0.3333 0.2266 ( 31541 PWs)   bands (ev):

   -66.3779 -66.3777 -66.3771 -66.3769 -30.7382 -30.7349 -30.7089 -30.7034
   -30.6929 -30.6911 -30.6898 -30.6884 -30.6505 -30.6494 -30.6489 -30.6483
   -20.5395 -20.5395 -20.5395 -20.5394 -20.5191 -20.5186 -20.5185 -20.5184
   -20.5184 -20.5179 -20.5179 -20.5178 -20.5176 -20.5174 -20.5153 -20.5152
   -20.5116 -20.5115 -20.5112 -20.5112 -20.5079 -20.5074 -20.5074 -20.5069
   -20.5054 -20.5050 -20.5049 -20.5045  -9.6718  -9.4652  -9.1331  -8.9130
    -8.9027  -8.8102  -8.5683  -8.3621  -8.3167  -8.2569  -8.2461  -8.2282
     1.8981   1.9060   2.0239   2.1116   2.2552   2.4564   2.9341   2.9851
     3.0713   3.0965   3.3912   3.4857   3.9010   4.0822   4.1565   4.3093
     4.4213   4.4214   4.5832   4.7170   4.9722   5.1119   5.2440   5.2529
     6.6899   6.7201   6.7921   6.8559   6.8770   7.0398   7.1954   7.2723
     7.5289   7.6060   7.6987   7.7272  10.5782  10.6018  11.0075  11.1855
    11.9412  12.0789  12.4514  12.4758  12.6260  12.7998  13.0410  13.1878
    15.4086  15.9918  16.0260  16.0272  16.4918  16.5571

          k = 0.0000 0.3333-0.3399 ( 31492 PWs)   bands (ev):

   -66.3778 -66.3778 -66.3770 -66.3770 -30.7229 -30.7228 -30.7191 -30.7191
   -30.6920 -30.6920 -30.6898 -30.6898 -30.6497 -30.6497 -30.6489 -30.6489
   -20.5395 -20.5395 -20.5395 -20.5395 -20.5186 -20.5186 -20.5184 -20.5184
   -20.5180 -20.5180 -20.5178 -20.5178 -20.5166 -20.5166 -20.5166 -20.5166
   -20.5115 -20.5115 -20.5112 -20.5112 -20.5077 -20.5077 -20.5072 -20.5072
   -20.5051 -20.5051 -20.5048 -20.5048  -9.5498  -9.5498  -8.9092  -8.9092
    -8.8322  -8.8321  -8.5994  -8.5993  -8.3296  -8.3296  -8.2516  -8.2515
     1.9022   1.9022   2.2283   2.2283   2.9296   2.9296   3.0191   3.0191
     3.1115   3.1115   3.2402   3.2402   3.5197   3.5197   4.2959   4.2959
     4.3627   4.3627   4.5910   4.5910   4.6906   4.6906   5.2376   5.2376
     6.7958   6.7958   6.9874   6.9874   7.1363   7.1364   7.2285   7.2285
     7.3533   7.3534   7.7005   7.7005  10.5962  10.5962  11.4681  11.4681
    11.6280  11.6280  12.5166  12.5166  12.7242  12.7242  12.9585  12.9585
    16.0057  16.0057  16.0450  16.0450  16.8064  16.8064

          k = 0.0000-0.5000 0.0000 ( 31534 PWs)   bands (ev):

   -66.3776 -66.3776 -66.3772 -66.3772 -30.7525 -30.7525 -30.6920 -30.6920
   -30.6726 -30.6726 -30.6693 -30.6693 -30.6684 -30.6684 -30.6678 -30.6678
   -20.5395 -20.5395 -20.5394 -20.5394 -20.5201 -20.5201 -20.5182 -20.5182
   -20.5182 -20.5182 -20.5180 -20.5180 -20.5177 -20.5177 -20.5138 -20.5138
   -20.5116 -20.5116 -20.5114 -20.5114 -20.5069 -20.5069 -20.5063 -20.5063
   -20.5059 -20.5059 -20.5054 -20.5054  -9.5788  -9.5788  -8.9553  -8.9553
    -8.7452  -8.7452  -8.6060  -8.6060  -8.5841  -8.5840  -7.9497  -7.9497
     1.2269   1.2269   2.6712   2.6712   2.8067   2.8067   2.8734   2.8734
     3.0773   3.0774   3.6614   3.6614   3.7065   3.7065   3.9690   3.9690
     4.0609   4.0609   4.7916   4.7916   5.3020   5.3020   5.8324   5.8324
     6.0859   6.0859   6.2640   6.2640   7.3390   7.3390   7.3434   7.3434
     7.4465   7.4465   7.6788   7.6788  11.3796  11.3796  11.4388  11.4388
    11.7417  11.7417  11.8389  11.8389  12.9341  12.9341  13.0725  13.0725
    14.7366  14.7366  16.4156  16.4156  17.5590  17.5590

          k = 0.0000-0.5000 0.1133 ( 31540 PWs)   bands (ev):

   -66.3776 -66.3776 -66.3772 -66.3772 -30.7483 -30.7483 -30.6955 -30.6955
   -30.6723 -30.6723 -30.6695 -30.6695 -30.6685 -30.6685 -30.6684 -30.6684
   -20.5395 -20.5395 -20.5394 -20.5394 -20.5198 -20.5198 -20.5182 -20.5182
   -20.5181 -20.5181 -20.5180 -20.5180 -20.5177 -20.5177 -20.5142 -20.5142
   -20.5115 -20.5115 -20.5115 -20.5115 -20.5068 -20.5068 -20.5063 -20.5063
   -20.5060 -20.5060 -20.5054 -20.5054  -9.5142  -9.5142  -8.9700  -8.9700
    -8.7304  -8.7304  -8.6047  -8.6047  -8.5853  -8.5853  -8.0510  -8.0510
     1.4702   1.4702   2.6918   2.6918   2.8435   2.8435   2.8670   2.8670
     3.0645   3.0645   3.7089   3.7089   3.7455   3.7456   3.9653   3.9653
     4.0617   4.0617   4.5482   4.5482   5.0076   5.0076   5.5626   5.5626
     6.3777   6.3777   6.4136   6.4136   7.3291   7.3291   7.3338   7.3338
     7.4315   7.4315   7.6450   7.6451  11.4334  11.4334  11.4829  11.4829
    11.7554  11.7554  11.8647  11.8647  12.8037  12.8037  12.9485  12.9485
    15.1297  15.1297  16.4860  16.4860  17.4426  17.4426

          k = 0.0000-0.5000 0.2266 ( 31524 PWs)   bands (ev):

   -66.3775 -66.3775 -66.3773 -66.3773 -30.7368 -30.7368 -30.7060 -30.7060
   -30.6717 -30.6717 -30.6701 -30.6701 -30.6692 -30.6692 -30.6689 -30.6689
   -20.5395 -20.5395 -20.5395 -20.5395 -20.5189 -20.5189 -20.5182 -20.5182
   -20.5181 -20.5181 -20.5181 -20.5181 -20.5175 -20.5175 -20.5152 -20.5152
   -20.5115 -20.5115 -20.5115 -20.5115 -20.5067 -20.5067 -20.5062 -20.5062
   -20.5061 -20.5061 -20.5056 -20.5056  -9.3444  -9.3443  -9.0241  -9.0241
    -8.6754  -8.6754  -8.6014  -8.6014  -8.5880  -8.5879  -8.2934  -8.2934
     2.1189   2.1189   2.7412   2.7413   2.8416   2.8416   2.9496   2.9496
     3.0170   3.0170   3.8173   3.8173   3.8700   3.8700   3.8968   3.8968
     4.0799   4.0799   4.1073   4.1073   4.5551   4.5551   4.8652   4.8652
     6.7643   6.7643   6.8129   6.8129   7.2603   7.2603   7.2938   7.2938
     7.4168   7.4168   7.5487   7.5487  11.5547  11.5547  11.5713  11.5713
    11.8344  11.8344  11.9825  11.9825  12.4771  12.4771  12.6346  12.6346
    16.0744  16.0744  16.6940  16.6940  17.1880  17.1881

          k = 0.0000-0.5000-0.3399 ( 31524 PWs)   bands (ev):

   -66.3774 -66.3774 -66.3774 -66.3774 -30.7212 -30.7212 -30.7212 -30.7212
   -30.6709 -30.6709 -30.6709 -30.6709 -30.6693 -30.6693 -30.6693 -30.6693
   -20.5395 -20.5395 -20.5395 -20.5395 -20.5183 -20.5183 -20.5183 -20.5183
   -20.5181 -20.5181 -20.5181 -20.5181 -20.5166 -20.5166 -20.5166 -20.5166
   -20.5115 -20.5115 -20.5115 -20.5115 -20.5065 -20.5065 -20.5064 -20.5064
   -20.5059 -20.5059 -20.5059 -20.5059  -9.1495  -9.1494  -9.1494  -9.1494
    -8.5991  -8.5991  -8.5991  -8.5991  -8.5320  -8.5320  -8.5320  -8.5320
     2.7794   2.7794   2.7794   2.7794   2.8522   2.8522   2.8522   2.8523
     3.2205   3.2205   3.2205   3.2205   3.9756   3.9756   3.9756   3.9756
     4.1749   4.1749   4.1749   4.1749   4.2887   4.2887   4.2887   4.2887
     7.0644   7.0644   7.0644   7.0644   7.1512   7.1512   7.1512   7.1512
     7.4491   7.4491   7.4491   7.4491  11.6092  11.6092  11.6093  11.6093
    12.0864  12.0864  12.0864  12.0864  12.2734  12.2734  12.2734  12.2734
    16.8602  16.8602  16.8602  16.8602  17.2828  17.2828

          k = 0.1667 0.1667 0.0000 ( 31533 PWs)   bands (ev):

   -66.3782 -66.3778 -66.3771 -66.3766 -30.7538 -30.7497 -30.7160 -30.7124
   -30.6970 -30.6886 -30.6864 -30.6841 -30.6515 -30.6490 -30.6289 -30.6259
   -20.5395 -20.5395 -20.5394 -20.5394 -20.5200 -20.5198 -20.5192 -20.5191
   -20.5182 -20.5181 -20.5180 -20.5180 -20.5172 -20.5172 -20.5138 -20.5136
   -20.5113 -20.5113 -20.5110 -20.5109 -20.5095 -20.5083 -20.5079 -20.5069
   -20.5054 -20.5045 -20.5043 -20.5032 -10.0042  -9.6537  -9.3755  -9.1032
    -8.9995  -8.9516  -8.3304  -8.3061  -7.9899  -7.9132  -7.8898  -7.8659
     1.0336   1.0810   1.2445   1.2971   2.1628   2.2045   2.4148   2.6159
     2.7394   2.7491   3.7106   3.7124   4.1599   4.4133   4.6422   4.8281
     5.0541   5.2825   5.3199   5.6078   5.6875   5.8519   6.0963   6.1450
     6.2953   6.3451   6.3946   6.5655   6.6329   6.7903   6.9481   7.1843
     7.7485   7.8091   7.8555   8.0396   9.6249  10.0102  10.0484  10.6571
    12.0565  12.4597  12.5268  12.9920  13.0666  13.1928  13.5087  13.8274
    14.0191  14.9993  15.0269  15.2152  15.3661  17.2231

          k = 0.1667 0.1667 0.1133 ( 31551 PWs)   bands (ev):

   -66.3782 -66.3778 -66.3770 -66.3767 -30.7495 -30.7454 -30.7158 -30.7126
   -30.6987 -30.6906 -30.6888 -30.6865 -30.6514 -30.6492 -30.6287 -30.6261
   -20.5395 -20.5395 -20.5395 -20.5394 -20.5196 -20.5194 -20.5192 -20.5191
   -20.5182 -20.5180 -20.5180 -20.5180 -20.5172 -20.5172 -20.5142 -20.5140
   -20.5113 -20.5113 -20.5110 -20.5109 -20.5094 -20.5084 -20.5078 -20.5070
   -20.5054 -20.5045 -20.5042 -20.5033  -9.9663  -9.6662  -9.2984  -9.0816
    -9.0016  -8.9302  -8.3458  -8.3036  -8.0873  -8.0193  -7.8883  -7.8675
     1.0646   1.0810   1.4417   1.5524   2.1624   2.2220   2.4820   2.6330
     2.7341   2.8042   3.6479   3.6913   4.0429   4.4283   4.5768   4.6834
     4.8380   5.2387   5.2893   5.4730   5.5460   5.7627   6.1731   6.2866
     6.2869   6.3716   6.4795   6.5562   6.6586   6.8231   6.8594   7.1798
     7.7367   7.8031   7.8248   7.9610   9.8309  10.0145  10.0522  10.7614
    11.9942  12.3948  12.4179  12.9725  13.0778  13.2084  13.4186  13.9255
    14.0998  15.0163  15.1681  15.3972  15.6248  16.8003

          k = 0.1667 0.1667 0.2266 ( 31540 PWs)   bands (ev):

   -66.3781 -66.3779 -66.3770 -66.3767 -30.7379 -30.7338 -30.7151 -30.7133
   -30.7071 -30.7021 -30.6894 -30.6893 -30.6510 -30.6497 -30.6281 -30.6266
   -20.5395 -20.5395 -20.5395 -20.5394 -20.5191 -20.5191 -20.5187 -20.5186
   -20.5182 -20.5181 -20.5178 -20.5178 -20.5172 -20.5172 -20.5153 -20.5151
   -20.5113 -20.5113 -20.5110 -20.5110 -20.5092 -20.5086 -20.5076 -20.5072
   -20.5052 -20.5047 -20.5040 -20.5035  -9.8745  -9.7056  -9.0810  -9.0422
    -9.0080  -8.8314  -8.4619  -8.3218  -8.2959  -8.2201  -7.8839  -7.8719
     1.0768   1.0806   2.0167   2.1106   2.1570   2.4351   2.6617   2.6649
     2.7366   2.9917   3.4057   3.4481   3.9150   4.1025   4.3983   4.4831
     4.6892   4.8596   5.0400   5.1627   5.3573   5.6620   6.2596   6.3562
     6.3676   6.4916   6.6159   6.6204   6.8430   6.8450   7.0008   7.1597
     7.5960   7.6838   7.8061   7.8283  10.0231  10.0322  10.3789  11.0693
    11.6364  12.0243  12.4803  12.8827  13.0961  13.2202  13.3085  13.7045
    14.5792  14.9755  15.5064  15.7818  16.2685  16.6241

          k = 0.1667 0.1667-0.3399 ( 31512 PWs)   bands (ev):

   -66.3780 -66.3780 -66.3768 -66.3768 -30.7221 -30.7221 -30.7180 -30.7180
   -30.7142 -30.7142 -30.6898 -30.6898 -30.6504 -30.6504 -30.6274 -30.6274
   -20.5395 -20.5395 -20.5395 -20.5395 -20.5191 -20.5191 -20.5183 -20.5183
   -20.5182 -20.5182 -20.5173 -20.5173 -20.5167 -20.5167 -20.5166 -20.5166
   -20.5113 -20.5113 -20.5110 -20.5110 -20.5089 -20.5089 -20.5074 -20.5074
   -20.5050 -20.5050 -20.5038 -20.5038  -9.7767  -9.7767  -9.0199  -9.0199
    -8.7670  -8.7670  -8.6129  -8.6129  -8.2793  -8.2793  -7.8780  -7.8780
     1.0797   1.0797   2.1382   2.1382   2.6835   2.6835   2.9867   2.9867
     3.0122   3.0122   3.1276   3.1276   3.4842   3.4843   4.3452   4.3453
     4.6440   4.6440   5.0495   5.0495   5.4483   5.4483   6.3463   6.3463
     6.4166   6.4166   6.6162   6.6162   7.0644   7.0644   7.2954   7.2954
     7.3113   7.3113   7.8120   7.8120  10.0305  10.0305  11.0334  11.0334
    11.5304  11.5304  12.6784  12.6784  13.1291  13.1291  13.4702  13.4702
    14.8628  14.8628  15.8020  15.8020  16.6396  16.6396

          k = 0.1667 0.3333 0.0000 ( 31560 PWs)   bands (ev):

   -66.3780 -66.3775 -66.3773 -66.3769 -30.7533 -30.7509 -30.7119 -30.7074
   -30.6897 -30.6895 -30.6714 -30.6707 -30.6683 -30.6669 -30.6336 -30.6308
   -20.5395 -20.5395 -20.5394 -20.5394 -20.5201 -20.5200 -20.5193 -20.5192
   -20.5187 -20.5185 -20.5175 -20.5175 -20.5170 -20.5169 -20.5138 -20.5137
   -20.5114 -20.5114 -20.5112 -20.5112 -20.5090 -20.5079 -20.5066 -20.5065
   -20.5057 -20.5056 -20.5045 -20.5035  -9.8412  -9.4686  -9.4562  -9.0466
    -8.7548  -8.7170  -8.6918  -8.6582  -8.0304  -8.0225  -7.9638  -7.9283
     1.1574   1.2689   1.3471   1.4186   2.4614   2.7298   2.8102   2.9485
     3.0528   3.2455   3.2580   3.6359   3.7283   4.0821   4.3624   4.7472
     4.8380   4.8922   5.0893   5.5452   5.5785   5.6202   5.6683   5.8051
     6.1246   6.1734   6.4017   6.5329   6.6567   6.7892   6.8474   7.4343
     7.4773   7.5729   7.5730   7.9995   9.9393  10.9329  10.9721  11.4459
    11.5210  12.3980  12.5829  12.5871  12.8196  13.0256  13.1031  13.8619
    14.0770  14.9627  15.5863  15.6369  16.3837  17.5185

          k = 0.1667 0.3333 0.1133 ( 31551 PWs)   bands (ev):

   -66.3779 -66.3775 -66.3773 -66.3769 -30.7490 -30.7467 -30.7118 -30.7076
   -30.6935 -30.6931 -30.6719 -30.6709 -30.6685 -30.6671 -30.6334 -30.6309
   -20.5395 -20.5395 -20.5394 -20.5394 -20.5198 -20.5197 -20.5193 -20.5192
   -20.5187 -20.5184 -20.5175 -20.5175 -20.5170 -20.5170 -20.5142 -20.5141
   -20.5114 -20.5114 -20.5112 -20.5112 -20.5089 -20.5080 -20.5066 -20.5065
   -20.5057 -20.5057 -20.5044 -20.5036  -9.7978  -9.4798  -9.3845  -9.0146
    -8.7651  -8.7205  -8.6870  -8.6510  -8.0858  -8.0425  -8.0285  -7.9957
     1.2880   1.3468   1.4780   1.5716   2.5318   2.7546   2.8432   2.9431
     3.0483   3.2408   3.2580   3.6398   3.7764   3.9475   4.4100   4.5175
     4.7686   4.8058   4.8784   5.2820   5.5280   5.5541   5.6288   5.7301
     6.2587   6.3966   6.4241   6.5645   6.6986   6.7575   6.8793   7.4300
     7.4698   7.5407   7.5485   7.9227  10.1109  10.9348  10.9720  11.5151
    11.5874  12.2463  12.5622  12.5852  12.7826  12.9175  13.0525  13.7642
    14.3762  15.3473  15.6130  15.7280  16.4284  17.3111

          k = 0.1667 0.3333 0.2266 ( 31552 PWs)   bands (ev):

   -66.3779 -66.3776 -66.3772 -66.3770 -30.7375 -30.7351 -30.7122 -30.7082
   -30.7039 -30.7036 -30.6722 -30.6714 -30.6686 -30.6676 -30.6329 -30.6315
   -20.5395 -20.5395 -20.5395 -20.5394 -20.5194 -20.5193 -20.5191 -20.5188
   -20.5185 -20.5180 -20.5175 -20.5173 -20.5170 -20.5170 -20.5153 -20.5152
   -20.5114 -20.5114 -20.5112 -20.5112 -20.5088 -20.5082 -20.5064 -20.5063
   -20.5059 -20.5059 -20.5043 -20.5038  -9.6936  -9.5167  -9.1890  -8.9130
    -8.8095  -8.7345  -8.6644  -8.6220  -8.3230  -8.2947  -8.0241  -8.0103
     1.3359   1.3458   2.1050   2.2165   2.7337   2.8267   2.8810   2.9717
     3.0279   3.2178   3.2594   3.4473   3.8961   3.9284   3.9404   4.1877
     4.5625   4.6400   4.7964   4.8230   4.8906   5.3556   5.6312   5.6627
     6.4979   6.6191   6.6595   6.6865   6.8017   6.8672   7.0180   7.3777
     7.4183   7.4573   7.5044   7.7062  10.5606  10.9394  10.9758  11.6399
    11.7896  11.9083  12.4311  12.4733  12.6361  12.7260  13.0975  13.5308
    14.9450  15.5281  16.1456  16.2837  16.6378  16.9348

          k = 0.1667 0.3333-0.3399 ( 31552 PWs)   bands (ev):

   -66.3777 -66.3777 -66.3771 -66.3771 -30.7222 -30.7222 -30.7194 -30.7194
   -30.7085 -30.7085 -30.6720 -30.6720 -30.6682 -30.6682 -30.6322 -30.6322
   -20.5395 -20.5395 -20.5395 -20.5395 -20.5193 -20.5193 -20.5188 -20.5188
   -20.5177 -20.5177 -20.5171 -20.5171 -20.5166 -20.5166 -20.5166 -20.5166
   -20.5114 -20.5114 -20.5112 -20.5112 -20.5085 -20.5085 -20.5062 -20.5062
   -20.5061 -20.5061 -20.5040 -20.5040  -9.5877  -9.5876  -8.9504  -8.9496
    -8.7845  -8.7827  -8.5655  -8.5618  -8.5309  -8.5278  -8.0178  -8.0175
     1.3430   1.3438   2.7874   2.7922   2.8769   2.8846   2.9868   3.0209
     3.0977   3.1435   3.2647   3.2668   3.3675   3.3808   4.1592   4.1664
     4.2428   4.2451   4.6813   4.7999   4.9733   5.0840   5.6352   5.6423
     6.5907   6.6291   6.6715   6.7110   7.1568   7.1671   7.1856   7.2418
     7.2547   7.2960   7.5152   7.5323  10.9201  10.9413  11.1759  11.2157
    12.0759  12.1092  12.1265  12.1280  12.6155  12.6805  13.2578  13.2997
    15.3248  15.3426  16.5571  16.5704  17.2226  17.2517

          k = 0.1667-0.5000 0.0000 ( 31548 PWs)   bands (ev):

   -66.3776 -66.3776 -66.3772 -66.3772 -30.7523 -30.7523 -30.6994 -30.6994
   -30.6921 -30.6921 -30.6846 -30.6846 -30.6483 -30.6483 -30.6458 -30.6458
   -20.5395 -20.5395 -20.5394 -20.5394 -20.5201 -20.5201 -20.5192 -20.5192
   -20.5189 -20.5189 -20.5173 -20.5173 -20.5169 -20.5169 -20.5138 -20.5138
   -20.5114 -20.5114 -20.5113 -20.5113 -20.5079 -20.5079 -20.5069 -20.5069
   -20.5053 -20.5053 -20.5044 -20.5044  -9.6253  -9.6253  -9.1573  -9.1573
    -8.9194  -8.9194  -8.3475  -8.3475  -8.3413  -8.3413  -7.9492  -7.9492
     1.2283   1.2283   2.0377   2.0377   2.0554   2.0554   2.6668   2.6668
     3.6738   3.6738   3.8963   3.8963   3.9919   3.9919   4.1772   4.1772
     4.6294   4.6294   4.9401   4.9401   5.3262   5.3262   5.7086   5.7086
     6.2190   6.2190   6.3745   6.3745   7.0387   7.0387   7.0515   7.0515
     7.1657   7.1657   7.8501   7.8501  10.6445  10.6445  11.8373  11.8373
    11.8823  11.8823  12.3358  12.3358  12.6173  12.6173  13.4688  13.4688
    14.5457  14.5457  16.4722  16.4722  16.8206  16.8206

          k = 0.1667-0.5000 0.1133 ( 31546 PWs)   bands (ev):

   -66.3776 -66.3776 -66.3772 -66.3772 -30.7481 -30.7481 -30.7004 -30.7004
   -30.6923 -30.6923 -30.6876 -30.6876 -30.6482 -30.6482 -30.6460 -30.6460
   -20.5395 -20.5395 -20.5394 -20.5394 -20.5198 -20.5198 -20.5192 -20.5192
   -20.5188 -20.5188 -20.5172 -20.5172 -20.5169 -20.5169 -20.5141 -20.5141
   -20.5114 -20.5114 -20.5113 -20.5113 -20.5079 -20.5079 -20.5070 -20.5070
   -20.5053 -20.5053 -20.5044 -20.5044  -9.5684  -9.5684  -9.1678  -9.1677
    -8.8975  -8.8975  -8.3521  -8.3521  -8.3416  -8.3416  -8.0493  -8.0493
     1.4658   1.4658   2.0369   2.0369   2.0647   2.0647   2.7380   2.7380
     3.6326   3.6326   3.9157   3.9157   4.0161   4.0161   4.1266   4.1266
     4.6359   4.6359   4.7535   4.7535   5.0553   5.0553   5.6339   5.6339
     6.2651   6.2652   6.5623   6.5623   7.0321   7.0321   7.0522   7.0523
     7.1650   7.1650   7.7902   7.7902  10.7570  10.7570  11.8350  11.8350
    11.8809  11.8809  12.3832  12.3832  12.4753  12.4753  13.3568  13.3568
    14.9002  14.9002  16.5371  16.5371  16.7975  16.7975

          k = 0.1667-0.5000 0.2266 ( 31554 PWs)   bands (ev):

   -66.3775 -66.3775 -66.3773 -66.3773 -30.7366 -30.7366 -30.7070 -30.7070
   -30.6927 -30.6927 -30.6921 -30.6921 -30.6478 -30.6478 -30.6465 -30.6465
   -20.5395 -20.5395 -20.5395 -20.5395 -20.5194 -20.5194 -20.5192 -20.5192
   -20.5182 -20.5182 -20.5172 -20.5172 -20.5169 -20.5169 -20.5152 -20.5152
   -20.5114 -20.5114 -20.5114 -20.5114 -20.5077 -20.5077 -20.5072 -20.5072
   -20.5051 -20.5051 -20.5046 -20.5046  -9.4277  -9.4277  -9.2046  -9.2046
    -8.8152  -8.8151  -8.4085  -8.4085  -8.3358  -8.3357  -8.2560  -8.2559
     1.9500   1.9500   2.0325   2.0325   2.2464   2.2464   2.9510   2.9510
     3.4334   3.4334   3.9154   3.9154   3.9797   3.9797   4.1760   4.1760
     4.2808   4.2808   4.6644   4.6644   4.7096   4.7096   5.1209   5.1209
     6.6468   6.6468   6.8304   6.8304   6.9996   6.9996   7.0647   7.0647
     7.1781   7.1781   7.6097   7.6097  11.0761  11.0761  11.8186  11.8186
    11.8682  11.8683  12.1218  12.1218  12.5279  12.5279  13.0824  13.0824
    15.6754  15.6754  16.5710  16.5710  16.8839  16.8839

          k = 0.1667-0.5000-0.3399 ( 31544 PWs)   bands (ev):

   -66.3774 -66.3774 -66.3774 -66.3774 -30.7212 -30.7211 -30.7211 -30.7211
   -30.6931 -30.6931 -30.6931 -30.6931 -30.6472 -30.6472 -30.6472 -30.6472
   -20.5395 -20.5395 -20.5395 -20.5395 -20.5192 -20.5192 -20.5192 -20.5192
   -20.5173 -20.5173 -20.5173 -20.5173 -20.5165 -20.5165 -20.5165 -20.5165
   -20.5114 -20.5114 -20.5114 -20.5114 -20.5075 -20.5075 -20.5075 -20.5075
   -20.5049 -20.5049 -20.5049 -20.5049  -9.2870  -9.2870  -9.2867  -9.2867
    -8.6331  -8.6330  -8.6321  -8.6321  -8.3220  -8.3220  -8.3213  -8.3213
     2.0203   2.0203   2.0214   2.0214   2.9842   2.9842   2.9876   2.9876
     3.3631   3.3631   3.3894   3.3894   3.9273   3.9273   4.0030   4.0030
     4.4680   4.4680   4.5093   4.5093   4.7597   4.7597   4.7612   4.7612
     6.8885   6.8885   6.9087   6.9087   6.9963   6.9963   7.0594   7.0594
     7.3212   7.3213   7.3543   7.3543  11.5031  11.5031  11.5538  11.5538
    11.8509  11.8509  11.9467  11.9467  12.7528  12.7528  12.7925  12.7925
    16.2727  16.2727  16.3145  16.3145  17.2076  17.2076

          k = 0.3333 0.3333 0.0000 ( 31608 PWs)   bands (ev):

   -66.3778 -66.3774 -66.3774 -66.3770 -30.7522 -30.7513 -30.7185 -30.7148
   -30.7001 -30.6932 -30.6882 -30.6836 -30.6472 -30.6447 -30.6267 -30.6238
   -20.5395 -20.5395 -20.5394 -20.5394 -20.5202 -20.5199 -20.5199 -20.5199
   -20.5195 -20.5191 -20.5169 -20.5168 -20.5165 -20.5164 -20.5137 -20.5137
   -20.5112 -20.5112 -20.5111 -20.5111 -20.5095 -20.5083 -20.5078 -20.5069
   -20.5053 -20.5044 -20.5041 -20.5032  -9.8181  -9.5675  -9.4893  -9.1109
    -9.0668  -8.9069  -8.3651  -8.3643  -7.9661  -7.9370  -7.9298  -7.9046
     1.0412   1.0806   1.2595   1.2941   2.0285   2.0449   2.3610   2.6612
     3.5811   3.6749   3.9480   3.9503   4.0551   4.5862   4.6337   4.7952
     4.8782   4.9689   5.2119   5.4946   5.5277   5.5396   5.7895   5.9121
     6.1344   6.2003   6.2546   6.3023   6.5531   6.6248   6.9016   6.9656
     6.9802   7.1425   7.8420   8.0444   9.6584  10.6449  11.5898  11.6217
    12.3100  12.3127  12.4238  12.4392  12.6587  13.0806  13.4901  13.9335
    14.0189  14.5992  15.4167  16.0227  16.8697  17.0099

          k = 0.3333 0.3333 0.1133 ( 31572 PWs)   bands (ev):

   -66.3778 -66.3774 -66.3774 -66.3770 -30.7480 -30.7470 -30.7182 -30.7150
   -30.7009 -30.6934 -30.6925 -30.6870 -30.6471 -30.6449 -30.6265 -30.6240
   -20.5395 -20.5395 -20.5394 -20.5394 -20.5200 -20.5199 -20.5199 -20.5195
   -20.5195 -20.5189 -20.5169 -20.5168 -20.5165 -20.5164 -20.5141 -20.5141
   -20.5112 -20.5112 -20.5111 -20.5111 -20.5094 -20.5084 -20.5078 -20.5070
   -20.5053 -20.5045 -20.5041 -20.5032  -9.7775  -9.5091  -9.4988  -9.1200
    -9.0288  -8.8858  -8.3725  -8.3620  -8.0685  -8.0420  -7.9284  -7.9064
     1.0647   1.0806   1.4723   1.5479   2.0268   2.0554   2.4328   2.7353
     3.5783   3.6700   3.8346   3.8591   4.0116   4.5717   4.6666   4.7120
     4.8500   4.8584   4.9594   5.1673   5.6258   5.7249   5.7319   5.9067
     5.9583   6.1901   6.3281   6.4971   6.5325   6.6905   6.8610   6.9429
     6.9698   7.1371   7.7809   7.9597   9.8725  10.7610  11.5906  11.6199
    12.1502  12.3568  12.3692  12.4512  12.5662  13.1032  13.3882  13.9227
    14.1951  14.9427  15.3865  16.1710  16.8266  17.0801

          k = 0.3333 0.3333 0.2266 ( 31545 PWs)   bands (ev):

   -66.3777 -66.3775 -66.3773 -66.3771 -30.7363 -30.7356 -30.7175 -30.7157
   -30.7063 -30.7042 -30.6938 -30.6927 -30.6467 -30.6454 -30.6260 -30.6245
   -20.5395 -20.5395 -20.5395 -20.5394 -20.5199 -20.5199 -20.5197 -20.5196
   -20.5184 -20.5181 -20.5168 -20.5168 -20.5166 -20.5165 -20.5152 -20.5152
   -20.5112 -20.5112 -20.5111 -20.5111 -20.5092 -20.5086 -20.5077 -20.5072
   -20.5051 -20.5046 -20.5039 -20.5034  -9.6827  -9.5300  -9.3658  -9.1524
    -8.9010  -8.8035  -8.4311  -8.3548  -8.3205  -8.2655  -7.9238  -7.9111
     1.0764   1.0803   1.9390   2.0214   2.2384   2.2471   2.6433   2.9590
     3.3870   3.5049   3.6404   3.6595   4.1816   4.1961   4.2605   4.5818
     4.6393   4.7854   4.8440   4.9578   5.1526   5.5073   5.9079   5.9269
     6.0833   6.1889   6.4024   6.6581   6.6872   6.8643   6.8690   6.9623
     7.0343   7.1251   7.5935   7.7135  10.4067  11.0837  11.5830  11.6152
    11.7233  12.0530  12.4581  12.4939  12.5080  13.0318  13.2888  13.6939
    14.6999  15.2851  15.7028  16.5938  16.6796  17.4632

          k = 0.3333 0.3333-0.3399 ( 31536 PWs)   bands (ev):

   -66.3776 -66.3776 -66.3772 -66.3772 -30.7203 -30.7202 -30.7202 -30.7201
   -30.7166 -30.7166 -30.6941 -30.6941 -30.6461 -30.6461 -30.6253 -30.6253
   -20.5395 -20.5395 -20.5395 -20.5395 -20.5199 -20.5199 -20.5196 -20.5196
   -20.5171 -20.5171 -20.5167 -20.5167 -20.5166 -20.5166 -20.5164 -20.5164
   -20.5112 -20.5112 -20.5111 -20.5111 -20.5089 -20.5089 -20.5074 -20.5074
   -20.5049 -20.5049 -20.5037 -20.5037  -9.5902  -9.5902  -9.2278  -9.2278
    -8.6714  -8.6714  -8.6094  -8.6094  -8.3393  -8.3393  -7.9174  -7.9174
     1.0794   1.0794   2.0093   2.0093   2.9750   2.9750   2.9942   2.9942
     3.2037   3.2038   3.4146   3.4146   3.6452   3.6452   4.4515   4.4515
     4.6648   4.6648   4.8797   4.8797   5.2045   5.2045   5.9305   5.9305
     6.1634   6.1634   6.5167   6.5167   6.8695   6.8695   7.0159   7.0159
     7.2818   7.2818   7.3557   7.3558  11.0612  11.0613  11.5686  11.5686
    11.6130  11.6130  12.4752  12.4752  12.7453  12.7453  13.4502  13.4503
    15.0765  15.0765  16.3492  16.3493  17.0694  17.0694

          k = 0.3333-0.5000 0.0000 ( 31554 PWs)   bands (ev):

   -66.3776 -66.3776 -66.3772 -66.3772 -30.7516 -30.7516 -30.7139 -30.7139
   -30.7094 -30.7094 -30.6865 -30.6865 -30.6318 -30.6318 -30.6289 -30.6289
   -20.5395 -20.5395 -20.5394 -20.5394 -20.5202 -20.5202 -20.5200 -20.5200
   -20.5195 -20.5195 -20.5167 -20.5167 -20.5163 -20.5163 -20.5136 -20.5136
   -20.5111 -20.5111 -20.5111 -20.5111 -20.5090 -20.5090 -20.5079 -20.5079
   -20.5045 -20.5045 -20.5035 -20.5035  -9.7170  -9.7170  -9.3703  -9.3703
    -9.0276  -9.0276  -8.0649  -8.0649  -8.0493  -8.0493  -7.9476  -7.9476
     1.1895   1.1895   1.3344   1.3344   1.4234   1.4234   2.4330   2.4330
     4.0627   4.0627   4.2749   4.2749   4.3131   4.3131   4.4535   4.4535
     5.3320   5.3320   5.4576   5.4576   5.4906   5.4906   5.5416   5.5416
     6.3515   6.3515   6.4066   6.4066   6.4460   6.4460   6.6320   6.6320
     6.8507   6.8507   7.9951   7.9951   9.9633   9.9633  12.1277  12.1277
    12.1501  12.1501  12.3880  12.3880  12.8925  12.8925  13.8615  13.8615
    14.1471  14.1471  15.8695  15.8695  16.7189  16.7189

          k = 0.3333-0.5000 0.1133 ( 31570 PWs)   bands (ev):

   -66.3776 -66.3776 -66.3772 -66.3772 -30.7474 -30.7474 -30.7137 -30.7137
   -30.7096 -30.7096 -30.6908 -30.6908 -30.6316 -30.6316 -30.6291 -30.6291
   -20.5395 -20.5395 -20.5394 -20.5394 -20.5201 -20.5201 -20.5199 -20.5199
   -20.5192 -20.5192 -20.5166 -20.5166 -20.5163 -20.5163 -20.5141 -20.5141
   -20.5111 -20.5111 -20.5111 -20.5111 -20.5089 -20.5089 -20.5080 -20.5080
   -20.5044 -20.5044 -20.5035 -20.5035  -9.6720  -9.6720  -9.3792  -9.3792
    -8.9933  -8.9933  -8.0864  -8.0864  -8.0624  -8.0624  -8.0202  -8.0202
     1.2858   1.2858   1.3341   1.3342   1.5780   1.5780   2.5069   2.5069
     3.8745   3.8745   4.2562   4.2562   4.3064   4.3064   4.4997   4.4997
     5.0469   5.0470   5.3967   5.3967   5.4900   5.4900   5.6821   5.6821
     6.1932   6.1932   6.4218   6.4218   6.5759   6.5759   6.6650   6.6650
     6.8166   6.8166   7.9157   7.9157  10.1385  10.1385  12.1254  12.1254
    12.1393  12.1393  12.2471  12.2471  12.9299  12.9299  13.7598  13.7598
    14.4364  14.4364  15.8357  15.8357  16.8465  16.8466

          k = 0.3333-0.5000 0.2266 ( 31560 PWs)   bands (ev):

   -66.3775 -66.3775 -66.3773 -66.3773 -30.7359 -30.7359 -30.7137 -30.7137
   -30.7102 -30.7101 -30.7020 -30.7020 -30.6311 -30.6311 -30.6296 -30.6296
   -20.5395 -20.5395 -20.5395 -20.5395 -20.5200 -20.5200 -20.5199 -20.5199
   -20.5182 -20.5182 -20.5166 -20.5166 -20.5164 -20.5164 -20.5152 -20.5152
   -20.5111 -20.5111 -20.5111 -20.5111 -20.5087 -20.5087 -20.5082 -20.5082
   -20.5042 -20.5042 -20.5037 -20.5037  -9.5676  -9.5676  -9.4090  -9.4090
    -8.8724  -8.8724  -8.3351  -8.3351  -8.0579  -8.0579  -8.0427  -8.0427
     1.3239   1.3239   1.3333   1.3333   2.2204   2.2204   2.7305   2.7305
     3.4459   3.4459   4.2307   4.2307   4.2655   4.2655   4.3216   4.3216
     4.6728   4.6728   5.2473   5.2473   5.5006   5.5006   5.6059   5.6059
     6.2599   6.2599   6.4044   6.4044   6.6681   6.6681   6.7651   6.7651
     6.9145   6.9145   7.6806   7.6806  10.5999  10.5999  11.7869  11.7869
    12.1386  12.1386  12.1623  12.1624  13.0467  13.0467  13.5155  13.5155
    15.0215  15.0215  15.7206  15.7206  17.2245  17.2245

          k = 0.3333-0.5000-0.3399 ( 31568 PWs)   bands (ev):

   -66.3774 -66.3774 -66.3774 -66.3774 -30.7207 -30.7207 -30.7207 -30.7207
   -30.7102 -30.7102 -30.7102 -30.7102 -30.6304 -30.6304 -30.6304 -30.6304
   -20.5395 -20.5395 -20.5395 -20.5395 -20.5200 -20.5200 -20.5200 -20.5200
   -20.5168 -20.5168 -20.5168 -20.5168 -20.5164 -20.5164 -20.5164 -20.5164
   -20.5111 -20.5111 -20.5111 -20.5111 -20.5085 -20.5085 -20.5085 -20.5085
   -20.5040 -20.5040 -20.5040 -20.5040  -9.4693  -9.4693  -9.4692  -9.4692
    -8.6396  -8.6396  -8.6393  -8.6393  -8.0510  -8.0510  -8.0508  -8.0508
     1.3309   1.3309   1.3312   1.3312   2.9808   2.9808   2.9841   2.9841
     3.2659   3.2659   3.2697   3.2697   4.2685   4.2685   4.2986   4.2986
     4.9336   4.9337   4.9626   4.9626   5.5197   5.5197   5.5352   5.5352
     6.3533   6.3533   6.3651   6.3651   6.7204   6.7204   6.7279   6.7279
     7.3108   7.3108   7.3183   7.3183  11.2012  11.2012  11.2045  11.2045
    12.1408  12.1408  12.1582  12.1582  13.2437  13.2437  13.2554  13.2554
    15.4708  15.4708  15.4805  15.4805  17.5993  17.6235

          k =-0.5000-0.5000 0.0000 ( 31608 PWs)   bands (ev):

   -66.3776 -66.3776 -66.3772 -66.3772 -30.7512 -30.7512 -30.7197 -30.7197
   -30.7160 -30.7160 -30.6868 -30.6868 -30.6257 -30.6257 -30.6228 -30.6228
   -20.5395 -20.5395 -20.5394 -20.5394 -20.5203 -20.5203 -20.5202 -20.5202
   -20.5197 -20.5197 -20.5165 -20.5165 -20.5160 -20.5160 -20.5136 -20.5136
   -20.5110 -20.5110 -20.5109 -20.5109 -20.5095 -20.5095 -20.5083 -20.5083
   -20.5041 -20.5041 -20.5031 -20.5031  -9.7609  -9.7609  -9.4478  -9.4478
    -9.0561  -9.0561  -7.9530  -7.9530  -7.9505  -7.9505  -7.9237  -7.9237
     1.0443   1.0443   1.0719   1.0719   1.3160   1.3160   2.3417   2.3417
     4.1446   4.1446   4.5226   4.5226   4.5691   4.5691   4.6446   4.6446
     5.3289   5.3289   5.3706   5.3706   5.7206   5.7206   5.8529   5.8529
     6.0423   6.0423   6.1835   6.1835   6.3360   6.3360   6.5596   6.5596
     6.9603   6.9603   8.0418   8.0418   9.6734   9.6734  12.2199  12.2199
    12.2627  12.2627  12.3052  12.3052  13.1074  13.1074  13.9535  13.9535
    14.0221  14.0221  15.5058  15.5058  16.8384  16.8384

          k =-0.5000-0.5000 0.1133 ( 31552 PWs)   bands (ev):

   -66.3776 -66.3776 -66.3772 -66.3772 -30.7469 -30.7469 -30.7194 -30.7194
   -30.7162 -30.7162 -30.6911 -30.6911 -30.6255 -30.6255 -30.6230 -30.6230
   -20.5395 -20.5395 -20.5394 -20.5394 -20.5203 -20.5203 -20.5202 -20.5202
   -20.5193 -20.5193 -20.5164 -20.5164 -20.5161 -20.5161 -20.5140 -20.5140
   -20.5110 -20.5110 -20.5109 -20.5109 -20.5094 -20.5094 -20.5083 -20.5083
   -20.5041 -20.5041 -20.5032 -20.5032  -9.7204  -9.7204  -9.4563  -9.4563
    -9.0173  -9.0173  -8.0606  -8.0606  -7.9488  -7.9488  -7.9256  -7.9256
     1.0597   1.0597   1.0719   1.0719   1.5541   1.5541   2.4146   2.4146
     3.8837   3.8837   4.5258   4.5258   4.5645   4.5645   4.7077   4.7077
     5.0707   5.0707   5.5133   5.5133   5.6775   5.6775   5.8539   5.8539
     6.0316   6.0316   6.1405   6.1405   6.3612   6.3612   6.6230   6.6230
     6.8603   6.8603   7.9561   7.9561   9.8878   9.8878  12.1450  12.1450
    12.2296  12.2296  12.2617  12.2617  13.1410  13.1410  13.9239  13.9239
    14.2144  14.2144  15.4738  15.4738  17.0090  17.0090

          k =-0.5000-0.5000 0.2266 ( 31572 PWs)   bands (ev):

   -66.3775 -66.3775 -66.3773 -66.3773 -30.7352 -30.7352 -30.7188 -30.7188
   -30.7169 -30.7169 -30.7030 -30.7030 -30.6250 -30.6250 -30.6235 -30.6235
   -20.5395 -20.5395 -20.5395 -20.5394 -20.5203 -20.5203 -20.5202 -20.5202
   -20.5182 -20.5182 -20.5163 -20.5163 -20.5161 -20.5161 -20.5152 -20.5152
   -20.5109 -20.5109 -20.5109 -20.5109 -20.5092 -20.5092 -20.5086 -20.5086
   -20.5039 -20.5039 -20.5034 -20.5034  -9.6274  -9.6274  -9.4845  -9.4845
    -8.8847  -8.8847  -8.3292  -8.3292  -7.9439  -7.9439  -7.9305  -7.9305
     1.0686   1.0686   1.0718   1.0718   2.2403   2.2403   2.6292   2.6292
     3.4137   3.4137   4.2494   4.2494   4.5348   4.5348   4.5638   4.5638
     4.8870   4.8870   5.4452   5.4452   5.7776   5.7776   5.8555   5.8555
     6.0130   6.0130   6.0759   6.0759   6.4334   6.4334   6.6895   6.6895
     6.8989   6.8989   7.7049   7.7049  10.4224  10.4224  11.7036  11.7036
    12.2438  12.2438  12.2586  12.2586  13.2483  13.2483  13.6897  13.6897
    14.7348  14.7348  15.3659  15.3659  17.5622  17.5622

          k =-0.5000-0.5000-0.3399 ( 31584 PWs)   bands (ev):

   -66.3774 -66.3774 -66.3774 -66.3774 -30.7191 -30.7191 -30.7191 -30.7191
   -30.7178 -30.7178 -30.7178 -30.7178 -30.6242 -30.6242 -30.6242 -30.6242
   -20.5395 -20.5395 -20.5395 -20.5395 -20.5203 -20.5203 -20.5203 -20.5203
   -20.5167 -20.5167 -20.5167 -20.5167 -20.5162 -20.5162 -20.5162 -20.5162
   -20.5109 -20.5109 -20.5109 -20.5109 -20.5089 -20.5089 -20.5089 -20.5089
   -20.5036 -20.5036 -20.5036 -20.5036  -9.5398  -9.5398  -9.5398  -9.5398
    -8.6404  -8.6404  -8.6404  -8.6404  -7.9372  -7.9372  -7.9372  -7.9372
     1.0711   1.0711   1.0711   1.0711   2.9719   2.9719   2.9719   2.9719
     3.2140   3.2140   3.2140   3.2140   4.5475   4.5475   4.5475   4.5475
     5.1554   5.1554   5.1554   5.1554   5.8469   5.8469   5.8469   5.8469
     6.0340   6.0340   6.0340   6.0340   6.5448   6.5448   6.5448   6.5448
     7.3201   7.3201   7.3201   7.3201  11.0832  11.0832  11.0832  11.0832
    12.2531  12.2531  12.2531  12.2531  13.4378  13.4378  13.4378  13.4378
    15.1407  15.1407  15.1407  15.1407  17.9391  17.9391

     the Fermi energy is     8.8734 ev

!    total energy              =   -3130.51153652 Ry
     Harris-Foulkes estimate   =   -3130.51153652 Ry
     estimated scf accuracy    <          5.8E-10 Ry

     The total energy is the sum of the following terms:

     one-electron contribution =   -2389.33018500 Ry
     hartree contribution      =    1311.73186548 Ry
     xc contribution           =    -482.90288124 Ry
     ewald contribution        =   -1570.01031299 Ry
     smearing contrib. (-TS)   =      -0.00002277 Ry

     convergence has been achieved in  12 iterations

     Writing output data file Landau_12.save/
 
     init_run     :      4.67s CPU      4.94s WALL (       1 calls)
     electrons    :    157.81s CPU    160.43s WALL (       1 calls)

     Called by init_run:
     wfcinit      :      3.75s CPU      3.93s WALL (       1 calls)
     potinit      :      0.34s CPU      0.37s WALL (       1 calls)
     hinit0       :      0.48s CPU      0.51s WALL (       1 calls)

     Called by electrons:
     c_bands      :    132.15s CPU    134.40s WALL (      12 calls)
     sum_band     :     21.79s CPU     21.89s WALL (      12 calls)
     v_of_rho     :      0.86s CPU      0.88s WALL (      13 calls)
     mix_rho      :      1.06s CPU      1.23s WALL (      12 calls)

     Called by c_bands:
     init_us_2    :      1.29s CPU      1.40s WALL (      25 calls)
     cegterg      :    101.55s CPU    103.77s WALL (      12 calls)

     Called by sum_band:

     Called by *egterg:
     h_psi        :     86.02s CPU     86.99s WALL (      45 calls)
     g_psi        :      0.45s CPU      0.45s WALL (      32 calls)
     cdiaghg      :      0.95s CPU      1.02s WALL (      44 calls)

     Called by h_psi:
     h_psi:pot    :     85.74s CPU     85.99s WALL (      45 calls)
     h_psi:calbec :      6.84s CPU      6.97s WALL (      45 calls)
     vloc_psi     :     71.22s CPU     71.31s WALL (      45 calls)
     add_vuspsi   :      7.67s CPU      7.71s WALL (      45 calls)

     General routines
     calbec       :      6.84s CPU      6.96s WALL (      45 calls)
     fft          :      0.35s CPU      0.35s WALL (      39 calls)
     ffts         :      0.11s CPU      0.11s WALL (      12 calls)
     fftw         :     73.51s CPU     73.54s WALL (    7858 calls)
 
     Parallel routines
 
     PWSCF        :   2m43.43s CPU   2m46.60s WALL

 
   This run was terminated on:  21:48:33  19Nov2019            

=------------------------------------------------------------------------------=
   JOB DONE.
=------------------------------------------------------------------------------=
