
     Program PWSCF v.6.4.1 starts on 20Nov2019 at 23:55:18 

     This program is part of the open-source Quantum ESPRESSO suite
     for quantum simulation of materials; please cite
         "P. Giannozzi et al., J. Phys.:Condens. Matter 21 395502 (2009);
         "P. Giannozzi et al., J. Phys.:Condens. Matter 29 465901 (2017);
          URL http://www.quantum-espresso.org", 
     in publications or presentations arising from this work. More details at
     http://www.quantum-espresso.org/quote

     Parallel version (MPI), running on    64 processors

     MPI processes distributed on    15 nodes
     K-points division:     npool     =      64
     Reading input from rscf.in

     Current dimensions of program PWSCF are:
     Max number of different atomic species (ntypx) = 10
     Max number of k-points (npk) =  40000
     Max angular momentum in pseudopotentials (lmaxx) =  3

     Subspace diagonalization in iterative solution of the eigenvalue problem:
     a serial algorithm will be used

     Message from routine setup:
     using ibrav=0 with symmetry is DISCOURAGED, use correct ibrav instead
 
     G-vector sticks info
     --------------------
     sticks:   dense  smooth     PW     G-vecs:    dense   smooth      PW
     Sum        7747    7747   2077               498127   498127   69057
 


     bravais-lattice index     =            0
     lattice parameter (alat)  =      13.8397  a.u.
     unit-cell volume          =    2804.9816 (a.u.)^3
     number of atoms/cell      =           32
     number of atomic types    =            2
     number of electrons       =       368.00
     number of Kohn-Sham states=          221
     kinetic-energy cutoff     =     120.0000  Ry
     charge density cutoff     =     480.0000  Ry
     convergence threshold     =      1.0E-08
     mixing beta               =       0.7000
     number of iterations used =            8  plain     mixing
     Exchange-correlation      = SLA PW NOGX NOGC ( 1  4  0  0 0 0)
     nstep                     =           50


     celldm(1)=  13.839685  celldm(2)=   0.000000  celldm(3)=   0.000000
     celldm(4)=   0.000000  celldm(5)=   0.000000  celldm(6)=   0.000000

     crystal axes: (cart. coord. in units of alat)
               a(1) = (   1.000000   0.000000   0.000000 )  
               a(2) = (   0.000000   1.058160   0.000000 )  
               a(3) = (   0.000000   0.000000   1.000000 )  

     reciprocal axes: (cart. coord. in units 2 pi/alat)
               b(1) = (  1.000000  0.000000  0.000000 )  
               b(2) = (  0.000000  0.945037  0.000000 )  
               b(3) = (  0.000000  0.000000  1.000000 )  


     PseudoPot. # 1 for W  read from file:
     /cluster/scratch/mnoe/QE/pps/W_ONCV_LDA-4.0.upf
     MD5 check sum: ba0307d5d4cd419d6f1d13dc49d7c13a
     Pseudo is Norm-conserving + core correction, Zval = 28.0
     Generated using ONCVPSP code by D. R. Hamann
     Using radial grid of 1380 points,  8 beta functions with: 
                l(1) =   0
                l(2) =   0
                l(3) =   1
                l(4) =   1
                l(5) =   2
                l(6) =   2
                l(7) =   3
                l(8) =   3

     PseudoPot. # 2 for O  read from file:
     /cluster/scratch/mnoe/QE/pps/O_ONCV_LDA-3.0.upf
     MD5 check sum: b55cdb4f45ae2203d24ad12cf8d61a31
     Pseudo is Norm-conserving + core correction, Zval =  6.0
     Generated using ONCVPSP code by D. R. Hamann
     Using radial grid of  926 points,  5 beta functions with: 
                l(1) =   0
                l(2) =   0
                l(3) =   1
                l(4) =   1
                l(5) =   2

     atomic species   valence    mass     pseudopotential
        W             28.00   183.84000     W ( 1.00)
        O              6.00    15.99940     O ( 1.00)

      8 Sym. Ops., with inversion, found ( 6 have fractional translation)



   Cartesian axes

     site n.     atom                  positions (alat units)
         1           W   tau(   1) = (   0.2375100   0.3079555   0.0117900  )
         2           W   tau(   2) = (   0.7624900   0.7502046   0.9882100  )
         3           W   tau(   3) = (   0.2624900   0.2211246   0.5117900  )
         4           W   tau(   4) = (   0.7375100   0.8370355   0.4882100  )
         5           W   tau(   5) = (   0.7624900   0.3079555   0.4882100  )
         6           W   tau(   6) = (   0.2375100   0.7502046   0.5117900  )
         7           W   tau(   7) = (   0.7375100   0.2211246   0.9882100  )
         8           W   tau(   8) = (   0.2624900   0.8370355   0.0117900  )
         9           O   tau(   9) = (   0.2269700   0.0271632   0.0036700  )
        10           O   tau(  10) = (   0.7730300   1.0309969   0.9963300  )
        11           O   tau(  11) = (   0.2730300   0.5019168   0.5036700  )
        12           O   tau(  12) = (   0.7269700   0.5562432   0.4963300  )
        13           O   tau(  13) = (   0.7730300   0.0271632   0.4963300  )
        14           O   tau(  14) = (   0.2269700   1.0309969   0.5036700  )
        15           O   tau(  15) = (   0.7269700   0.5019168   0.9963300  )
        16           O   tau(  16) = (   0.2730300   0.5562432   0.0036700  )
        17           O   tau(  17) = (   0.5034100   0.2395357   0.4969331  )
        18           O   tau(  18) = (   0.4965900   0.8186244   0.5030669  )
        19           O   tau(  19) = (   0.9965900   0.2895443   0.9969331  )
        20           O   tau(  20) = (   0.0034100   0.7686157   0.0030669  )
        21           O   tau(  21) = (   0.4965900   0.2395357   0.0030669  )
        22           O   tau(  22) = (   0.5034100   0.8186244   0.9969331  )
        23           O   tau(  23) = (   0.0034100   0.2895443   0.5030669  )
        24           O   tau(  24) = (   0.9965900   0.7686157   0.4969331  )
        25           O   tau(  25) = (   0.7469332   0.2590799   0.7448200  )
        26           O   tau(  26) = (   0.2530669   0.7990801   0.2551800  )
        27           O   tau(  27) = (   0.7530669   0.2700001   0.2448200  )
        28           O   tau(  28) = (   0.2469332   0.7881600   0.7551800  )
        29           O   tau(  29) = (   0.2530669   0.2590799   0.7551800  )
        30           O   tau(  30) = (   0.7469332   0.7990801   0.2448200  )
        31           O   tau(  31) = (   0.2469332   0.2700001   0.2551800  )
        32           O   tau(  32) = (   0.7530669   0.7881600   0.7448200  )

     number of k points=    64  gaussian smearing, width (Ry)=  0.0007
                       cart. coord. in units 2pi/alat
        k(    1) = (   0.0000000   0.0000000   0.0000000), wk =   0.0092593
        k(    2) = (   0.0000000   0.0000000   0.1666667), wk =   0.0185185
        k(    3) = (   0.0000000   0.0000000   0.3333333), wk =   0.0185185
        k(    4) = (   0.0000000   0.0000000  -0.5000000), wk =   0.0092593
        k(    5) = (   0.0000000   0.1575061   0.0000000), wk =   0.0185185
        k(    6) = (   0.0000000   0.1575061   0.1666667), wk =   0.0370370
        k(    7) = (   0.0000000   0.1575061   0.3333333), wk =   0.0370370
        k(    8) = (   0.0000000   0.1575061  -0.5000000), wk =   0.0185185
        k(    9) = (   0.0000000   0.3150122   0.0000000), wk =   0.0185185
        k(   10) = (   0.0000000   0.3150122   0.1666667), wk =   0.0370370
        k(   11) = (   0.0000000   0.3150122   0.3333333), wk =   0.0370370
        k(   12) = (   0.0000000   0.3150122  -0.5000000), wk =   0.0185185
        k(   13) = (   0.0000000  -0.4725183   0.0000000), wk =   0.0092593
        k(   14) = (   0.0000000  -0.4725183   0.1666667), wk =   0.0185185
        k(   15) = (   0.0000000  -0.4725183   0.3333333), wk =   0.0185185
        k(   16) = (   0.0000000  -0.4725183  -0.5000000), wk =   0.0092593
        k(   17) = (   0.1666667   0.0000000   0.1666667), wk =   0.0370370
        k(   18) = (   0.1666667   0.0000000   0.3333333), wk =   0.0370370
        k(   19) = (   0.1666667   0.0000000  -0.5000000), wk =   0.0185185
        k(   20) = (   0.1666667   0.1575061   0.1666667), wk =   0.0740741
        k(   21) = (   0.1666667   0.1575061   0.3333333), wk =   0.0740741
        k(   22) = (   0.1666667   0.1575061  -0.5000000), wk =   0.0370370
        k(   23) = (   0.1666667   0.3150122   0.1666667), wk =   0.0740741
        k(   24) = (   0.1666667   0.3150122   0.3333333), wk =   0.0740741
        k(   25) = (   0.1666667   0.3150122  -0.5000000), wk =   0.0370370
        k(   26) = (   0.1666667  -0.4725183   0.1666667), wk =   0.0370370
        k(   27) = (   0.1666667  -0.4725183   0.3333333), wk =   0.0370370
        k(   28) = (   0.1666667  -0.4725183  -0.5000000), wk =   0.0185185
        k(   29) = (   0.3333333   0.0000000   0.3333333), wk =   0.0370370
        k(   30) = (   0.3333333   0.0000000  -0.5000000), wk =   0.0185185
        k(   31) = (   0.3333333   0.1575061   0.3333333), wk =   0.0740741
        k(   32) = (   0.3333333   0.1575061  -0.5000000), wk =   0.0370370
        k(   33) = (   0.3333333   0.3150122   0.3333333), wk =   0.0740741
        k(   34) = (   0.3333333   0.3150122  -0.5000000), wk =   0.0370370
        k(   35) = (   0.3333333  -0.4725183   0.3333333), wk =   0.0370370
        k(   36) = (   0.3333333  -0.4725183  -0.5000000), wk =   0.0185185
        k(   37) = (  -0.5000000   0.0000000  -0.5000000), wk =   0.0092593
        k(   38) = (  -0.5000000   0.1575061  -0.5000000), wk =   0.0185185
        k(   39) = (  -0.5000000   0.3150122  -0.5000000), wk =   0.0185185
        k(   40) = (  -0.5000000  -0.4725183  -0.5000000), wk =   0.0092593
        k(   41) = (   0.1666667   0.0000000   0.0000000), wk =   0.0185185
        k(   42) = (   0.3333333   0.0000000   0.0000000), wk =   0.0185185
        k(   43) = (  -0.5000000   0.0000000   0.0000000), wk =   0.0092593
        k(   44) = (   0.1666667  -0.1575061   0.0000000), wk =   0.0370370
        k(   45) = (   0.3333333  -0.1575061   0.0000000), wk =   0.0370370
        k(   46) = (  -0.5000000  -0.1575061   0.0000000), wk =   0.0185185
        k(   47) = (   0.1666667  -0.3150122   0.0000000), wk =   0.0370370
        k(   48) = (   0.3333333  -0.3150122   0.0000000), wk =   0.0370370
        k(   49) = (  -0.5000000  -0.3150122   0.0000000), wk =   0.0185185
        k(   50) = (   0.1666667   0.4725183   0.0000000), wk =   0.0185185
        k(   51) = (   0.3333333   0.4725183   0.0000000), wk =   0.0185185
        k(   52) = (  -0.5000000   0.4725183   0.0000000), wk =   0.0092593
        k(   53) = (   0.3333333   0.0000000   0.1666667), wk =   0.0370370
        k(   54) = (  -0.5000000   0.0000000   0.1666667), wk =   0.0185185
        k(   55) = (   0.3333333  -0.1575061   0.1666667), wk =   0.0740741
        k(   56) = (  -0.5000000  -0.1575061   0.1666667), wk =   0.0370370
        k(   57) = (   0.3333333  -0.3150122   0.1666667), wk =   0.0740741
        k(   58) = (  -0.5000000  -0.3150122   0.1666667), wk =   0.0370370
        k(   59) = (   0.3333333   0.4725183   0.1666667), wk =   0.0370370
        k(   60) = (  -0.5000000   0.4725183   0.1666667), wk =   0.0185185
        k(   61) = (  -0.5000000   0.0000000   0.3333333), wk =   0.0185185
        k(   62) = (  -0.5000000  -0.1575061   0.3333333), wk =   0.0370370
        k(   63) = (  -0.5000000  -0.3150122   0.3333333), wk =   0.0370370
        k(   64) = (  -0.5000000   0.4725183   0.3333333), wk =   0.0185185

     Dense  grid:   498127 G-vectors     FFT dimensions: ( 100, 108, 100)

     Estimated max dynamical RAM per process >       2.74 GB

     Estimated total dynamical RAM >     175.05 GB

     Initial potential from superposition of free atoms

     starting charge  367.99656, renormalised to  368.00000
     Starting wfcs are  232 randomized atomic wfcs

     total cpu time spent up to now is       41.8 secs

     Self-consistent Calculation

     iteration #  1     ecut=   120.00 Ry     beta= 0.70
     Davidson diagonalization with overlap
     ethr =  1.00E-02,  avg # of iterations =  5.2

     total cpu time spent up to now is      117.1 secs

     total energy              =   -6253.78188034 Ry
     Harris-Foulkes estimate   =   -6264.49840106 Ry
     estimated scf accuracy    <      13.57791553 Ry

     iteration #  2     ecut=   120.00 Ry     beta= 0.70
     Davidson diagonalization with overlap
     ethr =  3.69E-03,  avg # of iterations =  3.5

     total cpu time spent up to now is      188.2 secs

     total energy              =   -6250.46580896 Ry
     Harris-Foulkes estimate   =   -6270.80808406 Ry
     estimated scf accuracy    <      54.95246976 Ry

     iteration #  3     ecut=   120.00 Ry     beta= 0.70
     Davidson diagonalization with overlap
     ethr =  3.69E-03,  avg # of iterations =  3.6

     total cpu time spent up to now is      256.1 secs

     total energy              =   -6260.91069808 Ry
     Harris-Foulkes estimate   =   -6261.35171881 Ry
     estimated scf accuracy    <       1.39645159 Ry

     iteration #  4     ecut=   120.00 Ry     beta= 0.70
     Davidson diagonalization with overlap
     ethr =  3.79E-04,  avg # of iterations =  2.7

     total cpu time spent up to now is      313.1 secs

     total energy              =   -6260.96864332 Ry
     Harris-Foulkes estimate   =   -6261.06394394 Ry
     estimated scf accuracy    <       0.33627600 Ry

     iteration #  5     ecut=   120.00 Ry     beta= 0.70
     Davidson diagonalization with overlap
     ethr =  9.14E-05,  avg # of iterations =  4.3

     total cpu time spent up to now is      371.8 secs

     total energy              =   -6260.94697143 Ry
     Harris-Foulkes estimate   =   -6260.99552221 Ry
     estimated scf accuracy    <       0.10423110 Ry

     iteration #  6     ecut=   120.00 Ry     beta= 0.70
     Davidson diagonalization with overlap
     ethr =  2.83E-05,  avg # of iterations =  5.7

     total cpu time spent up to now is      437.3 secs

     total energy              =   -6260.97161955 Ry
     Harris-Foulkes estimate   =   -6260.97370586 Ry
     estimated scf accuracy    <       0.00651295 Ry

     iteration #  7     ecut=   120.00 Ry     beta= 0.70
     Davidson diagonalization with overlap
     ethr =  1.77E-06,  avg # of iterations =  4.2

     total cpu time spent up to now is      496.3 secs

     total energy              =   -6260.97214820 Ry
     Harris-Foulkes estimate   =   -6260.97235834 Ry
     estimated scf accuracy    <       0.00063071 Ry

     iteration #  8     ecut=   120.00 Ry     beta= 0.70
     Davidson diagonalization with overlap
     ethr =  1.71E-07,  avg # of iterations =  2.9

     total cpu time spent up to now is      553.2 secs

     total energy              =   -6260.97220822 Ry
     Harris-Foulkes estimate   =   -6260.97225092 Ry
     estimated scf accuracy    <       0.00009191 Ry

     iteration #  9     ecut=   120.00 Ry     beta= 0.70
     Davidson diagonalization with overlap
     ethr =  2.50E-08,  avg # of iterations =  3.1

     total cpu time spent up to now is      615.5 secs

     total energy              =   -6260.97223008 Ry
     Harris-Foulkes estimate   =   -6260.97223229 Ry
     estimated scf accuracy    <       0.00000628 Ry

     iteration # 10     ecut=   120.00 Ry     beta= 0.70
     Davidson diagonalization with overlap
     ethr =  1.71E-09,  avg # of iterations =  2.0

     total cpu time spent up to now is      674.8 secs

     total energy              =   -6260.97223028 Ry
     Harris-Foulkes estimate   =   -6260.97223120 Ry
     estimated scf accuracy    <       0.00000198 Ry

     iteration # 11     ecut=   120.00 Ry     beta= 0.70
     Davidson diagonalization with overlap
     ethr =  5.39E-10,  avg # of iterations =  2.3

     total cpu time spent up to now is      732.5 secs

     total energy              =   -6260.97223068 Ry
     Harris-Foulkes estimate   =   -6260.97223069 Ry
     estimated scf accuracy    <       0.00000002 Ry

     iteration # 12     ecut=   120.00 Ry     beta= 0.70
     Davidson diagonalization with overlap
     ethr =  6.45E-12,  avg # of iterations =  3.0

     total cpu time spent up to now is      806.7 secs

     End of self-consistent calculation

          k = 0.0000 0.0000 0.0000 ( 62239 PWs)   bands (ev):

   -66.1316 -66.1312 -66.1308 -66.1307 -66.1304 -66.1303 -66.1299 -66.1296
   -30.5903 -30.5877 -30.5829 -30.5799 -30.5524 -30.5519 -30.5499 -30.5490
   -30.4899 -30.4895 -30.4877 -30.4875 -30.4579 -30.4563 -30.4510 -30.4499
   -30.3805 -30.3778 -30.3772 -30.3747 -30.3232 -30.3215 -30.3210 -30.3195
   -20.2889 -20.2889 -20.2882 -20.2882 -20.2874 -20.2874 -20.2868 -20.2868
   -20.2778 -20.2777 -20.2767 -20.2767 -20.2748 -20.2747 -20.2739 -20.2739
   -20.2668 -20.2668 -20.2657 -20.2656 -20.2646 -20.2645 -20.2634 -20.2633
   -20.2600 -20.2598 -20.2594 -20.2593 -20.2565 -20.2560 -20.2559 -20.2553
   -20.2471 -20.2468 -20.2468 -20.2465 -20.2462 -20.2461 -20.2458 -20.2458
   -20.2442 -20.2439 -20.2437 -20.2435 -20.2407 -20.2407 -20.2407 -20.2407
   -20.2359 -20.2359 -20.2357 -20.2357 -20.2346 -20.2345 -20.2344 -20.2343
   -10.0839  -9.8505  -9.6587  -9.6392  -9.4786  -9.4698  -9.1812  -9.1575
    -8.7049  -8.5719  -8.5597  -8.5329  -7.9576  -7.9081  -7.8839  -7.8556
    -7.8429  -7.8428  -7.8074  -7.7961  -7.5047  -7.4430  -7.4342  -7.3788
     0.8800   0.8842   1.0524   1.0604   1.0950   1.1011   1.2785   1.3121
     1.8220   1.8405   1.8635   1.8992   2.1809   2.2723   2.5333   2.5722
     2.5731   2.6301   3.8763   3.9314   4.0371   4.1056   4.3892   4.4055
     4.4365   4.4500   4.9054   5.2769   5.2833   5.3100   5.3190   5.4968
     5.5711   5.5971   5.6004   5.6130   5.6510   5.7594   5.8170   5.8212
     5.8740   5.9015   5.9614   6.0436   6.0601   6.1014   6.1466   6.2750
     6.3094   6.3598   6.4139   6.4276   6.6030   6.8042   6.8584   6.9246
     6.9625   6.9866   7.0081   7.0086   7.0488   7.0805   7.1088   7.1512
     7.1796   7.2051   8.2521   8.2870   8.3007   8.3039   8.4409   8.4746
     9.3373   9.3398   9.7824   9.8586   9.9295  10.0261  12.3264  12.3596
    12.5165  12.5182  12.7736  12.8044  12.9275  12.9355  13.0460  13.2267
    13.3661  13.4671  13.4933  13.5149  13.9943  14.0745  14.1488  14.2251
    14.2548  14.2969  14.6165  14.6591  14.7717  14.9386  15.3380  15.7221
    15.8839  16.5834  16.9731  17.0783  17.2632

          k = 0.0000 0.0000 0.1667 ( 62262 PWs)   bands (ev):

   -66.1315 -66.1311 -66.1308 -66.1307 -66.1304 -66.1303 -66.1300 -66.1296
   -30.5897 -30.5869 -30.5834 -30.5803 -30.5469 -30.5455 -30.5442 -30.5428
   -30.4903 -30.4894 -30.4887 -30.4870 -30.4645 -30.4629 -30.4570 -30.4560
   -30.3802 -30.3775 -30.3772 -30.3747 -30.3229 -30.3213 -30.3210 -30.3195
   -20.2888 -20.2888 -20.2881 -20.2881 -20.2875 -20.2875 -20.2869 -20.2869
   -20.2777 -20.2776 -20.2768 -20.2767 -20.2747 -20.2746 -20.2740 -20.2739
   -20.2667 -20.2666 -20.2655 -20.2655 -20.2648 -20.2647 -20.2636 -20.2635
   -20.2600 -20.2599 -20.2594 -20.2593 -20.2565 -20.2560 -20.2559 -20.2554
   -20.2469 -20.2469 -20.2467 -20.2466 -20.2463 -20.2462 -20.2456 -20.2455
   -20.2444 -20.2442 -20.2438 -20.2436 -20.2407 -20.2407 -20.2407 -20.2406
   -20.2358 -20.2358 -20.2356 -20.2356 -20.2347 -20.2346 -20.2345 -20.2344
   -10.0340  -9.7985  -9.6717  -9.5550  -9.4875  -9.3791  -9.1415  -9.1170
    -8.7231  -8.5810  -8.5517  -8.5283  -8.0066  -7.9901  -7.9495  -7.9355
    -7.9103  -7.8878  -7.8866  -7.8464  -7.5005  -7.4473  -7.4312  -7.3827
     0.9774   0.9863   1.0914   1.0986   1.3184   1.3210   1.4352   1.4876
     1.8429   1.8482   1.8510   1.8879   2.2681   2.3550   2.5377   2.5697
     2.6688   2.7141   3.8684   3.8968   4.0457   4.0642   4.1244   4.1372
     4.5007   4.5240   4.8675   4.8897   4.9227   5.2881   5.3468   5.3580
     5.4536   5.4968   5.5286   5.5956   5.6851   5.6909   5.6981   5.7386
     5.8313   5.8938   5.8974   5.9489   6.0631   6.1628   6.2684   6.2918
     6.3176   6.4948   6.5933   6.6487   6.6607   6.8068   6.8151   6.8229
     6.8309   6.8808   6.9250   6.9565   7.0419   7.0494   7.0671   7.0834
     7.1109   7.1403   8.2125   8.2267   8.2621   8.2954   8.3897   8.4243
     9.6847   9.6869   9.8733  10.0202  10.1217  10.2312  12.4067  12.4406
    12.5143  12.5190  12.7026  12.7183  12.8292  12.8577  13.0867  13.2038
    13.2257  13.2681  13.4770  13.5138  13.9888  14.0036  14.0499  14.1135
    14.2655  14.3232  14.6542  14.7723  14.9982  15.0739  15.3081  15.8668
    16.1464  16.7643  16.8077  17.1845  17.3067

          k = 0.0000 0.0000 0.3333 ( 62268 PWs)   bands (ev):

   -66.1314 -66.1310 -66.1310 -66.1306 -66.1305 -66.1301 -66.1301 -66.1298
   -30.5881 -30.5852 -30.5845 -30.5815 -30.5307 -30.5286 -30.5281 -30.5263
   -30.4940 -30.4933 -30.4877 -30.4854 -30.4823 -30.4806 -30.4713 -30.4711
   -30.3793 -30.3775 -30.3767 -30.3750 -30.3224 -30.3212 -30.3207 -30.3196
   -20.2886 -20.2886 -20.2879 -20.2879 -20.2878 -20.2878 -20.2872 -20.2872
   -20.2775 -20.2774 -20.2769 -20.2769 -20.2745 -20.2745 -20.2741 -20.2740
   -20.2662 -20.2662 -20.2652 -20.2651 -20.2651 -20.2650 -20.2640 -20.2639
   -20.2599 -20.2599 -20.2594 -20.2593 -20.2564 -20.2561 -20.2558 -20.2555
   -20.2469 -20.2467 -20.2465 -20.2465 -20.2464 -20.2463 -20.2451 -20.2451
   -20.2450 -20.2449 -20.2441 -20.2440 -20.2407 -20.2406 -20.2406 -20.2406
   -20.2355 -20.2355 -20.2353 -20.2353 -20.2349 -20.2347 -20.2347 -20.2346
    -9.9149  -9.7138  -9.6810  -9.5170  -9.3226  -9.1204  -9.0094  -8.9707
    -8.8022  -8.6247  -8.5212  -8.5110  -8.3227  -8.2924  -8.2609  -8.2143
    -7.9248  -7.8984  -7.8824  -7.8564  -7.4895  -7.4588  -7.4215  -7.3933
     1.0492   1.0619   1.0830   1.0924   1.7375   1.8069   1.8184   1.8651
     2.0245   2.0654   2.1474   2.2015   2.5055   2.5198   2.5679   2.6385
     2.9034   2.9145   3.4917   3.6004   3.6778   3.9082   3.9723   4.0156
     4.2641   4.3620   4.5308   4.7096   4.7276   4.8448   4.8914   5.0328
     5.2334   5.2848   5.3381   5.3407   5.3827   5.5002   5.7740   5.8074
     5.8095   5.8767   5.9315   6.0619   6.0845   6.1945   6.3182   6.3313
     6.3399   6.3953   6.4113   6.4766   6.5393   6.5898   6.6550   6.8032
     6.9190   6.9654   7.0268   7.0440   7.0960   7.1123   7.1202   7.1451
     7.4232   7.4597   7.9853   8.0064   8.2230   8.2581   8.2672   8.2859
     9.9098   9.9887  10.4462  10.4612  10.8943  10.9496  12.1086  12.1392
    12.5152  12.5209  12.6155  12.6561  12.6697  12.6911  13.0054  13.0233
    13.1362  13.2283  13.4909  13.5106  13.5712  13.6280  13.7014  13.7540
    14.5040  14.6370  14.6770  15.1764  15.2094  15.4154  15.6660  15.8083
    16.2536  17.1695  17.2850  17.3826  17.4310

          k = 0.0000 0.0000-0.5000 ( 62264 PWs)   bands (ev):

   -66.1312 -66.1312 -66.1308 -66.1308 -66.1303 -66.1303 -66.1299 -66.1299
   -30.5862 -30.5862 -30.5832 -30.5832 -30.5087 -30.5087 -30.5070 -30.5070
   -30.5058 -30.5058 -30.5039 -30.5039 -30.4834 -30.4834 -30.4817 -30.4817
   -30.3783 -30.3783 -30.3757 -30.3757 -30.3217 -30.3217 -30.3201 -30.3201
   -20.2882 -20.2882 -20.2882 -20.2882 -20.2876 -20.2876 -20.2875 -20.2875
   -20.2772 -20.2772 -20.2771 -20.2771 -20.2743 -20.2743 -20.2743 -20.2743
   -20.2657 -20.2657 -20.2656 -20.2656 -20.2646 -20.2646 -20.2645 -20.2645
   -20.2599 -20.2599 -20.2593 -20.2593 -20.2562 -20.2562 -20.2556 -20.2556
   -20.2468 -20.2468 -20.2466 -20.2466 -20.2459 -20.2459 -20.2456 -20.2456
   -20.2446 -20.2446 -20.2445 -20.2445 -20.2406 -20.2406 -20.2406 -20.2405
   -20.2352 -20.2352 -20.2351 -20.2351 -20.2350 -20.2350 -20.2350 -20.2350
    -9.7944  -9.7944  -9.5773  -9.5773  -9.0187  -9.0187  -8.7876  -8.7876
    -8.7378  -8.7377  -8.6822  -8.6822  -8.4572  -8.4571  -8.4349  -8.4349
    -7.9125  -7.9125  -7.8697  -7.8697  -7.4743  -7.4743  -7.4075  -7.4075
     1.0713   1.0713   1.0831   1.0831   1.7891   1.7891   1.8435   1.8435
     2.5184   2.5184   2.7936   2.7936   2.8263   2.8263   2.8949   2.8949
     2.9940   2.9940   3.0771   3.0771   3.2854   3.2855   3.9482   3.9482
     4.0262   4.0262   4.0507   4.0508   4.8079   4.8079   5.0154   5.0154
     5.1692   5.1692   5.1726   5.1726   5.3563   5.3563   5.8474   5.8474
     5.8990   5.8990   6.0057   6.0058   6.1098   6.1098   6.1511   6.1511
     6.3656   6.3656   6.4050   6.4050   6.5227   6.5227   6.6806   6.6806
     6.8975   6.8975   7.0362   7.0362   7.1128   7.1128   7.6068   7.6068
     7.6188   7.6188   7.9058   7.9058   7.9405   7.9406   8.2763   8.2763
     9.9531   9.9531  11.3105  11.3105  11.3353  11.3353  11.7888  11.7888
    11.8235  11.8235  12.5231  12.5231  13.0622  13.0622  13.0860  13.0860
    13.2019  13.2019  13.3097  13.3097  13.3698  13.3698  13.5054  13.5054
    14.5969  14.5969  15.0121  15.0121  15.6730  15.6730  15.6804  15.6804
    16.5540  16.5540  17.6076  17.6076  17.9054

          k = 0.0000 0.1575 0.0000 ( 62231 PWs)   bands (ev):

   -66.1315 -66.1312 -66.1307 -66.1307 -66.1304 -66.1304 -66.1299 -66.1296
   -30.5902 -30.5879 -30.5827 -30.5801 -30.5523 -30.5517 -30.5500 -30.5492
   -30.4897 -30.4894 -30.4878 -30.4877 -30.4578 -30.4564 -30.4509 -30.4499
   -30.3767 -30.3741 -30.3735 -30.3710 -30.3270 -30.3253 -30.3248 -30.3232
   -20.2889 -20.2889 -20.2882 -20.2882 -20.2874 -20.2874 -20.2868 -20.2868
   -20.2778 -20.2777 -20.2767 -20.2767 -20.2748 -20.2747 -20.2739 -20.2739
   -20.2668 -20.2668 -20.2657 -20.2656 -20.2646 -20.2646 -20.2634 -20.2633
   -20.2599 -20.2598 -20.2594 -20.2593 -20.2564 -20.2559 -20.2559 -20.2554
   -20.2470 -20.2468 -20.2468 -20.2465 -20.2459 -20.2458 -20.2455 -20.2455
   -20.2441 -20.2439 -20.2437 -20.2435 -20.2411 -20.2411 -20.2410 -20.2410
   -20.2359 -20.2359 -20.2357 -20.2357 -20.2346 -20.2345 -20.2344 -20.2343
   -10.0633  -9.8621  -9.6406  -9.6216  -9.4865  -9.4769  -9.1797  -9.1591
    -8.6343  -8.5167  -8.5044  -8.4795  -7.9590  -7.9090  -7.8837  -7.8546
    -7.8450  -7.8445  -7.8058  -7.7995  -7.5921  -7.5377  -7.5290  -7.4823
     0.8801   0.8838   1.0526   1.0585   1.0955   1.1007   1.2894   1.3113
     1.9959   2.0646   2.0944   2.1437   2.2112   2.2670   2.5996   2.6367
     2.6470   2.7021   3.7487   3.8047   3.8610   3.9226   4.3921   4.4000
     4.4323   4.4405   4.7314   5.2457   5.3023   5.3306   5.3472   5.3660
     5.4135   5.6249   5.6310   5.6404   5.6604   5.6796   5.7077   5.7693
     5.8255   5.9589   6.0008   6.0229   6.0282   6.0662   6.1121   6.1939
     6.4050   6.4061   6.4330   6.4403   6.7393   6.8531   6.8784   6.8940
     6.9095   6.9487   6.9633   6.9806   6.9990   7.0133   7.0227   7.0853
     7.0914   7.1162   8.1998   8.2419   8.2878   8.3014   8.3462   8.3836
     9.3417   9.3478   9.9833  10.0915  10.1107  10.2339  12.1737  12.2091
    12.3578  12.3596  12.7758  12.8014  12.9283  12.9357  13.0763  13.2556
    13.4747  13.5224  13.5353  13.6234  14.0580  14.0802  14.1490  14.2508
    14.3369  14.3633  14.7476  14.7524  14.7670  14.9128  15.6901  15.7449
    15.8446  16.3079  17.1181  17.2224  17.2229

          k = 0.0000 0.1575 0.1667 ( 62237 PWs)   bands (ev):

   -66.1315 -66.1311 -66.1308 -66.1307 -66.1305 -66.1303 -66.1300 -66.1296
   -30.5895 -30.5871 -30.5832 -30.5805 -30.5467 -30.5453 -30.5444 -30.5429
   -30.4902 -30.4892 -30.4888 -30.4872 -30.4644 -30.4630 -30.4569 -30.4560
   -30.3764 -30.3738 -30.3735 -30.3711 -30.3268 -30.3251 -30.3248 -30.3232
   -20.2888 -20.2888 -20.2881 -20.2881 -20.2875 -20.2875 -20.2869 -20.2869
   -20.2777 -20.2776 -20.2768 -20.2767 -20.2747 -20.2747 -20.2740 -20.2739
   -20.2666 -20.2666 -20.2655 -20.2655 -20.2648 -20.2647 -20.2636 -20.2635
   -20.2599 -20.2598 -20.2594 -20.2593 -20.2564 -20.2560 -20.2559 -20.2554
   -20.2469 -20.2468 -20.2466 -20.2466 -20.2460 -20.2459 -20.2453 -20.2453
   -20.2444 -20.2442 -20.2438 -20.2436 -20.2411 -20.2410 -20.2410 -20.2410
   -20.2358 -20.2358 -20.2356 -20.2356 -20.2347 -20.2346 -20.2345 -20.2344
   -10.0131  -9.8100  -9.6531  -9.5362  -9.4955  -9.3862  -9.1398  -9.1187
    -8.6532  -8.5269  -8.4976  -8.4755  -8.0114  -7.9875  -7.9535  -7.9333
    -7.9104  -7.8882  -7.8874  -7.8481  -7.5882  -7.5404  -7.5270  -7.4842
     0.9784   0.9857   1.0922   1.0981   1.3185   1.3203   1.4566   1.4868
     2.0040   2.0597   2.0861   2.1516   2.2812   2.3514   2.6014   2.6338
     2.7453   2.7869   3.7557   3.7891   3.8857   3.8969   4.1065   4.1330
     4.4845   4.5126   4.7152   4.9294   4.9819   5.2317   5.2534   5.3690
     5.3838   5.3883   5.5292   5.5441   5.5978   5.6119   5.6345   5.7855
     5.8108   5.8620   5.9295   5.9965   6.0337   6.0522   6.2531   6.2887
     6.3259   6.4447   6.6497   6.6936   6.7238   6.7910   6.7964   6.8195
     6.8383   6.8459   6.9179   6.9503   6.9644   6.9702   7.0265   7.0372
     7.1095   7.1339   8.2010   8.2152   8.2205   8.2502   8.3047   8.3398
     9.6861   9.6905  10.1050  10.2274  10.2746  10.3761  12.2574  12.2941
    12.3584  12.3599  12.7052  12.7187  12.8316  12.8554  13.1176  13.2535
    13.2541  13.2951  13.5794  13.6261  13.9117  13.9695  14.0246  14.1084
    14.4500  14.5472  14.7619  14.8861  14.9947  15.0617  15.7155  15.8263
    16.1123  16.4691  16.9312  17.2887  17.2980

          k = 0.0000 0.1575 0.3333 ( 62284 PWs)   bands (ev):

   -66.1313 -66.1310 -66.1309 -66.1306 -66.1305 -66.1302 -66.1301 -66.1298
   -30.5879 -30.5854 -30.5843 -30.5817 -30.5305 -30.5284 -30.5283 -30.5264
   -30.4939 -30.4933 -30.4875 -30.4856 -30.4822 -30.4807 -30.4713 -30.4711
   -30.3756 -30.3738 -30.3730 -30.3713 -30.3262 -30.3250 -30.3245 -30.3234
   -20.2886 -20.2886 -20.2879 -20.2879 -20.2878 -20.2878 -20.2872 -20.2872
   -20.2775 -20.2774 -20.2769 -20.2769 -20.2745 -20.2745 -20.2741 -20.2741
   -20.2662 -20.2662 -20.2652 -20.2651 -20.2651 -20.2650 -20.2640 -20.2639
   -20.2599 -20.2598 -20.2594 -20.2593 -20.2563 -20.2560 -20.2558 -20.2555
   -20.2468 -20.2466 -20.2465 -20.2463 -20.2463 -20.2461 -20.2451 -20.2449
   -20.2449 -20.2448 -20.2441 -20.2439 -20.2410 -20.2410 -20.2409 -20.2409
   -20.2355 -20.2355 -20.2354 -20.2353 -20.2349 -20.2347 -20.2347 -20.2346
    -9.8935  -9.6942  -9.6920  -9.5256  -9.2986  -9.1275  -9.0059  -8.9727
    -8.7398  -8.5796  -8.4722  -8.4611  -8.3281  -8.2977  -8.2503  -8.2043
    -7.9242  -7.8980  -7.8842  -7.8581  -7.5782  -7.5501  -7.5182  -7.4926
     1.0511   1.0611   1.0842   1.0918   1.9068   1.9468   2.0242   2.0431
     2.0851   2.1355   2.1460   2.2670   2.5277   2.5504   2.6262   2.6574
     2.9682   2.9860   3.4908   3.5944   3.6241   3.8229   3.8421   3.8767
     4.3244   4.4201   4.5371   4.6585   4.7048   4.7221   4.8800   4.8844
     5.0837   5.0954   5.2911   5.4077   5.4322   5.4336   5.5191   5.8166
     5.8761   5.8957   5.9579   5.9857   6.0353   6.0720   6.0762   6.1540
     6.3575   6.4306   6.4556   6.5552   6.5738   6.7228   6.8124   6.8752
     6.8886   6.9220   6.9615   6.9672   7.0461   7.0899   7.0979   7.2093
     7.4294   7.4599   7.9927   8.0008   8.1623   8.1932   8.2141   8.2332
    10.1268  10.1980  10.4475  10.4678  10.9806  11.0386  12.1124  12.1371
    12.3573  12.3621  12.5216  12.5571  12.6619  12.7000  13.0077  13.0216
    13.1675  13.2534  13.4759  13.5329  13.6024  13.6222  13.7052  13.7529
    14.6249  14.7116  15.0434  15.2725  15.4006  15.6073  15.7143  15.7704
    16.3633  16.9576  17.1233  17.3527  17.5896

          k = 0.0000 0.1575-0.5000 ( 62234 PWs)   bands (ev):

   -66.1311 -66.1311 -66.1308 -66.1308 -66.1303 -66.1303 -66.1300 -66.1300
   -30.5860 -30.5860 -30.5834 -30.5834 -30.5086 -30.5086 -30.5071 -30.5071
   -30.5057 -30.5056 -30.5040 -30.5040 -30.4833 -30.4833 -30.4818 -30.4818
   -30.3745 -30.3745 -30.3720 -30.3720 -30.3255 -30.3255 -30.3239 -30.3239
   -20.2882 -20.2882 -20.2882 -20.2882 -20.2876 -20.2876 -20.2875 -20.2875
   -20.2772 -20.2772 -20.2771 -20.2771 -20.2743 -20.2743 -20.2743 -20.2743
   -20.2657 -20.2657 -20.2656 -20.2656 -20.2645 -20.2645 -20.2645 -20.2645
   -20.2599 -20.2599 -20.2594 -20.2594 -20.2562 -20.2562 -20.2556 -20.2556
   -20.2466 -20.2466 -20.2464 -20.2464 -20.2459 -20.2459 -20.2456 -20.2456
   -20.2445 -20.2445 -20.2444 -20.2443 -20.2410 -20.2409 -20.2409 -20.2409
   -20.2352 -20.2352 -20.2351 -20.2351 -20.2350 -20.2350 -20.2350 -20.2350
    -9.7736  -9.7736  -9.5871  -9.5871  -8.9797  -8.9797  -8.7725  -8.7725
    -8.7446  -8.7446  -8.6856  -8.6855  -8.4188  -8.4188  -8.4004  -8.4004
    -7.9120  -7.9120  -7.8714  -7.8714  -7.5642  -7.5642  -7.5054  -7.5054
     1.0730   1.0730   1.0824   1.0824   1.9884   1.9884   2.0802   2.0802
     2.5775   2.5775   2.8090   2.8091   2.8458   2.8458   2.8893   2.8893
     2.9910   2.9910   3.1014   3.1014   3.2734   3.2734   3.8486   3.8486
     4.0439   4.0439   4.0984   4.0984   4.6199   4.6199   4.8827   4.8827
     5.0918   5.0918   5.1295   5.1295   5.4082   5.4082   5.6536   5.6536
     5.9205   5.9205   5.9346   5.9346   6.0651   6.0651   6.0833   6.0833
     6.2665   6.2665   6.4020   6.4020   6.6781   6.6781   6.8875   6.8875
     6.9136   6.9136   6.9625   6.9625   7.0146   7.0146   7.6136   7.6136
     7.6244   7.6244   7.8789   7.8789   7.9056   7.9056   8.2233   8.2233
    10.1673  10.1673  11.3122  11.3122  11.3354  11.3354  11.8388  11.8388
    11.8707  11.8707  12.3747  12.3747  12.9504  12.9504  12.9872  12.9872
    13.2039  13.2039  13.3130  13.3130  13.3743  13.3743  13.6166  13.6166
    14.6904  14.6904  15.4004  15.4004  15.6494  15.6494  15.7807  15.7807
    16.6221  16.6221  17.4126  17.4126  17.9266

          k = 0.0000 0.3150 0.0000 ( 62175 PWs)   bands (ev):

   -66.1315 -66.1313 -66.1307 -66.1306 -66.1305 -66.1304 -66.1299 -66.1297
   -30.5897 -30.5884 -30.5822 -30.5807 -30.5518 -30.5512 -30.5505 -30.5497
   -30.4893 -30.4890 -30.4881 -30.4881 -30.4575 -30.4566 -30.4506 -30.4501
   -30.3663 -30.3639 -30.3633 -30.3611 -30.3376 -30.3357 -30.3352 -30.3334
   -20.2889 -20.2889 -20.2882 -20.2882 -20.2874 -20.2874 -20.2868 -20.2868
   -20.2778 -20.2777 -20.2767 -20.2767 -20.2748 -20.2747 -20.2739 -20.2739
   -20.2668 -20.2668 -20.2657 -20.2656 -20.2646 -20.2646 -20.2634 -20.2634
   -20.2598 -20.2597 -20.2595 -20.2594 -20.2563 -20.2560 -20.2558 -20.2555
   -20.2470 -20.2468 -20.2467 -20.2465 -20.2451 -20.2449 -20.2446 -20.2446
   -20.2442 -20.2439 -20.2436 -20.2434 -20.2421 -20.2420 -20.2420 -20.2419
   -20.2359 -20.2359 -20.2357 -20.2357 -20.2346 -20.2345 -20.2345 -20.2344
   -10.0113  -9.8962  -9.5968  -9.5796  -9.5101  -9.4983  -9.1754  -9.1635
    -8.4375  -8.3529  -8.3400  -8.3196  -7.9813  -7.9107  -7.8970  -7.8578
    -7.8515  -7.8486  -7.8343  -7.8014  -7.7904  -7.7643  -7.7446  -7.7433
     0.8807   0.8828   1.0533   1.0560   1.0967   1.0995   1.3001   1.3091
     2.1999   2.2503   2.5314   2.6287   2.7149   2.7665   2.7936   2.8190
     2.9577   2.9590   3.4426   3.4848   3.5166   3.5531   4.1917   4.3998
     4.4012   4.4093   4.4252   4.6075   4.6215   4.9511   5.4585   5.4652
     5.4704   5.4751   5.5759   5.5998   5.6878   5.6964   5.7281   5.7564
     5.8788   5.9552   5.9695   6.0213   6.0242   6.0295   6.1596   6.1992
     6.2579   6.2786   6.3668   6.5143   6.6451   6.6666   6.7297   6.8707
     6.8831   6.9528   6.9601   6.9691   7.0191   7.0271   7.2237   7.2299
     7.2314   7.2389   8.0005   8.0329   8.0742   8.1174   8.2903   8.2976
     9.3499   9.3557  10.5016  10.5926  10.6490  10.7427  11.7492  11.7973
    11.9268  11.9457  12.7813  12.7954  12.9308  12.9352  13.1697  13.3468
    13.4676  13.6068  13.6093  13.6466  13.9098  13.9671  14.1883  14.2420
    14.6725  14.7626  14.8680  14.8854  15.0967  15.3228  15.5773  15.7181
    15.7765  16.7354  16.8696  17.5977  17.7015

          k = 0.0000 0.3150 0.1667 ( 62260 PWs)   bands (ev):

   -66.1314 -66.1312 -66.1307 -66.1306 -66.1305 -66.1304 -66.1299 -66.1297
   -30.5890 -30.5876 -30.5826 -30.5811 -30.5462 -30.5449 -30.5448 -30.5434
   -30.4899 -30.4891 -30.4888 -30.4876 -30.4641 -30.4632 -30.4567 -30.4562
   -30.3660 -30.3636 -30.3633 -30.3611 -30.3374 -30.3354 -30.3352 -30.3334
   -20.2888 -20.2888 -20.2881 -20.2881 -20.2875 -20.2875 -20.2869 -20.2869
   -20.2777 -20.2777 -20.2768 -20.2767 -20.2747 -20.2747 -20.2740 -20.2739
   -20.2666 -20.2666 -20.2655 -20.2655 -20.2648 -20.2647 -20.2636 -20.2635
   -20.2598 -20.2597 -20.2595 -20.2594 -20.2563 -20.2560 -20.2558 -20.2555
   -20.2468 -20.2467 -20.2466 -20.2465 -20.2452 -20.2451 -20.2445 -20.2445
   -20.2445 -20.2442 -20.2436 -20.2435 -20.2420 -20.2420 -20.2419 -20.2419
   -20.2358 -20.2358 -20.2356 -20.2356 -20.2346 -20.2345 -20.2345 -20.2345
    -9.9602  -9.8441  -9.6084  -9.5196  -9.4917  -9.4078  -9.1352  -9.1231
    -8.4590  -8.3674  -8.3357  -8.3180  -8.0395  -7.9786  -7.9784  -7.9257
    -7.9146  -7.8952  -7.8919  -7.8521  -7.7963  -7.7708  -7.7571  -7.7341
     0.9801   0.9840   1.0936   1.0968   1.3188   1.3196   1.4738   1.4847
     2.2870   2.3363   2.5377   2.6137   2.7054   2.7682   2.7905   2.8170
     3.0172   3.0594   3.4722   3.5100   3.5317   3.5468   4.1001   4.1121
     4.1878   4.4767   4.4832   4.5812   4.6269   4.9455   5.0962   5.1501
     5.3896   5.4175   5.4399   5.5117   5.5284   5.5504   5.6266   5.6634
     5.8579   5.8642   5.9304   5.9410   5.9925   6.0111   6.0237   6.0636
     6.3510   6.4310   6.5363   6.6494   6.6758   6.7376   6.7791   6.7944
     6.8202   6.8329   6.9159   7.0396   7.0439   7.0662   7.2116   7.2449
     7.2650   7.2675   8.0058   8.0236   8.0539   8.0907   8.2201   8.2309
     9.6910   9.6949  10.6577  10.7028  10.7368  10.7845  11.8488  11.8969
    11.9283  11.9474  12.7108  12.7177  12.8373  12.8504  13.2118  13.3404
    13.3446  13.3846  13.5686  13.6408  13.7233  13.7741  14.0648  14.1001
    14.8821  14.9885  15.0115  15.0593  15.2257  15.4256  15.6965  15.9342
    15.9923  16.7033  16.9655  17.3047  17.5140

          k = 0.0000 0.3150 0.3333 ( 62269 PWs)   bands (ev):

   -66.1313 -66.1311 -66.1309 -66.1307 -66.1304 -66.1302 -66.1300 -66.1298
   -30.5874 -30.5859 -30.5838 -30.5823 -30.5300 -30.5287 -30.5280 -30.5268
   -30.4938 -30.4935 -30.4871 -30.4860 -30.4818 -30.4809 -30.4712 -30.4711
   -30.3652 -30.3636 -30.3628 -30.3613 -30.3367 -30.3354 -30.3348 -30.3336
   -20.2886 -20.2886 -20.2879 -20.2879 -20.2878 -20.2878 -20.2872 -20.2872
   -20.2775 -20.2774 -20.2769 -20.2769 -20.2745 -20.2745 -20.2741 -20.2741
   -20.2662 -20.2662 -20.2651 -20.2651 -20.2651 -20.2651 -20.2640 -20.2639
   -20.2598 -20.2597 -20.2595 -20.2594 -20.2562 -20.2559 -20.2559 -20.2556
   -20.2465 -20.2465 -20.2463 -20.2462 -20.2457 -20.2455 -20.2451 -20.2449
   -20.2443 -20.2442 -20.2438 -20.2436 -20.2419 -20.2419 -20.2419 -20.2418
   -20.2355 -20.2355 -20.2354 -20.2353 -20.2349 -20.2348 -20.2347 -20.2347
    -9.8398  -9.7249  -9.6468  -9.5516  -9.2437  -9.1495  -8.9973  -8.9786
    -8.5784  -8.4629  -8.3495  -8.3213  -8.3165  -8.3111  -8.2010  -8.1607
    -7.9315  -7.9073  -7.8885  -7.8622  -7.7912  -7.7729  -7.7577  -7.7407
     1.0539   1.0592   1.0863   1.0903   2.0049   2.0224   2.1040   2.1411
     2.5332   2.5549   2.5772   2.5948   2.7146   2.7650   2.7875   2.8199
     3.1859   3.2233   3.4383   3.4588   3.5431   3.5717   3.5914   3.6234
     4.1450   4.4458   4.4705   4.5031   4.5875   4.6176   4.6226   4.7860
     4.8362   4.8918   5.0059   5.1535   5.3110   5.3654   5.4648   5.5338
     5.5666   5.6289   5.9414   5.9691   5.9922   6.0040   6.0129   6.0411
     6.4111   6.4406   6.4858   6.5456   6.6276   6.6516   6.7236   6.7382
     6.8792   7.0720   7.1811   7.1818   7.2070   7.2706   7.3140   7.3554
     7.4185   7.4475   7.9465   7.9704   7.9952   8.0062   8.0169   8.0752
    10.4351  10.4495  10.6884  10.7241  11.2498  11.3106  11.9279  11.9472
    12.1063  12.1360  12.1885  12.2043  12.7778  12.8114  13.0119  13.0188
    13.2258  13.2437  13.3232  13.3493  13.5906  13.6307  13.7362  13.7501
    14.9813  15.0608  15.3490  15.6364  15.6494  15.8299  15.9315  16.4520
    16.5851  16.7128  16.9587  17.3105  17.5827

          k = 0.0000 0.3150-0.5000 ( 62306 PWs)   bands (ev):

   -66.1311 -66.1311 -66.1309 -66.1309 -66.1302 -66.1302 -66.1300 -66.1300
   -30.5855 -30.5855 -30.5840 -30.5840 -30.5083 -30.5083 -30.5074 -30.5074
   -30.5053 -30.5053 -30.5043 -30.5043 -30.4830 -30.4830 -30.4821 -30.4821
   -30.3643 -30.3643 -30.3620 -30.3620 -30.3360 -30.3360 -30.3341 -30.3341
   -20.2882 -20.2882 -20.2882 -20.2882 -20.2876 -20.2876 -20.2875 -20.2875
   -20.2772 -20.2772 -20.2772 -20.2772 -20.2743 -20.2743 -20.2743 -20.2743
   -20.2657 -20.2657 -20.2656 -20.2656 -20.2645 -20.2645 -20.2645 -20.2645
   -20.2598 -20.2598 -20.2595 -20.2595 -20.2561 -20.2561 -20.2558 -20.2558
   -20.2462 -20.2462 -20.2460 -20.2460 -20.2459 -20.2459 -20.2456 -20.2456
   -20.2440 -20.2440 -20.2439 -20.2439 -20.2419 -20.2419 -20.2418 -20.2418
   -20.2352 -20.2352 -20.2351 -20.2351 -20.2350 -20.2350 -20.2350 -20.2350
    -9.7222  -9.7222  -9.6164  -9.6164  -8.8921  -8.8920  -8.7674  -8.7673
    -8.7411  -8.7411  -8.6958  -8.6957  -8.2959  -8.2959  -8.2756  -8.2756
    -7.9209  -7.9209  -7.8756  -7.8756  -7.7807  -7.7807  -7.7509  -7.7509
     1.0757   1.0757   1.0805   1.0805   2.5139   2.5139   2.6430   2.6430
     2.7267   2.7267   2.8655   2.8655   2.8725   2.8725   2.9482   2.9482
     3.0009   3.0009   3.1792   3.1792   3.2354   3.2354   3.5416   3.5416
     4.1390   4.1390   4.2105   4.2105   4.2755   4.2755   4.4217   4.4217
     5.0234   5.0234   5.0850   5.0850   5.1139   5.1139   5.2656   5.2656
     5.5792   5.5792   5.9926   5.9926   6.0178   6.0178   6.0355   6.0355
     6.3265   6.3265   6.3874   6.3874   6.6464   6.6464   6.7313   6.7313
     7.1164   7.1164   7.2524   7.2525   7.2924   7.2924   7.5908   7.5908
     7.6583   7.6583   7.7786   7.7786   7.7905   7.7905   8.0321   8.0321
    10.6888  10.6888  11.3121  11.3121  11.3375  11.3375  11.8841  11.8841
    12.0180  12.0180  12.1093  12.1093  12.6520  12.6520  12.7057  12.7057
    13.2571  13.2571  13.3138  13.3138  13.4014  13.4014  13.6332  13.6332
    15.0344  15.0344  15.5486  15.5486  16.1244  16.1244  16.3403  16.3403
    16.8681  16.8681  17.0274  17.0274  17.9893

          k = 0.0000-0.4725 0.0000 ( 62212 PWs)   bands (ev):

   -66.1314 -66.1314 -66.1306 -66.1306 -66.1305 -66.1305 -66.1298 -66.1297
   -30.5890 -30.5890 -30.5814 -30.5814 -30.5512 -30.5512 -30.5504 -30.5504
   -30.4887 -30.4887 -30.4886 -30.4886 -30.4570 -30.4570 -30.4503 -30.4503
   -30.3520 -30.3520 -30.3498 -30.3498 -30.3493 -30.3493 -30.3473 -30.3473
   -20.2889 -20.2889 -20.2882 -20.2882 -20.2874 -20.2874 -20.2868 -20.2868
   -20.2778 -20.2777 -20.2767 -20.2767 -20.2748 -20.2747 -20.2739 -20.2739
   -20.2668 -20.2668 -20.2657 -20.2656 -20.2646 -20.2646 -20.2634 -20.2634
   -20.2597 -20.2597 -20.2596 -20.2595 -20.2562 -20.2562 -20.2556 -20.2556
   -20.2469 -20.2469 -20.2466 -20.2466 -20.2443 -20.2443 -20.2441 -20.2441
   -20.2434 -20.2434 -20.2433 -20.2433 -20.2431 -20.2430 -20.2430 -20.2430
   -20.2359 -20.2359 -20.2357 -20.2357 -20.2345 -20.2345 -20.2344 -20.2344
    -9.9492  -9.9492  -9.5485  -9.5485  -9.5339  -9.5339  -9.1694  -9.1694
    -8.1689  -8.1689  -8.1015  -8.1015  -8.0855  -8.0854  -8.0607  -8.0606
    -7.9056  -7.9056  -7.8500  -7.8500  -7.8451  -7.8451  -7.7931  -7.7931
     0.8816   0.8816   1.0543   1.0543   1.0981   1.0981   1.3057   1.3057
     2.2258   2.2258   3.0353   3.0353   3.0602   3.0602   3.0967   3.0967
     3.1132   3.1132   3.4462   3.4462   3.6804   3.6804   3.7094   3.7094
     3.8994   3.8995   4.4123   4.4123   4.4137   4.4137   5.5152   5.5152
     5.5462   5.5462   5.5954   5.5954   5.6881   5.6881   5.8720   5.8720
     5.9541   5.9541   5.9626   5.9626   6.0173   6.0173   6.0632   6.0632
     6.1930   6.1930   6.3782   6.3782   6.5914   6.5914   6.6916   6.6916
     6.9051   6.9051   6.9609   6.9609   7.0200   7.0200   7.6476   7.6476
     7.6617   7.6617   7.6706   7.6706   7.7143   7.7143   8.2938   8.2938
     9.3557   9.3557  11.1455  11.1455  11.1843  11.1843  11.3158  11.3158
    11.3948  11.3948  12.7884  12.7884  12.9333  12.9333  13.3210  13.3210
    13.4946  13.4946  13.7255  13.7255  13.7701  13.7701  14.2264  14.2265
    14.7673  14.7673  15.2323  15.2323  15.3309  15.3309  15.4757  15.4757
    16.1651  16.1651  17.7784  17.7784  17.8944

          k = 0.0000-0.4725 0.1667 ( 62246 PWs)   bands (ev):

   -66.1313 -66.1313 -66.1306 -66.1306 -66.1305 -66.1305 -66.1298 -66.1298
   -30.5883 -30.5883 -30.5819 -30.5819 -30.5455 -30.5455 -30.5441 -30.5441
   -30.4895 -30.4895 -30.4882 -30.4882 -30.4636 -30.4636 -30.4564 -30.4564
   -30.3517 -30.3517 -30.3496 -30.3495 -30.3493 -30.3493 -30.3473 -30.3473
   -20.2888 -20.2888 -20.2881 -20.2881 -20.2875 -20.2875 -20.2869 -20.2869
   -20.2777 -20.2777 -20.2767 -20.2767 -20.2747 -20.2747 -20.2739 -20.2739
   -20.2666 -20.2666 -20.2655 -20.2655 -20.2647 -20.2647 -20.2635 -20.2635
   -20.2597 -20.2597 -20.2596 -20.2596 -20.2562 -20.2561 -20.2557 -20.2557
   -20.2468 -20.2468 -20.2465 -20.2465 -20.2446 -20.2446 -20.2444 -20.2444
   -20.2433 -20.2433 -20.2433 -20.2433 -20.2430 -20.2430 -20.2429 -20.2429
   -20.2358 -20.2358 -20.2356 -20.2356 -20.2346 -20.2346 -20.2345 -20.2345
    -9.8975  -9.8974  -9.5589  -9.5589  -9.4442  -9.4442  -9.1291  -9.1291
    -8.1992  -8.1992  -8.1317  -8.1317  -8.0862  -8.0862  -8.0666  -8.0665
    -7.9501  -7.9501  -7.9036  -7.9036  -7.8912  -7.8912  -7.8524  -7.8524
     0.9820   0.9820   1.0952   1.0952   1.3191   1.3191   1.4809   1.4809
     2.3127   2.3127   3.0249   3.0249   3.0568   3.0568   3.1194   3.1194
     3.1856   3.1856   3.4350   3.4350   3.6808   3.6808   3.7282   3.7282
     3.9102   3.9102   4.1130   4.1130   4.4858   4.4858   5.2763   5.2763
     5.3695   5.3695   5.4929   5.4929   5.5911   5.5911   5.7010   5.7010
     5.7274   5.7275   5.8668   5.8668   5.9597   5.9597   5.9984   5.9984
     6.4025   6.4025   6.5172   6.5172   6.6117   6.6117   6.7870   6.7870
     6.8291   6.8291   6.9855   6.9855   7.0811   7.0811   7.6453   7.6453
     7.6607   7.6607   7.6749   7.6749   7.7087   7.7087   8.2253   8.2253
     9.6949   9.6949  11.2512  11.2512  11.2935  11.2935  11.3325  11.3325
    11.4338  11.4338  12.7150  12.7150  12.8441  12.8441  13.3545  13.3545
    13.4907  13.4907  13.5240  13.5241  13.5693  13.5693  14.0876  14.0876
    14.9852  14.9853  15.3956  15.3956  15.4505  15.4505  15.7201  15.7201
    16.2623  16.2623  17.7047  17.7049  17.8209

          k = 0.0000-0.4725 0.3333 ( 62268 PWs)   bands (ev):

   -66.1312 -66.1312 -66.1308 -66.1308 -66.1303 -66.1303 -66.1300 -66.1299
   -30.5866 -30.5866 -30.5830 -30.5830 -30.5294 -30.5294 -30.5274 -30.5274
   -30.4936 -30.4936 -30.4865 -30.4865 -30.4814 -30.4814 -30.4711 -30.4711
   -30.3510 -30.3510 -30.3496 -30.3495 -30.3489 -30.3489 -30.3475 -30.3475
   -20.2886 -20.2886 -20.2879 -20.2879 -20.2878 -20.2878 -20.2872 -20.2872
   -20.2774 -20.2774 -20.2769 -20.2769 -20.2745 -20.2745 -20.2741 -20.2741
   -20.2662 -20.2662 -20.2651 -20.2651 -20.2651 -20.2651 -20.2639 -20.2639
   -20.2596 -20.2596 -20.2596 -20.2596 -20.2561 -20.2560 -20.2558 -20.2558
   -20.2465 -20.2465 -20.2462 -20.2462 -20.2453 -20.2453 -20.2450 -20.2450
   -20.2432 -20.2432 -20.2431 -20.2431 -20.2430 -20.2430 -20.2429 -20.2429
   -20.2356 -20.2355 -20.2354 -20.2354 -20.2348 -20.2348 -20.2347 -20.2347
    -9.7772  -9.7772  -9.5939  -9.5939  -9.1887  -9.1887  -8.9873  -8.9873
    -8.4179  -8.4179  -8.3610  -8.3610  -8.0900  -8.0900  -8.0760  -8.0760
    -8.0417  -8.0417  -8.0157  -8.0157  -7.8893  -7.8893  -7.8625  -7.8625
     1.0566   1.0566   1.0883   1.0883   2.0175   2.0175   2.1310   2.1310
     2.5605   2.5605   2.9967   2.9968   3.0672   3.0672   3.1731   3.1731
     3.2970   3.2970   3.3997   3.3997   3.5785   3.5785   3.6579   3.6579
     3.7636   3.7636   3.8982   3.8982   4.5973   4.5973   4.7635   4.7635
     4.8543   4.8543   5.0087   5.0087   5.0461   5.0461   5.3422   5.3422
     5.7792   5.7792   5.8400   5.8400   5.9934   5.9934   6.0290   6.0290
     6.4251   6.4251   6.5125   6.5125   6.5915   6.5915   6.6105   6.6105
     7.0255   7.0255   7.3542   7.3542   7.3793   7.3793   7.6161   7.6161
     7.6568   7.6569   7.6793   7.6793   7.6875   7.6875   8.0197   8.0197
    10.4487  10.4487  11.3225  11.3225  11.3323  11.3323  11.6966  11.6966
    11.7575  11.7575  12.1388  12.1388  12.9797  12.9798  13.0141  13.0142
    13.0158  13.0158  13.4351  13.4351  13.4857  13.4857  13.7457  13.7457
    15.2309  15.2309  15.4215  15.4215  16.0092  16.0092  16.5670  16.5670
    16.6347  16.6347  17.1636  17.1637  17.7601

          k = 0.0000-0.4725-0.5000 ( 62284 PWs)   bands (ev):

   -66.1310 -66.1310 -66.1310 -66.1310 -66.1301 -66.1301 -66.1301 -66.1301
   -30.5847 -30.5847 -30.5847 -30.5847 -30.5078 -30.5078 -30.5078 -30.5078
   -30.5048 -30.5048 -30.5048 -30.5048 -30.4826 -30.4825 -30.4825 -30.4825
   -30.3502 -30.3502 -30.3502 -30.3502 -30.3481 -30.3481 -30.3481 -30.3481
   -20.2882 -20.2882 -20.2882 -20.2882 -20.2876 -20.2876 -20.2875 -20.2875
   -20.2772 -20.2772 -20.2772 -20.2772 -20.2743 -20.2743 -20.2743 -20.2743
   -20.2657 -20.2657 -20.2656 -20.2656 -20.2645 -20.2645 -20.2645 -20.2645
   -20.2596 -20.2596 -20.2596 -20.2596 -20.2559 -20.2559 -20.2559 -20.2559
   -20.2459 -20.2459 -20.2459 -20.2459 -20.2457 -20.2457 -20.2457 -20.2457
   -20.2431 -20.2431 -20.2430 -20.2430 -20.2430 -20.2429 -20.2429 -20.2429
   -20.2352 -20.2352 -20.2352 -20.2352 -20.2350 -20.2350 -20.2350 -20.2350
    -9.6638  -9.6638  -9.6638  -9.6638  -8.8138  -8.8138  -8.8138  -8.8138
    -8.7138  -8.7138  -8.7138  -8.7138  -8.0859  -8.0859  -8.0859  -8.0859
    -8.0429  -8.0429  -8.0429  -8.0429  -7.8761  -7.8761  -7.8761  -7.8761
     1.0782   1.0782   1.0782   1.0782   2.8008   2.8008   2.8008   2.8008
     2.8356   2.8356   2.8356   2.8356   3.1202   3.1202   3.1202   3.1202
     3.1660   3.1660   3.1661   3.1661   3.4855   3.4855   3.4855   3.4855
     3.6983   3.6983   3.6983   3.6983   4.5480   4.5480   4.5480   4.5480
     4.6170   4.6170   4.6170   4.6170   5.0757   5.0757   5.0757   5.0757
     5.8113   5.8113   5.8114   5.8114   6.0385   6.0385   6.0385   6.0385
     6.3609   6.3609   6.3609   6.3609   6.6006   6.6006   6.6006   6.6006
     7.4762   7.4762   7.4762   7.4762   7.5728   7.5728   7.5728   7.5729
     7.5782   7.5782   7.5782   7.5782   7.7684   7.7684   7.7684   7.7684
    11.2515  11.2515  11.2515  11.2515  11.4054  11.4054  11.4055  11.4055
    12.3005  12.3005  12.3005  12.3005  12.3610  12.3610  12.3610  12.3610
    13.3027  13.3027  13.3027  13.3027  13.5004  13.5004  13.5004  13.5004
    15.3546  15.3546  15.3546  15.3546  16.6079  16.6080  16.6080  16.6080
    17.3623  17.3623  17.3623  17.3623  17.4172

          k = 0.1667 0.0000 0.1667 ( 62234 PWs)   bands (ev):

   -66.1315 -66.1310 -66.1308 -66.1307 -66.1304 -66.1303 -66.1301 -66.1297
   -30.5837 -30.5812 -30.5772 -30.5743 -30.5468 -30.5454 -30.5440 -30.5429
   -30.4965 -30.4958 -30.4945 -30.4934 -30.4642 -30.4626 -30.4579 -30.4568
   -30.3799 -30.3775 -30.3769 -30.3747 -30.3227 -30.3213 -30.3209 -30.3195
   -20.2888 -20.2888 -20.2882 -20.2881 -20.2875 -20.2875 -20.2870 -20.2869
   -20.2775 -20.2774 -20.2766 -20.2765 -20.2749 -20.2748 -20.2741 -20.2741
   -20.2666 -20.2665 -20.2656 -20.2655 -20.2647 -20.2646 -20.2637 -20.2636
   -20.2598 -20.2596 -20.2592 -20.2591 -20.2567 -20.2563 -20.2561 -20.2557
   -20.2469 -20.2469 -20.2467 -20.2466 -20.2463 -20.2462 -20.2456 -20.2455
   -20.2444 -20.2442 -20.2438 -20.2436 -20.2407 -20.2406 -20.2406 -20.2406
   -20.2358 -20.2358 -20.2356 -20.2356 -20.2347 -20.2346 -20.2345 -20.2344
    -9.9793  -9.7408  -9.5892  -9.5692  -9.3988  -9.3884  -9.1078  -9.0841
    -8.7441  -8.5725  -8.5620  -8.5236  -8.0739  -8.0327  -8.0058  -7.9981
    -7.9732  -7.9679  -7.9313  -7.9223  -7.4968  -7.4443  -7.4361  -7.3874
     1.1442   1.1498   1.3139   1.3168   1.3444   1.3594   1.5084   1.5947
     1.8320   1.8565   1.8756   1.8775   2.3542   2.4420   2.6352   2.6446
     2.6854   2.7091   3.8453   3.8607   3.9956   4.0384   4.2089   4.2259
     4.2455   4.2458   4.7588   4.7674   4.9173   4.9714   5.0684   5.2652
     5.3194   5.4014   5.4691   5.4708   5.6044   5.6123   5.6676   5.7741
     5.8185   5.8660   5.9040   6.0671   6.0698   6.1923   6.2813   6.2993
     6.3359   6.5373   6.5825   6.6126   6.6725   6.6968   6.7452   6.8215
     6.9170   6.9200   6.9349   6.9538   6.9692   6.9861   7.0822   7.1023
     7.1178   7.1547   8.1459   8.1613   8.2333   8.2639   8.3928   8.4220
     9.9168   9.9371  10.1118  10.1701  10.2712  10.2993  12.3993  12.4382
    12.5890  12.5901  12.6207  12.6505  12.7607  12.7702  12.9827  13.0689
    13.2489  13.2726  13.5710  13.6144  13.8932  13.9578  14.0149  14.0557
    14.2373  14.2704  14.6002  14.8879  15.2000  15.2363  15.2769  16.1298
    16.2174  16.8737  16.8882  16.9827  17.3754

          k = 0.1667 0.0000 0.3333 ( 62265 PWs)   bands (ev):

   -66.1313 -66.1309 -66.1309 -66.1306 -66.1305 -66.1302 -66.1302 -66.1298
   -30.5820 -30.5792 -30.5784 -30.5755 -30.5308 -30.5287 -30.5283 -30.5264
   -30.4993 -30.4982 -30.4937 -30.4916 -30.4819 -30.4802 -30.4733 -30.4727
   -30.3791 -30.3772 -30.3767 -30.3750 -30.3222 -30.3210 -30.3207 -30.3196
   -20.2885 -20.2885 -20.2879 -20.2879 -20.2878 -20.2878 -20.2873 -20.2872
   -20.2773 -20.2772 -20.2767 -20.2767 -20.2747 -20.2747 -20.2743 -20.2742
   -20.2662 -20.2661 -20.2652 -20.2651 -20.2651 -20.2650 -20.2641 -20.2640
   -20.2597 -20.2597 -20.2592 -20.2591 -20.2566 -20.2564 -20.2561 -20.2558
   -20.2469 -20.2467 -20.2466 -20.2465 -20.2464 -20.2462 -20.2451 -20.2451
   -20.2450 -20.2449 -20.2441 -20.2440 -20.2406 -20.2406 -20.2406 -20.2405
   -20.2355 -20.2355 -20.2354 -20.2353 -20.2349 -20.2347 -20.2347 -20.2346
    -9.8503  -9.6338  -9.6086  -9.4291  -9.3385  -9.1302  -8.9851  -8.9519
    -8.8244  -8.6143  -8.5299  -8.5070  -8.3303  -8.2964  -8.2581  -8.2181
    -8.0345  -8.0150  -8.0063  -7.9834  -7.4861  -7.4557  -7.4264  -7.3980
     1.2955   1.3092   1.3390   1.3514   1.7418   1.7943   1.8272   1.8514
     2.0276   2.0643   2.1491   2.2060   2.5960   2.6127   2.6544   2.7367
     2.9002   2.9149   3.5258   3.6707   3.6848   3.9458   3.9652   3.9694
     4.2670   4.3198   4.4247   4.4886   4.6801   4.7366   4.7409   4.8399
     5.0489   5.0675   5.1090   5.1991   5.2874   5.3063   5.5947   5.7116
     5.7379   5.8433   5.8522   5.9974   6.0328   6.1118   6.2598   6.3239
     6.4300   6.4782   6.5845   6.6039   6.6059   6.7588   6.7992   6.8104
     6.9224   6.9382   6.9831   7.0129   7.0558   7.0626   7.1173   7.2018
     7.4357   7.4760   7.9504   7.9609   8.2265   8.2371   8.2392   8.2762
    10.2027  10.2745  10.5951  10.6080  10.9009  10.9542  12.1755  12.1988
    12.5740  12.5930  12.6317  12.6488  12.6726  12.7000  12.8059  12.8382
    13.0161  13.0794  13.5491  13.5497  13.5885  13.6090  13.6218  13.6640
    14.4337  14.5872  14.6638  15.1814  15.2993  15.7023  15.8283  16.1713
    16.3960  17.1530  17.2908  17.4066  17.4155

          k = 0.1667 0.0000-0.5000 ( 62322 PWs)   bands (ev):

   -66.1311 -66.1311 -66.1307 -66.1307 -66.1304 -66.1304 -66.1300 -66.1300
   -30.5801 -30.5801 -30.5772 -30.5772 -30.5103 -30.5103 -30.5092 -30.5092
   -30.5056 -30.5056 -30.5037 -30.5037 -30.4880 -30.4880 -30.4868 -30.4868
   -30.3780 -30.3780 -30.3757 -30.3757 -30.3215 -30.3215 -30.3201 -30.3201
   -20.2882 -20.2882 -20.2882 -20.2881 -20.2876 -20.2876 -20.2876 -20.2876
   -20.2770 -20.2770 -20.2769 -20.2769 -20.2745 -20.2745 -20.2744 -20.2744
   -20.2656 -20.2656 -20.2655 -20.2655 -20.2646 -20.2646 -20.2645 -20.2645
   -20.2597 -20.2597 -20.2591 -20.2591 -20.2565 -20.2565 -20.2559 -20.2559
   -20.2468 -20.2467 -20.2466 -20.2466 -20.2459 -20.2459 -20.2456 -20.2456
   -20.2446 -20.2446 -20.2445 -20.2445 -20.2406 -20.2406 -20.2405 -20.2405
   -20.2352 -20.2352 -20.2351 -20.2351 -20.2350 -20.2350 -20.2350 -20.2350
    -9.7195  -9.7195  -9.4933  -9.4933  -9.0386  -9.0386  -8.7723  -8.7723
    -8.7481  -8.7480  -8.6756  -8.6756  -8.4540  -8.4540  -8.4397  -8.4397
    -8.0246  -8.0246  -7.9982  -7.9982  -7.4711  -7.4711  -7.4124  -7.4124
     1.3208   1.3208   1.3461   1.3461   1.7984   1.7984   1.8296   1.8296
     2.6024   2.6024   2.7996   2.7997   2.8276   2.8276   2.9024   2.9024
     2.9958   2.9958   3.1721   3.1721   3.3469   3.3469   3.9435   3.9435
     4.0227   4.0227   4.0288   4.0288   4.7081   4.7081   4.7926   4.7927
     4.9061   4.9061   5.0018   5.0018   5.1334   5.1334   5.6380   5.6380
     5.7903   5.7903   5.8533   5.8533   6.0928   6.0928   6.3045   6.3045
     6.3796   6.3796   6.6271   6.6271   6.6677   6.6677   6.7324   6.7324
     6.9209   6.9209   6.9986   6.9986   7.0555   7.0555   7.6015   7.6015
     7.6118   7.6118   7.9153   7.9153   7.9371   7.9371   8.2486   8.2486
    10.2425  10.2425  11.4008  11.4008  11.4265  11.4265  11.7966  11.7966
    11.8268  11.8268  12.5928  12.5928  12.9748  12.9748  13.0898  13.0898
    13.1236  13.1236  13.1445  13.1445  13.2089  13.2089  13.6214  13.6214
    14.5396  14.5396  14.9903  14.9903  15.8061  15.8062  16.0111  16.0111
    16.7222  16.7222  17.5807  17.5807  17.8873

          k = 0.1667 0.1575 0.1667 ( 62255 PWs)   bands (ev):

   -66.1314 -66.1311 -66.1307 -66.1307 -66.1304 -66.1304 -66.1300 -66.1297
   -30.5836 -30.5814 -30.5770 -30.5745 -30.5466 -30.5452 -30.5442 -30.5430
   -30.4964 -30.4957 -30.4946 -30.4935 -30.4640 -30.4626 -30.4578 -30.4568
   -30.3761 -30.3738 -30.3732 -30.3711 -30.3266 -30.3251 -30.3247 -30.3232
   -20.2888 -20.2888 -20.2882 -20.2881 -20.2875 -20.2875 -20.2870 -20.2869
   -20.2775 -20.2774 -20.2766 -20.2765 -20.2749 -20.2749 -20.2741 -20.2741
   -20.2666 -20.2665 -20.2656 -20.2655 -20.2647 -20.2646 -20.2637 -20.2636
   -20.2597 -20.2596 -20.2592 -20.2591 -20.2567 -20.2563 -20.2562 -20.2557
   -20.2469 -20.2468 -20.2467 -20.2466 -20.2460 -20.2459 -20.2453 -20.2453
   -20.2444 -20.2442 -20.2438 -20.2436 -20.2410 -20.2410 -20.2410 -20.2410
   -20.2358 -20.2358 -20.2356 -20.2356 -20.2347 -20.2346 -20.2345 -20.2344
    -9.9579  -9.7524  -9.5695  -9.5499  -9.4069  -9.3957  -9.1062  -9.0857
    -8.6750  -8.5196  -8.5093  -8.4716  -8.0757  -8.0344  -8.0040  -8.0011
    -7.9718  -7.9708  -7.9294  -7.9246  -7.5850  -7.5381  -7.5305  -7.4873
     1.1446   1.1494   1.3144   1.3165   1.3478   1.3588   1.5458   1.5936
     2.0127   2.0519   2.0786   2.1430   2.3638   2.4391   2.7018   2.7177
     2.7546   2.7825   3.7433   3.7567   3.8842   3.9041   4.1852   4.2021
     4.2122   4.2212   4.6606   4.8271   4.9697   5.0246   5.0338   5.2143
     5.2551   5.3069   5.3453   5.3711   5.5105   5.5739   5.6020   5.6645
     5.6905   5.9190   5.9765   6.0238   6.0768   6.0937   6.2810   6.2912
     6.3562   6.4513   6.5784   6.5913   6.6379   6.6915   6.7799   6.8251
     6.8693   6.9126   6.9225   6.9270   6.9942   7.0311   7.0793   7.1114
     7.1546   7.1796   8.1476   8.1535   8.1877   8.2155   8.3077   8.3388
     9.9264   9.9356  10.2717  10.3321  10.4236  10.4694  12.2533  12.2902
    12.4320  12.4372  12.6233  12.6483  12.7615  12.7709  13.0179  13.1033
    13.2802  13.3006  13.6449  13.6588  13.8996  13.9161  13.9631  13.9933
    14.4175  14.5553  14.7718  15.0016  15.2021  15.2297  15.6830  16.0946
    16.1769  16.5856  16.9961  17.0744  17.3681

          k = 0.1667 0.1575 0.3333 ( 62260 PWs)   bands (ev):

   -66.1313 -66.1309 -66.1309 -66.1306 -66.1305 -66.1302 -66.1302 -66.1298
   -30.5818 -30.5794 -30.5782 -30.5756 -30.5306 -30.5285 -30.5285 -30.5265
   -30.4992 -30.4982 -30.4935 -30.4917 -30.4818 -30.4803 -30.4733 -30.4727
   -30.3753 -30.3735 -30.3730 -30.3713 -30.3260 -30.3248 -30.3245 -30.3234
   -20.2885 -20.2885 -20.2879 -20.2879 -20.2878 -20.2878 -20.2873 -20.2872
   -20.2773 -20.2772 -20.2767 -20.2767 -20.2747 -20.2747 -20.2743 -20.2742
   -20.2662 -20.2661 -20.2652 -20.2651 -20.2650 -20.2650 -20.2641 -20.2640
   -20.2597 -20.2596 -20.2592 -20.2591 -20.2566 -20.2564 -20.2561 -20.2558
   -20.2467 -20.2466 -20.2465 -20.2463 -20.2462 -20.2461 -20.2451 -20.2450
   -20.2449 -20.2448 -20.2441 -20.2439 -20.2410 -20.2409 -20.2409 -20.2409
   -20.2355 -20.2355 -20.2354 -20.2353 -20.2349 -20.2347 -20.2347 -20.2346
    -9.8279  -9.6213  -9.6114  -9.4378  -9.3141  -9.1375  -8.9822  -8.9537
    -8.7627  -8.5704  -8.4823  -8.4574  -8.3368  -8.3012  -8.2476  -8.2080
    -8.0322  -8.0169  -8.0055  -7.9860  -7.5754  -7.5477  -7.5218  -7.4958
     1.3001   1.3109   1.3412   1.3510   1.9091   1.9430   2.0229   2.0421
     2.0726   2.1299   2.1480   2.2639   2.6206   2.6425   2.7196   2.7551
     2.9651   2.9836   3.5152   3.6177   3.6810   3.8405   3.8573   3.8937
     4.3184   4.3538   4.4031   4.4971   4.6237   4.6880   4.7510   4.8255
     4.9757   5.0216   5.0651   5.0817   5.1294   5.2319   5.4754   5.5796
     5.6667   5.8089   5.8209   5.8907   5.9693   6.1121   6.1548   6.1719
     6.3220   6.5299   6.5963   6.6475   6.7094   6.7784   6.8194   6.8334
     6.9026   6.9310   7.0491   7.0546   7.0668   7.1121   7.1384   7.2330
     7.4332   7.4743   7.9541   7.9555   8.1649   8.1775   8.1926   8.2220
    10.3707  10.4427  10.5968  10.6169  10.9883  11.0423  12.1779  12.1960
    12.4222  12.4337  12.5213  12.5619  12.6757  12.6985  12.8096  12.8384
    13.0523  13.1072  13.4793  13.5218  13.5638  13.5793  13.6638  13.6947
    14.6223  14.7450  15.0290  15.3892  15.5873  15.6919  15.8499  16.1354
    16.4882  17.0048  17.1086  17.4039  17.4884

          k = 0.1667 0.1575-0.5000 ( 62292 PWs)   bands (ev):

   -66.1311 -66.1311 -66.1307 -66.1307 -66.1304 -66.1304 -66.1300 -66.1300
   -30.5799 -30.5799 -30.5774 -30.5774 -30.5102 -30.5102 -30.5092 -30.5092
   -30.5055 -30.5055 -30.5038 -30.5038 -30.4879 -30.4879 -30.4868 -30.4868
   -30.3743 -30.3743 -30.3721 -30.3721 -30.3253 -30.3253 -30.3239 -30.3239
   -20.2882 -20.2882 -20.2882 -20.2882 -20.2876 -20.2876 -20.2876 -20.2876
   -20.2770 -20.2770 -20.2769 -20.2769 -20.2745 -20.2745 -20.2744 -20.2744
   -20.2656 -20.2656 -20.2655 -20.2655 -20.2646 -20.2646 -20.2646 -20.2645
   -20.2597 -20.2597 -20.2592 -20.2592 -20.2565 -20.2565 -20.2560 -20.2560
   -20.2466 -20.2465 -20.2464 -20.2464 -20.2458 -20.2458 -20.2456 -20.2456
   -20.2445 -20.2445 -20.2444 -20.2443 -20.2409 -20.2409 -20.2409 -20.2409
   -20.2352 -20.2352 -20.2351 -20.2351 -20.2350 -20.2350 -20.2350 -20.2350
    -9.6973  -9.6973  -9.5033  -9.5033  -8.9992  -8.9992  -8.7588  -8.7587
    -8.7551  -8.7551  -8.6787  -8.6787  -8.4159  -8.4159  -8.4062  -8.4062
    -8.0228  -8.0228  -8.0008  -8.0008  -7.5616  -7.5616  -7.5088  -7.5088
     1.3273   1.3273   1.3445   1.3445   1.9932   1.9932   2.0620   2.0621
     2.6606   2.6606   2.8182   2.8182   2.8463   2.8464   2.8995   2.8995
     2.9970   2.9970   3.1893   3.1893   3.3363   3.3363   3.8490   3.8490
     4.0505   4.0505   4.0839   4.0839   4.5870   4.5870   4.7550   4.7550
     4.8566   4.8566   4.9502   4.9503   5.0156   5.0156   5.6002   5.6002
     5.6441   5.6441   5.7254   5.7255   6.0224   6.0224   6.1345   6.1345
     6.4563   6.4563   6.6480   6.6480   6.6929   6.6929   6.8804   6.8805
     6.8925   6.8925   7.0391   7.0391   7.0905   7.0905   7.5965   7.5965
     7.6202   7.6202   7.8843   7.8843   7.9026   7.9027   8.2012   8.2012
    10.4139  10.4139  11.4025  11.4025  11.4253  11.4253  11.8460  11.8460
    11.8750  11.8750  12.4450  12.4450  12.9300  12.9300  12.9844  12.9844
    13.0742  13.0742  13.1434  13.1434  13.2150  13.2150  13.6738  13.6738
    14.7122  14.7122  15.3787  15.3787  15.8978  15.8978  15.9843  15.9843
    16.7737  16.7737  17.4326  17.4326  17.8579

          k = 0.1667 0.3150 0.1667 ( 62249 PWs)   bands (ev):

   -66.1314 -66.1311 -66.1307 -66.1306 -66.1305 -66.1304 -66.1300 -66.1298
   -30.5831 -30.5818 -30.5765 -30.5750 -30.5461 -30.5447 -30.5447 -30.5435
   -30.4960 -30.4955 -30.4947 -30.4939 -30.4637 -30.4629 -30.4576 -30.4570
   -30.3657 -30.3636 -30.3631 -30.3611 -30.3371 -30.3354 -30.3350 -30.3334
   -20.2888 -20.2888 -20.2882 -20.2881 -20.2875 -20.2875 -20.2870 -20.2870
   -20.2775 -20.2775 -20.2766 -20.2765 -20.2749 -20.2749 -20.2741 -20.2741
   -20.2666 -20.2665 -20.2656 -20.2656 -20.2647 -20.2646 -20.2636 -20.2636
   -20.2596 -20.2595 -20.2593 -20.2592 -20.2566 -20.2563 -20.2561 -20.2558
   -20.2468 -20.2467 -20.2466 -20.2465 -20.2452 -20.2451 -20.2445 -20.2445
   -20.2444 -20.2442 -20.2436 -20.2435 -20.2420 -20.2420 -20.2419 -20.2419
   -20.2358 -20.2358 -20.2356 -20.2356 -20.2346 -20.2345 -20.2345 -20.2345
    -9.9039  -9.7865  -9.5225  -9.5042  -9.4312  -9.4179  -9.1019  -9.0901
    -8.4841  -8.3629  -8.3530  -8.3167  -8.0957  -8.0432  -8.0115  -8.0038
    -7.9812  -7.9653  -7.9326  -7.9227  -7.7991  -7.7672  -7.7635  -7.7308
     1.1455   1.1482   1.3150   1.3162   1.3518   1.3571   1.5744   1.5905
     2.3734   2.4201   2.5441   2.6074   2.6567   2.7134   2.9120   2.9347
     3.0172   3.0652   3.4682   3.4784   3.5790   3.5907   4.1463   4.1622
     4.1793   4.1989   4.2153   4.5837   4.5885   4.9177   5.0266   5.1419
     5.1565   5.1938   5.3151   5.3296   5.3785   5.3959   5.5579   5.5707
     5.6246   5.6397   5.8392   5.8555   5.9425   5.9776   6.0529   6.0785
     6.4134   6.4740   6.5673   6.5866   6.6224   6.7797   6.8547   6.8833
     6.9124   6.9435   6.9639   7.0449   7.0816   7.1070   7.2389   7.2450
     7.3208   7.3222   7.9987   8.0138   8.0582   8.0783   8.1543   8.1747
     9.9349   9.9389  10.7033  10.7632  10.8601  10.9070  11.8480  11.8905
    12.0210  12.0328  12.6287  12.6440  12.7656  12.7712  13.1241  13.2040
    13.3640  13.3884  13.5373  13.5734  13.7298  13.7674  13.9431  13.9688
    14.9706  15.1357  15.1708  15.2235  15.3157  15.5026  15.9670  16.0390
    16.0623  16.6693  17.0374  17.3335  17.3895

          k = 0.1667 0.3150 0.3333 ( 62265 PWs)   bands (ev):

   -66.1312 -66.1310 -66.1308 -66.1306 -66.1305 -66.1303 -66.1301 -66.1299
   -30.5813 -30.5799 -30.5777 -30.5762 -30.5302 -30.5289 -30.5281 -30.5269
   -30.4990 -30.4984 -30.4931 -30.4921 -30.4814 -30.4806 -30.4731 -30.4728
   -30.3650 -30.3633 -30.3629 -30.3613 -30.3365 -30.3352 -30.3348 -30.3336
   -20.2885 -20.2885 -20.2879 -20.2879 -20.2878 -20.2878 -20.2872 -20.2872
   -20.2773 -20.2772 -20.2767 -20.2767 -20.2747 -20.2747 -20.2743 -20.2743
   -20.2661 -20.2661 -20.2652 -20.2652 -20.2650 -20.2650 -20.2640 -20.2640
   -20.2596 -20.2595 -20.2593 -20.2592 -20.2565 -20.2563 -20.2562 -20.2559
   -20.2465 -20.2465 -20.2463 -20.2462 -20.2456 -20.2455 -20.2451 -20.2449
   -20.2443 -20.2442 -20.2438 -20.2436 -20.2419 -20.2419 -20.2418 -20.2418
   -20.2355 -20.2355 -20.2354 -20.2353 -20.2348 -20.2348 -20.2347 -20.2347
    -9.7721  -9.6538  -9.5623  -9.4640  -9.2577  -9.1603  -8.9751  -8.9590
    -8.6033  -8.4567  -8.3651  -8.3346  -8.3184  -8.3081  -8.1988  -8.1657
    -8.0291  -8.0265  -8.0010  -7.9947  -7.7955  -7.7739  -7.7591  -7.7375
     1.3050   1.3105   1.3446   1.3496   2.0058   2.0236   2.1062   2.1432
     2.5514   2.5923   2.6135   2.6478   2.6746   2.7325   2.9181   2.9375
     3.1875   3.2117   3.4306   3.4576   3.5637   3.6029   3.6762   3.7316
     4.1350   4.3440   4.3498   4.4543   4.5260   4.5427   4.6182   4.7369
     4.7478   4.8143   4.9919   5.0754   5.0871   5.1631   5.1911   5.2217
     5.4546   5.5606   5.5992   5.6329   5.7757   5.8160   5.8799   5.8925
     6.4571   6.5395   6.6848   6.7455   6.7704   6.8043   6.8992   6.9336
     6.9899   7.0817   7.1785   7.2115   7.2473   7.2712   7.3417   7.3821
     7.4172   7.4606   7.9159   7.9628   7.9727   7.9828   8.0133   8.0613
    10.5796  10.5973  10.8600  10.8911  11.2595  11.3128  12.0044  12.0265
    12.1379  12.1989  12.2099  12.2263  12.7771  12.7992  12.8154  12.8524
    13.1511  13.2004  13.2502  13.2980  13.5185  13.5567  13.6001  13.6451
    15.1657  15.2487  15.6505  15.7360  15.8246  15.9294  16.0628  16.5216
    16.5590  16.7910  16.9496  17.3410  17.5705

          k = 0.1667 0.3150-0.5000 ( 62264 PWs)   bands (ev):

   -66.1310 -66.1310 -66.1308 -66.1308 -66.1303 -66.1303 -66.1301 -66.1301
   -30.5794 -30.5794 -30.5779 -30.5779 -30.5100 -30.5100 -30.5094 -30.5094
   -30.5051 -30.5051 -30.5041 -30.5041 -30.4877 -30.4876 -30.4871 -30.4871
   -30.3640 -30.3640 -30.3620 -30.3620 -30.3358 -30.3358 -30.3341 -30.3341
   -20.2882 -20.2882 -20.2882 -20.2882 -20.2876 -20.2876 -20.2876 -20.2876
   -20.2770 -20.2770 -20.2770 -20.2770 -20.2745 -20.2745 -20.2745 -20.2745
   -20.2656 -20.2656 -20.2656 -20.2656 -20.2646 -20.2646 -20.2646 -20.2646
   -20.2596 -20.2596 -20.2593 -20.2593 -20.2564 -20.2564 -20.2561 -20.2561
   -20.2462 -20.2462 -20.2460 -20.2460 -20.2458 -20.2458 -20.2456 -20.2456
   -20.2440 -20.2440 -20.2439 -20.2439 -20.2419 -20.2418 -20.2418 -20.2418
   -20.2352 -20.2352 -20.2351 -20.2351 -20.2350 -20.2350 -20.2350 -20.2350
    -9.6431  -9.6431  -9.5332  -9.5332  -8.9098  -8.9098  -8.7795  -8.7795
    -8.7299  -8.7299  -8.6882  -8.6882  -8.2990  -8.2990  -8.2815  -8.2815
    -8.0233  -8.0233  -8.0066  -8.0066  -7.7849  -7.7849  -7.7486  -7.7486
     1.3341   1.3341   1.3416   1.3416   2.5174   2.5174   2.5987   2.5987
     2.7911   2.7911   2.8728   2.8728   2.8956   2.8956   2.9498   2.9498
     3.0451   3.0451   3.2432   3.2432   3.3044   3.3044   3.5746   3.5746
     4.1306   4.1306   4.2164   4.2164   4.2616   4.2616   4.4221   4.4222
     4.7594   4.7594   4.8347   4.8347   5.0883   5.0883   5.1590   5.1590
     5.2685   5.2685   5.6469   5.6469   5.6788   5.6788   5.8783   5.8783
     6.5695   6.5695   6.6450   6.6450   6.7718   6.7718   6.9433   6.9433
     7.1695   7.1695   7.2589   7.2589   7.3135   7.3136   7.5749   7.5749
     7.6500   7.6500   7.7789   7.7789   7.7896   7.7896   8.0252   8.0252
    10.8572  10.8572  11.4026  11.4026  11.4264  11.4264  11.9408  11.9408
    12.0233  12.0233  12.1399  12.1399  12.6522  12.6522  12.7062  12.7062
    13.0961  13.0961  13.1480  13.1480  13.2611  13.2611  13.5871  13.5871
    15.2257  15.2257  15.8692  15.8692  16.2097  16.2097  16.3279  16.3279
    16.9651  16.9651  17.0895  17.0895  17.8453

          k = 0.1667-0.4725 0.1667 ( 62220 PWs)   bands (ev):

   -66.1313 -66.1312 -66.1306 -66.1306 -66.1305 -66.1305 -66.1299 -66.1299
   -30.5825 -30.5825 -30.5757 -30.5757 -30.5454 -30.5454 -30.5441 -30.5441
   -30.4957 -30.4957 -30.4944 -30.4944 -30.4633 -30.4633 -30.4572 -30.4572
   -30.3515 -30.3515 -30.3496 -30.3495 -30.3491 -30.3491 -30.3473 -30.3473
   -20.2888 -20.2888 -20.2882 -20.2881 -20.2875 -20.2875 -20.2870 -20.2870
   -20.2775 -20.2775 -20.2766 -20.2765 -20.2749 -20.2749 -20.2741 -20.2741
   -20.2666 -20.2665 -20.2656 -20.2656 -20.2647 -20.2646 -20.2636 -20.2636
   -20.2595 -20.2595 -20.2593 -20.2593 -20.2564 -20.2564 -20.2560 -20.2560
   -20.2468 -20.2467 -20.2465 -20.2465 -20.2446 -20.2446 -20.2444 -20.2444
   -20.2433 -20.2433 -20.2433 -20.2432 -20.2430 -20.2430 -20.2429 -20.2429
   -20.2358 -20.2358 -20.2356 -20.2356 -20.2346 -20.2346 -20.2345 -20.2345
    -9.8402  -9.8402  -9.4714  -9.4711  -9.4554  -9.4552  -9.0960  -9.0960
    -8.2371  -8.2360  -8.1360  -8.1338  -8.1294  -8.1246  -8.0778  -8.0771
    -7.9799  -7.9783  -7.9589  -7.9568  -7.9309  -7.9291  -7.8985  -7.8981
     1.1465   1.1469   1.3150   1.3162   1.3545   1.3549   1.5849   1.5852
     2.3982   2.4001   3.0295   3.0516   3.0628   3.0881   3.1077   3.1180
     3.2318   3.2320   3.4334   3.4394   3.6972   3.7077   3.7213   3.7285
     3.9072   3.9125   4.1758   4.1763   4.1997   4.2010   5.1737   5.2151
     5.2635   5.2742   5.3779   5.4174   5.4226   5.4304   5.5129   5.5154
     5.5798   5.5817   5.6353   5.6631   5.7187   5.7263   6.0443   6.0500
     6.4777   6.4811   6.5778   6.5816   6.7306   6.7328   6.8568   6.8662
     6.9155   6.9188   6.9852   7.0050   7.1360   7.1403   7.6430   7.6648
     7.6752   7.6775   7.6810   7.6877   7.7099   7.7099   8.1598   8.1623
     9.9372   9.9409  11.2594  11.2782  11.3050  11.3197  11.4347  11.4375
    11.5268  11.5296  12.6322  12.6412  12.7683  12.7701  13.2948  13.2975
    13.3844  13.3854  13.5195  13.5271  13.5573  13.5609  13.9547  13.9604
    15.1755  15.1806  15.5015  15.5059  15.6912  15.6978  15.7711  15.7786
    16.3287  16.3325  17.6976  17.6990  17.7328

          k = 0.1667-0.4725 0.3333 ( 62252 PWs)   bands (ev):

   -66.1311 -66.1311 -66.1307 -66.1307 -66.1304 -66.1304 -66.1300 -66.1300
   -30.5806 -30.5806 -30.5769 -30.5769 -30.5295 -30.5295 -30.5275 -30.5275
   -30.4987 -30.4987 -30.4926 -30.4926 -30.4810 -30.4810 -30.4729 -30.4729
   -30.3508 -30.3508 -30.3493 -30.3493 -30.3489 -30.3489 -30.3475 -30.3475
   -20.2885 -20.2885 -20.2879 -20.2879 -20.2878 -20.2878 -20.2872 -20.2872
   -20.2772 -20.2772 -20.2767 -20.2767 -20.2747 -20.2747 -20.2743 -20.2743
   -20.2661 -20.2661 -20.2652 -20.2652 -20.2650 -20.2650 -20.2640 -20.2640
   -20.2595 -20.2594 -20.2594 -20.2594 -20.2564 -20.2563 -20.2561 -20.2561
   -20.2465 -20.2464 -20.2463 -20.2462 -20.2453 -20.2452 -20.2451 -20.2450
   -20.2432 -20.2432 -20.2431 -20.2431 -20.2430 -20.2429 -20.2429 -20.2428
   -20.2355 -20.2355 -20.2354 -20.2354 -20.2348 -20.2348 -20.2347 -20.2347
    -9.7073  -9.7073  -9.5073  -9.5073  -9.2010  -9.2008  -8.9667  -8.9665
    -8.4410  -8.4402  -8.3585  -8.3577  -8.1257  -8.1202  -8.0923  -8.0816
    -8.0619  -8.0510  -8.0415  -8.0361  -7.9663  -7.9654  -7.9426  -7.9421
     1.3080   1.3084   1.3470   1.3477   2.0177   2.0193   2.1334   2.1339
     2.6455   2.6557   3.0032   3.0364   3.0797   3.0944   3.1626   3.1655
     3.3275   3.3297   3.4066   3.4088   3.6239   3.6602   3.6880   3.6935
     3.7516   3.7780   3.9101   3.9125   4.3770   4.3846   4.7360   4.7554
     4.7785   4.8306   4.9781   4.9836   5.0321   5.0353   5.1210   5.1338
     5.4201   5.4351   5.4646   5.4829   5.6552   5.6637   5.8196   5.8215
     6.5137   6.5147   6.7421   6.7567   6.8354   6.8430   6.8833   6.8859
     7.0270   7.0526   7.3514   7.3520   7.3887   7.3941   7.6220   7.6445
     7.6532   7.6613   7.6733   7.6788   7.7005   7.7079   7.9780   7.9818
    10.5903  10.5978  11.4136  11.4315  11.4419  11.4503  11.6937  11.7115
    11.7692  11.7736  12.1992  12.2035  12.8112  12.8239  12.9860  12.9897
    13.0181  13.0219  13.3202  13.3406  13.3837  13.3864  13.5904  13.6193
    15.5179  15.5197  15.6952  15.7078  16.1005  16.1186  16.5525  16.5687
    16.6578  16.6614  17.2178  17.2197  17.6999

          k = 0.1667-0.4725-0.5000 ( 62232 PWs)   bands (ev):

   -66.1309 -66.1309 -66.1309 -66.1309 -66.1302 -66.1302 -66.1302 -66.1302
   -30.5786 -30.5786 -30.5786 -30.5786 -30.5097 -30.5097 -30.5097 -30.5097
   -30.5046 -30.5046 -30.5046 -30.5046 -30.4874 -30.4874 -30.4873 -30.4873
   -30.3500 -30.3500 -30.3499 -30.3499 -30.3481 -30.3481 -30.3481 -30.3481
   -20.2882 -20.2882 -20.2882 -20.2882 -20.2876 -20.2876 -20.2876 -20.2876
   -20.2770 -20.2770 -20.2770 -20.2770 -20.2745 -20.2745 -20.2745 -20.2745
   -20.2656 -20.2656 -20.2656 -20.2656 -20.2646 -20.2646 -20.2646 -20.2646
   -20.2594 -20.2594 -20.2594 -20.2594 -20.2562 -20.2562 -20.2562 -20.2562
   -20.2460 -20.2459 -20.2459 -20.2459 -20.2457 -20.2457 -20.2457 -20.2457
   -20.2431 -20.2431 -20.2431 -20.2431 -20.2429 -20.2429 -20.2429 -20.2429
   -20.2352 -20.2352 -20.2352 -20.2351 -20.2350 -20.2350 -20.2350 -20.2350
    -9.5822  -9.5822  -9.5821  -9.5821  -8.8287  -8.8287  -8.8282  -8.8282
    -8.7052  -8.7052  -8.7047  -8.7047  -8.1107  -8.1107  -8.1103  -8.1103
    -8.0621  -8.0621  -8.0618  -8.0618  -7.9550  -7.9550  -7.9548  -7.9548
     1.3382   1.3382   1.3384   1.3384   2.8035   2.8035   2.8095   2.8095
     2.8406   2.8406   2.8429   2.8429   3.1478   3.1478   3.1567   3.1567
     3.2236   3.2236   3.2375   3.2375   3.4851   3.4851   3.5011   3.5011
     3.7166   3.7166   3.7244   3.7244   4.5308   4.5309   4.5409   4.5409
     4.5945   4.5945   4.5957   4.5957   4.8343   4.8343   4.8368   4.8368
     5.4317   5.4317   5.4510   5.4510   5.6911   5.6911   5.6978   5.6979
     6.6191   6.6191   6.6205   6.6205   6.8657   6.8657   6.8700   6.8700
     7.4620   7.4620   7.4894   7.4894   7.5643   7.5643   7.5757   7.5757
     7.5814   7.5814   7.5935   7.5935   7.7683   7.7683   7.7692   7.7692
    11.3266  11.3266  11.3673  11.3673  11.4914  11.4914  11.5321  11.5321
    12.3027  12.3027  12.3047  12.3047  12.3631  12.3631  12.3644  12.3644
    13.1167  13.1167  13.1503  13.1503  13.3820  13.3820  13.4151  13.4151
    15.6436  15.6436  15.6475  15.6475  16.6902  16.6902  16.6931  16.6931
    17.3553  17.3554  17.3607  17.3607  17.4208

          k = 0.3333 0.0000 0.3333 ( 62316 PWs)   bands (ev):

   -66.1312 -66.1308 -66.1308 -66.1307 -66.1304 -66.1304 -66.1303 -66.1300
   -30.5656 -30.5634 -30.5614 -30.5588 -30.5335 -30.5318 -30.5271 -30.5250
   -30.5152 -30.5135 -30.5085 -30.5071 -30.4808 -30.4791 -30.4766 -30.4753
   -30.3784 -30.3769 -30.3765 -30.3752 -30.3217 -30.3208 -30.3206 -30.3197
   -20.2884 -20.2884 -20.2881 -20.2880 -20.2877 -20.2876 -20.2874 -20.2873
   -20.2767 -20.2767 -20.2762 -20.2762 -20.2753 -20.2752 -20.2748 -20.2748
   -20.2660 -20.2659 -20.2654 -20.2653 -20.2649 -20.2648 -20.2643 -20.2642
   -20.2592 -20.2591 -20.2586 -20.2585 -20.2574 -20.2572 -20.2568 -20.2566
   -20.2468 -20.2467 -20.2466 -20.2465 -20.2463 -20.2462 -20.2451 -20.2450
   -20.2450 -20.2449 -20.2441 -20.2440 -20.2406 -20.2405 -20.2405 -20.2405
   -20.2355 -20.2354 -20.2354 -20.2353 -20.2348 -20.2348 -20.2347 -20.2346
    -9.6864  -9.4311  -9.4092  -9.3937  -9.1795  -9.1654  -8.9132  -8.8980
    -8.8745  -8.5765  -8.5737  -8.4930  -8.4451  -8.3326  -8.3003  -8.2819
    -8.2720  -8.2438  -8.2204  -8.2108  -7.4748  -7.4449  -7.4397  -7.4109
     1.7168   1.7546   1.7589   1.8238   1.8689   1.8827   2.0124   2.0388
     2.0817   2.0909   2.2834   2.3277   2.8101   2.8168   2.8566   2.8915
     2.9813   3.0143   3.5446   3.6357   3.6380   3.8135   3.9121   3.9500
     4.1089   4.1149   4.1909   4.2632   4.3279   4.3783   4.5000   4.5770
     4.6519   4.7427   4.9237   4.9237   4.9569   5.0808   5.2509   5.2571
     5.2815   5.5020   5.5450   5.8766   6.2094   6.2486   6.3124   6.3292
     6.4837   6.5390   6.6277   6.6481   6.7509   6.7901   6.7916   6.8003
     7.0071   7.0369   7.0791   7.1428   7.2065   7.2198   7.3091   7.4285
     7.4375   7.5924   7.8092   7.8144   8.1212   8.1296   8.2400   8.2631
    10.8287  10.9107  10.9566  10.9665  11.0337  11.0886  12.2686  12.2950
    12.4005  12.4056  12.4877  12.5600  12.6518  12.6698  12.6883  12.7357
    12.8168  12.8395  13.1845  13.2002  13.5388  13.5534  13.6147  13.6271
    14.4226  14.6202  14.6860  15.0910  15.6502  16.3963  16.3998  16.7175
    16.7930  17.0898  17.0958  17.5519  17.6225

          k = 0.3333 0.0000-0.5000 ( 62288 PWs)   bands (ev):

   -66.1310 -66.1310 -66.1306 -66.1306 -66.1305 -66.1305 -66.1301 -66.1301
   -30.5633 -30.5633 -30.5607 -30.5607 -30.5198 -30.5198 -30.5190 -30.5190
   -30.5045 -30.5045 -30.5026 -30.5026 -30.4964 -30.4964 -30.4959 -30.4959
   -30.3773 -30.3773 -30.3759 -30.3759 -30.3211 -30.3211 -30.3202 -30.3202
   -20.2881 -20.2881 -20.2880 -20.2880 -20.2877 -20.2877 -20.2877 -20.2877
   -20.2765 -20.2765 -20.2764 -20.2764 -20.2750 -20.2750 -20.2750 -20.2750
   -20.2654 -20.2654 -20.2653 -20.2653 -20.2648 -20.2648 -20.2647 -20.2647
   -20.2591 -20.2591 -20.2586 -20.2586 -20.2573 -20.2573 -20.2567 -20.2567
   -20.2467 -20.2467 -20.2466 -20.2466 -20.2458 -20.2458 -20.2457 -20.2457
   -20.2446 -20.2446 -20.2445 -20.2445 -20.2406 -20.2405 -20.2405 -20.2405
   -20.2351 -20.2351 -20.2351 -20.2351 -20.2350 -20.2350 -20.2350 -20.2350
    -9.5191  -9.5191  -9.2611  -9.2611  -9.1121  -9.1121  -8.7952  -8.7952
    -8.7167  -8.7167  -8.6492  -8.6491  -8.4625  -8.4625  -8.4441  -8.4441
    -8.3033  -8.3033  -8.2788  -8.2788  -7.4600  -7.4600  -7.4255  -7.4255
     1.7375   1.7375   1.8003   1.8003   2.0344   2.0344   2.0648   2.0648
     2.7699   2.7699   2.8038   2.8038   2.8293   2.8293   2.9345   2.9345
     3.0368   3.0369   3.4001   3.4001   3.5595   3.5595   3.7477   3.7477
     3.9967   3.9967   4.0202   4.0202   4.2203   4.2203   4.2874   4.2874
     4.4997   4.4997   4.7770   4.7770   4.8815   4.8815   5.0728   5.0728
     5.3299   5.3299   5.6665   5.6665   6.2623   6.2623   6.3475   6.3475
     6.5108   6.5108   6.6005   6.6005   6.7263   6.7263   6.7603   6.7603
     7.0683   7.0683   7.1877   7.1877   7.3905   7.3905   7.5379   7.5379
     7.5831   7.5831   7.9101   7.9101   7.9432   7.9432   8.1449   8.1449
[...]
   -20.4572 -20.4572 -20.4567 -20.4567 -20.4561 -20.4561 -20.4559 -20.4559
   -20.4479 -20.4479 -20.4478 -20.4478 -20.4469 -20.4469 -20.4467 -20.4467
    -9.6638  -9.6638  -9.4561  -9.4560  -9.1711  -9.1711  -8.8277  -8.8277
    -8.7782  -8.7782  -8.6624  -8.6624  -8.5925  -8.5925  -8.5644  -8.5644
    -8.2137  -8.2137  -8.1684  -8.1684  -8.0112  -8.0112  -7.9839  -7.9839
     1.3981   1.3981   1.4078   1.4078   2.1063   2.1063   2.2033   2.2033
     2.7556   2.7556   2.8089   2.8089   2.8731   2.8731   2.9485   2.9485
     2.9953   2.9953   3.3019   3.3019   3.3403   3.3403   3.4675   3.4675
     3.9097   3.9097   3.9444   3.9444   4.0958   4.0958   4.3033   4.3033
     4.6778   4.6778   4.7563   4.7563   4.8577   4.8577   4.9075   4.9075
     4.9696   4.9696   5.4517   5.4517   5.6003   5.6003   5.7439   5.7439
     6.5607   6.5607   6.6535   6.6535   6.6948   6.6948   6.7814   6.7814
     6.8952   6.8952   6.9671   6.9671   7.0840   7.0840   7.4998   7.4998
     7.5213   7.5213   7.5650   7.5650   7.5729   7.5729   7.8931   7.8931
    10.5448  10.5448  11.0639  11.0639  11.0912  11.0912  11.7026  11.7026
    11.7706  11.7706  11.9193  11.9193  12.5863  12.5863  12.6418  12.6418
    12.8463  12.8463  12.8761  12.8761  13.0410  13.0410  13.5090  13.5090
    14.8748  14.8748  15.3049  15.3049  16.1571  16.1571  16.3945  16.3945
    16.5315  16.5315  16.8923  16.8923  17.5402

          k = 0.3277 0.4829 0.1641 ( 62970 PWs)   bands (ev):

   -66.3340 -66.3340 -66.3337 -66.3337 -66.3334 -66.3334 -66.3331 -66.3331
   -30.6887 -30.6887 -30.6833 -30.6832 -30.6762 -30.6761 -30.6759 -30.6759
   -30.6526 -30.6526 -30.6495 -30.6495 -30.6282 -30.6281 -30.6237 -30.6236
   -30.6205 -30.6205 -30.6142 -30.6142 -30.5992 -30.5991 -30.5961 -30.5960
   -20.5076 -20.5076 -20.5073 -20.5073 -20.5063 -20.5063 -20.5060 -20.5060
   -20.4964 -20.4964 -20.4957 -20.4957 -20.4953 -20.4953 -20.4947 -20.4946
   -20.4819 -20.4819 -20.4815 -20.4815 -20.4805 -20.4805 -20.4801 -20.4801
   -20.4722 -20.4722 -20.4719 -20.4719 -20.4706 -20.4706 -20.4702 -20.4702
   -20.4592 -20.4592 -20.4590 -20.4589 -20.4588 -20.4587 -20.4587 -20.4587
   -20.4580 -20.4580 -20.4577 -20.4577 -20.4562 -20.4562 -20.4560 -20.4560
   -20.4479 -20.4479 -20.4478 -20.4478 -20.4469 -20.4469 -20.4468 -20.4468
    -9.6624  -9.6623  -9.4604  -9.4602  -9.2042  -9.2040  -8.8949  -8.8948
    -8.7339  -8.7336  -8.5694  -8.5691  -8.5180  -8.5175  -8.5000  -8.4999
    -8.2946  -8.2937  -8.2618  -8.2607  -8.0132  -8.0121  -7.9902  -7.9890
     1.3918   1.3924   1.4072   1.4078   2.0877   2.0892   2.1823   2.1841
     2.7776   2.8244   2.8372   2.8688   2.9058   2.9129   2.9471   2.9777
     3.1330   3.1332   3.1956   3.1989   3.3796   3.3800   3.4676   3.4864
     3.5597   3.6055   3.7803   3.7974   4.3598   4.3741   4.4603   4.5146
     4.5787   4.6118   4.7539   4.7547   4.7889   4.7981   4.9225   4.9440
     5.0696   5.0723   5.2934   5.3044   5.5726   5.5728   5.7968   5.7985
     6.5470   6.5535   6.6560   6.6615   6.7509   6.7546   6.7818   6.7898
     6.9726   7.0093   7.0200   7.0431   7.1302   7.1536   7.4328   7.4454
     7.4673   7.4676   7.5012   7.5046   7.5195   7.5260   7.8912   7.8979
    10.3253  10.3309  11.1803  11.1910  11.2117  11.2186  11.6342  11.6423
    11.7042  11.7104  11.7942  11.8058  12.5719  12.5731  12.6579  12.6616
    12.7177  12.7227  13.1631  13.1723  13.2241  13.2310  13.2821  13.2877
    14.9658  14.9717  15.2656  15.2744  15.7553  15.7564  16.2005  16.2017
    16.7208  16.7283  17.1012  17.1145  17.6306

          k =-0.4916 0.4829 0.1641 ( 62920 PWs)   bands (ev):

   -66.3338 -66.3338 -66.3338 -66.3338 -66.3333 -66.3333 -66.3333 -66.3333
   -30.6787 -30.6787 -30.6786 -30.6786 -30.6683 -30.6683 -30.6671 -30.6671
   -30.6663 -30.6663 -30.6649 -30.6649 -30.6270 -30.6270 -30.6257 -30.6257
   -30.6189 -30.6189 -30.6171 -30.6171 -30.5980 -30.5980 -30.5976 -30.5976
   -20.5074 -20.5074 -20.5074 -20.5074 -20.5062 -20.5062 -20.5062 -20.5062
   -20.4959 -20.4959 -20.4959 -20.4959 -20.4952 -20.4952 -20.4952 -20.4951
   -20.4817 -20.4817 -20.4817 -20.4817 -20.4803 -20.4803 -20.4803 -20.4803
   -20.4715 -20.4715 -20.4714 -20.4714 -20.4711 -20.4711 -20.4710 -20.4710
   -20.4592 -20.4592 -20.4589 -20.4589 -20.4587 -20.4587 -20.4587 -20.4587
   -20.4580 -20.4580 -20.4577 -20.4577 -20.4562 -20.4562 -20.4560 -20.4560
   -20.4479 -20.4479 -20.4479 -20.4479 -20.4468 -20.4468 -20.4468 -20.4468
    -9.5467  -9.5467  -9.5343  -9.5343  -8.9541  -8.9541  -8.9045  -8.9044
    -8.7257  -8.7257  -8.6876  -8.6876  -8.4962  -8.4962  -8.4729  -8.4729
    -8.4315  -8.4315  -8.4143  -8.4142  -8.0020  -8.0020  -8.0011  -8.0011
     1.4024   1.4024   1.4080   1.4080   2.7421   2.7421   2.7839   2.7839
     2.8053   2.8053   2.8139   2.8139   2.9767   2.9767   3.0469   3.0469
     3.1415   3.1415   3.2434   3.2434   3.2825   3.2825   3.3362   3.3362
     3.3835   3.3835   3.6196   3.6196   4.2098   4.2098   4.2747   4.2747
     4.3102   4.3103   4.3558   4.3559   4.7942   4.7942   4.8286   4.8286
     5.0812   5.0812   5.1981   5.1981   5.6227   5.6227   5.6275   5.6275
     6.6411   6.6411   6.6653   6.6653   6.7184   6.7184   6.7723   6.7723
     7.1348   7.1348   7.1954   7.1954   7.3619   7.3619   7.3845   7.3845
     7.4576   7.4577   7.5053   7.5054   7.6025   7.6025   7.6473   7.6473
    10.9742  10.9742  11.0632  11.0632  11.2044  11.2044  11.3155  11.3155
    11.9933  11.9933  12.1186  12.1186  12.2514  12.2514  12.2912  12.2912
    12.8427  12.8427  12.8750  12.8750  13.2389  13.2389  13.2418  13.2418
    15.1575  15.1575  15.1705  15.1705  16.4068  16.4068  16.5780  16.5780
    17.1490  17.1490  17.2015  17.2016  17.2959

          k =-0.4916 0.0000 0.3283 ( 62902 PWs)   bands (ev):

   -66.3340 -66.3340 -66.3337 -66.3337 -66.3334 -66.3334 -66.3331 -66.3331
   -30.6802 -30.6802 -30.6782 -30.6782 -30.6694 -30.6694 -30.6677 -30.6677
   -30.6620 -30.6620 -30.6591 -30.6591 -30.6515 -30.6515 -30.6385 -30.6385
   -30.6248 -30.6248 -30.6126 -30.6126 -30.5831 -30.5831 -30.5805 -30.5805
   -20.5072 -20.5072 -20.5072 -20.5072 -20.5065 -20.5065 -20.5064 -20.5064
   -20.4958 -20.4957 -20.4957 -20.4957 -20.4953 -20.4953 -20.4953 -20.4952
   -20.4814 -20.4814 -20.4814 -20.4814 -20.4807 -20.4807 -20.4806 -20.4806
   -20.4717 -20.4717 -20.4715 -20.4715 -20.4711 -20.4711 -20.4709 -20.4709
   -20.4620 -20.4620 -20.4620 -20.4620 -20.4582 -20.4582 -20.4576 -20.4576
   -20.4571 -20.4571 -20.4565 -20.4565 -20.4549 -20.4548 -20.4548 -20.4548
   -20.4477 -20.4477 -20.4476 -20.4475 -20.4471 -20.4471 -20.4469 -20.4469
    -9.7066  -9.7066  -9.4919  -9.4919  -9.1853  -9.1853  -8.8437  -8.8437
    -8.7642  -8.7642  -8.6340  -8.6340  -8.6190  -8.6190  -8.6060  -8.6060
    -8.2870  -8.2870  -8.2827  -8.2827  -7.8048  -7.8048  -7.7826  -7.7826
     1.1986   1.1986   1.2331   1.2331   2.0664   2.0664   2.0758   2.0758
     2.6423   2.6423   2.7403   2.7403   2.7412   2.7412   2.9834   2.9834
     3.0122   3.0122   3.4865   3.4865   3.5700   3.5700   3.7121   3.7121
     3.7375   3.7375   3.8582   3.8582   3.9649   3.9649   4.3536   4.3536
     4.5413   4.5413   4.7509   4.7509   4.9783   4.9783   5.0742   5.0742
     5.4004   5.4004   5.6531   5.6531   5.9277   5.9277   6.0221   6.0221
     6.1855   6.1855   6.1905   6.1906   6.3564   6.3564   6.5245   6.5245
     7.0744   7.0744   7.0885   7.0885   7.1608   7.1608   7.4862   7.4862
     7.4879   7.4879   7.5827   7.5827   7.6317   7.6317   8.0225   8.0225
    10.6446  10.6446  11.3294  11.3294  11.3379  11.3379  11.4859  11.4859
    11.4998  11.4998  12.3107  12.3107  12.4041  12.4041  12.4204  12.4204
    12.7123  12.7123  13.1040  13.1040  13.1148  13.1148  13.4992  13.4992
    14.6818  14.6818  15.1322  15.1322  15.9126  15.9126  16.3344  16.3344
    16.6145  16.6145  16.9846  16.9846  17.5262

          k =-0.4916-0.1610 0.3283 ( 62922 PWs)   bands (ev):

   -66.3340 -66.3340 -66.3337 -66.3336 -66.3335 -66.3335 -66.3332 -66.3331
   -30.6776 -30.6776 -30.6758 -30.6758 -30.6693 -30.6693 -30.6673 -30.6673
   -30.6623 -30.6623 -30.6592 -30.6592 -30.6496 -30.6496 -30.6366 -30.6366
   -30.6251 -30.6251 -30.6123 -30.6123 -30.5878 -30.5878 -30.5849 -30.5849
   -20.5072 -20.5072 -20.5072 -20.5072 -20.5065 -20.5065 -20.5064 -20.5064
   -20.4957 -20.4957 -20.4957 -20.4957 -20.4953 -20.4953 -20.4953 -20.4953
   -20.4814 -20.4814 -20.4814 -20.4814 -20.4806 -20.4806 -20.4806 -20.4806
   -20.4717 -20.4716 -20.4715 -20.4715 -20.4711 -20.4711 -20.4709 -20.4709
   -20.4616 -20.4616 -20.4616 -20.4616 -20.4582 -20.4582 -20.4576 -20.4576
   -20.4572 -20.4571 -20.4565 -20.4565 -20.4553 -20.4553 -20.4552 -20.4552
   -20.4477 -20.4477 -20.4476 -20.4476 -20.4471 -20.4471 -20.4469 -20.4469
    -9.6495  -9.6495  -9.4191  -9.4191  -9.2001  -9.2001  -8.8229  -8.8229
    -8.7759  -8.7759  -8.6282  -8.6282  -8.6139  -8.6139  -8.6029  -8.6029
    -8.2883  -8.2883  -8.2842  -8.2842  -7.9128  -7.9128  -7.8931  -7.8931
     1.4437   1.4437   1.4814   1.4814   2.0650   2.0650   2.0850   2.0850
     2.6997   2.6997   2.7623   2.7623   2.7860   2.7860   2.9748   2.9748
     3.0093   3.0093   3.4865   3.4865   3.5721   3.5721   3.6892   3.6892
     3.7830   3.7830   3.8620   3.8620   4.0283   4.0283   4.3575   4.3575
     4.4766   4.4766   4.6422   4.6422   4.8316   4.8316   4.8744   4.8744
     5.1012   5.1012   5.3052   5.3052   5.6897   5.6897   5.8608   5.8608
     6.3992   6.3992   6.4447   6.4447   6.5165   6.5165   6.6928   6.6928
     7.0675   7.0675   7.0980   7.0980   7.1735   7.1735   7.4789   7.4789
     7.4920   7.4920   7.5790   7.5790   7.6265   7.6265   7.9657   7.9657
    10.7405  10.7405  11.3356  11.3356  11.3595  11.3595  11.5316  11.5316
    11.5785  11.5785  12.3382  12.3382  12.3947  12.3947  12.4332  12.4332
    12.5614  12.5614  12.9756  12.9756  12.9895  12.9895  13.3806  13.3806
    15.0090  15.0090  15.4939  15.4939  16.0233  16.0233  16.3277  16.3277
    16.6265  16.6265  17.0311  17.0311  17.3562

          k =-0.4916-0.3219 0.3283 ( 62920 PWs)   bands (ev):

   -66.3339 -66.3339 -66.3336 -66.3336 -66.3335 -66.3335 -66.3333 -66.3333
   -30.6729 -30.6729 -30.6714 -30.6714 -30.6689 -30.6689 -30.6661 -30.6661
   -30.6629 -30.6629 -30.6599 -30.6599 -30.6427 -30.6427 -30.6297 -30.6297
   -30.6268 -30.6268 -30.6110 -30.6110 -30.6004 -30.6003 -30.5956 -30.5956
   -20.5072 -20.5072 -20.5072 -20.5072 -20.5065 -20.5065 -20.5064 -20.5064
   -20.4957 -20.4957 -20.4957 -20.4957 -20.4953 -20.4953 -20.4953 -20.4953
   -20.4814 -20.4814 -20.4814 -20.4814 -20.4806 -20.4806 -20.4806 -20.4806
   -20.4715 -20.4715 -20.4714 -20.4714 -20.4712 -20.4712 -20.4710 -20.4710
   -20.4605 -20.4605 -20.4605 -20.4604 -20.4583 -20.4583 -20.4577 -20.4577
   -20.4575 -20.4574 -20.4567 -20.4566 -20.4563 -20.4563 -20.4560 -20.4560
   -20.4477 -20.4477 -20.4476 -20.4476 -20.4471 -20.4471 -20.4470 -20.4470
    -9.5064  -9.5064  -9.2527  -9.2527  -9.2213  -9.2213  -8.8424  -8.8424
    -8.7378  -8.7378  -8.6296  -8.6296  -8.5859  -8.5859  -8.5699  -8.5699
    -8.3198  -8.3198  -8.2755  -8.2755  -8.1737  -8.1737  -8.1360  -8.1360
     1.9656   1.9656   2.0587   2.0587   2.1250   2.1250   2.2435   2.2436
     2.7863   2.7864   2.8309   2.8309   2.9474   2.9474   2.9529   2.9529
     3.0186   3.0187   3.3959   3.3959   3.5646   3.5646   3.6147   3.6147
     3.8827   3.8827   3.9689   3.9689   4.0626   4.0626   4.2070   4.2070
     4.2423   4.2423   4.4191   4.4191   4.5246   4.5246   4.7656   4.7656
     4.7878   4.7878   4.8279   4.8279   4.9808   4.9808   5.2749   5.2749
     6.7924   6.7924   6.8613   6.8614   6.8844   6.8844   6.9616   6.9616
     7.0541   7.0541   7.1173   7.1173   7.2240   7.2240   7.4511   7.4511
     7.4982   7.4982   7.5427   7.5427   7.5818   7.5818   7.7946   7.7946
    11.0368  11.0368  11.3481  11.3481  11.3839  11.3839  11.7264  11.7264
    11.8006  11.8006  12.1357  12.1357  12.3796  12.3796  12.4023  12.4023
    12.5135  12.5135  12.6521  12.6521  12.6590  12.6590  13.0898  13.0898
    15.6673  15.6673  16.2222  16.2222  16.3817  16.3817  16.4337  16.4337
    16.7042  16.7042  17.0216  17.0216  17.1764

          k =-0.4916 0.4829 0.3283 ( 62900 PWs)   bands (ev):

   -66.3337 -66.3337 -66.3337 -66.3337 -66.3334 -66.3334 -66.3334 -66.3334
   -30.6710 -30.6710 -30.6703 -30.6703 -30.6673 -30.6673 -30.6660 -30.6660
   -30.6621 -30.6621 -30.6612 -30.6612 -30.6333 -30.6333 -30.6324 -30.6324
   -30.6171 -30.6171 -30.6154 -30.6154 -30.6067 -30.6067 -30.6058 -30.6058
   -20.5072 -20.5072 -20.5072 -20.5072 -20.5065 -20.5065 -20.5064 -20.5064
   -20.4957 -20.4957 -20.4957 -20.4957 -20.4953 -20.4953 -20.4953 -20.4953
   -20.4814 -20.4814 -20.4814 -20.4814 -20.4806 -20.4806 -20.4806 -20.4806
   -20.4714 -20.4714 -20.4714 -20.4713 -20.4712 -20.4712 -20.4711 -20.4711
   -20.4592 -20.4592 -20.4591 -20.4591 -20.4588 -20.4588 -20.4588 -20.4587
   -20.4575 -20.4575 -20.4573 -20.4573 -20.4565 -20.4565 -20.4563 -20.4563
   -20.4477 -20.4477 -20.4476 -20.4476 -20.4470 -20.4470 -20.4470 -20.4470
    -9.3619  -9.3619  -9.3438  -9.3438  -9.0110  -9.0109  -8.9665  -8.9665
    -8.6732  -8.6732  -8.6408  -8.6408  -8.4937  -8.4937  -8.4783  -8.4783
    -8.4314  -8.4314  -8.4210  -8.4210  -8.2546  -8.2546  -8.2523  -8.2523
     2.0404   2.0404   2.0531   2.0531   2.7540   2.7540   2.7790   2.7790
     2.8003   2.8003   2.8135   2.8135   3.0056   3.0056   3.0489   3.0489
     3.1805   3.1805   3.2794   3.2795   3.3827   3.3827   3.4036   3.4036
     3.6249   3.6249   3.7571   3.7571   4.2046   4.2046   4.2461   4.2461
     4.2752   4.2752   4.3101   4.3101   4.4020   4.4020   4.4346   4.4346
     4.5972   4.5972   4.7245   4.7245   4.8727   4.8727   4.8875   4.8875
     6.9460   6.9460   6.9906   6.9906   7.0125   7.0125   7.0753   7.0753
     7.1482   7.1482   7.2329   7.2329   7.3242   7.3242   7.4122   7.4122
     7.4320   7.4320   7.5073   7.5073   7.5620   7.5620   7.6120   7.6121
    11.2921  11.2921  11.3520  11.3520  11.5435  11.5435  11.6368  11.6368
    11.9960  11.9960  12.1226  12.1226  12.2316  12.2316  12.2750  12.2750
    12.4211  12.4211  12.4796  12.4796  12.7638  12.7638  12.7711  12.7711
    16.0646  16.0646  16.1143  16.1143  16.6495  16.6495  16.7903  16.7903
    17.0873  17.0873  17.1010  17.1010  17.3305

     the Fermi energy is     8.6820 ev

!    total energy              =   -6261.02809976 Ry
     Harris-Foulkes estimate   =   -6261.02809976 Ry
     estimated scf accuracy    <          1.9E-11 Ry

     The total energy is the sum of the following terms:

     one-electron contribution =   -4765.08392209 Ry
     hartree contribution      =    2617.27890752 Ry
     xc contribution           =    -965.71231129 Ry
     ewald contribution        =   -3147.51077389 Ry
     smearing contrib. (-TS)   =      -0.00000000 Ry

     convergence has been achieved in  15 iterations

     Forces acting on atoms (cartesian axes, Ry/au):

     atom    1 type  1   force =     0.00256622    0.01201134    0.00576903
     atom    2 type  1   force =    -0.00256622   -0.01201134   -0.00576903
     atom    3 type  1   force =    -0.00256622   -0.01201134    0.00576903
     atom    4 type  1   force =     0.00256622    0.01201134   -0.00576903
     atom    5 type  1   force =    -0.00256622    0.01201134   -0.00576903
     atom    6 type  1   force =     0.00256622   -0.01201134    0.00576903
     atom    7 type  1   force =     0.00256622   -0.01201134   -0.00576903
     atom    8 type  1   force =    -0.00256622    0.01201134    0.00576903
     atom    9 type  2   force =     0.00581249   -0.08039523    0.00217101
     atom   10 type  2   force =    -0.00581249    0.08039523   -0.00217101
     atom   11 type  2   force =    -0.00581249    0.08039523    0.00217101
     atom   12 type  2   force =     0.00581249   -0.08039523   -0.00217101
     atom   13 type  2   force =    -0.00581249   -0.08039523   -0.00217101
     atom   14 type  2   force =     0.00581249    0.08039523    0.00217101
     atom   15 type  2   force =     0.00581249    0.08039523   -0.00217101
     atom   16 type  2   force =    -0.00581249   -0.08039523    0.00217101
     atom   17 type  2   force =     0.00332977   -0.00671993   -0.00016648
     atom   18 type  2   force =    -0.00332977    0.00671993    0.00016648
     atom   19 type  2   force =    -0.00332977    0.00671993   -0.00016648
     atom   20 type  2   force =     0.00332977   -0.00671993    0.00016648
     atom   21 type  2   force =    -0.00332977   -0.00671993    0.00016648
     atom   22 type  2   force =     0.00332977    0.00671993   -0.00016648
     atom   23 type  2   force =     0.00332977    0.00671993    0.00016648
     atom   24 type  2   force =    -0.00332977   -0.00671993   -0.00016648
     atom   25 type  2   force =    -0.00157571    0.00245599    0.00835204
     atom   26 type  2   force =     0.00157571   -0.00245599   -0.00835204
     atom   27 type  2   force =     0.00157571   -0.00245599    0.00835204
     atom   28 type  2   force =    -0.00157571    0.00245599   -0.00835204
     atom   29 type  2   force =     0.00157571    0.00245599   -0.00835204
     atom   30 type  2   force =    -0.00157571   -0.00245599    0.00835204
     atom   31 type  2   force =    -0.00157571   -0.00245599   -0.00835204
     atom   32 type  2   force =     0.00157571    0.00245599    0.00835204

     Total force =     0.000000     Total SCF correction =     0.000000


     Computing stress (Cartesian axis) and pressure

          total   stress  (Ry/bohr**3)                   (kbar)     P=    0.73
   0.00000819   0.00000000   0.00000000          1.20      0.00      0.00
   0.00000000  -0.00000075   0.00000000          0.00     -0.11      0.00
   0.00000000   0.00000000   0.00000739          0.00      0.00      1.09


     Writing output data file Landau_27.save/
 
     init_run     :     77.41s CPU     79.01s WALL (       2 calls)
     electrons    :   5485.04s CPU   5552.29s WALL (       6 calls)
     update_pot   :    115.57s CPU    115.81s WALL (       4 calls)
     forces       :    149.89s CPU    152.01s WALL (       6 calls)
     stress       :    799.41s CPU    803.56s WALL (       6 calls)

     Called by init_run:
     wfcinit      :     33.35s CPU     34.66s WALL (       2 calls)
     potinit      :     20.34s CPU     20.41s WALL (       2 calls)
     hinit0       :     23.24s CPU     23.38s WALL (       2 calls)

     Called by electrons:
     c_bands      :   4806.53s CPU   4866.79s WALL (      85 calls)
     sum_band     :    609.32s CPU    612.04s WALL (      85 calls)
     v_of_rho     :     11.43s CPU     11.79s WALL (      90 calls)
     mix_rho      :     17.12s CPU     20.08s WALL (      85 calls)

     Called by c_bands:
     init_us_2    :     33.00s CPU     36.37s WALL (     172 calls)
     cegterg      :   3761.17s CPU   3819.86s WALL (      85 calls)

     Called by sum_band:

     Called by *egterg:
     h_psi        :   2823.59s CPU   2848.93s WALL (     341 calls)
     g_psi        :     13.32s CPU     13.36s WALL (     254 calls)
     cdiaghg      :     43.57s CPU     43.69s WALL (     334 calls)

     Called by h_psi:
     h_psi:pot    :   2815.21s CPU   2821.57s WALL (     341 calls)
     h_psi:calbec :    351.77s CPU    355.88s WALL (     341 calls)
     vloc_psi     :   2093.91s CPU   2095.56s WALL (     341 calls)
     add_vuspsi   :    369.53s CPU    370.13s WALL (     341 calls)

     General routines
     calbec       :    400.72s CPU    405.44s WALL (     371 calls)
     fft          :      5.82s CPU      5.84s WALL (     317 calls)
     ffts         :      1.65s CPU      1.65s WALL (      85 calls)
     fftw         :   2143.50s CPU   2144.36s WALL (  112003 calls)
 
     Parallel routines
 
     PWSCF        :      1h50m CPU      1h51m WALL

 
   This run was terminated on:   1:47: 8  21Nov2019            

=------------------------------------------------------------------------------=
   JOB DONE.
=------------------------------------------------------------------------------=
