
     Program PWSCF v.6.4.1 starts on 16Dec2019 at 23:25:57 

     This program is part of the open-source Quantum ESPRESSO suite
     for quantum simulation of materials; please cite
         "P. Giannozzi et al., J. Phys.:Condens. Matter 21 395502 (2009);
         "P. Giannozzi et al., J. Phys.:Condens. Matter 29 465901 (2017);
          URL http://www.quantum-espresso.org", 
     in publications or presentations arising from this work. More details at
     http://www.quantum-espresso.org/quote

     Parallel version (MPI), running on    40 processors

     MPI processes distributed on     2 nodes
     K-points division:     npool     =      40
     Reading input from scf.in

     Current dimensions of program PWSCF are:
     Max number of different atomic species (ntypx) = 10
     Max number of k-points (npk) =  40000
     Max angular momentum in pseudopotentials (lmaxx) =  3

     Subspace diagonalization in iterative solution of the eigenvalue problem:
     a serial algorithm will be used

     Message from routine setup:
     using ibrav=0 with symmetry is DISCOURAGED, use correct ibrav instead
 
     G-vector sticks info
     --------------------
     sticks:   dense  smooth     PW     G-vecs:    dense   smooth      PW
     Sum        7633    7633   2045               493077   493077   68311
 


     bravais-lattice index     =            0
     lattice parameter (alat)  =      13.8218  a.u.
     unit-cell volume          =    2775.7858 (a.u.)^3
     number of atoms/cell      =           32
     number of atomic types    =            2
     number of electrons       =       368.30
     number of Kohn-Sham states=          221
     kinetic-energy cutoff     =     120.0000  Ry
     charge density cutoff     =     480.0000  Ry
     convergence threshold     =      1.0E-08
     mixing beta               =       0.7000
     number of iterations used =            8  plain     mixing
     Exchange-correlation      = SLA PW NOGX NOGC ( 1  4  0  0 0 0)

     celldm(1)=  13.821839  celldm(2)=   0.000000  celldm(3)=   0.000000
     celldm(4)=   0.000000  celldm(5)=   0.000000  celldm(6)=   0.000000

     crystal axes: (cart. coord. in units of alat)
               a(1) = (   1.000000   0.000000   0.000000 )  
               a(2) = (   0.000000   1.044840   0.000000 )  
               a(3) = (   0.000000   0.000000   1.006095 )  

     reciprocal axes: (cart. coord. in units 2 pi/alat)
               b(1) = (  1.000000  0.000000  0.000000 )  
               b(2) = (  0.000000  0.957085  0.000000 )  
               b(3) = (  0.000000  0.000000  0.993942 )  


     PseudoPot. # 1 for W  read from file:
     /cluster/scratch/mnoe/QE/pps/W_ONCV_LDA-4.0.upf
     MD5 check sum: ba0307d5d4cd419d6f1d13dc49d7c13a
     Pseudo is Norm-conserving + core correction, Zval = 28.0
     Generated using ONCVPSP code by D. R. Hamann
     Using radial grid of 1380 points,  8 beta functions with: 
                l(1) =   0
                l(2) =   0
                l(3) =   1
                l(4) =   1
                l(5) =   2
                l(6) =   2
                l(7) =   3
                l(8) =   3

     PseudoPot. # 2 for O  read from file:
     /cluster/scratch/mnoe/QE/pps/O_ONCV_LDA-3.0.upf
     MD5 check sum: b55cdb4f45ae2203d24ad12cf8d61a31
     Pseudo is Norm-conserving + core correction, Zval =  6.0
     Generated using ONCVPSP code by D. R. Hamann
     Using radial grid of  926 points,  5 beta functions with: 
                l(1) =   0
                l(2) =   0
                l(3) =   1
                l(4) =   1
                l(5) =   2

     atomic species   valence    mass     pseudopotential
        W             28.00   183.84000     W ( 1.00)
        O              6.00    15.99940     O ( 1.00)

      8 Sym. Ops., with inversion, found ( 6 have fractional translation)



   Cartesian axes

     site n.     atom                  positions (alat units)
         1           W   tau(   1) = (   0.2342800   0.2944985   0.0149405  )
         2           W   tau(   2) = (   0.7657200   0.7503412   0.9911540  )
         3           W   tau(   3) = (   0.2657200   0.2279214   0.5179878  )
         4           W   tau(   4) = (   0.7342800   0.8169184   0.4881068  )
         5           W   tau(   5) = (   0.7657200   0.2944985   0.4881068  )
         6           W   tau(   6) = (   0.2342800   0.7503412   0.5179878  )
         7           W   tau(   7) = (   0.7342800   0.2279214   0.9911540  )
         8           W   tau(   8) = (   0.2657200   0.8169184   0.0149405  )
         9           O   tau(   9) = (   0.2209900   0.0086931   0.0046482  )
        10           O   tau(  10) = (   0.7790100   1.0361467   1.0014464  )
        11           O   tau(  11) = (   0.2790100   0.5137268   0.5076954  )
        12           O   tau(  12) = (   0.7209900   0.5311129   0.4983991  )
        13           O   tau(  13) = (   0.7790100   0.0086931   0.4983991  )
        14           O   tau(  14) = (   0.2209900   1.0361467   0.5076954  )
        15           O   tau(  15) = (   0.7209900   0.5137268   1.0014464  )
        16           O   tau(  16) = (   0.2790100   0.5311129   0.0046482  )
        17           O   tau(  17) = (   0.5043000   0.2301155   0.4522797  )
        18           O   tau(  18) = (   0.4957000   0.8147242   0.5538148  )
        19           O   tau(  19) = (   0.9957000   0.2923044   0.9553270  )
        20           O   tau(  20) = (   0.0043000   0.7525353   0.0507675  )
        21           O   tau(  21) = (   0.4957000   0.2301155   0.0507675  )
        22           O   tau(  22) = (   0.5043000   0.8147242   0.9553270  )
        23           O   tau(  23) = (   0.0043000   0.2923044   0.5538148  )
        24           O   tau(  24) = (   0.9957000   0.7525353   0.4522797  )
        25           O   tau(  25) = (   0.6995400   0.2544185   0.7480112  )
        26           O   tau(  26) = (   0.3004600   0.7904213   0.2580834  )
        27           O   tau(  27) = (   0.8004600   0.2680014   0.2449639  )
        28           O   tau(  28) = (   0.1995400   0.7768384   0.7611306  )
        29           O   tau(  29) = (   0.3004600   0.2544185   0.7611306  )
        30           O   tau(  30) = (   0.6995400   0.7904213   0.2449639  )
        31           O   tau(  31) = (   0.1995400   0.2680014   0.2580834  )
        32           O   tau(  32) = (   0.8004600   0.7768384   0.7480112  )

     number of k points=    64  gaussian smearing, width (Ry)=  0.0007
                       cart. coord. in units 2pi/alat
        k(    1) = (   0.0000000   0.0000000   0.0000000), wk =   0.0092593
        k(    2) = (   0.0000000   0.0000000   0.1656571), wk =   0.0185185
        k(    3) = (   0.0000000   0.0000000   0.3313141), wk =   0.0185185
        k(    4) = (   0.0000000   0.0000000  -0.4969712), wk =   0.0092593
        k(    5) = (   0.0000000   0.1595141   0.0000000), wk =   0.0185185
        k(    6) = (   0.0000000   0.1595141   0.1656571), wk =   0.0370370
        k(    7) = (   0.0000000   0.1595141   0.3313141), wk =   0.0370370
        k(    8) = (   0.0000000   0.1595141  -0.4969712), wk =   0.0185185
        k(    9) = (   0.0000000   0.3190282   0.0000000), wk =   0.0185185
        k(   10) = (   0.0000000   0.3190282   0.1656571), wk =   0.0370370
        k(   11) = (   0.0000000   0.3190282   0.3313141), wk =   0.0370370
        k(   12) = (   0.0000000   0.3190282  -0.4969712), wk =   0.0185185
        k(   13) = (   0.0000000  -0.4785423   0.0000000), wk =   0.0092593
        k(   14) = (   0.0000000  -0.4785423   0.1656571), wk =   0.0185185
        k(   15) = (   0.0000000  -0.4785423   0.3313141), wk =   0.0185185
        k(   16) = (   0.0000000  -0.4785423  -0.4969712), wk =   0.0092593
        k(   17) = (   0.1666667   0.0000000   0.0000000), wk =   0.0185185
        k(   18) = (   0.1666667   0.0000000   0.1656571), wk =   0.0370370
        k(   19) = (   0.1666667   0.0000000   0.3313141), wk =   0.0370370
        k(   20) = (   0.1666667   0.0000000  -0.4969712), wk =   0.0185185
        k(   21) = (   0.1666667   0.1595141   0.0000000), wk =   0.0370370
        k(   22) = (   0.1666667   0.1595141   0.1656571), wk =   0.0740741
        k(   23) = (   0.1666667   0.1595141   0.3313141), wk =   0.0740741
        k(   24) = (   0.1666667   0.1595141  -0.4969712), wk =   0.0370370
        k(   25) = (   0.1666667   0.3190282   0.0000000), wk =   0.0370370
        k(   26) = (   0.1666667   0.3190282   0.1656571), wk =   0.0740741
        k(   27) = (   0.1666667   0.3190282   0.3313141), wk =   0.0740741
        k(   28) = (   0.1666667   0.3190282  -0.4969712), wk =   0.0370370
        k(   29) = (   0.1666667  -0.4785423   0.0000000), wk =   0.0185185
        k(   30) = (   0.1666667  -0.4785423   0.1656571), wk =   0.0370370
        k(   31) = (   0.1666667  -0.4785423   0.3313141), wk =   0.0370370
        k(   32) = (   0.1666667  -0.4785423  -0.4969712), wk =   0.0185185
        k(   33) = (   0.3333333   0.0000000   0.0000000), wk =   0.0185185
        k(   34) = (   0.3333333   0.0000000   0.1656571), wk =   0.0370370
        k(   35) = (   0.3333333   0.0000000   0.3313141), wk =   0.0370370
        k(   36) = (   0.3333333   0.0000000  -0.4969712), wk =   0.0185185
        k(   37) = (   0.3333333   0.1595141   0.0000000), wk =   0.0370370
        k(   38) = (   0.3333333   0.1595141   0.1656571), wk =   0.0740741
        k(   39) = (   0.3333333   0.1595141   0.3313141), wk =   0.0740741
        k(   40) = (   0.3333333   0.1595141  -0.4969712), wk =   0.0370370
        k(   41) = (   0.3333333   0.3190282   0.0000000), wk =   0.0370370
        k(   42) = (   0.3333333   0.3190282   0.1656571), wk =   0.0740741
        k(   43) = (   0.3333333   0.3190282   0.3313141), wk =   0.0740741
        k(   44) = (   0.3333333   0.3190282  -0.4969712), wk =   0.0370370
        k(   45) = (   0.3333333  -0.4785423   0.0000000), wk =   0.0185185
        k(   46) = (   0.3333333  -0.4785423   0.1656571), wk =   0.0370370
        k(   47) = (   0.3333333  -0.4785423   0.3313141), wk =   0.0370370
        k(   48) = (   0.3333333  -0.4785423  -0.4969712), wk =   0.0185185
        k(   49) = (  -0.5000000   0.0000000   0.0000000), wk =   0.0092593
        k(   50) = (  -0.5000000   0.0000000   0.1656571), wk =   0.0185185
        k(   51) = (  -0.5000000   0.0000000   0.3313141), wk =   0.0185185
        k(   52) = (  -0.5000000   0.0000000  -0.4969712), wk =   0.0092593
        k(   53) = (  -0.5000000   0.1595141   0.0000000), wk =   0.0185185
        k(   54) = (  -0.5000000   0.1595141   0.1656571), wk =   0.0370370
        k(   55) = (  -0.5000000   0.1595141   0.3313141), wk =   0.0370370
        k(   56) = (  -0.5000000   0.1595141  -0.4969712), wk =   0.0185185
        k(   57) = (  -0.5000000   0.3190282   0.0000000), wk =   0.0185185
        k(   58) = (  -0.5000000   0.3190282   0.1656571), wk =   0.0370370
        k(   59) = (  -0.5000000   0.3190282   0.3313141), wk =   0.0370370
        k(   60) = (  -0.5000000   0.3190282  -0.4969712), wk =   0.0185185
        k(   61) = (  -0.5000000  -0.4785423   0.0000000), wk =   0.0092593
        k(   62) = (  -0.5000000  -0.4785423   0.1656571), wk =   0.0185185
        k(   63) = (  -0.5000000  -0.4785423   0.3313141), wk =   0.0185185
        k(   64) = (  -0.5000000  -0.4785423  -0.4969712), wk =   0.0092593

     Dense  grid:   493077 G-vectors     FFT dimensions: ( 100, 108, 100)

     Estimated max dynamical RAM per process >       3.10 GB

     Estimated total dynamical RAM >     123.83 GB

     Initial potential from superposition of free atoms

     starting charge  367.99656, renormalised to  368.30000
     Starting wfcs are  232 randomized atomic wfcs

     total cpu time spent up to now is       51.0 secs

     Self-consistent Calculation

     iteration #  1     ecut=   120.00 Ry     beta= 0.70
     Davidson diagonalization with overlap
     ethr =  1.00E-02,  avg # of iterations =  5.0

     total cpu time spent up to now is      229.1 secs

     total energy              =   -6253.75155150 Ry
     Harris-Foulkes estimate   =   -6264.37822650 Ry
     estimated scf accuracy    <      13.42491082 Ry

     iteration #  2     ecut=   120.00 Ry     beta= 0.70
     Davidson diagonalization with overlap
     ethr =  3.65E-03,  avg # of iterations =  3.4

     total cpu time spent up to now is      399.1 secs

     total energy              =   -6250.64232055 Ry
     Harris-Foulkes estimate   =   -6270.45624594 Ry
     estimated scf accuracy    <      53.01068142 Ry

     iteration #  3     ecut=   120.00 Ry     beta= 0.70
     Davidson diagonalization with overlap
     ethr =  3.65E-03,  avg # of iterations =  3.4

     total cpu time spent up to now is      558.0 secs

     total energy              =   -6260.87089080 Ry
     Harris-Foulkes estimate   =   -6261.14595024 Ry
     estimated scf accuracy    <       0.89778752 Ry

     iteration #  4     ecut=   120.00 Ry     beta= 0.70
     Davidson diagonalization with overlap
     ethr =  2.44E-04,  avg # of iterations =  2.3

     total cpu time spent up to now is      683.3 secs

     total energy              =   -6260.87211407 Ry
     Harris-Foulkes estimate   =   -6260.94111455 Ry
     estimated scf accuracy    <       0.21832140 Ry

     iteration #  5     ecut=   120.00 Ry     beta= 0.70
     Davidson diagonalization with overlap
     ethr =  5.93E-05,  avg # of iterations =  5.1

     total cpu time spent up to now is      826.4 secs

     total energy              =   -6260.87360734 Ry
     Harris-Foulkes estimate   =   -6260.90411969 Ry
     estimated scf accuracy    <       0.06746992 Ry

     iteration #  6     ecut=   120.00 Ry     beta= 0.70
     Davidson diagonalization with overlap
     ethr =  1.83E-05,  avg # of iterations =  5.4

     total cpu time spent up to now is      977.0 secs

     total energy              =   -6260.88839229 Ry
     Harris-Foulkes estimate   =   -6260.89064398 Ry
     estimated scf accuracy    <       0.00610320 Ry

     iteration #  7     ecut=   120.00 Ry     beta= 0.70
     Davidson diagonalization with overlap
     ethr =  1.66E-06,  avg # of iterations =  5.2

     total cpu time spent up to now is     1112.4 secs

     total energy              =   -6260.88909993 Ry
     Harris-Foulkes estimate   =   -6260.88921878 Ry
     estimated scf accuracy    <       0.00023080 Ry

     iteration #  8     ecut=   120.00 Ry     beta= 0.70
     Davidson diagonalization with overlap
     ethr =  6.27E-08,  avg # of iterations =  3.1

     total cpu time spent up to now is     1280.7 secs

     total energy              =   -6260.88917754 Ry
     Harris-Foulkes estimate   =   -6260.88918839 Ry
     estimated scf accuracy    <       0.00003866 Ry

     iteration #  9     ecut=   120.00 Ry     beta= 0.70
     Davidson diagonalization with overlap
     ethr =  1.05E-08,  avg # of iterations =  2.0

     total cpu time spent up to now is     1409.4 secs

     total energy              =   -6260.88917911 Ry
     Harris-Foulkes estimate   =   -6260.88918366 Ry
     estimated scf accuracy    <       0.00001961 Ry

     iteration # 10     ecut=   120.00 Ry     beta= 0.70
     Davidson diagonalization with overlap
     ethr =  5.33E-09,  avg # of iterations =  1.7

     total cpu time spent up to now is     1528.1 secs

     total energy              =   -6260.88917791 Ry
     Harris-Foulkes estimate   =   -6260.88918055 Ry
     estimated scf accuracy    <       0.00000619 Ry

     iteration # 11     ecut=   120.00 Ry     beta= 0.70
     Davidson diagonalization with overlap
     ethr =  1.68E-09,  avg # of iterations =  2.9

     total cpu time spent up to now is     1655.5 secs

     total energy              =   -6260.88917918 Ry
     Harris-Foulkes estimate   =   -6260.88917922 Ry
     estimated scf accuracy    <       0.00000009 Ry

     iteration # 12     ecut=   120.00 Ry     beta= 0.70
     Davidson diagonalization with overlap
     ethr =  2.42E-11,  avg # of iterations =  2.2

     total cpu time spent up to now is     1816.0 secs

     total energy              =   -6260.88917921 Ry
     Harris-Foulkes estimate   =   -6260.88917922 Ry
     estimated scf accuracy    <       0.00000002 Ry

     iteration # 13     ecut=   120.00 Ry     beta= 0.70
     Davidson diagonalization with overlap
     ethr =  4.70E-12,  avg # of iterations =  2.4

     total cpu time spent up to now is     1965.2 secs

     End of self-consistent calculation

          k = 0.0000 0.0000 0.0000 ( 61647 PWs)   bands (ev):

   -65.8973 -65.8968 -65.8964 -65.8963 -65.8959 -65.8958 -65.8954 -65.8949
   -30.3207 -30.3128 -30.3120 -30.3034 -30.2831 -30.2765 -30.2700 -30.2700
   -30.2694 -30.2535 -30.2457 -30.2429 -30.2353 -30.2301 -30.2240 -30.2057
   -30.1732 -30.1718 -30.1665 -30.1633 -30.1540 -30.1468 -30.1458 -30.1388
   -20.0513 -20.0511 -20.0507 -20.0506 -20.0506 -20.0504 -20.0500 -20.0499
   -20.0341 -20.0337 -20.0335 -20.0335 -20.0331 -20.0330 -20.0329 -20.0324
   -20.0290 -20.0288 -20.0284 -20.0284 -20.0281 -20.0280 -20.0278 -20.0278
   -20.0275 -20.0274 -20.0270 -20.0268 -20.0241 -20.0239 -20.0232 -20.0230
   -20.0178 -20.0175 -20.0175 -20.0173 -20.0127 -20.0123 -20.0122 -20.0119
   -20.0103 -20.0101 -20.0092 -20.0092 -20.0042 -20.0041 -20.0033 -20.0032
   -19.9982 -19.9980 -19.9970 -19.9967 -19.9954 -19.9952 -19.9941 -19.9940
    -9.7646  -9.4486  -9.3158  -9.3094  -9.0184  -8.9822  -8.8906  -8.7967
    -8.7754  -8.6861  -8.6437  -8.6389  -7.7368  -7.6617  -7.6261  -7.6036
    -7.5895  -7.5878  -7.5877  -7.5263  -7.4998  -7.4716  -7.4624  -7.4543
     1.4992   1.5122   1.5608   1.5622   1.5944   1.6122   1.6436   1.8077
     1.8177   1.8879   1.9004   2.1123   2.5721   2.6680   2.7183   2.7629
     2.8608   2.9357   4.2803   4.3697   4.5259   4.7224   4.8267   4.9202
     4.9644   4.9962   4.9982   4.9982   5.2567   5.2997   5.3883   5.5508
     5.6635   5.7166   5.7377   5.7480   5.8188   5.8374   5.9372   5.9656
     5.9774   6.0014   6.0241   6.0616   6.1102   6.1435   6.1801   6.2694
     6.3087   6.4034   6.4498   6.6767   6.7017   6.9163   6.9441   7.0097
     7.0217   7.1060   7.1163   7.1216   7.1228   7.2042   7.3601   7.4032
     7.4760   7.5146   7.8784   7.9054   8.0853   8.1517   8.2731   8.3262
     9.8617   9.8923  10.3181  10.3307  10.3837  10.4010  12.3428  12.4371
    12.5469  12.6110  12.6791  12.7208  12.7253  12.8322  12.9106  12.9173
    13.4219  13.4420  13.4774  13.5519  13.7913  13.8874  14.2607  14.2632
    14.7488  14.7492  15.0192  15.1038  15.6004  15.6417  15.7991  16.1179
    16.2365  16.9231  17.0585  17.2099  17.8009

          k = 0.0000 0.0000 0.1657 ( 61573 PWs)   bands (ev):

   -65.8973 -65.8968 -65.8965 -65.8962 -65.8960 -65.8957 -65.8954 -65.8949
   -30.3199 -30.3132 -30.3112 -30.3039 -30.2800 -30.2721 -30.2703 -30.2670
   -30.2663 -30.2483 -30.2463 -30.2437 -30.2329 -30.2284 -30.2256 -30.2045
   -30.1782 -30.1769 -30.1721 -30.1680 -30.1537 -30.1471 -30.1465 -30.1398
   -20.0512 -20.0511 -20.0507 -20.0506 -20.0506 -20.0504 -20.0501 -20.0499
   -20.0341 -20.0337 -20.0334 -20.0334 -20.0331 -20.0329 -20.0329 -20.0324
   -20.0290 -20.0289 -20.0284 -20.0284 -20.0282 -20.0280 -20.0279 -20.0276
   -20.0276 -20.0273 -20.0270 -20.0268 -20.0240 -20.0238 -20.0233 -20.0231
   -20.0178 -20.0175 -20.0175 -20.0173 -20.0127 -20.0123 -20.0123 -20.0120
   -20.0098 -20.0097 -20.0089 -20.0088 -20.0046 -20.0045 -20.0037 -20.0036
   -19.9981 -19.9979 -19.9970 -19.9968 -19.9953 -19.9951 -19.9942 -19.9940
    -9.7189  -9.3937  -9.3335  -9.2521  -8.9977  -8.9335  -8.8996  -8.7592
    -8.7394  -8.6767  -8.6435  -8.6137  -7.7816  -7.7684  -7.6779  -7.6306
    -7.6219  -7.6198  -7.5813  -7.5805  -7.5457  -7.5295  -7.4796  -7.4633
     1.5777   1.5917   1.6075   1.6466   1.6927   1.7133   1.8021   1.8106
     1.8834   1.9167   2.0401   2.2152   2.6616   2.7266   2.7594   2.8487
     2.8528   3.0201   4.2642   4.2791   4.5405   4.5586   4.6124   4.7052
     4.7953   4.8159   5.0081   5.0403   5.0764   5.2711   5.4007   5.4911
     5.5230   5.6383   5.6439   5.7724   5.7740   5.7772   5.8499   5.8623
     5.8993   5.9785   6.0679   6.0757   6.0778   6.1475   6.2421   6.3127
     6.3184   6.5656   6.6225   6.6896   6.8279   6.8956   6.9112   6.9267
     7.0162   7.0383   7.1108   7.1133   7.1590   7.2017   7.2500   7.2739
     7.3062   7.3642   7.9016   7.9142   8.1027   8.1567   8.2253   8.2818
    10.0880  10.1517  10.3261  10.3834  10.5998  10.6586  12.3877  12.3895
    12.4825  12.6600  12.6764  12.7203  12.7468  12.9151  12.9192  12.9326
    13.2866  13.4531  13.4535  13.4863  13.8602  13.8876  14.1352  14.1642
    14.7754  14.8603  15.0148  15.2126  15.6211  15.6945  15.7677  16.2071
    16.3936  16.9610  17.0839  17.2287  17.8497

          k = 0.0000 0.0000 0.3313 ( 61654 PWs)   bands (ev):

   -65.8971 -65.8967 -65.8966 -65.8961 -65.8961 -65.8956 -65.8955 -65.8951
   -30.3181 -30.3144 -30.3092 -30.3051 -30.2755 -30.2714 -30.2617 -30.2585
   -30.2570 -30.2483 -30.2464 -30.2337 -30.2312 -30.2238 -30.2221 -30.2004
   -30.1920 -30.1918 -30.1871 -30.1797 -30.1527 -30.1493 -30.1455 -30.1420
   -20.0511 -20.0510 -20.0509 -20.0507 -20.0505 -20.0503 -20.0502 -20.0500
   -20.0340 -20.0338 -20.0334 -20.0333 -20.0332 -20.0330 -20.0328 -20.0325
   -20.0290 -20.0288 -20.0286 -20.0285 -20.0283 -20.0280 -20.0280 -20.0277
   -20.0274 -20.0271 -20.0270 -20.0268 -20.0238 -20.0236 -20.0234 -20.0232
   -20.0177 -20.0176 -20.0175 -20.0173 -20.0126 -20.0124 -20.0122 -20.0120
   -20.0087 -20.0086 -20.0078 -20.0078 -20.0057 -20.0056 -20.0048 -20.0048
   -19.9979 -19.9977 -19.9973 -19.9971 -19.9951 -19.9949 -19.9945 -19.9943
    -9.6060  -9.3880  -9.2622  -9.1180  -9.0454  -8.9302  -8.6957  -8.6929
    -8.6559  -8.6120  -8.5905  -8.4998  -8.0433  -8.0411  -7.9370  -7.9181
    -7.6747  -7.6429  -7.5616  -7.5575  -7.5574  -7.5381  -7.5016  -7.4879
     1.5858   1.5874   1.6564   1.6735   1.7665   1.7902   1.8364   1.8760
     2.4764   2.5258   2.6316   2.7316   2.7499   2.8480   2.9136   3.0206
     3.0840   3.2492   3.8970   4.0334   4.0378   4.1185   4.3206   4.4455
     4.6216   4.6907   4.7803   4.8622   4.8630   5.0039   5.1097   5.3410
     5.3570   5.3997   5.4362   5.5111   5.6501   5.6908   5.7690   5.8494
     5.9732   5.9969   6.0457   6.1001   6.1845   6.2344   6.3234   6.3703
     6.4389   6.5668   6.5839   6.6399   6.7270   6.7404   6.7532   6.9429
     6.9690   7.0954   7.0968   7.1190   7.1421   7.2031   7.2735   7.3262
     7.4013   7.5114   7.8687   7.8768   8.0690   8.1350   8.1405   8.1586
    10.2482  10.3109  10.7543  10.8822  11.1593  11.2635  12.0710  12.1685
    12.3855  12.5154  12.6306  12.7271  12.8480  12.8645  12.9358  13.0524
    13.1479  13.3021  13.3756  13.5020  13.8350  13.8917  13.9127  13.9314
    14.8774  14.9993  15.1613  15.4884  15.6654  15.7575  16.0761  16.1167
    16.4432  17.1830  17.5633  17.5964  17.7597

          k = 0.0000 0.0000-0.4970 ( 61536 PWs)   bands (ev):

   -65.8969 -65.8969 -65.8964 -65.8963 -65.8958 -65.8958 -65.8953 -65.8953
   -30.3161 -30.3161 -30.3070 -30.3070 -30.2730 -30.2730 -30.2520 -30.2520
   -30.2520 -30.2520 -30.2424 -30.2424 -30.2131 -30.2130 -30.2090 -30.2090
   -30.2068 -30.2068 -30.1922 -30.1922 -30.1513 -30.1513 -30.1439 -30.1439
   -20.0510 -20.0510 -20.0509 -20.0509 -20.0503 -20.0503 -20.0502 -20.0502
   -20.0339 -20.0339 -20.0333 -20.0333 -20.0332 -20.0332 -20.0327 -20.0327
   -20.0289 -20.0289 -20.0287 -20.0287 -20.0282 -20.0282 -20.0278 -20.0278
   -20.0272 -20.0272 -20.0269 -20.0269 -20.0236 -20.0236 -20.0234 -20.0234
   -20.0177 -20.0177 -20.0174 -20.0174 -20.0125 -20.0125 -20.0121 -20.0121
   -20.0072 -20.0072 -20.0071 -20.0071 -20.0063 -20.0063 -20.0063 -20.0063
   -19.9976 -19.9976 -19.9974 -19.9974 -19.9948 -19.9948 -19.9946 -19.9946
    -9.4819  -9.4819  -9.1320  -9.1320  -8.9970  -8.9970  -8.6729  -8.6729
    -8.3732  -8.3732  -8.3529  -8.3529  -8.3275  -8.3275  -8.2553  -8.2553
    -7.6600  -7.6600  -7.5494  -7.5494  -7.5311  -7.5311  -7.5223  -7.5223
     1.5858   1.5858   1.6705   1.6705   1.7786   1.7786   1.8681   1.8681
     2.7791   2.7791   3.1759   3.1759   3.2928   3.2928   3.3093   3.3093
     3.4305   3.4305   3.4876   3.4876   3.7254   3.7254   3.9530   3.9530
     4.0438   4.0438   4.7434   4.7434   4.7953   4.7953   5.1805   5.1805
     5.4069   5.4069   5.5301   5.5301   5.5510   5.5510   5.8106   5.8106
     6.0274   6.0274   6.1525   6.1525   6.2188   6.2188   6.3750   6.3750
     6.4209   6.4209   6.5123   6.5123   6.6880   6.6880   6.7538   6.7538
     6.9291   6.9291   7.1075   7.1075   7.1760   7.1760   7.6511   7.6511
     7.6820   7.6820   7.7876   7.7876   7.8855   7.8855   8.1528   8.1528
    10.2857  10.2858  11.4602  11.4603  11.5822  11.5822  11.8271  11.8271
    11.9886  11.9886  12.6591  12.6591  12.9495  12.9495  13.0895  13.0895
    13.1074  13.1074  13.4809  13.4809  13.6425  13.6425  13.9095  13.9095
    14.9626  14.9626  15.4677  15.4677  15.9094  15.9094  15.9607  15.9607
    16.8287  16.8287  18.0522  18.0522  18.3376

          k = 0.0000 0.1595 0.0000 ( 61643 PWs)   bands (ev):

   -65.8973 -65.8968 -65.8964 -65.8963 -65.8959 -65.8958 -65.8953 -65.8949
   -30.3173 -30.3091 -30.3084 -30.2993 -30.2845 -30.2775 -30.2718 -30.2700
   -30.2697 -30.2531 -30.2468 -30.2449 -30.2341 -30.2331 -30.2262 -30.2086
   -30.1731 -30.1719 -30.1665 -30.1638 -30.1537 -30.1475 -30.1455 -30.1394
   -20.0512 -20.0511 -20.0507 -20.0506 -20.0505 -20.0505 -20.0501 -20.0499
   -20.0340 -20.0337 -20.0335 -20.0334 -20.0330 -20.0330 -20.0329 -20.0324
   -20.0287 -20.0285 -20.0284 -20.0281 -20.0280 -20.0278 -20.0278 -20.0278
   -20.0275 -20.0275 -20.0270 -20.0268 -20.0245 -20.0242 -20.0236 -20.0234
   -20.0178 -20.0175 -20.0175 -20.0173 -20.0127 -20.0123 -20.0122 -20.0120
   -20.0103 -20.0101 -20.0092 -20.0092 -20.0042 -20.0041 -20.0033 -20.0032
   -19.9982 -19.9980 -19.9969 -19.9968 -19.9954 -19.9952 -19.9941 -19.9940
    -9.7330  -9.4616  -9.2740  -9.2709  -9.0263  -8.9917  -8.8153  -8.7950
    -8.7768  -8.6403  -8.6061  -8.6022  -7.7934  -7.7161  -7.6830  -7.6608
    -7.6375  -7.6311  -7.5974  -7.5913  -7.4981  -7.4802  -7.4708  -7.4570
     1.4995   1.5106   1.5628   1.5674   1.6225   1.6437   1.7404   1.8994
     1.9972   2.0388   2.0965   2.2565   2.5805   2.6610   2.7937   2.8443
     2.9316   3.0156   4.1417   4.2534   4.2568   4.4117   4.7578   4.9003
     4.9399   4.9933   5.0124   5.0575   5.1874   5.2012   5.3172   5.4860
     5.5662   5.7385   5.7436   5.7593   5.7618   5.8518   5.8962   5.9032
     5.9196   5.9838   6.0117   6.0699   6.0895   6.1425   6.1891   6.2587
     6.2795   6.3813   6.4859   6.6940   6.7618   6.8902   6.9333   6.9819
     7.0796   7.0802   7.0947   7.0949   7.1151   7.1313   7.3706   7.4007
     7.4909   7.5119   7.8786   7.9031   8.0753   8.1151   8.2331   8.2472
     9.8810   9.8947  10.5132  10.5222  10.5305  10.5462  12.2716  12.4404
    12.5508  12.6147  12.6380  12.6913  12.6946  12.6964  12.7437  12.9155
    13.4247  13.4336  13.4949  13.5146  13.8992  13.9062  14.1640  14.1699
    14.8428  14.9911  15.1580  15.2619  15.5966  15.6352  16.0972  16.1875
    16.2016  16.6780  17.1984  17.3474  17.7759

          k = 0.0000 0.1595 0.1657 ( 61603 PWs)   bands (ev):

   -65.8972 -65.8968 -65.8964 -65.8962 -65.8960 -65.8957 -65.8954 -65.8950
   -30.3164 -30.3095 -30.3075 -30.2997 -30.2817 -30.2734 -30.2721 -30.2671
   -30.2664 -30.2480 -30.2475 -30.2455 -30.2318 -30.2312 -30.2276 -30.2073
   -30.1781 -30.1771 -30.1721 -30.1687 -30.1533 -30.1471 -30.1467 -30.1405
   -20.0512 -20.0510 -20.0507 -20.0506 -20.0506 -20.0504 -20.0501 -20.0500
   -20.0340 -20.0337 -20.0335 -20.0334 -20.0330 -20.0330 -20.0330 -20.0324
   -20.0287 -20.0286 -20.0284 -20.0282 -20.0280 -20.0280 -20.0278 -20.0277
   -20.0275 -20.0274 -20.0270 -20.0268 -20.0244 -20.0241 -20.0236 -20.0234
   -20.0178 -20.0175 -20.0175 -20.0173 -20.0126 -20.0123 -20.0122 -20.0120
   -20.0098 -20.0097 -20.0089 -20.0088 -20.0046 -20.0045 -20.0037 -20.0036
   -19.9981 -19.9979 -19.9970 -19.9969 -19.9953 -19.9951 -19.9942 -19.9941
    -9.6859  -9.4068  -9.2917  -9.2095  -9.0075  -8.9415  -8.8243  -8.7577
    -8.7408  -8.6319  -8.6076  -8.5795  -7.8136  -7.7668  -7.7347  -7.7079
    -7.6818  -7.6452  -7.6205  -7.6018  -7.5836  -7.5780  -7.4888  -7.4659
     1.6033   1.6074   1.6231   1.6465   1.7849   1.8111   1.8266   2.0033
     2.0394   2.0651   2.0920   2.3155   2.6706   2.7516   2.8022   2.9242
     2.9311   3.0990   4.1504   4.1946   4.3069   4.3949   4.5636   4.6001
     4.7501   4.8428   4.9581   4.9897   5.0407   5.1973   5.3188   5.3998
     5.4681   5.5273   5.6786   5.7021   5.7076   5.7893   5.8494   5.8608
     5.9007   5.9682   5.9905   6.0487   6.0632   6.1274   6.2289   6.2682
     6.3694   6.5035   6.6319   6.7411   6.8627   6.9155   6.9419   6.9757
     6.9814   7.0486   7.0856   7.1080   7.1303   7.1505   7.2552   7.2805
     7.3343   7.3622   7.9007   7.9122   8.0833   8.1217   8.1879   8.2096
    10.1428  10.1590  10.5189  10.5430  10.7286  10.7762  12.3297  12.3859
    12.4872  12.6015  12.6578  12.7239  12.7303  12.7488  12.7984  12.9405
    13.2778  13.4155  13.4329  13.4920  13.8991  13.9479  14.0349  14.0745
    14.9028  15.1048  15.1734  15.3510  15.6151  15.6942  16.1566  16.1720
    16.3715  16.8357  17.0892  17.3490  17.8321

          k = 0.0000 0.1595 0.3313 ( 61587 PWs)   bands (ev):

   -65.8971 -65.8966 -65.8966 -65.8962 -65.8960 -65.8956 -65.8956 -65.8951
   -30.3146 -30.3107 -30.3053 -30.3010 -30.2775 -30.2732 -30.2637 -30.2583
   -30.2571 -30.2499 -30.2476 -30.2335 -30.2329 -30.2239 -30.2230 -30.2030
   -30.1921 -30.1920 -30.1870 -30.1809 -30.1524 -30.1490 -30.1461 -30.1426
   -20.0511 -20.0509 -20.0508 -20.0507 -20.0505 -20.0504 -20.0502 -20.0501
   -20.0339 -20.0337 -20.0334 -20.0333 -20.0331 -20.0331 -20.0328 -20.0325
   -20.0287 -20.0286 -20.0284 -20.0283 -20.0282 -20.0280 -20.0279 -20.0277
   -20.0274 -20.0271 -20.0270 -20.0268 -20.0242 -20.0240 -20.0238 -20.0236
   -20.0177 -20.0176 -20.0175 -20.0174 -20.0126 -20.0123 -20.0123 -20.0121
   -20.0087 -20.0086 -20.0078 -20.0078 -20.0057 -20.0056 -20.0048 -20.0048
   -19.9979 -19.9977 -19.9973 -19.9971 -19.9950 -19.9949 -19.9944 -19.9943
    -9.5700  -9.3470  -9.2753  -9.0620  -9.0560  -8.8557  -8.7011  -8.6733
    -8.6198  -8.6137  -8.5696  -8.4791  -8.0493  -8.0389  -7.9503  -7.9157
    -7.7470  -7.7252  -7.6606  -7.6380  -7.5787  -7.5601  -7.5126  -7.4906
     1.6261   1.6393   1.6562   1.6731   1.9583   1.9753   2.0484   2.0859
     2.4756   2.5322   2.6348   2.7474   2.8242   2.9121   2.9249   3.0158
     3.1668   3.3201   3.9054   4.0129   4.0467   4.0714   4.3154   4.3683
     4.4228   4.6439   4.6934   4.7134   4.8019   4.9390   4.9661   5.2039
     5.2256   5.3572   5.3953   5.4115   5.6142   5.6798   5.7267   5.8611
     5.9133   5.9593   6.0013   6.0145   6.0633   6.2441   6.2614   6.3085
     6.4996   6.5741   6.7004   6.7180   6.7365   6.8223   6.9015   6.9179
     6.9791   7.0684   7.0692   7.1189   7.1226   7.1688   7.3025   7.3229
     7.4112   7.5039   7.8678   7.8750   8.0411   8.0862   8.1034   8.1239
    10.4457  10.5103  10.7658  10.8960  11.2517  11.3377  12.0749  12.1659
    12.3953  12.4989  12.6578  12.7470  12.7704  12.7980  12.8565  12.9652
    13.0279  13.2799  13.3445  13.4732  13.7246  13.8435  13.9035  13.9650
    15.0324  15.1281  15.4842  15.6086  15.7419  16.0261  16.0832  16.1252
    16.5711  17.1542  17.3205  17.6151  17.8356

          k = 0.0000 0.1595-0.4970 ( 61584 PWs)   bands (ev):

   -65.8969 -65.8968 -65.8964 -65.8964 -65.8958 -65.8958 -65.8954 -65.8953
   -30.3125 -30.3125 -30.3030 -30.3030 -30.2749 -30.2749 -30.2550 -30.2550
   -30.2515 -30.2515 -30.2431 -30.2431 -30.2131 -30.2130 -30.2097 -30.2097
   -30.2065 -30.2065 -30.1941 -30.1941 -30.1509 -30.1509 -30.1446 -30.1446
   -20.0509 -20.0509 -20.0508 -20.0508 -20.0504 -20.0503 -20.0502 -20.0502
   -20.0338 -20.0338 -20.0332 -20.0332 -20.0332 -20.0332 -20.0327 -20.0327
   -20.0286 -20.0286 -20.0285 -20.0285 -20.0281 -20.0281 -20.0278 -20.0278
   -20.0271 -20.0271 -20.0269 -20.0269 -20.0240 -20.0239 -20.0237 -20.0237
   -20.0177 -20.0177 -20.0174 -20.0174 -20.0125 -20.0125 -20.0122 -20.0122
   -20.0072 -20.0072 -20.0071 -20.0071 -20.0063 -20.0063 -20.0063 -20.0063
   -19.9976 -19.9976 -19.9974 -19.9974 -19.9947 -19.9947 -19.9946 -19.9946
    -9.4427  -9.4427  -9.1439  -9.1439  -8.9273  -8.9273  -8.6379  -8.6379
    -8.3773  -8.3773  -8.3477  -8.3477  -8.3357  -8.3357  -8.2483  -8.2482
    -7.7391  -7.7391  -7.6510  -7.6510  -7.5455  -7.5455  -7.5250  -7.5250
     1.6343   1.6344   1.6702   1.6702   1.9757   1.9757   2.0773   2.0773
     2.8492   2.8492   3.1908   3.1908   3.3019   3.3019   3.3217   3.3217
     3.4272   3.4272   3.5198   3.5198   3.7140   3.7140   3.9644   3.9644
     4.0972   4.0972   4.5490   4.5490   4.6347   4.6347   4.9663   4.9663
     5.2871   5.2871   5.4988   5.4988   5.5457   5.5457   5.7742   5.7742
     5.9410   5.9410   5.9916   5.9916   6.2068   6.2068   6.3738   6.3738
     6.4957   6.4957   6.5608   6.5608   6.7463   6.7463   6.8466   6.8466
     6.9885   6.9885   7.0936   7.0936   7.1203   7.1203   7.6533   7.6533
     7.6794   7.6794   7.7758   7.7758   7.8562   7.8562   8.1175   8.1175
    10.4913  10.4914  11.4681  11.4681  11.5817  11.5817  11.8880  11.8880
    12.0372  12.0372  12.6795  12.6795  12.8053  12.8053  13.0363  13.0364
    13.0844  13.0844  13.3632  13.3632  13.5989  13.5989  13.9236  13.9237
    15.1013  15.1013  15.8194  15.8194  15.9331  15.9331  16.0465  16.0465
    16.8772  16.8772  17.8707  17.8707  18.2408

          k = 0.0000 0.3190 0.0000 ( 61620 PWs)   bands (ev):

   -65.8972 -65.8969 -65.8963 -65.8962 -65.8960 -65.8959 -65.8953 -65.8950
   -30.3084 -30.2997 -30.2989 -30.2892 -30.2880 -30.2810 -30.2775 -30.2703
   -30.2702 -30.2575 -30.2515 -30.2423 -30.2403 -30.2316 -30.2304 -30.2158
   -30.1729 -30.1722 -30.1664 -30.1650 -30.1526 -30.1491 -30.1445 -30.1411
   -20.0511 -20.0509 -20.0507 -20.0506 -20.0505 -20.0504 -20.0502 -20.0501
   -20.0339 -20.0336 -20.0335 -20.0333 -20.0331 -20.0331 -20.0329 -20.0325
   -20.0283 -20.0279 -20.0279 -20.0278 -20.0277 -20.0276 -20.0275 -20.0275
   -20.0273 -20.0272 -20.0269 -20.0267 -20.0254 -20.0251 -20.0245 -20.0244
   -20.0177 -20.0176 -20.0174 -20.0173 -20.0126 -20.0124 -20.0122 -20.0120
   -20.0102 -20.0102 -20.0092 -20.0092 -20.0042 -20.0041 -20.0032 -20.0032
   -19.9981 -19.9981 -19.9969 -19.9968 -19.9953 -19.9952 -19.9941 -19.9940
    -9.6553  -9.5016  -9.1841  -9.1760  -9.0522  -9.0227  -8.7909  -8.7806
    -8.6033  -8.4962  -8.4822  -8.4726  -8.0110  -7.9617  -7.9353  -7.9137
    -7.6591  -7.6551  -7.5994  -7.5955  -7.4935  -7.4809  -7.4795  -7.4641
     1.5007   1.5069   1.5645   1.5690   1.6394   1.6437   1.8589   1.8963
     2.5158   2.6064   2.6418   2.6422   2.7165   2.8428   3.0100   3.1083
     3.1336   3.2711   3.7679   3.7819   3.9198   3.9271   4.2905   4.6126
     4.7344   4.8861   4.9481   4.9590   5.0194   5.0763   5.2317   5.2450
     5.3231   5.3247   5.6227   5.6733   5.7444   5.7804   5.8846   5.9494
     5.9758   5.9959   6.0627   6.0772   6.0952   6.1595   6.2012   6.2743
     6.3042   6.3428   6.4960   6.6579   6.7515   6.8146   6.9644   7.0004
     7.0103   7.0806   7.2625   7.2683   7.2907   7.3112   7.3960   7.3983
     7.5127   7.5129   7.8542   7.8934   7.9730   7.9801   8.0208   8.0612
     9.8978   9.8991  10.9201  10.9978  11.0189  11.0268  11.9767  12.2081
    12.2229  12.3068  12.5458  12.5559  12.6721  12.7013  12.7289  12.8938
    13.4460  13.4898  13.5318  13.5449  13.7814  13.8971  13.9326  13.9560
    15.1561  15.4767  15.5329  15.5858  15.6216  15.8947  16.0203  16.0902
    16.1827  17.1329  17.4550  17.6809  17.8110

          k = 0.0000 0.3190 0.1657 ( 61572 PWs)   bands (ev):

   -65.8971 -65.8969 -65.8964 -65.8961 -65.8961 -65.8958 -65.8953 -65.8951
   -30.3074 -30.3000 -30.2978 -30.2885 -30.2871 -30.2784 -30.2772 -30.2671
   -30.2666 -30.2581 -30.2468 -30.2430 -30.2376 -30.2327 -30.2283 -30.2143
   -30.1780 -30.1774 -30.1719 -30.1701 -30.1523 -30.1487 -30.1457 -30.1422
   -20.0510 -20.0509 -20.0507 -20.0506 -20.0505 -20.0504 -20.0502 -20.0501
   -20.0339 -20.0336 -20.0335 -20.0333 -20.0331 -20.0330 -20.0329 -20.0326
   -20.0282 -20.0281 -20.0280 -20.0279 -20.0277 -20.0276 -20.0274 -20.0274
   -20.0274 -20.0273 -20.0268 -20.0267 -20.0253 -20.0251 -20.0246 -20.0244
   -20.0177 -20.0176 -20.0175 -20.0173 -20.0126 -20.0124 -20.0122 -20.0120
   -20.0098 -20.0097 -20.0089 -20.0088 -20.0046 -20.0045 -20.0037 -20.0036
   -19.9981 -19.9980 -19.9970 -19.9969 -19.9952 -19.9952 -19.9942 -19.9941
    -9.6053  -9.4473  -9.1943  -9.1118  -9.0391  -8.9681  -8.7541  -8.7443
    -8.6120  -8.4910  -8.4851  -8.4589  -8.0130  -7.9691  -7.9352  -7.9202
    -7.7624  -7.7450  -7.6168  -7.6112  -7.5935  -7.5893  -7.4898  -7.4731
     1.6076   1.6090   1.6415   1.6465   1.8119   1.8122   1.9906   2.0365
     2.5306   2.6358   2.6853   2.7139   2.7325   2.8460   3.0168   3.1269
     3.1923   3.3516   3.7822   3.8558   3.9116   3.9260   4.2656   4.5546
     4.5857   4.6244   4.7421   4.9350   4.9631   5.0357   5.0706   5.0937
     5.2666   5.3492   5.4518   5.5199   5.5810   5.6811   5.7651   5.8480
     5.8936   5.9094   5.9655   6.0540   6.1331   6.1602   6.1680   6.2740
     6.4508   6.5287   6.6186   6.7111   6.7717   6.9378   6.9904   7.0681
     7.0804   7.1122   7.2036   7.2277   7.2387   7.2488   7.2822   7.3397
     7.3929   7.4109   7.8727   7.8991   7.9676   7.9903   7.9976   8.0326
    10.1721  10.1762  11.0198  11.0381  11.0820  11.1615  12.0623  12.1948
    12.2948  12.3088  12.4893  12.4904  12.7127  12.7394  12.8045  12.9471
    13.3215  13.4013  13.4499  13.4927  13.7810  13.7927  13.8887  13.9162
    15.2437  15.5069  15.5951  15.6870  15.7086  15.9550  16.0597  16.2817
    16.3601  17.0984  17.5100  17.5137  17.7737

          k = 0.0000 0.3190 0.3313 ( 61643 PWs)   bands (ev):

   -65.8970 -65.8967 -65.8965 -65.8963 -65.8959 -65.8957 -65.8955 -65.8952
   -30.3052 -30.3011 -30.2950 -30.2899 -30.2836 -30.2792 -30.2703 -30.2605
   -30.2579 -30.2569 -30.2455 -30.2370 -30.2329 -30.2278 -30.2205 -30.2091
   -30.1923 -30.1923 -30.1865 -30.1832 -30.1513 -30.1479 -30.1478 -30.1443
   -20.0509 -20.0508 -20.0507 -20.0506 -20.0505 -20.0505 -20.0503 -20.0502
   -20.0338 -20.0336 -20.0335 -20.0332 -20.0332 -20.0330 -20.0329 -20.0327
   -20.0282 -20.0281 -20.0281 -20.0279 -20.0278 -20.0278 -20.0277 -20.0276
   -20.0271 -20.0270 -20.0267 -20.0267 -20.0251 -20.0249 -20.0247 -20.0245
   -20.0177 -20.0175 -20.0175 -20.0174 -20.0125 -20.0123 -20.0123 -20.0121
   -20.0087 -20.0086 -20.0078 -20.0078 -20.0057 -20.0056 -20.0048 -20.0048
   -19.9978 -19.9978 -19.9972 -19.9971 -19.9950 -19.9949 -19.9944 -19.9943
    -9.4821  -9.3160  -9.2504  -9.0900  -8.9259  -8.7302  -8.6490  -8.6385
    -8.6187  -8.4989  -8.4638  -8.3975  -8.0950  -8.0478  -8.0319  -7.9629
    -7.9360  -7.9087  -7.9081  -7.8310  -7.5836  -7.5673  -7.5145  -7.4978
     1.6487   1.6557   1.6654   1.6722   2.3882   2.4706   2.4730   2.5686
     2.6345   2.6805   2.7139   2.8983   2.9771   2.9835   3.0392   3.1184
     3.4121   3.5395   3.8121   3.8509   3.9057   3.9548   4.0045   4.0491
     4.2679   4.4774   4.4850   4.5920   4.5964   4.7655   4.8013   4.9377
     4.9634   5.0966   5.2594   5.3611   5.4008   5.4070   5.4495   5.5734
     5.6104   5.7971   5.8356   6.0079   6.2218   6.2813   6.2859   6.3091
     6.5990   6.6517   6.7019   6.7871   6.7993   6.9143   6.9375   6.9382
     7.1285   7.1431   7.1985   7.2386   7.2600   7.3038   7.3697   7.3803
     7.4221   7.4952   7.8507   7.8566   7.9204   7.9289   7.9623   7.9839
    10.7657  10.7899  11.0185  11.1003  11.5214  11.5998  12.0494  12.1556
    12.2744  12.3287  12.3331  12.4990  12.7407  12.8339  12.8371  12.8718
    12.9075  13.2104  13.2336  13.4519  13.4815  13.7466  13.7865  13.8867
    15.3582  15.4808  15.6894  15.9784  16.1487  16.1961  16.2132  16.8578
    16.9775  16.9968  17.0602  17.7084  17.7962

          k = 0.0000 0.3190-0.4970 ( 61634 PWs)   bands (ev):

   -65.8968 -65.8967 -65.8965 -65.8965 -65.8957 -65.8957 -65.8955 -65.8954
   -30.3030 -30.3029 -30.2921 -30.2921 -30.2810 -30.2810 -30.2641 -30.2641
   -30.2501 -30.2501 -30.2452 -30.2452 -30.2129 -30.2129 -30.2113 -30.2113
   -30.2052 -30.2052 -30.1984 -30.1984 -30.1498 -30.1498 -30.1463 -30.1463
   -20.0508 -20.0508 -20.0507 -20.0507 -20.0505 -20.0505 -20.0503 -20.0503
   -20.0337 -20.0337 -20.0334 -20.0333 -20.0331 -20.0331 -20.0328 -20.0328
   -20.0280 -20.0280 -20.0280 -20.0280 -20.0279 -20.0279 -20.0277 -20.0277
   -20.0269 -20.0269 -20.0268 -20.0268 -20.0249 -20.0249 -20.0247 -20.0247
   -20.0176 -20.0176 -20.0175 -20.0175 -20.0124 -20.0124 -20.0122 -20.0122
   -20.0072 -20.0072 -20.0071 -20.0071 -20.0063 -20.0063 -20.0063 -20.0063
   -19.9975 -19.9975 -19.9975 -19.9974 -19.9947 -19.9947 -19.9946 -19.9946
    -9.3487  -9.3487  -9.1818  -9.1818  -8.7380  -8.7380  -8.5312  -8.5312
    -8.3981  -8.3981  -8.3654  -8.3654  -8.3234  -8.3234  -8.2202  -8.2202
    -7.9633  -7.9633  -7.8982  -7.8982  -7.5489  -7.5489  -7.5323  -7.5323
     1.6612   1.6612   1.6693   1.6693   2.5426   2.5426   2.6881   2.6881
     3.0407   3.0408   3.2342   3.2342   3.2828   3.2828   3.3766   3.3766
     3.4154   3.4155   3.6194   3.6194   3.6669   3.6669   3.8856   3.8856
     4.2008   4.2008   4.2519   4.2519   4.3191   4.3191   4.4890   4.4890
     5.0484   5.0484   5.2174   5.2174   5.3701   5.3701   5.4817   5.4817
     5.6413   5.6413   5.9239   5.9239   6.3070   6.3070   6.3783   6.3783
     6.6175   6.6175   6.6479   6.6479   6.7386   6.7386   6.8817   6.8817
     7.2073   7.2073   7.2509   7.2509   7.2913   7.2913   7.6476   7.6476
     7.6710   7.6710   7.7118   7.7118   7.7675   7.7675   7.9685   7.9685
    10.9996  10.9996  11.4851  11.4851  11.5873  11.5873  12.0513  12.0513
    12.1974  12.1974  12.4190  12.4190  12.6902  12.6902  12.7970  12.7970
    13.0686  13.0686  13.1091  13.1091  13.5691  13.5691  13.8162  13.8162
    15.4320  15.4320  15.8458  15.8458  16.4974  16.4974  16.7086  16.7086
    17.0434  17.0434  17.5017  17.5017  18.0232

          k = 0.0000-0.4785 0.0000 ( 61594 PWs)   bands (ev):

   -65.8971 -65.8971 -65.8962 -65.8962 -65.8960 -65.8960 -65.8951 -65.8951
   -30.2978 -30.2978 -30.2887 -30.2887 -30.2873 -30.2873 -30.2730 -30.2730
   -30.2700 -30.2700 -30.2474 -30.2474 -30.2377 -30.2377 -30.2240 -30.2240
   -30.1726 -30.1726 -30.1659 -30.1659 -30.1510 -30.1510 -30.1429 -30.1429
   -20.0509 -20.0509 -20.0507 -20.0507 -20.0503 -20.0503 -20.0502 -20.0502
   -20.0338 -20.0338 -20.0333 -20.0333 -20.0332 -20.0332 -20.0327 -20.0327
   -20.0281 -20.0281 -20.0278 -20.0277 -20.0275 -20.0275 -20.0272 -20.0272
   -20.0266 -20.0266 -20.0264 -20.0264 -20.0258 -20.0258 -20.0256 -20.0256
   -20.0176 -20.0176 -20.0174 -20.0174 -20.0125 -20.0125 -20.0121 -20.0121
   -20.0102 -20.0102 -20.0092 -20.0092 -20.0042 -20.0041 -20.0032 -20.0032
   -19.9981 -19.9981 -19.9969 -19.9968 -19.9953 -19.9953 -19.9941 -19.9940
    -9.5689  -9.5689  -9.1031  -9.1031  -9.0825  -9.0825  -8.7857  -8.7857
    -8.3067  -8.3067  -8.2535  -8.2534  -8.2439  -8.2439  -8.2343  -8.2343
    -7.6579  -7.6579  -7.5989  -7.5989  -7.4870  -7.4870  -7.4734  -7.4734
     1.5032   1.5032   1.5669   1.5669   1.6432   1.6432   1.8879   1.8879
     2.6163   2.6163   3.1735   3.1736   3.3078   3.3078   3.3611   3.3611
     3.3804   3.3804   3.5435   3.5435   3.7664   3.7664   3.8727   3.8727
     3.9662   3.9662   4.9033   4.9033   5.0299   5.0299   5.3882   5.3882
     5.4622   5.4622   5.5524   5.5524   5.5539   5.5539   5.9414   5.9414
     6.0085   6.0085   6.0132   6.0132   6.1745   6.1745   6.2487   6.2487
     6.3364   6.3364   6.4825   6.4825   6.8420   6.8420   6.8959   6.8959
     7.0486   7.0486   7.3894   7.3894   7.4854   7.4854   7.6168   7.6169
     7.6446   7.6446   7.7044   7.7044   7.7459   7.7459   7.9151   7.9152
     9.9017   9.9017  11.4631  11.4631  11.5496  11.5496  11.6492  11.6492
    11.7528  11.7528  12.5514  12.5514  12.6889  12.6889  12.8260  12.8260
    13.5787  13.5787  13.5801  13.5801  13.6887  13.6887  13.8067  13.8067
    15.5216  15.5216  15.7141  15.7141  15.8393  15.8393  15.8780  15.8780
    16.7589  16.7589  18.2129  18.2135  18.2798

          k = 0.0000-0.4785 0.1657 ( 61564 PWs)   bands (ev):

   -65.8970 -65.8970 -65.8962 -65.8962 -65.8960 -65.8960 -65.8952 -65.8952
   -30.2964 -30.2964 -30.2882 -30.2881 -30.2861 -30.2861 -30.2734 -30.2734
   -30.2667 -30.2667 -30.2436 -30.2435 -30.2386 -30.2386 -30.2222 -30.2222
   -30.1777 -30.1777 -30.1712 -30.1712 -30.1506 -30.1506 -30.1441 -30.1441
   -20.0509 -20.0509 -20.0507 -20.0507 -20.0504 -20.0504 -20.0503 -20.0503
   -20.0337 -20.0337 -20.0333 -20.0333 -20.0332 -20.0332 -20.0327 -20.0327
   -20.0281 -20.0281 -20.0278 -20.0278 -20.0276 -20.0275 -20.0273 -20.0273
   -20.0265 -20.0265 -20.0263 -20.0263 -20.0258 -20.0258 -20.0257 -20.0257
   -20.0176 -20.0176 -20.0174 -20.0174 -20.0125 -20.0125 -20.0121 -20.0121
   -20.0098 -20.0098 -20.0088 -20.0088 -20.0046 -20.0045 -20.0037 -20.0036
   -19.9980 -19.9980 -19.9969 -19.9969 -19.9952 -19.9952 -19.9941 -19.9941
    -9.5161  -9.5161  -9.1001  -9.1001  -9.0221  -9.0221  -8.7492  -8.7492
    -8.3118  -8.3118  -8.2585  -8.2585  -8.2453  -8.2453  -8.2284  -8.2283
    -7.7559  -7.7559  -7.6129  -7.6129  -7.5946  -7.5946  -7.4823  -7.4823
     1.6084   1.6084   1.6457   1.6457   1.8136   1.8136   2.0273   2.0273
     2.7059   2.7059   3.1934   3.1934   3.3011   3.3011   3.3535   3.3535
     3.4474   3.4474   3.5326   3.5326   3.7782   3.7782   3.8911   3.8911
     3.9979   3.9979   4.5772   4.5772   5.0221   5.0221   5.1889   5.1889
     5.3010   5.3010   5.4615   5.4616   5.5407   5.5407   5.6942   5.6942
     5.9148   5.9148   5.9653   5.9653   6.1537   6.1537   6.2512   6.2512
     6.5255   6.5255   6.5954   6.5954   6.8358   6.8358   7.0428   7.0429
     7.1259   7.1259   7.2449   7.2449   7.3082   7.3082   7.6345   7.6345
     7.6377   7.6377   7.6918   7.6918   7.7292   7.7293   7.9309   7.9309
    10.1798  10.1798  11.5712  11.5712  11.6363  11.6363  11.6616  11.6616
    11.7788  11.7788  12.4842  12.4842  12.7258  12.7259  12.9057  12.9057
    13.4295  13.4295  13.5323  13.5324  13.5827  13.5827  13.8191  13.8191
    15.5233  15.5233  15.8302  15.8303  15.9124  15.9124  16.0950  16.0950
    16.8151  16.8151  18.0753  18.0754  18.1912

          k = 0.0000-0.4785 0.3313 ( 61624 PWs)   bands (ev):

   -65.8969 -65.8968 -65.8964 -65.8964 -65.8958 -65.8958 -65.8954 -65.8953
   -30.2936 -30.2936 -30.2892 -30.2892 -30.2817 -30.2817 -30.2749 -30.2749
   -30.2575 -30.2575 -30.2418 -30.2418 -30.2312 -30.2312 -30.2157 -30.2157
   -30.1924 -30.1924 -30.1853 -30.1853 -30.1497 -30.1497 -30.1462 -30.1462
   -20.0508 -20.0508 -20.0506 -20.0506 -20.0505 -20.0505 -20.0504 -20.0504
   -20.0336 -20.0336 -20.0334 -20.0334 -20.0331 -20.0331 -20.0328 -20.0328
   -20.0281 -20.0281 -20.0278 -20.0278 -20.0277 -20.0277 -20.0275 -20.0275
   -20.0263 -20.0262 -20.0261 -20.0261 -20.0259 -20.0259 -20.0257 -20.0257
   -20.0176 -20.0176 -20.0175 -20.0175 -20.0124 -20.0124 -20.0122 -20.0122
   -20.0087 -20.0087 -20.0078 -20.0078 -20.0057 -20.0056 -20.0048 -20.0048
   -19.9978 -19.9978 -19.9972 -19.9972 -19.9950 -19.9950 -19.9944 -19.9944
    -9.3870  -9.3870  -9.1543  -9.1542  -8.7983  -8.7983  -8.6271  -8.6271
    -8.3480  -8.3479  -8.2829  -8.2828  -8.2418  -8.2418  -8.2056  -8.2056
    -8.0149  -8.0149  -7.8917  -7.8917  -7.5766  -7.5766  -7.5071  -7.5071
     1.6543   1.6543   1.6706   1.6707   2.4650   2.4650   2.6155   2.6155
     2.9595   2.9595   3.2279   3.2279   3.2950   3.2950   3.3792   3.3792
     3.4607   3.4608   3.6123   3.6123   3.7465   3.7465   3.9689   3.9689
     4.0200   4.0200   4.0622   4.0622   4.6435   4.6435   4.8031   4.8031
     4.9631   4.9631   5.0609   5.0609   5.4291   5.4291   5.4871   5.4871
     5.5965   5.5965   5.8685   5.8685   6.2791   6.2791   6.3168   6.3168
     6.6425   6.6425   6.7352   6.7352   6.8317   6.8317   6.9595   6.9596
     7.2277   7.2277   7.3157   7.3158   7.3551   7.3551   7.6078   7.6079
     7.6476   7.6476   7.6654   7.6654   7.7074   7.7074   7.8935   7.8935
    10.8039  10.8039  11.6323  11.6323  11.7057  11.7057  11.9327  11.9327
    12.0369  12.0369  12.1725  12.1725  12.8385  12.8385  12.8848  12.8848
    13.0269  13.0269  13.2192  13.2192  13.5935  13.5935  13.7658  13.7658
    15.5749  15.5749  15.7869  15.7869  16.4590  16.4590  16.7862  16.7862
    17.0107  17.0107  17.5914  17.5914  18.0253

          k = 0.0000-0.4785-0.4970 ( 61608 PWs)   bands (ev):

   -65.8966 -65.8966 -65.8966 -65.8966 -65.8956 -65.8956 -65.8956 -65.8956
   -30.2911 -30.2911 -30.2911 -30.2911 -30.2777 -30.2777 -30.2777 -30.2777
   -30.2478 -30.2478 -30.2478 -30.2478 -30.2124 -30.2124 -30.2124 -30.2124
   -30.2026 -30.2026 -30.2026 -30.2025 -30.1482 -30.1482 -30.1482 -30.1482
   -20.0506 -20.0506 -20.0506 -20.0506 -20.0505 -20.0505 -20.0505 -20.0505
   -20.0335 -20.0335 -20.0335 -20.0335 -20.0330 -20.0330 -20.0330 -20.0329
   -20.0279 -20.0279 -20.0279 -20.0279 -20.0277 -20.0277 -20.0277 -20.0277
   -20.0260 -20.0260 -20.0260 -20.0260 -20.0259 -20.0259 -20.0259 -20.0259
   -20.0176 -20.0176 -20.0175 -20.0175 -20.0123 -20.0123 -20.0123 -20.0123
   -20.0072 -20.0072 -20.0072 -20.0071 -20.0063 -20.0063 -20.0063 -20.0063
   -19.9975 -19.9975 -19.9975 -19.9975 -19.9947 -19.9947 -19.9947 -19.9947
    -9.2508  -9.2508  -9.2508  -9.2508  -8.5115  -8.5115  -8.5115  -8.5115
    -8.4144  -8.4144  -8.4144  -8.4144  -8.2085  -8.2085  -8.2085  -8.2085
    -8.1290  -8.1290  -8.1290  -8.1290  -7.5416  -7.5416  -7.5416  -7.5416
     1.6675   1.6675   1.6675   1.6675   3.1363   3.1363   3.1363   3.1363
     3.2518   3.2518   3.2518   3.2518   3.3780   3.3780   3.3780   3.3780
     3.4659   3.4659   3.4659   3.4659   3.7139   3.7139   3.7139   3.7139
     3.8642   3.8642   3.8642   3.8642   4.5185   4.5185   4.5185   4.5185
     4.6366   4.6366   4.6366   4.6366   5.4407   5.4407   5.4407   5.4407
     5.7244   5.7244   5.7244   5.7244   6.3646   6.3646   6.3646   6.3646
     6.6594   6.6594   6.6594   6.6594   6.7874   6.7874   6.7874   6.7874
     7.4441   7.4441   7.4441   7.4441   7.5463   7.5463   7.5463   7.5463
     7.6375   7.6375   7.6375   7.6375   7.7465   7.7465   7.7465   7.7465
    11.4540  11.4540  11.4540  11.4540  11.7583  11.7583  11.7583  11.7583
    12.4407  12.4407  12.4407  12.4407  12.5059  12.5059  12.5059  12.5059
    13.0293  13.0293  13.0293  13.0293  13.6495  13.6495  13.6495  13.6495
    15.6866  15.6866  15.6866  15.6866  17.1060  17.1060  17.1060  17.1060
    17.4768  17.4768  17.4768  17.4768  17.6203

          k = 0.1667 0.0000 0.0000 ( 61584 PWs)   bands (ev):

   -65.8973 -65.8967 -65.8964 -65.8963 -65.8958 -65.8958 -65.8954 -65.8949
   -30.3198 -30.3125 -30.3118 -30.3039 -30.2823 -30.2769 -30.2676 -30.2663
   -30.2654 -30.2541 -30.2436 -30.2402 -30.2314 -30.2314 -30.2214 -30.2036
   -30.1756 -30.1741 -30.1661 -30.1628 -30.1600 -30.1523 -30.1500 -30.1428
   -20.0513 -20.0511 -20.0507 -20.0506 -20.0506 -20.0505 -20.0500 -20.0499
   -20.0340 -20.0337 -20.0335 -20.0334 -20.0331 -20.0330 -20.0329 -20.0324
   -20.0290 -20.0289 -20.0286 -20.0283 -20.0282 -20.0280 -20.0278 -20.0278
   -20.0275 -20.0275 -20.0270 -20.0268 -20.0241 -20.0239 -20.0232 -20.0231
   -20.0174 -20.0172 -20.0170 -20.0169 -20.0130 -20.0127 -20.0125 -20.0123
   -20.0102 -20.0100 -20.0093 -20.0092 -20.0041 -20.0041 -20.0033 -20.0033
   -19.9980 -19.9978 -19.9968 -19.9966 -19.9956 -19.9954 -19.9944 -19.9942
    -9.7198  -9.3988  -9.3286  -9.2608  -9.0342  -8.9016  -8.8981  -8.7648
    -8.7343  -8.6681  -8.6493  -8.6061  -7.7924  -7.7175  -7.6673  -7.6426
    -7.6322  -7.5936  -7.5930  -7.5718  -7.5481  -7.5311  -7.5095  -7.4717
     1.5577   1.5589   1.5608   1.5658   1.6780   1.7151   1.8033   1.8134
     1.8785   2.0000   2.0927   2.2476   2.6507   2.7565   2.7705   2.8077
     2.9242   2.9613   4.2167   4.3423   4.4967   4.5444   4.6351   4.7330
     4.7411   4.9403   4.9488   4.9538   5.0068   5.2729   5.3866   5.5881
     5.6129   5.6807   5.6837   5.7147   5.7653   5.8128   5.8174   5.8742
     5.9640   5.9746   6.0454   6.0508   6.1156   6.1445   6.2499   6.2552
     6.4174   6.5238   6.5809   6.6516   6.8764   6.8897   6.9595   6.9704
     7.0003   7.0296   7.0407   7.0710   7.0779   7.1394   7.2769   7.2828
     7.3601   7.3622   7.9027   7.9169   8.0620   8.1298   8.2856   8.3272
    10.1345  10.1699  10.3613  10.4003  10.5395  10.6325  12.2923  12.4964
    12.5025  12.5784  12.6331  12.7366  12.7656  12.8414  12.9831  12.9984
    13.2964  13.3823  13.4778  13.5551  13.8079  13.8676  14.2571  14.2584
    14.7067  14.7458  15.0269  15.2279  15.6261  15.6390  15.7558  16.0952
    16.5066  16.8410  17.0694  17.3839  17.8327

          k = 0.1667 0.0000 0.1657 ( 61590 PWs)   bands (ev):

   -65.8972 -65.8967 -65.8964 -65.8963 -65.8959 -65.8958 -65.8955 -65.8950
   -30.3191 -30.3123 -30.3117 -30.3043 -30.2787 -30.2725 -30.2667 -30.2636
   -30.2634 -30.2489 -30.2444 -30.2408 -30.2297 -30.2295 -30.2231 -30.2025
   -30.1802 -30.1787 -30.1717 -30.1674 -30.1597 -30.1522 -30.1516 -30.1442
   -20.0512 -20.0511 -20.0507 -20.0506 -20.0505 -20.0504 -20.0501 -20.0500
   -20.0340 -20.0337 -20.0335 -20.0334 -20.0331 -20.0330 -20.0329 -20.0324
   -20.0290 -20.0289 -20.0286 -20.0283 -20.0282 -20.0280 -20.0278 -20.0277
   -20.0276 -20.0274 -20.0270 -20.0268 -20.0240 -20.0238 -20.0233 -20.0231
   -20.0174 -20.0172 -20.0171 -20.0169 -20.0129 -20.0127 -20.0125 -20.0123
   -20.0098 -20.0096 -20.0089 -20.0088 -20.0045 -20.0045 -20.0037 -20.0037
   -19.9979 -19.9978 -19.9969 -19.9967 -19.9955 -19.9953 -19.9945 -19.9943
    -9.6724  -9.3397  -9.2783  -9.2713  -8.9495  -8.9137  -8.9110  -8.7253
    -8.7025  -8.6627  -8.6194  -8.6111  -7.8064  -7.7631  -7.7072  -7.6993
    -7.6702  -7.6510  -7.6225  -7.6101  -7.5788  -7.5518  -7.5472  -7.5341
     1.6642   1.6989   1.7059   1.7505   1.7546   1.7972   1.8155   1.8825
     1.9216   2.0010   2.1486   2.3062   2.7422   2.8141   2.8507   2.8538
     2.9555   3.0158   4.2114   4.2578   4.5093   4.5187   4.6337   4.6431
     4.6781   4.7044   4.7948   4.8114   4.9762   5.0848   5.3635   5.4294
     5.4834   5.5436   5.5575   5.6984   5.7313   5.7479   5.7937   5.8789
     5.8877   5.9260   5.9316   5.9828   6.0362   6.2468   6.2842   6.3225
     6.5238   6.6220   6.7312   6.8062   6.8185   6.8370   6.8893   6.9330
     6.9502   6.9519   7.0178   7.0694   7.0826   7.1062   7.1393   7.2229
     7.3725   7.4229   7.9105   7.9171   8.0804   8.1339   8.2441   8.2829
    10.2990  10.3429  10.5532  10.5935  10.6193  10.7287  12.3357  12.4506
    12.5202  12.5401  12.6655  12.7092  12.7871  12.9117  12.9829  12.9983
    13.2358  13.3914  13.3986  13.5052  13.8433  13.8634  14.1307  14.1606
    14.7413  14.8547  15.0211  15.3455  15.6834  15.7019  15.7310  16.3625
    16.4733  17.0039  17.0858  17.2446  17.8815

          k = 0.1667 0.0000 0.3313 ( 61628 PWs)   bands (ev):

   -65.8970 -65.8966 -65.8965 -65.8961 -65.8961 -65.8957 -65.8956 -65.8952
   -30.3173 -30.3135 -30.3097 -30.3056 -30.2727 -30.2678 -30.2621 -30.2547
   -30.2546 -30.2470 -30.2429 -30.2342 -30.2290 -30.2233 -30.2215 -30.1987
   -30.1932 -30.1929 -30.1867 -30.1789 -30.1587 -30.1548 -30.1508 -30.1468
   -20.0511 -20.0510 -20.0508 -20.0507 -20.0504 -20.0503 -20.0502 -20.0501
   -20.0339 -20.0338 -20.0334 -20.0333 -20.0332 -20.0330 -20.0328 -20.0325
   -20.0290 -20.0289 -20.0287 -20.0285 -20.0283 -20.0280 -20.0280 -20.0277
   -20.0274 -20.0272 -20.0270 -20.0269 -20.0238 -20.0236 -20.0234 -20.0232
   -20.0174 -20.0172 -20.0171 -20.0170 -20.0129 -20.0127 -20.0125 -20.0124
   -20.0086 -20.0085 -20.0079 -20.0078 -20.0056 -20.0056 -20.0048 -20.0048
   -19.9977 -19.9976 -19.9971 -19.9969 -19.9953 -19.9951 -19.9947 -19.9945
    -9.5554  -9.3326  -9.1962  -9.1361  -8.9625  -8.9431  -8.7094  -8.6602
    -8.6248  -8.5875  -8.5829  -8.5075  -8.0344  -8.0308  -7.9529  -7.9306
    -7.7319  -7.6867  -7.6676  -7.6154  -7.5931  -7.5673  -7.5634  -7.5425
     1.6736   1.6922   1.7587   1.7844   1.8926   1.9097   1.9771   2.0047
     2.4825   2.5319   2.6179   2.7226   2.8360   2.9231   3.0148   3.1016
     3.1290   3.2522   3.9191   4.0704   4.0906   4.0915   4.3118   4.4670
     4.5041   4.6375   4.6783   4.7083   4.8520   4.9626   4.9841   5.0723
     5.1701   5.2705   5.3446   5.4151   5.4694   5.5400   5.7933   5.7951
     5.8767   5.8999   6.0171   6.0318   6.0629   6.1512   6.2308   6.2735
     6.5558   6.5915   6.6366   6.7137   6.7238   6.8153   6.9001   6.9331
     6.9373   7.0464   7.0479   7.0680   7.2104   7.2229   7.3640   7.3686
     7.4397   7.5156   7.8786   7.8899   8.0686   8.1325   8.1345   8.1425
    10.4812  10.5013  10.9109  11.0190  11.1694  11.2905  12.1388  12.2216
    12.3995  12.4704  12.6071  12.6476  12.7972  12.8814  12.9918  13.0985
    13.1294  13.2807  13.3064  13.4732  13.7930  13.8303  13.8846  13.9509
    14.8595  15.0025  15.1496  15.6338  15.6344  15.9079  16.0971  16.3827
    16.5810  17.1462  17.4886  17.6015  17.7018

          k = 0.1667 0.0000-0.4970 ( 61616 PWs)   bands (ev):

   -65.8968 -65.8968 -65.8963 -65.8963 -65.8959 -65.8959 -65.8954 -65.8954
   -30.3152 -30.3152 -30.3075 -30.3075 -30.2696 -30.2696 -30.2525 -30.2525
   -30.2471 -30.2471 -30.2404 -30.2404 -30.2136 -30.2136 -30.2102 -30.2102
   -30.2059 -30.2059 -30.1909 -30.1909 -30.1571 -30.1571 -30.1492 -30.1492
   -20.0510 -20.0510 -20.0509 -20.0509 -20.0503 -20.0503 -20.0502 -20.0502
   -20.0339 -20.0338 -20.0333 -20.0333 -20.0331 -20.0331 -20.0327 -20.0327
   -20.0289 -20.0289 -20.0287 -20.0287 -20.0281 -20.0281 -20.0279 -20.0279
   -20.0272 -20.0272 -20.0270 -20.0270 -20.0236 -20.0236 -20.0234 -20.0234
   -20.0173 -20.0173 -20.0170 -20.0170 -20.0128 -20.0128 -20.0125 -20.0125
   -20.0071 -20.0071 -20.0071 -20.0071 -20.0064 -20.0064 -20.0063 -20.0063
   -19.9974 -19.9974 -19.9972 -19.9972 -19.9950 -19.9950 -19.9948 -19.9948
    -9.4276  -9.4276  -9.0538  -9.0538  -9.0124  -9.0124  -8.6419  -8.6418
    -8.3817  -8.3817  -8.3591  -8.3591  -8.3129  -8.3129  -8.2572  -8.2572
    -7.7086  -7.7086  -7.6397  -7.6397  -7.5853  -7.5853  -7.5538  -7.5538
     1.6809   1.6809   1.7717   1.7717   1.9113   1.9113   2.0102   2.0102
     2.8561   2.8561   3.1954   3.1954   3.2657   3.2657   3.3606   3.3606
     3.4302   3.4302   3.5552   3.5552   3.7775   3.7775   3.9770   3.9770
     4.0348   4.0348   4.5740   4.5740   4.7621   4.7621   5.1200   5.1200
     5.1865   5.1865   5.2748   5.2748   5.4158   5.4158   5.8277   5.8277
     5.8976   5.8976   5.9748   5.9748   6.0745   6.0745   6.2105   6.2105
     6.5023   6.5023   6.6535   6.6535   6.7453   6.7453   6.9355   6.9355
     7.0238   7.0238   7.0703   7.0703   7.1385   7.1385   7.6832   7.6832
     7.7122   7.7122   7.8080   7.8080   7.8869   7.8869   8.1304   8.1304
    10.5094  10.5094  11.5466  11.5466  11.6645  11.6645  11.8415  11.8415
    12.0054  12.0054  12.5826  12.5826  12.9732  12.9732  13.0284  13.0284
    13.1467  13.1467  13.4685  13.4685  13.5595  13.5595  13.8897  13.8897
    14.9579  14.9579  15.4453  15.4453  16.0435  16.0435  16.1876  16.1876
    16.8836  16.8836  18.0049  18.0050  18.1536

          k = 0.1667 0.1595 0.0000 ( 61588 PWs)   bands (ev):

   -65.8972 -65.8968 -65.8963 -65.8963 -65.8959 -65.8959 -65.8954 -65.8950
   -30.3164 -30.3089 -30.3081 -30.2997 -30.2835 -30.2778 -30.2684 -30.2676
   -30.2659 -30.2537 -30.2475 -30.2394 -30.2342 -30.2304 -30.2233 -30.2064
   -30.1755 -30.1742 -30.1661 -30.1633 -30.1596 -30.1530 -30.1497 -30.1435
   -20.0512 -20.0511 -20.0507 -20.0506 -20.0506 -20.0505 -20.0501 -20.0500
   -20.0340 -20.0336 -20.0335 -20.0335 -20.0331 -20.0330 -20.0329 -20.0324
   -20.0287 -20.0285 -20.0284 -20.0281 -20.0280 -20.0278 -20.0278 -20.0277
   -20.0275 -20.0275 -20.0270 -20.0269 -20.0244 -20.0242 -20.0236 -20.0234
   -20.0174 -20.0172 -20.0171 -20.0169 -20.0129 -20.0127 -20.0125 -20.0123
   -20.0102 -20.0101 -20.0093 -20.0092 -20.0041 -20.0041 -20.0033 -20.0033
   -19.9980 -19.9979 -19.9968 -19.9966 -19.9956 -19.9954 -19.9944 -19.9942
    -9.6872  -9.4117  -9.2903  -9.2146  -9.0423  -8.9078  -8.8262  -8.7602
    -8.7358  -8.6263  -8.6108  -8.5745  -7.8203  -7.7357  -7.7172  -7.6927
    -7.6797  -7.6494  -7.6369  -7.6097  -7.5827  -7.5668  -7.5079  -7.4803
     1.5578   1.5656   1.5685   1.5705   1.8123   1.8340   1.8778   2.0102
     2.0297   2.0962   2.1330   2.3343   2.6607   2.7494   2.8523   2.8846
     3.0050   3.0305   4.1077   4.2059   4.3098   4.4462   4.5204   4.6297
     4.7266   4.8775   4.9084   4.9562   5.0585   5.1993   5.2429   5.4569
     5.5424   5.6020   5.6307   5.6949   5.7256   5.7623   5.8162   5.8741
     5.9405   5.9988   6.0363   6.0495   6.0914   6.1472   6.1477   6.2567
     6.4035   6.4933   6.5913   6.6832   6.8457   6.8845   6.9597   6.9700
     6.9819   7.0349   7.0789   7.1276   7.1289   7.1449   7.2735   7.2806
     7.3602   7.3723   7.8999   7.9162   8.0523   8.0988   8.2344   8.2485
    10.1542  10.1834  10.5227  10.5301  10.7074  10.7794  12.2369  12.5037
    12.5201  12.5675  12.6156  12.6538  12.6990  12.7703  12.8277  12.9861
    13.2833  13.3949  13.4855  13.5136  13.8523  13.8651  14.1613  14.1654
    14.8656  14.9912  15.2046  15.3685  15.6304  15.6317  16.0389  16.1788
    16.4716  16.8198  16.9837  17.4816  17.8365

          k = 0.1667 0.1595 0.1657 ( 61596 PWs)   bands (ev):

   -65.8972 -65.8967 -65.8964 -65.8963 -65.8959 -65.8958 -65.8955 -65.8950
   -30.3155 -30.3086 -30.3079 -30.3002 -30.2803 -30.2737 -30.2688 -30.2637
   -30.2637 -30.2487 -30.2481 -30.2401 -30.2323 -30.2285 -30.2247 -30.2052
   -30.1801 -30.1788 -30.1717 -30.1681 -30.1593 -30.1527 -30.1514 -30.1449
   -20.0512 -20.0510 -20.0507 -20.0506 -20.0506 -20.0505 -20.0501 -20.0500
   -20.0340 -20.0336 -20.0335 -20.0334 -20.0331 -20.0330 -20.0330 -20.0325
   -20.0287 -20.0286 -20.0284 -20.0281 -20.0281 -20.0279 -20.0278 -20.0277
   -20.0275 -20.0274 -20.0270 -20.0268 -20.0244 -20.0242 -20.0236 -20.0235
   -20.0174 -20.0172 -20.0171 -20.0169 -20.0129 -20.0127 -20.0125 -20.0123
   -20.0098 -20.0097 -20.0089 -20.0088 -20.0045 -20.0045 -20.0037 -20.0037
   -19.9979 -19.9978 -19.9969 -19.9967 -19.9955 -19.9954 -19.9944 -19.9943
    -9.6382  -9.3528  -9.2326  -9.2287  -8.9577  -8.9236  -8.8357  -8.7230
    -8.7038  -8.6201  -8.5855  -8.5789  -7.8323  -7.7628  -7.7385  -7.7235
    -7.6950  -7.6887  -7.6780  -7.6567  -7.6319  -7.5921  -7.5833  -7.5668
     1.7349   1.7506   1.7870   1.8093   1.8231   1.8415   1.8868   2.0077
     2.0627   2.1275   2.1518   2.3773   2.7536   2.8443   2.8935   2.9339
     3.0269   3.0921   4.1153   4.1820   4.3205   4.4189   4.5408   4.6048
     4.6418   4.6809   4.7650   4.8290   4.9026   5.0060   5.2291   5.3406
     5.4359   5.4599   5.5571   5.5627   5.6520   5.6914   5.7070   5.7890
     5.8978   5.9372   5.9685   6.0185   6.0494   6.0833   6.2668   6.3203
     6.5407   6.5552   6.7313   6.7667   6.8464   6.8686   6.9176   6.9331
     6.9846   6.9985   7.0539   7.0736   7.0956   7.1423   7.1817   7.2372
     7.3828   7.4214   7.9078   7.9170   8.0610   8.1034   8.1950   8.2109
    10.3405  10.3847  10.6890  10.7168  10.7557  10.8495  12.2918  12.4507
    12.5162  12.5574  12.6280  12.6497  12.7653  12.8171  12.8266  12.9986
    13.2142  13.3450  13.4031  13.4879  13.8398  13.8839  14.0312  14.0752
    14.9297  15.1195  15.2058  15.4674  15.6857  15.6991  16.1100  16.3492
    16.4399  16.9486  17.1246  17.2251  17.8764

          k = 0.1667 0.1595 0.3313 ( 61591 PWs)   bands (ev):

   -65.8970 -65.8965 -65.8965 -65.8961 -65.8961 -65.8956 -65.8956 -65.8952
   -30.3136 -30.3097 -30.3058 -30.3015 -30.2749 -30.2699 -30.2641 -30.2547
   -30.2545 -30.2505 -30.2423 -30.2341 -30.2304 -30.2250 -30.2208 -30.2012
   -30.1934 -30.1930 -30.1865 -30.1801 -30.1583 -30.1545 -30.1516 -30.1476
   -20.0511 -20.0509 -20.0508 -20.0507 -20.0505 -20.0504 -20.0502 -20.0501
   -20.0339 -20.0337 -20.0334 -20.0333 -20.0332 -20.0331 -20.0329 -20.0326
   -20.0287 -20.0286 -20.0285 -20.0283 -20.0282 -20.0279 -20.0279 -20.0277
   -20.0274 -20.0272 -20.0270 -20.0269 -20.0242 -20.0240 -20.0237 -20.0236
   -20.0173 -20.0172 -20.0171 -20.0170 -20.0129 -20.0127 -20.0125 -20.0124
   -20.0086 -20.0085 -20.0079 -20.0078 -20.0056 -20.0056 -20.0048 -20.0048
   -19.9977 -19.9976 -19.9971 -19.9969 -19.9953 -19.9951 -19.9947 -19.9945
    -9.5173  -9.2879  -9.2094  -9.0806  -8.9733  -8.8687  -8.7180  -8.6374
    -8.5939  -8.5874  -8.5644  -8.4864  -8.0409  -8.0286  -7.9664  -7.9281
    -7.7631  -7.7364  -7.6878  -7.6665  -7.6528  -7.6459  -7.6085  -7.5965
     1.8083   1.8200   1.8875   1.9042   1.9713   1.9893   2.0700   2.1266
     2.4820   2.5385   2.6205   2.7360   2.9111   2.9833   3.0413   3.1244
     3.1806   3.3193   3.9258   4.0302   4.0830   4.0908   4.3286   4.3691
     4.4320   4.5467   4.6241   4.6830   4.7413   4.8822   4.9226   5.0212
     5.0409   5.1463   5.2247   5.3207   5.3859   5.4533   5.6416   5.7560
     5.8076   5.8655   5.9812   6.0094   6.0174   6.0413   6.1645   6.2179
     6.5211   6.6739   6.7092   6.7914   6.8289   6.8474   6.8973   6.9461
     6.9832   7.0381   7.0877   7.1549   7.2108   7.2445   7.3577   7.3828
     7.4427   7.5086   7.8794   7.8874   8.0331   8.0843   8.1015   8.1042
    10.6424  10.6600  10.9390  11.0346  11.2624  11.3597  12.1420  12.2176
    12.4069  12.4721  12.6330  12.6800  12.7444  12.8319  12.8942  12.9878
    13.0117  13.2197  13.2898  13.4551  13.7122  13.7292  13.8882  13.9201
    15.0719  15.1836  15.4753  15.7281  15.8976  16.0074  16.1288  16.3554
    16.6884  17.1253  17.3748  17.5593  17.6831

          k = 0.1667 0.1595-0.4970 ( 61610 PWs)   bands (ev):

   -65.8968 -65.8968 -65.8963 -65.8963 -65.8959 -65.8959 -65.8954 -65.8954
   -30.3115 -30.3115 -30.3035 -30.3035 -30.2717 -30.2717 -30.2555 -30.2555
   -30.2467 -30.2467 -30.2409 -30.2409 -30.2136 -30.2136 -30.2109 -30.2109
   -30.2055 -30.2055 -30.1928 -30.1928 -30.1567 -30.1567 -30.1499 -30.1499
   -20.0509 -20.0509 -20.0508 -20.0508 -20.0503 -20.0503 -20.0502 -20.0502
   -20.0338 -20.0338 -20.0333 -20.0333 -20.0332 -20.0332 -20.0327 -20.0327
   -20.0286 -20.0286 -20.0285 -20.0285 -20.0281 -20.0281 -20.0278 -20.0278
   -20.0271 -20.0271 -20.0270 -20.0270 -20.0239 -20.0239 -20.0238 -20.0238
   -20.0173 -20.0173 -20.0170 -20.0170 -20.0128 -20.0128 -20.0125 -20.0125
   -20.0071 -20.0071 -20.0071 -20.0071 -20.0064 -20.0064 -20.0063 -20.0063
   -19.9974 -19.9974 -19.9973 -19.9973 -19.9950 -19.9950 -19.9948 -19.9948
    -9.3855  -9.3854  -9.0661  -9.0661  -8.9431  -8.9431  -8.6096  -8.6096
    -8.3865  -8.3865  -8.3592  -8.3592  -8.3145  -8.3145  -8.2508  -8.2508
    -7.7522  -7.7522  -7.6686  -7.6685  -7.6411  -7.6411  -7.6226  -7.6226
     1.8144   1.8144   1.9055   1.9055   1.9850   1.9850   2.1206   2.1206
     2.9254   2.9254   3.2122   3.2122   3.2840   3.2840   3.3644   3.3644
     3.4305   3.4305   3.5845   3.5845   3.7666   3.7666   3.9908   3.9908
     4.0864   4.0864   4.5200   4.5200   4.5779   4.5779   4.9305   4.9305
     5.0785   5.0785   5.2229   5.2229   5.3100   5.3100   5.7175   5.7176
     5.8780   5.8780   5.8991   5.8991   6.0259   6.0259   6.0632   6.0632
     6.6196   6.6196   6.7625   6.7625   6.8123   6.8123   6.9296   6.9297
     7.0319   7.0319   7.0904   7.0904   7.1966   7.1966   7.6836   7.6836
     7.7096   7.7096   7.7871   7.7871   7.8565   7.8565   8.0986   8.0986
    10.6827  10.6827  11.5545  11.5545  11.6655  11.6655  11.9028  11.9028
    12.0529  12.0529  12.6078  12.6078  12.8592  12.8592  12.9651  12.9651
    13.1140  13.1140  13.3519  13.3519  13.4958  13.4958  13.8782  13.8782
    15.1526  15.1526  15.8014  15.8014  16.1130  16.1130  16.2070  16.2070
    16.9251  16.9251  17.8636  17.8636  18.1318

          k = 0.1667 0.3190 0.0000 ( 61614 PWs)   bands (ev):

   -65.8971 -65.8969 -65.8962 -65.8962 -65.8960 -65.8960 -65.8953 -65.8951
   -30.3074 -30.2997 -30.2981 -30.2885 -30.2880 -30.2813 -30.2748 -30.2678
   -30.2671 -30.2582 -30.2521 -30.2412 -30.2372 -30.2287 -30.2263 -30.2132
   -30.1752 -30.1745 -30.1659 -30.1645 -30.1585 -30.1548 -30.1487 -30.1452
   -20.0511 -20.0509 -20.0507 -20.0506 -20.0505 -20.0504 -20.0502 -20.0501
   -20.0339 -20.0336 -20.0335 -20.0334 -20.0331 -20.0331 -20.0329 -20.0326
   -20.0283 -20.0280 -20.0279 -20.0279 -20.0277 -20.0276 -20.0276 -20.0274
   -20.0273 -20.0272 -20.0269 -20.0267 -20.0254 -20.0252 -20.0245 -20.0244
   -20.0173 -20.0172 -20.0170 -20.0169 -20.0129 -20.0127 -20.0125 -20.0124
   -20.0102 -20.0101 -20.0093 -20.0092 -20.0041 -20.0041 -20.0033 -20.0033
   -19.9980 -19.9979 -19.9967 -19.9966 -19.9955 -19.9955 -19.9943 -19.9942
    -9.6073  -9.4515  -9.2030  -9.1062  -9.0690  -8.9395  -8.7529  -8.7400
    -8.6138  -8.4885  -8.4811  -8.4622  -8.0120  -7.9591  -7.9444  -7.9229
    -7.7336  -7.7201  -7.6358  -7.6206  -7.5917  -7.5758  -7.5033  -7.4892
     1.5596   1.5651   1.5697   1.5731   1.8657   1.8760   2.0322   2.0850
     2.5318   2.6323   2.6838   2.7052   2.7309   2.8260   3.1070   3.1193
     3.2342   3.2647   3.7652   3.7711   3.9708   3.9791   4.2713   4.5275
     4.6094   4.6980   4.7699   4.8456   4.9261   4.9831   5.0924   5.1635
     5.2301   5.2422   5.5139   5.5668   5.5931   5.7246   5.7778   5.8184
     5.9009   5.9399   5.9698   6.0413   6.1168   6.1416   6.2159   6.2557
     6.4142   6.4780   6.5636   6.7074   6.7848   6.9833   7.0075   7.0410
     7.0921   7.1052   7.1836   7.2443   7.2572   7.2609   7.3228   7.3232
     7.3937   7.4351   7.8661   7.9080   7.9573   7.9798   8.0223   8.0554
    10.1792  10.1937  10.9234  10.9756  11.1588  11.1976  11.9691  12.2214
    12.2977  12.3567  12.5614  12.5862  12.5975  12.6273  12.8241  12.9520
    13.3126  13.4337  13.5257  13.5282  13.6968  13.7816  13.9296  13.9498
    15.2975  15.4736  15.5542  15.6102  15.7405  15.9454  15.9902  16.3230
    16.3605  17.0951  17.4049  17.5403  17.9085

          k = 0.1667 0.3190 0.1657 ( 61625 PWs)   bands (ev):

   -65.8971 -65.8968 -65.8963 -65.8962 -65.8960 -65.8959 -65.8954 -65.8951
   -30.3063 -30.2988 -30.2981 -30.2890 -30.2856 -30.2780 -30.2752 -30.2642
   -30.2639 -30.2587 -30.2474 -30.2386 -30.2379 -30.2296 -30.2248 -30.2118
   -30.1799 -30.1791 -30.1714 -30.1696 -30.1582 -30.1544 -30.1504 -30.1467
   -20.0510 -20.0509 -20.0507 -20.0506 -20.0505 -20.0504 -20.0502 -20.0501
   -20.0339 -20.0335 -20.0335 -20.0333 -20.0331 -20.0331 -20.0330 -20.0326
   -20.0283 -20.0281 -20.0280 -20.0279 -20.0277 -20.0276 -20.0275 -20.0274
   -20.0274 -20.0273 -20.0268 -20.0267 -20.0253 -20.0251 -20.0246 -20.0244
   -20.0173 -20.0172 -20.0171 -20.0170 -20.0129 -20.0127 -20.0125 -20.0124
   -20.0097 -20.0097 -20.0089 -20.0089 -20.0045 -20.0045 -20.0037 -20.0037
   -19.9979 -19.9978 -19.9968 -19.9967 -19.9955 -19.9954 -19.9944 -19.9943
    -9.5547  -9.3934  -9.1313  -9.1245  -8.9851  -8.9562  -8.7184  -8.7079
    -8.6230  -8.4834  -8.4696  -8.4629  -8.0155  -7.9653  -7.9447  -7.9292
    -7.7591  -7.7477  -7.7017  -7.6959  -7.6343  -7.6173  -7.5902  -7.5754
     1.7390   1.7476   1.8139   1.8172   1.8720   1.8824   2.0788   2.1421
     2.5407   2.6324   2.6942   2.7685   2.8053   2.8537   3.1154   3.1989
     3.2329   3.3439   3.7757   3.8387   3.9720   3.9739   4.2513   4.5466
     4.5668   4.6205   4.6732   4.7125   4.8222   4.9376   4.9778   5.0330
     5.0843   5.1694   5.3586   5.3778   5.5679   5.5747   5.5916   5.6399
     5.8396   5.8587   5.8798   5.9136   5.9995   6.0057   6.2925   6.3112
     6.5713   6.6135   6.7078   6.7720   6.9044   6.9718   6.9735   7.0296
     7.0531   7.0932   7.1542   7.1759   7.2501   7.2673   7.3014   7.3342
     7.4406   7.4459   7.8752   7.9094   7.9485   7.9837   7.9979   8.0314
    10.3873  10.4086  11.0817  11.1068  11.1750  11.2366  12.0524  12.2603
    12.3148  12.3536  12.5410  12.5681  12.5970  12.6417  12.8808  12.9907
    13.2477  13.3521  13.4140  13.4713  13.6611  13.7832  13.8034  13.8864
    15.4041  15.5861  15.6730  15.6823  15.7575  16.0060  16.2534  16.3327
    16.4655  17.0634  17.4716  17.5779  17.6296

          k = 0.1667 0.3190 0.3313 ( 61615 PWs)   bands (ev):

   -65.8969 -65.8966 -65.8965 -65.8962 -65.8960 -65.8957 -65.8955 -65.8953
   -30.3040 -30.2998 -30.2954 -30.2904 -30.2815 -30.2765 -30.2707 -30.2610
   -30.2544 -30.2544 -30.2405 -30.2342 -30.2331 -30.2287 -30.2182 -30.2071
   -30.1935 -30.1933 -30.1860 -30.1825 -30.1572 -30.1535 -30.1532 -30.1494
   -20.0509 -20.0508 -20.0507 -20.0506 -20.0505 -20.0505 -20.0503 -20.0502
   -20.0338 -20.0336 -20.0334 -20.0333 -20.0332 -20.0330 -20.0330 -20.0327
   -20.0282 -20.0281 -20.0281 -20.0279 -20.0278 -20.0278 -20.0277 -20.0276
   -20.0271 -20.0270 -20.0267 -20.0267 -20.0251 -20.0249 -20.0247 -20.0245
   -20.0173 -20.0172 -20.0171 -20.0170 -20.0128 -20.0127 -20.0126 -20.0125
   -20.0086 -20.0086 -20.0079 -20.0078 -20.0056 -20.0056 -20.0049 -20.0048
   -19.9977 -19.9976 -19.9971 -19.9970 -19.9952 -19.9952 -19.9946 -19.9946
    -9.4246  -9.2511  -9.1818  -9.0084  -8.9457  -8.7483  -8.6606  -8.6112
    -8.5923  -8.4809  -8.4583  -8.4040  -8.0965  -8.0526  -8.0219  -7.9623
    -7.9383  -7.9215  -7.9083  -7.8373  -7.6908  -7.6751  -7.6232  -7.6078
     1.8739   1.8877   1.8976   1.9081   2.3935   2.4607   2.4798   2.5684
     2.6220   2.6793   2.7002   2.8800   3.0470   3.0946   3.1497   3.2213
     3.4225   3.5349   3.8031   3.8619   3.9469   3.9806   4.0509   4.1278
     4.2603   4.4522   4.4952   4.5756   4.6002   4.6865   4.8003   4.8807
     4.9016   5.0084   5.0602   5.1067   5.1592   5.2422   5.3462   5.3910
     5.5279   5.5535   5.6413   5.8288   5.9304   6.0019   6.1936   6.2125
     6.6786   6.7586   6.7688   6.8806   6.9488   6.9833   7.0736   7.0978
     7.1465   7.1852   7.2229   7.2414   7.2926   7.3639   7.3889   7.4132
     7.4676   7.4975   7.8635   7.8704   7.9039   7.9213   7.9673   7.9762
    10.8904  10.9143  11.1804  11.2325  11.5349  11.6128  12.1239  12.1840
    12.2983  12.3593  12.4231  12.4977  12.6973  12.7669  12.8084  12.8606
    12.9447  13.1469  13.1994  13.4416  13.4511  13.5583  13.7627  13.7839
    15.5297  15.6294  15.8696  16.1053  16.1925  16.2403  16.3092  16.9056
    16.9270  17.0082  17.1204  17.6988  17.7892

          k = 0.1667 0.3190-0.4970 ( 61620 PWs)   bands (ev):

   -65.8967 -65.8967 -65.8964 -65.8964 -65.8958 -65.8958 -65.8955 -65.8955
   -30.3017 -30.3017 -30.2926 -30.2926 -30.2785 -30.2785 -30.2646 -30.2646
   -30.2456 -30.2456 -30.2423 -30.2422 -30.2136 -30.2136 -30.2122 -30.2122
   -30.2041 -30.2041 -30.1971 -30.1971 -30.1556 -30.1556 -30.1517 -30.1517
   -20.0508 -20.0508 -20.0507 -20.0507 -20.0505 -20.0504 -20.0503 -20.0503
   -20.0337 -20.0337 -20.0333 -20.0333 -20.0332 -20.0331 -20.0328 -20.0328
   -20.0281 -20.0281 -20.0280 -20.0280 -20.0279 -20.0279 -20.0278 -20.0278
   -20.0269 -20.0269 -20.0268 -20.0268 -20.0249 -20.0248 -20.0247 -20.0247
   -20.0172 -20.0172 -20.0171 -20.0171 -20.0127 -20.0127 -20.0126 -20.0125
   -20.0071 -20.0071 -20.0071 -20.0071 -20.0064 -20.0064 -20.0064 -20.0063
   -19.9974 -19.9974 -19.9973 -19.9973 -19.9949 -19.9949 -19.9949 -19.9949
    -9.2837  -9.2837  -9.1053  -9.1053  -8.7556  -8.7556  -8.5103  -8.5103
    -8.4130  -8.4130  -8.3645  -8.3645  -8.3068  -8.3068  -8.2243  -8.2243
    -7.9598  -7.9598  -7.9055  -7.9055  -7.6574  -7.6574  -7.6413  -7.6413
     1.8927   1.8927   1.9075   1.9075   2.5475   2.5475   2.6687   2.6687
     3.1052   3.1052   3.2601   3.2601   3.3046   3.3046   3.3902   3.3902
     3.4332   3.4332   3.6709   3.6709   3.7198   3.7198   3.9334   3.9334
     4.1888   4.1888   4.2554   4.2554   4.3101   4.3101   4.5122   4.5122
     4.9471   4.9471   5.0717   5.0717   5.2218   5.2218   5.2679   5.2679
     5.3509   5.3509   5.7190   5.7190   6.0014   6.0014   6.0468   6.0468
     6.7794   6.7794   6.8940   6.8940   6.9414   6.9414   7.0141   7.0141
     7.2046   7.2046   7.2514   7.2514   7.3617   7.3617   7.6737   7.6737
     7.6968   7.6968   7.7137   7.7137   7.7696   7.7696   7.9607   7.9607
    11.1263  11.1263  11.5710  11.5710  11.6778  11.6778  12.0791  12.0791
    12.2123  12.2123  12.4639  12.4640  12.6498  12.6498  12.7943  12.7943
    13.0227  13.0227  13.0978  13.0978  13.4460  13.4460  13.7293  13.7294
    15.5986  15.5986  16.0630  16.0630  16.5636  16.5637  16.6972  16.6972
    17.0701  17.0701  17.5284  17.5284  18.0027

          k = 0.1667-0.4785 0.0000 ( 61672 PWs)   bands (ev):

   -65.8970 -65.8970 -65.8961 -65.8961 -65.8961 -65.8961 -65.8952 -65.8952
   -30.2966 -30.2966 -30.2889 -30.2889 -30.2856 -30.2856 -30.2733 -30.2733
   -30.2676 -30.2675 -30.2481 -30.2481 -30.2334 -30.2334 -30.2208 -30.2208
   -30.1749 -30.1748 -30.1655 -30.1654 -30.1568 -30.1568 -30.1472 -30.1472
   -20.0509 -20.0509 -20.0508 -20.0508 -20.0503 -20.0503 -20.0502 -20.0502
   -20.0337 -20.0337 -20.0333 -20.0333 -20.0332 -20.0332 -20.0328 -20.0327
   -20.0281 -20.0281 -20.0278 -20.0278 -20.0275 -20.0275 -20.0272 -20.0272
   -20.0266 -20.0266 -20.0264 -20.0264 -20.0258 -20.0258 -20.0257 -20.0256
   -20.0173 -20.0172 -20.0170 -20.0170 -20.0128 -20.0128 -20.0124 -20.0124
   -20.0101 -20.0101 -20.0093 -20.0093 -20.0041 -20.0041 -20.0033 -20.0033
   -19.9979 -19.9979 -19.9967 -19.9967 -19.9955 -19.9955 -19.9943 -19.9943
    -9.5193  -9.5193  -9.1210  -9.1210  -9.0031  -9.0031  -8.7460  -8.7460
    -8.3141  -8.3141  -8.2592  -8.2592  -8.2376  -8.2376  -8.2330  -8.2330
    -7.7303  -7.7303  -7.6289  -7.6289  -7.5850  -7.5849  -7.4967  -7.4967
     1.5622   1.5623   1.5714   1.5714   1.8745   1.8745   2.0745   2.0745
     2.7033   2.7033   3.1753   3.1753   3.2931   3.2931   3.3593   3.3593
     3.4588   3.4588   3.5562   3.5562   3.7778   3.7778   3.8993   3.8993
     3.9877   3.9877   4.6347   4.6347   4.8663   4.8663   5.2529   5.2529
     5.3406   5.3406   5.4464   5.4464   5.5231   5.5231   5.7530   5.7530
     5.9205   5.9205   5.9346   5.9346   6.1327   6.1327   6.2539   6.2539
     6.5118   6.5118   6.5599   6.5599   6.8663   6.8663   7.0511   7.0511
     7.1312   7.1313   7.2393   7.2393   7.3336   7.3336   7.6187   7.6187
     7.6553   7.6554   7.7003   7.7003   7.7416   7.7416   7.9314   7.9314
    10.1918  10.1918  11.4649  11.4649  11.5423  11.5423  11.7652  11.7652
    11.8417  11.8417  12.5851  12.5851  12.6062  12.6062  12.9001  12.9001
    13.4423  13.4423  13.5455  13.5455  13.6820  13.6820  13.7490  13.7490
    15.5986  15.5986  15.7751  15.7751  15.8263  15.8263  16.1151  16.1151
    16.8156  16.8156  18.0409  18.0410  18.2842

          k = 0.1667-0.4785 0.1657 ( 61622 PWs)   bands (ev):

   -65.8970 -65.8969 -65.8962 -65.8961 -65.8960 -65.8960 -65.8953 -65.8952
   -30.2951 -30.2951 -30.2871 -30.2869 -30.2859 -30.2857 -30.2738 -30.2738
   -30.2640 -30.2640 -30.2443 -30.2442 -30.2343 -30.2343 -30.2192 -30.2192
   -30.1795 -30.1795 -30.1708 -30.1707 -30.1565 -30.1564 -30.1487 -30.1487
   -20.0509 -20.0508 -20.0507 -20.0507 -20.0504 -20.0504 -20.0503 -20.0503
   -20.0337 -20.0337 -20.0333 -20.0333 -20.0332 -20.0332 -20.0328 -20.0328
   -20.0281 -20.0281 -20.0278 -20.0278 -20.0276 -20.0275 -20.0273 -20.0273
   -20.0265 -20.0265 -20.0263 -20.0263 -20.0258 -20.0258 -20.0257 -20.0257
   -20.0172 -20.0172 -20.0170 -20.0170 -20.0128 -20.0128 -20.0125 -20.0124
   -20.0097 -20.0097 -20.0089 -20.0089 -20.0045 -20.0045 -20.0037 -20.0037
   -19.9979 -19.9979 -19.9968 -19.9968 -19.9954 -19.9954 -19.9944 -19.9944
    -9.4632  -9.4631  -9.0409  -9.0403  -9.0209  -9.0206  -8.7130  -8.7130
    -8.3218  -8.3208  -8.2590  -8.2576  -8.2426  -8.2407  -8.2299  -8.2272
    -7.7569  -7.7555  -7.7008  -7.7007  -7.6277  -7.6275  -7.5840  -7.5837
     1.7400   1.7457   1.8154   1.8189   1.8796   1.8823   2.1283   2.1325
     2.7943   2.7975   3.1942   3.1960   3.2862   3.3245   3.3429   3.3682
     3.4759   3.5098   3.5331   3.5843   3.7946   3.8133   3.9013   3.9105
     4.0109   4.0138   4.5749   4.6222   4.6793   4.7159   5.1011   5.1246
     5.2289   5.2565   5.2609   5.3348   5.3585   5.4102   5.6367   5.6431
[...]
    12.2990  12.2991  12.2991  12.2991  12.5148  12.5148  12.5148  12.5148
    13.2299  13.2299  13.2299  13.2299  13.4282  13.4282  13.4282  13.4282
    15.5881  15.5881  15.5881  15.5881  16.9892  16.9892  16.9892  16.9892
    17.6006  17.6006  17.6007  17.6007  17.8338

          k =-0.5000 0.3190 0.0000 ( 61662 PWs)   bands (ev):

   -65.8967 -65.8967 -65.8964 -65.8964 -65.8958 -65.8958 -65.8955 -65.8955
   -30.3028 -30.3028 -30.2923 -30.2923 -30.2839 -30.2839 -30.2637 -30.2637
   -30.2574 -30.2574 -30.2501 -30.2501 -30.2027 -30.2027 -30.2009 -30.2009
   -30.1951 -30.1951 -30.1887 -30.1887 -30.1620 -30.1620 -30.1598 -30.1598
   -20.0510 -20.0510 -20.0507 -20.0507 -20.0505 -20.0505 -20.0501 -20.0501
   -20.0337 -20.0337 -20.0334 -20.0334 -20.0332 -20.0332 -20.0328 -20.0328
   -20.0282 -20.0282 -20.0279 -20.0279 -20.0278 -20.0278 -20.0274 -20.0274
   -20.0273 -20.0273 -20.0268 -20.0268 -20.0253 -20.0253 -20.0245 -20.0245
   -20.0150 -20.0150 -20.0149 -20.0149 -20.0146 -20.0146 -20.0146 -20.0146
   -20.0097 -20.0097 -20.0097 -20.0097 -20.0037 -20.0037 -20.0037 -20.0037
   -19.9969 -19.9969 -19.9968 -19.9968 -19.9957 -19.9956 -19.9955 -19.9955
    -9.3594  -9.3594  -9.2077  -9.2077  -8.7480  -8.7480  -8.5398  -8.5398
    -8.3698  -8.3698  -8.3531  -8.3531  -8.2891  -8.2891  -8.2062  -8.2062
    -7.9423  -7.9423  -7.9021  -7.9021  -7.5674  -7.5674  -7.5527  -7.5527
     1.5888   1.5888   1.5966   1.5966   2.5271   2.5271   2.6720   2.6720
     3.1377   3.1377   3.1746   3.1746   3.2375   3.2375   3.3757   3.3758
     3.4535   3.4535   3.6463   3.6463   3.7578   3.7578   3.8689   3.8689
     4.1263   4.1263   4.2302   4.2302   4.4588   4.4588   4.6017   4.6017
     5.0427   5.0427   5.0697   5.0697   5.3489   5.3489   5.5066   5.5066
     5.6456   5.6456   5.9219   5.9219   6.3074   6.3074   6.3385   6.3385
     6.6212   6.6212   6.7134   6.7134   6.7308   6.7308   6.9052   6.9052
     7.2032   7.2032   7.2338   7.2338   7.2650   7.2650   7.6148   7.6148
     7.6444   7.6444   7.7791   7.7791   7.8162   7.8162   8.0280   8.0280
    10.9498  10.9498  11.5152  11.5152  11.6011  11.6011  11.8032  11.8032
    12.2359  12.2359  12.4339  12.4339  12.7505  12.7505  12.9292  12.9292
    13.0370  13.0370  13.2099  13.2099  13.5180  13.5180  13.9147  13.9147
    15.4116  15.4116  15.7651  15.7651  16.4826  16.4826  16.6886  16.6886
    16.8525  16.8525  17.5048  17.5048  18.0071

          k =-0.5000 0.3190 0.1657 ( 61620 PWs)   bands (ev):

   -65.8966 -65.8966 -65.8964 -65.8964 -65.8958 -65.8958 -65.8956 -65.8956
   -30.3016 -30.3016 -30.2928 -30.2928 -30.2807 -30.2807 -30.2642 -30.2642
   -30.2527 -30.2527 -30.2474 -30.2474 -30.2040 -30.2040 -30.2025 -30.2025
   -30.1948 -30.1948 -30.1881 -30.1881 -30.1669 -30.1669 -30.1640 -30.1640
   -20.0510 -20.0510 -20.0506 -20.0506 -20.0505 -20.0505 -20.0502 -20.0502
   -20.0336 -20.0336 -20.0333 -20.0333 -20.0332 -20.0332 -20.0329 -20.0329
   -20.0282 -20.0282 -20.0281 -20.0281 -20.0277 -20.0277 -20.0275 -20.0275
   -20.0273 -20.0273 -20.0268 -20.0268 -20.0252 -20.0252 -20.0245 -20.0245
   -20.0150 -20.0150 -20.0149 -20.0149 -20.0146 -20.0146 -20.0146 -20.0146
   -20.0093 -20.0093 -20.0093 -20.0093 -20.0041 -20.0041 -20.0041 -20.0041
   -19.9968 -19.9968 -19.9967 -19.9967 -19.9957 -19.9957 -19.9956 -19.9956
    -9.2928  -9.2928  -9.1295  -9.1295  -8.7635  -8.7635  -8.5210  -8.5210
    -8.3893  -8.3893  -8.3451  -8.3451  -8.2784  -8.2783  -8.2096  -8.2096
    -7.9400  -7.9400  -7.9075  -7.9075  -7.6792  -7.6792  -7.6631  -7.6631
     1.8316   1.8316   1.8414   1.8414   2.5357   2.5357   2.6580   2.6580
     3.1598   3.1598   3.2290   3.2290   3.2565   3.2565   3.4053   3.4053
     3.4745   3.4745   3.6941   3.6941   3.7924   3.7924   3.9201   3.9201
     4.1161   4.1161   4.2423   4.2423   4.4511   4.4511   4.5892   4.5892
     4.9124   4.9124   5.0177   5.0177   5.2134   5.2134   5.2569   5.2569
     5.3724   5.3724   5.7054   5.7054   5.9755   5.9755   6.0245   6.0245
     6.7903   6.7903   6.9431   6.9431   6.9759   6.9759   7.0179   7.0179
     7.1777   7.1777   7.2624   7.2624   7.3123   7.3123   7.6211   7.6211
     7.6567   7.6567   7.7857   7.7857   7.8180   7.8180   8.0046   8.0046
    11.1023  11.1023  11.5804  11.5804  11.6761  11.6761  11.8546  11.8546
    12.2561  12.2561  12.4728  12.4728  12.7401  12.7401  12.8915  12.8915
    13.0320  13.0320  13.1805  13.1805  13.3781  13.3781  13.7878  13.7878
    15.6074  15.6074  15.9920  15.9920  16.5395  16.5395  16.6883  16.6883
    16.9094  16.9094  17.5422  17.5422  17.9620

          k =-0.5000 0.3190 0.3313 ( 61610 PWs)   bands (ev):

   -65.8965 -65.8965 -65.8962 -65.8962 -65.8960 -65.8960 -65.8957 -65.8957
   -30.2989 -30.2989 -30.2941 -30.2941 -30.2742 -30.2742 -30.2659 -30.2659
   -30.2396 -30.2396 -30.2380 -30.2380 -30.2094 -30.2094 -30.2092 -30.2092
   -30.1931 -30.1931 -30.1862 -30.1862 -30.1783 -30.1783 -30.1735 -30.1735
   -20.0509 -20.0509 -20.0506 -20.0506 -20.0505 -20.0505 -20.0503 -20.0503
   -20.0335 -20.0335 -20.0333 -20.0333 -20.0332 -20.0332 -20.0330 -20.0330
   -20.0282 -20.0282 -20.0282 -20.0282 -20.0278 -20.0278 -20.0277 -20.0277
   -20.0271 -20.0271 -20.0267 -20.0267 -20.0250 -20.0250 -20.0246 -20.0246
   -20.0150 -20.0150 -20.0150 -20.0150 -20.0146 -20.0146 -20.0146 -20.0146
   -20.0082 -20.0082 -20.0082 -20.0082 -20.0052 -20.0052 -20.0052 -20.0052
   -19.9966 -19.9966 -19.9965 -19.9965 -19.9960 -19.9960 -19.9959 -19.9959
    -9.1216  -9.1216  -8.9157  -8.9157  -8.8169  -8.8169  -8.4796  -8.4795
    -8.4293  -8.4293  -8.3181  -8.3181  -8.2559  -8.2559  -8.2154  -8.2154
    -7.9784  -7.9784  -7.9515  -7.9515  -7.9200  -7.9200  -7.8740  -7.8740
     2.4014   2.4014   2.4936   2.4936   2.5644   2.5644   2.6939   2.6939
     3.1997   3.1997   3.2355   3.2355   3.3851   3.3851   3.4522   3.4522
     3.5517   3.5517   3.8393   3.8393   3.9121   3.9121   4.0210   4.0211
     4.0879   4.0879   4.2771   4.2771   4.3931   4.3931   4.4286   4.4286
     4.5678   4.5678   4.7026   4.7026   4.8748   4.8748   5.0468   5.0468
     5.1203   5.1203   5.2271   5.2271   5.2730   5.2730   5.5299   5.5299
     6.9930   6.9930   7.0618   7.0618   7.1616   7.1616   7.1846   7.1846
     7.3464   7.3465   7.4312   7.4312   7.4781   7.4781   7.6354   7.6354
     7.6865   7.6865   7.7915   7.7915   7.8117   7.8117   7.9339   7.9339
    11.5026  11.5026  11.7774  11.7774  11.8984  11.8984  11.9616  11.9616
    12.3316  12.3316  12.5546  12.5546  12.6249  12.6249  12.6563  12.6563
    12.9699  12.9699  13.0651  13.0651  13.0865  13.0865  13.4604  13.4604
    16.1210  16.1210  16.4949  16.4949  16.7442  16.7442  16.8332  16.8332
    17.1043  17.1043  17.5958  17.5958  17.8147

          k =-0.5000 0.3190-0.4970 ( 61604 PWs)   bands (ev):

   -65.8962 -65.8962 -65.8962 -65.8962 -65.8960 -65.8960 -65.8960 -65.8960
   -30.2962 -30.2962 -30.2962 -30.2962 -30.2690 -30.2690 -30.2690 -30.2690
   -30.2240 -30.2240 -30.2240 -30.2240 -30.2212 -30.2212 -30.2211 -30.2211
   -30.1885 -30.1885 -30.1885 -30.1885 -30.1814 -30.1814 -30.1814 -30.1814
   -20.0507 -20.0507 -20.0507 -20.0507 -20.0504 -20.0504 -20.0504 -20.0504
   -20.0334 -20.0334 -20.0334 -20.0334 -20.0331 -20.0331 -20.0331 -20.0331
   -20.0281 -20.0281 -20.0281 -20.0281 -20.0279 -20.0279 -20.0279 -20.0279
   -20.0269 -20.0268 -20.0268 -20.0268 -20.0248 -20.0248 -20.0248 -20.0248
   -20.0150 -20.0150 -20.0150 -20.0150 -20.0146 -20.0146 -20.0146 -20.0146
   -20.0068 -20.0068 -20.0068 -20.0068 -20.0066 -20.0066 -20.0066 -20.0066
   -19.9963 -19.9963 -19.9963 -19.9963 -19.9962 -19.9962 -19.9962 -19.9962
    -8.9353  -8.9353  -8.9353  -8.9353  -8.6437  -8.6437  -8.6437  -8.6437
    -8.3181  -8.3181  -8.3180  -8.3180  -8.2011  -8.2011  -8.2011  -8.2011
    -8.1662  -8.1662  -8.1662  -8.1662  -7.9119  -7.9119  -7.9119  -7.9119
     2.5527   2.5527   2.5527   2.5527   3.1430   3.1431   3.1431   3.1431
     3.2633   3.2633   3.2633   3.2633   3.4095   3.4095   3.4095   3.4095
     3.5968   3.5968   3.5968   3.5968   4.0086   4.0086   4.0086   4.0086
     4.1881   4.1882   4.1882   4.1882   4.2950   4.2950   4.2950   4.2950
     4.5211   4.5211   4.5211   4.5211   4.6450   4.6450   4.6450   4.6450
     4.9321   4.9321   4.9321   4.9321   5.2982   5.2982   5.2982   5.2982
     7.0631   7.0631   7.0631   7.0631   7.1933   7.1933   7.1933   7.1933
     7.5226   7.5226   7.5226   7.5226   7.6379   7.6379   7.6379   7.6379
     7.7290   7.7290   7.7290   7.7290   7.8460   7.8461   7.8461   7.8461
    11.9048  11.9048  11.9048  11.9048  12.0865  12.0865  12.0865  12.0865
    12.2976  12.2976  12.2976  12.2976  12.5764  12.5764  12.5764  12.5764
    12.9030  12.9030  12.9030  12.9030  13.1311  13.1311  13.1311  13.1311
    16.4542  16.4542  16.4542  16.4542  17.1325  17.1325  17.1325  17.1325
    17.5327  17.5327  17.5327  17.5327  17.8513

          k =-0.5000-0.4785 0.0000 ( 61692 PWs)   bands (ev):

   -65.8966 -65.8966 -65.8965 -65.8965 -65.8956 -65.8956 -65.8956 -65.8956
   -30.2921 -30.2921 -30.2917 -30.2917 -30.2782 -30.2782 -30.2772 -30.2772
   -30.2552 -30.2552 -30.2545 -30.2545 -30.2021 -30.2021 -30.2013 -30.2013
   -30.1933 -30.1933 -30.1917 -30.1917 -30.1614 -30.1614 -30.1610 -30.1610
   -20.0508 -20.0508 -20.0508 -20.0508 -20.0503 -20.0503 -20.0503 -20.0503
   -20.0336 -20.0336 -20.0335 -20.0335 -20.0331 -20.0331 -20.0330 -20.0330
   -20.0280 -20.0280 -20.0280 -20.0280 -20.0275 -20.0275 -20.0274 -20.0274
   -20.0265 -20.0265 -20.0265 -20.0265 -20.0257 -20.0257 -20.0257 -20.0257
   -20.0149 -20.0149 -20.0149 -20.0149 -20.0147 -20.0147 -20.0146 -20.0146
   -20.0097 -20.0097 -20.0097 -20.0097 -20.0037 -20.0037 -20.0037 -20.0037
   -19.9968 -19.9968 -19.9968 -19.9968 -19.9956 -19.9956 -19.9956 -19.9956
    -9.2747  -9.2746  -9.2650  -9.2650  -8.5275  -8.5275  -8.4926  -8.4926
    -8.4181  -8.4181  -8.3872  -8.3872  -8.2220  -8.2220  -8.1528  -8.1528
    -8.1500  -8.1500  -8.0891  -8.0891  -7.5608  -7.5608  -7.5602  -7.5602
     1.5894   1.5894   1.5972   1.5972   3.0537   3.0537   3.1703   3.1703
     3.1973   3.1973   3.2111   3.2111   3.4133   3.4133   3.4517   3.4517
     3.4761   3.4761   3.6157   3.6158   3.6519   3.6519   3.7612   3.7612
     3.7669   3.7669   4.1176   4.1176   4.4405   4.4405   4.5297   4.5297
     4.5565   4.5566   4.6505   4.6505   5.3971   5.3972   5.4582   5.4582
     5.6755   5.6755   5.7561   5.7561   6.3289   6.3289   6.3387   6.3387
     6.7090   6.7090   6.7267   6.7267   6.7525   6.7525   6.8217   6.8217
     7.3893   7.3893   7.4107   7.4107   7.4725   7.4725   7.6047   7.6047
     7.6978   7.6979   7.7310   7.7310   7.7343   7.7343   7.7981   7.7981
    11.4766  11.4766  11.4851  11.4851  11.5843  11.5843  11.5908  11.5908
    12.4263  12.4263  12.5042  12.5042  12.5332  12.5332  12.6445  12.6445
    13.0775  13.0775  13.0887  13.0887  13.6356  13.6356  13.6990  13.6990
    15.6504  15.6504  15.6784  15.6784  16.9389  16.9389  17.1199  17.1200
    17.3860  17.3860  17.4948  17.4952  17.5621

          k =-0.5000-0.4785 0.1657 ( 61632 PWs)   bands (ev):

   -65.8965 -65.8965 -65.8965 -65.8965 -65.8957 -65.8957 -65.8957 -65.8957
   -30.2901 -30.2901 -30.2896 -30.2896 -30.2787 -30.2787 -30.2777 -30.2777
   -30.2513 -30.2513 -30.2506 -30.2506 -30.2035 -30.2035 -30.2029 -30.2029
   -30.1928 -30.1928 -30.1912 -30.1912 -30.1660 -30.1660 -30.1655 -30.1655
   -20.0508 -20.0508 -20.0508 -20.0508 -20.0503 -20.0503 -20.0503 -20.0503
   -20.0335 -20.0335 -20.0334 -20.0334 -20.0331 -20.0331 -20.0330 -20.0330
   -20.0280 -20.0280 -20.0280 -20.0280 -20.0275 -20.0275 -20.0275 -20.0275
   -20.0264 -20.0264 -20.0264 -20.0264 -20.0257 -20.0257 -20.0257 -20.0257
   -20.0150 -20.0149 -20.0149 -20.0149 -20.0146 -20.0146 -20.0146 -20.0146
   -20.0093 -20.0093 -20.0093 -20.0093 -20.0041 -20.0041 -20.0041 -20.0041
   -19.9967 -19.9967 -19.9967 -19.9967 -19.9957 -19.9957 -19.9957 -19.9957
    -9.2010  -9.2010  -9.1901  -9.1901  -8.5478  -8.5478  -8.5130  -8.5130
    -8.4022  -8.4022  -8.3694  -8.3694  -8.2190  -8.2189  -8.1622  -8.1622
    -8.1401  -8.1401  -8.0922  -8.0922  -7.6723  -7.6723  -7.6721  -7.6721
     1.8339   1.8339   1.8436   1.8436   3.0700   3.0700   3.1852   3.1852
     3.1983   3.1983   3.2413   3.2413   3.3649   3.3649   3.4643   3.4643
     3.5450   3.5450   3.6527   3.6527   3.7066   3.7066   3.7714   3.7714
     3.8324   3.8324   4.1369   4.1369   4.4468   4.4468   4.5153   4.5153
     4.5555   4.5555   4.6359   4.6359   5.0925   5.0925   5.2585   5.2586
     5.3668   5.3668   5.5071   5.5071   5.9747   5.9747   6.0039   6.0039
     6.8583   6.8584   6.9415   6.9415   7.0081   7.0081   7.0506   7.0506
     7.3786   7.3786   7.4194   7.4194   7.5101   7.5101   7.5937   7.5937
     7.6796   7.6796   7.7070   7.7070   7.7722   7.7722   7.8008   7.8008
    11.5403  11.5403  11.6062  11.6062  11.6300  11.6300  11.7272  11.7272
    12.4393  12.4393  12.5100  12.5100  12.5259  12.5259  12.6591  12.6591
    13.0063  13.0063  13.0728  13.0728  13.4952  13.4952  13.5657  13.5657
    15.8812  15.8812  15.9130  15.9130  16.9921  16.9921  17.1734  17.1734
    17.3888  17.3888  17.5083  17.5086  17.5677

          k =-0.5000-0.4785 0.3313 ( 61608 PWs)   bands (ev):

   -65.8963 -65.8963 -65.8963 -65.8963 -65.8959 -65.8959 -65.8959 -65.8959
   -30.2861 -30.2861 -30.2854 -30.2854 -30.2801 -30.2801 -30.2792 -30.2792
   -30.2394 -30.2394 -30.2389 -30.2389 -30.2094 -30.2094 -30.2091 -30.2091
   -30.1908 -30.1908 -30.1893 -30.1893 -30.1768 -30.1768 -30.1759 -30.1759
   -20.0507 -20.0507 -20.0507 -20.0507 -20.0504 -20.0504 -20.0504 -20.0504
   -20.0334 -20.0334 -20.0333 -20.0333 -20.0332 -20.0332 -20.0331 -20.0331
   -20.0280 -20.0280 -20.0280 -20.0280 -20.0277 -20.0277 -20.0277 -20.0277
   -20.0262 -20.0262 -20.0262 -20.0262 -20.0258 -20.0258 -20.0257 -20.0257
   -20.0150 -20.0150 -20.0150 -20.0150 -20.0146 -20.0146 -20.0146 -20.0146
   -20.0082 -20.0082 -20.0082 -20.0082 -20.0052 -20.0052 -20.0052 -20.0052
   -19.9965 -19.9965 -19.9965 -19.9965 -19.9959 -19.9959 -19.9959 -19.9959
    -9.0039  -9.0039  -8.9885  -8.9885  -8.6161  -8.6160  -8.5818  -8.5818
    -8.3484  -8.3484  -8.3142  -8.3142  -8.2119  -8.2119  -8.1732  -8.1732
    -8.1275  -8.1275  -8.1011  -8.1011  -7.9367  -7.9367  -7.9355  -7.9355
     2.4731   2.4731   2.4950   2.4950   3.1086   3.1086   3.1702   3.1702
     3.2325   3.2325   3.3049   3.3049   3.3462   3.3462   3.4417   3.4418
     3.6465   3.6465   3.7225   3.7225   3.7908   3.7908   3.8458   3.8459
     4.0515   4.0515   4.1991   4.1991   4.4261   4.4261   4.4411   4.4411
     4.5131   4.5131   4.5735   4.5735   4.7038   4.7038   4.8285   4.8285
     4.9053   4.9053   5.0429   5.0429   5.2261   5.2261   5.2731   5.2731
     7.1045   7.1045   7.2191   7.2191   7.3071   7.3071   7.3507   7.3507
     7.3959   7.3959   7.4748   7.4748   7.5512   7.5512   7.5870   7.5870
     7.6536   7.6536   7.7142   7.7142   7.7844   7.7844   7.8068   7.8068
    11.7690  11.7690  11.8260  11.8260  11.9199  11.9199  12.0414  12.0414
    12.4375  12.4375  12.4533  12.4533  12.5393  12.5393  12.6826  12.6826
    12.7599  12.7599  12.8872  12.8872  13.1414  13.1415  13.2198  13.2198
    16.5563  16.5563  16.6136  16.6136  17.1341  17.1341  17.3076  17.3078
    17.3793  17.3793  17.5295  17.5311  17.5766

          k =-0.5000-0.4785-0.4970 ( 61664 PWs)   bands (ev):

   -65.8961 -65.8961 -65.8961 -65.8961 -65.8961 -65.8961 -65.8961 -65.8961
   -30.2827 -30.2827 -30.2827 -30.2827 -30.2816 -30.2816 -30.2816 -30.2816
   -30.2240 -30.2240 -30.2240 -30.2240 -30.2212 -30.2212 -30.2212 -30.2212
   -30.1868 -30.1868 -30.1868 -30.1867 -30.1840 -30.1840 -30.1840 -30.1840
   -20.0506 -20.0506 -20.0506 -20.0506 -20.0506 -20.0506 -20.0506 -20.0505
   -20.0333 -20.0333 -20.0333 -20.0333 -20.0332 -20.0332 -20.0332 -20.0332
   -20.0280 -20.0280 -20.0280 -20.0279 -20.0278 -20.0278 -20.0278 -20.0278
   -20.0261 -20.0261 -20.0261 -20.0261 -20.0258 -20.0258 -20.0258 -20.0258
   -20.0150 -20.0150 -20.0150 -20.0150 -20.0146 -20.0146 -20.0146 -20.0146
   -20.0068 -20.0068 -20.0068 -20.0068 -20.0066 -20.0066 -20.0066 -20.0066
   -19.9963 -19.9962 -19.9962 -19.9962 -19.9962 -19.9962 -19.9962 -19.9962
    -8.7726  -8.7726  -8.7726  -8.7726  -8.7404  -8.7404  -8.7404  -8.7404
    -8.2374  -8.2373  -8.2373  -8.2373  -8.1910  -8.1910  -8.1910  -8.1910
    -8.1558  -8.1558  -8.1558  -8.1558  -8.1103  -8.1103  -8.1103  -8.1103
     3.0522   3.0522   3.0522   3.0522   3.1560   3.1560   3.1560   3.1560
     3.3311   3.3311   3.3311   3.3311   3.4643   3.4643   3.4643   3.4643
     3.5289   3.5289   3.5289   3.5289   3.7380   3.7380   3.7380   3.7380
     4.3249   4.3249   4.3249   4.3249   4.3613   4.3613   4.3613   4.3613
     4.5315   4.5315   4.5315   4.5315   4.6163   4.6163   4.6163   4.6163
     4.6953   4.6953   4.6953   4.6953   4.7886   4.7887   4.7887   4.7887
     7.2369   7.2369   7.2369   7.2370   7.4261   7.4261   7.4261   7.4261
     7.4951   7.4951   7.4951   7.4951   7.5647   7.5647   7.5647   7.5647
     7.7053   7.7053   7.7053   7.7053   7.7947   7.7947   7.7947   7.7947
    12.0943  12.0943  12.0943  12.0943  12.1217  12.1217  12.1217  12.1217
    12.3855  12.3856  12.3856  12.3856  12.5815  12.5815  12.5815  12.5815
    12.7387  12.7387  12.7387  12.7387  12.8638  12.8638  12.8638  12.8638
    17.1922  17.1922  17.1922  17.1922  17.2986  17.2986  17.2986  17.2986
    17.5277  17.5277  17.5277  17.5277  17.6309

     the Fermi energy is    10.1680 ev

!    total energy              =   -6260.88917921 Ry
     Harris-Foulkes estimate   =   -6260.88917921 Ry
     estimated scf accuracy    <          8.4E-10 Ry

     The total energy is the sum of the following terms:

     one-electron contribution =   -4668.03695176 Ry
     hartree contribution      =    2574.16001987 Ry
     xc contribution           =    -965.98975334 Ry
     ewald contribution        =   -3201.02247010 Ry
     smearing contrib. (-TS)   =      -0.00002388 Ry

     convergence has been achieved in  13 iterations

     Writing output data file chempot_3.save/
 
     init_run     :     47.12s CPU     49.33s WALL (       1 calls)
     electrons    :   1880.82s CPU   1914.98s WALL (       1 calls)

     Called by init_run:
     wfcinit      :     44.32s CPU     46.37s WALL (       1 calls)
     potinit      :      1.08s CPU      1.13s WALL (       1 calls)
     hinit0       :      1.49s CPU      1.55s WALL (       1 calls)

     Called by electrons:
     c_bands      :   1676.55s CPU   1707.64s WALL (      13 calls)
     sum_band     :    198.14s CPU    199.64s WALL (      13 calls)
     v_of_rho     :      1.60s CPU      1.69s WALL (      14 calls)
     mix_rho      :      2.83s CPU      3.51s WALL (      13 calls)

     Called by c_bands:
     init_us_2    :      8.82s CPU      9.48s WALL (      54 calls)
     cegterg      :   1466.99s CPU   1495.93s WALL (      26 calls)

     Called by sum_band:

     Called by *egterg:
     h_psi        :   1079.44s CPU   1094.17s WALL (     119 calls)
     g_psi        :      1.62s CPU      1.63s WALL (      91 calls)
     cdiaghg      :     20.80s CPU     20.97s WALL (     117 calls)

     Called by h_psi:
     h_psi:pot    :   1076.70s CPU   1084.80s WALL (     119 calls)
     h_psi:calbec :    169.77s CPU    173.96s WALL (     119 calls)
     vloc_psi     :    732.57s CPU    735.15s WALL (     119 calls)
     add_vuspsi   :    174.35s CPU    175.69s WALL (     119 calls)

     General routines
     calbec       :    169.77s CPU    173.95s WALL (     119 calls)
     fft          :      0.95s CPU      0.95s WALL (      42 calls)
     ffts         :      0.31s CPU      0.31s WALL (      13 calls)
     fftw         :    784.47s CPU    786.69s WALL (   33998 calls)
 
     Parallel routines
 
     PWSCF        :  32m10.41s CPU  32m50.98s WALL

 
   This run was terminated on:  23:58:48  16Dec2019            

=------------------------------------------------------------------------------=
   JOB DONE.
=------------------------------------------------------------------------------=
