
     Program PWSCF v.6.2 (svn rev. 14038) starts on 23Mar2020 at 21: 0:50 

     This program is part of the open-source Quantum ESPRESSO suite
     for quantum simulation of materials; please cite
         "P. Giannozzi et al., J. Phys.:Condens. Matter 21 395502 (2009);
         "P. Giannozzi et al., J. Phys.:Condens. Matter 29 465901 (2017);
          URL http://www.quantum-espresso.org", 
     in publications or presentations arising from this work. More details at
     http://www.quantum-espresso.org/quote

     Parallel version (MPI), running on    40 processors

     MPI processes distributed on     3 nodes
     K-points division:     npool     =      40
     Reading input from rscf.in

     Current dimensions of program PWSCF are:
     Max number of different atomic species (ntypx) = 10
     Max number of k-points (npk) =  40000
     Max angular momentum in pseudopotentials (lmaxx) =  3

     Subspace diagonalization in iterative solution of the eigenvalue problem:
     a serial algorithm will be used

 
     G-vector sticks info
     --------------------
     sticks:   dense  smooth     PW     G-vecs:    dense   smooth      PW
     Sum        7747    7747   2077               498127   498127   69057
 


     bravais-lattice index     =            0
     lattice parameter (alat)  =      13.8397  a.u.
     unit-cell volume          =    2804.9816 (a.u.)^3
     number of atoms/cell      =           32
     number of atomic types    =            2
     number of electrons       =       368.00
     number of Kohn-Sham states=          221
     kinetic-energy cutoff     =     120.0000  Ry
     charge density cutoff     =     480.0000  Ry
     convergence threshold     =      1.0E-08
     mixing beta               =       0.7000
     number of iterations used =            8  plain     mixing
     Exchange-correlation      = SLA PW NOGX NOGC ( 1  4  0  0 0 0)
     nstep                     =           50


     celldm(1)=  13.839685  celldm(2)=   0.000000  celldm(3)=   0.000000
     celldm(4)=   0.000000  celldm(5)=   0.000000  celldm(6)=   0.000000

     crystal axes: (cart. coord. in units of alat)
               a(1) = (   1.000000   0.000000   0.000000 )  
               a(2) = (   0.000000   1.058160   0.000000 )  
               a(3) = (   0.000000   0.000000   1.000000 )  

     reciprocal axes: (cart. coord. in units 2 pi/alat)
               b(1) = (  1.000000  0.000000  0.000000 )  
               b(2) = (  0.000000  0.945037  0.000000 )  
               b(3) = (  0.000000  0.000000  1.000000 )  


     PseudoPot. # 1 for W  read from file:
     /cluster/scratch/mnoe/QE/pps/W_ONCV_LDA-4.0.upf
     MD5 check sum: ba0307d5d4cd419d6f1d13dc49d7c13a
     Pseudo is Norm-conserving + core correction, Zval = 28.0
     Generated using ONCVPSP code by D. R. Hamann
     Using radial grid of 1380 points,  8 beta functions with: 
                l(1) =   0
                l(2) =   0
                l(3) =   1
                l(4) =   1
                l(5) =   2
                l(6) =   2
                l(7) =   3
                l(8) =   3

     PseudoPot. # 2 for O  read from file:
     /cluster/scratch/mnoe/QE/pps/O_ONCV_LDA-3.0.upf
     MD5 check sum: a1bd6164e7280c17a38c229939bfbd54
     Pseudo is Norm-conserving + core correction, Zval =  6.0
     Generated using ONCVPSP code by D. R. Hamann
     Using radial grid of  926 points,  5 beta functions with: 
                l(1) =   0
                l(2) =   0
                l(3) =   1
                l(4) =   1
                l(5) =   2

     atomic species   valence    mass     pseudopotential
        W             28.00   183.84000     W ( 1.00)
        O              6.00    15.99940     O ( 1.00)

      4 Sym. Ops. (no inversion) found ( 3 have fractional translation)



   Cartesian axes

     site n.     atom                  positions (alat units)
         1           W   tau(   1) = (   0.2459162   0.2966989   0.0012346  )
         2           W   tau(   2) = (   0.7514662   0.7614612  -0.0040064  )
         3           W   tau(   3) = (   0.2540838   0.2323812   0.5012346  )
         4           W   tau(   4) = (   0.7485338   0.8257789   0.4959936  )
         5           W   tau(   5) = (   0.7540838   0.2966989   0.4987654  )
         6           W   tau(   6) = (   0.2485338   0.7614612   0.5040064  )
         7           W   tau(   7) = (   0.7459162   0.2323812  -0.0012346  )
         8           W   tau(   8) = (   0.2514662   0.8257789   0.0040064  )
         9           O   tau(   9) = (   0.2444737   0.0083805  -0.0017423  )
        10           O   tau(  10) = (   0.7547127  -0.0083805  -0.0033714  )
        11           O   tau(  11) = (   0.2555263   0.5206995   0.4982576  )
        12           O   tau(  12) = (   0.7452873   0.5374605   0.4966286  )
        13           O   tau(  13) = (   0.7555263   0.0083805   0.5017424  )
        14           O   tau(  14) = (   0.2452873  -0.0083805   0.5033713  )
        15           O   tau(  15) = (   0.7444737   0.5206995   0.0017423  )
        16           O   tau(  16) = (   0.2547127   0.5374605   0.0033713  )
        17           O   tau(  17) = (   0.5013336   0.2583775   0.4531313  )
        18           O   tau(  18) = (   0.4998156   0.7985713   0.5468686  )
        19           O   tau(  19) = (  -0.0013336   0.2707026   0.9531314  )
        20           O   tau(  20) = (   0.0001844   0.7886688   0.0468687  )
        21           O   tau(  21) = (   0.4986664   0.2583775   0.0468687  )
        22           O   tau(  22) = (   0.5001844   0.7985713   0.9531314  )
        23           O   tau(  23) = (   0.0013336   0.2707026   0.5468686  )
        24           O   tau(  24) = (  -0.0001844   0.7886688   0.4531313  )
        25           O   tau(  25) = (   0.7031314   0.2661027   0.7492286  )
        26           O   tau(  26) = (   0.2968687   0.7976080   0.2515296  )
        27           O   tau(  27) = (   0.7968687   0.2629774   0.2492286  )
        28           O   tau(  28) = (   0.2031314   0.7896321   0.7515296  )
        29           O   tau(  29) = (   0.2968687   0.2661027   0.7507714  )
        30           O   tau(  30) = (   0.7031314   0.7976080   0.2484704  )
        31           O   tau(  31) = (   0.2031314   0.2629774   0.2507714  )
        32           O   tau(  32) = (   0.7968687   0.7896321   0.7484704  )

     number of k points=    64  gaussian smearing, width (Ry)=  0.0007
                       cart. coord. in units 2pi/alat
        k(    1) = (   0.0000000   0.0000000   0.0000000), wk =   0.0092593
        k(    2) = (   0.0000000   0.0000000   0.1666667), wk =   0.0185185
        k(    3) = (   0.0000000   0.0000000   0.3333333), wk =   0.0185185
        k(    4) = (   0.0000000   0.0000000  -0.5000000), wk =   0.0092593
        k(    5) = (   0.0000000   0.1575061   0.0000000), wk =   0.0185185
        k(    6) = (   0.0000000   0.1575061   0.1666667), wk =   0.0370370
        k(    7) = (   0.0000000   0.1575061   0.3333333), wk =   0.0370370
        k(    8) = (   0.0000000   0.1575061  -0.5000000), wk =   0.0185185
        k(    9) = (   0.0000000   0.3150122   0.0000000), wk =   0.0185185
        k(   10) = (   0.0000000   0.3150122   0.1666667), wk =   0.0370370
        k(   11) = (   0.0000000   0.3150122   0.3333333), wk =   0.0370370
        k(   12) = (   0.0000000   0.3150122  -0.5000000), wk =   0.0185185
        k(   13) = (   0.0000000  -0.4725183   0.0000000), wk =   0.0092593
        k(   14) = (   0.0000000  -0.4725183   0.1666667), wk =   0.0185185
        k(   15) = (   0.0000000  -0.4725183   0.3333333), wk =   0.0185185
        k(   16) = (   0.0000000  -0.4725183  -0.5000000), wk =   0.0092593
        k(   17) = (   0.1666667   0.0000000   0.1666667), wk =   0.0370370
        k(   18) = (   0.1666667   0.0000000   0.3333333), wk =   0.0370370
        k(   19) = (   0.1666667   0.0000000  -0.5000000), wk =   0.0185185
        k(   20) = (   0.1666667   0.1575061   0.1666667), wk =   0.0740741
        k(   21) = (   0.1666667   0.1575061   0.3333333), wk =   0.0740741
        k(   22) = (   0.1666667   0.1575061  -0.5000000), wk =   0.0370370
        k(   23) = (   0.1666667   0.3150122   0.1666667), wk =   0.0740741
        k(   24) = (   0.1666667   0.3150122   0.3333333), wk =   0.0740741
        k(   25) = (   0.1666667   0.3150122  -0.5000000), wk =   0.0370370
        k(   26) = (   0.1666667  -0.4725183   0.1666667), wk =   0.0370370
        k(   27) = (   0.1666667  -0.4725183   0.3333333), wk =   0.0370370
        k(   28) = (   0.1666667  -0.4725183  -0.5000000), wk =   0.0185185
        k(   29) = (   0.3333333   0.0000000   0.3333333), wk =   0.0370370
        k(   30) = (   0.3333333   0.0000000  -0.5000000), wk =   0.0185185
        k(   31) = (   0.3333333   0.1575061   0.3333333), wk =   0.0740741
        k(   32) = (   0.3333333   0.1575061  -0.5000000), wk =   0.0370370
        k(   33) = (   0.3333333   0.3150122   0.3333333), wk =   0.0740741
        k(   34) = (   0.3333333   0.3150122  -0.5000000), wk =   0.0370370
        k(   35) = (   0.3333333  -0.4725183   0.3333333), wk =   0.0370370
        k(   36) = (   0.3333333  -0.4725183  -0.5000000), wk =   0.0185185
        k(   37) = (  -0.5000000   0.0000000  -0.5000000), wk =   0.0092593
        k(   38) = (  -0.5000000   0.1575061  -0.5000000), wk =   0.0185185
        k(   39) = (  -0.5000000   0.3150122  -0.5000000), wk =   0.0185185
        k(   40) = (  -0.5000000  -0.4725183  -0.5000000), wk =   0.0092593
        k(   41) = (   0.1666667   0.0000000   0.0000000), wk =   0.0185185
        k(   42) = (   0.3333333   0.0000000   0.0000000), wk =   0.0185185
        k(   43) = (  -0.5000000   0.0000000   0.0000000), wk =   0.0092593
        k(   44) = (   0.1666667  -0.1575061   0.0000000), wk =   0.0370370
        k(   45) = (   0.3333333  -0.1575061   0.0000000), wk =   0.0370370
        k(   46) = (  -0.5000000  -0.1575061   0.0000000), wk =   0.0185185
        k(   47) = (   0.1666667  -0.3150122   0.0000000), wk =   0.0370370
        k(   48) = (   0.3333333  -0.3150122   0.0000000), wk =   0.0370370
        k(   49) = (  -0.5000000  -0.3150122   0.0000000), wk =   0.0185185
        k(   50) = (   0.1666667   0.4725183   0.0000000), wk =   0.0185185
        k(   51) = (   0.3333333   0.4725183   0.0000000), wk =   0.0185185
        k(   52) = (  -0.5000000   0.4725183   0.0000000), wk =   0.0092593
        k(   53) = (   0.3333333   0.0000000   0.1666667), wk =   0.0370370
        k(   54) = (  -0.5000000   0.0000000   0.1666667), wk =   0.0185185
        k(   55) = (   0.3333333  -0.1575061   0.1666667), wk =   0.0740741
        k(   56) = (  -0.5000000  -0.1575061   0.1666667), wk =   0.0370370
        k(   57) = (   0.3333333  -0.3150122   0.1666667), wk =   0.0740741
        k(   58) = (  -0.5000000  -0.3150122   0.1666667), wk =   0.0370370
        k(   59) = (   0.3333333   0.4725183   0.1666667), wk =   0.0370370
        k(   60) = (  -0.5000000   0.4725183   0.1666667), wk =   0.0185185
        k(   61) = (  -0.5000000   0.0000000   0.3333333), wk =   0.0185185
        k(   62) = (  -0.5000000  -0.1575061   0.3333333), wk =   0.0370370
        k(   63) = (  -0.5000000  -0.3150122   0.3333333), wk =   0.0370370
        k(   64) = (  -0.5000000   0.4725183   0.3333333), wk =   0.0185185

     Dense  grid:   498127 G-vectors     FFT dimensions: ( 100, 108, 100)

     Estimated max dynamical RAM per process >       3.15 GB

     Estimated total dynamical RAM >     125.81 GB

     Initial potential from superposition of free atoms

     starting charge  367.99656, renormalised to  368.00000
     Starting wfc are  232 randomized atomic wfcs

     total cpu time spent up to now is       66.6 secs

     Self-consistent Calculation

     iteration #  1     ecut=   120.00 Ry     beta= 0.70
     Davidson diagonalization with overlap
     ethr =  1.00E-02,  avg # of iterations =  5.1

     total cpu time spent up to now is      250.6 secs

     total energy              =   -6254.00643875 Ry
     Harris-Foulkes estimate   =   -6264.58773598 Ry
     estimated scf accuracy    <      13.40407784 Ry

     iteration #  2     ecut=   120.00 Ry     beta= 0.70
     Davidson diagonalization with overlap
     ethr =  3.64E-03,  avg # of iterations =  3.4

     total cpu time spent up to now is      431.1 secs

     total energy              =   -6250.89753363 Ry
     Harris-Foulkes estimate   =   -6270.73391165 Ry
     estimated scf accuracy    <      53.22837097 Ry

     iteration #  3     ecut=   120.00 Ry     beta= 0.70
     Davidson diagonalization with overlap
     ethr =  3.64E-03,  avg # of iterations =  3.5

     total cpu time spent up to now is      597.5 secs

     total energy              =   -6261.08070517 Ry
     Harris-Foulkes estimate   =   -6261.38710260 Ry
     estimated scf accuracy    <       0.99448433 Ry

     iteration #  4     ecut=   120.00 Ry     beta= 0.70
     Davidson diagonalization with overlap
     ethr =  2.70E-04,  avg # of iterations =  2.9

     total cpu time spent up to now is      732.7 secs

     total energy              =   -6261.09603182 Ry
     Harris-Foulkes estimate   =   -6261.16871961 Ry
     estimated scf accuracy    <       0.25006034 Ry

     iteration #  5     ecut=   120.00 Ry     beta= 0.70
     Davidson diagonalization with overlap
     ethr =  6.80E-05,  avg # of iterations =  4.5

     total cpu time spent up to now is      874.5 secs

     total energy              =   -6261.08899081 Ry
     Harris-Foulkes estimate   =   -6261.12510091 Ry
     estimated scf accuracy    <       0.07877307 Ry

     iteration #  6     ecut=   120.00 Ry     beta= 0.70
     Davidson diagonalization with overlap
     ethr =  2.14E-05,  avg # of iterations =  5.4

     total cpu time spent up to now is     1029.9 secs

     total energy              =   -6261.10659156 Ry
     Harris-Foulkes estimate   =   -6261.10851310 Ry
     estimated scf accuracy    <       0.00529086 Ry

     iteration #  7     ecut=   120.00 Ry     beta= 0.70
     Davidson diagonalization with overlap
     ethr =  1.44E-06,  avg # of iterations =  4.8

     total cpu time spent up to now is     1178.4 secs

     total energy              =   -6261.10721523 Ry
     Harris-Foulkes estimate   =   -6261.10730933 Ry
     estimated scf accuracy    <       0.00020940 Ry

     iteration #  8     ecut=   120.00 Ry     beta= 0.70
     Davidson diagonalization with overlap
     ethr =  5.69E-08,  avg # of iterations =  3.0

     total cpu time spent up to now is     1340.2 secs

     total energy              =   -6261.10726560 Ry
     Harris-Foulkes estimate   =   -6261.10728774 Ry
     estimated scf accuracy    <       0.00006557 Ry

     iteration #  9     ecut=   120.00 Ry     beta= 0.70
     Davidson diagonalization with overlap
     ethr =  1.78E-08,  avg # of iterations =  2.6

     total cpu time spent up to now is     1480.2 secs

     total energy              =   -6261.10727660 Ry
     Harris-Foulkes estimate   =   -6261.10728149 Ry
     estimated scf accuracy    <       0.00002113 Ry

     iteration # 10     ecut=   120.00 Ry     beta= 0.70
     Davidson diagonalization with overlap
     ethr =  5.74E-09,  avg # of iterations =  1.9

     total cpu time spent up to now is     1606.9 secs

     total energy              =   -6261.10727585 Ry
     Harris-Foulkes estimate   =   -6261.10727846 Ry
     estimated scf accuracy    <       0.00000622 Ry

     iteration # 11     ecut=   120.00 Ry     beta= 0.70
     Davidson diagonalization with overlap
     ethr =  1.69E-09,  avg # of iterations =  2.1

     total cpu time spent up to now is     1739.8 secs

     total energy              =   -6261.10727690 Ry
     Harris-Foulkes estimate   =   -6261.10727708 Ry
     estimated scf accuracy    <       0.00000046 Ry

     iteration # 12     ecut=   120.00 Ry     beta= 0.70
     Davidson diagonalization with overlap
     ethr =  1.25E-10,  avg # of iterations =  2.8

     total cpu time spent up to now is     1900.8 secs

     total energy              =   -6261.10727700 Ry
     Harris-Foulkes estimate   =   -6261.10727703 Ry
     estimated scf accuracy    <       0.00000008 Ry

     iteration # 13     ecut=   120.00 Ry     beta= 0.70
     Davidson diagonalization with overlap
     ethr =  2.22E-11,  avg # of iterations =  1.9

     total cpu time spent up to now is     2027.3 secs

     total energy              =   -6261.10727700 Ry
     Harris-Foulkes estimate   =   -6261.10727701 Ry
     estimated scf accuracy    <       0.00000002 Ry

     iteration # 14     ecut=   120.00 Ry     beta= 0.70
     Davidson diagonalization with overlap
     ethr =  4.25E-12,  avg # of iterations =  2.8

     total cpu time spent up to now is     2194.5 secs

     End of self-consistent calculation

          k = 0.0000 0.0000 0.0000 ( 62239 PWs)   bands (ev):

   -66.1714 -66.1710 -66.1704 -66.1704 -66.1700 -66.1700 -66.1694 -66.1690
   -30.5497 -30.5452 -30.5450 -30.5408 -30.5343 -30.5325 -30.5294 -30.5287
   -30.5285 -30.5273 -30.5239 -30.5236 -30.4876 -30.4856 -30.4853 -30.4833
   -30.4312 -30.4304 -30.4271 -30.4271 -30.4264 -30.4258 -30.4228 -30.4217
   -20.3295 -20.3294 -20.3294 -20.3294 -20.3293 -20.3293 -20.3293 -20.3292
   -20.3102 -20.3099 -20.3099 -20.3096 -20.3064 -20.3061 -20.3059 -20.3058
   -20.3057 -20.3054 -20.3054 -20.3051 -20.3048 -20.3048 -20.3047 -20.3046
   -20.3045 -20.3043 -20.3042 -20.3042 -20.3036 -20.3034 -20.3034 -20.3031
   -20.2979 -20.2978 -20.2974 -20.2973 -20.2973 -20.2971 -20.2969 -20.2968
   -20.2945 -20.2944 -20.2943 -20.2943 -20.2941 -20.2940 -20.2940 -20.2939
   -20.2893 -20.2892 -20.2887 -20.2886 -20.2885 -20.2885 -20.2880 -20.2878
    -9.9798  -9.7281  -9.5380  -9.5360  -9.3131  -9.3095  -9.1123  -9.0994
    -9.0313  -8.8616  -8.8511  -8.8503  -7.8217  -7.7889  -7.7838  -7.7639
    -7.7605  -7.7561  -7.7551  -7.7022  -7.6508  -7.6489  -7.6278  -7.6266
     1.0881   1.0888   1.1936   1.1975   1.2059   1.2105   1.3504   1.5530
     1.6494   1.6508   1.6556   1.8217   2.3310   2.4064   2.5723   2.5760
     2.7181   2.7181   4.1323   4.1367   4.3117   4.3182   4.7513   4.7521
     4.7807   4.7821   4.8717   4.8881   5.0431   5.0441   5.0614   5.4818
     5.4856   5.4993   5.5061   5.5427   5.5427   5.5775   5.5848   5.8654
     5.8691   5.8833   5.8845   5.8893   5.9914   6.0295   6.0324   6.1023
     6.1042   6.2582   6.2605   6.5130   6.5160   6.8384   6.8450   6.8494
     6.8772   6.8800   6.9889   7.0288   7.0713   7.0746   7.3332   7.3372
     7.3679   7.3719   7.8322   7.8461   8.0831   8.0870   8.1537   8.1605
     9.2118   9.2122   9.9236   9.9259   9.9472   9.9491  12.2728  12.2747
    12.3095  12.3163  12.3731  12.3760  12.4696  12.4771  12.9667  12.9985
    13.2354  13.2629  13.3875  13.3930  13.7907  14.1194  14.1510  14.1549
    14.1784  14.3522  14.3790  14.8965  15.4343  15.4446  15.4460  16.1117
    16.1119  16.8992  17.1157  17.1182  17.4954

          k = 0.0000 0.0000 0.1667 ( 62262 PWs)   bands (ev):

   -66.1713 -66.1709 -66.1705 -66.1703 -66.1701 -66.1699 -66.1695 -66.1691
   -30.5496 -30.5456 -30.5451 -30.5412 -30.5324 -30.5288 -30.5277 -30.5275
   -30.5240 -30.5227 -30.5216 -30.5168 -30.4870 -30.4858 -30.4850 -30.4837
   -30.4379 -30.4340 -30.4335 -30.4301 -30.4295 -30.4261 -30.4261 -30.4222
   -20.3295 -20.3294 -20.3294 -20.3294 -20.3293 -20.3293 -20.3293 -20.3292
   -20.3102 -20.3099 -20.3099 -20.3096 -20.3063 -20.3060 -20.3058 -20.3058
   -20.3057 -20.3054 -20.3053 -20.3051 -20.3049 -20.3048 -20.3047 -20.3046
   -20.3046 -20.3043 -20.3042 -20.3041 -20.3036 -20.3035 -20.3034 -20.3031
   -20.2978 -20.2975 -20.2975 -20.2971 -20.2969 -20.2969 -20.2968 -20.2965
   -20.2944 -20.2943 -20.2943 -20.2942 -20.2941 -20.2940 -20.2940 -20.2937
   -20.2898 -20.2892 -20.2892 -20.2889 -20.2886 -20.2886 -20.2883 -20.2880
    -9.9309  -9.6736  -9.5523  -9.4680  -9.3228  -9.2211  -9.0715  -9.0566
    -9.0402  -8.8546  -8.8519  -8.8271  -7.9171  -7.8992  -7.8233  -7.7875
    -7.7748  -7.7619  -7.7599  -7.7526  -7.7462  -7.7057  -7.6578  -7.6354
     1.1772   1.1841   1.2008   1.2161   1.4186   1.4293   1.4714   1.6427
     1.6481   1.6919   1.7281   1.9255   2.4196   2.4976   2.5834   2.6634
     2.7094   2.8057   4.0826   4.1349   4.3043   4.3156   4.3356   4.3993
     4.6766   4.7663   4.8248   4.8372   4.8673   5.0335   5.0426   5.2817
     5.3238   5.4493   5.4890   5.5289   5.5976   5.6093   5.6255   5.6302
     5.7168   5.8265   5.8611   5.9199   6.0039   6.0769   6.1038   6.1047
     6.2744   6.3893   6.4723   6.5054   6.7103   6.7462   6.8084   6.8154
     6.8313   6.8723   6.9619   6.9859   7.0174   7.0828   7.1011   7.1066
     7.1565   7.2165   7.8378   7.8414   8.0466   8.1032   8.1154   8.1562
     9.5692   9.5945   9.9261   9.9453  10.1961  10.2362  12.2122  12.2581
    12.2749  12.3458  12.3609  12.3979  12.4771  12.5737  12.9616  12.9998
    13.0642  13.2484  13.2999  13.3874  13.9001  14.0181  14.0256  14.1178
    14.1779  14.3737  14.4696  15.0121  15.4108  15.4764  15.5078  16.0843
    16.4352  16.8429  17.0705  17.3134  17.5464

          k = 0.0000 0.0000 0.3333 ( 62268 PWs)   bands (ev):

   -66.1712 -66.1708 -66.1707 -66.1702 -66.1701 -66.1697 -66.1696 -66.1692
   -30.5490 -30.5465 -30.5446 -30.5421 -30.5314 -30.5287 -30.5277 -30.5250
   -30.5105 -30.5061 -30.5030 -30.4984 -30.4873 -30.4854 -30.4846 -30.4830
   -30.4558 -30.4525 -30.4513 -30.4477 -30.4293 -30.4270 -30.4252 -30.4230
   -20.3295 -20.3294 -20.3294 -20.3293 -20.3293 -20.3293 -20.3293 -20.3292
   -20.3102 -20.3100 -20.3099 -20.3097 -20.3061 -20.3059 -20.3058 -20.3056
   -20.3054 -20.3053 -20.3052 -20.3051 -20.3051 -20.3050 -20.3048 -20.3047
   -20.3047 -20.3045 -20.3041 -20.3041 -20.3038 -20.3037 -20.3034 -20.3032
   -20.2978 -20.2975 -20.2972 -20.2970 -20.2964 -20.2962 -20.2960 -20.2957
   -20.2948 -20.2947 -20.2945 -20.2944 -20.2937 -20.2935 -20.2931 -20.2930
   -20.2910 -20.2905 -20.2902 -20.2897 -20.2891 -20.2887 -20.2884 -20.2881
    -9.8133  -9.6025  -9.5496  -9.3633  -9.2987  -9.0718  -8.9631  -8.9584
    -8.9041  -8.8674  -8.7963  -8.7287  -8.2320  -8.2242  -8.1360  -8.1163
    -7.7977  -7.7703  -7.7504  -7.7394  -7.7275  -7.7151  -7.6822  -7.6597
     1.2094   1.2207   1.2304   1.2472   1.5650   1.5927   1.6261   1.6320
     2.1838   2.2259   2.3866   2.4684   2.6076   2.6772   2.6940   2.7650
     2.9067   3.0362   3.6946   3.7787   3.8510   3.9415   4.1798   4.2297
     4.2601   4.4636   4.5252   4.7681   4.8262   4.8302   4.8986   4.9805
     5.1012   5.1277   5.1663   5.3491   5.4267   5.4488   5.6595   5.6987
     5.7743   5.7864   5.8309   5.9776   6.0305   6.1470   6.2331   6.2708
     6.2984   6.4090   6.4718   6.5439   6.5759   6.5809   6.6185   6.7294
     6.8059   6.8657   6.8694   6.9699   7.0039   7.0393   7.0775   7.0928
     7.3065   7.3459   7.7539   7.7744   7.9214   7.9755   8.1392   8.1576
     9.9238   9.9398  10.3094  10.3725  10.8297  10.9226  11.8233  11.8659
    12.0846  12.4783  12.4868  12.5031  12.5319  12.5867  12.6830  12.8393
    12.9688  13.1325  13.1805  13.3933  13.6650  13.6870  14.0753  14.1132
    14.2343  14.3562  14.7852  15.3022  15.3039  15.6446  15.9280  15.9997
    16.2952  17.3046  17.4432  17.6161  17.6901

          k = 0.0000 0.0000-0.5000 ( 62264 PWs)   bands (ev):

   -66.1709 -66.1709 -66.1705 -66.1705 -66.1699 -66.1699 -66.1695 -66.1695
   -30.5478 -30.5478 -30.5434 -30.5434 -30.5300 -30.5300 -30.5263 -30.5263
   -30.4921 -30.4921 -30.4906 -30.4906 -30.4783 -30.4783 -30.4763 -30.4763
   -30.4737 -30.4737 -30.4720 -30.4720 -30.4282 -30.4282 -30.4241 -30.4241
   -20.3295 -20.3295 -20.3294 -20.3294 -20.3293 -20.3293 -20.3292 -20.3292
   -20.3101 -20.3101 -20.3098 -20.3098 -20.3060 -20.3060 -20.3055 -20.3055
   -20.3053 -20.3053 -20.3052 -20.3052 -20.3051 -20.3051 -20.3048 -20.3048
   -20.3046 -20.3046 -20.3040 -20.3040 -20.3039 -20.3039 -20.3033 -20.3033
   -20.2977 -20.2977 -20.2971 -20.2971 -20.2955 -20.2955 -20.2954 -20.2954
   -20.2951 -20.2951 -20.2950 -20.2950 -20.2925 -20.2925 -20.2921 -20.2921
   -20.2918 -20.2918 -20.2915 -20.2915 -20.2889 -20.2889 -20.2883 -20.2883
    -9.6907  -9.6907  -9.4361  -9.4361  -9.1469  -9.1469  -8.8923  -8.8923
    -8.6100  -8.6100  -8.5741  -8.5741  -8.5691  -8.5691  -8.4839  -8.4839
    -7.7844  -7.7844  -7.7281  -7.7281  -7.7155  -7.7155  -7.6933  -7.6933
     1.2191   1.2191   1.2463   1.2463   1.6068   1.6068   1.6153   1.6153
     2.6387   2.6387   2.9441   2.9441   3.0694   3.0694   3.1271   3.1271
     3.2118   3.2118   3.2716   3.2716   3.4049   3.4049   3.7464   3.7464
     3.8727   3.8727   4.3862   4.3862   4.7682   4.7682   4.8773   4.8773
     5.2278   5.2278   5.2748   5.2748   5.2852   5.2852   5.7478   5.7478
     5.7569   5.7569   5.9708   5.9708   6.1499   6.1499   6.2397   6.2397
     6.2941   6.2941   6.4106   6.4106   6.4922   6.4922   6.5044   6.5044
     6.7865   6.7865   6.8626   6.8626   7.0597   7.0597   7.4716   7.4716
     7.5290   7.5290   7.6895   7.6895   7.7166   7.7166   8.1549   8.1549
     9.9319   9.9319  11.1238  11.1238  11.1866  11.1866  11.5482  11.5482
    11.7374  11.7374  12.5206  12.5206  12.7287  12.7287  12.8189  12.8189
    12.9278  12.9278  13.2385  13.2385  13.4415  13.4415  14.1054  14.1054
    14.3179  14.3179  15.0974  15.0974  15.7423  15.7423  15.8515  15.8515
    16.7066  16.7066  17.8707  17.8707  18.2091

          k = 0.0000 0.1575 0.0000 ( 62231 PWs)   bands (ev):

   -66.1714 -66.1710 -66.1704 -66.1704 -66.1700 -66.1700 -66.1694 -66.1690
   -30.5464 -30.5416 -30.5413 -30.5370 -30.5343 -30.5320 -30.5293 -30.5286
   -30.5284 -30.5269 -30.5240 -30.5237 -30.4915 -30.4894 -30.4892 -30.4871
   -30.4311 -30.4303 -30.4272 -30.4269 -30.4265 -30.4257 -30.4228 -30.4218
   -20.3295 -20.3294 -20.3294 -20.3294 -20.3293 -20.3293 -20.3293 -20.3292
   -20.3099 -20.3096 -20.3096 -20.3092 -20.3063 -20.3061 -20.3058 -20.3058
   -20.3058 -20.3055 -20.3055 -20.3052 -20.3048 -20.3048 -20.3048 -20.3047
   -20.3046 -20.3045 -20.3044 -20.3043 -20.3036 -20.3036 -20.3035 -20.3032
   -20.2978 -20.2978 -20.2974 -20.2974 -20.2972 -20.2971 -20.2969 -20.2969
   -20.2945 -20.2944 -20.2943 -20.2943 -20.2941 -20.2940 -20.2940 -20.2939
   -20.2893 -20.2892 -20.2887 -20.2886 -20.2885 -20.2885 -20.2880 -20.2879
    -9.9544  -9.7387  -9.5087  -9.5065  -9.3197  -9.3162  -9.1114  -9.1002
    -8.9578  -8.8119  -8.8057  -8.8050  -7.9118  -7.8559  -7.8551  -7.8089
    -7.7886  -7.7862  -7.7657  -7.7624  -7.6497  -7.6481  -7.6294  -7.6281
     1.0882   1.0887   1.1982   1.2024   1.2064   1.2110   1.4447   1.5524
     1.8308   1.8858   1.8870   2.0327   2.3359   2.4012   2.6432   2.6473
     2.7853   2.7856   3.9952   4.0000   4.0638   4.0693   4.7531   4.7539
     4.7757   4.7772   4.7959   4.9489   4.9679   5.0139   5.0152   5.2853
     5.2875   5.4512   5.4514   5.6080   5.6092   5.6371   5.6633   5.6748
     5.8189   5.8212   5.9291   5.9409   5.9430   6.0319   6.0341   6.1071
     6.1088   6.2498   6.2539   6.5353   6.5389   6.8301   6.8523   6.8641
     6.8678   6.9035   6.9063   6.9805   6.9811   6.9821   7.3401   7.3437
     7.3683   7.3717   7.8368   7.8455   8.0431   8.0462   8.0746   8.0793
     9.2120   9.2126  10.1261  10.1263  10.1297  10.1302  12.1480  12.1536
    12.3140  12.3204  12.3222  12.3240  12.3719  12.3737  12.9716  12.9985
    13.2703  13.2938  13.3971  13.4022  14.0147  14.0556  14.0582  14.0688
    14.2038  14.6287  14.6367  15.0478  15.4346  15.4445  15.8499  16.0765
    16.0772  16.5907  17.2438  17.2466  17.5234

          k = 0.0000 0.1575 0.1667 ( 62237 PWs)   bands (ev):

   -66.1713 -66.1710 -66.1704 -66.1703 -66.1701 -66.1699 -66.1694 -66.1691
   -30.5462 -30.5420 -30.5415 -30.5373 -30.5322 -30.5288 -30.5273 -30.5273
   -30.5241 -30.5227 -30.5215 -30.5169 -30.4908 -30.4896 -30.4889 -30.4876
   -30.4378 -30.4341 -30.4334 -30.4300 -30.4296 -30.4262 -30.4260 -30.4223
   -20.3295 -20.3294 -20.3294 -20.3294 -20.3293 -20.3293 -20.3293 -20.3292
   -20.3099 -20.3096 -20.3096 -20.3093 -20.3063 -20.3060 -20.3058 -20.3058
   -20.3057 -20.3055 -20.3054 -20.3053 -20.3049 -20.3048 -20.3048 -20.3047
   -20.3047 -20.3045 -20.3044 -20.3043 -20.3037 -20.3036 -20.3035 -20.3032
   -20.2978 -20.2975 -20.2974 -20.2971 -20.2970 -20.2969 -20.2968 -20.2965
   -20.2944 -20.2943 -20.2943 -20.2942 -20.2941 -20.2941 -20.2940 -20.2937
   -20.2897 -20.2892 -20.2892 -20.2890 -20.2886 -20.2886 -20.2884 -20.2880
    -9.9046  -9.6841  -9.5227  -9.4347  -9.3297  -9.2279  -9.0703  -9.0576
    -8.9668  -8.8095  -8.8035  -8.7856  -7.9230  -7.9100  -7.9056  -7.8560
    -7.8427  -7.8221  -7.7844  -7.7756  -7.7573  -7.7538  -7.6571  -7.6369
     1.1801   1.1846   1.2069   1.2165   1.4470   1.4714   1.5646   1.7274
     1.8378   1.8798   1.8997   2.0751   2.4251   2.4921   2.6541   2.7366
     2.7771   2.8736   3.9725   4.0130   4.0579   4.1012   4.3407   4.3971
     4.7175   4.7305   4.7895   4.8172   4.8305   4.9572   5.0198   5.2392
     5.2453   5.2903   5.3084   5.4658   5.5675   5.5745   5.6518   5.7150
     5.7245   5.7916   5.8662   5.8748   5.9187   6.0892   6.1005   6.1342
     6.2028   6.3800   6.4456   6.5283   6.7232   6.7978   6.8153   6.8226
     6.8312   6.9080   6.9419   6.9496   6.9911   7.0002   7.1018   7.1067
     7.1730   7.2174   7.8403   7.8415   8.0075   8.0401   8.0482   8.0770
     9.5742   9.5943  10.1271  10.1308  10.3657  10.3817  12.1350  12.2275
    12.2330  12.2665  12.3209  12.3391  12.3756  12.4743  12.9700  13.0110
    13.0914  13.2762  13.3078  13.3951  13.9055  13.9364  14.0365  14.0538
    14.3022  14.6317  14.7755  15.1506  15.4758  15.5084  15.8169  16.0499
    16.3980  16.7468  16.9630  17.4217  17.5911

          k = 0.0000 0.1575 0.3333 ( 62284 PWs)   bands (ev):

   -66.1711 -66.1708 -66.1706 -66.1703 -66.1701 -66.1698 -66.1696 -66.1693
   -30.5454 -30.5430 -30.5409 -30.5383 -30.5310 -30.5283 -30.5278 -30.5251
   -30.5106 -30.5065 -30.5031 -30.4986 -30.4910 -30.4891 -30.4879 -30.4865
   -30.4559 -30.4526 -30.4514 -30.4478 -30.4292 -30.4269 -30.4254 -30.4231
   -20.3295 -20.3294 -20.3294 -20.3294 -20.3293 -20.3293 -20.3293 -20.3292
   -20.3099 -20.3097 -20.3095 -20.3094 -20.3061 -20.3059 -20.3058 -20.3056
   -20.3055 -20.3054 -20.3053 -20.3052 -20.3051 -20.3050 -20.3049 -20.3048
   -20.3047 -20.3045 -20.3043 -20.3042 -20.3039 -20.3038 -20.3035 -20.3033
   -20.2977 -20.2975 -20.2972 -20.2970 -20.2964 -20.2962 -20.2960 -20.2957
   -20.2948 -20.2947 -20.2945 -20.2944 -20.2937 -20.2935 -20.2931 -20.2930
   -20.2910 -20.2904 -20.2902 -20.2897 -20.2891 -20.2887 -20.2885 -20.2881
    -9.7850  -9.5728  -9.5596  -9.3708  -9.2510  -8.9992  -8.9663  -8.9507
    -8.9057  -8.8233  -8.7603  -8.7016  -8.2357  -8.2235  -8.1467  -8.1143
    -7.8892  -7.8654  -7.8396  -7.8142  -7.7503  -7.7291  -7.6817  -7.6612
     1.2186   1.2308   1.2336   1.2475   1.7660   1.7901   1.8679   1.8767
     2.1827   2.2432   2.3871   2.4919   2.6772   2.6852   2.7428   2.7765
     2.9811   3.0987   3.6942   3.7740   3.8396   3.8904   4.0685   4.1022
     4.2390   4.3274   4.5425   4.7204   4.7377   4.7899   4.7942   4.8950
     5.0468   5.0834   5.1008   5.1636   5.3683   5.3912   5.4605   5.6490
     5.7141   5.7759   5.8443   5.8998   5.9596   6.1170   6.1749   6.2316
     6.3182   6.4930   6.5390   6.5637   6.6105   6.6725   6.7077   6.7704
     6.8237   6.8359   6.9146   6.9400   6.9822   7.0144   7.0585   7.0813
     7.3009   7.3408   7.7584   7.7727   7.8878   7.9172   8.0681   8.0793
    10.1222  10.1285  10.3177  10.3750  10.9451  11.0155  11.8245  11.8638
    12.0417  12.3319  12.4599  12.4789  12.5217  12.5542  12.6380  12.7389
    12.9595  13.1375  13.1963  13.3932  13.5693  13.6001  14.0423  14.0501
    14.4956  14.6167  15.1368  15.4177  15.6342  15.7126  15.9485  15.9682
    16.4155  17.2086  17.2589  17.4956  17.8255

          k = 0.0000 0.1575-0.5000 ( 62234 PWs)   bands (ev):

   -66.1709 -66.1709 -66.1705 -66.1705 -66.1699 -66.1699 -66.1695 -66.1695
   -30.5443 -30.5443 -30.5397 -30.5396 -30.5297 -30.5297 -30.5264 -30.5264
   -30.4948 -30.4948 -30.4933 -30.4933 -30.4788 -30.4788 -30.4770 -30.4770
   -30.4745 -30.4745 -30.4723 -30.4723 -30.4281 -30.4281 -30.4242 -30.4242
   -20.3295 -20.3295 -20.3294 -20.3294 -20.3293 -20.3293 -20.3292 -20.3292
   -20.3098 -20.3098 -20.3095 -20.3095 -20.3060 -20.3060 -20.3056 -20.3056
   -20.3054 -20.3054 -20.3052 -20.3052 -20.3051 -20.3051 -20.3050 -20.3050
   -20.3047 -20.3046 -20.3041 -20.3041 -20.3040 -20.3040 -20.3034 -20.3034
   -20.2976 -20.2976 -20.2971 -20.2971 -20.2955 -20.2955 -20.2954 -20.2954
   -20.2951 -20.2951 -20.2950 -20.2950 -20.2925 -20.2925 -20.2921 -20.2921
   -20.2918 -20.2918 -20.2915 -20.2915 -20.2889 -20.2889 -20.2883 -20.2883
    -9.6611  -9.6611  -9.4448  -9.4448  -9.0806  -9.0806  -8.8541  -8.8541
    -8.6132  -8.6132  -8.5779  -8.5779  -8.5651  -8.5651  -8.4754  -8.4754
    -7.8785  -7.8785  -7.8278  -7.8278  -7.7157  -7.7157  -7.6948  -7.6948
     1.2318   1.2318   1.2466   1.2466   1.7988   1.7988   1.8792   1.8792
     2.7060   2.7060   2.9589   2.9589   3.0625   3.0625   3.1645   3.1645
     3.2218   3.2218   3.2694   3.2694   3.3952   3.3952   3.7526   3.7526
     3.9239   3.9239   4.2063   4.2063   4.6260   4.6260   4.7556   4.7556
     5.0873   5.0873   5.2540   5.2540   5.2632   5.2632   5.4949   5.4949
     5.7301   5.7301   5.8754   5.8754   6.1474   6.1474   6.2915   6.2915
     6.3102   6.3102   6.4333   6.4333   6.4831   6.4831   6.6883   6.6883
     6.8576   6.8576   6.8713   6.8713   6.9643   6.9643   7.4839   7.4839
     7.5233   7.5233   7.6657   7.6657   7.6860   7.6860   8.0785   8.0785
    10.1284  10.1284  11.1288  11.1288  11.1845  11.1845  11.6129  11.6129
    11.7986  11.7986  12.3862  12.3862  12.7010  12.7010  12.8296  12.8296
    12.8632  12.8632  13.1439  13.1439  13.4160  13.4160  14.0457  14.0457
    14.5836  14.5836  15.4732  15.4732  15.8261  15.8261  15.8756  15.8756
    16.7486  16.7486  17.6736  17.6736  18.1885

          k = 0.0000 0.3150 0.0000 ( 62175 PWs)   bands (ev):

   -66.1713 -66.1711 -66.1703 -66.1703 -66.1701 -66.1701 -66.1693 -66.1691
   -30.5392 -30.5344 -30.5333 -30.5330 -30.5307 -30.5293 -30.5269 -30.5264
   -30.5262 -30.5253 -30.5239 -30.5233 -30.5021 -30.5000 -30.4997 -30.4977
   -30.4309 -30.4301 -30.4275 -30.4268 -30.4266 -30.4257 -30.4229 -30.4222
   -20.3295 -20.3294 -20.3294 -20.3294 -20.3293 -20.3293 -20.3293 -20.3292
   -20.3089 -20.3086 -20.3086 -20.3083 -20.3065 -20.3062 -20.3061 -20.3060
   -20.3059 -20.3057 -20.3057 -20.3056 -20.3055 -20.3051 -20.3050 -20.3049
   -20.3046 -20.3046 -20.3044 -20.3044 -20.3038 -20.3037 -20.3036 -20.3034
   -20.2978 -20.2976 -20.2974 -20.2973 -20.2973 -20.2972 -20.2970 -20.2969
   -20.2945 -20.2945 -20.2943 -20.2943 -20.2941 -20.2940 -20.2940 -20.2939
   -20.2892 -20.2892 -20.2887 -20.2887 -20.2885 -20.2885 -20.2880 -20.2879
    -9.8927  -9.7707  -9.4433  -9.4406  -9.3412  -9.3378  -9.1091  -9.1026
    -8.7505  -8.6595  -8.6592  -8.6589  -8.1538  -8.1089  -8.1084  -8.0806
    -7.7850  -7.7821  -7.7702  -7.7671  -7.6462  -7.6448  -7.6331  -7.6318
     1.0882   1.0886   1.2015   1.2061   1.2073   1.2119   1.5217   1.5500
     2.3494   2.3870   2.4002   2.5442   2.5463   2.7046   2.8519   2.8587
     2.9818   2.9838   3.6117   3.6173   3.6571   3.6628   4.1551   4.4808
     4.4830   4.7590   4.7600   4.7666   4.7864   4.7877   5.0827   5.0843
     5.1172   5.1199   5.3754   5.3763   5.6288   5.6297   5.6621   5.6636
     5.8899   5.8923   5.8923   5.8929   6.0250   6.0273   6.0416   6.1253
     6.1293   6.2102   6.2169   6.5037   6.5984   6.6008   6.8259   6.8263
     6.8793   6.9547   7.1087   7.1095   7.1161   7.1176   7.3489   7.3511
     7.3723   7.3746   7.8298   7.8353   7.8511   7.8512   7.8682   7.8693
     9.2123   9.2129  10.5956  10.5981  10.6436  10.6460  11.7646  11.7702
    11.8852  11.8904  12.3443  12.3468  12.3696  12.3712  12.9822  12.9968
    13.3808  13.3958  13.4639  13.4687  13.8230  13.8279  13.8498  13.8561
    14.8367  15.2218  15.2229  15.4357  15.4412  15.6128  15.9568  15.9582
    16.0280  16.8544  17.2277  17.6869  17.6900

          k = 0.0000 0.3150 0.1667 ( 62260 PWs)   bands (ev):

   -66.1713 -66.1710 -66.1704 -66.1702 -66.1702 -66.1700 -66.1694 -66.1691
   -30.5383 -30.5336 -30.5327 -30.5311 -30.5287 -30.5269 -30.5260 -30.5257
   -30.5237 -30.5224 -30.5204 -30.5168 -30.5011 -30.5001 -30.4992 -30.4981
   -30.4377 -30.4343 -30.4332 -30.4298 -30.4298 -30.4265 -30.4258 -30.4226
   -20.3295 -20.3294 -20.3294 -20.3294 -20.3293 -20.3293 -20.3293 -20.3292
   -20.3089 -20.3086 -20.3086 -20.3083 -20.3065 -20.3062 -20.3061 -20.3060
   -20.3058 -20.3057 -20.3056 -20.3056 -20.3054 -20.3050 -20.3050 -20.3049
   -20.3047 -20.3046 -20.3045 -20.3044 -20.3039 -20.3037 -20.3036 -20.3034
   -20.2977 -20.2975 -20.2973 -20.2972 -20.2971 -20.2970 -20.2968 -20.2966
   -20.2944 -20.2943 -20.2942 -20.2942 -20.2941 -20.2941 -20.2941 -20.2938
   -20.2897 -20.2891 -20.2891 -20.2890 -20.2887 -20.2886 -20.2884 -20.2881
    -9.8407  -9.7163  -9.4564  -9.3607  -9.3518  -9.2499  -9.0673  -9.0601
    -8.7592  -8.6641  -8.6543  -8.6476  -8.1543  -8.1191  -8.1056  -8.0883
    -7.9102  -7.8940  -7.7812  -7.7737  -7.7656  -7.7583  -7.6538  -7.6406
     1.1814   1.1852   1.2113   1.2174   1.4635   1.4717   1.6867   1.7245
     2.4020   2.4390   2.4776   2.5196   2.5460   2.6905   2.8621   2.9604
     2.9750   3.0809   3.6179   3.6524   3.6587   3.7006   4.1459   4.3591
     4.3699   4.4940   4.4996   4.7686   4.7909   4.8165   4.8429   4.9021
     5.0762   5.1236   5.1653   5.2857   5.4288   5.4443   5.6120   5.6299
     5.6857   5.7525   5.7896   5.8745   6.0433   6.0808   6.1003   6.1194
     6.2282   6.3881   6.4037   6.5716   6.5907   6.8142   6.8535   6.9081
     6.9493   6.9589   7.0676   7.0827   7.0914   7.1024   7.1090   7.1332
     7.2208   7.2351   7.8138   7.8283   7.8332   7.8469   7.8534   7.8655
     9.5824   9.5925  10.6030  10.6447  10.7819  10.8162  11.7692  11.8610
    11.8903  11.9680  12.2433  12.2630  12.3977  12.4277  12.9900  13.0231
    13.1983  13.3496  13.3821  13.4596  13.6700  13.7227  13.8243  13.8466
    14.9656  15.2155  15.4324  15.4745  15.5148  15.6850  15.9327  16.1900
    16.2689  16.8183  17.2954  17.3559  17.8065

          k = 0.0000 0.3150 0.3333 ( 62269 PWs)   bands (ev):

   -66.1711 -66.1708 -66.1706 -66.1703 -66.1701 -66.1698 -66.1695 -66.1693
   -30.5373 -30.5346 -30.5309 -30.5296 -30.5280 -30.5273 -30.5267 -30.5247
   -30.5120 -30.5091 -30.5031 -30.5013 -30.4995 -30.4992 -30.4953 -30.4946
   -30.4559 -30.4528 -30.4513 -30.4480 -30.4290 -30.4267 -30.4257 -30.4234
   -20.3295 -20.3294 -20.3294 -20.3294 -20.3293 -20.3293 -20.3293 -20.3292
   -20.3089 -20.3087 -20.3086 -20.3084 -20.3064 -20.3061 -20.3061 -20.3060
   -20.3058 -20.3058 -20.3056 -20.3054 -20.3052 -20.3051 -20.3049 -20.3049
   -20.3048 -20.3048 -20.3046 -20.3043 -20.3041 -20.3039 -20.3036 -20.3035
   -20.2976 -20.2974 -20.2973 -20.2971 -20.2964 -20.2963 -20.2959 -20.2957
   -20.2948 -20.2947 -20.2945 -20.2944 -20.2937 -20.2934 -20.2932 -20.2930
   -20.2909 -20.2904 -20.2902 -20.2898 -20.2890 -20.2887 -20.2885 -20.2882
    -9.7171  -9.5906  -9.5051  -9.3947  -9.1409  -8.9904  -8.9319  -8.9104
    -8.7942  -8.6828  -8.6320  -8.5995  -8.2673  -8.2309  -8.2162  -8.1173
    -8.1082  -8.0998  -8.0766  -8.0191  -7.7469  -7.7331  -7.6783  -7.6650
     1.2249   1.2317   1.2412   1.2484   2.1256   2.1789   2.2526   2.3835
     2.4130   2.5190   2.5471   2.6929   2.7402   2.7515   2.8829   2.9588
     3.2073   3.2896   3.5898   3.6259   3.7072   3.7359   3.7769   3.7872
     4.1201   4.2988   4.3938   4.4138   4.4949   4.5584   4.6008   4.7431
     4.7715   4.8500   4.9915   5.0959   5.1110   5.1888   5.2124   5.3463
     5.3753   5.5484   5.6850   5.8341   6.1287   6.1663   6.1853   6.2364
     6.3975   6.5521   6.5913   6.6128   6.6611   6.7809   6.7819   6.7957
     6.8850   6.9518   7.0244   7.0533   7.0748   7.1307   7.1644   7.1900
     7.2760   7.3299   7.7357   7.7477   7.7601   7.7679   7.8486   7.8634
    10.3339  10.3514  10.6197  10.6434  11.2584  11.2948  11.7542  11.8313
    11.8578  11.9226  12.1580  12.2081  12.5603  12.6170  12.6392  12.6841
    12.9094  13.1419  13.1704  13.3675  13.4527  13.4778  13.8263  13.8414
    15.1051  15.1948  15.5890  15.8594  15.9101  15.9506  16.0417  16.6941
    16.7001  16.8088  17.0957  17.5325  17.6849

          k = 0.0000 0.3150-0.5000 ( 62306 PWs)   bands (ev):

   -66.1708 -66.1708 -66.1706 -66.1706 -66.1698 -66.1698 -66.1696 -66.1696
   -30.5359 -30.5359 -30.5294 -30.5294 -30.5281 -30.5281 -30.5261 -30.5261
   -30.5036 -30.5036 -30.5020 -30.5020 -30.4800 -30.4800 -30.4776 -30.4776
   -30.4756 -30.4756 -30.4728 -30.4728 -30.4278 -30.4278 -30.4245 -30.4245
   -20.3295 -20.3295 -20.3294 -20.3293 -20.3293 -20.3293 -20.3292 -20.3292
   -20.3088 -20.3088 -20.3085 -20.3085 -20.3063 -20.3063 -20.3059 -20.3059
   -20.3059 -20.3059 -20.3053 -20.3053 -20.3051 -20.3051 -20.3050 -20.3050
   -20.3047 -20.3047 -20.3045 -20.3045 -20.3041 -20.3041 -20.3035 -20.3035
   -20.2975 -20.2975 -20.2972 -20.2972 -20.2955 -20.2955 -20.2954 -20.2954
   -20.2951 -20.2951 -20.2950 -20.2950 -20.2925 -20.2925 -20.2921 -20.2921
   -20.2918 -20.2918 -20.2915 -20.2915 -20.2888 -20.2888 -20.2884 -20.2884
    -9.5920  -9.5920  -9.4722  -9.4722  -8.9038  -8.9038  -8.7486  -8.7486
    -8.6250  -8.6250  -8.6089  -8.6088  -8.5248  -8.5248  -8.4400  -8.4400
    -8.1140  -8.1140  -8.0744  -8.0744  -7.7123  -7.7123  -7.6988  -7.6988
     1.2401   1.2401   1.2475   1.2475   2.3981   2.3981   2.5298   2.5298
     2.8985   2.8985   3.0021   3.0021   3.0410   3.0410   3.2134   3.2134
     3.2593   3.2593   3.2974   3.2974   3.3595   3.3595   3.6180   3.6180
     4.0492   4.0492   4.0927   4.0927   4.1179   4.1179   4.3568   4.3568
     4.8193   4.8193   4.9379   4.9379   5.1589   5.1589   5.2327   5.2327
     5.3704   5.3704   5.7579   5.7579   6.2589   6.2589   6.3045   6.3045
     6.4284   6.4284   6.4784   6.4784   6.5099   6.5099   6.7433   6.7433
     7.0495   7.0495   7.0641   7.0641   7.1033   7.1033   7.5005   7.5005
     7.5078   7.5078   7.5709   7.5709   7.5945   7.5945   7.8563   7.8563
    10.6239  10.6239  11.1409  11.1409  11.1798  11.1798  11.6813  11.6813
    11.9860  11.9860  12.1149  12.1149  12.5618  12.5618  12.6271  12.6271
    12.8516  12.8516  12.9683  12.9683  13.4474  13.4474  13.8336  13.8336
    15.1589  15.1589  15.7388  15.7388  16.2819  16.2819  16.4377  16.4377
    16.9135  16.9135  17.2910  17.2910  17.9890

          k = 0.0000-0.4725 0.0000 ( 62212 PWs)   bands (ev):

   -66.1713 -66.1712 -66.1702 -66.1702 -66.1701 -66.1701 -66.1692 -66.1691
   -30.5357 -30.5351 -30.5302 -30.5302 -30.5298 -30.5296 -30.5248 -30.5247
   -30.5160 -30.5159 -30.5151 -30.5145 -30.5132 -30.5126 -30.5121 -30.5120
   -30.4308 -30.4300 -30.4276 -30.4269 -30.4264 -30.4257 -30.4228 -30.4224
   -20.3295 -20.3294 -20.3294 -20.3294 -20.3293 -20.3293 -20.3293 -20.3292
   -20.3077 -20.3076 -20.3074 -20.3073 -20.3072 -20.3072 -20.3070 -20.3069
   -20.3062 -20.3060 -20.3057 -20.3056 -20.3054 -20.3053 -20.3053 -20.3050
   -20.3045 -20.3045 -20.3044 -20.3044 -20.3039 -20.3037 -20.3037 -20.3035
   -20.2977 -20.2975 -20.2974 -20.2974 -20.2972 -20.2971 -20.2971 -20.2970
   -20.2945 -20.2945 -20.2943 -20.2943 -20.2941 -20.2940 -20.2940 -20.2940
   -20.2892 -20.2891 -20.2887 -20.2886 -20.2886 -20.2885 -20.2880 -20.2880
    -9.8243  -9.8243  -9.3858  -9.3826  -9.3777  -9.3746  -9.1058  -9.1058
    -8.4561  -8.4561  -8.4101  -8.4098  -8.4096  -8.4093  -8.4039  -8.4039
    -7.7806  -7.7791  -7.7732  -7.7717  -7.6432  -7.6419  -7.6362  -7.6348
     1.0883   1.0884   1.2022   1.2068   1.2078   1.2123   1.5430   1.5431
     2.3680   2.3680   3.1599   3.1621   3.1877   3.1904   3.2646   3.2681
     3.2798   3.2803   3.2865   3.2906   3.4842   3.4878   3.5030   3.5060
     3.6934   3.6934   4.7678   4.7687   4.7699   4.7708   5.2371   5.2402
     5.2414   5.2444   5.3632   5.3638   5.3661   5.3666   5.7482   5.7491
     5.7499   5.7508   5.9839   5.9854   5.9985   5.9997   6.1525   6.1563
     6.1610   6.1656   6.2422   6.2427   6.6910   6.6924   6.7021   6.7035
     6.9177   6.9177   7.3405   7.3436   7.3511   7.3540   7.4805   7.4806
     7.4867   7.4868   7.5413   7.5416   7.5445   7.5449   7.8431   7.8431
     9.2126   9.2127  11.1952  11.1997  11.2029  11.2075  11.2783  11.2817
    11.2882  11.2918  12.3540  12.3561  12.3671  12.3692  12.9916  12.9916
    13.5693  13.5726  13.5813  13.5844  13.6225  13.6238  13.6275  13.6289
    15.4290  15.4353  15.4385  15.4448  15.6941  15.6961  15.7037  15.7056
    16.4990  16.4990  17.9707  18.0923  18.0934

          k = 0.0000-0.4725 0.1667 ( 62246 PWs)   bands (ev):

   -66.1712 -66.1711 -66.1703 -66.1702 -66.1702 -66.1701 -66.1693 -66.1692
   -30.5347 -30.5314 -30.5301 -30.5284 -30.5256 -30.5251 -30.5247 -30.5206
   -30.5149 -30.5139 -30.5136 -30.5130 -30.5130 -30.5125 -30.5123 -30.5112
   -30.4376 -30.4344 -30.4331 -30.4299 -30.4297 -30.4266 -30.4256 -30.4227
   -20.3295 -20.3294 -20.3294 -20.3294 -20.3293 -20.3293 -20.3293 -20.3292
   -20.3077 -20.3076 -20.3074 -20.3073 -20.3073 -20.3072 -20.3070 -20.3069
   -20.3061 -20.3059 -20.3057 -20.3055 -20.3053 -20.3052 -20.3052 -20.3050
   -20.3046 -20.3045 -20.3045 -20.3044 -20.3040 -20.3037 -20.3037 -20.3035
   -20.2976 -20.2974 -20.2972 -20.2972 -20.2971 -20.2971 -20.2967 -20.2967
   -20.2944 -20.2943 -20.2942 -20.2942 -20.2941 -20.2941 -20.2941 -20.2938
   -20.2897 -20.2891 -20.2891 -20.2890 -20.2887 -20.2886 -20.2884 -20.2881
    -9.7711  -9.7702  -9.3975  -9.3895  -9.2968  -9.2889  -9.0640  -9.0632
    -8.4615  -8.4615  -8.4170  -8.4165  -8.4053  -8.4047  -8.4040  -8.4038
    -7.9066  -7.8994  -7.7776  -7.7743  -7.7657  -7.7622  -7.6508  -7.6437
     1.1816   1.1853   1.2122   1.2178   1.4664   1.4720   1.7141   1.7174
     2.4582   2.4583   3.1661   3.1802   3.1946   3.2090   3.2619   3.2780
     3.2783   3.2836   3.3116   3.3307   3.4832   3.5021   3.5343   3.5489
     3.7182   3.7187   4.3781   4.3786   4.8187   4.8231   4.9818   4.9894
     5.1524   5.1533   5.2177   5.2198   5.3742   5.3763   5.4791   5.4819
     5.7206   5.7209   5.7594   5.7613   6.0865   6.1029   6.1146   6.1151
     6.3697   6.3721   6.3872   6.4040   6.6818   6.6930   6.8860   6.8966
     6.9844   6.9867   7.0989   7.1047   7.1600   7.1723   7.4668   7.4725
     7.4883   7.4930   7.5145   7.5193   7.5304   7.5344   7.8437   7.8438
     9.5873   9.5899  11.2045  11.2120  11.2760  11.2826  11.3281  11.3329
    11.4030  11.4116  12.2486  12.2603  12.4081  12.4204  13.0147  13.0148
    13.3896  13.3927  13.4864  13.4927  13.5860  13.5933  13.6190  13.6209
    15.4211  15.4296  15.6486  15.6553  15.6783  15.6890  15.9767  15.9845
    16.5635  16.5641  17.8922  17.8969  18.0517

          k = 0.0000-0.4725 0.3333 ( 62268 PWs)   bands (ev):

   -66.1710 -66.1709 -66.1705 -66.1704 -66.1700 -66.1699 -66.1695 -66.1694
   -30.5338 -30.5311 -30.5289 -30.5261 -30.5210 -30.5191 -30.5176 -30.5171
   -30.5161 -30.5140 -30.5137 -30.5135 -30.5029 -30.5017 -30.4992 -30.4974
   -30.4559 -30.4529 -30.4513 -30.4482 -30.4288 -30.4265 -30.4258 -30.4235
   -20.3295 -20.3294 -20.3294 -20.3294 -20.3293 -20.3293 -20.3293 -20.3292
   -20.3077 -20.3075 -20.3074 -20.3074 -20.3074 -20.3072 -20.3071 -20.3070
   -20.3060 -20.3057 -20.3057 -20.3053 -20.3051 -20.3051 -20.3051 -20.3049
   -20.3048 -20.3047 -20.3046 -20.3043 -20.3042 -20.3039 -20.3036 -20.3035
   -20.2976 -20.2974 -20.2973 -20.2972 -20.2963 -20.2963 -20.2959 -20.2958
   -20.2948 -20.2947 -20.2945 -20.2944 -20.2937 -20.2934 -20.2932 -20.2930
   -20.2909 -20.2904 -20.2903 -20.2898 -20.2890 -20.2886 -20.2886 -20.2882
    -9.6465  -9.6429  -9.4431  -9.4356  -9.0474  -9.0399  -8.9201  -8.9171
    -8.5024  -8.5015  -8.4526  -8.4525  -8.4002  -8.4002  -8.3857  -8.3850
    -8.2002  -8.1939  -8.0934  -8.0871  -7.7436  -7.7366  -7.6753  -7.6682
     1.2261   1.2322   1.2426   1.2489   2.1676   2.1727   2.3631   2.3678
     2.7209   2.7210   3.1707   3.2021   3.2100   3.2426   3.2451   3.2636
     3.2709   3.2749   3.3968   3.4129   3.4675   3.4871   3.6838   3.6881
     3.7606   3.7632   3.7682   3.7701   4.4727   4.4727   4.6276   4.6312
     4.7763   4.7879   4.8239   4.8345   5.1491   5.1559   5.2636   5.2642
     5.4111   5.4143   5.6407   5.6427   6.1676   6.1686   6.2233   6.2429
     6.5020   6.5056   6.6115   6.6402   6.6592   6.6645   6.7994   6.8126
     6.9707   6.9784   7.1795   7.1864   7.1878   7.1919   7.4408   7.4485
     7.4734   7.4791   7.5064   7.5094   7.5131   7.5140   7.7753   7.7756
    10.3449  10.3501  11.2187  11.2258  11.2584  11.2657  11.7103  11.7150
    11.7574  11.7648  11.8472  11.8562  12.5779  12.5881  12.7766  12.7778
    12.9098  12.9129  13.2182  13.2242  13.5915  13.5917  13.6129  13.6157
    15.4536  15.4635  15.6260  15.6359  16.2646  16.2719  16.7008  16.7059
    16.7929  16.7955  17.3741  17.3752  17.8898

          k = 0.0000-0.4725-0.5000 ( 62284 PWs)   bands (ev):

   -66.1708 -66.1708 -66.1707 -66.1706 -66.1697 -66.1697 -66.1696 -66.1696
   -30.5324 -30.5324 -30.5275 -30.5275 -30.5178 -30.5178 -30.5159 -30.5159
   -30.5153 -30.5153 -30.5150 -30.5150 -30.4804 -30.4804 -30.4778 -30.4778
   -30.4759 -30.4759 -30.4730 -30.4730 -30.4277 -30.4277 -30.4247 -30.4247
   -20.3295 -20.3295 -20.3294 -20.3293 -20.3293 -20.3293 -20.3292 -20.3292
   -20.3076 -20.3076 -20.3075 -20.3075 -20.3073 -20.3073 -20.3071 -20.3071
   -20.3058 -20.3058 -20.3054 -20.3054 -20.3050 -20.3050 -20.3050 -20.3050
   -20.3048 -20.3048 -20.3046 -20.3046 -20.3041 -20.3041 -20.3036 -20.3036
   -20.2975 -20.2975 -20.2973 -20.2973 -20.2955 -20.2955 -20.2954 -20.2954
   -20.2951 -20.2951 -20.2950 -20.2950 -20.2925 -20.2925 -20.2921 -20.2921
   -20.2918 -20.2918 -20.2915 -20.2915 -20.2888 -20.2888 -20.2884 -20.2884
    -9.5249  -9.5249  -9.5186  -9.5186  -8.7109  -8.7109  -8.7039  -8.7039
    -8.6583  -8.6583  -8.6535  -8.6535  -8.3760  -8.3760  -8.3698  -8.3698
    -8.3277  -8.3277  -8.3210  -8.3210  -7.7092  -7.7092  -7.7021  -7.7021
     1.2416   1.2416   1.2480   1.2480   2.9704   2.9704   2.9849   2.9849
     3.1197   3.1197   3.1259   3.1260   3.1934   3.1934   3.2198   3.2198
     3.2506   3.2506   3.2760   3.2760   3.4166   3.4166   3.4365   3.4365
     3.5866   3.5866   3.6365   3.6365   4.2964   4.2964   4.3068   4.3068
     4.4046   4.4046   4.4216   4.4216   5.2044   5.2044   5.2095   5.2095
     5.5028   5.5028   5.5098   5.5098   6.2984   6.2984   6.3001   6.3001
     6.4735   6.4735   6.4823   6.4823   6.6059   6.6059   6.6177   6.6177
     7.2912   7.2912   7.2986   7.2986   7.3615   7.3615   7.3964   7.3964
     7.4510   7.4510   7.4727   7.4727   7.5848   7.5848   7.5886   7.5886
    11.1300  11.1300  11.1363  11.1363  11.2669  11.2669  11.2711  11.2711
    12.2580  12.2580  12.2740  12.2740  12.2865  12.2865  12.3004  12.3004
    12.8798  12.8798  12.8872  12.8872  13.6001  13.6001  13.6046  13.6046
    15.5419  15.5419  15.5522  15.5522  16.8717  16.8717  16.8821  16.8821
    17.3652  17.3652  17.3741  17.3741  17.4866

          k = 0.1667 0.0000 0.1667 ( 62234 PWs)   bands (ev):

   -66.1713 -66.1709 -66.1704 -66.1704 -66.1700 -66.1700 -66.1695 -66.1691
   -30.5494 -30.5456 -30.5454 -30.5415 -30.5275 -30.5262 -30.5233 -30.5223
   -30.5213 -30.5204 -30.5175 -30.5165 -30.4864 -30.4855 -30.4852 -30.4842
   -30.4377 -30.4369 -30.4342 -30.4339 -30.4329 -30.4321 -30.4298 -30.4287
   -20.3295 -20.3294 -20.3294 -20.3294 -20.3293 -20.3293 -20.3293 -20.3292
   -20.3102 -20.3099 -20.3099 -20.3097 -20.3062 -20.3060 -20.3058 -20.3058
   -20.3056 -20.3054 -20.3053 -20.3050 -20.3049 -20.3048 -20.3048 -20.3047
   -20.3045 -20.3044 -20.3042 -20.3042 -20.3037 -20.3035 -20.3035 -20.3032
   -20.2975 -20.2974 -20.2971 -20.2971 -20.2969 -20.2967 -20.2965 -20.2963
   -20.2944 -20.2944 -20.2942 -20.2942 -20.2941 -20.2939 -20.2939 -20.2938
   -20.2898 -20.2896 -20.2892 -20.2891 -20.2890 -20.2889 -20.2885 -20.2884
    -9.8794  -9.6141  -9.4844  -9.4826  -9.2346  -9.2312  -9.0500  -9.0323
    -9.0186  -8.8433  -8.8315  -8.8304  -7.9122  -7.9057  -7.8894  -7.8853
    -7.8362  -7.8151  -7.7779  -7.7715  -7.7558  -7.7497  -7.7467  -7.7091
     1.3560   1.3573   1.4184   1.4210   1.4402   1.4773   1.4817   1.6403
     1.6880   1.6902   1.8204   2.0008   2.5108   2.5929   2.6699   2.6739
     2.7845   2.8121   4.0779   4.0911   4.2694   4.2707   4.4418   4.4440
     4.4648   4.4667   4.6753   4.6860   4.7220   4.8098   5.0191   5.2239
     5.2624   5.2990   5.3470   5.5012   5.5061   5.6084   5.6101   5.7062
     5.7083   5.7416   5.7424   5.8018   5.8638   6.0162   6.3120   6.4133
     6.4356   6.4754   6.5075   6.6432   6.6662   6.6974   6.7262   6.7441
     6.7457   6.8203   6.8218   6.8461   6.8895   6.9780   6.9809   7.0835
     7.2475   7.3038   7.8333   7.8340   8.0493   8.0896   8.1118   8.1181
     9.8057   9.8658  10.1875  10.1958  10.2044  10.2895  12.2675  12.2740
    12.2928  12.2997  12.3186  12.3527  12.5591  12.5663  12.9738  12.9832
    13.0336  13.1330  13.1750  13.3648  13.9398  13.9755  14.0040  14.0526
    14.1001  14.4615  14.4705  15.1387  15.3778  15.5721  15.5858  16.4020
    16.4034  17.0156  17.0174  17.2103  17.5949

          k = 0.1667 0.0000 0.3333 ( 62265 PWs)   bands (ev):

   -66.1711 -66.1707 -66.1706 -66.1702 -66.1702 -66.1698 -66.1697 -66.1693
   -30.5488 -30.5465 -30.5449 -30.5425 -30.5252 -30.5229 -30.5202 -30.5180
   -30.5102 -30.5062 -30.5028 -30.4987 -30.4867 -30.4858 -30.4841 -30.4835
   -30.4555 -30.4522 -30.4516 -30.4480 -30.4360 -30.4337 -30.4320 -30.4297
   -20.3295 -20.3294 -20.3294 -20.3293 -20.3293 -20.3293 -20.3293 -20.3292
   -20.3102 -20.3100 -20.3099 -20.3098 -20.3061 -20.3058 -20.3058 -20.3056
   -20.3054 -20.3053 -20.3052 -20.3050 -20.3050 -20.3049 -20.3048 -20.3047
   -20.3047 -20.3045 -20.3041 -20.3041 -20.3038 -20.3037 -20.3034 -20.3033
   -20.2974 -20.2973 -20.2969 -20.2968 -20.2963 -20.2961 -20.2958 -20.2955
   -20.2948 -20.2946 -20.2945 -20.2943 -20.2938 -20.2934 -20.2931 -20.2930
   -20.2910 -20.2905 -20.2902 -20.2898 -20.2895 -20.2892 -20.2889 -20.2886
    -9.7547  -9.5337  -9.4752  -9.3147  -9.2726  -9.0826  -8.9735  -8.9261
    -8.8811  -8.8428  -8.7921  -8.7342  -8.2224  -8.2147  -8.1512  -8.1274
    -7.8812  -7.8630  -7.8150  -7.8062  -7.7758  -7.7603  -7.7435  -7.7184
     1.4191   1.4199   1.4964   1.5053   1.5831   1.6212   1.6235   1.6839
     2.1901   2.2321   2.3727   2.4598   2.6944   2.7653   2.7973   2.8775
     2.9126   3.0372   3.7471   3.8515   3.8604   3.9206   4.1666   4.2377
     4.2603   4.4496   4.5060   4.5653   4.6262   4.6666   4.7157   4.8673
     4.9632   5.0110   5.0559   5.1699   5.2525   5.3645   5.5635   5.6435
     5.7345   5.7428   5.7990   5.8692   5.8725   6.0149   6.1166   6.1489
     6.4171   6.4577   6.5295   6.5656   6.5949   6.6410   6.7018   6.7139
     6.7818   6.8554   6.8633   6.8734   7.0959   7.1145   7.1296   7.1891
     7.3145   7.3703   7.7618   7.7752   7.9390   7.9776   8.1041   8.1155
    10.1862  10.1972  10.4621  10.5164  10.8371  10.9411  11.8803  11.9189
    12.1341  12.4241  12.4462  12.4975  12.5386  12.5623  12.7329  12.8165
    12.9324  13.0315  13.0813  13.2730  13.6424  13.6609  13.9812  14.0072
    14.2616  14.4439  14.7709  15.2726  15.4534  15.8550  16.0288  16.3082
    16.4447  17.2756  17.4786  17.5612  17.6566

          k = 0.1667 0.0000-0.5000 ( 62322 PWs)   bands (ev):

   -66.1708 -66.1708 -66.1704 -66.1704 -66.1700 -66.1700 -66.1696 -66.1696
   -30.5477 -30.5477 -30.5438 -30.5438 -30.5240 -30.5240 -30.5192 -30.5192
   -30.4919 -30.4919 -30.4905 -30.4905 -30.4781 -30.4781 -30.4762 -30.4762
   -30.4739 -30.4739 -30.4722 -30.4722 -30.4348 -30.4348 -30.4308 -30.4308
   -20.3295 -20.3295 -20.3294 -20.3294 -20.3293 -20.3293 -20.3292 -20.3292
   -20.3101 -20.3101 -20.3099 -20.3099 -20.3059 -20.3059 -20.3055 -20.3055
   -20.3053 -20.3053 -20.3052 -20.3052 -20.3050 -20.3050 -20.3049 -20.3049
   -20.3047 -20.3047 -20.3040 -20.3040 -20.3039 -20.3039 -20.3034 -20.3034
   -20.2973 -20.2973 -20.2968 -20.2968 -20.2954 -20.2954 -20.2953 -20.2953
   -20.2951 -20.2951 -20.2948 -20.2948 -20.2925 -20.2925 -20.2921 -20.2921
   -20.2918 -20.2918 -20.2915 -20.2915 -20.2894 -20.2894 -20.2888 -20.2888
    -9.6252  -9.6252  -9.3496  -9.3496  -9.1603  -9.1603  -8.8651  -8.8651
    -8.6051  -8.6051  -8.5985  -8.5985  -8.5487  -8.5487  -8.4869  -8.4868
    -7.8482  -7.8482  -7.8309  -7.8309  -7.7722  -7.7722  -7.7310  -7.7310
     1.4196   1.4196   1.5128   1.5128   1.6061   1.6061   1.6741   1.6741
     2.7192   2.7192   2.9604   2.9604   3.0443   3.0443   3.1623   3.1623
     3.2352   3.2352   3.3505   3.3505   3.4551   3.4551   3.7618   3.7618
     3.8651   3.8651   4.3617   4.3617   4.5634   4.5634   4.8401   4.8401
     4.9780   4.9780   4.9970   4.9970   5.2114   5.2114   5.6550   5.6550
     5.7561   5.7561   5.8226   5.8226   5.8710   5.8710   6.0109   6.0109
     6.3547   6.3547   6.4731   6.4731   6.6911   6.6911   6.7222   6.7222
     6.7872   6.7872   6.9429   6.9429   6.9960   6.9960   7.5157   7.5157
     7.5515   7.5515   7.7004   7.7004   7.7227   7.7227   8.1147   8.1147
    10.2013  10.2014  11.2024  11.2025  11.2660  11.2660  11.5694  11.5694
    11.7490  11.7490  12.5867  12.5867  12.6714  12.6714  12.7112  12.7112
    12.9102  12.9102  13.2140  13.2140  13.3260  13.3260  13.9917  13.9917
    14.3860  14.3860  15.0744  15.0744  15.8963  15.8963  16.1338  16.1338
    16.8151  16.8151  17.8858  17.8859  17.9264

          k = 0.1667 0.1575 0.1667 ( 62255 PWs)   bands (ev):

   -66.1713 -66.1709 -66.1704 -66.1704 -66.1700 -66.1700 -66.1695 -66.1691
   -30.5459 -30.5420 -30.5418 -30.5377 -30.5274 -30.5260 -30.5233 -30.5222
   -30.5213 -30.5202 -30.5177 -30.5165 -30.4902 -30.4893 -30.4890 -30.4880
   -30.4376 -30.4368 -30.4342 -30.4340 -30.4329 -30.4322 -30.4299 -30.4288
   -20.3295 -20.3294 -20.3294 -20.3294 -20.3293 -20.3293 -20.3293 -20.3292
   -20.3099 -20.3096 -20.3096 -20.3093 -20.3062 -20.3060 -20.3058 -20.3057
   -20.3056 -20.3055 -20.3054 -20.3052 -20.3049 -20.3048 -20.3048 -20.3047
   -20.3046 -20.3045 -20.3044 -20.3044 -20.3037 -20.3036 -20.3036 -20.3033
   -20.2975 -20.2974 -20.2972 -20.2971 -20.2969 -20.2967 -20.2965 -20.2963
   -20.2944 -20.2944 -20.2942 -20.2942 -20.2941 -20.2939 -20.2939 -20.2938
   -20.2898 -20.2896 -20.2892 -20.2891 -20.2890 -20.2889 -20.2885 -20.2884
    -9.8519  -9.6247  -9.4511  -9.4492  -9.2416  -9.2382  -9.0314  -9.0202
    -8.9758  -8.7959  -8.7901  -8.7892  -7.9281  -7.9059  -7.9029  -7.9006
    -7.8943  -7.8427  -7.8420  -7.8368  -7.8103  -7.7734  -7.7679  -7.7521
     1.3562   1.3571   1.4509   1.4542   1.4773   1.4813   1.6024   1.8194
     1.8388   1.8938   1.8951   2.1158   2.5170   2.5877   2.7426   2.7467
     2.8557   2.8769   3.9732   4.0011   4.0814   4.0849   4.4107   4.4134
     4.4677   4.4698   4.6888   4.6983   4.7344   4.7833   4.8191   5.1812
     5.1994   5.2533   5.2605   5.3271   5.3360   5.5697   5.5707   5.6518
     5.7213   5.7262   5.8144   5.8244   5.8252   5.9113   6.3239   6.3447
     6.3670   6.4632   6.4964   6.6331   6.6486   6.7088   6.7611   6.7903
     6.7955   6.8362   6.8570   6.8622   6.9428   6.9602   6.9662   7.0903
     7.2513   7.3029   7.8340   7.8346   7.9962   8.0361   8.0384   8.0427
     9.8214   9.8639  10.3418  10.3652  10.3713  10.4287  12.1910  12.2302
    12.2757  12.2798  12.2868  12.2943  12.4264  12.4316  12.9798  13.0005
    13.0687  13.1427  13.1845  13.3714  13.8838  13.8937  13.9057  13.9693
    14.3972  14.7691  14.7720  15.2644  15.5730  15.5848  15.7856  16.3666
    16.3678  16.8714  17.1158  17.1169  17.6339

          k = 0.1667 0.1575 0.3333 ( 62260 PWs)   bands (ev):

   -66.1711 -66.1707 -66.1706 -66.1702 -66.1702 -66.1698 -66.1697 -66.1693
   -30.5452 -30.5429 -30.5412 -30.5387 -30.5251 -30.5229 -30.5201 -30.5181
   -30.5103 -30.5066 -30.5028 -30.4989 -30.4904 -30.4895 -30.4874 -30.4869
   -30.4556 -30.4523 -30.4517 -30.4481 -30.4359 -30.4336 -30.4321 -30.4298
   -20.3295 -20.3294 -20.3294 -20.3293 -20.3293 -20.3293 -20.3293 -20.3292
   -20.3099 -20.3097 -20.3096 -20.3094 -20.3060 -20.3058 -20.3058 -20.3056
   -20.3055 -20.3054 -20.3053 -20.3051 -20.3051 -20.3050 -20.3049 -20.3048
   -20.3047 -20.3046 -20.3043 -20.3042 -20.3039 -20.3038 -20.3035 -20.3034
   -20.2974 -20.2972 -20.2969 -20.2968 -20.2963 -20.2961 -20.2958 -20.2956
   -20.2947 -20.2946 -20.2945 -20.2943 -20.2938 -20.2934 -20.2931 -20.2930
   -20.2910 -20.2905 -20.2902 -20.2898 -20.2895 -20.2892 -20.2889 -20.2886
    -9.7242  -9.5004  -9.4855  -9.2805  -9.2672  -9.0103  -8.9807  -8.9169
    -8.8822  -8.8023  -8.7558  -8.7068  -8.2260  -8.2142  -8.1627  -8.1252
    -7.8941  -7.8855  -7.8721  -7.8533  -7.8288  -7.8266  -7.8079  -7.7822
     1.4639   1.4764   1.4964   1.5054   1.7753   1.7886   1.8601   1.8890
     2.1891   2.2490   2.3732   2.4810   2.7658   2.7889   2.8464   2.8786
     2.9861   3.0976   3.7437   3.8436   3.8493   3.8829   4.0694   4.1408
     4.2375   4.3366   4.5148   4.5691   4.6259   4.6686   4.6964   4.7518
     4.8650   4.8819   4.9142   5.1380   5.1706   5.2035   5.3194   5.6098
     5.6327   5.6781   5.7405   5.8042   5.8637   5.8820   6.1026   6.1461
     6.3537   6.5171   6.5233   6.6442   6.7036   6.7065   6.7332   6.7518
     6.8335   6.8635   6.9011   6.9397   7.0878   7.1097   7.1237   7.1984
     7.3066   7.3650   7.7634   7.7727   7.8934   7.9194   8.0381   8.0428
    10.3217  10.3635  10.4832  10.5293  10.9518  11.0315  11.8809  11.9158
    12.1017  12.4008  12.4112  12.4450  12.4595  12.5465  12.6714  12.7013
    12.9360  13.0503  13.0669  13.2783  13.5381  13.5658  13.8966  13.9230
    14.5954  14.7509  15.1257  15.5392  15.6975  15.8496  16.0407  16.2764
    16.5460  17.2339  17.2686  17.5327  17.6043

          k = 0.1667 0.1575-0.5000 ( 62292 PWs)   bands (ev):

   -66.1708 -66.1708 -66.1705 -66.1705 -66.1699 -66.1699 -66.1696 -66.1696
   -30.5441 -30.5441 -30.5400 -30.5400 -30.5239 -30.5239 -30.5192 -30.5192
   -30.4944 -30.4944 -30.4934 -30.4934 -30.4786 -30.4786 -30.4768 -30.4768
   -30.4748 -30.4747 -30.4726 -30.4726 -30.4347 -30.4347 -30.4310 -30.4310
   -20.3295 -20.3295 -20.3294 -20.3294 -20.3293 -20.3293 -20.3292 -20.3292
   -20.3098 -20.3098 -20.3095 -20.3095 -20.3059 -20.3059 -20.3056 -20.3056
   -20.3053 -20.3053 -20.3052 -20.3052 -20.3051 -20.3051 -20.3049 -20.3049
   -20.3047 -20.3047 -20.3041 -20.3041 -20.3040 -20.3040 -20.3035 -20.3035
   -20.2973 -20.2973 -20.2968 -20.2968 -20.2954 -20.2954 -20.2953 -20.2953
   -20.2951 -20.2951 -20.2948 -20.2948 -20.2925 -20.2925 -20.2921 -20.2921
   -20.2918 -20.2918 -20.2915 -20.2915 -20.2893 -20.2893 -20.2888 -20.2888
    -9.5925  -9.5925  -9.3585  -9.3585  -9.0945  -9.0945  -8.8296  -8.8296
    -8.6078  -8.6077  -8.6014  -8.6014  -8.5457  -8.5457  -8.4786  -8.4786
    -7.8835  -7.8835  -7.8476  -7.8476  -7.8388  -7.8388  -7.8076  -7.8076
     1.4758   1.4758   1.5128   1.5128   1.8050   1.8050   1.8851   1.8851
     2.7858   2.7858   2.9771   2.9771   3.0519   3.0519   3.1808   3.1808
     3.2395   3.2395   3.3578   3.3578   3.4471   3.4471   3.7701   3.7701
     3.9163   3.9163   4.2139   4.2139   4.5696   4.5696   4.6475   4.6475
     4.9008   4.9008   4.9610   4.9610   5.0563   5.0563   5.4434   5.4434
     5.7094   5.7094   5.7421   5.7421   5.8525   5.8525   5.8903   5.8903
     6.4715   6.4715   6.6234   6.6234   6.6587   6.6587   6.7660   6.7660
     6.8817   6.8817   6.9028   6.9028   7.0290   7.0290   7.5173   7.5173
     7.5461   7.5461   7.6717   7.6717   7.6915   7.6915   8.0436   8.0436
    10.3640  10.3640  11.2080  11.2080  11.2652  11.2652  11.6359  11.6359
    11.8098  11.8098  12.4504  12.4504  12.6530  12.6530  12.7023  12.7023
    12.8881  12.8881  13.1118  13.1118  13.2734  13.2734  13.9055  13.9055
    14.7042  14.7042  15.4554  15.4554  16.0069  16.0069  16.1125  16.1125
    16.8472  16.8472  17.6934  17.6934  17.9492

          k = 0.1667 0.3150 0.1667 ( 62249 PWs)   bands (ev):

   -66.1712 -66.1710 -66.1703 -66.1703 -66.1701 -66.1701 -66.1694 -66.1692
   -30.5371 -30.5329 -30.5326 -30.5274 -30.5273 -30.5251 -30.5234 -30.5219
   -30.5206 -30.5190 -30.5179 -30.5161 -30.5002 -30.4996 -30.4992 -30.4985
   -30.4374 -30.4365 -30.4343 -30.4340 -30.4329 -30.4323 -30.4299 -30.4292
   -20.3295 -20.3294 -20.3294 -20.3294 -20.3293 -20.3293 -20.3293 -20.3292
   -20.3089 -20.3086 -20.3086 -20.3083 -20.3065 -20.3062 -20.3061 -20.3061
   -20.3058 -20.3057 -20.3056 -20.3056 -20.3053 -20.3051 -20.3049 -20.3048
   -20.3047 -20.3046 -20.3045 -20.3045 -20.3039 -20.3038 -20.3037 -20.3035
   -20.2975 -20.2973 -20.2972 -20.2970 -20.2969 -20.2968 -20.2966 -20.2964
   -20.2944 -20.2943 -20.2942 -20.2942 -20.2940 -20.2939 -20.2939 -20.2939
   -20.2897 -20.2896 -20.2892 -20.2891 -20.2890 -20.2889 -20.2886 -20.2884
    -9.7853  -9.6573  -9.3768  -9.3744  -9.2642  -9.2609  -9.0290  -9.0224
    -8.7684  -8.6527  -8.6523  -8.6491  -8.1567  -8.1158  -8.1154  -8.0955
    -7.9014  -7.8991  -7.8852  -7.8826  -7.8077  -7.7931  -7.7664  -7.7561
     1.3563   1.3568   1.4690   1.4728   1.4776   1.4816   1.7681   1.8161
     2.4032   2.5192   2.5215   2.5333   2.5655   2.6814   2.9638   2.9698
     3.0679   3.0790   3.6544   3.6593   3.6720   3.7207   4.1381   4.4099
     4.4112   4.4294   4.4311   4.5309   4.5349   4.7589   4.7626   4.8606
     4.9045   4.9083   5.1052   5.1356   5.3349   5.3761   5.4266   5.4291
     5.6509   5.6737   5.7295   5.7309   5.8146   5.8164   6.3535   6.3673
     6.4151   6.4545   6.4785   6.6130   6.6784   6.7042   6.8418   6.8444
     6.9078   6.9093   6.9938   6.9983   7.0918   7.1093   7.1148   7.1328
     7.2786   7.3109   7.8090   7.8120   7.8201   7.8299   7.8388   7.8664
     9.8419   9.8597  10.7565  10.8054  10.8169  10.8328  11.8395  11.8858
    11.9649  11.9700  12.2924  12.2937  12.3261  12.3269  12.9907  13.0359
    13.1894  13.2123  13.2521  13.4175  13.6542  13.6613  13.6722  13.7635
    15.1180  15.4248  15.4295  15.5777  15.5820  15.7576  16.2416  16.2431
    16.3129  16.7841  17.3546  17.4472  17.4499

          k = 0.1667 0.3150 0.3333 ( 62265 PWs)   bands (ev):

   -66.1710 -66.1708 -66.1705 -66.1703 -66.1701 -66.1699 -66.1696 -66.1694
   -30.5360 -30.5336 -30.5312 -30.5283 -30.5245 -30.5232 -30.5192 -30.5181
   -30.5116 -30.5088 -30.5028 -30.5004 -30.4998 -30.4994 -30.4954 -30.4945
   -30.4556 -30.4525 -30.4517 -30.4484 -30.4357 -30.4334 -30.4324 -30.4301
   -20.3295 -20.3294 -20.3294 -20.3294 -20.3293 -20.3293 -20.3293 -20.3292
   -20.3089 -20.3087 -20.3086 -20.3084 -20.3064 -20.3062 -20.3061 -20.3059
   -20.3058 -20.3057 -20.3056 -20.3054 -20.3051 -20.3050 -20.3049 -20.3048
   -20.3048 -20.3047 -20.3046 -20.3044 -20.3041 -20.3039 -20.3037 -20.3035
   -20.2973 -20.2972 -20.2970 -20.2969 -20.2963 -20.2961 -20.2958 -20.2956
   -20.2947 -20.2946 -20.2945 -20.2943 -20.2938 -20.2934 -20.2931 -20.2930
   -20.2909 -20.2904 -20.2903 -20.2899 -20.2894 -20.2891 -20.2890 -20.2887
    -9.6514  -9.5177  -9.4246  -9.3051  -9.1579  -9.0057  -8.9030  -8.8874
    -8.8046  -8.6697  -8.6275  -8.6044  -8.2587  -8.2461  -8.2079  -8.1199
    -8.1140  -8.1063  -8.0751  -8.0242  -7.8737  -7.8586  -7.8066  -7.7928
     1.4869   1.4964   1.4976   1.5059   2.1307   2.1853   2.2426   2.3704
     2.4114   2.5180   2.5278   2.6931   2.8102   2.8767   2.9827   3.0587
     3.2093   3.2864   3.6282   3.6481   3.7035   3.7418   3.8238   3.9039
     4.1144   4.3015   4.3888   4.4139   4.4780   4.5407   4.5697   4.6007
     4.6549   4.7959   4.8192   4.8811   4.9041   4.9577   5.1164   5.1476
     5.3090   5.3350   5.4606   5.6251   5.7539   5.8212   6.1320   6.1469
     6.5012   6.5895   6.6160   6.7420   6.7946   6.8159   6.9172   6.9630
     6.9946   7.0186   7.0415   7.0569   7.1194   7.1542   7.1879   7.2515
     7.2844   7.3514   7.7355   7.7385   7.7577   7.7713   7.8260   7.8513
    10.4611  10.4934  10.8057  10.8177  11.2684  11.3081  11.8399  11.8811
    11.8959  12.0323  12.1611  12.1998  12.4561  12.5357  12.6514  12.6915
    12.9000  13.0650  13.1128  13.3141  13.3313  13.3599  13.6661  13.7088
    15.3048  15.4084  15.8169  15.9462  15.9846  16.0973  16.1684  16.6659
    16.7599  16.8722  17.0946  17.5677  17.6996

          k = 0.1667 0.3150-0.5000 ( 62264 PWs)   bands (ev):

   -66.1707 -66.1707 -66.1705 -66.1705 -66.1699 -66.1699 -66.1696 -66.1696
   -30.5348 -30.5348 -30.5297 -30.5297 -30.5236 -30.5236 -30.5189 -30.5189
   -30.5028 -30.5028 -30.5022 -30.5022 -30.4797 -30.4797 -30.4773 -30.4773
   -30.4759 -30.4759 -30.4731 -30.4731 -30.4345 -30.4345 -30.4313 -30.4313
   -20.3295 -20.3294 -20.3294 -20.3294 -20.3293 -20.3293 -20.3292 -20.3292
   -20.3088 -20.3088 -20.3085 -20.3085 -20.3063 -20.3063 -20.3060 -20.3060
   -20.3058 -20.3058 -20.3053 -20.3053 -20.3051 -20.3051 -20.3049 -20.3049
   -20.3048 -20.3048 -20.3044 -20.3044 -20.3042 -20.3042 -20.3036 -20.3036
   -20.2972 -20.2972 -20.2969 -20.2969 -20.2954 -20.2954 -20.2953 -20.2953
   -20.2951 -20.2951 -20.2948 -20.2948 -20.2925 -20.2925 -20.2921 -20.2921
   -20.2918 -20.2918 -20.2915 -20.2915 -20.2893 -20.2893 -20.2888 -20.2888
    -9.5162  -9.5162  -9.3870  -9.3870  -8.9198  -8.9198  -8.7315  -8.7315
    -8.6273  -8.6273  -8.6122  -8.6122  -8.5157  -8.5157  -8.4437  -8.4437
    -8.1118  -8.1118  -8.0809  -8.0809  -7.8401  -7.8401  -7.8256  -7.8256
     1.5026   1.5026   1.5130   1.5130   2.4002   2.4002   2.5092   2.5092
     2.9613   2.9613   3.0359   3.0359   3.0533   3.0533   3.2238   3.2238
     3.2590   3.2590   3.3892   3.3892   3.4169   3.4169   3.6602   3.6602
     4.0536   4.0536   4.0885   4.0885   4.1137   4.1137   4.3643   4.3643
     4.7371   4.7371   4.8065   4.8065   4.9834   4.9834   5.0140   5.0140
     5.0890   5.0890   5.5301   5.5301   5.8526   5.8526   5.8787   5.8787
     6.6497   6.6497   6.7736   6.7736   6.8068   6.8068   6.8403   6.8403
     7.0221   7.0221   7.0728   7.0728   7.1716   7.1716   7.5126   7.5126
     7.5292   7.5292   7.5757   7.5757   7.6033   7.6033   7.8359   7.8359
    10.7909  10.7909  11.2203  11.2203  11.2650  11.2650  11.7449  11.7449
    11.9962  11.9962  12.1489  12.1489  12.5461  12.5461  12.6000  12.6000
    12.7941  12.7942  12.9131  12.9131  13.2781  13.2781  13.6818  13.6818
    15.3721  15.3721  16.0249  16.0249  16.3449  16.3449  16.4392  16.4392
    16.9780  16.9780  17.3327  17.3327  17.8994

          k = 0.1667-0.4725 0.1667 ( 62220 PWs)   bands (ev):

   -66.1711 -66.1710 -66.1702 -66.1702 -66.1701 -66.1701 -66.1694 -66.1693
   -30.5303 -30.5298 -30.5263 -30.5259 -30.5244 -30.5239 -30.5202 -30.5197
   -30.5139 -30.5133 -30.5130 -30.5127 -30.5118 -30.5117 -30.5113 -30.5108
   -30.4373 -30.4364 -30.4344 -30.4341 -30.4327 -30.4325 -30.4299 -30.4294
   -20.3295 -20.3294 -20.3294 -20.3294 -20.3293 -20.3293 -20.3293 -20.3292
   -20.3077 -20.3076 -20.3074 -20.3073 -20.3073 -20.3072 -20.3071 -20.3069
   -20.3060 -20.3059 -20.3056 -20.3055 -20.3053 -20.3052 -20.3051 -20.3049
   -20.3046 -20.3046 -20.3045 -20.3045 -20.3040 -20.3038 -20.3038 -20.3036
   -20.2974 -20.2973 -20.2971 -20.2971 -20.2969 -20.2968 -20.2965 -20.2965
   -20.2944 -20.2943 -20.2942 -20.2942 -20.2940 -20.2939 -20.2939 -20.2939
   -20.2897 -20.2896 -20.2892 -20.2891 -20.2890 -20.2890 -20.2886 -20.2885
    -9.7128  -9.7128  -9.3119  -9.3089  -9.3041  -9.3011  -9.0257  -9.0257
    -8.4688  -8.4688  -8.4119  -8.4116  -8.4110  -8.4107  -8.4036  -8.4035
    -7.8975  -7.8958  -7.8901  -7.8884  -7.8015  -7.8012  -7.7615  -7.7612
     1.3564   1.3566   1.4721   1.4761   1.4780   1.4819   1.8056   1.8057
     2.5515   2.5516   3.1823   3.1836   3.2115   3.2156   3.2695   3.2699
     3.2852   3.2856   3.3600   3.3626   3.5302   3.5327   3.5460   3.5484
     3.7375   3.7378   4.4236   4.4257   4.4648   4.4666   4.9375   4.9393
     5.0184   5.0191   5.1350   5.1375   5.1766   5.1788   5.4225   5.4229
     5.4665   5.4667   5.7394   5.7423   5.7703   5.7725   6.4098   6.4180
     6.4426   6.4535   6.5260   6.5271   6.6802   6.6826   6.8773   6.8780
     6.8922   6.8940   7.0609   7.0612   7.2361   7.2365   7.4702   7.4705
     7.4802   7.4821   7.4967   7.4989   7.5397   7.5398   7.8380   7.8382
     9.8533   9.8534  11.3072  11.3091  11.3593  11.3631  11.3970  11.3999
    11.4086  11.4107  12.2961  12.2972  12.3197  12.3208  13.0233  13.0234
    13.3866  13.3892  13.3987  13.4026  13.4217  13.4235  13.5582  13.5584
    15.5765  15.5769  15.7322  15.7332  15.9567  15.9588  15.9699  15.9713
    16.6217  16.6218  17.9048  17.9171  17.9234

          k = 0.1667-0.4725 0.3333 ( 62252 PWs)   bands (ev):

   -66.1709 -66.1708 -66.1704 -66.1703 -66.1701 -66.1700 -66.1696 -66.1695
   -30.5290 -30.5267 -30.5250 -30.5230 -30.5196 -30.5177 -30.5166 -30.5150
   -30.5140 -30.5139 -30.5135 -30.5118 -30.5026 -30.5015 -30.4995 -30.4975
   -30.4556 -30.4526 -30.4517 -30.4485 -30.4356 -30.4332 -30.4325 -30.4303
   -20.3295 -20.3294 -20.3294 -20.3294 -20.3293 -20.3293 -20.3293 -20.3292
   -20.3077 -20.3076 -20.3074 -20.3074 -20.3074 -20.3072 -20.3072 -20.3070
   -20.3059 -20.3057 -20.3056 -20.3053 -20.3051 -20.3051 -20.3050 -20.3049
   -20.3048 -20.3047 -20.3047 -20.3044 -20.3042 -20.3039 -20.3037 -20.3036
   -20.2973 -20.2971 -20.2970 -20.2970 -20.2963 -20.2961 -20.2958 -20.2956
   -20.2947 -20.2946 -20.2946 -20.2943 -20.2938 -20.2933 -20.2932 -20.2930
   -20.2909 -20.2904 -20.2903 -20.2899 -20.2894 -20.2891 -20.2890 -20.2887
    -9.5758  -9.5730  -9.3560  -9.3487  -9.0637  -9.0564  -8.8944  -8.8920
    -8.5147  -8.5136  -8.4459  -8.4441  -8.3986  -8.3974  -8.3911  -8.3907
    -8.1919  -8.1856  -8.1019  -8.0958  -7.8704  -7.8634  -7.8035  -7.7966
     1.4909   1.4965   1.5002   1.5063   2.1740   2.1792   2.3516   2.3562
     2.8234   2.8268   3.1861   3.2103   3.2208   3.2430   3.2496   3.2669
     3.2802   3.2989   3.4238   3.4573   3.5099   3.5385   3.6642   3.6723
     3.7696   3.7818   3.8307   3.8896   4.4432   4.4873   4.5684   4.5786
     4.6481   4.7042   4.7577   4.7889   4.9715   4.9810   4.9935   5.0739
     5.1592   5.2138   5.3166   5.4057   5.7631   5.7811   6.1405   6.1461
     6.5800   6.5873   6.6874   6.7051   6.8348   6.8461   6.9895   7.0435
     7.0538   7.0842   7.1671   7.1890   7.2067   7.2149   7.4398   7.4507
     7.4634   7.4781   7.4881   7.5014   7.5144   7.5303   7.7770   7.7776
    10.4836  10.4881  11.3392  11.3533  11.3784  11.3887  11.7173  11.7290
    11.7414  11.7622  11.8942  11.9432  12.4573  12.5108  12.7655  12.7960
    12.9077  12.9375  13.1089  13.1987  13.4011  13.4270  13.4534  13.5133
    15.6983  15.7175  15.9032  15.9197  16.3062  16.3329  16.6797  16.7039
    16.8256  16.8304  17.4041  17.4375  17.8610

          k = 0.1667-0.4725-0.5000 ( 62232 PWs)   bands (ev):

   -66.1707 -66.1707 -66.1706 -66.1706 -66.1698 -66.1698 -66.1697 -66.1697
   -30.5278 -30.5278 -30.5236 -30.5236 -30.5161 -30.5161 -30.5155 -30.5155
   -30.5147 -30.5147 -30.5132 -30.5132 -30.4801 -30.4801 -30.4775 -30.4775
   -30.4762 -30.4762 -30.4733 -30.4733 -30.4344 -30.4344 -30.4314 -30.4314
   -20.3295 -20.3294 -20.3294 -20.3294 -20.3293 -20.3293 -20.3292 -20.3292
   -20.3076 -20.3076 -20.3075 -20.3075 -20.3073 -20.3073 -20.3072 -20.3071
   -20.3058 -20.3058 -20.3053 -20.3053 -20.3050 -20.3050 -20.3049 -20.3049
   -20.3048 -20.3048 -20.3046 -20.3046 -20.3042 -20.3042 -20.3037 -20.3037
   -20.2972 -20.2972 -20.2970 -20.2970 -20.2954 -20.2954 -20.2953 -20.2953
   -20.2951 -20.2951 -20.2948 -20.2948 -20.2925 -20.2925 -20.2920 -20.2920
   -20.2918 -20.2918 -20.2915 -20.2915 -20.2893 -20.2893 -20.2889 -20.2889
    -9.4427  -9.4427  -9.4368  -9.4368  -8.7329  -8.7329  -8.7259  -8.7259
    -8.6394  -8.6394  -8.6332  -8.6332  -8.3738  -8.3738  -8.3659  -8.3659
    -8.3317  -8.3316  -8.3239  -8.3239  -7.8369  -7.8369  -7.8298  -7.8298
     1.5068   1.5068   1.5132   1.5132   2.9740   2.9740   2.9894   2.9894
     3.1092   3.1092   3.1419   3.1419   3.2067   3.2067   3.2360   3.2360
     3.2851   3.2851   3.3704   3.3704   3.4460   3.4460   3.4818   3.4818
     3.6177   3.6177   3.6660   3.6660   4.2965   4.2965   4.3084   4.3084
     4.3958   4.3958   4.4142   4.4142   4.8491   4.8491   5.0069   5.0069
     5.1479   5.1479   5.2953   5.2953   5.8544   5.8544   5.8678   5.8678
     6.7298   6.7298   6.7615   6.7615   6.8375   6.8375   6.8703   6.8703
     7.2777   7.2777   7.3204   7.3204   7.3625   7.3625   7.4004   7.4004
     7.4487   7.4487   7.4865   7.4865   7.5816   7.5816   7.6114   7.6115
    11.1882  11.1882  11.2238  11.2238  11.3683  11.3683  11.4304  11.4304
    12.2503  12.2503  12.2781  12.2781  12.2917  12.2917  12.3095  12.3095
    12.7722  12.7722  12.8417  12.8417  13.4156  13.4156  13.4620  13.4620
    15.8133  15.8133  15.8334  15.8334  16.9288  16.9288  16.9421  16.9421
    17.3729  17.3730  17.3907  17.3908  17.4720

          k = 0.3333 0.0000 0.3333 ( 62316 PWs)   bands (ev):

   -66.1709 -66.1705 -66.1704 -66.1704 -66.1700 -66.1700 -66.1699 -66.1695
   -30.5482 -30.5459 -30.5459 -30.5435 -30.5098 -30.5090 -30.5079 -30.5046
   -30.5024 -30.5013 -30.5004 -30.4983 -30.4874 -30.4850 -30.4844 -30.4820
   -30.4555 -30.4540 -30.4528 -30.4526 -30.4506 -30.4494 -30.4488 -30.4476
   -20.3295 -20.3294 -20.3294 -20.3294 -20.3293 -20.3293 -20.3293 -20.3292
   -20.3102 -20.3100 -20.3100 -20.3098 -20.3059 -20.3057 -20.3057 -20.3056
   -20.3054 -20.3053 -20.3052 -20.3051 -20.3050 -20.3049 -20.3048 -20.3047
   -20.3047 -20.3045 -20.3042 -20.3040 -20.3039 -20.3037 -20.3036 -20.3034
   -20.2969 -20.2968 -20.2964 -20.2964 -20.2962 -20.2961 -20.2951 -20.2951
   -20.2950 -20.2948 -20.2940 -20.2938 -20.2935 -20.2933 -20.2929 -20.2927
   -20.2912 -20.2908 -20.2906 -20.2904 -20.2902 -20.2899 -20.2899 -20.2897
    -9.6115  -9.3662  -9.3652  -9.2892  -9.1199  -9.0186  -9.0155  -8.8059
    -8.7908  -8.7738  -8.7483  -8.7467  -8.2604  -8.2039  -8.1994  -8.1930
    -8.1875  -8.1821  -8.0816  -8.0622  -7.7793  -7.7535  -7.7534  -7.7280
     1.5236   1.5629   1.5631   1.6053   2.0808   2.0859   2.2053   2.2089
     2.2467   2.2497   2.4608   2.5634   2.9238   2.9280   2.9643   2.9995
     3.1608   3.1875   3.7927   3.8013   3.8615   3.8717   4.0642   4.0681
     4.1397   4.1427   4.2032   4.3038   4.3784   4.3843   4.4632   4.4896
     4.8141   4.8366   4.8791   4.9343   5.0088   5.0142   5.1317   5.4086
     5.4130   5.4505   5.4547   5.6561   5.9266   5.9270   5.9345   6.0658
     6.4873   6.5033   6.5043   6.5261   6.5267   6.5507   6.5534   6.6325
     6.9889   7.1703   7.1728   7.1805   7.1878   7.2750   7.3305   7.3338
     7.3660   7.4872   7.7186   7.7237   7.9078   7.9802   7.9858   8.0254
    10.7114  10.8126  10.8415  10.8500  10.9390  11.1478  12.0519  12.0555
    12.1026  12.1058  12.2040  12.2799  12.5130  12.5175  12.7744  12.7875
    12.7953  12.8016  12.9355  13.0298  13.5552  13.6251  13.6275  13.7253
    14.4532  14.7227  14.7235  15.1777  15.8411  16.4025  16.4476  16.7950
    16.8032  17.2587  17.2664  17.8169  17.8360

          k = 0.3333 0.0000-0.5000 ( 62288 PWs)   bands (ev):

   -66.1707 -66.1707 -66.1702 -66.1702 -66.1701 -66.1701 -66.1697 -66.1697
   -30.5471 -30.5471 -30.5447 -30.5447 -30.5077 -30.5077 -30.5006 -30.5006
   -30.4921 -30.4921 -30.4892 -30.4892 -30.4774 -30.4774 -30.4760 -30.4760
   -30.4747 -30.4747 -30.4726 -30.4726 -30.4527 -30.4527 -30.4490 -30.4490
   -20.3294 -20.3294 -20.3294 -20.3294 -20.3293 -20.3293 -20.3293 -20.3293
   -20.3101 -20.3101 -20.3099 -20.3099 -20.3057 -20.3057 -20.3055 -20.3055
   -20.3054 -20.3054 -20.3051 -20.3051 -20.3050 -20.3050 -20.3049 -20.3049
   -20.3046 -20.3046 -20.3041 -20.3041 -20.3038 -20.3038 -20.3035 -20.3035
   -20.2967 -20.2967 -20.2963 -20.2963 -20.2956 -20.2956 -20.2955 -20.2955
   -20.2943 -20.2943 -20.2940 -20.2940 -20.2927 -20.2927 -20.2920 -20.2920
   -20.2919 -20.2919 -20.2915 -20.2915 -20.2905 -20.2905 -20.2900 -20.2900
    -9.4636  -9.4636  -9.2057  -9.2057  -9.1103  -9.1103  -8.7662  -8.7662
    -8.6530  -8.6530  -8.5804  -8.5804  -8.5253  -8.5253  -8.4912  -8.4912
    -8.1567  -8.1567  -8.1483  -8.1483  -7.7667  -7.7667  -7.7408  -7.7408
[...]
   -20.3855 -20.3855 -20.3852 -20.3852 -20.3850 -20.3850 -20.3845 -20.3845
   -20.3776 -20.3776 -20.3774 -20.3774 -20.3760 -20.3760 -20.3759 -20.3759
   -20.3757 -20.3757 -20.3752 -20.3752 -20.3731 -20.3731 -20.3727 -20.3727
   -20.3725 -20.3725 -20.3722 -20.3722 -20.3700 -20.3700 -20.3694 -20.3694
    -9.5453  -9.5453  -9.3965  -9.3965  -9.0115  -9.0115  -8.7958  -8.7958
    -8.6561  -8.6561  -8.6307  -8.6307  -8.5593  -8.5593  -8.4889  -8.4889
    -8.2079  -8.2079  -8.1776  -8.1776  -7.8818  -7.8818  -7.8675  -7.8675
     1.4944   1.4944   1.5066   1.5066   2.2961   2.2961   2.4070   2.4070
     2.9189   2.9189   3.0039   3.0039   3.0267   3.0267   3.1980   3.1980
     3.2343   3.2343   3.3715   3.3715   3.3965   3.3965   3.6231   3.6231
     3.9848   3.9848   4.0154   4.0154   4.0694   4.0694   4.3034   4.3034
     4.6590   4.6590   4.7331   4.7331   4.9153   4.9153   4.9420   4.9420
     5.0469   5.0469   5.4448   5.4448   5.8038   5.8038   5.8229   5.8229
     6.6068   6.6068   6.7229   6.7229   6.7671   6.7671   6.7979   6.7979
     6.9605   6.9605   7.0110   7.0110   7.1145   7.1145   7.4574   7.4574
     7.4835   7.4835   7.5211   7.5211   7.5516   7.5516   7.7750   7.7750
    10.7223  10.7223  11.1340  11.1340  11.1771  11.1771  11.6683  11.6683
    11.9096  11.9096  12.0844  12.0844  12.4604  12.4604  12.5259  12.5259
    12.6940  12.6940  12.8228  12.8228  13.1733  13.1733  13.5922  13.5922
    15.2755  15.2755  15.8682  15.8682  16.3080  16.3081  16.3953  16.3953
    16.8330  16.8330  17.2480  17.2480  17.8216

          k = 0.3322 0.4739 0.1661 ( 62472 PWs)   bands (ev):

   -66.2478 -66.2478 -66.2474 -66.2474 -66.2470 -66.2470 -66.2465 -66.2465
   -30.6075 -30.6070 -30.6055 -30.6046 -30.6041 -30.6036 -30.6016 -30.6015
   -30.5829 -30.5807 -30.5805 -30.5783 -30.5656 -30.5631 -30.5617 -30.5588
   -30.5177 -30.5147 -30.5139 -30.5108 -30.4995 -30.4973 -30.4964 -30.4942
   -20.4102 -20.4102 -20.4101 -20.4101 -20.4101 -20.4101 -20.4100 -20.4100
   -20.3884 -20.3884 -20.3882 -20.3882 -20.3881 -20.3880 -20.3879 -20.3878
   -20.3867 -20.3867 -20.3865 -20.3862 -20.3861 -20.3858 -20.3857 -20.3856
   -20.3856 -20.3855 -20.3853 -20.3853 -20.3849 -20.3847 -20.3846 -20.3845
   -20.3777 -20.3776 -20.3774 -20.3773 -20.3766 -20.3766 -20.3762 -20.3759
   -20.3754 -20.3754 -20.3753 -20.3748 -20.3744 -20.3740 -20.3739 -20.3737
   -20.3715 -20.3710 -20.3710 -20.3706 -20.3700 -20.3698 -20.3696 -20.3693
    -9.5898  -9.5871  -9.3723  -9.3651  -9.0874  -9.0805  -8.9024  -8.9002
    -8.6176  -8.6166  -8.5379  -8.5364  -8.4984  -8.4974  -8.4886  -8.4877
    -8.2288  -8.2220  -8.1416  -8.1352  -7.9112  -7.9041  -7.8458  -7.8388
     1.4837   1.4894   1.4968   1.5028   2.1580   2.1631   2.3283   2.3331
     2.8349   2.8379   3.1175   3.1319   3.1631   3.1695   3.1823   3.1972
     3.2254   3.2430   3.3654   3.4029   3.4233   3.4582   3.5962   3.6065
     3.6870   3.7001   3.8215   3.8845   4.3676   4.4086   4.5266   4.5385
     4.5799   4.6429   4.7036   4.7235   4.8906   4.9253   4.9324   4.9785
     5.0624   5.1183   5.2661   5.3396   5.7064   5.7235   6.1032   6.1072
     6.5540   6.5614   6.6334   6.6491   6.7880   6.7982   6.9509   7.0031
     7.0231   7.0437   7.1055   7.1317   7.1554   7.1606   7.3756   7.3905
     7.3974   7.4231   7.4263   7.4401   7.4541   7.4728   7.7342   7.7347
    10.4065  10.4113  11.2784  11.2943  11.3131  11.3250  11.6554  11.6662
    11.6757  11.6946  11.7975  11.8499  12.3512  12.4042  12.6658  12.6943
    12.8184  12.8467  13.0096  13.0978  13.3002  13.3280  13.3501  13.4084
    15.5531  15.5714  15.7716  15.7892  16.1878  16.2118  16.5680  16.5940
    16.7994  16.8027  17.3479  17.3894  17.7971

          k =-0.4983 0.4739 0.1661 ( 62472 PWs)   bands (ev):

   -66.2476 -66.2476 -66.2476 -66.2476 -66.2468 -66.2468 -66.2468 -66.2468
   -30.6066 -30.6066 -30.6058 -30.6058 -30.6029 -30.6029 -30.6026 -30.6026
   -30.5817 -30.5817 -30.5795 -30.5795 -30.5417 -30.5417 -30.5389 -30.5389
   -30.5379 -30.5379 -30.5348 -30.5348 -30.4984 -30.4984 -30.4953 -30.4953
   -20.4102 -20.4102 -20.4101 -20.4101 -20.4101 -20.4101 -20.4101 -20.4101
   -20.3883 -20.3883 -20.3883 -20.3883 -20.3880 -20.3880 -20.3880 -20.3880
   -20.3866 -20.3866 -20.3864 -20.3864 -20.3858 -20.3858 -20.3856 -20.3856
   -20.3856 -20.3856 -20.3853 -20.3853 -20.3850 -20.3850 -20.3846 -20.3846
   -20.3775 -20.3775 -20.3774 -20.3774 -20.3759 -20.3759 -20.3759 -20.3759
   -20.3757 -20.3757 -20.3752 -20.3752 -20.3731 -20.3731 -20.3726 -20.3726
   -20.3726 -20.3726 -20.3722 -20.3722 -20.3699 -20.3699 -20.3695 -20.3695
    -9.4589  -9.4589  -9.4530  -9.4530  -8.7878  -8.7878  -8.7794  -8.7794
    -8.6718  -8.6718  -8.6642  -8.6642  -8.4631  -8.4630  -8.4507  -8.4507
    -8.4078  -8.4078  -8.3963  -8.3963  -7.8784  -7.8784  -7.8713  -7.8713
     1.5002   1.5002   1.5067   1.5067   2.9275   2.9275   2.9621   2.9621
     3.0681   3.0681   3.0845   3.0845   3.1522   3.1522   3.2049   3.2049
     3.2287   3.2287   3.3340   3.3340   3.4075   3.4075   3.4478   3.4478
     3.5254   3.5254   3.6214   3.6214   4.2211   4.2211   4.2417   4.2417
     4.3110   4.3110   4.3460   4.3460   4.7950   4.7950   4.9545   4.9545
     5.0720   5.0720   5.2183   5.2183   5.8049   5.8049   5.8175   5.8175
     6.6866   6.6866   6.7242   6.7242   6.7946   6.7946   6.8311   6.8311
     7.2205   7.2205   7.2528   7.2528   7.2984   7.2984   7.3464   7.3464
     7.3870   7.3870   7.4366   7.4366   7.5347   7.5347   7.5632   7.5632
    11.1107  11.1107  11.1410  11.1410  11.3022  11.3022  11.3584  11.3584
    12.1649  12.1649  12.1956  12.1956  12.2157  12.2157  12.2413  12.2413
    12.6667  12.6667  12.7355  12.7355  13.3157  13.3157  13.3620  13.3620
    15.6754  15.6754  15.6956  15.6956  16.8502  16.8502  16.8771  16.8771
    17.2890  17.2890  17.3198  17.3199  17.4023

          k =-0.4983 0.0000 0.3322 ( 62558 PWs)   bands (ev):

   -66.2476 -66.2476 -66.2472 -66.2472 -66.2472 -66.2472 -66.2467 -66.2467
   -30.6352 -30.6352 -30.6332 -30.6332 -30.5784 -30.5784 -30.5743 -30.5743
   -30.5632 -30.5632 -30.5607 -30.5607 -30.5410 -30.5410 -30.5390 -30.5390
   -30.5372 -30.5372 -30.5349 -30.5349 -30.5163 -30.5163 -30.5124 -30.5124
   -20.4102 -20.4102 -20.4101 -20.4101 -20.4101 -20.4101 -20.4100 -20.4100
   -20.3909 -20.3909 -20.3908 -20.3908 -20.3867 -20.3867 -20.3863 -20.3863
   -20.3861 -20.3861 -20.3860 -20.3860 -20.3858 -20.3858 -20.3855 -20.3855
   -20.3853 -20.3853 -20.3850 -20.3850 -20.3846 -20.3846 -20.3843 -20.3843
   -20.3771 -20.3771 -20.3769 -20.3769 -20.3762 -20.3762 -20.3761 -20.3761
   -20.3748 -20.3748 -20.3743 -20.3743 -20.3732 -20.3732 -20.3727 -20.3727
   -20.3726 -20.3726 -20.3721 -20.3721 -20.3712 -20.3712 -20.3705 -20.3705
    -9.5320  -9.5320  -9.3108  -9.3108  -9.1222  -9.1222  -8.8257  -8.8257
    -8.6732  -8.6732  -8.6040  -8.6040  -8.5491  -8.5491  -8.5206  -8.5206
    -8.1891  -8.1891  -8.1792  -8.1792  -7.8590  -7.8590  -7.8346  -7.8346
     1.4232   1.4232   1.4626   1.4626   2.2045   2.2045   2.2341   2.2342
     2.8602   2.8602   2.9545   2.9545   2.9921   2.9921   3.1445   3.1445
     3.2477   3.2477   3.5376   3.5376   3.6531   3.6531   3.7840   3.7840
     3.7873   3.7873   3.9709   3.9709   4.1129   4.1129   4.2977   4.2977
     4.6384   4.6384   4.8527   4.8527   4.9647   4.9647   5.0341   5.0341
     5.1943   5.1943   5.4608   5.4608   5.8622   5.8622   5.9503   5.9503
     6.3439   6.3439   6.3614   6.3614   6.4204   6.4204   6.5209   6.5209
     7.0981   7.0981   7.2351   7.2351   7.3179   7.3179   7.4964   7.4964
     7.5191   7.5191   7.6322   7.6322   7.6820   7.6820   7.9298   7.9298
    10.7558  10.7558  11.3349  11.3349  11.4162  11.4162  11.5232  11.5232
    11.7239  11.7239  12.1660  12.1660  12.3183  12.3183  12.5319  12.5319
    12.7563  12.7563  13.1130  13.1130  13.1505  13.1505  13.5699  13.5699
    14.5915  14.5915  14.9730  14.9730  16.2188  16.2188  16.6775  16.6775
    17.0229  17.0229  17.4116  17.4116  17.8712

          k =-0.4983-0.1580 0.3322 ( 62530 PWs)   bands (ev):

   -66.2476 -66.2476 -66.2472 -66.2472 -66.2471 -66.2471 -66.2468 -66.2468
   -30.6312 -30.6312 -30.6293 -30.6293 -30.5816 -30.5816 -30.5782 -30.5782
   -30.5636 -30.5636 -30.5610 -30.5610 -30.5410 -30.5410 -30.5390 -30.5390
   -30.5374 -30.5374 -30.5351 -30.5351 -30.5163 -30.5163 -30.5126 -30.5126
   -20.4102 -20.4102 -20.4101 -20.4101 -20.4101 -20.4101 -20.4101 -20.4101
   -20.3906 -20.3906 -20.3904 -20.3904 -20.3866 -20.3866 -20.3864 -20.3864
   -20.3861 -20.3861 -20.3861 -20.3861 -20.3858 -20.3858 -20.3856 -20.3856
   -20.3854 -20.3854 -20.3851 -20.3850 -20.3848 -20.3848 -20.3844 -20.3844
   -20.3771 -20.3771 -20.3769 -20.3769 -20.3762 -20.3762 -20.3761 -20.3761
   -20.3748 -20.3748 -20.3743 -20.3743 -20.3732 -20.3732 -20.3726 -20.3726
   -20.3726 -20.3726 -20.3722 -20.3722 -20.3711 -20.3711 -20.3705 -20.3705
    -9.4828  -9.4828  -9.2432  -9.2432  -9.1328  -9.1328  -8.8014  -8.8014
    -8.6814  -8.6814  -8.6017  -8.6016  -8.5474  -8.5474  -8.5171  -8.5171
    -8.1891  -8.1891  -8.1826  -8.1826  -7.9558  -7.9558  -7.9314  -7.9314
     1.6541   1.6541   1.6942   1.6942   2.2038   2.2038   2.2437   2.2437
     2.9103   2.9103   2.9864   2.9864   3.0114   3.0114   3.1539   3.1539
     3.2488   3.2488   3.5544   3.5544   3.6513   3.6513   3.7784   3.7785
     3.8325   3.8325   4.0021   4.0021   4.1117   4.1117   4.3053   4.3053
     4.5096   4.5096   4.6299   4.6299   4.9134   4.9134   4.9600   4.9600
     5.0067   5.0067   5.2452   5.2452   5.6390   5.6390   5.7263   5.7263
     6.4796   6.4796   6.5133   6.5133   6.5723   6.5723   6.6962   6.6962
     7.1024   7.1024   7.2269   7.2269   7.3176   7.3176   7.4914   7.4914
     7.5135   7.5135   7.6060   7.6060   7.6532   7.6532   7.8752   7.8752
    10.8625  10.8625  11.3523  11.3523  11.4290  11.4290  11.5844  11.5844
    11.7758  11.7758  12.1872  12.1872  12.3148  12.3148  12.5468  12.5468
    12.6261  12.6261  12.9913  12.9913  13.0294  13.0294  13.4619  13.4619
    14.9627  14.9627  15.3610  15.3610  16.3041  16.3041  16.6772  16.6772
    17.0276  17.0276  17.4267  17.4267  17.7246

          k =-0.4983-0.3159 0.3322 ( 62526 PWs)   bands (ev):

   -66.2475 -66.2475 -66.2473 -66.2473 -66.2471 -66.2470 -66.2468 -66.2468
   -30.6204 -30.6204 -30.6184 -30.6184 -30.5914 -30.5914 -30.5888 -30.5888
   -30.5641 -30.5641 -30.5614 -30.5614 -30.5409 -30.5409 -30.5389 -30.5389
   -30.5378 -30.5378 -30.5355 -30.5354 -30.5161 -30.5161 -30.5128 -30.5128
   -20.4102 -20.4102 -20.4101 -20.4101 -20.4101 -20.4101 -20.4101 -20.4101
   -20.3896 -20.3896 -20.3894 -20.3894 -20.3870 -20.3870 -20.3868 -20.3868
   -20.3865 -20.3865 -20.3861 -20.3861 -20.3860 -20.3860 -20.3857 -20.3857
   -20.3854 -20.3854 -20.3851 -20.3851 -20.3851 -20.3851 -20.3847 -20.3847
   -20.3770 -20.3770 -20.3769 -20.3769 -20.3762 -20.3762 -20.3761 -20.3761
   -20.3748 -20.3748 -20.3744 -20.3744 -20.3732 -20.3732 -20.3726 -20.3726
   -20.3726 -20.3726 -20.3722 -20.3722 -20.3711 -20.3711 -20.3706 -20.3706
    -9.3635  -9.3635  -9.1690  -9.1690  -9.0607  -9.0607  -8.7372  -8.7372
    -8.7002  -8.7002  -8.5971  -8.5971  -8.5367  -8.5367  -8.4976  -8.4976
    -8.2361  -8.2361  -8.1967  -8.1967  -8.1772  -8.1772  -8.1256  -8.1256
     2.1259   2.1259   2.2004   2.2004   2.3038   2.3038   2.4259   2.4259
     2.9837   2.9837   3.0306   3.0306   3.1192   3.1192   3.1918   3.1918
     3.2783   3.2783   3.5496   3.5496   3.6378   3.6378   3.7263   3.7263
     3.9726   3.9726   4.0186   4.0186   4.0681   4.0681   4.1682   4.1682
     4.2560   4.2560   4.3906   4.3906   4.5358   4.5358   4.7704   4.7704
     4.8817   4.8817   4.9343   4.9343   4.9794   4.9794   5.2281   5.2281
     6.8013   6.8013   6.8575   6.8575   6.9168   6.9168   6.9762   6.9762
     7.1116   7.1116   7.2087   7.2087   7.3271   7.3271   7.4461   7.4461
     7.4828   7.4828   7.5476   7.5476   7.5769   7.5769   7.7168   7.7168
    11.1484  11.1484  11.3803  11.3803  11.4611  11.4611  11.7614  11.7614
    11.9489  11.9489  12.2172  12.2172  12.2661  12.2661  12.2999  12.3000
    12.6036  12.6036  12.7012  12.7012  12.7766  12.7766  13.1992  13.1992
    15.8115  15.8115  16.3096  16.3096  16.5654  16.5654  16.6536  16.6536
    17.0599  17.0599  17.3199  17.3199  17.5814

          k =-0.4983 0.4739 0.3322 ( 62464 PWs)   bands (ev):

   -66.2474 -66.2474 -66.2474 -66.2474 -66.2470 -66.2470 -66.2469 -66.2469
   -30.6059 -30.6059 -30.6055 -30.6055 -30.6037 -30.6037 -30.6034 -30.6034
   -30.5642 -30.5642 -30.5616 -30.5616 -30.5408 -30.5408 -30.5387 -30.5387
   -30.5381 -30.5381 -30.5356 -30.5356 -30.5160 -30.5160 -30.5130 -30.5130
   -20.4101 -20.4101 -20.4101 -20.4101 -20.4101 -20.4101 -20.4101 -20.4101
   -20.3883 -20.3883 -20.3882 -20.3882 -20.3881 -20.3881 -20.3880 -20.3880
   -20.3864 -20.3864 -20.3862 -20.3862 -20.3859 -20.3859 -20.3858 -20.3858
   -20.3854 -20.3854 -20.3852 -20.3852 -20.3850 -20.3850 -20.3848 -20.3848
   -20.3770 -20.3770 -20.3769 -20.3769 -20.3762 -20.3762 -20.3762 -20.3761
   -20.3748 -20.3748 -20.3744 -20.3744 -20.3731 -20.3731 -20.3727 -20.3727
   -20.3726 -20.3726 -20.3722 -20.3722 -20.3711 -20.3711 -20.3707 -20.3707
    -9.2462  -9.2462  -9.2414  -9.2414  -8.8492  -8.8492  -8.8417  -8.8417
    -8.6151  -8.6151  -8.6081  -8.6081  -8.4565  -8.4565  -8.4462  -8.4462
    -8.4124  -8.4124  -8.4031  -8.4031  -8.1740  -8.1740  -8.1674  -8.1674
     2.1885   2.1885   2.1953   2.1953   2.9349   2.9349   2.9566   2.9566
     3.0585   3.0585   3.0675   3.0675   3.2027   3.2027   3.2252   3.2252
     3.3108   3.3108   3.3418   3.3418   3.5721   3.5721   3.5973   3.5973
     3.7014   3.7014   3.7606   3.7606   4.1822   4.1822   4.2092   4.2092
     4.2567   4.2567   4.3160   4.3161   4.3854   4.3854   4.4834   4.4834
     4.5871   4.5872   4.7322   4.7322   4.9909   4.9909   5.0072   5.0072
     6.9679   6.9679   7.0079   7.0079   7.1210   7.1210   7.1246   7.1246
     7.2200   7.2200   7.2583   7.2583   7.2851   7.2851   7.3463   7.3463
     7.4212   7.4212   7.4839   7.4839   7.5526   7.5526   7.5775   7.5775
    11.3458  11.3458  11.3792  11.3792  11.6526  11.6526  11.7230  11.7230
    12.1063  12.1063  12.1566  12.1566  12.2243  12.2243  12.2462  12.2462
    12.4022  12.4022  12.5097  12.5097  12.8716  12.8716  12.9489  12.9489
    16.4278  16.4278  16.4723  16.4723  17.0149  17.0149  17.0327  17.0328
    17.2866  17.2866  17.3457  17.3469  17.3746

     the Fermi energy is     8.9040 ev

!    total energy              =   -6261.10933853 Ry
     Harris-Foulkes estimate   =   -6261.10933853 Ry
     estimated scf accuracy    <          4.8E-11 Ry

     The total energy is the sum of the following terms:

     one-electron contribution =   -4738.23486729 Ry
     hartree contribution      =    2604.88914672 Ry
     xc contribution           =    -965.66894233 Ry
     ewald contribution        =   -3162.09467563 Ry
     smearing contrib. (-TS)   =      -0.00000000 Ry

     convergence has been achieved in  16 iterations

     Forces acting on atoms (cartesian axes, Ry/au):

     atom    1 type  1   force =    -0.00185273    0.00346123    0.00040578
     atom    2 type  1   force =     0.00094226   -0.00345966   -0.00163618
     atom    3 type  1   force =     0.00185273   -0.00346123    0.00040578
     atom    4 type  1   force =    -0.00094226    0.00345966   -0.00163618
     atom    5 type  1   force =     0.00185273    0.00346123   -0.00040578
     atom    6 type  1   force =    -0.00094226   -0.00345966    0.00163618
     atom    7 type  1   force =    -0.00185273   -0.00346123   -0.00040578
     atom    8 type  1   force =     0.00094226    0.00345966    0.00163618
     atom    9 type  2   force =    -0.00020972   -0.00168944   -0.00000836
     atom   10 type  2   force =     0.00011823    0.00168812   -0.00015231
     atom   11 type  2   force =     0.00020972    0.00168944   -0.00000836
     atom   12 type  2   force =    -0.00011823   -0.00168812   -0.00015231
     atom   13 type  2   force =     0.00020972   -0.00168944    0.00000836
     atom   14 type  2   force =    -0.00011823    0.00168812    0.00015231
     atom   15 type  2   force =    -0.00020972    0.00168944    0.00000836
     atom   16 type  2   force =     0.00011823   -0.00168812    0.00015231
     atom   17 type  2   force =    -0.00096949   -0.00022025   -0.00057367
     atom   18 type  2   force =     0.00042090   -0.00017775    0.00053846
     atom   19 type  2   force =     0.00096949    0.00022025   -0.00057367
     atom   20 type  2   force =    -0.00042090    0.00017775    0.00053846
     atom   21 type  2   force =     0.00096949   -0.00022025    0.00057367
     atom   22 type  2   force =    -0.00042090   -0.00017775   -0.00053846
     atom   23 type  2   force =    -0.00096949    0.00022025    0.00057367
     atom   24 type  2   force =     0.00042090    0.00017775   -0.00053846
     atom   25 type  2   force =    -0.00062409   -0.00037449    0.00034503
     atom   26 type  2   force =     0.00065635    0.00038328   -0.00093570
     atom   27 type  2   force =     0.00062409    0.00037449    0.00034503
     atom   28 type  2   force =    -0.00065635   -0.00038328   -0.00093570
     atom   29 type  2   force =     0.00062409   -0.00037449   -0.00034503
     atom   30 type  2   force =    -0.00065635    0.00038328    0.00093570
     atom   31 type  2   force =    -0.00062409    0.00037449   -0.00034503
     atom   32 type  2   force =     0.00065635   -0.00038328    0.00093570

     Total force =     0.000000     Total SCF correction =     0.000000


     Computing stress (Cartesian axis) and pressure

          total   stress  (Ry/bohr**3)                   (kbar)     P=    0.10
   0.00000107   0.00000000   0.00000000          0.16      0.00      0.00
   0.00000000  -0.00000012   0.00000000          0.00     -0.02      0.00
   0.00000000   0.00000000   0.00000111          0.00      0.00      0.16


     Writing output data file Landau_3.save
 
     init_run     :    112.38s CPU    116.02s WALL (       2 calls)
     electrons    :  13014.91s CPU  13319.12s WALL (       6 calls)
     update_pot   :     95.85s CPU     96.25s WALL (       4 calls)
     forces       :    219.61s CPU    222.88s WALL (       6 calls)
     stress       :   1719.39s CPU   1746.86s WALL (       6 calls)

     Called by init_run:
     wfcinit      :     91.83s CPU     95.13s WALL (       2 calls)
     potinit      :      8.54s CPU      8.63s WALL (       2 calls)

     Called by electrons:
     c_bands      :  11642.19s CPU  11929.19s WALL (      87 calls)
     sum_band     :   1327.68s CPU   1338.65s WALL (      87 calls)
     v_of_rho     :     10.44s CPU     10.63s WALL (      92 calls)
     mix_rho      :     25.00s CPU     29.89s WALL (      87 calls)

     Called by c_bands:
     init_us_2    :    102.42s CPU    106.68s WALL (     376 calls)
     cegterg      :  10142.81s CPU  10412.79s WALL (     174 calls)

     Called by sum_band:

     Called by *egterg:
     h_psi        :   7399.39s CPU   7458.56s WALL (     667 calls)
     g_psi        :     13.21s CPU     13.30s WALL (     489 calls)
     cdiaghg      :    113.84s CPU    114.37s WALL (     653 calls)

     Called by h_psi:
     h_psi:pot    :   7363.64s CPU   7421.12s WALL (     667 calls)
     h_psi:calbec :   1112.25s CPU   1142.79s WALL (     667 calls)
     vloc_psi     :   5104.98s CPU   5123.59s WALL (     667 calls)
     add_vuspsi   :   1146.40s CPU   1154.73s WALL (     667 calls)

     General routines
     calbec       :   1270.01s CPU   1301.30s WALL (     727 calls)
     fft          :      9.48s CPU      9.51s WALL (     416 calls)
     fftw         :   5371.90s CPU   5389.12s WALL (  221592 calls)
 
     Parallel routines
 
     PWSCF        :     4h12m CPU        4h18m WALL

 
   This run was terminated on:   1:19:24  24Mar2020            

=------------------------------------------------------------------------------=
   JOB DONE.
=------------------------------------------------------------------------------=
