
     Program PWSCF v.6.2 (svn rev. 14038) starts on 19Mar2020 at  1:24:49 

     This program is part of the open-source Quantum ESPRESSO suite
     for quantum simulation of materials; please cite
         "P. Giannozzi et al., J. Phys.:Condens. Matter 21 395502 (2009);
         "P. Giannozzi et al., J. Phys.:Condens. Matter 29 465901 (2017);
          URL http://www.quantum-espresso.org", 
     in publications or presentations arising from this work. More details at
     http://www.quantum-espresso.org/quote

     Parallel version (MPI), running on    40 processors

     MPI processes distributed on     3 nodes
     K-points division:     npool     =      40
     Reading input from scf.in

     Current dimensions of program PWSCF are:
     Max number of different atomic species (ntypx) = 10
     Max number of k-points (npk) =  40000
     Max angular momentum in pseudopotentials (lmaxx) =  3

     Subspace diagonalization in iterative solution of the eigenvalue problem:
     a serial algorithm will be used

 
     G-vector sticks info
     --------------------
     sticks:   dense  smooth     PW     G-vecs:    dense   smooth      PW
     Sum        7689    7689   2069               495977   495977   68787
 


     bravais-lattice index     =            0
     lattice parameter (alat)  =      13.8326  a.u.
     unit-cell volume          =    2792.6462 (a.u.)^3
     number of atoms/cell      =           32
     number of atomic types    =            2
     number of electrons       =       368.20
     number of Kohn-Sham states=          221
     kinetic-energy cutoff     =     120.0000  Ry
     charge density cutoff     =     480.0000  Ry
     convergence threshold     =      1.0E-08
     mixing beta               =       0.7000
     number of iterations used =            8  plain     mixing
     Exchange-correlation      = SLA PW NOGX NOGC ( 1  4  0  0 0 0)

     celldm(1)=  13.832570  celldm(2)=   0.000000  celldm(3)=   0.000000
     celldm(4)=   0.000000  celldm(5)=   0.000000  celldm(6)=   0.000000

     crystal axes: (cart. coord. in units of alat)
               a(1) = (   1.000000   0.000000   0.000000 )  
               a(2) = (   0.000000   1.052523   0.000000 )  
               a(3) = (   0.000000   0.000000   1.002480 )  

     reciprocal axes: (cart. coord. in units 2 pi/alat)
               b(1) = (  1.000000  0.000000  0.000000 )  
               b(2) = (  0.000000  0.950098  0.000000 )  
               b(3) = (  0.000000  0.000000  0.997526 )  


     PseudoPot. # 1 for W  read from file:
     /cluster/scratch/mnoe/QE/pps/W_ONCV_LDA-4.0.upf
     MD5 check sum: ba0307d5d4cd419d6f1d13dc49d7c13a
     Pseudo is Norm-conserving + core correction, Zval = 28.0
     Generated using ONCVPSP code by D. R. Hamann
     Using radial grid of 1380 points,  8 beta functions with: 
                l(1) =   0
                l(2) =   0
                l(3) =   1
                l(4) =   1
                l(5) =   2
                l(6) =   2
                l(7) =   3
                l(8) =   3

     PseudoPot. # 2 for O  read from file:
     /cluster/scratch/mnoe/QE/pps/O_ONCV_LDA-3.0.upf
     MD5 check sum: a1bd6164e7280c17a38c229939bfbd54
     Pseudo is Norm-conserving + core correction, Zval =  6.0
     Generated using ONCVPSP code by D. R. Hamann
     Using radial grid of  926 points,  5 beta functions with: 
                l(1) =   0
                l(2) =   0
                l(3) =   1
                l(4) =   1
                l(5) =   2

     atomic species   valence    mass     pseudopotential
        W             28.00   183.84000     W ( 1.00)
        O              6.00    15.99940     O ( 1.00)

      8 Sym. Ops., with inversion, found ( 6 have fractional translation)



   Cartesian axes

     site n.     atom                  positions (alat units)
         1           W   tau(   1) = (   0.2398300   0.2966641   0.0096338  )
         2           W   tau(   2) = (   0.7601700   0.7558588   0.9928461  )
         3           W   tau(   3) = (   0.2601700   0.2295974   0.5108738  )
         4           W   tau(   4) = (   0.7398300   0.8229255   0.4916061  )
         5           W   tau(   5) = (   0.7601700   0.2966641   0.4916061  )
         6           W   tau(   6) = (   0.2398300   0.7558588   0.5108738  )
         7           W   tau(   7) = (   0.7398300   0.2295974   0.9928461  )
         8           W   tau(   8) = (   0.2601700   0.8229255   0.0096338  )
         9           O   tau(   9) = (   0.2312300   0.0087570   0.0029974  )
        10           O   tau(  10) = (   0.7687700   1.0437659   0.9994825  )
        11           O   tau(  11) = (   0.2687700   0.5175044   0.5042374  )
        12           O   tau(  12) = (   0.7312300   0.5350184   0.4982426  )
        13           O   tau(  13) = (   0.7687700   0.0087570   0.4982426  )
        14           O   tau(  14) = (   0.2312300   1.0437659   0.5042374  )
        15           O   tau(  15) = (   0.7312300   0.5175044   0.9994825  )
        16           O   tau(  16) = (   0.2687700   0.5350184   0.0029974  )
        17           O   tau(  17) = (   0.5027800   0.2428697   0.4506548  )
        18           O   tau(  18) = (   0.4972200   0.8096533   0.5518251  )
        19           O   tau(  19) = (   0.9972200   0.2833918   0.9518948  )
        20           O   tau(  20) = (   0.0027800   0.7691311   0.0505852  )
        21           O   tau(  21) = (   0.4972200   0.2428697   0.0505852  )
        22           O   tau(  22) = (   0.5027800   0.8096533   0.9518948  )
        23           O   tau(  23) = (   0.0027800   0.2833918   0.5518251  )
        24           O   tau(  24) = (   0.9972200   0.7691311   0.4506548  )
        25           O   tau(  25) = (   0.6995400   0.2587101   0.7476295  )
        26           O   tau(  26) = (   0.3004600   0.7938128   0.2548505  )
        27           O   tau(  27) = (   0.8004600   0.2675513   0.2463895  )
        28           O   tau(  28) = (   0.1995400   0.7849716   0.7560905  )
        29           O   tau(  29) = (   0.3004600   0.2587101   0.7560905  )
        30           O   tau(  30) = (   0.6995400   0.7938128   0.2463895  )
        31           O   tau(  31) = (   0.1995400   0.2675513   0.2548505  )
        32           O   tau(  32) = (   0.8004600   0.7849716   0.7476295  )

     number of k points=    64  gaussian smearing, width (Ry)=  0.0007
                       cart. coord. in units 2pi/alat
        k(    1) = (   0.0000000   0.0000000   0.0000000), wk =   0.0092593
        k(    2) = (   0.0000000   0.0000000   0.1662544), wk =   0.0185185
        k(    3) = (   0.0000000   0.0000000   0.3325087), wk =   0.0185185
        k(    4) = (   0.0000000   0.0000000  -0.4987631), wk =   0.0092593
        k(    5) = (   0.0000000   0.1583497   0.0000000), wk =   0.0185185
        k(    6) = (   0.0000000   0.1583497   0.1662544), wk =   0.0370370
        k(    7) = (   0.0000000   0.1583497   0.3325087), wk =   0.0370370
        k(    8) = (   0.0000000   0.1583497  -0.4987631), wk =   0.0185185
        k(    9) = (   0.0000000   0.3166994   0.0000000), wk =   0.0185185
        k(   10) = (   0.0000000   0.3166994   0.1662544), wk =   0.0370370
        k(   11) = (   0.0000000   0.3166994   0.3325087), wk =   0.0370370
        k(   12) = (   0.0000000   0.3166994  -0.4987631), wk =   0.0185185
        k(   13) = (   0.0000000  -0.4750490   0.0000000), wk =   0.0092593
        k(   14) = (   0.0000000  -0.4750490   0.1662544), wk =   0.0185185
        k(   15) = (   0.0000000  -0.4750490   0.3325087), wk =   0.0185185
        k(   16) = (   0.0000000  -0.4750490  -0.4987631), wk =   0.0092593
        k(   17) = (   0.1666667   0.0000000   0.0000000), wk =   0.0185185
        k(   18) = (   0.1666667   0.0000000   0.1662544), wk =   0.0370370
        k(   19) = (   0.1666667   0.0000000   0.3325087), wk =   0.0370370
        k(   20) = (   0.1666667   0.0000000  -0.4987631), wk =   0.0185185
        k(   21) = (   0.1666667   0.1583497   0.0000000), wk =   0.0370370
        k(   22) = (   0.1666667   0.1583497   0.1662544), wk =   0.0740741
        k(   23) = (   0.1666667   0.1583497   0.3325087), wk =   0.0740741
        k(   24) = (   0.1666667   0.1583497  -0.4987631), wk =   0.0370370
        k(   25) = (   0.1666667   0.3166994   0.0000000), wk =   0.0370370
        k(   26) = (   0.1666667   0.3166994   0.1662544), wk =   0.0740741
        k(   27) = (   0.1666667   0.3166994   0.3325087), wk =   0.0740741
        k(   28) = (   0.1666667   0.3166994  -0.4987631), wk =   0.0370370
        k(   29) = (   0.1666667  -0.4750490   0.0000000), wk =   0.0185185
        k(   30) = (   0.1666667  -0.4750490   0.1662544), wk =   0.0370370
        k(   31) = (   0.1666667  -0.4750490   0.3325087), wk =   0.0370370
        k(   32) = (   0.1666667  -0.4750490  -0.4987631), wk =   0.0185185
        k(   33) = (   0.3333333   0.0000000   0.0000000), wk =   0.0185185
        k(   34) = (   0.3333333   0.0000000   0.1662544), wk =   0.0370370
        k(   35) = (   0.3333333   0.0000000   0.3325087), wk =   0.0370370
        k(   36) = (   0.3333333   0.0000000  -0.4987631), wk =   0.0185185
        k(   37) = (   0.3333333   0.1583497   0.0000000), wk =   0.0370370
        k(   38) = (   0.3333333   0.1583497   0.1662544), wk =   0.0740741
        k(   39) = (   0.3333333   0.1583497   0.3325087), wk =   0.0740741
        k(   40) = (   0.3333333   0.1583497  -0.4987631), wk =   0.0370370
        k(   41) = (   0.3333333   0.3166994   0.0000000), wk =   0.0370370
        k(   42) = (   0.3333333   0.3166994   0.1662544), wk =   0.0740741
        k(   43) = (   0.3333333   0.3166994   0.3325087), wk =   0.0740741
        k(   44) = (   0.3333333   0.3166994  -0.4987631), wk =   0.0370370
        k(   45) = (   0.3333333  -0.4750490   0.0000000), wk =   0.0185185
        k(   46) = (   0.3333333  -0.4750490   0.1662544), wk =   0.0370370
        k(   47) = (   0.3333333  -0.4750490   0.3325087), wk =   0.0370370
        k(   48) = (   0.3333333  -0.4750490  -0.4987631), wk =   0.0185185
        k(   49) = (  -0.5000000   0.0000000   0.0000000), wk =   0.0092593
        k(   50) = (  -0.5000000   0.0000000   0.1662544), wk =   0.0185185
        k(   51) = (  -0.5000000   0.0000000   0.3325087), wk =   0.0185185
        k(   52) = (  -0.5000000   0.0000000  -0.4987631), wk =   0.0092593
        k(   53) = (  -0.5000000   0.1583497   0.0000000), wk =   0.0185185
        k(   54) = (  -0.5000000   0.1583497   0.1662544), wk =   0.0370370
        k(   55) = (  -0.5000000   0.1583497   0.3325087), wk =   0.0370370
        k(   56) = (  -0.5000000   0.1583497  -0.4987631), wk =   0.0185185
        k(   57) = (  -0.5000000   0.3166994   0.0000000), wk =   0.0185185
        k(   58) = (  -0.5000000   0.3166994   0.1662544), wk =   0.0370370
        k(   59) = (  -0.5000000   0.3166994   0.3325087), wk =   0.0370370
        k(   60) = (  -0.5000000   0.3166994  -0.4987631), wk =   0.0185185
        k(   61) = (  -0.5000000  -0.4750490   0.0000000), wk =   0.0092593
        k(   62) = (  -0.5000000  -0.4750490   0.1662544), wk =   0.0185185
        k(   63) = (  -0.5000000  -0.4750490   0.3325087), wk =   0.0185185
        k(   64) = (  -0.5000000  -0.4750490  -0.4987631), wk =   0.0092593

     Dense  grid:   495977 G-vectors     FFT dimensions: ( 100, 108, 100)

     Estimated max dynamical RAM per process >       3.11 GB

     Estimated total dynamical RAM >     124.55 GB

     Initial potential from superposition of free atoms

     starting charge  367.99656, renormalised to  368.20000
     Starting wfc are  232 randomized atomic wfcs

     total cpu time spent up to now is       37.2 secs

     Self-consistent Calculation

     iteration #  1     ecut=   120.00 Ry     beta= 0.70
     Davidson diagonalization with overlap
     ethr =  1.00E-02,  avg # of iterations =  5.0

     total cpu time spent up to now is      167.6 secs

     total energy              =   -6253.82755578 Ry
     Harris-Foulkes estimate   =   -6264.46176230 Ry
     estimated scf accuracy    <      13.44392846 Ry

     iteration #  2     ecut=   120.00 Ry     beta= 0.70
     Davidson diagonalization with overlap
     ethr =  3.65E-03,  avg # of iterations =  3.5

     total cpu time spent up to now is      293.3 secs

     total energy              =   -6250.70554141 Ry
     Harris-Foulkes estimate   =   -6270.60203558 Ry
     estimated scf accuracy    <      53.31855361 Ry

     iteration #  3     ecut=   120.00 Ry     beta= 0.70
     Davidson diagonalization with overlap
     ethr =  3.65E-03,  avg # of iterations =  3.4

     total cpu time spent up to now is      413.3 secs

     total energy              =   -6260.94958048 Ry
     Harris-Foulkes estimate   =   -6261.23465198 Ry
     estimated scf accuracy    <       0.93191659 Ry

     iteration #  4     ecut=   120.00 Ry     beta= 0.70
     Davidson diagonalization with overlap
     ethr =  2.53E-04,  avg # of iterations =  2.6

     total cpu time spent up to now is      513.0 secs

     total energy              =   -6260.95570459 Ry
     Harris-Foulkes estimate   =   -6261.02557833 Ry
     estimated scf accuracy    <       0.23048870 Ry

     iteration #  5     ecut=   120.00 Ry     beta= 0.70
     Davidson diagonalization with overlap
     ethr =  6.26E-05,  avg # of iterations =  5.1

     total cpu time spent up to now is      625.0 secs

     total energy              =   -6260.95325843 Ry
     Harris-Foulkes estimate   =   -6260.98617901 Ry
     estimated scf accuracy    <       0.07219903 Ry

     iteration #  6     ecut=   120.00 Ry     beta= 0.70
     Davidson diagonalization with overlap
     ethr =  1.96E-05,  avg # of iterations =  5.1

     total cpu time spent up to now is      738.5 secs

     total energy              =   -6260.96923522 Ry
     Harris-Foulkes estimate   =   -6260.97139964 Ry
     estimated scf accuracy    <       0.00581679 Ry

     iteration #  7     ecut=   120.00 Ry     beta= 0.70
     Davidson diagonalization with overlap
     ethr =  1.58E-06,  avg # of iterations =  5.0

     total cpu time spent up to now is      849.2 secs

     total energy              =   -6260.96995542 Ry
     Harris-Foulkes estimate   =   -6260.97004533 Ry
     estimated scf accuracy    <       0.00017749 Ry

     iteration #  8     ecut=   120.00 Ry     beta= 0.70
     Davidson diagonalization with overlap
     ethr =  4.82E-08,  avg # of iterations =  3.2

     total cpu time spent up to now is      975.0 secs

     total energy              =   -6260.97001987 Ry
     Harris-Foulkes estimate   =   -6260.97002520 Ry
     estimated scf accuracy    <       0.00002317 Ry

     iteration #  9     ecut=   120.00 Ry     beta= 0.70
     Davidson diagonalization with overlap
     ethr =  6.29E-09,  avg # of iterations =  2.0

     total cpu time spent up to now is     1075.8 secs

     total energy              =   -6260.97001823 Ry
     Harris-Foulkes estimate   =   -6260.97002169 Ry
     estimated scf accuracy    <       0.00001127 Ry

     iteration # 10     ecut=   120.00 Ry     beta= 0.70
     Davidson diagonalization with overlap
     ethr =  3.06E-09,  avg # of iterations =  2.0

     total cpu time spent up to now is     1174.1 secs

     total energy              =   -6260.97001875 Ry
     Harris-Foulkes estimate   =   -6260.97001949 Ry
     estimated scf accuracy    <       0.00000176 Ry

     iteration # 11     ecut=   120.00 Ry     beta= 0.70
     Davidson diagonalization with overlap
     ethr =  4.77E-10,  avg # of iterations =  2.9

     total cpu time spent up to now is     1281.4 secs

     total energy              =   -6260.97001915 Ry
     Harris-Foulkes estimate   =   -6260.97001919 Ry
     estimated scf accuracy    <       0.00000011 Ry

     iteration # 12     ecut=   120.00 Ry     beta= 0.70
     Davidson diagonalization with overlap
     ethr =  2.91E-11,  avg # of iterations =  2.0

     total cpu time spent up to now is     1388.8 secs

     total energy              =   -6260.97001915 Ry
     Harris-Foulkes estimate   =   -6260.97001916 Ry
     estimated scf accuracy    <       0.00000002 Ry

     iteration # 13     ecut=   120.00 Ry     beta= 0.70
     Davidson diagonalization with overlap
     ethr =  6.18E-12,  avg # of iterations =  2.7

     total cpu time spent up to now is     1509.3 secs

     End of self-consistent calculation

          k = 0.0000 0.0000 0.0000 ( 61975 PWs)   bands (ev):

   -66.0387 -66.0383 -66.0378 -66.0377 -66.0373 -66.0373 -66.0367 -66.0363
   -30.4519 -30.4466 -30.4456 -30.4405 -30.4079 -30.3995 -30.3989 -30.3948
   -30.3937 -30.3832 -30.3811 -30.3808 -30.3794 -30.3722 -30.3643 -30.3596
   -30.2935 -30.2931 -30.2920 -30.2913 -30.2881 -30.2838 -30.2815 -30.2778
   -20.1943 -20.1942 -20.1942 -20.1940 -20.1940 -20.1939 -20.1938 -20.1937
   -20.1794 -20.1791 -20.1790 -20.1787 -20.1758 -20.1754 -20.1754 -20.1748
   -20.1745 -20.1741 -20.1740 -20.1736 -20.1730 -20.1725 -20.1725 -20.1721
   -20.1718 -20.1716 -20.1715 -20.1714 -20.1710 -20.1707 -20.1706 -20.1706
   -20.1628 -20.1625 -20.1624 -20.1621 -20.1583 -20.1580 -20.1580 -20.1577
   -20.1574 -20.1574 -20.1563 -20.1562 -20.1508 -20.1508 -20.1507 -20.1505
   -20.1493 -20.1492 -20.1490 -20.1487 -20.1467 -20.1467 -20.1454 -20.1454
    -9.8686  -9.5755  -9.4227  -9.4223  -9.1450  -9.1281  -8.9946  -8.9408
    -8.9258  -8.7937  -8.7607  -8.7581  -7.8026  -7.7249  -7.7210  -7.7048
    -7.6954  -7.6881  -7.6848  -7.6504  -7.5690  -7.5567  -7.5425  -7.5376
     1.3281   1.3327   1.3970   1.4080   1.4165   1.4453   1.4752   1.7111
     1.7115   1.7383   1.7537   1.9673   2.4690   2.5521   2.6406   2.6587
     2.7869   2.8175   4.1976   4.2410   4.4295   4.5129   4.8145   4.8766
     4.9088   4.9093   4.9141   4.9261   5.1358   5.1462   5.2279   5.4889
     5.5560   5.5633   5.6213   5.6295   5.6523   5.6900   5.7686   5.8759
     5.9336   5.9386   5.9420   5.9426   6.0436   6.0539   6.0918   6.1806
     6.1965   6.2972   6.3304   6.6159   6.6306   6.8634   6.8963   6.9088
     6.9376   6.9544   7.0179   7.0604   7.0940   7.1340   7.3771   7.4217
     7.4304   7.4721   7.8258   7.8430   8.0804   8.1459   8.1598   8.2235
     9.5261   9.5353  10.1342  10.1616  10.1635  10.1942  12.3147  12.3149
    12.4179  12.4355  12.5031  12.5035  12.6446  12.6882  12.7297  12.8904
    13.3156  13.3718  13.4104  13.4717  13.7764  13.9695  14.2004  14.2050
    14.4252  14.5166  14.7121  14.9872  15.5071  15.5292  15.6056  16.0861
    16.1357  16.8585  17.0586  17.1243  17.6125

          k = 0.0000 0.0000 0.1663 ( 61979 PWs)   bands (ev):

   -66.0387 -66.0382 -66.0378 -66.0376 -66.0374 -66.0372 -66.0368 -66.0364
   -30.4516 -30.4470 -30.4453 -30.4409 -30.4061 -30.3993 -30.3962 -30.3908
   -30.3904 -30.3816 -30.3812 -30.3778 -30.3752 -30.3692 -30.3649 -30.3581
   -30.3002 -30.2988 -30.2982 -30.2963 -30.2878 -30.2835 -30.2828 -30.2787
   -20.1943 -20.1942 -20.1942 -20.1940 -20.1940 -20.1939 -20.1938 -20.1937
   -20.1793 -20.1791 -20.1790 -20.1787 -20.1758 -20.1754 -20.1753 -20.1749
   -20.1745 -20.1741 -20.1741 -20.1736 -20.1730 -20.1726 -20.1725 -20.1722
   -20.1718 -20.1714 -20.1713 -20.1713 -20.1710 -20.1707 -20.1707 -20.1706
   -20.1628 -20.1625 -20.1624 -20.1622 -20.1584 -20.1581 -20.1580 -20.1577
   -20.1568 -20.1568 -20.1558 -20.1558 -20.1512 -20.1511 -20.1506 -20.1504
   -20.1498 -20.1497 -20.1492 -20.1489 -20.1466 -20.1466 -20.1455 -20.1454
    -9.8220  -9.5210  -9.4400  -9.3624  -9.1431  -9.0573  -9.0034  -8.9026
    -8.8865  -8.7828  -8.7627  -8.7307  -7.8424  -7.8413  -7.7759  -7.7250
    -7.7100  -7.6976  -7.6846  -7.6721  -7.6589  -7.6537  -7.5659  -7.5471
     1.4083   1.4171   1.4260   1.4504   1.5442   1.5746   1.6621   1.7044
     1.7325   1.7896   1.9117   2.0799   2.5573   2.6425   2.6505   2.7461
     2.7787   2.9042   4.1606   4.1966   4.4466   4.4562   4.4984   4.5343
     4.7264   4.8034   4.9073   4.9542   4.9689   5.1413   5.2238   5.3892
     5.3979   5.5169   5.5662   5.6335   5.6480   5.6971   5.7186   5.7715
     5.7920   5.8162   5.9178   5.9874   6.0502   6.0781   6.1976   6.2181
     6.2603   6.4633   6.5386   6.6192   6.7367   6.7827   6.8714   6.8755
     6.8992   6.9463   7.0018   7.0566   7.0597   7.1385   7.2095   7.2232
     7.2520   7.3145   7.8464   7.8516   8.0971   8.1162   8.1494   8.1798
     9.8368   9.8405  10.1581  10.1596  10.4061  10.4618  12.2552  12.3362
    12.3716  12.4576  12.4816  12.5328  12.6917  12.7366  12.7954  12.9010
    13.1480  13.3622  13.3675  13.4149  13.8594  13.9683  14.0661  14.0901
    14.4518  14.6338  14.7069  15.0962  15.5338  15.5722  15.5805  16.1070
    16.3811  16.8687  17.0255  17.2391  17.9417

          k = 0.0000 0.0000 0.3325 ( 62002 PWs)   bands (ev):

   -66.0385 -66.0380 -66.0380 -66.0376 -66.0375 -66.0370 -66.0370 -66.0365
   -30.4506 -30.4480 -30.4444 -30.4418 -30.4036 -30.4003 -30.3899 -30.3863
   -30.3830 -30.3823 -30.3801 -30.3668 -30.3627 -30.3591 -30.3581 -30.3515
   -30.3171 -30.3163 -30.3140 -30.3127 -30.2870 -30.2844 -30.2827 -30.2802
   -20.1943 -20.1941 -20.1941 -20.1941 -20.1939 -20.1939 -20.1939 -20.1938
   -20.1793 -20.1792 -20.1789 -20.1788 -20.1757 -20.1755 -20.1752 -20.1750
   -20.1745 -20.1742 -20.1741 -20.1738 -20.1730 -20.1728 -20.1726 -20.1724
   -20.1715 -20.1712 -20.1711 -20.1711 -20.1711 -20.1708 -20.1708 -20.1707
   -20.1627 -20.1626 -20.1624 -20.1622 -20.1584 -20.1581 -20.1580 -20.1578
   -20.1555 -20.1555 -20.1546 -20.1546 -20.1522 -20.1522 -20.1512 -20.1510
   -20.1504 -20.1502 -20.1496 -20.1494 -20.1464 -20.1463 -20.1458 -20.1457
    -9.7082  -9.4932  -9.3933  -9.2228  -9.1888  -9.0334  -8.8258  -8.8082
    -8.7753  -8.7472  -8.7021  -8.6145  -8.1321  -8.1305  -8.0265  -8.0072
    -7.7641  -7.7360  -7.6855  -7.6626  -7.6597  -7.6465  -7.5910  -7.5731
     1.4196   1.4262   1.4646   1.4866   1.6571   1.6753   1.6891   1.7215
     2.3430   2.3830   2.5307   2.6182   2.6738   2.7708   2.8098   2.9087
     2.9845   3.1364   3.8116   3.9265   3.9316   4.0206   4.2450   4.3425
     4.4397   4.6070   4.6592   4.7685   4.8332   4.8901   5.0199   5.1713
     5.2395   5.2759   5.3070   5.4188   5.5383   5.5662   5.6908   5.7708
     5.8077   5.8454   5.8961   6.0351   6.0833   6.2253   6.2360   6.3347
     6.3803   6.4691   6.5766   6.5788   6.6297   6.6442   6.6507   6.8568
     6.8955   6.9355   6.9499   7.0381   7.0816   7.1361   7.1463   7.2183
     7.3599   7.4240   7.8006   7.8145   7.9760   8.0409   8.1315   8.1523
    10.0990  10.1467  10.5097  10.6142  10.9963  11.1026  11.9137  11.9869
    12.2232  12.5171  12.5587  12.6251  12.6830  12.7131  12.8226  12.8479
    12.9860  13.1842  13.2514  13.4398  13.7463  13.7988  13.9582  13.9664
    14.5577  14.6894  14.9446  15.3775  15.4642  15.6732  15.9617  16.0193
    16.3425  17.2020  17.4556  17.5556  17.7935

          k = 0.0000 0.0000-0.4988 ( 61956 PWs)   bands (ev):

   -66.0382 -66.0382 -66.0378 -66.0378 -66.0372 -66.0372 -66.0368 -66.0368
   -30.4493 -30.4493 -30.4431 -30.4431 -30.4017 -30.4017 -30.3855 -30.3855
   -30.3840 -30.3840 -30.3711 -30.3711 -30.3399 -30.3398 -30.3389 -30.3389
   -30.3359 -30.3359 -30.3351 -30.3351 -30.2858 -30.2858 -30.2815 -30.2815
   -20.1942 -20.1942 -20.1940 -20.1940 -20.1940 -20.1940 -20.1939 -20.1939
   -20.1792 -20.1792 -20.1789 -20.1789 -20.1756 -20.1756 -20.1751 -20.1751
   -20.1744 -20.1743 -20.1739 -20.1739 -20.1730 -20.1730 -20.1726 -20.1726
   -20.1713 -20.1713 -20.1709 -20.1709 -20.1709 -20.1709 -20.1709 -20.1709
   -20.1627 -20.1627 -20.1623 -20.1623 -20.1583 -20.1583 -20.1579 -20.1579
   -20.1538 -20.1538 -20.1538 -20.1538 -20.1529 -20.1529 -20.1528 -20.1528
   -20.1500 -20.1500 -20.1498 -20.1498 -20.1461 -20.1461 -20.1460 -20.1460
    -9.5851  -9.5851  -9.2703  -9.2703  -9.0995  -9.0995  -8.7938  -8.7938
    -8.4829  -8.4829  -8.4589  -8.4589  -8.4346  -8.4346  -8.3600  -8.3600
    -7.7510  -7.7510  -7.6745  -7.6745  -7.6254  -7.6254  -7.6094  -7.6094
     1.4238   1.4238   1.4821   1.4821   1.6739   1.6739   1.7096   1.7096
     2.7042   2.7042   3.0570   3.0570   3.1952   3.1952   3.2053   3.2053
     3.3654   3.3654   3.3684   3.3684   3.5790   3.5790   3.8504   3.8504
     3.9595   3.9596   4.5884   4.5884   4.7279   4.7279   5.0430   5.0430
     5.3074   5.3074   5.4210   5.4210   5.4257   5.4257   5.7335   5.7335
     5.8634   5.8634   6.0293   6.0293   6.1931   6.1931   6.3263   6.3263
     6.3442   6.3442   6.4695   6.4695   6.5693   6.5693   6.6379   6.6379
     6.8476   6.8476   6.9386   6.9386   7.1127   7.1127   7.5587   7.5587
     7.6043   7.6043   7.7266   7.7267   7.7912   7.7912   8.1487   8.1487
    10.1282  10.1282  11.2662  11.2662  11.3618  11.3618  11.6792  11.6792
    11.8682  11.8682  12.6979  12.6979  12.7246  12.7246  12.9110  12.9110
    12.9743  12.9743  13.3562  13.3563  13.5356  13.5356  13.9677  13.9677
    14.6491  14.6491  15.2586  15.2586  15.8040  15.8040  15.8692  15.8692
    16.7161  16.7161  17.9362  17.9362  18.2423

          k = 0.0000 0.1583 0.0000 ( 62003 PWs)   bands (ev):

   -66.0387 -66.0383 -66.0377 -66.0377 -66.0373 -66.0373 -66.0367 -66.0363
   -30.4483 -30.4429 -30.4417 -30.4365 -30.4097 -30.4012 -30.4008 -30.3948
   -30.3937 -30.3850 -30.3832 -30.3802 -30.3788 -30.3745 -30.3664 -30.3620
   -30.2934 -30.2930 -30.2922 -30.2914 -30.2878 -30.2842 -30.2813 -30.2781
   -20.1943 -20.1942 -20.1942 -20.1940 -20.1940 -20.1938 -20.1938 -20.1937
   -20.1791 -20.1788 -20.1787 -20.1784 -20.1760 -20.1756 -20.1755 -20.1750
   -20.1744 -20.1740 -20.1739 -20.1735 -20.1730 -20.1725 -20.1725 -20.1721
   -20.1719 -20.1718 -20.1717 -20.1715 -20.1710 -20.1709 -20.1708 -20.1707
   -20.1627 -20.1624 -20.1624 -20.1622 -20.1583 -20.1580 -20.1580 -20.1577
   -20.1574 -20.1574 -20.1563 -20.1563 -20.1508 -20.1508 -20.1507 -20.1505
   -20.1493 -20.1492 -20.1490 -20.1487 -20.1467 -20.1467 -20.1454 -20.1454
    -9.8390  -9.5875  -9.3857  -9.3844  -9.1526  -9.1363  -8.9398  -8.9268
    -8.9204  -8.7472  -8.7220  -8.7200  -7.8801  -7.8172  -7.8036  -7.7580
    -7.7236  -7.7121  -7.6894  -7.6865  -7.5675  -7.5591  -7.5459  -7.5395
     1.3282   1.3321   1.4045   1.4082   1.4313   1.4452   1.6029   1.7528
     1.8939   1.9397   1.9631   2.1308   2.4749   2.5462   2.7134   2.7342
     2.8554   2.8902   4.0634   4.1153   4.1635   4.2307   4.7522   4.8646
     4.8925   4.9215   4.9217   4.9697   5.0774   5.0827   5.1270   5.3727
     5.4094   5.5784   5.5837   5.6603   5.6958   5.7169   5.7399   5.7835
     5.8520   5.8846   5.9584   5.9850   5.9925   6.0649   6.0963   6.1778
     6.1879   6.2841   6.3438   6.6348   6.6656   6.8487   6.9005   6.9081
     6.9522   6.9687   6.9726   7.0353   7.0414   7.0578   7.3873   7.4169
     7.4443   7.4701   7.8288   7.8416   8.0534   8.0861   8.1190   8.1429
     9.5327   9.5366  10.3331  10.3403  10.3454  10.3462  12.2176  12.2924
    12.4203  12.4246  12.4513  12.4837  12.4848  12.5244  12.7483  12.8886
    13.3416  13.3958  13.4076  13.4594  13.9257  13.9656  14.1041  14.1121
    14.4967  14.7821  14.8868  15.1528  15.5061  15.5250  16.0039  16.0577
    16.1013  16.5823  17.1945  17.2592  17.6232

          k = 0.0000 0.1583 0.1663 ( 61997 PWs)   bands (ev):

   -66.0386 -66.0383 -66.0378 -66.0376 -66.0374 -66.0372 -66.0368 -66.0364
   -30.4479 -30.4432 -30.4414 -30.4369 -30.4082 -30.4015 -30.3981 -30.3907
   -30.3904 -30.3855 -30.3806 -30.3777 -30.3748 -30.3711 -30.3669 -30.3603
   -30.3002 -30.2989 -30.2981 -30.2965 -30.2875 -30.2839 -30.2826 -30.2790
   -20.1943 -20.1942 -20.1942 -20.1940 -20.1940 -20.1939 -20.1938 -20.1937
   -20.1791 -20.1788 -20.1787 -20.1784 -20.1760 -20.1756 -20.1755 -20.1751
   -20.1744 -20.1740 -20.1740 -20.1735 -20.1730 -20.1726 -20.1726 -20.1722
   -20.1718 -20.1716 -20.1715 -20.1714 -20.1711 -20.1709 -20.1708 -20.1707
   -20.1627 -20.1625 -20.1624 -20.1622 -20.1584 -20.1581 -20.1580 -20.1577
   -20.1568 -20.1568 -20.1558 -20.1558 -20.1512 -20.1511 -20.1506 -20.1505
   -20.1498 -20.1497 -20.1492 -20.1489 -20.1466 -20.1466 -20.1455 -20.1455
    -9.7912  -9.5331  -9.4019  -9.3214  -9.1515  -9.0650  -8.9291  -8.9012
    -8.8875  -8.7378  -8.7249  -8.6961  -7.8888  -7.8398  -7.8374  -7.8109
    -7.7868  -7.7664  -7.6965  -7.6942  -7.6737  -7.6669  -7.5684  -7.5490
     1.4214   1.4259   1.4347   1.4503   1.6317   1.6622   1.6962   1.9011
     1.9109   1.9578   1.9616   2.1900   2.5641   2.6371   2.7222   2.8232
     2.8477   2.9763   4.0730   4.0747   4.2068   4.2189   4.4713   4.5282
     4.7380   4.7677   4.8305   4.9427   4.9653   5.0855   5.1249   5.3057
     5.3364   5.3964   5.4796   5.5772   5.6338   5.6691   5.7237   5.7850
     5.8123   5.8192   5.9216   5.9225   5.9352   6.1054   6.1716   6.2335
     6.2529   6.4200   6.5308   6.6487   6.7826   6.8312   6.8799   6.8842
     6.8991   6.9662   6.9930   7.0166   7.0615   7.0726   7.2121   7.2260
     7.2724   7.3129   7.8477   7.8503   8.0579   8.0780   8.0908   8.1049
     9.8466   9.8547  10.3379  10.3474  10.5561  10.5917  12.2392  12.2827
    12.3443  12.3849  12.4731  12.4955  12.5287  12.6127  12.8152  12.9062
    13.1654  13.3483  13.3845  13.4094  13.9619  13.9663  13.9665  13.9981
    14.5712  14.8702  14.9330  15.2458  15.5311  15.5800  15.9711  16.0729
    16.3509  16.7413  16.9956  17.3553  17.6845

          k = 0.0000 0.1583 0.3325 ( 61999 PWs)   bands (ev):

   -66.0385 -66.0381 -66.0380 -66.0376 -66.0374 -66.0370 -66.0369 -66.0366
   -30.4469 -30.4442 -30.4405 -30.4379 -30.4058 -30.4025 -30.3929 -30.3869
   -30.3859 -30.3818 -30.3805 -30.3688 -30.3627 -30.3591 -30.3590 -30.3530
   -30.3172 -30.3164 -30.3140 -30.3129 -30.2867 -30.2842 -30.2830 -30.2805
   -20.1942 -20.1941 -20.1941 -20.1941 -20.1939 -20.1939 -20.1939 -20.1938
   -20.1790 -20.1789 -20.1786 -20.1785 -20.1759 -20.1757 -20.1754 -20.1751
   -20.1744 -20.1741 -20.1740 -20.1737 -20.1731 -20.1728 -20.1727 -20.1724
   -20.1716 -20.1713 -20.1712 -20.1712 -20.1712 -20.1709 -20.1708 -20.1708
   -20.1627 -20.1626 -20.1624 -20.1623 -20.1584 -20.1581 -20.1581 -20.1578
   -20.1555 -20.1555 -20.1546 -20.1546 -20.1522 -20.1522 -20.1511 -20.1511
   -20.1503 -20.1502 -20.1496 -20.1494 -20.1464 -20.1463 -20.1458 -20.1457
    -9.6745  -9.4557  -9.4050  -9.1979  -9.1679  -8.9598  -8.8161  -8.8067
    -8.7488  -8.7375  -8.6776  -8.5938  -8.1381  -8.1284  -8.0411  -8.0051
    -7.8473  -7.8258  -7.7854  -7.7605  -7.6669  -7.6485  -7.5943  -7.5750
     1.4438   1.4622   1.4645   1.4863   1.8395   1.8618   1.9346   1.9542
     2.3418   2.3934   2.5332   2.6361   2.7455   2.8199   2.8319   2.9065
     3.0625   3.2012   3.8150   3.9159   3.9329   3.9708   4.2096   4.2292
     4.3043   4.4808   4.6265   4.6848   4.7925   4.8484   4.8893   5.0452
     5.1122   5.2424   5.2676   5.2701   5.5022   5.5028   5.5855   5.7231
     5.7785   5.8532   5.8609   5.9115   6.0047   6.1960   6.2427   6.2488
     6.4191   6.5730   6.6078   6.6403   6.6435   6.7319   6.8007   6.8392
     6.9022   6.9231   6.9996   7.0042   7.0505   7.0888   7.1799   7.2094
     7.3601   7.4157   7.8017   7.8129   7.9450   7.9836   8.0776   8.0941
    10.2869  10.3343  10.5197  10.6276  11.1018  11.1860  11.9147  11.9845
    12.2105  12.4854  12.5375  12.5973  12.5997  12.6460  12.7825  12.8386
    12.8721  13.1736  13.2419  13.4242  13.6409  13.7211  13.9651  13.9846
    14.7365  14.8594  15.2837  15.5020  15.6605  15.8578  15.9872  15.9882
    16.4700  17.1620  17.2259  17.5075  17.8817

          k = 0.0000 0.1583-0.4988 ( 61982 PWs)   bands (ev):

   -66.0382 -66.0382 -66.0378 -66.0378 -66.0372 -66.0372 -66.0368 -66.0368
   -30.4455 -30.4455 -30.4392 -30.4392 -30.4040 -30.4040 -30.3891 -30.3891
   -30.3835 -30.3835 -30.3725 -30.3725 -30.3399 -30.3399 -30.3392 -30.3392
   -30.3360 -30.3360 -30.3355 -30.3355 -30.2855 -30.2855 -30.2819 -30.2819
   -20.1941 -20.1941 -20.1940 -20.1940 -20.1940 -20.1940 -20.1939 -20.1939
   -20.1789 -20.1789 -20.1786 -20.1786 -20.1758 -20.1758 -20.1753 -20.1753
   -20.1743 -20.1743 -20.1739 -20.1739 -20.1730 -20.1730 -20.1726 -20.1726
   -20.1713 -20.1713 -20.1711 -20.1711 -20.1710 -20.1710 -20.1710 -20.1710
   -20.1626 -20.1626 -20.1623 -20.1623 -20.1583 -20.1583 -20.1580 -20.1580
   -20.1538 -20.1538 -20.1538 -20.1538 -20.1529 -20.1529 -20.1528 -20.1528
   -20.1500 -20.1500 -20.1498 -20.1498 -20.1461 -20.1461 -20.1460 -20.1460
    -9.5488  -9.5488  -9.2807  -9.2807  -9.0305  -9.0305  -8.7582  -8.7582
    -8.4866  -8.4866  -8.4535  -8.4534  -8.4433  -8.4433  -8.3534  -8.3534
    -7.8392  -7.8392  -7.7746  -7.7746  -7.6303  -7.6303  -7.6113  -7.6113
     1.4565   1.4565   1.4819   1.4819   1.8632   1.8632   1.9514   1.9514
     2.7724   2.7724   3.0731   3.0731   3.1879   3.1879   3.2396   3.2396
     3.3619   3.3619   3.3886   3.3886   3.5684   3.5684   3.8566   3.8566
     4.0107   4.0107   4.3746   4.3746   4.6226   4.6226   4.8616   4.8616
     5.1635   5.1635   5.3903   5.3903   5.4105   5.4105   5.6097   5.6097
     5.8038   5.8038   5.8881   5.8881   6.1862   6.1862   6.3430   6.3430
     6.4071   6.4071   6.5002   6.5002   6.6267   6.6267   6.7435   6.7435
     6.9096   6.9096   6.9517   6.9517   7.0394   7.0394   7.5655   7.5655
     7.5997   7.5997   7.7071   7.7071   7.7603   7.7603   8.0906   8.0906
    10.3236  10.3236  11.2727  11.2727  11.3605  11.3605  11.7439  11.7439
    11.9234  11.9234  12.5874  12.5874  12.6952  12.6952  12.9095  12.9095
    12.9131  12.9131  13.2487  13.2487  13.4955  13.4955  13.9706  13.9706
    14.8245  14.8245  15.6242  15.6242  15.8435  15.8435  15.9435  15.9435
    16.7598  16.7598  17.7400  17.7401  18.2067

          k = 0.0000 0.3167 0.0000 ( 61961 PWs)   bands (ev):

   -66.0386 -66.0384 -66.0377 -66.0376 -66.0374 -66.0374 -66.0366 -66.0364
   -30.4386 -30.4328 -30.4314 -30.4256 -30.4159 -30.4081 -30.4067 -30.3960
   -30.3945 -30.3940 -30.3831 -30.3791 -30.3786 -30.3768 -30.3711 -30.3675
   -30.2933 -30.2926 -30.2925 -30.2917 -30.2871 -30.2850 -30.2808 -30.2789
   -20.1943 -20.1942 -20.1941 -20.1941 -20.1939 -20.1938 -20.1938 -20.1937
   -20.1783 -20.1780 -20.1779 -20.1776 -20.1765 -20.1761 -20.1760 -20.1756
   -20.1741 -20.1737 -20.1736 -20.1732 -20.1731 -20.1727 -20.1727 -20.1723
   -20.1722 -20.1720 -20.1719 -20.1716 -20.1712 -20.1711 -20.1710 -20.1708
   -20.1627 -20.1625 -20.1624 -20.1622 -20.1582 -20.1581 -20.1579 -20.1578
   -20.1574 -20.1574 -20.1563 -20.1563 -20.1508 -20.1508 -20.1506 -20.1506
   -20.1493 -20.1493 -20.1489 -20.1488 -20.1467 -20.1467 -20.1454 -20.1454
    -9.7665  -9.6242  -9.3029  -9.2971  -9.1774  -9.1630  -8.9370  -8.9295
    -8.7108  -8.6024  -8.5931  -8.5893  -8.1131  -8.0661  -8.0554  -8.0317
    -7.7205  -7.7184  -7.6922  -7.6905  -7.5634  -7.5572  -7.5515  -7.5446
     1.3286   1.3308   1.4087   1.4088   1.4414   1.4450   1.7143   1.7499
     2.4375   2.4925   2.5305   2.5731   2.6061   2.7550   2.9253   2.9699
     3.0533   3.1145   3.6870   3.7173   3.7552   3.7845   4.2131   4.5332
     4.5861   4.8331   4.8577   4.8970   4.9284   4.9650   5.1374   5.1404
     5.1709   5.1802   5.4782   5.5037   5.6613   5.6717   5.7615   5.7934
     5.9321   5.9379   5.9527   5.9611   6.0582   6.0803   6.1147   6.1902
     6.2070   6.2516   6.3374   6.5808   6.6927   6.7220   6.9060   6.9281
     6.9505   7.0204   7.1623   7.1636   7.1868   7.2009   7.4055   7.4129
     7.4620   7.4689   7.8151   7.8320   7.8984   7.9107   7.9137   7.9455
     9.5392   9.5394  10.7696  10.8114  10.8282  10.8417  11.8747  11.9735
    12.0534  12.0895  12.4013  12.4196  12.4694  12.4727  12.7921  12.8758
    13.4341  13.4542  13.4749  13.5022  13.8162  13.8552  13.8763  13.8908
    14.9335  15.3234  15.3513  15.5040  15.5163  15.7602  15.9588  15.9878
    16.0473  16.9816  17.3360  17.6629  17.7197

          k = 0.0000 0.3167 0.1663 ( 61954 PWs)   bands (ev):

   -66.0386 -66.0383 -66.0377 -66.0375 -66.0375 -66.0373 -66.0367 -66.0365
   -30.4381 -30.4331 -30.4310 -30.4260 -30.4148 -30.4085 -30.4051 -30.3964
   -30.3905 -30.3903 -30.3790 -30.3775 -30.3746 -30.3735 -30.3716 -30.3654
   -30.3000 -30.2992 -30.2978 -30.2968 -30.2868 -30.2847 -30.2820 -30.2799
   -20.1943 -20.1942 -20.1941 -20.1940 -20.1939 -20.1939 -20.1938 -20.1937
   -20.1783 -20.1780 -20.1779 -20.1776 -20.1765 -20.1762 -20.1760 -20.1756
   -20.1741 -20.1737 -20.1737 -20.1733 -20.1731 -20.1728 -20.1728 -20.1724
   -20.1720 -20.1719 -20.1718 -20.1715 -20.1712 -20.1712 -20.1710 -20.1708
   -20.1627 -20.1625 -20.1624 -20.1622 -20.1583 -20.1581 -20.1580 -20.1578
   -20.1568 -20.1568 -20.1558 -20.1558 -20.1512 -20.1511 -20.1506 -20.1505
   -20.1498 -20.1498 -20.1491 -20.1490 -20.1466 -20.1466 -20.1455 -20.1455
    -9.7160  -9.5702  -9.3146  -9.2279  -9.1789  -9.0905  -8.8981  -8.8903
    -8.7193  -8.5978  -8.5959  -8.5750  -8.1140  -8.0740  -8.0534  -8.0382
    -7.8354  -7.8208  -7.6965  -7.6942  -7.6771  -7.6741  -7.5667  -7.5540
     1.4255   1.4259   1.4460   1.4501   1.6572   1.6622   1.8622   1.9077
     2.4447   2.5588   2.5794   2.6030   2.6209   2.7506   2.9328   3.0463
     3.0638   3.2027   3.7166   3.7576   3.7739   3.7745   4.1964   4.4829
     4.4993   4.5430   4.6062   4.8382   4.8461   4.9462   4.9808   4.9977
     5.1371   5.1938   5.2873   5.3847   5.4888   5.5528   5.6702   5.7131
     5.7619   5.8270   5.8571   5.9280   6.0750   6.1356   6.1396   6.1921
     6.3345   6.4449   6.4993   6.6390   6.6927   6.8842   6.9350   6.9878
     7.0147   7.0355   7.1328   7.1389   7.1571   7.1729   7.2152   7.2565
     7.3232   7.3271   7.8293   7.8345   7.8904   7.8971   7.9116   7.9207
     9.8576   9.8658  10.8143  10.8471  10.9422  10.9965  11.9666  11.9668
    12.0912  12.1274  12.3269  12.3371  12.5145  12.5254  12.8618  12.9137
    13.2544  13.3731  13.4350  13.4525  13.7299  13.7906  13.8143  13.8621
    15.0490  15.3370  15.5204  15.5310  15.5858  15.8257  15.9602  16.2090
    16.2519  16.9453  17.3979  17.4123  17.7643

          k = 0.0000 0.3167 0.3325 ( 61989 PWs)   bands (ev):

   -66.0384 -66.0382 -66.0379 -66.0377 -66.0374 -66.0371 -66.0369 -66.0366
   -30.4370 -30.4341 -30.4299 -30.4270 -30.4128 -30.4095 -30.4020 -30.3975
   -30.3849 -30.3817 -30.3802 -30.3731 -30.3625 -30.3606 -30.3590 -30.3561
   -30.3172 -30.3167 -30.3140 -30.3132 -30.2860 -30.2839 -30.2835 -30.2814
   -20.1942 -20.1941 -20.1941 -20.1940 -20.1940 -20.1939 -20.1939 -20.1938
   -20.1783 -20.1781 -20.1778 -20.1777 -20.1764 -20.1762 -20.1759 -20.1757
   -20.1741 -20.1738 -20.1737 -20.1734 -20.1732 -20.1730 -20.1729 -20.1726
   -20.1717 -20.1717 -20.1715 -20.1713 -20.1713 -20.1712 -20.1710 -20.1709
   -20.1626 -20.1625 -20.1625 -20.1623 -20.1583 -20.1581 -20.1581 -20.1579
   -20.1555 -20.1555 -20.1546 -20.1546 -20.1522 -20.1522 -20.1511 -20.1511
   -20.1503 -20.1502 -20.1495 -20.1494 -20.1464 -20.1464 -20.1458 -20.1457
    -9.5931  -9.4416  -9.3685  -9.2274  -9.0349  -8.8444  -8.7784  -8.7537
    -8.7513  -8.6121  -8.5688  -8.5123  -8.1857  -8.1543  -8.1218  -8.0678
    -8.0471  -8.0194  -7.9983  -7.9364  -7.6666  -7.6538  -7.5929  -7.5802
     1.4586   1.4640   1.4800   1.4857   2.2634   2.3381   2.3660   2.4692
     2.5318   2.5868   2.6036   2.8040   2.8661   2.8781   2.9544   3.0355
     3.2971   3.4023   3.7231   3.7496   3.7500   3.8517   3.9108   3.9229
     4.1831   4.3800   4.4439   4.4916   4.5129   4.6803   4.6823   4.8456
     4.8660   4.9494   5.1066   5.1890   5.2784   5.2848   5.2993   5.4537
     5.4731   5.6693   5.7267   5.8838   6.1664   6.2358   6.2505   6.2690
     6.5012   6.6291   6.6296   6.7092   6.7253   6.8586   6.8701   6.8772
     7.0068   7.0426   7.1116   7.1354   7.1542   7.2009   7.2542   7.2746
     7.3482   7.3995   7.7807   7.7979   7.8184   7.8249   7.8913   7.9102
    10.5390  10.5399  10.8201  10.8782  11.3975  11.4530  11.8727  11.9772
    12.0362  12.1165  12.2526  12.3401  12.6533  12.6797  12.7032  12.7820
    12.8616  13.1682  13.1687  13.3924  13.4578  13.6073  13.8120  13.8455
    15.1929  15.3095  15.6128  15.8823  16.0321  16.0452  16.0770  16.7339
    16.8190  16.8896  17.0364  17.6043  17.6907

          k = 0.0000 0.3167-0.4988 ( 62004 PWs)   bands (ev):

   -66.0381 -66.0381 -66.0379 -66.0379 -66.0371 -66.0371 -66.0369 -66.0369
   -30.4355 -30.4355 -30.4284 -30.4284 -30.4110 -30.4110 -30.3994 -30.3994
   -30.3820 -30.3820 -30.3760 -30.3760 -30.3401 -30.3401 -30.3398 -30.3398
   -30.3363 -30.3363 -30.3362 -30.3362 -30.2848 -30.2848 -30.2827 -30.2827
   -20.1941 -20.1941 -20.1940 -20.1940 -20.1940 -20.1940 -20.1939 -20.1939
   -20.1782 -20.1782 -20.1778 -20.1778 -20.1763 -20.1763 -20.1758 -20.1758
   -20.1740 -20.1740 -20.1736 -20.1736 -20.1732 -20.1732 -20.1728 -20.1728
   -20.1714 -20.1714 -20.1714 -20.1714 -20.1712 -20.1712 -20.1711 -20.1711
   -20.1626 -20.1626 -20.1624 -20.1624 -20.1582 -20.1582 -20.1580 -20.1580
   -20.1538 -20.1538 -20.1538 -20.1538 -20.1529 -20.1529 -20.1528 -20.1528
   -20.1500 -20.1500 -20.1499 -20.1499 -20.1461 -20.1461 -20.1460 -20.1460
    -9.4629  -9.4629  -9.3139  -9.3139  -8.8427  -8.8427  -8.6507  -8.6507
    -8.5029  -8.5029  -8.4784  -8.4784  -8.4277  -8.4277  -8.3268  -8.3268
    -8.0675  -8.0675  -8.0176  -8.0176  -7.6294  -7.6294  -7.6166  -7.6166
     1.4748   1.4748   1.4813   1.4813   2.4484   2.4484   2.5877   2.5877
     2.9623   2.9623   3.1206   3.1206   3.1684   3.1684   3.2998   3.2998
     3.3497   3.3497   3.4669   3.4669   3.5273   3.5273   3.7423   3.7424
     4.1488   4.1488   4.1490   4.1490   4.2077   4.2077   4.4158   4.4158
     4.9137   4.9137   5.0513   5.0513   5.2245   5.2245   5.3669   5.3669
     5.5150   5.5150   5.8063   5.8063   6.2881   6.2881   6.3510   6.3510
     6.5330   6.5330   6.5636   6.5636   6.6361   6.6361   6.8130   6.8130
     7.1205   7.1205   7.1336   7.1336   7.1782   7.1782   7.5704   7.5704
     7.5876   7.5876   7.6237   7.6237   7.6677   7.6677   7.8993   7.8993
    10.8132  10.8132  11.2863  11.2863  11.3619  11.3619  11.8647  11.8647
    12.0959  12.0959  12.2585  12.2585  12.6305  12.6305  12.6923  12.6923
    12.9163  12.9163  13.0267  13.0267  13.4882  13.4882  13.8192  13.8192
    15.2626  15.2626  15.7572  15.7572  16.3847  16.3847  16.5517  16.5518
    16.9211  16.9211  17.3654  17.3654  17.9823

          k = 0.0000-0.4750 0.0000 ( 61926 PWs)   bands (ev):

   -66.0385 -66.0385 -66.0375 -66.0375 -66.0375 -66.0375 -66.0365 -66.0365
   -30.4264 -30.4263 -30.4197 -30.4197 -30.4180 -30.4180 -30.4108 -30.4108
   -30.3943 -30.3943 -30.3821 -30.3821 -30.3756 -30.3755 -30.3731 -30.3731
   -30.2930 -30.2929 -30.2922 -30.2922 -30.2861 -30.2861 -30.2799 -30.2799
   -20.1942 -20.1942 -20.1941 -20.1941 -20.1939 -20.1939 -20.1938 -20.1937
   -20.1774 -20.1773 -20.1770 -20.1770 -20.1769 -20.1769 -20.1766 -20.1765
   -20.1736 -20.1735 -20.1733 -20.1732 -20.1732 -20.1732 -20.1728 -20.1728
   -20.1722 -20.1722 -20.1718 -20.1718 -20.1712 -20.1712 -20.1709 -20.1709
   -20.1626 -20.1626 -20.1623 -20.1623 -20.1582 -20.1581 -20.1579 -20.1578
   -20.1574 -20.1574 -20.1563 -20.1563 -20.1508 -20.1508 -20.1506 -20.1506
   -20.1493 -20.1493 -20.1489 -20.1489 -20.1467 -20.1467 -20.1454 -20.1454
    -9.6864  -9.6864  -9.2259  -9.2259  -9.2150  -9.2150  -8.9333  -8.9333
    -8.4137  -8.4137  -8.3597  -8.3596  -8.3543  -8.3542  -8.3519  -8.3519
    -7.7183  -7.7183  -7.6934  -7.6934  -7.5577  -7.5576  -7.5513  -7.5513
     1.3295   1.3295   1.4093   1.4093   1.4443   1.4443   1.7416   1.7416
     2.5093   2.5093   3.1407   3.1407   3.2758   3.2758   3.2771   3.2771
     3.3083   3.3083   3.4212   3.4212   3.6126   3.6126   3.6667   3.6667
     3.7924   3.7924   4.8703   4.8703   4.9384   4.9384   5.2841   5.2841
     5.3685   5.3685   5.3792   5.3792   5.4209   5.4209   5.8242   5.8242
     5.8574   5.8574   6.0069   6.0069   6.0842   6.0842   6.1896   6.1896
     6.2358   6.2358   6.3626   6.3626   6.7853   6.7853   6.8119   6.8119
     6.9893   6.9893   7.4019   7.4019   7.4377   7.4377   7.5311   7.5312
     7.5419   7.5419   7.6155   7.6155   7.6257   7.6257   7.8453   7.8453
     9.5408   9.5408  11.3375  11.3375  11.4167  11.4167  11.4217  11.4217
    11.5144  11.5144  12.4128  12.4129  12.4743  12.4743  12.8420  12.8420
    13.5780  13.5780  13.6027  13.6027  13.6574  13.6574  13.6835  13.6835
    15.4469  15.4469  15.5364  15.5364  15.7405  15.7405  15.7566  15.7566
    16.6354  16.6354  18.1087  18.1088  18.1477

          k = 0.0000-0.4750 0.1663 ( 61970 PWs)   bands (ev):

   -66.0385 -66.0384 -66.0376 -66.0376 -66.0374 -66.0374 -66.0366 -66.0366
   -30.4257 -30.4257 -30.4201 -30.4201 -30.4173 -30.4173 -30.4111 -30.4111
   -30.3903 -30.3903 -30.3768 -30.3768 -30.3759 -30.3759 -30.3704 -30.3704
   -30.2997 -30.2996 -30.2974 -30.2973 -30.2858 -30.2858 -30.2810 -30.2810
   -20.1942 -20.1942 -20.1941 -20.1941 -20.1939 -20.1939 -20.1938 -20.1938
   -20.1773 -20.1773 -20.1770 -20.1770 -20.1769 -20.1769 -20.1766 -20.1766
   -20.1736 -20.1736 -20.1733 -20.1733 -20.1732 -20.1732 -20.1729 -20.1729
   -20.1721 -20.1721 -20.1717 -20.1717 -20.1712 -20.1712 -20.1710 -20.1710
   -20.1626 -20.1626 -20.1623 -20.1623 -20.1582 -20.1582 -20.1579 -20.1579
   -20.1568 -20.1568 -20.1558 -20.1558 -20.1512 -20.1511 -20.1505 -20.1505
   -20.1498 -20.1498 -20.1491 -20.1490 -20.1466 -20.1466 -20.1455 -20.1455
    -9.6335  -9.6335  -9.2319  -9.2318  -9.1423  -9.1423  -8.8941  -8.8941
    -8.4192  -8.4192  -8.3653  -8.3652  -8.3545  -8.3544  -8.3458  -8.3458
    -7.8291  -7.8291  -7.6941  -7.6941  -7.6779  -7.6779  -7.5608  -7.5607
     1.4259   1.4259   1.4492   1.4492   1.6615   1.6615   1.8980   1.8980
     2.5992   2.5992   3.1578   3.1578   3.2474   3.2475   3.3015   3.3015
     3.3587   3.3587   3.4164   3.4164   3.6301   3.6302   3.6868   3.6868
     3.8237   3.8237   4.5056   4.5056   4.9557   4.9557   5.0691   5.0691
     5.2073   5.2073   5.3055   5.3055   5.4183   5.4183   5.5710   5.5710
     5.8124   5.8124   5.8397   5.8397   6.1373   6.1373   6.1755   6.1755
     6.4388   6.4388   6.4930   6.4930   6.7760   6.7760   6.9735   6.9735
     7.0559   7.0559   7.2041   7.2041   7.2587   7.2587   7.5304   7.5304
     7.5468   7.5468   7.5979   7.5979   7.6048   7.6048   7.8602   7.8602
     9.8649   9.8649  11.4135  11.4135  11.4638  11.4638  11.4855  11.4855
    11.5704  11.5704  12.3303  12.3303  12.5203  12.5203  12.9042  12.9042
    13.4181  13.4181  13.4957  13.4957  13.6005  13.6005  13.6979  13.6980
    15.4520  15.4520  15.7020  15.7020  15.7536  15.7536  16.0042  16.0042
    16.6946  16.6946  17.9771  17.9772  18.1051

          k = 0.0000-0.4750 0.3325 ( 62050 PWs)   bands (ev):

   -66.0383 -66.0383 -66.0378 -66.0378 -66.0372 -66.0372 -66.0368 -66.0368
   -30.4242 -30.4242 -30.4211 -30.4211 -30.4156 -30.4156 -30.4122 -30.4122
   -30.3834 -30.3834 -30.3773 -30.3773 -30.3618 -30.3618 -30.3582 -30.3582
   -30.3170 -30.3170 -30.3137 -30.3136 -30.2850 -30.2850 -30.2825 -30.2825
   -20.1942 -20.1942 -20.1940 -20.1940 -20.1940 -20.1940 -20.1938 -20.1938
   -20.1773 -20.1773 -20.1771 -20.1771 -20.1768 -20.1768 -20.1766 -20.1766
   -20.1736 -20.1736 -20.1734 -20.1734 -20.1733 -20.1733 -20.1731 -20.1730
   -20.1718 -20.1718 -20.1715 -20.1714 -20.1713 -20.1713 -20.1710 -20.1710
   -20.1626 -20.1626 -20.1624 -20.1624 -20.1582 -20.1582 -20.1580 -20.1580
   -20.1555 -20.1555 -20.1546 -20.1546 -20.1522 -20.1522 -20.1511 -20.1511
   -20.1503 -20.1503 -20.1495 -20.1495 -20.1464 -20.1464 -20.1457 -20.1457
    -9.5060  -9.5060  -9.2835  -9.2835  -8.9106  -8.9106  -8.7623  -8.7623
    -8.4545  -8.4545  -8.3915  -8.3915  -8.3482  -8.3482  -8.3221  -8.3221
    -8.1063  -8.1063  -7.9844  -7.9844  -7.6607  -7.6607  -7.5870  -7.5870
     1.4627   1.4627   1.4842   1.4842   2.3287   2.3287   2.5120   2.5120
     2.8574   2.8574   3.1833   3.1833   3.2417   3.2417   3.3210   3.3210
     3.3628   3.3628   3.4905   3.4905   3.6097   3.6097   3.7996   3.7996
     3.8876   3.8877   3.9104   3.9104   4.5536   4.5536   4.7154   4.7155
     4.8562   4.8562   4.9396   4.9396   5.3003   5.3003   5.3529   5.3530
     5.4694   5.4694   5.7375   5.7375   6.2264   6.2264   6.2818   6.2818
     6.5796   6.5796   6.6774   6.6774   6.7638   6.7638   6.8996   6.8996
     7.1097   7.1097   7.2452   7.2452   7.2610   7.2610   7.5070   7.5070
     7.5476   7.5476   7.5689   7.5689   7.5895   7.5895   7.8191   7.8191
    10.5539  10.5539  11.4194  11.4194  11.4830  11.4830  11.8261  11.8261
    11.8963  11.8963  11.9839  11.9839  12.6694  12.6694  12.7985  12.7985
    12.9759  12.9759  13.2063  13.2063  13.5978  13.5978  13.6616  13.6616
    15.4865  15.4865  15.6748  15.6748  16.3164  16.3164  16.7096  16.7096
    16.8981  16.8981  17.4756  17.4756  17.9413

          k = 0.0000-0.4750-0.4988 ( 62024 PWs)   bands (ev):

   -66.0380 -66.0380 -66.0380 -66.0380 -66.0370 -66.0370 -66.0370 -66.0370
   -30.4225 -30.4225 -30.4225 -30.4225 -30.4138 -30.4138 -30.4138 -30.4138
   -30.3795 -30.3795 -30.3795 -30.3795 -30.3401 -30.3401 -30.3401 -30.3401
   -30.3364 -30.3364 -30.3364 -30.3364 -30.2838 -30.2838 -30.2838 -30.2838
   -20.1941 -20.1941 -20.1941 -20.1941 -20.1939 -20.1939 -20.1939 -20.1939
   -20.1772 -20.1772 -20.1772 -20.1772 -20.1767 -20.1767 -20.1767 -20.1767
   -20.1736 -20.1736 -20.1736 -20.1735 -20.1732 -20.1732 -20.1732 -20.1732
   -20.1715 -20.1715 -20.1715 -20.1715 -20.1712 -20.1712 -20.1712 -20.1712
   -20.1625 -20.1625 -20.1625 -20.1625 -20.1581 -20.1581 -20.1581 -20.1581
   -20.1538 -20.1538 -20.1538 -20.1538 -20.1529 -20.1529 -20.1529 -20.1528
   -20.1499 -20.1499 -20.1499 -20.1499 -20.1461 -20.1461 -20.1461 -20.1461
    -9.3751  -9.3751  -9.3751  -9.3751  -8.6152  -8.6152  -8.6152  -8.6152
    -8.5331  -8.5331  -8.5331  -8.5331  -8.3119  -8.3119  -8.3118  -8.3118
    -8.2407  -8.2407  -8.2407  -8.2406  -7.6234  -7.6234  -7.6234  -7.6234
     1.4797   1.4797   1.4797   1.4797   3.0549   3.0549   3.0549   3.0549
     3.1866   3.1866   3.1867   3.1867   3.3017   3.3017   3.3017   3.3017
     3.3561   3.3561   3.3561   3.3561   3.5741   3.5741   3.5741   3.5741
     3.7208   3.7208   3.7208   3.7208   4.3961   4.3961   4.3961   4.3961
     4.5129   4.5129   4.5129   4.5129   5.3147   5.3147   5.3147   5.3147
     5.5978   5.5978   5.5978   5.5978   6.3406   6.3406   6.3406   6.3406
     6.5763   6.5763   6.5763   6.5763   6.7081   6.7081   6.7082   6.7082
     7.3561   7.3562   7.3562   7.3562   7.4475   7.4475   7.4475   7.4475
     7.5398   7.5398   7.5398   7.5398   7.6515   7.6515   7.6515   7.6515
    11.2624  11.2624  11.2624  11.2624  11.5136  11.5136  11.5136  11.5136
    12.3517  12.3517  12.3517  12.3517  12.3977  12.3977  12.3977  12.3977
    12.9293  12.9293  12.9293  12.9293  13.6118  13.6118  13.6118  13.6118
    15.5819  15.5819  15.5819  15.5819  16.9749  16.9749  16.9749  16.9749
    17.3893  17.3895  17.3896  17.3896  17.5228

          k = 0.1667 0.0000 0.0000 ( 61974 PWs)   bands (ev):

   -66.0387 -66.0382 -66.0378 -66.0377 -66.0373 -66.0372 -66.0368 -66.0364
   -30.4514 -30.4462 -30.4460 -30.4409 -30.4065 -30.3998 -30.3962 -30.3918
   -30.3914 -30.3836 -30.3816 -30.3748 -30.3745 -30.3728 -30.3606 -30.3569
   -30.2961 -30.2948 -30.2936 -30.2932 -30.2917 -30.2900 -30.2849 -30.2823
   -20.1943 -20.1942 -20.1942 -20.1940 -20.1940 -20.1939 -20.1938 -20.1937
   -20.1794 -20.1791 -20.1790 -20.1787 -20.1758 -20.1754 -20.1754 -20.1749
   -20.1745 -20.1741 -20.1740 -20.1736 -20.1730 -20.1725 -20.1725 -20.1721
   -20.1718 -20.1716 -20.1715 -20.1715 -20.1710 -20.1707 -20.1707 -20.1706
   -20.1624 -20.1621 -20.1620 -20.1618 -20.1586 -20.1583 -20.1581 -20.1579
   -20.1574 -20.1573 -20.1564 -20.1563 -20.1507 -20.1507 -20.1504 -20.1503
   -20.1494 -20.1493 -20.1489 -20.1486 -20.1470 -20.1470 -20.1458 -20.1457
    -9.8227  -9.5236  -9.4402  -9.3640  -9.1601  -9.0408  -9.0042  -8.9041
    -8.8840  -8.7798  -8.7658  -8.7267  -7.8577  -7.8102  -7.7547  -7.7395
    -7.7105  -7.7091  -7.6823  -7.6620  -7.6588  -7.6543  -7.5789  -7.5521
     1.3966   1.3988   1.4039   1.4134   1.5405   1.5768   1.6937   1.7049
     1.7051   1.8255   1.9354   2.0943   2.5528   2.6423   2.6677   2.7295
     2.8078   2.8798   4.1364   4.2283   4.4275   4.4312   4.5295   4.5446
     4.6920   4.8593   4.9083   4.9187   4.9238   5.1247   5.2027   5.4437
     5.4918   5.5044   5.5796   5.6012   5.6715   5.6893   5.6952   5.7737
     5.7879   5.8743   5.8831   5.9783   6.1007   6.1172   6.1304   6.1733
     6.3518   6.4575   6.4733   6.5951   6.8033   6.8105   6.8271   6.8413
     6.8993   6.9624   6.9965   7.0299   7.0615   7.0850   7.2367   7.2619
     7.2644   7.2771   7.8468   7.8523   8.0463   8.1117   8.1741   8.2243
     9.8372   9.8713  10.1557  10.1924  10.3771  10.4467  12.2657  12.3478
    12.3733  12.4170  12.4460  12.5604  12.6509  12.7614  12.7725  12.9381
    13.2384  13.2495  13.3765  13.4728  13.8154  13.9276  14.1973  14.2032
    14.3658  14.5114  14.7431  15.1029  15.5359  15.5550  15.5682  16.0590
    16.4270  16.8182  17.0172  17.3069  17.6580

          k = 0.1667 0.0000 0.1663 ( 61992 PWs)   bands (ev):

   -66.0386 -66.0382 -66.0378 -66.0377 -66.0373 -66.0373 -66.0369 -66.0364
   -30.4511 -30.4465 -30.4457 -30.4412 -30.4042 -30.3965 -30.3965 -30.3881
   -30.3869 -30.3821 -30.3777 -30.3749 -30.3723 -30.3698 -30.3612 -30.3556
   -30.3008 -30.2992 -30.2988 -30.2974 -30.2940 -30.2897 -30.2879 -30.2840
   -20.1943 -20.1942 -20.1941 -20.1940 -20.1940 -20.1939 -20.1938 -20.1937
   -20.1793 -20.1791 -20.1790 -20.1788 -20.1758 -20.1754 -20.1754 -20.1749
   -20.1745 -20.1741 -20.1740 -20.1736 -20.1730 -20.1726 -20.1726 -20.1722
   -20.1717 -20.1714 -20.1714 -20.1714 -20.1710 -20.1707 -20.1707 -20.1706
   -20.1624 -20.1621 -20.1620 -20.1618 -20.1586 -20.1583 -20.1582 -20.1580
   -20.1568 -20.1568 -20.1559 -20.1559 -20.1511 -20.1510 -20.1504 -20.1502
   -20.1499 -20.1498 -20.1490 -20.1488 -20.1470 -20.1469 -20.1459 -20.1458
    -9.7741  -9.4644  -9.3811  -9.3802  -9.0726  -9.0559  -9.0134  -8.8650
    -8.8494  -8.7720  -8.7359  -8.7316  -7.8633  -7.8324  -7.8016  -7.8001
    -7.7527  -7.7459  -7.7141  -7.7036  -7.6835  -7.6613  -7.6568  -7.6502
     1.5330   1.5610   1.5692   1.5852   1.5905   1.6684   1.6976   1.6999
     1.7913   1.8264   2.0079   2.1637   2.6434   2.7328   2.7433   2.7530
     2.8656   2.9056   4.1357   4.1556   4.4082   4.4202   4.5469   4.5599
     4.5886   4.5986   4.7185   4.7346   4.8481   4.9286   5.1905   5.3435
     5.3458   5.4037   5.4462   5.5781   5.6100   5.6779   5.6988   5.7770
     5.7880   5.8150   5.8185   5.8241   5.8934   6.1068   6.3092   6.3908
     6.4525   6.5269   6.6177   6.7252   6.7467   6.7503   6.7761   6.8123
     6.8326   6.8984   6.9516   6.9582   6.9857   7.0348   7.0393   7.1582
     7.3332   7.3920   7.8508   7.8519   8.0616   8.1151   8.1426   8.1808
    10.0412  10.1011  10.3778  10.3966  10.4272  10.5187  12.3152  12.3169
    12.3718  12.3945  12.4568  12.5186  12.7303  12.7686  12.8039  12.9537
    13.1213  13.2550  13.2781  13.4150  13.8599  13.9171  14.0627  14.0931
    14.4084  14.6264  14.7357  15.2217  15.5370  15.6070  15.6198  16.3482
    16.3937  16.9863  17.0190  17.1739  17.7057

          k = 0.1667 0.0000 0.3325 ( 61993 PWs)   bands (ev):

   -66.0384 -66.0380 -66.0379 -66.0375 -66.0375 -66.0371 -66.0370 -66.0366
   -30.4501 -30.4475 -30.4448 -30.4422 -30.4011 -30.3975 -30.3903 -30.3835
   -30.3806 -30.3775 -30.3759 -30.3637 -30.3618 -30.3590 -30.3585 -30.3499
   -30.3172 -30.3161 -30.3143 -30.3132 -30.2933 -30.2906 -30.2889 -30.2861
   -20.1942 -20.1941 -20.1941 -20.1941 -20.1940 -20.1939 -20.1939 -20.1938
   -20.1793 -20.1792 -20.1790 -20.1788 -20.1757 -20.1755 -20.1753 -20.1750
   -20.1744 -20.1742 -20.1741 -20.1738 -20.1730 -20.1727 -20.1727 -20.1724
   -20.1715 -20.1712 -20.1712 -20.1711 -20.1711 -20.1708 -20.1708 -20.1707
   -20.1624 -20.1622 -20.1620 -20.1619 -20.1586 -20.1584 -20.1582 -20.1580
   -20.1555 -20.1554 -20.1547 -20.1546 -20.1522 -20.1521 -20.1512 -20.1511
   -20.1502 -20.1500 -20.1494 -20.1492 -20.1467 -20.1467 -20.1461 -20.1460
    -9.6553  -9.4343  -9.3236  -9.2394  -9.1027  -9.0447  -8.8242  -8.7884
    -8.7451  -8.7233  -8.6964  -8.6218  -8.1217  -8.1199  -8.0430  -8.0196
    -7.8110  -7.7765  -7.7507  -7.7293  -7.6921  -7.6877  -7.6820  -7.6662
     1.5412   1.5583   1.6482   1.6815   1.7144   1.7321   1.7991   1.8312
     2.3498   2.3899   2.5152   2.6077   2.7597   2.8465   2.9173   2.9953
     3.0208   3.1413   3.8413   3.9582   3.9913   3.9957   4.2345   4.3706
     4.3968   4.5428   4.6028   4.6279   4.6851   4.8330   4.8541   4.9697
     5.0917   5.1583   5.1769   5.2885   5.3657   5.4441   5.6589   5.7179
     5.7689   5.8127   5.8630   5.9035   5.9304   6.0975   6.1731   6.2099
     6.4898   6.5017   6.5698   6.6217   6.6339   6.7497   6.7673   6.7952
     6.8290   6.9508   6.9568   6.9608   7.1646   7.1657   7.2573   7.2907
     7.3855   7.4369   7.8089   7.8219   7.9908   8.0426   8.1079   8.1179
    10.3489  10.3569  10.6712  10.7544  11.0057  11.1233  11.9765  12.0386
    12.2598  12.4596  12.5383  12.5658  12.6208  12.7672  12.8225  12.8996
    12.9683  13.1523  13.1561  13.3592  13.7324  13.7472  13.9108  13.9471
    14.5466  14.7117  14.9313  15.4339  15.5219  15.8467  16.0190  16.3008
    16.4837  17.1682  17.4625  17.5370  17.6310

          k = 0.1667 0.0000-0.4988 ( 62018 PWs)   bands (ev):

   -66.0382 -66.0382 -66.0377 -66.0377 -66.0373 -66.0373 -66.0368 -66.0368
   -30.4488 -30.4488 -30.4435 -30.4435 -30.3990 -30.3990 -30.3859 -30.3859
   -30.3777 -30.3777 -30.3677 -30.3677 -30.3395 -30.3395 -30.3389 -30.3389
   -30.3362 -30.3362 -30.3348 -30.3348 -30.2922 -30.2922 -30.2877 -30.2877
   -20.1942 -20.1942 -20.1940 -20.1940 -20.1940 -20.1940 -20.1939 -20.1939
   -20.1792 -20.1792 -20.1789 -20.1789 -20.1756 -20.1756 -20.1751 -20.1751
   -20.1743 -20.1743 -20.1740 -20.1740 -20.1729 -20.1729 -20.1726 -20.1726
   -20.1713 -20.1713 -20.1710 -20.1710 -20.1709 -20.1709 -20.1709 -20.1708
   -20.1623 -20.1623 -20.1619 -20.1619 -20.1585 -20.1585 -20.1582 -20.1582
   -20.1538 -20.1538 -20.1537 -20.1537 -20.1530 -20.1530 -20.1529 -20.1529
   -20.1498 -20.1498 -20.1496 -20.1496 -20.1464 -20.1464 -20.1463 -20.1463
    -9.5278  -9.5278  -9.1886  -9.1886  -9.1132  -9.1132  -8.7631  -8.7631
    -8.4847  -8.4847  -8.4713  -8.4713  -8.4203  -8.4203  -8.3624  -8.3624
    -7.7853  -7.7853  -7.7353  -7.7353  -7.7009  -7.7009  -7.6782  -7.6782
     1.5480   1.5480   1.6655   1.6655   1.7339   1.7339   1.8352   1.8352
     2.7822   2.7822   3.0733   3.0733   3.1568   3.1568   3.2625   3.2625
     3.3560   3.3560   3.4615   3.4615   3.6315   3.6315   3.8719   3.8719
     3.9510   3.9510   4.5121   4.5121   4.6000   4.6000   4.9815   4.9816
     5.0921   5.0921   5.1524   5.1524   5.3160   5.3160   5.7103   5.7103
     5.8360   5.8360   5.8794   5.8794   5.9506   5.9506   6.0760   6.0760
     6.4195   6.4195   6.5349   6.5349   6.7189   6.7190   6.7854   6.7854
     6.9136   6.9136   7.0097   7.0097   7.0685   7.0685   7.5961   7.5961
     7.6310   7.6310   7.7442   7.7442   7.7947   7.7947   8.1162   8.1162
    10.3720  10.3720  11.3492  11.3492  11.4414  11.4415  11.6978  11.6978
    11.8817  11.8817  12.6239  12.6239  12.7715  12.7716  12.8301  12.8301
    12.9883  12.9883  13.3394  13.3394  13.4445  13.4445  13.9244  13.9244
    14.6589  14.6589  15.2359  15.2359  15.9479  15.9479  16.1148  16.1148
    16.7955  16.7955  17.9140  17.9142  18.0264

          k = 0.1667 0.1583 0.0000 ( 61973 PWs)   bands (ev):

   -66.0386 -66.0382 -66.0377 -66.0377 -66.0374 -66.0373 -66.0368 -66.0364
   -30.4477 -30.4424 -30.4421 -30.4369 -30.4083 -30.4013 -30.3987 -30.3920
   -30.3916 -30.3856 -30.3836 -30.3751 -30.3742 -30.3741 -30.3624 -30.3590
   -30.2960 -30.2948 -30.2934 -30.2931 -30.2919 -30.2903 -30.2849 -30.2826
   -20.1943 -20.1942 -20.1942 -20.1940 -20.1940 -20.1939 -20.1938 -20.1937
   -20.1791 -20.1788 -20.1787 -20.1785 -20.1760 -20.1756 -20.1756 -20.1751
   -20.1744 -20.1740 -20.1739 -20.1735 -20.1729 -20.1725 -20.1725 -20.1721
   -20.1719 -20.1718 -20.1717 -20.1715 -20.1710 -20.1709 -20.1708 -20.1707
   -20.1624 -20.1621 -20.1620 -20.1618 -20.1585 -20.1583 -20.1582 -20.1580
   -20.1574 -20.1573 -20.1564 -20.1563 -20.1507 -20.1507 -20.1504 -20.1503
   -20.1494 -20.1493 -20.1488 -20.1486 -20.1470 -20.1470 -20.1458 -20.1457
    -9.7920  -9.5355  -9.4037  -9.3214  -9.1679  -9.0491  -8.9299  -8.9017
    -8.8851  -8.7357  -8.7267  -8.6933  -7.8953  -7.8364  -7.8139  -7.8050
    -7.7855  -7.7677  -7.7142  -7.6890  -7.6754  -7.6590  -7.5774  -7.5556
     1.4033   1.4049   1.4094   1.4137   1.6467   1.6871   1.7063   1.9042
     1.9212   1.9473   1.9891   2.1979   2.5600   2.6361   2.7431   2.8039
     2.8812   2.9477   4.0310   4.1033   4.1813   4.2657   4.4587   4.5415
     4.6809   4.7915   4.8921   4.9127   4.9715   5.0356   5.0832   5.3393
     5.4006   5.4228   5.4565   5.5877   5.6414   5.6452   5.6994   5.7654
     5.8295   5.8700   5.9110   5.9329   5.9665   6.1251   6.1367   6.1788
     6.3106   6.4446   6.4666   6.6250   6.7799   6.8193   6.8723   6.8734
     6.9073   6.9703   6.9835   7.0323   7.0491   7.0842   7.2372   7.2609
     7.2726   7.2770   7.8469   7.8517   8.0209   8.0579   8.1208   8.1440
     9.8471   9.8742  10.3364  10.3453  10.5468  10.5917  12.1889  12.3545
    12.3616  12.3917  12.4347  12.4678  12.5023  12.6274  12.7872  12.9300
    13.2494  13.2669  13.3890  13.4583  13.8719  13.8874  14.1031  14.1097
    14.5321  14.7798  14.9697  15.2534  15.5379  15.5513  15.9507  16.0467
    16.3915  16.7326  16.9529  17.4106  17.6872

          k = 0.1667 0.1583 0.1663 ( 61952 PWs)   bands (ev):

   -66.0386 -66.0382 -66.0377 -66.0377 -66.0373 -66.0373 -66.0368 -66.0365
   -30.4474 -30.4427 -30.4418 -30.4373 -30.4064 -30.3991 -30.3984 -30.3882
   -30.3870 -30.3860 -30.3777 -30.3745 -30.3718 -30.3716 -30.3629 -30.3576
   -30.3007 -30.2993 -30.2988 -30.2975 -30.2937 -30.2900 -30.2877 -30.2844
   -20.1943 -20.1942 -20.1942 -20.1940 -20.1940 -20.1939 -20.1938 -20.1937
   -20.1791 -20.1788 -20.1787 -20.1785 -20.1760 -20.1756 -20.1755 -20.1751
   -20.1743 -20.1740 -20.1739 -20.1736 -20.1730 -20.1726 -20.1726 -20.1722
   -20.1718 -20.1716 -20.1715 -20.1714 -20.1710 -20.1709 -20.1708 -20.1707
   -20.1624 -20.1621 -20.1620 -20.1618 -20.1586 -20.1583 -20.1582 -20.1580
   -20.1568 -20.1568 -20.1559 -20.1559 -20.1511 -20.1510 -20.1504 -20.1502
   -20.1499 -20.1498 -20.1490 -20.1488 -20.1470 -20.1469 -20.1459 -20.1458
    -9.7419  -9.4765  -9.3395  -9.3387  -9.0805  -9.0645  -8.9392  -8.8639
    -8.8503  -8.7282  -8.7013  -8.6980  -7.9013  -7.8372  -7.8318  -7.8282
    -7.7974  -7.7865  -7.7823  -7.7737  -7.7146  -7.6881  -7.6727  -7.6553
     1.5773   1.5837   1.6353   1.6498   1.6692   1.6930   1.7229   1.9029
     1.9573   1.9845   2.0095   2.2453   2.6521   2.7320   2.8125   2.8300
     2.9374   2.9738   4.0422   4.0726   4.2054   4.2447   4.4989   4.5310
     4.5793   4.6035   4.6942   4.7635   4.7864   4.8793   5.0287   5.2511
     5.3078   5.3396   5.3989   5.4405   5.4804   5.6198   5.6349   5.6990
     5.8056   5.8220   5.8541   5.8777   5.8966   5.9504   6.2986   6.3867
     6.4427   6.4556   6.6119   6.7016   6.7622   6.7769   6.8436   6.8471
     6.8841   6.8952   6.9660   6.9837   7.0172   7.0256   7.0682   7.1682
     7.3395   7.3901   7.8500   7.8519   8.0231   8.0620   8.0920   8.1060
    10.0643  10.1111  10.5248  10.5484  10.5763  10.6501  12.2519  12.3057
    12.3663  12.4005  12.4169  12.4435  12.5898  12.6176  12.8315  12.9497
    13.1331  13.2599  13.2694  13.4096  13.8664  13.8838  13.9648  14.0093
    14.6165  14.9157  14.9666  15.3564  15.6083  15.6170  15.9346  16.3211
    16.3601  16.8618  17.0995  17.1387  17.7348

          k = 0.1667 0.1583 0.3325 ( 62000 PWs)   bands (ev):

   -66.0384 -66.0380 -66.0379 -66.0375 -66.0375 -66.0371 -66.0370 -66.0366
   -30.4464 -30.4437 -30.4409 -30.4382 -30.4036 -30.4000 -30.3933 -30.3873
   -30.3803 -30.3776 -30.3755 -30.3651 -30.3619 -30.3593 -30.3589 -30.3514
   -30.3172 -30.3162 -30.3144 -30.3133 -30.2931 -30.2904 -30.2892 -30.2865
   -20.1942 -20.1941 -20.1941 -20.1940 -20.1940 -20.1939 -20.1939 -20.1938
   -20.1790 -20.1789 -20.1787 -20.1785 -20.1759 -20.1757 -20.1754 -20.1752
   -20.1743 -20.1741 -20.1740 -20.1737 -20.1730 -20.1728 -20.1727 -20.1724
   -20.1716 -20.1713 -20.1713 -20.1712 -20.1711 -20.1709 -20.1708 -20.1708
   -20.1623 -20.1622 -20.1620 -20.1619 -20.1586 -20.1584 -20.1583 -20.1581
   -20.1555 -20.1554 -20.1547 -20.1546 -20.1522 -20.1521 -20.1512 -20.1511
   -20.1501 -20.1500 -20.1494 -20.1492 -20.1467 -20.1467 -20.1461 -20.1460
    -9.6195  -9.3929  -9.3355  -9.1851  -9.1120  -8.9712  -8.8325  -8.7704
    -8.7252  -8.7106  -8.6730  -8.6006  -8.1280  -8.1179  -8.0580  -8.0173
    -7.8540  -7.8323  -7.7986  -7.7733  -7.7682  -7.7557  -7.7060  -7.6911
     1.6527   1.6685   1.7126   1.7301   1.8549   1.8673   1.9388   1.9823
     2.3487   2.4002   2.5171   2.6233   2.8325   2.9012   2.9436   3.0177
     3.0715   3.2022   3.8430   3.9397   3.9687   3.9867   4.2102   4.2603
     4.3102   4.4848   4.5231   4.6270   4.6708   4.7718   4.8133   4.9054
     4.9361   5.0255   5.0728   5.2214   5.2774   5.3270   5.4554   5.6763
     5.7081   5.7210   5.8591   5.8718   5.8941   5.9194   6.1550   6.2040
     6.4381   6.5930   6.6012   6.7007   6.7580   6.7603   6.7876   6.8513
     6.8957   6.9421   6.9907   7.0319   7.1573   7.1733   7.2568   7.2956
     7.3819   7.4296   7.8101   7.8195   7.9480   7.9847   8.0572   8.0652
    10.4888  10.5078  10.7021  10.7739  11.1108  11.2037  11.9772  12.0349
    12.2539  12.4416  12.5382  12.5547  12.6101  12.6237  12.8033  12.8458
    12.8513  13.1188  13.1527  13.3491  13.6262  13.6542  13.8886  13.9093
    14.7971  14.9434  15.2727  15.6217  15.8278  15.8482  16.0346  16.2718
    16.5911  17.1367  17.2814  17.5276  17.5940

          k = 0.1667 0.1583-0.4988 ( 61996 PWs)   bands (ev):

   -66.0382 -66.0382 -66.0378 -66.0378 -66.0373 -66.0373 -66.0369 -66.0369
   -30.4450 -30.4450 -30.4396 -30.4396 -30.4015 -30.4015 -30.3896 -30.3896
   -30.3773 -30.3773 -30.3688 -30.3688 -30.3396 -30.3396 -30.3392 -30.3392
   -30.3363 -30.3363 -30.3353 -30.3353 -30.2919 -30.2919 -30.2880 -30.2880
   -20.1941 -20.1941 -20.1940 -20.1940 -20.1940 -20.1940 -20.1939 -20.1939
   -20.1789 -20.1789 -20.1786 -20.1786 -20.1758 -20.1758 -20.1753 -20.1753
   -20.1742 -20.1742 -20.1739 -20.1739 -20.1730 -20.1730 -20.1726 -20.1726
   -20.1713 -20.1713 -20.1711 -20.1711 -20.1710 -20.1710 -20.1710 -20.1710
   -20.1623 -20.1623 -20.1620 -20.1620 -20.1585 -20.1585 -20.1582 -20.1582
   -20.1538 -20.1538 -20.1537 -20.1537 -20.1529 -20.1529 -20.1529 -20.1529
   -20.1498 -20.1498 -20.1496 -20.1496 -20.1464 -20.1464 -20.1464 -20.1463
    -9.4884  -9.4884  -9.1993  -9.1993  -9.0447  -9.0447  -8.7304  -8.7304
    -8.4886  -8.4886  -8.4723  -8.4723  -8.4218  -8.4218  -8.3562  -8.3562
    -7.8446  -7.8446  -7.7851  -7.7851  -7.7416  -7.7416  -7.7230  -7.7230
     1.6622   1.6622   1.7320   1.7320   1.8714   1.8714   1.9779   1.9779
     2.8495   2.8495   3.0913   3.0913   3.1710   3.1710   3.2748   3.2749
     3.3580   3.3580   3.4773   3.4773   3.6220   3.6220   3.8800   3.8800
     4.0018   4.0018   4.3753   4.3753   4.5384   4.5384   4.7976   4.7976
     4.9907   4.9907   5.1042   5.1043   5.1877   5.1877   5.5542   5.5542
     5.7796   5.7796   5.8076   5.8076   5.9247   5.9247   5.9551   5.9551
     6.5395   6.5395   6.6769   6.6769   6.7239   6.7239   6.8281   6.8281
     6.9689   6.9689   6.9902   6.9903   7.1032   7.1032   7.5971   7.5971
     7.6269   7.6269   7.7185   7.7185   7.7627   7.7627   8.0627   8.0627
    10.5357  10.5357  11.3559  11.3559  11.4416  11.4416  11.7633  11.7633
    11.9364  11.9364  12.6259  12.6259  12.6524  12.6525  12.7911  12.7911
    12.9636  12.9636  13.2293  13.2293  13.3818  13.3818  13.8892  13.8892
    14.9004  14.9004  15.6058  15.6058  16.0471  16.0471  16.1098  16.1099
    16.8310  16.8310  17.7472  17.7472  18.0266

          k = 0.1667 0.3167 0.0000 ( 61983 PWs)   bands (ev):

   -66.0386 -66.0383 -66.0377 -66.0376 -66.0374 -66.0374 -66.0367 -66.0365
   -30.4379 -30.4322 -30.4317 -30.4260 -30.4146 -30.4072 -30.4063 -30.3964
   -30.3923 -30.3919 -30.3835 -30.3796 -30.3727 -30.3724 -30.3662 -30.3639
   -30.2956 -30.2949 -30.2930 -30.2929 -30.2922 -30.2911 -30.2846 -30.2833
   -20.1943 -20.1942 -20.1942 -20.1941 -20.1939 -20.1938 -20.1938 -20.1937
   -20.1783 -20.1780 -20.1779 -20.1776 -20.1765 -20.1761 -20.1761 -20.1757
   -20.1740 -20.1737 -20.1736 -20.1732 -20.1730 -20.1727 -20.1727 -20.1724
   -20.1722 -20.1720 -20.1720 -20.1717 -20.1711 -20.1711 -20.1710 -20.1708
   -20.1623 -20.1621 -20.1620 -20.1619 -20.1585 -20.1583 -20.1582 -20.1580
   -20.1573 -20.1573 -20.1564 -20.1563 -20.1507 -20.1507 -20.1504 -20.1503
   -20.1494 -20.1493 -20.1488 -20.1487 -20.1470 -20.1470 -20.1457 -20.1457
    -9.7172  -9.5723  -9.3207  -9.2232  -9.1934  -9.0766  -8.8972  -8.8881
    -8.7200  -8.5957  -8.5956  -8.5761  -8.1138  -8.0667  -8.0605  -8.0392
    -7.8220  -7.8085  -7.7109  -7.6969  -7.6765  -7.6643  -7.5732  -7.5612
     1.4044   1.4063   1.4144   1.4144   1.6822   1.6914   1.8807   1.9294
     2.4447   2.5585   2.5778   2.5984   2.6207   2.7409   2.9794   3.0232
     3.1100   3.1507   3.6838   3.7050   3.8056   3.8329   4.2000   4.4597
     4.5077   4.5818   4.6338   4.8074   4.8409   4.8864   4.9765   5.0094
     5.1415   5.1427   5.3268   5.4226   5.4919   5.5721   5.6720   5.6994
     5.7733   5.8357   5.8566   5.9197   6.1133   6.1148   6.1426   6.1818
     6.3279   6.4137   6.4641   6.6379   6.7055   6.9072   6.9281   6.9718
     7.0201   7.0281   7.1227   7.1633   7.1683   7.1719   7.2576   7.2588
     7.3013   7.3255   7.8182   7.8403   7.8896   7.8945   7.9155   7.9368
     9.8622   9.8756  10.7731  10.8153  10.9936  10.9966  11.8698  12.0384
    12.0826  12.1552  12.3685  12.3804  12.4520  12.4839  12.8442  12.9152
    13.3097  13.3306  13.4635  13.4979  13.7053  13.7208  13.8778  13.8872
    15.0664  15.3168  15.4619  15.5457  15.5978  15.8209  15.9314  16.2006
    16.2729  16.9442  17.3461  17.4343  17.8245

          k = 0.1667 0.3167 0.1663 ( 62005 PWs)   bands (ev):

   -66.0385 -66.0383 -66.0376 -66.0376 -66.0374 -66.0374 -66.0368 -66.0365
   -30.4374 -30.4325 -30.4314 -30.4264 -30.4134 -30.4068 -30.4055 -30.3968
   -30.3880 -30.3873 -30.3777 -30.3750 -30.3730 -30.3703 -30.3666 -30.3623
   -30.3005 -30.2996 -30.2986 -30.2978 -30.2930 -30.2909 -30.2872 -30.2852
   -20.1943 -20.1942 -20.1941 -20.1940 -20.1939 -20.1939 -20.1938 -20.1937
   -20.1783 -20.1780 -20.1779 -20.1777 -20.1765 -20.1762 -20.1761 -20.1757
   -20.1740 -20.1738 -20.1736 -20.1733 -20.1731 -20.1728 -20.1728 -20.1725
   -20.1720 -20.1719 -20.1718 -20.1716 -20.1712 -20.1711 -20.1710 -20.1709
   -20.1623 -20.1621 -20.1621 -20.1619 -20.1585 -20.1584 -20.1582 -20.1580
   -20.1568 -20.1568 -20.1559 -20.1559 -20.1511 -20.1510 -20.1503 -20.1503
   -20.1499 -20.1498 -20.1490 -20.1488 -20.1469 -20.1469 -20.1458 -20.1458
    -9.6637  -9.5139  -9.2460  -9.2409  -9.1068  -9.0927  -8.8609  -8.8534
    -8.7289  -8.5902  -8.5819  -8.5792  -8.1162  -8.0705  -8.0619  -8.0454
    -7.8275  -7.8212  -7.7996  -7.7961  -7.7141  -7.7004  -7.6724  -7.6608
     1.5789   1.5824   1.6625   1.6677   1.6888   1.6980   1.9422   2.0024
     2.4491   2.5564   2.5840   2.6701   2.6961   2.7550   3.0325   3.0718
     3.1452   3.1965   3.7107   3.7474   3.8078   3.8361   4.1857   4.4891
     4.5118   4.5339   4.5617   4.6238   4.6835   4.8273   4.8457   4.9232
     4.9679   5.0140   5.2208   5.2366   5.4510   5.4676   5.4917   5.5107
     5.7145   5.7353   5.7987   5.8190   5.8816   5.8891   6.3315   6.3730
     6.4863   6.5015   6.5915   6.6914   6.8215   6.8617   6.9064   6.9434
     6.9761   6.9991   7.0686   7.0863   7.1530   7.1723   7.2022   7.2277
     7.3746   7.3954   7.8221   7.8410   7.8709   7.8895   7.9035   7.9206
    10.0947  10.1158  10.9316  10.9551  11.0039  11.0431  11.9568  12.0536
    12.1346  12.1533  12.3756  12.4088  12.4106  12.4431  12.8943  12.9437
    13.2203  13.3026  13.3138  13.4326  13.6592  13.7220  13.7317  13.8107
    15.2011  15.4855  15.5221  15.6082  15.6387  15.8865  16.2126  16.2456
    16.3360  16.9105  17.4108  17.4939  17.5191

          k = 0.1667 0.3167 0.3325 ( 61987 PWs)   bands (ev):

   -66.0383 -66.0381 -66.0378 -66.0376 -66.0374 -66.0372 -66.0369 -66.0367
   -30.4363 -30.4335 -30.4302 -30.4274 -30.4112 -30.4078 -30.4024 -30.3980
   -30.3797 -30.3780 -30.3742 -30.3685 -30.3619 -30.3607 -30.3586 -30.3547
   -30.3171 -30.3165 -30.3144 -30.3137 -30.2924 -30.2902 -30.2897 -30.2874
   -20.1942 -20.1941 -20.1941 -20.1940 -20.1940 -20.1939 -20.1939 -20.1938
   -20.1782 -20.1781 -20.1779 -20.1777 -20.1764 -20.1762 -20.1760 -20.1758
   -20.1740 -20.1738 -20.1737 -20.1735 -20.1732 -20.1730 -20.1729 -20.1727
   -20.1717 -20.1717 -20.1715 -20.1714 -20.1712 -20.1712 -20.1710 -20.1710
   -20.1623 -20.1621 -20.1621 -20.1620 -20.1585 -20.1584 -20.1583 -20.1581
   -20.1555 -20.1554 -20.1547 -20.1546 -20.1521 -20.1521 -20.1512 -20.1511
   -20.1501 -20.1500 -20.1494 -20.1492 -20.1467 -20.1467 -20.1461 -20.1460
    -9.5329  -9.3733  -9.2961  -9.1425  -9.0533  -8.8618  -8.7664  -8.7468
    -8.7267  -8.5951  -8.5638  -8.5182  -8.1865  -8.1586  -8.1118  -8.0675
    -8.0521  -8.0182  -8.0084  -7.9426  -7.7823  -7.7693  -7.7100  -7.6978
     1.6997   1.7117   1.7207   1.7300   2.2686   2.3435   2.3576   2.4676
     2.5165   2.5806   2.5930   2.7836   2.9456   3.0037   3.0569   3.1351
     3.3033   3.3991   3.7371   3.7425   3.7911   3.8668   3.9529   4.0267
     4.1769   4.3795   4.4382   4.4939   4.4951   4.6143   4.6797   4.7561
     4.7878   4.8960   4.9292   4.9508   5.0233   5.0953   5.2263   5.2462
     5.4054   5.4257   5.5312   5.6942   5.8409   5.8919   6.1866   6.2029
     6.5944   6.6779   6.6871   6.7991   6.8712   6.8938   6.9874   7.0327
     7.0685   7.0857   7.1245   7.1427   7.2015   7.2643   7.2760   7.3265
     7.3727   7.4172   7.7900   7.7988   7.8088   7.8251   7.8806   7.9002
    10.6557  10.6848  10.9934  11.0307  11.4086  11.4665  11.9476  12.0072
    12.0984  12.2129  12.2575  12.3322  12.5532  12.6438  12.6980  12.7780
    12.8745  13.0913  13.1345  13.3716  13.3771  13.4695  13.7056  13.7342
    15.3761  15.4893  15.8104  16.0341  16.0462  16.1181  16.2002  16.7832
    16.7926  16.9217  17.0594  17.6184  17.7297

          k = 0.1667 0.3167-0.4988 ( 61998 PWs)   bands (ev):

   -66.0381 -66.0381 -66.0378 -66.0378 -66.0372 -66.0372 -66.0370 -66.0370
   -30.4348 -30.4348 -30.4288 -30.4288 -30.4093 -30.4093 -30.3998 -30.3998
   -30.3761 -30.3761 -30.3714 -30.3714 -30.3398 -30.3398 -30.3396 -30.3396
   -30.3365 -30.3365 -30.3362 -30.3362 -30.2912 -30.2912 -30.2890 -30.2890
   -20.1941 -20.1941 -20.1940 -20.1940 -20.1940 -20.1940 -20.1939 -20.1939
   -20.1782 -20.1782 -20.1778 -20.1778 -20.1763 -20.1763 -20.1759 -20.1759
   -20.1739 -20.1739 -20.1736 -20.1736 -20.1731 -20.1731 -20.1729 -20.1728
   -20.1714 -20.1714 -20.1714 -20.1714 -20.1712 -20.1712 -20.1711 -20.1711
   -20.1622 -20.1622 -20.1620 -20.1620 -20.1584 -20.1584 -20.1583 -20.1583
   -20.1538 -20.1538 -20.1537 -20.1537 -20.1529 -20.1529 -20.1529 -20.1529
   -20.1498 -20.1498 -20.1497 -20.1497 -20.1464 -20.1464 -20.1464 -20.1464
    -9.3945  -9.3945  -9.2339  -9.2339  -8.8588  -8.8588  -8.6305  -8.6305
    -8.5132  -8.5132  -8.4808  -8.4808  -8.4125  -8.4125  -8.3308  -8.3308
    -8.0645  -8.0645  -8.0237  -8.0237  -7.7461  -7.7461  -7.7333  -7.7333
     1.7186   1.7186   1.7313   1.7314   2.4516   2.4516   2.5684   2.5684
     3.0271   3.0271   3.1451   3.1451   3.1847   3.1847   3.3151   3.3151
     3.3624   3.3624   3.5346   3.5346   3.5827   3.5827   3.7892   3.7892
     4.1352   4.1352   4.1603   4.1603   4.1992   4.1992   4.4299   4.4299
     4.8278   4.8278   4.9242   4.9242   5.0853   5.0853   5.1288   5.1288
     5.2240   5.2240   5.6026   5.6026   5.9351   5.9351   5.9578   5.9578
     6.7158   6.7158   6.8284   6.8284   6.8776   6.8776   6.9287   6.9287
     7.1019   7.1019   7.1468   7.1468   7.2500   7.2500   7.5874   7.5874
     7.6125   7.6125   7.6294   7.6294   7.6750   7.6750   7.8849   7.8849
    10.9593  10.9593  11.3691  11.3691  11.4497  11.4498  11.9115  11.9115
    12.1089  12.1089  12.2986  12.2986  12.6078  12.6078  12.6632  12.6632
    12.8782  12.8782  12.9939  12.9939  13.3470  13.3470  13.7024  13.7024
    15.4503  15.4503  16.0031  16.0031  16.4469  16.4469  16.5463  16.5463
    16.9658  16.9658  17.3989  17.3989  17.9348

          k = 0.1667-0.4750 0.0000 ( 61994 PWs)   bands (ev):

   -66.0384 -66.0384 -66.0376 -66.0375 -66.0375 -66.0375 -66.0366 -66.0366
   -30.4254 -30.4254 -30.4188 -30.4188 -30.4183 -30.4183 -30.4112 -30.4112
   -30.3923 -30.3922 -30.3826 -30.3826 -30.3705 -30.3705 -30.3684 -30.3684
   -30.2952 -30.2952 -30.2926 -30.2926 -30.2921 -30.2921 -30.2841 -30.2841
   -20.1942 -20.1942 -20.1941 -20.1941 -20.1939 -20.1939 -20.1938 -20.1938
   -20.1774 -20.1773 -20.1770 -20.1770 -20.1769 -20.1769 -20.1766 -20.1766
   -20.1735 -20.1735 -20.1733 -20.1733 -20.1731 -20.1731 -20.1728 -20.1728
   -20.1722 -20.1722 -20.1719 -20.1719 -20.1712 -20.1712 -20.1710 -20.1710
   -20.1622 -20.1622 -20.1620 -20.1619 -20.1584 -20.1584 -20.1581 -20.1581
   -20.1573 -20.1573 -20.1564 -20.1563 -20.1507 -20.1507 -20.1504 -20.1504
   -20.1494 -20.1494 -20.1487 -20.1487 -20.1470 -20.1470 -20.1457 -20.1457
    -9.6351  -9.6351  -9.2429  -9.2429  -9.1321  -9.1321  -8.8925  -8.8924
    -8.4201  -8.4201  -8.3648  -8.3648  -8.3515  -8.3515  -8.3482  -8.3482
    -7.8168  -7.8168  -7.7043  -7.7043  -7.6709  -7.6709  -7.5674  -7.5674
     1.4054   1.4054   1.4149   1.4149   1.6895   1.6895   1.9190   1.9190
     2.5981   2.5981   3.1442   3.1442   3.2429   3.2429   3.3074   3.3074
     3.3680   3.3680   3.4278   3.4278   3.6189   3.6189   3.7007   3.7007
     3.8178   3.8178   4.5326   4.5326   4.8522   4.8522   5.1288   5.1289
     5.2213   5.2213   5.3024   5.3024   5.4111   5.4111   5.5994   5.5994
     5.7996   5.7996   5.8408   5.8408   6.1342   6.1342   6.1770   6.1770
     6.4370   6.4370   6.4653   6.4654   6.7933   6.7933   6.9708   6.9708
     7.0584   7.0584   7.2292   7.2292   7.2452   7.2452   7.5246   7.5246
     7.5506   7.5506   7.5934   7.5934   7.6205   7.6205   7.8601   7.8601
     9.8718   9.8718  11.3410  11.3410  11.4116  11.4117  11.5464  11.5464
    11.6191  11.6191  12.3768  12.3768  12.4659  12.4659  12.8942  12.8942
    13.4316  13.4316  13.5226  13.5226  13.6358  13.6358  13.6578  13.6578
    15.5007  15.5007  15.6520  15.6520  15.7233  15.7233  16.0116  16.0116
    16.6950  16.6950  17.9554  17.9555  18.1491

          k = 0.1667-0.4750 0.1663 ( 61982 PWs)   bands (ev):

   -66.0384 -66.0384 -66.0375 -66.0375 -66.0375 -66.0375 -66.0367 -66.0366
   -30.4247 -30.4247 -30.4191 -30.4191 -30.4177 -30.4177 -30.4116 -30.4115
   -30.3876 -30.3876 -30.3771 -30.3770 -30.3706 -30.3706 -30.3668 -30.3668
   -30.3001 -30.3000 -30.2983 -30.2982 -30.2921 -30.2920 -30.2863 -30.2863
   -20.1942 -20.1942 -20.1941 -20.1941 -20.1939 -20.1939 -20.1938 -20.1938
   -20.1773 -20.1773 -20.1770 -20.1770 -20.1769 -20.1769 -20.1766 -20.1766
   -20.1736 -20.1736 -20.1733 -20.1733 -20.1732 -20.1732 -20.1729 -20.1729
   -20.1721 -20.1720 -20.1717 -20.1717 -20.1712 -20.1712 -20.1710 -20.1710
   -20.1622 -20.1622 -20.1620 -20.1620 -20.1584 -20.1584 -20.1581 -20.1581
   -20.1568 -20.1568 -20.1559 -20.1559 -20.1511 -20.1510 -20.1503 -20.1503
   -20.1499 -20.1499 -20.1489 -20.1489 -20.1469 -20.1469 -20.1458 -20.1458
    -9.5785  -9.5785  -9.1598  -9.1595  -9.1492  -9.1492  -8.8571  -8.8571
    -8.4275  -8.4271  -8.3629  -8.3618  -8.3549  -8.3538  -8.3466  -8.3453
    -7.8247  -7.8239  -7.8003  -7.8002  -7.7082  -7.7081  -7.6671  -7.6669
     1.5793   1.5817   1.6661   1.6681   1.6955   1.6968   1.9896   1.9912
     2.6904   2.6920   3.1610   3.1621   3.2358   3.2589   3.3008   3.3150
     3.3813   3.4075   3.4204   3.4641   3.6508   3.6628   3.7002   3.7053
     3.8392   3.8434   4.5251   4.5695   4.5737   4.6196   5.0047   5.0248
     5.1018   5.1030   5.1745   5.2177   5.2286   5.2692   5.5199   5.5206
     5.5585   5.5676   5.7947   5.8348   5.8385   5.8648   6.3631   6.3699
[...]
    11.6504  11.6504  11.6504  11.6504  11.8091  11.8091  11.8091  11.8091
    12.1048  12.1048  12.1048  12.1048  12.3277  12.3277  12.3277  12.3277
    13.0981  13.0981  13.0981  13.0981  13.2819  13.2819  13.2819  13.2819
    15.3934  15.3934  15.3934  15.3934  16.8822  16.8822  16.8822  16.8822
    17.6499  17.6500  17.6500  17.6500  17.8689

          k =-0.5000 0.3167 0.0000 ( 62012 PWs)   bands (ev):

   -66.0381 -66.0381 -66.0379 -66.0379 -66.0371 -66.0371 -66.0369 -66.0369
   -30.4345 -30.4345 -30.4288 -30.4288 -30.4100 -30.4099 -30.3999 -30.3999
   -30.3864 -30.3864 -30.3837 -30.3837 -30.3352 -30.3352 -30.3333 -30.3333
   -30.3304 -30.3304 -30.3294 -30.3294 -30.2907 -30.2907 -30.2901 -30.2900
   -20.1942 -20.1942 -20.1941 -20.1941 -20.1939 -20.1939 -20.1938 -20.1938
   -20.1782 -20.1782 -20.1779 -20.1779 -20.1764 -20.1763 -20.1760 -20.1760
   -20.1739 -20.1739 -20.1734 -20.1734 -20.1729 -20.1728 -20.1726 -20.1725
   -20.1721 -20.1721 -20.1719 -20.1719 -20.1711 -20.1711 -20.1710 -20.1710
   -20.1602 -20.1601 -20.1600 -20.1600 -20.1599 -20.1599 -20.1598 -20.1598
   -20.1569 -20.1569 -20.1569 -20.1568 -20.1500 -20.1500 -20.1500 -20.1500
   -20.1489 -20.1489 -20.1488 -20.1488 -20.1476 -20.1475 -20.1474 -20.1474
    -9.4693  -9.4693  -9.3266  -9.3266  -8.8463  -8.8462  -8.6544  -8.6544
    -8.4840  -8.4840  -8.4774  -8.4773  -8.4121  -8.4121  -8.3200  -8.3200
    -8.0588  -8.0588  -8.0189  -8.0189  -7.6380  -7.6380  -7.6255  -7.6255
     1.4417   1.4417   1.4473   1.4473   2.4392   2.4392   2.5818   2.5818
     3.0165   3.0165   3.0827   3.0827   3.1446   3.1446   3.3078   3.3078
     3.3495   3.3495   3.4925   3.4925   3.5671   3.5671   3.7346   3.7347
     4.0878   4.0878   4.1442   4.1442   4.2962   4.2962   4.4680   4.4680
     4.9063   4.9063   4.9812   4.9812   5.2204   5.2204   5.3803   5.3803
     5.5186   5.5186   5.8063   5.8063   6.2853   6.2853   6.3308   6.3308
     6.5470   6.5470   6.6100   6.6100   6.6143   6.6143   6.8242   6.8242
     7.1061   7.1061   7.1460   7.1461   7.1486   7.1486   7.5475   7.5475
     7.5663   7.5663   7.6672   7.6672   7.6975   7.6975   7.9200   7.9200
    10.7967  10.7967  11.3085  11.3085  11.3634  11.3634  11.7353  11.7353
    12.1115  12.1115  12.2728  12.2728  12.6262  12.6262  12.7756  12.7756
    12.9020  12.9020  13.0714  13.0714  13.4831  13.4831  13.8714  13.8714
    15.2495  15.2495  15.7188  15.7188  16.3802  16.3802  16.5439  16.5439
    16.8341  16.8341  17.3650  17.3650  17.9686

          k =-0.5000 0.3167 0.1663 ( 62000 PWs)   bands (ev):

   -66.0381 -66.0380 -66.0378 -66.0378 -66.0372 -66.0372 -66.0370 -66.0370
   -30.4341 -30.4341 -30.4291 -30.4291 -30.4084 -30.4084 -30.4003 -30.4003
   -30.3804 -30.3804 -30.3789 -30.3788 -30.3349 -30.3349 -30.3335 -30.3335
   -30.3304 -30.3303 -30.3298 -30.3298 -30.2967 -30.2967 -30.2962 -30.2962
   -20.1942 -20.1942 -20.1941 -20.1941 -20.1939 -20.1939 -20.1938 -20.1938
   -20.1782 -20.1781 -20.1779 -20.1779 -20.1763 -20.1763 -20.1760 -20.1760
   -20.1739 -20.1739 -20.1735 -20.1735 -20.1729 -20.1729 -20.1726 -20.1726
   -20.1719 -20.1719 -20.1718 -20.1718 -20.1711 -20.1711 -20.1710 -20.1710
   -20.1602 -20.1602 -20.1601 -20.1600 -20.1599 -20.1599 -20.1598 -20.1598
   -20.1564 -20.1564 -20.1564 -20.1564 -20.1505 -20.1504 -20.1504 -20.1504
   -20.1488 -20.1488 -20.1487 -20.1487 -20.1477 -20.1477 -20.1476 -20.1476
    -9.4000  -9.4000  -9.2458  -9.2458  -8.8614  -8.8614  -8.6352  -8.6352
    -8.5003  -8.5003  -8.4726  -8.4726  -8.3995  -8.3995  -8.3237  -8.3237
    -8.0562  -8.0562  -8.0242  -8.0242  -7.7563  -7.7563  -7.7430  -7.7430
     1.6906   1.6906   1.7005   1.7005   2.4444   2.4444   2.5649   2.5649
     3.0626   3.0626   3.1299   3.1299   3.1531   3.1531   3.3252   3.3252
     3.3721   3.3721   3.5553   3.5553   3.6105   3.6105   3.7826   3.7826
     4.0787   4.0788   4.1534   4.1534   4.2912   4.2912   4.4674   4.4675
     4.8103   4.8103   4.8897   4.8897   5.0821   5.0821   5.1301   5.1302
     5.2358   5.2358   5.5988   5.5988   5.9221   5.9221   5.9490   5.9490
     6.7204   6.7204   6.8533   6.8533   6.8953   6.8953   6.9334   6.9334
     7.0797   7.0797   7.1560   7.1560   7.2246   7.2246   7.5573   7.5573
     7.5827   7.5827   7.6739   7.6739   7.7049   7.7049   7.8988   7.8988
    10.9554  10.9555  11.3818  11.3818  11.4426  11.4426  11.7921  11.7921
    12.1257  12.1257  12.3120  12.3120  12.6115  12.6115  12.7342  12.7342
    12.8856  12.8856  13.0334  13.0334  13.3282  13.3282  13.7326  13.7326
    15.4535  15.4535  15.9689  15.9689  16.4407  16.4407  16.5447  16.5447
    16.8919  16.8919  17.4025  17.4025  17.9108

          k =-0.5000 0.3167 0.3325 ( 61982 PWs)   bands (ev):

   -66.0379 -66.0379 -66.0377 -66.0376 -66.0374 -66.0374 -66.0372 -66.0372
   -30.4329 -30.4329 -30.4301 -30.4301 -30.4055 -30.4055 -30.4014 -30.4014
   -30.3644 -30.3643 -30.3640 -30.3640 -30.3352 -30.3352 -30.3346 -30.3346
   -30.3316 -30.3316 -30.3290 -30.3290 -30.3125 -30.3124 -30.3119 -30.3119
   -20.1941 -20.1941 -20.1941 -20.1940 -20.1940 -20.1939 -20.1939 -20.1939
   -20.1781 -20.1781 -20.1780 -20.1780 -20.1763 -20.1762 -20.1761 -20.1761
   -20.1739 -20.1739 -20.1736 -20.1736 -20.1730 -20.1730 -20.1728 -20.1728
   -20.1716 -20.1716 -20.1716 -20.1716 -20.1711 -20.1711 -20.1711 -20.1711
   -20.1602 -20.1602 -20.1601 -20.1601 -20.1599 -20.1599 -20.1598 -20.1598
   -20.1551 -20.1551 -20.1551 -20.1551 -20.1517 -20.1516 -20.1516 -20.1516
   -20.1486 -20.1486 -20.1485 -20.1485 -20.1480 -20.1479 -20.1479 -20.1479
    -9.2221  -9.2221  -9.0245  -9.0245  -8.9140  -8.9140  -8.5892  -8.5892
    -8.5405  -8.5405  -8.4405  -8.4405  -8.3755  -8.3755  -8.3314  -8.3314
    -8.0864  -8.0864  -8.0502  -8.0502  -8.0319  -8.0319  -7.9804  -7.9804
     2.2928   2.2928   2.3728   2.3728   2.4619   2.4619   2.5865   2.5865
     3.1055   3.1055   3.1511   3.1511   3.2777   3.2777   3.3462   3.3462
     3.4364   3.4364   3.7123   3.7124   3.7890   3.7890   3.8916   3.8916
     4.0451   4.0451   4.1784   4.1784   4.2793   4.2793   4.3104   4.3104
     4.4324   4.4324   4.5618   4.5618   4.7313   4.7313   4.9354   4.9354
     5.0181   5.0181   5.1190   5.1190   5.1470   5.1470   5.3915   5.3915
     6.9105   6.9105   6.9698   6.9698   7.0510   7.0510   7.0961   7.0961
     7.2537   7.2537   7.3527   7.3527   7.4293   7.4293   7.5620   7.5620
     7.6028   7.6028   7.6854   7.6854   7.7131   7.7131   7.8398   7.8398
    11.3649  11.3650  11.6117  11.6117  11.7014  11.7014  11.8902  11.8902
    12.1808  12.1808  12.4163  12.4163  12.4742  12.4743  12.4910  12.4910
    12.8258  12.8258  12.9194  12.9194  12.9700  12.9700  13.3695  13.3695
    15.9621  15.9621  16.4114  16.4114  16.6831  16.6832  16.7580  16.7580
    17.1052  17.1052  17.4660  17.4660  17.7240

          k =-0.5000 0.3167-0.4988 ( 61964 PWs)   bands (ev):

   -66.0376 -66.0376 -66.0376 -66.0376 -66.0374 -66.0374 -66.0374 -66.0374
   -30.4315 -30.4315 -30.4315 -30.4315 -30.4032 -30.4032 -30.4032 -30.4031
   -30.3457 -30.3457 -30.3457 -30.3457 -30.3430 -30.3429 -30.3429 -30.3429
   -30.3288 -30.3288 -30.3288 -30.3288 -30.3247 -30.3247 -30.3247 -30.3247
   -20.1941 -20.1940 -20.1940 -20.1940 -20.1940 -20.1940 -20.1940 -20.1940
   -20.1780 -20.1780 -20.1780 -20.1780 -20.1762 -20.1762 -20.1761 -20.1761
   -20.1738 -20.1738 -20.1738 -20.1738 -20.1730 -20.1730 -20.1730 -20.1730
   -20.1714 -20.1714 -20.1714 -20.1714 -20.1712 -20.1712 -20.1712 -20.1712
   -20.1602 -20.1602 -20.1602 -20.1602 -20.1599 -20.1599 -20.1599 -20.1599
   -20.1534 -20.1534 -20.1534 -20.1534 -20.1533 -20.1533 -20.1533 -20.1533
   -20.1483 -20.1483 -20.1483 -20.1483 -20.1482 -20.1482 -20.1482 -20.1482
    -9.0310  -9.0310  -9.0310  -9.0310  -8.7474  -8.7474  -8.7474  -8.7474
    -8.4251  -8.4251  -8.4250  -8.4250  -8.3135  -8.3135  -8.3135  -8.3134
    -8.2890  -8.2890  -8.2890  -8.2890  -8.0281  -8.0281  -8.0281  -8.0281
     2.4589   2.4589   2.4589   2.4589   3.0539   3.0539   3.0539   3.0539
     3.1647   3.1647   3.1647   3.1647   3.3081   3.3082   3.3082   3.3082
     3.4337   3.4337   3.4337   3.4337   3.9712   3.9712   3.9712   3.9713
     4.0828   4.0828   4.0828   4.0828   4.1778   4.1778   4.1778   4.1778
     4.4051   4.4051   4.4051   4.4051   4.4848   4.4848   4.4848   4.4848
     4.8099   4.8099   4.8099   4.8099   5.1457   5.1457   5.1457   5.1457
     6.9736   6.9736   6.9736   6.9736   7.0871   7.0871   7.0871   7.0871
     7.4676   7.4676   7.4676   7.4676   7.5397   7.5397   7.5398   7.5398
     7.6434   7.6434   7.6434   7.6434   7.7609   7.7609   7.7609   7.7609
    11.8065  11.8065  11.8065  11.8065  11.9375  11.9375  11.9375  11.9375
    12.1347  12.1347  12.1347  12.1347  12.4104  12.4104  12.4104  12.4104
    12.7780  12.7780  12.7780  12.7780  12.9851  12.9851  12.9851  12.9851
    16.3079  16.3079  16.3079  16.3079  17.0500  17.0500  17.0500  17.0500
    17.5163  17.5163  17.5163  17.5163  17.8707

          k =-0.5000-0.4750 0.0000 ( 62048 PWs)   bands (ev):

   -66.0380 -66.0380 -66.0380 -66.0380 -66.0370 -66.0370 -66.0370 -66.0370
   -30.4216 -30.4216 -30.4211 -30.4211 -30.4146 -30.4146 -30.4139 -30.4139
   -30.3860 -30.3860 -30.3857 -30.3857 -30.3343 -30.3343 -30.3335 -30.3335
   -30.3309 -30.3309 -30.3301 -30.3301 -30.2904 -30.2904 -30.2904 -30.2904
   -20.1942 -20.1942 -20.1942 -20.1942 -20.1938 -20.1938 -20.1938 -20.1938
   -20.1773 -20.1773 -20.1771 -20.1771 -20.1769 -20.1769 -20.1768 -20.1768
   -20.1734 -20.1734 -20.1733 -20.1733 -20.1730 -20.1730 -20.1729 -20.1729
   -20.1721 -20.1721 -20.1720 -20.1720 -20.1711 -20.1711 -20.1711 -20.1711
   -20.1601 -20.1601 -20.1600 -20.1600 -20.1599 -20.1599 -20.1598 -20.1598
   -20.1569 -20.1569 -20.1569 -20.1568 -20.1500 -20.1500 -20.1500 -20.1500
   -20.1488 -20.1488 -20.1488 -20.1488 -20.1475 -20.1475 -20.1475 -20.1475
    -9.3879  -9.3879  -9.3820  -9.3820  -8.6264  -8.6264  -8.6011  -8.6011
    -8.5367  -8.5367  -8.5165  -8.5165  -8.3260  -8.3260  -8.2802  -8.2802
    -8.2570  -8.2570  -8.2152  -8.2152  -7.6321  -7.6321  -7.6318  -7.6318
     1.4427   1.4427   1.4483   1.4483   2.9928   2.9928   3.0920   3.0920
     3.1646   3.1646   3.1656   3.1656   3.2991   3.2991   3.3087   3.3088
     3.3885   3.3885   3.4619   3.4619   3.5546   3.5546   3.5637   3.5637
     3.6176   3.6176   3.9016   3.9016   4.3499   4.3499   4.4241   4.4241
     4.4362   4.4363   4.5429   4.5429   5.2908   5.2909   5.3326   5.3326
     5.5703   5.5703   5.6197   5.6197   6.3173   6.3173   6.3290   6.3290
     6.6064   6.6064   6.6212   6.6212   6.6724   6.6724   6.7348   6.7348
     7.3207   7.3207   7.3379   7.3379   7.3710   7.3710   7.5034   7.5034
     7.5636   7.5636   7.6217   7.6217   7.6386   7.6386   7.6600   7.6600
    11.3050  11.3050  11.3240  11.3240  11.3861  11.3861  11.4126  11.4126
    12.3068  12.3068  12.3672  12.3672  12.4206  12.4206  12.4937  12.4937
    12.9416  12.9416  12.9538  12.9538  13.6144  13.6144  13.6521  13.6521
    15.5661  15.5661  15.5779  15.5779  16.8875  16.8875  16.9990  16.9990
    17.3198  17.3198  17.4089  17.4093  17.4815

          k =-0.5000-0.4750 0.1663 ( 61956 PWs)   bands (ev):

   -66.0379 -66.0379 -66.0379 -66.0379 -66.0371 -66.0371 -66.0371 -66.0371
   -30.4208 -30.4208 -30.4203 -30.4203 -30.4149 -30.4149 -30.4142 -30.4142
   -30.3803 -30.3803 -30.3800 -30.3800 -30.3341 -30.3341 -30.3334 -30.3333
   -30.3312 -30.3312 -30.3304 -30.3304 -30.2966 -30.2966 -30.2965 -30.2965
   -20.1942 -20.1942 -20.1941 -20.1941 -20.1939 -20.1938 -20.1938 -20.1938
   -20.1772 -20.1772 -20.1771 -20.1771 -20.1770 -20.1770 -20.1768 -20.1768
   -20.1735 -20.1735 -20.1734 -20.1734 -20.1731 -20.1731 -20.1730 -20.1730
   -20.1719 -20.1719 -20.1719 -20.1719 -20.1711 -20.1711 -20.1711 -20.1711
   -20.1601 -20.1601 -20.1601 -20.1601 -20.1599 -20.1599 -20.1599 -20.1598
   -20.1564 -20.1564 -20.1564 -20.1564 -20.1504 -20.1504 -20.1504 -20.1504
   -20.1488 -20.1488 -20.1488 -20.1488 -20.1476 -20.1476 -20.1476 -20.1476
    -9.3114  -9.3114  -9.3046  -9.3046  -8.6467  -8.6467  -8.6221  -8.6221
    -8.5193  -8.5193  -8.4974  -8.4974  -8.3229  -8.3229  -8.2809  -8.2809
    -8.2558  -8.2558  -8.2183  -8.2183  -7.7503  -7.7503  -7.7500  -7.7500
     1.6946   1.6946   1.7015   1.7015   3.0045   3.0045   3.1023   3.1023
     3.1654   3.1654   3.1753   3.1753   3.2819   3.2819   3.3365   3.3365
     3.4290   3.4290   3.5199   3.5199   3.5901   3.5901   3.6211   3.6211
     3.6563   3.6563   3.9241   3.9241   4.3550   4.3550   4.4100   4.4100
     4.4377   4.4378   4.5332   4.5332   4.9675   4.9675   5.1439   5.1439
     5.2351   5.2351   5.3867   5.3867   5.9216   5.9216   5.9438   5.9438
     6.7912   6.7912   6.8564   6.8564   6.9317   6.9317   6.9690   6.9690
     7.3108   7.3108   7.3377   7.3377   7.4145   7.4145   7.4929   7.4929
     7.5512   7.5512   7.6120   7.6120   7.6577   7.6577   7.6793   7.6794
    11.3585  11.3585  11.4025  11.4025  11.4874  11.4874  11.5652  11.5652
    12.3141  12.3142  12.3729  12.3729  12.4152  12.4152  12.5037  12.5037
    12.8579  12.8579  12.9279  12.9279  13.4558  13.4558  13.5109  13.5109
    15.8122  15.8122  15.8345  15.8345  16.9433  16.9433  17.0514  17.0514
    17.3282  17.3282  17.4213  17.4215  17.4822

          k =-0.5000-0.4750 0.3325 ( 61916 PWs)   bands (ev):

   -66.0378 -66.0378 -66.0378 -66.0377 -66.0373 -66.0373 -66.0373 -66.0373
   -30.4192 -30.4192 -30.4186 -30.4186 -30.4160 -30.4159 -30.4153 -30.4153
   -30.3645 -30.3645 -30.3643 -30.3643 -30.3349 -30.3349 -30.3344 -30.3344
   -30.3312 -30.3312 -30.3303 -30.3303 -30.3125 -30.3125 -30.3122 -30.3122
   -20.1941 -20.1941 -20.1941 -20.1941 -20.1939 -20.1939 -20.1939 -20.1939
   -20.1772 -20.1772 -20.1771 -20.1771 -20.1770 -20.1770 -20.1769 -20.1769
   -20.1735 -20.1735 -20.1734 -20.1734 -20.1732 -20.1732 -20.1731 -20.1731
   -20.1717 -20.1717 -20.1717 -20.1717 -20.1712 -20.1712 -20.1712 -20.1712
   -20.1602 -20.1601 -20.1601 -20.1601 -20.1599 -20.1599 -20.1599 -20.1599
   -20.1551 -20.1551 -20.1551 -20.1551 -20.1516 -20.1516 -20.1516 -20.1516
   -20.1486 -20.1486 -20.1486 -20.1486 -20.1479 -20.1479 -20.1479 -20.1479
    -9.1065  -9.1065  -9.0966  -9.0966  -8.7131  -8.7131  -8.6891  -8.6891
    -8.4631  -8.4631  -8.4400  -8.4400  -8.3155  -8.3155  -8.2863  -8.2863
    -8.2494  -8.2494  -8.2272  -8.2271  -8.0311  -8.0311  -8.0303  -8.0303
     2.3565   2.3565   2.3707   2.3707   3.0318   3.0319   3.0900   3.0900
     3.1799   3.1799   3.1999   3.1999   3.2990   3.2990   3.3334   3.3334
     3.5164   3.5165   3.5709   3.5709   3.6846   3.6846   3.7346   3.7347
     3.8836   3.8836   4.0165   4.0165   4.3252   4.3253   4.3437   4.3437
     4.4066   4.4066   4.4776   4.4776   4.5724   4.5724   4.6872   4.6872
     4.7624   4.7625   4.9113   4.9113   5.1365   5.1365   5.1714   5.1714
     7.0428   7.0428   7.1430   7.1430   7.2313   7.2313   7.2591   7.2591
     7.3317   7.3317   7.3807   7.3807   7.4579   7.4579   7.4724   7.4724
     7.5504   7.5504   7.6305   7.6305   7.6677   7.6677   7.7076   7.7076
    11.5837  11.5837  11.6166  11.6166  11.8231  11.8231  11.9149  11.9149
    12.2922  12.2922  12.3351  12.3351  12.4037  12.4037  12.5022  12.5022
    12.6246  12.6246  12.7393  12.7393  13.0498  13.0498  13.1282  13.1282
    16.5143  16.5143  16.5663  16.5663  17.0969  17.0969  17.1915  17.1916
    17.3315  17.3316  17.4349  17.4356  17.4858

          k =-0.5000-0.4750-0.4988 ( 61992 PWs)   bands (ev):

   -66.0375 -66.0375 -66.0375 -66.0375 -66.0375 -66.0375 -66.0375 -66.0375
   -30.4175 -30.4175 -30.4175 -30.4175 -30.4168 -30.4168 -30.4168 -30.4168
   -30.3456 -30.3456 -30.3456 -30.3456 -30.3430 -30.3430 -30.3430 -30.3430
   -30.3282 -30.3282 -30.3282 -30.3282 -30.3257 -30.3257 -30.3257 -30.3257
   -20.1940 -20.1940 -20.1940 -20.1940 -20.1940 -20.1940 -20.1940 -20.1940
   -20.1771 -20.1771 -20.1771 -20.1771 -20.1770 -20.1770 -20.1770 -20.1770
   -20.1735 -20.1735 -20.1735 -20.1735 -20.1733 -20.1733 -20.1733 -20.1733
   -20.1715 -20.1715 -20.1715 -20.1715 -20.1713 -20.1713 -20.1713 -20.1713
   -20.1602 -20.1601 -20.1601 -20.1601 -20.1599 -20.1599 -20.1599 -20.1599
   -20.1534 -20.1534 -20.1534 -20.1534 -20.1533 -20.1533 -20.1533 -20.1533
   -20.1483 -20.1483 -20.1483 -20.1483 -20.1483 -20.1482 -20.1482 -20.1482
    -8.8660  -8.8660  -8.8660  -8.8660  -8.8466  -8.8466  -8.8466  -8.8466
    -8.3415  -8.3415  -8.3415  -8.3415  -8.3146  -8.3146  -8.3146  -8.3146
    -8.2613  -8.2613  -8.2613  -8.2613  -8.2348  -8.2348  -8.2348  -8.2348
     2.9971   2.9971   2.9971   2.9971   3.0743   3.0743   3.0743   3.0743
     3.2201   3.2201   3.2201   3.2201   3.3291   3.3291   3.3291   3.3291
     3.4417   3.4417   3.4417   3.4417   3.6007   3.6007   3.6007   3.6007
     4.2244   4.2244   4.2244   4.2244   4.2446   4.2446   4.2446   4.2446
     4.4355   4.4355   4.4355   4.4355   4.4880   4.4880   4.4880   4.4880
     4.5602   4.5602   4.5602   4.5602   4.6188   4.6188   4.6189   4.6189
     7.1763   7.1763   7.1763   7.1763   7.3412   7.3412   7.3412   7.3412
     7.3990   7.3990   7.3990   7.3990   7.4477   7.4477   7.4477   7.4477
     7.6337   7.6337   7.6337   7.6337   7.6935   7.6935   7.6935   7.6935
    11.9377  11.9377  11.9377  11.9377  11.9539  11.9539  11.9539  11.9539
    12.2938  12.2938  12.2938  12.2938  12.4495  12.4495  12.4495  12.4495
    12.6137  12.6137  12.6137  12.6137  12.6945  12.6945  12.6945  12.6945
    17.1667  17.1667  17.1667  17.1668  17.2387  17.2387  17.2387  17.2387
    17.4445  17.4445  17.4445  17.4445  17.4923

     the Fermi energy is     9.8461 ev

!    total energy              =   -6260.97001915 Ry
     Harris-Foulkes estimate   =   -6260.97001915 Ry
     estimated scf accuracy    <          7.9E-10 Ry

     The total energy is the sum of the following terms:

     one-electron contribution =   -4699.11315179 Ry
     hartree contribution      =    2587.93728290 Ry
     xc contribution           =    -965.88559099 Ry
     ewald contribution        =   -3183.90853117 Ry
     smearing contrib. (-TS)   =      -0.00002810 Ry

     convergence has been achieved in  13 iterations

     Writing output data file Landau_11.save
 
     init_run     :     30.83s CPU     32.84s WALL (       1 calls)
     electrons    :   1435.87s CPU   1472.14s WALL (       1 calls)

     Called by init_run:
     wfcinit      :     28.27s CPU     30.12s WALL (       1 calls)
     potinit      :      1.10s CPU      1.14s WALL (       1 calls)

     Called by electrons:
     c_bands      :   1247.19s CPU   1281.07s WALL (      13 calls)
     sum_band     :    178.92s CPU    180.48s WALL (      13 calls)
     v_of_rho     :      1.20s CPU      1.24s WALL (      14 calls)
     mix_rho      :      2.24s CPU      2.82s WALL (      13 calls)

     Called by c_bands:
     init_us_2    :      8.70s CPU      9.40s WALL (      54 calls)
     cegterg      :    844.05s CPU    875.57s WALL (      26 calls)

     Called by sum_band:

     Called by *egterg:
     h_psi        :    694.23s CPU    699.69s WALL (     105 calls)
     g_psi        :      1.64s CPU      1.67s WALL (      77 calls)
     cdiaghg      :     10.73s CPU     10.78s WALL (     103 calls)

     Called by h_psi:
     h_psi:pot    :    688.77s CPU    693.95s WALL (     105 calls)
     h_psi:calbec :     64.58s CPU     67.20s WALL (     105 calls)
     vloc_psi     :    553.86s CPU    555.99s WALL (     105 calls)
     add_vuspsi   :     70.33s CPU     70.76s WALL (     105 calls)

     General routines
     calbec       :     64.58s CPU     67.20s WALL (     105 calls)
     fft          :      0.87s CPU      0.88s WALL (      56 calls)
     fftw         :    554.64s CPU    556.27s WALL (   33728 calls)
 
     Parallel routines
 
     PWSCF        : 24m32.27s CPU    25m12.65s WALL

 
   This run was terminated on:   1:50: 2  19Mar2020            

=------------------------------------------------------------------------------=
   JOB DONE.
=------------------------------------------------------------------------------=
