
     Program PWSCF v.6.4.1 starts on 21Nov2019 at 15:37:34 

     This program is part of the open-source Quantum ESPRESSO suite
     for quantum simulation of materials; please cite
         "P. Giannozzi et al., J. Phys.:Condens. Matter 21 395502 (2009);
         "P. Giannozzi et al., J. Phys.:Condens. Matter 29 465901 (2017);
          URL http://www.quantum-espresso.org", 
     in publications or presentations arising from this work. More details at
     http://www.quantum-espresso.org/quote

     Parallel version (MPI), running on    40 processors

     MPI processes distributed on     4 nodes
     K-points division:     npool     =      40
     Reading input from scf.in

     Current dimensions of program PWSCF are:
     Max number of different atomic species (ntypx) = 10
     Max number of k-points (npk) =  40000
     Max angular momentum in pseudopotentials (lmaxx) =  3

     Subspace diagonalization in iterative solution of the eigenvalue problem:
     a serial algorithm will be used

     Message from routine setup:
     using ibrav=0 with symmetry is DISCOURAGED, use correct ibrav instead
 
     G-vector sticks info
     --------------------
     sticks:   dense  smooth     PW     G-vecs:    dense   smooth      PW
     Sum        3713    3713   1005               251965   251965   35937
 


     bravais-lattice index     =            0
     lattice parameter (alat)  =       9.8661  a.u.
     unit-cell volume          =    1417.9462 (a.u.)^3
     number of atoms/cell      =           16
     number of atomic types    =            2
     number of electrons       =       184.18
     number of Kohn-Sham states=          111
     kinetic-energy cutoff     =     120.0000  Ry
     charge density cutoff     =     480.0000  Ry
     convergence threshold     =      1.0E-08
     mixing beta               =       0.7000
     number of iterations used =            8  plain     mixing
     Exchange-correlation      = SLA PW NOGX NOGC ( 1  4  0  0 0 0)

     celldm(1)=   9.866131  celldm(2)=   0.000000  celldm(3)=   0.000000
     celldm(4)=   0.000000  celldm(5)=   0.000000  celldm(6)=   0.000000

     crystal axes: (cart. coord. in units of alat)
               a(1) = (   1.000000   0.000000   0.000000 )  
               a(2) = (   0.000000   1.000000   0.000000 )  
               a(3) = (   0.000000   0.000000   1.476451 )  

     reciprocal axes: (cart. coord. in units 2 pi/alat)
               b(1) = (  1.000000  0.000000  0.000000 )  
               b(2) = (  0.000000  1.000000  0.000000 )  
               b(3) = (  0.000000  0.000000  0.677300 )  


     PseudoPot. # 1 for W  read from file:
     /cluster/scratch/mnoe/QE/pps/W_ONCV_LDA-4.0.upf
     MD5 check sum: ba0307d5d4cd419d6f1d13dc49d7c13a
     Pseudo is Norm-conserving + core correction, Zval = 28.0
     Generated using ONCVPSP code by D. R. Hamann
     Using radial grid of 1380 points,  8 beta functions with: 
                l(1) =   0
                l(2) =   0
                l(3) =   1
                l(4) =   1
                l(5) =   2
                l(6) =   2
                l(7) =   3
                l(8) =   3

     PseudoPot. # 2 for O  read from file:
     /cluster/scratch/mnoe/QE/pps/O_ONCV_LDA-3.0.upf
     MD5 check sum: b55cdb4f45ae2203d24ad12cf8d61a31
     Pseudo is Norm-conserving + core correction, Zval =  6.0
     Generated using ONCVPSP code by D. R. Hamann
     Using radial grid of  926 points,  5 beta functions with: 
                l(1) =   0
                l(2) =   0
                l(3) =   1
                l(4) =   1
                l(5) =   2

     atomic species   valence    mass     pseudopotential
        W             28.00   183.84000     W ( 1.00)
        O              6.00    15.99940     O ( 1.00)

     16 Sym. Ops., with inversion, found (14 have fractional translation)



   Cartesian axes

     site n.     atom                  positions (alat units)
         1           W   tau(   1) = (   0.2500000   0.2500000   0.3175323  )
         2           W   tau(   2) = (   0.7500000   0.7500000   1.1589189  )
         3           W   tau(   3) = (   0.7500000   0.7500000   0.4206933  )
         4           W   tau(   4) = (   0.2500000   0.2500000   1.0557579  )
         5           O   tau(   5) = (   0.2500000   0.2500000   0.7173897  )
         6           O   tau(   6) = (   0.7500000   0.7500000   0.7590615  )
         7           O   tau(   7) = (   0.7500000   0.7500000   0.0208360  )
         8           O   tau(   8) = (   0.2500000   0.2500000   1.4556153  )
         9           O   tau(   9) = (   0.4652087   0.5347913   0.3691128  )
        10           O   tau(  10) = (   0.5347913   0.4652087   1.1073384  )
        11           O   tau(  11) = (   0.0347913   0.9652087   0.3691128  )
        12           O   tau(  12) = (   0.9652086   0.0347913   1.1073384  )
        13           O   tau(  13) = (   0.9652087   0.4652087   0.3691128  )
        14           O   tau(  14) = (   0.0347913   0.5347913   1.1073384  )
        15           O   tau(  15) = (   0.5347913   0.0347913   0.3691128  )
        16           O   tau(  16) = (   0.4652087   0.9652086   1.1073384  )

     number of k points=    40  gaussian smearing, width (Ry)=  0.0007
                       cart. coord. in units 2pi/alat
        k(    1) = (   0.0000000   0.0000000   0.0000000), wk =   0.0092593
        k(    2) = (   0.0000000   0.0000000   0.1128833), wk =   0.0185185
        k(    3) = (   0.0000000   0.0000000   0.2257666), wk =   0.0185185
        k(    4) = (   0.0000000   0.0000000  -0.3386499), wk =   0.0092593
        k(    5) = (   0.0000000   0.1666667   0.0000000), wk =   0.0370370
        k(    6) = (   0.0000000   0.1666667   0.1128833), wk =   0.0740741
        k(    7) = (   0.0000000   0.1666667   0.2257666), wk =   0.0740741
        k(    8) = (   0.0000000   0.1666667  -0.3386499), wk =   0.0370370
        k(    9) = (   0.0000000   0.3333333   0.0000000), wk =   0.0370370
        k(   10) = (   0.0000000   0.3333333   0.1128833), wk =   0.0740741
        k(   11) = (   0.0000000   0.3333333   0.2257666), wk =   0.0740741
        k(   12) = (   0.0000000   0.3333333  -0.3386499), wk =   0.0370370
        k(   13) = (   0.0000000  -0.5000000   0.0000000), wk =   0.0185185
        k(   14) = (   0.0000000  -0.5000000   0.1128833), wk =   0.0370370
        k(   15) = (   0.0000000  -0.5000000   0.2257666), wk =   0.0370370
        k(   16) = (   0.0000000  -0.5000000  -0.3386499), wk =   0.0185185
        k(   17) = (   0.1666667   0.1666667   0.0000000), wk =   0.0370370
        k(   18) = (   0.1666667   0.1666667   0.1128833), wk =   0.0740741
        k(   19) = (   0.1666667   0.1666667   0.2257666), wk =   0.0740741
        k(   20) = (   0.1666667   0.1666667  -0.3386499), wk =   0.0370370
        k(   21) = (   0.1666667   0.3333333   0.0000000), wk =   0.0740741
        k(   22) = (   0.1666667   0.3333333   0.1128833), wk =   0.1481481
        k(   23) = (   0.1666667   0.3333333   0.2257666), wk =   0.1481481
        k(   24) = (   0.1666667   0.3333333  -0.3386499), wk =   0.0740741
        k(   25) = (   0.1666667  -0.5000000   0.0000000), wk =   0.0370370
        k(   26) = (   0.1666667  -0.5000000   0.1128833), wk =   0.0740741
        k(   27) = (   0.1666667  -0.5000000   0.2257666), wk =   0.0740741
        k(   28) = (   0.1666667  -0.5000000  -0.3386499), wk =   0.0370370
        k(   29) = (   0.3333333   0.3333333   0.0000000), wk =   0.0370370
        k(   30) = (   0.3333333   0.3333333   0.1128833), wk =   0.0740741
        k(   31) = (   0.3333333   0.3333333   0.2257666), wk =   0.0740741
        k(   32) = (   0.3333333   0.3333333  -0.3386499), wk =   0.0370370
        k(   33) = (   0.3333333  -0.5000000   0.0000000), wk =   0.0370370
        k(   34) = (   0.3333333  -0.5000000   0.1128833), wk =   0.0740741
        k(   35) = (   0.3333333  -0.5000000   0.2257666), wk =   0.0740741
        k(   36) = (   0.3333333  -0.5000000  -0.3386499), wk =   0.0370370
        k(   37) = (  -0.5000000  -0.5000000   0.0000000), wk =   0.0092593
        k(   38) = (  -0.5000000  -0.5000000   0.1128833), wk =   0.0185185
        k(   39) = (  -0.5000000  -0.5000000   0.2257666), wk =   0.0185185
        k(   40) = (  -0.5000000  -0.5000000  -0.3386499), wk =   0.0092593

     Dense  grid:   251965 G-vectors     FFT dimensions: (  72,  72, 108)

     Estimated max dynamical RAM per process >     789.85 MB

     Estimated total dynamical RAM >      30.85 GB

     Initial potential from superposition of free atoms

     starting charge  183.99828, renormalised to  184.18000
     Starting wfcs are  116 randomized atomic wfcs

     total cpu time spent up to now is        4.1 secs

     Self-consistent Calculation

     iteration #  1     ecut=   120.00 Ry     beta= 0.70
     Davidson diagonalization with overlap
     ethr =  1.00E-02,  avg # of iterations =  4.7

     total cpu time spent up to now is       15.8 secs

     total energy              =   -3126.80863924 Ry
     Harris-Foulkes estimate   =   -3132.20975580 Ry
     estimated scf accuracy    <       6.81694468 Ry

     iteration #  2     ecut=   120.00 Ry     beta= 0.70
     Davidson diagonalization with overlap
     ethr =  3.70E-03,  avg # of iterations =  3.3

     total cpu time spent up to now is       26.9 secs

     total energy              =   -3125.25391049 Ry
     Harris-Foulkes estimate   =   -3135.28888822 Ry
     estimated scf accuracy    <      26.82806392 Ry

     iteration #  3     ecut=   120.00 Ry     beta= 0.70
     Davidson diagonalization with overlap
     ethr =  3.70E-03,  avg # of iterations =  3.2

     total cpu time spent up to now is       37.2 secs

     total energy              =   -3130.42098527 Ry
     Harris-Foulkes estimate   =   -3130.55812023 Ry
     estimated scf accuracy    <       0.45905488 Ry

     iteration #  4     ecut=   120.00 Ry     beta= 0.70
     Davidson diagonalization with overlap
     ethr =  2.49E-04,  avg # of iterations =  2.9

     total cpu time spent up to now is       45.9 secs

     total energy              =   -3130.41543535 Ry
     Harris-Foulkes estimate   =   -3130.45337927 Ry
     estimated scf accuracy    <       0.11238028 Ry

     iteration #  5     ecut=   120.00 Ry     beta= 0.70
     Davidson diagonalization with overlap
     ethr =  6.10E-05,  avg # of iterations =  3.7

     total cpu time spent up to now is       55.0 secs

     total energy              =   -3130.41972353 Ry
     Harris-Foulkes estimate   =   -3130.43352785 Ry
     estimated scf accuracy    <       0.03167793 Ry

     iteration #  6     ecut=   120.00 Ry     beta= 0.70
     Davidson diagonalization with overlap
     ethr =  1.72E-05,  avg # of iterations =  4.3

     total cpu time spent up to now is       64.8 secs

     total energy              =   -3130.42618894 Ry
     Harris-Foulkes estimate   =   -3130.42764222 Ry
     estimated scf accuracy    <       0.00361403 Ry

     iteration #  7     ecut=   120.00 Ry     beta= 0.70
     Davidson diagonalization with overlap
     ethr =  1.96E-06,  avg # of iterations =  4.2

     total cpu time spent up to now is       74.0 secs

     total energy              =   -3130.42675979 Ry
     Harris-Foulkes estimate   =   -3130.42677364 Ry
     estimated scf accuracy    <       0.00002345 Ry

     iteration #  8     ecut=   120.00 Ry     beta= 0.70
     Davidson diagonalization with overlap
     ethr =  1.27E-08,  avg # of iterations =  3.9

     total cpu time spent up to now is       85.9 secs

     total energy              =   -3130.42677792 Ry
     Harris-Foulkes estimate   =   -3130.42678148 Ry
     estimated scf accuracy    <       0.00002028 Ry

     iteration #  9     ecut=   120.00 Ry     beta= 0.70
     Davidson diagonalization with overlap
     ethr =  1.10E-08,  avg # of iterations =  1.0

     total cpu time spent up to now is       93.8 secs

     total energy              =   -3130.42677512 Ry
     Harris-Foulkes estimate   =   -3130.42677865 Ry
     estimated scf accuracy    <       0.00001012 Ry

     iteration # 10     ecut=   120.00 Ry     beta= 0.70
     Davidson diagonalization with overlap
     ethr =  5.49E-09,  avg # of iterations =  2.0

     total cpu time spent up to now is      102.2 secs

     total energy              =   -3130.42677628 Ry
     Harris-Foulkes estimate   =   -3130.42677652 Ry
     estimated scf accuracy    <       0.00000054 Ry

     iteration # 11     ecut=   120.00 Ry     beta= 0.70
     Davidson diagonalization with overlap
     ethr =  2.95E-10,  avg # of iterations =  2.8

     total cpu time spent up to now is      111.6 secs

     total energy              =   -3130.42677638 Ry
     Harris-Foulkes estimate   =   -3130.42677641 Ry
     estimated scf accuracy    <       0.00000005 Ry

     iteration # 12     ecut=   120.00 Ry     beta= 0.70
     Davidson diagonalization with overlap
     ethr =  2.92E-11,  avg # of iterations =  2.0

     total cpu time spent up to now is      120.6 secs

     End of self-consistent calculation

          k = 0.0000 0.0000 0.0000 ( 31487 PWs)   bands (ev):

   -66.2760 -66.2756 -66.2744 -66.2739 -30.6791 -30.6736 -30.6151 -30.6110
   -30.6110 -30.6108 -30.6074 -30.6074 -30.5234 -30.5234 -30.5204 -30.5204
   -20.4310 -20.4309 -20.4309 -20.4308 -20.4222 -20.4219 -20.4162 -20.4159
   -20.4117 -20.4117 -20.4111 -20.4111 -20.4095 -20.4095 -20.4090 -20.4090
   -20.4068 -20.4066 -20.4063 -20.4062 -20.3964 -20.3964 -20.3964 -20.3964
   -20.3916 -20.3916 -20.3915 -20.3915 -10.0976  -9.7737  -9.2833  -9.1513
    -9.1339  -9.0226  -7.9864  -7.8746  -7.8026  -7.8026  -7.7797  -7.7797
     1.0190   1.0193   1.1509   1.3954   1.4113   1.5844   2.3420   2.4329
     2.4985   2.4985   4.0051   4.0051   4.7854   4.7854   4.9152   5.4333
     5.4333   5.4412   5.4412   5.6838   5.6838   5.8223   5.8471   6.5914
     6.5914   6.7422   6.9529   6.9553   7.1597   7.1597   7.1862   7.1862
     7.9814   7.9876   8.0182   8.0182   8.9945   8.9952   9.7225   9.7225
    12.2527  12.2527  13.1188  13.1204  13.2593  13.2593  13.5681  14.0730
    14.0730  14.6462  14.8767  14.8835  15.4079  16.5511  17.2019

          k = 0.0000 0.0000 0.1129 ( 31471 PWs)   bands (ev):

   -66.2760 -66.2756 -66.2743 -66.2740 -30.6749 -30.6694 -30.6194 -30.6150
   -30.6107 -30.6107 -30.6077 -30.6077 -30.5232 -30.5232 -30.5206 -30.5206
   -20.4310 -20.4309 -20.4309 -20.4308 -20.4218 -20.4215 -20.4166 -20.4163
   -20.4117 -20.4117 -20.4111 -20.4111 -20.4095 -20.4095 -20.4090 -20.4090
   -20.4068 -20.4067 -20.4063 -20.4062 -20.3964 -20.3964 -20.3964 -20.3964
   -20.3916 -20.3916 -20.3915 -20.3915 -10.0644  -9.7864  -9.2063  -9.1501
    -9.1351  -8.9773  -8.0875  -7.9872  -7.8011  -7.8011  -7.7812  -7.7812
     1.0191   1.0193   1.2866   1.4107   1.5696   1.7739   2.3479   2.4266
     2.5679   2.5679   3.8502   3.8502   4.6704   4.7811   4.7811   5.3393
     5.3393   5.4870   5.5014   5.5014   5.7929   5.7929   5.8628   6.6185
     6.6185   6.7563   6.7706   6.9389   7.1630   7.1630   7.1855   7.1855
     7.9593   7.9594   7.9837   7.9874   8.9945   8.9952   9.9212   9.9212
    12.1064  12.1064  13.1189  13.1203  13.2774  13.2774  13.8783  13.9806
    13.9806  14.8383  14.8772  14.8830  15.8156  16.2373  17.2503

          k = 0.0000 0.0000 0.2258 ( 31471 PWs)   bands (ev):

   -66.2759 -66.2757 -66.2743 -66.2740 -30.6632 -30.6580 -30.6312 -30.6266
   -30.6101 -30.6101 -30.6083 -30.6083 -30.5226 -30.5226 -30.5212 -30.5212
   -20.4310 -20.4309 -20.4309 -20.4308 -20.4207 -20.4204 -20.4177 -20.4174
   -20.4115 -20.4115 -20.4111 -20.4111 -20.4095 -20.4095 -20.4092 -20.4092
   -20.4067 -20.4067 -20.4063 -20.4062 -20.3964 -20.3964 -20.3964 -20.3964
   -20.3915 -20.3915 -20.3915 -20.3915  -9.9833  -9.8260  -9.1470  -9.1383
    -8.9885  -8.8348  -8.3450  -8.2697  -7.7970  -7.7970  -7.7855  -7.7855
     1.0191   1.0192   1.3819   1.4084   2.1565   2.3641   2.4096   2.4617
     2.7708   2.7708   3.4830   3.4830   3.9797   4.5783   4.8823   4.8823
     5.2404   5.2404   5.5389   5.5389   5.7471   5.7471   5.9820   6.4441
     6.7949   6.9004   6.9132   6.9132   7.1676   7.1676   7.1871   7.1871
     7.7463   7.7463   7.9856   7.9870   8.9946   8.9950  10.4335  10.4335
    11.6861  11.6861  13.1191  13.1200  13.3587  13.3587  13.7612  13.7612
    14.4733  14.8783  14.8816  15.4757  15.6636  16.8328  17.0117

          k = 0.0000 0.0000-0.3386 ( 31546 PWs)   bands (ev):

   -66.2758 -66.2758 -66.2742 -66.2741 -30.6473 -30.6473 -30.6423 -30.6423
   -30.6092 -30.6092 -30.6092 -30.6092 -30.5219 -30.5219 -30.5219 -30.5219
   -20.4309 -20.4309 -20.4308 -20.4308 -20.4193 -20.4193 -20.4189 -20.4189
   -20.4113 -20.4113 -20.4113 -20.4113 -20.4094 -20.4094 -20.4094 -20.4094
   -20.4067 -20.4067 -20.4062 -20.4062 -20.3964 -20.3964 -20.3964 -20.3964
   -20.3915 -20.3915 -20.3915 -20.3915  -9.8940  -9.8940  -9.1426  -9.1426
    -8.6735  -8.6735  -8.5895  -8.5895  -7.7912  -7.7912  -7.7912  -7.7912
     1.0192   1.0192   1.4020   1.4020   2.3867   2.3867   3.0485   3.0485
     3.0896   3.0896   3.0896   3.0896   3.4725   3.4725   5.0731   5.0731
     5.0731   5.0731   5.6115   5.6115   5.6115   5.6115   6.1753   6.1753
     6.8477   6.8477   7.1651   7.1651   7.1651   7.1651   7.3799   7.3799
     7.3799   7.3799   7.9864   7.9864   8.9948   8.9949  11.0800  11.0800
    11.0800  11.0800  13.1195  13.1195  13.5275  13.5275  13.5275  13.5275
    14.8799  14.8799  15.0610  15.0610  16.3448  16.3448  18.0902

          k = 0.0000 0.1667 0.0000 ( 31523 PWs)   bands (ev):

   -66.2759 -66.2754 -66.2745 -66.2740 -30.6791 -30.6741 -30.6169 -30.6114
   -30.6052 -30.6032 -30.6016 -30.6014 -30.5293 -30.5291 -30.5263 -30.5263
   -20.4310 -20.4309 -20.4309 -20.4308 -20.4222 -20.4219 -20.4163 -20.4160
   -20.4117 -20.4115 -20.4111 -20.4110 -20.4096 -20.4096 -20.4091 -20.4090
   -20.4067 -20.4066 -20.4063 -20.4062 -20.3962 -20.3961 -20.3961 -20.3961
   -20.3919 -20.3919 -20.3919 -20.3918 -10.0087  -9.6653  -9.3014  -9.0771
    -9.0595  -8.9994  -8.0082  -7.9557  -7.9191  -7.9151  -7.8927  -7.8811
     1.2053   1.2787   1.2794   1.3787   1.6780   1.7996   2.4979   2.5668
     2.6040   2.6095   3.9433   3.9650   4.4871   4.5626   4.8915   5.1407
     5.1963   5.2354   5.3126   5.6506   5.6826   5.8659   6.2117   6.4414
     6.4615   6.4754   6.5040   6.7343   6.7984   6.9637   7.0820   7.1313
     7.9067   7.9194   7.9816   8.0087   9.6053   9.6514   9.9892  10.0841
    12.2874  12.3245  12.9401  13.0261  13.1341  13.3099  13.8315  13.8980
    13.9650  14.8611  15.0981  15.1062  15.3392  16.8719  17.2926

          k = 0.0000 0.1667 0.1129 ( 31472 PWs)   bands (ev):

   -66.2759 -66.2755 -66.2744 -66.2741 -30.6749 -30.6700 -30.6207 -30.6156
   -30.6049 -30.6035 -30.6019 -30.6016 -30.5291 -30.5289 -30.5265 -30.5265
   -20.4310 -20.4309 -20.4309 -20.4308 -20.4218 -20.4215 -20.4167 -20.4164
   -20.4116 -20.4115 -20.4110 -20.4110 -20.4096 -20.4096 -20.4092 -20.4091
   -20.4067 -20.4066 -20.4063 -20.4062 -20.3961 -20.3961 -20.3961 -20.3961
   -20.3919 -20.3919 -20.3919 -20.3918  -9.9727  -9.6781  -9.2245  -9.0759
    -9.0606  -8.9570  -8.0972  -8.0061  -7.9541  -7.9203  -7.9135  -7.8942
     1.2787   1.2794   1.4066   1.5865   1.6771   1.8854   2.5126   2.6000
     2.6425   2.6632   3.8231   3.8587   4.4748   4.5590   4.6462   5.1139
     5.1194   5.2311   5.2417   5.4938   5.6984   5.7700   6.2357   6.4587
     6.4694   6.4953   6.5303   6.7297   6.8305   6.9701   7.0820   7.1337
     7.8898   7.9105   7.9328   7.9515   9.6163   9.6482  10.1551  10.2373
    12.1556  12.1953  12.9416  13.0450  13.1289  13.3183  13.8003  13.8755
    14.1505  15.0267  15.0986  15.1058  15.7475  16.5232  17.2921

          k = 0.0000 0.1667 0.2258 ( 31453 PWs)   bands (ev):

   -66.2758 -66.2756 -66.2744 -66.2741 -30.6633 -30.6585 -30.6318 -30.6271
   -30.6043 -30.6035 -30.6025 -30.6022 -30.5286 -30.5284 -30.5271 -30.5270
   -20.4309 -20.4309 -20.4309 -20.4308 -20.4207 -20.4205 -20.4178 -20.4175
   -20.4114 -20.4113 -20.4111 -20.4110 -20.4097 -20.4096 -20.4094 -20.4093
   -20.4067 -20.4066 -20.4063 -20.4062 -20.3961 -20.3961 -20.3961 -20.3961
   -20.3919 -20.3919 -20.3919 -20.3918  -9.8849  -9.7185  -9.0727  -9.0640
    -9.0066  -8.8215  -8.3536  -8.2789  -7.9494  -7.9344  -7.9095  -7.8983
     1.2788   1.2792   1.6258   1.6737   2.1608   2.4300   2.5360   2.5882
     2.8547   2.8663   3.4901   3.5377   3.9691   4.5745   4.5849   4.6713
     5.0024   5.0331   5.2316   5.2602   5.5159   5.5414   6.3179   6.4615
     6.4931   6.5882   6.8469   6.8525   6.9347   6.9885   7.0986   7.1479
     7.6926   7.7253   7.9194   7.9240   9.6302   9.6436  10.5998  10.6652
    11.7603  11.8062  12.9803  13.0925  13.1439  13.3574  13.5687  13.6690
    14.7769  15.0997  15.1044  15.6176  15.9502  16.7588  17.1563

          k = 0.0000 0.1667-0.3386 ( 31480 PWs)   bands (ev):

   -66.2757 -66.2757 -66.2743 -66.2743 -30.6475 -30.6475 -30.6429 -30.6429
   -30.6034 -30.6034 -30.6029 -30.6029 -30.5278 -30.5278 -30.5277 -30.5277
   -20.4309 -20.4309 -20.4309 -20.4308 -20.4193 -20.4193 -20.4190 -20.4190
   -20.4112 -20.4112 -20.4111 -20.4111 -20.4096 -20.4096 -20.4095 -20.4095
   -20.4066 -20.4066 -20.4062 -20.4062 -20.3961 -20.3961 -20.3961 -20.3961
   -20.3919 -20.3919 -20.3919 -20.3918  -9.7896  -9.7896  -9.0683  -9.0683
    -8.6898  -8.6898  -8.5854  -8.5854  -7.9427  -7.9427  -7.9039  -7.9039
     1.2789   1.2789   1.6636   1.6636   2.5598   2.5599   3.0464   3.0464
     3.0871   3.0871   3.1630   3.1630   3.5182   3.5182   4.8029   4.8029
     4.8693   4.8693   5.3075   5.3075   5.3360   5.3360   6.4248   6.4248
     6.5058   6.5058   6.9664   6.9664   7.0705   7.0705   7.3353   7.3353
     7.3814   7.3814   7.9211   7.9211   9.6384   9.6384  11.1892  11.1892
    11.2440  11.2440  13.0494  13.0494  13.3144  13.3144  13.4734  13.4734
    15.1019  15.1019  15.3619  15.3619  16.4835  16.4835  17.7159

          k = 0.0000 0.3333 0.0000 ( 31474 PWs)   bands (ev):

   -66.2756 -66.2751 -66.2748 -66.2743 -30.6786 -30.6756 -30.6167 -30.6130
   -30.5892 -30.5869 -30.5858 -30.5853 -30.5454 -30.5447 -30.5423 -30.5421
   -20.4310 -20.4309 -20.4309 -20.4308 -20.4222 -20.4220 -20.4163 -20.4161
   -20.4115 -20.4111 -20.4109 -20.4109 -20.4098 -20.4097 -20.4095 -20.4092
   -20.4065 -20.4064 -20.4063 -20.4062 -20.3954 -20.3953 -20.3952 -20.3952
   -20.3929 -20.3929 -20.3927 -20.3927  -9.7775  -9.3676  -9.3564  -8.9117
    -8.8662  -8.8477  -8.3849  -8.3211  -8.2005  -8.1793  -7.9464  -7.8991
     1.2598   1.3406   1.9752   1.9892   2.3358   2.4040   2.7488   2.7916
     3.0936   3.1601   3.6694   3.6780   4.0046   4.0925   4.3977   4.4062
     4.8420   4.8465   5.1234   5.3146   5.3214   5.5760   5.7498   5.9048
     6.2222   6.2788   6.3051   6.5113   6.8586   7.1340   7.2177   7.3600
     7.6942   7.7071   7.8126   7.9213  10.5755  10.6519  10.7290  10.9387
    12.1828  12.2299  12.6826  12.6935  12.7878  12.8581  13.4675  13.6034
    14.3270  15.1309  15.5148  16.1148  16.1456  17.4702  17.5144

          k = 0.0000 0.3333 0.1129 ( 31477 PWs)   bands (ev):

   -66.2756 -66.2752 -66.2747 -66.2744 -30.6744 -30.6714 -30.6207 -30.6172
   -30.5890 -30.5870 -30.5861 -30.5855 -30.5452 -30.5445 -30.5425 -30.5423
   -20.4309 -20.4309 -20.4309 -20.4308 -20.4218 -20.4216 -20.4167 -20.4165
   -20.4114 -20.4110 -20.4109 -20.4108 -20.4098 -20.4098 -20.4096 -20.4093
   -20.4065 -20.4064 -20.4063 -20.4062 -20.3954 -20.3953 -20.3952 -20.3952
   -20.3929 -20.3929 -20.3927 -20.3927  -9.7312  -9.3698  -9.2927  -8.8796
    -8.8650  -8.8488  -8.4048  -8.3175  -8.1991  -8.1807  -8.0430  -7.9969
     1.4976   1.5765   1.9762   1.9884   2.3358   2.4160   2.8235   2.8484
     3.1005   3.1552   3.6354   3.6750   4.0136   4.1121   4.4056   4.4160
     4.5901   4.6759   4.8933   5.3024   5.3030   5.4201   5.5216   5.6949
     6.3561   6.3816   6.5872   6.5889   6.8695   7.1249   7.2232   7.3492
     7.6843   7.7004   7.7652   7.8658  10.6140  10.6953  10.7900  11.0104
    12.1772  12.2522  12.5959  12.6660  12.6862  12.8598  13.3583  13.5036
    14.6929  15.5144  15.6454  16.1172  16.1430  17.1300  17.5599

          k = 0.0000 0.3333 0.2258 ( 31456 PWs)   bands (ev):

   -66.2755 -66.2753 -66.2747 -66.2744 -30.6629 -30.6600 -30.6318 -30.6286
   -30.5884 -30.5870 -30.5867 -30.5860 -30.5447 -30.5441 -30.5431 -30.5428
   -20.4309 -20.4309 -20.4309 -20.4308 -20.4208 -20.4206 -20.4178 -20.4176
   -20.4112 -20.4108 -20.4108 -20.4106 -20.4100 -20.4098 -20.4098 -20.4095
   -20.4065 -20.4064 -20.4063 -20.4062 -20.3954 -20.3953 -20.3952 -20.3952
   -20.3929 -20.3929 -20.3927 -20.3927  -9.6175  -9.4135  -9.0823  -8.8619
    -8.8518  -8.7705  -8.5127  -8.3054  -8.2849  -8.1952  -8.1867  -8.1846
     1.9789   1.9860   2.0895   2.1746   2.3309   2.5317   2.9955   3.0551
     3.1338   3.1430   3.4561   3.5590   3.9438   4.1259   4.1976   4.3551
     4.4495   4.4741   4.6224   4.7502   5.0079   5.1464   5.3224   5.3261
     6.7136   6.7512   6.8225   6.8953   6.9197   7.1032   7.2504   7.3087
     7.5531   7.6341   7.7192   7.7468  10.6681  10.7018  11.0863  11.2704
    11.9871  12.1288  12.5007  12.5501  12.6731  12.8902  13.1015  13.2687
    15.4833  16.0273  16.1257  16.1362  16.5280  16.6259  17.4818

          k = 0.0000 0.3333-0.3386 ( 31442 PWs)   bands (ev):

   -66.2754 -66.2754 -66.2746 -66.2745 -30.6473 -30.6473 -30.6443 -30.6443
   -30.5875 -30.5875 -30.5866 -30.5866 -30.5439 -30.5439 -30.5435 -30.5435
   -20.4309 -20.4309 -20.4309 -20.4309 -20.4193 -20.4193 -20.4191 -20.4191
   -20.4110 -20.4110 -20.4106 -20.4106 -20.4100 -20.4100 -20.4097 -20.4097
   -20.4065 -20.4065 -20.4063 -20.4063 -20.3954 -20.3953 -20.3952 -20.3952
   -20.3929 -20.3929 -20.3927 -20.3927  -9.4969  -9.4969  -8.8590  -8.8590
    -8.7817  -8.7817  -8.5631  -8.5631  -8.2765  -8.2765  -8.1899  -8.1899
     1.9825   1.9825   2.3042   2.3042   2.9853   2.9853   3.0674   3.0674
     3.1688   3.1688   3.3167   3.3168   3.5842   3.5843   4.3228   4.3228
     4.4002   4.4002   4.6331   4.6331   4.7347   4.7347   5.3163   5.3163
     6.8214   6.8214   7.0459   7.0459   7.1620   7.1620   7.2618   7.2618
     7.3941   7.3941   7.7199   7.7199  10.6933  10.6934  11.5346  11.5346
    11.6991  11.6991  12.5605  12.5605  12.7850  12.7850  13.0464  13.0464
    16.0882  16.0882  16.1421  16.1421  16.8448  16.8448  17.6468

          k = 0.0000-0.5000 0.0000 ( 31510 PWs)   bands (ev):

   -66.2752 -66.2752 -66.2747 -66.2747 -30.6773 -30.6773 -30.6150 -30.6150
   -30.5674 -30.5674 -30.5658 -30.5658 -30.5641 -30.5641 -30.5636 -30.5636
   -20.4309 -20.4309 -20.4308 -20.4308 -20.4221 -20.4221 -20.4163 -20.4163
   -20.4111 -20.4111 -20.4107 -20.4107 -20.4099 -20.4099 -20.4095 -20.4095
   -20.4063 -20.4063 -20.4063 -20.4063 -20.3942 -20.3942 -20.3942 -20.3942
   -20.3940 -20.3939 -20.3939 -20.3939  -9.5225  -9.5225  -8.9001  -8.9001
    -8.6985  -8.6985  -8.5482  -8.5482  -8.5266  -8.5265  -7.9235  -7.9235
     1.2993   1.2993   2.7481   2.7481   2.8842   2.8842   2.9516   2.9516
     3.1528   3.1529   3.7063   3.7064   3.7369   3.7369   4.0362   4.0362
     4.1276   4.1276   4.8206   4.8206   5.3148   5.3148   5.8546   5.8546
     6.1458   6.1458   6.2981   6.2981   7.3703   7.3703   7.3915   7.3915
     7.4916   7.4916   7.7093   7.7093  11.4550  11.4550  11.4833  11.4833
    11.8193  11.8193  11.9453  11.9453  12.9928  12.9928  13.1397  13.1397
    14.7860  14.7860  16.4591  16.4591  17.6288  17.6289  17.6837

          k = 0.0000-0.5000 0.1129 ( 31494 PWs)   bands (ev):

   -66.2751 -66.2751 -66.2748 -66.2748 -30.6731 -30.6731 -30.6191 -30.6191
   -30.5672 -30.5672 -30.5657 -30.5657 -30.5643 -30.5643 -30.5638 -30.5638
   -20.4309 -20.4309 -20.4309 -20.4309 -20.4218 -20.4218 -20.4167 -20.4167
   -20.4110 -20.4110 -20.4107 -20.4107 -20.4099 -20.4099 -20.4096 -20.4096
   -20.4063 -20.4063 -20.4063 -20.4063 -20.3942 -20.3942 -20.3942 -20.3942
   -20.3940 -20.3940 -20.3939 -20.3939  -9.4583  -9.4583  -8.9146  -8.9146
    -8.6844  -8.6844  -8.5471  -8.5470  -8.5277  -8.5276  -8.0228  -8.0228
     1.5396   1.5396   2.7687   2.7687   2.9202   2.9202   2.9467   2.9467
     3.1407   3.1407   3.7529   3.7529   3.7751   3.7751   4.0307   4.0307
     4.1284   4.1284   4.5818   4.5818   5.0341   5.0342   5.5896   5.5896
     6.4241   6.4241   6.4440   6.4440   7.3582   7.3582   7.3815   7.3815
     7.4779   7.4779   7.6754   7.6755  11.5107  11.5107  11.5293  11.5293
    11.8306  11.8306  11.9702  11.9702  12.8636  12.8636  13.0174  13.0174
    15.1772  15.1772  16.5283  16.5284  17.4942  17.4942  17.7154

          k = 0.0000-0.5000 0.2258 ( 31442 PWs)   bands (ev):

   -66.2751 -66.2751 -66.2749 -66.2749 -30.6617 -30.6617 -30.6305 -30.6305
   -30.5666 -30.5666 -30.5655 -30.5655 -30.5649 -30.5649 -30.5643 -30.5643
   -20.4309 -20.4309 -20.4309 -20.4309 -20.4207 -20.4207 -20.4178 -20.4178
   -20.4108 -20.4108 -20.4105 -20.4105 -20.4101 -20.4101 -20.4098 -20.4098
   -20.4063 -20.4063 -20.4063 -20.4063 -20.3942 -20.3942 -20.3942 -20.3942
   -20.3940 -20.3940 -20.3939 -20.3939  -9.2892  -9.2892  -8.9685  -8.9684
    -8.6321  -8.6321  -8.5441  -8.5441  -8.5299  -8.5299  -8.2599  -8.2599
     2.1808   2.1808   2.8180   2.8180   2.9197   2.9197   3.0281   3.0282
     3.0947   3.0947   3.8590   3.8590   3.9008   3.9008   3.9417   3.9417
     4.1434   4.1434   4.1683   4.1683   4.5922   4.5922   4.8978   4.8978
     6.7911   6.7911   6.8509   6.8509   7.2869   7.2869   7.3394   7.3394
     7.4629   7.4629   7.5807   7.5807  11.6282  11.6282  11.6355  11.6355
    11.9023  11.9023  12.0789  12.0789  12.5404  12.5404  12.7087  12.7087
    16.1236  16.1236  16.7298  16.7298  17.2370  17.2370  17.7169

          k = 0.0000-0.5000-0.3386 ( 31460 PWs)   bands (ev):

   -66.2750 -66.2750 -66.2750 -66.2749 -30.6461 -30.6461 -30.6461 -30.6461
   -30.5658 -30.5658 -30.5658 -30.5658 -30.5650 -30.5650 -30.5649 -30.5649
   -20.4309 -20.4309 -20.4309 -20.4309 -20.4193 -20.4192 -20.4192 -20.4192
   -20.4106 -20.4105 -20.4105 -20.4105 -20.4101 -20.4101 -20.4101 -20.4101
   -20.4063 -20.4063 -20.4063 -20.4063 -20.3942 -20.3942 -20.3942 -20.3942
   -20.3940 -20.3940 -20.3939 -20.3939  -9.0941  -9.0941  -9.0941  -9.0941
    -8.5452  -8.5452  -8.5452  -8.5452  -8.4893  -8.4893  -8.4892  -8.4892
     2.8470   2.8470   2.8470   2.8470   2.9312   2.9312   2.9312   2.9312
     3.2802   3.2802   3.2802   3.2802   4.0262   4.0262   4.0262   4.0262
     4.2240   4.2240   4.2240   4.2240   4.3269   4.3270   4.3270   4.3270
     7.0902   7.0902   7.0902   7.0902   7.1904   7.1904   7.1904   7.1904
     7.4891   7.4891   7.4891   7.4891  11.6827  11.6827  11.6827  11.6827
    12.1500  12.1500  12.1500  12.1500  12.3574  12.3574  12.3574  12.3575
    16.9182  16.9182  16.9182  16.9182  17.3107  17.3107  17.3107

          k = 0.1667 0.1667 0.0000 ( 31470 PWs)   bands (ev):

   -66.2758 -66.2754 -66.2746 -66.2741 -30.6788 -30.6746 -30.6159 -30.6122
   -30.6119 -30.6086 -30.5869 -30.5844 -30.5462 -30.5433 -30.5223 -30.5194
   -20.4310 -20.4309 -20.4309 -20.4308 -20.4222 -20.4220 -20.4163 -20.4160
   -20.4118 -20.4112 -20.4112 -20.4107 -20.4099 -20.4095 -20.4094 -20.4089
   -20.4066 -20.4065 -20.4063 -20.4062 -20.3968 -20.3967 -20.3949 -20.3949
   -20.3931 -20.3931 -20.3913 -20.3912  -9.9497  -9.6051  -9.3227  -9.0572
    -8.9513  -8.9070  -8.2662  -8.2434  -7.9628  -7.8868  -7.8258  -7.8021
     1.1086   1.1598   1.3219   1.3691   2.2449   2.2944   2.4826   2.6563
     2.7752   2.8216   3.7359   3.7816   4.2541   4.4591   4.6839   4.8639
     5.0808   5.3365   5.3501   5.6185   5.6974   5.8795   6.1567   6.1835
     6.3638   6.4039   6.4718   6.6331   6.6902   6.8444   6.9706   7.2215
     7.7567   7.8099   7.8658   8.0534   9.7336  10.1101  10.1562  10.7485
    12.0723  12.5395  12.5584  12.9986  13.0968  13.2632  13.5777  13.9301
    14.0720  15.0402  15.1975  15.2582  15.5113  17.3102  17.3810

          k = 0.1667 0.1667 0.1129 ( 31451 PWs)   bands (ev):

   -66.2758 -66.2754 -66.2745 -66.2742 -30.6746 -30.6704 -30.6200 -30.6161
   -30.6120 -30.6089 -30.5868 -30.5846 -30.5460 -30.5435 -30.5221 -30.5196
   -20.4310 -20.4309 -20.4309 -20.4308 -20.4218 -20.4216 -20.4167 -20.4164
   -20.4117 -20.4112 -20.4111 -20.4107 -20.4099 -20.4095 -20.4095 -20.4090
   -20.4066 -20.4065 -20.4063 -20.4062 -20.3968 -20.3967 -20.3949 -20.3949
   -20.3931 -20.3931 -20.3912 -20.3912  -9.9123  -9.6173  -9.2466  -9.0348
    -8.9533  -8.8871  -8.2829  -8.2411  -8.0578  -7.9899  -7.8242  -7.8037
     1.1418   1.1597   1.5129   1.6224   2.2453   2.3116   2.5484   2.6715
     2.7703   2.8785   3.7206   3.7221   4.1208   4.4741   4.6145   4.7168
     4.8747   5.2807   5.3436   5.5011   5.5725   5.7670   6.2129   6.3432
     6.3576   6.4550   6.5231   6.6179   6.7237   6.8597   6.8985   7.2165
     7.7496   7.8049   7.8329   7.9759   9.9321  10.1157  10.1589  10.8494
    12.0165  12.4338  12.4951  12.9802  13.1076  13.2738  13.4875  13.9785
    14.2106  15.1866  15.2022  15.5378  15.6655  16.8703  17.5730

          k = 0.1667 0.1667 0.2258 ( 31453 PWs)   bands (ev):

   -66.2757 -66.2755 -66.2745 -66.2742 -30.6631 -30.6590 -30.6315 -30.6276
   -30.6113 -30.6095 -30.5865 -30.5852 -30.5455 -30.5440 -30.5216 -30.5201
   -20.4309 -20.4309 -20.4309 -20.4308 -20.4207 -20.4205 -20.4178 -20.4175
   -20.4115 -20.4112 -20.4110 -20.4107 -20.4100 -20.4097 -20.4095 -20.4091
   -20.4066 -20.4066 -20.4063 -20.4062 -20.3968 -20.3967 -20.3949 -20.3949
   -20.3931 -20.3931 -20.3912 -20.3912  -9.8220  -9.6560  -9.0316  -8.9935
    -8.9595  -8.7919  -8.4116  -8.2894  -8.2340  -8.1712  -7.8200  -7.8081
     1.1551   1.1594   2.0884   2.1756   2.2410   2.5117   2.7000   2.7183
     2.7841   3.0665   3.4624   3.5219   3.9588   4.1452   4.4412   4.5265
     4.7168   4.9010   5.0718   5.2105   5.4173   5.6875   6.2990   6.4350
     6.4499   6.5389   6.6586   6.6765   6.8831   6.8902   7.0367   7.1963
     7.6213   7.7054   7.8072   7.8299  10.1268  10.1396  10.4621  11.1484
    11.6843  12.0776  12.5378  12.9000  13.1287  13.2824  13.3659  13.7576
    14.7125  15.1433  15.6135  15.8250  16.3421  16.6593  17.3566

          k = 0.1667 0.1667-0.3386 ( 31444 PWs)   bands (ev):

   -66.2756 -66.2756 -66.2744 -66.2743 -30.6473 -30.6473 -30.6433 -30.6433
   -30.6104 -30.6104 -30.5859 -30.5859 -30.5448 -30.5448 -30.5208 -30.5208
   -20.4309 -20.4309 -20.4309 -20.4309 -20.4193 -20.4193 -20.4190 -20.4190
   -20.4113 -20.4113 -20.4108 -20.4108 -20.4099 -20.4099 -20.4094 -20.4093
   -20.4066 -20.4066 -20.4063 -20.4063 -20.3968 -20.3968 -20.3949 -20.3949
   -20.3931 -20.3931 -20.3912 -20.3912  -9.7259  -9.7258  -8.9710  -8.9710
    -8.7205  -8.7205  -8.5772  -8.5772  -8.2194  -8.2194  -7.8141  -7.8141
     1.1583   1.1583   2.2218   2.2218   2.7209   2.7209   3.0411   3.0411
     3.0732   3.0732   3.1958   3.1958   3.5486   3.5486   4.3760   4.3760
     4.6816   4.6816   5.0929   5.0929   5.4973   5.4973   6.4043   6.4043
     6.4770   6.4770   6.6774   6.6774   7.0909   7.0909   7.3273   7.3274
     7.3473   7.3473   7.8122   7.8122  10.1363  10.1363  11.1001  11.1002
    11.5975  11.5975  12.7185  12.7185  13.1717  13.1717  13.5242  13.5242
    15.0198  15.0198  15.8893  15.8893  16.6836  16.6836  17.8545

          k = 0.1667 0.3333 0.0000 ( 31480 PWs)   bands (ev):

   -66.2755 -66.2751 -66.2748 -66.2744 -30.6782 -30.6757 -30.6162 -30.6133
   -30.6060 -30.6036 -30.5685 -30.5659 -30.5646 -30.5619 -30.5273 -30.5244
   -20.4309 -20.4309 -20.4309 -20.4308 -20.4222 -20.4220 -20.4163 -20.4161
   -20.4117 -20.4113 -20.4107 -20.4104 -20.4102 -20.4099 -20.4094 -20.4089
   -20.4065 -20.4064 -20.4063 -20.4063 -20.3967 -20.3967 -20.3946 -20.3946
   -20.3935 -20.3935 -20.3914 -20.3913  -9.7846  -9.4167  -9.4011  -9.0012
    -8.6956  -8.6671  -8.6401  -8.6007  -7.9714  -7.9703  -7.9284  -7.9020
     1.2294   1.3413   1.4234   1.4973   2.5220   2.8035   2.8862   3.0196
     3.1275   3.3063   3.3159   3.6732   3.7677   4.1721   4.4007   4.7823
     4.8890   4.9343   5.1286   5.5526   5.6262   5.6706   5.7103   5.8332
     6.1732   6.2293   6.4549   6.5765   6.6937   6.8334   6.8952   7.4577
     7.5056   7.6021   7.6052   8.0176  10.0324  11.0218  11.0683  11.4947
    11.6006  12.4645  12.6215  12.6319  12.8581  13.0961  13.1834  13.9190
    14.1699  15.0108  15.6269  15.7682  16.4889  17.5690  17.5892

          k = 0.1667 0.3333 0.1129 ( 31475 PWs)   bands (ev):

   -66.2755 -66.2751 -66.2748 -66.2744 -30.6740 -30.6716 -30.6200 -30.6174
   -30.6062 -30.6039 -30.5684 -30.5661 -30.5645 -30.5621 -30.5271 -30.5246
   -20.4309 -20.4309 -20.4309 -20.4308 -20.4218 -20.4216 -20.4167 -20.4165
   -20.4116 -20.4112 -20.4107 -20.4104 -20.4102 -20.4100 -20.4094 -20.4090
   -20.4065 -20.4064 -20.4063 -20.4063 -20.3967 -20.3967 -20.3946 -20.3946
   -20.3935 -20.3935 -20.3914 -20.3913  -9.7416  -9.4276  -9.3299  -8.9695
    -8.7054  -8.6704  -8.6363  -8.5942  -8.0534  -8.0114  -7.9685  -7.9421
     1.3608   1.4231   1.5485   1.6452   2.5921   2.8274   2.9174   3.0178
     3.1249   3.3043   3.3123   3.6764   3.8154   4.0294   4.4434   4.5484
     4.8068   4.8611   4.9354   5.3127   5.5588   5.6071   5.7011   5.7422
     6.3047   6.4483   6.4624   6.6108   6.7477   6.7957   6.9237   7.4536
     7.4983   7.5692   7.5807   7.9416  10.2003  11.0248  11.0679  11.5630
    11.6655  12.3169  12.5988  12.6300  12.8262  12.9907  13.1316  13.8215
    14.4734  15.3926  15.7418  15.7668  16.5293  17.3650  17.6221

          k = 0.1667 0.3333 0.2258 ( 31471 PWs)   bands (ev):

   -66.2754 -66.2752 -66.2747 -66.2745 -30.6625 -30.6601 -30.6312 -30.6289
   -30.6060 -30.6045 -30.5680 -30.5666 -30.5641 -30.5627 -30.5266 -30.5252
   -20.4309 -20.4309 -20.4309 -20.4308 -20.4207 -20.4206 -20.4178 -20.4176
   -20.4114 -20.4111 -20.4105 -20.4104 -20.4102 -20.4102 -20.4095 -20.4092
   -20.4065 -20.4064 -20.4063 -20.4063 -20.3967 -20.3967 -20.3946 -20.3946
   -20.3935 -20.3935 -20.3913 -20.3913  -9.6385  -9.4639  -9.1352  -8.8681
    -8.7495  -8.6840  -8.6167  -8.5679  -8.2887  -8.2603  -7.9642  -7.9511
     1.4118   1.4222   2.1672   2.2804   2.7928   2.8972   2.9459   3.0574
     3.1104   3.2783   3.3136   3.5058   3.9393   3.9707   3.9802   4.2290
     4.5985   4.6732   4.8458   4.8672   4.9550   5.3901   5.7034   5.7232
     6.5376   6.6594   6.6993   6.7272   6.8479   6.9064   7.0524   7.4053
     7.4479   7.4859   7.5325   7.7267  10.6413  11.0315  11.0701  11.6799
    11.8634  11.9922  12.4737  12.5228  12.6949  12.7975  13.1632  13.5892
    15.0574  15.6569  16.1798  16.3314  16.7163  16.9961  17.6387

          k = 0.1667 0.3333-0.3386 ( 31482 PWs)   bands (ev):

   -66.2753 -66.2753 -66.2746 -66.2746 -30.6468 -30.6468 -30.6445 -30.6445
   -30.6053 -30.6053 -30.5673 -30.5673 -30.5634 -30.5634 -30.5259 -30.5259
   -20.4309 -20.4309 -20.4309 -20.4309 -20.4193 -20.4193 -20.4191 -20.4191
   -20.4112 -20.4112 -20.4104 -20.4104 -20.4103 -20.4103 -20.4094 -20.4094
   -20.4065 -20.4065 -20.4063 -20.4063 -20.3967 -20.3967 -20.3946 -20.3946
   -20.3935 -20.3935 -20.3913 -20.3913  -9.5339  -9.5338  -8.8946  -8.8936
    -8.7356  -8.7332  -8.5265  -8.5224  -8.4843  -8.4811  -7.9581  -7.9578
     1.4192   1.4202   2.8512   2.8575   2.9459   2.9564   3.0430   3.0866
     3.1470   3.2079   3.3244   3.3301   3.4309   3.4460   4.1905   4.1983
     4.2792   4.2819   4.7282   4.8653   5.0083   5.1350   5.7057   5.7132
     6.6284   6.6672   6.7192   6.7602   7.1784   7.1948   7.2176   7.2733
     7.2916   7.3342   7.5366   7.5561  11.0099  11.0353  11.2419  11.2890
    12.1384  12.1750  12.1878  12.1887  12.6728  12.7426  13.3163  13.3618
    15.4467  15.4673  16.6187  16.6342  17.2607  17.2877  17.3379

          k = 0.1667-0.5000 0.0000 ( 31478 PWs)   bands (ev):

   -66.2752 -66.2752 -66.2747 -66.2747 -30.6771 -30.6771 -30.6150 -30.6150
   -30.5902 -30.5902 -30.5879 -30.5879 -30.5429 -30.5429 -30.5400 -30.5400
   -20.4309 -20.4309 -20.4308 -20.4308 -20.4221 -20.4221 -20.4162 -20.4162
   -20.4114 -20.4114 -20.4105 -20.4104 -20.4102 -20.4102 -20.4092 -20.4092
   -20.4064 -20.4064 -20.4063 -20.4063 -20.3960 -20.3960 -20.3959 -20.3959
   -20.3922 -20.3922 -20.3921 -20.3921  -9.5678  -9.5678  -9.1009  -9.1009
    -8.8706  -8.8706  -8.2930  -8.2930  -8.2854  -8.2854  -7.9229  -7.9229
     1.3007   1.3007   2.1107   2.1107   2.1321   2.1321   2.7285   2.7285
     3.7398   3.7398   3.9547   3.9547   4.0337   4.0337   4.2487   4.2487
     4.6988   4.6988   4.9711   4.9711   5.3429   5.3429   5.7348   5.7348
     6.2700   6.2700   6.4111   6.4111   7.0714   7.0714   7.0960   7.0960
     7.2151   7.2151   7.8732   7.8732  10.7178  10.7178  11.9097  11.9097
    11.9578  11.9578  12.4024  12.4024  12.6801  12.6801  13.5296  13.5296
    14.6089  14.6089  16.5143  16.5143  16.9303  16.9303  17.6383

          k = 0.1667-0.5000 0.1129 ( 31490 PWs)   bands (ev):

   -66.2751 -66.2751 -66.2748 -66.2748 -30.6729 -30.6729 -30.6191 -30.6191
   -30.5902 -30.5902 -30.5881 -30.5881 -30.5427 -30.5427 -30.5402 -30.5402
   -20.4309 -20.4309 -20.4308 -20.4308 -20.4217 -20.4217 -20.4166 -20.4166
   -20.4114 -20.4114 -20.4104 -20.4104 -20.4102 -20.4102 -20.4092 -20.4092
   -20.4064 -20.4064 -20.4063 -20.4063 -20.3960 -20.3960 -20.3959 -20.3959
   -20.3922 -20.3922 -20.3921 -20.3921  -9.5112  -9.5111  -9.1112  -9.1112
    -8.8495  -8.8495  -8.2973  -8.2973  -8.2863  -8.2863  -8.0206  -8.0206
     1.5351   1.5351   2.1098   2.1098   2.1414   2.1414   2.8002   2.8002
     3.7031   3.7031   3.9688   3.9688   4.0590   4.0590   4.1889   4.1889
     4.7044   4.7044   4.7974   4.7974   5.0846   5.0846   5.6533   5.6533
     6.3120   6.3120   6.5983   6.5983   7.0672   7.0672   7.0941   7.0942
     7.2131   7.2131   7.8135   7.8135  10.8301  10.8301  11.9073  11.9073
    11.9561  11.9561  12.4502  12.4502  12.5402  12.5402  13.4184  13.4184
    14.9641  14.9641  16.5793  16.5793  16.9031  16.9031  17.6404

          k = 0.1667-0.5000 0.2258 ( 31496 PWs)   bands (ev):

   -66.2751 -66.2751 -66.2749 -66.2749 -30.6615 -30.6615 -30.6303 -30.6303
   -30.5900 -30.5900 -30.5887 -30.5887 -30.5422 -30.5422 -30.5408 -30.5408
   -20.4309 -20.4309 -20.4309 -20.4309 -20.4207 -20.4207 -20.4177 -20.4177
   -20.4111 -20.4111 -20.4106 -20.4106 -20.4101 -20.4101 -20.4095 -20.4095
   -20.4064 -20.4064 -20.4063 -20.4063 -20.3960 -20.3960 -20.3959 -20.3959
   -20.3922 -20.3922 -20.3921 -20.3921  -9.3707  -9.3707  -9.1477  -9.1477
    -8.7697  -8.7697  -8.3609  -8.3609  -8.2813  -8.2812  -8.2147  -8.2147
     2.0191   2.0191   2.1057   2.1057   2.3148   2.3148   3.0149   3.0149
     3.5029   3.5029   3.9594   3.9594   4.0323   4.0323   4.2181   4.2181
     4.3408   4.3408   4.7311   4.7311   4.7510   4.7510   5.1580   5.1580
     6.6808   6.6808   6.8652   6.8652   7.0367   7.0367   7.1061   7.1062
     7.2201   7.2201   7.6339   7.6339  11.1471  11.1471  11.8886  11.8886
    11.9419  11.9419  12.1953  12.1953  12.5948  12.5948  13.1462  13.1462
    15.7498  15.7498  16.6509  16.6509  16.9392  16.9393  17.5560

          k = 0.1667-0.5000-0.3386 ( 31476 PWs)   bands (ev):

   -66.2750 -66.2750 -66.2750 -66.2749 -30.6459 -30.6459 -30.6458 -30.6458
   -30.5894 -30.5894 -30.5894 -30.5894 -30.5415 -30.5415 -30.5415 -30.5415
   -20.4309 -20.4309 -20.4309 -20.4309 -20.4192 -20.4192 -20.4192 -20.4192
   -20.4109 -20.4109 -20.4108 -20.4108 -20.4098 -20.4098 -20.4098 -20.4098
   -20.4064 -20.4064 -20.4064 -20.4064 -20.3959 -20.3959 -20.3959 -20.3959
   -20.3922 -20.3922 -20.3922 -20.3922  -9.2298  -9.2298  -9.2295  -9.2295
    -8.5913  -8.5913  -8.5903  -8.5903  -8.2691  -8.2691  -8.2683  -8.2683
     2.0935   2.0935   2.0948   2.0948   3.0422   3.0422   3.0460   3.0460
     3.4235   3.4235   3.4555   3.4555   3.9705   3.9705   4.0619   4.0619
     4.5039   4.5039   4.5574   4.5574   4.8162   4.8162   4.8217   4.8217
     6.9204   6.9204   6.9460   6.9460   7.0298   7.0298   7.1088   7.1088
     7.3455   7.3456   7.3866   7.3866  11.5684  11.5685  11.6207  11.6207
    11.9253  11.9253  12.0293  12.0293  12.8159  12.8159  12.8609  12.8609
    16.3600  16.3600  16.4075  16.4075  17.2460  17.2460  17.3340

          k = 0.3333 0.3333 0.0000 ( 31476 PWs)   bands (ev):

   -66.2754 -66.2750 -66.2749 -66.2745 -30.6773 -30.6761 -30.6147 -30.6141
   -30.6140 -30.6111 -30.5913 -30.5891 -30.5418 -30.5389 -30.5202 -30.5173
   -20.4309 -20.4309 -20.4308 -20.4308 -20.4221 -20.4220 -20.4162 -20.4161
   -20.4119 -20.4116 -20.4105 -20.4103 -20.4103 -20.4101 -20.4090 -20.4087
   -20.4065 -20.4064 -20.4064 -20.4063 -20.3975 -20.3974 -20.3963 -20.3962
   -20.3919 -20.3918 -20.3906 -20.3905  -9.7600  -9.5093  -9.4349  -9.0512
    -9.0210  -8.8556  -8.3131  -8.3127  -7.9395  -7.9104  -7.8724  -7.8474
     1.1134   1.1541   1.3321   1.3695   2.0985   2.1184   2.4185   2.7188
     3.6340   3.7293   3.9995   4.0377   4.1225   4.6535   4.6659   4.8482
     4.9551   5.0168   5.2426   5.5261   5.5386   5.5781   5.8317   5.9823
     6.1734   6.2228   6.3102   6.3510   6.6129   6.6470   6.9303   6.9924
     7.0162   7.1865   7.8648   8.0619   9.7550  10.7139  11.6678  11.7027
    12.3710  12.3774  12.4561  12.4748  12.7264  13.1192  13.5571  14.0516
    14.0709  14.6646  15.5711  16.0624  16.9754  17.1057  17.6460

          k = 0.3333 0.3333 0.1129 ( 31506 PWs)   bands (ev):

   -66.2754 -66.2750 -66.2749 -66.2746 -30.6731 -30.6719 -30.6182 -30.6181
   -30.6145 -30.6113 -30.5913 -30.5893 -30.5416 -30.5391 -30.5200 -30.5175
   -20.4309 -20.4309 -20.4309 -20.4308 -20.4217 -20.4216 -20.4166 -20.4165
   -20.4118 -20.4115 -20.4106 -20.4104 -20.4102 -20.4100 -20.4091 -20.4088
   -20.4065 -20.4064 -20.4064 -20.4063 -20.3975 -20.3974 -20.3963 -20.3962
   -20.3919 -20.3918 -20.3906 -20.3906  -9.7197  -9.4510  -9.4442  -9.0602
    -8.9836  -8.8355  -8.3207  -8.3105  -8.0395  -8.0136  -7.8708  -7.8491
     1.1374   1.1540   1.5421   1.6196   2.0968   2.1287   2.4902   2.7934
     3.6316   3.7243   3.9148   3.9222   4.0620   4.6321   4.6976   4.7468
     4.9305   4.9332   5.0052   5.2086   5.6410   5.7276   5.7866   5.9696
     6.0234   6.2137   6.3761   6.5352   6.5971   6.7172   6.8924   6.9704
     7.0052   7.1799   7.8038   7.9780   9.9640  10.8296  11.6688  11.7007
    12.2134  12.4055  12.4208  12.4898  12.6311  13.1409  13.4576  13.9746
    14.3174  15.0087  15.5402  16.2052  16.9315  17.1713  17.7351

          k = 0.3333 0.3333 0.2258 ( 31476 PWs)   bands (ev):

   -66.2753 -66.2751 -66.2749 -66.2746 -30.6616 -30.6605 -30.6299 -30.6293
   -30.6138 -30.6120 -30.5911 -30.5899 -30.5411 -30.5397 -30.5194 -30.5180
   -20.4309 -20.4309 -20.4309 -20.4309 -20.4206 -20.4206 -20.4177 -20.4176
   -20.4116 -20.4113 -20.4108 -20.4106 -20.4100 -20.4098 -20.4093 -20.4090
   -20.4065 -20.4064 -20.4064 -20.4064 -20.3975 -20.3974 -20.3963 -20.3962
   -20.3919 -20.3918 -20.3906 -20.3906  -9.6257  -9.4749  -9.3072  -9.0924
    -8.8578  -8.7568  -8.3851  -8.3038  -8.2858  -8.2271  -7.8662  -7.8537
     1.1495   1.1538   2.0064   2.0916   2.3034   2.3129   2.7002   3.0188
     3.4437   3.5691   3.6973   3.7151   4.2288   4.2430   4.3143   4.6358
     4.6771   4.8352   4.9322   5.0139   5.1997   5.5329   5.9653   6.0002
     6.1210   6.2146   6.4479   6.6915   6.7362   6.8867   6.9052   7.0024
     7.0637   7.1621   7.6173   7.7343  10.4879  11.1489  11.6627  11.6952
    11.7916  12.1095  12.4998  12.5423  12.5718  13.0817  13.3496  13.7458
    14.8354  15.4362  15.7780  16.6241  16.7815  17.4252  17.5205

          k = 0.3333 0.3333-0.3386 ( 31454 PWs)   bands (ev):

   -66.2752 -66.2752 -66.2748 -66.2748 -30.6458 -30.6457 -30.6449 -30.6449
   -30.6129 -30.6129 -30.5906 -30.5906 -30.5404 -30.5404 -30.5187 -30.5187
   -20.4309 -20.4309 -20.4309 -20.4309 -20.4192 -20.4192 -20.4191 -20.4191
   -20.4113 -20.4113 -20.4108 -20.4108 -20.4098 -20.4098 -20.4093 -20.4093
   -20.4065 -20.4064 -20.4064 -20.4064 -20.3974 -20.3974 -20.3963 -20.3963
   -20.3918 -20.3918 -20.3906 -20.3906  -9.5343  -9.5343  -9.1679  -9.1679
    -8.6309  -8.6309  -8.5689  -8.5689  -8.2898  -8.2898  -7.8600  -7.8600
     1.1528   1.1528   2.0796   2.0796   3.0312   3.0312   3.0498   3.0498
     3.2586   3.2586   3.4770   3.4770   3.7013   3.7013   4.4962   4.4962
     4.7095   4.7095   4.9663   4.9663   5.2374   5.2374   6.0007   6.0008
     6.1954   6.1954   6.5581   6.5581   6.9026   6.9026   7.0522   7.0522
     7.3092   7.3092   7.3806   7.3806  11.1311  11.1311  11.6369  11.6369
    11.6914  11.6914  12.5183  12.5183  12.8074  12.8074  13.5029  13.5029
    15.2224  15.2224  16.4426  16.4426  17.1173  17.1173  17.8620

          k = 0.3333-0.5000 0.0000 ( 31472 PWs)   bands (ev):

   -66.2752 -66.2752 -66.2747 -66.2747 -30.6766 -30.6766 -30.6152 -30.6152
   -30.6073 -30.6073 -30.6057 -30.6057 -30.5255 -30.5255 -30.5226 -30.5226
   -20.4309 -20.4309 -20.4308 -20.4308 -20.4220 -20.4220 -20.4161 -20.4161
   -20.4118 -20.4118 -20.4106 -20.4106 -20.4100 -20.4100 -20.4088 -20.4088
   -20.4065 -20.4065 -20.4064 -20.4064 -20.3973 -20.3973 -20.3972 -20.3972
   -20.3908 -20.3908 -20.3907 -20.3907  -9.6577  -9.6576  -9.3131  -9.3131
    -8.9802  -8.9802  -8.0108  -8.0108  -7.9958  -7.9958  -7.9199  -7.9199
     1.2610   1.2610   1.4056   1.4056   1.4975   1.4975   2.4885   2.4885
     4.1334   4.1334   4.3311   4.3311   4.3772   4.3772   4.5092   4.5092
     5.3685   5.3685   5.4880   5.4880   5.5582   5.5583   5.5726   5.5726
     6.3758   6.3758   6.4462   6.4462   6.4934   6.4934   6.6841   6.6841
     6.8821   6.8821   8.0140   8.0140  10.0490  10.0490  12.1810  12.1810
    12.2042  12.2042  12.4501  12.4501  12.9446  12.9446  13.9176  13.9176
    14.2446  14.2446  16.0069  16.0069  16.7711  16.7711  17.6557

          k = 0.3333-0.5000 0.1129 ( 31480 PWs)   bands (ev):

   -66.2751 -66.2751 -66.2748 -66.2748 -30.6724 -30.6724 -30.6187 -30.6187
   -30.6079 -30.6079 -30.6059 -30.6059 -30.5253 -30.5253 -30.5228 -30.5228
   -20.4309 -20.4309 -20.4308 -20.4308 -20.4217 -20.4217 -20.4165 -20.4165
   -20.4117 -20.4117 -20.4107 -20.4107 -20.4099 -20.4099 -20.4088 -20.4088
   -20.4065 -20.4065 -20.4064 -20.4064 -20.3973 -20.3973 -20.3972 -20.3972
   -20.3908 -20.3908 -20.3907 -20.3907  -9.6129  -9.6129  -9.3219  -9.3219
    -8.9468  -8.9468  -8.0485  -8.0485  -8.0081  -8.0081  -7.9749  -7.9749
     1.3560   1.3560   1.4054   1.4054   1.6504   1.6504   2.5624   2.5624
     3.9376   3.9376   4.3129   4.3129   4.3753   4.3753   4.5502   4.5502
     5.0914   5.0914   5.4434   5.4434   5.5616   5.5616   5.6901   5.6901
     6.2417   6.2417   6.4522   6.4523   6.6168   6.6168   6.7141   6.7141
     6.8495   6.8495   7.9352   7.9352  10.2218  10.2218  12.1798  12.1798
    12.1916  12.1916  12.3121  12.3121  12.9831  12.9831  13.8158  13.8158
    14.5371  14.5371  15.9725  15.9725  16.8918  16.8919  17.7088

          k = 0.3333-0.5000 0.2258 ( 31470 PWs)   bands (ev):

   -66.2751 -66.2751 -66.2749 -66.2748 -30.6609 -30.6609 -30.6296 -30.6296
   -30.6080 -30.6080 -30.6066 -30.6066 -30.5248 -30.5248 -30.5233 -30.5233
   -20.4309 -20.4309 -20.4309 -20.4309 -20.4206 -20.4206 -20.4176 -20.4176
   -20.4115 -20.4115 -20.4109 -20.4109 -20.4097 -20.4097 -20.4091 -20.4091
   -20.4065 -20.4065 -20.4064 -20.4064 -20.3973 -20.3973 -20.3973 -20.3973
   -20.3908 -20.3908 -20.3907 -20.3907  -9.5088  -9.5088  -9.3512  -9.3512
    -8.8287  -8.8287  -8.3007  -8.3006  -8.0037  -8.0036  -7.9892  -7.9892
     1.3949   1.3949   1.4045   1.4045   2.2842   2.2842   2.7862   2.7862
     3.5022   3.5022   4.2792   4.2792   4.3269   4.3269   4.3914   4.3915
     4.7176   4.7176   5.2853   5.2853   5.5707   5.5707   5.6542   5.6542
     6.2971   6.2971   6.4361   6.4361   6.7131   6.7131   6.8006   6.8006
     6.9494   6.9494   7.7020   7.7020  10.6771  10.6771  11.8504  11.8504
    12.1936  12.1936  12.2207  12.2207  13.1017  13.1017  13.5716  13.5716
    15.1355  15.1355  15.8550  15.8550  17.2575  17.2575  17.8655

          k = 0.3333-0.5000-0.3386 ( 31484 PWs)   bands (ev):

   -66.2750 -66.2750 -66.2750 -66.2749 -30.6452 -30.6452 -30.6452 -30.6452
   -30.6074 -30.6074 -30.6074 -30.6074 -30.5240 -30.5240 -30.5240 -30.5240
   -20.4309 -20.4309 -20.4309 -20.4309 -20.4191 -20.4191 -20.4191 -20.4191
   -20.4112 -20.4112 -20.4112 -20.4112 -20.4094 -20.4094 -20.4094 -20.4094
   -20.4065 -20.4064 -20.4064 -20.4064 -20.3973 -20.3973 -20.3973 -20.3973
   -20.3908 -20.3908 -20.3908 -20.3908  -9.4109  -9.4109  -9.4108  -9.4108
    -8.6003  -8.6002  -8.6000  -8.6000  -7.9970  -7.9970  -7.9968  -7.9968
     1.4020   1.4020   1.4024   1.4024   3.0351   3.0351   3.0388   3.0388
     3.3212   3.3212   3.3257   3.3257   4.3327   4.3328   4.3689   4.3689
     4.9686   4.9686   5.0037   5.0037   5.5844   5.5844   5.6040   5.6040
     6.3847   6.3847   6.3994   6.3994   6.7606   6.7606   6.7699   6.7699
     7.3359   7.3359   7.3448   7.3448  11.2714  11.2714  11.2747  11.2747
    12.1963  12.1963  12.2156  12.2156  13.2992  13.2992  13.3120  13.3120
    15.5982  15.5982  15.6091  15.6091  17.6420  17.6427  17.6693

          k =-0.5000-0.5000 0.0000 ( 31504 PWs)   bands (ev):

   -66.2752 -66.2752 -66.2747 -66.2747 -30.6763 -30.6763 -30.6160 -30.6160
   -30.6129 -30.6129 -30.6123 -30.6123 -30.5191 -30.5191 -30.5162 -30.5162
   -20.4309 -20.4309 -20.4308 -20.4308 -20.4220 -20.4220 -20.4160 -20.4160
   -20.4120 -20.4120 -20.4107 -20.4107 -20.4099 -20.4099 -20.4086 -20.4086
   -20.4065 -20.4065 -20.4064 -20.4064 -20.3978 -20.3978 -20.3977 -20.3977
   -20.3903 -20.3903 -20.3902 -20.3902  -9.7009  -9.7009  -9.3904  -9.3904
    -9.0092  -9.0092  -7.9263  -7.9263  -7.8965  -7.8965  -7.8697  -7.8697
     1.1148   1.1148   1.1425   1.1425   1.3902   1.3902   2.3955   2.3955
     4.2067   4.2067   4.6086   4.6086   4.6510   4.6510   4.6839   4.6839
     5.3447   5.3447   5.4140   5.4140   5.7534   5.7534   5.9270   5.9270
     6.0518   6.0518   6.2060   6.2060   6.3875   6.3875   6.6209   6.6209
     6.9873   6.9873   8.0595   8.0595   9.7657   9.7657  12.2549  12.2549
    12.3052  12.3052  12.3646  12.3646  13.1561  13.1561  14.0731  14.0731
    14.0750  14.0750  15.6646  15.6646  16.9006  16.9006  17.6993

          k =-0.5000-0.5000 0.1129 ( 31440 PWs)   bands (ev):

   -66.2751 -66.2751 -66.2748 -66.2748 -30.6721 -30.6721 -30.6172 -30.6172
   -30.6157 -30.6157 -30.6126 -30.6126 -30.5189 -30.5189 -30.5164 -30.5164
   -20.4309 -20.4309 -20.4308 -20.4308 -20.4216 -20.4216 -20.4165 -20.4165
   -20.4119 -20.4119 -20.4108 -20.4108 -20.4098 -20.4098 -20.4087 -20.4087
   -20.4065 -20.4065 -20.4064 -20.4064 -20.3978 -20.3978 -20.3977 -20.3977
   -20.3903 -20.3903 -20.3902 -20.3902  -9.6606  -9.6606  -9.3988  -9.3988
    -8.9713  -8.9713  -8.0318  -8.0318  -7.8947  -7.8947  -7.8715  -7.8715
     1.1299   1.1299   1.1424   1.1424   1.6257   1.6257   2.4682   2.4682
     3.9400   3.9400   4.6117   4.6117   4.6460   4.6460   4.7465   4.7465
     5.1152   5.1152   5.5476   5.5476   5.6937   5.6937   5.9266   5.9266
     6.0473   6.0473   6.1736   6.1736   6.4120   6.4120   6.6763   6.6763
     6.8920   6.8921   7.9746   7.9746   9.9756   9.9756  12.2058  12.2058
    12.2668  12.2668  12.3042  12.3042  13.1902  13.1902  13.9766  13.9766
    14.3377  14.3377  15.6318  15.6318  17.0620  17.0620  17.7354

          k =-0.5000-0.5000 0.2258 ( 31512 PWs)   bands (ev):

   -66.2751 -66.2751 -66.2749 -66.2749 -30.6606 -30.6606 -30.6289 -30.6289
   -30.6151 -30.6151 -30.6132 -30.6132 -30.5184 -30.5184 -30.5169 -30.5169
   -20.4309 -20.4309 -20.4309 -20.4309 -20.4206 -20.4206 -20.4176 -20.4176
   -20.4117 -20.4117 -20.4110 -20.4110 -20.4095 -20.4095 -20.4089 -20.4089
   -20.4065 -20.4065 -20.4065 -20.4065 -20.3978 -20.3978 -20.3978 -20.3978
   -20.3903 -20.3903 -20.3902 -20.3902  -9.5680  -9.5680  -9.4264  -9.4264
    -8.8415  -8.8415  -8.2956  -8.2956  -7.8899  -7.8898  -7.8765  -7.8765
     1.1389   1.1389   1.1423   1.1423   2.3045   2.3045   2.6823   2.6823
     3.4667   3.4667   4.2956   4.2956   4.6201   4.6201   4.6484   4.6484
     4.9231   4.9231   5.4768   5.4768   5.8073   5.8073   5.9232   5.9232
     6.0445   6.0445   6.1125   6.1125   6.4821   6.4821   6.7289   6.7289
     6.9357   6.9357   7.7257   7.7257  10.5012  10.5012  11.7683  11.7683
    12.2840  12.2840  12.3010  12.3010  13.2986  13.2986  13.7419  13.7419
    14.8712  14.8712  15.5213  15.5213  17.5926  17.5926  17.8381

          k =-0.5000-0.5000-0.3386 ( 31488 PWs)   bands (ev):

   -66.2750 -66.2750 -66.2750 -66.2749 -30.6448 -30.6448 -30.6448 -30.6447
   -30.6141 -30.6141 -30.6141 -30.6141 -30.5177 -30.5177 -30.5177 -30.5176
   -20.4309 -20.4309 -20.4309 -20.4309 -20.4191 -20.4191 -20.4191 -20.4191
   -20.4114 -20.4114 -20.4113 -20.4113 -20.4092 -20.4092 -20.4092 -20.4092
   -20.4065 -20.4065 -20.4065 -20.4065 -20.3978 -20.3978 -20.3978 -20.3978
   -20.3903 -20.3903 -20.3903 -20.3903  -9.4811  -9.4811  -9.4810  -9.4810
    -8.6015  -8.6015  -8.6015  -8.6015  -7.8832  -7.8832  -7.8832  -7.8832
     1.1415   1.1415   1.1415   1.1415   3.0246   3.0246   3.0246   3.0246
     3.2690   3.2690   3.2690   3.2690   4.6322   4.6322   4.6322   4.6322
     5.1873   5.1873   5.1873   5.1873   5.9020   5.9020   5.9020   5.9020
     6.0676   6.0676   6.0676   6.0676   6.5898   6.5898   6.5898   6.5898
     7.3462   7.3462   7.3462   7.3462  11.1541  11.1541  11.1541  11.1541
    12.2949  12.2949  12.2949  12.2949  13.4894  13.4894  13.4894  13.4894
    15.2899  15.2899  15.2899  15.2899  17.9938  17.9938  17.9938

     the Fermi energy is     9.6154 ev

!    total energy              =   -3130.42677639 Ry
     Harris-Foulkes estimate   =   -3130.42677639 Ry
     estimated scf accuracy    <          2.8E-09 Ry

     The total energy is the sum of the following terms:

     one-electron contribution =   -2384.26683280 Ry
     hartree contribution      =    1309.84672089 Ry
     xc contribution           =    -483.04229144 Ry
     ewald contribution        =   -1572.96435326 Ry
     smearing contrib. (-TS)   =      -0.00001978 Ry

     convergence has been achieved in  12 iterations

     Writing output data file Landau_9.save/
 
     init_run     :      3.49s CPU      3.80s WALL (       1 calls)
     electrons    :    113.64s CPU    116.55s WALL (       1 calls)

     Called by init_run:
     wfcinit      :      2.83s CPU      3.07s WALL (       1 calls)
     potinit      :      0.25s CPU      0.27s WALL (       1 calls)
     hinit0       :      0.32s CPU      0.35s WALL (       1 calls)

     Called by electrons:
     c_bands      :     94.68s CPU     97.24s WALL (      12 calls)
     sum_band     :     16.44s CPU     16.51s WALL (      12 calls)
     v_of_rho     :      0.59s CPU      0.60s WALL (      13 calls)
     mix_rho      :      0.98s CPU      1.13s WALL (      12 calls)

     Called by c_bands:
     init_us_2    :      0.86s CPU      0.93s WALL (      25 calls)
     cegterg      :     81.14s CPU     83.67s WALL (      12 calls)

     Called by sum_band:

     Called by *egterg:
     h_psi        :     69.89s CPU     71.21s WALL (      46 calls)
     g_psi        :      0.18s CPU      0.18s WALL (      33 calls)
     cdiaghg      :      0.80s CPU      0.81s WALL (      45 calls)

     Called by h_psi:
     h_psi:pot    :     69.60s CPU     70.19s WALL (      46 calls)
     h_psi:calbec :      4.41s CPU      4.65s WALL (      46 calls)
     vloc_psi     :     59.90s CPU     60.19s WALL (      46 calls)
     add_vuspsi   :      5.29s CPU      5.35s WALL (      46 calls)

     General routines
     calbec       :      4.41s CPU      4.65s WALL (      46 calls)
     fft          :      0.29s CPU      0.29s WALL (      39 calls)
     ffts         :      0.10s CPU      0.10s WALL (      12 calls)
     fftw         :     59.50s CPU     59.70s WALL (    7860 calls)
 
     Parallel routines
 
     PWSCF        :   1m57.82s CPU   2m 1.20s WALL

 
   This run was terminated on:  15:39:35  21Nov2019            

=------------------------------------------------------------------------------=
   JOB DONE.
=------------------------------------------------------------------------------=
