
     Program PWSCF v.6.2 (svn rev. 14038) starts on 21Mar2020 at  0:39:55 

     This program is part of the open-source Quantum ESPRESSO suite
     for quantum simulation of materials; please cite
         "P. Giannozzi et al., J. Phys.:Condens. Matter 21 395502 (2009);
         "P. Giannozzi et al., J. Phys.:Condens. Matter 29 465901 (2017);
          URL http://www.quantum-espresso.org", 
     in publications or presentations arising from this work. More details at
     http://www.quantum-espresso.org/quote

     Parallel version (MPI), running on    40 processors

     MPI processes distributed on     4 nodes
     K-points division:     npool     =      40
     Reading input from scf.in

     Current dimensions of program PWSCF are:
     Max number of different atomic species (ntypx) = 10
     Max number of k-points (npk) =  40000
     Max angular momentum in pseudopotentials (lmaxx) =  3

     Subspace diagonalization in iterative solution of the eigenvalue problem:
     a serial algorithm will be used

 
     G-vector sticks info
     --------------------
     sticks:   dense  smooth     PW     G-vecs:    dense   smooth      PW
     Sum        7735    7735   2077               497767   497767   69001
 


     bravais-lattice index     =            0
     lattice parameter (alat)  =      13.8385  a.u.
     unit-cell volume          =    2803.1666 (a.u.)^3
     number of atoms/cell      =           32
     number of atomic types    =            2
     number of electrons       =       368.60
     number of Kohn-Sham states=          221
     kinetic-energy cutoff     =     120.0000  Ry
     charge density cutoff     =     480.0000  Ry
     convergence threshold     =      1.0E-08
     mixing beta               =       0.7000
     number of iterations used =            8  plain     mixing
     Exchange-correlation      = SLA PW NOGX NOGC ( 1  4  0  0 0 0)

     celldm(1)=  13.838526  celldm(2)=   0.000000  celldm(3)=   0.000000
     celldm(4)=   0.000000  celldm(5)=   0.000000  celldm(6)=   0.000000

     crystal axes: (cart. coord. in units of alat)
               a(1) = (   1.000000   0.000000   0.000000 )  
               a(2) = (   0.000000   1.057403   0.000000 )  
               a(3) = (   0.000000   0.000000   1.000320 )  

     reciprocal axes: (cart. coord. in units 2 pi/alat)
               b(1) = (  1.000000  0.000000  0.000000 )  
               b(2) = (  0.000000  0.945713  0.000000 )  
               b(3) = (  0.000000  0.000000  0.999680 )  


     PseudoPot. # 1 for W  read from file:
     /cluster/scratch/mnoe/QE/pps/W_ONCV_LDA-4.0.upf
     MD5 check sum: ba0307d5d4cd419d6f1d13dc49d7c13a
     Pseudo is Norm-conserving + core correction, Zval = 28.0
     Generated using ONCVPSP code by D. R. Hamann
     Using radial grid of 1380 points,  8 beta functions with: 
                l(1) =   0
                l(2) =   0
                l(3) =   1
                l(4) =   1
                l(5) =   2
                l(6) =   2
                l(7) =   3
                l(8) =   3

     PseudoPot. # 2 for O  read from file:
     /cluster/scratch/mnoe/QE/pps/O_ONCV_LDA-3.0.upf
     MD5 check sum: a1bd6164e7280c17a38c229939bfbd54
     Pseudo is Norm-conserving + core correction, Zval =  6.0
     Generated using ONCVPSP code by D. R. Hamann
     Using radial grid of  926 points,  5 beta functions with: 
                l(1) =   0
                l(2) =   0
                l(3) =   1
                l(4) =   1
                l(5) =   2

     atomic species   valence    mass     pseudopotential
        W             28.00   183.84000     W ( 1.00)
        O              6.00    15.99940     O ( 1.00)

      8 Sym. Ops., with inversion, found ( 6 have fractional translation)



   Cartesian axes

     site n.     atom                  positions (alat units)
         1           W   tau(   1) = (   0.2463000   0.2980395   0.0034911  )
         2           W   tau(   2) = (   0.7537000   0.7593632   0.9968288  )
         3           W   tau(   3) = (   0.2537000   0.2306619   0.5036511  )
         4           W   tau(   4) = (   0.7463000   0.8267409   0.4966689  )
         5           W   tau(   5) = (   0.7537000   0.2980395   0.4966689  )
         6           W   tau(   6) = (   0.2463000   0.7593632   0.5036511  )
         7           W   tau(   7) = (   0.7463000   0.2306619   0.9968288  )
         8           W   tau(   8) = (   0.2537000   0.8267409   0.0034911  )
         9           O   tau(   9) = (   0.2431800   0.0087976   0.0010903  )
        10           O   tau(  10) = (   0.7568200   1.0486052   0.9992296  )
        11           O   tau(  11) = (   0.2568200   0.5199038   0.5012503  )
        12           O   tau(  12) = (   0.7431800   0.5374990   0.4990696  )
        13           O   tau(  13) = (   0.7568200   0.0087976   0.4990696  )
        14           O   tau(  14) = (   0.2431800   1.0486052   0.5012503  )
        15           O   tau(  15) = (   0.7431800   0.5199038   0.9992296  )
        16           O   tau(  16) = (   0.2568200   0.5374990   0.0010903  )
        17           O   tau(  17) = (   0.5010100   0.2569489   0.4496838  )
        18           O   tau(  18) = (   0.4989900   0.8004539   0.5506361  )
        19           O   tau(  19) = (   0.9989900   0.2717525   0.9498438  )
        20           O   tau(  20) = (   0.0010099   0.7856503   0.0504762  )
        21           O   tau(  21) = (   0.4989900   0.2569489   0.0504762  )
        22           O   tau(  22) = (   0.5010100   0.8004539   0.9498438  )
        23           O   tau(  23) = (   0.0010099   0.2717525   0.5506361  )
        24           O   tau(  24) = (   0.9989900   0.7856503   0.4496838  )
        25           O   tau(  25) = (   0.6995400   0.2627329   0.7487095  )
        26           O   tau(  26) = (   0.3004600   0.7946699   0.2516105  )
        27           O   tau(  27) = (   0.8004600   0.2659685   0.2485496  )
        28           O   tau(  28) = (   0.1995400   0.7914342   0.7517705  )
        29           O   tau(  29) = (   0.3004600   0.2627329   0.7517705  )
        30           O   tau(  30) = (   0.6995400   0.7946699   0.2485496  )
        31           O   tau(  31) = (   0.1995400   0.2659685   0.2516105  )
        32           O   tau(  32) = (   0.8004600   0.7914342   0.7487095  )

     number of k points=    64  gaussian smearing, width (Ry)=  0.0007
                       cart. coord. in units 2pi/alat
        k(    1) = (   0.0000000   0.0000000   0.0000000), wk =   0.0092593
        k(    2) = (   0.0000000   0.0000000   0.1666134), wk =   0.0185185
        k(    3) = (   0.0000000   0.0000000   0.3332267), wk =   0.0185185
        k(    4) = (   0.0000000   0.0000000  -0.4998401), wk =   0.0092593
        k(    5) = (   0.0000000   0.1576189   0.0000000), wk =   0.0185185
        k(    6) = (   0.0000000   0.1576189   0.1666134), wk =   0.0370370
        k(    7) = (   0.0000000   0.1576189   0.3332267), wk =   0.0370370
        k(    8) = (   0.0000000   0.1576189  -0.4998401), wk =   0.0185185
        k(    9) = (   0.0000000   0.3152378   0.0000000), wk =   0.0185185
        k(   10) = (   0.0000000   0.3152378   0.1666134), wk =   0.0370370
        k(   11) = (   0.0000000   0.3152378   0.3332267), wk =   0.0370370
        k(   12) = (   0.0000000   0.3152378  -0.4998401), wk =   0.0185185
        k(   13) = (   0.0000000  -0.4728567   0.0000000), wk =   0.0092593
        k(   14) = (   0.0000000  -0.4728567   0.1666134), wk =   0.0185185
        k(   15) = (   0.0000000  -0.4728567   0.3332267), wk =   0.0185185
        k(   16) = (   0.0000000  -0.4728567  -0.4998401), wk =   0.0092593
        k(   17) = (   0.1666667   0.0000000   0.0000000), wk =   0.0185185
        k(   18) = (   0.1666667   0.0000000   0.1666134), wk =   0.0370370
        k(   19) = (   0.1666667   0.0000000   0.3332267), wk =   0.0370370
        k(   20) = (   0.1666667   0.0000000  -0.4998401), wk =   0.0185185
        k(   21) = (   0.1666667   0.1576189   0.0000000), wk =   0.0370370
        k(   22) = (   0.1666667   0.1576189   0.1666134), wk =   0.0740741
        k(   23) = (   0.1666667   0.1576189   0.3332267), wk =   0.0740741
        k(   24) = (   0.1666667   0.1576189  -0.4998401), wk =   0.0370370
        k(   25) = (   0.1666667   0.3152378   0.0000000), wk =   0.0370370
        k(   26) = (   0.1666667   0.3152378   0.1666134), wk =   0.0740741
        k(   27) = (   0.1666667   0.3152378   0.3332267), wk =   0.0740741
        k(   28) = (   0.1666667   0.3152378  -0.4998401), wk =   0.0370370
        k(   29) = (   0.1666667  -0.4728567   0.0000000), wk =   0.0185185
        k(   30) = (   0.1666667  -0.4728567   0.1666134), wk =   0.0370370
        k(   31) = (   0.1666667  -0.4728567   0.3332267), wk =   0.0370370
        k(   32) = (   0.1666667  -0.4728567  -0.4998401), wk =   0.0185185
        k(   33) = (   0.3333333   0.0000000   0.0000000), wk =   0.0185185
        k(   34) = (   0.3333333   0.0000000   0.1666134), wk =   0.0370370
        k(   35) = (   0.3333333   0.0000000   0.3332267), wk =   0.0370370
        k(   36) = (   0.3333333   0.0000000  -0.4998401), wk =   0.0185185
        k(   37) = (   0.3333333   0.1576189   0.0000000), wk =   0.0370370
        k(   38) = (   0.3333333   0.1576189   0.1666134), wk =   0.0740741
        k(   39) = (   0.3333333   0.1576189   0.3332267), wk =   0.0740741
        k(   40) = (   0.3333333   0.1576189  -0.4998401), wk =   0.0370370
        k(   41) = (   0.3333333   0.3152378   0.0000000), wk =   0.0370370
        k(   42) = (   0.3333333   0.3152378   0.1666134), wk =   0.0740741
        k(   43) = (   0.3333333   0.3152378   0.3332267), wk =   0.0740741
        k(   44) = (   0.3333333   0.3152378  -0.4998401), wk =   0.0370370
        k(   45) = (   0.3333333  -0.4728567   0.0000000), wk =   0.0185185
        k(   46) = (   0.3333333  -0.4728567   0.1666134), wk =   0.0370370
        k(   47) = (   0.3333333  -0.4728567   0.3332267), wk =   0.0370370
        k(   48) = (   0.3333333  -0.4728567  -0.4998401), wk =   0.0185185
        k(   49) = (  -0.5000000   0.0000000   0.0000000), wk =   0.0092593
        k(   50) = (  -0.5000000   0.0000000   0.1666134), wk =   0.0185185
        k(   51) = (  -0.5000000   0.0000000   0.3332267), wk =   0.0185185
        k(   52) = (  -0.5000000   0.0000000  -0.4998401), wk =   0.0092593
        k(   53) = (  -0.5000000   0.1576189   0.0000000), wk =   0.0185185
        k(   54) = (  -0.5000000   0.1576189   0.1666134), wk =   0.0370370
        k(   55) = (  -0.5000000   0.1576189   0.3332267), wk =   0.0370370
        k(   56) = (  -0.5000000   0.1576189  -0.4998401), wk =   0.0185185
        k(   57) = (  -0.5000000   0.3152378   0.0000000), wk =   0.0185185
        k(   58) = (  -0.5000000   0.3152378   0.1666134), wk =   0.0370370
        k(   59) = (  -0.5000000   0.3152378   0.3332267), wk =   0.0370370
        k(   60) = (  -0.5000000   0.3152378  -0.4998401), wk =   0.0185185
        k(   61) = (  -0.5000000  -0.4728567   0.0000000), wk =   0.0092593
        k(   62) = (  -0.5000000  -0.4728567   0.1666134), wk =   0.0185185
        k(   63) = (  -0.5000000  -0.4728567   0.3332267), wk =   0.0185185
        k(   64) = (  -0.5000000  -0.4728567  -0.4998401), wk =   0.0092593

     Dense  grid:   497767 G-vectors     FFT dimensions: ( 100, 108, 100)

     Estimated max dynamical RAM per process >       3.13 GB

     Estimated total dynamical RAM >     125.00 GB

     Initial potential from superposition of free atoms

     starting charge  367.99656, renormalised to  368.60000
     Starting wfc are  232 randomized atomic wfcs

     total cpu time spent up to now is       33.2 secs

     Self-consistent Calculation

     iteration #  1     ecut=   120.00 Ry     beta= 0.70
     Davidson diagonalization with overlap
     ethr =  1.00E-02,  avg # of iterations =  5.1

     total cpu time spent up to now is      148.8 secs

     total energy              =   -6253.44274448 Ry
     Harris-Foulkes estimate   =   -6264.26347159 Ry
     estimated scf accuracy    <      13.63113088 Ry

     iteration #  2     ecut=   120.00 Ry     beta= 0.70
     Davidson diagonalization with overlap
     ethr =  3.70E-03,  avg # of iterations =  3.6

     total cpu time spent up to now is      263.5 secs

     total energy              =   -6250.41074187 Ry
     Harris-Foulkes estimate   =   -6270.29333040 Ry
     estimated scf accuracy    <      52.89750076 Ry

     iteration #  3     ecut=   120.00 Ry     beta= 0.70
     Davidson diagonalization with overlap
     ethr =  3.70E-03,  avg # of iterations =  3.3

     total cpu time spent up to now is      372.0 secs

     total energy              =   -6260.67234199 Ry
     Harris-Foulkes estimate   =   -6260.94354809 Ry
     estimated scf accuracy    <       0.90726480 Ry

     iteration #  4     ecut=   120.00 Ry     beta= 0.70
     Davidson diagonalization with overlap
     ethr =  2.46E-04,  avg # of iterations =  3.0

     total cpu time spent up to now is      463.7 secs

     total energy              =   -6260.66762788 Ry
     Harris-Foulkes estimate   =   -6260.74005810 Ry
     estimated scf accuracy    <       0.22798245 Ry

     iteration #  5     ecut=   120.00 Ry     beta= 0.70
     Davidson diagonalization with overlap
     ethr =  6.19E-05,  avg # of iterations =  4.7

     total cpu time spent up to now is      559.4 secs

     total energy              =   -6260.66946046 Ry
     Harris-Foulkes estimate   =   -6260.70000376 Ry
     estimated scf accuracy    <       0.06777799 Ry

     iteration #  6     ecut=   120.00 Ry     beta= 0.70
     Davidson diagonalization with overlap
     ethr =  1.84E-05,  avg # of iterations =  5.1

     total cpu time spent up to now is      658.4 secs

     total energy              =   -6260.68413829 Ry
     Harris-Foulkes estimate   =   -6260.68676394 Ry
     estimated scf accuracy    <       0.00676178 Ry

     iteration #  7     ecut=   120.00 Ry     beta= 0.70
     Davidson diagonalization with overlap
     ethr =  1.83E-06,  avg # of iterations =  5.6

     total cpu time spent up to now is      756.1 secs

     total energy              =   -6260.68508681 Ry
     Harris-Foulkes estimate   =   -6260.68515132 Ry
     estimated scf accuracy    <       0.00011254 Ry

     iteration #  8     ecut=   120.00 Ry     beta= 0.70
     Davidson diagonalization with overlap
     ethr =  3.05E-08,  avg # of iterations =  3.2

     total cpu time spent up to now is      869.4 secs

     total energy              =   -6260.68514413 Ry
     Harris-Foulkes estimate   =   -6260.68515391 Ry
     estimated scf accuracy    <       0.00004610 Ry

     iteration #  9     ecut=   120.00 Ry     beta= 0.70
     Davidson diagonalization with overlap
     ethr =  1.25E-08,  avg # of iterations =  1.0

     total cpu time spent up to now is      949.9 secs

     total energy              =   -6260.68513890 Ry
     Harris-Foulkes estimate   =   -6260.68514643 Ry
     estimated scf accuracy    <       0.00001894 Ry

     iteration # 10     ecut=   120.00 Ry     beta= 0.70
     Davidson diagonalization with overlap
     ethr =  5.14E-09,  avg # of iterations =  2.3

     total cpu time spent up to now is     1041.2 secs

     total energy              =   -6260.68514221 Ry
     Harris-Foulkes estimate   =   -6260.68514234 Ry
     estimated scf accuracy    <       0.00000030 Ry

     iteration # 11     ecut=   120.00 Ry     beta= 0.70
     Davidson diagonalization with overlap
     ethr =  8.12E-11,  avg # of iterations =  3.0

     total cpu time spent up to now is     1152.3 secs

     total energy              =   -6260.68514230 Ry
     Harris-Foulkes estimate   =   -6260.68514234 Ry
     estimated scf accuracy    <       0.00000014 Ry

     iteration # 12     ecut=   120.00 Ry     beta= 0.70
     Davidson diagonalization with overlap
     ethr =  3.67E-11,  avg # of iterations =  1.8

     total cpu time spent up to now is     1239.4 secs

     total energy              =   -6260.68514227 Ry
     Harris-Foulkes estimate   =   -6260.68514230 Ry
     estimated scf accuracy    <       0.00000006 Ry

     iteration # 13     ecut=   120.00 Ry     beta= 0.70
     Davidson diagonalization with overlap
     ethr =  1.65E-11,  avg # of iterations =  2.0

     total cpu time spent up to now is     1342.6 secs

     End of self-consistent calculation

          k = 0.0000 0.0000 0.0000 ( 62223 PWs)   bands (ev):

   -66.0225 -66.0221 -66.0215 -66.0214 -66.0210 -66.0210 -66.0204 -66.0200
   -30.4666 -30.4631 -30.4630 -30.4596 -30.4075 -30.4042 -30.4038 -30.4007
   -30.3637 -30.3629 -30.3601 -30.3579 -30.3578 -30.3574 -30.3550 -30.3534
   -30.2622 -30.2613 -30.2595 -30.2584 -30.2580 -30.2570 -30.2551 -30.2539
   -20.1741 -20.1739 -20.1738 -20.1736 -20.1708 -20.1707 -20.1706 -20.1705
   -20.1705 -20.1703 -20.1703 -20.1702 -20.1685 -20.1682 -20.1681 -20.1679
   -20.1618 -20.1615 -20.1615 -20.1613 -20.1605 -20.1605 -20.1604 -20.1603
   -20.1589 -20.1587 -20.1586 -20.1586 -20.1578 -20.1576 -20.1576 -20.1573
   -20.1470 -20.1468 -20.1466 -20.1465 -20.1465 -20.1464 -20.1461 -20.1460
   -20.1197 -20.1197 -20.1192 -20.1192 -20.1182 -20.1182 -20.1177 -20.1177
   -20.1135 -20.1135 -20.1131 -20.1131 -20.1121 -20.1121 -20.1117 -20.1117
    -9.9068  -9.6150  -9.4682  -9.4681  -9.1800  -9.1774  -9.0587  -8.9877
    -8.9752  -8.8479  -8.8136  -8.8130  -7.8420  -7.7806  -7.7787  -7.7266
    -7.7246  -7.7222  -7.6979  -7.6975  -7.5684  -7.5668  -7.5466  -7.5456
     1.2809   1.2810   1.3496   1.3525   1.3707   1.3760   1.4187   1.6628
     1.6649   1.6664   1.7163   1.9145   2.4478   2.5238   2.6030   2.6053
     2.7543   2.7582   4.1771   4.1834   4.4029   4.4143   4.8447   4.8614
     4.9101   4.9161   4.9383   4.9396   5.0694   5.0695   5.1057   5.4504
     5.4589   5.5455   5.5661   5.5695   5.5703   5.6090   5.6272   5.8395
     5.8489   5.9180   5.9185   5.9578   5.9846   6.0787   6.0815   6.1748
     6.1761   6.2823   6.2878   6.6030   6.6053   6.8254   6.8355   6.8621
     6.8679   6.9099   7.0429   7.0490   7.1138   7.1188   7.4393   7.4469
     7.4837   7.4908   7.8302   7.8446   8.0944   8.1049   8.1597   8.1703
     9.3768   9.3821  10.0642  10.0680  10.0994  10.1038  12.3181  12.3387
    12.3471  12.3792  12.4058  12.4195  12.5686  12.5753  12.9286  12.9613
    13.2997  13.3165  13.4643  13.4734  13.8298  14.1657  14.2203  14.2251
    14.2531  14.4325  14.4872  14.8812  15.5276  15.5353  15.5400  16.1383
    16.1447  16.8705  17.1019  17.1108  17.4547

          k = 0.0000 0.0000 0.1666 ( 62214 PWs)   bands (ev):

   -66.0224 -66.0220 -66.0215 -66.0214 -66.0211 -66.0210 -66.0205 -66.0201
   -30.4665 -30.4634 -30.4629 -30.4599 -30.4074 -30.4045 -30.4038 -30.4010
   -30.3624 -30.3593 -30.3578 -30.3553 -30.3537 -30.3534 -30.3509 -30.3482
   -30.2690 -30.2663 -30.2646 -30.2619 -30.2610 -30.2581 -30.2571 -30.2543
   -20.1741 -20.1739 -20.1739 -20.1736 -20.1708 -20.1707 -20.1706 -20.1705
   -20.1704 -20.1703 -20.1703 -20.1702 -20.1685 -20.1683 -20.1681 -20.1679
   -20.1618 -20.1615 -20.1613 -20.1611 -20.1605 -20.1604 -20.1604 -20.1601
   -20.1589 -20.1589 -20.1587 -20.1586 -20.1578 -20.1578 -20.1576 -20.1575
   -20.1469 -20.1468 -20.1466 -20.1465 -20.1464 -20.1463 -20.1461 -20.1460
   -20.1193 -20.1193 -20.1191 -20.1191 -20.1178 -20.1178 -20.1178 -20.1178
   -20.1140 -20.1139 -20.1130 -20.1130 -20.1125 -20.1125 -20.1118 -20.1118
    -9.8604  -9.5609  -9.4851  -9.4095  -9.1923  -9.0903  -9.0672  -8.9493
    -8.9337  -8.8350  -8.8178  -8.7807  -7.8471  -7.8449  -7.8258  -7.7844
    -7.7707  -7.7300  -7.7096  -7.6989  -7.6864  -7.6793  -7.5767  -7.5554
     1.3527   1.3546   1.3717   1.3825   1.4848   1.5225   1.6277   1.6569
     1.6602   1.7483   1.8864   2.0390   2.5349   2.6126   2.6155   2.6942
     2.7457   2.8475   4.1171   4.1787   4.4016   4.4233   4.4244   4.5379
     4.7039   4.8249   4.8370   4.9806   4.9841   5.0628   5.0903   5.3392
     5.3815   5.4442   5.5383   5.5725   5.5749   5.6378   5.6454   5.6844
     5.7706   5.7928   5.8333   5.9652   5.9973   6.1245   6.1678   6.1732
     6.3026   6.4567   6.5290   6.5942   6.6894   6.7211   6.8041   6.8594
     6.8729   6.8845   7.0056   7.0450   7.0494   7.1277   7.2226   7.2257
     7.2629   7.3260   7.8509   7.8534   8.0636   8.1091   8.1277   8.1610
     9.7160   9.7471  10.0691  10.0968  10.3269  10.3819  12.2556  12.3134
    12.3392  12.3963  12.4046  12.4490  12.5783  12.6670  12.9627  12.9888
    13.1064  13.3090  13.3600  13.4649  13.9488  14.0791  14.0979  14.1639
    14.2589  14.4812  14.5525  14.9914  15.5009  15.5575  15.5885  16.1164
    16.4443  16.8288  17.0404  17.2891  17.5058

          k = 0.0000 0.0000 0.3332 ( 62212 PWs)   bands (ev):

   -66.0222 -66.0218 -66.0217 -66.0213 -66.0212 -66.0208 -66.0207 -66.0203
   -30.4660 -30.4642 -30.4625 -30.4607 -30.4070 -30.4052 -30.4035 -30.4017
   -30.3615 -30.3588 -30.3575 -30.3547 -30.3376 -30.3350 -30.3326 -30.3299
   -30.2874 -30.2848 -30.2828 -30.2802 -30.2602 -30.2579 -30.2573 -30.2551
   -20.1741 -20.1739 -20.1738 -20.1737 -20.1707 -20.1707 -20.1706 -20.1706
   -20.1704 -20.1704 -20.1703 -20.1702 -20.1685 -20.1683 -20.1681 -20.1680
   -20.1617 -20.1616 -20.1609 -20.1607 -20.1605 -20.1603 -20.1599 -20.1596
   -20.1594 -20.1592 -20.1591 -20.1585 -20.1583 -20.1579 -20.1577 -20.1576
   -20.1468 -20.1467 -20.1466 -20.1466 -20.1463 -20.1462 -20.1461 -20.1461
   -20.1189 -20.1188 -20.1182 -20.1182 -20.1181 -20.1181 -20.1168 -20.1167
   -20.1151 -20.1151 -20.1137 -20.1137 -20.1128 -20.1128 -20.1120 -20.1120
    -9.7477  -9.5372  -9.4356  -9.2747  -9.2372  -9.0960  -8.8790  -8.8352
    -8.8306  -8.7873  -8.7409  -8.6546  -8.1442  -8.1437  -8.0388  -8.0195
    -7.8180  -7.7944  -7.7634  -7.7392  -7.6807  -7.6584  -7.6040  -7.5824
     1.3600   1.3696   1.3997   1.4265   1.6033   1.6055   1.6399   1.6485
     2.3166   2.3492   2.5208   2.6002   2.6385   2.7382   2.7862   2.8836
     2.9368   3.0863   3.8077   3.8716   3.9076   4.0035   4.2132   4.3197
     4.3549   4.5614   4.6025   4.8051   4.8425   4.8705   5.0006   5.0352
     5.2115   5.2454   5.2543   5.3730   5.5000   5.5280   5.6398   5.6945
     5.7211   5.7711   5.8060   6.0225   6.0271   6.2174   6.2882   6.3306
     6.3548   6.4164   6.5560   6.5578   6.6126   6.6277   6.6866   6.7971
     6.8527   6.8854   6.9004   7.0378   7.0745   7.0780   7.1220   7.1683
     7.3552   7.3885   7.7961   7.8162   7.9366   7.9913   8.1440   8.1629
    10.0646  10.0892  10.4286  10.5057  10.9356  11.0496  11.8928  11.9424
    12.1436  12.5335  12.5442  12.5692  12.6065  12.6517  12.7610  12.9325
    12.9566  13.1736  13.2336  13.4738  13.7492  13.7717  14.1155  14.1590
    14.3268  14.4617  14.8662  15.2846  15.3901  15.6961  15.9573  16.0305
    16.2760  17.2766  17.4250  17.5775  17.6476

          k = 0.0000 0.0000-0.4998 ( 62232 PWs)   bands (ev):

   -66.0220 -66.0220 -66.0216 -66.0215 -66.0209 -66.0209 -66.0205 -66.0205
   -30.4652 -30.4652 -30.4617 -30.4617 -30.4062 -30.4062 -30.4027 -30.4027
   -30.3601 -30.3601 -30.3561 -30.3560 -30.3126 -30.3126 -30.3099 -30.3099
   -30.3077 -30.3077 -30.3051 -30.3051 -30.2591 -30.2591 -30.2562 -30.2562
   -20.1740 -20.1740 -20.1738 -20.1738 -20.1707 -20.1707 -20.1706 -20.1706
   -20.1704 -20.1704 -20.1703 -20.1703 -20.1684 -20.1684 -20.1681 -20.1681
   -20.1616 -20.1616 -20.1606 -20.1606 -20.1600 -20.1600 -20.1598 -20.1598
   -20.1594 -20.1594 -20.1589 -20.1589 -20.1583 -20.1583 -20.1577 -20.1577
   -20.1467 -20.1467 -20.1466 -20.1466 -20.1462 -20.1462 -20.1462 -20.1461
   -20.1185 -20.1185 -20.1185 -20.1185 -20.1167 -20.1167 -20.1167 -20.1167
   -20.1153 -20.1152 -20.1152 -20.1152 -20.1124 -20.1124 -20.1124 -20.1124
    -9.6270  -9.6270  -9.3164  -9.3164  -9.1585  -9.1585  -8.8493  -8.8493
    -8.5072  -8.5072  -8.4843  -8.4842  -8.4570  -8.4569  -8.3854  -8.3854
    -7.8077  -7.8077  -7.7515  -7.7515  -7.6419  -7.6419  -7.6200  -7.6200
     1.3663   1.3663   1.4199   1.4199   1.6229   1.6229   1.6365   1.6365
     2.6716   2.6716   3.0231   3.0231   3.1708   3.1708   3.1875   3.1876
     3.3329   3.3329   3.3916   3.3916   3.5258   3.5258   3.8212   3.8212
     3.9316   3.9316   4.4927   4.4927   4.7597   4.7597   4.9456   4.9456
     5.2739   5.2739   5.3870   5.3870   5.3917   5.3917   5.6833   5.6833
     5.7674   5.7674   5.9531   5.9531   6.2202   6.2202   6.2870   6.2870
     6.3819   6.3819   6.4864   6.4864   6.5078   6.5078   6.5739   6.5739
     6.8197   6.8198   6.8560   6.8560   7.1013   7.1013   7.5312   7.5312
     7.5941   7.5941   7.7165   7.7165   7.7435   7.7435   8.1603   8.1603
    10.0777  10.0777  11.2180  11.2180  11.2923  11.2923  11.6237  11.6237
    11.8428  11.8428  12.6162  12.6163  12.7433  12.7433  12.8617  12.8617
    12.9850  12.9850  13.3288  13.3288  13.5300  13.5300  14.1504  14.1504
    14.4188  14.4188  15.1817  15.1817  15.7236  15.7236  15.8850  15.8850
    16.6988  16.6988  17.8222  17.8222  18.1667

          k = 0.0000 0.1576 0.0000 ( 62187 PWs)   bands (ev):

   -66.0224 -66.0221 -66.0214 -66.0214 -66.0211 -66.0211 -66.0204 -66.0201
   -30.4627 -30.4592 -30.4591 -30.4557 -30.4114 -30.4081 -30.4078 -30.4047
   -30.3636 -30.3627 -30.3602 -30.3582 -30.3577 -30.3572 -30.3552 -30.3537
   -30.2620 -30.2611 -30.2597 -30.2586 -30.2579 -30.2569 -30.2552 -30.2541
   -20.1738 -20.1735 -20.1735 -20.1732 -20.1708 -20.1707 -20.1706 -20.1705
   -20.1705 -20.1703 -20.1703 -20.1702 -20.1688 -20.1686 -20.1685 -20.1683
   -20.1617 -20.1614 -20.1614 -20.1612 -20.1606 -20.1605 -20.1605 -20.1603
   -20.1588 -20.1586 -20.1586 -20.1585 -20.1578 -20.1577 -20.1577 -20.1574
   -20.1470 -20.1468 -20.1466 -20.1465 -20.1465 -20.1464 -20.1461 -20.1460
   -20.1197 -20.1197 -20.1192 -20.1192 -20.1182 -20.1182 -20.1177 -20.1177
   -20.1135 -20.1135 -20.1131 -20.1131 -20.1121 -20.1121 -20.1117 -20.1117
    -9.8770  -9.6267  -9.4302  -9.4299  -9.1876  -9.1852  -8.9868  -8.9850
    -8.9761  -8.8025  -8.7767  -8.7763  -7.9356  -7.8797  -7.8780  -7.8331
    -7.7229  -7.7218  -7.6997  -7.6993  -7.5670  -7.5657  -7.5482  -7.5471
     1.2809   1.2810   1.3602   1.3641   1.3707   1.3759   1.5569   1.7155
     1.8433   1.8933   1.8964   2.0780   2.4528   2.5185   2.6748   2.6774
     2.8221   2.8265   4.0439   4.0513   4.1313   4.1405   4.8087   4.9087
     4.9191   4.9224   4.9271   4.9332   4.9629   5.0138   5.0140   5.3107
     5.3164   5.5020   5.5042   5.6272   5.6585   5.6682   5.6716   5.6790
     5.8408   5.8451   5.9014   5.9063   5.9975   6.0853   6.0875   6.1789
     6.1805   6.2774   6.2861   6.6242   6.6286   6.8571   6.8625   6.8699
     6.8995   6.9047   6.9211   7.0373   7.0392   7.0401   7.4479   7.4548
     7.4836   7.4899   7.8349   7.8439   8.0540   8.0626   8.0807   8.0882
     9.3773   9.3824  10.2624  10.2639  10.2695  10.2702  12.2189  12.2316
    12.3579  12.3640  12.4052  12.4136  12.4137  12.4194  12.9329  12.9608
    13.3340  13.3489  13.4702  13.4779  14.0542  14.1091  14.1222  14.1342
    14.2535  14.7093  14.7291  15.0538  15.5278  15.5382  15.9358  16.1045
    16.1100  16.5484  17.2344  17.2431  17.5163

          k = 0.0000 0.1576 0.1666 ( 62207 PWs)   bands (ev):

   -66.0224 -66.0220 -66.0215 -66.0213 -66.0211 -66.0210 -66.0205 -66.0201
   -30.4625 -30.4595 -30.4590 -30.4560 -30.4114 -30.4084 -30.4078 -30.4049
   -30.3622 -30.3594 -30.3575 -30.3553 -30.3540 -30.3536 -30.3508 -30.3484
   -30.2688 -30.2665 -30.2644 -30.2621 -30.2608 -30.2583 -30.2569 -30.2545
   -20.1738 -20.1735 -20.1735 -20.1733 -20.1708 -20.1707 -20.1706 -20.1705
   -20.1704 -20.1703 -20.1703 -20.1702 -20.1688 -20.1686 -20.1685 -20.1683
   -20.1617 -20.1614 -20.1612 -20.1611 -20.1605 -20.1605 -20.1604 -20.1602
   -20.1589 -20.1588 -20.1587 -20.1586 -20.1579 -20.1578 -20.1577 -20.1576
   -20.1469 -20.1468 -20.1466 -20.1465 -20.1464 -20.1463 -20.1461 -20.1460
   -20.1193 -20.1193 -20.1191 -20.1191 -20.1178 -20.1178 -20.1178 -20.1178
   -20.1140 -20.1139 -20.1130 -20.1130 -20.1125 -20.1125 -20.1118 -20.1118
    -9.8294  -9.5726  -9.4470  -9.3668  -9.2002  -9.0982  -8.9935  -8.9476
    -8.9346  -8.7917  -8.7809  -8.7485  -7.9353  -7.8918  -7.8772  -7.8433
    -7.8399  -7.8165  -7.7091  -7.6978  -7.6878  -7.6781  -7.5756  -7.5569
     1.3656   1.3689   1.3716   1.3824   1.5877   1.6274   1.6491   1.8526
     1.8855   1.8911   1.9171   2.1441   2.5409   2.6097   2.6842   2.7683
     2.8140   2.9155   4.0176   4.0607   4.1303   4.1680   4.4571   4.5352
     4.7404   4.7626   4.7925   4.9446   4.9734   4.9795   5.0273   5.2680
     5.2874   5.3465   5.3512   5.5263   5.6201   5.6263   5.6687   5.7169
     5.7580   5.7889   5.8419   5.8721   5.9110   6.1424   6.1680   6.1987
     6.2471   6.4410   6.5074   6.6163   6.7389   6.7997   6.8214   6.8449
     6.8864   6.9104   6.9879   7.0004   7.0477   7.0554   7.2231   7.2254
     7.2791   7.3251   7.8528   7.8535   8.0236   8.0510   8.0552   8.0825
     9.7219   9.7477  10.2647  10.2707  10.4913  10.5190  12.2062  12.2866
    12.2952  12.3164  12.4008  12.4114  12.4241  12.5492  12.9647  12.9920
    13.1433  13.3395  13.3637  13.4686  13.9784  14.0061  14.0834  14.1074
    14.3493  14.7225  14.8526  15.1497  15.5565  15.5882  15.9019  16.0821
    16.4082  16.7033  16.9527  17.4023  17.5832

          k = 0.0000 0.1576 0.3332 ( 62230 PWs)   bands (ev):

   -66.0222 -66.0218 -66.0217 -66.0213 -66.0212 -66.0208 -66.0207 -66.0203
   -30.4621 -30.4603 -30.4585 -30.4568 -30.4109 -30.4091 -30.4074 -30.4057
   -30.3612 -30.3585 -30.3578 -30.3550 -30.3375 -30.3352 -30.3325 -30.3301
   -30.2873 -30.2850 -30.2827 -30.2804 -30.2600 -30.2578 -30.2575 -30.2553
   -20.1737 -20.1736 -20.1735 -20.1734 -20.1708 -20.1707 -20.1706 -20.1706
   -20.1704 -20.1704 -20.1703 -20.1702 -20.1688 -20.1687 -20.1685 -20.1684
   -20.1616 -20.1615 -20.1608 -20.1606 -20.1606 -20.1603 -20.1599 -20.1597
   -20.1593 -20.1591 -20.1590 -20.1585 -20.1583 -20.1579 -20.1578 -20.1577
   -20.1468 -20.1467 -20.1466 -20.1466 -20.1463 -20.1463 -20.1461 -20.1461
   -20.1189 -20.1188 -20.1182 -20.1182 -20.1181 -20.1181 -20.1168 -20.1167
   -20.1151 -20.1151 -20.1137 -20.1137 -20.1128 -20.1128 -20.1120 -20.1120
    -9.7140  -9.4997  -9.4468  -9.2458  -9.2183  -9.0228  -8.8576  -8.8435
    -8.7937  -8.7889  -8.7200  -8.6361  -8.1511  -8.1418  -8.0581  -8.0176
    -7.9063  -7.8877  -7.8615  -7.8334  -7.6799  -7.6601  -7.6030  -7.5839
     1.3815   1.3996   1.4042   1.4263   1.7808   1.8054   1.8845   1.8905
     2.3150   2.3602   2.5242   2.6174   2.7094   2.7964   2.7975   2.8816
     3.0125   3.1475   3.8072   3.8690   3.9017   3.9516   4.1459   4.1767
     4.2718   4.3940   4.6212   4.7392   4.8320   4.8387   4.8644   4.9123
     5.0571   5.1844   5.2048   5.2387   5.4052   5.4634   5.5407   5.6384
     5.7162   5.7608   5.8027   5.8498   6.0045   6.1838   6.2554   6.2906
     6.3845   6.5781   6.5908   6.6248   6.6652   6.6949   6.7540   6.8348
     6.8555   6.8593   6.9636   6.9965   7.0369   7.0712   7.1096   7.1565
     7.3484   7.3813   7.7991   7.8144   7.9022   7.9316   8.0740   8.0854
    10.2558  10.2683  10.4382  10.5088  11.0493  11.1386  11.8941  11.9398
    12.1100  12.4338  12.5000  12.5515  12.5733  12.6202  12.7142  12.8242
    12.9493  13.1733  13.2488  13.4686  13.6508  13.6847  14.0974  14.1039
    14.5594  14.7040  15.2107  15.4162  15.6844  15.7928  15.9738  15.9982
    16.4023  17.1603  17.2334  17.4752  17.8124

          k = 0.0000 0.1576-0.4998 ( 62196 PWs)   bands (ev):

   -66.0219 -66.0219 -66.0216 -66.0216 -66.0209 -66.0209 -66.0206 -66.0206
   -30.4612 -30.4612 -30.4577 -30.4577 -30.4101 -30.4101 -30.4066 -30.4066
   -30.3599 -30.3599 -30.3564 -30.3564 -30.3124 -30.3124 -30.3101 -30.3101
   -30.3076 -30.3076 -30.3053 -30.3052 -30.2589 -30.2589 -30.2564 -30.2564
   -20.1737 -20.1737 -20.1734 -20.1734 -20.1707 -20.1707 -20.1706 -20.1706
   -20.1704 -20.1704 -20.1703 -20.1702 -20.1688 -20.1688 -20.1684 -20.1684
   -20.1616 -20.1615 -20.1606 -20.1606 -20.1600 -20.1600 -20.1598 -20.1597
   -20.1594 -20.1594 -20.1590 -20.1590 -20.1583 -20.1583 -20.1578 -20.1577
   -20.1467 -20.1467 -20.1466 -20.1466 -20.1462 -20.1462 -20.1462 -20.1461
   -20.1185 -20.1185 -20.1185 -20.1185 -20.1167 -20.1167 -20.1167 -20.1167
   -20.1153 -20.1152 -20.1152 -20.1152 -20.1124 -20.1124 -20.1124 -20.1124
    -9.5907  -9.5907  -9.3263  -9.3263  -9.0892  -9.0892  -8.8142  -8.8142
    -8.5108  -8.5108  -8.4795  -8.4794  -8.4667  -8.4667  -8.3797  -8.3797
    -7.9008  -7.9008  -7.8501  -7.8501  -7.6410  -7.6410  -7.6215  -7.6215
     1.3970   1.3970   1.4198   1.4198   1.8048   1.8048   1.8933   1.8933
     2.7397   2.7397   3.0405   3.0405   3.1629   3.1629   3.2334   3.2334
     3.3404   3.3405   3.3887   3.3887   3.5142   3.5143   3.8202   3.8202
     3.9799   3.9799   4.2929   4.2929   4.6642   4.6642   4.7828   4.7829
     5.1013   5.1013   5.3558   5.3558   5.3612   5.3612   5.5261   5.5261
     5.7253   5.7253   5.8275   5.8275   6.2185   6.2185   6.3585   6.3585
     6.4004   6.4004   6.5066   6.5066   6.5654   6.5654   6.6875   6.6875
     6.8800   6.8800   6.8821   6.8821   7.0193   7.0194   7.5399   7.5399
     7.5883   7.5883   7.6904   7.6904   7.7132   7.7133   8.0847   8.0847
    10.2664  10.2664  11.2238  11.2239  11.2897  11.2897  11.6883  11.6883
    11.9025  11.9025  12.4886  12.4886  12.7200  12.7200  12.8660  12.8660
    12.9268  12.9268  13.2305  13.2305  13.4980  13.4980  14.1002  14.1002
    14.6637  14.6637  15.5496  15.5496  15.8593  15.8593  15.8672  15.8673
    16.7378  16.7378  17.6285  17.6285  18.1521

          k = 0.0000 0.3152 0.0000 ( 62165 PWs)   bands (ev):

   -66.0224 -66.0222 -66.0214 -66.0213 -66.0211 -66.0211 -66.0203 -66.0201
   -30.4518 -30.4484 -30.4482 -30.4450 -30.4222 -30.4189 -30.4186 -30.4155
   -30.3631 -30.3623 -30.3604 -30.3591 -30.3572 -30.3565 -30.3557 -30.3545
   -30.2615 -30.2606 -30.2602 -30.2591 -30.2574 -30.2566 -30.2554 -30.2545
   -20.1728 -20.1726 -20.1725 -20.1723 -20.1709 -20.1709 -20.1707 -20.1706
   -20.1704 -20.1703 -20.1703 -20.1702 -20.1697 -20.1695 -20.1694 -20.1692
   -20.1615 -20.1612 -20.1612 -20.1611 -20.1608 -20.1607 -20.1607 -20.1606
   -20.1586 -20.1585 -20.1584 -20.1583 -20.1580 -20.1579 -20.1579 -20.1576
   -20.1469 -20.1469 -20.1466 -20.1465 -20.1464 -20.1464 -20.1461 -20.1460
   -20.1197 -20.1197 -20.1192 -20.1192 -20.1182 -20.1182 -20.1177 -20.1177
   -20.1135 -20.1135 -20.1131 -20.1131 -20.1121 -20.1121 -20.1117 -20.1117
    -9.8044  -9.6629  -9.3436  -9.3426  -9.2130  -9.2108  -8.9846  -8.9784
    -8.7768  -8.6609  -8.6512  -8.6507  -8.1756  -8.1292  -8.1278  -8.1037
    -7.7182  -7.7178  -7.7046  -7.7042  -7.5631  -7.5620  -7.5523  -7.5512
     1.2808   1.2809   1.3674   1.3704   1.3720   1.3756   1.6761   1.7124
     2.4004   2.4663   2.5042   2.5477   2.5523   2.7190   2.8859   2.8921
     3.0198   3.0280   3.6586   3.6681   3.7033   3.7129   4.1687   4.4901
     4.4974   4.7688   4.9124   4.9256   4.9383   4.9513   5.0681   5.0734
     5.0907   5.0963   5.4072   5.4113   5.6142   5.6149   5.7231   5.7278
     5.8810   5.8831   5.9307   5.9364   6.0817   6.0823   6.1089   6.1950
     6.1977   6.2546   6.2678   6.5560   6.6855   6.6898   6.8997   6.9027
     6.9482   7.0170   7.1098   7.1098   7.1301   7.1326   7.4598   7.4632
     7.4865   7.4900   7.8281   7.8341   7.8559   7.8568   7.8827   7.8870
     9.3786   9.3819  10.7172  10.7229  10.7630  10.7649  11.8496  11.8630
    11.9878  11.9927  12.3791  12.3883  12.4019  12.4091  12.9426  12.9583
    13.4435  13.4532  13.5298  13.5367  13.8865  13.8883  13.9081  13.9187
    14.8010  15.2850  15.2890  15.5287  15.5343  15.6732  15.9759  15.9893
    15.9929  16.9294  17.2697  17.6902  17.6979

          k = 0.0000 0.3152 0.1666 ( 62208 PWs)   bands (ev):

   -66.0223 -66.0221 -66.0214 -66.0213 -66.0212 -66.0211 -66.0204 -66.0202
   -30.4517 -30.4487 -30.4482 -30.4453 -30.4221 -30.4192 -30.4186 -30.4158
   -30.3615 -30.3599 -30.3568 -30.3552 -30.3548 -30.3541 -30.3504 -30.3490
   -30.2683 -30.2670 -30.2639 -30.2626 -30.2603 -30.2588 -30.2564 -30.2550
   -20.1728 -20.1726 -20.1726 -20.1723 -20.1709 -20.1708 -20.1707 -20.1706
   -20.1704 -20.1703 -20.1703 -20.1702 -20.1697 -20.1695 -20.1694 -20.1692
   -20.1615 -20.1612 -20.1610 -20.1610 -20.1607 -20.1607 -20.1605 -20.1604
   -20.1586 -20.1586 -20.1585 -20.1585 -20.1581 -20.1580 -20.1579 -20.1578
   -20.1469 -20.1468 -20.1466 -20.1465 -20.1464 -20.1464 -20.1461 -20.1460
   -20.1193 -20.1193 -20.1191 -20.1191 -20.1178 -20.1178 -20.1178 -20.1178
   -20.1140 -20.1139 -20.1130 -20.1130 -20.1125 -20.1125 -20.1118 -20.1118
    -9.7541  -9.6091  -9.3599  -9.2687  -9.2264  -9.1244  -8.9442  -8.9370
    -8.7850  -8.6558  -8.6541  -8.6341  -8.1758  -8.1367  -8.1246  -8.1096
    -7.8390  -7.8265  -7.7057  -7.6965  -7.6898  -7.6816  -7.5719  -7.5610
     1.3699   1.3713   1.3781   1.3821   1.6181   1.6266   1.8339   1.8820
     2.4029   2.5263   2.5487   2.5580   2.5950   2.7093   2.8943   2.9950
     3.0124   3.1240   3.6703   3.7015   3.7032   3.7468   4.1602   4.4536
     4.4875   4.5067   4.5650   4.7728   4.7979   4.9060   4.9766   4.9884
     5.0660   5.1094   5.2038   5.3310   5.4489   5.5013   5.6216   5.6545
     5.7124   5.8199   5.8218   5.8626   6.0725   6.1495   6.1611   6.1917
     6.2874   6.4627   6.4725   6.6160   6.6757   6.8818   6.9198   6.9605
     6.9966   7.0117   7.0951   7.1060   7.1136   7.1379   7.2244   7.2290
     7.3119   7.3297   7.8202   7.8373   7.8388   7.8599   7.8740   7.8747
     9.7321   9.7455  10.7275  10.7658  10.9006  10.9315  11.8611  11.9468
    11.9944  12.0645  12.2919  12.3087  12.4377  12.4681  12.9740  12.9954
    13.2600  13.4132  13.4369  13.5255  13.7389  13.7903  13.8860  13.9047
    14.9385  15.2798  15.4907  15.5502  15.5913  15.7404  15.9669  16.1398
    16.2841  16.8922  17.3360  17.3546  17.7413

          k = 0.0000 0.3152 0.3332 ( 62235 PWs)   bands (ev):

   -66.0221 -66.0219 -66.0216 -66.0214 -66.0211 -66.0209 -66.0206 -66.0204
   -30.4512 -30.4495 -30.4478 -30.4460 -30.4217 -30.4199 -30.4182 -30.4165
   -30.3605 -30.3586 -30.3578 -30.3558 -30.3371 -30.3357 -30.3320 -30.3307
   -30.2868 -30.2855 -30.2822 -30.2809 -30.2595 -30.2580 -30.2572 -30.2558
   -20.1728 -20.1727 -20.1726 -20.1724 -20.1709 -20.1708 -20.1708 -20.1707
   -20.1704 -20.1703 -20.1702 -20.1702 -20.1697 -20.1696 -20.1693 -20.1693
   -20.1614 -20.1613 -20.1609 -20.1607 -20.1605 -20.1603 -20.1600 -20.1599
   -20.1591 -20.1590 -20.1589 -20.1585 -20.1584 -20.1581 -20.1580 -20.1579
   -20.1468 -20.1468 -20.1466 -20.1466 -20.1463 -20.1463 -20.1461 -20.1461
   -20.1189 -20.1188 -20.1182 -20.1182 -20.1181 -20.1181 -20.1168 -20.1167
   -20.1151 -20.1151 -20.1137 -20.1137 -20.1128 -20.1128 -20.1120 -20.1120
    -9.6325  -9.4824  -9.4128  -9.2741  -9.0789  -8.8734  -8.8239  -8.8138
    -8.7938  -8.6703  -8.6214  -8.5628  -8.2160  -8.2075  -8.1359  -8.1291
    -8.1158  -8.0676  -8.0118  -7.9704  -7.6761  -7.6645  -7.5993  -7.5881
     1.3941   1.3991   1.4203   1.4258   2.2301   2.3104   2.3374   2.4239
     2.5232   2.5478   2.5553   2.7821   2.8336   2.8552   2.9167   3.0006
     3.2413   3.3374   3.6557   3.6724   3.7565   3.7976   3.8895   3.9009
     4.1407   4.3310   4.4177   4.4444   4.5164   4.6136   4.6701   4.8339
     4.8401   4.8657   5.0235   5.0929   5.2207   5.2423   5.2450   5.4059
     5.4137   5.6291   5.6688   5.8210   6.1726   6.2393   6.2620   6.2996
     6.4632   6.6353   6.6763   6.7130   6.7365   6.8415   6.8630   6.8796
     6.9451   6.9947   7.0606   7.0865   7.0996   7.1675   7.1965   7.2113
     7.3183   7.3643   7.7476   7.7637   7.7978   7.8063   7.8545   7.8737
    10.4575  10.4784  10.7419  10.7691  11.3574  11.4072  11.8356  11.9168
    11.9324  12.0259  12.2429  12.2859  12.5984  12.6686  12.6902  12.7664
    12.9095  13.1934  13.2159  13.4350  13.5201  13.5549  13.8869  13.8995
    15.1240  15.2521  15.6358  15.8901  15.9423  16.0008  16.0609  16.6543
    16.7641  16.8102  17.0797  17.5601  17.6611

          k = 0.0000 0.3152-0.4998 ( 62270 PWs)   bands (ev):

   -66.0219 -66.0219 -66.0217 -66.0216 -66.0208 -66.0208 -66.0206 -66.0206
   -30.4504 -30.4504 -30.4470 -30.4470 -30.4209 -30.4209 -30.4175 -30.4175
   -30.3592 -30.3592 -30.3572 -30.3572 -30.3120 -30.3119 -30.3106 -30.3106
   -30.3071 -30.3071 -30.3058 -30.3058 -30.2584 -30.2583 -30.2569 -30.2569
   -20.1728 -20.1727 -20.1725 -20.1725 -20.1708 -20.1708 -20.1708 -20.1708
   -20.1704 -20.1704 -20.1702 -20.1702 -20.1696 -20.1696 -20.1693 -20.1693
   -20.1613 -20.1613 -20.1608 -20.1608 -20.1598 -20.1598 -20.1596 -20.1596
   -20.1594 -20.1594 -20.1592 -20.1592 -20.1583 -20.1583 -20.1579 -20.1579
   -20.1467 -20.1467 -20.1467 -20.1466 -20.1462 -20.1462 -20.1462 -20.1462
   -20.1185 -20.1185 -20.1185 -20.1185 -20.1167 -20.1167 -20.1167 -20.1167
   -20.1153 -20.1152 -20.1152 -20.1152 -20.1124 -20.1124 -20.1124 -20.1124
    -9.5049  -9.5049  -9.3583  -9.3583  -8.8989  -8.8988  -8.7055  -8.7055
    -8.5256  -8.5256  -8.5097  -8.5096  -8.4580  -8.4580  -8.3574  -8.3574
    -8.1284  -8.1284  -8.0861  -8.0861  -7.6372  -7.6372  -7.6258  -7.6258
     1.4132   1.4132   1.4192   1.4192   2.4040   2.4040   2.5429   2.5429
     2.9354   2.9354   3.0902   3.0902   3.1379   3.1379   3.3182   3.3182
     3.3788   3.3788   3.3890   3.3890   3.4691   3.4692   3.6737   3.6737
     4.1074   4.1075   4.1362   4.1362   4.1608   4.1608   4.3904   4.3904
     4.8383   4.8383   4.9487   4.9487   5.1512   5.1512   5.3321   5.3322
     5.4791   5.4791   5.7451   5.7452   6.3336   6.3336   6.3980   6.3981
     6.5067   6.5067   6.5519   6.5519   6.5917   6.5918   6.7968   6.7968
     7.0685   7.0685   7.0811   7.0811   7.1212   7.1212   7.5421   7.5421
     7.5725   7.5725   7.5902   7.5902   7.6295   7.6295   7.8635   7.8635
    10.7462  10.7462  11.2380  11.2380  11.2836  11.2836  11.7648  11.7648
    12.0848  12.0848  12.2144  12.2144  12.6044  12.6044  12.7059  12.7059
    12.8860  12.8860  13.0332  13.0332  13.5159  13.5159  13.8924  13.8925
    15.2032  15.2032  15.7695  15.7695  16.3034  16.3034  16.4918  16.4918
    16.8981  16.8981  17.2561  17.2561  17.9702

          k = 0.0000-0.4729 0.0000 ( 62140 PWs)   bands (ev):

   -66.0223 -66.0223 -66.0213 -66.0213 -66.0212 -66.0212 -66.0202 -66.0202
   -30.4370 -30.4370 -30.4337 -30.4336 -30.4334 -30.4334 -30.4303 -30.4303
   -30.3625 -30.3625 -30.3600 -30.3600 -30.3565 -30.3565 -30.3555 -30.3555
   -30.2609 -30.2609 -30.2599 -30.2598 -30.2569 -30.2569 -30.2551 -30.2551
   -20.1717 -20.1717 -20.1715 -20.1715 -20.1713 -20.1713 -20.1712 -20.1712
   -20.1703 -20.1703 -20.1702 -20.1702 -20.1701 -20.1701 -20.1700 -20.1700
   -20.1612 -20.1612 -20.1609 -20.1609 -20.1609 -20.1608 -20.1608 -20.1608
   -20.1583 -20.1583 -20.1583 -20.1583 -20.1582 -20.1582 -20.1579 -20.1579
   -20.1469 -20.1469 -20.1466 -20.1465 -20.1464 -20.1464 -20.1460 -20.1460
   -20.1197 -20.1197 -20.1192 -20.1192 -20.1182 -20.1182 -20.1177 -20.1177
   -20.1135 -20.1135 -20.1131 -20.1131 -20.1121 -20.1121 -20.1117 -20.1117
    -9.7245  -9.7245  -9.2632  -9.2631  -9.2614  -9.2614  -8.9815  -8.9815
    -8.4791  -8.4791  -8.4207  -8.4207  -8.4197  -8.4197  -8.4190  -8.4190
    -7.7130  -7.7130  -7.7096  -7.7096  -7.5577  -7.5577  -7.5567  -7.5567
     1.2808   1.2808   1.3697   1.3697   1.3747   1.3747   1.7038   1.7039
     2.4851   2.4851   3.1841   3.1841   3.2252   3.2252   3.3011   3.3011
     3.3098   3.3099   3.3180   3.3180   3.5028   3.5028   3.5140   3.5140
     3.7019   3.7019   4.9232   4.9232   4.9353   4.9353   5.2336   5.2336
     5.2479   5.2479   5.3384   5.3384   5.3441   5.3441   5.7849   5.7849
     5.7896   5.7896   6.0401   6.0401   6.0507   6.0507   6.2150   6.2150
     6.2254   6.2254   6.3092   6.3092   6.7797   6.7797   6.7836   6.7836
     6.9837   6.9837   7.4428   7.4428   7.4453   7.4453   7.4852   7.4852
     7.4867   7.4867   7.5756   7.5756   7.5776   7.5777   7.8416   7.8416
     9.3803   9.3803  11.3003  11.3003  11.3110  11.3110  11.3872  11.3872
    11.4001  11.4001  12.3941  12.3941  12.4024  12.4024  12.9522  12.9522
    13.6297  13.6297  13.6458  13.6458  13.6841  13.6841  13.6917  13.6917
    15.3798  15.3798  15.5311  15.5311  15.7427  15.7427  15.7446  15.7446
    16.5689  16.5689  17.9601  17.9601  18.1473

          k = 0.0000-0.4729 0.1666 ( 62210 PWs)   bands (ev):

   -66.0222 -66.0222 -66.0213 -66.0213 -66.0212 -66.0212 -66.0203 -66.0203
   -30.4369 -30.4369 -30.4339 -30.4339 -30.4334 -30.4334 -30.4306 -30.4306
   -30.3607 -30.3607 -30.3559 -30.3559 -30.3548 -30.3548 -30.3497 -30.3497
   -30.2677 -30.2677 -30.2633 -30.2633 -30.2596 -30.2595 -30.2557 -30.2557
   -20.1717 -20.1716 -20.1715 -20.1715 -20.1714 -20.1713 -20.1712 -20.1712
   -20.1703 -20.1703 -20.1702 -20.1702 -20.1701 -20.1701 -20.1700 -20.1700
   -20.1612 -20.1612 -20.1610 -20.1609 -20.1607 -20.1607 -20.1606 -20.1606
   -20.1585 -20.1585 -20.1583 -20.1583 -20.1583 -20.1583 -20.1580 -20.1580
   -20.1469 -20.1469 -20.1466 -20.1466 -20.1464 -20.1464 -20.1461 -20.1461
   -20.1193 -20.1193 -20.1191 -20.1191 -20.1178 -20.1178 -20.1178 -20.1178
   -20.1140 -20.1139 -20.1130 -20.1130 -20.1125 -20.1125 -20.1118 -20.1118
    -9.6717  -9.6717  -9.2780  -9.2780  -9.1784  -9.1784  -8.9405  -8.9405
    -8.4848  -8.4847  -8.4264  -8.4264  -8.4180  -8.4179  -8.4127  -8.4127
    -7.8330  -7.8330  -7.7004  -7.7004  -7.6866  -7.6866  -7.5665  -7.5665
     1.3709   1.3709   1.3810   1.3810   1.6246   1.6246   1.8716   1.8716
     2.5753   2.5753   3.1963   3.1963   3.2303   3.2303   3.2951   3.2951
     3.3149   3.3149   3.3556   3.3556   3.5090   3.5090   3.5573   3.5573
     3.7309   3.7309   4.5138   4.5138   4.9684   4.9684   5.0053   5.0053
     5.1585   5.1585   5.2227   5.2227   5.3549   5.3549   5.5247   5.5247
     5.7610   5.7610   5.8258   5.8258   6.1545   6.1545   6.1761   6.1761
     6.4264   6.4264   6.4706   6.4706   6.7686   6.7686   6.9515   6.9516
     7.0426   7.0426   7.2198   7.2198   7.2684   7.2684   7.4729   7.4729
     7.4940   7.4940   7.5326   7.5327   7.5542   7.5542   7.8566   7.8566
     9.7402   9.7402  11.3154  11.3154  11.3908  11.3908  11.4311  11.4311
    11.5121  11.5121  12.3014  12.3014  12.4535  12.4535  12.9892  12.9892
    13.4551  13.4551  13.5494  13.5494  13.6563  13.6563  13.6805  13.6805
    15.4514  15.4515  15.6518  15.6518  15.7265  15.7265  16.0099  16.0099
    16.6312  16.6312  17.8876  17.8876  18.0045

          k = 0.0000-0.4729 0.3332 ( 62236 PWs)   bands (ev):

   -66.0220 -66.0220 -66.0215 -66.0215 -66.0210 -66.0210 -66.0205 -66.0205
   -30.4365 -30.4364 -30.4347 -30.4347 -30.4330 -30.4330 -30.4313 -30.4313
   -30.3596 -30.3596 -30.3569 -30.3569 -30.3364 -30.3364 -30.3314 -30.3314
   -30.2861 -30.2861 -30.2815 -30.2815 -30.2588 -30.2587 -30.2565 -30.2565
   -20.1716 -20.1716 -20.1715 -20.1715 -20.1714 -20.1714 -20.1713 -20.1713
   -20.1703 -20.1703 -20.1702 -20.1702 -20.1701 -20.1701 -20.1700 -20.1700
   -20.1611 -20.1611 -20.1610 -20.1610 -20.1603 -20.1602 -20.1601 -20.1601
   -20.1589 -20.1589 -20.1587 -20.1587 -20.1582 -20.1582 -20.1581 -20.1581
   -20.1468 -20.1468 -20.1466 -20.1466 -20.1463 -20.1463 -20.1461 -20.1461
   -20.1189 -20.1188 -20.1182 -20.1182 -20.1181 -20.1181 -20.1168 -20.1167
   -20.1151 -20.1151 -20.1137 -20.1137 -20.1128 -20.1128 -20.1120 -20.1120
    -9.5458  -9.5458  -9.3287  -9.3287  -8.9449  -8.9448  -8.8031  -8.8031
    -8.5171  -8.5170  -8.4502  -8.4502  -8.4088  -8.4088  -8.3851  -8.3851
    -8.1236  -8.1236  -8.0008  -8.0008  -7.6704  -7.6704  -7.5938  -7.5937
     1.3978   1.3978   1.4243   1.4243   2.2994   2.2994   2.5023   2.5023
     2.8367   2.8367   3.2092   3.2093   3.2460   3.2460   3.2840   3.2840
     3.3041   3.3041   3.4354   3.4354   3.4998   3.4998   3.7136   3.7137
     3.7970   3.7970   3.8881   3.8881   4.5164   4.5165   4.6840   4.6840
     4.8233   4.8233   4.8946   4.8946   5.2629   5.2629   5.2836   5.2836
     5.4071   5.4072   5.6887   5.6887   6.2372   6.2372   6.2998   6.2998
     6.5667   6.5667   6.7193   6.7193   6.7550   6.7550   6.9007   6.9007
     7.0501   7.0501   7.2167   7.2167   7.2207   7.2207   7.4540   7.4540
     7.4902   7.4903   7.5156   7.5156   7.5281   7.5282   7.8129   7.8129
    10.4737  10.4737  11.3288  11.3288  11.3730  11.3730  11.8106  11.8106
    11.8571  11.8571  11.9265  11.9265  12.6221  12.6221  12.8048  12.8048
    12.9888  12.9889  13.2677  13.2677  13.6556  13.6556  13.6746  13.6746
    15.4869  15.4869  15.6668  15.6668  16.2401  16.2401  16.7158  16.7158
    16.8503  16.8503  17.3756  17.3757  17.9367

          k = 0.0000-0.4729-0.4998 ( 62228 PWs)   bands (ev):

   -66.0218 -66.0218 -66.0218 -66.0217 -66.0207 -66.0207 -66.0207 -66.0207
   -30.4357 -30.4356 -30.4356 -30.4356 -30.4323 -30.4322 -30.4322 -30.4322
   -30.3582 -30.3582 -30.3582 -30.3582 -30.3113 -30.3113 -30.3113 -30.3113
   -30.3065 -30.3064 -30.3064 -30.3064 -30.2577 -30.2577 -30.2576 -30.2576
   -20.1716 -20.1715 -20.1715 -20.1715 -20.1714 -20.1714 -20.1714 -20.1714
   -20.1703 -20.1703 -20.1703 -20.1702 -20.1701 -20.1700 -20.1700 -20.1700
   -20.1611 -20.1610 -20.1610 -20.1610 -20.1596 -20.1596 -20.1596 -20.1596
   -20.1594 -20.1594 -20.1594 -20.1594 -20.1582 -20.1582 -20.1582 -20.1582
   -20.1467 -20.1467 -20.1467 -20.1467 -20.1462 -20.1462 -20.1462 -20.1462
   -20.1185 -20.1185 -20.1185 -20.1185 -20.1167 -20.1167 -20.1167 -20.1167
   -20.1153 -20.1152 -20.1152 -20.1152 -20.1124 -20.1124 -20.1124 -20.1124
    -9.4180  -9.4180  -9.4180  -9.4180  -8.6579  -8.6579  -8.6579  -8.6579
    -8.5726  -8.5726  -8.5726  -8.5725  -8.3617  -8.3616  -8.3616  -8.3616
    -8.2868  -8.2868  -8.2868  -8.2868  -7.6316  -7.6316  -7.6316  -7.6316
     1.4176   1.4176   1.4176   1.4177   3.0532   3.0532   3.0532   3.0532
     3.1835   3.1835   3.1835   3.1835   3.2690   3.2690   3.2690   3.2690
     3.3281   3.3281   3.3281   3.3281   3.5023   3.5023   3.5023   3.5023
     3.6574   3.6574   3.6574   3.6574   4.3382   4.3383   4.3383   4.3383
     4.4515   4.4515   4.4515   4.4515   5.2602   5.2602   5.2603   5.2603
     5.5488   5.5488   5.5488   5.5489   6.3878   6.3878   6.3878   6.3878
     6.5571   6.5571   6.5571   6.5572   6.6844   6.6844   6.6844   6.6844
     7.3155   7.3155   7.3155   7.3155   7.3984   7.3984   7.3984   7.3985
     7.4920   7.4920   7.4920   7.4920   7.6214   7.6214   7.6215   7.6215
    11.2321  11.2321  11.2321  11.2321  11.3793  11.3793  11.3794  11.3794
    12.3411  12.3412  12.3412  12.3412  12.3807  12.3807  12.3808  12.3808
    12.9245  12.9245  12.9245  12.9245  13.6636  13.6636  13.6636  13.6636
    15.5753  15.5753  15.5753  15.5753  16.8678  16.8678  16.8678  16.8678
    17.3793  17.3793  17.3794  17.3794  17.5163

          k = 0.1667 0.0000 0.0000 ( 62212 PWs)   bands (ev):

   -66.0224 -66.0220 -66.0215 -66.0214 -66.0211 -66.0210 -66.0205 -66.0201
   -30.4665 -30.4633 -30.4630 -30.4599 -30.4074 -30.4041 -30.4041 -30.4010
   -30.3631 -30.3600 -30.3582 -30.3557 -30.3553 -30.3517 -30.3504 -30.3467
   -30.2681 -30.2652 -30.2637 -30.2619 -30.2611 -30.2592 -30.2578 -30.2554
   -20.1741 -20.1739 -20.1738 -20.1736 -20.1708 -20.1707 -20.1706 -20.1705
   -20.1705 -20.1703 -20.1703 -20.1702 -20.1685 -20.1683 -20.1682 -20.1680
   -20.1616 -20.1615 -20.1613 -20.1613 -20.1605 -20.1603 -20.1603 -20.1602
   -20.1590 -20.1588 -20.1586 -20.1586 -20.1580 -20.1578 -20.1576 -20.1574
   -20.1469 -20.1468 -20.1465 -20.1465 -20.1465 -20.1464 -20.1461 -20.1460
   -20.1196 -20.1196 -20.1188 -20.1188 -20.1183 -20.1183 -20.1174 -20.1173
   -20.1136 -20.1136 -20.1134 -20.1134 -20.1122 -20.1122 -20.1121 -20.1121
    -9.8605  -9.5613  -9.4853  -9.4095  -9.1948  -9.0879  -9.0673  -8.9496
    -8.9333  -8.8345  -8.8184  -8.7800  -7.8575  -7.8298  -7.8256  -7.7824
    -7.7736  -7.7301  -7.7139  -7.6936  -7.6897  -7.6775  -7.5784  -7.5564
     1.3511   1.3519   1.3685   1.3773   1.4842   1.5228   1.6322   1.6564
     1.6571   1.7533   1.8897   2.0411   2.5342   2.6149   2.6153   2.6922
     2.7494   2.8444   4.1133   4.1837   4.3923   4.4205   4.4342   4.5390
     4.6984   4.8187   4.8561   4.9719   4.9836   5.0538   5.0839   5.3491
     5.4001   5.4410   5.5426   5.5595   5.5820   5.6255   5.6546   5.6829
     5.7805   5.7909   5.8273   5.9633   6.0049   6.1397   6.1471   6.1711
     6.3157   6.4550   6.5181   6.5892   6.7000   6.7247   6.7957   6.8532
     6.8604   6.9032   7.0049   7.0455   7.0462   7.1209   7.2303   7.2316
     7.2601   7.3207   7.8509   7.8535   8.0543   8.1184   8.1193   8.1712
     9.7159   9.7522  10.0683  10.1014  10.3230  10.3798  12.2760  12.2939
    12.3361  12.3754  12.4276  12.4468  12.5719  12.6722  12.9575  12.9702
    13.1549  13.2783  13.3639  13.4736  13.9272  14.0687  14.1430  14.2174
    14.2238  14.4259  14.5743  14.9921  15.5004  15.5579  15.5851  16.1102
    16.4501  16.8224  17.0391  17.2982  17.5053

          k = 0.1667 0.0000 0.1666 ( 62206 PWs)   bands (ev):

   -66.0223 -66.0219 -66.0215 -66.0214 -66.0210 -66.0210 -66.0206 -66.0202
   -30.4664 -30.4633 -30.4632 -30.4602 -30.4073 -30.4044 -30.4041 -30.4013
   -30.3566 -30.3557 -30.3530 -30.3522 -30.3511 -30.3500 -30.3485 -30.3471
   -30.2687 -30.2679 -30.2661 -30.2650 -30.2649 -30.2639 -30.2620 -30.2608
   -20.1741 -20.1739 -20.1739 -20.1737 -20.1708 -20.1707 -20.1706 -20.1705
   -20.1704 -20.1703 -20.1703 -20.1702 -20.1685 -20.1683 -20.1682 -20.1680
   -20.1616 -20.1614 -20.1612 -20.1611 -20.1604 -20.1603 -20.1603 -20.1600
   -20.1591 -20.1589 -20.1588 -20.1587 -20.1580 -20.1578 -20.1578 -20.1575
   -20.1469 -20.1468 -20.1466 -20.1465 -20.1464 -20.1463 -20.1461 -20.1460
   -20.1192 -20.1192 -20.1187 -20.1187 -20.1179 -20.1179 -20.1175 -20.1174
   -20.1139 -20.1139 -20.1135 -20.1135 -20.1126 -20.1126 -20.1122 -20.1122
    -9.8121  -9.5022  -9.4263  -9.4263  -9.1055  -9.1030  -9.0762  -8.9095
    -8.8967  -8.8254  -8.7859  -8.7851  -7.8568  -7.8356  -7.8205  -7.8193
    -7.8185  -7.7762  -7.7729  -7.7335  -7.7263  -7.7107  -7.6842  -7.6641
     1.4738   1.5160   1.5169   1.5399   1.5410   1.6346   1.6391   1.6490
     1.7502   1.7551   1.9731   2.1191   2.6233   2.7010   2.7031   2.7119
     2.8218   2.8565   4.1149   4.1212   4.3670   4.3706   4.5199   4.5203
     4.6015   4.6018   4.7229   4.7270   4.7844   4.8534   5.0698   5.2869
     5.3276   5.3632   5.4109   5.5089   5.5160   5.6630   5.6674   5.7169
     5.7191   5.7543   5.8007   5.8035   5.8124   6.0133   6.3562   6.4737
     6.4896   6.5380   6.5761   6.6654   6.7109   6.7144   6.7152   6.7482
     6.7934   6.8906   6.8996   6.9106   6.9371   7.0215   7.0235   7.1441
     7.3563   7.4195   7.8526   7.8536   8.0562   8.1050   8.1199   8.1288
     9.9396  10.0113  10.3228  10.3283  10.3432  10.4357  12.3106  12.3262
    12.3400  12.3466  12.3812  12.4217  12.6587  12.6646  12.9874  12.9987
    13.0988  13.1606  13.2628  13.4241  13.9909  14.0387  14.0751  14.1207
    14.1802  14.5440  14.5658  15.1105  15.4671  15.6370  15.6523  16.4100
    16.4157  16.9896  16.9938  17.1798  17.5540

          k = 0.1667 0.0000 0.3332 ( 62227 PWs)   bands (ev):

   -66.0221 -66.0217 -66.0216 -66.0213 -66.0212 -66.0209 -66.0208 -66.0204
   -30.4659 -30.4641 -30.4628 -30.4610 -30.4069 -30.4051 -30.4038 -30.4020
   -30.3546 -30.3520 -30.3509 -30.3481 -30.3372 -30.3346 -30.3329 -30.3303
   -30.2871 -30.2845 -30.2832 -30.2805 -30.2669 -30.2647 -30.2640 -30.2618
   -20.1741 -20.1739 -20.1739 -20.1737 -20.1707 -20.1707 -20.1706 -20.1706
   -20.1704 -20.1704 -20.1703 -20.1702 -20.1685 -20.1684 -20.1682 -20.1681
   -20.1615 -20.1614 -20.1608 -20.1607 -20.1603 -20.1601 -20.1600 -20.1596
   -20.1594 -20.1592 -20.1592 -20.1586 -20.1583 -20.1580 -20.1579 -20.1578
   -20.1468 -20.1467 -20.1466 -20.1465 -20.1464 -20.1463 -20.1462 -20.1461
   -20.1185 -20.1185 -20.1181 -20.1181 -20.1177 -20.1177 -20.1168 -20.1168
   -20.1150 -20.1150 -20.1138 -20.1138 -20.1132 -20.1132 -20.1125 -20.1125
    -9.6945  -9.4782  -9.3633  -9.2902  -9.1490  -9.1062  -8.8515  -8.8409
    -8.7986  -8.7639  -8.7347  -8.6621  -8.1329  -8.1328  -8.0555  -8.0320
    -7.8236  -7.8055  -7.7950  -7.7725  -7.7667  -7.7431  -7.7241  -7.7071
     1.4842   1.5046   1.5945   1.6312   1.6570   1.6776   1.7369   1.7623
     2.3238   2.3567   2.5037   2.5870   2.7251   2.8150   2.8948   2.9441
     2.9988   3.0943   3.8463   3.8907   3.9768   3.9771   4.2023   4.3333
     4.3513   4.5423   4.5568   4.6021   4.6580   4.7833   4.8186   4.9640
     5.0304   5.0910   5.1364   5.2523   5.3340   5.4002   5.5709   5.7007
     5.7093   5.7726   5.8121   5.8233   5.8517   6.0253   6.2021   6.2578
     6.4593   6.4709   6.5125   6.6025   6.6197   6.6852   6.6867   6.7185
     6.8289   6.9055   6.9161   6.9342   7.1667   7.1862   7.2181   7.2838
     7.3683   7.4125   7.8051   7.8206   7.9546   7.9937   8.1128   8.1226
    10.3176  10.3265  10.5831  10.6455  10.9446  11.0693  11.9488  11.9926
    12.1928  12.4678  12.4917  12.5753  12.6006  12.6648  12.8162  12.9133
    12.9385  13.0897  13.1380  13.3536  13.7277  13.7432  14.0386  14.0680
    14.3458  14.5376  14.8518  15.3601  15.4228  15.8855  16.0486  16.3193
    16.4153  17.2478  17.4368  17.5376  17.6238

          k = 0.1667 0.0000-0.4998 ( 62278 PWs)   bands (ev):

   -66.0219 -66.0219 -66.0215 -66.0215 -66.0210 -66.0210 -66.0206 -66.0206
   -30.4651 -30.4651 -30.4620 -30.4620 -30.4061 -30.4061 -30.4030 -30.4029
   -30.3532 -30.3532 -30.3494 -30.3494 -30.3122 -30.3122 -30.3096 -30.3096
   -30.3081 -30.3081 -30.3054 -30.3054 -30.2658 -30.2658 -30.2629 -30.2629
   -20.1740 -20.1740 -20.1738 -20.1738 -20.1707 -20.1707 -20.1706 -20.1706
   -20.1704 -20.1704 -20.1703 -20.1703 -20.1684 -20.1684 -20.1681 -20.1681
   -20.1614 -20.1614 -20.1605 -20.1605 -20.1600 -20.1600 -20.1598 -20.1597
   -20.1595 -20.1595 -20.1589 -20.1589 -20.1584 -20.1584 -20.1578 -20.1578
   -20.1467 -20.1467 -20.1466 -20.1466 -20.1463 -20.1463 -20.1462 -20.1462
   -20.1181 -20.1181 -20.1181 -20.1181 -20.1166 -20.1166 -20.1166 -20.1166
   -20.1154 -20.1153 -20.1153 -20.1153 -20.1128 -20.1128 -20.1128 -20.1128
    -9.5695  -9.5694  -9.2325  -9.2325  -9.1710  -9.1709  -8.8172  -8.8172
    -8.5045  -8.5045  -8.4997  -8.4997  -8.4442  -8.4442  -8.3879  -8.3878
    -7.8112  -7.8112  -7.7634  -7.7633  -7.7538  -7.7538  -7.7419  -7.7419
     1.4925   1.4926   1.6134   1.6134   1.6779   1.6779   1.7688   1.7688
     2.7520   2.7520   3.0375   3.0375   3.1263   3.1263   3.2476   3.2476
     3.3562   3.3562   3.4621   3.4621   3.5772   3.5773   3.8403   3.8403
     3.9246   3.9246   4.4551   4.4551   4.5726   4.5726   4.9175   4.9175
     5.0752   5.0752   5.0983   5.0983   5.2846   5.2846   5.6403   5.6403
     5.8106   5.8106   5.8366   5.8366   5.9429   5.9429   5.9914   5.9914
     6.3818   6.3818   6.4660   6.4660   6.6842   6.6842   6.7562   6.7562
     6.8576   6.8576   7.0063   7.0063   7.0676   7.0676   7.5746   7.5746
     7.6201   7.6201   7.7300   7.7300   7.7500   7.7500   8.1222   8.1222
    10.3351  10.3351  11.2946  11.2946  11.3689  11.3689  11.6469  11.6469
    11.8552  11.8552  12.6799  12.6799  12.6957  12.6957  12.7622  12.7622
    12.9710  12.9710  13.3069  13.3069  13.4217  13.4217  14.0517  14.0517
    14.4767  14.4767  15.1585  15.1585  15.8672  15.8672  16.1461  16.1461
    16.8008  16.8008  17.8373  17.8382  17.8884

          k = 0.1667 0.1576 0.0000 ( 62207 PWs)   bands (ev):

   -66.0224 -66.0220 -66.0215 -66.0214 -66.0211 -66.0210 -66.0205 -66.0201
   -30.4625 -30.4594 -30.4591 -30.4560 -30.4113 -30.4081 -30.4080 -30.4049
   -30.3629 -30.3602 -30.3580 -30.3555 -30.3554 -30.3520 -30.3502 -30.3470
   -30.2679 -30.2654 -30.2635 -30.2617 -30.2612 -30.2594 -30.2576 -30.2556
   -20.1738 -20.1736 -20.1735 -20.1733 -20.1708 -20.1707 -20.1706 -20.1705
   -20.1705 -20.1703 -20.1703 -20.1702 -20.1688 -20.1686 -20.1685 -20.1683
   -20.1615 -20.1614 -20.1613 -20.1612 -20.1606 -20.1604 -20.1604 -20.1603
   -20.1590 -20.1588 -20.1586 -20.1585 -20.1580 -20.1579 -20.1577 -20.1574
   -20.1469 -20.1468 -20.1465 -20.1465 -20.1465 -20.1464 -20.1461 -20.1460
   -20.1196 -20.1196 -20.1188 -20.1188 -20.1183 -20.1183 -20.1174 -20.1173
   -20.1136 -20.1136 -20.1134 -20.1134 -20.1122 -20.1122 -20.1121 -20.1121
    -9.8296  -9.5730  -9.4475  -9.3666  -9.2027  -9.0958  -8.9936  -8.9477
    -8.9342  -8.7913  -8.7814  -8.7479  -7.9360  -7.8909  -7.8782  -7.8400
    -7.8396  -7.8152  -7.7126  -7.6934  -7.6916  -7.6761  -7.5769  -7.5580
     1.3633   1.3648   1.3687   1.3772   1.5899   1.6310   1.6505   1.8530
     1.8833   1.8934   1.9209   2.1453   2.5403   2.6096   2.6868   2.7659
     2.8183   2.9119   4.0114   4.0654   4.1249   4.1758   4.4553   4.5367
     4.7226   4.7467   4.8693   4.9059   4.9576   4.9821   5.0199   5.2695
     5.3166   5.3238   5.3626   5.5277   5.6172   5.6289   5.6646   5.7068
     5.7671   5.7946   5.8402   5.8769   5.9121   6.1505   6.1618   6.1836
     6.2596   6.4483   6.4935   6.6134   6.7400   6.7955   6.8214   6.8425
     6.8829   6.9167   6.9868   7.0027   7.0402   7.0620   7.2306   7.2310
     7.2751   7.3198   7.8529   7.8532   8.0161   8.0448   8.0636   8.0894
     9.7222   9.7507  10.2634  10.2709  10.4903  10.5191  12.1983  12.2836
    12.3117  12.3199  12.3970  12.4050  12.4205  12.5502  12.9690  12.9701
    13.1815  13.3080  13.3741  13.4760  13.9601  13.9890  14.1200  14.1320
    14.3325  14.7043  14.8597  15.1503  15.5575  15.5846  15.9005  16.0777
    16.4133  16.7019  16.9478  17.4091  17.5841

          k = 0.1667 0.1576 0.1666 ( 62215 PWs)   bands (ev):

   -66.0223 -66.0220 -66.0214 -66.0214 -66.0211 -66.0211 -66.0205 -66.0202
   -30.4624 -30.4594 -30.4593 -30.4563 -30.4112 -30.4083 -30.4080 -30.4052
   -30.3564 -30.3555 -30.3531 -30.3522 -30.3509 -30.3501 -30.3487 -30.3474
   -30.2685 -30.2677 -30.2663 -30.2652 -30.2648 -30.2638 -30.2621 -30.2610
   -20.1738 -20.1736 -20.1735 -20.1733 -20.1708 -20.1707 -20.1706 -20.1705
   -20.1704 -20.1703 -20.1703 -20.1702 -20.1688 -20.1686 -20.1685 -20.1683
   -20.1615 -20.1613 -20.1612 -20.1611 -20.1604 -20.1604 -20.1603 -20.1601
   -20.1590 -20.1588 -20.1587 -20.1586 -20.1580 -20.1579 -20.1579 -20.1576
   -20.1469 -20.1468 -20.1466 -20.1465 -20.1464 -20.1464 -20.1461 -20.1460
   -20.1192 -20.1192 -20.1187 -20.1187 -20.1179 -20.1179 -20.1175 -20.1174
   -20.1139 -20.1138 -20.1135 -20.1135 -20.1126 -20.1126 -20.1122 -20.1122
    -9.7796  -9.5141  -9.3840  -9.3837  -9.1135  -9.1111  -9.0026  -8.9087
    -8.8975  -8.7827  -8.7534  -8.7527  -7.9368  -7.8896  -7.8882  -7.8477
    -7.8326  -7.8293  -7.8065  -7.8058  -7.7262  -7.7065  -7.6835  -7.6657
     1.5391   1.5398   1.5911   1.5932   1.6344   1.6377   1.6671   1.8523
     1.9140   1.9178   1.9724   2.1988   2.6313   2.7062   2.7746   2.7768
     2.8938   2.9202   4.0180   4.0419   4.1529   4.1578   4.5085   4.5135
     4.6020   4.6057   4.7216   4.7278   4.7569   4.8056   4.8617   5.2341
     5.2570   5.2791   5.2954   5.3988   5.4105   5.6163   5.6238   5.6550
     5.7748   5.7813   5.7894   5.8183   5.8198   5.8718   6.3714   6.4120
     6.4177   6.5321   6.5716   6.6847   6.7164   6.7603   6.8059   6.8136
     6.8247   6.8597   6.9147   6.9203   6.9894   7.0019   7.0135   7.1500
     7.3606   7.4176   7.8529   7.8541   8.0041   8.0468   8.0515   8.0523
     9.9572  10.0097  10.4760  10.4921  10.4995  10.5671  12.2593  12.2949
    12.3311  12.3353  12.3381  12.3454  12.5219  12.5256  12.9887  13.0037
    13.1358  13.1823  13.2676  13.4280  13.9485  13.9601  13.9755  14.0362
    14.4417  14.8450  14.8535  15.2536  15.6380  15.6509  15.8690  16.3759
    16.3809  16.8265  17.0939  17.0982  17.6319

          k = 0.1667 0.1576 0.3332 ( 62229 PWs)   bands (ev):

   -66.0221 -66.0218 -66.0216 -66.0213 -66.0212 -66.0209 -66.0207 -66.0204
   -30.4619 -30.4601 -30.4588 -30.4571 -30.4108 -30.4091 -30.4077 -30.4060
   -30.3543 -30.3517 -30.3511 -30.3484 -30.3371 -30.3348 -30.3328 -30.3305
   -30.2870 -30.2847 -30.2830 -30.2807 -30.2667 -30.2645 -30.2642 -30.2620
   -20.1737 -20.1736 -20.1735 -20.1734 -20.1708 -20.1707 -20.1706 -20.1706
   -20.1704 -20.1704 -20.1703 -20.1702 -20.1688 -20.1687 -20.1685 -20.1684
   -20.1614 -20.1613 -20.1607 -20.1606 -20.1604 -20.1602 -20.1600 -20.1596
   -20.1593 -20.1591 -20.1591 -20.1586 -20.1583 -20.1580 -20.1579 -20.1579
   -20.1468 -20.1467 -20.1466 -20.1465 -20.1464 -20.1463 -20.1462 -20.1461
   -20.1185 -20.1185 -20.1181 -20.1181 -20.1177 -20.1177 -20.1168 -20.1168
   -20.1150 -20.1150 -20.1138 -20.1138 -20.1132 -20.1132 -20.1125 -20.1125
    -9.6584  -9.4366  -9.3749  -9.2343  -9.1578  -9.0332  -8.8600  -8.8205
    -8.7665  -8.7645  -8.7152  -8.6431  -8.1399  -8.1310  -8.0753  -8.0300
    -7.9047  -7.8891  -7.8672  -7.8385  -7.8003  -7.7794  -7.7251  -7.7071
     1.6008   1.6177   1.6565   1.6770   1.8010   1.8066   1.8864   1.9168
     2.3224   2.3675   2.5059   2.6018   2.7975   2.8746   2.9155   2.9961
     3.0188   3.1505   3.8446   3.8885   3.9352   3.9684   4.1459   4.2112
     4.2826   4.4052   4.5705   4.6218   4.6850   4.7381   4.7701   4.8119
     4.9223   4.9697   5.0126   5.1805   5.2449   5.2877   5.3476   5.6234
     5.6674   5.6759   5.7719   5.8244   5.8373   5.8469   6.2087   6.2576
     6.4070   6.5440   6.5657   6.6583   6.7202   6.7221   6.7544   6.8014
     6.8823   6.9070   6.9387   6.9739   7.1634   7.1781   7.2139   7.2880
     7.3591   7.4059   7.8063   7.8179   7.9083   7.9341   8.0472   8.0511
    10.4437  10.4867  10.6106  10.6590  11.0576  11.1555  11.9496  11.9889
    12.1684  12.4464  12.4953  12.5126  12.5248  12.6273  12.7527  12.7944
    12.9392  13.1145  13.1181  13.3528  13.6225  13.6473  13.9617  13.9881
    14.6577  14.8298  15.1993  15.5318  15.7687  15.8797  16.0576  16.2877
    16.5225  17.2066  17.2216  17.4955  17.5778

          k = 0.1667 0.1576-0.4998 ( 62274 PWs)   bands (ev):

   -66.0219 -66.0219 -66.0215 -66.0215 -66.0210 -66.0210 -66.0206 -66.0206
   -30.4611 -30.4611 -30.4580 -30.4580 -30.4100 -30.4100 -30.4069 -30.4069
   -30.3530 -30.3530 -30.3497 -30.3497 -30.3121 -30.3121 -30.3098 -30.3098
   -30.3079 -30.3079 -30.3056 -30.3056 -30.2656 -30.2656 -30.2631 -30.2631
   -20.1737 -20.1737 -20.1735 -20.1735 -20.1707 -20.1707 -20.1706 -20.1706
   -20.1704 -20.1704 -20.1703 -20.1703 -20.1688 -20.1688 -20.1685 -20.1685
   -20.1614 -20.1614 -20.1605 -20.1605 -20.1600 -20.1600 -20.1597 -20.1597
   -20.1595 -20.1595 -20.1590 -20.1590 -20.1584 -20.1584 -20.1579 -20.1579
   -20.1467 -20.1467 -20.1466 -20.1466 -20.1463 -20.1462 -20.1462 -20.1462
   -20.1181 -20.1181 -20.1181 -20.1181 -20.1166 -20.1166 -20.1166 -20.1166
   -20.1154 -20.1153 -20.1153 -20.1153 -20.1128 -20.1128 -20.1128 -20.1128
    -9.5298  -9.5298  -9.2427  -9.2427  -9.1021  -9.1021  -8.7853  -8.7853
    -8.5080  -8.5079  -8.5019  -8.5019  -8.4468  -8.4467  -8.3826  -8.3826
    -7.8998  -7.8998  -7.8564  -7.8564  -7.7626  -7.7626  -7.7432  -7.7432
     1.6112   1.6112   1.6774   1.6774   1.8145   1.8145   1.9162   1.9163
     2.8199   2.8199   3.0566   3.0566   3.1412   3.1412   3.2663   3.2663
     3.3591   3.3591   3.4670   3.4670   3.5675   3.5676   3.8417   3.8417
     3.9729   3.9729   4.2992   4.2992   4.5765   4.5765   4.7011   4.7011
     4.9639   4.9639   5.0635   5.0635   5.1468   5.1469   5.4628   5.4628
     5.7105   5.7105   5.7830   5.7830   5.8832   5.8832   5.9460   5.9460
     6.5056   6.5057   6.6315   6.6315   6.6757   6.6757   6.8068   6.8068
     6.9311   6.9311   6.9695   6.9695   7.0895   7.0895   7.5740   7.5740
     7.6147   7.6147   7.6998   7.6999   7.7192   7.7193   8.0518   8.0519
    10.4930  10.4930  11.3012  11.3012  11.3675  11.3675  11.7131  11.7132
    11.9145  11.9145  12.5536  12.5536  12.6798  12.6798  12.7476  12.7476
    12.9503  12.9503  13.2029  13.2030  13.3648  13.3649  13.9703  13.9703
    14.7784  14.7784  15.5325  15.5325  15.9871  15.9871  16.1242  16.1242
    16.8304  16.8304  17.6461  17.6461  17.9171

          k = 0.1667 0.3152 0.0000 ( 62212 PWs)   bands (ev):

   -66.0223 -66.0221 -66.0214 -66.0213 -66.0212 -66.0211 -66.0204 -66.0202
   -30.4517 -30.4485 -30.4483 -30.4453 -30.4220 -30.4189 -30.4188 -30.4158
   -30.3624 -30.3608 -30.3576 -30.3561 -30.3548 -30.3528 -30.3496 -30.3478
   -30.2674 -30.2659 -30.2630 -30.2617 -30.2612 -30.2599 -30.2573 -30.2561
   -20.1728 -20.1726 -20.1725 -20.1723 -20.1709 -20.1709 -20.1707 -20.1706
   -20.1704 -20.1703 -20.1703 -20.1702 -20.1697 -20.1695 -20.1694 -20.1692
   -20.1613 -20.1612 -20.1611 -20.1610 -20.1607 -20.1606 -20.1605 -20.1604
   -20.1587 -20.1587 -20.1584 -20.1583 -20.1582 -20.1581 -20.1579 -20.1577
   -20.1469 -20.1468 -20.1465 -20.1465 -20.1465 -20.1464 -20.1461 -20.1460
   -20.1196 -20.1196 -20.1188 -20.1188 -20.1183 -20.1183 -20.1174 -20.1173
   -20.1136 -20.1136 -20.1134 -20.1134 -20.1122 -20.1122 -20.1121 -20.1121
    -9.7543  -9.6094  -9.3609  -9.2679  -9.2287  -9.1223  -8.9441  -8.9367
    -8.7851  -8.6556  -8.6541  -8.6341  -8.1757  -8.1356  -8.1256  -8.1097
    -7.8370  -7.8246  -7.7085  -7.6964  -7.6901  -7.6794  -7.5730  -7.5621
     1.3672   1.3682   1.3737   1.3770   1.6217   1.6308   1.8366   1.8851
     2.4028   2.5258   2.5511   2.5552   2.5949   2.7078   2.9007   2.9884
     3.0222   3.1170   3.6593   3.6912   3.7163   3.7556   4.1608   4.4467
     4.4909   4.5107   4.5717   4.7704   4.7992   4.9108   4.9546   4.9814
     5.0741   5.1027   5.2119   5.3387   5.4493   5.5043   5.6212   5.6539
     5.7133   5.8196   5.8231   5.8613   6.0786   6.1463   6.1626   6.1889
     6.2874   6.4585   6.4659   6.6161   6.6782   6.8851   6.9164   6.9580
     6.9970   7.0102   7.0985   7.1027   7.1193   7.1368   7.2324   7.2335
     7.3089   7.3244   7.8156   7.8319   7.8513   7.8597   7.8725   7.8750
     9.7329   9.7471  10.7218  10.7608  10.9090  10.9306  11.8478  11.9572
    11.9926  12.0684  12.2980  12.3145  12.4293  12.4624  12.9742  12.9871
    13.2790  13.3912  13.4516  13.5321  13.7379  13.7783  13.8881  13.9150
    14.9404  15.2766  15.4798  15.5628  15.5859  15.7400  15.9634  16.1373
    16.2872  16.8922  17.3232  17.3644  17.8104

          k = 0.1667 0.3152 0.1666 ( 62207 PWs)   bands (ev):

   -66.0222 -66.0220 -66.0214 -66.0213 -66.0212 -66.0211 -66.0205 -66.0203
   -30.4516 -30.4486 -30.4484 -30.4456 -30.4220 -30.4191 -30.4189 -30.4161
   -30.3559 -30.3552 -30.3534 -30.3525 -30.3505 -30.3498 -30.3493 -30.3481
   -30.2681 -30.2672 -30.2668 -30.2657 -30.2643 -30.2635 -30.2623 -30.2615
   -20.1728 -20.1726 -20.1726 -20.1724 -20.1709 -20.1709 -20.1707 -20.1706
   -20.1704 -20.1703 -20.1703 -20.1702 -20.1697 -20.1695 -20.1694 -20.1693
   -20.1613 -20.1611 -20.1610 -20.1609 -20.1606 -20.1605 -20.1605 -20.1603
   -20.1588 -20.1587 -20.1586 -20.1585 -20.1582 -20.1581 -20.1581 -20.1578
   -20.1469 -20.1468 -20.1465 -20.1465 -20.1464 -20.1464 -20.1461 -20.1461
   -20.1192 -20.1192 -20.1187 -20.1187 -20.1179 -20.1179 -20.1175 -20.1174
   -20.1139 -20.1138 -20.1135 -20.1135 -20.1126 -20.1126 -20.1122 -20.1122
    -9.7008  -9.5510  -9.2862  -9.2853  -9.1404  -9.1382  -8.9064  -8.9001
    -8.7937  -8.6478  -8.6389  -8.6386  -8.1773  -8.1331  -8.1320  -8.1151
    -7.8284  -7.8274  -7.8148  -7.8141  -7.7225  -7.7110  -7.6800  -7.6696
     1.5392   1.5396   1.6245   1.6279   1.6337   1.6377   1.9065   1.9682
     2.4047   2.5261   2.5299   2.6489   2.6634   2.7232   2.9970   3.0024
     3.1094   3.1189   3.6998   3.7077   3.7212   3.7690   4.1532   4.4698
     4.4756   4.5371   4.5432   4.6270   4.6366   4.7630   4.7739   4.8609
     4.9159   4.9233   5.1537   5.1779   5.4072   5.4393   5.4473   5.4552
     5.6527   5.6735   5.8001   5.8040   5.8495   5.8519   6.4247   6.4447
     6.4588   6.5249   6.5575   6.6630   6.7942   6.8050   6.9013   6.9086
     6.9562   6.9604   7.0153   7.0464   7.1127   7.1198   7.1285   7.1832
     7.3799   7.4174   7.8160   7.8215   7.8283   7.8494   7.8596   7.8818
     9.9816  10.0047  10.8772  10.9203  10.9340  10.9539  11.9269  11.9746
    12.0638  12.0666  12.3395  12.3447  12.3762  12.3808  12.9878  13.0205
    13.2550  13.2743  13.3259  13.4743  13.7178  13.7320  13.7397  13.8291
    15.0913  15.4785  15.4830  15.6429  15.6475  15.8057  16.2519  16.2579
    16.2659  16.8570  17.3869  17.4399  17.4463

          k = 0.1667 0.3152 0.3332 ( 62227 PWs)   bands (ev):

   -66.0220 -66.0218 -66.0215 -66.0213 -66.0212 -66.0210 -66.0207 -66.0205
   -30.4511 -30.4493 -30.4481 -30.4463 -30.4216 -30.4198 -30.4185 -30.4168
   -30.3537 -30.3519 -30.3511 -30.3492 -30.3367 -30.3354 -30.3323 -30.3310
   -30.2865 -30.2852 -30.2825 -30.2812 -30.2662 -30.2648 -30.2640 -30.2625
   -20.1728 -20.1726 -20.1726 -20.1725 -20.1709 -20.1708 -20.1708 -20.1707
   -20.1704 -20.1703 -20.1703 -20.1702 -20.1697 -20.1696 -20.1694 -20.1693
   -20.1612 -20.1611 -20.1607 -20.1605 -20.1605 -20.1602 -20.1600 -20.1598
   -20.1591 -20.1590 -20.1590 -20.1586 -20.1585 -20.1582 -20.1581 -20.1581
   -20.1468 -20.1467 -20.1466 -20.1465 -20.1463 -20.1463 -20.1462 -20.1461
   -20.1185 -20.1185 -20.1181 -20.1181 -20.1177 -20.1177 -20.1168 -20.1168
   -20.1150 -20.1150 -20.1138 -20.1138 -20.1132 -20.1132 -20.1125 -20.1125
    -9.5711  -9.4119  -9.3393  -9.1872  -9.0964  -8.8907  -8.8279  -8.7903
    -8.7680  -8.6527  -8.6169  -8.5686  -8.2246  -8.2024  -8.1303  -8.1281
    -8.1175  -8.0620  -8.0237  -7.9778  -7.7974  -7.7856  -7.7219  -7.7111
     1.6445   1.6555   1.6674   1.6763   2.2353   2.3175   2.3285   2.4189
     2.5053   2.5314   2.5544   2.7535   2.9252   2.9902   3.0168   3.0998
     3.2451   3.3351   3.6870   3.7007   3.7526   3.8001   3.9375   4.0119
     4.1363   4.3356   4.4193   4.4413   4.5069   4.6093   4.6354   4.6883
     4.7532   4.8168   4.8629   4.8943   4.9681   5.0395   5.1788   5.1839
     5.3523   5.3743   5.4796   5.6275   5.8324   5.8622   6.2414   6.2596
     6.5739   6.6563   6.6624   6.7694   6.8485   6.8730   6.9515   6.9900
     7.0361   7.0570   7.0793   7.1002   7.1870   7.2092   7.2285   7.3120
     7.3332   7.3901   7.7507   7.7524   7.7958   7.8126   7.8342   7.8674
    10.5774  10.6170  10.9256  10.9400  11.3692  11.4212  11.9177  11.9584
    11.9785  12.1343  12.2451  12.2759  12.5048  12.6002  12.7075  12.7742
    12.9083  13.1163  13.1734  13.3917  13.4006  13.4398  13.7336  13.7760
    15.3154  15.4566  15.8468  15.9941  16.0130  16.1038  16.1851  16.7115
    16.7348  16.8617  17.0814  17.5909  17.6716

          k = 0.1667 0.3152-0.4998 ( 62226 PWs)   bands (ev):

   -66.0218 -66.0218 -66.0216 -66.0216 -66.0209 -66.0209 -66.0207 -66.0207
   -30.4503 -30.4503 -30.4473 -30.4473 -30.4208 -30.4208 -30.4178 -30.4178
   -30.3524 -30.3524 -30.3505 -30.3505 -30.3116 -30.3116 -30.3103 -30.3103
   -30.3074 -30.3074 -30.3061 -30.3061 -30.2651 -30.2651 -30.2637 -30.2637
   -20.1727 -20.1727 -20.1726 -20.1725 -20.1708 -20.1708 -20.1708 -20.1708
   -20.1704 -20.1704 -20.1702 -20.1702 -20.1696 -20.1696 -20.1694 -20.1693
   -20.1612 -20.1611 -20.1606 -20.1606 -20.1598 -20.1598 -20.1596 -20.1596
   -20.1594 -20.1594 -20.1592 -20.1592 -20.1584 -20.1584 -20.1581 -20.1581
   -20.1467 -20.1467 -20.1466 -20.1466 -20.1462 -20.1462 -20.1462 -20.1462
   -20.1181 -20.1181 -20.1181 -20.1181 -20.1166 -20.1166 -20.1166 -20.1166
   -20.1154 -20.1153 -20.1153 -20.1153 -20.1128 -20.1128 -20.1128 -20.1128
    -9.4354  -9.4354  -9.2761  -9.2761  -8.9134  -8.9134  -8.6846  -8.6846
    -8.5362  -8.5362  -8.5128  -8.5127  -8.4424  -8.4423  -8.3615  -8.3615
    -8.1253  -8.1253  -8.0912  -8.0911  -7.7594  -7.7594  -7.7481  -7.7481
     1.6646   1.6646   1.6765   1.6765   2.4063   2.4064   2.5237   2.5237
     3.0083   3.0083   3.1166   3.1167   3.1442   3.1442   3.3264   3.3264
     3.3668   3.3668   3.4901   3.4901   3.5273   3.5274   3.7220   3.7220
     4.1089   4.1089   4.1381   4.1382   4.1530   4.1530   4.3999   4.3999
     4.7671   4.7671   4.8354   4.8354   5.0157   5.0157   5.0781   5.0781
     5.1849   5.1849   5.5447   5.5447   5.9411   5.9411   5.9506   5.9506
     6.7058   6.7058   6.8111   6.8111   6.8713   6.8713   6.9084   6.9084
     7.0478   7.0478   7.0935   7.0935   7.2035   7.2035   7.5504   7.5504
     7.5879   7.5879   7.6073   7.6073   7.6454   7.6454   7.8455   7.8455
    10.9077  10.9077  11.3159  11.3159  11.3664  11.3664  11.8271  11.8271
    12.0958  12.0958  12.2513  12.2514  12.5901  12.5901  12.6682  12.6682
    12.8507  12.8507  12.9877  12.9877  13.3546  13.3546  13.7486  13.7486
    15.4082  15.4082  16.0359  16.0360  16.3695  16.3695  16.4826  16.4826
    16.9567  16.9567  17.2947  17.2947  17.8767

          k = 0.1667-0.4729 0.0000 ( 62208 PWs)   bands (ev):

   -66.0222 -66.0222 -66.0213 -66.0213 -66.0212 -66.0212 -66.0203 -66.0203
   -30.4368 -30.4368 -30.4337 -30.4337 -30.4336 -30.4335 -30.4306 -30.4306
   -30.3616 -30.3616 -30.3569 -30.3569 -30.3538 -30.3538 -30.3488 -30.3487
   -30.2667 -30.2667 -30.2623 -30.2623 -30.2606 -30.2606 -30.2567 -30.2567
   -20.1717 -20.1717 -20.1715 -20.1715 -20.1713 -20.1713 -20.1712 -20.1712
   -20.1703 -20.1703 -20.1702 -20.1702 -20.1701 -20.1701 -20.1700 -20.1700
   -20.1611 -20.1611 -20.1609 -20.1609 -20.1608 -20.1608 -20.1607 -20.1607
   -20.1585 -20.1585 -20.1584 -20.1584 -20.1582 -20.1582 -20.1580 -20.1580
   -20.1469 -20.1469 -20.1465 -20.1465 -20.1464 -20.1464 -20.1461 -20.1461
   -20.1196 -20.1196 -20.1188 -20.1188 -20.1183 -20.1183 -20.1174 -20.1173
   -20.1136 -20.1136 -20.1134 -20.1134 -20.1122 -20.1122 -20.1121 -20.1121
    -9.6720  -9.6720  -9.2798  -9.2798  -9.1768  -9.1767  -8.9402  -8.9402
    -8.4849  -8.4849  -8.4264  -8.4263  -8.4175  -8.4175  -8.4131  -8.4130
    -7.8311  -7.8311  -7.7026  -7.7026  -7.6848  -7.6848  -7.5676  -7.5676
     1.3680   1.3680   1.3762   1.3762   1.6285   1.6286   1.8745   1.8745
     2.5751   2.5751   3.1889   3.1889   3.2334   3.2334   3.2994   3.2994
     3.3156   3.3156   3.3573   3.3573   3.5027   3.5027   3.5627   3.5627
     3.7300   3.7300   4.5175   4.5176   4.9333   4.9333   5.0336   5.0336
     5.1603   5.1603   5.2229   5.2229   5.3538   5.3538   5.5290   5.5291
     5.7589   5.7589   5.8263   5.8263   6.1562   6.1562   6.1747   6.1747
     6.4289   6.4289   6.4631   6.4631   6.7713   6.7713   6.9506   6.9506
     7.0430   7.0430   7.2255   7.2255   7.2650   7.2650   7.4727   7.4727
     7.4938   7.4938   7.5318   7.5318   7.5563   7.5563   7.8566   7.8566
     9.7413   9.7413  11.3052  11.3052  11.3783  11.3783  11.4437  11.4437
    11.5201  11.5201  12.3077  12.3077  12.4461  12.4461  12.9867  12.9867
    13.4599  13.4599  13.5594  13.5594  13.6406  13.6406  13.6878  13.6878
    15.4599  15.4600  15.6416  15.6416  15.7238  15.7238  16.0107  16.0107
    16.6313  16.6313  17.8856  17.8856  18.1191

          k = 0.1667-0.4729 0.1666 ( 62180 PWs)   bands (ev):

   -66.0221 -66.0221 -66.0213 -66.0213 -66.0212 -66.0212 -66.0204 -66.0204
   -30.4368 -30.4367 -30.4338 -30.4338 -30.4337 -30.4337 -30.4309 -30.4308
   -30.3554 -30.3554 -30.3531 -30.3531 -30.3499 -30.3499 -30.3490 -30.3490
   -30.2674 -30.2674 -30.2664 -30.2664 -30.2638 -30.2638 -30.2621 -30.2621
   -20.1717 -20.1716 -20.1715 -20.1715 -20.1714 -20.1713 -20.1712 -20.1712
   -20.1703 -20.1703 -20.1702 -20.1702 -20.1701 -20.1701 -20.1700 -20.1700
   -20.1610 -20.1610 -20.1608 -20.1608 -20.1607 -20.1607 -20.1606 -20.1606
   -20.1585 -20.1585 -20.1585 -20.1584 -20.1583 -20.1583 -20.1581 -20.1581
   -20.1468 -20.1468 -20.1465 -20.1465 -20.1464 -20.1464 -20.1461 -20.1461
   -20.1192 -20.1192 -20.1187 -20.1187 -20.1179 -20.1179 -20.1175 -20.1174
   -20.1139 -20.1138 -20.1135 -20.1135 -20.1126 -20.1126 -20.1122 -20.1122
    -9.6153  -9.6153  -9.1954  -9.1953  -9.1938  -9.1936  -8.9032  -8.9032
    -8.4919  -8.4918  -8.4206  -8.4201  -8.4187  -8.4185  -8.4145  -8.4143
    -7.8233  -7.8230  -7.8199  -7.8197  -7.7169  -7.7169  -7.6749  -7.6748
     1.5392   1.5395   1.6309   1.6317   1.6351   1.6358   1.9556   1.9558
     2.6686   2.6689   3.2009   3.2022   3.2339   3.2423   3.2963   3.2963
     3.3154   3.3182   3.3976   3.4048   3.5518   3.5551   3.5600   3.5642
     3.7512   3.7521   4.5488   4.5558   4.5994   4.6077   4.9554   4.9604
     5.0291   5.0305   5.1343   5.1400   5.1859   5.1919   5.4748   5.4755
     5.5114   5.5118   5.8036   5.8095   5.8367   5.8410   6.4810   6.4993
[...]
    11.6724  11.6724  11.6724  11.6724  11.7584  11.7584  11.7584  11.7584
    12.0546  12.0546  12.0546  12.0547  12.2746  12.2746  12.2746  12.2746
    13.0579  13.0579  13.0579  13.0579  13.2353  13.2353  13.2353  13.2353
    15.3213  15.3214  15.3214  15.3214  16.7854  16.7854  16.7854  16.7854
    17.7161  17.7161  17.7161  17.7161  17.9703

          k =-0.5000 0.3152 0.0000 ( 62266 PWs)   bands (ev):

   -66.0219 -66.0218 -66.0217 -66.0216 -66.0208 -66.0208 -66.0206 -66.0206
   -30.4503 -30.4503 -30.4470 -30.4470 -30.4207 -30.4207 -30.4176 -30.4175
   -30.3599 -30.3599 -30.3584 -30.3584 -30.3111 -30.3111 -30.3095 -30.3095
   -30.3063 -30.3063 -30.3047 -30.3047 -30.2593 -30.2593 -30.2580 -30.2580
   -20.1728 -20.1728 -20.1725 -20.1725 -20.1709 -20.1709 -20.1706 -20.1706
   -20.1704 -20.1704 -20.1703 -20.1703 -20.1696 -20.1696 -20.1694 -20.1694
   -20.1612 -20.1611 -20.1608 -20.1608 -20.1598 -20.1598 -20.1598 -20.1598
   -20.1594 -20.1594 -20.1593 -20.1592 -20.1584 -20.1583 -20.1578 -20.1578
   -20.1467 -20.1466 -20.1466 -20.1466 -20.1463 -20.1463 -20.1462 -20.1462
   -20.1190 -20.1189 -20.1189 -20.1189 -20.1163 -20.1163 -20.1163 -20.1163
   -20.1148 -20.1148 -20.1148 -20.1148 -20.1128 -20.1128 -20.1128 -20.1128
    -9.5060  -9.5060  -9.3602  -9.3602  -8.8993  -8.8993  -8.7061  -8.7061
    -8.5227  -8.5227  -8.5097  -8.5097  -8.4556  -8.4556  -8.3563  -8.3563
    -8.1272  -8.1272  -8.0862  -8.0862  -7.6386  -7.6386  -7.6272  -7.6272
     1.4085   1.4085   1.4143   1.4143   2.4026   2.4026   2.5422   2.5422
     2.9431   2.9432   3.0841   3.0841   3.1346   3.1346   3.3238   3.3239
     3.3558   3.3558   3.4124   3.4125   3.4733   3.4733   3.6731   3.6731
     4.1005   4.1005   4.1226   4.1226   4.1851   4.1851   4.3978   4.3978
     4.8372   4.8372   4.9387   4.9387   5.1510   5.1510   5.3340   5.3340
     5.4797   5.4797   5.7452   5.7452   6.3322   6.3322   6.3945   6.3945
     6.5096   6.5096   6.5638   6.5638   6.5844   6.5844   6.7982   6.7982
     7.0636   7.0636   7.0853   7.0854   7.1166   7.1166   7.5390   7.5390
     7.5616   7.5616   7.6041   7.6041   7.6342   7.6342   7.8656   7.8656
    10.7442  10.7442  11.2420  11.2420  11.2835  11.2835  11.7453  11.7453
    12.0869  12.0869  12.2168  12.2168  12.6034  12.6034  12.7178  12.7178
    12.8843  12.8843  13.0396  13.0396  13.5161  13.5161  13.8998  13.8998
    15.2012  15.2012  15.7642  15.7642  16.3032  16.3032  16.4908  16.4908
    16.8856  16.8856  17.2561  17.2561  17.9669

          k =-0.5000 0.3152 0.1666 ( 62230 PWs)   bands (ev):

   -66.0218 -66.0218 -66.0216 -66.0216 -66.0209 -66.0209 -66.0207 -66.0207
   -30.4502 -30.4502 -30.4473 -30.4473 -30.4206 -30.4206 -30.4178 -30.4178
   -30.3531 -30.3531 -30.3517 -30.3517 -30.3108 -30.3108 -30.3092 -30.3092
   -30.3066 -30.3066 -30.3051 -30.3050 -30.2660 -30.2660 -30.2647 -30.2647
   -20.1728 -20.1728 -20.1725 -20.1725 -20.1709 -20.1709 -20.1707 -20.1707
   -20.1704 -20.1704 -20.1703 -20.1703 -20.1696 -20.1696 -20.1695 -20.1694
   -20.1610 -20.1610 -20.1607 -20.1606 -20.1598 -20.1598 -20.1597 -20.1597
   -20.1594 -20.1594 -20.1593 -20.1593 -20.1585 -20.1585 -20.1580 -20.1580
   -20.1466 -20.1466 -20.1466 -20.1465 -20.1463 -20.1463 -20.1463 -20.1462
   -20.1186 -20.1186 -20.1186 -20.1185 -20.1162 -20.1162 -20.1162 -20.1162
   -20.1149 -20.1149 -20.1149 -20.1149 -20.1132 -20.1132 -20.1132 -20.1132
    -9.4363  -9.4363  -9.2780  -9.2779  -8.9137  -8.9137  -8.6854  -8.6854
    -8.5342  -8.5342  -8.5116  -8.5116  -8.4404  -8.4404  -8.3604  -8.3603
    -8.1241  -8.1241  -8.0911  -8.0911  -7.7609  -7.7609  -7.7496  -7.7496
     1.6606   1.6606   1.6720   1.6720   2.4052   2.4052   2.5233   2.5233
     3.0148   3.0148   3.1132   3.1132   3.1391   3.1391   3.3285   3.3285
     3.3660   3.3660   3.4964   3.4965   3.5290   3.5290   3.7215   3.7215
     4.0982   4.0982   4.1258   4.1258   4.1806   4.1807   4.4053   4.4054
     4.7645   4.7645   4.8294   4.8294   5.0156   5.0156   5.0788   5.0788
     5.1868   5.1868   5.5443   5.5443   5.9388   5.9388   5.9497   5.9498
     6.7060   6.7060   6.8153   6.8154   6.8735   6.8735   6.9094   6.9094
     7.0429   7.0429   7.0958   7.0958   7.2002   7.2002   7.5471   7.5471
     7.5785   7.5785   7.6182   7.6182   7.6496   7.6496   7.8467   7.8467
    10.9075  10.9075  11.3185  11.3185  11.3649  11.3649  11.8089  11.8089
    12.0980  12.0980  12.2539  12.2539  12.5889  12.5889  12.6796  12.6796
    12.8520  12.8520  12.9936  12.9936  13.3524  13.3524  13.7526  13.7527
    15.4087  15.4087  16.0309  16.0309  16.3692  16.3692  16.4830  16.4831
    16.9460  16.9460  17.2951  17.2951  17.8727

          k =-0.5000 0.3152 0.3332 ( 62226 PWs)   bands (ev):

   -66.0216 -66.0216 -66.0214 -66.0214 -66.0211 -66.0211 -66.0209 -66.0209
   -30.4498 -30.4498 -30.4481 -30.4481 -30.4203 -30.4203 -30.4186 -30.4186
   -30.3348 -30.3348 -30.3334 -30.3333 -30.3099 -30.3099 -30.3083 -30.3083
   -30.3075 -30.3074 -30.3060 -30.3060 -30.2843 -30.2843 -30.2830 -30.2830
   -20.1727 -20.1727 -20.1726 -20.1726 -20.1709 -20.1709 -20.1707 -20.1707
   -20.1704 -20.1703 -20.1703 -20.1703 -20.1696 -20.1696 -20.1695 -20.1695
   -20.1605 -20.1605 -20.1603 -20.1603 -20.1599 -20.1599 -20.1595 -20.1595
   -20.1594 -20.1594 -20.1593 -20.1593 -20.1589 -20.1589 -20.1584 -20.1584
   -20.1465 -20.1465 -20.1465 -20.1465 -20.1463 -20.1463 -20.1463 -20.1463
   -20.1175 -20.1175 -20.1175 -20.1175 -20.1159 -20.1159 -20.1159 -20.1159
   -20.1152 -20.1152 -20.1152 -20.1152 -20.1144 -20.1144 -20.1144 -20.1144
    -9.2592  -9.2592  -9.0529  -9.0528  -8.9634  -8.9634  -8.6237  -8.6237
    -8.5845  -8.5845  -8.4783  -8.4783  -8.4133  -8.4133  -8.3689  -8.3689
    -8.1322  -8.1322  -8.1099  -8.1099  -8.0551  -8.0551  -8.0190  -8.0190
     2.2701   2.2701   2.3550   2.3550   2.4145   2.4145   2.5484   2.5484
     3.0911   3.0911   3.1440   3.1440   3.2361   3.2361   3.3267   3.3267
     3.4085   3.4085   3.6483   3.6483   3.7594   3.7594   3.8536   3.8536
     4.0777   4.0777   4.1352   4.1352   4.1830   4.1830   4.2798   4.2799
     4.3722   4.3722   4.5033   4.5033   4.6615   4.6615   4.8769   4.8769
     4.9956   4.9956   5.0585   5.0585   5.1255   5.1255   5.3248   5.3248
     6.8754   6.8754   6.9309   6.9309   6.9953   6.9953   7.0591   7.0591
     7.2035   7.2035   7.3313   7.3313   7.4417   7.4417   7.5366   7.5366
     7.5843   7.5843   7.6527   7.6527   7.6765   7.6765   7.7976   7.7976
    11.3238  11.3238  11.5599  11.5599  11.6437  11.6437  11.9133  11.9133
    12.1424  12.1424  12.3813  12.3813  12.4240  12.4240  12.4490  12.4490
    12.7791  12.7791  12.8708  12.8708  12.9587  12.9588  13.3663  13.3663
    15.9115  15.9116  16.3977  16.3977  16.6149  16.6149  16.7726  16.7727
    17.1751  17.1751  17.3624  17.3624  17.6488

          k =-0.5000 0.3152-0.4998 ( 62192 PWs)   bands (ev):

   -66.0214 -66.0214 -66.0214 -66.0213 -66.0212 -66.0212 -66.0211 -66.0211
   -30.4490 -30.4490 -30.4490 -30.4490 -30.4195 -30.4195 -30.4195 -30.4195
   -30.3113 -30.3113 -30.3113 -30.3113 -30.3095 -30.3094 -30.3094 -30.3094
   -30.3073 -30.3073 -30.3073 -30.3073 -30.3055 -30.3055 -30.3055 -30.3055
   -20.1727 -20.1727 -20.1727 -20.1727 -20.1708 -20.1708 -20.1708 -20.1708
   -20.1703 -20.1703 -20.1703 -20.1703 -20.1695 -20.1695 -20.1695 -20.1695
   -20.1601 -20.1601 -20.1601 -20.1601 -20.1598 -20.1598 -20.1597 -20.1597
   -20.1593 -20.1593 -20.1593 -20.1593 -20.1590 -20.1589 -20.1589 -20.1589
   -20.1464 -20.1464 -20.1464 -20.1464 -20.1464 -20.1464 -20.1464 -20.1463
   -20.1161 -20.1161 -20.1161 -20.1161 -20.1160 -20.1160 -20.1160 -20.1160
   -20.1155 -20.1155 -20.1155 -20.1155 -20.1154 -20.1154 -20.1154 -20.1154
    -9.0737  -9.0737  -9.0737  -9.0737  -8.7745  -8.7745  -8.7745  -8.7744
    -8.4647  -8.4646  -8.4646  -8.4646  -8.3423  -8.3423  -8.3423  -8.3423
    -8.3219  -8.3219  -8.3219  -8.3219  -8.0953  -8.0953  -8.0953  -8.0953
     2.4175   2.4175   2.4175   2.4175   3.0521   3.0521   3.0521   3.0521
     3.1544   3.1544   3.1544   3.1544   3.2943   3.2943   3.2943   3.2943
     3.3606   3.3607   3.3607   3.3607   4.0016   4.0016   4.0016   4.0016
     4.0389   4.0389   4.0389   4.0389   4.1211   4.1211   4.1211   4.1211
     4.3751   4.3751   4.3751   4.3751   4.4036   4.4036   4.4036   4.4036
     4.7550   4.7550   4.7550   4.7550   5.0592   5.0592   5.0592   5.0592
     6.9332   6.9332   6.9332   6.9332   7.0352   7.0352   7.0352   7.0352
     7.4282   7.4282   7.4282   7.4283   7.5218   7.5219   7.5219   7.5219
     7.6358   7.6358   7.6358   7.6358   7.7296   7.7296   7.7296   7.7296
    11.7991  11.7991  11.7991  11.7991  11.8868  11.8868  11.8868  11.8868
    12.1058  12.1058  12.1058  12.1058  12.3669  12.3669  12.3669  12.3669
    12.7438  12.7438  12.7438  12.7438  12.9415  12.9415  12.9415  12.9415
    16.2627  16.2627  16.2627  16.2627  16.9693  16.9693  16.9693  16.9693
    17.4849  17.4849  17.4849  17.4850  17.9531

          k =-0.5000-0.4729 0.0000 ( 62212 PWs)   bands (ev):

   -66.0218 -66.0218 -66.0217 -66.0217 -66.0208 -66.0207 -66.0207 -66.0207
   -30.4356 -30.4356 -30.4354 -30.4354 -30.4324 -30.4324 -30.4322 -30.4322
   -30.3592 -30.3592 -30.3592 -30.3592 -30.3104 -30.3104 -30.3102 -30.3102
   -30.3056 -30.3056 -30.3054 -30.3054 -30.2587 -30.2587 -30.2586 -30.2586
   -20.1716 -20.1716 -20.1716 -20.1716 -20.1713 -20.1713 -20.1713 -20.1713
   -20.1702 -20.1702 -20.1702 -20.1702 -20.1702 -20.1701 -20.1701 -20.1701
   -20.1609 -20.1609 -20.1609 -20.1609 -20.1597 -20.1596 -20.1596 -20.1596
   -20.1595 -20.1595 -20.1595 -20.1595 -20.1581 -20.1581 -20.1581 -20.1581
   -20.1466 -20.1466 -20.1466 -20.1466 -20.1463 -20.1463 -20.1463 -20.1462
   -20.1190 -20.1189 -20.1189 -20.1189 -20.1163 -20.1163 -20.1163 -20.1163
   -20.1148 -20.1148 -20.1148 -20.1148 -20.1128 -20.1128 -20.1128 -20.1128
    -9.4206  -9.4206  -9.4185  -9.4185  -8.6622  -8.6621  -8.6533  -8.6532
    -8.5752  -8.5752  -8.5682  -8.5682  -8.3685  -8.3685  -8.3521  -8.3521
    -8.2933  -8.2933  -8.2785  -8.2785  -7.6330  -7.6330  -7.6329  -7.6329
     1.4117   1.4117   1.4139   1.4139   3.0274   3.0274   3.0729   3.0729
     3.1927   3.1927   3.1949   3.1949   3.2330   3.2330   3.2495   3.2495
     3.3508   3.3508   3.3689   3.3689   3.4742   3.4742   3.5225   3.5225
     3.5912   3.5912   3.7262   3.7262   4.3243   4.3243   4.3502   4.3502
     4.4256   4.4256   4.4707   4.4708   5.2517   5.2517   5.2678   5.2678
     5.5400   5.5400   5.5575   5.5575   6.3795   6.3795   6.3885   6.3885
     6.5640   6.5640   6.5647   6.5647   6.6710   6.6710   6.6955   6.6955
     7.3040   7.3040   7.3228   7.3228   7.3550   7.3551   7.4427   7.4427
     7.4723   7.4723   7.5195   7.5195   7.6169   7.6169   7.6242   7.6242
    11.2416  11.2416  11.2469  11.2469  11.3547  11.3547  11.3628  11.3628
    12.3154  12.3154  12.3583  12.3583  12.3695  12.3695  12.4130  12.4130
    12.9244  12.9244  12.9294  12.9294  13.6605  13.6605  13.6734  13.6734
    15.5736  15.5736  15.5751  15.5751  16.8472  16.8472  16.8805  16.8805
    17.3586  17.3586  17.3910  17.3911  17.5005

          k =-0.5000-0.4729 0.1666 ( 62196 PWs)   bands (ev):

   -66.0217 -66.0217 -66.0217 -66.0217 -66.0208 -66.0208 -66.0208 -66.0208
   -30.4355 -30.4355 -30.4353 -30.4353 -30.4327 -30.4327 -30.4325 -30.4325
   -30.3524 -30.3524 -30.3524 -30.3524 -30.3101 -30.3101 -30.3099 -30.3099
   -30.3059 -30.3059 -30.3057 -30.3057 -30.2654 -30.2654 -30.2654 -30.2654
   -20.1716 -20.1716 -20.1716 -20.1716 -20.1713 -20.1713 -20.1713 -20.1713
   -20.1702 -20.1702 -20.1702 -20.1702 -20.1702 -20.1701 -20.1701 -20.1701
   -20.1608 -20.1608 -20.1608 -20.1607 -20.1596 -20.1596 -20.1596 -20.1596
   -20.1595 -20.1595 -20.1595 -20.1595 -20.1583 -20.1583 -20.1583 -20.1582
   -20.1466 -20.1466 -20.1466 -20.1466 -20.1463 -20.1463 -20.1463 -20.1463
   -20.1186 -20.1186 -20.1186 -20.1185 -20.1162 -20.1162 -20.1162 -20.1162
   -20.1149 -20.1149 -20.1149 -20.1149 -20.1132 -20.1132 -20.1132 -20.1132
    -9.3427  -9.3427  -9.3403  -9.3403  -8.6822  -8.6822  -8.6732  -8.6731
    -8.5574  -8.5574  -8.5484  -8.5484  -8.3659  -8.3658  -8.3496  -8.3496
    -8.2952  -8.2952  -8.2811  -8.2811  -7.7556  -7.7556  -7.7552  -7.7552
     1.6678   1.6678   1.6709   1.6709   3.0320   3.0320   3.0773   3.0773
     3.1743   3.1743   3.1946   3.1947   3.2418   3.2418   3.3070   3.3070
     3.3443   3.3443   3.4644   3.4644   3.5200   3.5200   3.5737   3.5737
     3.6268   3.6268   3.7548   3.7548   4.3272   4.3272   4.3500   4.3500
     4.4187   4.4188   4.4636   4.4636   4.9177   4.9177   5.0942   5.0942
     5.1804   5.1804   5.3351   5.3351   5.9425   5.9425   5.9530   5.9530
     6.7847   6.7847   6.8234   6.8234   6.9148   6.9148   6.9508   6.9508
     7.2942   7.2942   7.3249   7.3249   7.3791   7.3791   7.4346   7.4346
     7.4712   7.4712   7.5277   7.5277   7.6285   7.6285   7.6522   7.6522
    11.2914  11.2914  11.3268  11.3269  11.4602  11.4602  11.5265  11.5265
    12.3138  12.3138  12.3577  12.3577  12.3769  12.3769  12.4214  12.4215
    12.8274  12.8274  12.8976  12.8976  13.4850  13.4850  13.5327  13.5327
    15.8230  15.8230  15.8468  15.8468  16.9038  16.9038  16.9368  16.9368
    17.3660  17.3660  17.4040  17.4041  17.4887

          k =-0.5000-0.4729 0.3332 ( 62164 PWs)   bands (ev):

   -66.0215 -66.0215 -66.0215 -66.0215 -66.0210 -66.0210 -66.0210 -66.0210
   -30.4351 -30.4351 -30.4350 -30.4349 -30.4334 -30.4334 -30.4332 -30.4332
   -30.3341 -30.3341 -30.3341 -30.3341 -30.3092 -30.3092 -30.3090 -30.3090
   -30.3069 -30.3069 -30.3066 -30.3066 -30.2837 -30.2837 -30.2837 -30.2837
   -20.1716 -20.1716 -20.1716 -20.1715 -20.1714 -20.1714 -20.1714 -20.1714
   -20.1702 -20.1702 -20.1702 -20.1702 -20.1702 -20.1702 -20.1701 -20.1701
   -20.1603 -20.1603 -20.1603 -20.1603 -20.1596 -20.1596 -20.1596 -20.1596
   -20.1595 -20.1595 -20.1595 -20.1595 -20.1587 -20.1587 -20.1587 -20.1587
   -20.1465 -20.1465 -20.1465 -20.1465 -20.1463 -20.1463 -20.1463 -20.1463
   -20.1175 -20.1175 -20.1175 -20.1175 -20.1159 -20.1159 -20.1159 -20.1159
   -20.1152 -20.1152 -20.1152 -20.1152 -20.1144 -20.1144 -20.1144 -20.1144
    -9.1349  -9.1349  -9.1312  -9.1312  -8.7459  -8.7459  -8.7372  -8.7372
    -8.4973  -8.4973  -8.4883  -8.4883  -8.3589  -8.3589  -8.3460  -8.3460
    -8.2982  -8.2982  -8.2879  -8.2879  -8.0483  -8.0483  -8.0472  -8.0472
     2.3428   2.3428   2.3488   2.3488   3.0431   3.0431   3.0714   3.0714
     3.1682   3.1682   3.1819   3.1819   3.2963   3.2963   3.3215   3.3215
     3.4332   3.4332   3.4705   3.4705   3.6786   3.6786   3.7010   3.7010
     3.8292   3.8292   3.8951   3.8951   4.2952   4.2952   4.3178   4.3178
     4.3707   4.3707   4.4304   4.4304   4.5013   4.5013   4.6234   4.6234
     4.6916   4.6916   4.8488   4.8488   5.1323   5.1323   5.1488   5.1488
     7.0464   7.0464   7.0970   7.0970   7.2181   7.2181   7.2354   7.2354
     7.2996   7.2996   7.3419   7.3419   7.3723   7.3723   7.4296   7.4296
     7.5194   7.5194   7.5844   7.5844   7.6558   7.6559   7.6779   7.6779
    11.5180  11.5180  11.5524  11.5524  11.8162  11.8163  11.8940  11.8940
    12.2602  12.2602  12.3069  12.3069  12.3943  12.3943  12.4258  12.4258
    12.5828  12.5828  12.6882  12.6882  13.0505  13.0505  13.1300  13.1300
    16.5275  16.5276  16.5834  16.5834  17.0728  17.0728  17.0903  17.0903
    17.3545  17.3545  17.4252  17.4264  17.4579

          k =-0.5000-0.4729-0.4998 ( 62224 PWs)   bands (ev):

   -66.0213 -66.0213 -66.0213 -66.0213 -66.0212 -66.0212 -66.0212 -66.0212
   -30.4344 -30.4344 -30.4344 -30.4343 -30.4342 -30.4342 -30.4342 -30.4342
   -30.3111 -30.3111 -30.3110 -30.3110 -30.3095 -30.3095 -30.3095 -30.3095
   -30.3073 -30.3073 -30.3073 -30.3073 -30.3058 -30.3058 -30.3058 -30.3057
   -20.1715 -20.1715 -20.1715 -20.1715 -20.1715 -20.1715 -20.1715 -20.1715
   -20.1702 -20.1702 -20.1702 -20.1702 -20.1702 -20.1702 -20.1702 -20.1701
   -20.1600 -20.1600 -20.1600 -20.1599 -20.1597 -20.1597 -20.1597 -20.1597
   -20.1594 -20.1594 -20.1594 -20.1594 -20.1591 -20.1591 -20.1591 -20.1591
   -20.1464 -20.1464 -20.1464 -20.1464 -20.1464 -20.1464 -20.1464 -20.1464
   -20.1161 -20.1161 -20.1161 -20.1161 -20.1160 -20.1160 -20.1160 -20.1160
   -20.1155 -20.1155 -20.1155 -20.1155 -20.1154 -20.1154 -20.1154 -20.1154
    -8.8935  -8.8935  -8.8935  -8.8935  -8.8869  -8.8869  -8.8869  -8.8869
    -8.3706  -8.3705  -8.3705  -8.3705  -8.3591  -8.3591  -8.3591  -8.3591
    -8.2993  -8.2993  -8.2993  -8.2993  -8.2935  -8.2935  -8.2935  -8.2935
     3.0398   3.0398   3.0398   3.0398   3.0609   3.0609   3.0609   3.0609
     3.1962   3.1962   3.1962   3.1962   3.2229   3.2229   3.2229   3.2229
     3.4655   3.4655   3.4655   3.4655   3.5224   3.5224   3.5224   3.5224
     4.1998   4.1998   4.1998   4.1998   4.2071   4.2071   4.2071   4.2071
     4.4128   4.4128   4.4128   4.4128   4.4224   4.4224   4.4225   4.4225
     4.5033   4.5034   4.5034   4.5034   4.5194   4.5194   4.5194   4.5194
     7.1916   7.1916   7.1916   7.1916   7.2646   7.2646   7.2646   7.2646
     7.3631   7.3631   7.3631   7.3631   7.3747   7.3747   7.3747   7.3747
     7.6415   7.6415   7.6415   7.6415   7.6598   7.6598   7.6599   7.6599
    11.8982  11.8982  11.8982  11.8982  11.9040  11.9040  11.9040  11.9040
    12.3204  12.3204  12.3204  12.3204  12.3862  12.3862  12.3862  12.3862
    12.6009  12.6009  12.6009  12.6009  12.6292  12.6292  12.6292  12.6292
    17.1609  17.1609  17.1609  17.1609  17.1949  17.1949  17.1949  17.1949
    17.4116  17.4116  17.4116  17.4116  17.4247

     the Fermi energy is     9.9495 ev

!    total energy              =   -6260.68514228 Ry
     Harris-Foulkes estimate   =   -6260.68514228 Ry
     estimated scf accuracy    <          1.3E-09 Ry

     The total energy is the sum of the following terms:

     one-electron contribution =   -4719.99147345 Ry
     hartree contribution      =    2598.67048472 Ry
     xc contribution           =    -966.33370221 Ry
     ewald contribution        =   -3173.03043992 Ry
     smearing contrib. (-TS)   =      -0.00001142 Ry

     convergence has been achieved in  13 iterations

     Writing output data file Landau_4.save
 
     init_run     :     28.75s CPU     30.63s WALL (       1 calls)
     electrons    :   1272.94s CPU   1309.58s WALL (       1 calls)

     Called by init_run:
     wfcinit      :     26.10s CPU     27.83s WALL (       1 calls)
     potinit      :      1.10s CPU      1.14s WALL (       1 calls)

     Called by electrons:
     c_bands      :   1118.02s CPU   1152.12s WALL (      13 calls)
     sum_band     :    148.14s CPU    149.80s WALL (      13 calls)
     v_of_rho     :      1.16s CPU      1.20s WALL (      14 calls)
     mix_rho      :      1.98s CPU      2.61s WALL (      13 calls)

     Called by c_bands:
     init_us_2    :      7.41s CPU      8.20s WALL (      54 calls)
     cegterg      :    804.95s CPU    836.74s WALL (      26 calls)

     Called by sum_band:

     Called by *egterg:
     h_psi        :    653.10s CPU    658.30s WALL (     110 calls)
     g_psi        :      1.37s CPU      1.38s WALL (      82 calls)
     cdiaghg      :     11.16s CPU     11.22s WALL (     108 calls)

     Called by h_psi:
     h_psi:pot    :    648.85s CPU    653.74s WALL (     110 calls)
     h_psi:calbec :     63.56s CPU     65.93s WALL (     110 calls)
     vloc_psi     :    516.74s CPU    518.89s WALL (     110 calls)
     add_vuspsi   :     68.54s CPU     68.92s WALL (     110 calls)

     General routines
     calbec       :     63.56s CPU     65.93s WALL (     110 calls)
     fft          :      0.84s CPU      0.85s WALL (      56 calls)
     fftw         :    534.77s CPU    536.74s WALL (   33858 calls)
 
     Parallel routines
 
     PWSCF        : 21m46.15s CPU    22m26.15s WALL

 
   This run was terminated on:   1: 2:21  21Mar2020            

=------------------------------------------------------------------------------=
   JOB DONE.
=------------------------------------------------------------------------------=
