
     Program PWSCF v.6.2 (svn rev. 14038) starts on 19Mar2020 at 20: 1: 4 

     This program is part of the open-source Quantum ESPRESSO suite
     for quantum simulation of materials; please cite
         "P. Giannozzi et al., J. Phys.:Condens. Matter 21 395502 (2009);
         "P. Giannozzi et al., J. Phys.:Condens. Matter 29 465901 (2017);
          URL http://www.quantum-espresso.org", 
     in publications or presentations arising from this work. More details at
     http://www.quantum-espresso.org/quote

     Parallel version (MPI), running on    40 processors

     MPI processes distributed on     6 nodes
     K-points division:     npool     =      40
     Reading input from rscf.in

     Current dimensions of program PWSCF are:
     Max number of different atomic species (ntypx) = 10
     Max number of k-points (npk) =  40000
     Max angular momentum in pseudopotentials (lmaxx) =  3

     Subspace diagonalization in iterative solution of the eigenvalue problem:
     a serial algorithm will be used

 
     G-vector sticks info
     --------------------
     sticks:   dense  smooth     PW     G-vecs:    dense   smooth      PW
     Sum        7747    7747   2077               498127   498127   69057
 


     bravais-lattice index     =            0
     lattice parameter (alat)  =      13.8397  a.u.
     unit-cell volume          =    2804.9816 (a.u.)^3
     number of atoms/cell      =           32
     number of atomic types    =            2
     number of electrons       =       368.00
     number of Kohn-Sham states=          221
     kinetic-energy cutoff     =     120.0000  Ry
     charge density cutoff     =     480.0000  Ry
     convergence threshold     =      1.0E-08
     mixing beta               =       0.7000
     number of iterations used =            8  plain     mixing
     Exchange-correlation      = SLA PW NOGX NOGC ( 1  4  0  0 0 0)
     nstep                     =           50


     celldm(1)=  13.839685  celldm(2)=   0.000000  celldm(3)=   0.000000
     celldm(4)=   0.000000  celldm(5)=   0.000000  celldm(6)=   0.000000

     crystal axes: (cart. coord. in units of alat)
               a(1) = (   1.000000   0.000000   0.000000 )  
               a(2) = (   0.000000   1.058160   0.000000 )  
               a(3) = (   0.000000   0.000000   1.000000 )  

     reciprocal axes: (cart. coord. in units 2 pi/alat)
               b(1) = (  1.000000  0.000000  0.000000 )  
               b(2) = (  0.000000  0.945037  0.000000 )  
               b(3) = (  0.000000  0.000000  1.000000 )  


     PseudoPot. # 1 for W  read from file:
     /cluster/scratch/mnoe/QE/pps/W_ONCV_LDA-4.0.upf
     MD5 check sum: ba0307d5d4cd419d6f1d13dc49d7c13a
     Pseudo is Norm-conserving + core correction, Zval = 28.0
     Generated using ONCVPSP code by D. R. Hamann
     Using radial grid of 1380 points,  8 beta functions with: 
                l(1) =   0
                l(2) =   0
                l(3) =   1
                l(4) =   1
                l(5) =   2
                l(6) =   2
                l(7) =   3
                l(8) =   3

     PseudoPot. # 2 for O  read from file:
     /cluster/scratch/mnoe/QE/pps/O_ONCV_LDA-3.0.upf
     MD5 check sum: a1bd6164e7280c17a38c229939bfbd54
     Pseudo is Norm-conserving + core correction, Zval =  6.0
     Generated using ONCVPSP code by D. R. Hamann
     Using radial grid of  926 points,  5 beta functions with: 
                l(1) =   0
                l(2) =   0
                l(3) =   1
                l(4) =   1
                l(5) =   2

     atomic species   valence    mass     pseudopotential
        W             28.00   183.84000     W ( 1.00)
        O              6.00    15.99940     O ( 1.00)

      8 Sym. Ops., with inversion, found ( 6 have fractional translation)



   Cartesian axes

     site n.     atom                  positions (alat units)
         1           W   tau(   1) = (   0.2464197   0.2853710   0.0033810  )
         2           W   tau(   2) = (   0.7535802   0.7727891  -0.0033810  )
         3           W   tau(   3) = (   0.2535803   0.2437090   0.5033810  )
         4           W   tau(   4) = (   0.7464196   0.8144512   0.4966190  )
         5           W   tau(   5) = (   0.7535802   0.2853710   0.4966190  )
         6           W   tau(   6) = (   0.2464197   0.7727891   0.5033810  )
         7           W   tau(   7) = (   0.7464196   0.2437090  -0.0033810  )
         8           W   tau(   8) = (   0.2535803   0.8144512   0.0033810  )
         9           O   tau(   9) = (   0.2433948   0.0052945   0.0010509  )
        10           O   tau(  10) = (   0.7566051  -0.0052945  -0.0010509  )
        11           O   tau(  11) = (   0.2566052   0.5237856   0.5010509  )
        12           O   tau(  12) = (   0.7433947   0.5343746   0.4989491  )
        13           O   tau(  13) = (   0.7566051   0.0052945   0.4989491  )
        14           O   tau(  14) = (   0.2433948  -0.0052945   0.5010509  )
        15           O   tau(  15) = (   0.7433947   0.5237856  -0.0010509  )
        16           O   tau(  16) = (   0.2566052   0.5343746   0.0010509  )
        17           O   tau(  17) = (   0.5009793   0.2573704   0.4793077  )
        18           O   tau(  18) = (   0.4990207   0.8007897   0.5206924  )
        19           O   tau(  19) = (  -0.0009793   0.2717096   0.9793077  )
        20           O   tau(  20) = (   0.0009793   0.7864505   0.0206922  )
        21           O   tau(  21) = (   0.4990207   0.2573704   0.0206922  )
        22           O   tau(  22) = (   0.5009793   0.8007897   0.9793077  )
        23           O   tau(  23) = (   0.0009793   0.2717096   0.5206924  )
        24           O   tau(  24) = (  -0.0009793   0.7864505   0.4793077  )
        25           O   tau(  25) = (   0.7293077   0.2629755   0.7485156  )
        26           O   tau(  26) = (   0.2706922   0.7951847   0.2514844  )
        27           O   tau(  27) = (   0.7706925   0.2661046   0.2485156  )
        28           O   tau(  28) = (   0.2293077   0.7920555   0.7514843  )
        29           O   tau(  29) = (   0.2706922   0.2629755   0.7514843  )
        30           O   tau(  30) = (   0.7293077   0.7951847   0.2485156  )
        31           O   tau(  31) = (   0.2293077   0.2661046   0.2514844  )
        32           O   tau(  32) = (   0.7706925   0.7920555   0.7485156  )

     number of k points=    64  gaussian smearing, width (Ry)=  0.0007
                       cart. coord. in units 2pi/alat
        k(    1) = (   0.0000000   0.0000000   0.0000000), wk =   0.0092593
        k(    2) = (   0.0000000   0.0000000   0.1666667), wk =   0.0185185
        k(    3) = (   0.0000000   0.0000000   0.3333333), wk =   0.0185185
        k(    4) = (   0.0000000   0.0000000  -0.5000000), wk =   0.0092593
        k(    5) = (   0.0000000   0.1575061   0.0000000), wk =   0.0185185
        k(    6) = (   0.0000000   0.1575061   0.1666667), wk =   0.0370370
        k(    7) = (   0.0000000   0.1575061   0.3333333), wk =   0.0370370
        k(    8) = (   0.0000000   0.1575061  -0.5000000), wk =   0.0185185
        k(    9) = (   0.0000000   0.3150122   0.0000000), wk =   0.0185185
        k(   10) = (   0.0000000   0.3150122   0.1666667), wk =   0.0370370
        k(   11) = (   0.0000000   0.3150122   0.3333333), wk =   0.0370370
        k(   12) = (   0.0000000   0.3150122  -0.5000000), wk =   0.0185185
        k(   13) = (   0.0000000  -0.4725183   0.0000000), wk =   0.0092593
        k(   14) = (   0.0000000  -0.4725183   0.1666667), wk =   0.0185185
        k(   15) = (   0.0000000  -0.4725183   0.3333333), wk =   0.0185185
        k(   16) = (   0.0000000  -0.4725183  -0.5000000), wk =   0.0092593
        k(   17) = (   0.1666667   0.0000000   0.1666667), wk =   0.0370370
        k(   18) = (   0.1666667   0.0000000   0.3333333), wk =   0.0370370
        k(   19) = (   0.1666667   0.0000000  -0.5000000), wk =   0.0185185
        k(   20) = (   0.1666667   0.1575061   0.1666667), wk =   0.0740741
        k(   21) = (   0.1666667   0.1575061   0.3333333), wk =   0.0740741
        k(   22) = (   0.1666667   0.1575061  -0.5000000), wk =   0.0370370
        k(   23) = (   0.1666667   0.3150122   0.1666667), wk =   0.0740741
        k(   24) = (   0.1666667   0.3150122   0.3333333), wk =   0.0740741
        k(   25) = (   0.1666667   0.3150122  -0.5000000), wk =   0.0370370
        k(   26) = (   0.1666667  -0.4725183   0.1666667), wk =   0.0370370
        k(   27) = (   0.1666667  -0.4725183   0.3333333), wk =   0.0370370
        k(   28) = (   0.1666667  -0.4725183  -0.5000000), wk =   0.0185185
        k(   29) = (   0.3333333   0.0000000   0.3333333), wk =   0.0370370
        k(   30) = (   0.3333333   0.0000000  -0.5000000), wk =   0.0185185
        k(   31) = (   0.3333333   0.1575061   0.3333333), wk =   0.0740741
        k(   32) = (   0.3333333   0.1575061  -0.5000000), wk =   0.0370370
        k(   33) = (   0.3333333   0.3150122   0.3333333), wk =   0.0740741
        k(   34) = (   0.3333333   0.3150122  -0.5000000), wk =   0.0370370
        k(   35) = (   0.3333333  -0.4725183   0.3333333), wk =   0.0370370
        k(   36) = (   0.3333333  -0.4725183  -0.5000000), wk =   0.0185185
        k(   37) = (  -0.5000000   0.0000000  -0.5000000), wk =   0.0092593
        k(   38) = (  -0.5000000   0.1575061  -0.5000000), wk =   0.0185185
        k(   39) = (  -0.5000000   0.3150122  -0.5000000), wk =   0.0185185
        k(   40) = (  -0.5000000  -0.4725183  -0.5000000), wk =   0.0092593
        k(   41) = (   0.1666667   0.0000000   0.0000000), wk =   0.0185185
        k(   42) = (   0.3333333   0.0000000   0.0000000), wk =   0.0185185
        k(   43) = (  -0.5000000   0.0000000   0.0000000), wk =   0.0092593
        k(   44) = (   0.1666667  -0.1575061   0.0000000), wk =   0.0370370
        k(   45) = (   0.3333333  -0.1575061   0.0000000), wk =   0.0370370
        k(   46) = (  -0.5000000  -0.1575061   0.0000000), wk =   0.0185185
        k(   47) = (   0.1666667  -0.3150122   0.0000000), wk =   0.0370370
        k(   48) = (   0.3333333  -0.3150122   0.0000000), wk =   0.0370370
        k(   49) = (  -0.5000000  -0.3150122   0.0000000), wk =   0.0185185
        k(   50) = (   0.1666667   0.4725183   0.0000000), wk =   0.0185185
        k(   51) = (   0.3333333   0.4725183   0.0000000), wk =   0.0185185
        k(   52) = (  -0.5000000   0.4725183   0.0000000), wk =   0.0092593
        k(   53) = (   0.3333333   0.0000000   0.1666667), wk =   0.0370370
        k(   54) = (  -0.5000000   0.0000000   0.1666667), wk =   0.0185185
        k(   55) = (   0.3333333  -0.1575061   0.1666667), wk =   0.0740741
        k(   56) = (  -0.5000000  -0.1575061   0.1666667), wk =   0.0370370
        k(   57) = (   0.3333333  -0.3150122   0.1666667), wk =   0.0740741
        k(   58) = (  -0.5000000  -0.3150122   0.1666667), wk =   0.0370370
        k(   59) = (   0.3333333   0.4725183   0.1666667), wk =   0.0370370
        k(   60) = (  -0.5000000   0.4725183   0.1666667), wk =   0.0185185
        k(   61) = (  -0.5000000   0.0000000   0.3333333), wk =   0.0185185
        k(   62) = (  -0.5000000  -0.1575061   0.3333333), wk =   0.0370370
        k(   63) = (  -0.5000000  -0.3150122   0.3333333), wk =   0.0370370
        k(   64) = (  -0.5000000   0.4725183   0.3333333), wk =   0.0185185

     Dense  grid:   498127 G-vectors     FFT dimensions: ( 100, 108, 100)

     Estimated max dynamical RAM per process >       3.15 GB

     Estimated total dynamical RAM >     125.81 GB

     Initial potential from superposition of free atoms

     starting charge  367.99656, renormalised to  368.00000
     Starting wfc are  232 randomized atomic wfcs

     total cpu time spent up to now is       65.4 secs

     Self-consistent Calculation

     iteration #  1     ecut=   120.00 Ry     beta= 0.70
     Davidson diagonalization with overlap
     ethr =  1.00E-02,  avg # of iterations =  5.2

     total cpu time spent up to now is      225.2 secs

     total energy              =   -6254.02564863 Ry
     Harris-Foulkes estimate   =   -6264.53277086 Ry
     estimated scf accuracy    <      13.34416375 Ry

     iteration #  2     ecut=   120.00 Ry     beta= 0.70
     Davidson diagonalization with overlap
     ethr =  3.63E-03,  avg # of iterations =  3.7

     total cpu time spent up to now is      380.6 secs

     total energy              =   -6251.19012377 Ry
     Harris-Foulkes estimate   =   -6270.21954743 Ry
     estimated scf accuracy    <      50.46574795 Ry

     iteration #  3     ecut=   120.00 Ry     beta= 0.70
     Davidson diagonalization with overlap
     ethr =  3.63E-03,  avg # of iterations =  3.7

     total cpu time spent up to now is      527.8 secs

     total energy              =   -6260.94612617 Ry
     Harris-Foulkes estimate   =   -6261.36139255 Ry
     estimated scf accuracy    <       1.30402988 Ry

     iteration #  4     ecut=   120.00 Ry     beta= 0.70
     Davidson diagonalization with overlap
     ethr =  3.54E-04,  avg # of iterations =  4.0

     total cpu time spent up to now is      650.2 secs

     total energy              =   -6260.99792061 Ry
     Harris-Foulkes estimate   =   -6261.08882108 Ry
     estimated scf accuracy    <       0.31427325 Ry

     iteration #  5     ecut=   120.00 Ry     beta= 0.70
     Davidson diagonalization with overlap
     ethr =  8.54E-05,  avg # of iterations =  3.2

     total cpu time spent up to now is      771.8 secs

     total energy              =   -6260.98105541 Ry
     Harris-Foulkes estimate   =   -6261.02525586 Ry
     estimated scf accuracy    <       0.09522434 Ry

     iteration #  6     ecut=   120.00 Ry     beta= 0.70
     Davidson diagonalization with overlap
     ethr =  2.59E-05,  avg # of iterations =  6.1

     total cpu time spent up to now is      912.8 secs

     total energy              =   -6261.00293605 Ry
     Harris-Foulkes estimate   =   -6261.00463554 Ry
     estimated scf accuracy    <       0.00509530 Ry

     iteration #  7     ecut=   120.00 Ry     beta= 0.70
     Davidson diagonalization with overlap
     ethr =  1.38E-06,  avg # of iterations =  6.0

     total cpu time spent up to now is     1038.1 secs

     total energy              =   -6261.00341292 Ry
     Harris-Foulkes estimate   =   -6261.00354111 Ry
     estimated scf accuracy    <       0.00031001 Ry

     iteration #  8     ecut=   120.00 Ry     beta= 0.70
     Davidson diagonalization with overlap
     ethr =  8.42E-08,  avg # of iterations =  3.2

     total cpu time spent up to now is     1181.7 secs

     total energy              =   -6261.00348287 Ry
     Harris-Foulkes estimate   =   -6261.00348959 Ry
     estimated scf accuracy    <       0.00001501 Ry

     iteration #  9     ecut=   120.00 Ry     beta= 0.70
     Davidson diagonalization with overlap
     ethr =  4.08E-09,  avg # of iterations =  2.9

     total cpu time spent up to now is     1317.8 secs

     total energy              =   -6261.00348610 Ry
     Harris-Foulkes estimate   =   -6261.00348783 Ry
     estimated scf accuracy    <       0.00000692 Ry

     iteration # 10     ecut=   120.00 Ry     beta= 0.70
     Davidson diagonalization with overlap
     ethr =  1.88E-09,  avg # of iterations =  2.0

     total cpu time spent up to now is     1437.8 secs

     total energy              =   -6261.00348568 Ry
     Harris-Foulkes estimate   =   -6261.00348658 Ry
     estimated scf accuracy    <       0.00000205 Ry

     iteration # 11     ecut=   120.00 Ry     beta= 0.70
     Davidson diagonalization with overlap
     ethr =  5.57E-10,  avg # of iterations =  2.5

     total cpu time spent up to now is     1569.0 secs

     total energy              =   -6261.00348610 Ry
     Harris-Foulkes estimate   =   -6261.00348612 Ry
     estimated scf accuracy    <       0.00000005 Ry

     iteration # 12     ecut=   120.00 Ry     beta= 0.70
     Davidson diagonalization with overlap
     ethr =  1.46E-11,  avg # of iterations =  2.0

     total cpu time spent up to now is     1708.9 secs

     total energy              =   -6261.00348611 Ry
     Harris-Foulkes estimate   =   -6261.00348611 Ry
     estimated scf accuracy    <       0.00000001 Ry

     iteration # 13     ecut=   120.00 Ry     beta= 0.70
     Davidson diagonalization with overlap
     ethr =  3.19E-12,  avg # of iterations =  2.0

     total cpu time spent up to now is     1840.6 secs

     End of self-consistent calculation

          k = 0.0000 0.0000 0.0000 ( 62239 PWs)   bands (ev):

   -66.1533 -66.1529 -66.1524 -66.1523 -66.1520 -66.1519 -66.1513 -66.1509
   -30.6092 -30.6087 -30.6057 -30.6052 -30.6026 -30.6020 -30.5995 -30.5989
   -30.4941 -30.4937 -30.4915 -30.4910 -30.4887 -30.4882 -30.4857 -30.4851
   -30.4475 -30.4420 -30.4419 -30.4365 -30.3886 -30.3836 -30.3836 -30.3786
   -20.2967 -20.2966 -20.2966 -20.2965 -20.2965 -20.2964 -20.2964 -20.2963
   -20.2725 -20.2722 -20.2720 -20.2719 -20.2711 -20.2711 -20.2710 -20.2708
   -20.2704 -20.2699 -20.2698 -20.2698 -20.2697 -20.2695 -20.2692 -20.2688
   -20.2688 -20.2687 -20.2682 -20.2679 -20.2648 -20.2644 -20.2643 -20.2633
   -20.2629 -20.2628 -20.2615 -20.2612 -20.2612 -20.2612 -20.2608 -20.2605
   -20.2600 -20.2600 -20.2597 -20.2596 -20.2588 -20.2588 -20.2579 -20.2578
   -20.2527 -20.2526 -20.2526 -20.2525 -20.2509 -20.2508 -20.2506 -20.2505
   -10.1795 -10.0192  -9.7881  -9.7842  -9.6774  -9.6721  -9.4419  -9.4247
    -8.8240  -8.7665  -8.7662  -8.7587  -7.7981  -7.7958  -7.7647  -7.7646
    -7.7257  -7.7243  -7.6968  -7.6962  -7.5858  -7.5256  -7.5246  -7.4699
     0.5553   0.5611   0.7642   0.7661   0.7724   0.7749   1.0391   1.0977
     1.7256   1.7588   1.7607   1.8424   2.0247   2.1070   2.5226   2.5227
     2.6477   2.6491   4.1055   4.1067   4.1157   4.1175   4.2873   4.2907
     4.3294   4.3323   4.9298   5.0998   5.1007   5.1315   5.1428   5.3737
     5.3742   5.5135   5.5239   5.5640   5.5652   5.5819   5.6049   5.6193
     5.8945   5.8978   5.9902   5.9927   6.1295   6.1397   6.1430   6.1806
     6.1875   6.2841   6.3251   6.4836   6.4905   6.6293   6.8453   7.0685
     7.0715   7.0789   7.0816   7.1030   7.1064   7.1354   7.1846   7.1901
     7.2158   7.2208   8.1365   8.1370   8.2360   8.2469   8.2558   8.2661
     9.0098   9.0394   9.4092   9.4107   9.4788   9.4791  12.2981  12.3102
    12.3653  12.3733  12.8214  12.8236  12.8400  12.8458  13.2075  13.2394
    13.2936  13.3073  13.8957  14.0719  14.1017  14.1215  14.2232  14.2461
    14.2840  14.3138  14.4230  14.9242  15.3962  15.4089  15.4162  16.5365
    16.5405  17.0517  17.5161  17.5165  17.5877

          k = 0.0000 0.0000 0.1667 ( 62262 PWs)   bands (ev):

   -66.1533 -66.1529 -66.1524 -66.1523 -66.1520 -66.1519 -66.1514 -66.1510
   -30.6081 -30.6051 -30.6024 -30.6013 -30.5994 -30.5984 -30.5951 -30.5920
   -30.5020 -30.4994 -30.4963 -30.4938 -30.4933 -30.4906 -30.4882 -30.4856
   -30.4471 -30.4422 -30.4416 -30.4368 -30.3882 -30.3839 -30.3833 -30.3789
   -20.2967 -20.2966 -20.2966 -20.2965 -20.2965 -20.2964 -20.2964 -20.2963
   -20.2725 -20.2722 -20.2718 -20.2717 -20.2711 -20.2710 -20.2710 -20.2707
   -20.2703 -20.2699 -20.2698 -20.2698 -20.2697 -20.2694 -20.2693 -20.2690
   -20.2688 -20.2686 -20.2683 -20.2680 -20.2648 -20.2644 -20.2643 -20.2634
   -20.2628 -20.2628 -20.2616 -20.2614 -20.2611 -20.2609 -20.2603 -20.2602
   -20.2599 -20.2598 -20.2598 -20.2597 -20.2584 -20.2583 -20.2580 -20.2580
   -20.2533 -20.2532 -20.2525 -20.2523 -20.2515 -20.2514 -20.2508 -20.2507
   -10.1234  -9.9614  -9.7943  -9.6891  -9.6797  -9.5726  -9.3937  -9.3753
    -8.8348  -8.7732  -8.7582  -8.7534  -7.9557  -7.9340  -7.8899  -7.8732
    -7.7921  -7.7601  -7.7306  -7.7009  -7.5812  -7.5297  -7.5208  -7.4736
     0.6707   0.6756   0.7732   0.7761   1.0693   1.0821   1.2158   1.3045
     1.7220   1.7550   1.7720   1.8747   2.1146   2.1967   2.5304   2.6165
     2.6389   2.7394   3.9462   4.0103   4.1036   4.1048   4.1408   4.1609
     4.3774   4.4061   4.6449   4.7327   4.9047   5.1047   5.1390   5.1625
     5.2889   5.3322   5.4401   5.5020   5.5325   5.5692   5.6629   5.7174
     5.8184   5.8894   5.9131   6.0398   6.1320   6.1370   6.1884   6.2539
     6.3125   6.3134   6.4794   6.5612   6.6441   6.7160   6.7938   6.8316
     6.8581   6.8678   6.9036   6.9468   7.0596   7.0890   7.0999   7.1065
     7.1915   7.2176   8.0742   8.0786   8.2006   8.2185   8.2508   8.2571
     9.4141   9.4195   9.4432   9.4829   9.7673   9.8226  12.3043  12.3719
    12.3723  12.4395  12.6362  12.6451  12.8783  12.8978  13.0060  13.0642
    13.2105  13.2922  13.9122  13.9939  14.0396  14.1193  14.1215  14.1326
    14.2731  14.4183  14.4784  15.0573  15.3673  15.5696  15.6087  16.5176
    16.9635  17.1161  17.1467  17.5680  17.6966

          k = 0.0000 0.0000 0.3333 ( 62268 PWs)   bands (ev):

   -66.1531 -66.1527 -66.1526 -66.1522 -66.1521 -66.1517 -66.1516 -66.1512
   -30.6069 -30.6038 -30.6036 -30.6005 -30.5807 -30.5778 -30.5745 -30.5716
   -30.5234 -30.5207 -30.5175 -30.5149 -30.4922 -30.4896 -30.4893 -30.4867
   -30.4460 -30.4431 -30.4405 -30.4376 -30.3873 -30.3847 -30.3823 -30.3798
   -20.2966 -20.2966 -20.2965 -20.2965 -20.2965 -20.2964 -20.2964 -20.2964
   -20.2724 -20.2723 -20.2713 -20.2711 -20.2710 -20.2710 -20.2708 -20.2705
   -20.2702 -20.2701 -20.2700 -20.2699 -20.2697 -20.2693 -20.2693 -20.2691
   -20.2687 -20.2687 -20.2684 -20.2683 -20.2647 -20.2644 -20.2641 -20.2636
   -20.2626 -20.2625 -20.2619 -20.2617 -20.2609 -20.2606 -20.2601 -20.2600
   -20.2595 -20.2595 -20.2589 -20.2589 -20.2584 -20.2584 -20.2570 -20.2570
   -20.2549 -20.2549 -20.2531 -20.2530 -20.2521 -20.2520 -20.2511 -20.2511
    -9.9992  -9.8422  -9.8269  -9.7040  -9.4140  -9.2721  -9.2246  -9.1875
    -8.8824  -8.8022  -8.7336  -8.7271  -8.3465  -8.3344  -8.3067  -8.2797
    -7.7795  -7.7477  -7.7438  -7.7135  -7.5703  -7.5407  -7.5108  -7.4837
     0.7569   0.7586   0.7749   0.7785   1.6314   1.6354   1.7143   1.7426
     1.9224   2.0486   2.0761   2.2355   2.3788   2.4595   2.5526   2.6159
     2.8788   2.9869   3.3568   3.4319   3.9204   4.0029   4.0968   4.1107
     4.1652   4.1888   4.4494   4.5779   4.6088   4.7209   4.7367   4.7888
     4.8183   5.0870   5.1245   5.1851   5.2546   5.2935   5.6087   5.8136
     5.9553   5.9949   6.0394   6.0873   6.1083   6.1710   6.1889   6.2170
     6.2797   6.3582   6.3875   6.4114   6.4686   6.5785   6.6251   6.8185
     6.8909   6.9778   7.0076   7.0084   7.0687   7.0741   7.1910   7.2107
     7.2341   7.2979   7.8672   7.8781   8.0425   8.0601   8.2603   8.2624
     9.4270   9.4603  10.2835  10.2871  10.5742  10.6026  12.0589  12.0664
    12.2136  12.3708  12.3781  12.5198  12.6062  12.6740  13.0601  13.0808
    13.2025  13.2935  13.5714  13.5998  13.7374  13.8313  14.1061  14.1132
    14.3250  14.4034  14.8179  15.2748  15.3746  15.9678  16.3207  16.4404
    16.4623  17.4156  17.7159  17.8730  17.9817

          k = 0.0000 0.0000-0.5000 ( 62264 PWs)   bands (ev):

   -66.1528 -66.1528 -66.1525 -66.1524 -66.1518 -66.1518 -66.1515 -66.1514
   -30.6053 -30.6052 -30.6022 -30.6021 -30.5522 -30.5522 -30.5494 -30.5494
   -30.5461 -30.5461 -30.5434 -30.5434 -30.4908 -30.4908 -30.4882 -30.4881
   -30.4445 -30.4445 -30.4390 -30.4390 -30.3859 -30.3859 -30.3810 -30.3810
   -20.2966 -20.2966 -20.2965 -20.2965 -20.2965 -20.2965 -20.2964 -20.2964
   -20.2723 -20.2723 -20.2710 -20.2710 -20.2707 -20.2707 -20.2704 -20.2704
   -20.2704 -20.2703 -20.2702 -20.2702 -20.2697 -20.2697 -20.2689 -20.2689
   -20.2687 -20.2687 -20.2685 -20.2685 -20.2645 -20.2645 -20.2639 -20.2638
   -20.2623 -20.2623 -20.2622 -20.2621 -20.2605 -20.2605 -20.2603 -20.2603
   -20.2590 -20.2590 -20.2590 -20.2589 -20.2570 -20.2570 -20.2570 -20.2570
   -20.2551 -20.2551 -20.2551 -20.2551 -20.2517 -20.2516 -20.2515 -20.2515
    -9.8912  -9.8911  -9.7525  -9.7525  -9.0652  -9.0652  -8.9433  -8.9433
    -8.8227  -8.8227  -8.8167  -8.8166  -8.6563  -8.6563  -8.6175  -8.6175
    -7.7617  -7.7617  -7.7307  -7.7307  -7.5556  -7.5555  -7.4973  -7.4973
     0.7735   0.7736   0.7774   0.7774   1.7030   1.7031   1.7220   1.7221
     2.5813   2.5813   2.7908   2.7908   2.8681   2.8681   3.0117   3.0117
     3.0478   3.0478   3.1050   3.1050   3.2282   3.2282   3.6255   3.6255
     3.6916   3.6916   4.1288   4.1288   4.6666   4.6666   4.8587   4.8587
     4.9173   4.9173   4.9672   4.9672   5.1563   5.1563   5.7653   5.7653
     6.0545   6.0545   6.0574   6.0574   6.0853   6.0853   6.2152   6.2153
     6.2593   6.2593   6.2816   6.2816   6.3475   6.3475   6.7249   6.7249
     6.9014   6.9015   7.0686   7.0686   7.2025   7.2025   7.4969   7.4969
     7.5003   7.5003   7.7278   7.7278   7.7536   7.7536   8.2633   8.2633
     9.4438   9.4439  11.2170  11.2170  11.2264  11.2264  11.4993  11.4993
    11.5144  11.5144  12.3773  12.3773  12.9922  12.9922  13.0743  13.0743
    13.2854  13.2854  13.3730  13.3730  13.4345  13.4345  14.1056  14.1056
    14.3750  14.3750  15.0998  15.0998  15.8560  15.8560  16.2773  16.2773
    17.2100  17.2100  17.8117  17.8117  17.9383

          k = 0.0000 0.1575 0.0000 ( 62231 PWs)   bands (ev):

   -66.1533 -66.1530 -66.1523 -66.1523 -66.1520 -66.1520 -66.1513 -66.1510
   -30.6090 -30.6085 -30.6059 -30.6053 -30.6024 -30.6018 -30.5997 -30.5991
   -30.4940 -30.4935 -30.4917 -30.4912 -30.4885 -30.4880 -30.4858 -30.4853
   -30.4436 -30.4381 -30.4381 -30.4327 -30.3926 -30.3876 -30.3875 -30.3826
   -20.2967 -20.2966 -20.2966 -20.2965 -20.2965 -20.2964 -20.2964 -20.2963
   -20.2724 -20.2721 -20.2720 -20.2718 -20.2712 -20.2711 -20.2710 -20.2708
   -20.2700 -20.2697 -20.2697 -20.2696 -20.2695 -20.2693 -20.2691 -20.2689
   -20.2687 -20.2685 -20.2683 -20.2680 -20.2652 -20.2647 -20.2647 -20.2637
   -20.2629 -20.2628 -20.2615 -20.2613 -20.2612 -20.2612 -20.2608 -20.2606
   -20.2600 -20.2600 -20.2596 -20.2596 -20.2588 -20.2588 -20.2579 -20.2578
   -20.2527 -20.2526 -20.2526 -20.2525 -20.2509 -20.2508 -20.2506 -20.2505
   -10.1645 -10.0267  -9.7761  -9.7721  -9.6820  -9.6768  -9.4407  -9.4259
    -8.7495  -8.7024  -8.7021  -8.6972  -7.7968  -7.7938  -7.7671  -7.7669
    -7.7245  -7.7225  -7.6993  -7.6982  -7.6859  -7.6306  -7.6296  -7.5803
     0.5557   0.5607   0.7663   0.7665   0.7746   0.7753   1.0595   1.0976
     1.9371   2.0006   2.0030   2.0301   2.0968   2.1014   2.5922   2.5929
     2.7153   2.7173   3.9128   3.9224   3.9472   3.9573   4.2901   4.2926
     4.3260   4.3292   4.7636   5.1274   5.1321   5.1911   5.1971   5.2859
     5.2922   5.3568   5.3616   5.5946   5.5948   5.6404   5.7005   5.7007
     5.8021   5.8748   5.8772   5.9852   5.9870   6.1504   6.1516   6.1771
     6.2139   6.3836   6.4220   6.5093   6.5149   6.6523   6.8337   6.8753
     6.8968   6.8974   7.0354   7.0383   7.1028   7.1045   7.1266   7.1266
     7.1416   7.1421   8.1371   8.1372   8.1806   8.1824   8.1895   8.1897
     9.0126   9.0381   9.6737   9.6771   9.7438   9.7475  12.1341  12.1467
    12.1965  12.2047  12.8296  12.8321  12.8405  12.8461  13.2459  13.2772
    13.3253  13.3389  14.0050  14.0907  14.1041  14.1334  14.1479  14.1629
    14.3965  14.6478  14.6770  15.0258  15.4092  15.4153  15.8211  16.4929
    16.4964  16.9903  17.1320  17.6563  17.6919

          k = 0.0000 0.1575 0.1667 ( 62237 PWs)   bands (ev):

   -66.1532 -66.1529 -66.1524 -66.1522 -66.1520 -66.1519 -66.1514 -66.1510
   -30.6079 -30.6053 -30.6022 -30.6011 -30.5996 -30.5986 -30.5949 -30.5922
   -30.5018 -30.4996 -30.4962 -30.4940 -30.4931 -30.4908 -30.4881 -30.4858
   -30.4432 -30.4383 -30.4377 -30.4329 -30.3922 -30.3878 -30.3872 -30.3828
   -20.2967 -20.2966 -20.2965 -20.2965 -20.2965 -20.2964 -20.2964 -20.2963
   -20.2724 -20.2722 -20.2718 -20.2716 -20.2712 -20.2711 -20.2710 -20.2707
   -20.2700 -20.2698 -20.2697 -20.2696 -20.2695 -20.2692 -20.2692 -20.2689
   -20.2688 -20.2685 -20.2683 -20.2681 -20.2652 -20.2647 -20.2646 -20.2638
   -20.2628 -20.2628 -20.2616 -20.2614 -20.2611 -20.2609 -20.2603 -20.2603
   -20.2599 -20.2598 -20.2598 -20.2597 -20.2584 -20.2583 -20.2580 -20.2580
   -20.2533 -20.2532 -20.2525 -20.2523 -20.2515 -20.2514 -20.2508 -20.2507
   -10.1080  -9.9689  -9.7819  -9.6845  -9.6760  -9.5772  -9.3924  -9.3765
    -8.7604  -8.7097  -8.6952  -8.6926  -7.9536  -7.9378  -7.8878  -7.8780
    -7.7904  -7.7622  -7.7293  -7.7028  -7.6812  -7.6329  -7.6261  -7.5818
     0.6712   0.6757   0.7756   0.7765   1.0762   1.0826   1.2494   1.3044
     1.9369   1.9957   2.0068   2.1089   2.1204   2.1909   2.5997   2.6893
     2.7069   2.8092   3.8899   3.9466   3.9660   3.9872   3.9984   4.0086
     4.3713   4.4020   4.6857   4.7391   4.7926   5.1284   5.1340   5.1782
     5.2457   5.2918   5.3088   5.3261   5.5267   5.5357   5.7204   5.7657
     5.8096   5.8822   5.9004   5.9668   6.0473   6.1552   6.1703   6.2206
     6.3100   6.3601   6.4092   6.5691   6.6590   6.7532   6.7854   6.8426
     6.8437   6.8575   6.8818   6.8873   6.8992   6.9015   7.0949   7.1116
     7.1149   7.1476   8.0767   8.0768   8.1457   8.1492   8.1828   8.1869
     9.4249   9.4442   9.6859   9.7439   9.9666  10.0268  12.1447  12.2030
    12.2120  12.2748  12.6399  12.6455  12.8863  12.8975  13.0459  13.0976
    13.2496  13.3231  13.9179  13.9380  13.9864  14.1015  14.1035  14.1593
    14.4689  14.6729  14.8361  15.1536  15.5688  15.6147  15.7932  16.4745
    16.9158  17.1032  17.1972  17.2225  17.7815

          k = 0.0000 0.1575 0.3333 ( 62284 PWs)   bands (ev):

   -66.1531 -66.1527 -66.1526 -66.1522 -66.1521 -66.1517 -66.1516 -66.1512
   -30.6067 -30.6040 -30.6034 -30.6007 -30.5805 -30.5780 -30.5743 -30.5718
   -30.5232 -30.5209 -30.5173 -30.5151 -30.4921 -30.4898 -30.4892 -30.4869
   -30.4421 -30.4392 -30.4366 -30.4338 -30.3912 -30.3886 -30.3862 -30.3837
   -20.2966 -20.2966 -20.2966 -20.2965 -20.2965 -20.2964 -20.2964 -20.2964
   -20.2723 -20.2722 -20.2713 -20.2711 -20.2711 -20.2710 -20.2707 -20.2704
   -20.2701 -20.2699 -20.2698 -20.2697 -20.2697 -20.2693 -20.2691 -20.2689
   -20.2687 -20.2685 -20.2684 -20.2683 -20.2650 -20.2648 -20.2645 -20.2640
   -20.2626 -20.2625 -20.2619 -20.2617 -20.2608 -20.2606 -20.2601 -20.2600
   -20.2595 -20.2595 -20.2590 -20.2589 -20.2584 -20.2584 -20.2570 -20.2570
   -20.2549 -20.2549 -20.2531 -20.2530 -20.2521 -20.2520 -20.2511 -20.2511
    -9.9836  -9.8492  -9.8138  -9.7092  -9.3954  -9.2768  -9.2208  -9.1893
    -8.8116  -8.7431  -8.6757  -8.6694  -8.3503  -8.3289  -8.3117  -8.2739
    -7.7779  -7.7498  -7.7424  -7.7155  -7.6710  -7.6428  -7.6166  -7.5906
     0.7590   0.7590   0.7775   0.7789   1.7834   1.8074   1.9226   1.9408
     1.9874   2.0756   2.1307   2.3093   2.3841   2.4531   2.6208   2.6853
     2.9546   3.0565   3.3589   3.4282   3.8861   3.9289   3.9458   4.0467
     4.1057   4.1756   4.4647   4.5697   4.5756   4.6156   4.6524   4.7236
     4.7457   5.0004   5.1281   5.1721   5.2148   5.3401   5.3666   5.8111
     5.8442   5.9081   5.9286   6.0515   6.0734   6.1140   6.1485   6.1907
     6.2858   6.3125   6.4283   6.4609   6.4757   6.5737   6.7848   6.8686
     6.8729   6.8912   6.9083   6.9875   7.0248   7.0818   7.0935   7.1987
     7.2378   7.3012   7.8741   7.8766   8.0007   8.0085   8.1867   8.1917
     9.6922   9.7294  10.2861  10.2906  10.6881  10.7249  12.0536  12.0667
    12.1160  12.2070  12.4244  12.4609  12.5031  12.5229  13.0701  13.0763
    13.2370  13.3204  13.4652  13.4908  13.7680  13.8253  14.0947  14.1077
    14.5833  14.6619  15.2119  15.4562  15.7046  15.9556  16.3552  16.4015
    16.5461  17.3895  17.4768  17.8992  17.9391

          k = 0.0000 0.1575-0.5000 ( 62234 PWs)   bands (ev):

   -66.1528 -66.1528 -66.1525 -66.1525 -66.1518 -66.1518 -66.1515 -66.1515
   -30.6051 -30.6050 -30.6024 -30.6024 -30.5520 -30.5520 -30.5496 -30.5496
   -30.5460 -30.5459 -30.5436 -30.5436 -30.4906 -30.4906 -30.4883 -30.4883
   -30.4406 -30.4406 -30.4352 -30.4352 -30.3899 -30.3899 -30.3849 -30.3849
   -20.2966 -20.2966 -20.2965 -20.2965 -20.2965 -20.2965 -20.2964 -20.2964
   -20.2722 -20.2722 -20.2711 -20.2711 -20.2706 -20.2706 -20.2703 -20.2703
   -20.2703 -20.2702 -20.2700 -20.2700 -20.2696 -20.2696 -20.2687 -20.2687
   -20.2687 -20.2686 -20.2686 -20.2686 -20.2649 -20.2649 -20.2642 -20.2642
   -20.2623 -20.2623 -20.2622 -20.2622 -20.2605 -20.2605 -20.2603 -20.2603
   -20.2590 -20.2590 -20.2590 -20.2589 -20.2570 -20.2570 -20.2570 -20.2570
   -20.2551 -20.2551 -20.2551 -20.2551 -20.2516 -20.2516 -20.2516 -20.2515
    -9.8767  -9.8767  -9.7584  -9.7584  -9.0241  -9.0241  -8.9204  -8.9204
    -8.8272  -8.8272  -8.8201  -8.8201  -8.6163  -8.6162  -8.5821  -8.5821
    -7.7603  -7.7603  -7.7327  -7.7327  -7.6569  -7.6569  -7.6036  -7.6036
     0.7762   0.7762   0.7778   0.7778   1.9190   1.9190   1.9750   1.9750
     2.6471   2.6471   2.7956   2.7956   2.8652   2.8653   3.0193   3.0193
     3.0457   3.0457   3.1377   3.1377   3.2234   3.2234   3.6669   3.6669
     3.7535   3.7535   3.9672   3.9672   4.4927   4.4927   4.7007   4.7007
     4.9065   4.9065   4.9517   4.9517   5.2089   5.2089   5.5128   5.5128
     5.9007   5.9007   6.0368   6.0369   6.1235   6.1235   6.1437   6.1437
     6.2760   6.2760   6.3013   6.3014   6.3866   6.3866   6.8749   6.8749
     6.9034   6.9035   7.0043   7.0044   7.0663   7.0663   7.4953   7.4953
     7.5257   7.5257   7.7083   7.7083   7.7291   7.7291   8.1906   8.1906
     9.7122   9.7122  11.2182  11.2182  11.2275  11.2275  11.5677  11.5677
    11.5843  11.5843  12.2134  12.2134  12.8824  12.8824  12.9455  12.9455
    13.2876  13.2876  13.3870  13.3871  13.4408  13.4409  14.0963  14.0963
    14.6369  14.6369  15.5119  15.5120  15.9460  15.9460  16.2478  16.2478
    17.2660  17.2660  17.7128  17.7129  17.8447

          k = 0.0000 0.3150 0.0000 ( 62175 PWs)   bands (ev):

   -66.1532 -66.1530 -66.1523 -66.1522 -66.1521 -66.1520 -66.1512 -66.1510
   -30.6085 -30.6081 -30.6063 -30.6058 -30.6018 -30.6012 -30.6003 -30.5997
   -30.4935 -30.4930 -30.4922 -30.4917 -30.4881 -30.4877 -30.4861 -30.4857
   -30.4329 -30.4275 -30.4274 -30.4221 -30.4034 -30.3983 -30.3983 -30.3932
   -20.2966 -20.2966 -20.2965 -20.2965 -20.2965 -20.2964 -20.2964 -20.2964
   -20.2722 -20.2719 -20.2718 -20.2716 -20.2713 -20.2713 -20.2712 -20.2710
   -20.2695 -20.2695 -20.2693 -20.2691 -20.2690 -20.2690 -20.2690 -20.2685
   -20.2684 -20.2684 -20.2682 -20.2676 -20.2663 -20.2657 -20.2657 -20.2648
   -20.2629 -20.2629 -20.2614 -20.2613 -20.2612 -20.2612 -20.2608 -20.2606
   -20.2600 -20.2600 -20.2596 -20.2596 -20.2588 -20.2588 -20.2579 -20.2578
   -20.2527 -20.2526 -20.2526 -20.2525 -20.2509 -20.2508 -20.2506 -20.2505
   -10.1273 -10.0492  -9.7483  -9.7439  -9.6959  -9.6909  -9.4376  -9.4290
    -8.5421  -8.5146  -8.5139  -8.5128  -7.9458  -7.9007  -7.8995  -7.8631
    -7.7882  -7.7881  -7.7727  -7.7718  -7.7174  -7.7174  -7.7035  -7.7031
     0.5567   0.5596   0.7675   0.7685   0.7763   0.7771   1.0833   1.0969
     2.0449   2.0861   2.5424   2.6626   2.6700   2.7664   2.7958   2.8303
     2.9124   2.9208   3.5146   3.5243   3.5928   3.6034   4.2243   4.2976
     4.3000   4.3171   4.3204   4.5860   4.5881   4.8964   5.2135   5.2158
     5.3280   5.3292   5.3571   5.3593   5.7064   5.7073   5.7445   5.7583
     5.7837   5.8641   5.8657   5.9679   5.9687   6.1820   6.1841   6.2055
     6.2590   6.2922   6.3565   6.3571   6.4264   6.4549   6.6156   6.6293
     6.6842   6.7940   7.0916   7.0945   7.1022   7.1046   7.2201   7.2201
     7.2596   7.2596   7.9603   7.9651   7.9727   7.9779   8.1378   8.1391
     9.0187   9.0334  10.2916  10.3004  10.3579  10.3652  11.6737  11.6863
    11.7318  11.7406  12.8388  12.8417  12.8420  12.8466  13.3662  13.3968
    13.4356  13.4496  13.8271  13.8712  13.8917  13.9108  14.1109  14.1290
    15.3260  15.3280  15.3720  15.3780  15.4100  15.4137  16.3389  16.3422
    16.3701  16.8819  17.2368  18.0537  18.0593

          k = 0.0000 0.3150 0.1667 ( 62260 PWs)   bands (ev):

   -66.1532 -66.1530 -66.1523 -66.1522 -66.1521 -66.1520 -66.1513 -66.1511
   -30.6073 -30.6058 -30.6017 -30.6006 -30.6001 -30.5991 -30.5943 -30.5928
   -30.5014 -30.5001 -30.4957 -30.4944 -30.4926 -30.4913 -30.4876 -30.4863
   -30.4325 -30.4277 -30.4271 -30.4224 -30.4031 -30.3985 -30.3979 -30.3935
   -20.2966 -20.2966 -20.2965 -20.2965 -20.2965 -20.2964 -20.2964 -20.2964
   -20.2721 -20.2719 -20.2716 -20.2714 -20.2713 -20.2713 -20.2710 -20.2709
   -20.2696 -20.2695 -20.2694 -20.2691 -20.2691 -20.2690 -20.2689 -20.2686
   -20.2685 -20.2684 -20.2682 -20.2676 -20.2662 -20.2657 -20.2656 -20.2649
   -20.2628 -20.2628 -20.2616 -20.2615 -20.2611 -20.2610 -20.2603 -20.2603
   -20.2599 -20.2598 -20.2597 -20.2597 -20.2584 -20.2583 -20.2580 -20.2580
   -20.2533 -20.2532 -20.2524 -20.2524 -20.2515 -20.2514 -20.2508 -20.2507
   -10.0702  -9.9913  -9.7532  -9.6989  -9.6459  -9.5913  -9.3889  -9.3798
    -8.5512  -8.5234  -8.5120  -8.5091  -7.9710  -7.9514  -7.9473  -7.9105
    -7.8964  -7.8820  -7.8736  -7.8236  -7.7831  -7.7680  -7.7222  -7.7082
     0.6723   0.6751   0.7775   0.7782   1.0830   1.0837   1.2851   1.3033
     2.1346   2.1756   2.5429   2.6315   2.6685   2.7676   2.8023   2.9046
     2.9255   3.0317   3.5229   3.5764   3.5966   3.6552   3.9751   3.9976
     4.2110   4.3734   4.3915   4.5630   4.6009   4.8197   4.8977   4.9643
     5.0832   5.2084   5.2841   5.3603   5.3633   5.4326   5.6560   5.7265
     5.8033   5.8647   5.8895   5.9993   6.0112   6.0304   6.1591   6.1868
     6.1919   6.2958   6.3395   6.4539   6.5117   6.6122   6.7048   6.8329
     6.8538   6.8740   6.8835   6.8966   6.9020   6.9472   7.2153   7.2284
     7.2537   7.2728   7.9389   7.9491   7.9596   7.9637   8.0803   8.0882
     9.4306   9.4419  10.3072  10.3613  10.4848  10.5471  11.6887  11.7380
    11.7666  11.8251  12.6444  12.6462  12.8953  12.8978  13.1720  13.2145
    13.3704  13.4320  13.6731  13.6987  13.8315  13.8870  14.0880  14.1011
    15.3515  15.3761  15.4350  15.5652  15.6312  15.6824  16.3242  16.4966
    16.7442  16.8528  17.3566  17.4478  18.0562

          k = 0.0000 0.3150 0.3333 ( 62269 PWs)   bands (ev):

   -66.1530 -66.1528 -66.1525 -66.1523 -66.1520 -66.1518 -66.1515 -66.1513
   -30.6061 -30.6046 -30.6029 -30.6013 -30.5800 -30.5785 -30.5737 -30.5723
   -30.5227 -30.5214 -30.5168 -30.5155 -30.4916 -30.4902 -30.4887 -30.4874
   -30.4314 -30.4286 -30.4260 -30.4233 -30.4020 -30.3994 -30.3969 -30.3943
   -20.2966 -20.2966 -20.2966 -20.2965 -20.2965 -20.2964 -20.2964 -20.2964
   -20.2721 -20.2719 -20.2714 -20.2713 -20.2710 -20.2708 -20.2706 -20.2705
   -20.2699 -20.2696 -20.2695 -20.2694 -20.2693 -20.2689 -20.2689 -20.2687
   -20.2686 -20.2683 -20.2681 -20.2677 -20.2661 -20.2658 -20.2655 -20.2650
   -20.2626 -20.2626 -20.2619 -20.2618 -20.2608 -20.2607 -20.2601 -20.2600
   -20.2595 -20.2595 -20.2590 -20.2589 -20.2584 -20.2584 -20.2570 -20.2570
   -20.2549 -20.2549 -20.2531 -20.2530 -20.2521 -20.2520 -20.2511 -20.2511
    -9.9459  -9.8700  -9.7830  -9.7247  -9.3552  -9.2915  -9.2121  -9.1946
    -8.6194  -8.5786  -8.5027  -8.4932  -8.3644  -8.3314  -8.3036  -8.2490
    -7.9283  -7.9022  -7.8842  -7.8582  -7.7704  -7.7555  -7.7352  -7.7210
     0.7599   0.7609   0.7798   0.7803   1.9026   1.9228   2.0177   2.0729
     2.3979   2.4375   2.5442   2.6175   2.6654   2.7809   2.8199   2.8848
     3.1922   3.2730   3.3529   3.4186   3.5716   3.5790   3.7145   3.7521
     4.1585   4.1955   4.3354   4.4022   4.4315   4.5308   4.5324   4.5894
     4.6186   4.7538   4.7885   4.9522   5.1452   5.1592   5.3040   5.3465
     5.4459   5.5133   5.8275   6.0257   6.0675   6.1336   6.1633   6.2149
     6.2731   6.4065   6.4785   6.4907   6.5265   6.5625   6.5861   6.6018
     6.7956   6.9152   7.1115   7.1245   7.1672   7.2386   7.2519   7.2663
     7.3087   7.3351   7.8393   7.8469   7.8475   7.8909   7.9696   8.0001
    10.2311  10.2869  10.3459  10.3764  11.0285  11.0757  11.6937  11.7302
    12.0552  12.0712  12.0722  12.1212  12.5751  12.6183  13.0704  13.0786
    13.1579  13.1948  13.3975  13.4274  13.7486  13.8248  13.8762  13.9275
    15.3578  15.3738  15.7450  15.9076  16.1440  16.2665  16.5178  16.7520
    16.8127  16.8493  17.6271  17.8024  17.8161

          k = 0.0000 0.3150-0.5000 ( 62306 PWs)   bands (ev):

   -66.1528 -66.1527 -66.1526 -66.1525 -66.1518 -66.1517 -66.1516 -66.1515
   -30.6045 -30.6045 -30.6029 -30.6029 -30.5515 -30.5515 -30.5501 -30.5501
   -30.5455 -30.5454 -30.5441 -30.5440 -30.4901 -30.4901 -30.4888 -30.4888
   -30.4300 -30.4299 -30.4246 -30.4246 -30.4007 -30.4007 -30.3956 -30.3956
   -20.2966 -20.2966 -20.2965 -20.2965 -20.2965 -20.2964 -20.2964 -20.2964
   -20.2720 -20.2720 -20.2714 -20.2713 -20.2704 -20.2704 -20.2701 -20.2701
   -20.2700 -20.2700 -20.2699 -20.2699 -20.2692 -20.2692 -20.2688 -20.2687
   -20.2684 -20.2684 -20.2679 -20.2679 -20.2659 -20.2659 -20.2653 -20.2652
   -20.2623 -20.2622 -20.2622 -20.2622 -20.2605 -20.2604 -20.2604 -20.2604
   -20.2590 -20.2590 -20.2590 -20.2590 -20.2570 -20.2570 -20.2570 -20.2570
   -20.2551 -20.2551 -20.2551 -20.2551 -20.2516 -20.2516 -20.2516 -20.2515
    -9.8424  -9.8424  -9.7761  -9.7761  -8.9393  -8.9393  -8.8780  -8.8780
    -8.8426  -8.8426  -8.8301  -8.8300  -8.4741  -8.4741  -8.4491  -8.4491
    -7.9157  -7.9157  -7.8725  -7.8725  -7.7529  -7.7529  -7.7383  -7.7383
     0.7787   0.7787   0.7791   0.7791   2.5174   2.5175   2.6176   2.6176
     2.8064   2.8064   2.8102   2.8102   2.8877   2.8877   3.0400   3.0401
     3.0506   3.0506   3.2049   3.2049   3.2224   3.2224   3.5603   3.5603
     3.8771   3.8771   3.9559   3.9559   4.0598   4.0598   4.2899   4.2899
     4.8622   4.8622   4.9012   4.9012   4.9328   4.9328   5.0903   5.0903
     5.4039   5.4040   5.9188   5.9188   6.2133   6.2133   6.2238   6.2238
     6.2970   6.2970   6.3056   6.3056   6.4459   6.4459   6.5859   6.5859
     7.1037   7.1038   7.1987   7.1987   7.2404   7.2404   7.4761   7.4761
     7.5688   7.5688   7.6294   7.6295   7.6472   7.6472   7.9795   7.9795
    10.3289  10.3289  11.2157  11.2157  11.2311  11.2311  11.6639  11.6639
    11.7950  11.7950  11.8891  11.8891  12.5558  12.5558  12.6096  12.6096
    13.3377  13.3377  13.3933  13.3934  13.4870  13.4870  13.8857  13.8857
    15.3668  15.3668  16.1436  16.1436  16.2183  16.2183  16.5416  16.5416
    17.2597  17.2597  17.4782  17.4782  17.9368

          k = 0.0000-0.4725 0.0000 ( 62212 PWs)   bands (ev):

   -66.1532 -66.1531 -66.1522 -66.1521 -66.1521 -66.1521 -66.1512 -66.1511
   -30.6080 -30.6080 -30.6064 -30.6063 -30.6011 -30.6010 -30.6005 -30.6005
   -30.4928 -30.4928 -30.4923 -30.4923 -30.4877 -30.4877 -30.4861 -30.4861
   -30.4182 -30.4182 -30.4130 -30.4129 -30.4129 -30.4129 -30.4077 -30.4077
   -20.2966 -20.2966 -20.2965 -20.2965 -20.2965 -20.2965 -20.2964 -20.2964
   -20.2719 -20.2719 -20.2716 -20.2716 -20.2714 -20.2714 -20.2713 -20.2713
   -20.2693 -20.2693 -20.2692 -20.2692 -20.2691 -20.2690 -20.2684 -20.2684
   -20.2677 -20.2677 -20.2671 -20.2671 -20.2671 -20.2671 -20.2662 -20.2662
   -20.2629 -20.2629 -20.2614 -20.2614 -20.2612 -20.2612 -20.2607 -20.2607
   -20.2600 -20.2600 -20.2596 -20.2596 -20.2588 -20.2588 -20.2579 -20.2578
   -20.2527 -20.2527 -20.2525 -20.2525 -20.2509 -20.2509 -20.2506 -20.2506
   -10.0846 -10.0846  -9.7188  -9.7188  -9.7140  -9.7140  -9.4333  -9.4333
    -8.2574  -8.2573  -8.2270  -8.2269  -8.2261  -8.2260  -8.2099  -8.2098
    -7.7822  -7.7822  -7.7787  -7.7787  -7.7106  -7.7106  -7.7103  -7.7103
     0.5582   0.5582   0.7686   0.7686   0.7773   0.7773   1.0936   1.0936
     2.0654   2.0654   3.1086   3.1086   3.1165   3.1166   3.2119   3.2119
     3.2166   3.2167   3.3977   3.3978   3.6155   3.6156   3.6167   3.6167
     3.8060   3.8061   4.3082   4.3082   4.3108   4.3108   5.2855   5.2855
     5.2877   5.2878   5.5791   5.5791   5.5822   5.5822   5.9209   5.9209
     5.9390   5.9390   5.9419   5.9419   5.9446   5.9446   6.0084   6.0084
     6.2599   6.2599   6.2758   6.2758   6.4215   6.4215   6.4271   6.4271
     6.7349   6.7350   7.1000   7.1000   7.1029   7.1029   7.6192   7.6192
     7.6197   7.6197   7.6218   7.6219   7.6227   7.6228   8.1385   8.1386
     9.0263   9.0263  11.0144  11.0144  11.0263  11.0264  11.0725  11.0725
    11.0862  11.0862  12.8420  12.8420  12.8459  12.8459  13.5709  13.5710
    13.6042  13.6042  13.6348  13.6349  13.6498  13.6499  14.1155  14.1155
    15.4114  15.4114  15.7922  15.7922  15.9950  15.9950  15.9994  15.9994
    16.3909  16.3909  17.7266  17.7267  18.1471

          k = 0.0000-0.4725 0.1667 ( 62246 PWs)   bands (ev):

   -66.1531 -66.1531 -66.1522 -66.1522 -66.1521 -66.1521 -66.1512 -66.1512
   -30.6066 -30.6066 -30.6009 -30.6009 -30.5999 -30.5998 -30.5936 -30.5935
   -30.5007 -30.5007 -30.4951 -30.4950 -30.4920 -30.4919 -30.4869 -30.4869
   -30.4178 -30.4178 -30.4132 -30.4131 -30.4126 -30.4125 -30.4080 -30.4080
   -20.2966 -20.2966 -20.2965 -20.2965 -20.2965 -20.2965 -20.2964 -20.2964
   -20.2718 -20.2718 -20.2716 -20.2716 -20.2712 -20.2712 -20.2712 -20.2711
   -20.2693 -20.2693 -20.2693 -20.2692 -20.2691 -20.2691 -20.2685 -20.2685
   -20.2676 -20.2676 -20.2671 -20.2671 -20.2670 -20.2670 -20.2663 -20.2663
   -20.2628 -20.2628 -20.2615 -20.2615 -20.2611 -20.2610 -20.2603 -20.2603
   -20.2599 -20.2598 -20.2597 -20.2597 -20.2584 -20.2583 -20.2580 -20.2580
   -20.2533 -20.2533 -20.2524 -20.2524 -20.2515 -20.2514 -20.2507 -20.2507
   -10.0269 -10.0269  -9.7226  -9.7226  -9.6148  -9.6148  -9.3843  -9.3843
    -8.2591  -8.2590  -8.2400  -8.2399  -8.2230  -8.2230  -8.2205  -8.2204
    -7.9365  -7.9365  -7.8718  -7.8718  -7.7758  -7.7758  -7.7154  -7.7154
     0.6737   0.6738   0.7784   0.7785   1.0845   1.0845   1.2990   1.2990
     2.1549   2.1550   3.1166   3.1166   3.1642   3.1642   3.2109   3.2109
     3.2754   3.2755   3.3946   3.3946   3.6100   3.6101   3.6444   3.6445
     3.8224   3.8225   3.9865   3.9865   4.3828   4.3828   4.9816   4.9816
     5.2116   5.2117   5.2587   5.2587   5.5160   5.5160   5.5896   5.5896
     5.8080   5.8080   5.9036   5.9037   5.9738   5.9738   6.2095   6.2095
     6.2465   6.2465   6.3064   6.3064   6.4177   6.4177   6.8002   6.8002
     6.8512   6.8512   6.8883   6.8883   6.9315   6.9315   7.6076   7.6076
     7.6115   7.6115   7.6158   7.6159   7.6259   7.6260   8.0829   8.0829
     9.4367   9.4367  11.0308  11.0308  11.0784  11.0785  11.1435  11.1435
    11.2022  11.2022  12.6462  12.6462  12.8980  12.8981  13.3895  13.3895
    13.4256  13.4257  13.5794  13.5794  13.6304  13.6304  14.0888  14.0889
    15.5489  15.5489  15.9382  15.9382  15.9900  15.9901  16.3479  16.3479
    16.5083  16.5084  17.7733  17.8101  17.8104

          k = 0.0000-0.4725 0.3333 ( 62268 PWs)   bands (ev):

   -66.1529 -66.1529 -66.1524 -66.1524 -66.1519 -66.1519 -66.1514 -66.1514
   -30.6053 -30.6053 -30.6021 -30.6021 -30.5793 -30.5792 -30.5730 -30.5730
   -30.5220 -30.5220 -30.5162 -30.5162 -30.4909 -30.4909 -30.4880 -30.4880
   -30.4168 -30.4167 -30.4140 -30.4140 -30.4115 -30.4115 -30.4089 -30.4088
   -20.2966 -20.2966 -20.2965 -20.2965 -20.2965 -20.2964 -20.2964 -20.2964
   -20.2717 -20.2717 -20.2716 -20.2716 -20.2707 -20.2707 -20.2706 -20.2706
   -20.2697 -20.2696 -20.2694 -20.2694 -20.2691 -20.2691 -20.2688 -20.2687
   -20.2675 -20.2674 -20.2672 -20.2672 -20.2669 -20.2668 -20.2664 -20.2664
   -20.2626 -20.2626 -20.2618 -20.2618 -20.2608 -20.2608 -20.2600 -20.2600
   -20.2595 -20.2595 -20.2590 -20.2589 -20.2584 -20.2584 -20.2570 -20.2570
   -20.2549 -20.2549 -20.2530 -20.2530 -20.2521 -20.2520 -20.2511 -20.2511
    -9.9038  -9.9038  -9.7502  -9.7502  -9.3175  -9.3175  -9.2026  -9.2026
    -8.4140  -8.4140  -8.4061  -8.4061  -8.2342  -8.2341  -8.2136  -8.2135
    -8.1787  -8.1786  -8.1395  -8.1395  -7.7632  -7.7632  -7.7283  -7.7283
     0.7609   0.7609   0.7807   0.7807   1.9204   1.9204   2.0627   2.0627
     2.4175   2.4175   3.1206   3.1206   3.1889   3.1889   3.2792   3.2792
     3.3687   3.3688   3.4161   3.4161   3.4247   3.4247   3.5842   3.5843
     3.7478   3.7479   3.8554   3.8554   4.3506   4.3506   4.5013   4.5013
     4.6074   4.6074   4.8136   4.8136   4.9551   4.9551   5.1555   5.1555
     5.6196   5.6196   5.7910   5.7910   6.0879   6.0879   6.2587   6.2587
     6.3469   6.3469   6.3939   6.3939   6.4999   6.4999   6.5536   6.5536
     6.8735   6.8735   7.2133   7.2134   7.2515   7.2515   7.5717   7.5717
     7.5757   7.5758   7.5846   7.5847   7.6445   7.6445   7.9052   7.9052
    10.2820  10.2820  11.0456  11.0457  11.0660  11.0660  11.5330  11.5330
    11.5898  11.5898  12.0694  12.0694  12.8341  12.8342  12.8733  12.8734
    13.0796  13.0796  13.5786  13.5786  13.6208  13.6208  13.8392  13.8392
    15.7733  15.7733  15.9645  15.9645  16.3135  16.3135  17.0634  17.0634
    17.1128  17.1128  17.2527  17.2527  18.0324

          k = 0.0000-0.4725-0.5000 ( 62284 PWs)   bands (ev):

   -66.1527 -66.1526 -66.1526 -66.1526 -66.1517 -66.1516 -66.1516 -66.1516
   -30.6037 -30.6037 -30.6037 -30.6037 -30.5508 -30.5508 -30.5508 -30.5508
   -30.5448 -30.5447 -30.5447 -30.5447 -30.4895 -30.4895 -30.4895 -30.4894
   -30.4154 -30.4153 -30.4153 -30.4153 -30.4102 -30.4101 -30.4101 -30.4101
   -20.2966 -20.2966 -20.2966 -20.2965 -20.2965 -20.2964 -20.2964 -20.2964
   -20.2717 -20.2717 -20.2717 -20.2716 -20.2702 -20.2702 -20.2702 -20.2701
   -20.2700 -20.2700 -20.2700 -20.2699 -20.2690 -20.2690 -20.2689 -20.2689
   -20.2673 -20.2673 -20.2673 -20.2673 -20.2666 -20.2666 -20.2666 -20.2666
   -20.2623 -20.2622 -20.2622 -20.2622 -20.2604 -20.2604 -20.2604 -20.2604
   -20.2590 -20.2590 -20.2590 -20.2590 -20.2570 -20.2570 -20.2570 -20.2570
   -20.2551 -20.2551 -20.2551 -20.2551 -20.2516 -20.2516 -20.2516 -20.2516
    -9.8053  -9.8052  -9.8052  -9.8052  -8.8757  -8.8757  -8.8757  -8.8757
    -8.8478  -8.8478  -8.8478  -8.8478  -8.2214  -8.2214  -8.2213  -8.2213
    -8.1919  -8.1918  -8.1918  -8.1918  -7.7458  -7.7458  -7.7458  -7.7458
     0.7795   0.7795   0.7795   0.7795   2.8202   2.8203   2.8203   2.8203
     2.9865   2.9866   2.9866   2.9866   3.1218   3.1218   3.1219   3.1219
     3.1911   3.1911   3.1911   3.1911   3.4164   3.4164   3.4164   3.4164
     3.6343   3.6343   3.6343   3.6343   4.2437   4.2437   4.2437   4.2437
     4.3388   4.3388   4.3388   4.3388   4.9118   4.9118   4.9118   4.9118
     5.6724   5.6725   5.6725   5.6725   6.2715   6.2716   6.2716   6.2716
     6.3158   6.3158   6.3158   6.3158   6.4020   6.4020   6.4020   6.4021
     7.3591   7.3591   7.3591   7.3591   7.4639   7.4639   7.4639   7.4639
     7.4968   7.4968   7.4968   7.4968   7.7033   7.7033   7.7034   7.7034
    11.0267  11.0267  11.0267  11.0267  11.2523  11.2523  11.2523  11.2523
    12.1441  12.1441  12.1441  12.1441  12.1965  12.1965  12.1965  12.1965
    13.3803  13.3804  13.3804  13.3804  13.6425  13.6425  13.6425  13.6425
    15.9038  15.9038  15.9038  15.9038  16.7342  16.7342  16.7342  16.7343
    17.7318  17.7319  17.7320  17.7320  17.9249

          k = 0.1667 0.0000 0.1667 ( 62234 PWs)   bands (ev):

   -66.1532 -66.1528 -66.1524 -66.1523 -66.1520 -66.1519 -66.1515 -66.1511
   -30.6013 -30.6007 -30.5978 -30.5973 -30.5954 -30.5949 -30.5925 -30.5919
   -30.5017 -30.5011 -30.4991 -30.4985 -30.4968 -30.4963 -30.4939 -30.4933
   -30.4467 -30.4418 -30.4418 -30.4370 -30.3879 -30.3835 -30.3835 -30.3792
   -20.2966 -20.2966 -20.2966 -20.2965 -20.2965 -20.2964 -20.2964 -20.2964
   -20.2723 -20.2720 -20.2718 -20.2717 -20.2711 -20.2710 -20.2709 -20.2706
   -20.2701 -20.2699 -20.2698 -20.2697 -20.2697 -20.2695 -20.2693 -20.2691
   -20.2688 -20.2686 -20.2684 -20.2681 -20.2647 -20.2643 -20.2643 -20.2635
   -20.2626 -20.2626 -20.2615 -20.2613 -20.2611 -20.2609 -20.2603 -20.2602
   -20.2599 -20.2598 -20.2595 -20.2594 -20.2585 -20.2585 -20.2577 -20.2576
   -20.2532 -20.2531 -20.2530 -20.2529 -20.2516 -20.2516 -20.2513 -20.2513
   -10.0618  -9.8960  -9.6995  -9.6959  -9.5802  -9.5752  -9.3510  -9.3335
    -8.8462  -8.7648  -8.7648  -8.7482  -7.9534  -7.9515  -7.9292  -7.9288
    -7.9118  -7.9028  -7.8763  -7.8492  -7.5767  -7.5258  -7.5249  -7.4774
     0.8725   0.8811   1.0701   1.0769   1.0835   1.0912   1.2961   1.4208
     1.7182   1.7665   1.7686   1.9080   2.2067   2.2889   2.6236   2.6237
     2.7195   2.7412   3.9933   3.9969   4.0776   4.0877   4.1195   4.1586
     4.1897   4.1962   4.5728   4.7150   4.7269   4.7674   4.9082   5.0707
     5.1796   5.1856   5.2897   5.4530   5.4609   5.5578   5.5610   5.7199
     5.7218   5.9063   5.9098   6.1713   6.1820   6.1989   6.2902   6.3241
     6.3293   6.4298   6.4529   6.5505   6.5514   6.6216   6.6404   6.6724
     6.9152   6.9245   6.9516   6.9604   6.9662   7.0012   7.0597   7.0900
     7.0945   7.1284   8.0254   8.0276   8.1943   8.2105   8.2189   8.2237
     9.7107   9.7257   9.7277   9.8081   9.8208   9.8473  12.3500  12.3904
    12.4385  12.4447  12.6909  12.6955  12.6996  12.7061  12.9902  13.0086
    13.0452  13.0805  13.9297  13.9410  14.0103  14.0148  14.0399  14.1163
    14.1835  14.4696  14.4982  15.2104  15.3384  15.8046  15.8106  16.9385
    16.9396  17.2335  17.2796  17.2814  17.6166

          k = 0.1667 0.0000 0.3333 ( 62265 PWs)   bands (ev):

   -66.1530 -66.1526 -66.1525 -66.1522 -66.1521 -66.1518 -66.1517 -66.1513
   -30.5994 -30.5963 -30.5961 -30.5931 -30.5803 -30.5774 -30.5749 -30.5720
   -30.5230 -30.5203 -30.5179 -30.5153 -30.5001 -30.4974 -30.4972 -30.4946
   -30.4456 -30.4426 -30.4407 -30.4379 -30.3869 -30.3843 -30.3826 -30.3800
   -20.2966 -20.2966 -20.2965 -20.2965 -20.2965 -20.2964 -20.2964 -20.2964
   -20.2722 -20.2721 -20.2713 -20.2711 -20.2710 -20.2709 -20.2707 -20.2704
   -20.2701 -20.2701 -20.2700 -20.2699 -20.2697 -20.2694 -20.2693 -20.2691
   -20.2688 -20.2686 -20.2684 -20.2683 -20.2646 -20.2644 -20.2641 -20.2636
   -20.2624 -20.2624 -20.2618 -20.2616 -20.2609 -20.2607 -20.2602 -20.2601
   -20.2592 -20.2592 -20.2588 -20.2588 -20.2581 -20.2580 -20.2572 -20.2572
   -20.2548 -20.2547 -20.2532 -20.2532 -20.2527 -20.2526 -20.2517 -20.2516
    -9.9214  -9.7554  -9.7301  -9.6001  -9.4256  -9.2801  -9.1974  -9.1670
    -8.8952  -8.7923  -8.7326  -8.7290  -8.3421  -8.3304  -8.3164  -8.2848
    -7.9391  -7.9164  -7.9045  -7.8823  -7.5660  -7.5367  -7.5149  -7.4875
     1.0545   1.0601   1.0792   1.0938   1.6313   1.6322   1.7101   1.7562
     1.9239   2.0475   2.0764   2.2404   2.4841   2.5657   2.6449   2.7055
     2.8835   2.9807   3.4283   3.5137   3.9313   3.9843   4.0763   4.1014
     4.1750   4.2176   4.3225   4.3340   4.4496   4.6409   4.6803   4.7117
     4.7616   4.7760   4.8358   4.9802   5.0263   5.2273   5.5284   5.5759
     5.7332   5.8751   5.9410   5.9717   6.0763   6.1292   6.2214   6.2689
     6.4305   6.4451   6.4915   6.5860   6.6119   6.6318   6.8135   6.8256
     6.8705   6.8849   6.9235   7.0004   7.0214   7.0901   7.0957   7.1165
     7.2308   7.3202   7.8470   7.8487   8.0457   8.0615   8.2139   8.2184
     9.7711   9.8058  10.4376  10.4545  10.5903  10.6055  12.1271  12.1352
    12.2552  12.3824  12.4440  12.5340  12.6109  12.6703  12.8761  12.8984
    12.9998  13.0697  13.5540  13.5922  13.6616  13.6977  14.0001  14.0251
    14.3134  14.4703  14.8011  15.2472  15.5534  16.3203  16.5136  16.6227
    16.8613  17.4802  17.6181  17.7530  17.9632

          k = 0.1667 0.0000-0.5000 ( 62322 PWs)   bands (ev):

   -66.1528 -66.1528 -66.1524 -66.1524 -66.1519 -66.1519 -66.1515 -66.1515
   -30.5978 -30.5977 -30.5947 -30.5947 -30.5518 -30.5518 -30.5490 -30.5490
   -30.5466 -30.5465 -30.5438 -30.5438 -30.4986 -30.4986 -30.4960 -30.4960
   -30.4441 -30.4440 -30.4393 -30.4392 -30.3856 -30.3856 -30.3813 -30.3812
   -20.2966 -20.2966 -20.2965 -20.2965 -20.2965 -20.2965 -20.2964 -20.2964
   -20.2721 -20.2721 -20.2709 -20.2709 -20.2707 -20.2707 -20.2704 -20.2704
   -20.2704 -20.2703 -20.2701 -20.2701 -20.2697 -20.2697 -20.2690 -20.2689
   -20.2687 -20.2687 -20.2686 -20.2685 -20.2645 -20.2645 -20.2639 -20.2639
   -20.2621 -20.2621 -20.2620 -20.2620 -20.2606 -20.2606 -20.2604 -20.2604
   -20.2586 -20.2586 -20.2586 -20.2586 -20.2569 -20.2569 -20.2569 -20.2569
   -20.2553 -20.2552 -20.2552 -20.2552 -20.2522 -20.2522 -20.2521 -20.2521
    -9.7996  -9.7996  -9.6520  -9.6519  -9.0794  -9.0794  -8.9283  -8.9282
    -8.8296  -8.8296  -8.8106  -8.8106  -8.6530  -8.6530  -8.6206  -8.6206
    -7.9221  -7.9221  -7.8996  -7.8996  -7.5514  -7.5514  -7.5013  -7.5012
     1.0772   1.0773   1.0920   1.0920   1.6985   1.6985   1.7336   1.7336
     2.6706   2.6706   2.8503   2.8504   2.9127   2.9127   3.0122   3.0122
     3.0472   3.0473   3.1481   3.1482   3.2576   3.2576   3.6356   3.6356
     3.6840   3.6840   4.1447   4.1447   4.6210   4.6210   4.6416   4.6416
     4.6627   4.6627   4.7241   4.7241   4.9410   4.9410   5.6451   5.6451
     5.6825   5.6825   5.7887   5.7887   6.2154   6.2154   6.2455   6.2455
     6.3631   6.3631   6.5500   6.5500   6.6455   6.6455   6.7089   6.7089
     6.8940   6.8941   6.9620   6.9620   7.0786   7.0786   7.4978   7.4978
     7.5191   7.5191   7.7279   7.7279   7.7584   7.7584   8.2176   8.2176
     9.7896   9.7896  11.3108  11.3108  11.3227  11.3227  11.5065  11.5065
    11.5238  11.5238  12.4448  12.4449  12.9051  12.9051  13.0639  13.0639
    13.1495  13.1495  13.2360  13.2360  13.2673  13.2673  14.0101  14.0101
    14.4141  14.4141  15.0757  15.0758  16.0292  16.0292  16.6849  16.6850
    17.4005  17.4005  17.8343  17.8343  17.9189

          k = 0.1667 0.1575 0.1667 ( 62255 PWs)   bands (ev):

   -66.1532 -66.1528 -66.1523 -66.1523 -66.1520 -66.1520 -66.1514 -66.1511
   -30.6011 -30.6005 -30.5980 -30.5975 -30.5952 -30.5947 -30.5927 -30.5921
   -30.5015 -30.5010 -30.4993 -30.4987 -30.4967 -30.4962 -30.4940 -30.4935
   -30.4428 -30.4380 -30.4379 -30.4332 -30.3919 -30.3875 -30.3874 -30.3831
   -20.2966 -20.2966 -20.2966 -20.2965 -20.2965 -20.2964 -20.2964 -20.2964
   -20.2722 -20.2719 -20.2717 -20.2716 -20.2710 -20.2710 -20.2709 -20.2707
   -20.2699 -20.2698 -20.2697 -20.2696 -20.2694 -20.2693 -20.2693 -20.2691
   -20.2688 -20.2684 -20.2684 -20.2681 -20.2651 -20.2647 -20.2646 -20.2638
   -20.2626 -20.2626 -20.2615 -20.2613 -20.2611 -20.2609 -20.2603 -20.2602
   -20.2599 -20.2598 -20.2595 -20.2594 -20.2585 -20.2585 -20.2577 -20.2576
   -20.2532 -20.2531 -20.2530 -20.2529 -20.2516 -20.2516 -20.2513 -20.2513
   -10.0458  -9.9036  -9.6861  -9.6823  -9.5850  -9.5800  -9.3499  -9.3347
    -8.7719  -8.7025  -8.7023  -8.6879  -7.9518  -7.9493  -7.9328  -7.9325
    -7.9096  -7.9092  -7.8746  -7.8511  -7.6769  -7.6294  -7.6285  -7.5836
     0.8730   0.8805   1.0772   1.0838   1.0845   1.0917   1.3447   1.4206
     1.9361   1.9998   2.0019   2.1209   2.2120   2.2845   2.6957   2.6962
     2.7920   2.8086   3.9196   3.9282   3.9679   4.0174   4.0758   4.0802
     4.0896   4.0907   4.6111   4.6960   4.7848   4.8063   4.8175   5.0435
     5.1436   5.2030   5.2375   5.2479   5.3088   5.5320   5.5348   5.7204
     5.7263   5.8185   6.0189   6.0222   6.1169   6.2265   6.2649   6.3276
     6.3396   6.3894   6.4216   6.4456   6.4734   6.6330   6.6474   6.7313
     6.7798   6.9034   6.9085   6.9331   6.9428   6.9713   7.0709   7.1124
     7.1153   7.1422   8.0244   8.0269   8.1318   8.1429   8.1493   8.1630
     9.7205   9.7323   9.9387  10.0039  10.0259  10.0362  12.1932  12.2365
    12.2737  12.2796  12.6920  12.6972  12.7020  12.7074  13.0312  13.0485
    13.0765  13.1115  13.8866  13.8938  13.9165  13.9355  14.0234  14.0626
    14.5331  14.8293  14.8388  15.3082  15.7651  15.8056  15.8103  16.8924
    16.8940  17.1897  17.3063  17.3450  17.3454

          k = 0.1667 0.1575 0.3333 ( 62260 PWs)   bands (ev):

   -66.1530 -66.1527 -66.1525 -66.1522 -66.1521 -66.1518 -66.1516 -66.1513
   -30.5992 -30.5965 -30.5959 -30.5933 -30.5801 -30.5776 -30.5747 -30.5722
   -30.5228 -30.5205 -30.5177 -30.5155 -30.4999 -30.4976 -30.4970 -30.4947
   -30.4417 -30.4388 -30.4369 -30.4340 -30.3909 -30.3883 -30.3865 -30.3839
   -20.2966 -20.2966 -20.2965 -20.2965 -20.2965 -20.2964 -20.2964 -20.2964
   -20.2721 -20.2720 -20.2712 -20.2710 -20.2710 -20.2709 -20.2707 -20.2704
   -20.2701 -20.2700 -20.2698 -20.2697 -20.2696 -20.2693 -20.2692 -20.2690
   -20.2689 -20.2685 -20.2684 -20.2684 -20.2650 -20.2647 -20.2645 -20.2640
   -20.2624 -20.2624 -20.2618 -20.2616 -20.2609 -20.2607 -20.2602 -20.2601
   -20.2592 -20.2592 -20.2588 -20.2588 -20.2581 -20.2580 -20.2572 -20.2572
   -20.2548 -20.2547 -20.2532 -20.2532 -20.2527 -20.2526 -20.2517 -20.2517
    -9.9046  -9.7626  -9.7156  -9.6053  -9.4067  -9.2849  -9.1945  -9.1686
    -8.8249  -8.7344  -8.6755  -8.6713  -8.3459  -8.3249  -8.3217  -8.2787
    -7.9370  -7.9201  -7.9025  -7.8858  -7.6669  -7.6391  -7.6189  -7.5927
     1.0593   1.0608   1.0868   1.0943   1.7829   1.8042   1.9239   1.9371
     1.9916   2.0761   2.1278   2.3074   2.4889   2.5633   2.7153   2.7774
     2.9582   3.0502   3.4296   3.5104   3.9032   3.9446   3.9536   4.0610
     4.1230   4.1666   4.2863   4.3131   4.4649   4.5874   4.6285   4.6886
     4.7108   4.7471   4.7915   4.9524   5.0398   5.0459   5.3064   5.5567
     5.7314   5.7587   5.8345   5.8759   5.9672   6.0435   6.1890   6.2585
     6.2769   6.4574   6.4976   6.6187   6.6362   6.7014   6.7321   6.7761
     6.8375   6.9074   7.0071   7.0161   7.0578   7.0697   7.1414   7.1630
     7.2346   7.3229   7.8426   7.8520   7.9978   8.0095   8.1464   8.1536
     9.9715  10.0120  10.4443  10.4617  10.7013  10.7241  12.1210  12.1335
    12.1791  12.2858  12.4290  12.4519  12.5149  12.5253  12.8742  12.9005
    13.0415  13.0916  13.4562  13.4777  13.6570  13.6863  13.9249  13.9507
    14.6789  14.8172  15.1979  15.6164  15.6970  16.3121  16.5303  16.6951
    16.8203  17.4372  17.5375  17.6574  17.8876

          k = 0.1667 0.1575-0.5000 ( 62292 PWs)   bands (ev):

   -66.1528 -66.1527 -66.1524 -66.1524 -66.1519 -66.1519 -66.1516 -66.1515
   -30.5975 -30.5975 -30.5949 -30.5949 -30.5516 -30.5516 -30.5492 -30.5492
   -30.5464 -30.5463 -30.5440 -30.5440 -30.4985 -30.4984 -30.4962 -30.4962
   -30.4402 -30.4402 -30.4354 -30.4354 -30.3895 -30.3895 -30.3852 -30.3852
   -20.2966 -20.2966 -20.2965 -20.2965 -20.2965 -20.2965 -20.2964 -20.2964
   -20.2720 -20.2720 -20.2710 -20.2710 -20.2706 -20.2706 -20.2703 -20.2703
   -20.2703 -20.2702 -20.2700 -20.2699 -20.2696 -20.2696 -20.2689 -20.2689
   -20.2687 -20.2687 -20.2685 -20.2685 -20.2649 -20.2648 -20.2643 -20.2642
   -20.2621 -20.2621 -20.2620 -20.2620 -20.2606 -20.2606 -20.2605 -20.2604
   -20.2586 -20.2586 -20.2586 -20.2586 -20.2569 -20.2569 -20.2569 -20.2569
   -20.2553 -20.2552 -20.2552 -20.2552 -20.2522 -20.2522 -20.2521 -20.2521
    -9.7837  -9.7837  -9.6580  -9.6580  -9.0382  -9.0381  -8.9071  -8.9071
    -8.8343  -8.8343  -8.8134  -8.8134  -8.6129  -8.6129  -8.5857  -8.5857
    -7.9202  -7.9202  -7.9033  -7.9032  -7.6530  -7.6530  -7.6058  -7.6058
     1.0849   1.0849   1.0924   1.0924   1.9191   1.9191   1.9742   1.9742
     2.7365   2.7365   2.8555   2.8555   2.9141   2.9141   3.0202   3.0202
     3.0464   3.0464   3.1769   3.1769   3.2531   3.2531   3.6777   3.6777
     3.7462   3.7462   4.0008   4.0008   4.4802   4.4802   4.6062   4.6063
     4.6353   4.6353   4.7187   4.7187   4.8319   4.8319   5.4525   5.4525
     5.6333   5.6333   5.7881   5.7881   5.9061   5.9061   6.2424   6.2424
     6.4363   6.4363   6.5833   6.5833   6.6211   6.6211   6.7377   6.7377
     6.8880   6.8880   7.0313   7.0313   7.0995   7.0995   7.4926   7.4927
     7.5286   7.5286   7.7046   7.7047   7.7341   7.7341   8.1509   8.1509
     9.9943   9.9943  11.3114  11.3114  11.3265  11.3265  11.5741  11.5741
    11.5930  11.5930  12.2834  12.2834  12.8532  12.8533  12.9378  12.9378
    13.0976  13.0976  13.2405  13.2405  13.2684  13.2684  13.9322  13.9322
    14.7706  14.7706  15.4908  15.4908  16.1108  16.1108  16.6553  16.6553
    17.4381  17.4382  17.7373  17.7373  17.8552

          k = 0.1667 0.3150 0.1667 ( 62249 PWs)   bands (ev):

   -66.1531 -66.1529 -66.1523 -66.1522 -66.1521 -66.1520 -66.1514 -66.1512
   -30.6006 -30.6002 -30.5984 -30.5980 -30.5947 -30.5941 -30.5932 -30.5926
   -30.5010 -30.5005 -30.4998 -30.4991 -30.4963 -30.4959 -30.4942 -30.4939
   -30.4321 -30.4274 -30.4273 -30.4227 -30.4027 -30.3982 -30.3982 -30.3938
   -20.2966 -20.2966 -20.2965 -20.2965 -20.2965 -20.2964 -20.2964 -20.2964
   -20.2719 -20.2717 -20.2716 -20.2714 -20.2711 -20.2711 -20.2710 -20.2708
   -20.2696 -20.2695 -20.2695 -20.2692 -20.2691 -20.2690 -20.2689 -20.2687
   -20.2685 -20.2683 -20.2682 -20.2677 -20.2662 -20.2657 -20.2657 -20.2649
   -20.2626 -20.2626 -20.2615 -20.2614 -20.2611 -20.2610 -20.2603 -20.2603
   -20.2599 -20.2598 -20.2595 -20.2595 -20.2585 -20.2585 -20.2577 -20.2576
   -20.2532 -20.2531 -20.2530 -20.2530 -20.2516 -20.2516 -20.2513 -20.2513
   -10.0067  -9.9262  -9.6554  -9.6512  -9.5994  -9.5946  -9.3467  -9.3379
    -8.5625  -8.5184  -8.5179  -8.5096  -7.9827  -7.9645  -7.9628  -7.9431
    -7.9401  -7.9204  -7.9037  -7.8743  -7.8709  -7.8646  -7.8550  -7.8179
     0.8744   0.8787   1.0842   1.0850   1.0917   1.0928   1.3949   1.4191
     2.2265   2.2662   2.5433   2.6313   2.6356   2.7447   2.9226   2.9293
     3.0063   3.0353   3.5714   3.5822   3.6282   3.6807   4.0518   4.0544
     4.0733   4.0757   4.1989   4.5741   4.5767   4.7514   4.8779   4.9279
     4.9653   4.9689   5.0162   5.0977   5.2528   5.3787   5.4357   5.4375
     5.7419   5.7439   5.8386   5.8499   5.9805   5.9835   6.2150   6.2192
     6.3186   6.3292   6.3605   6.4504   6.4622   6.6886   6.6944   6.7367
     6.8923   6.8977   6.9438   6.9560   6.9794   6.9986   7.2091   7.2406
     7.2652   7.2680   7.9302   7.9327   7.9411   7.9426   8.0307   8.0470
     9.7254   9.7356  10.4623  10.5207  10.5488  10.5515  11.7496  11.7974
    11.8248  11.8297  12.6930  12.6984  12.7055  12.7100  13.1591  13.1737
    13.1916  13.2272  13.6555  13.6682  13.6821  13.7023  14.0121  14.0152
    15.4790  15.6127  15.6246  15.6313  15.8086  15.8092  16.5985  16.7255
    16.7281  16.8248  17.4392  17.5097  17.5407

          k = 0.1667 0.3150 0.3333 ( 62265 PWs)   bands (ev):

   -66.1529 -66.1527 -66.1524 -66.1522 -66.1521 -66.1519 -66.1516 -66.1514
   -30.5986 -30.5971 -30.5954 -30.5939 -30.5796 -30.5781 -30.5742 -30.5727
   -30.5223 -30.5210 -30.5172 -30.5159 -30.4994 -30.4981 -30.4965 -30.4952
   -30.4310 -30.4282 -30.4263 -30.4235 -30.4017 -30.3990 -30.3972 -30.3946
   -20.2966 -20.2966 -20.2965 -20.2965 -20.2965 -20.2964 -20.2964 -20.2964
   -20.2719 -20.2717 -20.2713 -20.2711 -20.2709 -20.2708 -20.2706 -20.2704
   -20.2699 -20.2697 -20.2695 -20.2694 -20.2694 -20.2690 -20.2689 -20.2688
   -20.2686 -20.2682 -20.2681 -20.2677 -20.2660 -20.2657 -20.2655 -20.2651
   -20.2624 -20.2624 -20.2617 -20.2617 -20.2609 -20.2608 -20.2602 -20.2601
   -20.2592 -20.2592 -20.2588 -20.2588 -20.2581 -20.2580 -20.2572 -20.2572
   -20.2548 -20.2548 -20.2532 -20.2532 -20.2527 -20.2526 -20.2517 -20.2517
    -9.8641  -9.7842  -9.6823  -9.6211  -9.3655  -9.3000  -9.1877  -9.1732
    -8.6343  -8.5721  -8.5012  -8.4991  -8.3600  -8.3428  -8.3000  -8.2528
    -7.9536  -7.9400  -7.9224  -7.9065  -7.9027  -7.8878  -7.8606  -7.8339
     1.0621   1.0633   1.0943   1.0953   1.9041   1.9243   2.0178   2.0740
     2.5016   2.5256   2.5467   2.6178   2.6352   2.7625   2.9354   3.0005
     3.1907   3.2669   3.4197   3.5038   3.6181   3.6261   3.7332   3.7637
     4.1496   4.1888   4.2663   4.2730   4.3462   4.3997   4.4678   4.5344
     4.5468   4.7304   4.7624   4.8226   4.9187   4.9652   4.9702   5.1324
     5.2952   5.4119   5.4596   5.6967   5.7539   5.9700   5.9766   6.0406
     6.3586   6.4578   6.5669   6.6761   6.7226   6.7656   6.8097   6.8242
     6.9151   6.9652   7.1065   7.1247   7.1731   7.2315   7.2632   7.2836
     7.3289   7.3300   7.8083   7.8391   7.8499   7.8628   7.9447   7.9765
    10.3956  10.4492  10.5336  10.5618  11.0402  11.0738  11.7797  11.8159
    12.0691  12.1059  12.1307  12.1594  12.5800  12.6143  12.8736  12.9042
    13.1304  13.1863  13.1933  13.2294  13.6009  13.6590  13.7074  13.7704
    15.5773  15.6231  15.8923  16.1362  16.2749  16.6133  16.6781  16.7258
    16.9177  16.9206  17.6377  17.6743  17.7520

          k = 0.1667 0.3150-0.5000 ( 62264 PWs)   bands (ev):

   -66.1527 -66.1527 -66.1525 -66.1525 -66.1518 -66.1518 -66.1516 -66.1516
   -30.5970 -30.5970 -30.5955 -30.5954 -30.5511 -30.5511 -30.5497 -30.5497
   -30.5459 -30.5458 -30.5445 -30.5445 -30.4980 -30.4979 -30.4967 -30.4966
   -30.4296 -30.4295 -30.4249 -30.4249 -30.4003 -30.4003 -30.3959 -30.3959
   -20.2966 -20.2966 -20.2965 -20.2965 -20.2965 -20.2964 -20.2964 -20.2964
   -20.2718 -20.2718 -20.2712 -20.2711 -20.2704 -20.2704 -20.2702 -20.2701
   -20.2701 -20.2700 -20.2699 -20.2699 -20.2692 -20.2692 -20.2689 -20.2689
   -20.2684 -20.2684 -20.2679 -20.2679 -20.2659 -20.2659 -20.2653 -20.2653
   -20.2621 -20.2621 -20.2621 -20.2620 -20.2606 -20.2605 -20.2605 -20.2605
   -20.2586 -20.2586 -20.2586 -20.2586 -20.2569 -20.2569 -20.2569 -20.2569
   -20.2553 -20.2552 -20.2552 -20.2552 -20.2522 -20.2522 -20.2522 -20.2521
    -9.7464  -9.7464  -9.6763  -9.6763  -8.9524  -8.9524  -8.8703  -8.8702
    -8.8484  -8.8484  -8.8221  -8.8221  -8.4709  -8.4709  -8.4547  -8.4547
    -7.9410  -7.9410  -7.9161  -7.9161  -7.9017  -7.9017  -7.8477  -7.8477
     1.0922   1.0922   1.0934   1.0935   2.5187   2.5187   2.5950   2.5951
     2.8594   2.8594   2.8797   2.8797   2.9731   2.9731   3.0478   3.0478
     3.0547   3.0547   3.2347   3.2347   3.2543   3.2543   3.6141   3.6141
     3.8834   3.8834   3.9489   3.9489   4.0571   4.0571   4.2959   4.2959
     4.5960   4.5960   4.6350   4.6350   4.8770   4.8770   4.9823   4.9823
     5.0852   5.0852   5.5213   5.5213   5.8015   5.8015   5.9804   5.9805
     6.5369   6.5369   6.6184   6.6184   6.6560   6.6560   6.8297   6.8297
     7.1095   7.1095   7.1948   7.1948   7.2664   7.2664   7.4730   7.4730
     7.5631   7.5632   7.6236   7.6236   7.6530   7.6530   7.9551   7.9552
    10.5132  10.5132  11.3100  11.3100  11.3307  11.3307  11.7248  11.7248
    11.8059  11.8059  11.9146  11.9146  12.5591  12.5591  12.6039  12.6039
    13.1308  13.1308  13.2446  13.2446  13.2976  13.2976  13.6996  13.6996
    15.6095  15.6095  16.3405  16.3405  16.5173  16.5174  16.5509  16.5509
    17.3137  17.3137  17.5888  17.5890  17.9051

          k = 0.1667-0.4725 0.1667 ( 62220 PWs)   bands (ev):

   -66.1530 -66.1530 -66.1522 -66.1521 -66.1521 -66.1521 -66.1513 -66.1513
   -30.6001 -30.6001 -30.5985 -30.5984 -30.5940 -30.5940 -30.5934 -30.5934
   -30.5004 -30.5004 -30.4998 -30.4998 -30.4959 -30.4959 -30.4943 -30.4942
   -30.4174 -30.4174 -30.4129 -30.4128 -30.4128 -30.4128 -30.4083 -30.4082
   -20.2966 -20.2966 -20.2965 -20.2965 -20.2965 -20.2965 -20.2964 -20.2964
   -20.2717 -20.2717 -20.2714 -20.2714 -20.2712 -20.2712 -20.2711 -20.2711
   -20.2694 -20.2694 -20.2693 -20.2693 -20.2692 -20.2692 -20.2686 -20.2686
   -20.2676 -20.2675 -20.2671 -20.2670 -20.2670 -20.2670 -20.2663 -20.2663
   -20.2626 -20.2626 -20.2614 -20.2614 -20.2611 -20.2610 -20.2603 -20.2603
   -20.2599 -20.2598 -20.2595 -20.2595 -20.2585 -20.2585 -20.2577 -20.2576
   -20.2532 -20.2532 -20.2530 -20.2530 -20.2516 -20.2516 -20.2513 -20.2513
    -9.9624  -9.9624  -9.6235  -9.6235  -9.6190  -9.6190  -9.3423  -9.3423
    -8.2658  -8.2657  -8.2369  -8.2366  -8.2359  -8.2357  -8.2275  -8.2272
    -7.9337  -7.9334  -7.9306  -7.9305  -7.8881  -7.8880  -7.8627  -7.8626
     0.8765   0.8766   1.0857   1.0858   1.0934   1.0935   1.4133   1.4134
     2.2463   2.2464   3.1638   3.1648   3.1695   3.1725   3.2376   3.2406
     3.3051   3.3061   3.3930   3.3930   3.6364   3.6382   3.6386   3.6403
     3.8357   3.8358   4.0569   4.0595   4.0678   4.0702   4.9077   4.9109
     5.0300   5.0321   5.2081   5.2135   5.2172   5.2213   5.4268   5.4299
     5.5570   5.5585   5.7925   5.7986   5.8025   5.8066   6.2616   6.2639
     6.3088   6.3142   6.4510   6.4546   6.5350   6.5351   6.7912   6.7943
     6.7950   6.7985   6.9527   6.9538   7.0204   7.0206   7.5952   7.5955
     7.6071   7.6090   7.6150   7.6169   7.6189   7.6213   8.0346   8.0347
     9.7311   9.7314  11.1203  11.1244  11.1723  11.1785  11.1960  11.1996
    11.2119  11.2122  12.6935  12.6988  12.7066  12.7110  13.3736  13.3752
    13.3852  13.3972  13.4027  13.4071  13.4389  13.4410  14.0087  14.0090
    15.8066  15.8071  16.0419  16.0424  16.3379  16.3403  16.3432  16.3451
    16.5810  16.5816  17.8306  17.8347  17.8379

          k = 0.1667-0.4725 0.3333 ( 62252 PWs)   bands (ev):

   -66.1528 -66.1528 -66.1523 -66.1523 -66.1520 -66.1519 -66.1515 -66.1514
   -30.5979 -30.5978 -30.5946 -30.5946 -30.5788 -30.5788 -30.5734 -30.5734
   -30.5217 -30.5216 -30.5166 -30.5166 -30.4988 -30.4987 -30.4959 -30.4958
   -30.4164 -30.4163 -30.4137 -30.4136 -30.4118 -30.4118 -30.4091 -30.4091
   -20.2966 -20.2966 -20.2965 -20.2965 -20.2965 -20.2965 -20.2964 -20.2964
   -20.2716 -20.2715 -20.2714 -20.2714 -20.2707 -20.2707 -20.2707 -20.2706
   -20.2696 -20.2696 -20.2695 -20.2695 -20.2693 -20.2692 -20.2689 -20.2688
   -20.2674 -20.2674 -20.2671 -20.2671 -20.2669 -20.2668 -20.2665 -20.2664
   -20.2624 -20.2624 -20.2617 -20.2617 -20.2609 -20.2608 -20.2602 -20.2601
   -20.2592 -20.2592 -20.2588 -20.2588 -20.2581 -20.2580 -20.2572 -20.2572
   -20.2548 -20.2548 -20.2532 -20.2532 -20.2526 -20.2526 -20.2517 -20.2517
    -9.8196  -9.8196  -9.6475  -9.6475  -9.3268  -9.3267  -9.1800  -9.1800
    -8.4246  -8.4241  -8.4067  -8.4059  -8.2319  -8.2310  -8.2253  -8.2247
    -8.1762  -8.1758  -8.1458  -8.1450  -7.9197  -7.9195  -7.8865  -7.8863
     1.0633   1.0635   1.0959   1.0962   1.9218   1.9221   2.0641   2.0643
     2.5188   2.5190   3.1684   3.1754   3.2309   3.2323   3.2678   3.2851
     3.3732   3.3739   3.4318   3.4430   3.4834   3.4979   3.6171   3.6200
     3.7488   3.7519   3.8594   3.8650   4.2626   4.2684   4.3512   4.3621
     4.5204   4.5397   4.7992   4.7995   4.8724   4.9251   4.9349   4.9450
     5.2179   5.2347   5.3439   5.3945   5.7987   5.8066   5.9743   5.9856
     6.4264   6.4278   6.6752   6.6984   6.7637   6.7754   6.7962   6.8120
     6.8913   6.9234   7.2065   7.2093   7.2662   7.2752   7.5583   7.5608
     7.5750   7.5759   7.5848   7.5887   7.6316   7.6399   7.8750   7.8803
    10.4444  10.4449  11.1638  11.1702  11.1881  11.1918  11.5426  11.5464
    11.5807  11.5870  12.1292  12.1503  12.8156  12.8347  12.8609  12.8710
    12.9070  12.9115  13.3633  13.3853  13.4158  13.4191  13.6881  13.7189
    16.1355  16.1432  16.3197  16.3229  16.4053  16.4139  17.0711  17.0724
    17.1084  17.1160  17.3008  17.3119  17.8475

          k = 0.1667-0.4725-0.5000 ( 62232 PWs)   bands (ev):

   -66.1526 -66.1526 -66.1526 -66.1525 -66.1517 -66.1517 -66.1517 -66.1517
   -30.5962 -30.5962 -30.5962 -30.5962 -30.5504 -30.5504 -30.5504 -30.5504
   -30.5452 -30.5452 -30.5452 -30.5451 -30.4973 -30.4973 -30.4973 -30.4973
   -30.4150 -30.4150 -30.4149 -30.4149 -30.4104 -30.4104 -30.4104 -30.4104
   -20.2966 -20.2966 -20.2965 -20.2965 -20.2965 -20.2964 -20.2964 -20.2964
   -20.2715 -20.2715 -20.2715 -20.2714 -20.2702 -20.2701 -20.2701 -20.2701
   -20.2700 -20.2700 -20.2700 -20.2700 -20.2691 -20.2691 -20.2691 -20.2690
   -20.2672 -20.2672 -20.2672 -20.2672 -20.2667 -20.2666 -20.2666 -20.2666
   -20.2621 -20.2621 -20.2621 -20.2621 -20.2605 -20.2605 -20.2605 -20.2605
   -20.2586 -20.2586 -20.2586 -20.2586 -20.2569 -20.2569 -20.2569 -20.2569
   -20.2553 -20.2552 -20.2552 -20.2552 -20.2522 -20.2522 -20.2522 -20.2521
    -9.7068  -9.7068  -9.7068  -9.7068  -8.8878  -8.8878  -8.8873  -8.8873
    -8.8380  -8.8379  -8.8374  -8.8374  -8.2202  -8.2202  -8.2195  -8.2195
    -8.2016  -8.2015  -8.2006  -8.2005  -7.9033  -7.9033  -7.9030  -7.9030
     1.0938   1.0938   1.0941   1.0941   2.8709   2.8709   2.8735   2.8735
     2.9868   2.9868   2.9961   2.9961   3.1210   3.1210   3.1449   3.1449
     3.2573   3.2573   3.2688   3.2689   3.4161   3.4161   3.4172   3.4172
     3.6540   3.6540   3.6616   3.6616   4.2411   4.2411   4.2451   4.2451
     4.3271   4.3271   4.3345   4.3345   4.6096   4.6096   4.6447   4.6447
     5.2343   5.2343   5.2740   5.2741   5.8312   5.8312   5.8412   5.8412
     6.5881   6.5881   6.6006   6.6007   6.7505   6.7506   6.7567   6.7567
     7.3423   7.3423   7.3860   7.3860   7.4520   7.4521   7.4551   7.4551
     7.4959   7.4959   7.5140   7.5141   7.6875   7.6875   7.7007   7.7008
    11.1283  11.1283  11.1517  11.1517  11.3418  11.3418  11.3763  11.3763
    12.1475  12.1475  12.1548  12.1548  12.1887  12.1887  12.1957  12.1957
    13.1761  13.1761  13.2437  13.2437  13.4129  13.4129  13.4738  13.4738
    16.2714  16.2714  16.2765  16.2765  16.8031  16.8031  16.8050  16.8050
    17.6843  17.6843  17.7072  17.7076  17.8995

          k = 0.3333 0.0000 0.3333 ( 62316 PWs)   bands (ev):

   -66.1528 -66.1524 -66.1524 -66.1523 -66.1520 -66.1519 -66.1518 -66.1514
   -30.5795 -30.5789 -30.5767 -30.5762 -30.5753 -30.5750 -30.5732 -30.5723
   -30.5222 -30.5214 -30.5198 -30.5190 -30.5189 -30.5179 -30.5160 -30.5155
   -30.4444 -30.4416 -30.4415 -30.4387 -30.3859 -30.3834 -30.3833 -30.3808
   -20.2966 -20.2966 -20.2965 -20.2965 -20.2965 -20.2965 -20.2964 -20.2964
   -20.2718 -20.2716 -20.2712 -20.2711 -20.2710 -20.2706 -20.2706 -20.2704
   -20.2703 -20.2700 -20.2698 -20.2698 -20.2697 -20.2695 -20.2694 -20.2692
   -20.2690 -20.2687 -20.2685 -20.2684 -20.2645 -20.2642 -20.2642 -20.2638
   -20.2620 -20.2620 -20.2614 -20.2613 -20.2612 -20.2610 -20.2605 -20.2604
   -20.2586 -20.2586 -20.2580 -20.2580 -20.2576 -20.2575 -20.2569 -20.2569
   -20.2545 -20.2545 -20.2542 -20.2541 -20.2535 -20.2535 -20.2532 -20.2532
    -9.7317  -9.5435  -9.4657  -9.4631  -9.3072  -9.3029  -9.0905  -9.0721
    -8.9493  -8.7547  -8.7539  -8.7121  -8.4136  -8.3300  -8.3291  -8.3265
    -8.3178  -8.3167  -8.2520  -8.2279  -7.5553  -7.5263  -7.5258  -7.4980
     1.6116   1.6263   1.6265   1.7014   1.7289   1.7424   1.9260   1.9312
     2.0420   2.0461   2.2207   2.3820   2.7831   2.8610   2.8962   2.9025
     2.9206   2.9983   3.6167   3.6211   3.7384   3.7441   3.8765   3.9056
     4.0517   4.0888   4.0913   4.1658   4.2332   4.2336   4.3395   4.3655
     4.5535   4.7211   4.7257   4.7643   4.7656   4.7750   4.8268   5.1744
     5.2203   5.2885   5.2958   5.7068   6.2431   6.2461   6.2463   6.3336
     6.5518   6.5639   6.5735   6.6878   6.7387   6.8372   6.8507   6.8507
     6.9699   7.0110   7.0247   7.0294   7.1583   7.1599   7.1884   7.2171
     7.2197   7.4498   7.7221   7.7411   7.9939   8.0610   8.0667   8.1122
    10.4858  10.5873  10.5882  10.6424  10.9409  10.9709  12.2790  12.2844
    12.3002  12.3541  12.3691  12.3702  12.4471  12.4506  12.6640  12.6796
    12.6811  12.7616  13.2460  13.2846  13.5202  13.5893  13.5964  13.6890
    14.4800  14.7467  14.7486  15.1599  15.9607  16.9971  16.9979  17.1097
    17.1423  17.6546  17.8398  17.8667  17.9047

          k = 0.3333 0.0000-0.5000 ( 62288 PWs)   bands (ev):

   -66.1526 -66.1526 -66.1522 -66.1522 -66.1521 -66.1521 -66.1517 -66.1517
   -30.5771 -30.5771 -30.5742 -30.5742 -30.5507 -30.5507 -30.5479 -30.5479
   -30.5477 -30.5476 -30.5449 -30.5449 -30.5198 -30.5198 -30.5172 -30.5172
   -30.4430 -30.4429 -30.4401 -30.4401 -30.3846 -30.3846 -30.3821 -30.3821
   -20.2966 -20.2966 -20.2965 -20.2965 -20.2965 -20.2965 -20.2964 -20.2964
   -20.2717 -20.2716 -20.2707 -20.2707 -20.2706 -20.2706 -20.2706 -20.2705
   -20.2704 -20.2704 -20.2700 -20.2700 -20.2697 -20.2697 -20.2692 -20.2692
   -20.2688 -20.2688 -20.2686 -20.2686 -20.2643 -20.2643 -20.2640 -20.2640
   -20.2618 -20.2617 -20.2617 -20.2617 -20.2609 -20.2609 -20.2608 -20.2608
   -20.2575 -20.2575 -20.2575 -20.2575 -20.2566 -20.2565 -20.2565 -20.2565
   -20.2556 -20.2556 -20.2556 -20.2556 -20.2537 -20.2537 -20.2537 -20.2537
    -9.5549  -9.5549  -9.3709  -9.3708  -9.1331  -9.1330  -8.8769  -8.8769
    -8.8542  -8.8542  -8.7836  -8.7835  -8.6437  -8.6437  -8.6305  -8.6305
    -8.3054  -8.3054  -8.3008  -8.3008  -7.5409  -7.5409  -7.5120  -7.5120
     1.6232   1.6232   1.6894   1.6894   1.9201   1.9201   2.0125   2.0126
     2.9038   2.9038   2.9548   2.9548   2.9755   2.9755   3.0328   3.0328
     3.0418   3.0419   3.3368   3.3368   3.4103   3.4103   3.6610   3.6610
     3.6689   3.6689   3.8713   3.8714   4.0676   4.0676   4.0841   4.0841
     4.3949   4.3949   4.6672   4.6672   4.7967   4.7967   4.8390   4.8390
[...]
   -20.8121 -20.8121 -20.8120 -20.8120 -20.8096 -20.8096 -20.8089 -20.8089
   -20.8083 -20.8083 -20.8081 -20.8081 -20.8074 -20.8074 -20.8072 -20.8072
   -20.8071 -20.8071 -20.8069 -20.8069 -20.8043 -20.8043 -20.8041 -20.8041
   -20.8036 -20.8036 -20.8034 -20.8034 -20.8007 -20.8007 -20.8004 -20.8004
    -9.8912  -9.8911  -9.7337  -9.7337  -9.4235  -9.4234  -9.2108  -9.2108
    -9.0166  -9.0165  -8.9572  -8.9571  -8.9142  -8.9141  -8.8920  -8.8919
    -8.5548  -8.5548  -8.5308  -8.5308  -8.2111  -8.2111  -8.1930  -8.1930
     1.0440   1.0440   1.0547   1.0547   1.8483   1.8483   1.9361   1.9361
     2.6074   2.6074   2.7573   2.7574   2.7730   2.7731   2.8480   2.8480
     2.8687   2.8687   3.0431   3.0431   3.0728   3.0728   3.3771   3.3771
     3.4815   3.4815   3.5234   3.5234   3.7361   3.7361   3.9429   3.9430
     4.2332   4.2332   4.3775   4.3775   4.4479   4.4480   4.5388   4.5388
     4.6115   4.6116   5.0478   5.0478   5.4328   5.4328   5.5607   5.5607
     6.2583   6.2583   6.3183   6.3183   6.4208   6.4208   6.4622   6.4622
     6.6640   6.6641   6.7174   6.7174   6.8419   6.8419   7.1525   7.1525
     7.1930   7.1930   7.2200   7.2200   7.2773   7.2773   7.5350   7.5350
    10.0645  10.0645  10.7303  10.7304  10.7463  10.7463  11.2071  11.2071
    11.2357  11.2357  11.5182  11.5182  12.1124  12.1124  12.1510  12.1510
    12.4204  12.4204  12.5069  12.5069  12.5511  12.5511  13.0846  13.0846
    14.9776  14.9776  15.4593  15.4593  15.9238  15.9238  16.3102  16.3102
    16.6649  16.6649  16.8672  16.8672  17.4091

          k = 0.3261 0.4806 0.1630 ( 63966 PWs)   bands (ev):

   -66.6683 -66.6683 -66.6679 -66.6679 -66.6677 -66.6677 -66.6673 -66.6673
   -30.9936 -30.9936 -30.9916 -30.9915 -30.9859 -30.9858 -30.9840 -30.9839
   -30.9821 -30.9821 -30.9798 -30.9798 -30.9752 -30.9751 -30.9723 -30.9723
   -30.9347 -30.9346 -30.9311 -30.9310 -30.9179 -30.9179 -30.9158 -30.9158
   -20.8422 -20.8422 -20.8421 -20.8421 -20.8421 -20.8420 -20.8420 -20.8420
   -20.8141 -20.8141 -20.8139 -20.8139 -20.8132 -20.8132 -20.8130 -20.8129
   -20.8128 -20.8128 -20.8126 -20.8126 -20.8122 -20.8122 -20.8120 -20.8120
   -20.8113 -20.8113 -20.8111 -20.8111 -20.8107 -20.8107 -20.8104 -20.8104
   -20.8086 -20.8085 -20.8079 -20.8079 -20.8078 -20.8078 -20.8072 -20.8072
   -20.8070 -20.8070 -20.8069 -20.8068 -20.8059 -20.8059 -20.8052 -20.8052
   -20.8024 -20.8023 -20.8017 -20.8017 -20.8007 -20.8007 -20.8004 -20.8004
    -9.9042  -9.9042  -9.7282  -9.7281  -9.4561  -9.4561  -9.2477  -9.2477
    -9.0031  -9.0030  -8.9318  -8.9316  -8.8955  -8.8953  -8.8896  -8.8895
    -8.5441  -8.5440  -8.5127  -8.5126  -8.2165  -8.2164  -8.1876  -8.1876
     1.0417   1.0421   1.0510   1.0514   1.7867   1.7870   1.8867   1.8874
     2.5923   2.5930   2.7908   2.7915   2.8351   2.8391   2.8530   2.8550
     2.9009   2.9044   3.0549   3.0557   3.0726   3.0970   3.2626   3.2671
     3.3267   3.3324   3.4951   3.5209   3.8928   3.9012   4.0424   4.0558
     4.1794   4.2177   4.3772   4.4053   4.4121   4.4730   4.5333   4.5403
     4.6294   4.6536   4.9734   5.0029   5.3956   5.4027   5.6723   5.6788
     6.2386   6.2403   6.2877   6.2961   6.4128   6.4133   6.5740   6.5772
     6.6657   6.6827   6.7639   6.7722   6.8714   6.8747   7.1081   7.1173
     7.1430   7.1448   7.1614   7.1623   7.2124   7.2224   7.5738   7.5776
     9.9328   9.9341  10.7734  10.7796  10.7908  10.7954  11.1194  11.1250
    11.1464  11.1547  11.4742  11.4980  12.1411  12.1818  12.2345  12.2444
    12.2615  12.2658  12.6805  12.7226  12.7372  12.7445  12.8938  12.9389
    15.0857  15.0897  15.4188  15.4240  15.8855  15.8905  16.4002  16.4149
    16.6162  16.6195  16.8960  16.9192  17.4041

          k =-0.4892 0.4806 0.1630 ( 63952 PWs)   bands (ev):

   -66.6681 -66.6681 -66.6681 -66.6681 -66.6675 -66.6675 -66.6675 -66.6675
   -30.9925 -30.9925 -30.9925 -30.9925 -30.9836 -30.9836 -30.9833 -30.9833
   -30.9814 -30.9814 -30.9810 -30.9810 -30.9560 -30.9560 -30.9556 -30.9556
   -30.9524 -30.9524 -30.9520 -30.9520 -30.9169 -30.9169 -30.9169 -30.9169
   -20.8422 -20.8422 -20.8421 -20.8421 -20.8421 -20.8421 -20.8420 -20.8420
   -20.8140 -20.8140 -20.8140 -20.8140 -20.8131 -20.8131 -20.8131 -20.8131
   -20.8125 -20.8125 -20.8125 -20.8124 -20.8123 -20.8123 -20.8123 -20.8123
   -20.8112 -20.8112 -20.8112 -20.8112 -20.8106 -20.8106 -20.8105 -20.8105
   -20.8082 -20.8082 -20.8082 -20.8082 -20.8073 -20.8073 -20.8073 -20.8073
   -20.8070 -20.8070 -20.8070 -20.8070 -20.8042 -20.8042 -20.8042 -20.8042
   -20.8035 -20.8035 -20.8035 -20.8035 -20.8006 -20.8006 -20.8005 -20.8005
    -9.7932  -9.7932  -9.7921  -9.7921  -9.1554  -9.1553  -9.1501  -9.1500
    -9.0260  -9.0260  -9.0214  -9.0214  -8.8367  -8.8367  -8.8291  -8.8290
    -8.8044  -8.8044  -8.7969  -8.7968  -8.2023  -8.2023  -8.2023  -8.2023
     1.0536   1.0536   1.0548   1.0548   2.6414   2.6414   2.6872   2.6873
     2.7218   2.7218   2.7464   2.7465   2.8532   2.8532   2.8729   2.8729
     2.9101   2.9101   2.9828   2.9828   3.0622   3.0622   3.0880   3.0880
     3.1407   3.1407   3.2358   3.2358   3.7886   3.7886   3.8261   3.8261
     3.8606   3.8606   3.8985   3.8985   4.3554   4.3554   4.4003   4.4003
     4.7473   4.7474   4.7947   4.7947   5.4561   5.4561   5.4643   5.4644
     6.3380   6.3380   6.3702   6.3702   6.4046   6.4046   6.4320   6.4320
     6.9660   6.9660   6.9852   6.9852   7.0129   7.0130   7.0515   7.0515
     7.0645   7.0645   7.1173   7.1174   7.3245   7.3245   7.3414   7.3415
    10.6643  10.6643  10.6933  10.6933  10.8246  10.8246  10.8624  10.8624
    11.6213  11.6213  11.6575  11.6575  11.6656  11.6656  11.6949  11.6949
    12.4479  12.4479  12.5016  12.5016  12.7351  12.7351  12.7816  12.7816
    15.3079  15.3079  15.3140  15.3140  16.4030  16.4031  16.4216  16.4216
    17.2712  17.2713  17.3181  17.3181  17.3736

          k =-0.4892 0.0000 0.3261 ( 63936 PWs)   bands (ev):

   -66.6682 -66.6682 -66.6679 -66.6679 -66.6677 -66.6677 -66.6674 -66.6674
   -31.0197 -31.0197 -31.0175 -31.0175 -30.9784 -30.9784 -30.9738 -30.9738
   -30.9588 -30.9588 -30.9573 -30.9573 -30.9543 -30.9543 -30.9526 -30.9526
   -30.9439 -30.9439 -30.9434 -30.9434 -30.9331 -30.9331 -30.9309 -30.9309
   -20.8422 -20.8422 -20.8421 -20.8421 -20.8421 -20.8421 -20.8420 -20.8420
   -20.8147 -20.8147 -20.8144 -20.8144 -20.8139 -20.8139 -20.8134 -20.8134
   -20.8133 -20.8133 -20.8129 -20.8129 -20.8129 -20.8129 -20.8128 -20.8128
   -20.8120 -20.8120 -20.8119 -20.8118 -20.8083 -20.8083 -20.8082 -20.8082
   -20.8078 -20.8078 -20.8073 -20.8073 -20.8072 -20.8072 -20.8071 -20.8071
   -20.8059 -20.8059 -20.8055 -20.8055 -20.8042 -20.8042 -20.8039 -20.8039
   -20.8037 -20.8037 -20.8035 -20.8035 -20.8022 -20.8022 -20.8016 -20.8016
    -9.9245  -9.9245  -9.7528  -9.7528  -9.4555  -9.4555  -9.2391  -9.2391
    -9.0095  -9.0094  -8.9464  -8.9463  -8.9173  -8.9172  -8.9066  -8.9066
    -8.5385  -8.5385  -8.5193  -8.5193  -8.1403  -8.1402  -8.1181  -8.1181
     0.8740   0.8740   0.8936   0.8936   1.7965   1.7965   1.8549   1.8549
     2.5328   2.5328   2.7062   2.7063   2.7248   2.7248   2.8052   2.8052
     2.8552   2.8553   3.1827   3.1828   3.2425   3.2426   3.3062   3.3062
     3.4118   3.4118   3.5254   3.5254   3.7051   3.7051   3.9588   3.9588
     4.2959   4.2960   4.5255   4.5256   4.5665   4.5665   4.5711   4.5712
     4.8515   4.8515   5.2336   5.2336   5.7099   5.7099   5.7449   5.7449
     6.0225   6.0225   6.0484   6.0484   6.2015   6.2015   6.2072   6.2072
     6.6889   6.6889   6.8326   6.8326   6.9072   6.9072   7.2002   7.2002
     7.2011   7.2011   7.2485   7.2486   7.3193   7.3193   7.6184   7.6184
    10.0230  10.0230  10.8593  10.8593  10.8605  10.8605  11.0468  11.0468
    11.0748  11.0748  11.6705  11.6705  12.0612  12.0612  12.0877  12.0877
    12.3654  12.3654  12.7052  12.7052  12.7237  12.7237  13.1450  13.1450
    14.4489  14.4489  14.8352  14.8352  15.8297  15.8298  16.4759  16.4759
    16.7803  16.7803  16.8849  16.8849  17.5348

          k =-0.4892-0.1602 0.3261 ( 63916 PWs)   bands (ev):

   -66.6682 -66.6682 -66.6679 -66.6679 -66.6677 -66.6677 -66.6674 -66.6674
   -31.0149 -31.0149 -31.0127 -31.0127 -30.9782 -30.9782 -30.9740 -30.9740
   -30.9592 -30.9592 -30.9583 -30.9583 -30.9544 -30.9544 -30.9533 -30.9533
   -30.9473 -30.9473 -30.9472 -30.9472 -30.9333 -30.9333 -30.9311 -30.9311
   -20.8422 -20.8422 -20.8421 -20.8421 -20.8421 -20.8421 -20.8420 -20.8420
   -20.8144 -20.8144 -20.8141 -20.8141 -20.8137 -20.8137 -20.8135 -20.8135
   -20.8131 -20.8131 -20.8129 -20.8129 -20.8128 -20.8128 -20.8127 -20.8127
   -20.8120 -20.8120 -20.8119 -20.8119 -20.8085 -20.8085 -20.8083 -20.8083
   -20.8078 -20.8078 -20.8077 -20.8077 -20.8073 -20.8073 -20.8073 -20.8073
   -20.8059 -20.8059 -20.8055 -20.8055 -20.8042 -20.8042 -20.8039 -20.8039
   -20.8037 -20.8037 -20.8035 -20.8035 -20.8022 -20.8022 -20.8017 -20.8017
    -9.8639  -9.8639  -9.6745  -9.6745  -9.4653  -9.4653  -9.2155  -9.2155
    -9.0190  -9.0189  -8.9400  -8.9399  -8.9143  -8.9142  -8.9084  -8.9083
    -8.5361  -8.5361  -8.5247  -8.5247  -8.2575  -8.2575  -8.2355  -8.2355
     1.1309   1.1309   1.1547   1.1547   1.7968   1.7968   1.8608   1.8608
     2.6072   2.6072   2.7216   2.7216   2.7544   2.7544   2.8095   2.8095
     2.8551   2.8552   3.2203   3.2203   3.2866   3.2867   3.3169   3.3169
     3.4176   3.4176   3.5816   3.5816   3.6767   3.6767   3.9703   3.9703
     4.1492   4.1493   4.3031   4.3031   4.4907   4.4907   4.5508   4.5508
     4.5874   4.5874   4.9509   4.9509   5.3656   5.3656   5.5257   5.5257
     6.1896   6.1896   6.2343   6.2343   6.3128   6.3129   6.4440   6.4440
     6.6994   6.6994   6.8270   6.8271   6.9206   6.9206   7.1850   7.1851
     7.1978   7.1979   7.2438   7.2438   7.3022   7.3023   7.5743   7.5743
    10.1530  10.1530  10.9174  10.9174  10.9387  10.9387  11.0614  11.0614
    11.0928  11.0928  11.7232  11.7232  12.0621  12.0621  12.0816  12.0816
    12.2000  12.2000  12.5554  12.5554  12.5704  12.5704  13.0088  13.0088
    14.8464  14.8464  15.2535  15.2535  15.9109  15.9109  16.4714  16.4714
    16.7966  16.7966  16.9213  16.9213  17.3511

          k =-0.4892-0.3204 0.3261 ( 63928 PWs)   bands (ev):

   -66.6681 -66.6681 -66.6678 -66.6678 -66.6678 -66.6678 -66.6675 -66.6675
   -31.0020 -31.0020 -30.9997 -30.9997 -30.9781 -30.9781 -30.9746 -30.9746
   -30.9657 -30.9657 -30.9655 -30.9655 -30.9553 -30.9553 -30.9544 -30.9544
   -30.9526 -30.9526 -30.9516 -30.9516 -30.9332 -30.9332 -30.9317 -30.9317
   -20.8422 -20.8422 -20.8421 -20.8421 -20.8421 -20.8421 -20.8420 -20.8420
   -20.8140 -20.8140 -20.8136 -20.8136 -20.8135 -20.8135 -20.8130 -20.8130
   -20.8127 -20.8127 -20.8127 -20.8127 -20.8126 -20.8126 -20.8123 -20.8123
   -20.8122 -20.8122 -20.8121 -20.8121 -20.8095 -20.8095 -20.8091 -20.8091
   -20.8080 -20.8080 -20.8079 -20.8079 -20.8075 -20.8075 -20.8074 -20.8074
   -20.8058 -20.8058 -20.8056 -20.8056 -20.8042 -20.8042 -20.8040 -20.8040
   -20.8037 -20.8037 -20.8036 -20.8036 -20.8021 -20.8021 -20.8018 -20.8018
    -9.7166  -9.7166  -9.4995  -9.4995  -9.4603  -9.4603  -9.1273  -9.1273
    -9.0596  -9.0595  -8.9299  -8.9298  -8.9014  -8.9013  -8.9003  -8.9002
    -8.5841  -8.5841  -8.5427  -8.5427  -8.5292  -8.5292  -8.4719  -8.4719
     1.6943   1.6943   1.7968   1.7968   1.8521   1.8521   2.0037   2.0037
     2.7525   2.7526   2.7723   2.7723   2.7909   2.7909   2.8401   2.8401
     2.9048   2.9048   3.2782   3.2782   3.3120   3.3120   3.4302   3.4302
     3.4799   3.4799   3.5470   3.5470   3.7221   3.7221   3.7359   3.7359
     3.8584   3.8585   4.0385   4.0385   4.0819   4.0819   4.3850   4.3850
     4.4395   4.4395   4.5440   4.5440   4.5594   4.5594   4.9247   4.9247
     6.5392   6.5392   6.5878   6.5878   6.6514   6.6515   6.6813   6.6813
     6.7346   6.7346   6.8139   6.8139   6.9789   6.9790   7.1246   7.1247
     7.1622   7.1623   7.2388   7.2389   7.2528   7.2529   7.4427   7.4428
    10.5293  10.5293  10.9976  10.9976  11.0361  11.0361  11.2203  11.2203
    11.2743  11.2743  11.7267  11.7267  11.8846  11.8846  12.0269  12.0269
    12.1052  12.1052  12.1812  12.1812  12.2124  12.2124  12.6728  12.6728
    15.7263  15.7263  16.1584  16.1585  16.2612  16.2612  16.4342  16.4342
    16.8792  16.8793  16.9687  16.9688  17.0602

          k =-0.4892 0.4806 0.3261 ( 63948 PWs)   bands (ev):

   -66.6680 -66.6680 -66.6680 -66.6680 -66.6676 -66.6676 -66.6676 -66.6676
   -30.9853 -30.9853 -30.9850 -30.9850 -30.9823 -30.9823 -30.9818 -30.9818
   -30.9746 -30.9746 -30.9745 -30.9745 -30.9552 -30.9552 -30.9548 -30.9548
   -30.9532 -30.9532 -30.9528 -30.9528 -30.9325 -30.9325 -30.9325 -30.9325
   -20.8422 -20.8421 -20.8421 -20.8421 -20.8421 -20.8421 -20.8421 -20.8420
   -20.8138 -20.8138 -20.8138 -20.8138 -20.8133 -20.8133 -20.8132 -20.8132
   -20.8125 -20.8124 -20.8124 -20.8124 -20.8123 -20.8123 -20.8123 -20.8123
   -20.8111 -20.8111 -20.8111 -20.8111 -20.8107 -20.8107 -20.8107 -20.8107
   -20.8080 -20.8080 -20.8079 -20.8079 -20.8075 -20.8075 -20.8075 -20.8075
   -20.8058 -20.8058 -20.8057 -20.8057 -20.8041 -20.8041 -20.8041 -20.8041
   -20.8037 -20.8037 -20.8037 -20.8037 -20.8020 -20.8020 -20.8019 -20.8019
    -9.5776  -9.5776  -9.5758  -9.5758  -9.2018  -9.2018  -9.1968  -9.1968
    -8.9767  -8.9766  -8.9723  -8.9723  -8.8309  -8.8309  -8.8237  -8.8236
    -8.8097  -8.8096  -8.8030  -8.8029  -8.5179  -8.5179  -8.5176  -8.5176
     1.7900   1.7900   1.7925   1.7925   2.6482   2.6483   2.6751   2.6751
     2.7113   2.7113   2.7291   2.7291   2.8675   2.8675   2.9105   2.9106
     2.9625   2.9625   2.9809   2.9810   3.2547   3.2547   3.2847   3.2847
     3.3487   3.3487   3.3950   3.3950   3.7607   3.7607   3.7792   3.7792
     3.8366   3.8366   3.8645   3.8645   3.9248   3.9248   3.9478   3.9478
     4.2341   4.2341   4.2830   4.2830   4.6006   4.6006   4.6070   4.6070
     6.6660   6.6660   6.7007   6.7007   6.7457   6.7457   6.7516   6.7516
     6.9387   6.9387   6.9813   6.9813   6.9902   6.9903   7.0305   7.0305
     7.1089   7.1089   7.1479   7.1479   7.2856   7.2856   7.3041   7.3042
    10.9449  10.9449  10.9791  10.9791  11.1428  11.1428  11.1957  11.1957
    11.6142  11.6142  11.6561  11.6561  11.6627  11.6628  11.6968  11.6968
    12.0215  12.0215  12.1163  12.1163  12.2622  12.2622  12.3343  12.3343
    16.2487  16.2487  16.2737  16.2737  16.6191  16.6192  16.6268  16.6268
    17.1110  17.1111  17.1835  17.1836  17.3631

     the Fermi energy is     8.4611 ev

!    total energy              =   -6261.08832468 Ry
     Harris-Foulkes estimate   =   -6261.08832468 Ry
     estimated scf accuracy    <          2.4E-11 Ry

     The total energy is the sum of the following terms:

     one-electron contribution =   -4838.43482218 Ry
     hartree contribution      =    2649.76964291 Ry
     xc contribution           =    -965.67793572 Ry
     ewald contribution        =   -3106.74520969 Ry
     smearing contrib. (-TS)   =      -0.00000000 Ry

     convergence has been achieved in  15 iterations

     Forces acting on atoms (cartesian axes, Ry/au):

     atom    1 type  1   force =    -0.00478269    0.02046935    0.00420873
     atom    2 type  1   force =     0.00478269   -0.02046935   -0.00420873
     atom    3 type  1   force =     0.00478269   -0.02046935    0.00420873
     atom    4 type  1   force =    -0.00478269    0.02046935   -0.00420873
     atom    5 type  1   force =     0.00478269    0.02046935   -0.00420873
     atom    6 type  1   force =    -0.00478269   -0.02046935    0.00420873
     atom    7 type  1   force =    -0.00478269   -0.02046935   -0.00420873
     atom    8 type  1   force =     0.00478269    0.02046935    0.00420873
     atom    9 type  2   force =    -0.00003664   -0.01112309   -0.00042399
     atom   10 type  2   force =     0.00003664    0.01112309    0.00042399
     atom   11 type  2   force =     0.00003664    0.01112309   -0.00042399
     atom   12 type  2   force =    -0.00003664   -0.01112309    0.00042399
     atom   13 type  2   force =     0.00003664   -0.01112309    0.00042399
     atom   14 type  2   force =    -0.00003664    0.01112309   -0.00042399
     atom   15 type  2   force =    -0.00003664    0.01112309    0.00042399
     atom   16 type  2   force =     0.00003664   -0.01112309   -0.00042399
     atom   17 type  2   force =    -0.00275895   -0.00045683   -0.00115111
     atom   18 type  2   force =     0.00275895    0.00045683    0.00115111
     atom   19 type  2   force =     0.00275895    0.00045683   -0.00115111
     atom   20 type  2   force =    -0.00275895   -0.00045683    0.00115111
     atom   21 type  2   force =     0.00275895   -0.00045683    0.00115111
     atom   22 type  2   force =    -0.00275895    0.00045683   -0.00115111
     atom   23 type  2   force =    -0.00275895    0.00045683    0.00115111
     atom   24 type  2   force =     0.00275895   -0.00045683   -0.00115111
     atom   25 type  2   force =    -0.00137550    0.00102532    0.00340299
     atom   26 type  2   force =     0.00137550   -0.00102532   -0.00340299
     atom   27 type  2   force =     0.00137550   -0.00102532    0.00340299
     atom   28 type  2   force =    -0.00137550    0.00102532   -0.00340299
     atom   29 type  2   force =     0.00137550    0.00102532   -0.00340299
     atom   30 type  2   force =    -0.00137550   -0.00102532    0.00340299
     atom   31 type  2   force =    -0.00137550   -0.00102532   -0.00340299
     atom   32 type  2   force =     0.00137550    0.00102532    0.00340299

     Total force =     0.000000     Total SCF correction =     0.000000


     Computing stress (Cartesian axis) and pressure

          total   stress  (Ry/bohr**3)                   (kbar)     P=    1.53
   0.00001480   0.00000000   0.00000000          2.18      0.00      0.00
   0.00000000   0.00000147   0.00000000          0.00      0.22      0.00
   0.00000000   0.00000000   0.00001492          0.00      0.00      2.19


     Writing output data file Landau_31.save
 
     init_run     :     98.46s CPU    101.55s WALL (       2 calls)
     electrons    :  12952.61s CPU  13206.92s WALL (       7 calls)
     update_pot   :    146.43s CPU    146.70s WALL (       5 calls)
     forces       :    234.79s CPU    237.84s WALL (       7 calls)
     stress       :   1730.66s CPU   1749.66s WALL (       7 calls)

     Called by init_run:
     wfcinit      :     73.20s CPU     75.98s WALL (       2 calls)
     potinit      :     11.15s CPU     11.24s WALL (       2 calls)

     Called by electrons:
     c_bands      :  11505.28s CPU  11746.50s WALL (      94 calls)
     sum_band     :   1378.50s CPU   1385.70s WALL (      94 calls)
     v_of_rho     :     12.37s CPU     12.61s WALL (      99 calls)
     mix_rho      :     16.96s CPU     21.03s WALL (      94 calls)

     Called by c_bands:
     init_us_2    :     74.66s CPU     79.16s WALL (     408 calls)
     cegterg      :   8820.52s CPU   9050.62s WALL (     188 calls)

     Called by sum_band:

     Called by *egterg:
     h_psi        :   6579.76s CPU   6603.47s WALL (     779 calls)
     g_psi        :     30.57s CPU     30.63s WALL (     587 calls)
     cdiaghg      :    105.77s CPU    105.91s WALL (     761 calls)

     Called by h_psi:
     h_psi:pot    :   6540.30s CPU   6563.40s WALL (     779 calls)
     h_psi:calbec :    832.37s CPU    848.79s WALL (     779 calls)
     vloc_psi     :   4828.19s CPU   4832.37s WALL (     779 calls)
     add_vuspsi   :    879.74s CPU    882.24s WALL (     779 calls)

     General routines
     calbec       :    955.73s CPU    972.37s WALL (     849 calls)
     fft          :      8.95s CPU      8.98s WALL (     454 calls)
     fftw         :   4982.84s CPU   4985.15s WALL (  248444 calls)
 
     Parallel routines
 
     PWSCF        :     4h12m CPU        4h17m WALL

 
   This run was terminated on:   0:18:48  20Mar2020            

=------------------------------------------------------------------------------=
   JOB DONE.
=------------------------------------------------------------------------------=
