
     Program PWSCF v.6.4.1 starts on 29Nov2019 at 17:40: 4 

     This program is part of the open-source Quantum ESPRESSO suite
     for quantum simulation of materials; please cite
         "P. Giannozzi et al., J. Phys.:Condens. Matter 21 395502 (2009);
         "P. Giannozzi et al., J. Phys.:Condens. Matter 29 465901 (2017);
          URL http://www.quantum-espresso.org", 
     in publications or presentations arising from this work. More details at
     http://www.quantum-espresso.org/quote

     Parallel version (MPI), running on    40 processors

     MPI processes distributed on     7 nodes
     K-points division:     npool     =      40
     Reading input from scf.in

     Current dimensions of program PWSCF are:
     Max number of different atomic species (ntypx) = 10
     Max number of k-points (npk) =  40000
     Max angular momentum in pseudopotentials (lmaxx) =  3

     Subspace diagonalization in iterative solution of the eigenvalue problem:
     a serial algorithm will be used

     Message from routine setup:
     using ibrav=0 with symmetry is DISCOURAGED, use correct ibrav instead
 
     G-vector sticks info
     --------------------
     sticks:   dense  smooth     PW     G-vecs:    dense   smooth      PW
     Sum        3761    3761   1033               254517   254517   35909
 


     bravais-lattice index     =            0
     lattice parameter (alat)  =       9.9384  a.u.
     unit-cell volume          =    1432.4563 (a.u.)^3
     number of atoms/cell      =           16
     number of atomic types    =            2
     number of electrons       =       184.18
     number of Kohn-Sham states=          111
     kinetic-energy cutoff     =     120.0000  Ry
     charge density cutoff     =     480.0000  Ry
     convergence threshold     =      1.0E-08
     mixing beta               =       0.7000
     number of iterations used =            8  plain     mixing
     Exchange-correlation      = SLA PW NOGX NOGC ( 1  4  0  0 0 0)

     celldm(1)=   9.938417  celldm(2)=   0.000000  celldm(3)=   0.000000
     celldm(4)=   0.000000  celldm(5)=   0.000000  celldm(6)=   0.000000

     crystal axes: (cart. coord. in units of alat)
               a(1) = (   1.000000   0.000000   0.000000 )  
               a(2) = (   0.000000   1.000000   0.000000 )  
               a(3) = (   0.000000   0.000000   1.459250 )  

     reciprocal axes: (cart. coord. in units 2 pi/alat)
               b(1) = (  1.000000  0.000000  0.000000 )  
               b(2) = (  0.000000  1.000000  0.000000 )  
               b(3) = (  0.000000  0.000000  0.685283 )  


     PseudoPot. # 1 for W  read from file:
     /cluster/scratch/mnoe/QE/pps/W_ONCV_LDA-4.0.upf
     MD5 check sum: ba0307d5d4cd419d6f1d13dc49d7c13a
     Pseudo is Norm-conserving + core correction, Zval = 28.0
     Generated using ONCVPSP code by D. R. Hamann
     Using radial grid of 1380 points,  8 beta functions with: 
                l(1) =   0
                l(2) =   0
                l(3) =   1
                l(4) =   1
                l(5) =   2
                l(6) =   2
                l(7) =   3
                l(8) =   3

     PseudoPot. # 2 for O  read from file:
     /cluster/scratch/mnoe/QE/pps/O_ONCV_LDA-3.0.upf
     MD5 check sum: b55cdb4f45ae2203d24ad12cf8d61a31
     Pseudo is Norm-conserving + core correction, Zval =  6.0
     Generated using ONCVPSP code by D. R. Hamann
     Using radial grid of  926 points,  5 beta functions with: 
                l(1) =   0
                l(2) =   0
                l(3) =   1
                l(4) =   1
                l(5) =   2

     atomic species   valence    mass     pseudopotential
        W             28.00   183.84000     W ( 1.00)
        O              6.00    15.99940     O ( 1.00)

     16 Sym. Ops., with inversion, found (14 have fractional translation)



   Cartesian axes

     site n.     atom                  positions (alat units)
         1           W   tau(   1) = (   0.2500000   0.2500000   0.3103651  )
         2           W   tau(   2) = (   0.7500000   0.7500000   1.1488852  )
         3           W   tau(   3) = (   0.7500000   0.7500000   0.4192601  )
         4           W   tau(   4) = (   0.2500000   0.2500000   1.0399902  )
         5           O   tau(   5) = (   0.2500000   0.2500000   0.7024693  )
         6           O   tau(   6) = (   0.7500000   0.7500000   0.7567810  )
         7           O   tau(   7) = (   0.7500000   0.7500000   0.0271559  )
         8           O   tau(   8) = (   0.2500000   0.2500000   1.4320945  )
         9           O   tau(   9) = (   0.4774966   0.5225034   0.3648126  )
        10           O   tau(  10) = (   0.5225034   0.4774966   1.0944377  )
        11           O   tau(  11) = (   0.0225034   0.9774966   0.3648126  )
        12           O   tau(  12) = (   0.9774965   0.0225034   1.0944377  )
        13           O   tau(  13) = (   0.9774966   0.4774966   0.3648126  )
        14           O   tau(  14) = (   0.0225034   0.5225034   1.0944377  )
        15           O   tau(  15) = (   0.5225034   0.0225034   0.3648126  )
        16           O   tau(  16) = (   0.4774966   0.9774965   1.0944377  )

     number of k points=    60  gaussian smearing, width (Ry)=  0.0007
                       cart. coord. in units 2pi/alat
        k(    1) = (   0.0000000   0.0000000   0.0000000), wk =   0.0041152
        k(    2) = (   0.0000000   0.0000000   0.1142139), wk =   0.0082305
        k(    3) = (   0.0000000   0.0000000   0.2284278), wk =   0.0082305
        k(    4) = (   0.0000000   0.0000000  -0.3426417), wk =   0.0041152
        k(    5) = (   0.0000000   0.1111111   0.0000000), wk =   0.0164609
        k(    6) = (   0.0000000   0.1111111   0.1142139), wk =   0.0329218
        k(    7) = (   0.0000000   0.1111111   0.2284278), wk =   0.0329218
        k(    8) = (   0.0000000   0.1111111  -0.3426417), wk =   0.0164609
        k(    9) = (   0.0000000   0.2222222   0.0000000), wk =   0.0164609
        k(   10) = (   0.0000000   0.2222222   0.1142139), wk =   0.0329218
        k(   11) = (   0.0000000   0.2222222   0.2284278), wk =   0.0329218
        k(   12) = (   0.0000000   0.2222222  -0.3426417), wk =   0.0164609
        k(   13) = (   0.0000000   0.3333333   0.0000000), wk =   0.0164609
        k(   14) = (   0.0000000   0.3333333   0.1142139), wk =   0.0329218
        k(   15) = (   0.0000000   0.3333333   0.2284278), wk =   0.0329218
        k(   16) = (   0.0000000   0.3333333  -0.3426417), wk =   0.0164609
        k(   17) = (   0.0000000   0.4444444   0.0000000), wk =   0.0164609
        k(   18) = (   0.0000000   0.4444444   0.1142139), wk =   0.0329218
        k(   19) = (   0.0000000   0.4444444   0.2284278), wk =   0.0329218
        k(   20) = (   0.0000000   0.4444444  -0.3426417), wk =   0.0164609
        k(   21) = (   0.1111111   0.1111111   0.0000000), wk =   0.0164609
        k(   22) = (   0.1111111   0.1111111   0.1142139), wk =   0.0329218
        k(   23) = (   0.1111111   0.1111111   0.2284278), wk =   0.0329218
        k(   24) = (   0.1111111   0.1111111  -0.3426417), wk =   0.0164609
        k(   25) = (   0.1111111   0.2222222   0.0000000), wk =   0.0329218
        k(   26) = (   0.1111111   0.2222222   0.1142139), wk =   0.0658436
        k(   27) = (   0.1111111   0.2222222   0.2284278), wk =   0.0658436
        k(   28) = (   0.1111111   0.2222222  -0.3426417), wk =   0.0329218
        k(   29) = (   0.1111111   0.3333333   0.0000000), wk =   0.0329218
        k(   30) = (   0.1111111   0.3333333   0.1142139), wk =   0.0658436
        k(   31) = (   0.1111111   0.3333333   0.2284278), wk =   0.0658436
        k(   32) = (   0.1111111   0.3333333  -0.3426417), wk =   0.0329218
        k(   33) = (   0.1111111   0.4444444   0.0000000), wk =   0.0329218
        k(   34) = (   0.1111111   0.4444444   0.1142139), wk =   0.0658436
        k(   35) = (   0.1111111   0.4444444   0.2284278), wk =   0.0658436
        k(   36) = (   0.1111111   0.4444444  -0.3426417), wk =   0.0329218
        k(   37) = (   0.2222222   0.2222222   0.0000000), wk =   0.0164609
        k(   38) = (   0.2222222   0.2222222   0.1142139), wk =   0.0329218
        k(   39) = (   0.2222222   0.2222222   0.2284278), wk =   0.0329218
        k(   40) = (   0.2222222   0.2222222  -0.3426417), wk =   0.0164609
        k(   41) = (   0.2222222   0.3333333   0.0000000), wk =   0.0329218
        k(   42) = (   0.2222222   0.3333333   0.1142139), wk =   0.0658436
        k(   43) = (   0.2222222   0.3333333   0.2284278), wk =   0.0658436
        k(   44) = (   0.2222222   0.3333333  -0.3426417), wk =   0.0329218
        k(   45) = (   0.2222222   0.4444444   0.0000000), wk =   0.0329218
        k(   46) = (   0.2222222   0.4444444   0.1142139), wk =   0.0658436
        k(   47) = (   0.2222222   0.4444444   0.2284278), wk =   0.0658436
        k(   48) = (   0.2222222   0.4444444  -0.3426417), wk =   0.0329218
        k(   49) = (   0.3333333   0.3333333   0.0000000), wk =   0.0164609
        k(   50) = (   0.3333333   0.3333333   0.1142139), wk =   0.0329218
        k(   51) = (   0.3333333   0.3333333   0.2284278), wk =   0.0329218
        k(   52) = (   0.3333333   0.3333333  -0.3426417), wk =   0.0164609
        k(   53) = (   0.3333333   0.4444444   0.0000000), wk =   0.0329218
        k(   54) = (   0.3333333   0.4444444   0.1142139), wk =   0.0658436
        k(   55) = (   0.3333333   0.4444444   0.2284278), wk =   0.0658436
        k(   56) = (   0.3333333   0.4444444  -0.3426417), wk =   0.0329218
        k(   57) = (   0.4444444   0.4444444   0.0000000), wk =   0.0164609
        k(   58) = (   0.4444444   0.4444444   0.1142139), wk =   0.0329218
        k(   59) = (   0.4444444   0.4444444   0.2284278), wk =   0.0329218
        k(   60) = (   0.4444444   0.4444444  -0.3426417), wk =   0.0164609

     Dense  grid:   254517 G-vectors     FFT dimensions: (  72,  72, 108)

     Estimated max dynamical RAM per process >     905.11 MB

     Estimated total dynamical RAM >      35.36 GB

     Initial potential from superposition of free atoms

     starting charge  183.99828, renormalised to  184.18000
     Starting wfcs are  116 randomized atomic wfcs

     total cpu time spent up to now is        7.3 secs

     Self-consistent Calculation

     iteration #  1     ecut=   120.00 Ry     beta= 0.70
     Davidson diagonalization with overlap
     ethr =  1.00E-02,  avg # of iterations =  5.0

     total cpu time spent up to now is       30.4 secs

     total energy              =   -3126.74913268 Ry
     Harris-Foulkes estimate   =   -3132.21757269 Ry
     estimated scf accuracy    <       6.89609514 Ry

     iteration #  2     ecut=   120.00 Ry     beta= 0.70
     Davidson diagonalization with overlap
     ethr =  3.74E-03,  avg # of iterations =  3.5

     total cpu time spent up to now is       52.3 secs

     total energy              =   -3125.14854770 Ry
     Harris-Foulkes estimate   =   -3135.43042891 Ry
     estimated scf accuracy    <      27.62097252 Ry

     iteration #  3     ecut=   120.00 Ry     beta= 0.70
     Davidson diagonalization with overlap
     ethr =  3.74E-03,  avg # of iterations =  3.4

     total cpu time spent up to now is       72.5 secs

     total energy              =   -3130.41436275 Ry
     Harris-Foulkes estimate   =   -3130.55026747 Ry
     estimated scf accuracy    <       0.46149123 Ry

     iteration #  4     ecut=   120.00 Ry     beta= 0.70
     Davidson diagonalization with overlap
     ethr =  2.51E-04,  avg # of iterations =  2.4

     total cpu time spent up to now is       89.5 secs

     total energy              =   -3130.39774392 Ry
     Harris-Foulkes estimate   =   -3130.44384105 Ry
     estimated scf accuracy    <       0.11328320 Ry

     iteration #  5     ecut=   120.00 Ry     beta= 0.70
     Davidson diagonalization with overlap
     ethr =  6.15E-05,  avg # of iterations =  4.5

     total cpu time spent up to now is      108.4 secs

     total energy              =   -3130.41366880 Ry
     Harris-Foulkes estimate   =   -3130.42243739 Ry
     estimated scf accuracy    <       0.02312025 Ry

     iteration #  6     ecut=   120.00 Ry     beta= 0.70
     Davidson diagonalization with overlap
     ethr =  1.26E-05,  avg # of iterations =  4.0

     total cpu time spent up to now is      127.5 secs

     total energy              =   -3130.41701257 Ry
     Harris-Foulkes estimate   =   -3130.41877127 Ry
     estimated scf accuracy    <       0.00453131 Ry

     iteration #  7     ecut=   120.00 Ry     beta= 0.70
     Davidson diagonalization with overlap
     ethr =  2.46E-06,  avg # of iterations =  3.8

     total cpu time spent up to now is      145.2 secs

     total energy              =   -3130.41768923 Ry
     Harris-Foulkes estimate   =   -3130.41770650 Ry
     estimated scf accuracy    <       0.00002778 Ry

     iteration #  8     ecut=   120.00 Ry     beta= 0.70
     Davidson diagonalization with overlap
     ethr =  1.51E-08,  avg # of iterations =  3.9

     total cpu time spent up to now is      168.0 secs

     total energy              =   -3130.41770999 Ry
     Harris-Foulkes estimate   =   -3130.41771276 Ry
     estimated scf accuracy    <       0.00001973 Ry

     iteration #  9     ecut=   120.00 Ry     beta= 0.70
     Davidson diagonalization with overlap
     ethr =  1.07E-08,  avg # of iterations =  1.0

     total cpu time spent up to now is      183.3 secs

     total energy              =   -3130.41770641 Ry
     Harris-Foulkes estimate   =   -3130.41771073 Ry
     estimated scf accuracy    <       0.00001331 Ry

     iteration # 10     ecut=   120.00 Ry     beta= 0.70
     Davidson diagonalization with overlap
     ethr =  7.23E-09,  avg # of iterations =  2.0

     total cpu time spent up to now is      199.6 secs

     total energy              =   -3130.41770757 Ry
     Harris-Foulkes estimate   =   -3130.41770800 Ry
     estimated scf accuracy    <       0.00000092 Ry

     iteration # 11     ecut=   120.00 Ry     beta= 0.70
     Davidson diagonalization with overlap
     ethr =  5.02E-10,  avg # of iterations =  3.0

     total cpu time spent up to now is      216.8 secs

     total energy              =   -3130.41770774 Ry
     Harris-Foulkes estimate   =   -3130.41770776 Ry
     estimated scf accuracy    <       0.00000003 Ry

     iteration # 12     ecut=   120.00 Ry     beta= 0.70
     Davidson diagonalization with overlap
     ethr =  1.59E-11,  avg # of iterations =  2.0

     total cpu time spent up to now is      236.1 secs

     End of self-consistent calculation

          k = 0.0000 0.0000 0.0000 ( 31879 PWs)   bands (ev):

   -66.4620 -66.4616 -66.4607 -66.4602 -30.8517 -30.8470 -30.7840 -30.7804
   -30.7794 -30.7794 -30.7756 -30.7756 -30.6999 -30.6999 -30.6968 -30.6968
   -20.6238 -20.6237 -20.6237 -20.6237 -20.6120 -20.6119 -20.6057 -20.6055
   -20.6024 -20.6024 -20.6021 -20.6021 -20.6021 -20.6019 -20.6017 -20.6017
   -20.6001 -20.6001 -20.6001 -20.6001 -20.5950 -20.5950 -20.5949 -20.5949
   -20.5904 -20.5904 -20.5902 -20.5902 -10.2318  -9.8538  -9.4944  -9.2302
    -9.2089  -9.1657  -8.1319  -8.0190  -7.9639  -7.9639  -7.9394  -7.9394
     0.9162   0.9168   0.9517   1.1569   1.2571   1.3813   2.3053   2.3153
     2.3153   2.4088   3.8931   3.8931   4.5455   4.5455   4.7855   5.3278
     5.3278   5.3476   5.3476   5.5536   5.5536   5.7088   5.7176   6.3999
     6.3999   6.6226   6.8736   6.8799   6.9842   6.9842   7.0015   7.0015
     7.9530   7.9530   8.0251   8.0275   8.7602   8.7657   9.4328   9.4328
    12.1619  12.1619  13.0389  13.0389  13.1682  13.1733  13.3317  13.9056
    13.9056  14.2928  14.2959  14.4583  15.2875  16.2315  16.9965

          k = 0.0000 0.0000 0.1142 ( 31835 PWs)   bands (ev):

   -66.4620 -66.4616 -66.4607 -66.4603 -30.8473 -30.8426 -30.7886 -30.7849
   -30.7791 -30.7791 -30.7758 -30.7758 -30.6997 -30.6997 -30.6970 -30.6970
   -20.6238 -20.6237 -20.6237 -20.6237 -20.6116 -20.6115 -20.6062 -20.6060
   -20.6023 -20.6023 -20.6020 -20.6020 -20.6020 -20.6019 -20.6017 -20.6017
   -20.6001 -20.6001 -20.6001 -20.6001 -20.5950 -20.5950 -20.5949 -20.5949
   -20.5904 -20.5904 -20.5902 -20.5902 -10.1929  -9.8682  -9.4147  -9.2288
    -9.2104  -9.1233  -8.2383  -8.1363  -7.9623  -7.9623  -7.9411  -7.9411
     0.9163   0.9168   1.1205   1.2565   1.3400   1.5443   2.3120   2.3862
     2.3862   2.4016   3.7194   3.7194   4.5339   4.5735   4.5735   5.2242
     5.2242   5.3359   5.3644   5.3644   5.7037   5.7037   5.7593   6.4235
     6.4235   6.6394   6.6885   6.8623   6.9847   6.9847   7.0000   7.0000
     7.8805   7.8805   8.0253   8.0281   8.7607   8.7654   9.6564   9.6564
    12.0014  12.0014  13.0644  13.0644  13.1685  13.1730  13.6246  13.8101
    13.8101  14.2932  14.2958  14.6686  15.7003  15.9397  17.0241

          k = 0.0000 0.0000 0.2284 ( 31802 PWs)   bands (ev):

   -66.4619 -66.4617 -66.4606 -66.4603 -30.8349 -30.8305 -30.8011 -30.7972
   -30.7785 -30.7785 -30.7765 -30.7765 -30.6991 -30.6991 -30.6976 -30.6976
   -20.6237 -20.6237 -20.6237 -20.6237 -20.6105 -20.6104 -20.6074 -20.6072
   -20.6022 -20.6022 -20.6020 -20.6020 -20.6020 -20.6020 -20.6017 -20.6017
   -20.6002 -20.6002 -20.6002 -20.6002 -20.5950 -20.5950 -20.5949 -20.5949
   -20.5904 -20.5904 -20.5902 -20.5902 -10.0972  -9.9131  -9.2249  -9.2143
    -9.1884  -8.9870  -8.5101  -8.4266  -7.9578  -7.9578  -7.9456  -7.9456
     0.9164   0.9167   1.2303   1.2544   1.9451   2.2387   2.3306   2.3823
     2.5939   2.5939   3.3286   3.3286   3.8241   4.4031   4.7119   4.7119
     5.1077   5.1077   5.3949   5.3949   5.6308   5.6308   5.8819   6.3567
     6.6857   6.7546   6.7546   6.8144   6.9857   6.9857   7.0010   7.0010
     7.6424   7.6424   8.0261   8.0281   8.7620   8.7647  10.2155  10.2155
    11.5492  11.5492  13.1593  13.1593  13.1695  13.1720  13.5830  13.5830
    14.1934  14.2940  14.2956  15.3211  15.3779  16.7308  16.7920

          k = 0.0000 0.0000-0.3426 ( 31842 PWs)   bands (ev):

   -66.4618 -66.4618 -66.4605 -66.4604 -30.8180 -30.8180 -30.8139 -30.8139
   -30.7775 -30.7775 -30.7775 -30.7775 -30.6983 -30.6983 -30.6983 -30.6983
   -20.6237 -20.6237 -20.6237 -20.6237 -20.6090 -20.6089 -20.6088 -20.6088
   -20.6020 -20.6020 -20.6020 -20.6020 -20.6020 -20.6020 -20.6017 -20.6017
   -20.6003 -20.6003 -20.6003 -20.6003 -20.5950 -20.5950 -20.5950 -20.5950
   -20.5903 -20.5903 -20.5903 -20.5903  -9.9921  -9.9921  -9.2196  -9.2196
    -8.8591  -8.8590  -8.7462  -8.7461  -7.9517  -7.9517  -7.9517  -7.9517
     0.9166   0.9166   1.2487   1.2487   2.3563   2.3563   2.8663   2.8663
     2.9212   2.9212   2.9212   2.9212   3.2724   3.2724   4.9259   4.9259
     4.9259   4.9259   5.4719   5.4719   5.4719   5.4719   6.0808   6.0808
     6.7496   6.7496   6.9841   6.9841   6.9841   6.9841   7.2487   7.2487
     7.2487   7.2487   8.0272   8.0272   8.7635   8.7635  10.9052  10.9052
    10.9052  10.9052  13.1707  13.1707  13.3395  13.3395  13.3395  13.3395
    14.2949  14.2949  14.7773  14.7773  16.1621  16.1621  17.9993

          k = 0.0000 0.1111 0.0000 ( 31837 PWs)   bands (ev):

   -66.4620 -66.4615 -66.4607 -66.4603 -30.8518 -30.8473 -30.7852 -30.7807
   -30.7770 -30.7758 -30.7732 -30.7731 -30.7023 -30.7022 -30.6992 -30.6991
   -20.6238 -20.6237 -20.6237 -20.6237 -20.6121 -20.6119 -20.6058 -20.6056
   -20.6026 -20.6024 -20.6023 -20.6021 -20.6018 -20.6017 -20.6017 -20.6016
   -20.6001 -20.6001 -20.6001 -20.6000 -20.5949 -20.5949 -20.5948 -20.5948
   -20.5906 -20.5905 -20.5904 -20.5903 -10.1952  -9.8073  -9.5023  -9.1989
    -9.1776  -9.1544  -8.1377  -8.0303  -8.0218  -8.0117  -8.0039  -7.9875
     0.9713   1.0305   1.0305   1.1495   1.3777   1.4838   2.3410   2.3459
     2.3916   2.4838   3.8683   3.8848   4.3906   4.4406   4.7786   5.1924
     5.2175   5.2660   5.3030   5.5490   5.5557   5.7185   5.9079   6.3339
     6.3358   6.6303   6.6421   6.7320   6.7638   6.7921   6.9426   6.9691
     7.9189   7.9438   7.9813   7.9819   9.0904   9.1012   9.5661   9.6134
    12.1823  12.1978  12.8929  12.9221  13.1729  13.2380  13.4665  13.8259
    13.8457  14.4166  14.4197  14.5489  15.2568  16.3830  17.0348

          k = 0.0000 0.1111 0.1142 ( 31831 PWs)   bands (ev):

   -66.4620 -66.4616 -66.4607 -66.4603 -30.8473 -30.8428 -30.7893 -30.7852
   -30.7768 -30.7760 -30.7735 -30.7734 -30.7021 -30.7020 -30.6994 -30.6993
   -20.6238 -20.6237 -20.6237 -20.6237 -20.6117 -20.6115 -20.6062 -20.6060
   -20.6026 -20.6024 -20.6022 -20.6020 -20.6018 -20.6017 -20.6017 -20.6016
   -20.6001 -20.6001 -20.6001 -20.6001 -20.5949 -20.5949 -20.5948 -20.5948
   -20.5905 -20.5905 -20.5904 -20.5903 -10.1550  -9.8217  -9.4225  -9.1974
    -9.1790  -9.1133  -8.2418  -8.1422  -8.0286  -8.0102  -8.0046  -7.9891
     1.0305   1.0305   1.1724   1.3524   1.3770   1.5929   2.3783   2.4168
     2.4314   2.4780   3.7093   3.7285   4.4172   4.4686   4.5258   5.1305
     5.1480   5.2369   5.2448   5.3409   5.6684   5.6933   5.9448   6.3597
     6.3652   6.6081   6.6422   6.6866   6.7462   6.7990   6.9417   6.9703
     7.8494   7.8682   7.9778   7.9835   9.0933   9.0998   9.7689   9.8098
    12.0255  12.0423  12.9127  12.9527  13.1689  13.2428  13.7277  13.7530
    13.7617  14.4169  14.4181  14.7492  15.6698  16.0760  17.0820

          k = 0.0000 0.1111 0.2284 ( 31808 PWs)   bands (ev):

   -66.4619 -66.4616 -66.4606 -66.4604 -30.8350 -30.8307 -30.8014 -30.7974
   -30.7761 -30.7757 -30.7742 -30.7740 -30.7015 -30.7015 -30.7000 -30.6999
   -20.6237 -20.6237 -20.6237 -20.6237 -20.6105 -20.6104 -20.6074 -20.6072
   -20.6025 -20.6024 -20.6020 -20.6020 -20.6018 -20.6017 -20.6016 -20.6015
   -20.6002 -20.6002 -20.6002 -20.6002 -20.5949 -20.5948 -20.5948 -20.5948
   -20.5905 -20.5905 -20.5904 -20.5904 -10.0560  -9.8671  -9.1964  -9.1936
    -9.1829  -8.9805  -8.5144  -8.4296  -8.0240  -8.0107  -8.0057  -7.9936
     1.0305   1.0305   1.3418   1.3743   1.9474   2.2245   2.4042   2.4566
     2.6300   2.6375   3.3321   3.3534   3.8207   4.4057   4.5649   4.6112
     5.0035   5.0268   5.2526   5.2732   5.5242   5.5317   6.0496   6.4071
     6.6391   6.6453   6.7243   6.7297   6.7899   6.8283   6.9459   6.9775
     7.6161   7.6330   7.9787   7.9829   9.0964   9.0986  10.2904  10.3220
    11.5812  11.6013  12.9875  13.0508  13.1527  13.2646  13.4948  13.5428
    14.3353  14.4165  14.4168  15.3886  15.5113  16.6975  16.8622

          k = 0.0000 0.1111-0.3426 ( 31846 PWs)   bands (ev):

   -66.4618 -66.4618 -66.4605 -66.4605 -30.8182 -30.8182 -30.8141 -30.8141
   -30.7751 -30.7751 -30.7749 -30.7749 -30.7008 -30.7007 -30.7007 -30.7007
   -20.6237 -20.6237 -20.6237 -20.6237 -20.6090 -20.6090 -20.6088 -20.6088
   -20.6024 -20.6024 -20.6019 -20.6019 -20.6018 -20.6018 -20.6015 -20.6015
   -20.6003 -20.6003 -20.6002 -20.6002 -20.5949 -20.5949 -20.5948 -20.5948
   -20.5905 -20.5905 -20.5904 -20.5904  -9.9477  -9.9477  -9.1882  -9.1882
    -8.8663  -8.8663  -8.7438  -8.7438  -8.0176  -8.0176  -7.9997  -7.9997
     1.0305   1.0305   1.3670   1.3671   2.4303   2.4303   2.8659   2.8659
     2.9184   2.9184   2.9531   2.9531   3.2948   3.2948   4.7995   4.7995
     4.8355   4.8355   5.3306   5.3306   5.3486   5.3486   6.2109   6.2109
     6.6436   6.6436   6.8090   6.8091   6.9357   6.9357   7.2262   7.2262
     7.2491   7.2491   7.9810   7.9810   9.0978   9.0978  10.9522  10.9522
    10.9773  10.9773  13.0908  13.0908  13.2403  13.2403  13.3515  13.3516
    14.4164  14.4164  14.9159  14.9159  16.2313  16.2313  17.9577

          k = 0.0000 0.2222 0.0000 ( 31807 PWs)   bands (ev):

   -66.4619 -66.4614 -66.4608 -66.4604 -30.8517 -30.8479 -30.7859 -30.7814
   -30.7702 -30.7680 -30.7664 -30.7661 -30.7093 -30.7089 -30.7061 -30.7059
   -20.6238 -20.6237 -20.6237 -20.6237 -20.6121 -20.6120 -20.6059 -20.6056
   -20.6029 -20.6027 -20.6022 -20.6021 -20.6019 -20.6016 -20.6014 -20.6012
   -20.6001 -20.6000 -20.6000 -20.6000 -20.5946 -20.5945 -20.5944 -20.5944
   -20.5910 -20.5909 -20.5908 -20.5907 -10.0921  -9.6707  -9.5276  -9.1168
    -9.1070  -9.0856  -8.2477  -8.2105  -8.1449  -8.1210  -8.0879  -8.0300
     1.0027   1.1301   1.3556   1.3592   1.7139   1.7907   2.4337   2.4466
     2.6201   2.7113   3.7714   3.8012   4.1102   4.1886   4.7570   4.8180
     4.8524   5.0493   5.1728   5.5472   5.5796   5.7427   5.9362   5.9496
     6.1645   6.2136   6.3087   6.4438   6.6042   6.9088   6.9600   6.9661
     7.8138   7.8479   7.8702   7.9040   9.7282   9.7725   9.9222  10.0670
    12.2305  12.2807  12.6407  12.6500  12.9870  13.0688  13.6078  13.6631
    13.7805  14.8246  14.9397  14.9401  15.1640  16.7837  17.1142

          k = 0.0000 0.2222 0.1142 ( 31803 PWs)   bands (ev):

   -66.4618 -66.4614 -66.4608 -66.4604 -30.8472 -30.8435 -30.7900 -30.7859
   -30.7699 -30.7682 -30.7667 -30.7663 -30.7091 -30.7087 -30.7063 -30.7061
   -20.6238 -20.6237 -20.6237 -20.6237 -20.6117 -20.6116 -20.6063 -20.6061
   -20.6029 -20.6027 -20.6022 -20.6021 -20.6019 -20.6015 -20.6014 -20.6012
   -20.6002 -20.6000 -20.6000 -20.6000 -20.5946 -20.5945 -20.5944 -20.5944
   -20.5910 -20.5909 -20.5909 -20.5907 -10.0476  -9.6853  -9.4483  -9.1056
    -9.0870  -9.0801  -8.3012  -8.2084  -8.1740  -8.1433  -8.1227  -8.1153
     1.2406   1.3558   1.3589   1.3639   1.7127   1.8274   2.5073   2.5108
     2.6307   2.7056   3.6596   3.7141   4.1183   4.2154   4.5019   4.8194
     4.8452   4.9081   5.0038   5.3515   5.5430   5.6550   5.9299   5.9517
     6.2198   6.2668   6.3433   6.5826   6.6216   6.8988   6.9696   6.9762
     7.7642   7.8138   7.8495   7.8650   9.7400   9.7660  10.0830  10.2085
    12.0959  12.1547  12.6470  12.6614  12.9811  13.0722  13.5042  13.5692
    14.0984  14.9388  14.9396  14.9936  15.5768  16.4320  17.1371

          k = 0.0000 0.2222 0.2284 ( 31823 PWs)   bands (ev):

   -66.4618 -66.4615 -66.4607 -66.4605 -30.8350 -30.8313 -30.8018 -30.7981
   -30.7692 -30.7682 -30.7674 -30.7669 -30.7085 -30.7082 -30.7069 -30.7067
   -20.6237 -20.6237 -20.6237 -20.6237 -20.6106 -20.6104 -20.6074 -20.6073
   -20.6028 -20.6027 -20.6021 -20.6020 -20.6018 -20.6016 -20.6012 -20.6011
   -20.6003 -20.6002 -20.6001 -20.6001 -20.5946 -20.5945 -20.5944 -20.5944
   -20.5910 -20.5909 -20.5909 -20.5908  -9.9377  -9.7323  -9.2232  -9.1017
    -9.0909  -8.9586  -8.5437  -8.4357  -8.2024  -8.1754  -8.1390  -8.1270
     1.3564   1.3583   1.6339   1.7080   1.9542   2.2153   2.6208   2.6802
     2.7374   2.7486   3.3345   3.4079   3.8114   4.2679   4.3448   4.4113
     4.7489   4.7741   4.9008   4.9043   5.2354   5.2970   5.9328   5.9500
     6.3821   6.5266   6.6819   6.7070   6.7940   6.8827   6.9878   7.0165
     7.5519   7.6021   7.8456   7.8537   9.7525   9.7616  10.5137  10.6166
    11.6828  11.7540  12.7225  12.7544  12.9562  13.0830  13.2633  13.3551
    14.7172  14.9380  14.9390  15.5815  15.8696  16.5944  17.0563

          k = 0.0000 0.2222-0.3426 ( 31806 PWs)   bands (ev):

   -66.4616 -66.4616 -66.4606 -66.4606 -30.8183 -30.8183 -30.8147 -30.8147
   -30.7683 -30.7683 -30.7677 -30.7677 -30.7077 -30.7077 -30.7075 -30.7075
   -20.6237 -20.6237 -20.6237 -20.6237 -20.6090 -20.6090 -20.6089 -20.6089
   -20.6027 -20.6027 -20.6021 -20.6021 -20.6016 -20.6016 -20.6011 -20.6011
   -20.6003 -20.6003 -20.6002 -20.6002 -20.5945 -20.5945 -20.5944 -20.5944
   -20.5909 -20.5909 -20.5908 -20.5908  -9.8185  -9.8185  -9.0963  -9.0963
    -8.8944  -8.8944  -8.7349  -8.7349  -8.1926  -8.1926  -8.1330  -8.1330
     1.3574   1.3574   1.6947   1.6947   2.6490   2.6490   2.8642   2.8642
     2.9202   2.9202   3.0386   3.0386   3.3504   3.3504   4.5205   4.5205
     4.5965   4.5965   4.9798   4.9798   5.0031   5.0031   5.9429   5.9429
     6.4694   6.4695   6.8523   6.8523   6.9566   6.9566   7.1880   7.1881
     7.2520   7.2520   7.8489   7.8489   9.7583   9.7583  11.0994  11.0994
    11.1856  11.1856  12.8450  12.8450  12.9723  12.9723  13.1818  13.1818
    14.9381  14.9381  15.2936  15.2936  16.4248  16.4248  17.8292

          k = 0.0000 0.3333 0.0000 ( 31782 PWs)   bands (ev):

   -66.4617 -66.4612 -66.4610 -66.4606 -30.8513 -30.8488 -30.7857 -30.7824
   -30.7597 -30.7573 -30.7560 -30.7555 -30.7199 -30.7191 -30.7166 -30.7163
   -20.6238 -20.6237 -20.6237 -20.6237 -20.6121 -20.6120 -20.6059 -20.6058
   -20.6030 -20.6028 -20.6025 -20.6024 -20.6016 -20.6013 -20.6012 -20.6009
   -20.6001 -20.6000 -20.5999 -20.5999 -20.5940 -20.5939 -20.5938 -20.5938
   -20.5916 -20.5916 -20.5915 -20.5913  -9.9440  -9.5767  -9.4535  -9.0417
    -8.9610  -8.9393  -8.5252  -8.4559  -8.3367  -8.3134  -8.0869  -8.0425
     1.0282   1.1043   1.8445   1.8631   2.1913   2.2330   2.5638   2.6016
     3.0110   3.0999   3.5570   3.5664   3.7934   3.8764   4.2725   4.3163
     4.7390   4.7883   5.0796   5.1628   5.1740   5.5164   5.6281   5.7710
     6.0234   6.1102   6.1249   6.3967   6.7299   6.9852   7.0602   7.2300
     7.6286   7.6439   7.7078   7.8184  10.4096  10.4169  10.5058  10.6673
    12.0852  12.0950  12.5208  12.5428  12.5917  12.6131  13.3052  13.4019
    14.1530  15.0070  15.2871  15.8014  15.8141  17.1943  17.2726

          k = 0.0000 0.3333 0.1142 ( 31809 PWs)   bands (ev):

   -66.4617 -66.4613 -66.4610 -66.4606 -30.8469 -30.8444 -30.7899 -30.7869
   -30.7594 -30.7575 -30.7563 -30.7557 -30.7197 -30.7190 -30.7168 -30.7165
   -20.6238 -20.6237 -20.6237 -20.6237 -20.6117 -20.6116 -20.6063 -20.6062
   -20.6030 -20.6028 -20.6025 -20.6024 -20.6016 -20.6013 -20.6012 -20.6008
   -20.6002 -20.6000 -20.6000 -20.6000 -20.5940 -20.5939 -20.5938 -20.5938
   -20.5916 -20.5916 -20.5915 -20.5914  -9.8915  -9.4990  -9.4686  -9.0129
    -8.9596  -8.9407  -8.5487  -8.4522  -8.3352  -8.3150  -8.1863  -8.1439
     1.2753   1.3499   1.8458   1.8620   2.1897   2.2441   2.6383   2.6632
     3.0162   3.0942   3.5074   3.5462   3.8187   3.9125   4.2837   4.3282
     4.4708   4.6050   4.8126   5.1465   5.1579   5.3239   5.3768   5.5810
     6.1841   6.2315   6.4464   6.4722   6.7393   6.9772   7.0691   7.2211
     7.6066   7.6342   7.6721   7.7644  10.4384  10.4667  10.5661  10.7511
    12.0963  12.1179  12.4056  12.4581  12.5423  12.6184  13.1918  13.2953
    14.5092  15.3793  15.4487  15.8024  15.8131  16.8613  17.3011

          k = 0.0000 0.3333 0.2284 ( 31801 PWs)   bands (ev):

   -66.4616 -66.4613 -66.4609 -66.4607 -30.8348 -30.8323 -30.8017 -30.7990
   -30.7587 -30.7574 -30.7569 -30.7563 -30.7191 -30.7185 -30.7174 -30.7171
   -20.6237 -20.6237 -20.6237 -20.6237 -20.6106 -20.6105 -20.6075 -20.6074
   -20.6029 -20.6028 -20.6024 -20.6023 -20.6014 -20.6013 -20.6010 -20.6007
   -20.6004 -20.6002 -20.6001 -20.6001 -20.5940 -20.5940 -20.5938 -20.5938
   -20.5916 -20.5916 -20.5914 -20.5914  -9.7599  -9.5189  -9.2799  -8.9557
    -8.9446  -8.9133  -8.6747  -8.4401  -8.4350  -8.3313  -8.3295  -8.3193
     1.8495   1.8589   1.9110   1.9672   2.1814   2.3471   2.8374   2.8673
     3.0287   3.0787   3.3008   3.3907   3.8017   3.9747   4.0514   4.2181
     4.3433   4.3690   4.5097   4.6173   4.8826   5.0258   5.1626   5.1630
     6.6081   6.6365   6.6965   6.7683   6.7723   6.9552   7.1082   7.1845
     7.4443   7.5312   7.6541   7.6752  10.4690  10.4801  10.8758  11.0440
    11.8551  11.9857  12.3324  12.3520  12.5404  12.6419  12.9228  13.0403
    15.2380  15.8032  15.8104  15.8817  16.3509  16.4148  17.2570

          k = 0.0000 0.3333-0.3426 ( 31802 PWs)   bands (ev):

   -66.4615 -66.4615 -66.4608 -66.4608 -30.8182 -30.8182 -30.8157 -30.8157
   -30.7578 -30.7578 -30.7569 -30.7569 -30.7183 -30.7183 -30.7178 -30.7178
   -20.6237 -20.6237 -20.6237 -20.6237 -20.6091 -20.6091 -20.6089 -20.6089
   -20.6029 -20.6029 -20.6024 -20.6024 -20.6013 -20.6013 -20.6008 -20.6008
   -20.6004 -20.6004 -20.6002 -20.6002 -20.5940 -20.5940 -20.5938 -20.5938
   -20.5916 -20.5916 -20.5914 -20.5914  -9.6173  -9.6173  -8.9701  -8.9701
    -8.9477  -8.9477  -8.7147  -8.7147  -8.4122  -8.4122  -8.3251  -8.3251
     1.8544   1.8544   2.1514   2.1514   2.8260   2.8260   2.9149   2.9150
     3.0576   3.0576   3.1397   3.1397   3.3904   3.3904   4.2209   4.2209
     4.2764   4.2764   4.5078   4.5078   4.6001   4.6001   5.1559   5.1559
     6.7131   6.7131   6.8991   6.8991   7.0599   7.0600   7.1346   7.1346
     7.2625   7.2625   7.6574   7.6574  10.4794  10.4794  11.3539  11.3539
    11.5063  11.5063  12.4293  12.4293  12.6019  12.6019  12.7989  12.7989
    15.7978  15.7978  15.8328  15.8328  16.7006  16.7006  17.3779

          k = 0.0000 0.4444 0.0000 ( 31790 PWs)   bands (ev):

   -66.4615 -66.4612 -66.4610 -66.4608 -30.8507 -30.8498 -30.7848 -30.7836
   -30.7467 -30.7448 -30.7432 -30.7427 -30.7329 -30.7316 -30.7295 -30.7291
   -20.6238 -20.6238 -20.6237 -20.6237 -20.6121 -20.6121 -20.6059 -20.6059
   -20.6030 -20.6028 -20.6028 -20.6026 -20.6013 -20.6012 -20.6010 -20.6009
   -20.6001 -20.6000 -20.5999 -20.5999 -20.5933 -20.5932 -20.5930 -20.5930
   -20.5924 -20.5924 -20.5922 -20.5921  -9.7875  -9.6605  -9.1722  -8.9095
    -8.8537  -8.7683  -8.7541  -8.7018  -8.5551  -8.5322  -8.0736  -8.0577
     1.0520   1.0773   2.3882   2.4813   2.6222   2.6294   2.6887   2.7850
     3.1180   3.2144   3.5681   3.5722   3.5987   3.6684   3.7172   3.8226
     4.2682   4.3751   4.7291   4.7801   5.1752   5.3767   5.6925   5.7534
     5.9486   5.9558   6.1111   6.2205   7.1092   7.1630   7.2384   7.3864
     7.3974   7.4818   7.4932   7.6795  10.9745  11.0522  11.2086  11.3366
    11.5959  11.6298  11.9445  12.0069  12.7020  12.8212  12.9835  13.1081
    14.4977  14.7845  15.8966  16.5148  16.8396  16.9284  17.3874

          k = 0.0000 0.4444 0.1142 ( 31790 PWs)   bands (ev):

   -66.4614 -66.4612 -66.4610 -66.4608 -30.8463 -30.8454 -30.7891 -30.7880
   -30.7465 -30.7448 -30.7434 -30.7429 -30.7327 -30.7315 -30.7297 -30.7293
   -20.6238 -20.6237 -20.6237 -20.6237 -20.6117 -20.6117 -20.6064 -20.6063
   -20.6030 -20.6028 -20.6028 -20.6026 -20.6013 -20.6012 -20.6010 -20.6008
   -20.6002 -20.6001 -20.6000 -20.6000 -20.5933 -20.5932 -20.5930 -20.5930
   -20.5924 -20.5924 -20.5922 -20.5921  -9.7241  -9.5876  -9.1882  -8.8916
    -8.8711  -8.7673  -8.7545  -8.6942  -8.5536  -8.5338  -8.1759  -8.1608
     1.3007   1.3258   2.3973   2.4776   2.6395   2.6541   2.7498   2.7948
     3.1039   3.1920   3.5704   3.6158   3.6516   3.6726   3.7512   3.8517
     4.2347   4.3728   4.4713   4.5506   4.8525   5.0607   5.4230   5.4940
     6.2246   6.2732   6.3149   6.3620   7.0991   7.1542   7.2386   7.3705
     7.3827   7.4602   7.4752   7.6383  11.0408  11.0973  11.2227  11.3737
    11.6488  11.6744  11.9501  12.0208  12.5621  12.6860  12.8564  12.9870
    14.8822  15.1829  15.9870  16.5634  16.8332  16.9393  17.1964

          k = 0.0000 0.4444 0.2284 ( 31780 PWs)   bands (ev):

   -66.4614 -66.4611 -66.4611 -66.4609 -30.8342 -30.8333 -30.8011 -30.8001
   -30.7458 -30.7446 -30.7441 -30.7434 -30.7321 -30.7311 -30.7304 -30.7298
   -20.6237 -20.6237 -20.6237 -20.6237 -20.6106 -20.6106 -20.6075 -20.6074
   -20.6029 -20.6028 -20.6027 -20.6026 -20.6011 -20.6010 -20.6009 -20.6007
   -20.6004 -20.6002 -20.6001 -20.6001 -20.5933 -20.5932 -20.5930 -20.5930
   -20.5924 -20.5924 -20.5922 -20.5921  -9.5588  -9.3877  -9.2454  -8.9440
    -8.8257  -8.7645  -8.7567  -8.6648  -8.5496  -8.5379  -8.4216  -8.3945
     1.9697   1.9809   2.4197   2.4656   2.6727   2.6998   2.8562   2.9179
     3.0562   3.0994   3.5674   3.6376   3.7955   3.8047   3.8097   3.8882
     3.9619   3.9625   4.3436   4.3609   4.4083   4.5876   4.7008   4.8412
     6.6581   6.6852   6.6953   6.7408   7.0501   7.1211   7.2480   7.2826
     7.2971   7.4249   7.4435   7.5276  11.1575  11.1637  11.3453  11.5498
    11.7637  11.7944  11.9827  12.0972  12.2142  12.3388  12.5429  12.6849
    15.7565  16.1459  16.2873  16.6862  16.7867  16.8566  16.9906

          k = 0.0000 0.4444-0.3426 ( 31788 PWs)   bands (ev):

   -66.4612 -66.4612 -66.4610 -66.4610 -30.8176 -30.8176 -30.8167 -30.8167
   -30.7450 -30.7449 -30.7441 -30.7441 -30.7312 -30.7312 -30.7305 -30.7305
   -20.6237 -20.6237 -20.6237 -20.6237 -20.6091 -20.6091 -20.6090 -20.6090
   -20.6028 -20.6028 -20.6027 -20.6026 -20.6010 -20.6010 -20.6007 -20.6007
   -20.6004 -20.6004 -20.6002 -20.6002 -20.5933 -20.5933 -20.5930 -20.5930
   -20.5924 -20.5924 -20.5922 -20.5922  -9.3704  -9.3704  -9.1299  -9.1299
    -8.7605  -8.7605  -8.6736  -8.6735  -8.5839  -8.5839  -8.5434  -8.5434
     2.4450   2.4450   2.5867   2.5867   2.7847   2.7847   2.9543   2.9544
     3.0192   3.0192   3.2489   3.2489   3.6351   3.6351   4.0214   4.0215
     4.0976   4.0976   4.1632   4.1632   4.2700   4.2700   4.3943   4.3943
     6.9057   6.9058   7.0064   7.0064   7.0452   7.0452   7.0954   7.0954
     7.3167   7.3167   7.4573   7.4573  11.1817  11.1817  11.6606  11.6606
    11.8852  11.8852  11.9430  11.9430  12.1767  12.1767  12.3499  12.3499
    16.4005  16.4005  16.7634  16.7634  16.9397  16.9397  17.1494

          k = 0.1111 0.1111 0.0000 ( 31815 PWs)   bands (ev):

   -66.4620 -66.4615 -66.4608 -66.4603 -30.8517 -30.8475 -30.7850 -30.7809
   -30.7799 -30.7761 -30.7685 -30.7658 -30.7096 -30.7065 -30.6994 -30.6963
   -20.6238 -20.6237 -20.6237 -20.6237 -20.6121 -20.6119 -20.6058 -20.6056
   -20.6026 -20.6025 -20.6024 -20.6022 -20.6019 -20.6017 -20.6015 -20.6014
   -20.6001 -20.6001 -20.6000 -20.5999 -20.5952 -20.5950 -20.5944 -20.5943
   -20.5911 -20.5909 -20.5903 -20.5901 -10.1642  -9.7702  -9.5106  -9.1900
    -9.1395  -9.1178  -8.1926  -8.1708  -8.0947  -8.0245  -7.9717  -7.9469
     0.9476   1.0225   1.0817   1.1437   1.6053   1.6745   2.3063   2.4242
     2.4835   2.5572   3.8256   3.8351   4.1699   4.5338   4.7711   4.8691
     5.1441   5.2835   5.3152   5.5274   5.5817   5.7284   5.9647   6.1604
     6.3672   6.5005   6.5731   6.5923   6.7408   6.8126   6.8467   6.8814
     7.8482   7.9283   7.9290   7.9620   9.3693   9.3874   9.4465   9.9810
    12.1352  12.2939  12.6077  13.0382  13.1205  13.1675  13.5562  13.6500
    13.9057  14.5192  14.5920  14.6502  15.2235  16.5664  17.0717

          k = 0.1111 0.1111 0.1142 ( 31801 PWs)   bands (ev):

   -66.4619 -66.4615 -66.4607 -66.4603 -30.8472 -30.8430 -30.7893 -30.7854
   -30.7797 -30.7764 -30.7685 -30.7660 -30.7094 -30.7067 -30.6992 -30.6965
   -20.6238 -20.6237 -20.6237 -20.6237 -20.6117 -20.6115 -20.6062 -20.6060
   -20.6026 -20.6025 -20.6023 -20.6022 -20.6019 -20.6017 -20.6015 -20.6014
   -20.6002 -20.6001 -20.6001 -20.6000 -20.5951 -20.5951 -20.5944 -20.5943
   -20.5910 -20.5909 -20.5903 -20.5901 -10.1230  -9.7845  -9.4310  -9.1771
    -9.1411  -9.0892  -8.2620  -8.1690  -8.1635  -8.1113  -7.9701  -7.9486
     1.0083   1.0224   1.2499   1.3773   1.6043   1.7240   2.3765   2.4501
     2.5352   2.5511   3.6989   3.7054   4.1576   4.5165   4.5767   4.8772
     4.9675   5.2101   5.2978   5.3498   5.6031   5.6947   6.0001   6.2530
     6.3743   6.5363   6.5776   6.5791   6.7422   6.7867   6.8433   6.8580
     7.7946   7.8731   7.9222   7.9347   9.3721   9.3830   9.6729  10.1324
    11.9901  12.1413  12.6326  13.0588  13.1133  13.1787  13.5577  13.8090
    13.8250  14.5155  14.6239  14.8307  15.6359  16.2361  17.0279

          k = 0.1111 0.1111 0.2284 ( 31815 PWs)   bands (ev):

   -66.4618 -66.4616 -66.4606 -66.4604 -30.8350 -30.8309 -30.8014 -30.7976
   -30.7790 -30.7771 -30.7682 -30.7666 -30.7088 -30.7073 -30.6987 -30.6971
   -20.6237 -20.6237 -20.6237 -20.6237 -20.6105 -20.6104 -20.6074 -20.6072
   -20.6025 -20.6024 -20.6022 -20.6021 -20.6019 -20.6018 -20.6014 -20.6013
   -20.6003 -20.6002 -20.6002 -20.6001 -20.5951 -20.5951 -20.5944 -20.5943
   -20.5910 -20.5909 -20.5902 -20.5901 -10.0215  -9.8298  -9.2053  -9.1617
    -9.1456  -8.9704  -8.5235  -8.4328  -8.1640  -8.1460  -7.9656  -7.9532
     1.0197   1.0223   1.5541   1.6007   1.9501   2.2272   2.4768   2.5223
     2.5947   2.7421   3.3242   3.3745   3.8172   4.3014   4.4003   4.7187
     4.7979   4.9035   5.1101   5.2605   5.3547   5.6074   6.0985   6.4284
     6.5505   6.5646   6.6401   6.7100   6.7599   6.7752   6.8892   6.9167
     7.5882   7.6263   7.9233   7.9308   9.3765   9.3815  10.2288  10.5538
    11.5518  11.7166  12.7333  13.0553  13.1568  13.1941  13.3618  13.5834
    14.2846  14.5037  14.7320  15.4655  15.6762  16.6583  16.9439

          k = 0.1111 0.1111-0.3426 ( 31820 PWs)   bands (ev):

   -66.4617 -66.4617 -66.4605 -66.4605 -30.8182 -30.8182 -30.8143 -30.8143
   -30.7780 -30.7780 -30.7675 -30.7675 -30.7080 -30.7080 -30.6979 -30.6979
   -20.6237 -20.6237 -20.6237 -20.6237 -20.6090 -20.6090 -20.6088 -20.6088
   -20.6025 -20.6025 -20.6021 -20.6020 -20.6019 -20.6019 -20.6013 -20.6013
   -20.6003 -20.6003 -20.6002 -20.6002 -20.5951 -20.5951 -20.5943 -20.5943
   -20.5910 -20.5910 -20.5902 -20.5902  -9.9112  -9.9112  -9.1525  -9.1525
    -8.8755  -8.8755  -8.7407  -8.7407  -8.1565  -8.1565  -7.9594  -7.9594
     1.0217   1.0217   1.5913   1.5913   2.5024   2.5024   2.8655   2.8655
     2.9165   2.9165   2.9724   2.9724   3.3194   3.3194   4.5590   4.5590
     4.9030   4.9030   5.0406   5.0406   5.4262   5.4262   6.2480   6.2480
     6.5641   6.5641   6.7197   6.7197   6.8824   6.8824   7.2247   7.2247
     7.2346   7.2346   7.9272   7.9273   9.3796   9.3796  10.9140  10.9140
    11.1343  11.1343  12.9070  12.9070  13.2247  13.2247  13.3467  13.3467
    14.4669  14.4669  15.1224  15.1224  16.3122  16.3122  17.9041

          k = 0.1111 0.2222 0.0000 ( 31835 PWs)   bands (ev):

   -66.4618 -66.4614 -66.4609 -66.4604 -30.8515 -30.8480 -30.7855 -30.7816
   -30.7774 -30.7742 -30.7575 -30.7548 -30.7204 -30.7174 -30.7014 -30.6983
   -20.6238 -20.6237 -20.6237 -20.6237 -20.6121 -20.6120 -20.6058 -20.6057
   -20.6028 -20.6026 -20.6023 -20.6022 -20.6020 -20.6017 -20.6013 -20.6010
   -20.6002 -20.6001 -20.6000 -20.5998 -20.5952 -20.5950 -20.5937 -20.5936
   -20.5918 -20.5917 -20.5903 -20.5901 -10.0762  -9.6610  -9.5377  -9.1610
    -9.0283  -9.0109  -8.4155  -8.3872  -8.1057  -8.0342  -8.0315  -8.0077
     0.9848   1.1276   1.1577   1.2089   2.0903   2.1193   2.3355   2.5765
     2.6998   2.7801   3.6227   3.6465   4.0245   4.3405   4.3838   4.7513
     4.9922   5.0932   5.2000   5.5185   5.6015   5.7477   5.8885   6.0322
     6.0961   6.2145   6.2546   6.3419   6.7002   6.7935   6.8074   7.1030
     7.7092   7.7753   7.7928   7.9471   9.6030   9.9638   9.9922  10.5098
    12.0173  12.3429  12.4532  12.9029  12.9170  13.0054  13.3706  13.7301
    13.8322  14.8978  14.8997  15.1219  15.1818  17.0274  17.1762

          k = 0.1111 0.2222 0.1142 ( 31822 PWs)   bands (ev):

   -66.4618 -66.4614 -66.4608 -66.4604 -30.8471 -30.8436 -30.7896 -30.7860
   -30.7774 -30.7744 -30.7575 -30.7550 -30.7202 -30.7176 -30.7012 -30.6985
   -20.6238 -20.6237 -20.6237 -20.6237 -20.6117 -20.6116 -20.6063 -20.6061
   -20.6028 -20.6026 -20.6023 -20.6022 -20.6020 -20.6017 -20.6012 -20.6010
   -20.6002 -20.6002 -20.6000 -20.5999 -20.5952 -20.5951 -20.5936 -20.5936
   -20.5918 -20.5917 -20.5903 -20.5901 -10.0315  -9.6750  -9.4588  -9.1350
    -9.0305  -8.9988  -8.4363  -8.3848  -8.2012  -8.1405  -8.0320  -8.0094
     1.1172   1.1575   1.3002   1.4000   2.0892   2.1330   2.4056   2.6299
     2.7199   2.7742   3.5558   3.6371   3.9089   4.3548   4.4398   4.4909
     4.7500   5.0792   5.1047   5.3620   5.4449   5.6765   5.9482   6.0319
     6.1868   6.2611   6.3544   6.4309   6.7083   6.7292   6.8369   7.0995
     7.6745   7.7654   7.7761   7.8731   9.7936   9.9674   9.9998  10.6185
    11.9660  12.2827  12.3183  12.8914  12.9184  13.0229  13.2725  13.7358
    14.0043  14.8901  15.0734  15.2130  15.5327  16.6241  17.2100

          k = 0.1111 0.2222 0.2284 ( 31808 PWs)   bands (ev):

   -66.4617 -66.4615 -66.4608 -66.4605 -30.8349 -30.8315 -30.8015 -30.7982
   -30.7769 -30.7751 -30.7571 -30.7556 -30.7197 -30.7182 -30.7006 -30.6991
   -20.6237 -20.6237 -20.6237 -20.6237 -20.6106 -20.6104 -20.6074 -20.6073
   -20.6027 -20.6026 -20.6022 -20.6021 -20.6020 -20.6017 -20.6011 -20.6009
   -20.6003 -20.6003 -20.6001 -20.6001 -20.5951 -20.5951 -20.5936 -20.5936
   -20.5918 -20.5917 -20.5903 -20.5902  -9.9218  -9.7203  -9.2356  -9.0795
    -9.0371  -8.9286  -8.5854  -8.4388  -8.3772  -8.3164  -8.0274  -8.0146
     1.1509   1.1570   1.9138   1.9683   2.0827   2.2962   2.6119   2.6952
     2.7614   2.8740   3.3179   3.3656   3.8099   3.9944   4.2959   4.4084
     4.5818   4.6209   4.9426   4.9789   5.1554   5.4772   6.0028   6.0302
     6.3011   6.5038   6.6004   6.6737   6.7301   6.7689   6.9471   7.0805
     7.5073   7.5990   7.7715   7.7896   9.9691   9.9756  10.3334  10.9389
    11.5920  11.9310  12.3578  12.8114  12.9347  13.0704  13.1084  13.5073
    14.4788  14.8541  15.3164  15.6992  16.0901  16.5364  17.1751

          k = 0.1111 0.2222-0.3426 ( 31800 PWs)   bands (ev):

   -66.4616 -66.4616 -66.4606 -66.4606 -30.8182 -30.8182 -30.8149 -30.8149
   -30.7760 -30.7760 -30.7564 -30.7564 -30.7189 -30.7189 -30.6998 -30.6998
   -20.6237 -20.6237 -20.6237 -20.6237 -20.6090 -20.6090 -20.6089 -20.6089
   -20.6027 -20.6026 -20.6021 -20.6021 -20.6018 -20.6018 -20.6009 -20.6009
   -20.6003 -20.6003 -20.6002 -20.6002 -20.5951 -20.5951 -20.5936 -20.5936
   -20.5917 -20.5917 -20.5902 -20.5902  -9.8041  -9.8041  -9.0501  -9.0500
    -8.9121  -8.9118  -8.7285  -8.7282  -8.3620  -8.3618  -8.0211  -8.0210
     1.1553   1.1557   2.0624   2.0629   2.7114   2.7143   2.8590   2.8636
     2.9140   2.9288   3.0187   3.0391   3.3532   3.3574   4.2495   4.2645
     4.5577   4.5658   4.8091   4.8480   5.2199   5.2559   6.0228   6.0230
     6.4014   6.4200   6.6704   6.6853   6.9962   6.9978   7.1842   7.1966
     7.2198   7.2309   7.7774   7.7786   9.9750   9.9762  10.9767  10.9829
    11.4150  11.4208  12.5670  12.5905  12.9456  13.0209  13.2383  13.2903
    14.7483  14.7562  15.6103  15.6210  16.5463  16.5466  17.5321

          k = 0.1111 0.3333 0.0000 ( 31802 PWs)   bands (ev):

   -66.4617 -66.4612 -66.4610 -66.4606 -30.8512 -30.8488 -30.7855 -30.7825
   -30.7703 -30.7676 -30.7445 -30.7417 -30.7335 -30.7305 -30.7079 -30.7048
   -20.6238 -20.6237 -20.6237 -20.6237 -20.6121 -20.6120 -20.6059 -20.6058
   -20.6029 -20.6028 -20.6025 -20.6024 -20.6018 -20.6015 -20.6011 -20.6008
   -20.6002 -20.6002 -20.5999 -20.5998 -20.5949 -20.5948 -20.5928 -20.5928
   -20.5926 -20.5926 -20.5906 -20.5905  -9.9465  -9.5901  -9.4860  -9.1037
    -8.8543  -8.8438  -8.6946  -8.6259  -8.1888  -8.1818  -8.0820  -8.0437
     1.0249   1.1046   1.4924   1.5209   2.4134   2.5790   2.6519   2.7192
     3.0884   3.1362   3.2001   3.4985   3.8004   3.9185   4.0943   4.6424
     4.7428   4.8203   5.0188   5.3556   5.3773   5.4948   5.6075   5.7371
     6.0113   6.0522   6.1923   6.5466   6.5660   6.8218   6.9118   7.3710
     7.5075   7.5479   7.5956   7.8856   9.9902  10.6386  10.6719  11.0938
    11.6032  12.3539  12.4537  12.5297  12.6374  12.8214  13.0499  13.6344
    14.0331  14.9489  15.3426  15.5748  15.9898  17.2814  17.3689

          k = 0.1111 0.3333 0.1142 ( 31796 PWs)   bands (ev):

   -66.4616 -66.4612 -66.4610 -66.4606 -30.8467 -30.8444 -30.7896 -30.7870
   -30.7703 -30.7678 -30.7444 -30.7419 -30.7333 -30.7307 -30.7077 -30.7050
   -20.6238 -20.6237 -20.6237 -20.6237 -20.6117 -20.6116 -20.6063 -20.6062
   -20.6029 -20.6028 -20.6025 -20.6024 -20.6017 -20.6014 -20.6011 -20.6008
   -20.6003 -20.6002 -20.5999 -20.5998 -20.5949 -20.5948 -20.5928 -20.5928
   -20.5926 -20.5926 -20.5906 -20.5905  -9.8953  -9.5136  -9.4996  -9.0774
    -8.8574  -8.8385  -8.7092  -8.6212  -8.2198  -8.1872  -8.1681  -8.1306
     1.2596   1.3395   1.4919   1.5525   2.4809   2.5975   2.6660   2.7506
     3.0912   3.1230   3.1902   3.5291   3.8042   3.8318   4.1515   4.4543
     4.6413   4.6725   4.7945   5.2378   5.3340   5.3582   5.4002   5.6271
     6.2233   6.2368   6.3187   6.5847   6.6060   6.8123   6.9291   7.3484
     7.4879   7.5413   7.5750   7.8153  10.1411  10.6406  10.6746  11.1720
    11.6611  12.2051  12.4356  12.5227  12.6130  12.7578  12.9334  13.5316
    14.3468  15.3393  15.4899  15.5587  16.0212  17.0196  17.3213

          k = 0.1111 0.3333 0.2284 ( 31777 PWs)   bands (ev):

   -66.4616 -66.4613 -66.4609 -66.4607 -30.8346 -30.8323 -30.8014 -30.7991
   -30.7701 -30.7685 -30.7439 -30.7425 -30.7328 -30.7313 -30.7071 -30.7056
   -20.6237 -20.6237 -20.6237 -20.6237 -20.6106 -20.6105 -20.6075 -20.6074
   -20.6028 -20.6028 -20.6024 -20.6024 -20.6016 -20.6014 -20.6009 -20.6006
   -20.6004 -20.6003 -20.6001 -20.6000 -20.5948 -20.5948 -20.5928 -20.5928
   -20.5926 -20.5926 -20.5906 -20.5905  -9.7689  -9.5452  -9.3000  -8.9940
    -8.8683  -8.8146  -8.7809  -8.6042  -8.4380  -8.4046  -8.1822  -8.1657
     1.4717   1.4901   1.9611   2.0557   2.6143   2.6451   2.7457   2.8722
     3.0584   3.1010   3.1676   3.3680   3.7979   3.8125   3.9444   4.1178
     4.3231   4.6052   4.6149   4.6884   4.7643   5.1639   5.3596   5.4020
     6.5386   6.6000   6.6531   6.6888   6.7607   6.8036   7.0099   7.2699
     7.3753   7.4886   7.5588   7.6385  10.5248  10.6439  10.7112  11.4108
    11.6849  11.9422  12.2151  12.4563  12.5262  12.6900  12.8217  13.2852
    14.9351  15.4929  15.8972  16.2069  16.3238  16.5901  17.3411

          k = 0.1111 0.3333-0.3426 ( 31772 PWs)   bands (ev):

   -66.4614 -66.4614 -66.4608 -66.4608 -30.8180 -30.8180 -30.8157 -30.8157
   -30.7693 -30.7693 -30.7432 -30.7432 -30.7321 -30.7321 -30.7064 -30.7064
   -20.6237 -20.6237 -20.6237 -20.6237 -20.6090 -20.6090 -20.6089 -20.6089
   -20.6028 -20.6028 -20.6024 -20.6024 -20.6015 -20.6015 -20.6007 -20.6007
   -20.6004 -20.6004 -20.6002 -20.6002 -20.5948 -20.5948 -20.5928 -20.5928
   -20.5926 -20.5926 -20.5906 -20.5906  -9.6352  -9.6352  -9.0087  -9.0078
    -8.9005  -8.8988  -8.6944  -8.6932  -8.5578  -8.5571  -8.1751  -8.1749
     1.4856   1.4865   2.5758   2.5764   2.8030   2.8042   2.9107   2.9379
     3.0079   3.0374   3.1589   3.1642   3.2904   3.3040   4.0792   4.1006
     4.1969   4.2057   4.4927   4.5889   4.7978   4.8782   5.3632   5.3666
     6.6213   6.6416   6.7454   6.7674   7.0774   7.0827   7.1169   7.1460
     7.2078   7.2312   7.5657   7.5724  10.6392  10.6454  11.1512  11.1750
    11.7841  11.7978  12.1636  12.2061  12.5152  12.6151  12.9884  13.0450
    15.3095  15.3297  16.2037  16.2286  16.9049  16.9228  17.3446

          k = 0.1111 0.4444 0.0000 ( 31790 PWs)   bands (ev):

   -66.4615 -66.4612 -66.4610 -66.4608 -30.8506 -30.8497 -30.7848 -30.7837
   -30.7599 -30.7572 -30.7472 -30.7444 -30.7308 -30.7279 -30.7181 -30.7151
   -20.6238 -20.6238 -20.6237 -20.6237 -20.6121 -20.6121 -20.6059 -20.6059
   -20.6029 -20.6028 -20.6027 -20.6026 -20.6014 -20.6013 -20.6010 -20.6008
   -20.6003 -20.6002 -20.5998 -20.5998 -20.5943 -20.5942 -20.5935 -20.5935
   -20.5920 -20.5919 -20.5912 -20.5911  -9.8025  -9.6774  -9.2557  -9.0032
    -8.9851  -8.8430  -8.6336  -8.6309  -8.4014  -8.3968  -8.0726  -8.0580
     1.0529   1.0789   1.9885   1.9922   2.4840   2.5612   2.5763   2.6986
     3.2082   3.5447   3.5872   3.6647   3.6910   3.7892   3.9339   4.1067
     4.3269   4.6245   4.7527   4.8847   5.1976   5.3638   5.6299   5.6825
     6.0005   6.0392   6.1452   6.3137   6.9359   7.0180   7.0977   7.2527
     7.2781   7.3473   7.6029   7.7727  10.5019  11.0502  11.3110  11.3607
    11.6674  11.9397  12.0019  12.2175  12.5186  12.7537  13.0552  13.3576
    14.3864  14.7019  15.9357  16.3880  16.6881  16.8957  17.2788

          k = 0.1111 0.4444 0.1142 ( 31793 PWs)   bands (ev):

   -66.4614 -66.4612 -66.4610 -66.4608 -30.8461 -30.8453 -30.7890 -30.7881
   -30.7599 -30.7575 -30.7471 -30.7446 -30.7307 -30.7281 -30.7179 -30.7153
   -20.6238 -20.6237 -20.6237 -20.6237 -20.6117 -20.6117 -20.6063 -20.6063
   -20.6029 -20.6028 -20.6027 -20.6026 -20.6014 -20.6013 -20.6010 -20.6008
   -20.6003 -20.6003 -20.5999 -20.5998 -20.5943 -20.5942 -20.5935 -20.5935
   -20.5920 -20.5919 -20.5912 -20.5911  -9.7419  -9.6070  -9.2690  -8.9992
    -8.9833  -8.8326  -8.6382  -8.6279  -8.4047  -8.3993  -8.1739  -8.1598
     1.3000   1.3255   1.9868   1.9997   2.4968   2.5712   2.6309   2.7544
     3.1904   3.5145   3.6088   3.6613   3.7034   3.8471   3.9463   4.1144
     4.2584   4.5004   4.6302   4.6795   4.9128   5.0458   5.4582   5.5426
     6.1786   6.2074   6.3540   6.4720   6.9363   7.0099   7.1030   7.2409
     7.2713   7.3386   7.5628   7.7148  10.6129  11.1274  11.3127  11.3661
    11.7227  11.9403  12.0028  12.2621  12.3712  12.6187  12.9289  13.2439
    14.7419  15.0851  16.0336  16.3777  16.7291  16.9147  17.1960

          k = 0.1111 0.4444 0.2284 ( 31800 PWs)   bands (ev):

   -66.4613 -66.4611 -66.4611 -66.4609 -30.8340 -30.8332 -30.8009 -30.8001
   -30.7595 -30.7581 -30.7466 -30.7452 -30.7302 -30.7287 -30.7174 -30.7159
   -20.6237 -20.6237 -20.6237 -20.6237 -20.6106 -20.6105 -20.6075 -20.6074
   -20.6028 -20.6028 -20.6027 -20.6026 -20.6013 -20.6011 -20.6009 -20.6007
   -20.6004 -20.6004 -20.6001 -20.6000 -20.5943 -20.5942 -20.5935 -20.5935
   -20.5919 -20.5919 -20.5912 -20.5911  -9.5873  -9.4179  -9.3164  -9.0521
    -8.9132  -8.7925  -8.6599  -8.6178  -8.4816  -8.4123  -8.3929  -8.3415
     1.8734   1.9671   1.9818   2.1239   2.5381   2.5533   2.8342   2.9120
     3.1197   3.3171   3.6121   3.6636   3.8370   3.8819   3.9809   4.0132
     4.0543   4.1714   4.2673   4.5212   4.6403   4.6568   4.7936   5.0168
     6.6011   6.6326   6.7132   6.7522   6.9255   6.9832   7.1323   7.1826
     7.2392   7.3306   7.4405   7.5461  10.9272  11.2911  11.3297  11.4302
    11.8738  11.9122  12.0127  12.0178  12.2871  12.3993  12.6160  12.9657
    15.4925  15.9748  16.2899  16.3559  16.8658  16.9778  17.0189

          k = 0.1111 0.4444-0.3426 ( 31802 PWs)   bands (ev):

   -66.4612 -66.4612 -66.4610 -66.4610 -30.8174 -30.8174 -30.8166 -30.8166
   -30.7589 -30.7589 -30.7460 -30.7459 -30.7294 -30.7294 -30.7166 -30.7166
   -20.6237 -20.6237 -20.6237 -20.6237 -20.6090 -20.6090 -20.6090 -20.6090
   -20.6028 -20.6028 -20.6026 -20.6026 -20.6011 -20.6011 -20.6008 -20.6008
   -20.6003 -20.6003 -20.6002 -20.6002 -20.5943 -20.5943 -20.5935 -20.5935
   -20.5919 -20.5919 -20.5912 -20.5912  -9.4208  -9.4207  -9.1924  -9.1921
    -8.7686  -8.7674  -8.6832  -8.6831  -8.5831  -8.5827  -8.3819  -8.3814
     1.9683   1.9695   2.5023   2.5028   2.8288   2.8289   2.8888   2.8901
     3.1392   3.1604   3.2778   3.2829   3.6573   3.6806   4.0362   4.0462
     4.1112   4.2147   4.2526   4.2781   4.3868   4.4688   4.6984   4.7030
     6.8259   6.8455   6.8960   6.9041   7.0159   7.0352   7.0508   7.1005
     7.2429   7.2711   7.3604   7.3793  11.2403  11.3045  11.4288  11.5064
    11.7504  11.8078  11.9372  12.0715  12.2258  12.2625  12.6300  12.6770
    16.0177  16.0564  16.6206  16.7321  16.7950  16.9544  17.1425

          k = 0.2222 0.2222 0.0000 ( 31799 PWs)   bands (ev):

   -66.4618 -66.4613 -66.4610 -66.4605 -30.8512 -30.8484 -30.7844 -30.7821
   -30.7813 -30.7775 -30.7440 -30.7412 -30.7339 -30.7310 -30.6982 -30.6951
   -20.6238 -20.6237 -20.6237 -20.6237 -20.6121 -20.6120 -20.6058 -20.6057
   -20.6025 -20.6025 -20.6025 -20.6025 -20.6022 -20.6018 -20.6011 -20.6008
   -20.6003 -20.6003 -20.5999 -20.5997 -20.5955 -20.5954 -20.5927 -20.5927
   -20.5927 -20.5926 -20.5900 -20.5898 -10.0271  -9.6202  -9.5704  -9.1704
    -8.8741  -8.8528  -8.6738  -8.6158  -8.0990  -8.0382  -7.9915  -7.9658
     0.9567   1.0496   1.1191   1.1490   2.2780   2.6045   2.6792   2.7193
     2.9074   2.9786   3.1807   3.4897   3.8112   4.0088   4.4900   4.7342
     4.9884   5.0904   5.1565   5.4897   5.5911   5.6813   5.8945   5.9236
     6.0451   6.0828   6.1490   6.4060   6.4262   6.6167   6.8903   7.3558
     7.4867   7.5724   7.6106   7.9685   9.4781  10.4573  10.4915  11.0801
    11.5823  12.2392  12.6847  12.7354  12.7694  13.0515  13.0780  13.7025
    13.9059  14.9405  14.9929  15.1408  15.7170  17.2699  17.3666

          k = 0.2222 0.2222 0.1142 ( 31799 PWs)   bands (ev):

   -66.4617 -66.4613 -66.4609 -66.4605 -30.8467 -30.8440 -30.7888 -30.7865
   -30.7810 -30.7777 -30.7439 -30.7414 -30.7338 -30.7312 -30.6980 -30.6953
   -20.6238 -20.6237 -20.6237 -20.6237 -20.6117 -20.6116 -20.6063 -20.6061
   -20.6025 -20.6025 -20.6024 -20.6024 -20.6022 -20.6018 -20.6011 -20.6008
   -20.6003 -20.6003 -20.5999 -20.5998 -20.5955 -20.5954 -20.5927 -20.5927
   -20.5927 -20.5926 -20.5900 -20.5898  -9.9815  -9.6330  -9.4934  -9.1394
    -8.8779  -8.8466  -8.6871  -8.6114  -8.2010  -8.1472  -7.9898  -7.9676
     1.0243   1.0495   1.3044   1.4004   2.3487   2.6240   2.7124   2.7240
     2.9158   2.9713   3.1617   3.5216   3.8253   3.8441   4.4646   4.5271
     4.7228   5.0656   5.0873   5.2831   5.4031   5.6787   5.8994   6.0446
     6.0733   6.1766   6.3161   6.3768   6.4628   6.6753   6.7853   7.3335
     7.4826   7.5653   7.5886   7.8863   9.6980  10.4597  10.4914  11.1584
    11.6378  12.0872  12.5644  12.7054  12.7780  12.9791  13.0666  13.8093
    13.9508  14.9208  15.2977  15.4047  15.7798  16.9601  17.4008

          k = 0.2222 0.2222 0.2284 ( 31794 PWs)   bands (ev):

   -66.4616 -66.4614 -66.4608 -66.4606 -30.8345 -30.8319 -30.8010 -30.7987
   -30.7803 -30.7784 -30.7434 -30.7420 -30.7333 -30.7318 -30.6975 -30.6959
   -20.6237 -20.6237 -20.6237 -20.6237 -20.6106 -20.6105 -20.6074 -20.6073
   -20.6025 -20.6025 -20.6023 -20.6022 -20.6022 -20.6019 -20.6009 -20.6007
   -20.6004 -20.6004 -20.6001 -20.6000 -20.5955 -20.5954 -20.5927 -20.5927
   -20.5927 -20.5927 -20.5899 -20.5898  -9.8706  -9.6749  -9.2781  -9.0433
    -8.8917  -8.8183  -8.7561  -8.5957  -8.4421  -8.3965  -7.9852  -7.9723
     1.0443   1.0492   1.9566   2.0788   2.5515   2.6886   2.6921   2.8360
     2.9475   2.9490   3.0984   3.3197   3.7897   3.8161   3.9541   4.1107
     4.6129   4.6813   4.7490   4.9952   5.1483   5.5181   6.0085   6.0455
     6.2569   6.2721   6.3908   6.5485   6.7174   6.7619   6.8954   7.2561
     7.3878   7.5116   7.5739   7.6762  10.2369  10.4650  10.4996  11.3974
    11.5433  11.9223  12.2195  12.5237  12.7898  12.8426  13.1554  13.5808
    14.3933  14.8510  15.7305  16.1138  16.3582  16.4925  17.5007

          k = 0.2222 0.2222-0.3426 ( 31786 PWs)   bands (ev):

   -66.4615 -66.4615 -66.4607 -66.4607 -30.8178 -30.8178 -30.8153 -30.8153
   -30.7794 -30.7794 -30.7427 -30.7427 -30.7326 -30.7326 -30.6967 -30.6967
   -20.6237 -20.6237 -20.6237 -20.6237 -20.6090 -20.6090 -20.6089 -20.6089
   -20.6025 -20.6025 -20.6023 -20.6023 -20.6020 -20.6020 -20.6007 -20.6006
   -20.6005 -20.6004 -20.6001 -20.6001 -20.5955 -20.5955 -20.5927 -20.5927
   -20.5927 -20.5927 -20.5899 -20.5899  -9.7546  -9.7546  -8.9829  -8.9829
    -8.9322  -8.9322  -8.6980  -8.6980  -8.5519  -8.5519  -7.9788  -7.9788
     1.0481   1.0481   2.6075   2.6075   2.8143   2.8143   2.8627   2.8627
     2.9507   2.9507   3.0501   3.0501   3.2518   3.2518   4.0902   4.0902
     4.2076   4.2076   4.9058   4.9058   5.2594   5.2594   6.0401   6.0401
     6.3366   6.3366   6.4110   6.4110   7.0749   7.0750   7.1570   7.1570
     7.1922   7.1922   7.5901   7.5901  10.4670  10.4670  10.9411  10.9411
    11.7803  11.7803  12.1918  12.1918  12.8035  12.8035  13.3360  13.3360
    14.6948  14.6948  16.0751  16.0751  16.8962  16.8962  17.4125

          k = 0.2222 0.3333 0.0000 ( 31792 PWs)   bands (ev):

   -66.4616 -66.4611 -66.4611 -66.4606 -30.8507 -30.8490 -30.7847 -30.7829
   -30.7786 -30.7757 -30.7480 -30.7453 -30.7299 -30.7269 -30.7000 -30.6969
   -20.6238 -20.6237 -20.6237 -20.6237 -20.6121 -20.6120 -20.6058 -20.6058
   -20.6027 -20.6026 -20.6024 -20.6024 -20.6020 -20.6017 -20.6010 -20.6007
   -20.6004 -20.6004 -20.5998 -20.5996 -20.5955 -20.5954 -20.5937 -20.5937
   -20.5917 -20.5917 -20.5899 -20.5898  -9.9446  -9.6316  -9.5302  -9.1482
    -8.9396  -8.8269  -8.6586  -8.6478  -8.0944  -8.0560  -8.0473  -8.0273
     1.0019   1.1036   1.1641   1.2349   2.3036   2.4802   2.5711   2.7120
     3.2058   3.3357   3.3913   3.6231   3.7783   4.0313   4.3754   4.7255
     4.8169   4.8655   5.0580   5.4557   5.5242   5.5408   5.6773   5.6894
     6.0181   6.0395   6.3224   6.3436   6.4347   6.6411   6.7844   7.2250
     7.2834   7.3557   7.5856   7.9468   9.6363  11.0318  11.0431  11.0802
    11.6525  12.2544  12.4736  12.4832  12.7779  12.8359  13.0953  13.8303
    13.8322  14.7726  15.2486  15.5388  16.3648  17.2779  17.4008

          k = 0.2222 0.3333 0.1142 ( 31783 PWs)   bands (ev):

   -66.4616 -66.4612 -66.4611 -66.4607 -30.8463 -30.8446 -30.7888 -30.7873
   -30.7788 -30.7759 -30.7479 -30.7455 -30.7297 -30.7272 -30.6998 -30.6971
   -20.6238 -20.6237 -20.6237 -20.6237 -20.6117 -20.6116 -20.6062 -20.6062
   -20.6027 -20.6026 -20.6024 -20.6024 -20.6020 -20.6017 -20.6009 -20.6007
   -20.6005 -20.6005 -20.5998 -20.5997 -20.5955 -20.5954 -20.5937 -20.5937
   -20.5917 -20.5917 -20.5899 -20.5898  -9.8961  -9.5596  -9.5420  -9.1173
    -8.9511  -8.8176  -8.6644  -8.6444  -8.1955  -8.1569  -8.0541  -8.0304
     1.1195   1.1639   1.3181   1.4073   2.3757   2.4924   2.5655   2.7730
     3.2025   3.3316   3.3680   3.6790   3.7112   3.9291   4.4265   4.4675
     4.7550   4.7985   4.8207   5.1400   5.4604   5.5589   5.6612   5.6945
     6.0437   6.3212   6.3229   6.3769   6.4554   6.6809   6.7394   7.2261
     7.2761   7.3400   7.5437   7.8657   9.8350  11.0326  11.0596  11.1489
    11.7112  12.0927  12.4462  12.4859  12.6643  12.8217  13.0200  13.7333
    14.0959  15.1465  15.2223  15.6938  16.4324  17.1537  17.4322

          k = 0.2222 0.3333 0.2284 ( 31778 PWs)   bands (ev):

   -66.4615 -66.4613 -66.4610 -66.4607 -30.8341 -30.8325 -30.8007 -30.7993
   -30.7784 -30.7766 -30.7476 -30.7461 -30.7292 -30.7277 -30.6992 -30.6977
   -20.6237 -20.6237 -20.6237 -20.6237 -20.6105 -20.6105 -20.6074 -20.6074
   -20.6026 -20.6025 -20.6024 -20.6024 -20.6019 -20.6017 -20.6008 -20.6006
   -20.6005 -20.6005 -20.6000 -20.5999 -20.5955 -20.5955 -20.5937 -20.5937
   -20.5917 -20.5917 -20.5899 -20.5898  -9.7787  -9.5813  -9.3651  -9.0115
    -8.9978  -8.7813  -8.6923  -8.6325  -8.4406  -8.4118  -8.0494  -8.0360
     1.1559   1.1634   1.9588   2.0847   2.5342   2.5435   2.5940   2.9428
     3.1626   3.2623   3.3219   3.3955   3.8472   3.8923   3.9714   4.0887
     4.4950   4.5810   4.7726   4.7974   4.8609   5.3433   5.6969   5.7099
     6.2757   6.4076   6.4265   6.5836   6.6814   6.7724   6.8803   7.1980
     7.2474   7.3165   7.4100   7.6334  10.3438  11.0343  11.0609  11.3775
    11.6678  11.8945  12.2138  12.4775  12.5407  12.5870  13.0574  13.4971
    14.5892  15.1318  16.0160  16.1151  16.7259  16.8465  17.3550

          k = 0.2222 0.3333-0.3426 ( 31788 PWs)   bands (ev):

   -66.4614 -66.4614 -66.4609 -66.4609 -30.8174 -30.8174 -30.8159 -30.8159
   -30.7776 -30.7775 -30.7469 -30.7469 -30.7285 -30.7285 -30.6985 -30.6985
   -20.6237 -20.6237 -20.6237 -20.6237 -20.6090 -20.6090 -20.6089 -20.6089
   -20.6025 -20.6025 -20.6024 -20.6024 -20.6018 -20.6018 -20.6007 -20.6007
   -20.6004 -20.6004 -20.6001 -20.6001 -20.5955 -20.5955 -20.5937 -20.5937
   -20.5917 -20.5917 -20.5899 -20.5899  -9.6593  -9.6593  -9.1333  -9.1331
    -8.8236  -8.8228  -8.6734  -8.6730  -8.5936  -8.5935  -8.0428  -8.0427
     1.1614   1.1618   2.4931   2.4932   2.8506   2.8514   2.8861   2.8926
     3.0671   3.0837   3.2266   3.2564   3.3405   3.3494   4.0771   4.0804
     4.2498   4.2502   4.6944   4.7654   4.9883   5.0597   5.7005   5.7065
     6.3691   6.3860   6.5031   6.5197   7.0429   7.0454   7.0659   7.1104
     7.1662   7.1880   7.3681   7.3829  10.9368  10.9681  11.0730  11.1141
    11.7944  11.8039  12.1976  12.1995  12.5002  12.5268  13.2320  13.2535
    14.9359  14.9458  16.4890  16.4985  16.8747  16.8993  17.3381

          k = 0.2222 0.4444 0.0000 ( 31797 PWs)   bands (ev):

   -66.4614 -66.4613 -66.4610 -66.4608 -30.8502 -30.8496 -30.7846 -30.7838
   -30.7715 -30.7691 -30.7610 -30.7585 -30.7169 -30.7139 -30.7065 -30.7034
   -20.6238 -20.6238 -20.6237 -20.6237 -20.6121 -20.6120 -20.6058 -20.6058
   -20.6028 -20.6028 -20.6025 -20.6025 -20.6017 -20.6015 -20.6010 -20.6008
   -20.6005 -20.6005 -20.5997 -20.5996 -20.5952 -20.5951 -20.5946 -20.5945
   -20.5909 -20.5908 -20.5903 -20.5901  -9.8370  -9.7245  -9.3834  -9.1827
    -9.0916  -8.9883  -8.4218  -8.4206  -8.2110  -8.2022  -8.0689  -8.0587
     1.0512   1.0813   1.4897   1.5264   1.9815   1.9894   2.4000   2.5542
     3.5871   3.7644   3.8076   3.8805   3.9555   4.1127   4.3058   4.4015
     4.5153   4.8874   5.1245   5.1608   5.3023   5.3404   5.5225   5.5618
     6.0899   6.1972   6.2279   6.4900   6.6434   6.6749   6.7960   6.9594
     6.9640   7.0571   7.7608   7.8793  10.0175  10.5178  11.5907  11.6168
    12.0812  12.0857  12.1991  12.3510  12.5235  12.6032  13.3578  13.6334
    14.1208  14.4678  15.8354  16.0714  16.6172  16.7325  17.0350

          k = 0.2222 0.4444 0.1142 ( 31787 PWs)   bands (ev):

   -66.4614 -66.4612 -66.4610 -66.4608 -30.8458 -30.8452 -30.7887 -30.7881
   -30.7717 -30.7693 -30.7611 -30.7588 -30.7167 -30.7141 -30.7063 -30.7036
   -20.6238 -20.6237 -20.6237 -20.6237 -20.6116 -20.6116 -20.6062 -20.6062
   -20.6028 -20.6027 -20.6025 -20.6025 -20.6016 -20.6015 -20.6009 -20.6008
   -20.6005 -20.6005 -20.5998 -20.5997 -20.5952 -20.5951 -20.5946 -20.5945
   -20.5909 -20.5908 -20.5902 -20.5901  -9.7824  -9.6609  -9.3946  -9.1937
    -9.0655  -8.9707  -8.4298  -8.4196  -8.2314  -8.2091  -8.1658  -8.1439
     1.2765   1.3194   1.4892   1.5624   1.9797   1.9975   2.4739   2.6273
     3.5562   3.7165   3.7739   3.8550   3.9151   4.1599   4.3066   4.3332
     4.5239   4.6828   4.8505   5.0292   5.1646   5.1708   5.5425   5.6168
     6.0859   6.1830   6.4431   6.5886   6.6594   6.6636   6.8131   6.9550
     6.9573   7.0553   7.7009   7.8059  10.1725  10.6330  11.5899  11.6153
    12.0783  12.0830  12.1981  12.2398  12.3824  12.6433  13.2417  13.5274
    14.4237  14.8111  15.8040  16.1899  16.5787  16.8106  17.0928

          k = 0.2222 0.4444 0.2284 ( 31793 PWs)   bands (ev):

   -66.4613 -66.4612 -66.4611 -66.4609 -30.8336 -30.8331 -30.8005 -30.8000
   -30.7715 -30.7700 -30.7608 -30.7594 -30.7162 -30.7146 -30.7057 -30.7042
   -20.6237 -20.6237 -20.6237 -20.6237 -20.6105 -20.6105 -20.6074 -20.6074
   -20.6027 -20.6026 -20.6025 -20.6025 -20.6015 -20.6014 -20.6010 -20.6009
   -20.6005 -20.6004 -20.6000 -20.5999 -20.5952 -20.5952 -20.5946 -20.5945
   -20.5909 -20.5908 -20.5902 -20.5902  -9.6488  -9.4989  -9.4330  -9.2339
    -8.9704  -8.9022  -8.5157  -8.4566  -8.4128  -8.3539  -8.2040  -8.1861
     1.4668   1.4874   1.8601   1.9738   2.0713   2.1281   2.6966   2.8461
     3.3466   3.3678   3.7439   3.7847   4.0587   4.0851   4.1307   4.2358
     4.3018   4.4249   4.5565   4.6270   5.0131   5.0306   5.1795   5.3465
     6.4086   6.5282   6.6328   6.6756   6.7157   6.7625   6.9048   6.9435
     6.9589   7.0689   7.5171   7.5879  10.5945  10.9607  11.5792  11.6035
    11.7844  11.9343  12.0824  12.1478  12.3815  12.7643  12.9606  13.2716
    15.0220  15.5490  15.6959  16.4187  16.5732  17.0466  17.2817

          k = 0.2222 0.4444-0.3426 ( 31810 PWs)   bands (ev):

   -66.4612 -66.4612 -66.4610 -66.4610 -30.8170 -30.8170 -30.8165 -30.8165
   -30.7708 -30.7708 -30.7601 -30.7601 -30.7154 -30.7154 -30.7050 -30.7050
   -20.6237 -20.6237 -20.6237 -20.6237 -20.6090 -20.6090 -20.6090 -20.6090
   -20.6026 -20.6026 -20.6025 -20.6025 -20.6014 -20.6014 -20.6010 -20.6010
   -20.6003 -20.6003 -20.6002 -20.6002 -20.5952 -20.5952 -20.5946 -20.5946
   -20.5908 -20.5908 -20.5902 -20.5902  -9.5148  -9.5147  -9.3300  -9.3299
    -8.7713  -8.7706  -8.7322  -8.7320  -8.4002  -8.3999  -8.1966  -8.1963
     1.4827   1.4834   1.9600   1.9606   2.8695   2.8716   2.8800   2.8828
     3.1661   3.1839   3.2734   3.2797   3.7439   3.7852   4.2059   4.2395
     4.3963   4.4076   4.6442   4.6638   4.7000   4.7355   5.2093   5.2165
     6.5685   6.5703   6.7004   6.7022   6.8446   6.8702   6.9084   6.9350
     7.2082   7.2260   7.2555   7.2751  11.1527  11.1719  11.4259  11.4464
    11.6006  11.6477  12.0812  12.1294  12.6176  12.6407  12.9792  13.0047
    15.4539  15.4726  16.1235  16.1534  16.9491  17.0031  17.3059

          k = 0.3333 0.3333 0.0000 ( 31768 PWs)   bands (ev):

   -66.4615 -66.4612 -66.4611 -66.4607 -30.8502 -30.8492 -30.7834 -30.7831
   -30.7829 -30.7790 -30.7615 -30.7590 -30.7164 -30.7134 -30.6969 -30.6938
   -20.6238 -20.6237 -20.6237 -20.6237 -20.6120 -20.6120 -20.6057 -20.6057
   -20.6027 -20.6026 -20.6022 -20.6022 -20.6022 -20.6018 -20.6009 -20.6007
   -20.6007 -20.6007 -20.5997 -20.5995 -20.5959 -20.5958 -20.5947 -20.5946
   -20.5907 -20.5907 -20.5896 -20.5894  -9.9214  -9.7015  -9.5311  -9.1647
    -9.1583  -8.9828  -8.4293  -8.4286  -8.0832  -8.0531  -8.0139  -7.9873
     0.9701   1.0457   1.0965   1.1644   1.9773   1.9858   2.2559   2.5532
     3.5478   3.6465   3.8277   3.8501   3.9862   4.4945   4.5100   4.7489
     4.8120   4.9042   5.1329   5.4120   5.4257   5.4323   5.6907   5.8105
     6.0578   6.1060   6.1684   6.2151   6.4228   6.5594   6.8544   6.8988
     6.9287   7.0424   7.7572   7.9666   9.5084  10.5178  11.4795  11.5084
    12.1722  12.2182  12.3601  12.3691  12.5496  12.9634  13.3680  13.7494
    13.9063  14.4880  15.1500  15.8670  16.6465  16.7910  17.3839

          k = 0.3333 0.3333 0.1142 ( 31766 PWs)   bands (ev):

   -66.4615 -66.4612 -66.4611 -66.4608 -30.8458 -30.8448 -30.7877 -30.7877
   -30.7826 -30.7793 -30.7615 -30.7593 -30.7162 -30.7136 -30.6967 -30.6940
   -20.6238 -20.6237 -20.6237 -20.6237 -20.6116 -20.6116 -20.6062 -20.6062
   -20.6026 -20.6026 -20.6022 -20.6022 -20.6022 -20.6018 -20.6008 -20.6008
   -20.6007 -20.6006 -20.5997 -20.5996 -20.5959 -20.5958 -20.5947 -20.5946
   -20.5907 -20.5907 -20.5896 -20.5895  -9.8740  -9.6374  -9.5418  -9.1751
    -9.1251  -8.9657  -8.4378  -8.4270  -8.1875  -8.1594  -8.0122  -7.9891
     1.0230   1.0457   1.3173   1.3934   1.9754   1.9939   2.3287   2.6277
     3.5428   3.6414   3.7356   3.7843   3.8927   4.4889   4.5592   4.6489
     4.7713   4.7814   4.8547   5.0616   5.5401   5.6154   5.6552   5.8094
     5.8607   6.1570   6.2423   6.3922   6.4060   6.6178   6.7931   6.8908
     6.9196   7.0397   7.6968   7.8818   9.7289  10.6348  11.4800  11.5070
    12.0546  12.2176  12.3007  12.3769  12.4581  12.9905  13.2582  13.8079
    13.9998  14.8265  15.1212  16.0239  16.6054  16.8703  17.4876

          k = 0.3333 0.3333 0.2284 ( 31802 PWs)   bands (ev):

   -66.4614 -66.4612 -66.4611 -66.4608 -30.8336 -30.8327 -30.8000 -30.7996
   -30.7819 -30.7800 -30.7613 -30.7599 -30.7157 -30.7142 -30.6961 -30.6945
   -20.6237 -20.6237 -20.6237 -20.6237 -20.6105 -20.6105 -20.6073 -20.6073
   -20.6025 -20.6024 -20.6022 -20.6022 -20.6022 -20.6019 -20.6009 -20.6008
   -20.6006 -20.6004 -20.6000 -20.5998 -20.5959 -20.5958 -20.5947 -20.5946
   -20.5907 -20.5907 -20.5896 -20.5895  -9.7608  -9.5775  -9.4742  -9.2132
    -9.0097  -8.8979  -8.5245  -8.4436  -8.4202  -8.3584  -8.0073  -7.9940
     1.0408   1.0455   1.8557   1.9694   2.0928   2.1261   2.5423   2.8513
     3.3031   3.4071   3.6037   3.6291   4.0714   4.0814   4.1412   4.5089
     4.5684   4.6877   4.7548   4.8529   5.0439   5.4005   5.8133   5.8238
     6.0260   6.1495   6.3203   6.5869   6.5948   6.7701   6.8015   6.9007
     6.9582   7.0441   7.5103   7.6346  10.2769  10.9639  11.4702  11.5031
    11.6180  11.9541  12.3582  12.3925  12.4066  12.9215  13.1489  13.5735
    14.4739  15.0243  15.5599  16.4450  16.4665  17.1878  17.2661

          k = 0.3333 0.3333-0.3426 ( 31796 PWs)   bands (ev):

   -66.4613 -66.4613 -66.4610 -66.4610 -30.8168 -30.8168 -30.8161 -30.8161
   -30.7809 -30.7809 -30.7607 -30.7606 -30.7149 -30.7149 -30.6953 -30.6953
   -20.6237 -20.6237 -20.6237 -20.6237 -20.6089 -20.6089 -20.6089 -20.6089
   -20.6024 -20.6024 -20.6022 -20.6022 -20.6020 -20.6020 -20.6009 -20.6009
   -20.6003 -20.6003 -20.6001 -20.6001 -20.5958 -20.5958 -20.5947 -20.5947
   -20.5907 -20.5907 -20.5895 -20.5895  -9.6489  -9.6489  -9.3061  -9.3061
    -8.7885  -8.7885  -8.7256  -8.7256  -8.4070  -8.4069  -8.0007  -8.0007
     1.0445   1.0445   1.9558   1.9558   2.8778   2.8778   2.8806   2.8806
     3.0711   3.0711   3.2938   3.2938   3.6131   3.6131   4.3512   4.3512
     4.5987   4.5987   4.7763   4.7763   5.0901   5.0901   5.8292   5.8292
     6.1156   6.1156   6.4402   6.4402   6.8158   6.8158   6.9246   6.9246
     7.1967   7.1967   7.2769   7.2769  10.9483  10.9483  11.4516  11.4516
    11.5015  11.5015  12.3940  12.3940  12.6161  12.6161  13.3227  13.3227
    14.8265  14.8265  16.1608  16.1608  16.8871  16.8871  17.6643

          k = 0.3333 0.4444 0.0000 ( 31774 PWs)   bands (ev):

   -66.4614 -66.4613 -66.4609 -66.4608 -30.8498 -30.8495 -30.7842 -30.7840
   -30.7793 -30.7770 -30.7722 -30.7701 -30.7056 -30.7025 -30.6988 -30.6957
   -20.6238 -20.6237 -20.6237 -20.6237 -20.6120 -20.6120 -20.6057 -20.6057
   -20.6027 -20.6027 -20.6022 -20.6022 -20.6018 -20.6017 -20.6011 -20.6010
   -20.6008 -20.6007 -20.5996 -20.5995 -20.5959 -20.5957 -20.5954 -20.5953
   -20.5900 -20.5899 -20.5896 -20.5895  -9.8674  -9.7878  -9.4706  -9.3463
    -9.1381  -9.0836  -8.2250  -8.2148  -8.0841  -8.0752  -8.0593  -8.0417
     1.0236   1.0761   1.1576   1.2385   1.4831   1.5221   2.2851   2.3897
     3.9058   4.0062   4.0461   4.0775   4.1443   4.3858   4.4845   4.4990
     5.1232   5.1902   5.2071   5.3403   5.3838   5.4174   5.5587   5.5920
     6.1992   6.2062   6.2510   6.3460   6.3791   6.4879   6.5301   6.6973
     6.7096   6.8465   7.8752   7.9434   9.6593  10.0284  11.8768  11.9003
    12.1741  12.1866  12.2506  12.3602  12.5982  12.8773  13.6354  13.8329
    13.8661  14.1493  15.3837  15.9189  16.3002  16.8169  17.1999

          k = 0.3333 0.4444 0.1142 ( 31792 PWs)   bands (ev):

   -66.4614 -66.4613 -66.4610 -66.4609 -30.8453 -30.8450 -30.7880 -30.7879
   -30.7800 -30.7773 -30.7725 -30.7703 -30.7054 -30.7027 -30.6986 -30.6959
   -20.6237 -20.6237 -20.6237 -20.6237 -20.6116 -20.6116 -20.6061 -20.6061
   -20.6027 -20.6026 -20.6023 -20.6022 -20.6018 -20.6017 -20.6011 -20.6010
   -20.6007 -20.6006 -20.5997 -20.5996 -20.5959 -20.5958 -20.5954 -20.5953
   -20.5900 -20.5899 -20.5896 -20.5895  -9.8179  -9.7323  -9.4807  -9.3564
    -9.1066  -9.0578  -8.2402  -8.2231  -8.1853  -8.1485  -8.0734  -8.0485
     1.1187   1.1575   1.2857   1.4072   1.4826   1.5601   2.3590   2.4650
     3.7696   3.8044   4.0051   4.0433   4.1944   4.4096   4.4744   4.5128
     4.9120   4.9472   5.1231   5.1383   5.4414   5.5858   5.5974   5.6301
     5.9807   6.1944   6.2962   6.3774   6.4627   6.5369   6.5919   6.7025
     6.7133   6.7814   7.8009   7.8609   9.8586  10.1850  11.8769  11.8978
    12.0892  12.1444  12.1799  12.2441  12.6371  12.9127  13.5277  13.7317
    14.1309  14.4471  15.3527  15.8849  16.4476  16.9420  17.2719

          k = 0.3333 0.4444 0.2284 ( 31803 PWs)   bands (ev):

   -66.4613 -66.4612 -66.4611 -66.4609 -30.8331 -30.8329 -30.7998 -30.7997
   -30.7797 -30.7780 -30.7725 -30.7710 -30.7048 -30.7033 -30.6980 -30.6965
   -20.6237 -20.6237 -20.6237 -20.6237 -20.6105 -20.6105 -20.6073 -20.6073
   -20.6025 -20.6025 -20.6023 -20.6022 -20.6018 -20.6017 -20.6012 -20.6012
   -20.6005 -20.6004 -20.5999 -20.5998 -20.5958 -20.5958 -20.5954 -20.5954
   -20.5900 -20.5899 -20.5896 -20.5895  -9.6999  -9.5978  -9.5150  -9.3912
    -8.9942  -8.9614  -8.4682  -8.4519  -8.2178  -8.1992  -8.0685  -8.0547
     1.1500   1.1570   1.4606   1.4808   2.0673   2.0825   2.5792   2.6929
     3.3348   3.3825   3.9990   4.0269   4.1247   4.1479   4.3608   4.4292
     4.4849   4.6736   4.9751   5.1431   5.2704   5.3492   5.6051   5.6539
     6.0929   6.2235   6.3528   6.4532   6.5168   6.6467   6.7085   6.7266
     6.8070   6.8625   7.5773   7.6172  10.3691  10.6093  11.6327  11.7552
    11.8860  11.9031  12.1850  12.2048  12.7609  13.0239  13.2687  13.4892
    14.6449  15.0510  15.2488  15.7687  16.8530  17.2958  17.5352

          k = 0.3333 0.4444-0.3426 ( 31798 PWs)   bands (ev):

   -66.4612 -66.4612 -66.4611 -66.4611 -30.8165 -30.8164 -30.8163 -30.8163
   -30.7789 -30.7789 -30.7718 -30.7718 -30.7041 -30.7041 -30.6973 -30.6973
   -20.6237 -20.6237 -20.6237 -20.6237 -20.6089 -20.6089 -20.6089 -20.6089
   -20.6024 -20.6024 -20.6023 -20.6023 -20.6017 -20.6017 -20.6013 -20.6013
   -20.6002 -20.6002 -20.6001 -20.6001 -20.5958 -20.5958 -20.5954 -20.5954
   -20.5900 -20.5900 -20.5896 -20.5896  -9.5855  -9.5854  -9.4673  -9.4673
    -8.7699  -8.7697  -8.7518  -8.7517  -8.2101  -8.2100  -8.0618  -8.0617
     1.1554   1.1556   1.4764   1.4766   2.8778   2.8794   2.8794   2.8815
     3.1019   3.1051   3.1864   3.1888   4.0088   4.0274   4.4203   4.4481
     4.6819   4.6963   4.9362   4.9693   5.1863   5.1975   5.6169   5.6267
     6.1883   6.1921   6.4619   6.4683   6.5447   6.5541   6.7353   6.7400
     7.2164   7.2215   7.2403   7.2463  11.0137  11.0164  11.1843  11.1873
    11.8867  11.8990  12.1872  12.2013  12.9729  12.9814  13.2238  13.2331
    15.0304  15.0373  15.5152  15.5232  17.2406  17.2594  17.5612

          k = 0.4444 0.4444 0.0000 ( 31774 PWs)   bands (ev):

   -66.4614 -66.4613 -66.4609 -66.4609 -30.8495 -30.8494 -30.7841 -30.7839
   -30.7823 -30.7800 -30.7795 -30.7776 -30.6983 -30.6960 -30.6952 -30.6929
   -20.6238 -20.6237 -20.6237 -20.6237 -20.6120 -20.6120 -20.6056 -20.6056
   -20.6027 -20.6027 -20.6020 -20.6019 -20.6019 -20.6018 -20.6014 -20.6013
   -20.6008 -20.6008 -20.5995 -20.5995 -20.5961 -20.5961 -20.5959 -20.5958
   -20.5895 -20.5894 -20.5893 -20.5892  -9.8725  -9.8437  -9.4959  -9.4538
    -9.1509  -9.1341  -8.0829  -8.0818  -8.0721  -8.0456  -8.0283  -8.0012
     0.9814   1.0349   1.0404   1.1544   1.1749   1.2402   2.2417   2.2783
     4.0620   4.0784   4.2682   4.3425   4.4110   4.5051   4.5269   4.5401
     5.2319   5.2706   5.2786   5.3016   5.5365   5.5713   5.6376   5.7489
     6.0412   6.1275   6.1843   6.2296   6.2440   6.3524   6.3911   6.4254
     6.8244   6.8968   7.9418   7.9640   9.5255   9.6667  12.0793  12.1075
    12.1737  12.1948  12.2162  12.2594  12.8772  12.9758  13.7673  13.8348
    13.8738  13.9095  15.2254  15.4188  16.5476  16.7506  17.3676

          k = 0.4444 0.4444 0.1142 ( 31786 PWs)   bands (ev):

   -66.4613 -66.4613 -66.4609 -66.4609 -30.8450 -30.8449 -30.7875 -30.7868
   -30.7836 -30.7804 -30.7802 -30.7778 -30.6981 -30.6958 -30.6954 -30.6931
   -20.6237 -20.6237 -20.6237 -20.6237 -20.6116 -20.6116 -20.6061 -20.6061
   -20.6026 -20.6026 -20.6020 -20.6019 -20.6019 -20.6018 -20.6014 -20.6014
   -20.6007 -20.6007 -20.5996 -20.5996 -20.5961 -20.5961 -20.5959 -20.5958
   -20.5895 -20.5894 -20.5893 -20.5892  -9.8247  -9.7940  -9.5056  -9.4635
    -9.1174  -9.1026  -8.1851  -8.1805  -8.0811  -8.0557  -8.0266  -8.0030
     1.0210   1.0404   1.1184   1.1543   1.3955   1.4116   2.3155   2.3528
     3.8000   3.8192   4.2860   4.3421   4.4693   4.4984   4.5325   4.5893
     4.9466   4.9622   5.3639   5.4702   5.5707   5.5771   5.6151   5.7516
     6.0058   6.0283   6.1520   6.1816   6.2705   6.4034   6.4689   6.5273
     6.7594   6.7945   7.8589   7.8784   9.7457   9.8661  12.0489  12.0804
    12.0871  12.1068  12.1807  12.2102  12.9120  13.0097  13.7325  13.8077
    14.0186  14.1396  15.1951  15.3874  16.7209  16.9256  17.4230

          k = 0.4444 0.4444 0.2284 ( 31819 PWs)   bands (ev):

   -66.4613 -66.4612 -66.4610 -66.4610 -30.8328 -30.8327 -30.7993 -30.7992
   -30.7829 -30.7810 -30.7802 -30.7785 -30.6976 -30.6960 -30.6952 -30.6937
   -20.6237 -20.6237 -20.6237 -20.6237 -20.6104 -20.6104 -20.6073 -20.6073
   -20.6024 -20.6024 -20.6020 -20.6019 -20.6019 -20.6019 -20.6015 -20.6015
   -20.6005 -20.6005 -20.5999 -20.5998 -20.5961 -20.5960 -20.5959 -20.5959
   -20.5895 -20.5894 -20.5893 -20.5892  -9.7124  -9.6765  -9.5382  -9.4963
    -8.9989  -8.9892  -8.4570  -8.4527  -8.0761  -8.0621  -8.0217  -8.0081
     1.0361   1.0402   1.1472   1.1538   2.0802   2.0900   2.5326   2.5751
     3.3262   3.3460   4.1231   4.1352   4.3059   4.3405   4.5016   4.5281
     4.6502   4.7694   5.2359   5.3428   5.5883   5.6274   5.7408   5.7601
     5.9403   6.0175   6.0951   6.1655   6.3464   6.4654   6.6126   6.6536
     6.7954   6.8134   7.6131   7.6263  10.2928  10.3764  11.6002  11.6402
    12.0925  12.1035  12.1908  12.2034  13.0240  13.1184  13.4878  13.5689
    14.5079  14.6598  15.0933  15.2815  17.2010  17.4918  17.6487

          k = 0.4444 0.4444-0.3426 ( 31798 PWs)   bands (ev):

   -66.4611 -66.4611 -66.4611 -66.4611 -30.8161 -30.8161 -30.8160 -30.8160
   -30.7819 -30.7819 -30.7794 -30.7794 -30.6968 -30.6968 -30.6944 -30.6944
   -20.6237 -20.6237 -20.6237 -20.6237 -20.6089 -20.6089 -20.6089 -20.6089
   -20.6022 -20.6022 -20.6021 -20.6021 -20.6019 -20.6019 -20.6016 -20.6016
   -20.6002 -20.6002 -20.6001 -20.6001 -20.5961 -20.5960 -20.5959 -20.5959
   -20.5894 -20.5894 -20.5893 -20.5893  -9.6047  -9.6047  -9.5642  -9.5642
    -8.7666  -8.7666  -8.7612  -8.7612  -8.0692  -8.0692  -8.0149  -8.0149
     1.0394   1.0394   1.1524   1.1524   2.8792   2.8792   2.8798   2.8798
     3.0766   3.0766   3.1063   3.1063   4.3236   4.3236   4.5135   4.5135
     4.9297   4.9298   5.0447   5.0447   5.6036   5.6036   5.7663   5.7663
     5.9949   5.9949   6.1294   6.1294   6.4633   6.4633   6.5543   6.5543
     7.2291   7.2291   7.2384   7.2384  10.9667  10.9667  11.0239  11.0240
    12.0987  12.0987  12.1980  12.1980  13.2220  13.2221  13.3128  13.3128
    14.8834  14.8834  15.0604  15.0604  17.5636  17.5636  17.7285

     the Fermi energy is     9.1002 ev

!    total energy              =   -3130.41770774 Ry
     Harris-Foulkes estimate   =   -3130.41770774 Ry
     estimated scf accuracy    <          7.2E-10 Ry

     The total energy is the sum of the following terms:

     one-electron contribution =   -2399.36354989 Ry
     hartree contribution      =    1316.26502284 Ry
     xc contribution           =    -482.96492498 Ry
     ewald contribution        =   -1564.35422099 Ry
     smearing contrib. (-TS)   =      -0.00003472 Ry

     convergence has been achieved in  12 iterations

     Writing output data file Landau_16.save/
 
     init_run     :      6.47s CPU      7.01s WALL (       1 calls)
     electrons    :    223.31s CPU    228.87s WALL (       1 calls)

     Called by init_run:
     wfcinit      :      5.75s CPU      6.20s WALL (       1 calls)
     potinit      :      0.28s CPU      0.30s WALL (       1 calls)
     hinit0       :      0.35s CPU      0.39s WALL (       1 calls)

     Called by electrons:
     c_bands      :    189.87s CPU    194.95s WALL (      12 calls)
     sum_band     :     31.34s CPU     31.54s WALL (      12 calls)
     v_of_rho     :      0.65s CPU      0.67s WALL (      13 calls)
     mix_rho      :      1.15s CPU      1.31s WALL (      12 calls)

     Called by c_bands:
     init_us_2    :      2.02s CPU      2.12s WALL (      50 calls)
     cegterg      :    162.77s CPU    167.65s WALL (      24 calls)

     Called by sum_band:

     Called by *egterg:
     h_psi        :    139.13s CPU    141.46s WALL (      91 calls)
     g_psi        :      0.36s CPU      0.36s WALL (      65 calls)
     cdiaghg      :      1.67s CPU      1.70s WALL (      89 calls)

     Called by h_psi:
     h_psi:pot    :    138.51s CPU    139.30s WALL (      91 calls)
     h_psi:calbec :      9.09s CPU      9.34s WALL (      91 calls)
     vloc_psi     :    118.72s CPU    119.19s WALL (      91 calls)
     add_vuspsi   :     10.69s CPU     10.77s WALL (      91 calls)

     General routines
     calbec       :      9.09s CPU      9.34s WALL (      91 calls)
     fft          :      0.28s CPU      0.29s WALL (      39 calls)
     ffts         :      0.09s CPU      0.09s WALL (      12 calls)
     fftw         :    117.68s CPU    118.06s WALL (   15694 calls)
 
     Parallel routines
 
     PWSCF        :   3m50.09s CPU   3m56.62s WALL

 
   This run was terminated on:  17:44: 1  29Nov2019            

=------------------------------------------------------------------------------=
   JOB DONE.
=------------------------------------------------------------------------------=
