
     Program PWSCF v.6.2 (svn rev. 14038) starts on 24Mar2020 at  1:55: 2 

     This program is part of the open-source Quantum ESPRESSO suite
     for quantum simulation of materials; please cite
         "P. Giannozzi et al., J. Phys.:Condens. Matter 21 395502 (2009);
         "P. Giannozzi et al., J. Phys.:Condens. Matter 29 465901 (2017);
          URL http://www.quantum-espresso.org", 
     in publications or presentations arising from this work. More details at
     http://www.quantum-espresso.org/quote

     Parallel version (MPI), running on    40 processors

     MPI processes distributed on     5 nodes
     K-points division:     npool     =      40
     Reading input from rscf.in

     Current dimensions of program PWSCF are:
     Max number of different atomic species (ntypx) = 10
     Max number of k-points (npk) =  40000
     Max angular momentum in pseudopotentials (lmaxx) =  3

     Subspace diagonalization in iterative solution of the eigenvalue problem:
     a serial algorithm will be used

 
     G-vector sticks info
     --------------------
     sticks:   dense  smooth     PW     G-vecs:    dense   smooth      PW
     Sum        7747    7747   2077               498127   498127   69057
 


     bravais-lattice index     =            0
     lattice parameter (alat)  =      13.8397  a.u.
     unit-cell volume          =    2804.9816 (a.u.)^3
     number of atoms/cell      =           32
     number of atomic types    =            2
     number of electrons       =       368.00
     number of Kohn-Sham states=          221
     kinetic-energy cutoff     =     120.0000  Ry
     charge density cutoff     =     480.0000  Ry
     convergence threshold     =      1.0E-08
     mixing beta               =       0.7000
     number of iterations used =            8  plain     mixing
     Exchange-correlation      = SLA PW NOGX NOGC ( 1  4  0  0 0 0)
     nstep                     =           50


     celldm(1)=  13.839685  celldm(2)=   0.000000  celldm(3)=   0.000000
     celldm(4)=   0.000000  celldm(5)=   0.000000  celldm(6)=   0.000000

     crystal axes: (cart. coord. in units of alat)
               a(1) = (   1.000000   0.000000   0.000000 )  
               a(2) = (   0.000000   1.058160   0.000000 )  
               a(3) = (   0.000000   0.000000   1.000000 )  

     reciprocal axes: (cart. coord. in units 2 pi/alat)
               b(1) = (  1.000000  0.000000  0.000000 )  
               b(2) = (  0.000000  0.945037  0.000000 )  
               b(3) = (  0.000000  0.000000  1.000000 )  


     PseudoPot. # 1 for W  read from file:
     /cluster/scratch/mnoe/QE/pps/W_ONCV_LDA-4.0.upf
     MD5 check sum: ba0307d5d4cd419d6f1d13dc49d7c13a
     Pseudo is Norm-conserving + core correction, Zval = 28.0
     Generated using ONCVPSP code by D. R. Hamann
     Using radial grid of 1380 points,  8 beta functions with: 
                l(1) =   0
                l(2) =   0
                l(3) =   1
                l(4) =   1
                l(5) =   2
                l(6) =   2
                l(7) =   3
                l(8) =   3

     PseudoPot. # 2 for O  read from file:
     /cluster/scratch/mnoe/QE/pps/O_ONCV_LDA-3.0.upf
     MD5 check sum: a1bd6164e7280c17a38c229939bfbd54
     Pseudo is Norm-conserving + core correction, Zval =  6.0
     Generated using ONCVPSP code by D. R. Hamann
     Using radial grid of  926 points,  5 beta functions with: 
                l(1) =   0
                l(2) =   0
                l(3) =   1
                l(4) =   1
                l(5) =   2

     atomic species   valence    mass     pseudopotential
        W             28.00   183.84000     W ( 1.00)
        O              6.00    15.99940     O ( 1.00)

      4 Sym. Ops. (no inversion) found ( 3 have fractional translation)



   Cartesian axes

     site n.     atom                  positions (alat units)
         1           W   tau(   1) = (   0.2354373   0.2843117   0.0081801  )
         2           W   tau(   2) = (   0.7589999   0.7738484  -0.0140707  )
         3           W   tau(   3) = (   0.2645627   0.2447684   0.5081801  )
         4           W   tau(   4) = (   0.7410000   0.8133918   0.4859293  )
         5           W   tau(   5) = (   0.7645626   0.2843117   0.4918199  )
         6           W   tau(   6) = (   0.2410000   0.7738484   0.5140707  )
         7           W   tau(   7) = (   0.7354373   0.2447684  -0.0081800  )
         8           W   tau(   8) = (   0.2590000   0.8133918   0.0140707  )
         9           O   tau(   9) = (   0.2274006   0.0050059  -0.0019758  )
        10           O   tau(  10) = (   0.7708703  -0.0050059  -0.0088917  )
        11           O   tau(  11) = (   0.2725994   0.5240742   0.4980242  )
        12           O   tau(  12) = (   0.7291295   0.5340860   0.4911083  )
        13           O   tau(  13) = (   0.7725993   0.0050059   0.5019758  )
        14           O   tau(  14) = (   0.2291295  -0.0050059   0.5088917  )
        15           O   tau(  15) = (   0.7274005   0.5240742   0.0019757  )
        16           O   tau(  16) = (   0.2708704   0.5340860   0.0088917  )
        17           O   tau(  17) = (   0.5044435   0.2396609   0.4817556  )
        18           O   tau(  18) = (   0.4979988   0.8159251   0.5182445  )
        19           O   tau(  19) = (  -0.0044435   0.2894191   0.9817556  )
        20           O   tau(  20) = (   0.0020012   0.7713152   0.0182443  )
        21           O   tau(  21) = (   0.4955565   0.2396609   0.0182443  )
        22           O   tau(  22) = (   0.5020012   0.8159251   0.9817556  )
        23           O   tau(  23) = (   0.0044434   0.2894191   0.5182445  )
        24           O   tau(  24) = (  -0.0020013   0.7713152   0.4817556  )
        25           O   tau(  25) = (   0.7317556   0.2652897   0.7459211  )
        26           O   tau(  26) = (   0.2682443   0.8046665   0.2556900  )
        27           O   tau(  27) = (   0.7682446   0.2637903   0.2459212  )
        28           O   tau(  28) = (   0.2317556   0.7825738   0.7556900  )
        29           O   tau(  29) = (   0.2682443   0.2652897   0.7540788  )
        30           O   tau(  30) = (   0.7317556   0.8046665   0.2443100  )
        31           O   tau(  31) = (   0.2317556   0.2637903   0.2540789  )
        32           O   tau(  32) = (   0.7682446   0.7825738   0.7443099  )

     number of k points=    64  gaussian smearing, width (Ry)=  0.0007
                       cart. coord. in units 2pi/alat
        k(    1) = (   0.0000000   0.0000000   0.0000000), wk =   0.0092593
        k(    2) = (   0.0000000   0.0000000   0.1666667), wk =   0.0185185
        k(    3) = (   0.0000000   0.0000000   0.3333333), wk =   0.0185185
        k(    4) = (   0.0000000   0.0000000  -0.5000000), wk =   0.0092593
        k(    5) = (   0.0000000   0.1575061   0.0000000), wk =   0.0185185
        k(    6) = (   0.0000000   0.1575061   0.1666667), wk =   0.0370370
        k(    7) = (   0.0000000   0.1575061   0.3333333), wk =   0.0370370
        k(    8) = (   0.0000000   0.1575061  -0.5000000), wk =   0.0185185
        k(    9) = (   0.0000000   0.3150122   0.0000000), wk =   0.0185185
        k(   10) = (   0.0000000   0.3150122   0.1666667), wk =   0.0370370
        k(   11) = (   0.0000000   0.3150122   0.3333333), wk =   0.0370370
        k(   12) = (   0.0000000   0.3150122  -0.5000000), wk =   0.0185185
        k(   13) = (   0.0000000  -0.4725183   0.0000000), wk =   0.0092593
        k(   14) = (   0.0000000  -0.4725183   0.1666667), wk =   0.0185185
        k(   15) = (   0.0000000  -0.4725183   0.3333333), wk =   0.0185185
        k(   16) = (   0.0000000  -0.4725183  -0.5000000), wk =   0.0092593
        k(   17) = (   0.1666667   0.0000000   0.1666667), wk =   0.0370370
        k(   18) = (   0.1666667   0.0000000   0.3333333), wk =   0.0370370
        k(   19) = (   0.1666667   0.0000000  -0.5000000), wk =   0.0185185
        k(   20) = (   0.1666667   0.1575061   0.1666667), wk =   0.0740741
        k(   21) = (   0.1666667   0.1575061   0.3333333), wk =   0.0740741
        k(   22) = (   0.1666667   0.1575061  -0.5000000), wk =   0.0370370
        k(   23) = (   0.1666667   0.3150122   0.1666667), wk =   0.0740741
        k(   24) = (   0.1666667   0.3150122   0.3333333), wk =   0.0740741
        k(   25) = (   0.1666667   0.3150122  -0.5000000), wk =   0.0370370
        k(   26) = (   0.1666667  -0.4725183   0.1666667), wk =   0.0370370
        k(   27) = (   0.1666667  -0.4725183   0.3333333), wk =   0.0370370
        k(   28) = (   0.1666667  -0.4725183  -0.5000000), wk =   0.0185185
        k(   29) = (   0.3333333   0.0000000   0.3333333), wk =   0.0370370
        k(   30) = (   0.3333333   0.0000000  -0.5000000), wk =   0.0185185
        k(   31) = (   0.3333333   0.1575061   0.3333333), wk =   0.0740741
        k(   32) = (   0.3333333   0.1575061  -0.5000000), wk =   0.0370370
        k(   33) = (   0.3333333   0.3150122   0.3333333), wk =   0.0740741
        k(   34) = (   0.3333333   0.3150122  -0.5000000), wk =   0.0370370
        k(   35) = (   0.3333333  -0.4725183   0.3333333), wk =   0.0370370
        k(   36) = (   0.3333333  -0.4725183  -0.5000000), wk =   0.0185185
        k(   37) = (  -0.5000000   0.0000000  -0.5000000), wk =   0.0092593
        k(   38) = (  -0.5000000   0.1575061  -0.5000000), wk =   0.0185185
        k(   39) = (  -0.5000000   0.3150122  -0.5000000), wk =   0.0185185
        k(   40) = (  -0.5000000  -0.4725183  -0.5000000), wk =   0.0092593
        k(   41) = (   0.1666667   0.0000000   0.0000000), wk =   0.0185185
        k(   42) = (   0.3333333   0.0000000   0.0000000), wk =   0.0185185
        k(   43) = (  -0.5000000   0.0000000   0.0000000), wk =   0.0092593
        k(   44) = (   0.1666667  -0.1575061   0.0000000), wk =   0.0370370
        k(   45) = (   0.3333333  -0.1575061   0.0000000), wk =   0.0370370
        k(   46) = (  -0.5000000  -0.1575061   0.0000000), wk =   0.0185185
        k(   47) = (   0.1666667  -0.3150122   0.0000000), wk =   0.0370370
        k(   48) = (   0.3333333  -0.3150122   0.0000000), wk =   0.0370370
        k(   49) = (  -0.5000000  -0.3150122   0.0000000), wk =   0.0185185
        k(   50) = (   0.1666667   0.4725183   0.0000000), wk =   0.0185185
        k(   51) = (   0.3333333   0.4725183   0.0000000), wk =   0.0185185
        k(   52) = (  -0.5000000   0.4725183   0.0000000), wk =   0.0092593
        k(   53) = (   0.3333333   0.0000000   0.1666667), wk =   0.0370370
        k(   54) = (  -0.5000000   0.0000000   0.1666667), wk =   0.0185185
        k(   55) = (   0.3333333  -0.1575061   0.1666667), wk =   0.0740741
        k(   56) = (  -0.5000000  -0.1575061   0.1666667), wk =   0.0370370
        k(   57) = (   0.3333333  -0.3150122   0.1666667), wk =   0.0740741
        k(   58) = (  -0.5000000  -0.3150122   0.1666667), wk =   0.0370370
        k(   59) = (   0.3333333   0.4725183   0.1666667), wk =   0.0370370
        k(   60) = (  -0.5000000   0.4725183   0.1666667), wk =   0.0185185
        k(   61) = (  -0.5000000   0.0000000   0.3333333), wk =   0.0185185
        k(   62) = (  -0.5000000  -0.1575061   0.3333333), wk =   0.0370370
        k(   63) = (  -0.5000000  -0.3150122   0.3333333), wk =   0.0370370
        k(   64) = (  -0.5000000   0.4725183   0.3333333), wk =   0.0185185

     Dense  grid:   498127 G-vectors     FFT dimensions: ( 100, 108, 100)

     Estimated max dynamical RAM per process >       3.15 GB

     Estimated total dynamical RAM >     125.81 GB

     Initial potential from superposition of free atoms

     starting charge  367.99656, renormalised to  368.00000
     Starting wfc are  232 randomized atomic wfcs

     total cpu time spent up to now is       62.2 secs

     Self-consistent Calculation

     iteration #  1     ecut=   120.00 Ry     beta= 0.70
     Davidson diagonalization with overlap
     ethr =  1.00E-02,  avg # of iterations =  5.4

     total cpu time spent up to now is      220.6 secs

     total energy              =   -6254.00057013 Ry
     Harris-Foulkes estimate   =   -6264.50030369 Ry
     estimated scf accuracy    <      13.33105623 Ry

     iteration #  2     ecut=   120.00 Ry     beta= 0.70
     Davidson diagonalization with overlap
     ethr =  3.62E-03,  avg # of iterations =  3.7

     total cpu time spent up to now is      372.8 secs

     total energy              =   -6250.97710079 Ry
     Harris-Foulkes estimate   =   -6270.28015661 Ry
     estimated scf accuracy    <      51.50527836 Ry

     iteration #  3     ecut=   120.00 Ry     beta= 0.70
     Davidson diagonalization with overlap
     ethr =  3.62E-03,  avg # of iterations =  3.6

     total cpu time spent up to now is      516.0 secs

     total energy              =   -6260.91527978 Ry
     Harris-Foulkes estimate   =   -6261.39037873 Ry
     estimated scf accuracy    <       1.48033375 Ry

     iteration #  4     ecut=   120.00 Ry     beta= 0.70
     Davidson diagonalization with overlap
     ethr =  4.02E-04,  avg # of iterations =  3.8

     total cpu time spent up to now is      637.9 secs

     total energy              =   -6260.98401064 Ry
     Harris-Foulkes estimate   =   -6261.08159131 Ry
     estimated scf accuracy    <       0.33959739 Ry

     iteration #  5     ecut=   120.00 Ry     beta= 0.70
     Davidson diagonalization with overlap
     ethr =  9.23E-05,  avg # of iterations =  4.2

     total cpu time spent up to now is      760.2 secs

     total energy              =   -6260.96214293 Ry
     Harris-Foulkes estimate   =   -6261.01090602 Ry
     estimated scf accuracy    <       0.10467819 Ry

     iteration #  6     ecut=   120.00 Ry     beta= 0.70
     Davidson diagonalization with overlap
     ethr =  2.84E-05,  avg # of iterations =  6.5

     total cpu time spent up to now is      896.9 secs

     total energy              =   -6260.98707635 Ry
     Harris-Foulkes estimate   =   -6260.98909739 Ry
     estimated scf accuracy    <       0.00636561 Ry

     iteration #  7     ecut=   120.00 Ry     beta= 0.70
     Davidson diagonalization with overlap
     ethr =  1.73E-06,  avg # of iterations =  5.3

     total cpu time spent up to now is     1023.1 secs

     total energy              =   -6260.98755750 Ry
     Harris-Foulkes estimate   =   -6260.98782675 Ry
     estimated scf accuracy    <       0.00086720 Ry

     iteration #  8     ecut=   120.00 Ry     beta= 0.70
     Davidson diagonalization with overlap
     ethr =  2.36E-07,  avg # of iterations =  2.7

     total cpu time spent up to now is     1140.1 secs

     total energy              =   -6260.98762354 Ry
     Harris-Foulkes estimate   =   -6260.98770015 Ry
     estimated scf accuracy    <       0.00020190 Ry

     iteration #  9     ecut=   120.00 Ry     beta= 0.70
     Davidson diagonalization with overlap
     ethr =  5.49E-08,  avg # of iterations =  2.4

     total cpu time spent up to now is     1260.5 secs

     total energy              =   -6260.98765183 Ry
     Harris-Foulkes estimate   =   -6260.98767066 Ry
     estimated scf accuracy    <       0.00005044 Ry

     iteration # 10     ecut=   120.00 Ry     beta= 0.70
     Davidson diagonalization with overlap
     ethr =  1.37E-08,  avg # of iterations =  2.4

     total cpu time spent up to now is     1382.3 secs

     total energy              =   -6260.98766080 Ry
     Harris-Foulkes estimate   =   -6260.98766208 Ry
     estimated scf accuracy    <       0.00000324 Ry

     iteration # 11     ecut=   120.00 Ry     beta= 0.70
     Davidson diagonalization with overlap
     ethr =  8.81E-10,  avg # of iterations =  2.4

     total cpu time spent up to now is     1505.8 secs

     total energy              =   -6260.98766119 Ry
     Harris-Foulkes estimate   =   -6260.98766134 Ry
     estimated scf accuracy    <       0.00000028 Ry

     iteration # 12     ecut=   120.00 Ry     beta= 0.70
     Davidson diagonalization with overlap
     ethr =  7.73E-11,  avg # of iterations =  3.0

     total cpu time spent up to now is     1652.1 secs

     total energy              =   -6260.98766126 Ry
     Harris-Foulkes estimate   =   -6260.98766127 Ry
     estimated scf accuracy    <       0.00000002 Ry

     iteration # 13     ecut=   120.00 Ry     beta= 0.70
     Davidson diagonalization with overlap
     ethr =  5.97E-12,  avg # of iterations =  2.8

     total cpu time spent up to now is     1794.5 secs

     End of self-consistent calculation

          k = 0.0000 0.0000 0.0000 ( 62239 PWs)   bands (ev):

   -66.1501 -66.1491 -66.1490 -66.1484 -66.1481 -66.1474 -66.1474 -66.1464
   -30.6436 -30.6405 -30.6370 -30.6323 -30.6053 -30.6033 -30.6005 -30.5958
   -30.5276 -30.5242 -30.5228 -30.5221 -30.4947 -30.4892 -30.4869 -30.4829
   -30.4084 -30.4030 -30.4025 -30.3972 -30.3511 -30.3463 -30.3459 -30.3411
   -20.2923 -20.2922 -20.2922 -20.2920 -20.2905 -20.2903 -20.2902 -20.2901
   -20.2732 -20.2729 -20.2705 -20.2705 -20.2697 -20.2695 -20.2692 -20.2674
   -20.2673 -20.2658 -20.2655 -20.2654 -20.2640 -20.2637 -20.2636 -20.2635
   -20.2634 -20.2623 -20.2622 -20.2619 -20.2616 -20.2607 -20.2598 -20.2598
   -20.2587 -20.2586 -20.2581 -20.2576 -20.2574 -20.2570 -20.2566 -20.2561
   -20.2560 -20.2555 -20.2551 -20.2547 -20.2531 -20.2510 -20.2508 -20.2504
   -20.2490 -20.2490 -20.2490 -20.2482 -20.2482 -20.2464 -20.2456 -20.2434
   -10.1960 -10.0449  -9.8212  -9.7804  -9.7058  -9.6546  -9.4381  -9.4174
    -8.6862  -8.6467  -8.6448  -8.6418  -7.8834  -7.8640  -7.8048  -7.7996
    -7.7964  -7.7947  -7.7404  -7.7398  -7.5122  -7.4533  -7.4416  -7.3883
     0.5705   0.5829   0.7313   0.7733   0.8174   0.8582   1.0586   1.0920
     1.8558   1.9018   1.9197   1.9818   1.9943   2.0622   2.5542   2.5752
     2.6855   2.6987   4.0582   4.0621   4.1486   4.1666   4.2066   4.2487
     4.2615   4.2971   4.8700   5.1957   5.1996   5.2203   5.2775   5.3539
     5.3638   5.4690   5.4984   5.5606   5.5634   5.5730   5.5735   5.5913
     5.8505   5.8833   5.9163   5.9288   5.9292   6.0555   6.1079   6.1180
     6.2533   6.3781   6.4087   6.4664   6.5326   6.6895   6.8327   6.9111
     6.9372   7.0023   7.0073   7.0271   7.0419   7.0972   7.2734   7.3070
     7.3352   7.3596   8.0837   8.0854   8.1749   8.1824   8.2834   8.2838
     9.2529   9.2870   9.4841   9.4918   9.5568   9.5829  12.2438  12.3404
    12.3567  12.4136  12.8444  12.8951  12.9130  12.9557  13.0105  13.1320
    13.1745  13.2397  13.5314  13.6775  13.9836  14.1011  14.1769  14.2901
    14.3784  14.4638  14.6431  15.0082  15.2866  15.3699  15.3884  16.4649
    16.5040  17.1062  17.4259  17.4603  17.4974

          k = 0.0000 0.0000 0.1667 ( 62262 PWs)   bands (ev):

   -66.1500 -66.1492 -66.1490 -66.1483 -66.1481 -66.1475 -66.1473 -66.1465
   -30.6397 -30.6363 -30.6327 -30.6296 -30.5998 -30.5986 -30.5963 -30.5958
   -30.5353 -30.5318 -30.5234 -30.5223 -30.5023 -30.4937 -30.4888 -30.4834
   -30.4079 -30.4028 -30.4026 -30.3975 -30.3508 -30.3462 -30.3460 -30.3414
   -20.2923 -20.2922 -20.2922 -20.2921 -20.2904 -20.2903 -20.2903 -20.2901
   -20.2732 -20.2730 -20.2704 -20.2704 -20.2696 -20.2695 -20.2693 -20.2675
   -20.2673 -20.2659 -20.2653 -20.2653 -20.2640 -20.2638 -20.2637 -20.2635
   -20.2634 -20.2623 -20.2621 -20.2619 -20.2616 -20.2608 -20.2598 -20.2598
   -20.2588 -20.2587 -20.2580 -20.2574 -20.2570 -20.2568 -20.2564 -20.2562
   -20.2561 -20.2553 -20.2550 -20.2545 -20.2529 -20.2513 -20.2512 -20.2503
   -20.2496 -20.2495 -20.2489 -20.2486 -20.2484 -20.2466 -20.2454 -20.2436
   -10.1368  -9.9833  -9.7905  -9.7206  -9.6628  -9.6025  -9.3931  -9.3727
    -8.6996  -8.6551  -8.6404  -8.6358  -8.0240  -7.9699  -7.9612  -7.9133
    -7.8583  -7.8092  -7.7964  -7.7441  -7.5087  -7.4574  -7.4388  -7.3921
     0.6987   0.7223   0.8160   0.8579   1.0412   1.0828   1.2257   1.2785
     1.8553   1.9103   1.9146   2.0140   2.0697   2.1513   2.5706   2.6603
     2.6769   2.7888   3.8984   3.9725   4.0855   4.1269   4.1535   4.1585
     4.2979   4.3319   4.6883   4.7756   4.8647   5.1384   5.2047   5.2832
     5.2912   5.3003   5.4200   5.4788   5.5261   5.5999   5.6313   5.6736
     5.6983   5.8154   5.8783   5.9243   6.0228   6.0683   6.1911   6.2582
     6.2767   6.4499   6.5194   6.5566   6.6415   6.7242   6.7321   6.7594
     6.7965   6.8344   6.8580   6.9298   7.0386   7.0661   7.1954   7.2032
     7.3350   7.3573   8.0220   8.0244   8.1828   8.1864   8.2271   8.2450
     9.4895   9.5292   9.6472   9.6545   9.8237   9.8920  12.3121  12.3526
    12.4004  12.4253  12.7117  12.8050  12.8932  12.9214  12.9670  13.0019
    13.0111  13.1497  13.5507  13.6775  13.9103  13.9554  14.1683  14.2219
    14.4174  14.4923  14.6363  15.1220  15.2607  15.5321  15.5901  16.4803
    16.8803  17.0790  17.2012  17.6023  17.6070

          k = 0.0000 0.0000 0.3333 ( 62268 PWs)   bands (ev):

   -66.1498 -66.1493 -66.1488 -66.1483 -66.1481 -66.1476 -66.1471 -66.1466
   -30.6379 -30.6340 -30.6170 -30.6094 -30.5979 -30.5971 -30.5793 -30.5757
   -30.5563 -30.5524 -30.5303 -30.5225 -30.5208 -30.5089 -30.4877 -30.4846
   -30.4068 -30.4038 -30.4015 -30.3985 -30.3498 -30.3471 -30.3450 -30.3424
   -20.2923 -20.2922 -20.2922 -20.2921 -20.2904 -20.2903 -20.2903 -20.2902
   -20.2731 -20.2730 -20.2702 -20.2700 -20.2697 -20.2694 -20.2689 -20.2678
   -20.2669 -20.2662 -20.2650 -20.2649 -20.2641 -20.2639 -20.2639 -20.2636
   -20.2631 -20.2622 -20.2621 -20.2617 -20.2617 -20.2610 -20.2596 -20.2596
   -20.2590 -20.2590 -20.2575 -20.2571 -20.2565 -20.2565 -20.2562 -20.2560
   -20.2557 -20.2553 -20.2538 -20.2537 -20.2527 -20.2525 -20.2518 -20.2511
   -20.2508 -20.2499 -20.2499 -20.2488 -20.2484 -20.2472 -20.2451 -20.2440
   -10.0047  -9.8502  -9.8235  -9.6896  -9.4368  -9.3069  -9.2355  -9.1958
    -8.7682  -8.6991  -8.6253  -8.6144  -8.4048  -8.3654  -8.3461  -8.2972
    -7.8532  -7.8213  -7.7863  -7.7555  -7.4984  -7.4685  -7.4295  -7.4023
     0.7851   0.8126   0.8307   0.8570   1.7297   1.7429   1.8516   1.8957
     1.9035   2.0256   2.0810   2.2487   2.3296   2.4081   2.5942   2.6551
     2.9240   3.0375   3.3298   3.4138   3.9522   3.9688   4.1249   4.1437
     4.1545   4.2648   4.3448   4.5251   4.5404   4.6523   4.7112   4.7520
     4.7927   5.1284   5.1590   5.2277   5.2368   5.2956   5.6494   5.7708
     5.8139   5.8919   5.9185   5.9799   6.0324   6.0960   6.2628   6.2757
     6.3294   6.3460   6.3779   6.4013   6.4620   6.5386   6.7344   6.8539
     6.9706   7.0128   7.0170   7.0424   7.0619   7.0815   7.2318   7.2814
     7.3507   7.3530   7.8161   7.8279   8.0553   8.0878   8.1909   8.1952
     9.5039   9.5394  10.4240  10.4538  10.5927  10.6426  12.1459  12.2038
    12.2658  12.3604  12.4075  12.5000  12.5286  12.6453  12.9406  12.9999
    13.1484  13.2590  13.4954  13.5375  13.5630  13.6819  13.9253  13.9680
    14.4812  14.6135  14.7731  15.1780  15.4073  15.9343  16.3040  16.3832
    16.4743  17.4663  17.7470  17.8352  17.8995

          k = 0.0000 0.0000-0.5000 ( 62264 PWs)   bands (ev):

   -66.1496 -66.1496 -66.1486 -66.1485 -66.1479 -66.1479 -66.1469 -66.1469
   -30.6359 -30.6359 -30.6014 -30.6013 -30.5837 -30.5836 -30.5803 -30.5802
   -30.5526 -30.5526 -30.5489 -30.5489 -30.5177 -30.5176 -30.4862 -30.4862
   -30.4053 -30.4053 -30.4000 -30.4000 -30.3484 -30.3484 -30.3437 -30.3436
   -20.2923 -20.2922 -20.2921 -20.2921 -20.2904 -20.2903 -20.2902 -20.2902
   -20.2731 -20.2730 -20.2700 -20.2699 -20.2697 -20.2697 -20.2683 -20.2683
   -20.2666 -20.2665 -20.2645 -20.2645 -20.2644 -20.2644 -20.2638 -20.2637
   -20.2626 -20.2626 -20.2619 -20.2619 -20.2614 -20.2613 -20.2594 -20.2593
   -20.2593 -20.2593 -20.2570 -20.2569 -20.2566 -20.2566 -20.2562 -20.2562
   -20.2544 -20.2544 -20.2534 -20.2534 -20.2525 -20.2524 -20.2522 -20.2522
   -20.2517 -20.2517 -20.2494 -20.2494 -20.2479 -20.2478 -20.2445 -20.2445
    -9.8900  -9.8900  -9.7452  -9.7452  -9.0430  -9.0429  -8.9332  -8.9332
    -8.8665  -8.8665  -8.8423  -8.8423  -8.5819  -8.5819  -8.5506  -8.5506
    -7.8375  -7.8375  -7.7711  -7.7711  -7.4836  -7.4836  -7.4160  -7.4160
     0.8060   0.8060   0.8527   0.8527   1.8418   1.8418   1.8819   1.8819
     2.6105   2.6105   2.7092   2.7092   2.7876   2.7876   3.0005   3.0005
     3.0269   3.0269   3.1607   3.1607   3.2694   3.2694   3.6137   3.6137
     3.6806   3.6807   4.1876   4.1876   4.5904   4.5904   4.8159   4.8159
     4.8490   4.8490   4.9288   4.9288   5.2604   5.2604   5.7718   5.7718
     5.8694   5.8694   5.9607   5.9607   6.0334   6.0334   6.1933   6.1933
     6.2788   6.2788   6.3221   6.3221   6.4445   6.4445   6.8494   6.8494
     6.9585   6.9585   7.0378   7.0378   7.3407   7.3407   7.4468   7.4468
     7.4785   7.4786   7.7323   7.7323   7.7754   7.7754   8.1946   8.1946
     9.5224   9.5225  11.3262  11.3262  11.3727  11.3727  11.4965  11.4965
    11.5323  11.5323  12.4103  12.4103  12.8417  12.8417  13.0337  13.0337
    13.1202  13.1202  13.4119  13.4119  13.5398  13.5398  13.7265  13.7266
    14.5665  14.5665  15.0218  15.0218  15.8622  15.8622  16.2466  16.2466
    17.1783  17.1783  17.8698  17.8698  17.9687

          k = 0.0000 0.1575 0.0000 ( 62231 PWs)   bands (ev):

   -66.1501 -66.1491 -66.1490 -66.1484 -66.1481 -66.1474 -66.1474 -66.1464
   -30.6436 -30.6405 -30.6370 -30.6323 -30.6053 -30.6033 -30.6005 -30.5958
   -30.5275 -30.5242 -30.5228 -30.5221 -30.4947 -30.4892 -30.4869 -30.4829
   -30.4046 -30.3992 -30.3987 -30.3935 -30.3550 -30.3501 -30.3497 -30.3449
   -20.2923 -20.2922 -20.2922 -20.2920 -20.2905 -20.2903 -20.2902 -20.2901
   -20.2732 -20.2729 -20.2705 -20.2705 -20.2697 -20.2695 -20.2692 -20.2674
   -20.2673 -20.2658 -20.2655 -20.2655 -20.2639 -20.2637 -20.2636 -20.2635
   -20.2633 -20.2620 -20.2620 -20.2618 -20.2613 -20.2606 -20.2599 -20.2598
   -20.2587 -20.2586 -20.2582 -20.2576 -20.2576 -20.2572 -20.2569 -20.2564
   -20.2563 -20.2555 -20.2551 -20.2547 -20.2531 -20.2511 -20.2508 -20.2504
   -20.2491 -20.2490 -20.2490 -20.2482 -20.2482 -20.2464 -20.2456 -20.2434
   -10.1825 -10.0524  -9.8127  -9.7707  -9.7089  -9.6585  -9.4368  -9.4187
    -8.6154  -8.5840  -8.5835  -8.5782  -7.8837  -7.8632  -7.8044  -7.8006
    -7.7960  -7.7960  -7.7418  -7.7415  -7.6060  -7.5519  -7.5406  -7.4926
     0.5707   0.5824   0.7317   0.7737   0.8183   0.8593   1.0696   1.0927
     1.9759   2.0558   2.0736   2.1268   2.1508   2.2313   2.6245   2.6512
     2.7530   2.7724   3.8835   3.9128   3.9769   4.0064   4.2088   4.2398
     4.2543   4.2906   4.7271   5.1846   5.2202   5.2753   5.3079   5.3163
     5.3352   5.3471   5.4219   5.5335   5.5946   5.5973   5.6078   5.6268
     5.8405   5.8526   5.8669   5.9318   5.9399   5.9698   6.1058   6.1155
     6.1460   6.3820   6.4384   6.4709   6.6478   6.7603   6.8300   6.8577
     6.8963   6.8963   6.9120   6.9355   7.0050   7.0293   7.1855   7.1927
     7.2285   7.2400   8.0781   8.0848   8.1332   8.1345   8.2089   8.2248
     9.2618   9.2930   9.7227   9.7594   9.7985   9.8357  12.0871  12.1733
    12.2057  12.2511  12.8511  12.9024  12.9526  12.9620  13.0148  13.1545
    13.2069  13.2655  13.6366  13.7415  13.9669  14.0449  14.2313  14.2831
    14.5377  14.6530  14.8108  15.0945  15.3678  15.3869  15.6996  16.4250
    16.4592  16.9902  17.1869  17.5536  17.5650

          k = 0.0000 0.1575 0.1667 ( 62237 PWs)   bands (ev):

   -66.1500 -66.1492 -66.1490 -66.1483 -66.1481 -66.1475 -66.1473 -66.1465
   -30.6397 -30.6363 -30.6327 -30.6296 -30.5998 -30.5986 -30.5963 -30.5958
   -30.5353 -30.5318 -30.5234 -30.5223 -30.5023 -30.4937 -30.4888 -30.4834
   -30.4041 -30.3991 -30.3988 -30.3938 -30.3546 -30.3500 -30.3498 -30.3452
   -20.2923 -20.2922 -20.2922 -20.2921 -20.2904 -20.2903 -20.2903 -20.2901
   -20.2732 -20.2729 -20.2704 -20.2704 -20.2696 -20.2694 -20.2693 -20.2674
   -20.2673 -20.2659 -20.2654 -20.2653 -20.2638 -20.2638 -20.2636 -20.2634
   -20.2633 -20.2620 -20.2619 -20.2619 -20.2614 -20.2607 -20.2598 -20.2598
   -20.2588 -20.2587 -20.2580 -20.2577 -20.2571 -20.2569 -20.2566 -20.2565
   -20.2564 -20.2553 -20.2550 -20.2545 -20.2529 -20.2513 -20.2512 -20.2503
   -20.2496 -20.2495 -20.2489 -20.2486 -20.2484 -20.2466 -20.2454 -20.2436
   -10.1230  -9.9909  -9.7805  -9.7114  -9.6668  -9.6056  -9.3918  -9.3740
    -8.6287  -8.5931  -8.5800  -8.5729  -8.0238  -7.9711  -7.9613  -7.9148
    -7.8576  -7.8087  -7.7981  -7.7457  -7.6030  -7.5548  -7.5384  -7.4948
     0.6988   0.7222   0.8169   0.8590   1.0427   1.0846   1.2433   1.2794
     2.0453   2.0928   2.1274   2.1456   2.1478   2.2403   2.6395   2.7385
     2.7449   2.8635   3.8816   3.9299   3.9661   3.9728   3.9937   4.0220
     4.2859   4.3205   4.6929   4.7300   4.8591   5.1172   5.1864   5.2335
     5.2873   5.3058   5.3310   5.4083   5.4951   5.5217   5.6730   5.6964
     5.7700   5.8190   5.8621   5.8846   5.9648   6.0598   6.1073   6.2037
     6.2133   6.3270   6.5655   6.6479   6.6717   6.7221   6.7320   6.7772
     6.8153   6.8354   6.8599   6.8780   6.8868   6.9243   7.1896   7.1932
     7.2049   7.2446   8.0202   8.0237   8.1294   8.1401   8.1669   8.1835
     9.6151   9.6515   9.7702   9.8357  10.0003  10.0710  12.1601  12.2043
    12.2380  12.2623  12.7150  12.8087  12.8995  12.9581  13.0035  13.0069
    13.0434  13.1690  13.6436  13.7426  13.8213  13.8707  14.2194  14.2295
    14.5533  14.7770  14.8407  15.1994  15.5288  15.5935  15.6826  16.4351
    16.8378  17.1090  17.1590  17.2778  17.6796

          k = 0.0000 0.1575 0.3333 ( 62284 PWs)   bands (ev):

   -66.1498 -66.1493 -66.1488 -66.1483 -66.1481 -66.1477 -66.1471 -66.1466
   -30.6379 -30.6340 -30.6170 -30.6094 -30.5979 -30.5971 -30.5793 -30.5757
   -30.5563 -30.5524 -30.5303 -30.5225 -30.5207 -30.5089 -30.4877 -30.4846
   -30.4030 -30.4001 -30.3977 -30.3948 -30.3536 -30.3509 -30.3488 -30.3461
   -20.2923 -20.2922 -20.2922 -20.2921 -20.2904 -20.2903 -20.2903 -20.2902
   -20.2731 -20.2730 -20.2702 -20.2700 -20.2697 -20.2694 -20.2689 -20.2678
   -20.2669 -20.2662 -20.2650 -20.2649 -20.2641 -20.2639 -20.2637 -20.2634
   -20.2631 -20.2622 -20.2618 -20.2616 -20.2615 -20.2609 -20.2596 -20.2596
   -20.2591 -20.2590 -20.2576 -20.2573 -20.2568 -20.2567 -20.2566 -20.2560
   -20.2557 -20.2553 -20.2538 -20.2537 -20.2527 -20.2525 -20.2518 -20.2511
   -20.2508 -20.2499 -20.2499 -20.2488 -20.2484 -20.2472 -20.2451 -20.2440
    -9.9908  -9.8572  -9.8126  -9.6941  -9.4244  -9.3101  -9.2336  -9.1968
    -8.7059  -8.6462  -8.5671  -8.5546  -8.4048  -8.3674  -8.3388  -8.2885
    -7.8525  -7.8207  -7.7881  -7.7573  -7.5932  -7.5647  -7.5296  -7.5037
     0.7858   0.8134   0.8316   0.8582   1.8172   1.8641   1.8999   2.0259
     2.0658   2.1335   2.2051   2.3339   2.3622   2.4028   2.6615   2.7239
     3.0029   3.1102   3.3329   3.4096   3.9141   3.9244   3.9909   4.0442
     4.1305   4.2261   4.3515   4.4571   4.5194   4.6057   4.6086   4.6992
     4.7647   4.9986   5.1251   5.1600   5.3257   5.3385   5.4468   5.7955
     5.8438   5.8607   5.8911   5.9048   5.9487   5.9954   6.0943   6.1452
     6.2751   6.3705   6.3901   6.4450   6.5083   6.6205   6.8260   6.8398
     6.8888   6.9074   6.9865   7.0157   7.1196   7.1526   7.1789   7.2252
     7.2781   7.3271   7.8156   7.8304   8.0183   8.0404   8.1355   8.1433
     9.7742   9.8101  10.4272  10.4603  10.6913  10.7497  12.1373  12.1740
    12.2193  12.2549  12.3875  12.4080  12.4614  12.4998  12.9711  13.0178
    13.1576  13.2685  13.3921  13.4347  13.6252  13.7477  13.9275  13.9862
    14.6633  14.7796  15.1520  15.4681  15.5945  15.9214  16.3435  16.3564
    16.5377  17.4082  17.5279  17.8349  17.8976

          k = 0.0000 0.1575-0.5000 ( 62234 PWs)   bands (ev):

   -66.1496 -66.1496 -66.1486 -66.1485 -66.1479 -66.1479 -66.1469 -66.1469
   -30.6359 -30.6359 -30.6014 -30.6013 -30.5837 -30.5836 -30.5803 -30.5802
   -30.5526 -30.5526 -30.5489 -30.5489 -30.5176 -30.5176 -30.4862 -30.4862
   -30.4015 -30.4015 -30.3963 -30.3962 -30.3523 -30.3522 -30.3475 -30.3474
   -20.2923 -20.2922 -20.2921 -20.2921 -20.2904 -20.2903 -20.2902 -20.2902
   -20.2730 -20.2730 -20.2699 -20.2699 -20.2697 -20.2697 -20.2683 -20.2683
   -20.2665 -20.2665 -20.2645 -20.2645 -20.2644 -20.2644 -20.2636 -20.2636
   -20.2626 -20.2626 -20.2616 -20.2616 -20.2612 -20.2612 -20.2594 -20.2593
   -20.2593 -20.2593 -20.2572 -20.2572 -20.2569 -20.2568 -20.2563 -20.2563
   -20.2544 -20.2544 -20.2534 -20.2534 -20.2525 -20.2524 -20.2522 -20.2522
   -20.2517 -20.2517 -20.2494 -20.2494 -20.2479 -20.2478 -20.2445 -20.2445
    -9.8776  -9.8775  -9.7508  -9.7508  -9.0176  -9.0176  -8.9223  -8.9223
    -8.8694  -8.8694  -8.8438  -8.8438  -8.5325  -8.5325  -8.5036  -8.5036
    -7.8369  -7.8369  -7.7728  -7.7728  -7.5790  -7.5790  -7.5167  -7.5167
     0.8069   0.8069   0.8538   0.8538   2.0479   2.0479   2.1140   2.1140
     2.6697   2.6697   2.7143   2.7143   2.7913   2.7914   3.0020   3.0020
     3.0296   3.0296   3.1862   3.1862   3.2709   3.2709   3.6594   3.6594
     3.7474   3.7474   4.0284   4.0284   4.4362   4.4362   4.6623   4.6624
     4.8418   4.8418   4.9128   4.9128   5.3094   5.3094   5.5559   5.5559
     5.8942   5.8942   5.9455   5.9455   5.9782   5.9783   6.0716   6.0716
     6.2368   6.2368   6.2872   6.2873   6.5664   6.5664   6.8423   6.8423
     7.0029   7.0029   7.0596   7.0597   7.1691   7.1691   7.4463   7.4463
     7.5004   7.5004   7.7241   7.7241   7.7535   7.7535   8.1406   8.1406
     9.7938   9.7938  11.3274  11.3274  11.3770  11.3770  11.5511  11.5511
    11.5954  11.5954  12.2527  12.2527  12.7804  12.7805  12.9081  12.9081
    13.0833  13.0833  13.4362  13.4362  13.5457  13.5457  13.7799  13.7800
    14.7415  14.7415  15.4194  15.4194  15.9386  15.9386  16.2168  16.2168
    17.2347  17.2348  17.7313  17.7313  17.9070

          k = 0.0000 0.3150 0.0000 ( 62175 PWs)   bands (ev):

   -66.1501 -66.1491 -66.1490 -66.1484 -66.1481 -66.1474 -66.1474 -66.1464
   -30.6436 -30.6405 -30.6370 -30.6322 -30.6053 -30.6034 -30.6005 -30.5958
   -30.5275 -30.5242 -30.5228 -30.5221 -30.4947 -30.4892 -30.4869 -30.4829
   -30.3942 -30.3889 -30.3884 -30.3833 -30.3655 -30.3606 -30.3601 -30.3552
   -20.2923 -20.2922 -20.2922 -20.2920 -20.2905 -20.2903 -20.2902 -20.2901
   -20.2732 -20.2729 -20.2705 -20.2705 -20.2696 -20.2695 -20.2692 -20.2674
   -20.2673 -20.2658 -20.2655 -20.2655 -20.2637 -20.2637 -20.2636 -20.2635
   -20.2630 -20.2618 -20.2614 -20.2612 -20.2606 -20.2603 -20.2599 -20.2598
   -20.2589 -20.2586 -20.2584 -20.2581 -20.2580 -20.2573 -20.2572 -20.2572
   -20.2569 -20.2555 -20.2552 -20.2547 -20.2531 -20.2511 -20.2508 -20.2504
   -20.2491 -20.2490 -20.2490 -20.2482 -20.2482 -20.2464 -20.2456 -20.2434
   -10.1487 -10.0745  -9.7948  -9.7494  -9.7166  -9.6684  -9.4332  -9.4223
    -8.4249  -8.4016  -8.3956  -8.3938  -7.9095  -7.8616  -7.8355  -7.8265
    -7.8217  -7.8010  -7.7991  -7.7776  -7.7729  -7.7557  -7.7413  -7.7370
     0.5713   0.5814   0.7324   0.7742   0.8194   0.8606   1.0823   1.0945
     1.9969   2.0405   2.6325   2.7029   2.7661   2.7723   2.8288   2.9533
     2.9901   3.0286   3.5060   3.5747   3.5987   3.6722   4.2126   4.2422
     4.2425   4.2453   4.2795   4.6520   4.6660   4.9841   5.2776   5.2906
     5.3322   5.3507   5.4239   5.4391   5.6319   5.6757   5.7033   5.7126
     5.7254   5.8064   5.8260   5.9489   5.9583   6.0262   6.1200   6.1439
     6.1668   6.2223   6.3157   6.4213   6.5260   6.5569   6.6155   6.7299
     6.7803   6.8589   6.9204   6.9476   7.0085   7.0346   7.2660   7.2758
     7.2863   7.2888   7.9352   7.9618   7.9886   8.0181   8.0856   8.0921
     9.2736   9.2921  10.2999  10.3733  10.3875  10.4463  11.6413  11.7163
    11.7616  11.8034  12.8636  12.9113  12.9723  13.0208  13.0750  13.2460
    13.3154  13.3713  13.5213  13.6498  13.7723  13.8255  14.2776  14.2988
    15.2275  15.3197  15.3318  15.3679  15.3830  15.4574  16.2770  16.3078
    16.3895  16.7132  17.0968  17.4167  17.8835

          k = 0.0000 0.3150 0.1667 ( 62260 PWs)   bands (ev):

   -66.1500 -66.1492 -66.1490 -66.1483 -66.1481 -66.1475 -66.1473 -66.1465
   -30.6397 -30.6362 -30.6327 -30.6296 -30.5999 -30.5986 -30.5963 -30.5958
   -30.5353 -30.5317 -30.5234 -30.5223 -30.5023 -30.4937 -30.4888 -30.4834
   -30.3938 -30.3888 -30.3885 -30.3836 -30.3651 -30.3604 -30.3602 -30.3555
   -20.2923 -20.2922 -20.2922 -20.2921 -20.2904 -20.2903 -20.2903 -20.2901
   -20.2731 -20.2729 -20.2704 -20.2704 -20.2696 -20.2694 -20.2693 -20.2674
   -20.2673 -20.2659 -20.2654 -20.2653 -20.2638 -20.2636 -20.2636 -20.2634
   -20.2630 -20.2619 -20.2613 -20.2611 -20.2606 -20.2603 -20.2599 -20.2597
   -20.2590 -20.2586 -20.2584 -20.2582 -20.2576 -20.2572 -20.2571 -20.2570
   -20.2567 -20.2554 -20.2550 -20.2545 -20.2529 -20.2513 -20.2512 -20.2503
   -20.2497 -20.2495 -20.2489 -20.2486 -20.2484 -20.2466 -20.2454 -20.2436
   -10.0885 -10.0131  -9.7586  -9.6920  -9.6771  -9.6135  -9.3884  -9.3774
    -8.4334  -8.4131  -8.4003  -8.3898  -8.0286  -7.9754  -7.9697  -7.9212
    -7.8700  -7.8343  -7.8279  -7.8000  -7.7919  -7.7754  -7.7487  -7.7449
     0.6991   0.7218   0.8181   0.8604   1.0447   1.0867   1.2622   1.2820
     2.0864   2.1297   2.6360   2.6914   2.7655   2.8022   2.8433   2.9450
     3.0380   3.1239   3.5656   3.5956   3.6448   3.6636   3.9372   3.9564
     4.2254   4.2849   4.3077   4.6200   4.6759   4.8635   4.9809   5.0144
     5.0931   5.2742   5.2819   5.3496   5.4215   5.4555   5.6569   5.6837
     5.7617   5.7887   5.8499   5.8804   5.9271   5.9839   6.0232   6.1215
     6.1457   6.2389   6.4852   6.5295   6.5771   6.5973   6.7247   6.7381
     6.7733   6.8009   6.8404   6.8986   6.9637   7.0022   7.2592   7.2866
     7.3016   7.3051   7.9329   7.9526   7.9663   7.9902   8.0260   8.0428
     9.6318   9.6524  10.3938  10.4399  10.4872  10.5590  11.7294  11.7636
    11.7924  11.8176  12.7198  12.8141  12.9162  13.0178  13.0786  13.1263
    13.1517  13.2521  13.5289  13.5956  13.6342  13.6502  14.2227  14.2439
    15.2891  15.3625  15.3947  15.5207  15.5929  15.7115  16.2800  16.5192
    16.6755  16.6909  17.2122  17.4092  17.4918

          k = 0.0000 0.3150 0.3333 ( 62269 PWs)   bands (ev):

   -66.1498 -66.1493 -66.1488 -66.1483 -66.1482 -66.1477 -66.1472 -66.1467
   -30.6379 -30.6340 -30.6169 -30.6094 -30.5979 -30.5971 -30.5794 -30.5758
   -30.5563 -30.5524 -30.5303 -30.5225 -30.5207 -30.5089 -30.4878 -30.4847
   -30.3927 -30.3898 -30.3874 -30.3846 -30.3641 -30.3614 -30.3592 -30.3565
   -20.2923 -20.2922 -20.2922 -20.2921 -20.2904 -20.2903 -20.2903 -20.2902
   -20.2731 -20.2729 -20.2702 -20.2701 -20.2697 -20.2694 -20.2689 -20.2678
   -20.2669 -20.2661 -20.2650 -20.2650 -20.2641 -20.2639 -20.2634 -20.2632
   -20.2630 -20.2622 -20.2611 -20.2609 -20.2607 -20.2605 -20.2597 -20.2596
   -20.2592 -20.2590 -20.2582 -20.2580 -20.2574 -20.2574 -20.2570 -20.2560
   -20.2558 -20.2553 -20.2538 -20.2538 -20.2527 -20.2525 -20.2518 -20.2511
   -20.2508 -20.2499 -20.2499 -20.2488 -20.2484 -20.2472 -20.2451 -20.2440
    -9.9571  -9.8774  -9.7884  -9.7060  -9.3989  -9.3185  -9.2297  -9.1991
    -8.5538  -8.5175  -8.4071  -8.3965  -8.3789  -8.3750  -8.2897  -8.2403
    -7.8716  -7.8444  -7.8185  -7.7933  -7.7903  -7.7803  -7.7571  -7.7554
     0.7866   0.8146   0.8326   0.8597   1.8704   1.9123   1.9832   2.0274
     2.3456   2.3875   2.6420   2.6902   2.7652   2.8260   2.8765   2.9260
     3.2553   3.3400   3.3461   3.3994   3.6381   3.6471   3.6975   3.7748
     4.1499   4.1848   4.2873   4.3617   4.4276   4.4467   4.5521   4.5837
     4.6793   4.7759   4.7931   5.0371   5.1215   5.1598   5.3308   5.4334
     5.4837   5.5554   5.7977   5.8683   5.9743   6.0122   6.0425   6.1662
     6.2674   6.3882   6.4015   6.5084   6.5302   6.5624   6.6038   6.6544
     6.8190   6.9056   7.1705   7.1755   7.2062   7.2563   7.2929   7.3239
     7.3396   7.3772   7.7911   7.8372   7.8771   7.8903   7.9547   7.9813
    10.3447  10.4186  10.4464  10.5068  11.0066  11.0796  11.7673  11.7925
    12.0107  12.0956  12.1595  12.2297  12.5316  12.5734  13.0180  13.0796
    13.1427  13.1689  13.1890  13.3132  13.5455  13.6542  13.9309  13.9721
    15.3260  15.3598  15.7024  15.8722  16.0560  16.2240  16.5017  16.5979
    16.7895  16.8650  17.5855  17.6793  17.7268

          k = 0.0000 0.3150-0.5000 ( 62306 PWs)   bands (ev):

   -66.1496 -66.1496 -66.1486 -66.1485 -66.1479 -66.1479 -66.1469 -66.1469
   -30.6359 -30.6358 -30.6014 -30.6014 -30.5836 -30.5836 -30.5802 -30.5802
   -30.5526 -30.5526 -30.5490 -30.5489 -30.5176 -30.5176 -30.4863 -30.4862
   -30.3912 -30.3912 -30.3860 -30.3860 -30.3627 -30.3627 -30.3578 -30.3578
   -20.2923 -20.2922 -20.2921 -20.2921 -20.2904 -20.2903 -20.2902 -20.2902
   -20.2730 -20.2730 -20.2699 -20.2699 -20.2697 -20.2697 -20.2683 -20.2683
   -20.2665 -20.2665 -20.2646 -20.2645 -20.2644 -20.2644 -20.2633 -20.2632
   -20.2627 -20.2626 -20.2609 -20.2608 -20.2607 -20.2607 -20.2595 -20.2595
   -20.2593 -20.2593 -20.2578 -20.2578 -20.2577 -20.2577 -20.2564 -20.2563
   -20.2545 -20.2544 -20.2535 -20.2534 -20.2525 -20.2524 -20.2522 -20.2522
   -20.2517 -20.2517 -20.2494 -20.2494 -20.2479 -20.2478 -20.2445 -20.2445
    -9.8489  -9.8489  -9.7661  -9.7660  -8.9689  -8.9689  -8.9030  -8.9029
    -8.8778  -8.8778  -8.8475  -8.8475  -8.3773  -8.3773  -8.3481  -8.3481
    -7.8583  -7.8583  -7.8047  -7.8046  -7.7793  -7.7793  -7.7642  -7.7642
     0.8080   0.8080   0.8552   0.8553   2.5888   2.5888   2.6578   2.6578
     2.7442   2.7442   2.7724   2.7724   2.8914   2.8914   3.0145   3.0145
     3.0575   3.0575   3.2243   3.2243   3.2995   3.2995   3.6212   3.6212
     3.8901   3.8901   3.9600   3.9600   4.0541   4.0541   4.2783   4.2783
     4.8341   4.8341   4.8717   4.8717   4.9691   4.9691   5.1548   5.1548
     5.4888   5.4888   5.8530   5.8530   6.0558   6.0559   6.1122   6.1122
     6.2622   6.2622   6.2895   6.2896   6.5459   6.5459   6.6412   6.6412
     7.1271   7.1271   7.2640   7.2640   7.2821   7.2822   7.4361   7.4361
     7.5415   7.5415   7.6656   7.6656   7.6793   7.6793   7.9652   7.9652
    10.4107  10.4107  11.3265  11.3266  11.3812  11.3812  11.6957  11.6958
    11.7991  11.7991  11.8689  11.8689  12.4955  12.4955  12.5768  12.5768
    13.1401  13.1402  13.4178  13.4179  13.5573  13.5573  13.7065  13.7065
    15.3471  15.3471  16.0853  16.0853  16.1994  16.1994  16.4207  16.4207
    17.2504  17.2504  17.4437  17.4437  17.9970

          k = 0.0000-0.4725 0.0000 ( 62212 PWs)   bands (ev):

   -66.1501 -66.1491 -66.1490 -66.1484 -66.1481 -66.1474 -66.1474 -66.1464
   -30.6435 -30.6405 -30.6370 -30.6322 -30.6053 -30.6034 -30.6005 -30.5958
   -30.5275 -30.5242 -30.5228 -30.5221 -30.4948 -30.4892 -30.4869 -30.4829
   -30.3807 -30.3790 -30.3756 -30.3751 -30.3739 -30.3735 -30.3701 -30.3685
   -20.2923 -20.2922 -20.2922 -20.2920 -20.2905 -20.2903 -20.2902 -20.2901
   -20.2731 -20.2729 -20.2705 -20.2704 -20.2696 -20.2695 -20.2692 -20.2674
   -20.2673 -20.2658 -20.2656 -20.2655 -20.2637 -20.2636 -20.2636 -20.2635
   -20.2628 -20.2618 -20.2607 -20.2605 -20.2602 -20.2601 -20.2599 -20.2597
   -20.2591 -20.2590 -20.2587 -20.2583 -20.2581 -20.2580 -20.2574 -20.2572
   -20.2572 -20.2555 -20.2552 -20.2547 -20.2531 -20.2511 -20.2508 -20.2504
   -20.2490 -20.2490 -20.2490 -20.2482 -20.2482 -20.2464 -20.2456 -20.2434
   -10.1110 -10.1064  -9.7846  -9.7370  -9.7219  -9.6754  -9.4296  -9.4259
    -8.1613  -8.1602  -8.1260  -8.1259  -8.1164  -8.1153  -8.0986  -8.0977
    -7.8594  -7.8583  -7.8020  -7.8011  -7.7913  -7.7887  -7.7451  -7.7423
     0.5716   0.5809   0.7327   0.7744   0.8199   0.8610   1.0858   1.0957
     2.0183   2.0193   3.0584   3.0818   3.1320   3.1516   3.1733   3.1755
     3.2286   3.2750   3.4889   3.4893   3.7198   3.7332   3.7739   3.7843
     3.9425   3.9447   4.2183   4.2444   4.2494   4.2778   5.3054   5.3168
     5.3208   5.3322   5.5789   5.5873   5.6037   5.6228   5.7499   5.7600
     5.8751   5.8878   5.9288   5.9402   5.9573   5.9759   5.9851   6.0082
     6.1757   6.1951   6.3478   6.3615   6.4240   6.4362   6.4767   6.4772
     6.7624   6.7658   6.9218   6.9475   7.0091   7.0350   7.6024   7.6223
     7.6228   7.6547   7.6573   7.6591   7.6748   7.6953   8.0872   8.0887
     9.2824   9.2865  10.9623  11.0132  11.0308  11.0747  11.0818  11.1439
    11.1558  11.2126  12.8690  12.9143  12.9765  13.0229  13.2638  13.2908
    13.4223  13.4339  13.5039  13.5372  13.5643  13.5764  14.2853  14.2885
    15.3511  15.3653  15.8202  15.8346  15.8915  15.9337  15.9770  16.0159
    16.2674  16.2703  17.7701  17.7714  17.8925

          k = 0.0000-0.4725 0.1667 ( 62246 PWs)   bands (ev):

   -66.1500 -66.1491 -66.1490 -66.1483 -66.1481 -66.1475 -66.1473 -66.1465
   -30.6397 -30.6362 -30.6327 -30.6296 -30.5999 -30.5986 -30.5963 -30.5958
   -30.5353 -30.5317 -30.5234 -30.5223 -30.5023 -30.4937 -30.4889 -30.4834
   -30.3803 -30.3786 -30.3755 -30.3752 -30.3738 -30.3735 -30.3704 -30.3688
   -20.2923 -20.2922 -20.2922 -20.2921 -20.2904 -20.2903 -20.2903 -20.2901
   -20.2731 -20.2729 -20.2704 -20.2704 -20.2695 -20.2694 -20.2693 -20.2674
   -20.2673 -20.2659 -20.2654 -20.2654 -20.2638 -20.2636 -20.2635 -20.2634
   -20.2628 -20.2619 -20.2606 -20.2604 -20.2602 -20.2601 -20.2599 -20.2597
   -20.2593 -20.2589 -20.2587 -20.2584 -20.2580 -20.2577 -20.2574 -20.2571
   -20.2567 -20.2554 -20.2550 -20.2545 -20.2529 -20.2513 -20.2512 -20.2503
   -20.2497 -20.2495 -20.2489 -20.2486 -20.2484 -20.2466 -20.2454 -20.2436
   -10.0501 -10.0454  -9.7456  -9.6846  -9.6810  -9.6190  -9.3852  -9.3805
    -8.1727  -8.1658  -8.1491  -8.1436  -8.1220  -8.1202  -8.1121  -8.1098
    -7.9918  -7.9527  -7.9329  -7.8926  -7.8476  -7.8020  -7.7955  -7.7493
     0.6992   0.7216   0.8185   0.8609   1.0453   1.0873   1.2671   1.2837
     2.1076   2.1088   3.0803   3.1034   3.1475   3.1819   3.1944   3.2271
     3.2660   3.3147   3.4796   3.4830   3.7121   3.7584   3.7690   3.8049
     3.9467   3.9492   3.9578   3.9637   4.2908   4.3059   4.9950   5.0182
     5.2232   5.2486   5.2725   5.2825   5.4873   5.5223   5.6137   5.6394
     5.7610   5.7724   5.7880   5.8211   5.9219   5.9868   6.0586   6.1375
     6.1519   6.2465   6.3755   6.4233   6.4410   6.4414   6.7368   6.7738
     6.8019   6.8115   6.8403   6.8539   6.9332   6.9598   7.6033   7.6128
     7.6294   7.6470   7.6493   7.6635   7.6717   7.6903   8.0289   8.0317
     9.6371   9.6504  11.0626  11.0948  11.1055  11.1315  11.1318  11.1711
    11.2320  11.2415  12.7216  12.8162  12.9242  13.0244  13.2665  13.2888
    13.3312  13.3445  13.3612  13.3662  13.4263  13.4360  14.2290  14.2331
    15.4664  15.5182  15.9035  15.9526  15.9740  15.9919  16.2601  16.3252
    16.3920  16.3974  17.7217  17.7734  17.8153

          k = 0.0000-0.4725 0.3333 ( 62268 PWs)   bands (ev):

   -66.1498 -66.1493 -66.1488 -66.1483 -66.1482 -66.1477 -66.1472 -66.1467
   -30.6379 -30.6340 -30.6169 -30.6094 -30.5979 -30.5971 -30.5794 -30.5758
   -30.5563 -30.5524 -30.5303 -30.5225 -30.5207 -30.5089 -30.4878 -30.4847
   -30.3793 -30.3775 -30.3764 -30.3748 -30.3742 -30.3725 -30.3714 -30.3697
   -20.2923 -20.2922 -20.2922 -20.2921 -20.2904 -20.2903 -20.2903 -20.2902
   -20.2731 -20.2729 -20.2702 -20.2701 -20.2697 -20.2694 -20.2689 -20.2677
   -20.2669 -20.2661 -20.2650 -20.2650 -20.2641 -20.2639 -20.2633 -20.2632
   -20.2629 -20.2622 -20.2604 -20.2603 -20.2601 -20.2601 -20.2600 -20.2596
   -20.2596 -20.2589 -20.2586 -20.2585 -20.2581 -20.2578 -20.2571 -20.2560
   -20.2558 -20.2554 -20.2538 -20.2538 -20.2527 -20.2525 -20.2518 -20.2511
   -20.2508 -20.2499 -20.2499 -20.2488 -20.2484 -20.2472 -20.2451 -20.2440
    -9.9288  -9.8991  -9.7735  -9.7150  -9.3848  -9.3246  -9.2276  -9.2004
    -8.4657  -8.4359  -8.4130  -8.3958  -8.1389  -8.1381  -8.1104  -8.1097
    -8.0947  -8.0914  -8.0604  -8.0566  -7.8384  -7.8072  -7.7919  -7.7609
     0.7869   0.8150   0.8329   0.8601   1.8764   1.9168   2.0051   2.0287
     2.3666   2.3676   3.0759   3.1301   3.1592   3.2293   3.2596   3.3068
     3.3738   3.3802   3.3937   3.4685   3.4920   3.4941   3.6673   3.7276
     3.8489   3.8790   3.9694   3.9821   4.2887   4.3067   4.4535   4.5068
     4.5716   4.6160   4.8427   4.8550   4.9547   4.9826   5.1282   5.1384
     5.6328   5.6787   5.7438   5.7911   5.9933   6.0503   6.0932   6.1871
     6.2716   6.3703   6.3813   6.4429   6.4613   6.4982   6.5082   6.5391
     6.8700   6.8710   7.2235   7.2556   7.2772   7.3006   7.5563   7.5977
     7.6030   7.6194   7.6367   7.6458   7.6621   7.6833   7.8501   7.8688
    10.4192  10.4541  11.0949  11.1076  11.1559  11.1656  11.4838  11.5278
    11.5439  11.6067  12.1578  12.2304  12.7656  12.7817  12.8124  12.8449
    13.0930  13.1699  13.3254  13.3376  13.4406  13.4546  13.9337  13.9595
    15.6893  15.7739  15.8810  15.9598  16.2825  16.2964  16.9685  16.9811
    17.0061  17.0316  17.2003  17.2387  17.8050

          k = 0.0000-0.4725-0.5000 ( 62284 PWs)   bands (ev):

   -66.1496 -66.1496 -66.1485 -66.1485 -66.1479 -66.1479 -66.1469 -66.1469
   -30.6358 -30.6358 -30.6014 -30.6014 -30.5836 -30.5836 -30.5802 -30.5802
   -30.5526 -30.5526 -30.5490 -30.5490 -30.5176 -30.5176 -30.4863 -30.4862
   -30.3778 -30.3778 -30.3761 -30.3761 -30.3728 -30.3727 -30.3711 -30.3711
   -20.2923 -20.2922 -20.2921 -20.2921 -20.2904 -20.2903 -20.2902 -20.2902
   -20.2730 -20.2730 -20.2699 -20.2699 -20.2697 -20.2697 -20.2683 -20.2682
   -20.2665 -20.2665 -20.2646 -20.2645 -20.2644 -20.2644 -20.2631 -20.2631
   -20.2627 -20.2626 -20.2602 -20.2602 -20.2600 -20.2600 -20.2600 -20.2600
   -20.2593 -20.2593 -20.2584 -20.2583 -20.2582 -20.2582 -20.2564 -20.2564
   -20.2545 -20.2544 -20.2535 -20.2534 -20.2525 -20.2525 -20.2522 -20.2522
   -20.2517 -20.2517 -20.2494 -20.2494 -20.2479 -20.2478 -20.2445 -20.2445
    -9.8295  -9.8295  -9.7790  -9.7789  -8.9443  -8.9443  -8.8932  -8.8932
    -8.8859  -8.8859  -8.8500  -8.8500  -8.1311  -8.1310  -8.1205  -8.1204
    -8.0902  -8.0901  -8.0799  -8.0798  -7.8230  -7.8230  -7.7765  -7.7765
     0.8084   0.8084   0.8557   0.8557   2.7135   2.7135   2.7486   2.7486
     2.9261   2.9261   2.9652   2.9652   3.0989   3.0989   3.1654   3.1654
     3.2218   3.2218   3.2625   3.2625   3.4351   3.4352   3.5097   3.5097
     3.6640   3.6640   3.7515   3.7516   4.2751   4.2751   4.3081   4.3081
     4.3691   4.3691   4.4042   4.4042   4.8429   4.8429   4.8902   4.8903
     5.6686   5.6686   5.7280   5.7280   6.1225   6.1225   6.1406   6.1406
     6.2569   6.2569   6.2905   6.2905   6.4548   6.4548   6.4991   6.4991
     7.3298   7.3298   7.3453   7.3453   7.4660   7.4661   7.4876   7.4876
     7.5546   7.5547   7.5682   7.5683   7.6866   7.6866   7.7274   7.7275
    11.0770  11.0770  11.1359  11.1360  11.3577  11.3577  11.4047  11.4047
    12.0790  12.0790  12.1032  12.1032  12.1565  12.1565  12.1954  12.1954
    13.2820  13.2820  13.3114  13.3114  13.5772  13.5772  13.6142  13.6142
    15.8222  15.8222  15.9037  15.9037  16.6936  16.6937  16.7029  16.7030
    17.5554  17.5554  17.5898  17.5898  17.8343

          k = 0.1667 0.0000 0.1667 ( 62234 PWs)   bands (ev):

   -66.1499 -66.1491 -66.1490 -66.1483 -66.1482 -66.1474 -66.1474 -66.1465
   -30.6358 -30.6328 -30.6301 -30.6254 -30.5979 -30.5961 -30.5927 -30.5889
   -30.5349 -30.5323 -30.5305 -30.5296 -30.5019 -30.4964 -30.4948 -30.4908
   -30.4076 -30.4029 -30.4024 -30.3978 -30.3504 -30.3462 -30.3459 -30.3417
   -20.2923 -20.2922 -20.2922 -20.2921 -20.2904 -20.2903 -20.2902 -20.2902
   -20.2729 -20.2727 -20.2705 -20.2703 -20.2698 -20.2695 -20.2691 -20.2675
   -20.2671 -20.2658 -20.2654 -20.2652 -20.2640 -20.2638 -20.2635 -20.2635
   -20.2633 -20.2623 -20.2620 -20.2620 -20.2617 -20.2607 -20.2600 -20.2595
   -20.2589 -20.2587 -20.2578 -20.2574 -20.2570 -20.2568 -20.2564 -20.2563
   -20.2561 -20.2554 -20.2551 -20.2547 -20.2527 -20.2513 -20.2510 -20.2500
   -20.2496 -20.2495 -20.2493 -20.2487 -20.2481 -20.2469 -20.2458 -20.2440
   -10.0780  -9.9232  -9.7307  -9.6929  -9.6106  -9.5617  -9.3498  -9.3287
    -8.7146  -8.6477  -8.6453  -8.6350  -8.0356  -8.0171  -7.9731  -7.9711
    -7.9554  -7.9494  -7.9127  -7.8893  -7.5047  -7.4538  -7.4436  -7.3966
     0.8808   0.8950   1.0403   1.0820   1.1150   1.1565   1.3344   1.4095
     1.8541   1.9059   1.9241   2.0357   2.1588   2.2420   2.6546   2.6760
     2.7639   2.7869   3.9344   3.9431   3.9920   4.0437   4.1113   4.1435
     4.2168   4.2369   4.6013   4.6682   4.7763   4.8449   5.0016   5.0384
     5.1343   5.1860   5.2731   5.4434   5.4999   5.5101   5.5353   5.6687
     5.6910   5.8397   5.8605   6.0757   6.0912   6.1656   6.2121   6.2513
     6.3139   6.4578   6.4687   6.5332   6.5796   6.6449   6.6812   6.7738
     6.8251   6.8637   6.8968   6.9356   6.9746   7.0169   7.1790   7.1969
     7.2414   7.2426   7.9694   7.9720   8.1491   8.1512   8.2344   8.2488
     9.7752   9.8182   9.8479   9.8617   9.9366   9.9933  12.2965  12.3967
    12.4336  12.4781  12.6991  12.7456  12.7817  12.8482  12.8678  12.9345
    12.9728  13.0161  13.6030  13.6706  13.9097  13.9461  14.0834  14.1168
    14.3444  14.4775  14.6248  15.2325  15.2840  15.7402  15.7466  16.8516
    16.8666  17.2461  17.2524  17.2934  17.6620

          k = 0.1667 0.0000 0.3333 ( 62265 PWs)   bands (ev):

   -66.1498 -66.1493 -66.1489 -66.1484 -66.1481 -66.1476 -66.1472 -66.1467
   -30.6307 -30.6267 -30.6160 -30.6097 -30.5914 -30.5899 -30.5790 -30.5761
   -30.5557 -30.5528 -30.5351 -30.5282 -30.5222 -30.5121 -30.4953 -30.4921
   -30.4064 -30.4035 -30.4018 -30.3988 -30.3494 -30.3468 -30.3453 -30.3426
   -20.2923 -20.2922 -20.2922 -20.2921 -20.2904 -20.2903 -20.2903 -20.2902
   -20.2728 -20.2727 -20.2703 -20.2699 -20.2699 -20.2692 -20.2690 -20.2678
   -20.2668 -20.2660 -20.2651 -20.2648 -20.2643 -20.2638 -20.2637 -20.2634
   -20.2632 -20.2624 -20.2621 -20.2618 -20.2617 -20.2609 -20.2598 -20.2594
   -20.2592 -20.2589 -20.2574 -20.2571 -20.2566 -20.2565 -20.2563 -20.2559
   -20.2558 -20.2552 -20.2540 -20.2539 -20.2526 -20.2523 -20.2516 -20.2510
   -20.2509 -20.2501 -20.2497 -20.2488 -20.2486 -20.2475 -20.2455 -20.2444
    -9.9289  -9.7696  -9.7273  -9.5892  -9.4480  -9.3153  -9.2069  -9.1742
    -8.7850  -8.6902  -8.6229  -8.6202  -8.4026  -8.3730  -8.3425  -8.3023
    -8.0036  -7.9732  -7.9436  -7.9134  -7.4945  -7.4649  -7.4342  -7.4069
     1.0757   1.1103   1.1184   1.1560   1.7285   1.7407   1.8487   1.8959
     1.9131   2.0287   2.0783   2.2541   2.4306   2.5111   2.6876   2.7441
     2.9317   3.0304   3.3975   3.4908   3.9290   3.9633   4.0742   4.1193
     4.1473   4.2677   4.2858   4.3180   4.4634   4.5947   4.6318   4.6763
     4.7400   4.7787   4.9181   4.9371   4.9846   5.1875   5.5203   5.5649
     5.6861   5.7481   5.8418   5.8900   6.1187   6.1377   6.2352   6.2744
     6.3994   6.4192   6.5047   6.5836   6.6317   6.7128   6.7384   6.8684
     6.8829   6.9378   6.9955   7.0025   7.0862   7.0970   7.2066   7.2342
     7.2623   7.3237   7.7866   7.7974   8.0617   8.0844   8.1576   8.1653
     9.8231   9.8608  10.5577  10.6014  10.6157  10.6750  12.2153  12.2554
    12.3035  12.3701  12.4706  12.4875  12.5519  12.6460  12.7652  12.8661
    12.9913  13.0505  13.5002  13.5350  13.6022  13.6441  13.8011  13.8205
    14.4325  14.5958  14.7544  15.1505  15.5989  16.2505  16.4486  16.6170
    16.8034  17.5324  17.6106  17.8137  17.8830

          k = 0.1667 0.0000-0.5000 ( 62322 PWs)   bands (ev):

   -66.1495 -66.1495 -66.1486 -66.1486 -66.1478 -66.1478 -66.1470 -66.1469
   -30.6286 -30.6286 -30.5958 -30.5958 -30.5826 -30.5826 -30.5796 -30.5795
   -30.5532 -30.5532 -30.5493 -30.5493 -30.5243 -30.5242 -30.4938 -30.4938
   -30.4049 -30.4049 -30.4003 -30.4003 -30.3481 -30.3481 -30.3439 -30.3439
   -20.2923 -20.2922 -20.2921 -20.2921 -20.2904 -20.2903 -20.2903 -20.2902
   -20.2728 -20.2727 -20.2701 -20.2701 -20.2696 -20.2695 -20.2684 -20.2683
   -20.2664 -20.2664 -20.2647 -20.2646 -20.2643 -20.2643 -20.2636 -20.2635
   -20.2628 -20.2627 -20.2620 -20.2619 -20.2613 -20.2613 -20.2596 -20.2595
   -20.2591 -20.2591 -20.2569 -20.2569 -20.2566 -20.2566 -20.2563 -20.2563
   -20.2543 -20.2543 -20.2534 -20.2533 -20.2526 -20.2526 -20.2522 -20.2522
   -20.2516 -20.2516 -20.2492 -20.2491 -20.2482 -20.2482 -20.2450 -20.2449
    -9.7994  -9.7994  -9.6490  -9.6490  -9.0575  -9.0575  -8.9202  -8.9202
    -8.8738  -8.8738  -8.8354  -8.8354  -8.5779  -8.5779  -8.5560  -8.5560
    -7.9892  -7.9892  -7.9291  -7.9290  -7.4798  -7.4798  -7.4207  -7.4207
     1.1056   1.1056   1.1511   1.1511   1.8387   1.8387   1.8893   1.8894
     2.6922   2.6922   2.7704   2.7704   2.8416   2.8417   2.9980   2.9980
     3.0230   3.0230   3.1925   3.1925   3.3026   3.3026   3.6249   3.6249
     3.6725   3.6725   4.2033   4.2033   4.5345   4.5346   4.5864   4.5864
     4.6189   4.6189   4.8077   4.8077   4.8936   4.8936   5.5763   5.5763
     5.6848   5.6848   5.7302   5.7302   6.1768   6.1769   6.2904   6.2904
     6.3571   6.3571   6.5262   6.5262   6.6380   6.6380   6.8347   6.8347
     6.9188   6.9188   6.9922   6.9922   7.2204   7.2204   7.4433   7.4433
     7.4853   7.4853   7.7409   7.7409   7.7752   7.7752   8.1610   8.1610
     9.8441   9.8441  11.4202  11.4202  11.4528  11.4528  11.5133  11.5133
    11.5487  11.5487  12.4707  12.4708  12.7267  12.7268  13.0274  13.0275
    13.0746  13.0746  13.2882  13.2882  13.3723  13.3724  13.6922  13.6922
    14.5350  14.5350  14.9971  14.9971  16.0495  16.0495  16.6107  16.6108
    17.3381  17.3381  17.8886  17.8901  17.9049

          k = 0.1667 0.1575 0.1667 ( 62255 PWs)   bands (ev):

   -66.1499 -66.1491 -66.1490 -66.1483 -66.1482 -66.1474 -66.1474 -66.1465
   -30.6358 -30.6328 -30.6300 -30.6254 -30.5979 -30.5961 -30.5928 -30.5889
   -30.5349 -30.5323 -30.5305 -30.5296 -30.5019 -30.4964 -30.4948 -30.4908
   -30.4038 -30.3991 -30.3987 -30.3941 -30.3543 -30.3501 -30.3497 -30.3455
   -20.2923 -20.2922 -20.2922 -20.2921 -20.2904 -20.2903 -20.2902 -20.2902
   -20.2729 -20.2726 -20.2705 -20.2703 -20.2697 -20.2695 -20.2691 -20.2675
   -20.2671 -20.2658 -20.2654 -20.2652 -20.2640 -20.2637 -20.2635 -20.2634
   -20.2632 -20.2621 -20.2619 -20.2618 -20.2614 -20.2606 -20.2600 -20.2596
   -20.2589 -20.2587 -20.2578 -20.2576 -20.2571 -20.2570 -20.2566 -20.2565
   -20.2564 -20.2555 -20.2551 -20.2547 -20.2527 -20.2513 -20.2511 -20.2500
   -20.2496 -20.2495 -20.2493 -20.2487 -20.2482 -20.2469 -20.2458 -20.2440
   -10.0638  -9.9307  -9.7212  -9.6820  -9.6139  -9.5658  -9.3484  -9.3300
    -8.6441  -8.5866  -8.5831  -8.5754  -8.0361  -8.0162  -7.9737  -7.9713
    -7.9564  -7.9509  -7.9127  -7.8910  -7.5996  -7.5519  -7.5420  -7.4980
     0.8813   0.8942   1.0420   1.0839   1.1177   1.1593   1.3622   1.4099
     2.0614   2.1253   2.1469   2.1667   2.2226   2.2610   2.7279   2.7536
     2.8368   2.8580   3.8788   3.9121   3.9409   4.0212   4.0329   4.0427
     4.0629   4.1035   4.6132   4.6413   4.8234   4.8791   4.9541   5.0257
     5.1135   5.1923   5.2439   5.3014   5.3323   5.4794   5.5080   5.6582
     5.6933   5.8828   5.9026   5.9224   6.0448   6.0773   6.1871   6.2382
     6.2801   6.3573   6.4654   6.4920   6.5185   6.6450   6.7495   6.7953
     6.8255   6.8355   6.8624   6.9010   6.9478   6.9790   7.1648   7.1995
     7.2187   7.2289   7.9679   7.9711   8.1007   8.1078   8.1694   8.1865
     9.8828   9.9029   9.9911  10.0146  10.0987  10.1270  12.1516  12.2367
    12.2855  12.3201  12.7077  12.7600  12.7909  12.8594  12.8803  12.9539
    13.0074  13.0419  13.6361  13.6722  13.8280  13.8648  14.1072  14.1148
    14.5572  14.8027  14.8741  15.3716  15.6396  15.7455  15.7496  16.8066
    16.8236  17.1850  17.3126  17.3255  17.3692

          k = 0.1667 0.1575 0.3333 ( 62260 PWs)   bands (ev):

   -66.1498 -66.1493 -66.1489 -66.1484 -66.1481 -66.1476 -66.1472 -66.1467
   -30.6307 -30.6267 -30.6160 -30.6097 -30.5914 -30.5899 -30.5790 -30.5761
   -30.5557 -30.5528 -30.5351 -30.5282 -30.5222 -30.5121 -30.4953 -30.4922
   -30.4026 -30.3997 -30.3980 -30.3951 -30.3533 -30.3506 -30.3491 -30.3464
   -20.2923 -20.2922 -20.2922 -20.2921 -20.2904 -20.2903 -20.2903 -20.2902
   -20.2728 -20.2727 -20.2703 -20.2699 -20.2699 -20.2693 -20.2690 -20.2678
   -20.2668 -20.2660 -20.2651 -20.2648 -20.2643 -20.2638 -20.2635 -20.2633
   -20.2631 -20.2623 -20.2618 -20.2615 -20.2615 -20.2608 -20.2598 -20.2594
   -20.2592 -20.2589 -20.2575 -20.2573 -20.2568 -20.2567 -20.2566 -20.2559
   -20.2559 -20.2552 -20.2540 -20.2539 -20.2526 -20.2523 -20.2516 -20.2510
   -20.2509 -20.2501 -20.2497 -20.2488 -20.2486 -20.2475 -20.2455 -20.2444
    -9.9141  -9.7768  -9.7155  -9.5939  -9.4352  -9.3187  -9.2053  -9.1752
    -8.7233  -8.6382  -8.5640  -8.5623  -8.4029  -8.3753  -8.3353  -8.2931
    -8.0026  -7.9725  -7.9454  -7.9153  -7.5900  -7.5618  -7.5331  -7.5070
     1.0774   1.1139   1.1191   1.1588   1.8173   1.8624   1.9001   2.0283
     2.0653   2.1360   2.2007   2.3510   2.4367   2.5134   2.7571   2.8164
     3.0093   3.1029   3.4001   3.4870   3.8848   3.9516   3.9955   4.0581
     4.1338   4.2006   4.2295   4.2655   4.4533   4.5462   4.5558   4.6584
     4.6947   4.7860   4.8919   4.9261   5.0036   5.0245   5.3711   5.5068
     5.6734   5.7304   5.7646   5.8419   5.9162   6.0818   6.1318   6.1894
     6.2505   6.4097   6.5591   6.6181   6.6799   6.7043   6.7490   6.7863
     6.8734   6.9010   7.0357   7.0699   7.1218   7.1364   7.2032   7.2356
     7.2651   7.3314   7.7836   7.7995   8.0193   8.0358   8.1080   8.1182
    10.0296  10.0706  10.5865  10.6151  10.7063  10.7583  12.2009  12.2286
    12.2767  12.3258  12.3840  12.4145  12.4690  12.5058  12.7967  12.8733
    12.9972  13.0581  13.3924  13.4264  13.6115  13.6535  13.8026  13.8307
    14.6869  14.8422  15.1347  15.5468  15.6862  16.2411  16.4697  16.6747
    16.7705  17.4487  17.5871  17.6777  17.8241

          k = 0.1667 0.1575-0.5000 ( 62292 PWs)   bands (ev):

   -66.1495 -66.1495 -66.1486 -66.1486 -66.1478 -66.1478 -66.1470 -66.1469
   -30.6286 -30.6286 -30.5958 -30.5958 -30.5826 -30.5826 -30.5796 -30.5795
   -30.5532 -30.5532 -30.5493 -30.5493 -30.5243 -30.5242 -30.4938 -30.4938
   -30.4012 -30.4011 -30.3966 -30.3965 -30.3519 -30.3519 -30.3477 -30.3477
   -20.2923 -20.2922 -20.2921 -20.2921 -20.2904 -20.2903 -20.2903 -20.2902
   -20.2728 -20.2727 -20.2701 -20.2700 -20.2696 -20.2695 -20.2684 -20.2683
   -20.2664 -20.2664 -20.2647 -20.2646 -20.2643 -20.2643 -20.2634 -20.2634
   -20.2628 -20.2627 -20.2617 -20.2616 -20.2612 -20.2611 -20.2596 -20.2595
   -20.2592 -20.2591 -20.2572 -20.2572 -20.2569 -20.2569 -20.2564 -20.2564
   -20.2544 -20.2543 -20.2534 -20.2533 -20.2526 -20.2526 -20.2522 -20.2522
   -20.2516 -20.2516 -20.2492 -20.2491 -20.2482 -20.2482 -20.2450 -20.2449
    -9.7858  -9.7858  -9.6548  -9.6548  -9.0315  -9.0315  -8.9108  -8.9107
    -8.8768  -8.8768  -8.8365  -8.8365  -8.5285  -8.5285  -8.5100  -8.5100
    -7.9883  -7.9883  -7.9310  -7.9310  -7.5759  -7.5759  -7.5201  -7.5201
     1.1085   1.1085   1.1535   1.1536   2.0481   2.0481   2.1117   2.1117
     2.7397   2.7397   2.7813   2.7813   2.8531   2.8531   3.0003   3.0003
     3.0266   3.0266   3.2174   3.2174   3.3041   3.3041   3.6703   3.6704
     3.7403   3.7403   4.0624   4.0624   4.4100   4.4100   4.5608   4.5608
     4.5992   4.5992   4.7033   4.7033   4.8780   4.8780   5.4851   5.4851
     5.5744   5.5744   5.7236   5.7236   5.9671   5.9671   6.1610   6.1610
     6.3965   6.3965   6.5427   6.5427   6.7217   6.7217   6.7359   6.7360
     6.9885   6.9885   7.0722   7.0722   7.1909   7.1909   7.4408   7.4408
     7.4964   7.4964   7.7247   7.7247   7.7539   7.7540   8.1126   8.1126
    10.0535  10.0535  11.4241  11.4241  11.4656  11.4656  11.5642  11.5642
    11.6039  11.6039  12.3159  12.3159  12.7173  12.7174  12.9028  12.9028
    12.9873  12.9873  13.2923  13.2923  13.3742  13.3742  13.7042  13.7042
    14.7883  14.7883  15.3957  15.3957  16.1210  16.1210  16.5799  16.5800
    17.3784  17.3784  17.7487  17.7487  17.9105

          k = 0.1667 0.3150 0.1667 ( 62249 PWs)   bands (ev):

   -66.1499 -66.1491 -66.1490 -66.1483 -66.1482 -66.1474 -66.1474 -66.1465
   -30.6357 -30.6328 -30.6300 -30.6254 -30.5979 -30.5961 -30.5928 -30.5890
   -30.5349 -30.5323 -30.5305 -30.5296 -30.5019 -30.4964 -30.4948 -30.4908
   -30.3934 -30.3888 -30.3884 -30.3839 -30.3648 -30.3605 -30.3601 -30.3558
   -20.2923 -20.2922 -20.2922 -20.2921 -20.2904 -20.2903 -20.2902 -20.2902
   -20.2729 -20.2726 -20.2705 -20.2703 -20.2697 -20.2695 -20.2691 -20.2675
   -20.2672 -20.2658 -20.2655 -20.2652 -20.2640 -20.2636 -20.2635 -20.2634
   -20.2628 -20.2620 -20.2613 -20.2611 -20.2607 -20.2602 -20.2600 -20.2596
   -20.2589 -20.2588 -20.2583 -20.2582 -20.2575 -20.2573 -20.2571 -20.2569
   -20.2566 -20.2555 -20.2551 -20.2547 -20.2527 -20.2513 -20.2511 -20.2500
   -20.2496 -20.2495 -20.2493 -20.2487 -20.2482 -20.2469 -20.2458 -20.2440
   -10.0287  -9.9529  -9.7010  -9.6584  -9.6223  -9.5763  -9.3447  -9.3337
    -8.4481  -8.4084  -8.4030  -8.3995  -8.0470  -8.0164  -7.9885  -7.9720
    -7.9574  -7.9546  -7.9140  -7.8955  -7.8383  -7.7945  -7.7861  -7.7457
     0.8826   0.8924   1.0439   1.0861   1.1207   1.1625   1.3929   1.4104
     2.1762   2.2185   2.6391   2.6899   2.7314   2.7841   2.9570   3.0279
     3.0672   3.1223   3.5582   3.6234   3.6608   3.7406   3.9806   3.9972
     4.0137   4.0285   4.2101   4.6173   4.6338   4.8094   4.9335   4.9940
     5.0187   5.0407   5.0507   5.0929   5.2396   5.3742   5.4123   5.4314
     5.6882   5.7073   5.8033   5.8307   5.9332   5.9474   5.9778   6.0174
     6.2867   6.2960   6.4260   6.4804   6.5019   6.6835   6.7100   6.8350
     6.8458   6.8564   6.8964   6.9625   7.0188   7.0469   7.2664   7.2918
     7.3120   7.3286   7.9115   7.9337   7.9647   7.9701   7.9761   8.0190
     9.9037   9.9189  10.4821  10.5196  10.6062  10.6207  11.7276  11.7927
    11.8597  11.8866  12.7225  12.7757  12.8135  12.8688  12.9765  13.0478
    13.1233  13.1514  13.4590  13.5076  13.5996  13.6310  14.1117  14.1187
    15.3672  15.5372  15.5882  15.6461  15.7430  15.7815  16.6137  16.6221
    16.6469  16.6969  17.2741  17.5063  17.5318

          k = 0.1667 0.3150 0.3333 ( 62265 PWs)   bands (ev):

   -66.1497 -66.1493 -66.1489 -66.1484 -66.1481 -66.1476 -66.1472 -66.1467
   -30.6307 -30.6267 -30.6160 -30.6097 -30.5914 -30.5899 -30.5791 -30.5761
   -30.5557 -30.5528 -30.5351 -30.5282 -30.5223 -30.5121 -30.4953 -30.4922
   -30.3923 -30.3894 -30.3877 -30.3849 -30.3637 -30.3610 -30.3595 -30.3568
   -20.2923 -20.2922 -20.2922 -20.2921 -20.2904 -20.2903 -20.2903 -20.2902
   -20.2728 -20.2727 -20.2703 -20.2699 -20.2698 -20.2693 -20.2689 -20.2678
   -20.2668 -20.2660 -20.2651 -20.2648 -20.2643 -20.2638 -20.2633 -20.2632
   -20.2629 -20.2623 -20.2611 -20.2610 -20.2608 -20.2604 -20.2598 -20.2595
   -20.2591 -20.2591 -20.2581 -20.2580 -20.2575 -20.2574 -20.2570 -20.2560
   -20.2559 -20.2552 -20.2540 -20.2539 -20.2526 -20.2523 -20.2517 -20.2510
   -20.2509 -20.2501 -20.2497 -20.2488 -20.2486 -20.2475 -20.2455 -20.2444
    -9.8781  -9.7981  -9.6893  -9.6061  -9.4086  -9.3276  -9.2019  -9.1776
    -8.5714  -8.5121  -8.4069  -8.3933  -8.3900  -8.3837  -8.2864  -8.2446
    -8.0041  -7.9761  -7.9507  -7.9227  -7.8305  -7.8044  -7.7793  -7.7549
     1.0794   1.1175   1.1202   1.1620   1.8707   1.9126   1.9864   2.0310
     2.4448   2.4790   2.6446   2.6924   2.7307   2.8143   2.9797   3.0416
     3.2577   3.3378   3.4040   3.4796   3.6688   3.6888   3.7229   3.7971
     4.1034   4.1399   4.1755   4.2663   4.3498   4.3949   4.5053   4.5587
     4.5836   4.7234   4.7522   4.8645   4.9073   5.0370   5.0479   5.1352
     5.3230   5.4396   5.4442   5.6414   5.7101   5.8493   5.9337   5.9590
     6.3242   6.4122   6.5975   6.6650   6.6877   6.6978   6.7665   6.8759
     6.9120   6.9809   7.1663   7.1746   7.2334   7.2582   7.3043   7.3369
     7.3603   7.3756   7.7606   7.8069   7.8770   7.8818   7.9422   7.9677
    10.4986  10.5837  10.6126  10.6770  11.0172  11.0810  11.8402  11.8690
    12.0185  12.0966  12.2305  12.2965  12.5384  12.5693  12.8641  12.9430
    13.0255  13.0942  13.1334  13.1561  13.4654  13.5125  13.7827  13.8156
    15.4813  15.5508  15.8869  16.0393  16.2048  16.5264  16.5567  16.6536
    16.9034  16.9386  17.5876  17.6472  17.7305

          k = 0.1667 0.3150-0.5000 ( 62264 PWs)   bands (ev):

   -66.1495 -66.1495 -66.1486 -66.1486 -66.1479 -66.1478 -66.1470 -66.1470
   -30.6286 -30.6285 -30.5958 -30.5958 -30.5826 -30.5826 -30.5795 -30.5795
   -30.5532 -30.5532 -30.5493 -30.5493 -30.5243 -30.5242 -30.4938 -30.4938
   -30.3908 -30.3908 -30.3863 -30.3863 -30.3624 -30.3623 -30.3581 -30.3581
   -20.2923 -20.2922 -20.2921 -20.2921 -20.2904 -20.2903 -20.2903 -20.2902
   -20.2727 -20.2727 -20.2701 -20.2700 -20.2696 -20.2695 -20.2683 -20.2683
   -20.2664 -20.2664 -20.2647 -20.2647 -20.2643 -20.2643 -20.2631 -20.2631
   -20.2628 -20.2627 -20.2609 -20.2609 -20.2607 -20.2607 -20.2595 -20.2595
   -20.2593 -20.2593 -20.2578 -20.2578 -20.2577 -20.2577 -20.2565 -20.2565
   -20.2544 -20.2544 -20.2534 -20.2534 -20.2526 -20.2526 -20.2522 -20.2522
   -20.2516 -20.2516 -20.2492 -20.2491 -20.2482 -20.2482 -20.2450 -20.2449
    -9.7547  -9.7547  -9.6709  -9.6709  -8.9807  -8.9807  -8.8962  -8.8962
    -8.8840  -8.8840  -8.8393  -8.8393  -8.3742  -8.3742  -8.3574  -8.3574
    -7.9906  -7.9906  -7.9380  -7.9380  -7.8176  -7.8176  -7.7673  -7.7673
     1.1115   1.1115   1.1565   1.1565   2.5929   2.5929   2.6543   2.6544
     2.7815   2.7815   2.8216   2.8216   2.9645   2.9645   3.0380   3.0381
     3.0618   3.0619   3.2559   3.2559   3.3299   3.3299   3.6748   3.6748
     3.8967   3.8967   3.9516   3.9516   4.0489   4.0489   4.2856   4.2857
     4.5536   4.5536   4.6044   4.6044   4.9144   4.9144   5.0660   5.0660
     5.1532   5.1532   5.4910   5.4910   5.7425   5.7425   5.9359   5.9360
     6.4611   6.4612   6.5457   6.5458   6.6804   6.6804   6.8875   6.8875
     7.1476   7.1476   7.2610   7.2610   7.3025   7.3025   7.4313   7.4313
     7.5392   7.5392   7.6605   7.6605   7.6820   7.6820   7.9510   7.9510
    10.5772  10.5772  11.4260  11.4260  11.4739  11.4739  11.7287  11.7287
    11.8073  11.8073  11.9180  11.9180  12.4939  12.4939  12.5729  12.5729
    12.9894  12.9894  13.2753  13.2753  13.3777  13.3777  13.5666  13.5666
    15.5307  15.5307  16.2939  16.2939  16.4097  16.4097  16.4796  16.4796
    17.3030  17.3030  17.5392  17.5392  17.9406

          k = 0.1667-0.4725 0.1667 ( 62220 PWs)   bands (ev):

   -66.1499 -66.1491 -66.1490 -66.1483 -66.1482 -66.1474 -66.1474 -66.1465
   -30.6357 -30.6328 -30.6300 -30.6254 -30.5980 -30.5961 -30.5928 -30.5890
   -30.5348 -30.5323 -30.5305 -30.5296 -30.5019 -30.4964 -30.4948 -30.4908
   -30.3800 -30.3782 -30.3755 -30.3751 -30.3738 -30.3734 -30.3707 -30.3691
   -20.2923 -20.2922 -20.2922 -20.2921 -20.2904 -20.2903 -20.2902 -20.2901
   -20.2729 -20.2726 -20.2705 -20.2703 -20.2697 -20.2694 -20.2691 -20.2675
   -20.2672 -20.2657 -20.2655 -20.2653 -20.2640 -20.2636 -20.2635 -20.2633
   -20.2626 -20.2620 -20.2606 -20.2605 -20.2603 -20.2600 -20.2599 -20.2597
   -20.2592 -20.2588 -20.2588 -20.2585 -20.2581 -20.2577 -20.2573 -20.2571
   -20.2566 -20.2556 -20.2551 -20.2547 -20.2527 -20.2513 -20.2511 -20.2500
   -20.2496 -20.2495 -20.2493 -20.2487 -20.2482 -20.2469 -20.2458 -20.2440
    -9.9899  -9.9853  -9.6896  -9.6444  -9.6281  -9.5841  -9.3410  -9.3374
    -8.1869  -8.1840  -8.1478  -8.1440  -8.1427  -8.1380  -8.1281  -8.1241
    -7.9908  -7.9827  -7.9460  -7.9384  -7.9358  -7.9308  -7.8949  -7.8904
     0.8834   0.8913   1.0446   1.0867   1.1216   1.1634   1.4020   1.4105
     2.1970   2.1983   3.1068   3.1228   3.1747   3.1917   3.2277   3.2356
     3.3262   3.3552   3.4810   3.4853   3.7403   3.7500   3.7907   3.8010
     3.9392   3.9607   4.0023   4.0157   4.0229   4.0328   4.9152   4.9410
     5.0433   5.0578   5.2124   5.2231   5.2677   5.2712   5.4004   5.4275
     5.5649   5.5750   5.7228   5.7441   5.7812   5.7934   5.9850   5.9900
     6.3064   6.3122   6.4834   6.4951   6.5837   6.5912   6.7914   6.8122
     6.8275   6.8434   6.8521   6.8704   7.0335   7.0379   7.6033   7.6128
     7.6317   7.6447   7.6540   7.6632   7.6758   7.6888   7.9804   7.9820
     9.9115   9.9162  11.0803  11.1280  11.1411  11.1745  11.2193  11.2630
    11.2869  11.3322  12.7285  12.7791  12.8221  12.8713  13.1674  13.1891
    13.2516  13.2677  13.3263  13.3394  13.3557  13.3695  14.1133  14.1158
    15.7173  15.7330  16.0553  16.0666  16.2140  16.2600  16.2753  16.3234
    16.4592  16.4631  17.7065  17.7341  17.8109

          k = 0.1667-0.4725 0.3333 ( 62252 PWs)   bands (ev):

   -66.1497 -66.1493 -66.1488 -66.1484 -66.1481 -66.1476 -66.1472 -66.1467
   -30.6307 -30.6267 -30.6160 -30.6097 -30.5914 -30.5899 -30.5791 -30.5761
   -30.5557 -30.5528 -30.5351 -30.5282 -30.5223 -30.5121 -30.4953 -30.4922
   -30.3789 -30.3772 -30.3761 -30.3745 -30.3744 -30.3728 -30.3717 -30.3700
   -20.2923 -20.2922 -20.2922 -20.2921 -20.2904 -20.2903 -20.2903 -20.2902
   -20.2728 -20.2726 -20.2703 -20.2699 -20.2698 -20.2693 -20.2689 -20.2678
   -20.2668 -20.2660 -20.2651 -20.2649 -20.2643 -20.2638 -20.2632 -20.2631
   -20.2627 -20.2623 -20.2604 -20.2603 -20.2602 -20.2599 -20.2598 -20.2597
   -20.2595 -20.2590 -20.2586 -20.2586 -20.2582 -20.2577 -20.2571 -20.2560
   -20.2559 -20.2553 -20.2540 -20.2539 -20.2526 -20.2523 -20.2517 -20.2510
   -20.2509 -20.2501 -20.2497 -20.2488 -20.2486 -20.2475 -20.2455 -20.2444
    -9.8458  -9.8232  -9.6731  -9.6156  -9.3937  -9.3343  -9.2000  -9.1790
    -8.4714  -8.4394  -8.4217  -8.3999  -8.1396  -8.1362  -8.1326  -8.1241
    -8.0980  -8.0928  -8.0758  -8.0757  -7.9696  -7.9422  -7.9305  -7.9020
     1.0800   1.1184   1.1207   1.1629   1.8768   1.9172   2.0093   2.0329
     2.4632   2.4665   3.1226   3.1704   3.1968   3.2473   3.2692   3.3165
     3.4027   3.4206   3.4609   3.4830   3.5194   3.5290   3.7009   3.7563
     3.8386   3.8716   3.9599   3.9871   4.1684   4.1985   4.3411   4.4344
     4.5053   4.5416   4.8115   4.8389   4.8522   4.9116   4.9386   4.9734
     5.2373   5.2760   5.3324   5.4162   5.7474   5.7713   5.8556   5.8759
     6.3612   6.4017   6.6482   6.6800   6.7357   6.7468   6.7878   6.8162
     6.8739   6.9168   7.2218   7.2687   7.2795   7.3178   7.5634   7.5913
     7.6036   7.6180   7.6327   7.6440   7.6577   7.6905   7.8265   7.8419
    10.5830  10.6074  11.1996  11.2205  11.2525  11.2772  11.4926  11.5378
    11.5507  11.6083  12.2292  12.2977  12.7623  12.7821  12.8062  12.8391
    12.9208  12.9939  13.1977  13.2043  13.2731  13.3016  13.7797  13.8079
    16.0263  16.0977  16.1983  16.2572  16.3662  16.3802  16.9762  16.9929
    17.0078  17.0290  17.2579  17.2962  17.7232

          k = 0.1667-0.4725-0.5000 ( 62232 PWs)   bands (ev):

   -66.1495 -66.1495 -66.1486 -66.1486 -66.1479 -66.1478 -66.1470 -66.1470
   -30.6285 -30.6285 -30.5959 -30.5958 -30.5826 -30.5826 -30.5795 -30.5795
   -30.5532 -30.5532 -30.5493 -30.5493 -30.5243 -30.5242 -30.4938 -30.4938
   -30.3775 -30.3774 -30.3758 -30.3758 -30.3731 -30.3730 -30.3714 -30.3714
   -20.2923 -20.2922 -20.2921 -20.2921 -20.2904 -20.2903 -20.2903 -20.2902
   -20.2727 -20.2727 -20.2701 -20.2700 -20.2696 -20.2695 -20.2683 -20.2683
   -20.2664 -20.2664 -20.2647 -20.2647 -20.2643 -20.2643 -20.2630 -20.2629
   -20.2627 -20.2627 -20.2603 -20.2603 -20.2600 -20.2600 -20.2598 -20.2598
   -20.2594 -20.2594 -20.2584 -20.2584 -20.2582 -20.2582 -20.2565 -20.2565
   -20.2544 -20.2544 -20.2534 -20.2534 -20.2526 -20.2526 -20.2522 -20.2522
   -20.2516 -20.2516 -20.2492 -20.2491 -20.2482 -20.2482 -20.2450 -20.2449
    -9.7332  -9.7332  -9.6851  -9.6851  -8.9541  -8.9541  -8.8980  -8.8980
    -8.8831  -8.8830  -8.8411  -8.8411  -8.1333  -8.1332  -8.1232  -8.1231
    -8.1082  -8.1081  -8.0980  -8.0979  -7.9562  -7.9562  -7.9165  -7.9164
     1.1124   1.1124   1.1573   1.1573   2.7653   2.7654   2.7967   2.7967
     2.9292   2.9292   2.9665   2.9665   3.1243   3.1243   3.1926   3.1926
     3.2648   3.2648   3.3200   3.3200   3.4405   3.4405   3.5139   3.5139
     3.6937   3.6937   3.7739   3.7739   4.2683   4.2683   4.3041   4.3041
     4.3612   4.3612   4.3939   4.3939   4.5760   4.5760   4.6112   4.6112
     5.2499   5.2499   5.3114   5.3114   5.7692   5.7692   5.7921   5.7921
     6.4874   6.4874   6.5391   6.5391   6.7693   6.7693   6.7998   6.7998
     7.3186   7.3186   7.3614   7.3615   7.4595   7.4596   7.4959   7.4960
     7.5442   7.5443   7.5783   7.5784   7.6849   7.6849   7.7262   7.7262
    11.1770  11.1770  11.2409  11.2409  11.4579  11.4579  11.5134  11.5134
    12.0866  12.0866  12.1022  12.1022  12.1599  12.1599  12.1916  12.1916
    13.1224  13.1224  13.1900  13.1900  13.3843  13.3843  13.4557  13.4557
    16.1552  16.1552  16.2171  16.2171  16.7611  16.7612  16.7767  16.7768
    17.5168  17.5168  17.5595  17.5596  17.8316

          k = 0.3333 0.0000 0.3333 ( 62316 PWs)   bands (ev):

   -66.1496 -66.1491 -66.1491 -66.1486 -66.1479 -66.1474 -66.1474 -66.1469
   -30.6143 -30.6115 -30.6108 -30.6066 -30.5803 -30.5752 -30.5732 -30.5703
   -30.5549 -30.5525 -30.5524 -30.5475 -30.5212 -30.5165 -30.5158 -30.5124
   -30.4054 -30.4027 -30.4024 -30.3997 -30.3485 -30.3461 -30.3459 -30.3435
   -20.2923 -20.2922 -20.2922 -20.2921 -20.2904 -20.2903 -20.2903 -20.2902
   -20.2721 -20.2720 -20.2707 -20.2703 -20.2697 -20.2691 -20.2689 -20.2681
   -20.2665 -20.2657 -20.2655 -20.2647 -20.2645 -20.2636 -20.2635 -20.2631
   -20.2630 -20.2627 -20.2622 -20.2620 -20.2615 -20.2607 -20.2604 -20.2597
   -20.2588 -20.2585 -20.2574 -20.2571 -20.2569 -20.2567 -20.2563 -20.2560
   -20.2556 -20.2549 -20.2545 -20.2542 -20.2523 -20.2519 -20.2514 -20.2512
   -20.2507 -20.2501 -20.2495 -20.2489 -20.2484 -20.2479 -20.2465 -20.2455
    -9.7446  -9.5753  -9.4868  -9.4590  -9.3442  -9.3030  -9.0968  -9.0747
    -8.8601  -8.6631  -8.6581  -8.6039  -8.4705  -8.3848  -8.3684  -8.3424
    -8.3274  -8.3134  -8.2835  -8.2532  -7.4824  -7.4532  -7.4473  -7.4194
     1.6970   1.7119   1.7259   1.7591   1.7697   1.8432   1.8956   1.9474
     2.0704   2.1054   2.1921   2.3918   2.7136   2.7896   2.9255   2.9513
     2.9809   3.0510   3.5518   3.5750   3.6659   3.7021   3.8964   3.9748
     4.0774   4.0850   4.1225   4.1878   4.2349   4.2387   4.3374   4.3929
     4.4777   4.6453   4.6909   4.7046   4.7406   4.8009   4.8245   5.1025
     5.1699   5.2517   5.3207   5.6604   6.2911   6.2988   6.3181   6.3864
     6.5386   6.5553   6.6575   6.7053   6.7564   6.8824   6.8949   6.9252
     6.9412   6.9937   7.0188   7.0337   7.1446   7.1589   7.2005   7.2445
     7.2669   7.4509   7.6577   7.6789   7.9951   8.0282   8.0857   8.1109
    10.5004  10.5786  10.6205  10.6810  11.0732  11.1120  12.1827  12.2140
    12.3285  12.3462  12.4312  12.4682  12.5180  12.5365  12.6191  12.6634
    12.6935  12.7463  13.3043  13.3692  13.4328  13.4599  13.5338  13.6017
    14.4653  14.6949  14.7160  15.0652  16.0230  16.9643  16.9773  17.0404
    17.0718  17.7078  17.7861  17.7963  17.8983

          k = 0.3333 0.0000-0.5000 ( 62288 PWs)   bands (ev):

   -66.1493 -66.1493 -66.1488 -66.1488 -66.1477 -66.1476 -66.1472 -66.1471
   -30.6087 -30.6087 -30.5879 -30.5879 -30.5829 -30.5828 -30.5674 -30.5674
   -30.5602 -30.5602 -30.5487 -30.5487 -30.5384 -30.5383 -30.5142 -30.5142
   -30.4039 -30.4039 -30.4012 -30.4012 -30.3472 -30.3471 -30.3448 -30.3447
   -20.2922 -20.2922 -20.2922 -20.2921 -20.2903 -20.2903 -20.2903 -20.2902
   -20.2721 -20.2720 -20.2705 -20.2705 -20.2692 -20.2692 -20.2685 -20.2685
   -20.2661 -20.2661 -20.2650 -20.2650 -20.2640 -20.2640 -20.2632 -20.2632
   -20.2629 -20.2629 -20.2621 -20.2621 -20.2611 -20.2611 -20.2601 -20.2601
   -20.2587 -20.2586 -20.2571 -20.2571 -20.2567 -20.2567 -20.2565 -20.2564
   -20.2541 -20.2541 -20.2531 -20.2531 -20.2530 -20.2530 -20.2524 -20.2524
   -20.2511 -20.2510 -20.2491 -20.2490 -20.2484 -20.2484 -20.2460 -20.2460
    -9.5551  -9.5551  -9.3825  -9.3825  -9.1136  -9.1136  -8.9127  -8.9127
    -8.8636  -8.8636  -8.8062  -8.8062  -8.5790  -8.5790  -8.5653  -8.5653
    -8.3499  -8.3499  -8.2998  -8.2998  -7.4679  -7.4679  -7.4335  -7.4335
     1.7387   1.7387   1.8331   1.8331   1.9319   1.9319   2.0656   2.0656
     2.8616   2.8616   2.9141   2.9141   2.9605   2.9605   2.9926   2.9926
     3.0423   3.0423   3.3203   3.3203   3.4404   3.4404   3.6421   3.6421
     3.6686   3.6686   3.8983   3.8983   4.0524   4.0524   4.0916   4.0916
     4.3925   4.3925   4.6506   4.6506   4.7235   4.7235   4.8419   4.8419
[...]
   -20.7054 -20.7054 -20.7050 -20.7050 -20.7036 -20.7036 -20.7029 -20.7029
   -20.7027 -20.7027 -20.7015 -20.7015 -20.7002 -20.7002 -20.7000 -20.7000
   -20.6992 -20.6992 -20.6990 -20.6990 -20.6970 -20.6969 -20.6965 -20.6965
   -20.6962 -20.6962 -20.6943 -20.6943 -20.6938 -20.6938 -20.6926 -20.6926
    -9.8131  -9.8130  -9.6438  -9.6438  -9.3471  -9.3471  -9.1211  -9.1211
    -8.9464  -8.9463  -8.8792  -8.8791  -8.8173  -8.8172  -8.8059  -8.8059
    -8.4601  -8.4601  -8.4351  -8.4350  -8.1725  -8.1725  -8.1124  -8.1124
     1.1305   1.1305   1.1790   1.1790   1.9297   1.9297   2.0046   2.0047
     2.7172   2.7172   2.8012   2.8012   2.8245   2.8246   2.8940   2.8940
     2.9257   2.9257   3.1600   3.1601   3.2263   3.2263   3.4372   3.4372
     3.5094   3.5095   3.5631   3.5631   3.8760   3.8761   4.0769   4.0770
     4.3174   4.3175   4.4701   4.4701   4.5417   4.5418   4.6543   4.6543
     4.7044   4.7044   5.1101   5.1102   5.4754   5.4754   5.6320   5.6320
     6.3113   6.3113   6.3673   6.3673   6.4721   6.4721   6.5534   6.5534
     6.7485   6.7485   6.8122   6.8122   6.9145   6.9145   7.2132   7.2133
     7.2439   7.2440   7.2824   7.2824   7.3308   7.3309   7.6264   7.6264
    10.1704  10.1705  10.8921  10.8921  10.9422  10.9422  11.2692  11.2692
    11.3311  11.3311  11.6519  11.6519  12.2486  12.2486  12.2698  12.2698
    12.4703  12.4703  12.6514  12.6514  12.6951  12.6951  13.1161  13.1161
    15.0681  15.0681  15.4531  15.4531  16.0036  16.0036  16.4211  16.4211
    16.6308  16.6308  17.0202  17.0202  17.4800

          k = 0.3259 0.4844 0.1627 ( 63656 PWs)   bands (ev):

   -66.5665 -66.5661 -66.5659 -66.5655 -66.5649 -66.5645 -66.5643 -66.5639
   -30.9164 -30.9143 -30.9098 -30.9052 -30.8884 -30.8876 -30.8829 -30.8800
   -30.8786 -30.8755 -30.8718 -30.8714 -30.8691 -30.8688 -30.8667 -30.8639
   -30.8555 -30.8540 -30.8409 -30.8380 -30.8316 -30.8269 -30.8146 -30.8121
   -20.7377 -20.7377 -20.7375 -20.7374 -20.7361 -20.7360 -20.7358 -20.7357
   -20.7148 -20.7145 -20.7142 -20.7139 -20.7118 -20.7115 -20.7109 -20.7107
   -20.7079 -20.7075 -20.7075 -20.7071 -20.7070 -20.7069 -20.7062 -20.7061
   -20.7060 -20.7059 -20.7044 -20.7039 -20.7032 -20.7031 -20.7027 -20.7027
   -20.7022 -20.7018 -20.7017 -20.7016 -20.7011 -20.7010 -20.7006 -20.7005
   -20.7005 -20.7001 -20.6983 -20.6979 -20.6973 -20.6968 -20.6965 -20.6965
   -20.6961 -20.6958 -20.6944 -20.6942 -20.6941 -20.6933 -20.6929 -20.6922
    -9.8340  -9.8103  -9.6692  -9.6110  -9.3996  -9.3450  -9.1529  -9.1360
    -8.9209  -8.9172  -8.8465  -8.8408  -8.8053  -8.8029  -8.7992  -8.7929
    -8.5023  -8.4727  -8.4482  -8.4215  -8.1837  -8.1575  -8.1276  -8.1016
     1.1250   1.1353   1.1717   1.1826   1.8755   1.9196   1.9715   2.0054
     2.6440   2.6506   2.7612   2.7749   2.8308   2.8626   2.8831   2.8894
     2.9601   2.9708   3.1373   3.2042   3.2530   3.3088   3.4182   3.4513
     3.4790   3.5037   3.5845   3.6025   3.9007   3.9036   4.1059   4.1243
     4.2756   4.3053   4.4752   4.4913   4.5306   4.5675   4.6142   4.6214
     4.7292   4.7451   5.0623   5.0924   5.4619   5.4658   5.6639   5.6714
     6.2849   6.3367   6.3443   6.3762   6.4643   6.5201   6.5559   6.5765
     6.7501   6.7637   6.8041   6.8626   6.9181   6.9532   7.1796   7.1861
     7.2290   7.2437   7.2542   7.2851   7.2867   7.3380   7.6159   7.6300
    10.1340  10.1619  10.8455  10.8602  10.9138  10.9268  11.2612  11.2825
    11.3007  11.3474  11.6207  11.6898  12.2568  12.2710  12.2826  12.3173
    12.3291  12.3895  12.7239  12.7382  12.7499  12.7711  13.0524  13.0711
    15.0591  15.1213  15.4201  15.5023  15.9542  15.9913  16.3996  16.4513
    16.6378  16.6551  17.0255  17.0491  17.4834

          k =-0.4889 0.4844 0.1627 ( 63644 PWs)   bands (ev):

   -66.5663 -66.5663 -66.5657 -66.5657 -66.5647 -66.5647 -66.5641 -66.5641
   -30.9154 -30.9153 -30.8934 -30.8934 -30.8873 -30.8873 -30.8860 -30.8860
   -30.8743 -30.8743 -30.8736 -30.8736 -30.8656 -30.8656 -30.8646 -30.8646
   -30.8534 -30.8534 -30.8497 -30.8497 -30.8357 -30.8357 -30.8135 -30.8135
   -20.7377 -20.7377 -20.7375 -20.7375 -20.7360 -20.7360 -20.7358 -20.7358
   -20.7147 -20.7147 -20.7141 -20.7140 -20.7116 -20.7116 -20.7108 -20.7108
   -20.7077 -20.7077 -20.7073 -20.7073 -20.7065 -20.7065 -20.7063 -20.7063
   -20.7052 -20.7052 -20.7048 -20.7048 -20.7030 -20.7030 -20.7029 -20.7029
   -20.7019 -20.7019 -20.7012 -20.7012 -20.7012 -20.7011 -20.7008 -20.7008
   -20.6996 -20.6996 -20.6993 -20.6993 -20.6970 -20.6969 -20.6965 -20.6965
   -20.6962 -20.6962 -20.6943 -20.6943 -20.6938 -20.6938 -20.6926 -20.6926
    -9.7315  -9.7315  -9.6843  -9.6843  -9.0961  -9.0960  -9.0587  -9.0587
    -8.9453  -8.9452  -8.9246  -8.9246  -8.7588  -8.7588  -8.7310  -8.7310
    -8.7248  -8.7247  -8.6947  -8.6946  -8.1715  -8.1715  -8.1148  -8.1148
     1.1353   1.1353   1.1838   1.1838   2.6637   2.6637   2.7090   2.7090
     2.7564   2.7564   2.8342   2.8342   2.8403   2.8403   2.9109   2.9110
     3.0302   3.0302   3.0833   3.0834   3.1519   3.1519   3.2056   3.2056
     3.2709   3.2709   3.4758   3.4758   3.8436   3.8436   3.9214   3.9214
     3.9534   3.9535   4.0118   4.0119   4.4445   4.4445   4.4843   4.4843
     4.8212   4.8213   4.8890   4.8890   5.5059   5.5059   5.5123   5.5123
     6.3878   6.3878   6.4115   6.4115   6.4726   6.4726   6.4983   6.4984
     6.9981   6.9981   7.0499   7.0499   7.1037   7.1037   7.1303   7.1303
     7.1607   7.1608   7.2270   7.2271   7.3746   7.3747   7.4254   7.4255
    10.7817  10.7817  10.8574  10.8574  10.9542  10.9542  11.0194  11.0195
    11.6987  11.6987  11.7447  11.7447  11.8133  11.8133  11.8292  11.8292
    12.5815  12.5815  12.6588  12.6588  12.7637  12.7637  12.8280  12.8280
    15.2965  15.2965  15.3781  15.3781  16.4531  16.4532  16.5260  16.5260
    17.3037  17.3037  17.3362  17.3362  17.4099

          k =-0.4889 0.0000 0.3254 ( 63624 PWs)   bands (ev):

   -66.5662 -66.5662 -66.5659 -66.5659 -66.5645 -66.5645 -66.5642 -66.5642
   -30.9153 -30.9153 -30.9119 -30.9119 -30.8978 -30.8978 -30.8864 -30.8864
   -30.8821 -30.8821 -30.8679 -30.8679 -30.8598 -30.8598 -30.8545 -30.8545
   -30.8523 -30.8523 -30.8313 -30.8312 -30.8289 -30.8289 -30.8237 -30.8237
   -20.7377 -20.7377 -20.7375 -20.7375 -20.7360 -20.7360 -20.7358 -20.7358
   -20.7146 -20.7146 -20.7142 -20.7142 -20.7115 -20.7115 -20.7110 -20.7110
   -20.7078 -20.7078 -20.7075 -20.7075 -20.7066 -20.7066 -20.7064 -20.7064
   -20.7059 -20.7059 -20.7058 -20.7058 -20.7040 -20.7040 -20.7037 -20.7037
   -20.7017 -20.7017 -20.7005 -20.7005 -20.7000 -20.7000 -20.6995 -20.6995
   -20.6982 -20.6982 -20.6980 -20.6980 -20.6975 -20.6975 -20.6971 -20.6971
   -20.6962 -20.6961 -20.6950 -20.6950 -20.6935 -20.6935 -20.6928 -20.6928
    -9.8519  -9.8519  -9.6795  -9.6795  -9.3750  -9.3749  -9.1530  -9.1530
    -8.9417  -8.9416  -8.8622  -8.8621  -8.8481  -8.8480  -8.8006  -8.8005
    -8.4858  -8.4858  -8.4285  -8.4285  -8.0377  -8.0376  -8.0164  -8.0164
     0.9729   0.9729   0.9876   0.9876   1.8778   1.8778   1.9587   1.9587
     2.6143   2.6143   2.7850   2.7850   2.7968   2.7969   2.8804   2.8805
     2.9095   2.9096   3.1890   3.1891   3.2559   3.2560   3.3998   3.3998
     3.5141   3.5141   3.5908   3.5908   3.8472   3.8472   4.0701   4.0701
     4.3668   4.3668   4.5753   4.5753   4.6304   4.6304   4.7095   4.7095
     4.9905   4.9906   5.3273   5.3274   5.8331   5.8331   5.8775   5.8775
     6.1020   6.1020   6.1558   6.1558   6.2637   6.2637   6.3115   6.3116
     6.7519   6.7519   6.8546   6.8547   6.9311   6.9311   7.2167   7.2167
     7.2435   7.2436   7.2920   7.2920   7.3343   7.3344   7.6884   7.6884
    10.1335  10.1335  10.9106  10.9106  10.9208  10.9208  11.2146  11.2146
    11.2762  11.2762  11.7255  11.7255  12.2198  12.2198  12.2646  12.2646
    12.4880  12.4880  12.8113  12.8113  12.8295  12.8295  13.2141  13.2142
    14.6770  14.6770  15.0403  15.0403  15.9191  15.9192  16.4409  16.4409
    16.7161  16.7161  16.9646  16.9647  17.5916

          k =-0.4889-0.1615 0.3254 ( 63612 PWs)   bands (ev):

   -66.5662 -66.5662 -66.5659 -66.5659 -66.5645 -66.5645 -66.5642 -66.5642
   -30.9111 -30.9111 -30.9072 -30.9072 -30.8973 -30.8973 -30.8862 -30.8862
   -30.8820 -30.8820 -30.8680 -30.8680 -30.8598 -30.8598 -30.8548 -30.8548
   -30.8530 -30.8530 -30.8337 -30.8337 -30.8332 -30.8332 -30.8259 -30.8259
   -20.7377 -20.7377 -20.7375 -20.7375 -20.7360 -20.7360 -20.7358 -20.7358
   -20.7146 -20.7146 -20.7142 -20.7142 -20.7115 -20.7115 -20.7110 -20.7110
   -20.7077 -20.7077 -20.7075 -20.7075 -20.7066 -20.7066 -20.7063 -20.7063
   -20.7057 -20.7057 -20.7055 -20.7055 -20.7039 -20.7038 -20.7035 -20.7035
   -20.7017 -20.7017 -20.7005 -20.7005 -20.7000 -20.7000 -20.6996 -20.6995
   -20.6984 -20.6984 -20.6983 -20.6983 -20.6976 -20.6976 -20.6972 -20.6972
   -20.6962 -20.6962 -20.6950 -20.6950 -20.6936 -20.6935 -20.6929 -20.6928
    -9.7906  -9.7906  -9.6006  -9.6006  -9.3848  -9.3847  -9.1290  -9.1290
    -8.9502  -8.9501  -8.8569  -8.8568  -8.8460  -8.8459  -8.8012  -8.8011
    -8.4855  -8.4855  -8.4316  -8.4316  -8.1566  -8.1566  -8.1356  -8.1356
     1.2242   1.2242   1.2464   1.2465   1.8790   1.8790   1.9630   1.9630
     2.6917   2.6917   2.7940   2.7940   2.8198   2.8199   2.8885   2.8885
     2.9164   2.9164   3.2327   3.2328   3.3094   3.3094   3.4008   3.4009
     3.5180   3.5180   3.6530   3.6530   3.8168   3.8168   4.0743   4.0743
     4.2151   4.2151   4.4055   4.4056   4.5569   4.5570   4.6364   4.6364
     4.7149   4.7149   5.0398   5.0398   5.4881   5.4881   5.6464   5.6464
     6.2890   6.2890   6.3228   6.3228   6.4096   6.4097   6.5306   6.5306
     6.7687   6.7687   6.8531   6.8532   6.9480   6.9481   7.2139   7.2140
     7.2409   7.2409   7.2913   7.2913   7.3301   7.3302   7.6478   7.6478
    10.2524  10.2524  10.9886  10.9886  11.0061  11.0061  11.2238  11.2238
    11.2833  11.2833  11.7762  11.7762  12.2178  12.2178  12.2551  12.2551
    12.3242  12.3242  12.6730  12.6730  12.6902  12.6902  13.0767  13.0767
    15.0409  15.0410  15.4251  15.4251  15.9961  15.9962  16.4391  16.4391
    16.7319  16.7319  17.0044  17.0045  17.4829

          k =-0.4889-0.3230 0.3254 ( 63624 PWs)   bands (ev):

   -66.5662 -66.5662 -66.5659 -66.5658 -66.5646 -66.5646 -66.5642 -66.5642
   -30.9032 -30.9032 -30.8955 -30.8955 -30.8939 -30.8939 -30.8843 -30.8843
   -30.8808 -30.8808 -30.8688 -30.8687 -30.8602 -30.8602 -30.8572 -30.8572
   -30.8559 -30.8559 -30.8444 -30.8444 -30.8407 -30.8407 -30.8277 -30.8277
   -20.7377 -20.7377 -20.7375 -20.7375 -20.7360 -20.7360 -20.7358 -20.7358
   -20.7146 -20.7146 -20.7142 -20.7142 -20.7115 -20.7115 -20.7110 -20.7110
   -20.7076 -20.7076 -20.7074 -20.7074 -20.7065 -20.7065 -20.7064 -20.7063
   -20.7053 -20.7053 -20.7051 -20.7051 -20.7033 -20.7033 -20.7029 -20.7029
   -20.7017 -20.7017 -20.7006 -20.7006 -20.7002 -20.7002 -20.6999 -20.6999
   -20.6993 -20.6993 -20.6990 -20.6990 -20.6976 -20.6976 -20.6973 -20.6973
   -20.6963 -20.6962 -20.6950 -20.6950 -20.6936 -20.6936 -20.6929 -20.6929
    -9.6420  -9.6420  -9.4192  -9.4192  -9.3850  -9.3850  -9.0393  -9.0393
    -8.9885  -8.9884  -8.8520  -8.8519  -8.8224  -8.8224  -8.7987  -8.7986
    -8.5066  -8.5066  -8.4575  -8.4574  -8.4450  -8.4450  -8.3823  -8.3823
     1.7719   1.7719   1.8856   1.8856   1.9356   1.9356   2.0898   2.0898
     2.8098   2.8098   2.8261   2.8262   2.8754   2.8754   2.9078   2.9078
     3.0000   3.0000   3.3396   3.3396   3.3849   3.3849   3.4665   3.4665
     3.5273   3.5273   3.6434   3.6434   3.7933   3.7933   3.8665   3.8665
     3.9609   3.9609   4.1536   4.1536   4.2079   4.2080   4.4571   4.4571
     4.5232   4.5232   4.6329   4.6329   4.6739   4.6739   5.0427   5.0427
     6.6084   6.6084   6.6667   6.6667   6.7255   6.7255   6.7571   6.7571
     6.8111   6.8111   6.8717   6.8718   7.0195   7.0195   7.1843   7.1844
     7.2224   7.2225   7.2908   7.2909   7.2980   7.2980   7.5220   7.5220
    10.6193  10.6193  11.1437  11.1437  11.2102  11.2102  11.2956  11.2956
    11.3938  11.3938  11.8415  11.8415  11.9562  11.9562  12.1710  12.1710
    12.2540  12.2540  12.3034  12.3035  12.3585  12.3585  12.7334  12.7334
    15.8538  15.8538  16.2263  16.2264  16.3371  16.3371  16.4573  16.4573
    16.8089  16.8089  17.0950  17.0951  17.1576

          k =-0.4889 0.4844 0.3254 ( 63592 PWs)   bands (ev):

   -66.5662 -66.5662 -66.5658 -66.5658 -66.5646 -66.5646 -66.5642 -66.5642
   -30.9011 -30.9011 -30.8906 -30.8906 -30.8880 -30.8880 -30.8771 -30.8771
   -30.8751 -30.8751 -30.8730 -30.8730 -30.8668 -30.8668 -30.8606 -30.8606
   -30.8588 -30.8587 -30.8496 -30.8496 -30.8442 -30.8441 -30.8280 -30.8280
   -20.7377 -20.7377 -20.7375 -20.7375 -20.7360 -20.7360 -20.7358 -20.7358
   -20.7146 -20.7145 -20.7142 -20.7142 -20.7115 -20.7115 -20.7110 -20.7110
   -20.7076 -20.7076 -20.7074 -20.7074 -20.7065 -20.7065 -20.7064 -20.7064
   -20.7051 -20.7051 -20.7049 -20.7049 -20.7025 -20.7025 -20.7022 -20.7022
   -20.7018 -20.7018 -20.7010 -20.7010 -20.7008 -20.7008 -20.7003 -20.7002
   -20.6996 -20.6996 -20.6992 -20.6992 -20.6976 -20.6976 -20.6973 -20.6973
   -20.6963 -20.6963 -20.6951 -20.6951 -20.6936 -20.6936 -20.6929 -20.6929
    -9.5159  -9.5159  -9.4818  -9.4818  -9.1411  -9.1410  -9.1101  -9.1101
    -8.8933  -8.8932  -8.8782  -8.8782  -8.7531  -8.7531  -8.7362  -8.7361
    -8.7198  -8.7197  -8.7003  -8.7002  -8.4718  -8.4718  -8.4191  -8.4191
     1.8579   1.8579   1.9003   1.9003   2.6795   2.6795   2.7080   2.7081
     2.7842   2.7842   2.8328   2.8328   2.8509   2.8509   2.9039   2.9039
     3.0843   3.0843   3.1051   3.1052   3.3078   3.3078   3.4059   3.4059
     3.4492   3.4492   3.6054   3.6054   3.8132   3.8132   3.8640   3.8640
     3.9288   3.9288   3.9434   3.9434   4.0337   4.0337   4.0700   4.0700
     4.3258   4.3259   4.3904   4.3904   4.6845   4.6845   4.6900   4.6900
     6.7032   6.7032   6.7665   6.7666   6.7974   6.7975   6.8106   6.8106
     6.9729   6.9729   7.0575   7.0575   7.0857   7.0857   7.1197   7.1198
     7.1784   7.1784   7.2345   7.2346   7.3299   7.3300   7.3796   7.3796
    11.0811  11.0811  11.1340  11.1340  11.2529  11.2529  11.3235  11.3235
    11.6870  11.6870  11.7558  11.7558  11.8000  11.8000  11.8440  11.8440
    12.1529  12.1529  12.2798  12.2798  12.3213  12.3213  12.4091  12.4091
    16.2491  16.2491  16.3211  16.3211  16.6630  16.6631  16.7205  16.7205
    17.1701  17.1702  17.2343  17.2343  17.3950

     the Fermi energy is     8.5049 ev

!    total energy              =   -6261.09681533 Ry
     Harris-Foulkes estimate   =   -6261.09681533 Ry
     estimated scf accuracy    <          6.0E-11 Ry

     The total energy is the sum of the following terms:

     one-electron contribution =   -4813.76661989 Ry
     hartree contribution      =    2638.64897690 Ry
     xc contribution           =    -965.68017990 Ry
     ewald contribution        =   -3120.29899243 Ry
     smearing contrib. (-TS)   =      -0.00000000 Ry

     convergence has been achieved in  16 iterations

     Forces acting on atoms (cartesian axes, Ry/au):

     atom    1 type  1   force =    -0.00795052    0.01573829    0.00899807
     atom    2 type  1   force =     0.00966075   -0.01641293   -0.00832568
     atom    3 type  1   force =     0.00795052   -0.01573829    0.00899807
     atom    4 type  1   force =    -0.00966075    0.01641293   -0.00832568
     atom    5 type  1   force =     0.00795052    0.01573829   -0.00899807
     atom    6 type  1   force =    -0.00966075   -0.01641293    0.00832568
     atom    7 type  1   force =    -0.00795052   -0.01573829   -0.00899807
     atom    8 type  1   force =     0.00966075    0.01641293    0.00832568
     atom    9 type  2   force =    -0.00002231   -0.00871137   -0.00114348
     atom   10 type  2   force =    -0.00056936    0.00857088    0.00130765
     atom   11 type  2   force =     0.00002231    0.00871137   -0.00114348
     atom   12 type  2   force =     0.00056936   -0.00857088    0.00130765
     atom   13 type  2   force =     0.00002231   -0.00871137    0.00114348
     atom   14 type  2   force =     0.00056936    0.00857088   -0.00130765
     atom   15 type  2   force =    -0.00002231    0.00871137    0.00114348
     atom   16 type  2   force =    -0.00056936   -0.00857088   -0.00130765
     atom   17 type  2   force =    -0.00475358   -0.00068817    0.00015293
     atom   18 type  2   force =     0.00524096    0.00180895    0.00038317
     atom   19 type  2   force =     0.00475358    0.00068817    0.00015293
     atom   20 type  2   force =    -0.00524096   -0.00180895    0.00038317
     atom   21 type  2   force =     0.00475358   -0.00068817   -0.00015293
     atom   22 type  2   force =    -0.00524096    0.00180895   -0.00038317
     atom   23 type  2   force =    -0.00475358    0.00068817   -0.00015293
     atom   24 type  2   force =     0.00524096   -0.00180895   -0.00038317
     atom   25 type  2   force =    -0.00270763    0.00439917    0.00820927
     atom   26 type  2   force =     0.00167111   -0.00380429   -0.00719602
     atom   27 type  2   force =     0.00270763   -0.00439917    0.00820927
     atom   28 type  2   force =    -0.00167111    0.00380429   -0.00719602
     atom   29 type  2   force =     0.00270763    0.00439917   -0.00820927
     atom   30 type  2   force =    -0.00167111   -0.00380429    0.00719602
     atom   31 type  2   force =    -0.00270763   -0.00439917   -0.00820927
     atom   32 type  2   force =     0.00167111    0.00380429    0.00719602

     Total force =     0.000000     Total SCF correction =     0.000000


     Computing stress (Cartesian axis) and pressure

          total   stress  (Ry/bohr**3)                   (kbar)     P=    1.59
   0.00001513   0.00000000   0.00000000          2.23      0.00      0.00
   0.00000000   0.00000075   0.00000000          0.00      0.11      0.00
   0.00000000   0.00000000   0.00001646          0.00      0.00      2.42


     Writing output data file Landau_17.save
 
     init_run     :     89.13s CPU     91.72s WALL (       2 calls)
     electrons    :  13783.59s CPU  14030.04s WALL (       7 calls)
     update_pot   :    144.00s CPU    144.21s WALL (       5 calls)
     forces       :    229.13s CPU    231.76s WALL (       7 calls)
     stress       :   1697.85s CPU   1713.88s WALL (       7 calls)

     Called by init_run:
     wfcinit      :     64.59s CPU     66.96s WALL (       2 calls)
     potinit      :     10.60s CPU     10.65s WALL (       2 calls)

     Called by electrons:
     c_bands      :  12227.99s CPU  12460.62s WALL (     104 calls)
     sum_band     :   1482.85s CPU   1490.64s WALL (     104 calls)
     v_of_rho     :     12.88s CPU     13.07s WALL (     109 calls)
     mix_rho      :     20.05s CPU     24.40s WALL (     104 calls)

     Called by c_bands:
     init_us_2    :     87.08s CPU     92.05s WALL (     448 calls)
     cegterg      :   8894.17s CPU   9115.95s WALL (     208 calls)

     Called by sum_band:

     Called by *egterg:
     h_psi        :   6615.53s CPU   6638.16s WALL (     886 calls)
     g_psi        :     31.72s CPU     31.82s WALL (     674 calls)
     cdiaghg      :    115.25s CPU    115.40s WALL (     868 calls)

     Called by h_psi:
     h_psi:pot    :   6574.76s CPU   6596.76s WALL (     886 calls)
     h_psi:calbec :    847.20s CPU    862.75s WALL (     886 calls)
     vloc_psi     :   4832.79s CPU   4837.05s WALL (     886 calls)
     add_vuspsi   :    894.76s CPU    896.95s WALL (     886 calls)

     General routines
     calbec       :    960.01s CPU    975.76s WALL (     956 calls)
     fft          :      8.74s CPU      8.75s WALL (     494 calls)
     fftw         :   4998.27s CPU   5000.69s WALL (  271302 calls)
 
     Parallel routines
 
     PWSCF        :     4h26m CPU        4h30m WALL

 
   This run was terminated on:   6:25:35  24Mar2020            

=------------------------------------------------------------------------------=
   JOB DONE.
=------------------------------------------------------------------------------=
