
     Program PWSCF v.6.2 (svn rev. 14038) starts on 25Mar2020 at 19:58:31 

     This program is part of the open-source Quantum ESPRESSO suite
     for quantum simulation of materials; please cite
         "P. Giannozzi et al., J. Phys.:Condens. Matter 21 395502 (2009);
         "P. Giannozzi et al., J. Phys.:Condens. Matter 29 465901 (2017);
          URL http://www.quantum-espresso.org", 
     in publications or presentations arising from this work. More details at
     http://www.quantum-espresso.org/quote

     Parallel version (MPI), running on    40 processors

     MPI processes distributed on     7 nodes
     K-points division:     npool     =      40
     Reading input from scf.in

     Current dimensions of program PWSCF are:
     Max number of different atomic species (ntypx) = 10
     Max number of k-points (npk) =  40000
     Max angular momentum in pseudopotentials (lmaxx) =  3

     Subspace diagonalization in iterative solution of the eigenvalue problem:
     a serial algorithm will be used

 
     G-vector sticks info
     --------------------
     sticks:   dense  smooth     PW     G-vecs:    dense   smooth      PW
     Sum        7611    7611   2045               499165   499165   69247
 


     bravais-lattice index     =            0
     lattice parameter (alat)  =      14.0408  a.u.
     unit-cell volume          =    2811.1454 (a.u.)^3
     number of atoms/cell      =           32
     number of atomic types    =            2
     number of electrons       =       368.60
     number of Kohn-Sham states=          221
     kinetic-energy cutoff     =     120.0000  Ry
     charge density cutoff     =     480.0000  Ry
     convergence threshold     =      1.0E-08
     mixing beta               =       0.7000
     number of iterations used =            8  plain     mixing
     Exchange-correlation      = SLA PW NOGX NOGC ( 1  4  0  0 0 0)

     celldm(1)=  14.040793  celldm(2)=   0.000000  celldm(3)=   0.000000
     celldm(4)=   0.000000  celldm(5)=   0.000000  celldm(6)=   0.000000

     crystal axes: (cart. coord. in units of alat)
               a(1) = (   1.000000   0.000000   0.000000 )  
               a(2) = (   0.000000   1.012000   0.000000 )  
               a(3) = (   0.000000   0.000000   1.003524 )  

     reciprocal axes: (cart. coord. in units 2 pi/alat)
               b(1) = (  1.000000  0.000000  0.000000 )  
               b(2) = (  0.000000  0.988142  0.000000 )  
               b(3) = (  0.000000  0.000000  0.996488 )  


     PseudoPot. # 1 for W  read from file:
     /cluster/scratch/mnoe/QE/pps/W_ONCV_LDA-4.0.upf
     MD5 check sum: ba0307d5d4cd419d6f1d13dc49d7c13a
     Pseudo is Norm-conserving + core correction, Zval = 28.0
     Generated using ONCVPSP code by D. R. Hamann
     Using radial grid of 1380 points,  8 beta functions with: 
                l(1) =   0
                l(2) =   0
                l(3) =   1
                l(4) =   1
                l(5) =   2
                l(6) =   2
                l(7) =   3
                l(8) =   3

     PseudoPot. # 2 for O  read from file:
     /cluster/scratch/mnoe/QE/pps/O_ONCV_LDA-3.0.upf
     MD5 check sum: a1bd6164e7280c17a38c229939bfbd54
     Pseudo is Norm-conserving + core correction, Zval =  6.0
     Generated using ONCVPSP code by D. R. Hamann
     Using radial grid of  926 points,  5 beta functions with: 
                l(1) =   0
                l(2) =   0
                l(3) =   1
                l(4) =   1
                l(5) =   2

     atomic species   valence    mass     pseudopotential
        W             28.00   183.84000     W ( 1.00)
        O              6.00    15.99940     O ( 1.00)

      4 Sym. Ops. (no inversion) found ( 3 have fractional translation)



   Cartesian axes

     site n.     atom                  positions (alat units)
         1           W   tau(   1) = (   0.2241886   0.2780975   0.0060427  )
         2           W   tau(   2) = (   0.7574886   0.7339027  -0.0255141  )
         3           W   tau(   3) = (   0.2758114   0.2279026   0.5078047  )
         4           W   tau(   4) = (   0.7425113   0.7840976   0.4762479  )
         5           W   tau(   5) = (   0.7758113   0.2780975   0.4957193  )
         6           W   tau(   6) = (   0.2425114   0.7339027   0.5272761  )
         7           W   tau(   7) = (   0.7241886   0.2279026  -0.0060427  )
         8           W   tau(   8) = (   0.2574886   0.7840976   0.0255141  )
         9           O   tau(   9) = (   0.2164355   0.0064734  -0.0130568  )
        10           O   tau(  10) = (   0.7778694  -0.0064734  -0.0228652  )
        11           O   tau(  11) = (   0.2835645   0.4995267   0.4887052  )
        12           O   tau(  12) = (   0.7221305   0.5124735   0.4788967  )
        13           O   tau(  13) = (   0.7835645   0.0064734   0.5148188  )
        14           O   tau(  14) = (   0.2221305  -0.0064734   0.5246273  )
        15           O   tau(  15) = (   0.7164355   0.4995267   0.0130568  )
        16           O   tau(  16) = (   0.2778695   0.5124735   0.0228652  )
        17           O   tau(  17) = (   0.5085762   0.2170584   0.4684485  )
        18           O   tau(  18) = (   0.4994682   0.7868327   0.5350756  )
        19           O   tau(  19) = (  -0.0085762   0.2889417   0.9702105  )
        20           O   tau(  20) = (   0.0005318   0.7311676   0.0333135  )
        21           O   tau(  21) = (   0.4914238   0.2170584   0.0333135  )
        22           O   tau(  22) = (   0.5005318   0.7868327   0.9702105  )
        23           O   tau(  23) = (   0.0085761   0.2889417   0.5350756  )
        24           O   tau(  24) = (  -0.0005319   0.7311676   0.4684485  )
        25           O   tau(  25) = (   0.7168034   0.2646213   0.7483785  )
        26           O   tau(  26) = (   0.2831965   0.7845385   0.2604712  )
        27           O   tau(  27) = (   0.7831966   0.2413788   0.2466166  )
        28           O   tau(  28) = (   0.2168035   0.7334619   0.7622332  )
        29           O   tau(  29) = (   0.2831965   0.2646213   0.7569075  )
        30           O   tau(  30) = (   0.7168034   0.7845385   0.2412909  )
        31           O   tau(  31) = (   0.2168035   0.2413788   0.2551455  )
        32           O   tau(  32) = (   0.7831966   0.7334619   0.7430528  )

     number of k points=    64  gaussian smearing, width (Ry)=  0.0007
                       cart. coord. in units 2pi/alat
        k(    1) = (   0.0000000   0.0000000   0.0000000), wk =   0.0092593
        k(    2) = (   0.0000000   0.0000000   0.1660814), wk =   0.0185185
        k(    3) = (   0.0000000   0.0000000   0.3321628), wk =   0.0185185
        k(    4) = (   0.0000000   0.0000000  -0.4982442), wk =   0.0092593
        k(    5) = (   0.0000000   0.1646904   0.0000000), wk =   0.0185185
        k(    6) = (   0.0000000   0.1646904   0.1660814), wk =   0.0370370
        k(    7) = (   0.0000000   0.1646904   0.3321628), wk =   0.0370370
        k(    8) = (   0.0000000   0.1646904  -0.4982442), wk =   0.0185185
        k(    9) = (   0.0000000   0.3293807   0.0000000), wk =   0.0185185
        k(   10) = (   0.0000000   0.3293807   0.1660814), wk =   0.0370370
        k(   11) = (   0.0000000   0.3293807   0.3321628), wk =   0.0370370
        k(   12) = (   0.0000000   0.3293807  -0.4982442), wk =   0.0185185
        k(   13) = (   0.0000000  -0.4940711   0.0000000), wk =   0.0092593
        k(   14) = (   0.0000000  -0.4940711   0.1660814), wk =   0.0185185
        k(   15) = (   0.0000000  -0.4940711   0.3321628), wk =   0.0185185
        k(   16) = (   0.0000000  -0.4940711  -0.4982442), wk =   0.0092593
        k(   17) = (   0.1666667   0.0000000   0.0000000), wk =   0.0185185
        k(   18) = (   0.1666667   0.0000000   0.1660814), wk =   0.0370370
        k(   19) = (   0.1666667   0.0000000   0.3321628), wk =   0.0370370
        k(   20) = (   0.1666667   0.0000000  -0.4982442), wk =   0.0185185
        k(   21) = (   0.1666667   0.1646904   0.0000000), wk =   0.0370370
        k(   22) = (   0.1666667   0.1646904   0.1660814), wk =   0.0740741
        k(   23) = (   0.1666667   0.1646904   0.3321628), wk =   0.0740741
        k(   24) = (   0.1666667   0.1646904  -0.4982442), wk =   0.0370370
        k(   25) = (   0.1666667   0.3293807   0.0000000), wk =   0.0370370
        k(   26) = (   0.1666667   0.3293807   0.1660814), wk =   0.0740741
        k(   27) = (   0.1666667   0.3293807   0.3321628), wk =   0.0740741
        k(   28) = (   0.1666667   0.3293807  -0.4982442), wk =   0.0370370
        k(   29) = (   0.1666667  -0.4940711   0.0000000), wk =   0.0185185
        k(   30) = (   0.1666667  -0.4940711   0.1660814), wk =   0.0370370
        k(   31) = (   0.1666667  -0.4940711   0.3321628), wk =   0.0370370
        k(   32) = (   0.1666667  -0.4940711  -0.4982442), wk =   0.0185185
        k(   33) = (   0.3333333   0.0000000   0.0000000), wk =   0.0185185
        k(   34) = (   0.3333333   0.0000000   0.1660814), wk =   0.0370370
        k(   35) = (   0.3333333   0.0000000   0.3321628), wk =   0.0370370
        k(   36) = (   0.3333333   0.0000000  -0.4982442), wk =   0.0185185
        k(   37) = (   0.3333333   0.1646904   0.0000000), wk =   0.0370370
        k(   38) = (   0.3333333   0.1646904   0.1660814), wk =   0.0740741
        k(   39) = (   0.3333333   0.1646904   0.3321628), wk =   0.0740741
        k(   40) = (   0.3333333   0.1646904  -0.4982442), wk =   0.0370370
        k(   41) = (   0.3333333   0.3293807   0.0000000), wk =   0.0370370
        k(   42) = (   0.3333333   0.3293807   0.1660814), wk =   0.0740741
        k(   43) = (   0.3333333   0.3293807   0.3321628), wk =   0.0740741
        k(   44) = (   0.3333333   0.3293807  -0.4982442), wk =   0.0370370
        k(   45) = (   0.3333333  -0.4940711   0.0000000), wk =   0.0185185
        k(   46) = (   0.3333333  -0.4940711   0.1660814), wk =   0.0370370
        k(   47) = (   0.3333333  -0.4940711   0.3321628), wk =   0.0370370
        k(   48) = (   0.3333333  -0.4940711  -0.4982442), wk =   0.0185185
        k(   49) = (  -0.5000000   0.0000000   0.0000000), wk =   0.0092593
        k(   50) = (  -0.5000000   0.0000000   0.1660814), wk =   0.0185185
        k(   51) = (  -0.5000000   0.0000000   0.3321628), wk =   0.0185185
        k(   52) = (  -0.5000000   0.0000000  -0.4982442), wk =   0.0092593
        k(   53) = (  -0.5000000   0.1646904   0.0000000), wk =   0.0185185
        k(   54) = (  -0.5000000   0.1646904   0.1660814), wk =   0.0370370
        k(   55) = (  -0.5000000   0.1646904   0.3321628), wk =   0.0370370
        k(   56) = (  -0.5000000   0.1646904  -0.4982442), wk =   0.0185185
        k(   57) = (  -0.5000000   0.3293807   0.0000000), wk =   0.0185185
        k(   58) = (  -0.5000000   0.3293807   0.1660814), wk =   0.0370370
        k(   59) = (  -0.5000000   0.3293807   0.3321628), wk =   0.0370370
        k(   60) = (  -0.5000000   0.3293807  -0.4982442), wk =   0.0185185
        k(   61) = (  -0.5000000  -0.4940711   0.0000000), wk =   0.0092593
        k(   62) = (  -0.5000000  -0.4940711   0.1660814), wk =   0.0185185
        k(   63) = (  -0.5000000  -0.4940711   0.3321628), wk =   0.0185185
        k(   64) = (  -0.5000000  -0.4940711  -0.4982442), wk =   0.0092593

     Dense  grid:   499165 G-vectors     FFT dimensions: ( 100, 100, 100)

     Estimated max dynamical RAM per process >       3.13 GB

     Estimated total dynamical RAM >     125.14 GB

     Initial potential from superposition of free atoms

     starting charge  367.99656, renormalised to  368.60000
     Starting wfc are  232 randomized atomic wfcs

     total cpu time spent up to now is       43.9 secs

     Self-consistent Calculation

     iteration #  1     ecut=   120.00 Ry     beta= 0.70
     Davidson diagonalization with overlap
     ethr =  1.00E-02,  avg # of iterations =  5.2

     total cpu time spent up to now is      194.1 secs

     total energy              =   -6253.43848808 Ry
     Harris-Foulkes estimate   =   -6264.23773620 Ry
     estimated scf accuracy    <      13.60682123 Ry

     iteration #  2     ecut=   120.00 Ry     beta= 0.70
     Davidson diagonalization with overlap
     ethr =  3.69E-03,  avg # of iterations =  3.7

     total cpu time spent up to now is      342.9 secs

     total energy              =   -6250.35169520 Ry
     Harris-Foulkes estimate   =   -6270.21408784 Ry
     estimated scf accuracy    <      52.85984172 Ry

     iteration #  3     ecut=   120.00 Ry     beta= 0.70
     Davidson diagonalization with overlap
     ethr =  3.69E-03,  avg # of iterations =  3.5

     total cpu time spent up to now is      480.6 secs

     total energy              =   -6260.65260001 Ry
     Harris-Foulkes estimate   =   -6260.91787451 Ry
     estimated scf accuracy    <       0.88646508 Ry

     iteration #  4     ecut=   120.00 Ry     beta= 0.70
     Davidson diagonalization with overlap
     ethr =  2.40E-04,  avg # of iterations =  2.8

     total cpu time spent up to now is      591.2 secs

     total energy              =   -6260.64289475 Ry
     Harris-Foulkes estimate   =   -6260.71552556 Ry
     estimated scf accuracy    <       0.23924424 Ry

     iteration #  5     ecut=   120.00 Ry     beta= 0.70
     Davidson diagonalization with overlap
     ethr =  6.49E-05,  avg # of iterations =  5.8

     total cpu time spent up to now is      714.7 secs

     total energy              =   -6260.63545957 Ry
     Harris-Foulkes estimate   =   -6260.69222276 Ry
     estimated scf accuracy    <       0.15852029 Ry

     iteration #  6     ecut=   120.00 Ry     beta= 0.70
     Davidson diagonalization with overlap
     ethr =  4.30E-05,  avg # of iterations =  5.0

     total cpu time spent up to now is      837.4 secs

     total energy              =   -6260.65960056 Ry
     Harris-Foulkes estimate   =   -6260.66532919 Ry
     estimated scf accuracy    <       0.01922601 Ry

     iteration #  7     ecut=   120.00 Ry     beta= 0.70
     Davidson diagonalization with overlap
     ethr =  5.22E-06,  avg # of iterations =  3.2

     total cpu time spent up to now is      966.9 secs

     total energy              =   -6260.66081707 Ry
     Harris-Foulkes estimate   =   -6260.66250534 Ry
     estimated scf accuracy    <       0.00524581 Ry

     iteration #  8     ecut=   120.00 Ry     beta= 0.70
     Davidson diagonalization with overlap
     ethr =  1.42E-06,  avg # of iterations =  5.4

     total cpu time spent up to now is     1084.1 secs

     total energy              =   -6260.66120747 Ry
     Harris-Foulkes estimate   =   -6260.66141324 Ry
     estimated scf accuracy    <       0.00053768 Ry

     iteration #  9     ecut=   120.00 Ry     beta= 0.70
     Davidson diagonalization with overlap
     ethr =  1.46E-07,  avg # of iterations =  2.9

     total cpu time spent up to now is     1203.0 secs

     total energy              =   -6260.66128955 Ry
     Harris-Foulkes estimate   =   -6260.66131771 Ry
     estimated scf accuracy    <       0.00005606 Ry

     iteration # 10     ecut=   120.00 Ry     beta= 0.70
     Davidson diagonalization with overlap
     ethr =  1.52E-08,  avg # of iterations =  3.0

     total cpu time spent up to now is     1327.4 secs

     total energy              =   -6260.66129874 Ry
     Harris-Foulkes estimate   =   -6260.66131449 Ry
     estimated scf accuracy    <       0.00003899 Ry

     iteration # 11     ecut=   120.00 Ry     beta= 0.70
     Davidson diagonalization with overlap
     ethr =  1.06E-08,  avg # of iterations =  2.3

     total cpu time spent up to now is     1436.3 secs

     total energy              =   -6260.66130454 Ry
     Harris-Foulkes estimate   =   -6260.66130552 Ry
     estimated scf accuracy    <       0.00000229 Ry

     iteration # 12     ecut=   120.00 Ry     beta= 0.70
     Davidson diagonalization with overlap
     ethr =  6.22E-10,  avg # of iterations =  2.9

     total cpu time spent up to now is     1561.2 secs

     total energy              =   -6260.66130509 Ry
     Harris-Foulkes estimate   =   -6260.66130525 Ry
     estimated scf accuracy    <       0.00000051 Ry

     iteration # 13     ecut=   120.00 Ry     beta= 0.70
     Davidson diagonalization with overlap
     ethr =  1.38E-10,  avg # of iterations =  2.0

     total cpu time spent up to now is     1677.7 secs

     total energy              =   -6260.66130516 Ry
     Harris-Foulkes estimate   =   -6260.66130518 Ry
     estimated scf accuracy    <       0.00000008 Ry

     iteration # 14     ecut=   120.00 Ry     beta= 0.70
     Davidson diagonalization with overlap
     ethr =  2.04E-11,  avg # of iterations =  2.0

     total cpu time spent up to now is     1783.7 secs

     End of self-consistent calculation

          k = 0.0000 0.0000 0.0000 ( 62429 PWs)   bands (ev):

   -66.0715 -66.0707 -66.0707 -66.0699 -66.0659 -66.0652 -66.0650 -66.0643
   -30.5275 -30.5229 -30.5179 -30.5142 -30.4616 -30.4601 -30.4538 -30.4399
   -30.4341 -30.4187 -30.4186 -30.4049 -30.3832 -30.3768 -30.3724 -30.3685
   -30.3563 -30.3539 -30.3517 -30.3494 -30.2953 -30.2916 -30.2896 -30.2840
   -20.2202 -20.2201 -20.2192 -20.2191 -20.2141 -20.2139 -20.2138 -20.2136
   -20.2048 -20.2047 -20.2028 -20.2025 -20.2023 -20.2019 -20.2010 -20.2009
   -20.2009 -20.2007 -20.2003 -20.2001 -20.1974 -20.1967 -20.1966 -20.1963
   -20.1955 -20.1950 -20.1922 -20.1921 -20.1918 -20.1911 -20.1901 -20.1896
   -20.1888 -20.1886 -20.1878 -20.1878 -20.1870 -20.1867 -20.1867 -20.1861
   -20.1860 -20.1840 -20.1840 -20.1827 -20.1762 -20.1760 -20.1748 -20.1748
   -20.1735 -20.1735 -20.1731 -20.1722 -20.1715 -20.1710 -20.1708 -20.1701
    -9.9443  -9.6060  -9.5692  -9.5665  -9.1956  -9.1808  -9.1534  -8.9871
    -8.9146  -8.8572  -8.8567  -8.8382  -7.9454  -7.8920  -7.8348  -7.8346
    -7.7560  -7.7064  -7.6955  -7.6586  -7.6562  -7.6459  -7.5850  -7.5723
     1.2319   1.2810   1.2842   1.3193   1.3901   1.4314   1.4656   1.4762
     1.6041   1.6455   1.6559   1.8656   2.4557   2.4892   2.5864   2.6118
     2.6404   2.6991   4.2549   4.3093   4.4886   4.5284   4.5915   4.6094
     4.6273   4.6975   4.7027   4.7797   4.9415   4.9914   5.2854   5.3760
     5.4307   5.4405   5.4839   5.6092   5.6351   5.6442   5.6941   5.7171
     5.7377   5.7723   5.8794   5.9403   5.9474   5.9848   6.0118   6.0874
     6.1639   6.3516   6.3539   6.3946   6.5530   6.5752   6.8580   6.8842
     6.9264   6.9766   6.9879   7.0225   7.0538   7.0688   7.0807   7.1012
     7.2683   7.3074   7.9366   7.9635   8.0006   8.0188   8.1149   8.1718
     9.6944   9.7615   9.8824   9.9125   9.9248   9.9828  12.2828  12.3795
    12.3840  12.4893  12.5032  12.6798  12.7120  12.8475  12.8492  12.8798
    13.0815  13.1065  13.2328  13.4813  13.5826  13.7166  13.8689  14.0770
    14.7314  14.7738  14.7787  14.9368  15.1006  15.2454  15.8389  15.8659
    15.9398  16.8445  16.9437  17.0418  17.3030

          k = 0.0000 0.0000 0.1661 ( 62417 PWs)   bands (ev):

   -66.0714 -66.0708 -66.0707 -66.0700 -66.0658 -66.0652 -66.0650 -66.0644
   -30.5230 -30.5177 -30.5167 -30.5146 -30.4636 -30.4628 -30.4532 -30.4392
   -30.4367 -30.4214 -30.4179 -30.4066 -30.3827 -30.3773 -30.3683 -30.3655
   -30.3550 -30.3544 -30.3523 -30.3472 -30.2950 -30.2950 -30.2921 -30.2889
   -20.2201 -20.2200 -20.2193 -20.2192 -20.2141 -20.2139 -20.2138 -20.2137
   -20.2046 -20.2045 -20.2029 -20.2025 -20.2025 -20.2020 -20.2010 -20.2009
   -20.2008 -20.2007 -20.2004 -20.2001 -20.1973 -20.1966 -20.1965 -20.1964
   -20.1956 -20.1951 -20.1922 -20.1920 -20.1918 -20.1911 -20.1900 -20.1895
   -20.1887 -20.1884 -20.1880 -20.1879 -20.1871 -20.1868 -20.1867 -20.1860
   -20.1860 -20.1842 -20.1839 -20.1828 -20.1760 -20.1759 -20.1748 -20.1746
   -20.1734 -20.1733 -20.1733 -20.1723 -20.1715 -20.1715 -20.1706 -20.1704
    -9.9025  -9.5828  -9.5549  -9.5080  -9.1920  -9.1623  -9.1267  -8.9683
    -8.8838  -8.8607  -8.8151  -8.8045  -8.0345  -7.9502  -7.9105  -7.8396
    -7.7674  -7.7551  -7.7103  -7.7044  -7.6819  -7.6595  -7.6511  -7.5898
     1.2876   1.3152   1.4090   1.4315   1.4461   1.4650   1.4748   1.5985
     1.6551   1.7853   1.8064   1.9865   2.4965   2.5559   2.6326   2.6608
     2.6865   2.7809   4.1478   4.2551   4.3082   4.3795   4.3973   4.5207
     4.5947   4.6647   4.6889   4.7117   4.8136   4.9553   5.1611   5.2900
     5.3697   5.4312   5.4830   5.5079   5.5711   5.6302   5.6502   5.6751
     5.7636   5.7939   5.8395   5.8629   5.9496   6.0010   6.0259   6.1246
     6.1648   6.3321   6.4321   6.5163   6.6344   6.7262   6.7543   6.8124
     6.8483   6.8697   6.9065   6.9759   7.0514   7.0585   7.0777   7.0983
     7.1199   7.2072   7.9214   7.9600   7.9811   7.9957   8.0652   8.1362
     9.8320   9.8816  10.0114  10.0552  10.1684  10.2433  12.2977  12.3097
    12.3946  12.4376  12.5454  12.5996  12.7114  12.7418  12.8711  12.9201
    12.9927  13.1048  13.2695  13.5068  13.5852  13.7087  13.8504  13.9687
    14.7666  14.8500  14.8978  14.9328  15.1823  15.3314  15.8293  15.9123
    16.1401  16.7709  17.0058  17.1129  17.3885

          k = 0.0000 0.0000 0.3322 ( 62397 PWs)   bands (ev):

   -66.0713 -66.0709 -66.0705 -66.0701 -66.0657 -66.0653 -66.0648 -66.0645
   -30.5183 -30.5154 -30.5066 -30.5037 -30.4726 -30.4709 -30.4515 -30.4430
   -30.4372 -30.4277 -30.4159 -30.4099 -30.3817 -30.3786 -30.3610 -30.3600
   -30.3557 -30.3540 -30.3469 -30.3383 -30.3095 -30.3034 -30.2943 -30.2923
   -20.2199 -20.2198 -20.2194 -20.2194 -20.2141 -20.2140 -20.2138 -20.2137
   -20.2042 -20.2040 -20.2032 -20.2029 -20.2024 -20.2022 -20.2009 -20.2008
   -20.2007 -20.2006 -20.2004 -20.2002 -20.1969 -20.1966 -20.1964 -20.1962
   -20.1960 -20.1954 -20.1922 -20.1919 -20.1919 -20.1914 -20.1896 -20.1891
   -20.1884 -20.1883 -20.1883 -20.1880 -20.1874 -20.1870 -20.1865 -20.1861
   -20.1856 -20.1846 -20.1838 -20.1831 -20.1757 -20.1753 -20.1751 -20.1741
   -20.1737 -20.1731 -20.1729 -20.1725 -20.1724 -20.1712 -20.1712 -20.1707
    -9.8032  -9.6253  -9.4298  -9.3732  -9.2291  -9.1923  -8.9352  -8.9229
    -8.8723  -8.8000  -8.6606  -8.6569  -8.3096  -8.2521  -8.0531  -8.0175
    -7.8760  -7.8525  -7.7483  -7.7209  -7.6915  -7.6686  -7.6388  -7.6029
     1.2961   1.3070   1.4605   1.4641   1.4645   1.4723   1.6178   1.6539
     2.2494   2.3840   2.4483   2.5346   2.5518   2.6245   2.7885   2.8849
     2.9210   3.0103   3.7042   3.8073   3.9044   3.9603   4.0525   4.3460
     4.4619   4.5133   4.5888   4.6125   4.6895   4.7635   4.9284   4.9452
     5.0965   5.2304   5.2882   5.2908   5.4349   5.4630   5.6852   5.7397
     5.7630   5.7959   5.8668   5.9564   6.0176   6.0421   6.0895   6.1731
     6.1748   6.2584   6.3866   6.4110   6.5512   6.6429   6.6450   6.6931
     6.7912   6.9663   7.0163   7.0381   7.0572   7.0677   7.1282   7.1836
     7.2235   7.3057   7.8066   7.8247   7.8841   7.9253   8.0053   8.0546
     9.8651   9.8781  10.5928  10.6804  10.7521  10.8861  11.9354  12.0385
    12.1489  12.3055  12.3799  12.4940  12.7190  12.7634  12.8522  12.9816
    13.0491  13.1945  13.2430  13.3796  13.5734  13.5979  13.6828  13.7649
    14.8540  14.9207  15.0829  15.2296  15.5345  15.7087  15.7577  15.8110
    16.2651  16.9867  17.3103  17.5299  17.6504

          k = 0.0000 0.0000-0.4982 ( 62362 PWs)   bands (ev):

   -66.0711 -66.0711 -66.0703 -66.0703 -66.0655 -66.0655 -66.0647 -66.0646
   -30.5167 -30.5167 -30.4887 -30.4887 -30.4858 -30.4858 -30.4484 -30.4484
   -30.4335 -30.4335 -30.4132 -30.4132 -30.3802 -30.3802 -30.3575 -30.3575
   -30.3565 -30.3565 -30.3290 -30.3289 -30.3218 -30.3218 -30.2933 -30.2933
   -20.2197 -20.2197 -20.2196 -20.2196 -20.2140 -20.2140 -20.2138 -20.2137
   -20.2036 -20.2036 -20.2034 -20.2034 -20.2024 -20.2023 -20.2009 -20.2009
   -20.2006 -20.2006 -20.2004 -20.2004 -20.1965 -20.1965 -20.1964 -20.1964
   -20.1958 -20.1958 -20.1921 -20.1920 -20.1916 -20.1916 -20.1891 -20.1891
   -20.1887 -20.1887 -20.1879 -20.1879 -20.1874 -20.1874 -20.1863 -20.1863
   -20.1852 -20.1852 -20.1835 -20.1835 -20.1754 -20.1754 -20.1745 -20.1745
   -20.1733 -20.1733 -20.1728 -20.1728 -20.1721 -20.1721 -20.1709 -20.1709
    -9.7000  -9.7000  -9.3052  -9.3052  -9.2562  -9.2561  -8.8914  -8.8914
    -8.6408  -8.6408  -8.5893  -8.5893  -8.3853  -8.3853  -8.3690  -8.3690
    -7.8692  -7.8692  -7.7350  -7.7350  -7.6806  -7.6806  -7.6209  -7.6209
     1.3004   1.3004   1.4646   1.4647   1.4701   1.4701   1.6492   1.6492
     2.5666   2.5666   3.0518   3.0518   3.1153   3.1153   3.1898   3.1898
     3.2428   3.2428   3.2880   3.2880   3.5286   3.5286   3.6873   3.6873
     3.8258   3.8258   4.5444   4.5444   4.6480   4.6480   5.0667   5.0667
     5.1336   5.1336   5.2207   5.2207   5.3326   5.3326   5.7393   5.7393
     5.8504   5.8504   5.9200   5.9200   5.9903   5.9903   6.1433   6.1434
     6.2398   6.2399   6.2762   6.2762   6.5370   6.5371   6.5775   6.5775
     6.8631   6.8631   7.0295   7.0295   7.0531   7.0531   7.5137   7.5137
     7.5681   7.5681   7.5967   7.5967   7.6698   7.6698   8.0212   8.0212
     9.8725   9.8725  11.3007  11.3007  11.4139  11.4139  11.4732  11.4732
    11.6432  11.6432  12.4538  12.4538  12.7957  12.7957  13.0019  13.0019
    13.1740  13.1740  13.2888  13.2888  13.3962  13.3962  13.6430  13.6430
    14.8981  14.8981  15.4476  15.4476  15.5752  15.5752  15.8508  15.8508
    16.5863  16.5863  17.8771  17.8771  17.9961

          k = 0.0000 0.1647 0.0000 ( 62397 PWs)   bands (ev):

   -66.0715 -66.0707 -66.0707 -66.0699 -66.0659 -66.0652 -66.0650 -66.0643
   -30.5272 -30.5227 -30.5179 -30.5140 -30.4585 -30.4579 -30.4510 -30.4352
   -30.4345 -30.4169 -30.4161 -30.4030 -30.3840 -30.3772 -30.3729 -30.3709
   -30.3603 -30.3584 -30.3563 -30.3518 -30.2953 -30.2916 -30.2896 -30.2841
   -20.2202 -20.2201 -20.2192 -20.2191 -20.2141 -20.2139 -20.2138 -20.2136
   -20.2048 -20.2047 -20.2028 -20.2025 -20.2023 -20.2020 -20.2010 -20.2009
   -20.2008 -20.2006 -20.2003 -20.2001 -20.1973 -20.1966 -20.1966 -20.1963
   -20.1953 -20.1948 -20.1922 -20.1921 -20.1918 -20.1911 -20.1900 -20.1897
   -20.1888 -20.1886 -20.1880 -20.1877 -20.1870 -20.1870 -20.1868 -20.1863
   -20.1862 -20.1841 -20.1840 -20.1827 -20.1762 -20.1760 -20.1748 -20.1748
   -20.1735 -20.1735 -20.1731 -20.1722 -20.1715 -20.1710 -20.1708 -20.1701
    -9.9082  -9.6189  -9.5307  -9.5286  -9.1882  -9.1771  -9.0712  -8.9582
    -8.9130  -8.8258  -8.8245  -8.8206  -7.9717  -7.8932  -7.8740  -7.8624
    -7.8371  -7.7820  -7.7799  -7.7773  -7.6590  -7.6474  -7.5860  -7.5735
     1.2389   1.2881   1.2932   1.3484   1.4743   1.5048   1.5089   1.6466
     1.7006   1.7875   1.8292   1.9945   2.4746   2.5568   2.5866   2.6972
     2.7213   2.7853   4.1012   4.1806   4.1875   4.2976   4.5046   4.5711
     4.6044   4.6869   4.6999   4.8477   4.8896   4.9046   5.1764   5.3179
     5.3564   5.4489   5.5229   5.5490   5.5767   5.6038   5.6549   5.6857
     5.6862   5.7022   5.7906   5.9448   5.9990   6.0189   6.0662   6.0984
     6.1379   6.3528   6.4447   6.4858   6.5138   6.6235   6.8289   6.8384
     6.9069   6.9326   6.9490   6.9674   7.0300   7.0308   7.0425   7.0505
     7.2652   7.3070   7.9102   7.9521   7.9986   8.0199   8.0818   8.1074
     9.7270   9.7782  10.0902  10.1146  10.1429  10.1568  12.2345  12.3952
    12.4018  12.4209  12.4889  12.4980  12.6918  12.7661  12.8328  12.8530
    13.0525  13.0731  13.2078  13.5039  13.5919  13.7751  13.8122  14.0009
    14.7772  14.9034  14.9787  15.0274  15.0931  15.2383  15.8320  15.9219
    16.2437  16.5996  17.1059  17.2046  17.3714

          k = 0.0000 0.1647 0.1661 ( 62420 PWs)   bands (ev):

   -66.0714 -66.0707 -66.0707 -66.0700 -66.0658 -66.0652 -66.0650 -66.0644
   -30.5225 -30.5175 -30.5169 -30.5143 -30.4613 -30.4606 -30.4505 -30.4370
   -30.4344 -30.4186 -30.4161 -30.4045 -30.3835 -30.3778 -30.3697 -30.3682
   -30.3589 -30.3583 -30.3569 -30.3490 -30.2952 -30.2949 -30.2921 -30.2891
   -20.2201 -20.2200 -20.2193 -20.2192 -20.2141 -20.2139 -20.2138 -20.2137
   -20.2046 -20.2045 -20.2028 -20.2025 -20.2024 -20.2021 -20.2010 -20.2008
   -20.2008 -20.2007 -20.2004 -20.2001 -20.1972 -20.1966 -20.1965 -20.1962
   -20.1954 -20.1949 -20.1923 -20.1920 -20.1918 -20.1911 -20.1899 -20.1896
   -20.1887 -20.1884 -20.1881 -20.1879 -20.1871 -20.1869 -20.1868 -20.1863
   -20.1861 -20.1843 -20.1840 -20.1829 -20.1760 -20.1759 -20.1748 -20.1746
   -20.1734 -20.1733 -20.1733 -20.1723 -20.1715 -20.1715 -20.1706 -20.1704
    -9.8650  -9.5679  -9.5423  -9.4663  -9.1892  -9.1188  -9.0802  -8.9363
    -8.8813  -8.8290  -8.7926  -8.7886  -8.0416  -7.9568  -7.9294  -7.8784
    -7.8393  -7.8137  -7.7863  -7.7818  -7.7568  -7.6872  -7.6522  -7.5908
     1.3104   1.3443   1.4277   1.5063   1.5119   1.5777   1.6714   1.7045
     1.8032   1.8280   1.8661   2.0698   2.5536   2.5873   2.6674   2.7153
     2.7626   2.8662   4.0953   4.1120   4.2300   4.2540   4.3605   4.3660
     4.4326   4.6268   4.6686   4.6943   4.7134   4.8982   5.1199   5.1662
     5.2931   5.3865   5.3991   5.4634   5.5244   5.5911   5.6186   5.6823
     5.7132   5.7479   5.7911   5.8738   5.9360   5.9780   6.0602   6.0730
     6.2466   6.3638   6.4665   6.5667   6.6465   6.6967   6.7591   6.7769
     6.8490   6.8837   6.9276   6.9591   6.9865   7.0367   7.0466   7.0710
     7.1016   7.2137   7.8998   7.9550   7.9634   7.9952   8.0353   8.0772
     9.9665  10.0335  10.1148  10.1763  10.3116  10.3803  12.2650  12.3171
    12.3673  12.4449  12.5163  12.5491  12.6272  12.7203  12.7674  12.8693
    12.9315  13.0798  13.2466  13.4942  13.5939  13.6956  13.8240  13.9050
    14.8294  15.0003  15.0489  15.0812  15.1825  15.3409  15.8884  16.1303
    16.2174  16.7486  16.9151  17.2438  17.4538

          k = 0.0000 0.1647 0.3322 ( 62408 PWs)   bands (ev):

   -66.0713 -66.0709 -66.0705 -66.0701 -66.0657 -66.0653 -66.0648 -66.0645
   -30.5179 -30.5152 -30.5065 -30.5033 -30.4715 -30.4691 -30.4490 -30.4421
   -30.4326 -30.4241 -30.4141 -30.4079 -30.3824 -30.3792 -30.3647 -30.3640
   -30.3602 -30.3586 -30.3478 -30.3390 -30.3095 -30.3034 -30.2944 -30.2924
   -20.2199 -20.2198 -20.2194 -20.2194 -20.2141 -20.2140 -20.2138 -20.2137
   -20.2042 -20.2040 -20.2031 -20.2029 -20.2024 -20.2022 -20.2009 -20.2008
   -20.2007 -20.2006 -20.2004 -20.2002 -20.1968 -20.1966 -20.1965 -20.1960
   -20.1958 -20.1952 -20.1922 -20.1920 -20.1918 -20.1913 -20.1895 -20.1893
   -20.1885 -20.1884 -20.1883 -20.1880 -20.1874 -20.1870 -20.1868 -20.1864
   -20.1858 -20.1848 -20.1838 -20.1832 -20.1757 -20.1753 -20.1751 -20.1741
   -20.1737 -20.1731 -20.1729 -20.1725 -20.1724 -20.1712 -20.1712 -20.1707
    -9.7630  -9.5842  -9.4411  -9.3142  -9.2293  -9.1112  -8.9287  -8.8846
    -8.8396  -8.7995  -8.6538  -8.6503  -8.3110  -8.2541  -8.0573  -8.0265
    -7.8997  -7.8849  -7.8284  -7.8058  -7.7955  -7.7818  -7.6398  -7.6040
     1.3260   1.3371   1.5135   1.5169   1.6827   1.6953   1.7752   1.8235
     2.2520   2.3899   2.4495   2.5571   2.6188   2.6998   2.7993   2.9064
     2.9846   3.0914   3.7132   3.8317   3.8991   3.9976   4.0131   4.2514
     4.3293   4.4243   4.4650   4.4881   4.5792   4.6829   4.7898   4.9305
     4.9879   5.0721   5.1744   5.2658   5.3091   5.4753   5.5318   5.7073
     5.7548   5.7836   5.8097   5.8296   5.9239   5.9908   6.0494   6.0910
     6.3072   6.3537   6.3926   6.4928   6.6410   6.6693   6.7141   6.8226
     6.8415   6.8822   6.9243   6.9896   7.0197   7.0484   7.1648   7.1837
     7.2345   7.3137   7.8059   7.8173   7.8732   7.9046   7.9782   8.0100
    10.1008  10.1126  10.6122  10.7079  10.8527  10.9561  11.9383  12.0666
    12.1797  12.3173  12.3818  12.5268  12.6081  12.6884  12.7117  12.8583
    12.9797  13.1699  13.2472  13.3024  13.4726  13.6048  13.6449  13.7601
    14.9218  14.9990  15.2342  15.4546  15.5831  15.7856  15.8067  16.1284
    16.3781  16.9686  17.2005  17.4040  17.6793

          k = 0.0000 0.1647-0.4982 ( 62358 PWs)   bands (ev):

   -66.0711 -66.0711 -66.0703 -66.0703 -66.0655 -66.0655 -66.0647 -66.0647
   -30.5164 -30.5164 -30.4882 -30.4882 -30.4850 -30.4850 -30.4464 -30.4463
   -30.4292 -30.4292 -30.4113 -30.4113 -30.3808 -30.3808 -30.3620 -30.3620
   -30.3609 -30.3609 -30.3291 -30.3291 -30.3220 -30.3219 -30.2934 -30.2934
   -20.2197 -20.2197 -20.2196 -20.2196 -20.2140 -20.2140 -20.2137 -20.2137
   -20.2036 -20.2036 -20.2034 -20.2034 -20.2024 -20.2023 -20.2008 -20.2008
   -20.2006 -20.2006 -20.2004 -20.2004 -20.1966 -20.1965 -20.1963 -20.1963
   -20.1956 -20.1956 -20.1921 -20.1921 -20.1916 -20.1916 -20.1890 -20.1890
   -20.1888 -20.1888 -20.1879 -20.1879 -20.1875 -20.1874 -20.1866 -20.1866
   -20.1853 -20.1853 -20.1835 -20.1835 -20.1754 -20.1754 -20.1745 -20.1745
   -20.1733 -20.1733 -20.1728 -20.1728 -20.1721 -20.1721 -20.1709 -20.1709
    -9.6586  -9.6586  -9.3109  -9.3109  -9.1804  -9.1804  -8.8560  -8.8560
    -8.6407  -8.6406  -8.5892  -8.5891  -8.3860  -8.3860  -8.3698  -8.3698
    -7.8995  -7.8995  -7.8127  -7.8127  -7.7950  -7.7950  -7.6220  -7.6220
     1.3313   1.3313   1.5185   1.5185   1.6959   1.6959   1.8153   1.8153
     2.6454   2.6454   3.0585   3.0585   3.1210   3.1210   3.2067   3.2068
     3.2545   3.2545   3.3103   3.3103   3.5463   3.5463   3.7362   3.7362
     3.8375   3.8375   4.3578   4.3578   4.4919   4.4919   4.8329   4.8329
     5.0461   5.0461   5.1517   5.1517   5.3099   5.3099   5.6170   5.6170
     5.7556   5.7556   5.8563   5.8563   5.9407   5.9407   6.0645   6.0645
     6.3018   6.3018   6.4133   6.4133   6.5851   6.5851   6.7428   6.7428
     6.8864   6.8864   6.9278   6.9278   7.0267   7.0267   7.5181   7.5181
     7.5614   7.5614   7.6015   7.6015   7.6636   7.6636   7.9873   7.9873
    10.1103  10.1103  11.3115  11.3115  11.4395  11.4395  11.5375  11.5375
    11.6788  11.6788  12.4792  12.4792  12.6453  12.6453  12.9604  12.9604
    13.1152  13.1152  13.1591  13.1591  13.3702  13.3702  13.6470  13.6470
    14.9736  14.9736  15.5297  15.5297  15.8725  15.8725  15.9484  15.9484
    16.6521  16.6521  17.6957  17.6958  18.0044

          k = 0.0000 0.3294 0.0000 ( 62490 PWs)   bands (ev):

   -66.0715 -66.0707 -66.0707 -66.0699 -66.0659 -66.0652 -66.0650 -66.0643
   -30.5265 -30.5223 -30.5180 -30.5136 -30.4538 -30.4516 -30.4455 -30.4362
   -30.4219 -30.4100 -30.4080 -30.3963 -30.3891 -30.3810 -30.3793 -30.3750
   -30.3684 -30.3684 -30.3671 -30.3554 -30.2954 -30.2917 -30.2897 -30.2842
   -20.2202 -20.2201 -20.2192 -20.2191 -20.2141 -20.2139 -20.2138 -20.2136
   -20.2048 -20.2047 -20.2026 -20.2025 -20.2022 -20.2021 -20.2010 -20.2008
   -20.2008 -20.2006 -20.2003 -20.2001 -20.1971 -20.1966 -20.1965 -20.1960
   -20.1949 -20.1942 -20.1923 -20.1921 -20.1916 -20.1910 -20.1900 -20.1896
   -20.1889 -20.1886 -20.1884 -20.1877 -20.1876 -20.1871 -20.1869 -20.1867
   -20.1866 -20.1843 -20.1841 -20.1828 -20.1762 -20.1760 -20.1748 -20.1748
   -20.1735 -20.1735 -20.1731 -20.1722 -20.1716 -20.1710 -20.1708 -20.1701
    -9.8216  -9.6587  -9.4619  -9.4486  -9.1702  -9.1677  -8.9197  -8.9076
    -8.8387  -8.7114  -8.7054  -8.7000  -8.1833  -8.1313  -8.1154  -8.0892
    -7.9010  -7.8858  -7.8144  -7.8062  -7.6593  -7.6505  -7.5880  -7.5749
     1.2406   1.2878   1.2984   1.3607   1.4910   1.5315   1.6098   1.6522
     2.2912   2.3880   2.4382   2.4957   2.5478   2.5635   2.7763   2.9644
     3.0077   3.0561   3.6709   3.6971   3.7853   3.7942   4.0989   4.4654
     4.5341   4.5825   4.6389   4.6811   4.7272   4.8203   5.0119   5.0248
     5.0984   5.1132   5.3399   5.3691   5.4893   5.5251   5.6485   5.7082
     5.7214   5.7418   5.7839   5.9463   5.9637   6.0207   6.0852   6.1223
     6.2756   6.3400   6.3900   6.4778   6.5233   6.6016   6.8071   6.8406
     6.8795   6.8958   6.9546   6.9759   7.1405   7.1464   7.1469   7.1565
     7.2704   7.3112   7.7979   7.8486   7.9033   7.9283   8.0047   8.0125
     9.7555   9.7805  10.5916  10.6367  10.6935  10.7513  11.9189  12.0248
    12.0831  12.1832  12.4174  12.4746  12.5845  12.8229  12.8325  12.8386
    13.0718  13.1044  13.1348  13.4427  13.4596  13.5886  13.7726  13.8589
    14.8993  15.0574  15.2009  15.2780  15.3114  15.6824  15.8067  15.8695
    16.1090  17.1687  17.2396  17.6414  17.7318

          k = 0.0000 0.3294 0.1661 ( 62406 PWs)   bands (ev):

   -66.0714 -66.0707 -66.0706 -66.0700 -66.0658 -66.0652 -66.0650 -66.0644
   -30.5214 -30.5174 -30.5170 -30.5139 -30.4577 -30.4548 -30.4450 -30.4376
   -30.4213 -30.4096 -30.4092 -30.3978 -30.3885 -30.3813 -30.3787 -30.3740
   -30.3692 -30.3686 -30.3626 -30.3516 -30.2953 -30.2949 -30.2920 -30.2893
   -20.2201 -20.2200 -20.2193 -20.2192 -20.2141 -20.2139 -20.2138 -20.2136
   -20.2046 -20.2045 -20.2027 -20.2025 -20.2023 -20.2022 -20.2009 -20.2008
   -20.2007 -20.2006 -20.2004 -20.2001 -20.1969 -20.1966 -20.1965 -20.1959
   -20.1950 -20.1943 -20.1923 -20.1921 -20.1916 -20.1911 -20.1899 -20.1895
   -20.1888 -20.1885 -20.1884 -20.1879 -20.1876 -20.1871 -20.1869 -20.1867
   -20.1865 -20.1845 -20.1840 -20.1829 -20.1760 -20.1759 -20.1748 -20.1746
   -20.1734 -20.1733 -20.1733 -20.1723 -20.1715 -20.1715 -20.1706 -20.1704
    -9.7750  -9.6081  -9.4609  -9.3854  -9.1826  -9.0970  -8.8937  -8.8667
    -8.8477  -8.7085  -8.7003  -8.6808  -8.1879  -8.1391  -8.1166  -8.0973
    -8.0055  -7.9285  -7.8824  -7.8113  -7.7620  -7.6897  -7.6544  -7.5928
     1.3179   1.3568   1.4266   1.5326   1.5369   1.7228   1.7337   1.8307
     2.2992   2.3902   2.4373   2.5440   2.5902   2.6454   2.8060   2.9561
     3.0651   3.1306   3.7022   3.7423   3.7804   3.8096   4.0722   4.3126
     4.3527   4.4565   4.5568   4.6489   4.6964   4.7825   4.7944   4.8453
     5.0483   5.1268   5.1512   5.2765   5.3142   5.4917   5.5356   5.6681
     5.7247   5.7472   5.7552   5.8070   5.8963   5.9635   5.9734   6.0968
     6.3569   6.3965   6.4950   6.5349   6.6483   6.7021   6.7698   6.7975
     6.8373   6.9411   6.9776   7.0140   7.0790   7.0993   7.1406   7.1780
     7.1939   7.2402   7.7957   7.8443   7.8830   7.8990   7.9676   7.9817
    10.0167  10.0558  10.6869  10.7052  10.7489  10.8469  11.9866  12.0637
    12.0807  12.2119  12.3310  12.5242  12.6131  12.6719  12.8219  12.8608
    12.9232  13.0938  13.1225  13.3707  13.4586  13.4714  13.7613  13.8195
    14.9250  15.1480  15.2444  15.4221  15.5126  15.7495  15.8439  16.0961
    16.2623  17.1334  17.2822  17.3727  17.6419

          k = 0.0000 0.3294 0.3322 ( 62396 PWs)   bands (ev):

   -66.0713 -66.0709 -66.0705 -66.0701 -66.0657 -66.0654 -66.0648 -66.0645
   -30.5172 -30.5147 -30.5063 -30.5026 -30.4694 -30.4658 -30.4438 -30.4401
   -30.4197 -30.4132 -30.4073 -30.4010 -30.3871 -30.3831 -30.3762 -30.3728
   -30.3706 -30.3695 -30.3489 -30.3400 -30.3097 -30.3035 -30.2945 -30.2925
   -20.2199 -20.2198 -20.2194 -20.2194 -20.2140 -20.2139 -20.2138 -20.2137
   -20.2042 -20.2040 -20.2030 -20.2028 -20.2024 -20.2022 -20.2008 -20.2008
   -20.2007 -20.2006 -20.2004 -20.2002 -20.1966 -20.1965 -20.1965 -20.1956
   -20.1954 -20.1947 -20.1923 -20.1922 -20.1915 -20.1912 -20.1896 -20.1892
   -20.1888 -20.1883 -20.1882 -20.1880 -20.1875 -20.1874 -20.1871 -20.1869
   -20.1862 -20.1850 -20.1839 -20.1832 -20.1757 -20.1753 -20.1751 -20.1741
   -20.1737 -20.1731 -20.1729 -20.1725 -20.1724 -20.1712 -20.1712 -20.1707
    -9.6695  -9.4997  -9.4752  -9.2307  -9.1842  -8.9060  -8.8808  -8.8003
    -8.7754  -8.7180  -8.6253  -8.5966  -8.3291  -8.2768  -8.1573  -8.1491
    -8.1042  -8.0927  -8.0229  -7.9669  -7.8570  -7.8246  -7.6420  -7.6060
     1.3378   1.3498   1.5370   1.5382   2.1448   2.2084   2.2967   2.3468
     2.4234   2.4526   2.5149   2.6649   2.8170   2.8574   2.8754   2.9523
     3.2565   3.3232   3.6777   3.7513   3.7526   3.8275   3.8676   3.9488
     4.0276   4.1678   4.2511   4.3615   4.4442   4.5539   4.6011   4.6561
     4.8320   4.9217   4.9329   5.0787   5.1057   5.2411   5.2683   5.3193
     5.4245   5.5308   5.6083   5.7701   5.9582   5.9896   6.0573   6.1200
     6.4573   6.4609   6.4807   6.5253   6.6553   6.6879   6.7804   6.8708
     6.9494   6.9773   7.0432   7.0669   7.1107   7.1505   7.2049   7.2488
     7.3043   7.3602   7.7461   7.7860   7.8014   7.8243   7.8627   7.8947
    10.5721  10.6572  10.7123  10.8066  11.1650  11.2594  11.9319  12.0469
    12.1245  12.1734  12.2388  12.3380  12.4771  12.4907  12.6590  12.7104
    12.9232  13.0254  13.1351  13.1765  13.2125  13.4763  13.6062  13.6902
    15.0096  15.2061  15.4101  15.7472  15.8727  16.0729  16.1759  16.6898
    16.8062  16.9042  17.0390  17.5727  17.6101

          k = 0.0000 0.3294-0.4982 ( 62416 PWs)   bands (ev):

   -66.0711 -66.0711 -66.0703 -66.0703 -66.0655 -66.0655 -66.0647 -66.0647
   -30.5159 -30.5159 -30.4873 -30.4873 -30.4835 -30.4835 -30.4422 -30.4421
   -30.4169 -30.4169 -30.4045 -30.4044 -30.3853 -30.3853 -30.3737 -30.3737
   -30.3706 -30.3706 -30.3295 -30.3294 -30.3223 -30.3222 -30.2935 -30.2935
   -20.2197 -20.2197 -20.2196 -20.2196 -20.2140 -20.2140 -20.2137 -20.2137
   -20.2036 -20.2036 -20.2034 -20.2034 -20.2023 -20.2023 -20.2008 -20.2007
   -20.2006 -20.2006 -20.2004 -20.2004 -20.1966 -20.1966 -20.1959 -20.1959
   -20.1951 -20.1951 -20.1923 -20.1923 -20.1914 -20.1914 -20.1893 -20.1893
   -20.1887 -20.1887 -20.1879 -20.1879 -20.1875 -20.1875 -20.1872 -20.1872
   -20.1856 -20.1856 -20.1836 -20.1836 -20.1754 -20.1754 -20.1745 -20.1745
   -20.1733 -20.1733 -20.1728 -20.1728 -20.1721 -20.1721 -20.1709 -20.1709
    -9.5684  -9.5684  -9.3280  -9.3280  -8.9777  -8.9777  -8.7375  -8.7375
    -8.6405  -8.6405  -8.5887  -8.5886  -8.3898  -8.3898  -8.3736  -8.3736
    -8.1288  -8.1288  -8.0716  -8.0716  -7.8429  -7.8429  -7.6240  -7.6240
     1.3441   1.3441   1.5432   1.5432   2.2971   2.2971   2.4237   2.4237
     2.8679   2.8679   3.0723   3.0723   3.1268   3.1268   3.2212   3.2213
     3.2767   3.2767   3.3686   3.3687   3.5978   3.5978   3.7552   3.7552
     3.8998   3.8998   3.9890   3.9890   4.1645   4.1645   4.3365   4.3365
     4.8849   4.8849   5.0235   5.0235   5.1124   5.1124   5.1609   5.1610
     5.3571   5.3571   5.7032   5.7032   6.0122   6.0122   6.0849   6.0849
     6.4017   6.4017   6.5288   6.5288   6.6379   6.6379   6.7518   6.7518
     7.0679   7.0679   7.1053   7.1053   7.1219   7.1219   7.5110   7.5111
     7.5467   7.5467   7.5872   7.5872   7.6345   7.6345   7.8588   7.8588
    10.6906  10.6906  11.3285  11.3285  11.4887  11.4888  11.7410  11.7411
    11.8519  11.8519  12.1786  12.1786  12.5351  12.5351  12.6847  12.6847
    12.8570  12.8570  13.0613  13.0614  13.3574  13.3574  13.5373  13.5373
    15.1268  15.1268  15.6161  15.6161  16.2756  16.2756  16.7414  16.7414
    16.8845  16.8845  17.3101  17.3101  17.9390

          k = 0.0000-0.4941 0.0000 ( 62438 PWs)   bands (ev):

   -66.0715 -66.0707 -66.0707 -66.0699 -66.0659 -66.0652 -66.0650 -66.0643
   -30.5261 -30.5222 -30.5180 -30.5134 -30.4519 -30.4473 -30.4429 -30.4378
   -30.4059 -30.4022 -30.3999 -30.3973 -30.3924 -30.3889 -30.3851 -30.3828
   -30.3761 -30.3721 -30.3689 -30.3566 -30.2955 -30.2917 -30.2897 -30.2842
   -20.2202 -20.2201 -20.2192 -20.2191 -20.2141 -20.2139 -20.2138 -20.2136
   -20.2048 -20.2047 -20.2024 -20.2024 -20.2022 -20.2022 -20.2010 -20.2008
   -20.2008 -20.2006 -20.2003 -20.2001 -20.1969 -20.1966 -20.1965 -20.1958
   -20.1947 -20.1939 -20.1924 -20.1922 -20.1914 -20.1910 -20.1903 -20.1892
   -20.1891 -20.1886 -20.1885 -20.1881 -20.1877 -20.1871 -20.1870 -20.1869
   -20.1868 -20.1843 -20.1841 -20.1828 -20.1762 -20.1760 -20.1749 -20.1748
   -20.1735 -20.1735 -20.1731 -20.1722 -20.1716 -20.1710 -20.1708 -20.1701
    -9.7357  -9.7210  -9.4311  -9.4104  -9.1631  -9.1584  -8.9130  -8.9037
    -8.5123  -8.5073  -8.4710  -8.4576  -8.4536  -8.4499  -8.4443  -8.4332
    -7.9038  -7.8882  -7.8161  -7.8075  -7.6592  -7.6522  -7.5890  -7.5755
     1.2405   1.2869   1.2991   1.3626   1.4935   1.5351   1.6259   1.6567
     2.5197   2.5348   2.9028   2.9131   2.9368   2.9702   3.2844   3.2879
     3.2954   3.3334   3.3413   3.3697   3.4821   3.5928   3.7530   3.7958
     3.8190   3.8308   4.5755   4.6272   4.6454   4.6768   5.1105   5.2105
     5.2422   5.2521   5.2530   5.2989   5.3081   5.3222   5.6575   5.7078
     5.7687   5.7842   5.8509   5.9012   5.9263   5.9463   6.1052   6.1178
     6.2859   6.3061   6.4110   6.4255   6.4668   6.4996   6.7310   6.8093
     6.8876   6.9010   6.9198   6.9561   7.2625   7.2973   7.4046   7.4332
     7.4643   7.5057   7.6264   7.6486   7.6617   7.6999   8.0050   8.0057
     9.7663   9.7769  11.1171  11.1741  11.2794  11.2992  11.4431  11.5486
    11.5841  11.6695  12.4246  12.4884  12.7445  12.7499  12.8340  12.8526
    13.2064  13.2122  13.2223  13.2694  13.2914  13.3125  13.7576  13.7879
    14.9707  15.0451  15.3568  15.4224  15.5999  15.6434  15.7815  15.8262
    16.5450  16.5474  17.9171  17.9266  17.9877

          k = 0.0000-0.4941 0.1661 ( 62454 PWs)   bands (ev):

   -66.0714 -66.0707 -66.0706 -66.0700 -66.0658 -66.0652 -66.0650 -66.0644
   -30.5208 -30.5177 -30.5168 -30.5137 -30.4561 -30.4516 -30.4425 -30.4381
   -30.4053 -30.4018 -30.3994 -30.3975 -30.3923 -30.3899 -30.3868 -30.3831
   -30.3758 -30.3723 -30.3636 -30.3525 -30.2954 -30.2949 -30.2919 -30.2894
   -20.2201 -20.2200 -20.2193 -20.2192 -20.2141 -20.2139 -20.2138 -20.2136
   -20.2046 -20.2045 -20.2026 -20.2025 -20.2023 -20.2023 -20.2009 -20.2008
   -20.2007 -20.2006 -20.2004 -20.2001 -20.1968 -20.1966 -20.1965 -20.1957
   -20.1948 -20.1940 -20.1924 -20.1923 -20.1914 -20.1910 -20.1902 -20.1891
   -20.1891 -20.1885 -20.1884 -20.1881 -20.1878 -20.1871 -20.1871 -20.1869
   -20.1867 -20.1845 -20.1841 -20.1830 -20.1760 -20.1759 -20.1749 -20.1746
   -20.1734 -20.1733 -20.1733 -20.1723 -20.1715 -20.1715 -20.1707 -20.1704
    -9.6852  -9.6728  -9.4216  -9.3489  -9.1786  -9.0831  -8.8884  -8.8579
    -8.5191  -8.5138  -8.4760  -8.4576  -8.4535  -8.4471  -8.4455  -8.4243
    -8.0132  -7.9340  -7.8853  -7.8125  -7.7628  -7.6903  -7.6555  -7.5938
     1.3186   1.3586   1.4258   1.5368   1.5389   1.7394   1.7421   1.8408
     2.6007   2.6183   2.9105   2.9113   2.9871   2.9923   3.2510   3.2748
     3.2978   3.3494   3.3530   3.4347   3.4816   3.6595   3.7483   3.8157
     3.8500   3.8555   4.3304   4.3400   4.6268   4.6837   4.8594   5.0114
     5.0431   5.0501   5.1781   5.2285   5.2978   5.3435   5.5405   5.5644
     5.7093   5.7309   5.7459   5.7585   5.9053   5.9105   5.9841   6.1241
     6.3655   6.3944   6.4372   6.4807   6.6233   6.6911   6.7298   6.7744
     6.8632   6.9516   6.9884   7.0128   7.0870   7.1742   7.4167   7.4226
     7.4684   7.4919   7.6362   7.6382   7.6574   7.6928   7.9670   7.9734
    10.0229  10.0607  11.2117  11.2859  11.2941  11.3009  11.5244  11.5925
    11.6464  11.6714  12.3329  12.5392  12.6845  12.7845  12.8034  12.8803
    13.1023  13.1362  13.1480  13.1768  13.2234  13.2354  13.7493  13.7674
    14.9709  15.1464  15.3839  15.6703  15.7385  15.7773  15.8563  16.0599
    16.6077  16.6302  17.7291  17.8228  17.9346

          k = 0.0000-0.4941 0.3322 ( 62444 PWs)   bands (ev):

   -66.0713 -66.0709 -66.0705 -66.0701 -66.0657 -66.0654 -66.0649 -66.0645
   -30.5168 -30.5145 -30.5062 -30.5023 -30.4685 -30.4643 -30.4414 -30.4389
   -30.4034 -30.4008 -30.3986 -30.3973 -30.3959 -30.3907 -30.3882 -30.3842
   -30.3750 -30.3730 -30.3493 -30.3403 -30.3097 -30.3035 -30.2945 -30.2926
   -20.2199 -20.2198 -20.2194 -20.2193 -20.2140 -20.2139 -20.2137 -20.2137
   -20.2042 -20.2040 -20.2030 -20.2028 -20.2023 -20.2023 -20.2008 -20.2007
   -20.2006 -20.2006 -20.2005 -20.2002 -20.1966 -20.1965 -20.1963 -20.1953
   -20.1952 -20.1943 -20.1924 -20.1923 -20.1914 -20.1911 -20.1899 -20.1892
   -20.1888 -20.1884 -20.1881 -20.1880 -20.1879 -20.1875 -20.1873 -20.1871
   -20.1863 -20.1851 -20.1839 -20.1833 -20.1757 -20.1753 -20.1751 -20.1741
   -20.1737 -20.1731 -20.1729 -20.1725 -20.1724 -20.1712 -20.1712 -20.1707
    -9.6016  -9.5138  -9.4559  -9.2321  -9.1186  -8.8791  -8.8001  -8.7185
    -8.5731  -8.5429  -8.4954  -8.4722  -8.4478  -8.4344  -8.4314  -8.3892
    -8.2678  -8.2038  -8.0381  -7.9867  -7.8579  -7.8261  -7.6430  -7.6070
     1.3393   1.3516   1.5400   1.5416   2.2017   2.3290   2.3853   2.4692
     2.8312   2.8466   2.9153   2.9309   3.0623   3.0966   3.2048   3.2586
     3.2959   3.3328   3.3842   3.4394   3.6056   3.7073   3.7825   3.8323
     3.8568   3.9149   3.9209   3.9370   4.3075   4.3399   4.4603   4.5624
     4.7070   4.8152   4.8784   4.9322   5.0704   5.1698   5.1974   5.2457
     5.3264   5.4401   5.5819   5.6837   5.9659   6.0094   6.0661   6.1482
     6.4649   6.4654   6.4782   6.5201   6.5870   6.6725   6.7062   6.9117
     7.0126   7.0530   7.0809   7.1127   7.2852   7.2968   7.3777   7.4278
     7.4422   7.4932   7.6097   7.6295   7.6567   7.6615   7.8266   7.8639
    10.6124  10.7233  11.2743  11.3021  11.5208  11.5788  11.5843  11.7309
    11.8139  11.9214  11.9729  12.2245  12.6392  12.6477  12.6831  12.6960
    12.8229  12.9347  12.9627  13.0090  13.2582  13.2777  13.6120  13.6285
    15.0511  15.3153  15.4172  15.7316  16.1302  16.3642  16.5537  16.7881
    16.8530  16.9087  17.2966  17.3287  17.9435

          k = 0.0000-0.4941-0.4982 ( 62360 PWs)   bands (ev):

   -66.0711 -66.0711 -66.0703 -66.0703 -66.0655 -66.0655 -66.0647 -66.0647
   -30.5157 -30.5157 -30.4869 -30.4869 -30.4829 -30.4829 -30.4401 -30.4401
   -30.4002 -30.4002 -30.3996 -30.3995 -30.3945 -30.3945 -30.3860 -30.3860
   -30.3740 -30.3740 -30.3296 -30.3295 -30.3224 -30.3224 -30.2936 -30.2936
   -20.2197 -20.2196 -20.2196 -20.2196 -20.2140 -20.2140 -20.2137 -20.2137
   -20.2036 -20.2035 -20.2034 -20.2034 -20.2023 -20.2023 -20.2007 -20.2007
   -20.2006 -20.2006 -20.2004 -20.2004 -20.1966 -20.1966 -20.1957 -20.1957
   -20.1948 -20.1948 -20.1924 -20.1924 -20.1913 -20.1913 -20.1895 -20.1895
   -20.1884 -20.1884 -20.1880 -20.1880 -20.1876 -20.1876 -20.1875 -20.1875
   -20.1858 -20.1858 -20.1836 -20.1836 -20.1754 -20.1754 -20.1745 -20.1745
   -20.1733 -20.1733 -20.1728 -20.1728 -20.1721 -20.1721 -20.1709 -20.1709
    -9.5168  -9.5168  -9.3425  -9.3425  -8.8033  -8.8033  -8.6480  -8.6480
    -8.6186  -8.6186  -8.5502  -8.5502  -8.4253  -8.4252  -8.3880  -8.3880
    -8.3187  -8.3186  -8.2640  -8.2640  -7.8443  -7.8443  -7.6251  -7.6251
     1.3459   1.3459   1.5468   1.5468   2.8380   2.8380   3.0354   3.0355
     3.0583   3.0583   3.1032   3.1032   3.1060   3.1060   3.2268   3.2268
     3.3210   3.3210   3.3593   3.3593   3.4275   3.4275   3.5333   3.5333
     3.7560   3.7560   3.7970   3.7970   4.2665   4.2666   4.3429   4.3429
     4.3646   4.3646   4.4485   4.4485   5.0944   5.0944   5.1677   5.1677
     5.3906   5.3906   5.5772   5.5772   6.0361   6.0361   6.0989   6.0989
     6.4237   6.4237   6.5077   6.5077   6.6380   6.6380   6.6921   6.6921
     7.2364   7.2364   7.2653   7.2653   7.3484   7.3484   7.4684   7.4684
     7.5462   7.5462   7.5549   7.5549   7.5819   7.5820   7.7249   7.7249
    11.2038  11.2038  11.3779  11.3779  11.4946  11.4946  11.6415  11.6415
    12.0610  12.0610  12.1181  12.1181  12.2905  12.2905  12.3642  12.3642
    12.8680  12.8680  12.9843  12.9844  13.3705  13.3705  13.4259  13.4259
    15.1968  15.1969  15.6156  15.6156  16.7145  16.7145  16.8576  16.8576
    17.4152  17.4152  17.5074  17.5076  17.6261

          k = 0.1667 0.0000 0.0000 ( 62403 PWs)   bands (ev):

   -66.0714 -66.0708 -66.0706 -66.0700 -66.0658 -66.0651 -66.0651 -66.0644
   -30.5270 -30.5232 -30.5128 -30.5090 -30.4626 -30.4595 -30.4562 -30.4393
   -30.4370 -30.4216 -30.4184 -30.4072 -30.3789 -30.3727 -30.3707 -30.3689
   -30.3552 -30.3529 -30.3523 -30.3505 -30.3007 -30.2970 -30.2893 -30.2845
   -20.2202 -20.2201 -20.2192 -20.2192 -20.2141 -20.2139 -20.2138 -20.2137
   -20.2048 -20.2047 -20.2028 -20.2024 -20.2023 -20.2019 -20.2010 -20.2010
   -20.2009 -20.2007 -20.2003 -20.2001 -20.1974 -20.1967 -20.1963 -20.1961
   -20.1955 -20.1951 -20.1925 -20.1921 -20.1919 -20.1908 -20.1902 -20.1895
   -20.1888 -20.1885 -20.1879 -20.1877 -20.1870 -20.1869 -20.1867 -20.1862
   -20.1860 -20.1842 -20.1839 -20.1828 -20.1761 -20.1758 -20.1749 -20.1746
   -20.1737 -20.1734 -20.1730 -20.1724 -20.1717 -20.1709 -20.1709 -20.1701
    -9.9032  -9.5808  -9.5572  -9.5132  -9.2073  -9.1639  -9.1104  -8.9686
    -8.8819  -8.8618  -8.8144  -8.8024  -8.0240  -7.9437  -7.9183  -7.8397
    -7.7682  -7.7588  -7.7134  -7.7004  -7.6972  -7.6606  -7.6438  -7.5774
     1.2496   1.2775   1.4147   1.4222   1.4312   1.4479   1.4755   1.6045
     1.6533   1.8120   1.8412   2.0112   2.5130   2.5555   2.6409   2.6842
     2.6894   2.7317   4.1311   4.2743   4.2931   4.3754   4.3894   4.4917
     4.6387   4.6512   4.6967   4.7121   4.7384   4.9826   5.2500   5.2707
     5.3357   5.4281   5.4930   5.5010   5.5839   5.6643   5.6751   5.7197
     5.7549   5.7608   5.8232   5.9068   5.9122   6.0419   6.0492   6.0905
     6.1586   6.3337   6.4426   6.5084   6.6317   6.6747   6.7184   6.8769
     6.8790   6.9131   6.9140   6.9869   6.9879   7.0024   7.0389   7.0864
     7.1599   7.1924   7.9089   7.9257   7.9758   7.9898   8.1300   8.1695
     9.8636   9.9125   9.9846  10.0244  10.1746  10.2390  12.2146  12.2955
    12.4292  12.4350  12.5427  12.6985  12.7072  12.7763  12.8591  12.9130
    12.9634  13.1225  13.3501  13.4482  13.5736  13.7151  13.8697  14.0283
    14.7247  14.7694  14.8670  14.9902  15.1478  15.3218  15.7760  15.8617
    16.2280  16.6962  17.0029  17.2118  17.3876

          k = 0.1667 0.0000 0.1661 ( 62437 PWs)   bands (ev):

   -66.0714 -66.0707 -66.0707 -66.0700 -66.0658 -66.0652 -66.0650 -66.0644
   -30.5221 -30.5180 -30.5121 -30.5093 -30.4644 -30.4623 -30.4557 -30.4395
   -30.4387 -30.4212 -30.4209 -30.4090 -30.3782 -30.3727 -30.3674 -30.3656
   -30.3540 -30.3534 -30.3529 -30.3483 -30.3005 -30.2974 -30.2946 -30.2896
   -20.2201 -20.2200 -20.2193 -20.2192 -20.2141 -20.2139 -20.2138 -20.2137
   -20.2046 -20.2045 -20.2028 -20.2025 -20.2024 -20.2019 -20.2010 -20.2009
   -20.2008 -20.2008 -20.2004 -20.2001 -20.1972 -20.1966 -20.1963 -20.1961
   -20.1956 -20.1952 -20.1925 -20.1921 -20.1919 -20.1909 -20.1901 -20.1894
   -20.1887 -20.1884 -20.1881 -20.1879 -20.1871 -20.1869 -20.1867 -20.1862
   -20.1859 -20.1841 -20.1841 -20.1829 -20.1759 -20.1757 -20.1747 -20.1747
   -20.1736 -20.1733 -20.1731 -20.1725 -20.1717 -20.1715 -20.1707 -20.1704
    -9.8592  -9.5272  -9.5225  -9.5028  -9.1731  -9.1379  -9.1209  -8.9511
    -8.8450  -8.8204  -8.8185  -8.7792  -8.0433  -8.0021  -7.9568  -7.9497
    -7.7734  -7.7623  -7.7545  -7.7178  -7.7076  -7.7011  -7.6836  -7.6640
     1.3876   1.4118   1.4206   1.4738   1.5205   1.5603   1.5983   1.6534
     1.7973   1.8391   1.9063   2.0756   2.5616   2.6310   2.6831   2.7307
     2.7662   2.7765   4.1083   4.1746   4.2714   4.3163   4.3756   4.4073
     4.4477   4.5390   4.5548   4.6633   4.7374   4.8244   5.1227   5.1823
     5.2564   5.3794   5.3894   5.4341   5.4666   5.6045   5.6558   5.6894
     5.7297   5.7791   5.7835   5.8820   5.9376   5.9525   6.0282   6.1582
     6.1984   6.4535   6.4834   6.5524   6.6707   6.6796   6.7665   6.8016
     6.8393   6.8611   6.8768   6.9014   6.9358   6.9831   7.0188   7.0912
     7.1395   7.1582   7.8986   7.9219   7.9543   7.9712   8.0822   8.1304
    10.0525  10.0632  10.1441  10.1707  10.3181  10.3839  12.2376  12.3246
    12.3551  12.4420  12.4905  12.6023  12.7350  12.7715  12.8111  12.9051
    12.9843  13.0245  13.3949  13.4486  13.5936  13.6793  13.8428  13.9128
    14.7795  14.8858  14.9460  15.0142  15.2286  15.4331  15.8015  16.1019
    16.1886  16.8523  16.9169  17.1569  17.4689

          k = 0.1667 0.0000 0.3322 ( 62420 PWs)   bands (ev):

   -66.0712 -66.0708 -66.0706 -66.0702 -66.0656 -66.0653 -66.0649 -66.0645
   -30.5136 -30.5102 -30.5056 -30.5039 -30.4722 -30.4713 -30.4540 -30.4457
   -30.4367 -30.4274 -30.4190 -30.4127 -30.3770 -30.3739 -30.3609 -30.3592
   -30.3547 -30.3544 -30.3463 -30.3392 -30.3091 -30.3040 -30.2997 -30.2977
   -20.2199 -20.2198 -20.2194 -20.2194 -20.2141 -20.2140 -20.2138 -20.2137
   -20.2042 -20.2040 -20.2031 -20.2029 -20.2023 -20.2021 -20.2010 -20.2009
   -20.2008 -20.2006 -20.2005 -20.2002 -20.1969 -20.1964 -20.1962 -20.1962
   -20.1959 -20.1955 -20.1924 -20.1922 -20.1917 -20.1911 -20.1897 -20.1890
   -20.1886 -20.1883 -20.1882 -20.1879 -20.1874 -20.1870 -20.1866 -20.1863
   -20.1856 -20.1846 -20.1839 -20.1832 -20.1755 -20.1752 -20.1749 -20.1741
   -20.1736 -20.1733 -20.1728 -20.1727 -20.1724 -20.1715 -20.1711 -20.1708
    -9.7548  -9.5701  -9.3883  -9.3680  -9.2041  -9.1569  -8.9436  -8.9030
    -8.8328  -8.7643  -8.6686  -8.6467  -8.3072  -8.2567  -8.0649  -8.0434
    -7.9737  -7.9284  -7.7602  -7.7499  -7.7246  -7.7111  -7.6959  -7.6731
     1.4070   1.4151   1.4607   1.4707   1.6444   1.6550   1.7958   1.8420
     2.2513   2.3868   2.4506   2.5553   2.6136   2.6989   2.8681   2.9098
     3.0065   3.0114   3.7299   3.8302   3.9400   3.9686   4.0142   4.2778
     4.3746   4.4026   4.4378   4.5374   4.6704   4.7378   4.7490   4.8488
     5.0031   5.0796   5.1143   5.1902   5.2618   5.4325   5.4778   5.7044
     5.7260   5.7498   5.8260   5.8361   5.9220   5.9714   6.0187   6.1713
     6.3068   6.3820   6.4653   6.5188   6.5450   6.6288   6.7158   6.8145
     6.8526   6.8836   6.9356   6.9530   6.9859   7.0639   7.1798   7.2023
     7.2388   7.3090   7.7944   7.8129   7.8804   7.9185   7.9838   8.0323
    10.1089  10.1110  10.6825  10.7520  10.8218  10.9631  12.0005  12.0622
    12.1612  12.3046  12.3281  12.4070  12.6560  12.8040  12.8891  12.9285
    13.0158  13.0815  13.2967  13.3584  13.5386  13.5718  13.6774  13.6951
    14.8944  14.9754  15.1993  15.2652  15.6757  15.7098  15.8259  16.0346
    16.4354  16.9213  17.3403  17.3789  17.5926

          k = 0.1667 0.0000-0.4982 ( 62348 PWs)   bands (ev):

   -66.0710 -66.0710 -66.0704 -66.0704 -66.0655 -66.0654 -66.0647 -66.0647
   -30.5115 -30.5115 -30.4882 -30.4882 -30.4861 -30.4861 -30.4510 -30.4509
   -30.4330 -30.4330 -30.4162 -30.4162 -30.3755 -30.3755 -30.3571 -30.3571
   -30.3562 -30.3562 -30.3286 -30.3285 -30.3225 -30.3224 -30.2988 -30.2988
   -20.2197 -20.2197 -20.2196 -20.2196 -20.2140 -20.2140 -20.2138 -20.2137
   -20.2036 -20.2036 -20.2034 -20.2034 -20.2022 -20.2022 -20.2010 -20.2009
   -20.2006 -20.2006 -20.2004 -20.2004 -20.1964 -20.1964 -20.1962 -20.1962
   -20.1959 -20.1958 -20.1923 -20.1923 -20.1914 -20.1914 -20.1892 -20.1892
   -20.1886 -20.1886 -20.1879 -20.1878 -20.1874 -20.1874 -20.1865 -20.1865
   -20.1851 -20.1851 -20.1836 -20.1836 -20.1752 -20.1752 -20.1744 -20.1744
   -20.1733 -20.1733 -20.1730 -20.1730 -20.1721 -20.1721 -20.1711 -20.1710
    -9.6470  -9.6470  -9.2698  -9.2698  -9.2343  -9.2343  -8.8580  -8.8580
    -8.6471  -8.6470  -8.5770  -8.5769  -8.3948  -8.3948  -8.3665  -8.3665
    -7.9686  -7.9686  -7.7495  -7.7495  -7.7241  -7.7241  -7.6852  -7.6852
     1.4102   1.4102   1.4677   1.4677   1.6548   1.6548   1.8393   1.8393
     2.6445   2.6445   3.0759   3.0759   3.1133   3.1133   3.1867   3.1867
     3.2580   3.2580   3.3430   3.3430   3.5696   3.5697   3.6790   3.6790
     3.8556   3.8556   4.3357   4.3357   4.6190   4.6190   4.9234   4.9234
     4.9746   4.9746   5.0671   5.0671   5.2301   5.2301   5.5637   5.5637
     5.7487   5.7487   5.7777   5.7777   5.9575   5.9575   6.1300   6.1300
     6.3189   6.3189   6.4412   6.4412   6.5222   6.5222   6.7601   6.7601
     6.8963   6.8963   6.9492   6.9492   6.9984   6.9984   7.5217   7.5217
     7.5735   7.5735   7.6084   7.6084   7.6683   7.6683   7.9905   7.9906
    10.1151  10.1151  11.3704  11.3704  11.4643  11.4643  11.4955  11.4955
    11.6954  11.6954  12.3617  12.3617  12.8394  12.8394  12.9459  12.9459
    13.1390  13.1390  13.2812  13.2812  13.3098  13.3098  13.6279  13.6279
    14.9520  14.9520  15.5185  15.5185  15.6603  15.6603  16.0610  16.0611
    16.6517  16.6517  17.7234  17.7234  17.9598

          k = 0.1667 0.1647 0.0000 ( 62430 PWs)   bands (ev):

   -66.0714 -66.0708 -66.0706 -66.0700 -66.0658 -66.0651 -66.0651 -66.0644
   -30.5267 -30.5230 -30.5127 -30.5087 -30.4595 -30.4574 -30.4538 -30.4376
   -30.4345 -30.4194 -30.4159 -30.4050 -30.3803 -30.3734 -30.3714 -30.3707
   -30.3590 -30.3572 -30.3568 -30.3530 -30.3008 -30.2971 -30.2893 -30.2845
   -20.2202 -20.2201 -20.2192 -20.2191 -20.2141 -20.2139 -20.2138 -20.2137
   -20.2048 -20.2047 -20.2027 -20.2024 -20.2023 -20.2019 -20.2010 -20.2010
   -20.2009 -20.2007 -20.2003 -20.2001 -20.1973 -20.1966 -20.1963 -20.1960
   -20.1953 -20.1948 -20.1925 -20.1922 -20.1918 -20.1908 -20.1901 -20.1896
   -20.1889 -20.1885 -20.1879 -20.1879 -20.1871 -20.1870 -20.1868 -20.1864
   -20.1861 -20.1842 -20.1840 -20.1828 -20.1761 -20.1758 -20.1749 -20.1746
   -20.1737 -20.1734 -20.1730 -20.1724 -20.1717 -20.1709 -20.1709 -20.1701
    -9.8661  -9.5697  -9.5442  -9.4675  -9.2008  -9.1065  -9.0815  -8.9358
    -8.8807  -8.8292  -8.7918  -8.7870  -8.0323  -7.9516  -7.9311  -7.8675
    -7.8469  -7.8237  -7.7900  -7.7831  -7.7589  -7.6969  -7.6449  -7.5786
     1.2587   1.2900   1.4344   1.4754   1.5436   1.5771   1.6952   1.7154
     1.7866   1.8316   1.9082   2.0832   2.5522   2.6078   2.6650   2.7432
     2.7769   2.8109   4.0427   4.1507   4.2054   4.2722   4.3631   4.3766
     4.4273   4.5825   4.6167   4.7039   4.7990   4.9074   5.1058   5.2055
     5.2796   5.3863   5.3921   5.4719   5.5241   5.5804   5.6165   5.6660
     5.7220   5.7565   5.7836   5.9099   5.9642   5.9848   6.0652   6.0956
     6.1969   6.3932   6.4368   6.5344   6.6521   6.6820   6.7208   6.7984
     6.8423   6.8622   6.9357   6.9500   6.9973   7.0357   7.0620   7.0701
     7.1511   7.1997   7.8882   7.9175   7.9711   7.9903   8.0866   8.1062
     9.9599  10.0326  10.0986  10.1488  10.3400  10.3918  12.1879  12.3108
    12.4222  12.4463  12.4900  12.5189  12.6967  12.7578  12.7956  12.8619
    12.9149  13.0770  13.3098  13.4518  13.5792  13.7355  13.8129  13.9561
    14.8237  14.9036  15.0184  15.1225  15.1600  15.3335  15.7968  16.2047
    16.2174  16.7420  16.8513  17.3351  17.4517

          k = 0.1667 0.1647 0.1661 ( 62419 PWs)   bands (ev):

   -66.0714 -66.0707 -66.0707 -66.0700 -66.0658 -66.0652 -66.0650 -66.0644
   -30.5217 -30.5177 -30.5121 -30.5090 -30.4617 -30.4605 -30.4533 -30.4400
   -30.4339 -30.4187 -30.4183 -30.4068 -30.3796 -30.3736 -30.3693 -30.3672
   -30.3578 -30.3574 -30.3572 -30.3502 -30.3005 -30.2974 -30.2946 -30.2897
   -20.2201 -20.2200 -20.2193 -20.2192 -20.2141 -20.2139 -20.2138 -20.2137
   -20.2046 -20.2045 -20.2028 -20.2025 -20.2023 -20.2020 -20.2010 -20.2009
   -20.2008 -20.2007 -20.2004 -20.2001 -20.1971 -20.1965 -20.1963 -20.1960
   -20.1954 -20.1949 -20.1925 -20.1922 -20.1918 -20.1908 -20.1900 -20.1895
   -20.1887 -20.1884 -20.1881 -20.1880 -20.1871 -20.1871 -20.1868 -20.1864
   -20.1860 -20.1842 -20.1841 -20.1830 -20.1759 -20.1757 -20.1747 -20.1747
   -20.1736 -20.1733 -20.1731 -20.1725 -20.1717 -20.1715 -20.1707 -20.1704
    -9.8203  -9.5159  -9.4819  -9.4797  -9.1311  -9.1179  -9.0908  -8.9175
    -8.8435  -8.7942  -8.7924  -8.7692  -8.0525  -8.0035  -7.9629  -7.9569
    -7.8610  -7.8293  -7.8203  -7.7870  -7.7597  -7.7509  -7.7010  -7.6903
     1.4769   1.5061   1.5303   1.5505   1.6303   1.6735   1.6984   1.7161
     1.8635   1.9047   1.9115   2.1372   2.6286   2.6578   2.7466   2.7841
     2.8138   2.8598   4.0447   4.1008   4.2168   4.2515   4.3214   4.3880
     4.4119   4.4322   4.4565   4.6060   4.6268   4.7084   5.0592   5.0911
     5.1348   5.3371   5.3703   5.3887   5.4233   5.4283   5.4880   5.6251
     5.7132   5.7506   5.8336   5.8805   5.9077   5.9580   5.9852   6.0846
     6.3110   6.4471   6.5044   6.6099   6.6508   6.6709   6.7402   6.7552
     6.7918   6.8685   6.9154   6.9291   6.9883   6.9964   7.0641   7.0808
     7.1467   7.1640   7.8800   7.9158   7.9430   7.9682   8.0428   8.0721
    10.1706  10.1885  10.2981  10.3090  10.3986  10.4798  12.2215  12.3392
    12.3657  12.4158  12.4889  12.5576  12.6325  12.7407  12.7906  12.8065
    12.9128  12.9444  13.3526  13.4403  13.5782  13.6689  13.7954  13.8414
    14.9259  15.0539  15.0900  15.1567  15.2261  15.4499  16.0759  16.1627
    16.2099  16.8636  16.9815  17.0419  17.5268

          k = 0.1667 0.1647 0.3322 ( 62416 PWs)   bands (ev):

   -66.0712 -66.0708 -66.0706 -66.0702 -66.0656 -66.0653 -66.0649 -66.0645
   -30.5130 -30.5099 -30.5057 -30.5035 -30.4711 -30.4696 -30.4518 -30.4451
   -30.4321 -30.4238 -30.4167 -30.4104 -30.3782 -30.3750 -30.3649 -30.3624
   -30.3593 -30.3585 -30.3473 -30.3399 -30.3092 -30.3040 -30.2998 -30.2978
   -20.2199 -20.2198 -20.2194 -20.2194 -20.2140 -20.2139 -20.2138 -20.2137
   -20.2042 -20.2040 -20.2031 -20.2029 -20.2023 -20.2021 -20.2010 -20.2008
   -20.2008 -20.2006 -20.2005 -20.2002 -20.1968 -20.1963 -20.1963 -20.1960
   -20.1957 -20.1952 -20.1925 -20.1923 -20.1916 -20.1911 -20.1896 -20.1892
   -20.1885 -20.1884 -20.1883 -20.1879 -20.1874 -20.1871 -20.1869 -20.1865
   -20.1857 -20.1847 -20.1840 -20.1833 -20.1755 -20.1752 -20.1749 -20.1741
   -20.1736 -20.1733 -20.1728 -20.1727 -20.1724 -20.1715 -20.1711 -20.1708
    -9.7119  -9.5241  -9.3805  -9.3288  -9.1575  -9.1228  -8.9383  -8.8664
    -8.8050  -8.7636  -8.6577  -8.6440  -8.3091  -8.2587  -8.0724  -8.0479
    -7.9783  -7.9323  -7.8563  -7.8307  -7.8122  -7.7886  -7.7464  -7.7127
     1.5321   1.5433   1.6790   1.6964   1.7075   1.7186   1.8370   1.9057
     2.2541   2.3916   2.4512   2.5601   2.6967   2.7781   2.8901   2.9826
     3.0128   3.0874   3.7415   3.8546   3.9457   3.9695   4.0074   4.2330
     4.3345   4.3607   4.3961   4.4479   4.4945   4.5989   4.7176   4.7407
     4.8786   4.9817   5.0306   5.0545   5.1968   5.2546   5.4383   5.4981
     5.6666   5.7264   5.7622   5.7969   5.8454   5.9122   5.9683   6.0233
     6.3582   6.4443   6.5684   6.5840   6.6465   6.7025   6.7594   6.7894
     6.8419   6.8734   6.9262   7.0041   7.0435   7.0756   7.1882   7.2070
     7.2536   7.3207   7.7928   7.8070   7.8671   7.8955   7.9584   7.9882
    10.2986  10.3090  10.7371  10.8259  10.8687  11.0075  12.0043  12.0933
    12.1937  12.3185  12.3431  12.4445  12.6234  12.6629  12.7435  12.8554
    12.9271  12.9957  13.2713  13.3248  13.4725  13.4780  13.6531  13.6674
    15.0586  15.1167  15.3338  15.4976  15.6892  15.8585  16.0210  16.1235
    16.5137  16.9165  17.2568  17.3939  17.4754

          k = 0.1667 0.1647-0.4982 ( 62380 PWs)   bands (ev):

   -66.0710 -66.0710 -66.0704 -66.0704 -66.0655 -66.0654 -66.0647 -66.0647
   -30.5111 -30.5111 -30.4878 -30.4878 -30.4853 -30.4852 -30.4493 -30.4493
   -30.4287 -30.4287 -30.4139 -30.4139 -30.3767 -30.3766 -30.3618 -30.3618
   -30.3600 -30.3600 -30.3288 -30.3287 -30.3226 -30.3226 -30.2989 -30.2989
   -20.2197 -20.2197 -20.2196 -20.2196 -20.2140 -20.2140 -20.2138 -20.2137
   -20.2036 -20.2036 -20.2034 -20.2034 -20.2022 -20.2022 -20.2009 -20.2009
   -20.2006 -20.2006 -20.2004 -20.2004 -20.1963 -20.1963 -20.1962 -20.1962
   -20.1956 -20.1956 -20.1924 -20.1924 -20.1913 -20.1913 -20.1892 -20.1891
   -20.1887 -20.1887 -20.1879 -20.1879 -20.1874 -20.1874 -20.1867 -20.1867
   -20.1852 -20.1852 -20.1837 -20.1836 -20.1752 -20.1752 -20.1744 -20.1744
   -20.1733 -20.1733 -20.1730 -20.1730 -20.1721 -20.1721 -20.1711 -20.1710
    -9.6015  -9.6015  -9.2413  -9.2413  -9.1938  -9.1938  -8.8260  -8.8260
    -8.6474  -8.6474  -8.5769  -8.5769  -8.3951  -8.3951  -8.3674  -8.3674
    -7.9738  -7.9738  -7.8446  -7.8446  -7.8020  -7.8020  -7.7297  -7.7297
     1.5373   1.5373   1.6936   1.6936   1.7173   1.7173   1.8980   1.8980
     2.7230   2.7230   3.0841   3.0841   3.1249   3.1249   3.1988   3.1988
     3.2644   3.2644   3.3747   3.3747   3.5847   3.5847   3.7282   3.7282
     3.8638   3.8638   4.3161   4.3161   4.4144   4.4144   4.7842   4.7842
     4.8690   4.8690   4.9788   4.9788   5.0540   5.0540   5.5222   5.5222
     5.6055   5.6055   5.7258   5.7258   5.8392   5.8392   5.9873   5.9873
     6.4427   6.4427   6.5506   6.5506   6.6851   6.6851   6.7645   6.7645
     6.8321   6.8321   6.9660   6.9661   7.0645   7.0646   7.5222   7.5222
     7.5679   7.5679   7.6068   7.6068   7.6629   7.6629   7.9600   7.9600
    10.3124  10.3124  11.3935  11.3935  11.4995  11.4995  11.5474  11.5474
    11.7215  11.7215  12.3981  12.3981  12.6850  12.6850  12.9230  12.9230
    13.0807  13.0807  13.1497  13.1497  13.2528  13.2528  13.6094  13.6094
    15.1004  15.1005  15.6887  15.6887  15.9039  15.9039  16.0932  16.0932
    16.7072  16.7072  17.6604  17.6605  17.8637

          k = 0.1667 0.3294 0.0000 ( 62420 PWs)   bands (ev):

   -66.0714 -66.0708 -66.0706 -66.0700 -66.0658 -66.0651 -66.0651 -66.0644
   -30.5261 -30.5226 -30.5126 -30.5082 -30.4534 -30.4525 -30.4492 -30.4396
   -30.4214 -30.4115 -30.4077 -30.3978 -30.3874 -30.3808 -30.3782 -30.3715
   -30.3688 -30.3658 -30.3649 -30.3567 -30.3009 -30.2971 -30.2893 -30.2846
   -20.2202 -20.2201 -20.2192 -20.2191 -20.2141 -20.2139 -20.2138 -20.2136
   -20.2048 -20.2047 -20.2025 -20.2024 -20.2022 -20.2020 -20.2010 -20.2009
   -20.2008 -20.2007 -20.2003 -20.2001 -20.1970 -20.1964 -20.1963 -20.1959
   -20.1949 -20.1943 -20.1926 -20.1923 -20.1915 -20.1907 -20.1899 -20.1898
   -20.1889 -20.1886 -20.1884 -20.1878 -20.1877 -20.1870 -20.1870 -20.1867
   -20.1865 -20.1843 -20.1842 -20.1829 -20.1761 -20.1758 -20.1749 -20.1746
   -20.1737 -20.1734 -20.1730 -20.1724 -20.1717 -20.1709 -20.1709 -20.1702
    -9.7777  -9.6081  -9.4742  -9.3743  -9.1847  -9.0955  -8.8834  -8.8763
    -8.8488  -8.7052  -8.6987  -8.6837  -8.1864  -8.1305  -8.1240  -8.0996
    -7.9889  -7.9190  -7.8985  -7.8196  -7.7650  -7.7001  -7.6465  -7.5800
     1.2614   1.2953   1.4335   1.4931   1.5894   1.7298   1.7657   1.8689
     2.3008   2.3860   2.4357   2.5384   2.5840   2.6441   2.8356   3.0286
     3.0488   3.0657   3.6704   3.6857   3.8115   3.8728   4.0683   4.3230
     4.3496   4.4707   4.5562   4.5767   4.6916   4.8298   4.8600   4.8798
     5.0112   5.0388   5.1658   5.2764   5.2989   5.5191   5.5367   5.6426
     5.6984   5.7200   5.7731   5.8237   5.9373   5.9714   5.9978   6.1066
     6.2985   6.3782   6.4620   6.5400   6.6488   6.7052   6.7294   6.8466
     6.9031   6.9545   6.9725   7.0047   7.0733   7.1116   7.1436   7.1683
     7.2024   7.2511   7.7867   7.8274   7.9045   7.9219   7.9742   7.9844
    10.0049  10.0666  10.5973  10.6399  10.8338  10.8906  11.9111  12.0345
    12.1463  12.2315  12.3653  12.4757  12.5650  12.7366  12.8316  12.8881
    12.9023  13.1034  13.1797  13.3438  13.4444  13.5873  13.7063  13.8082
    14.9658  15.0966  15.2023  15.3940  15.5211  15.7422  15.7845  16.1444
    16.2514  17.1326  17.2305  17.3883  17.6600

          k = 0.1667 0.3294 0.1661 ( 62424 PWs)   bands (ev):

   -66.0714 -66.0707 -66.0707 -66.0700 -66.0658 -66.0652 -66.0650 -66.0644
   -30.5209 -30.5173 -30.5122 -30.5085 -30.4573 -30.4555 -30.4488 -30.4412
   -30.4208 -30.4108 -30.4092 -30.3993 -30.3867 -30.3800 -30.3786 -30.3710
   -30.3686 -30.3651 -30.3619 -30.3528 -30.3007 -30.2974 -30.2947 -30.2898
   -20.2201 -20.2200 -20.2193 -20.2192 -20.2141 -20.2139 -20.2138 -20.2136
   -20.2046 -20.2045 -20.2026 -20.2025 -20.2022 -20.2021 -20.2010 -20.2009
   -20.2008 -20.2007 -20.2004 -20.2001 -20.1969 -20.1964 -20.1963 -20.1958
   -20.1950 -20.1944 -20.1926 -20.1923 -20.1915 -20.1908 -20.1898 -20.1896
   -20.1888 -20.1885 -20.1884 -20.1880 -20.1877 -20.1872 -20.1870 -20.1868
   -20.1864 -20.1844 -20.1842 -20.1831 -20.1759 -20.1757 -20.1747 -20.1747
   -20.1736 -20.1733 -20.1731 -20.1725 -20.1717 -20.1715 -20.1707 -20.1704
    -9.7268  -9.5561  -9.3983  -9.3867  -9.1128  -9.1092  -8.8608  -8.8557
    -8.8392  -8.6896  -8.6875  -8.6841  -8.1928  -8.1367  -8.1260  -8.1069
    -8.0042  -7.9843  -7.9358  -7.9211  -7.7638  -7.7565  -7.7040  -7.6931
     1.4940   1.5322   1.5418   1.5920   1.7367   1.7690   1.8439   1.9078
     2.3075   2.3907   2.4331   2.5454   2.6669   2.7304   2.8742   3.0395
     3.0898   3.1281   3.6950   3.7444   3.8044   3.8783   4.0468   4.3199
     4.3564   4.3742   4.4182   4.5036   4.5687   4.7236   4.7981   4.8166
     4.8679   4.9097   5.0787   5.0951   5.2593   5.3220   5.4240   5.4519
     5.6687   5.7150   5.7308   5.7464   5.8366   5.8760   5.9323   5.9758
     6.3825   6.5306   6.5624   6.6483   6.6858   6.7072   6.7310   6.7588
     6.9565   6.9853   7.0156   7.0390   7.0538   7.0693   7.1521   7.1721
     7.2142   7.2397   7.7849   7.8215   7.8824   7.8951   7.9411   7.9551
    10.2435  10.2599  10.7420  10.7660  10.8428  10.9294  11.9776  12.0834
    12.1416  12.2499  12.3934  12.4189  12.5849  12.6970  12.7717  12.8570
    12.8810  12.9252  13.1893  13.3301  13.3905  13.4604  13.7142  13.7245
    15.0742  15.1936  15.4331  15.4930  15.5834  15.7974  16.0652  16.1215
    16.3788  17.1039  17.2885  17.3875  17.4798

          k = 0.1667 0.3294 0.3322 ( 62418 PWs)   bands (ev):

   -66.0712 -66.0708 -66.0706 -66.0702 -66.0656 -66.0653 -66.0649 -66.0646
   -30.5119 -30.5094 -30.5059 -30.5029 -30.4691 -30.4661 -30.4476 -30.4439
   -30.4192 -30.4129 -30.4088 -30.4026 -30.3853 -30.3812 -30.3768 -30.3722
   -30.3679 -30.3658 -30.3485 -30.3409 -30.3093 -30.3040 -30.3000 -30.2980
   -20.2199 -20.2198 -20.2194 -20.2194 -20.2140 -20.2139 -20.2138 -20.2137
   -20.2042 -20.2040 -20.2030 -20.2028 -20.2022 -20.2021 -20.2009 -20.2008
   -20.2007 -20.2006 -20.2005 -20.2002 -20.1965 -20.1963 -20.1963 -20.1956
   -20.1953 -20.1947 -20.1926 -20.1924 -20.1913 -20.1910 -20.1895 -20.1894
   -20.1888 -20.1884 -20.1883 -20.1880 -20.1876 -20.1875 -20.1871 -20.1870
   -20.1860 -20.1849 -20.1840 -20.1834 -20.1755 -20.1752 -20.1749 -20.1742
   -20.1736 -20.1733 -20.1728 -20.1727 -20.1724 -20.1715 -20.1711 -20.1708
    -9.6104  -9.4280  -9.4170  -9.1984  -9.1587  -8.9198  -8.8933  -8.7737
    -8.7509  -8.6969  -8.6177  -8.6018  -8.3327  -8.2791  -8.1637  -8.1455
    -8.1127  -8.1017  -8.0204  -7.9889  -7.9530  -7.9162  -7.7511  -7.7161
     1.5794   1.5955   1.7584   1.7777   2.1474   2.2061   2.3019   2.3465
     2.4220   2.4442   2.5177   2.6593   2.9002   2.9314   2.9769   3.0351
     3.2698   3.3185   3.6978   3.7496   3.7980   3.8402   3.9243   3.9789
     4.0281   4.1801   4.2341   4.3393   4.4106   4.5126   4.5604   4.5999
     4.6985   4.8166   4.8591   4.9047   4.9379   5.0008   5.0583   5.2593
     5.3038   5.3685   5.3889   5.6315   5.7230   5.8462   5.8648   5.9106
     6.5237   6.5461   6.6384   6.6684   6.7793   6.8341   6.8698   6.9258
     6.9805   7.0136   7.0524   7.0934   7.1386   7.1606   7.2273   7.2669
     7.3143   7.3619   7.7425   7.7692   7.7952   7.8186   7.8464   7.8764
    10.7087  10.7752  10.8598  10.9440  11.1745  11.2750  11.9985  12.0881
    12.1695  12.1890  12.2714  12.3536  12.4796  12.5024  12.5650  12.6657
    12.8467  12.9520  13.0483  13.1392  13.2608  13.3315  13.5480  13.5672
    15.2405  15.4438  15.5795  15.9467  15.9803  16.1144  16.1845  16.7480
    16.8324  16.9189  17.0162  17.5132  17.6260

          k = 0.1667 0.3294-0.4982 ( 62388 PWs)   bands (ev):

   -66.0710 -66.0710 -66.0704 -66.0704 -66.0655 -66.0655 -66.0647 -66.0647
   -30.5105 -30.5105 -30.4870 -30.4870 -30.4838 -30.4838 -30.4460 -30.4460
   -30.4165 -30.4165 -30.4061 -30.4060 -30.3834 -30.3834 -30.3743 -30.3743
   -30.3668 -30.3668 -30.3291 -30.3290 -30.3229 -30.3229 -30.2990 -30.2990
   -20.2197 -20.2196 -20.2196 -20.2196 -20.2140 -20.2140 -20.2137 -20.2137
   -20.2036 -20.2036 -20.2034 -20.2034 -20.2022 -20.2022 -20.2008 -20.2008
   -20.2006 -20.2006 -20.2004 -20.2004 -20.1963 -20.1963 -20.1959 -20.1959
   -20.1951 -20.1951 -20.1925 -20.1925 -20.1912 -20.1912 -20.1892 -20.1892
   -20.1888 -20.1888 -20.1879 -20.1879 -20.1875 -20.1875 -20.1872 -20.1872
   -20.1855 -20.1855 -20.1837 -20.1837 -20.1752 -20.1752 -20.1744 -20.1744
   -20.1733 -20.1733 -20.1730 -20.1730 -20.1722 -20.1721 -20.1711 -20.1711
    -9.5001  -9.5001  -9.2614  -9.2614  -8.9922  -8.9922  -8.7156  -8.7156
    -8.6502  -8.6502  -8.5767  -8.5767  -8.3961  -8.3961  -8.3724  -8.3724
    -8.1261  -8.1261  -8.0785  -8.0785  -7.9474  -7.9474  -7.7337  -7.7336
     1.5891   1.5891   1.7789   1.7789   2.3035   2.3035   2.4151   2.4151
     2.9349   2.9349   3.1037   3.1037   3.1336   3.1336   3.2264   3.2264
     3.2838   3.2838   3.4350   3.4350   3.6321   3.6321   3.7807   3.7807
     3.9049   3.9049   4.0086   4.0086   4.1513   4.1513   4.3483   4.3483
     4.7270   4.7271   4.8880   4.8880   4.9518   4.9518   5.0464   5.0464
     5.1232   5.1232   5.4459   5.4459   5.7552   5.7552   5.8707   5.8707
     6.5757   6.5757   6.6759   6.6759   6.7976   6.7976   6.8740   6.8740
     7.0600   7.0600   7.1050   7.1050   7.1824   7.1824   7.5138   7.5138
     7.5487   7.5487   7.5863   7.5863   7.6354   7.6354   7.8422   7.8422
    10.8218  10.8218  11.4268  11.4268  11.5594  11.5594  11.7545  11.7545
    11.8675  11.8675  12.2270  12.2270  12.4955  12.4955  12.6826  12.6826
    12.8250  12.8250  12.9875  12.9875  13.2276  13.2276  13.4485  13.4485
    15.3756  15.3757  15.8390  15.8390  16.3584  16.3584  16.7303  16.7303
    16.9074  16.9074  17.3457  17.3457  17.8074

          k = 0.1667-0.4941 0.0000 ( 62442 PWs)   bands (ev):

   -66.0714 -66.0707 -66.0706 -66.0700 -66.0658 -66.0651 -66.0651 -66.0644
   -30.5259 -30.5224 -30.5126 -30.5079 -30.4515 -30.4475 -30.4471 -30.4421
   -30.4053 -30.4017 -30.4002 -30.3967 -30.3932 -30.3889 -30.3854 -30.3844
   -30.3708 -30.3683 -30.3670 -30.3579 -30.3010 -30.2972 -30.2894 -30.2846
   -20.2202 -20.2201 -20.2192 -20.2191 -20.2141 -20.2139 -20.2138 -20.2136
   -20.2048 -20.2047 -20.2024 -20.2023 -20.2022 -20.2021 -20.2010 -20.2009
   -20.2008 -20.2007 -20.2003 -20.2001 -20.1969 -20.1964 -20.1963 -20.1957
   -20.1947 -20.1939 -20.1926 -20.1924 -20.1912 -20.1907 -20.1902 -20.1893
   -20.1892 -20.1886 -20.1885 -20.1883 -20.1878 -20.1872 -20.1870 -20.1868
   -20.1867 -20.1843 -20.1842 -20.1830 -20.1761 -20.1758 -20.1749 -20.1746
   -20.1737 -20.1734 -20.1730 -20.1724 -20.1718 -20.1709 -20.1709 -20.1702
    -9.7011  -9.6596  -9.4423  -9.3292  -9.1750  -9.0881  -8.8781  -8.8666
    -8.5207  -8.5157  -8.4753  -8.4582  -8.4566  -8.4434  -8.4354  -8.4315
    -7.9963  -7.9230  -7.9027  -7.8212  -7.7660  -7.7011  -7.6472  -7.5806
     1.2614   1.2960   1.4328   1.4958   1.5935   1.7489   1.7725   1.8816
     2.6012   2.6149   2.9012   2.9038   2.9733   3.0199   3.2424   3.2702
     3.2971   3.3373   3.3432   3.4841   3.5342   3.6139   3.7596   3.8149
     3.8343   3.8569   4.3537   4.3621   4.5868   4.5979   4.9551   5.0111
     5.0661   5.0909   5.1335   5.2029   5.2567   5.3212   5.5699   5.5748
     5.6684   5.7249   5.7318   5.7774   5.8675   5.9665   5.9877   6.1212
     6.3412   6.3922   6.4390   6.4978   6.6036   6.6924   6.7340   6.7846
     6.9107   6.9660   6.9871   7.0022   7.1132   7.1529   7.4116   7.4445
     7.4559   7.5097   7.6283   7.6481   7.6682   7.6905   7.9721   7.9772
    10.0126  10.0717  11.1235  11.1718  11.3536  11.4050  11.4489  11.5597
    11.6630  11.7546  12.3739  12.4829  12.6835  12.7929  12.8013  12.8795
    13.0457  13.1221  13.1646  13.2618  13.2904  13.3147  13.6840  13.7440
    15.0257  15.0877  15.3456  15.6735  15.7470  15.7597  15.8057  16.0702
    16.6087  16.6223  17.7477  17.8541  17.9484

          k = 0.1667-0.4941 0.1661 ( 62446 PWs)   bands (ev):

   -66.0714 -66.0707 -66.0707 -66.0700 -66.0658 -66.0652 -66.0650 -66.0644
   -30.5205 -30.5171 -30.5122 -30.5082 -30.4558 -30.4519 -30.4467 -30.4424
   -30.4046 -30.4013 -30.3997 -30.3970 -30.3926 -30.3904 -30.3871 -30.3848
   -30.3706 -30.3672 -30.3631 -30.3536 -30.3008 -30.2974 -30.2947 -30.2899
   -20.2201 -20.2200 -20.2193 -20.2192 -20.2140 -20.2139 -20.2138 -20.2136
   -20.2046 -20.2045 -20.2026 -20.2024 -20.2022 -20.2021 -20.2009 -20.2008
   -20.2007 -20.2007 -20.2004 -20.2001 -20.1967 -20.1964 -20.1963 -20.1956
   -20.1948 -20.1940 -20.1926 -20.1925 -20.1912 -20.1907 -20.1901 -20.1892
   -20.1891 -20.1886 -20.1884 -20.1882 -20.1879 -20.1873 -20.1871 -20.1869
   -20.1866 -20.1845 -20.1842 -20.1831 -20.1759 -20.1758 -20.1747 -20.1747
   -20.1736 -20.1733 -20.1731 -20.1725 -20.1717 -20.1715 -20.1707 -20.1704
    -9.6353  -9.6207  -9.3604  -9.3405  -9.1048  -9.0995  -8.8449  -8.8353
    -8.5295  -8.5242  -8.4724  -8.4635  -8.4507  -8.4433  -8.4350  -8.4261
    -8.0099  -7.9927  -7.9400  -7.9288  -7.7639  -7.7583  -7.7048  -7.6941
     1.4951   1.5333   1.5426   1.5961   1.7423   1.7759   1.8822   1.9100
[...]
    11.3548  11.3548  11.4616  11.4616  11.5515  11.5515  11.6402  11.6402
    12.2082  12.2082  12.2288  12.2289  12.3097  12.3097  12.3359  12.3359
    12.9750  12.9750  13.0549  13.0549  13.1808  13.1808  13.2547  13.2547
    15.6472  15.6472  15.6831  15.6831  16.6608  16.6608  16.8819  16.8819
    17.3810  17.3810  17.4728  17.4733  17.5497

          k =-0.5000 0.3294 0.0000 ( 62402 PWs)   bands (ev):

   -66.0711 -66.0711 -66.0703 -66.0703 -66.0655 -66.0654 -66.0648 -66.0647
   -30.5244 -30.5244 -30.4788 -30.4788 -30.4744 -30.4744 -30.4505 -30.4505
   -30.4177 -30.4177 -30.4043 -30.4043 -30.3831 -30.3831 -30.3733 -30.3733
   -30.3632 -30.3632 -30.3360 -30.3360 -30.3323 -30.3323 -30.2871 -30.2871
   -20.2201 -20.2201 -20.2192 -20.2192 -20.2139 -20.2139 -20.2138 -20.2137
   -20.2047 -20.2047 -20.2024 -20.2024 -20.2015 -20.2015 -20.2013 -20.2013
   -20.2009 -20.2009 -20.2003 -20.2003 -20.1966 -20.1966 -20.1949 -20.1949
   -20.1942 -20.1942 -20.1940 -20.1940 -20.1905 -20.1905 -20.1894 -20.1894
   -20.1889 -20.1889 -20.1883 -20.1883 -20.1879 -20.1879 -20.1869 -20.1869
   -20.1855 -20.1855 -20.1836 -20.1836 -20.1755 -20.1755 -20.1748 -20.1748
   -20.1736 -20.1736 -20.1727 -20.1727 -20.1720 -20.1720 -20.1705 -20.1705
    -9.5808  -9.5807  -9.3314  -9.3314  -8.9847  -8.9846  -8.7423  -8.7422
    -8.6269  -8.6269  -8.5708  -8.5707  -8.3917  -8.3916  -8.3722  -8.3722
    -8.1187  -8.1187  -8.0764  -8.0764  -7.8524  -7.8524  -7.6132  -7.6132
     1.2839   1.2839   1.5049   1.5049   2.3007   2.3007   2.4053   2.4054
     2.9412   2.9412   3.0362   3.0362   3.0995   3.0995   3.2394   3.2394
     3.2922   3.2923   3.3975   3.3976   3.6038   3.6038   3.7397   3.7397
     3.8464   3.8464   3.9605   3.9606   4.2631   4.2631   4.4284   4.4284
     4.8783   4.8784   4.9251   4.9251   5.1103   5.1103   5.1675   5.1676
     5.3476   5.3476   5.6946   5.6947   6.0341   6.0342   6.0613   6.0613
     6.4192   6.4192   6.4791   6.4791   6.6780   6.6780   6.7982   6.7983
     7.0619   7.0619   7.1053   7.1053   7.1425   7.1426   7.5030   7.5030
     7.5321   7.5321   7.5942   7.5942   7.6444   7.6444   7.9220   7.9220
    10.6034  10.6034  11.3137  11.3137  11.4889  11.4889  11.6688  11.6688
    11.8811  11.8811  12.1535  12.1536  12.6746  12.6746  12.7044  12.7044
    12.9124  12.9124  13.1193  13.1193  13.2926  13.2926  13.6093  13.6093
    15.0841  15.0841  15.5552  15.5552  16.2638  16.2638  16.7010  16.7010
    16.7495  16.7495  17.3357  17.3357  17.8916

          k =-0.5000 0.3294 0.1661 ( 62376 PWs)   bands (ev):

   -66.0710 -66.0710 -66.0704 -66.0704 -66.0654 -66.0654 -66.0648 -66.0648
   -30.5191 -30.5191 -30.4784 -30.4784 -30.4748 -30.4748 -30.4545 -30.4544
   -30.4172 -30.4171 -30.4059 -30.4059 -30.3822 -30.3822 -30.3741 -30.3741
   -30.3587 -30.3587 -30.3358 -30.3358 -30.3325 -30.3325 -30.2924 -30.2924
   -20.2201 -20.2201 -20.2192 -20.2192 -20.2139 -20.2139 -20.2138 -20.2138
   -20.2046 -20.2046 -20.2025 -20.2025 -20.2015 -20.2015 -20.2014 -20.2013
   -20.2009 -20.2009 -20.2003 -20.2003 -20.1965 -20.1965 -20.1950 -20.1950
   -20.1943 -20.1942 -20.1940 -20.1940 -20.1904 -20.1904 -20.1894 -20.1894
   -20.1890 -20.1889 -20.1882 -20.1882 -20.1879 -20.1879 -20.1869 -20.1869
   -20.1854 -20.1854 -20.1838 -20.1837 -20.1753 -20.1753 -20.1748 -20.1748
   -20.1737 -20.1737 -20.1727 -20.1726 -20.1721 -20.1721 -20.1707 -20.1707
    -9.5105  -9.5105  -9.2649  -9.2649  -8.9980  -8.9979  -8.7206  -8.7206
    -8.6371  -8.6371  -8.5593  -8.5593  -8.3966  -8.3966  -8.3726  -8.3725
    -8.1174  -8.1174  -8.0818  -8.0818  -7.9590  -7.9590  -7.7251  -7.7251
     1.5348   1.5348   1.7466   1.7466   2.3084   2.3084   2.4012   2.4012
     2.9970   2.9970   3.0633   3.0633   3.1106   3.1107   3.2544   3.2545
     3.2968   3.2968   3.4595   3.4595   3.6353   3.6354   3.7697   3.7697
     3.8570   3.8570   3.9809   3.9809   4.2458   4.2458   4.4200   4.4200
     4.7109   4.7109   4.8563   4.8563   4.9582   4.9583   5.0258   5.0258
     5.1090   5.1091   5.4385   5.4385   5.7526   5.7526   5.8647   5.8647
     6.5775   6.5775   6.6705   6.6705   6.8325   6.8325   6.8921   6.8921
     7.0512   7.0512   7.1162   7.1162   7.1847   7.1847   7.4977   7.4977
     7.5293   7.5293   7.5962   7.5962   7.6400   7.6400   7.8960   7.8960
    10.7515  10.7515  11.4030  11.4030  11.5583  11.5583  11.6921  11.6921
    11.9044  11.9044  12.1974  12.1974  12.6396  12.6396  12.7013  12.7013
    12.8672  12.8672  13.0067  13.0067  13.1864  13.1864  13.4929  13.4929
    15.3659  15.3659  15.7983  15.7984  16.3439  16.3439  16.6955  16.6955
    16.7839  16.7839  17.3727  17.3727  17.7634

          k =-0.5000 0.3294 0.3322 ( 62368 PWs)   bands (ev):

   -66.0709 -66.0709 -66.0705 -66.0705 -66.0653 -66.0653 -66.0649 -66.0649
   -30.5047 -30.5047 -30.4774 -30.4774 -30.4760 -30.4760 -30.4661 -30.4661
   -30.4155 -30.4155 -30.4093 -30.4093 -30.3803 -30.3802 -30.3760 -30.3759
   -30.3455 -30.3455 -30.3351 -30.3351 -30.3332 -30.3332 -30.3068 -30.3068
   -20.2199 -20.2199 -20.2194 -20.2194 -20.2139 -20.2139 -20.2138 -20.2138
   -20.2041 -20.2041 -20.2029 -20.2029 -20.2015 -20.2015 -20.2014 -20.2014
   -20.2007 -20.2007 -20.2004 -20.2004 -20.1961 -20.1961 -20.1952 -20.1952
   -20.1943 -20.1943 -20.1941 -20.1941 -20.1902 -20.1902 -20.1895 -20.1895
   -20.1888 -20.1888 -20.1883 -20.1882 -20.1879 -20.1878 -20.1871 -20.1871
   -20.1851 -20.1851 -20.1842 -20.1842 -20.1746 -20.1746 -20.1745 -20.1745
   -20.1739 -20.1739 -20.1728 -20.1728 -20.1723 -20.1723 -20.1712 -20.1712
    -9.3316  -9.3316  -9.0855  -9.0855  -9.0433  -9.0433  -8.6838  -8.6837
    -8.6518  -8.6518  -8.5075  -8.5074  -8.4393  -8.4392  -8.3638  -8.3637
    -8.2084  -8.2083  -8.1076  -8.1076  -8.0907  -8.0907  -7.9874  -7.9874
     2.1523   2.1523   2.3122   2.3123   2.3463   2.3463   2.4982   2.4982
     3.0627   3.0627   3.1145   3.1145   3.1776   3.1776   3.2680   3.2680
     3.3745   3.3745   3.6098   3.6098   3.7178   3.7178   3.7825   3.7825
     3.9246   3.9246   4.0522   4.0522   4.1200   4.1200   4.2327   4.2327
     4.3777   4.3777   4.5587   4.5587   4.6171   4.6171   4.8136   4.8136
     4.8984   4.8984   5.0000   5.0000   5.0949   5.0949   5.3950   5.3950
     6.8294   6.8294   6.9432   6.9432   6.9883   6.9883   7.0462   7.0462
     7.1344   7.1344   7.2236   7.2236   7.3122   7.3122   7.4819   7.4819
     7.5180   7.5180   7.5974   7.5974   7.6228   7.6228   7.8121   7.8121
    11.1560  11.1560  11.6025  11.6025  11.7218  11.7219  11.8059  11.8059
    12.0091  12.0091  12.2930  12.2930  12.4031  12.4031  12.6052  12.6052
    12.7484  12.7484  12.7964  12.7964  12.8840  12.8840  13.1876  13.1876
    16.0884  16.0884  16.3704  16.3704  16.6086  16.6086  16.7366  16.7366
    16.9322  16.9322  17.3766  17.3766  17.5634

          k =-0.5000 0.3294-0.4982 ( 62316 PWs)   bands (ev):

   -66.0707 -66.0707 -66.0707 -66.0707 -66.0651 -66.0651 -66.0651 -66.0651
   -30.4861 -30.4861 -30.4858 -30.4858 -30.4757 -30.4757 -30.4754 -30.4754
   -30.4130 -30.4130 -30.4127 -30.4127 -30.3783 -30.3783 -30.3780 -30.3780
   -30.3345 -30.3345 -30.3341 -30.3341 -30.3265 -30.3264 -30.3260 -30.3260
   -20.2196 -20.2196 -20.2196 -20.2196 -20.2139 -20.2138 -20.2138 -20.2138
   -20.2035 -20.2035 -20.2035 -20.2035 -20.2015 -20.2015 -20.2014 -20.2014
   -20.2006 -20.2006 -20.2005 -20.2005 -20.1957 -20.1957 -20.1956 -20.1956
   -20.1943 -20.1943 -20.1942 -20.1942 -20.1900 -20.1899 -20.1898 -20.1897
   -20.1886 -20.1886 -20.1884 -20.1884 -20.1876 -20.1876 -20.1874 -20.1874
   -20.1848 -20.1848 -20.1846 -20.1845 -20.1743 -20.1742 -20.1742 -20.1742
   -20.1740 -20.1740 -20.1734 -20.1734 -20.1721 -20.1721 -20.1716 -20.1716
    -9.1551  -9.1551  -9.1425  -9.1425  -8.8562  -8.8561  -8.8285  -8.8285
    -8.5776  -8.5775  -8.5412  -8.5412  -8.3675  -8.3674  -8.3346  -8.3346
    -8.3240  -8.3239  -8.2816  -8.2816  -8.0866  -8.0866  -8.0816  -8.0816
     2.3124   2.3124   2.3180   2.3180   2.9757   2.9757   3.0116   3.0116
     3.0793   3.0793   3.0796   3.0796   3.2630   3.2630   3.3050   3.3050
     3.3885   3.3885   3.4275   3.4275   3.7146   3.7147   3.7266   3.7266
     3.8905   3.8905   3.9570   3.9571   4.1245   4.1245   4.1615   4.1615
     4.2535   4.2535   4.3484   4.3484   4.4342   4.4342   4.4585   4.4585
     4.7164   4.7164   4.7185   4.7185   5.1396   5.1396   5.1508   5.1509
     6.9213   6.9213   6.9821   6.9821   7.0111   7.0111   7.0666   7.0666
     7.3090   7.3090   7.3451   7.3451   7.4097   7.4097   7.4616   7.4616
     7.5350   7.5351   7.5484   7.5484   7.6367   7.6367   7.7133   7.7133
    11.6083  11.6083  11.6617  11.6617  11.7890  11.7890  11.8442  11.8442
    12.2129  12.2129  12.2245  12.2246  12.3192  12.3192  12.3404  12.3404
    12.6217  12.6217  12.6850  12.6850  12.8550  12.8550  12.9147  12.9148
    16.4832  16.4832  16.5232  16.5232  16.8303  16.8303  17.0001  17.0001
    17.2510  17.2510  17.4740  17.4743  17.5704

          k =-0.5000-0.4941 0.0000 ( 62432 PWs)   bands (ev):

   -66.0711 -66.0711 -66.0703 -66.0703 -66.0655 -66.0654 -66.0648 -66.0648
   -30.5242 -30.5242 -30.4783 -30.4783 -30.4735 -30.4734 -30.4494 -30.4494
   -30.4024 -30.4024 -30.3981 -30.3981 -30.3922 -30.3922 -30.3873 -30.3873
   -30.3642 -30.3642 -30.3363 -30.3363 -30.3325 -30.3325 -30.2871 -30.2871
   -20.2201 -20.2201 -20.2192 -20.2192 -20.2139 -20.2139 -20.2137 -20.2137
   -20.2047 -20.2047 -20.2023 -20.2023 -20.2015 -20.2015 -20.2013 -20.2013
   -20.2009 -20.2009 -20.2003 -20.2003 -20.1965 -20.1965 -20.1949 -20.1948
   -20.1942 -20.1942 -20.1939 -20.1939 -20.1900 -20.1900 -20.1899 -20.1899
   -20.1888 -20.1888 -20.1886 -20.1886 -20.1882 -20.1882 -20.1869 -20.1869
   -20.1856 -20.1856 -20.1836 -20.1836 -20.1755 -20.1755 -20.1748 -20.1748
   -20.1736 -20.1736 -20.1727 -20.1727 -20.1720 -20.1720 -20.1705 -20.1705
    -9.5373  -9.5373  -9.3379  -9.3379  -8.7954  -8.7954  -8.6603  -8.6602
    -8.6098  -8.6098  -8.5545  -8.5545  -8.4140  -8.4140  -8.3818  -8.3817
    -8.3123  -8.3122  -8.2634  -8.2633  -7.8541  -7.8541  -7.6138  -7.6138
     1.2845   1.2845   1.5075   1.5075   2.8272   2.8272   2.9855   2.9855
     3.0603   3.0603   3.0864   3.0864   3.1600   3.1600   3.2620   3.2620
     3.3098   3.3098   3.4258   3.4258   3.4681   3.4682   3.5092   3.5092
     3.7043   3.7043   3.9153   3.9153   4.2339   4.2339   4.3098   4.3098
     4.3611   4.3612   4.4338   4.4338   5.0917   5.0917   5.1603   5.1604
     5.3720   5.3721   5.5647   5.5647   6.0468   6.0468   6.0632   6.0632
     6.4452   6.4452   6.4991   6.4991   6.6843   6.6843   6.7228   6.7228
     7.2305   7.2305   7.2587   7.2587   7.3692   7.3692   7.4654   7.4654
     7.5533   7.5533   7.5770   7.5770   7.6106   7.6106   7.7384   7.7384
    11.0877  11.0877  11.3591  11.3591  11.4625  11.4625  11.5411  11.5411
    12.1144  12.1144  12.1676  12.1677  12.3477  12.3477  12.4145  12.4145
    12.9037  12.9037  13.1439  13.1439  13.3555  13.3555  13.3876  13.3876
    15.1631  15.1631  15.5733  15.5733  16.6584  16.6585  16.8438  16.8438
    17.3774  17.3774  17.4587  17.4587  17.5989

          k =-0.5000-0.4941 0.1661 ( 62392 PWs)   bands (ev):

   -66.0710 -66.0710 -66.0704 -66.0703 -66.0654 -66.0654 -66.0648 -66.0648
   -30.5188 -30.5188 -30.4779 -30.4779 -30.4737 -30.4737 -30.4537 -30.4537
   -30.4018 -30.4018 -30.3975 -30.3975 -30.3925 -30.3925 -30.3890 -30.3890
   -30.3593 -30.3593 -30.3361 -30.3361 -30.3327 -30.3327 -30.2925 -30.2925
   -20.2201 -20.2201 -20.2192 -20.2192 -20.2139 -20.2139 -20.2138 -20.2137
   -20.2046 -20.2046 -20.2025 -20.2025 -20.2015 -20.2015 -20.2014 -20.2013
   -20.2009 -20.2009 -20.2003 -20.2003 -20.1963 -20.1963 -20.1949 -20.1949
   -20.1942 -20.1942 -20.1939 -20.1939 -20.1900 -20.1899 -20.1898 -20.1898
   -20.1889 -20.1889 -20.1885 -20.1885 -20.1882 -20.1882 -20.1870 -20.1869
   -20.1855 -20.1855 -20.1838 -20.1838 -20.1753 -20.1753 -20.1748 -20.1748
   -20.1737 -20.1737 -20.1727 -20.1726 -20.1722 -20.1721 -20.1708 -20.1707
    -9.4590  -9.4589  -9.2744  -9.2744  -8.8085  -8.8085  -8.6782  -8.6782
    -8.5916  -8.5915  -8.5434  -8.5434  -8.4107  -8.4107  -8.3845  -8.3845
    -8.3105  -8.3105  -8.2659  -8.2658  -7.9635  -7.9635  -7.7258  -7.7258
     1.5376   1.5376   1.7519   1.7520   2.8524   2.8524   2.9964   2.9964
     3.0662   3.0662   3.1013   3.1013   3.1459   3.1459   3.2421   3.2421
     3.3788   3.3788   3.4470   3.4470   3.4827   3.4827   3.6041   3.6041
     3.7344   3.7344   3.9408   3.9408   4.2348   4.2349   4.2972   4.2972
     4.3631   4.3632   4.4212   4.4213   4.8382   4.8382   4.9274   4.9274
     5.1225   5.1225   5.2754   5.2754   5.7629   5.7629   5.7856   5.7856
     6.6135   6.6135   6.6891   6.6892   6.8465   6.8465   6.9140   6.9140
     7.2235   7.2235   7.2754   7.2754   7.3724   7.3724   7.4627   7.4627
     7.5300   7.5300   7.5842   7.5842   7.6089   7.6089   7.7307   7.7307
    11.1934  11.1934  11.4502  11.4502  11.5460  11.5460  11.6254  11.6254
    12.1133  12.1133  12.1803  12.1803  12.3516  12.3516  12.4145  12.4145
    12.8571  12.8571  13.0035  13.0035  13.2159  13.2159  13.2820  13.2820
    15.4683  15.4683  15.8307  15.8307  16.7223  16.7224  16.9047  16.9047
    17.3676  17.3677  17.4632  17.4632  17.5937

          k =-0.5000-0.4941 0.3322 ( 62392 PWs)   bands (ev):

   -66.0709 -66.0709 -66.0705 -66.0705 -66.0653 -66.0653 -66.0649 -66.0649
   -30.5043 -30.5043 -30.4770 -30.4770 -30.4746 -30.4746 -30.4663 -30.4663
   -30.4000 -30.4000 -30.3963 -30.3963 -30.3934 -30.3934 -30.3928 -30.3928
   -30.3456 -30.3456 -30.3354 -30.3354 -30.3334 -30.3334 -30.3069 -30.3069
   -20.2199 -20.2199 -20.2194 -20.2194 -20.2139 -20.2139 -20.2138 -20.2138
   -20.2041 -20.2041 -20.2029 -20.2029 -20.2015 -20.2014 -20.2014 -20.2014
   -20.2007 -20.2007 -20.2004 -20.2004 -20.1960 -20.1960 -20.1951 -20.1951
   -20.1943 -20.1943 -20.1941 -20.1941 -20.1898 -20.1898 -20.1896 -20.1896
   -20.1890 -20.1890 -20.1887 -20.1887 -20.1879 -20.1879 -20.1872 -20.1872
   -20.1852 -20.1852 -20.1842 -20.1842 -20.1746 -20.1746 -20.1745 -20.1745
   -20.1739 -20.1739 -20.1728 -20.1728 -20.1723 -20.1723 -20.1712 -20.1712
    -9.2433  -9.2433  -9.1141  -9.1141  -8.8534  -8.8534  -8.7543  -8.7543
    -8.5368  -8.5368  -8.4917  -8.4917  -8.4017  -8.4016  -8.3912  -8.3912
    -8.3076  -8.3075  -8.2793  -8.2792  -8.2012  -8.2011  -7.9991  -7.9991
     2.2093   2.2093   2.3928   2.3928   2.9077   2.9077   2.9919   2.9919
     3.0728   3.0728   3.1356   3.1356   3.1667   3.1667   3.2223   3.2223
     3.4362   3.4362   3.4749   3.4749   3.6032   3.6032   3.8069   3.8069
     3.8585   3.8585   4.0151   4.0152   4.1500   4.1500   4.2463   4.2463
     4.3336   4.3336   4.3623   4.3623   4.4659   4.4659   4.5310   4.5310
     4.6836   4.6836   4.8006   4.8006   5.0383   5.0383   5.0576   5.0576
     6.9035   6.9035   7.0424   7.0425   7.1053   7.1054   7.1399   7.1399
     7.2186   7.2186   7.3512   7.3512   7.3731   7.3732   7.4426   7.4426
     7.5122   7.5122   7.5902   7.5902   7.5975   7.5975   7.6963   7.6963
    11.4987  11.4987  11.6967  11.6967  11.7909  11.7909  11.8754  11.8754
    12.1069  12.1069  12.2255  12.2255  12.3349  12.3349  12.4259  12.4259
    12.5421  12.5421  12.6894  12.6894  12.8562  12.8562  12.9495  12.9495
    16.2931  16.2931  16.5536  16.5536  16.9057  16.9058  17.0729  17.0729
    17.3075  17.3075  17.4660  17.4660  17.5742

          k =-0.5000-0.4941-0.4982 ( 62352 PWs)   bands (ev):

   -66.0707 -66.0707 -66.0707 -66.0707 -66.0651 -66.0651 -66.0651 -66.0651
   -30.4851 -30.4851 -30.4848 -30.4848 -30.4759 -30.4759 -30.4755 -30.4755
   -30.3974 -30.3973 -30.3969 -30.3969 -30.3946 -30.3946 -30.3945 -30.3945
   -30.3347 -30.3346 -30.3342 -30.3342 -30.3266 -30.3266 -30.3262 -30.3262
   -20.2196 -20.2196 -20.2196 -20.2196 -20.2139 -20.2138 -20.2138 -20.2138
   -20.2035 -20.2035 -20.2035 -20.2034 -20.2014 -20.2014 -20.2014 -20.2014
   -20.2006 -20.2006 -20.2005 -20.2005 -20.1955 -20.1955 -20.1955 -20.1954
   -20.1943 -20.1943 -20.1942 -20.1942 -20.1897 -20.1897 -20.1895 -20.1895
   -20.1890 -20.1890 -20.1889 -20.1889 -20.1876 -20.1876 -20.1874 -20.1874
   -20.1849 -20.1849 -20.1846 -20.1846 -20.1743 -20.1742 -20.1742 -20.1742
   -20.1740 -20.1740 -20.1734 -20.1734 -20.1721 -20.1721 -20.1716 -20.1716
    -8.9886  -8.9885  -8.9475  -8.9475  -8.9412  -8.9412  -8.9411  -8.9411
    -8.4785  -8.4784  -8.4285  -8.4284  -8.4034  -8.4033  -8.3839  -8.3839
    -8.3113  -8.3113  -8.2949  -8.2948  -8.2749  -8.2749  -8.2562  -8.2561
     2.8871   2.8871   2.9215   2.9216   2.9500   2.9501   2.9600   2.9601
     3.1078   3.1078   3.1779   3.1779   3.2199   3.2199   3.2732   3.2733
     3.3589   3.3590   3.4238   3.4238   3.5307   3.5307   3.5319   3.5319
     4.0905   4.0905   4.1550   4.1550   4.1608   4.1608   4.1828   4.1828
     4.2853   4.2853   4.3424   4.3424   4.3590   4.3590   4.3942   4.3942
     4.4672   4.4673   4.4993   4.4993   4.5428   4.5428   4.5820   4.5820
     7.0584   7.0584   7.1272   7.1272   7.1708   7.1708   7.2663   7.2663
     7.2968   7.2969   7.3136   7.3136   7.3913   7.3913   7.4433   7.4433
     7.5658   7.5658   7.5695   7.5695   7.5963   7.5963   7.6388   7.6389
    11.8978  11.8978  11.9170  11.9170  11.9737  11.9737  11.9848  11.9848
    12.1768  12.1768  12.1918  12.1918  12.2788  12.2789  12.3668  12.3668
    12.4131  12.4131  12.4886  12.4887  12.5645  12.5645  12.5786  12.5786
    16.9914  16.9914  17.0556  17.0556  17.0639  17.0640  17.1953  17.1953
    17.4962  17.4962  17.5422  17.5435  17.5435

     the Fermi energy is    10.0317 ev

!    total energy              =   -6260.66130516 Ry
     Harris-Foulkes estimate   =   -6260.66130516 Ry
     estimated scf accuracy    <          4.2E-09 Ry

     The total energy is the sum of the following terms:

     one-electron contribution =   -4721.51109085 Ry
     hartree contribution      =    2598.79385516 Ry
     xc contribution           =    -966.31709178 Ry
     ewald contribution        =   -3171.62695748 Ry
     smearing contrib. (-TS)   =      -0.00002022 Ry

     convergence has been achieved in  14 iterations

     Writing output data file Landau_18.save
 
     init_run     :     35.11s CPU     36.66s WALL (       1 calls)
     electrons    :   1708.75s CPU   1739.96s WALL (       1 calls)

     Called by init_run:
     wfcinit      :     31.73s CPU     33.16s WALL (       1 calls)
     potinit      :      1.38s CPU      1.40s WALL (       1 calls)

     Called by electrons:
     c_bands      :   1521.07s CPU   1550.71s WALL (      14 calls)
     sum_band     :    177.77s CPU    178.62s WALL (      14 calls)
     v_of_rho     :      1.73s CPU      1.76s WALL (      15 calls)
     mix_rho      :      2.71s CPU      3.27s WALL (      14 calls)

     Called by c_bands:
     init_us_2    :     11.16s CPU     11.65s WALL (      58 calls)
     cegterg      :   1076.21s CPU   1104.63s WALL (      28 calls)

     Called by sum_band:

     Called by *egterg:
     h_psi        :    823.41s CPU    826.89s WALL (     116 calls)
     g_psi        :      3.88s CPU      3.88s WALL (      86 calls)
     cdiaghg      :     13.24s CPU     13.26s WALL (     114 calls)

     Called by h_psi:
     h_psi:pot    :    817.54s CPU    820.79s WALL (     116 calls)
     h_psi:calbec :    111.43s CPU    113.98s WALL (     116 calls)
     vloc_psi     :    588.15s CPU    588.62s WALL (     116 calls)
     add_vuspsi   :    117.96s CPU    118.19s WALL (     116 calls)

     General routines
     calbec       :    111.43s CPU    113.98s WALL (     116 calls)
     fft          :      0.99s CPU      1.00s WALL (      60 calls)
     fftw         :    606.97s CPU    607.16s WALL (   35436 calls)
 
     Parallel routines
 
     PWSCF        : 29m 7.28s CPU    29m48.80s WALL

 
   This run was terminated on:  20:28:20  25Mar2020            

=------------------------------------------------------------------------------=
   JOB DONE.
=------------------------------------------------------------------------------=
