
     Program PWSCF v.6.4.1 starts on 19Nov2019 at 22:17:18 

     This program is part of the open-source Quantum ESPRESSO suite
     for quantum simulation of materials; please cite
         "P. Giannozzi et al., J. Phys.:Condens. Matter 21 395502 (2009);
         "P. Giannozzi et al., J. Phys.:Condens. Matter 29 465901 (2017);
          URL http://www.quantum-espresso.org", 
     in publications or presentations arising from this work. More details at
     http://www.quantum-espresso.org/quote

     Parallel version (MPI), running on    40 processors

     MPI processes distributed on     8 nodes
     K-points division:     npool     =      40
     Reading input from scf.in

     Current dimensions of program PWSCF are:
     Max number of different atomic species (ntypx) = 10
     Max number of k-points (npk) =  40000
     Max angular momentum in pseudopotentials (lmaxx) =  3

     Subspace diagonalization in iterative solution of the eigenvalue problem:
     a serial algorithm will be used

     Message from routine setup:
     using ibrav=0 with symmetry is DISCOURAGED, use correct ibrav instead
 
     G-vector sticks info
     --------------------
     sticks:   dense  smooth     PW     G-vecs:    dense   smooth      PW
     Sum        3729    3729   1009               252461   252461   35981
 


     bravais-lattice index     =            0
     lattice parameter (alat)  =       9.8862  a.u.
     unit-cell volume          =    1421.4019 (a.u.)^3
     number of atoms/cell      =           16
     number of atomic types    =            2
     number of electrons       =       184.07
     number of Kohn-Sham states=          110
     kinetic-energy cutoff     =     120.0000  Ry
     charge density cutoff     =     480.0000  Ry
     convergence threshold     =      1.0E-08
     mixing beta               =       0.7000
     number of iterations used =            8  plain     mixing
     Exchange-correlation      = SLA PW NOGX NOGC ( 1  4  0  0 0 0)

     celldm(1)=   9.886183  celldm(2)=   0.000000  celldm(3)=   0.000000
     celldm(4)=   0.000000  celldm(5)=   0.000000  celldm(6)=   0.000000

     crystal axes: (cart. coord. in units of alat)
               a(1) = (   1.000000   0.000000   0.000000 )  
               a(2) = (   0.000000   1.000000   0.000000 )  
               a(3) = (   0.000000   0.000000   1.471062 )  

     reciprocal axes: (cart. coord. in units 2 pi/alat)
               b(1) = (  1.000000  0.000000  0.000000 )  
               b(2) = (  0.000000  1.000000  0.000000 )  
               b(3) = (  0.000000  0.000000  0.679781 )  


     PseudoPot. # 1 for W  read from file:
     /cluster/scratch/mnoe/QE/pps/W_ONCV_LDA-4.0.upf
     MD5 check sum: ba0307d5d4cd419d6f1d13dc49d7c13a
     Pseudo is Norm-conserving + core correction, Zval = 28.0
     Generated using ONCVPSP code by D. R. Hamann
     Using radial grid of 1380 points,  8 beta functions with: 
                l(1) =   0
                l(2) =   0
                l(3) =   1
                l(4) =   1
                l(5) =   2
                l(6) =   2
                l(7) =   3
                l(8) =   3

     PseudoPot. # 2 for O  read from file:
     /cluster/scratch/mnoe/QE/pps/O_ONCV_LDA-3.0.upf
     MD5 check sum: b55cdb4f45ae2203d24ad12cf8d61a31
     Pseudo is Norm-conserving + core correction, Zval =  6.0
     Generated using ONCVPSP code by D. R. Hamann
     Using radial grid of  926 points,  5 beta functions with: 
                l(1) =   0
                l(2) =   0
                l(3) =   1
                l(4) =   1
                l(5) =   2

     atomic species   valence    mass     pseudopotential
        W             28.00   183.84000     W ( 1.00)
        O              6.00    15.99940     O ( 1.00)

     16 Sym. Ops., with inversion, found (14 have fractional translation)



   Cartesian axes

     site n.     atom                  positions (alat units)
         1           W   tau(   1) = (   0.2500000   0.2500000   0.3148750  )
         2           W   tau(   2) = (   0.7500000   0.7500000   1.1561869  )
         3           W   tau(   3) = (   0.7500000   0.7500000   0.4206560  )
         4           W   tau(   4) = (   0.2500000   0.2500000   1.0504058  )
         5           O   tau(   5) = (   0.2500000   0.2500000   0.7119357  )
         6           O   tau(   6) = (   0.7500000   0.7500000   0.7591261  )
         7           O   tau(   7) = (   0.7500000   0.7500000   0.0235952  )
         8           O   tau(   8) = (   0.2500000   0.2500000   1.4474666  )
         9           O   tau(   9) = (   0.4704749   0.5295250   0.3677655  )
        10           O   tau(  10) = (   0.5295251   0.4704750   1.1032964  )
        11           O   tau(  11) = (   0.0295250   0.9704750   0.3677655  )
        12           O   tau(  12) = (   0.9704749   0.0295251   1.1032964  )
        13           O   tau(  13) = (   0.9704750   0.4704749   0.3677655  )
        14           O   tau(  14) = (   0.0295251   0.5295251   1.1032964  )
        15           O   tau(  15) = (   0.5295250   0.0295250   0.3677655  )
        16           O   tau(  16) = (   0.4704750   0.9704749   1.1032964  )

     number of k points=    40  gaussian smearing, width (Ry)=  0.0007
                       cart. coord. in units 2pi/alat
        k(    1) = (   0.0000000   0.0000000   0.0000000), wk =   0.0092593
        k(    2) = (   0.0000000   0.0000000   0.1132968), wk =   0.0185185
        k(    3) = (   0.0000000   0.0000000   0.2265937), wk =   0.0185185
        k(    4) = (   0.0000000   0.0000000  -0.3398905), wk =   0.0092593
        k(    5) = (   0.0000000   0.1666667   0.0000000), wk =   0.0370370
        k(    6) = (   0.0000000   0.1666667   0.1132968), wk =   0.0740741
        k(    7) = (   0.0000000   0.1666667   0.2265937), wk =   0.0740741
        k(    8) = (   0.0000000   0.1666667  -0.3398905), wk =   0.0370370
        k(    9) = (   0.0000000   0.3333333   0.0000000), wk =   0.0370370
        k(   10) = (   0.0000000   0.3333333   0.1132968), wk =   0.0740741
        k(   11) = (   0.0000000   0.3333333   0.2265937), wk =   0.0740741
        k(   12) = (   0.0000000   0.3333333  -0.3398905), wk =   0.0370370
        k(   13) = (   0.0000000  -0.5000000   0.0000000), wk =   0.0185185
        k(   14) = (   0.0000000  -0.5000000   0.1132968), wk =   0.0370370
        k(   15) = (   0.0000000  -0.5000000   0.2265937), wk =   0.0370370
        k(   16) = (   0.0000000  -0.5000000  -0.3398905), wk =   0.0185185
        k(   17) = (   0.1666667   0.1666667   0.0000000), wk =   0.0370370
        k(   18) = (   0.1666667   0.1666667   0.1132968), wk =   0.0740741
        k(   19) = (   0.1666667   0.1666667   0.2265937), wk =   0.0740741
        k(   20) = (   0.1666667   0.1666667  -0.3398905), wk =   0.0370370
        k(   21) = (   0.1666667   0.3333333   0.0000000), wk =   0.0740741
        k(   22) = (   0.1666667   0.3333333   0.1132968), wk =   0.1481481
        k(   23) = (   0.1666667   0.3333333   0.2265937), wk =   0.1481481
        k(   24) = (   0.1666667   0.3333333  -0.3398905), wk =   0.0740741
        k(   25) = (   0.1666667  -0.5000000   0.0000000), wk =   0.0370370
        k(   26) = (   0.1666667  -0.5000000   0.1132968), wk =   0.0740741
        k(   27) = (   0.1666667  -0.5000000   0.2265937), wk =   0.0740741
        k(   28) = (   0.1666667  -0.5000000  -0.3398905), wk =   0.0370370
        k(   29) = (   0.3333333   0.3333333   0.0000000), wk =   0.0370370
        k(   30) = (   0.3333333   0.3333333   0.1132968), wk =   0.0740741
        k(   31) = (   0.3333333   0.3333333   0.2265937), wk =   0.0740741
        k(   32) = (   0.3333333   0.3333333  -0.3398905), wk =   0.0370370
        k(   33) = (   0.3333333  -0.5000000   0.0000000), wk =   0.0370370
        k(   34) = (   0.3333333  -0.5000000   0.1132968), wk =   0.0740741
        k(   35) = (   0.3333333  -0.5000000   0.2265937), wk =   0.0740741
        k(   36) = (   0.3333333  -0.5000000  -0.3398905), wk =   0.0370370
        k(   37) = (  -0.5000000  -0.5000000   0.0000000), wk =   0.0092593
        k(   38) = (  -0.5000000  -0.5000000   0.1132968), wk =   0.0185185
        k(   39) = (  -0.5000000  -0.5000000   0.2265937), wk =   0.0185185
        k(   40) = (  -0.5000000  -0.5000000  -0.3398905), wk =   0.0092593

     Dense  grid:   252461 G-vectors     FFT dimensions: (  72,  72, 108)

     Estimated max dynamical RAM per process >     787.11 MB

     Estimated total dynamical RAM >      30.75 GB

     Initial potential from superposition of free atoms

     starting charge  183.99828, renormalised to  184.07500
     Starting wfcs are  116 randomized atomic wfcs

     total cpu time spent up to now is        4.7 secs

     Self-consistent Calculation

     iteration #  1     ecut=   120.00 Ry     beta= 0.70
     Davidson diagonalization with overlap
     ethr =  1.00E-02,  avg # of iterations =  4.2

     total cpu time spent up to now is       16.1 secs

     total energy              =   -3126.87608365 Ry
     Harris-Foulkes estimate   =   -3132.26525841 Ry
     estimated scf accuracy    <       6.81325102 Ry

     iteration #  2     ecut=   120.00 Ry     beta= 0.70
     Davidson diagonalization with overlap
     ethr =  3.70E-03,  avg # of iterations =  3.2

     total cpu time spent up to now is       27.2 secs

     total energy              =   -3125.30333772 Ry
     Harris-Foulkes estimate   =   -3135.42105994 Ry
     estimated scf accuracy    <      27.16728412 Ry

     iteration #  3     ecut=   120.00 Ry     beta= 0.70
     Davidson diagonalization with overlap
     ethr =  3.70E-03,  avg # of iterations =  3.1

     total cpu time spent up to now is       37.2 secs

     total energy              =   -3130.48859785 Ry
     Harris-Foulkes estimate   =   -3130.62739026 Ry
     estimated scf accuracy    <       0.46183523 Ry

     iteration #  4     ecut=   120.00 Ry     beta= 0.70
     Davidson diagonalization with overlap
     ethr =  2.51E-04,  avg # of iterations =  2.4

     total cpu time spent up to now is       45.7 secs

     total energy              =   -3130.48270470 Ry
     Harris-Foulkes estimate   =   -3130.52109577 Ry
     estimated scf accuracy    <       0.11090860 Ry

     iteration #  5     ecut=   120.00 Ry     beta= 0.70
     Davidson diagonalization with overlap
     ethr =  6.03E-05,  avg # of iterations =  4.0

     total cpu time spent up to now is       55.1 secs

     total energy              =   -3130.48856490 Ry
     Harris-Foulkes estimate   =   -3130.50167086 Ry
     estimated scf accuracy    <       0.03065239 Ry

     iteration #  6     ecut=   120.00 Ry     beta= 0.70
     Davidson diagonalization with overlap
     ethr =  1.67E-05,  avg # of iterations =  3.7

     total cpu time spent up to now is       65.0 secs

     total energy              =   -3130.49464073 Ry
     Harris-Foulkes estimate   =   -3130.49607884 Ry
     estimated scf accuracy    <       0.00360446 Ry

     iteration #  7     ecut=   120.00 Ry     beta= 0.70
     Davidson diagonalization with overlap
     ethr =  1.96E-06,  avg # of iterations =  3.6

     total cpu time spent up to now is       74.2 secs

     total energy              =   -3130.49520131 Ry
     Harris-Foulkes estimate   =   -3130.49521622 Ry
     estimated scf accuracy    <       0.00002572 Ry

     iteration #  8     ecut=   120.00 Ry     beta= 0.70
     Davidson diagonalization with overlap
     ethr =  1.40E-08,  avg # of iterations =  4.0

     total cpu time spent up to now is       85.4 secs

     total energy              =   -3130.49521894 Ry
     Harris-Foulkes estimate   =   -3130.49522345 Ry
     estimated scf accuracy    <       0.00001813 Ry

     iteration #  9     ecut=   120.00 Ry     beta= 0.70
     Davidson diagonalization with overlap
     ethr =  9.85E-09,  avg # of iterations =  1.8

     total cpu time spent up to now is       94.1 secs

     total energy              =   -3130.49521790 Ry
     Harris-Foulkes estimate   =   -3130.49522003 Ry
     estimated scf accuracy    <       0.00000541 Ry

     iteration # 10     ecut=   120.00 Ry     beta= 0.70
     Davidson diagonalization with overlap
     ethr =  2.94E-09,  avg # of iterations =  3.0

     total cpu time spent up to now is      102.5 secs

     total energy              =   -3130.49521890 Ry
     Harris-Foulkes estimate   =   -3130.49521893 Ry
     estimated scf accuracy    <       0.00000005 Ry

     iteration # 11     ecut=   120.00 Ry     beta= 0.70
     Davidson diagonalization with overlap
     ethr =  2.96E-11,  avg # of iterations =  2.5

     total cpu time spent up to now is      112.7 secs

     End of self-consistent calculation

          k = 0.0000 0.0000 0.0000 ( 31575 PWs)   bands (ev):

   -66.3660 -66.3656 -66.3645 -66.3641 -30.7459 -30.7406 -30.7019 -30.7019
   -30.6983 -30.6983 -30.6808 -30.6767 -30.6169 -30.6169 -30.6139 -30.6139
   -20.5261 -20.5261 -20.5260 -20.5260 -20.5085 -20.5083 -20.5041 -20.5041
   -20.5037 -20.5037 -20.5028 -20.5028 -20.5026 -20.5026 -20.5024 -20.5021
   -20.4989 -20.4987 -20.4984 -20.4984 -20.4974 -20.4974 -20.4965 -20.4965
   -20.4917 -20.4917 -20.4908 -20.4908 -10.1476  -9.8161  -9.3345  -9.1947
    -9.1758  -9.0610  -8.0132  -7.9005  -7.8658  -7.8658  -7.8425  -7.8425
     0.9471   0.9474   1.0814   1.3257   1.3310   1.4977   2.3107   2.4059
     2.4327   2.4327   3.9581   3.9581   4.7140   4.7140   4.8757   5.4067
     5.4067   5.4153   5.4153   5.6591   5.6591   5.7917   5.8211   6.5353
     6.5353   6.7011   6.9312   6.9407   7.0856   7.0856   7.1086   7.1086
     8.0137   8.0137   8.0188   8.0213   8.8835   8.8852   9.6117   9.6117
    12.2267  12.2267  13.1631  13.1664  13.1961  13.1961  13.4880  14.0255
    14.0255  14.6043  14.6553  14.6607  15.3720  16.4556

          k = 0.0000 0.0000 0.1133 ( 31567 PWs)   bands (ev):

   -66.3660 -66.3656 -66.3645 -66.3641 -30.7415 -30.7364 -30.7017 -30.7017
   -30.6985 -30.6985 -30.6852 -30.6810 -30.6167 -30.6167 -30.6141 -30.6141
   -20.5261 -20.5261 -20.5260 -20.5260 -20.5081 -20.5079 -20.5041 -20.5041
   -20.5038 -20.5038 -20.5028 -20.5028 -20.5028 -20.5026 -20.5026 -20.5025
   -20.4989 -20.4988 -20.4984 -20.4984 -20.4973 -20.4973 -20.4965 -20.4965
   -20.4916 -20.4916 -20.4909 -20.4909 -10.1137  -9.8291  -9.2565  -9.1934
    -9.1770  -9.0154  -8.1165  -8.0151  -7.8643  -7.8643  -7.8440  -7.8440
     0.9471   0.9474   1.2155   1.3304   1.4986   1.6961   2.3169   2.3993
     2.5024   2.5024   3.7968   3.7968   4.6302   4.7269   4.7269   5.3098
     5.3098   5.4544   5.4544   5.4550   5.7840   5.7840   5.8326   6.5591
     6.5591   6.7163   6.7539   6.9156   7.0876   7.0876   7.1074   7.1074
     7.9490   7.9490   8.0203   8.0213   8.8836   8.8851   9.8210   9.8210
    12.0742  12.0742  13.1633  13.1661  13.2177  13.2177  13.7966  13.9327
    13.9327  14.6557  14.6604  14.7994  15.7824  16.1537

          k = 0.0000 0.0000 0.2266 ( 31559 PWs)   bands (ev):

   -66.3659 -66.3657 -66.3644 -66.3642 -30.7297 -30.7248 -30.7010 -30.7010
   -30.6992 -30.6992 -30.6972 -30.6928 -30.6162 -30.6162 -30.6147 -30.6147
   -20.5261 -20.5261 -20.5261 -20.5260 -20.5070 -20.5068 -20.5040 -20.5040
   -20.5039 -20.5038 -20.5038 -20.5037 -20.5028 -20.5028 -20.5026 -20.5026
   -20.4988 -20.4988 -20.4984 -20.4984 -20.4972 -20.4972 -20.4967 -20.4967
   -20.4915 -20.4915 -20.4910 -20.4910 -10.0306  -9.8695  -9.1900  -9.1805
    -9.0356  -8.8716  -8.3796  -8.3014  -7.8600  -7.8600  -7.8483  -7.8483
     0.9472   0.9474   1.3040   1.3282   2.0949   2.3339   2.3815   2.3964
     2.7064   2.7064   3.4233   3.4233   3.9359   4.5352   4.8449   4.8449
     5.2079   5.2079   5.4884   5.4884   5.7211   5.7211   5.9530   6.4220
     6.7581   6.8666   6.8666   6.8732   7.0906   7.0906   7.1090   7.1090
     7.7243   7.7243   8.0214   8.0214   8.8841   8.8849  10.3536  10.3536
    11.6404  11.6404  13.1639  13.1655  13.3046  13.3046  13.7122  13.7122
    14.3921  14.6568  14.6595  15.4341  15.5861  16.8062

          k = 0.0000 0.0000-0.3399 ( 31578 PWs)   bands (ev):

   -66.3658 -66.3658 -66.3643 -66.3643 -30.7135 -30.7135 -30.7088 -30.7088
   -30.7001 -30.7001 -30.7001 -30.7001 -30.6154 -30.6154 -30.6154 -30.6154
   -20.5261 -20.5261 -20.5260 -20.5260 -20.5055 -20.5055 -20.5052 -20.5052
   -20.5039 -20.5039 -20.5039 -20.5039 -20.5027 -20.5027 -20.5027 -20.5027
   -20.4988 -20.4988 -20.4984 -20.4984 -20.4969 -20.4969 -20.4969 -20.4969
   -20.4913 -20.4913 -20.4913 -20.4913  -9.9392  -9.9392  -9.1852  -9.1852
    -8.7155  -8.7155  -8.6240  -8.6239  -7.8542  -7.8542  -7.8542  -7.8542
     0.9473   0.9473   1.3223   1.3223   2.3575   2.3575   2.9968   2.9968
     3.0270   3.0270   3.0270   3.0270   3.4182   3.4182   5.0420   5.0420
     5.0420   5.0420   5.5667   5.5667   5.5667   5.5667   6.1488   6.1488
     6.8155   6.8155   7.0896   7.0896   7.0896   7.0896   7.3444   7.3444
     7.3444   7.3444   8.0215   8.0215   8.8846   8.8846  11.0185  11.0185
    11.0185  11.0185  13.1647  13.1647  13.4768  13.4768  13.4768  13.4768
    14.6582  14.6582  14.9836  14.9836  16.2906  16.2906

          k = 0.0000 0.1667 0.0000 ( 31583 PWs)   bands (ev):

   -66.3659 -66.3655 -66.3646 -66.3642 -30.7460 -30.7412 -30.6978 -30.6963
   -30.6927 -30.6923 -30.6791 -30.6775 -30.6227 -30.6223 -30.6196 -30.6195
   -20.5261 -20.5261 -20.5260 -20.5260 -20.5085 -20.5083 -20.5041 -20.5040
   -20.5037 -20.5037 -20.5029 -20.5029 -20.5027 -20.5026 -20.5023 -20.5021
   -20.4991 -20.4991 -20.4986 -20.4985 -20.4970 -20.4967 -20.4961 -20.4959
   -20.4920 -20.4919 -20.4912 -20.4911 -10.0599  -9.7089  -9.3530  -9.1216
    -9.1025  -9.0380  -8.0526  -8.0165  -7.9768  -7.9627  -7.9539  -7.9070
     1.1359   1.2062   1.2072   1.3089   1.5993   1.7144   2.4600   2.5014
     2.5411   2.5798   3.8986   3.9253   4.4080   4.4874   4.8542   5.1017
     5.1501   5.2211   5.2992   5.6408   5.6667   5.8397   6.1800   6.3770
     6.4024   6.4043   6.4419   6.6897   6.7786   6.9217   7.0118   7.0587
     7.9165   7.9367   7.9776   7.9984   9.5107   9.5476   9.8889   9.9832
    12.2668  12.3021  12.9011  12.9560  13.1493  13.2840  13.7564  13.8492
    13.9067  14.8177  14.9232  14.9272  15.3031  16.7801

          k = 0.0000 0.1667 0.1133 ( 31558 PWs)   bands (ev):

   -66.3659 -66.3655 -66.3646 -66.3642 -30.7417 -30.7370 -30.6980 -30.6960
   -30.6929 -30.6925 -30.6830 -30.6817 -30.6225 -30.6222 -30.6198 -30.6197
   -20.5261 -20.5261 -20.5260 -20.5260 -20.5081 -20.5079 -20.5040 -20.5040
   -20.5038 -20.5037 -20.5029 -20.5029 -20.5028 -20.5027 -20.5026 -20.5024
   -20.4991 -20.4991 -20.4986 -20.4986 -20.4970 -20.4966 -20.4962 -20.4959
   -20.4920 -20.4919 -20.4913 -20.4912 -10.0232  -9.7220  -9.2751  -9.1203
    -9.1038  -8.9953  -8.1328  -8.0382  -8.0147  -7.9753  -7.9704  -7.9554
     1.2062   1.2071   1.3392   1.5181   1.5984   1.8026   2.4788   2.5622
     2.5851   2.5969   3.7704   3.8079   4.4148   4.5008   4.6076   5.0876
     5.0878   5.1824   5.2054   5.4624   5.6928   5.7610   6.2054   6.3928
     6.3975   6.4405   6.4592   6.7076   6.7918   6.9282   7.0111   7.0633
     7.8829   7.9137   7.9421   7.9513   9.5195   9.5444  10.0618  10.1440
    12.1265  12.1647  12.9094  12.9797  13.1434  13.2910  13.7512  13.8175
    14.0735  14.9228  14.9271  14.9882  15.7139  16.4440

          k = 0.0000 0.1667 0.2266 ( 31536 PWs)   bands (ev):

   -66.3658 -66.3656 -66.3645 -66.3643 -30.7301 -30.7253 -30.7012 -30.6954
   -30.6936 -30.6935 -30.6930 -30.6911 -30.6219 -30.6217 -30.6204 -30.6203
   -20.5261 -20.5261 -20.5261 -20.5260 -20.5071 -20.5068 -20.5043 -20.5040
   -20.5039 -20.5038 -20.5038 -20.5034 -20.5028 -20.5028 -20.5027 -20.5026
   -20.4991 -20.4991 -20.4986 -20.4986 -20.4968 -20.4965 -20.4964 -20.4961
   -20.4919 -20.4917 -20.4914 -20.4913  -9.9335  -9.7633  -9.1168  -9.1074
    -9.0544  -8.8586  -8.3910  -8.3102  -8.0099  -7.9931  -7.9711  -7.9596
     1.2064   1.2069   1.5505   1.5950   2.0994   2.3643   2.5038   2.5565
     2.7885   2.8020   3.4302   3.4767   3.9258   4.5319   4.5453   4.6298
     4.9730   5.0054   5.1835   5.2087   5.4868   5.5145   6.2894   6.3904
     6.4169   6.5591   6.8075   6.8138   6.8926   6.9423   7.0291   7.0848
     7.6712   7.7028   7.9354   7.9406   9.5302   9.5404  10.5216  10.5874
    11.7150  11.7598  12.9639  13.0635  13.1272  13.3219  13.5194  13.6130
    14.6973  14.9232  14.9262  15.5806  15.8748  16.7316

          k = 0.0000 0.1667-0.3399 ( 31560 PWs)   bands (ev):

   -66.3657 -66.3657 -66.3644 -66.3644 -30.7145 -30.7145 -30.7094 -30.7094
   -30.6945 -30.6945 -30.6933 -30.6933 -30.6212 -30.6212 -30.6210 -30.6210
   -20.5261 -20.5261 -20.5261 -20.5260 -20.5056 -20.5056 -20.5053 -20.5053
   -20.5039 -20.5039 -20.5037 -20.5037 -20.5028 -20.5028 -20.5027 -20.5027
   -20.4991 -20.4991 -20.4986 -20.4986 -20.4966 -20.4966 -20.4963 -20.4963
   -20.4917 -20.4917 -20.4915 -20.4915  -9.8360  -9.8360  -9.1121  -9.1121
    -8.7330  -8.7330  -8.6198  -8.6198  -8.0027  -8.0027  -7.9654  -7.9654
     1.2066   1.2066   1.5854   1.5854   2.5284   2.5284   2.9936   2.9936
     3.0270   3.0270   3.0986   3.0986   3.4620   3.4620   4.7729   4.7729
     4.8382   4.8382   5.2640   5.2640   5.2900   5.2900   6.3812   6.3812
     6.4460   6.4460   6.9293   6.9293   7.0071   7.0072   7.3033   7.3033
     7.3452   7.3452   7.9376   7.9376   9.5364   9.5364  11.1276  11.1276
    11.1819  11.1819  13.0505  13.0505  13.2609  13.2609  13.4267  13.4267
    14.9245  14.9245  15.2856  15.2856  16.4353  16.4353

          k = 0.0000 0.3333 0.0000 ( 31566 PWs)   bands (ev):

   -66.3656 -66.3652 -66.3649 -66.3644 -30.7457 -30.7427 -30.6890 -30.6808
   -30.6795 -30.6773 -30.6765 -30.6719 -30.6383 -30.6368 -30.6352 -30.6347
   -20.5261 -20.5261 -20.5260 -20.5260 -20.5086 -20.5084 -20.5038 -20.5037
   -20.5037 -20.5035 -20.5031 -20.5030 -20.5030 -20.5028 -20.5022 -20.5021
   -20.4993 -20.4992 -20.4989 -20.4989 -20.4960 -20.4953 -20.4952 -20.4946
   -20.4931 -20.4927 -20.4923 -20.4919  -9.8316  -9.4206  -9.4035  -8.9515
    -8.9135  -8.8938  -8.4431  -8.3755  -8.2583  -8.2365  -7.9722  -7.9248
     1.1894   1.2705   1.9006   1.9163   2.2677   2.3255   2.6829   2.7214
     3.0442   3.1193   3.6261   3.6394   3.9260   4.0193   4.3480   4.3736
     4.8094   4.8256   5.1110   5.2436   5.2551   5.5754   5.7329   5.8782
     6.1668   6.2393   6.2428   6.4853   6.8267   7.0722   7.1549   7.3239
     7.6786   7.6895   7.7909   7.9009  10.5119  10.5692  10.6362  10.8375
    12.1694  12.1959  12.6365  12.6408  12.7160  12.7714  13.4168  13.5367
    14.2691  15.0933  15.4650  16.0210  16.0429  17.3976

          k = 0.0000 0.3333 0.1133 ( 31559 PWs)   bands (ev):

   -66.3656 -66.3652 -66.3648 -66.3645 -30.7415 -30.7385 -30.6913 -30.6837
   -30.6806 -30.6776 -30.6766 -30.6738 -30.6381 -30.6368 -30.6354 -30.6349
   -20.5261 -20.5261 -20.5260 -20.5260 -20.5082 -20.5081 -20.5038 -20.5038
   -20.5036 -20.5035 -20.5032 -20.5031 -20.5030 -20.5028 -20.5025 -20.5023
   -20.4993 -20.4993 -20.4989 -20.4989 -20.4959 -20.4953 -20.4952 -20.4947
   -20.4930 -20.4926 -20.4924 -20.4920  -9.7847  -9.4170  -9.3449  -8.9190
    -8.9123  -8.8951  -8.4625  -8.3716  -8.2569  -8.2380  -8.0706  -8.0255
     1.4303   1.5094   1.9017   1.9154   2.2669   2.3381   2.7571   2.7799
     3.0503   3.1141   3.5843   3.6251   3.9471   4.0481   4.3581   4.3848
     4.5531   4.6548   4.8713   5.2320   5.2370   5.3975   5.4916   5.6765
     6.3066   6.3446   6.5446   6.5617   6.8369   7.0636   7.1624   7.3136
     7.6681   7.6823   7.7434   7.8450  10.5445  10.6050  10.7071  10.9158
    12.1629  12.2208  12.5340  12.5946  12.6396  12.7760  13.3068  13.4349
    14.6340  15.4803  15.5985  16.0227  16.0411  17.0625

          k = 0.0000 0.3333 0.2266 ( 31541 PWs)   bands (ev):

   -66.3655 -66.3653 -66.3648 -66.3645 -30.7300 -30.7269 -30.6999 -30.6952
   -30.6799 -30.6782 -30.6770 -30.6764 -30.6375 -30.6365 -30.6360 -30.6354
   -20.5261 -20.5261 -20.5261 -20.5260 -20.5072 -20.5070 -20.5044 -20.5041
   -20.5037 -20.5035 -20.5035 -20.5031 -20.5030 -20.5029 -20.5029 -20.5027
   -20.4993 -20.4993 -20.4989 -20.4989 -20.4958 -20.4954 -20.4952 -20.4948
   -20.4929 -20.4925 -20.4925 -20.4921  -9.6692  -9.4616  -9.1323  -8.9088
    -8.8984  -8.8085  -8.5658  -8.3584  -8.3159  -8.2528  -8.2420  -8.2263
     1.9048   1.9127   2.0275   2.1135   2.2606   2.4599   2.9372   2.9876
     3.0753   3.1009   3.3945   3.4897   3.9027   4.0839   4.1583   4.3123
     4.4247   4.4255   4.5865   4.7187   4.9742   5.1143   5.2488   5.2572
     6.6910   6.7214   6.7929   6.8574   6.8782   7.0430   7.1980   7.2738
     7.5300   7.6080   7.7020   7.7298  10.5866  10.6103  11.0128  11.1909
    11.9465  12.0842  12.4581  12.4816  12.6340  12.8071  13.0468  13.1940
    15.4123  15.9921  16.0329  16.0363  16.4975  16.5559

          k = 0.0000 0.3333-0.3399 ( 31492 PWs)   bands (ev):

   -66.3654 -66.3654 -66.3647 -66.3647 -30.7145 -30.7145 -30.7110 -30.7110
   -30.6791 -30.6791 -30.6772 -30.6772 -30.6367 -30.6367 -30.6360 -30.6360
   -20.5261 -20.5261 -20.5261 -20.5261 -20.5057 -20.5057 -20.5055 -20.5055
   -20.5036 -20.5036 -20.5033 -20.5033 -20.5029 -20.5029 -20.5028 -20.5028
   -20.4993 -20.4993 -20.4989 -20.4989 -20.4956 -20.4956 -20.4950 -20.4950
   -20.4927 -20.4927 -20.4923 -20.4923  -9.5466  -9.5466  -8.9051  -8.9051
    -8.8309  -8.8309  -8.5982  -8.5982  -8.3263  -8.3263  -8.2474  -8.2474
     1.9089   1.9089   2.2337   2.2337   2.9322   2.9322   3.0212   3.0212
     3.1150   3.1150   3.2436   3.2436   3.5222   3.5222   4.2981   4.2981
     4.3654   4.3654   4.5939   4.5939   4.6932   4.6932   5.2425   5.2425
     6.7971   6.7971   6.9902   6.9902   7.1378   7.1378   7.2295   7.2295
     7.3550   7.3550   7.7038   7.7038  10.6048  10.6048  11.4733  11.4733
    11.6333  11.6333  12.5241  12.5241  12.7297  12.7297  12.9653  12.9653
    16.0098  16.0099  16.0495  16.0495  16.8085  16.8085

          k = 0.0000-0.5000 0.0000 ( 31534 PWs)   bands (ev):

   -66.3653 -66.3653 -66.3648 -66.3648 -30.7445 -30.7445 -30.6830 -30.6830
   -30.6596 -30.6596 -30.6563 -30.6563 -30.6558 -30.6558 -30.6555 -30.6555
   -20.5261 -20.5261 -20.5260 -20.5260 -20.5086 -20.5086 -20.5035 -20.5035
   -20.5034 -20.5034 -20.5033 -20.5033 -20.5030 -20.5030 -20.5021 -20.5021
   -20.4993 -20.4993 -20.4992 -20.4992 -20.4945 -20.4945 -20.4940 -20.4940
   -20.4937 -20.4937 -20.4931 -20.4931  -9.5776  -9.5776  -8.9514  -8.9514
    -8.7420  -8.7420  -8.6018  -8.6018  -8.5799  -8.5798  -7.9491  -7.9491
     1.2289   1.2289   2.6762   2.6762   2.8103   2.8103   2.8797   2.8797
     3.0825   3.0825   3.6641   3.6641   3.7093   3.7093   3.9736   3.9736
     4.0656   4.0656   4.7939   4.7939   5.3047   5.3047   5.8329   5.8329
     6.0861   6.0861   6.2649   6.2649   7.3411   7.3411   7.3467   7.3467
     7.4488   7.4488   7.6802   7.6803  11.3853  11.3853  11.4452  11.4452
    11.7500  11.7500  11.8464  11.8464  12.9396  12.9396  13.0783  13.0783
    14.7426  14.7426  16.4117  16.4117  17.5640  17.5640

          k = 0.0000-0.5000 0.1133 ( 31540 PWs)   bands (ev):

   -66.3652 -66.3652 -66.3648 -66.3648 -30.7403 -30.7403 -30.6868 -30.6868
   -30.6594 -30.6594 -30.6566 -30.6565 -30.6561 -30.6561 -30.6557 -30.6557
   -20.5261 -20.5261 -20.5260 -20.5260 -20.5082 -20.5082 -20.5036 -20.5036
   -20.5034 -20.5034 -20.5033 -20.5033 -20.5030 -20.5030 -20.5024 -20.5024
   -20.4993 -20.4993 -20.4992 -20.4992 -20.4945 -20.4945 -20.4940 -20.4940
   -20.4937 -20.4937 -20.4932 -20.4932  -9.5129  -9.5129  -8.9662  -8.9662
    -8.7273  -8.7273  -8.6006  -8.6005  -8.5811  -8.5811  -8.0504  -8.0504
     1.4722   1.4722   2.6969   2.6970   2.8474   2.8474   2.8731   2.8731
     3.0696   3.0696   3.7115   3.7115   3.7483   3.7483   3.9698   3.9698
     4.0664   4.0664   4.5503   4.5503   5.0097   5.0097   5.5637   5.5637
     6.3784   6.3784   6.4144   6.4144   7.3310   7.3310   7.3371   7.3371
     7.4341   7.4341   7.6465   7.6465  11.4392  11.4392  11.4896  11.4896
    11.7634  11.7634  11.8720  11.8720  12.8091  12.8091  12.9542  12.9542
    15.1356  15.1356  16.4822  16.4822  17.4421  17.4421

          k = 0.0000-0.5000 0.2266 ( 31524 PWs)   bands (ev):

   -66.3651 -66.3651 -66.3649 -66.3649 -30.7287 -30.7287 -30.6976 -30.6976
   -30.6588 -30.6588 -30.6571 -30.6571 -30.6566 -30.6566 -30.6561 -30.6561
   -20.5261 -20.5261 -20.5260 -20.5260 -20.5071 -20.5071 -20.5043 -20.5043
   -20.5034 -20.5034 -20.5033 -20.5033 -20.5031 -20.5031 -20.5028 -20.5028
   -20.4993 -20.4993 -20.4992 -20.4992 -20.4944 -20.4944 -20.4940 -20.4940
   -20.4937 -20.4937 -20.4933 -20.4933  -9.3426  -9.3426  -9.0206  -9.0206
    -8.6727  -8.6727  -8.5972  -8.5972  -8.5838  -8.5838  -8.2924  -8.2924
     2.1209   2.1209   2.7467   2.7467   2.8477   2.8477   2.9537   2.9537
     3.0219   3.0219   3.8203   3.8203   3.8728   3.8728   3.8991   3.8991
     4.0841   4.0841   4.1109   4.1109   4.5570   4.5570   4.8667   4.8667
     6.7652   6.7652   6.8141   6.8141   7.2615   7.2615   7.2967   7.2967
     7.4198   7.4198   7.5504   7.5504  11.5617  11.5617  11.5789  11.5790
    11.8412  11.8412  11.9887  11.9887  12.4825  12.4825  12.6403  12.6403
    16.0801  16.0801  16.6904  16.6904  17.1858  17.1858

          k = 0.0000-0.5000-0.3399 ( 31524 PWs)   bands (ev):

   -66.3650 -66.3650 -66.3650 -66.3650 -30.7130 -30.7130 -30.7130 -30.7130
   -30.6580 -30.6580 -30.6579 -30.6579 -30.6565 -30.6565 -30.6565 -30.6565
   -20.5261 -20.5261 -20.5261 -20.5261 -20.5057 -20.5057 -20.5057 -20.5057
   -20.5033 -20.5033 -20.5033 -20.5033 -20.5030 -20.5030 -20.5030 -20.5030
   -20.4992 -20.4992 -20.4992 -20.4992 -20.4942 -20.4942 -20.4942 -20.4942
   -20.4936 -20.4935 -20.4935 -20.4935  -9.1468  -9.1468  -9.1468  -9.1468
    -8.5950  -8.5950  -8.5950  -8.5950  -8.5301  -8.5301  -8.5301  -8.5301
     2.7844   2.7844   2.7844   2.7844   2.8566   2.8566   2.8566   2.8566
     3.2236   3.2236   3.2236   3.2236   3.9797   3.9797   3.9797   3.9797
     4.1773   4.1773   4.1773   4.1773   4.2908   4.2908   4.2908   4.2908
     7.0655   7.0655   7.0655   7.0655   7.1530   7.1530   7.1530   7.1530
     7.4517   7.4517   7.4517   7.4517  11.6173  11.6173  11.6173  11.6173
    12.0918  12.0918  12.0918  12.0918  12.2792  12.2792  12.2792  12.2792
    16.8591  16.8591  16.8591  16.8591  17.2867  17.2867

          k = 0.1667 0.1667 0.0000 ( 31533 PWs)   bands (ev):

   -66.3658 -66.3654 -66.3647 -66.3642 -30.7458 -30.7417 -30.7031 -30.6995
   -30.6861 -30.6782 -30.6757 -30.6740 -30.6386 -30.6360 -30.6159 -30.6129
   -20.5261 -20.5261 -20.5260 -20.5260 -20.5085 -20.5084 -20.5044 -20.5040
   -20.5035 -20.5033 -20.5033 -20.5032 -20.5026 -20.5022 -20.5022 -20.5021
   -20.4991 -20.4991 -20.4987 -20.4987 -20.4974 -20.4964 -20.4956 -20.4949
   -20.4929 -20.4922 -20.4916 -20.4907 -10.0019  -9.6499  -9.3749  -9.1002
    -8.9953  -8.9484  -8.3264  -8.3021  -7.9893  -7.9127  -7.8858  -7.8619
     1.0390   1.0876   1.2478   1.2991   2.1686   2.2101   2.4167   2.6196
     2.7438   2.7519   3.7143   3.7153   4.1631   4.4178   4.6439   4.8297
     5.0568   5.2867   5.3229   5.6078   5.6883   5.8531   6.0974   6.1465
     6.2985   6.3481   6.3983   6.5681   6.6363   6.7929   6.9500   7.1858
     7.7512   7.8125   7.8576   8.0408   9.6303  10.0188  10.0571  10.6624
    12.0618  12.4652  12.5321  13.0007  13.0753  13.1983  13.5150  13.8339
    14.0251  14.9970  15.0362  15.2210  15.3735  17.2282

          k = 0.1667 0.1667 0.1133 ( 31551 PWs)   bands (ev):

   -66.3658 -66.3654 -66.3647 -66.3643 -30.7415 -30.7374 -30.7029 -30.6997
   -30.6887 -30.6824 -30.6759 -30.6755 -30.6385 -30.6362 -30.6157 -30.6131
   -20.5261 -20.5261 -20.5260 -20.5260 -20.5081 -20.5080 -20.5043 -20.5040
   -20.5035 -20.5035 -20.5033 -20.5033 -20.5026 -20.5025 -20.5025 -20.5023
   -20.4991 -20.4991 -20.4987 -20.4987 -20.4974 -20.4965 -20.4955 -20.4949
   -20.4929 -20.4922 -20.4915 -20.4908  -9.9638  -9.6624  -9.2979  -9.0784
    -8.9974  -8.9275  -8.3421  -8.2997  -8.0865  -8.0186  -7.8843  -7.8635
     1.0709   1.0875   1.4439   1.5547   2.1682   2.2274   2.4839   2.6370
     2.7385   2.8068   3.6524   3.6937   4.0450   4.4328   4.5783   4.6853
     4.8402   5.2416   5.2935   5.4743   5.5475   5.7636   6.1748   6.2883
     6.2898   6.3768   6.4810   6.5591   6.6616   6.8253   6.8614   7.1813
     7.7387   7.8064   7.8275   7.9622   9.8363  10.0231  10.0609  10.7667
    11.9994  12.4001  12.4236  12.9810  13.0866  13.2140  13.4251  13.9315
    14.1060  15.0256  15.1662  15.4046  15.6304  16.8004

          k = 0.1667 0.1667 0.2266 ( 31540 PWs)   bands (ev):

   -66.3657 -66.3655 -66.3646 -66.3644 -30.7298 -30.7258 -30.7022 -30.7004
   -30.6985 -30.6940 -30.6770 -30.6764 -30.6381 -30.6368 -30.6151 -30.6136
   -20.5261 -20.5261 -20.5261 -20.5260 -20.5071 -20.5069 -20.5043 -20.5042
   -20.5041 -20.5039 -20.5034 -20.5032 -20.5030 -20.5030 -20.5025 -20.5023
   -20.4991 -20.4991 -20.4987 -20.4987 -20.4972 -20.4967 -20.4954 -20.4950
   -20.4928 -20.4924 -20.4914 -20.4910  -9.8716  -9.7020  -9.0803  -9.0383
    -9.0038  -8.8297  -8.4600  -8.3209  -8.2920  -8.2176  -7.8800  -7.8679
     1.0833   1.0872   2.0212   2.1127   2.1628   2.4380   2.6659   2.6675
     2.7402   2.9944   3.4083   3.4518   3.9165   4.1040   4.4008   4.4872
     4.6910   4.8610   5.0421   5.1655   5.3613   5.6641   6.2617   6.3605
     6.3728   6.4939   6.6180   6.6236   6.8442   6.8462   7.0024   7.1611
     7.5972   7.6852   7.8094   7.8314  10.0318  10.0409  10.3841  11.0745
    11.6415  12.0295  12.4860  12.8901  13.1049  13.2271  13.3144  13.7103
    14.5852  14.9844  15.5088  15.7847  16.2681  16.6298

          k = 0.1667 0.1667-0.3399 ( 31512 PWs)   bands (ev):

   -66.3656 -66.3656 -66.3645 -66.3645 -30.7140 -30.7140 -30.7099 -30.7099
   -30.7013 -30.7013 -30.6770 -30.6770 -30.6375 -30.6375 -30.6144 -30.6144
   -20.5261 -20.5261 -20.5261 -20.5260 -20.5056 -20.5056 -20.5054 -20.5054
   -20.5042 -20.5042 -20.5033 -20.5033 -20.5032 -20.5032 -20.5024 -20.5024
   -20.4991 -20.4991 -20.4987 -20.4987 -20.4970 -20.4969 -20.4952 -20.4952
   -20.4926 -20.4926 -20.4912 -20.4912  -9.7733  -9.7733  -9.0158  -9.0158
    -8.7662  -8.7661  -8.6119  -8.6119  -8.2756  -8.2756  -7.8740  -7.8740
     1.0862   1.0862   2.1440   2.1440   2.6878   2.6878   2.9885   2.9885
     3.0144   3.0144   3.1300   3.1300   3.4866   3.4867   4.3473   4.3473
     4.6472   4.6472   5.0515   5.0515   5.4517   5.4517   6.3505   6.3505
     6.4191   6.4191   6.6194   6.6194   7.0658   7.0658   7.2965   7.2965
     7.3123   7.3123   7.8154   7.8154  10.0392  10.0392  11.0385  11.0385
    11.5356  11.5356  12.6846  12.6846  13.1375  13.1375  13.4759  13.4759
    14.8705  14.8705  15.8027  15.8027  16.6426  16.6426

          k = 0.1667 0.3333 0.0000 ( 31560 PWs)   bands (ev):

   -66.3656 -66.3651 -66.3649 -66.3645 -30.7452 -30.7429 -30.6991 -30.6945
   -30.6810 -30.6807 -30.6592 -30.6578 -30.6558 -30.6540 -30.6206 -30.6178
   -20.5261 -20.5261 -20.5260 -20.5260 -20.5085 -20.5085 -20.5044 -20.5042
   -20.5038 -20.5037 -20.5031 -20.5029 -20.5025 -20.5023 -20.5021 -20.5020
   -20.4992 -20.4991 -20.4989 -20.4989 -20.4969 -20.4960 -20.4943 -20.4941
   -20.4935 -20.4934 -20.4918 -20.4910  -9.8391  -9.4647  -9.4553  -9.0441
    -8.7508  -8.7129  -8.6879  -8.6545  -8.0264  -8.0191  -7.9626  -7.9278
     1.1605   1.2709   1.3534   1.4238   2.4632   2.7343   2.8141   2.9541
     3.0579   3.2505   3.2624   3.6393   3.7309   4.0860   4.3639   4.7505
     4.8412   4.8959   5.0920   5.5463   5.5818   5.6246   5.6696   5.8060
     6.1262   6.1737   6.4027   6.5343   6.6598   6.7915   6.8502   7.4370
     7.4807   7.5743   7.5750   8.0007   9.9447  10.9412  10.9806  11.4513
    11.5263  12.4032  12.5914  12.5954  12.8255  13.0315  13.1087  13.8679
    14.0837  14.9687  15.5838  15.6456  16.3906  17.5151

          k = 0.1667 0.3333 0.1133 ( 31551 PWs)   bands (ev):

   -66.3656 -66.3652 -66.3649 -66.3645 -30.7410 -30.7386 -30.6991 -30.6947
   -30.6849 -30.6846 -30.6594 -30.6580 -30.6559 -30.6542 -30.6205 -30.6180
   -20.5261 -20.5261 -20.5260 -20.5260 -20.5082 -20.5081 -20.5044 -20.5042
   -20.5038 -20.5038 -20.5032 -20.5030 -20.5026 -20.5025 -20.5023 -20.5021
   -20.4992 -20.4991 -20.4989 -20.4989 -20.4969 -20.4961 -20.4942 -20.4940
   -20.4936 -20.4934 -20.4918 -20.4911  -9.7955  -9.4760  -9.3836  -9.0122
    -8.7611  -8.7164  -8.6831  -8.6474  -8.0848  -8.0415  -8.0246  -7.9925
     1.2933   1.3531   1.4802   1.5744   2.5336   2.7592   2.8474   2.9486
     3.0534   3.2456   3.2624   3.6432   3.7789   3.9507   4.4116   4.5194
     4.7712   4.8100   4.8817   5.2836   5.5297   5.5575   5.6338   5.7312
     6.2603   6.3979   6.4249   6.5658   6.7017   6.7595   6.8818   7.4325
     7.4731   7.5421   7.5506   7.9239  10.1162  10.9432  10.9806  11.5204
    11.5928  12.2515  12.5705  12.5933  12.7887  12.9236  13.0581  13.7701
    14.3829  15.3532  15.6215  15.7256  16.4353  17.3081

          k = 0.1667 0.3333 0.2266 ( 31552 PWs)   bands (ev):

   -66.3655 -66.3653 -66.3648 -66.3646 -30.7294 -30.7271 -30.7009 -30.6957
   -30.6953 -30.6938 -30.6595 -30.6585 -30.6558 -30.6547 -30.6199 -30.6185
   -20.5261 -20.5261 -20.5261 -20.5260 -20.5071 -20.5070 -20.5044 -20.5044
   -20.5042 -20.5039 -20.5037 -20.5033 -20.5029 -20.5026 -20.5024 -20.5022
   -20.4992 -20.4991 -20.4989 -20.4989 -20.4967 -20.4963 -20.4941 -20.4939
   -20.4937 -20.4936 -20.4917 -20.4913  -9.6908  -9.5130  -9.1877  -8.9107
    -8.8060  -8.7305  -8.6609  -8.6187  -8.3221  -8.2938  -8.0202  -8.0063
     1.3422   1.3522   2.1069   2.2186   2.7360   2.8313   2.8862   2.9763
     3.0329   3.2222   3.2638   3.4503   3.8984   3.9303   3.9427   4.1896
     4.5646   4.6422   4.7989   4.8255   4.8943   5.3577   5.6361   5.6668
     6.5002   6.6207   6.6620   6.6886   6.8030   6.8683   7.0197   7.3791
     7.4202   7.4598   7.5075   7.7075  10.5659  10.9478  10.9842  11.6451
    11.7949  11.9136  12.4375  12.4793  12.6442  12.7338  13.1031  13.5366
    14.9516  15.5362  16.1426  16.2896  16.6451  16.9323

          k = 0.1667 0.3333-0.3399 ( 31552 PWs)   bands (ev):

   -66.3654 -66.3654 -66.3647 -66.3647 -30.7138 -30.7138 -30.7113 -30.7113
   -30.6959 -30.6959 -30.6591 -30.6591 -30.6553 -30.6553 -30.6192 -30.6192
   -20.5261 -20.5261 -20.5261 -20.5261 -20.5056 -20.5056 -20.5055 -20.5055
   -20.5042 -20.5042 -20.5036 -20.5036 -20.5028 -20.5028 -20.5023 -20.5023
   -20.4992 -20.4991 -20.4989 -20.4989 -20.4965 -20.4965 -20.4939 -20.4939
   -20.4938 -20.4938 -20.4915 -20.4915  -9.5844  -9.5843  -8.9482  -8.9474
    -8.7812  -8.7793  -8.5636  -8.5599  -8.5286  -8.5255  -8.0138  -8.0136
     1.3493   1.3502   2.7919   2.7968   2.8807   2.8884   2.9892   3.0236
     3.1007   3.1467   3.2688   3.2707   3.3701   3.3835   4.1612   4.1684
     4.2448   4.2471   4.6845   4.8033   4.9756   5.0865   5.6401   5.6471
     6.5929   6.6317   6.6736   6.7134   7.1582   7.1682   7.1867   7.2431
     7.2561   7.2975   7.5182   7.5352  10.9281  10.9497  11.1811  11.2213
    12.0814  12.1144  12.1318  12.1336  12.6240  12.6891  13.2633  13.3055
    15.3318  15.3498  16.5547  16.5683  17.2273  17.2574

          k = 0.1667-0.5000 0.0000 ( 31548 PWs)   bands (ev):

   -66.3653 -66.3653 -66.3648 -66.3648 -30.7442 -30.7442 -30.6878 -30.6878
   -30.6792 -30.6792 -30.6751 -30.6751 -30.6354 -30.6354 -30.6328 -30.6328
   -20.5261 -20.5261 -20.5260 -20.5260 -20.5085 -20.5085 -20.5043 -20.5043
   -20.5040 -20.5040 -20.5028 -20.5028 -20.5025 -20.5025 -20.5020 -20.5020
   -20.4992 -20.4992 -20.4991 -20.4991 -20.4957 -20.4957 -20.4949 -20.4949
   -20.4928 -20.4928 -20.4920 -20.4920  -9.6238  -9.6238  -9.1533  -9.1533
    -8.9164  -8.9164  -8.3435  -8.3435  -8.3373  -8.3373  -7.9486  -7.9486
     1.2304   1.2304   2.0438   2.0438   2.0614   2.0614   2.6688   2.6688
     3.6783   3.6783   3.8987   3.8987   3.9957   3.9957   4.1817   4.1817
     4.6343   4.6343   4.9430   4.9430   5.3284   5.3284   5.7089   5.7089
     6.2192   6.2192   6.3763   6.3763   7.0405   7.0405   7.0549   7.0549
     7.1683   7.1683   7.8513   7.8514  10.6497  10.6497  11.8457  11.8457
    11.8908  11.8909  12.3413  12.3413  12.6227  12.6227  13.4746  13.4746
    14.5521  14.5521  16.4704  16.4705  16.8274  16.8274

          k = 0.1667-0.5000 0.1133 ( 31546 PWs)   bands (ev):

   -66.3652 -66.3652 -66.3648 -66.3648 -30.7400 -30.7400 -30.6896 -30.6896
   -30.6794 -30.6794 -30.6774 -30.6774 -30.6353 -30.6353 -30.6330 -30.6330
   -20.5261 -20.5261 -20.5260 -20.5260 -20.5081 -20.5081 -20.5043 -20.5043
   -20.5041 -20.5041 -20.5029 -20.5029 -20.5026 -20.5026 -20.5021 -20.5021
   -20.4992 -20.4991 -20.4991 -20.4991 -20.4957 -20.4957 -20.4949 -20.4949
   -20.4927 -20.4927 -20.4920 -20.4920  -9.5667  -9.5667  -9.1638  -9.1638
    -8.8947  -8.8947  -8.3481  -8.3481  -8.3376  -8.3376  -8.0486  -8.0486
     1.4680   1.4680   2.0430   2.0430   2.0705   2.0705   2.7401   2.7401
     3.6370   3.6370   3.9188   3.9188   4.0194   4.0194   4.1304   4.1304
     4.6408   4.6408   4.7565   4.7565   5.0573   5.0573   5.6351   5.6351
     6.2660   6.2660   6.5635   6.5635   7.0343   7.0343   7.0552   7.0552
     7.1676   7.1676   7.7915   7.7915  10.7623  10.7623  11.8434  11.8434
    11.8894  11.8894  12.3888  12.3888  12.4807  12.4807  13.3626  13.3626
    14.9065  14.9065  16.5362  16.5363  16.8030  16.8030

          k = 0.1667-0.5000 0.2266 ( 31554 PWs)   bands (ev):

   -66.3651 -66.3651 -66.3649 -66.3649 -30.7285 -30.7285 -30.6980 -30.6980
   -30.6801 -30.6801 -30.6799 -30.6799 -30.6349 -30.6349 -30.6335 -30.6335
   -20.5261 -20.5261 -20.5260 -20.5260 -20.5071 -20.5071 -20.5045 -20.5045
   -20.5041 -20.5041 -20.5036 -20.5036 -20.5026 -20.5026 -20.5023 -20.5023
   -20.4991 -20.4991 -20.4991 -20.4991 -20.4956 -20.4956 -20.4951 -20.4951
   -20.4926 -20.4926 -20.4922 -20.4922  -9.4254  -9.4254  -9.2008  -9.2008
    -8.8129  -8.8129  -8.4058  -8.4058  -8.3318  -8.3318  -8.2538  -8.2538
     1.9550   1.9550   2.0386   2.0386   2.2493   2.2493   2.9534   2.9534
     3.4368   3.4368   3.9191   3.9191   3.9837   3.9837   4.1781   4.1781
     4.2833   4.2833   4.6691   4.6691   4.7127   4.7127   5.1229   5.1229
     6.6482   6.6482   6.8316   6.8316   7.0020   7.0020   7.0670   7.0670
     7.1808   7.1808   7.6109   7.6109  11.0813  11.0813  11.8267  11.8267
    11.8765  11.8765  12.1277  12.1277  12.5334  12.5334  13.0881  13.0881
    15.6819  15.6819  16.5768  16.5768  16.8817  16.8817

          k = 0.1667-0.5000-0.3399 ( 31544 PWs)   bands (ev):

   -66.3650 -66.3650 -66.3650 -66.3650 -30.7129 -30.7129 -30.7129 -30.7129
   -30.6803 -30.6803 -30.6803 -30.6803 -30.6342 -30.6342 -30.6342 -30.6342
   -20.5261 -20.5261 -20.5261 -20.5261 -20.5057 -20.5057 -20.5056 -20.5056
   -20.5040 -20.5040 -20.5040 -20.5040 -20.5024 -20.5024 -20.5024 -20.5024
   -20.4991 -20.4991 -20.4991 -20.4991 -20.4953 -20.4953 -20.4953 -20.4953
   -20.4924 -20.4924 -20.4924 -20.4924  -9.2838  -9.2838  -9.2835  -9.2835
    -8.6315  -8.6315  -8.6306  -8.6306  -8.3182  -8.3182  -8.3175  -8.3175
     2.0264   2.0264   2.0274   2.0274   2.9863   2.9863   2.9896   2.9896
     3.3657   3.3657   3.3920   3.3920   3.9312   3.9312   4.0073   4.0073
     4.4700   4.4700   4.5118   4.5118   4.7634   4.7634   4.7651   4.7651
     6.8905   6.8905   6.9110   6.9110   6.9980   6.9980   7.0616   7.0617
     7.3227   7.3227   7.3559   7.3559  11.5088  11.5088  11.5591  11.5591
    11.8592  11.8592  11.9548  11.9548  12.7583  12.7583  12.7981  12.7981
    16.2789  16.2789  16.3212  16.3212  17.2042  17.2042

          k = 0.3333 0.3333 0.0000 ( 31608 PWs)   bands (ev):

   -66.3654 -66.3651 -66.3650 -66.3646 -30.7442 -30.7432 -30.7056 -30.7019
   -30.6882 -30.6803 -30.6801 -30.6745 -30.6344 -30.6317 -30.6137 -30.6108
   -20.5261 -20.5261 -20.5260 -20.5260 -20.5085 -20.5084 -20.5049 -20.5047
   -20.5044 -20.5044 -20.5026 -20.5025 -20.5023 -20.5022 -20.5019 -20.5017
   -20.4989 -20.4989 -20.4989 -20.4989 -20.4975 -20.4965 -20.4956 -20.4949
   -20.4927 -20.4920 -20.4914 -20.4906  -9.8159  -9.5660  -9.4853  -9.1068
    -9.0645  -8.9038  -8.3611  -8.3603  -7.9656  -7.9363  -7.9259  -7.9007
     1.0468   1.0870   1.2616   1.2968   2.0346   2.0508   2.3626   2.6630
     3.5854   3.6796   3.9496   3.9552   4.0591   4.5910   4.6351   4.7999
     4.8829   4.9721   5.2136   5.4962   5.5277   5.5400   5.7924   5.9170
     6.1369   6.2033   6.2550   6.3038   6.5548   6.6267   6.9046   6.9675
     6.9834   7.1443   7.8432   8.0455   9.6638  10.6502  11.5982  11.6302
    12.3151  12.3180  12.4317  12.4479  12.6649  13.0860  13.4959  13.9406
    14.0249  14.6056  15.4252  16.0219  16.8770  17.0142

          k = 0.3333 0.3333 0.1133 ( 31572 PWs)   bands (ev):

   -66.3654 -66.3650 -66.3650 -66.3647 -30.7400 -30.7390 -30.7053 -30.7021
   -30.6896 -30.6844 -30.6805 -30.6773 -30.6342 -30.6319 -30.6135 -30.6110
   -20.5261 -20.5261 -20.5260 -20.5260 -20.5081 -20.5081 -20.5049 -20.5047
   -20.5044 -20.5044 -20.5029 -20.5026 -20.5025 -20.5022 -20.5020 -20.5018
   -20.4989 -20.4989 -20.4989 -20.4989 -20.4974 -20.4965 -20.4956 -20.4949
   -20.4926 -20.4920 -20.4913 -20.4907  -9.7750  -9.5075  -9.4948  -9.1160
    -9.0267  -8.8829  -8.3686  -8.3580  -8.0679  -8.0414  -7.9244  -7.9024
     1.0709   1.0869   1.4745   1.5501   2.0329   2.0611   2.4345   2.7372
     3.5826   3.6746   3.8388   3.8625   4.0132   4.5764   4.6687   4.7150
     4.8547   4.8626   4.9610   5.1688   5.6270   5.7262   5.7344   5.9108
     5.9614   6.1931   6.3297   6.4981   6.5345   6.6922   6.8629   6.9457
     6.9730   7.1389   7.7821   7.9609   9.8778  10.7663  11.5990  11.6284
    12.1554  12.3622  12.3760  12.4599  12.5734  13.1086  13.3940  13.9286
    14.2023  14.9492  15.3950  16.1698  16.8338  17.0846

          k = 0.3333 0.3333 0.2266 ( 31545 PWs)   bands (ev):

   -66.3653 -66.3651 -66.3650 -66.3647 -30.7282 -30.7275 -30.7046 -30.7028
   -30.6972 -30.6961 -30.6810 -30.6808 -30.6338 -30.6324 -30.6130 -30.6115
   -20.5261 -20.5261 -20.5261 -20.5260 -20.5070 -20.5070 -20.5048 -20.5047
   -20.5046 -20.5044 -20.5040 -20.5036 -20.5024 -20.5021 -20.5021 -20.5019
   -20.4989 -20.4989 -20.4989 -20.4989 -20.4972 -20.4967 -20.4955 -20.4951
   -20.4925 -20.4922 -20.4912 -20.4908  -9.6797  -9.5261  -9.3635  -9.1486
    -8.8993  -8.8012  -8.4284  -8.3509  -8.3197  -8.2635  -7.9198  -7.9071
     1.0827   1.0867   1.9440   2.0275   2.2407   2.2494   2.6450   2.9612
     3.3895   3.5078   3.6448   3.6640   4.1837   4.1978   4.2624   4.5864
     4.6425   4.7883   4.8487   4.9606   5.1548   5.5089   5.9119   5.9320
     6.0858   6.1917   6.4040   6.6598   6.6892   6.8658   6.8705   6.9651
     7.0360   7.1271   7.5947   7.7146  10.4118  11.0889  11.5911  11.6237
    11.7287  12.0584  12.4664  12.5024  12.5138  13.0373  13.2944  13.6997
    14.7073  15.2933  15.7094  16.5911  16.6866  17.4598

          k = 0.3333 0.3333-0.3399 ( 31536 PWs)   bands (ev):

   -66.3652 -66.3652 -66.3648 -66.3648 -30.7122 -30.7122 -30.7119 -30.7119
   -30.7037 -30.7037 -30.6814 -30.6814 -30.6331 -30.6331 -30.6123 -30.6123
   -20.5261 -20.5261 -20.5261 -20.5261 -20.5056 -20.5056 -20.5055 -20.5055
   -20.5048 -20.5048 -20.5042 -20.5042 -20.5023 -20.5023 -20.5020 -20.5020
   -20.4989 -20.4989 -20.4989 -20.4989 -20.4970 -20.4970 -20.4953 -20.4953
   -20.4923 -20.4923 -20.4910 -20.4910  -9.5867  -9.5867  -9.2245  -9.2245
    -8.6702  -8.6701  -8.6082  -8.6081  -8.3356  -8.3356  -7.9135  -7.9135
     1.0858   1.0858   2.0153   2.0153   2.9770   2.9770   2.9960   2.9960
     3.2056   3.2056   3.4169   3.4170   3.6498   3.6498   4.4540   4.4540
     4.6685   4.6685   4.8841   4.8841   5.2061   5.2061   5.9353   5.9353
     6.1661   6.1661   6.5184   6.5184   6.8724   6.8724   7.0173   7.0173
     7.2829   7.2829   7.3570   7.3570  11.0663  11.0663  11.5740  11.5740
    11.6212  11.6212  12.4839  12.4839  12.7508  12.7508  13.4559  13.4559
    15.0843  15.0843  16.3562  16.3562  17.0659  17.0659

          k = 0.3333-0.5000 0.0000 ( 31554 PWs)   bands (ev):

   -66.3653 -66.3653 -66.3648 -66.3648 -30.7436 -30.7436 -30.7011 -30.7011
   -30.6966 -30.6966 -30.6784 -30.6784 -30.6188 -30.6188 -30.6159 -30.6159
   -20.5261 -20.5261 -20.5260 -20.5260 -20.5084 -20.5084 -20.5049 -20.5049
   -20.5047 -20.5047 -20.5023 -20.5023 -20.5023 -20.5023 -20.5017 -20.5017
   -20.4989 -20.4988 -20.4988 -20.4988 -20.4970 -20.4969 -20.4959 -20.4959
   -20.4917 -20.4917 -20.4909 -20.4909  -9.7149  -9.7149  -9.3662  -9.3662
    -9.0252  -9.0252  -8.0610  -8.0610  -8.0455  -8.0455  -7.9469  -7.9468
     1.1930   1.1930   1.3406   1.3407   1.4281   1.4281   2.4346   2.4346
     4.0669   4.0669   4.2785   4.2785   4.3177   4.3178   4.4560   4.4560
     5.3335   5.3336   5.4597   5.4597   5.4953   5.4953   5.5434   5.5434
     6.3543   6.3543   6.4085   6.4085   6.4483   6.4483   6.6337   6.6337
     6.8526   6.8526   7.9962   7.9962   9.9687   9.9687  12.1362  12.1362
    12.1586  12.1586  12.3933  12.3933  12.8979  12.8979  13.8675  13.8675
    14.1540  14.1540  15.8777  15.8777  16.7201  16.7201

          k = 0.3333-0.5000 0.1133 ( 31570 PWs)   bands (ev):

   -66.3652 -66.3652 -66.3648 -66.3648 -30.7394 -30.7394 -30.7010 -30.7010
   -30.6968 -30.6968 -30.6826 -30.6826 -30.6186 -30.6186 -30.6161 -30.6161
   -20.5261 -20.5261 -20.5260 -20.5260 -20.5080 -20.5080 -20.5049 -20.5049
   -20.5047 -20.5047 -20.5027 -20.5027 -20.5023 -20.5023 -20.5017 -20.5017
   -20.4989 -20.4988 -20.4988 -20.4988 -20.4969 -20.4969 -20.4960 -20.4960
   -20.4917 -20.4917 -20.4910 -20.4910  -9.6698  -9.6698  -9.3752  -9.3752
    -8.9910  -8.9910  -8.0845  -8.0845  -8.0584  -8.0584  -8.0175  -8.0175
     1.2912   1.2912   1.3404   1.3404   1.5807   1.5807   2.5086   2.5086
     3.8777   3.8777   4.2603   4.2603   4.3111   4.3112   4.5017   4.5017
     5.0484   5.0485   5.3999   5.3999   5.4950   5.4950   5.6832   5.6832
     6.1958   6.1958   6.4249   6.4249   6.5773   6.5773   6.6668   6.6668
     6.8184   6.8184   7.9169   7.9169  10.1438  10.1438  12.1335  12.1335
    12.1475  12.1475  12.2530  12.2530  12.9353  12.9353  13.7657  13.7657
    14.4434  14.4434  15.8438  15.8438  16.8473  16.8473

          k = 0.3333-0.5000 0.2266 ( 31560 PWs)   bands (ev):

   -66.3651 -66.3651 -66.3649 -66.3649 -30.7278 -30.7278 -30.7016 -30.7016
   -30.6973 -30.6973 -30.6932 -30.6932 -30.6181 -30.6181 -30.6167 -30.6167
   -20.5261 -20.5261 -20.5260 -20.5260 -20.5070 -20.5070 -20.5049 -20.5049
   -20.5048 -20.5048 -20.5038 -20.5038 -20.5021 -20.5021 -20.5018 -20.5018
   -20.4989 -20.4988 -20.4988 -20.4988 -20.4967 -20.4967 -20.4962 -20.4962
   -20.4915 -20.4915 -20.4911 -20.4911  -9.5648  -9.5647  -9.4051  -9.4051
    -8.8707  -8.8707  -8.3344  -8.3344  -8.0539  -8.0539  -8.0388  -8.0388
     1.3301   1.3301   1.3395   1.3395   2.2223   2.2223   2.7323   2.7323
     3.4483   3.4483   4.2332   4.2333   4.2698   4.2698   4.3257   4.3257
     4.6745   4.6745   5.2496   5.2496   5.5054   5.5054   5.6092   5.6092
     6.2627   6.2627   6.4075   6.4075   6.6697   6.6697   6.7668   6.7668
     6.9158   6.9158   7.6817   7.6817  10.6051  10.6051  11.7921  11.7921
    12.1472  12.1472  12.1709  12.1709  13.0521  13.0521  13.5212  13.5212
    15.0287  15.0287  15.7285  15.7286  17.2229  17.2229

          k = 0.3333-0.5000-0.3399 ( 31568 PWs)   bands (ev):

   -66.3650 -66.3650 -66.3650 -66.3650 -30.7122 -30.7122 -30.7122 -30.7122
   -30.6977 -30.6977 -30.6977 -30.6977 -30.6174 -30.6174 -30.6174 -30.6174
   -20.5261 -20.5261 -20.5261 -20.5261 -20.5055 -20.5055 -20.5055 -20.5055
   -20.5047 -20.5047 -20.5047 -20.5047 -20.5020 -20.5020 -20.5020 -20.5020
   -20.4988 -20.4988 -20.4988 -20.4988 -20.4965 -20.4965 -20.4965 -20.4965
   -20.4913 -20.4913 -20.4913 -20.4913  -9.4658  -9.4658  -9.4657  -9.4657
    -8.6385  -8.6385  -8.6383  -8.6383  -8.0470  -8.0470  -8.0469  -8.0469
     1.3371   1.3371   1.3374   1.3374   2.9827   2.9827   2.9860   2.9860
     3.2677   3.2677   3.2715   3.2715   4.2732   4.2732   4.3034   4.3034
     4.9352   4.9352   4.9643   4.9643   5.5243   5.5243   5.5398   5.5398
     6.3563   6.3563   6.3681   6.3681   6.7220   6.7220   6.7295   6.7295
     7.3118   7.3118   7.3193   7.3193  11.2063  11.2063  11.2096  11.2096
    12.1493  12.1493  12.1668  12.1668  13.2493  13.2493  13.2610  13.2610
    15.4784  15.4784  15.4882  15.4882  17.5951  17.6195

          k =-0.5000-0.5000 0.0000 ( 31608 PWs)   bands (ev):

   -66.3653 -66.3653 -66.3648 -66.3648 -30.7432 -30.7432 -30.7068 -30.7068
   -30.7031 -30.7031 -30.6787 -30.6787 -30.6127 -30.6127 -30.6097 -30.6097
   -20.5261 -20.5261 -20.5260 -20.5260 -20.5084 -20.5084 -20.5052 -20.5052
   -20.5050 -20.5050 -20.5022 -20.5022 -20.5022 -20.5022 -20.5015 -20.5015
   -20.4987 -20.4987 -20.4986 -20.4986 -20.4975 -20.4975 -20.4964 -20.4964
   -20.4913 -20.4913 -20.4905 -20.4905  -9.7586  -9.7586  -9.4437  -9.4437
    -9.0539  -9.0539  -7.9525  -7.9525  -7.9466  -7.9466  -7.9198  -7.9198
     1.0501   1.0501   1.0782   1.0782   1.3185   1.3185   2.3432   2.3432
     4.1483   4.1483   4.5278   4.5278   4.5744   4.5744   4.6460   4.6460
     5.3291   5.3291   5.3718   5.3718   5.7232   5.7232   5.8578   5.8578
     6.0451   6.0451   6.1860   6.1860   6.3376   6.3376   6.5613   6.5613
     6.9622   6.9622   8.0429   8.0429   9.6788   9.6788  12.2284  12.2284
    12.2712  12.2712  12.3104  12.3104  13.1128  13.1128  13.9607  13.9607
    14.0282  14.0282  15.5142  15.5142  16.8431  16.8431

          k =-0.5000-0.5000 0.1133 ( 31552 PWs)   bands (ev):

   -66.3652 -66.3652 -66.3648 -66.3648 -30.7389 -30.7389 -30.7065 -30.7065
   -30.7033 -30.7033 -30.6831 -30.6831 -30.6125 -30.6125 -30.6099 -30.6099
   -20.5261 -20.5261 -20.5260 -20.5260 -20.5080 -20.5080 -20.5052 -20.5052
   -20.5050 -20.5050 -20.5027 -20.5027 -20.5021 -20.5021 -20.5016 -20.5016
   -20.4987 -20.4987 -20.4986 -20.4986 -20.4975 -20.4975 -20.4965 -20.4965
   -20.4913 -20.4913 -20.4906 -20.4906  -9.7179  -9.7179  -9.4523  -9.4523
    -9.0152  -9.0152  -8.0600  -8.0600  -7.9448  -7.9448  -7.9216  -7.9216
     1.0658   1.0658   1.0782   1.0782   1.5562   1.5562   2.4161   2.4161
     3.8866   3.8866   4.5311   4.5311   4.5698   4.5698   4.7091   4.7091
     5.0720   5.0720   5.5150   5.5150   5.6793   5.6793   5.8588   5.8588
     6.0347   6.0347   6.1434   6.1434   6.3628   6.3628   6.6246   6.6246
     6.8622   6.8622   7.9573   7.9573   9.8931   9.8931  12.1501  12.1501
    12.2381  12.2381  12.2703  12.2703  13.1464  13.1464  13.9299  13.9299
    14.2217  14.2217  15.4822  15.4822  17.0135  17.0135

          k =-0.5000-0.5000 0.2266 ( 31572 PWs)   bands (ev):

   -66.3651 -66.3651 -66.3649 -66.3649 -30.7272 -30.7272 -30.7059 -30.7059
   -30.7040 -30.7040 -30.6950 -30.6950 -30.6119 -30.6119 -30.6105 -30.6105
   -20.5261 -20.5261 -20.5260 -20.5260 -20.5069 -20.5069 -20.5052 -20.5052
   -20.5050 -20.5050 -20.5038 -20.5038 -20.5020 -20.5020 -20.5017 -20.5017
   -20.4986 -20.4986 -20.4986 -20.4986 -20.4973 -20.4973 -20.4967 -20.4967
   -20.4911 -20.4911 -20.4907 -20.4907  -9.6244  -9.6244  -9.4806  -9.4806
    -8.8832  -8.8832  -8.3286  -8.3286  -7.9400  -7.9400  -7.9265  -7.9265
     1.0749   1.0749   1.0781   1.0781   2.2422   2.2422   2.6308   2.6308
     3.4159   3.4159   4.2510   4.2510   4.5401   4.5401   4.5691   4.5691
     4.8884   4.8884   5.4469   5.4469   5.7803   5.7803   5.8603   5.8603
     6.0164   6.0164   6.0789   6.0789   6.4351   6.4351   6.6914   6.6914
     6.9000   6.9001   7.7060   7.7060  10.4275  10.4275  11.7087  11.7087
    12.2524  12.2524  12.2672  12.2672  13.2537  13.2537  13.6955  13.6955
    14.7424  14.7424  15.3741  15.3741  17.5664  17.5664

          k =-0.5000-0.5000-0.3399 ( 31584 PWs)   bands (ev):

   -66.3650 -66.3650 -66.3650 -66.3650 -30.7111 -30.7111 -30.7111 -30.7111
   -30.7049 -30.7049 -30.7049 -30.7049 -30.6112 -30.6112 -30.6112 -30.6112
   -20.5261 -20.5261 -20.5261 -20.5261 -20.5054 -20.5054 -20.5053 -20.5053
   -20.5051 -20.5051 -20.5051 -20.5051 -20.5018 -20.5018 -20.5018 -20.5018
   -20.4986 -20.4986 -20.4986 -20.4986 -20.4970 -20.4970 -20.4970 -20.4970
   -20.4909 -20.4909 -20.4909 -20.4909  -9.5362  -9.5362  -9.5362  -9.5362
    -8.6395  -8.6394  -8.6394  -8.6394  -7.9333  -7.9333  -7.9333  -7.9333
     1.0774   1.0774   1.0774   1.0774   2.9737   2.9737   2.9737   2.9737
     3.2157   3.2157   3.2157   3.2157   4.5528   4.5528   4.5528   4.5528
     5.1567   5.1567   5.1568   5.1568   5.8511   5.8511   5.8511   5.8511
     6.0371   6.0371   6.0371   6.0371   6.5466   6.5466   6.5466   6.5466
     7.3211   7.3211   7.3211   7.3211  11.0883  11.0883  11.0883  11.0883
    12.2617  12.2617  12.2617  12.2617  13.4434  13.4434  13.4434  13.4434
    15.1486  15.1486  15.1486  15.1486  17.9343  17.9343

     the Fermi energy is     8.8877 ev

!    total energy              =   -3130.49521891 Ry
     Harris-Foulkes estimate   =   -3130.49521891 Ry
     estimated scf accuracy    <          8.6E-09 Ry

     The total energy is the sum of the following terms:

     one-electron contribution =   -2389.39812154 Ry
     hartree contribution      =    1311.84339199 Ry
     xc contribution           =    -482.93015567 Ry
     ewald contribution        =   -1570.01031299 Ry
     smearing contrib. (-TS)   =      -0.00002071 Ry

     convergence has been achieved in  11 iterations

     Writing output data file Landau_12.save/
 
     init_run     :      3.28s CPU      3.54s WALL (       1 calls)
     electrons    :    104.53s CPU    108.03s WALL (       1 calls)

     Called by init_run:
     wfcinit      :      2.62s CPU      2.81s WALL (       1 calls)
     potinit      :      0.23s CPU      0.25s WALL (       1 calls)
     hinit0       :      0.33s CPU      0.36s WALL (       1 calls)

     Called by electrons:
     c_bands      :     89.11s CPU     92.15s WALL (      11 calls)
     sum_band     :     13.60s CPU     13.78s WALL (      11 calls)
     v_of_rho     :      0.55s CPU      0.58s WALL (      12 calls)
     mix_rho      :      0.78s CPU      0.91s WALL (      11 calls)

     Called by c_bands:
     init_us_2    :      0.78s CPU      0.85s WALL (      23 calls)
     cegterg      :     68.11s CPU     70.94s WALL (      11 calls)

     Called by sum_band:

     Called by *egterg:
     h_psi        :     58.61s CPU     60.18s WALL (      42 calls)
     g_psi        :      0.14s CPU      0.15s WALL (      30 calls)
     cdiaghg      :      0.68s CPU      0.71s WALL (      41 calls)

     Called by h_psi:
     h_psi:pot    :     58.36s CPU     59.24s WALL (      42 calls)
     h_psi:calbec :      3.85s CPU      4.02s WALL (      42 calls)
     vloc_psi     :     49.98s CPU     50.59s WALL (      42 calls)
     add_vuspsi   :      4.54s CPU      4.62s WALL (      42 calls)

     General routines
     calbec       :      3.85s CPU      4.02s WALL (      42 calls)
     fft          :      0.25s CPU      0.26s WALL (      36 calls)
     ffts         :      0.08s CPU      0.08s WALL (      11 calls)
     fftw         :     50.84s CPU     51.43s WALL (    7234 calls)
 
     Parallel routines
 
     PWSCF        :   1m48.70s CPU   1m53.33s WALL

 
   This run was terminated on:  22:19:11  19Nov2019            

=------------------------------------------------------------------------------=
   JOB DONE.
=------------------------------------------------------------------------------=
