
     Program PWSCF v.6.2 (svn rev. 14038) starts on 21Mar2020 at 21:31: 7 

     This program is part of the open-source Quantum ESPRESSO suite
     for quantum simulation of materials; please cite
         "P. Giannozzi et al., J. Phys.:Condens. Matter 21 395502 (2009);
         "P. Giannozzi et al., J. Phys.:Condens. Matter 29 465901 (2017);
          URL http://www.quantum-espresso.org", 
     in publications or presentations arising from this work. More details at
     http://www.quantum-espresso.org/quote

     Parallel version (MPI), running on    40 processors

     MPI processes distributed on     7 nodes
     K-points division:     npool     =      40
     Reading input from scf.in

     Current dimensions of program PWSCF are:
     Max number of different atomic species (ntypx) = 10
     Max number of k-points (npk) =  40000
     Max angular momentum in pseudopotentials (lmaxx) =  3

     Subspace diagonalization in iterative solution of the eigenvalue problem:
     a serial algorithm will be used

 
     G-vector sticks info
     --------------------
     sticks:   dense  smooth     PW     G-vecs:    dense   smooth      PW
     Sum        7743    7743   2077               498407   498407   69057
 


     bravais-lattice index     =            0
     lattice parameter (alat)  =      13.8487  a.u.
     unit-cell volume          =    2806.4590 (a.u.)^3
     number of atoms/cell      =           32
     number of atomic types    =            2
     number of electrons       =       369.00
     number of Kohn-Sham states=          222
     kinetic-energy cutoff     =     120.0000  Ry
     charge density cutoff     =     480.0000  Ry
     convergence threshold     =      1.0E-08
     mixing beta               =       0.7000
     number of iterations used =            8  plain     mixing
     Exchange-correlation      = SLA PW NOGX NOGC ( 1  4  0  0 0 0)

     celldm(1)=  13.848651  celldm(2)=   0.000000  celldm(3)=   0.000000
     celldm(4)=   0.000000  celldm(5)=   0.000000  celldm(6)=   0.000000

     crystal axes: (cart. coord. in units of alat)
               a(1) = (   1.000000   0.000000   0.000000 )  
               a(2) = (   0.000000   1.056472   0.000000 )  
               a(3) = (   0.000000   0.000000   1.000180 )  

     reciprocal axes: (cart. coord. in units 2 pi/alat)
               b(1) = (  1.000000  0.000000  0.000000 )  
               b(2) = (  0.000000  0.946546  0.000000 )  
               b(3) = (  0.000000  0.000000  0.999820 )  


     PseudoPot. # 1 for W  read from file:
     /cluster/scratch/mnoe/QE/pps/W_ONCV_LDA-4.0.upf
     MD5 check sum: ba0307d5d4cd419d6f1d13dc49d7c13a
     Pseudo is Norm-conserving + core correction, Zval = 28.0
     Generated using ONCVPSP code by D. R. Hamann
     Using radial grid of 1380 points,  8 beta functions with: 
                l(1) =   0
                l(2) =   0
                l(3) =   1
                l(4) =   1
                l(5) =   2
                l(6) =   2
                l(7) =   3
                l(8) =   3

     PseudoPot. # 2 for O  read from file:
     /cluster/scratch/mnoe/QE/pps/O_ONCV_LDA-3.0.upf
     MD5 check sum: a1bd6164e7280c17a38c229939bfbd54
     Pseudo is Norm-conserving + core correction, Zval =  6.0
     Generated using ONCVPSP code by D. R. Hamann
     Using radial grid of  926 points,  5 beta functions with: 
                l(1) =   0
                l(2) =   0
                l(3) =   1
                l(4) =   1
                l(5) =   2

     atomic species   valence    mass     pseudopotential
        W             28.00   183.84000     W ( 1.00)
        O              6.00    15.99940     O ( 1.00)

      8 Sym. Ops., with inversion, found ( 6 have fractional translation)



   Cartesian axes

     site n.     atom                  positions (alat units)
         1           W   tau(   1) = (   0.2472300   0.2974634   0.0026205  )
         2           W   tau(   2) = (   0.7527700   0.7590090   0.9975596  )
         3           W   tau(   3) = (   0.2527700   0.2307728   0.5027105  )
         4           W   tau(   4) = (   0.7472300   0.8256996   0.4974695  )
         5           W   tau(   5) = (   0.7527700   0.2974634   0.4974695  )
         6           W   tau(   6) = (   0.2472300   0.7590090   0.5027105  )
         7           W   tau(   7) = (   0.7472300   0.2307728   0.9975596  )
         8           W   tau(   8) = (   0.2527700   0.8256996   0.0026205  )
         9           O   tau(   9) = (   0.2448800   0.0087043   0.0008201  )
        10           O   tau(  10) = (   0.7551200   1.0477681   0.9993599  )
        11           O   tau(  11) = (   0.2551200   0.5195319   0.5009101  )
        12           O   tau(  12) = (   0.7448800   0.5369405   0.4992698  )
        13           O   tau(  13) = (   0.7551200   0.0087043   0.4992698  )
        14           O   tau(  14) = (   0.2448800   1.0477681   0.5009101  )
        15           O   tau(  15) = (   0.7448800   0.5195319   0.9993599  )
        16           O   tau(  16) = (   0.2551200   0.5369405   0.0008201  )
        17           O   tau(  17) = (   0.5007600   0.2585716   0.4503476  )
        18           O   tau(  18) = (   0.4992400   0.7979008   0.5498324  )
        19           O   tau(  19) = (   0.9992399   0.2696646   0.9504377  )
        20           O   tau(  20) = (   0.0007601   0.7868079   0.0497424  )
        21           O   tau(  21) = (   0.4992400   0.2585716   0.0497424  )
        22           O   tau(  22) = (   0.5007600   0.7979008   0.9504377  )
        23           O   tau(  23) = (   0.0007601   0.2696646   0.5498324  )
        24           O   tau(  24) = (   0.9992399   0.7868079   0.4503476  )
        25           O   tau(  25) = (   0.7002666   0.2629032   0.7489848  )
        26           O   tau(  26) = (   0.2997334   0.7935693   0.2511952  )
        27           O   tau(  27) = (   0.7997334   0.2653331   0.2488948  )
        28           O   tau(  28) = (   0.2002666   0.7911394   0.7512852  )
        29           O   tau(  29) = (   0.2997334   0.2629032   0.7512852  )
        30           O   tau(  30) = (   0.7002666   0.7935693   0.2488948  )
        31           O   tau(  31) = (   0.2002666   0.2653331   0.2511952  )
        32           O   tau(  32) = (   0.7997334   0.7911394   0.7489848  )

     number of k points=    64  gaussian smearing, width (Ry)=  0.0007
                       cart. coord. in units 2pi/alat
        k(    1) = (   0.0000000   0.0000000   0.0000000), wk =   0.0092593
        k(    2) = (   0.0000000   0.0000000   0.1666367), wk =   0.0185185
        k(    3) = (   0.0000000   0.0000000   0.3332733), wk =   0.0185185
        k(    4) = (   0.0000000   0.0000000  -0.4999100), wk =   0.0092593
        k(    5) = (   0.0000000   0.1577577   0.0000000), wk =   0.0185185
        k(    6) = (   0.0000000   0.1577577   0.1666367), wk =   0.0370370
        k(    7) = (   0.0000000   0.1577577   0.3332733), wk =   0.0370370
        k(    8) = (   0.0000000   0.1577577  -0.4999100), wk =   0.0185185
        k(    9) = (   0.0000000   0.3155154   0.0000000), wk =   0.0185185
        k(   10) = (   0.0000000   0.3155154   0.1666367), wk =   0.0370370
        k(   11) = (   0.0000000   0.3155154   0.3332733), wk =   0.0370370
        k(   12) = (   0.0000000   0.3155154  -0.4999100), wk =   0.0185185
        k(   13) = (   0.0000000  -0.4732731   0.0000000), wk =   0.0092593
        k(   14) = (   0.0000000  -0.4732731   0.1666367), wk =   0.0185185
        k(   15) = (   0.0000000  -0.4732731   0.3332733), wk =   0.0185185
        k(   16) = (   0.0000000  -0.4732731  -0.4999100), wk =   0.0092593
        k(   17) = (   0.1666667   0.0000000   0.0000000), wk =   0.0185185
        k(   18) = (   0.1666667   0.0000000   0.1666367), wk =   0.0370370
        k(   19) = (   0.1666667   0.0000000   0.3332733), wk =   0.0370370
        k(   20) = (   0.1666667   0.0000000  -0.4999100), wk =   0.0185185
        k(   21) = (   0.1666667   0.1577577   0.0000000), wk =   0.0370370
        k(   22) = (   0.1666667   0.1577577   0.1666367), wk =   0.0740741
        k(   23) = (   0.1666667   0.1577577   0.3332733), wk =   0.0740741
        k(   24) = (   0.1666667   0.1577577  -0.4999100), wk =   0.0370370
        k(   25) = (   0.1666667   0.3155154   0.0000000), wk =   0.0370370
        k(   26) = (   0.1666667   0.3155154   0.1666367), wk =   0.0740741
        k(   27) = (   0.1666667   0.3155154   0.3332733), wk =   0.0740741
        k(   28) = (   0.1666667   0.3155154  -0.4999100), wk =   0.0370370
        k(   29) = (   0.1666667  -0.4732731   0.0000000), wk =   0.0185185
        k(   30) = (   0.1666667  -0.4732731   0.1666367), wk =   0.0370370
        k(   31) = (   0.1666667  -0.4732731   0.3332733), wk =   0.0370370
        k(   32) = (   0.1666667  -0.4732731  -0.4999100), wk =   0.0185185
        k(   33) = (   0.3333333   0.0000000   0.0000000), wk =   0.0185185
        k(   34) = (   0.3333333   0.0000000   0.1666367), wk =   0.0370370
        k(   35) = (   0.3333333   0.0000000   0.3332733), wk =   0.0370370
        k(   36) = (   0.3333333   0.0000000  -0.4999100), wk =   0.0185185
        k(   37) = (   0.3333333   0.1577577   0.0000000), wk =   0.0370370
        k(   38) = (   0.3333333   0.1577577   0.1666367), wk =   0.0740741
        k(   39) = (   0.3333333   0.1577577   0.3332733), wk =   0.0740741
        k(   40) = (   0.3333333   0.1577577  -0.4999100), wk =   0.0370370
        k(   41) = (   0.3333333   0.3155154   0.0000000), wk =   0.0370370
        k(   42) = (   0.3333333   0.3155154   0.1666367), wk =   0.0740741
        k(   43) = (   0.3333333   0.3155154   0.3332733), wk =   0.0740741
        k(   44) = (   0.3333333   0.3155154  -0.4999100), wk =   0.0370370
        k(   45) = (   0.3333333  -0.4732731   0.0000000), wk =   0.0185185
        k(   46) = (   0.3333333  -0.4732731   0.1666367), wk =   0.0370370
        k(   47) = (   0.3333333  -0.4732731   0.3332733), wk =   0.0370370
        k(   48) = (   0.3333333  -0.4732731  -0.4999100), wk =   0.0185185
        k(   49) = (  -0.5000000   0.0000000   0.0000000), wk =   0.0092593
        k(   50) = (  -0.5000000   0.0000000   0.1666367), wk =   0.0185185
        k(   51) = (  -0.5000000   0.0000000   0.3332733), wk =   0.0185185
        k(   52) = (  -0.5000000   0.0000000  -0.4999100), wk =   0.0092593
        k(   53) = (  -0.5000000   0.1577577   0.0000000), wk =   0.0185185
        k(   54) = (  -0.5000000   0.1577577   0.1666367), wk =   0.0370370
        k(   55) = (  -0.5000000   0.1577577   0.3332733), wk =   0.0370370
        k(   56) = (  -0.5000000   0.1577577  -0.4999100), wk =   0.0185185
        k(   57) = (  -0.5000000   0.3155154   0.0000000), wk =   0.0185185
        k(   58) = (  -0.5000000   0.3155154   0.1666367), wk =   0.0370370
        k(   59) = (  -0.5000000   0.3155154   0.3332733), wk =   0.0370370
        k(   60) = (  -0.5000000   0.3155154  -0.4999100), wk =   0.0185185
        k(   61) = (  -0.5000000  -0.4732731   0.0000000), wk =   0.0092593
        k(   62) = (  -0.5000000  -0.4732731   0.1666367), wk =   0.0185185
        k(   63) = (  -0.5000000  -0.4732731   0.3332733), wk =   0.0185185
        k(   64) = (  -0.5000000  -0.4732731  -0.4999100), wk =   0.0092593

     Dense  grid:   498407 G-vectors     FFT dimensions: ( 100, 108, 100)

     Estimated max dynamical RAM per process >       3.14 GB

     Estimated total dynamical RAM >     125.57 GB

     Initial potential from superposition of free atoms

     starting charge  367.99656, renormalised to  369.00000
     Starting wfc are  232 randomized atomic wfcs

     total cpu time spent up to now is       51.8 secs

     Self-consistent Calculation

     iteration #  1     ecut=   120.00 Ry     beta= 0.70
     Davidson diagonalization with overlap
     ethr =  1.00E-02,  avg # of iterations =  5.5

     total cpu time spent up to now is      234.7 secs

     total energy              =   -6253.08200017 Ry
     Harris-Foulkes estimate   =   -6264.05408426 Ry
     estimated scf accuracy    <      13.77541295 Ry

     iteration #  2     ecut=   120.00 Ry     beta= 0.70
     Davidson diagonalization with overlap
     ethr =  3.73E-03,  avg # of iterations =  3.6

     total cpu time spent up to now is      414.6 secs

     total energy              =   -6250.14904254 Ry
     Harris-Foulkes estimate   =   -6269.92127739 Ry
     estimated scf accuracy    <      52.20171344 Ry

     iteration #  3     ecut=   120.00 Ry     beta= 0.70
     Davidson diagonalization with overlap
     ethr =  3.73E-03,  avg # of iterations =  3.3

     total cpu time spent up to now is      579.7 secs

     total energy              =   -6260.38493356 Ry
     Harris-Foulkes estimate   =   -6260.64725959 Ry
     estimated scf accuracy    <       0.89404475 Ry

     iteration #  4     ecut=   120.00 Ry     beta= 0.70
     Davidson diagonalization with overlap
     ethr =  2.42E-04,  avg # of iterations =  3.0

     total cpu time spent up to now is      711.3 secs

     total energy              =   -6260.37480191 Ry
     Harris-Foulkes estimate   =   -6260.44955436 Ry
     estimated scf accuracy    <       0.23350268 Ry

     iteration #  5     ecut=   120.00 Ry     beta= 0.70
     Davidson diagonalization with overlap
     ethr =  6.33E-05,  avg # of iterations =  4.7

     total cpu time spent up to now is      859.8 secs

     total energy              =   -6260.37597169 Ry
     Harris-Foulkes estimate   =   -6260.40793178 Ry
     estimated scf accuracy    <       0.07157672 Ry

     iteration #  6     ecut=   120.00 Ry     beta= 0.70
     Davidson diagonalization with overlap
     ethr =  1.94E-05,  avg # of iterations =  5.8

     total cpu time spent up to now is     1014.1 secs

     total energy              =   -6260.39147491 Ry
     Harris-Foulkes estimate   =   -6260.39448554 Ry
     estimated scf accuracy    <       0.00758786 Ry

     iteration #  7     ecut=   120.00 Ry     beta= 0.70
     Davidson diagonalization with overlap
     ethr =  2.06E-06,  avg # of iterations =  5.4

     total cpu time spent up to now is     1157.7 secs

     total energy              =   -6260.39259566 Ry
     Harris-Foulkes estimate   =   -6260.39265070 Ry
     estimated scf accuracy    <       0.00009122 Ry

     iteration #  8     ecut=   120.00 Ry     beta= 0.70
     Davidson diagonalization with overlap
     ethr =  2.47E-08,  avg # of iterations =  3.6

     total cpu time spent up to now is     1341.8 secs

     total energy              =   -6260.39264882 Ry
     Harris-Foulkes estimate   =   -6260.39266256 Ry
     estimated scf accuracy    <       0.00005769 Ry

     iteration #  9     ecut=   120.00 Ry     beta= 0.70
     Davidson diagonalization with overlap
     ethr =  1.56E-08,  avg # of iterations =  1.1

     total cpu time spent up to now is     1466.3 secs

     total energy              =   -6260.39264504 Ry
     Harris-Foulkes estimate   =   -6260.39265215 Ry
     estimated scf accuracy    <       0.00001921 Ry

     iteration # 10     ecut=   120.00 Ry     beta= 0.70
     Davidson diagonalization with overlap
     ethr =  5.21E-09,  avg # of iterations =  2.7

     total cpu time spent up to now is     1598.5 secs

     total energy              =   -6260.39264776 Ry
     Harris-Foulkes estimate   =   -6260.39264818 Ry
     estimated scf accuracy    <       0.00000098 Ry

     iteration # 11     ecut=   120.00 Ry     beta= 0.70
     Davidson diagonalization with overlap
     ethr =  2.66E-10,  avg # of iterations =  3.0

     total cpu time spent up to now is     1760.9 secs

     total energy              =   -6260.39264799 Ry
     Harris-Foulkes estimate   =   -6260.39264808 Ry
     estimated scf accuracy    <       0.00000025 Ry

     iteration # 12     ecut=   120.00 Ry     beta= 0.70
     Davidson diagonalization with overlap
     ethr =  6.83E-11,  avg # of iterations =  1.8

     total cpu time spent up to now is     1887.4 secs

     total energy              =   -6260.39264796 Ry
     Harris-Foulkes estimate   =   -6260.39264800 Ry
     estimated scf accuracy    <       0.00000007 Ry

     iteration # 13     ecut=   120.00 Ry     beta= 0.70
     Davidson diagonalization with overlap
     ethr =  1.88E-11,  avg # of iterations =  2.8

     total cpu time spent up to now is     2053.7 secs

     End of self-consistent calculation

          k = 0.0000 0.0000 0.0000 ( 62271 PWs)   bands (ev):

   -65.9541 -65.9537 -65.9531 -65.9531 -65.9527 -65.9527 -65.9521 -65.9517
   -30.4286 -30.4252 -30.4251 -30.4218 -30.3679 -30.3650 -30.3649 -30.3620
   -30.2917 -30.2911 -30.2882 -30.2871 -30.2862 -30.2857 -30.2829 -30.2821
   -30.1897 -30.1891 -30.1870 -30.1862 -30.1854 -30.1847 -30.1826 -30.1818
   -20.1117 -20.1114 -20.1114 -20.1112 -20.1063 -20.1060 -20.1060 -20.1057
   -20.0981 -20.0979 -20.0978 -20.0977 -20.0971 -20.0970 -20.0969 -20.0967
   -20.0961 -20.0959 -20.0958 -20.0956 -20.0956 -20.0956 -20.0954 -20.0952
   -20.0943 -20.0941 -20.0940 -20.0939 -20.0930 -20.0930 -20.0929 -20.0928
   -20.0768 -20.0767 -20.0765 -20.0765 -20.0764 -20.0764 -20.0761 -20.0760
   -20.0292 -20.0292 -20.0290 -20.0290 -20.0276 -20.0276 -20.0274 -20.0274
   -20.0234 -20.0234 -20.0232 -20.0232 -20.0219 -20.0219 -20.0217 -20.0217
    -9.9009  -9.5982  -9.4700  -9.4700  -9.1650  -9.1634  -9.0801  -8.9699
    -8.9573  -8.8578  -8.8183  -8.8179  -7.8554  -7.7951  -7.7941  -7.7421
    -7.7029  -7.7019  -7.6759  -7.6756  -7.5499  -7.5490  -7.5278  -7.5271
     1.3081   1.3082   1.3692   1.3707   1.3960   1.3991   1.4167   1.6499
     1.6544   1.6566   1.7331   1.9194   2.4707   2.5482   2.5955   2.5967
     2.7479   2.7500   4.1907   4.1943   4.4164   4.4229   4.8405   4.8499
     4.9319   4.9354   4.9607   4.9609   5.0558   5.0564   5.0922   5.4398
     5.4444   5.5461   5.5595   5.5713   5.5718   5.5980   5.6093   5.8444
     5.8496   5.9170   5.9171   5.9516   5.9746   6.1019   6.1035   6.1989
     6.1994   6.2978   6.3003   6.5967   6.5980   6.8221   6.8277   6.8647
     6.8680   6.9120   7.0476   7.0547   7.1187   7.1216   7.4580   7.4622
     7.4995   7.5035   7.8630   7.8778   8.0953   8.1012   8.1591   8.1650
     9.4125   9.4177  10.0649  10.0668  10.0965  10.0987  12.3608  12.3645
    12.3932  12.4026  12.4568  12.4634  12.5839  12.5878  13.0115  13.0357
    13.3136  13.3276  13.4832  13.4880  13.8663  14.2157  14.2465  14.2519
    14.2661  14.4602  14.4939  14.8294  15.5589  15.5695  15.5812  16.1811
    16.1847  16.8993  17.1236  17.1286  17.3577  17.3993

          k = 0.0000 0.0000 0.1666 ( 62290 PWs)   bands (ev):

   -65.9541 -65.9537 -65.9532 -65.9531 -65.9528 -65.9526 -65.9522 -65.9518
   -30.4285 -30.4255 -30.4250 -30.4221 -30.3679 -30.3652 -30.3648 -30.3623
   -30.2907 -30.2874 -30.2861 -30.2843 -30.2824 -30.2815 -30.2793 -30.2762
   -30.1966 -30.1938 -30.1921 -30.1894 -30.1888 -30.1859 -30.1849 -30.1821
   -20.1117 -20.1115 -20.1114 -20.1112 -20.1063 -20.1060 -20.1060 -20.1057
   -20.0980 -20.0978 -20.0977 -20.0977 -20.0970 -20.0969 -20.0968 -20.0966
   -20.0961 -20.0959 -20.0958 -20.0956 -20.0955 -20.0955 -20.0954 -20.0951
   -20.0944 -20.0943 -20.0942 -20.0939 -20.0932 -20.0930 -20.0929 -20.0929
   -20.0768 -20.0767 -20.0765 -20.0764 -20.0764 -20.0763 -20.0761 -20.0761
   -20.0289 -20.0289 -20.0288 -20.0288 -20.0275 -20.0275 -20.0273 -20.0273
   -20.0239 -20.0238 -20.0231 -20.0231 -20.0223 -20.0223 -20.0218 -20.0218
    -9.8552  -9.5442  -9.4866  -9.4136  -9.1780  -9.0884  -9.0751  -8.9325
    -8.9156  -8.8432  -8.8226  -8.7829  -7.8554  -7.8235  -7.8149  -7.7988
    -7.7797  -7.7455  -7.6895  -7.6804  -7.6654  -7.6618  -7.5588  -7.5367
     1.3720   1.3722   1.3976   1.4056   1.4862   1.5245   1.6421   1.6511
     1.6535   1.7580   1.9052   2.0494   2.5571   2.6052   2.6397   2.6858
     2.7392   2.8400   4.1249   4.1943   4.4111   4.4357   4.4382   4.5596
     4.6970   4.8155   4.8336   4.9996   5.0042   5.0519   5.0763   5.3531
     5.3830   5.4336   5.5360   5.5630   5.5772   5.6227   5.6331   5.6892
     5.7647   5.8126   5.8323   5.9684   5.9881   6.1378   6.1692   6.1957
     6.3183   6.4794   6.5450   6.5869   6.6836   6.7164   6.7967   6.8594
     6.8768   6.8805   7.0084   7.0453   7.0539   7.1306   7.2386   7.2404
     7.2782   7.3380   7.8806   7.8840   8.0599   8.1101   8.1221   8.1602
     9.7505   9.7833  10.0682  10.0942  10.3283  10.3800  12.3042  12.3550
    12.3615  12.4370  12.4428  12.4843  12.5907  12.6859  13.0217  13.0680
    13.1190  13.3211  13.3849  13.4835  13.9905  14.1037  14.1234  14.2141
    14.2688  14.4878  14.5804  14.9391  15.5246  15.6000  15.6299  16.1566
    16.4894  16.8232  17.0702  17.3118  17.4462  17.4500

          k = 0.0000 0.0000 0.3333 ( 62288 PWs)   bands (ev):

   -65.9539 -65.9535 -65.9534 -65.9530 -65.9529 -65.9525 -65.9524 -65.9520
   -30.4280 -30.4262 -30.4245 -30.4228 -30.3675 -30.3659 -30.3645 -30.3629
   -30.2897 -30.2870 -30.2861 -30.2834 -30.2660 -30.2630 -30.2609 -30.2579
   -30.2152 -30.2124 -30.2106 -30.2078 -30.1880 -30.1858 -30.1851 -30.1829
   -20.1117 -20.1115 -20.1114 -20.1113 -20.1063 -20.1061 -20.1060 -20.1058
   -20.0978 -20.0977 -20.0976 -20.0973 -20.0970 -20.0966 -20.0965 -20.0964
   -20.0963 -20.0960 -20.0959 -20.0958 -20.0954 -20.0953 -20.0953 -20.0948
   -20.0947 -20.0946 -20.0945 -20.0938 -20.0937 -20.0933 -20.0930 -20.0929
   -20.0767 -20.0766 -20.0765 -20.0764 -20.0763 -20.0763 -20.0762 -20.0761
   -20.0286 -20.0286 -20.0278 -20.0278 -20.0278 -20.0278 -20.0263 -20.0263
   -20.0250 -20.0249 -20.0234 -20.0234 -20.0228 -20.0228 -20.0221 -20.0221
    -9.7444  -9.5377  -9.4192  -9.2858  -9.2224  -9.1165  -8.8767  -8.8353
    -8.8194  -8.7688  -8.7325  -8.6493  -8.1238  -8.1233  -8.0224  -8.0030
    -7.8310  -7.8088  -7.7788  -7.7547  -7.6611  -7.6377  -7.5856  -7.5632
     1.3759   1.3824   1.4227   1.4499   1.5916   1.6035   1.6255   1.6416
     2.3437   2.3752   2.5419   2.6208   2.6315   2.7336   2.8068   2.9076
     2.9297   3.0830   3.8265   3.8679   3.9295   4.0274   4.2016   4.3401
     4.3680   4.5623   4.6227   4.8025   4.8390   4.8875   5.0130   5.0231
     5.2097   5.2586   5.2612   5.3675   5.5000   5.5415   5.6280   5.6828
     5.7104   5.7578   5.7984   6.0134   6.0297   6.2379   6.3123   6.3389
     6.3487   6.4062   6.5475   6.5491   6.6082   6.6281   6.7150   6.8007
     6.8538   6.8985   6.9158   7.0490   7.0825   7.0828   7.1244   7.1797
     7.3540   7.3836   7.8188   7.8403   7.9350   7.9855   8.1441   8.1620
    10.0674  10.0875  10.4634  10.5384  10.9425  11.0537  11.9366  11.9848
    12.1608  12.5789  12.5817  12.5830  12.6311  12.6739  12.7840  12.9537
    13.0234  13.2158  13.2520  13.4914  13.7714  13.7927  14.1695  14.2095
    14.3283  14.4678  14.8936  15.2386  15.4145  15.7392  15.9944  16.0712
    16.2503  17.3214  17.4374  17.5925  17.6091  17.6924

          k = 0.0000 0.0000-0.4999 ( 62312 PWs)   bands (ev):

   -65.9536 -65.9536 -65.9532 -65.9532 -65.9526 -65.9526 -65.9522 -65.9522
   -30.4272 -30.4272 -30.4238 -30.4238 -30.3668 -30.3668 -30.3638 -30.3638
   -30.2884 -30.2884 -30.2847 -30.2847 -30.2406 -30.2406 -30.2377 -30.2377
   -30.2357 -30.2357 -30.2328 -30.2328 -30.1869 -30.1869 -30.1840 -30.1840
   -20.1116 -20.1116 -20.1114 -20.1114 -20.1062 -20.1062 -20.1059 -20.1059
   -20.0978 -20.0978 -20.0972 -20.0972 -20.0967 -20.0967 -20.0963 -20.0963
   -20.0961 -20.0961 -20.0961 -20.0961 -20.0951 -20.0951 -20.0950 -20.0950
   -20.0949 -20.0949 -20.0944 -20.0944 -20.0936 -20.0936 -20.0930 -20.0930
   -20.0766 -20.0766 -20.0765 -20.0765 -20.0763 -20.0763 -20.0762 -20.0762
   -20.0282 -20.0282 -20.0282 -20.0282 -20.0264 -20.0264 -20.0264 -20.0264
   -20.0249 -20.0249 -20.0249 -20.0249 -20.0225 -20.0225 -20.0225 -20.0225
    -9.6258  -9.6258  -9.3008  -9.3008  -9.1763  -9.1763  -8.8530  -8.8530
    -8.4874  -8.4873  -8.4674  -8.4674  -8.4406  -8.4405  -8.3726  -8.3726
    -7.8219  -7.8219  -7.7670  -7.7670  -7.6229  -7.6229  -7.6000  -7.6000
     1.3801   1.3801   1.4428   1.4428   1.6089   1.6089   1.6324   1.6324
     2.6653   2.6653   3.0429   3.0430   3.1934   3.1934   3.1980   3.1981
     3.3508   3.3508   3.4188   3.4189   3.5462   3.5462   3.8333   3.8333
     3.9287   3.9287   4.4980   4.4980   4.7577   4.7577   4.9407   4.9407
     5.2702   5.2702   5.3976   5.3977   5.4016   5.4016   5.6716   5.6716
     5.7581   5.7581   5.9408   5.9408   6.2285   6.2285   6.2826   6.2826
     6.3983   6.3983   6.4864   6.4864   6.5052   6.5052   6.5843   6.5843
     6.8275   6.8275   6.8582   6.8582   7.1041   7.1041   7.5446   7.5446
     7.6133   7.6134   7.7184   7.7184   7.7375   7.7375   8.1597   8.1597
    10.0777  10.0777  11.2560  11.2560  11.3296  11.3296  11.6374  11.6374
    11.8517  11.8517  12.6322  12.6322  12.7975  12.7975  12.9058  12.9058
    13.0087  13.0087  13.3516  13.3516  13.5459  13.5459  14.2018  14.2018
    14.4238  14.4238  15.2073  15.2073  15.6873  15.6873  15.9270  15.9270
    16.7269  16.7269  17.7776  17.7776  18.0365  18.1329

          k = 0.0000 0.1578 0.0000 ( 62271 PWs)   bands (ev):

   -65.9541 -65.9538 -65.9531 -65.9531 -65.9527 -65.9527 -65.9521 -65.9517
   -30.4246 -30.4212 -30.4211 -30.4178 -30.3720 -30.3690 -30.3689 -30.3660
   -30.2915 -30.2909 -30.2884 -30.2874 -30.2859 -30.2855 -30.2832 -30.2823
   -30.1896 -30.1889 -30.1872 -30.1864 -30.1853 -30.1845 -30.1828 -30.1820
   -20.1114 -20.1111 -20.1111 -20.1108 -20.1067 -20.1064 -20.1064 -20.1061
   -20.0981 -20.0979 -20.0978 -20.0976 -20.0972 -20.0971 -20.0969 -20.0967
   -20.0960 -20.0959 -20.0958 -20.0956 -20.0956 -20.0956 -20.0954 -20.0952
   -20.0942 -20.0940 -20.0939 -20.0939 -20.0931 -20.0931 -20.0930 -20.0928
   -20.0768 -20.0767 -20.0765 -20.0765 -20.0764 -20.0764 -20.0761 -20.0760
   -20.0292 -20.0292 -20.0290 -20.0290 -20.0276 -20.0276 -20.0274 -20.0274
   -20.0234 -20.0234 -20.0232 -20.0232 -20.0219 -20.0219 -20.0217 -20.0217
    -9.8699  -9.6102  -9.4298  -9.4296  -9.1729  -9.1714  -9.0060  -8.9691
    -8.9581  -8.8133  -8.7833  -8.7830  -7.9502  -7.8947  -7.8938  -7.8491
    -7.7012  -7.7006  -7.6777  -7.6774  -7.5485  -7.5477  -7.5293  -7.5286
     1.3081   1.3082   1.3832   1.3854   1.3960   1.3990   1.5636   1.7323
     1.8315   1.8823   1.8841   2.0728   2.4757   2.5428   2.6677   2.6690
     2.8161   2.8185   4.0550   4.0593   4.1376   4.1429   4.8149   4.9110
     4.9312   4.9382   4.9382   4.9482   4.9539   4.9975   4.9992   5.3012
     5.3046   5.4992   5.5009   5.6226   5.6555   5.6675   5.6778   5.6796
     5.8412   5.8434   5.9028   5.9055   5.9915   6.1066   6.1080   6.2034
     6.2042   6.2947   6.2990   6.6186   6.6210   6.8569   6.8610   6.8626
     6.8991   6.9023   6.9229   7.0396   7.0405   7.0462   7.4660   7.4699
     7.4994   7.5029   7.8677   7.8771   8.0532   8.0580   8.0786   8.0827
     9.4128   9.4176  10.2641  10.2647  10.2681  10.2682  12.2403  12.2480
    12.4061  12.4102  12.4282  12.4314  12.4560  12.4604  13.0150  13.0354
    13.3486  13.3606  13.4897  13.4938  14.0988  14.1459  14.1471  14.1600
    14.2520  14.7383  14.7496  15.0087  15.5697  15.5796  15.9595  16.1467
    16.1498  16.5510  17.2559  17.2608  17.4162  17.4894

          k = 0.0000 0.1578 0.1666 ( 62276 PWs)   bands (ev):

   -65.9540 -65.9537 -65.9532 -65.9530 -65.9528 -65.9527 -65.9522 -65.9518
   -30.4244 -30.4215 -30.4210 -30.4181 -30.3719 -30.3693 -30.3689 -30.3663
   -30.2905 -30.2875 -30.2858 -30.2842 -30.2827 -30.2817 -30.2791 -30.2764
   -30.1964 -30.1940 -30.1920 -30.1896 -30.1886 -30.1861 -30.1848 -30.1823
   -20.1114 -20.1111 -20.1111 -20.1109 -20.1067 -20.1064 -20.1064 -20.1061
   -20.0979 -20.0978 -20.0977 -20.0976 -20.0970 -20.0969 -20.0969 -20.0967
   -20.0961 -20.0959 -20.0958 -20.0957 -20.0955 -20.0955 -20.0954 -20.0951
   -20.0943 -20.0942 -20.0941 -20.0938 -20.0933 -20.0931 -20.0930 -20.0930
   -20.0768 -20.0767 -20.0765 -20.0764 -20.0764 -20.0763 -20.0761 -20.0761
   -20.0289 -20.0289 -20.0288 -20.0288 -20.0275 -20.0275 -20.0273 -20.0273
   -20.0239 -20.0238 -20.0231 -20.0231 -20.0223 -20.0223 -20.0218 -20.0218
    -9.8229  -9.5562  -9.4465  -9.3686  -9.1862  -9.0832  -9.0143  -8.9303
    -8.9165  -8.8014  -8.7876  -8.7527  -7.9493  -7.9036  -7.8923  -7.8553
    -7.8219  -7.7987  -7.6884  -7.6791  -7.6670  -7.6608  -7.5574  -7.5382
     1.3898   1.3910   1.3975   1.4055   1.6059   1.6518   1.6532   1.8410
     1.8795   1.9044   1.9114   2.1457   2.5634   2.6338   2.6771   2.7601
     2.8080   2.9082   4.0247   4.0739   4.1332   4.1746   4.4725   4.5571
     4.7303   4.7500   4.7992   4.9238   4.9875   4.9923   5.0210   5.2593
     5.2906   5.3316   5.3667   5.5254   5.6174   5.6318   5.6751   5.7080
     5.7512   5.8070   5.8395   5.8688   5.9202   6.1624   6.1905   6.1922
     6.2629   6.4636   6.5229   6.6093   6.7315   6.7983   6.8141   6.8444
     6.8810   6.9118   6.9888   7.0053   7.0493   7.0554   7.2389   7.2401
     7.2930   7.3371   7.8831   7.8834   8.0189   8.0453   8.0544   8.0802
     9.7566   9.7830  10.2654  10.2695  10.4945  10.5189  12.2271  12.3204
    12.3278  12.3610  12.4336  12.4345  12.4606  12.5776  13.0248  13.0702
    13.1565  13.3526  13.3892  13.4879  14.0017  14.0306  14.1226  14.1440
    14.3566  14.7435  14.8816  15.1033  15.5990  15.6296  15.9255  16.1220
    16.4526  16.7028  16.9451  17.4248  17.5009  17.5603

          k = 0.0000 0.1578 0.3333 ( 62298 PWs)   bands (ev):

   -65.9539 -65.9535 -65.9534 -65.9530 -65.9528 -65.9525 -65.9523 -65.9520
   -30.4240 -30.4222 -30.4206 -30.4188 -30.3716 -30.3700 -30.3685 -30.3670
   -30.2895 -30.2868 -30.2864 -30.2837 -30.2658 -30.2632 -30.2607 -30.2581
   -30.2151 -30.2126 -30.2104 -30.2080 -30.1878 -30.1856 -30.1853 -30.1831
   -20.1113 -20.1112 -20.1111 -20.1109 -20.1067 -20.1065 -20.1064 -20.1062
   -20.0977 -20.0977 -20.0975 -20.0972 -20.0970 -20.0967 -20.0965 -20.0965
   -20.0963 -20.0961 -20.0959 -20.0958 -20.0954 -20.0953 -20.0953 -20.0949
   -20.0946 -20.0945 -20.0945 -20.0938 -20.0938 -20.0933 -20.0931 -20.0930
   -20.0767 -20.0766 -20.0765 -20.0764 -20.0763 -20.0763 -20.0762 -20.0761
   -20.0286 -20.0286 -20.0278 -20.0278 -20.0278 -20.0278 -20.0263 -20.0263
   -20.0250 -20.0250 -20.0234 -20.0234 -20.0228 -20.0228 -20.0221 -20.0221
    -9.7091  -9.4982  -9.4307  -9.2312  -9.2273  -9.0429  -8.8523  -8.8280
    -8.8000  -8.7704  -8.7159  -8.6325  -8.1312  -8.1220  -8.0461  -8.0012
    -7.9181  -7.9020  -7.8768  -7.8468  -7.6598  -7.6393  -7.5843  -7.5647
     1.4024   1.4225   1.4253   1.4498   1.7718   1.7946   1.8739   1.8790
     2.3420   2.3847   2.5465   2.6365   2.7028   2.7929   2.8177   2.9046
     3.0059   3.1442   3.8257   3.8680   3.9236   3.9734   4.1524   4.1902
     4.2608   4.3859   4.6415   4.7469   4.8357   4.8571   4.8587   4.9080
     5.0450   5.1766   5.2113   5.2520   5.3961   5.4640   5.5549   5.6287
     5.7114   5.7518   5.7947   5.8444   6.0111   6.1917   6.2764   6.3145
     6.3780   6.5717   6.5830   6.6260   6.6790   6.6913   6.7670   6.8419
     6.8569   6.8662   6.9730   7.0008   7.0386   7.0788   7.1172   7.1681
     7.3466   7.3768   7.8222   7.8384   7.8996   7.9258   8.0727   8.0831
    10.2613  10.2680  10.4735  10.5395  11.0570  11.1431  11.9382  11.9822
    12.1246  12.4460  12.5421  12.5728  12.6122  12.6435  12.7361  12.8494
    13.0138  13.2180  13.2693  13.4869  13.6732  13.7037  14.1321  14.1402
    14.5777  14.7249  15.2393  15.3753  15.7269  15.8161  16.0097  16.0383
    16.3754  17.1431  17.2764  17.4883  17.7338  17.8086

          k = 0.0000 0.1578-0.4999 ( 62274 PWs)   bands (ev):

   -65.9536 -65.9536 -65.9532 -65.9532 -65.9526 -65.9526 -65.9522 -65.9522
   -30.4232 -30.4232 -30.4198 -30.4198 -30.3708 -30.3708 -30.3678 -30.3678
   -30.2882 -30.2882 -30.2850 -30.2850 -30.2404 -30.2404 -30.2379 -30.2379
   -30.2355 -30.2355 -30.2330 -30.2330 -30.1867 -30.1867 -30.1842 -30.1842
   -20.1113 -20.1113 -20.1110 -20.1110 -20.1066 -20.1066 -20.1063 -20.1063
   -20.0977 -20.0977 -20.0972 -20.0972 -20.0967 -20.0967 -20.0963 -20.0963
   -20.0962 -20.0962 -20.0961 -20.0961 -20.0951 -20.0951 -20.0950 -20.0950
   -20.0949 -20.0949 -20.0944 -20.0944 -20.0936 -20.0936 -20.0930 -20.0930
   -20.0766 -20.0766 -20.0765 -20.0765 -20.0762 -20.0762 -20.0762 -20.0762
   -20.0282 -20.0282 -20.0282 -20.0282 -20.0264 -20.0264 -20.0264 -20.0264
   -20.0249 -20.0249 -20.0249 -20.0249 -20.0225 -20.0225 -20.0225 -20.0225
    -9.5878  -9.5878  -9.3110  -9.3109  -9.1062  -9.1062  -8.8188  -8.8188
    -8.4912  -8.4911  -8.4632  -8.4632  -8.4510  -8.4509  -8.3674  -8.3673
    -7.9153  -7.9153  -7.8656  -7.8656  -7.6216  -7.6216  -7.6016  -7.6016
     1.4175   1.4175   1.4427   1.4427   1.7932   1.7932   1.8822   1.8822
     2.7340   2.7340   3.0611   3.0611   3.1899   3.1899   3.2425   3.2425
     3.3573   3.3573   3.4159   3.4160   3.5341   3.5342   3.8314   3.8314
     3.9758   3.9758   4.2923   4.2923   4.6708   4.6709   4.7715   4.7715
     5.0902   5.0903   5.3646   5.3647   5.3677   5.3677   5.5206   5.5206
     5.7162   5.7162   5.8205   5.8205   6.2293   6.2293   6.3596   6.3596
     6.4248   6.4248   6.5077   6.5077   6.5746   6.5746   6.6790   6.6790
     6.8824   6.8824   6.8846   6.8846   7.0207   7.0207   7.5531   7.5531
     7.6074   7.6074   7.6899   7.6899   7.7096   7.7096   8.0828   8.0828
    10.2675  10.2675  11.2621  11.2621  11.3269  11.3269  11.7021  11.7022
    11.9117  11.9117  12.5016  12.5016  12.7708  12.7708  12.9132  12.9132
    12.9498  12.9498  13.2552  13.2552  13.5140  13.5140  14.1358  14.1358
    14.6842  14.6842  15.5742  15.5742  15.8335  15.8335  15.9004  15.9004
    16.7657  16.7657  17.5859  17.5859  18.1196  18.1203

          k = 0.0000 0.3155 0.0000 ( 62255 PWs)   bands (ev):

   -65.9540 -65.9538 -65.9530 -65.9530 -65.9528 -65.9528 -65.9520 -65.9518
   -30.4135 -30.4102 -30.4101 -30.4069 -30.3832 -30.3801 -30.3800 -30.3770
   -30.2909 -30.2903 -30.2889 -30.2881 -30.2854 -30.2848 -30.2838 -30.2830
   -30.1891 -30.1884 -30.1877 -30.1870 -30.1848 -30.1841 -30.1832 -30.1825
   -20.1104 -20.1101 -20.1101 -20.1098 -20.1077 -20.1074 -20.1074 -20.1071
   -20.0979 -20.0977 -20.0976 -20.0974 -20.0974 -20.0972 -20.0970 -20.0969
   -20.0960 -20.0959 -20.0958 -20.0957 -20.0956 -20.0956 -20.0954 -20.0953
   -20.0940 -20.0939 -20.0938 -20.0937 -20.0933 -20.0933 -20.0932 -20.0930
   -20.0768 -20.0767 -20.0765 -20.0764 -20.0764 -20.0764 -20.0761 -20.0761
   -20.0292 -20.0292 -20.0290 -20.0290 -20.0276 -20.0276 -20.0274 -20.0274
   -20.0234 -20.0234 -20.0232 -20.0232 -20.0219 -20.0219 -20.0217 -20.0217
    -9.7942  -9.6473  -9.3377  -9.3371  -9.1992  -9.1978  -8.9668  -8.9604
    -8.7968  -8.6741  -8.6623  -8.6620  -8.1914  -8.1448  -8.1440  -8.1206
    -7.6963  -7.6960  -7.6827  -7.6824  -7.5445  -7.5438  -7.5335  -7.5327
     1.3081   1.3081   1.3921   1.3948   1.3957   1.3987   1.6919   1.7292
     2.3908   2.4895   2.5282   2.5384   2.5410   2.7082   2.8800   2.8833
     3.0155   3.0200   3.6592   3.6647   3.7084   3.7139   4.1622   4.4823
     4.4865   4.7574   4.9365   4.9448   4.9610   4.9697   5.0524   5.0562
     5.0798   5.0831   5.4004   5.4030   5.6062   5.6064   5.7374   5.7400
     5.8886   5.8898   5.9436   5.9468   6.1010   6.1010   6.1067   6.2191
     6.2206   6.2756   6.2821   6.5547   6.6813   6.6837   6.8994   6.9010
     6.9506   7.0218   7.1054   7.1054   7.1217   7.1231   7.4764   7.4784
     7.5011   7.5031   7.8375   7.8404   7.8750   7.8778   7.8782   7.8806
     9.4138   9.4168  10.7214  10.7248  10.7675  10.7688  11.8657  11.8733
    11.9997  12.0026  12.4298  12.4349  12.4526  12.4565  13.0226  13.0337
    13.4598  13.4675  13.5512  13.5549  13.9097  13.9102  13.9362  13.9420
    14.7965  15.3179  15.3202  15.5706  15.5760  15.6520  15.9645  16.0297
    16.0317  16.9564  17.2600  17.5926  17.7107  17.7150

          k = 0.0000 0.3155 0.1666 ( 62291 PWs)   bands (ev):

   -65.9540 -65.9538 -65.9531 -65.9530 -65.9529 -65.9527 -65.9521 -65.9519
   -30.4134 -30.4105 -30.4100 -30.4072 -30.3831 -30.3804 -30.3799 -30.3773
   -30.2898 -30.2881 -30.2852 -30.2837 -30.2834 -30.2823 -30.2786 -30.2770
   -30.1959 -30.1945 -30.1915 -30.1901 -30.1881 -30.1867 -30.1842 -30.1828
   -20.1104 -20.1101 -20.1101 -20.1099 -20.1077 -20.1074 -20.1074 -20.1071
   -20.0977 -20.0976 -20.0975 -20.0974 -20.0972 -20.0970 -20.0970 -20.0969
   -20.0961 -20.0959 -20.0958 -20.0958 -20.0955 -20.0955 -20.0954 -20.0952
   -20.0941 -20.0940 -20.0940 -20.0937 -20.0935 -20.0933 -20.0932 -20.0932
   -20.0768 -20.0767 -20.0765 -20.0764 -20.0764 -20.0764 -20.0761 -20.0761
   -20.0289 -20.0289 -20.0288 -20.0288 -20.0275 -20.0275 -20.0273 -20.0273
   -20.0238 -20.0238 -20.0231 -20.0231 -20.0223 -20.0223 -20.0218 -20.0218
    -9.7443  -9.5936  -9.3541  -9.2642  -9.2133  -9.1105  -8.9265  -8.9190
    -8.8048  -8.6671  -8.6665  -8.6437  -8.1914  -8.1518  -8.1406  -8.1262
    -7.8175  -7.8052  -7.6845  -7.6762  -7.6706  -7.6638  -7.5535  -7.5424
     1.3958   1.3973   1.4008   1.4051   1.6429   1.6523   1.8512   1.9009
     2.3932   2.5168   2.5405   2.5784   2.6187   2.6994   2.8885   2.9870
     3.0080   3.1167   3.6671   3.7037   3.7042   3.7519   4.1547   4.4522
     4.4986   4.5073   4.5778   4.7617   4.7845   4.8951   4.9946   5.0016
     5.0519   5.1019   5.1971   5.3380   5.4412   5.5048   5.6141   5.6658
     5.7219   5.8341   5.8444   5.8686   6.0877   6.1657   6.1818   6.2149
     6.2798   6.4839   6.4886   6.6142   6.6710   6.8819   6.9147   6.9585
     6.9957   7.0129   7.0914   7.1003   7.1135   7.1344   7.2399   7.2416
     7.3213   7.3401   7.8174   7.8407   7.8428   7.8614   7.8902   7.8910
     9.7669   9.7801  10.7296  10.7692  10.9062  10.9365  11.8719  11.9631
    12.0041  12.0782  12.3392  12.3564  12.4847  12.5147  13.0377  13.0702
    13.2755  13.4386  13.4539  13.5467  13.7590  13.8124  13.9090  13.9327
    14.9381  15.3111  15.5245  15.5921  15.6304  15.7196  16.0056  16.1274
    16.3265  16.9194  17.3291  17.3353  17.6638  17.8253

          k = 0.0000 0.3155 0.3333 ( 62314 PWs)   bands (ev):

   -65.9538 -65.9536 -65.9533 -65.9531 -65.9528 -65.9526 -65.9523 -65.9521
   -30.4129 -30.4112 -30.4096 -30.4079 -30.3827 -30.3811 -30.3796 -30.3780
   -30.2888 -30.2870 -30.2862 -30.2843 -30.2652 -30.2637 -30.2601 -30.2586
   -30.2145 -30.2131 -30.2099 -30.2085 -30.1873 -30.1859 -30.1851 -30.1836
   -20.1104 -20.1102 -20.1101 -20.1100 -20.1077 -20.1075 -20.1074 -20.1072
   -20.0976 -20.0975 -20.0974 -20.0971 -20.0971 -20.0968 -20.0966 -20.0966
   -20.0962 -20.0961 -20.0960 -20.0959 -20.0953 -20.0953 -20.0952 -20.0950
   -20.0945 -20.0944 -20.0944 -20.0940 -20.0937 -20.0934 -20.0933 -20.0932
   -20.0767 -20.0766 -20.0765 -20.0765 -20.0763 -20.0763 -20.0762 -20.0761
   -20.0286 -20.0286 -20.0278 -20.0278 -20.0278 -20.0278 -20.0263 -20.0263
   -20.0250 -20.0250 -20.0234 -20.0234 -20.0228 -20.0228 -20.0221 -20.0221
    -9.6238  -9.4674  -9.4063  -9.2604  -9.0810  -8.8595  -8.8353  -8.8073
    -8.7756  -8.6804  -8.6289  -8.5653  -8.2218  -8.2097  -8.1432  -8.1307
    -8.1163  -8.0646  -7.9957  -7.9614  -7.6557  -7.6438  -7.5803  -7.5690
     1.4167   1.4221   1.4435   1.4492   2.2459   2.3373   2.3431   2.4176
     2.5405   2.5464   2.5529   2.7904   2.8501   2.8768   2.9114   2.9979
     3.2362   3.3355   3.6557   3.6727   3.7718   3.8011   3.9075   3.9218
     4.1353   4.3187   4.4141   4.4321   4.5183   4.6102   4.6879   4.8435
     4.8526   4.8563   5.0136   5.0776   5.2181   5.2436   5.2579   5.4023
     5.4173   5.6429   5.6615   5.8247   6.1914   6.2595   6.2790   6.3198
     6.4580   6.6329   6.6814   6.7289   6.7592   6.8400   6.8704   6.8936
     6.9462   6.9971   7.0545   7.0810   7.0969   7.1750   7.1959   7.2124
     7.3165   7.3601   7.7428   7.7577   7.8139   7.8304   7.8502   7.8769
    10.4934  10.5146  10.7461  10.7697  11.3674  11.4137  11.8558  11.9470
    11.9747  12.0380  12.2597  12.3074  12.6459  12.7112  12.7208  12.7798
    12.9656  13.2384  13.2390  13.4642  13.5408  13.5683  13.9118  13.9271
    15.1405  15.2826  15.6747  15.9056  15.9283  16.0346  16.1030  16.6344
    16.7759  16.7921  17.1204  17.5657  17.6791  17.7720

          k = 0.0000 0.3155-0.4999 ( 62326 PWs)   bands (ev):

   -65.9535 -65.9535 -65.9533 -65.9533 -65.9525 -65.9525 -65.9523 -65.9523
   -30.4121 -30.4121 -30.4088 -30.4088 -30.3819 -30.3819 -30.3789 -30.3789
   -30.2875 -30.2875 -30.2857 -30.2857 -30.2399 -30.2399 -30.2384 -30.2384
   -30.2350 -30.2350 -30.2336 -30.2336 -30.1862 -30.1862 -30.1848 -30.1848
   -20.1103 -20.1103 -20.1100 -20.1100 -20.1076 -20.1076 -20.1073 -20.1073
   -20.0975 -20.0975 -20.0972 -20.0972 -20.0966 -20.0966 -20.0964 -20.0964
   -20.0962 -20.0962 -20.0962 -20.0962 -20.0950 -20.0950 -20.0949 -20.0949
   -20.0948 -20.0948 -20.0946 -20.0946 -20.0936 -20.0936 -20.0932 -20.0932
   -20.0766 -20.0766 -20.0765 -20.0765 -20.0762 -20.0762 -20.0762 -20.0762
   -20.0282 -20.0282 -20.0282 -20.0282 -20.0264 -20.0264 -20.0264 -20.0264
   -20.0249 -20.0249 -20.0249 -20.0249 -20.0225 -20.0225 -20.0225 -20.0225
    -9.4975  -9.4975  -9.3439  -9.3439  -8.9126  -8.9125  -8.7103  -8.7103
    -8.5078  -8.5078  -8.4978  -8.4977  -8.4452  -8.4452  -8.3474  -8.3474
    -8.1417  -8.1417  -8.0991  -8.0991  -7.6176  -7.6176  -7.6059  -7.6059
     1.4358   1.4358   1.4421   1.4421   2.3954   2.3954   2.5339   2.5339
     2.9323   2.9323   3.1121   3.1122   3.1636   3.1636   3.3395   3.3395
     3.3970   3.3971   3.4062   3.4062   3.4860   3.4861   3.6783   3.6783
     4.1025   4.1026   4.1347   4.1347   4.1556   4.1556   4.3854   4.3854
     4.8312   4.8312   4.9356   4.9356   5.1377   5.1377   5.3362   5.3362
     5.4925   5.4926   5.7433   5.7433   6.3560   6.3560   6.4256   6.4257
     6.5146   6.5146   6.5642   6.5642   6.5885   6.5885   6.7967   6.7967
     7.0623   7.0623   7.0754   7.0755   7.1177   7.1177   7.5466   7.5466
     7.5861   7.5861   7.5902   7.5902   7.6374   7.6375   7.8600   7.8600
    10.7505  10.7505  11.2770  11.2770  11.3201  11.3202  11.7762  11.7762
    12.0954  12.0954  12.2277  12.2277  12.6407  12.6407  12.7245  12.7245
    12.9346  12.9346  13.0687  13.0687  13.5346  13.5346  13.9193  13.9193
    15.2303  15.2303  15.8071  15.8071  16.2692  16.2693  16.5176  16.5176
    16.9314  16.9314  17.2145  17.2146  17.9701  17.9701

          k = 0.0000-0.4733 0.0000 ( 62212 PWs)   bands (ev):

   -65.9539 -65.9539 -65.9529 -65.9529 -65.9529 -65.9529 -65.9519 -65.9519
   -30.3984 -30.3984 -30.3952 -30.3952 -30.3951 -30.3951 -30.3920 -30.3920
   -30.2903 -30.2903 -30.2889 -30.2889 -30.2846 -30.2846 -30.2839 -30.2839
   -30.1884 -30.1884 -30.1877 -30.1877 -30.1842 -30.1842 -30.1831 -30.1831
   -20.1091 -20.1091 -20.1088 -20.1088 -20.1088 -20.1088 -20.1085 -20.1085
   -20.0976 -20.0976 -20.0975 -20.0974 -20.0972 -20.0972 -20.0972 -20.0972
   -20.0959 -20.0959 -20.0958 -20.0958 -20.0956 -20.0956 -20.0954 -20.0953
   -20.0938 -20.0938 -20.0936 -20.0936 -20.0935 -20.0935 -20.0932 -20.0932
   -20.0768 -20.0767 -20.0764 -20.0764 -20.0764 -20.0764 -20.0761 -20.0761
   -20.0292 -20.0292 -20.0290 -20.0290 -20.0276 -20.0276 -20.0274 -20.0274
   -20.0234 -20.0234 -20.0232 -20.0232 -20.0219 -20.0219 -20.0217 -20.0217
    -9.7110  -9.7110  -9.2519  -9.2519  -9.2509  -9.2509  -8.9636  -8.9636
    -8.4969  -8.4969  -8.4355  -8.4354  -8.4350  -8.4349  -8.4349  -8.4349
    -7.6904  -7.6904  -7.6884  -7.6884  -7.5390  -7.5390  -7.5383  -7.5383
     1.3081   1.3081   1.3948   1.3948   1.3977   1.3977   1.7206   1.7206
     2.5087   2.5087   3.1920   3.1920   3.2207   3.2207   3.2818   3.2818
     3.3157   3.3157   3.3210   3.3210   3.4877   3.4877   3.4946   3.4947
     3.6881   3.6881   4.9474   4.9474   4.9546   4.9546   5.2232   5.2232
     5.2318   5.2318   5.3294   5.3294   5.3326   5.3326   5.7983   5.7983
     5.8011   5.8011   6.0593   6.0593   6.0654   6.0654   6.2389   6.2389
     6.2470   6.2470   6.3035   6.3035   6.7773   6.7773   6.7794   6.7794
     6.9871   6.9871   7.4539   7.4539   7.4549   7.4549   7.4800   7.4800
     7.4808   7.4808   7.5726   7.5726   7.5742   7.5742   7.8742   7.8742
     9.4153   9.4153  11.3107  11.3107  11.3169  11.3169  11.3976  11.3976
    11.4049  11.4049  12.4449  12.4449  12.4494  12.4494  13.0295  13.0295
    13.6511  13.6511  13.6612  13.6612  13.7082  13.7082  13.7123  13.7123
    15.3656  15.3656  15.5727  15.5727  15.7800  15.7800  15.7811  15.7811
    16.5617  16.5617  17.8836  17.8836  18.1751  18.1751

          k = 0.0000-0.4733 0.1666 ( 62306 PWs)   bands (ev):

   -65.9539 -65.9539 -65.9530 -65.9530 -65.9529 -65.9528 -65.9520 -65.9520
   -30.3983 -30.3982 -30.3955 -30.3954 -30.3950 -30.3950 -30.3923 -30.3923
   -30.2890 -30.2890 -30.2843 -30.2843 -30.2830 -30.2830 -30.2778 -30.2778
   -30.1952 -30.1952 -30.1908 -30.1908 -30.1874 -30.1874 -30.1835 -30.1835
   -20.1091 -20.1091 -20.1088 -20.1088 -20.1088 -20.1088 -20.1085 -20.1085
   -20.0975 -20.0975 -20.0973 -20.0973 -20.0972 -20.0972 -20.0971 -20.0971
   -20.0960 -20.0960 -20.0958 -20.0958 -20.0955 -20.0955 -20.0953 -20.0953
   -20.0939 -20.0939 -20.0938 -20.0938 -20.0935 -20.0935 -20.0933 -20.0933
   -20.0767 -20.0767 -20.0764 -20.0764 -20.0764 -20.0764 -20.0761 -20.0761
   -20.0289 -20.0289 -20.0288 -20.0288 -20.0275 -20.0275 -20.0273 -20.0273
   -20.0238 -20.0238 -20.0231 -20.0231 -20.0223 -20.0223 -20.0218 -20.0218
    -9.6585  -9.6585  -9.2673  -9.2673  -9.1676  -9.1676  -8.9226  -8.9226
    -8.5026  -8.5026  -8.4409  -8.4409  -8.4334  -8.4334  -8.4273  -8.4273
    -7.8115  -7.8115  -7.6789  -7.6789  -7.6687  -7.6687  -7.5480  -7.5480
     1.3969   1.3969   1.4040   1.4041   1.6501   1.6501   1.8903   1.8903
     2.5987   2.5987   3.2033   3.2033   3.2278   3.2278   3.2794   3.2794
     3.3158   3.3158   3.3578   3.3578   3.4911   3.4911   3.5433   3.5433
     3.7179   3.7179   4.5351   4.5351   4.9770   4.9770   5.0051   5.0051
     5.1474   5.1474   5.2133   5.2133   5.3451   5.3451   5.5348   5.5348
     5.7740   5.7740   5.8474   5.8474   6.1710   6.1710   6.1992   6.1993
     6.4234   6.4234   6.4873   6.4873   6.7661   6.7662   6.9476   6.9476
     7.0457   7.0457   7.2362   7.2362   7.2806   7.2806   7.4667   7.4667
     7.4881   7.4881   7.5241   7.5241   7.5481   7.5481   7.8860   7.8860
     9.7748   9.7748  11.3217  11.3217  11.3967  11.3967  11.4416  11.4416
    11.5220  11.5221  12.3491  12.3491  12.5008  12.5008  13.0588  13.0588
    13.4742  13.4742  13.5755  13.5755  13.6710  13.6710  13.7044  13.7044
    15.4595  15.4595  15.6716  15.6716  15.7621  15.7621  16.0489  16.0489
    16.6258  16.6258  17.8391  17.8391  17.9289  17.9289

          k = 0.0000-0.4733 0.3333 ( 62294 PWs)   bands (ev):

   -65.9537 -65.9537 -65.9532 -65.9532 -65.9527 -65.9527 -65.9522 -65.9522
   -30.3978 -30.3978 -30.3962 -30.3962 -30.3946 -30.3946 -30.3930 -30.3930
   -30.2879 -30.2879 -30.2853 -30.2853 -30.2645 -30.2645 -30.2594 -30.2594
   -30.2138 -30.2138 -30.2092 -30.2092 -30.1866 -30.1866 -30.1844 -30.1844
   -20.1090 -20.1090 -20.1089 -20.1089 -20.1088 -20.1087 -20.1086 -20.1086
   -20.0974 -20.0974 -20.0973 -20.0973 -20.0969 -20.0969 -20.0967 -20.0967
   -20.0962 -20.0961 -20.0960 -20.0959 -20.0953 -20.0953 -20.0951 -20.0951
   -20.0943 -20.0943 -20.0942 -20.0942 -20.0935 -20.0935 -20.0934 -20.0934
   -20.0766 -20.0766 -20.0765 -20.0765 -20.0763 -20.0763 -20.0761 -20.0761
   -20.0286 -20.0286 -20.0278 -20.0278 -20.0278 -20.0278 -20.0263 -20.0263
   -20.0250 -20.0250 -20.0234 -20.0234 -20.0228 -20.0228 -20.0221 -20.0221
    -9.5332  -9.5332  -9.3175  -9.3175  -8.9365  -8.9365  -8.7857  -8.7857
    -8.5333  -8.5333  -8.4622  -8.4622  -8.4226  -8.4226  -8.3966  -8.3966
    -8.1055  -8.1055  -7.9857  -7.9857  -7.6498  -7.6498  -7.5747  -7.5747
     1.4207   1.4208   1.4478   1.4478   2.3258   2.3258   2.5249   2.5249
     2.8595   2.8595   3.2151   3.2151   3.2462   3.2462   3.2720   3.2720
     3.3010   3.3010   3.4349   3.4349   3.4843   3.4844   3.7071   3.7071
     3.7910   3.7910   3.9084   3.9084   4.5107   4.5107   4.6786   4.6786
     4.8318   4.8318   4.9049   4.9049   5.2655   5.2655   5.2764   5.2764
     5.4039   5.4039   5.7009   5.7009   6.2616   6.2616   6.3163   6.3163
     6.5653   6.5653   6.7262   6.7262   6.7699   6.7699   6.9136   6.9136
     7.0596   7.0596   7.2126   7.2126   7.2178   7.2178   7.4495   7.4495
     7.4832   7.4833   7.5109   7.5109   7.5206   7.5206   7.8368   7.8368
    10.5097  10.5097  11.3362  11.3362  11.3782  11.3782  11.8228  11.8228
    11.8705  11.8705  11.9671  11.9671  12.6697  12.6697  12.8460  12.8460
    13.0051  13.0051  13.3076  13.3076  13.6750  13.6750  13.6979  13.6979
    15.5125  15.5126  15.7017  15.7017  16.2307  16.2307  16.7552  16.7552
    16.8593  16.8593  17.3280  17.3280  17.9707  17.9707

          k = 0.0000-0.4733-0.4999 ( 62316 PWs)   bands (ev):

   -65.9534 -65.9534 -65.9534 -65.9534 -65.9524 -65.9524 -65.9524 -65.9524
   -30.3971 -30.3971 -30.3971 -30.3971 -30.3939 -30.3939 -30.3939 -30.3939
   -30.2866 -30.2866 -30.2866 -30.2866 -30.2392 -30.2392 -30.2392 -30.2392
   -30.2343 -30.2343 -30.2343 -30.2343 -30.1855 -30.1855 -30.1855 -30.1855
   -20.1090 -20.1090 -20.1090 -20.1090 -20.1087 -20.1087 -20.1087 -20.1087
   -20.0973 -20.0973 -20.0973 -20.0973 -20.0965 -20.0965 -20.0965 -20.0964
   -20.0963 -20.0963 -20.0963 -20.0962 -20.0949 -20.0949 -20.0949 -20.0949
   -20.0948 -20.0948 -20.0947 -20.0947 -20.0935 -20.0935 -20.0934 -20.0934
   -20.0766 -20.0766 -20.0765 -20.0765 -20.0762 -20.0762 -20.0762 -20.0762
   -20.0282 -20.0282 -20.0282 -20.0282 -20.0264 -20.0264 -20.0264 -20.0264
   -20.0249 -20.0249 -20.0249 -20.0249 -20.0225 -20.0225 -20.0225 -20.0225
    -9.4061  -9.4061  -9.4061  -9.4061  -8.6614  -8.6614  -8.6614  -8.6614
    -8.5642  -8.5642  -8.5641  -8.5641  -8.3651  -8.3650  -8.3650  -8.3650
    -8.2856  -8.2856  -8.2856  -8.2856  -7.6118  -7.6118  -7.6118  -7.6118
     1.4405   1.4405   1.4405   1.4405   3.0744   3.0744   3.0744   3.0744
     3.1925   3.1925   3.1925   3.1925   3.2657   3.2657   3.2657   3.2657
     3.3430   3.3430   3.3430   3.3430   3.5094   3.5094   3.5094   3.5094
     3.6567   3.6567   3.6567   3.6567   4.3320   4.3321   4.3321   4.3321
     4.4425   4.4426   4.4426   4.4426   5.2533   5.2533   5.2533   5.2533
     5.5571   5.5571   5.5571   5.5572   6.4148   6.4148   6.4148   6.4148
     6.5691   6.5691   6.5691   6.5691   6.6819   6.6819   6.6819   6.6819
     7.3129   7.3129   7.3129   7.3130   7.3921   7.3921   7.3921   7.3921
     7.4875   7.4875   7.4875   7.4875   7.6362   7.6362   7.6362   7.6362
    11.2679  11.2680  11.2680  11.2680  11.3878  11.3878  11.3878  11.3879
    12.3629  12.3629  12.3629  12.3629  12.3942  12.3942  12.3942  12.3942
    12.9709  12.9709  12.9709  12.9709  13.6861  13.6861  13.6861  13.6861
    15.6066  15.6066  15.6066  15.6066  16.8233  16.8233  16.8234  16.8234
    17.4142  17.4142  17.4143  17.4143  17.5550  17.5550

          k = 0.1667 0.0000 0.0000 ( 62290 PWs)   bands (ev):

   -65.9541 -65.9537 -65.9532 -65.9531 -65.9528 -65.9526 -65.9522 -65.9518
   -30.4285 -30.4254 -30.4251 -30.4221 -30.3678 -30.3651 -30.3649 -30.3623
   -30.2913 -30.2879 -30.2865 -30.2841 -30.2833 -30.2805 -30.2788 -30.2754
   -30.1960 -30.1931 -30.1915 -30.1895 -30.1888 -30.1867 -30.1855 -30.1829
   -20.1117 -20.1115 -20.1114 -20.1112 -20.1063 -20.1060 -20.1060 -20.1057
   -20.0981 -20.0979 -20.0976 -20.0975 -20.0971 -20.0970 -20.0967 -20.0965
   -20.0961 -20.0959 -20.0957 -20.0957 -20.0956 -20.0955 -20.0953 -20.0951
   -20.0945 -20.0941 -20.0941 -20.0940 -20.0932 -20.0931 -20.0930 -20.0928
   -20.0768 -20.0767 -20.0765 -20.0764 -20.0764 -20.0763 -20.0761 -20.0761
   -20.0291 -20.0291 -20.0286 -20.0286 -20.0278 -20.0277 -20.0271 -20.0271
   -20.0236 -20.0236 -20.0233 -20.0233 -20.0221 -20.0221 -20.0220 -20.0220
    -9.8553  -9.5444  -9.4867  -9.4136  -9.1796  -9.0884  -9.0736  -8.9328
    -8.9154  -8.8428  -8.8231  -8.7824  -7.8575  -7.8188  -7.8151  -7.7978
    -7.7806  -7.7455  -7.6921  -7.6775  -7.6679  -7.6600  -7.5597  -7.5374
     1.3707   1.3711   1.3958   1.4025   1.4857   1.5247   1.6422   1.6488
     1.6561   1.7609   1.9072   2.0506   2.5567   2.6065   2.6396   2.6847
     2.7411   2.8384   4.1228   4.1972   4.4056   4.4340   4.4438   4.5600
     4.6942   4.8119   4.8445   4.9944   5.0095   5.0416   5.0725   5.3585
     5.3939   5.4320   5.5408   5.5544   5.5796   5.6156   5.6385   5.6883
     5.7704   5.8115   5.8290   5.9665   5.9929   6.1429   6.1617   6.1948
     6.3248   6.4785   6.5390   6.5841   6.6897   6.7184   6.7920   6.8560
     6.8652   6.8957   7.0079   7.0458   7.0520   7.1269   7.2430   7.2436
     7.2764   7.3349   7.8806   7.8840   8.0547   8.1158   8.1170   8.1658
     9.7504   9.7863  10.0674  10.0966  10.3264  10.3791  12.3204  12.3275
    12.3712  12.4248  12.4641  12.4757  12.5870  12.6887  13.0283  13.0285
    13.1723  13.2974  13.3874  13.4881  13.9730  14.1068  14.1469  14.2435
    14.2507  14.4536  14.5929  14.9394  15.5244  15.6002  15.6281  16.1530
    16.4927  16.8198  17.0695  17.3170  17.4462  17.4499

          k = 0.1667 0.0000 0.1666 ( 62282 PWs)   bands (ev):

   -65.9540 -65.9536 -65.9531 -65.9531 -65.9527 -65.9527 -65.9522 -65.9518
   -30.4283 -30.4253 -30.4253 -30.4224 -30.3678 -30.3652 -30.3651 -30.3625
   -30.2845 -30.2839 -30.2811 -30.2805 -30.2794 -30.2790 -30.2765 -30.2757
   -30.1963 -30.1957 -30.1936 -30.1928 -30.1925 -30.1917 -30.1896 -30.1888
   -20.1117 -20.1115 -20.1115 -20.1112 -20.1063 -20.1060 -20.1060 -20.1058
   -20.0980 -20.0978 -20.0976 -20.0975 -20.0970 -20.0969 -20.0967 -20.0965
   -20.0962 -20.0959 -20.0958 -20.0956 -20.0956 -20.0955 -20.0953 -20.0951
   -20.0945 -20.0943 -20.0942 -20.0940 -20.0932 -20.0932 -20.0931 -20.0930
   -20.0767 -20.0766 -20.0765 -20.0764 -20.0764 -20.0763 -20.0761 -20.0761
   -20.0288 -20.0287 -20.0285 -20.0285 -20.0274 -20.0274 -20.0272 -20.0272
   -20.0237 -20.0237 -20.0235 -20.0235 -20.0224 -20.0224 -20.0222 -20.0222
    -9.8076  -9.4854  -9.4300  -9.4300  -9.0972  -9.0900  -9.0885  -8.8917
    -8.8787  -8.8338  -8.7881  -8.7876  -7.8581  -7.8168  -7.8139  -7.8070
    -7.8052  -7.7782  -7.7774  -7.7490  -7.7099  -7.6946  -7.6666  -7.6457
     1.4668   1.5177   1.5179   1.5676   1.5679   1.6342   1.6603   1.6629
     1.7611   1.7640   1.9909   2.1305   2.6444   2.6939   2.6949   2.7357
     2.8146   2.8508   4.1267   4.1306   4.3812   4.3834   4.5253   4.5258
     4.6228   4.6231   4.7254   4.7275   4.7791   4.8433   5.0585   5.3013
     5.3294   5.3791   5.4113   5.4997   5.5039   5.6630   5.6659   5.7115
     5.7126   5.7465   5.8023   5.8245   5.8269   6.0014   6.3510   6.4949
     6.5047   6.5673   6.5890   6.6574   6.7034   6.7149   6.7149   6.7539
     6.8049   6.8870   6.8927   6.9098   6.9380   7.0241   7.0253   7.1423
     7.3711   7.4315   7.8817   7.8823   8.0550   8.1029   8.1184   8.1233
     9.9724  10.0466  10.3256  10.3306  10.3404  10.4365  12.3595  12.3712
    12.3819  12.3939  12.4065  12.4390  12.6753  12.6787  13.0490  13.0506
    13.1134  13.1843  13.2770  13.4523  14.0387  14.0718  14.0995  14.1510
    14.1832  14.5718  14.5844  15.0565  15.4912  15.6811  15.6973  16.4543
    16.4576  16.9842  16.9865  17.2084  17.4983  17.5318

          k = 0.1667 0.0000 0.3333 ( 62306 PWs)   bands (ev):

   -65.9538 -65.9534 -65.9533 -65.9529 -65.9529 -65.9525 -65.9524 -65.9520
   -30.4278 -30.4261 -30.4248 -30.4231 -30.3674 -30.3658 -30.3647 -30.3632
   -30.2829 -30.2802 -30.2794 -30.2767 -30.2656 -30.2626 -30.2612 -30.2582
   -30.2149 -30.2121 -30.2109 -30.2081 -30.1948 -30.1925 -30.1919 -30.1897
   -20.1117 -20.1115 -20.1114 -20.1113 -20.1063 -20.1061 -20.1060 -20.1059
   -20.0976 -20.0976 -20.0974 -20.0973 -20.0969 -20.0966 -20.0965 -20.0964
   -20.0963 -20.0960 -20.0959 -20.0956 -20.0954 -20.0954 -20.0952 -20.0948
   -20.0947 -20.0947 -20.0946 -20.0939 -20.0937 -20.0934 -20.0932 -20.0931
   -20.0767 -20.0766 -20.0765 -20.0764 -20.0764 -20.0763 -20.0762 -20.0761
   -20.0283 -20.0282 -20.0277 -20.0277 -20.0275 -20.0274 -20.0264 -20.0264
   -20.0249 -20.0248 -20.0235 -20.0235 -20.0232 -20.0232 -20.0225 -20.0225
    -9.6923  -9.4807  -9.3467  -9.3007  -9.1339  -9.1263  -8.8388  -8.8355
    -8.8010  -8.7456  -8.7249  -8.6570  -8.1132  -8.1123  -8.0389  -8.0155
    -7.8302  -7.8116  -7.7847  -7.7792  -7.7592  -7.7583  -7.7079  -7.6889
     1.4795   1.5034   1.5817   1.6169   1.6807   1.7020   1.7552   1.7737
     2.3508   2.3826   2.5260   2.6077   2.7183   2.8100   2.9117   2.9372
     3.0223   3.0935   3.8602   3.8920   3.9979   3.9990   4.1927   4.3482
     4.3703   4.5465   4.5584   4.6159   4.6534   4.8001   4.8296   4.9803
     5.0223   5.0992   5.1355   5.2695   5.3354   5.3962   5.5614   5.6942
     5.7137   5.7590   5.8117   5.8350   5.8399   6.0157   6.2161   6.2823
     6.4524   6.4728   6.5014   6.5968   6.6180   6.6828   6.6879   6.7149
     6.8284   6.9040   6.9214   6.9376   7.1781   7.2045   7.2292   7.2948
     7.3668   7.4087   7.8279   7.8441   7.9521   7.9879   8.1121   8.1211
    10.3235  10.3319  10.6114  10.6783  10.9510  11.0750  11.9919  12.0353
    12.2103  12.5134  12.5375  12.5923  12.6228  12.6773  12.8377  12.9323
    12.9996  13.1077  13.1736  13.3745  13.7486  13.7663  14.0774  14.1046
    14.3605  14.5560  14.8791  15.3734  15.3845  15.9316  16.0926  16.3612
    16.3864  17.2945  17.4130  17.5559  17.6302  17.8038

          k = 0.1667 0.0000-0.4999 ( 62334 PWs)   bands (ev):

   -65.9536 -65.9536 -65.9532 -65.9532 -65.9527 -65.9527 -65.9523 -65.9523
   -30.4270 -30.4270 -30.4240 -30.4240 -30.3667 -30.3667 -30.3641 -30.3640
   -30.2816 -30.2816 -30.2780 -30.2780 -30.2403 -30.2403 -30.2374 -30.2374
   -30.2361 -30.2361 -30.2332 -30.2332 -30.1937 -30.1937 -30.1908 -30.1908
   -20.1116 -20.1116 -20.1114 -20.1114 -20.1062 -20.1062 -20.1060 -20.1060
   -20.0976 -20.0976 -20.0971 -20.0971 -20.0968 -20.0968 -20.0963 -20.0963
   -20.0961 -20.0961 -20.0959 -20.0959 -20.0951 -20.0951 -20.0950 -20.0950
   -20.0949 -20.0949 -20.0943 -20.0943 -20.0937 -20.0937 -20.0932 -20.0932
   -20.0766 -20.0766 -20.0765 -20.0765 -20.0763 -20.0763 -20.0762 -20.0762
   -20.0279 -20.0279 -20.0279 -20.0278 -20.0263 -20.0263 -20.0263 -20.0263
   -20.0250 -20.0250 -20.0250 -20.0250 -20.0229 -20.0229 -20.0229 -20.0229
    -9.5699  -9.5699  -9.2167  -9.2167  -9.1882  -9.1882  -8.8193  -8.8193
    -8.4863  -8.4862  -8.4812  -8.4812  -8.4282  -8.4281  -8.3749  -8.3748
    -7.8219  -7.8219  -7.7709  -7.7709  -7.7446  -7.7446  -7.7246  -7.7246
     1.4894   1.4894   1.5996   1.5996   1.7015   1.7016   1.7827   1.7827
     2.7468   2.7468   3.0565   3.0565   3.1419   3.1419   3.2669   3.2669
     3.3768   3.3768   3.4848   3.4848   3.5968   3.5968   3.8529   3.8529
     3.9221   3.9222   4.4602   4.4603   4.5676   4.5676   4.9205   4.9205
     5.0887   5.0887   5.1039   5.1039   5.2843   5.2844   5.6325   5.6325
     5.7998   5.7998   5.8462   5.8462   5.9625   5.9625   5.9820   5.9820
     6.3752   6.3752   6.4525   6.4525   6.6783   6.6783   6.7534   6.7535
     6.8619   6.8619   7.0155   7.0155   7.0801   7.0801   7.5877   7.5877
     7.6389   7.6389   7.7310   7.7310   7.7447   7.7447   8.1210   8.1210
    10.3380  10.3380  11.3314  11.3314  11.4064  11.4064  11.6602  11.6602
    11.8651  11.8651  12.6985  12.6985  12.7483  12.7483  12.7961  12.7961
    12.9997  12.9997  13.3279  13.3279  13.4371  13.4371  14.0885  14.0885
    14.4943  14.4943  15.1841  15.1841  15.8278  15.8278  16.1906  16.1906
    16.8353  16.8353  17.7964  17.7965  17.8385  17.8385

          k = 0.1667 0.1578 0.0000 ( 62276 PWs)   bands (ev):

   -65.9540 -65.9537 -65.9532 -65.9530 -65.9528 -65.9527 -65.9522 -65.9518
   -30.4244 -30.4214 -30.4211 -30.4181 -30.3719 -30.3692 -30.3690 -30.3663
   -30.2910 -30.2882 -30.2863 -30.2839 -30.2835 -30.2808 -30.2786 -30.2756
   -30.1958 -30.1933 -30.1913 -30.1893 -30.1889 -30.1869 -30.1853 -30.1831
   -20.1114 -20.1111 -20.1111 -20.1109 -20.1067 -20.1064 -20.1064 -20.1061
   -20.0981 -20.0979 -20.0976 -20.0974 -20.0972 -20.0971 -20.0968 -20.0966
   -20.0961 -20.0959 -20.0957 -20.0957 -20.0956 -20.0955 -20.0953 -20.0952
   -20.0944 -20.0940 -20.0940 -20.0939 -20.0933 -20.0932 -20.0931 -20.0929
   -20.0768 -20.0767 -20.0765 -20.0764 -20.0764 -20.0764 -20.0761 -20.0761
   -20.0291 -20.0291 -20.0286 -20.0286 -20.0278 -20.0277 -20.0271 -20.0271
   -20.0236 -20.0236 -20.0233 -20.0233 -20.0221 -20.0221 -20.0220 -20.0220
    -9.8230  -9.5564  -9.4467  -9.3685  -9.1877  -9.0818  -9.0144  -8.9304
    -8.9163  -8.8011  -8.7879  -8.7522  -7.9495  -7.9030  -7.8929  -7.8553
    -7.8202  -7.7977  -7.6906  -7.6765  -7.6695  -7.6591  -7.5582  -7.5390
     1.3879   1.3894   1.3958   1.4025   1.6071   1.6505   1.6573   1.8413
     1.8772   1.9066   1.9137   2.1465   2.5631   2.6337   2.6785   2.7588
     2.8103   2.9063   4.0211   4.0767   4.1302   4.1790   4.4712   4.5577
     4.7264   4.7338   4.8483   4.8967   4.9793   5.0045   5.0063   5.2602
     5.3118   5.3145   5.3728   5.5262   5.6167   5.6326   5.6728   5.7025
     5.7560   5.8100   5.8388   5.8714   5.9205   6.1715   6.1731   6.1952
     6.2675   6.4678   6.5152   6.6076   6.7324   6.7948   6.8149   6.8434
     6.8793   6.9149   6.9881   7.0066   7.0438   7.0605   7.2432   7.2432
     7.2906   7.3341   7.8830   7.8835   8.0147   8.0420   8.0591   8.0839
     9.7568   9.7847  10.2647  10.2693  10.4942  10.5190  12.2209  12.3271
    12.3299  12.3641  12.4302  12.4335  12.4575  12.5775  13.0284  13.0446
    13.1951  13.3300  13.3954  13.4918  13.9911  14.0211  14.1447  14.1577
    14.3460  14.7331  14.8857  15.1035  15.5996  15.6276  15.9248  16.1194
    16.4555  16.7020  16.9425  17.4285  17.5007  17.5610

          k = 0.1667 0.1578 0.1666 ( 62285 PWs)   bands (ev):

   -65.9540 -65.9536 -65.9531 -65.9531 -65.9527 -65.9527 -65.9522 -65.9519
   -30.4243 -30.4213 -30.4213 -30.4184 -30.3718 -30.3692 -30.3691 -30.3666
   -30.2843 -30.2837 -30.2813 -30.2806 -30.2793 -30.2789 -30.2768 -30.2759
   -30.1961 -30.1955 -30.1938 -30.1930 -30.1923 -30.1915 -30.1898 -30.1890
   -20.1114 -20.1111 -20.1111 -20.1109 -20.1067 -20.1064 -20.1064 -20.1061
   -20.0979 -20.0977 -20.0976 -20.0974 -20.0971 -20.0969 -20.0968 -20.0965
   -20.0961 -20.0960 -20.0958 -20.0956 -20.0956 -20.0956 -20.0953 -20.0951
   -20.0944 -20.0942 -20.0941 -20.0940 -20.0933 -20.0933 -20.0932 -20.0930
   -20.0767 -20.0766 -20.0764 -20.0764 -20.0764 -20.0764 -20.0761 -20.0761
   -20.0288 -20.0287 -20.0285 -20.0285 -20.0274 -20.0274 -20.0272 -20.0272
   -20.0237 -20.0237 -20.0235 -20.0235 -20.0224 -20.0224 -20.0222 -20.0222
    -9.7738  -9.4975  -9.3854  -9.3852  -9.0983  -9.0968  -9.0231  -8.8909
    -8.8796  -8.7922  -8.7576  -8.7571  -7.9495  -7.9015  -7.9006  -7.8621
    -7.8117  -7.8103  -7.7879  -7.7875  -7.7088  -7.6907  -7.6654  -7.6472
     1.5671   1.5675   1.6087   1.6099   1.6597   1.6601   1.6675   1.8401
     1.9093   1.9115   1.9902   2.2037   2.6532   2.7299   2.7677   2.7688
     2.8871   2.9142   4.0285   4.0527   4.1593   4.1622   4.5210   4.5242
     4.6245   4.6269   4.7095   4.7351   4.7538   4.7904   4.8403   5.2390
     5.2655   5.2713   5.2842   5.4056   5.4259   5.6201   5.6276   5.6470
     5.7762   5.7838   5.7866   5.8344   5.8351   5.8667   6.3712   6.4232
     6.4284   6.5641   6.5865   6.6795   6.7144   6.7742   6.8048   6.8097
     6.8266   6.8600   6.9097   6.9146   6.9920   7.0021   7.0105   7.1481
     7.3749   7.4295   7.8821   7.8827   8.0014   8.0438   8.0467   8.0485
     9.9913  10.0443  10.4788  10.4959  10.5001  10.5675  12.2815  12.3229
    12.3745  12.3772  12.3798  12.3820  12.5413  12.5432  13.0419  13.0709
    13.1509  13.2000  13.2824  13.4571  13.9775  13.9894  13.9984  14.0638
    14.4597  14.8744  14.8793  15.2045  15.6820  15.6959  15.8928  16.4197
    16.4226  16.8233  17.0856  17.0877  17.5701  17.6349

          k = 0.1667 0.1578 0.3333 ( 62301 PWs)   bands (ev):

   -65.9538 -65.9534 -65.9533 -65.9529 -65.9529 -65.9526 -65.9524 -65.9521
   -30.4238 -30.4221 -30.4208 -30.4191 -30.3715 -30.3699 -30.3688 -30.3672
   -30.2827 -30.2800 -30.2796 -30.2770 -30.2654 -30.2628 -30.2610 -30.2584
   -30.2147 -30.2123 -30.2107 -30.2083 -30.1946 -30.1924 -30.1921 -30.1899
   -20.1113 -20.1112 -20.1111 -20.1110 -20.1067 -20.1065 -20.1064 -20.1062
   -20.0976 -20.0976 -20.0974 -20.0972 -20.0970 -20.0966 -20.0965 -20.0964
   -20.0963 -20.0961 -20.0959 -20.0957 -20.0954 -20.0953 -20.0952 -20.0949
   -20.0946 -20.0946 -20.0945 -20.0939 -20.0938 -20.0934 -20.0933 -20.0932
   -20.0767 -20.0766 -20.0765 -20.0764 -20.0764 -20.0763 -20.0762 -20.0761
   -20.0283 -20.0282 -20.0277 -20.0277 -20.0275 -20.0274 -20.0264 -20.0264
   -20.0249 -20.0248 -20.0235 -20.0235 -20.0232 -20.0232 -20.0225 -20.0225
    -9.6545  -9.4370  -9.3587  -9.2428  -9.1430  -9.0529  -8.8443  -8.8149
    -8.7701  -8.7469  -8.7103  -8.6396  -8.1203  -8.1114  -8.0627  -8.0136
    -7.9163  -7.9023  -7.8814  -7.8513  -7.7814  -7.7610  -7.7072  -7.6890
     1.6163   1.6311   1.6803   1.7016   1.7933   1.7979   1.8814   1.9120
     2.3493   2.3920   2.5286   2.6210   2.7912   2.8734   2.9311   3.0124
     3.0191   3.1483   3.8614   3.8914   3.9540   3.9896   4.1548   4.2155
     4.2805   4.3997   4.5809   4.6338   4.6833   4.7496   4.7734   4.8123
     4.9240   4.9782   5.0215   5.1745   5.2523   5.3009   5.3366   5.6161
     5.6662   5.6748   5.7641   5.8261   5.8386   5.8544   6.2284   6.2822
     6.4049   6.5356   6.5704   6.6514   6.7143   6.7168   6.7517   6.8045
     6.8782   6.9120   6.9357   6.9734   7.1742   7.1968   7.2242   7.2988
     7.3578   7.4026   7.8286   7.8413   7.9059   7.9284   8.0453   8.0483
    10.4567  10.4951  10.6360  10.6872  11.0648  11.1612  11.9929  12.0315
    12.1840  12.4897  12.5238  12.5431  12.5454  12.6427  12.7741  12.8153
    13.0003  13.1333  13.1528  13.3757  13.6422  13.6697  13.9906  14.0182
    14.6814  14.8557  15.2279  15.4892  15.7896  15.9253  16.1006  16.3287
    16.4931  17.2006  17.2523  17.4706  17.5938  17.7531

          k = 0.1667 0.1578-0.4999 ( 62328 PWs)   bands (ev):

   -65.9535 -65.9535 -65.9532 -65.9532 -65.9527 -65.9527 -65.9523 -65.9523
   -30.4230 -30.4230 -30.4200 -30.4200 -30.3708 -30.3708 -30.3681 -30.3681
   -30.2813 -30.2813 -30.2783 -30.2783 -30.2401 -30.2401 -30.2376 -30.2376
   -30.2359 -30.2359 -30.2334 -30.2334 -30.1935 -30.1935 -30.1910 -30.1910
   -20.1113 -20.1113 -20.1110 -20.1110 -20.1066 -20.1066 -20.1063 -20.1063
   -20.0975 -20.0975 -20.0971 -20.0971 -20.0967 -20.0967 -20.0963 -20.0963
   -20.0962 -20.0962 -20.0959 -20.0959 -20.0951 -20.0951 -20.0950 -20.0950
   -20.0949 -20.0949 -20.0944 -20.0944 -20.0938 -20.0938 -20.0932 -20.0932
   -20.0766 -20.0766 -20.0765 -20.0765 -20.0763 -20.0763 -20.0762 -20.0762
   -20.0279 -20.0279 -20.0279 -20.0278 -20.0263 -20.0263 -20.0263 -20.0263
   -20.0250 -20.0250 -20.0250 -20.0250 -20.0229 -20.0229 -20.0229 -20.0229
    -9.5284  -9.5284  -9.2271  -9.2271  -9.1186  -9.1186  -8.7884  -8.7884
    -8.4903  -8.4902  -8.4837  -8.4837  -8.4312  -8.4312  -8.3702  -8.3701
    -7.9135  -7.9135  -7.8711  -7.8711  -7.7441  -7.7441  -7.7249  -7.7249
     1.6249   1.6249   1.7011   1.7011   1.8034   1.8034   1.9126   1.9126
     2.8156   2.8156   3.0762   3.0762   3.1616   3.1617   3.2836   3.2836
     3.3798   3.3798   3.4885   3.4885   3.5867   3.5867   3.8535   3.8535
     3.9692   3.9692   4.3003   4.3003   4.5769   4.5769   4.6926   4.6926
     4.9644   4.9644   5.0770   5.0771   5.1511   5.1511   5.4537   5.4537
     5.7009   5.7009   5.7812   5.7812   5.8911   5.8911   5.9682   5.9682
     6.5010   6.5010   6.6252   6.6253   6.6692   6.6693   6.8006   6.8006
     6.9301   6.9301   6.9824   6.9824   7.0997   7.0998   7.5854   7.5854
     7.6332   7.6332   7.6994   7.6994   7.7169   7.7169   8.0494   8.0494
    10.4966  10.4966  11.3384  11.3384  11.4049  11.4049  11.7267  11.7267
    11.9244  11.9244  12.5666  12.5666  12.7300  12.7300  12.7850  12.7850
    12.9809  12.9809  13.2250  13.2250  13.3795  13.3795  13.9999  13.9999
    14.8037  14.8037  15.5584  15.5584  15.9495  15.9495  16.1673  16.1673
    16.8639  16.8639  17.6045  17.6045  17.8685  17.8685

          k = 0.1667 0.3155 0.0000 ( 62291 PWs)   bands (ev):

   -65.9540 -65.9538 -65.9531 -65.9530 -65.9529 -65.9528 -65.9521 -65.9519
   -30.4134 -30.4104 -30.4101 -30.4072 -30.3831 -30.3803 -30.3800 -30.3773
   -30.2904 -30.2888 -30.2857 -30.2841 -30.2833 -30.2814 -30.2780 -30.2763
   -30.1952 -30.1938 -30.1908 -30.1894 -30.1888 -30.1874 -30.1849 -30.1836
   -20.1104 -20.1101 -20.1101 -20.1099 -20.1077 -20.1074 -20.1074 -20.1071
   -20.0979 -20.0977 -20.0974 -20.0973 -20.0972 -20.0972 -20.0968 -20.0968
   -20.0960 -20.0959 -20.0957 -20.0956 -20.0956 -20.0956 -20.0953 -20.0952
   -20.0942 -20.0939 -20.0938 -20.0938 -20.0935 -20.0933 -20.0933 -20.0931
   -20.0768 -20.0767 -20.0765 -20.0764 -20.0764 -20.0764 -20.0761 -20.0761
   -20.0291 -20.0291 -20.0286 -20.0286 -20.0278 -20.0277 -20.0271 -20.0271
   -20.0236 -20.0236 -20.0233 -20.0233 -20.0221 -20.0221 -20.0220 -20.0220
    -9.7444  -9.5938  -9.3547  -9.2637  -9.2146  -9.1092  -8.9264  -8.9188
    -8.8049  -8.6668  -8.6667  -8.6436  -8.1914  -8.1512  -8.1412  -8.1262
    -7.8164  -7.8040  -7.6864  -7.6742  -7.6728  -7.6622  -7.5542  -7.5431
     1.3942   1.3954   1.3983   1.4022   1.6450   1.6548   1.8527   1.9027
     2.3931   2.5165   2.5407   2.5781   2.6187   2.6985   2.8920   2.9832
     3.0135   3.1129   3.6608   3.6964   3.7130   3.7571   4.1549   4.4482
     4.5009   4.5092   4.5815   4.7604   4.7857   4.8989   4.9774   4.9976
     5.0588   5.0982   5.2027   5.3419   5.4416   5.5068   5.6138   5.6658
     5.7220   5.8339   5.8453   5.8678   6.0912   6.1636   6.1829   6.2133
     6.2794   6.4808   6.4859   6.6143   6.6724   6.8837   6.9128   6.9572
     6.9959   7.0122   7.0956   7.0962   7.1163   7.1341   7.2443   7.2444
     7.3194   7.3370   7.8150   7.8392   7.8457   7.8644   7.8892   7.8908
     9.7673   9.7810  10.7263  10.7662  10.9111  10.9362  11.8643  11.9690
    12.0030  12.0806  12.3426  12.3596  12.4801  12.5116  13.0380  13.0626
    13.2910  13.4203  13.4664  13.5502  13.7589  13.8057  13.9095  13.9383
    14.9392  15.3093  15.5185  15.5991  15.6271  15.7197  16.0037  16.1256
    16.3282  16.9193  17.3157  17.3475  17.6639  17.8287

          k = 0.1667 0.3155 0.1666 ( 62263 PWs)   bands (ev):

   -65.9539 -65.9537 -65.9530 -65.9530 -65.9528 -65.9528 -65.9521 -65.9519
   -30.4133 -30.4104 -30.4103 -30.4075 -30.3830 -30.3803 -30.3802 -30.3776
   -30.2838 -30.2831 -30.2818 -30.2811 -30.2788 -30.2783 -30.2773 -30.2766
   -30.1956 -30.1950 -30.1943 -30.1935 -30.1918 -30.1911 -30.1902 -30.1895
   -20.1104 -20.1101 -20.1101 -20.1099 -20.1077 -20.1074 -20.1074 -20.1072
   -20.0977 -20.0975 -20.0974 -20.0972 -20.0972 -20.0970 -20.0968 -20.0967
   -20.0961 -20.0960 -20.0958 -20.0957 -20.0956 -20.0956 -20.0953 -20.0952
   -20.0942 -20.0940 -20.0940 -20.0939 -20.0935 -20.0935 -20.0934 -20.0932
   -20.0767 -20.0767 -20.0764 -20.0764 -20.0764 -20.0764 -20.0761 -20.0761
   -20.0288 -20.0287 -20.0285 -20.0285 -20.0274 -20.0274 -20.0272 -20.0272
   -20.0237 -20.0237 -20.0235 -20.0235 -20.0224 -20.0224 -20.0222 -20.0222
    -9.6914  -9.5355  -9.2814  -9.2809  -9.1263  -9.1250  -8.8885  -8.8822
    -8.8132  -8.6601  -8.6483  -8.6481  -8.1927  -8.1480  -8.1474  -8.1312
    -7.8073  -7.8067  -7.7940  -7.7935  -7.7049  -7.6937  -7.6617  -7.6512
     1.5672   1.5674   1.6492   1.6512   1.6592   1.6616   1.9220   1.9861
     2.3949   2.5174   2.5195   2.6680   2.6716   2.7333   2.9915   2.9944
     3.1050   3.1118   3.7030   3.7085   3.7216   3.7712   4.1481   4.4681
     4.4716   4.5557   4.5592   4.6450   4.6506   4.7524   4.7582   4.8479
     4.9052   4.9094   5.1506   5.1797   5.4193   5.4389   5.4401   5.4656
     5.6580   5.6764   5.8230   5.8255   5.8665   5.8681   6.4429   6.4532
     6.4589   6.5549   6.5736   6.6621   6.8050   6.8170   6.8979   6.9020
     6.9561   6.9585   7.0082   7.0422   7.1101   7.1149   7.1216   7.1793
     7.3915   7.4284   7.8149   7.8197   7.8230   7.8547   7.8846   7.8957
    10.0163  10.0390  10.8817  10.9293  10.9387  10.9549  11.9412  11.9888
    12.0773  12.0791  12.3868  12.3897  12.4220  12.4246  13.0449  13.0909
    13.2726  13.2882  13.3426  13.5032  13.7430  13.7527  13.7594  13.8538
    15.0927  15.5144  15.5168  15.6855  15.6922  15.7817  16.2446  16.2982
    16.3006  16.8843  17.3825  17.4174  17.4247  17.7251

          k = 0.1667 0.3155 0.3333 ( 62298 PWs)   bands (ev):

   -65.9537 -65.9535 -65.9532 -65.9530 -65.9528 -65.9526 -65.9523 -65.9521
   -30.4128 -30.4111 -30.4099 -30.4082 -30.3826 -30.3810 -30.3798 -30.3783
   -30.2820 -30.2803 -30.2794 -30.2776 -30.2649 -30.2634 -30.2605 -30.2590
   -30.2142 -30.2128 -30.2102 -30.2088 -30.1941 -30.1926 -30.1918 -30.1904
   -20.1104 -20.1102 -20.1101 -20.1100 -20.1077 -20.1075 -20.1074 -20.1073
   -20.0974 -20.0974 -20.0972 -20.0971 -20.0970 -20.0967 -20.0966 -20.0965
   -20.0963 -20.0961 -20.0959 -20.0958 -20.0954 -20.0953 -20.0952 -20.0950
   -20.0945 -20.0944 -20.0944 -20.0940 -20.0938 -20.0935 -20.0934 -20.0934
   -20.0766 -20.0766 -20.0765 -20.0764 -20.0763 -20.0763 -20.0762 -20.0761
   -20.0283 -20.0282 -20.0277 -20.0277 -20.0275 -20.0274 -20.0264 -20.0264
   -20.0249 -20.0248 -20.0235 -20.0235 -20.0232 -20.0232 -20.0225 -20.0225
    -9.5630  -9.3967  -9.3341  -9.1735  -9.0979  -8.8765  -8.8457  -8.7755
    -8.7504  -8.6613  -8.6246  -8.5710  -8.2322  -8.2024  -8.1434  -8.1373
    -8.1049  -8.0578  -8.0076  -7.9695  -7.7777  -7.7659  -7.7036  -7.6927
     1.6677   1.6794   1.6915   1.7009   2.2508   2.3352   2.3448   2.4110
     2.5217   2.5284   2.5557   2.7588   2.9463   3.0074   3.0157   3.0966
     3.2402   3.3332   3.6912   3.7006   3.7657   3.8044   3.9570   4.0293
     4.1312   4.3244   4.4136   4.4333   4.5105   4.6060   4.6557   4.6950
     4.7659   4.8025   4.8641   4.8839   4.9681   5.0488   5.1832   5.1840
     5.3516   5.3834   5.4725   5.6286   5.8550   5.8794   6.2646   6.2842
     6.5821   6.6521   6.6741   6.7656   6.8483   6.8692   6.9545   6.9817
     7.0306   7.0596   7.0742   7.1004   7.1975   7.2138   7.2336   7.3184
     7.3347   7.3874   7.7450   7.7469   7.8081   7.8290   7.8368   7.8738
    10.6127  10.6531  10.9315  10.9429  11.3789  11.4281  11.9429  11.9943
    12.0066  12.1511  12.2622  12.2990  12.5497  12.6387  12.7364  12.7884
    12.9626  13.1529  13.1955  13.4132  13.4240  13.4587  13.7562  13.8011
    15.3335  15.4902  15.8889  15.9776  16.0279  16.1513  16.2217  16.6906
    16.7630  16.8316  17.1165  17.5936  17.6380  17.7178

          k = 0.1667 0.3155-0.4999 ( 62306 PWs)   bands (ev):

   -65.9535 -65.9535 -65.9533 -65.9533 -65.9526 -65.9526 -65.9524 -65.9524
   -30.4120 -30.4120 -30.4091 -30.4091 -30.3818 -30.3818 -30.3791 -30.3791
   -30.2807 -30.2807 -30.2789 -30.2789 -30.2396 -30.2396 -30.2381 -30.2381
   -30.2353 -30.2353 -30.2339 -30.2339 -30.1930 -30.1930 -30.1915 -30.1915
   -20.1103 -20.1103 -20.1101 -20.1101 -20.1076 -20.1076 -20.1074 -20.1074
   -20.0974 -20.0974 -20.0971 -20.0971 -20.0966 -20.0966 -20.0964 -20.0964
   -20.0962 -20.0962 -20.0961 -20.0961 -20.0950 -20.0950 -20.0949 -20.0949
   -20.0949 -20.0949 -20.0945 -20.0945 -20.0937 -20.0937 -20.0934 -20.0934
   -20.0765 -20.0765 -20.0765 -20.0765 -20.0762 -20.0762 -20.0762 -20.0762
   -20.0279 -20.0279 -20.0279 -20.0279 -20.0263 -20.0263 -20.0263 -20.0263
   -20.0250 -20.0250 -20.0250 -20.0250 -20.0229 -20.0229 -20.0229 -20.0229
    -9.4290  -9.4290  -9.2616  -9.2616  -8.9264  -8.9264  -8.6883  -8.6883
    -8.5241  -8.5240  -8.4953  -8.4953  -8.4297  -8.4296  -8.3516  -8.3516
    -8.1384  -8.1384  -8.1037  -8.1037  -7.7404  -7.7404  -7.7291  -7.7291
     1.6877   1.6877   1.7002   1.7002   2.3977   2.3977   2.5155   2.5155
     3.0106   3.0106   3.1356   3.1356   3.1678   3.1678   3.3469   3.3470
     3.3862   3.3862   3.5059   3.5059   3.5434   3.5435   3.7290   3.7290
     4.1044   4.1044   4.1364   4.1364   4.1489   4.1489   4.3950   4.3950
     4.7606   4.7606   4.8280   4.8280   5.0072   5.0072   5.0807   5.0807
     5.1950   5.1950   5.5403   5.5403   5.9618   5.9618   5.9725   5.9725
     6.7078   6.7078   6.8082   6.8082   6.8761   6.8761   6.9124   6.9124
     7.0457   7.0457   7.0880   7.0880   7.2044   7.2044   7.5498   7.5499
     7.5884   7.5884   7.6207   7.6207   7.6570   7.6570   7.8421   7.8421
    10.9147  10.9147  11.3541  11.3541  11.4024  11.4024  11.8395  11.8395
    12.1068  12.1068  12.2640  12.2640  12.6276  12.6276  12.6927  12.6927
    12.8900  12.8900  13.0195  13.0195  13.3717  13.3717  13.7728  13.7728
    15.4383  15.4383  16.0761  16.0761  16.3380  16.3381  16.5046  16.5046
    16.9915  16.9915  17.2547  17.2547  17.8476  17.8476

          k = 0.1667-0.4733 0.0000 ( 62314 PWs)   bands (ev):

   -65.9539 -65.9539 -65.9530 -65.9530 -65.9529 -65.9528 -65.9520 -65.9520
   -30.3982 -30.3982 -30.3954 -30.3954 -30.3951 -30.3951 -30.3923 -30.3923
   -30.2896 -30.2896 -30.2849 -30.2849 -30.2824 -30.2824 -30.2771 -30.2771
   -30.1945 -30.1945 -30.1901 -30.1901 -30.1881 -30.1881 -30.1842 -30.1842
   -20.1091 -20.1091 -20.1088 -20.1088 -20.1088 -20.1088 -20.1085 -20.1085
   -20.0976 -20.0976 -20.0975 -20.0975 -20.0971 -20.0971 -20.0970 -20.0970
   -20.0960 -20.0960 -20.0957 -20.0957 -20.0956 -20.0956 -20.0953 -20.0953
   -20.0939 -20.0939 -20.0937 -20.0937 -20.0936 -20.0936 -20.0933 -20.0933
   -20.0767 -20.0767 -20.0764 -20.0764 -20.0764 -20.0764 -20.0761 -20.0761
   -20.0291 -20.0291 -20.0286 -20.0286 -20.0278 -20.0277 -20.0271 -20.0271
   -20.0236 -20.0236 -20.0233 -20.0233 -20.0221 -20.0221 -20.0220 -20.0220
    -9.6586  -9.6586  -9.2683  -9.2683  -9.1666  -9.1666  -8.9224  -8.9224
    -8.5027  -8.5027  -8.4410  -8.4409  -8.4331  -8.4330  -8.4275  -8.4275
    -7.8103  -7.8103  -7.6804  -7.6804  -7.6674  -7.6674  -7.5487  -7.5487
     1.3952   1.3952   1.4012   1.4012   1.6524   1.6525   1.8921   1.8921
     2.5986   2.5986   3.1969   3.1969   3.2313   3.2313   3.2829   3.2829
     3.3149   3.3149   3.3597   3.3598   3.4870   3.4870   3.5466   3.5466
     3.7174   3.7174   4.5372   4.5372   4.9532   4.9532   5.0250   5.0250
     5.1486   5.1486   5.2133   5.2133   5.3443   5.3443   5.5375   5.5375
     5.7727   5.7727   5.8478   5.8478   6.1719   6.1719   6.1985   6.1985
     6.4242   6.4243   6.4836   6.4836   6.7676   6.7676   6.9472   6.9472
     7.0460   7.0460   7.2394   7.2394   7.2787   7.2787   7.4668   7.4668
     7.4879   7.4879   7.5235   7.5236   7.5492   7.5492   7.8860   7.8860
     9.7754   9.7754  11.3158  11.3158  11.3894  11.3894  11.4489  11.4489
    11.5267  11.5267  12.3526  12.3526  12.4968  12.4968  13.0570  13.0570
    13.4777  13.4777  13.5836  13.5836  13.6595  13.6595  13.7083  13.7083
    15.4641  15.4641  15.6660  15.6660  15.7607  15.7607  16.0493  16.0493
    16.6259  16.6259  17.8388  17.8389  18.1485  18.1486

          k = 0.1667-0.4733 0.1666 ( 62272 PWs)   bands (ev):

   -65.9538 -65.9538 -65.9529 -65.9529 -65.9529 -65.9529 -65.9521 -65.9520
   -30.3981 -30.3981 -30.3954 -30.3953 -30.3953 -30.3953 -30.3926 -30.3926
   -30.2831 -30.2831 -30.2818 -30.2818 -30.2781 -30.2781 -30.2775 -30.2775
   -30.1950 -30.1949 -30.1943 -30.1943 -30.1912 -30.1912 -30.1901 -30.1901
   -20.1091 -20.1090 -20.1088 -20.1088 -20.1088 -20.1088 -20.1086 -20.1085
   -20.0975 -20.0975 -20.0973 -20.0973 -20.0971 -20.0971 -20.0969 -20.0969
   -20.0960 -20.0960 -20.0957 -20.0957 -20.0955 -20.0955 -20.0953 -20.0952
   -20.0940 -20.0940 -20.0938 -20.0938 -20.0937 -20.0937 -20.0934 -20.0934
   -20.0767 -20.0767 -20.0764 -20.0764 -20.0764 -20.0764 -20.0761 -20.0761
   -20.0288 -20.0287 -20.0285 -20.0285 -20.0274 -20.0274 -20.0272 -20.0272
   -20.0237 -20.0237 -20.0235 -20.0235 -20.0224 -20.0224 -20.0222 -20.0222
    -9.6022  -9.6022  -9.1844  -9.1842  -9.1834  -9.1832  -8.8853  -8.8853
    -8.5096  -8.5096  -8.4343  -8.4339  -8.4329  -8.4326  -8.4299  -8.4297
    -7.8017  -7.8014  -7.7997  -7.7995  -7.6993  -7.6993  -7.6565  -7.6565
     1.5671   1.5673   1.6565   1.6572   1.6589   1.6595   1.9734   1.9735
     2.6919   2.6920   3.2079   3.2096   3.2330   3.2398   3.2804   3.2818
[...]
    12.0948  12.0948  12.0948  12.0948  12.3003  12.3003  12.3003  12.3003
    13.0739  13.0739  13.0739  13.0739  13.2528  13.2528  13.2528  13.2528
    15.3485  15.3485  15.3485  15.3485  16.7394  16.7394  16.7394  16.7394
    17.7164  17.7164  17.7164  17.7164  17.9907  17.9907

          k =-0.5000 0.3155 0.0000 ( 62334 PWs)   bands (ev):

   -65.9535 -65.9535 -65.9533 -65.9533 -65.9525 -65.9525 -65.9523 -65.9523
   -30.4121 -30.4121 -30.4089 -30.4089 -30.3819 -30.3819 -30.3789 -30.3789
   -30.2881 -30.2881 -30.2864 -30.2864 -30.2393 -30.2393 -30.2377 -30.2377
   -30.2344 -30.2344 -30.2329 -30.2329 -30.1868 -30.1868 -30.1855 -30.1855
   -20.1103 -20.1103 -20.1100 -20.1100 -20.1076 -20.1076 -20.1073 -20.1073
   -20.0978 -20.0978 -20.0973 -20.0973 -20.0964 -20.0964 -20.0963 -20.0963
   -20.0961 -20.0961 -20.0960 -20.0960 -20.0951 -20.0951 -20.0949 -20.0948
   -20.0946 -20.0946 -20.0946 -20.0946 -20.0938 -20.0938 -20.0932 -20.0932
   -20.0766 -20.0766 -20.0765 -20.0765 -20.0762 -20.0762 -20.0762 -20.0762
   -20.0284 -20.0284 -20.0284 -20.0284 -20.0262 -20.0262 -20.0262 -20.0262
   -20.0247 -20.0247 -20.0247 -20.0247 -20.0227 -20.0227 -20.0227 -20.0227
    -9.4981  -9.4981  -9.3451  -9.3451  -8.9128  -8.9128  -8.7107  -8.7107
    -8.5058  -8.5058  -8.4980  -8.4980  -8.4437  -8.4437  -8.3466  -8.3466
    -8.1411  -8.1411  -8.0990  -8.0990  -7.6184  -7.6184  -7.6068  -7.6068
     1.4331   1.4331   1.4393   1.4393   2.3947   2.3947   2.5335   2.5335
     2.9364   2.9364   3.1087   3.1087   3.1619   3.1619   3.3434   3.3434
     3.3784   3.3784   3.4250   3.4250   3.4879   3.4879   3.6780   3.6780
     4.0990   4.0990   4.1242   4.1242   4.1721   4.1721   4.3896   4.3896
     4.8306   4.8306   4.9299   4.9299   5.1375   5.1375   5.3371   5.3371
     5.4929   5.4929   5.7433   5.7433   6.3551   6.3551   6.4235   6.4235
     6.5156   6.5156   6.5759   6.5759   6.5799   6.5799   6.7973   6.7973
     7.0595   7.0595   7.0779   7.0779   7.1154   7.1154   7.5452   7.5452
     7.5752   7.5752   7.6029   7.6029   7.6397   7.6397   7.8612   7.8612
    10.7490  10.7490  11.2792  11.2792  11.3203  11.3203  11.7653  11.7653
    12.0967  12.0967  12.2291  12.2291  12.6404  12.6404  12.7314  12.7314
    12.9337  12.9337  13.0727  13.0727  13.5341  13.5341  13.9232  13.9232
    15.2292  15.2292  15.8041  15.8041  16.2691  16.2691  16.5171  16.5171
    16.9241  16.9241  17.2149  17.2149  17.9677  17.9677

          k =-0.5000 0.3155 0.1666 ( 62308 PWs)   bands (ev):

   -65.9535 -65.9535 -65.9533 -65.9533 -65.9526 -65.9526 -65.9524 -65.9524
   -30.4120 -30.4120 -30.4091 -30.4091 -30.3818 -30.3818 -30.3792 -30.3792
   -30.2813 -30.2813 -30.2797 -30.2797 -30.2390 -30.2390 -30.2374 -30.2374
   -30.2347 -30.2347 -30.2332 -30.2332 -30.1936 -30.1936 -30.1923 -30.1923
   -20.1103 -20.1103 -20.1101 -20.1101 -20.1076 -20.1076 -20.1073 -20.1073
   -20.0976 -20.0976 -20.0972 -20.0972 -20.0964 -20.0964 -20.0963 -20.0963
   -20.0961 -20.0961 -20.0959 -20.0959 -20.0952 -20.0952 -20.0948 -20.0948
   -20.0947 -20.0946 -20.0946 -20.0946 -20.0939 -20.0939 -20.0934 -20.0934
   -20.0765 -20.0765 -20.0765 -20.0765 -20.0762 -20.0762 -20.0762 -20.0762
   -20.0281 -20.0281 -20.0281 -20.0281 -20.0261 -20.0261 -20.0261 -20.0261
   -20.0248 -20.0248 -20.0248 -20.0248 -20.0231 -20.0231 -20.0231 -20.0231
    -9.4295  -9.4295  -9.2627  -9.2627  -8.9265  -8.9265  -8.6888  -8.6888
    -8.5229  -8.5229  -8.4946  -8.4946  -8.4284  -8.4284  -8.3508  -8.3508
    -8.1378  -8.1378  -8.1036  -8.1036  -7.7413  -7.7413  -7.7300  -7.7300
     1.6854   1.6854   1.6976   1.6976   2.3971   2.3971   2.5152   2.5152
     3.0144   3.0144   3.1330   3.1330   3.1655   3.1655   3.3482   3.3482
     3.3856   3.3856   3.5101   3.5102   3.5439   3.5439   3.7288   3.7288
     4.0986   4.0986   4.1260   4.1260   4.1678   4.1679   4.3981   4.3981
     4.7589   4.7589   4.8247   4.8247   5.0071   5.0071   5.0811   5.0811
     5.1961   5.1961   5.5400   5.5400   5.9605   5.9605   5.9718   5.9718
     6.7076   6.7076   6.8107   6.8107   6.8771   6.8771   6.9129   6.9129
     7.0427   7.0427   7.0896   7.0896   7.2027   7.2027   7.5486   7.5486
     7.5849   7.5849   7.6254   7.6254   7.6587   7.6587   7.8427   7.8427
    10.9142  10.9142  11.3555  11.3555  11.4019  11.4019  11.8293  11.8293
    12.1081  12.1081  12.2655  12.2655  12.6272  12.6272  12.6995  12.6995
    12.8906  12.8906  13.0231  13.0231  13.3700  13.3700  13.7748  13.7748
    15.4385  15.4385  16.0733  16.0733  16.3378  16.3378  16.5051  16.5051
    16.9853  16.9853  17.2551  17.2551  17.8451  17.8451

          k =-0.5000 0.3155 0.3333 ( 62296 PWs)   bands (ev):

   -65.9533 -65.9533 -65.9531 -65.9531 -65.9528 -65.9528 -65.9526 -65.9526
   -30.4115 -30.4115 -30.4099 -30.4099 -30.3814 -30.3814 -30.3798 -30.3798
   -30.2628 -30.2628 -30.2613 -30.2613 -30.2381 -30.2381 -30.2365 -30.2365
   -30.2356 -30.2356 -30.2341 -30.2341 -30.2121 -30.2121 -30.2107 -30.2107
   -20.1103 -20.1103 -20.1101 -20.1101 -20.1076 -20.1076 -20.1074 -20.1074
   -20.0972 -20.0972 -20.0969 -20.0969 -20.0966 -20.0965 -20.0964 -20.0964
   -20.0959 -20.0959 -20.0957 -20.0957 -20.0952 -20.0952 -20.0949 -20.0949
   -20.0946 -20.0946 -20.0946 -20.0946 -20.0943 -20.0943 -20.0939 -20.0939
   -20.0765 -20.0765 -20.0764 -20.0764 -20.0763 -20.0763 -20.0762 -20.0762
   -20.0271 -20.0271 -20.0271 -20.0271 -20.0258 -20.0258 -20.0258 -20.0258
   -20.0251 -20.0251 -20.0251 -20.0251 -20.0242 -20.0242 -20.0242 -20.0242
    -9.2567  -9.2567  -9.0377  -9.0377  -8.9739  -8.9739  -8.6162  -8.6162
    -8.5803  -8.5803  -8.4626  -8.4626  -8.4002  -8.4002  -8.3592  -8.3592
    -8.1368  -8.1368  -8.1218  -8.1218  -8.0376  -8.0376  -8.0096  -8.0096
     2.2847   2.2847   2.3812   2.3812   2.4067   2.4067   2.5527   2.5527
     3.1131   3.1131   3.1690   3.1690   3.2432   3.2432   3.3457   3.3457
     3.4220   3.4220   3.6569   3.6569   3.7755   3.7755   3.8720   3.8720
     4.0821   4.0821   4.1305   4.1305   4.1759   4.1759   4.2789   4.2789
     4.3724   4.3724   4.5102   4.5102   4.6575   4.6575   4.8702   4.8702
     4.9946   4.9946   5.0602   5.0602   5.1440   5.1440   5.3253   5.3253
     6.8695   6.8695   6.9252   6.9253   6.9888   6.9888   7.0543   7.0543
     7.1947   7.1947   7.3421   7.3421   7.4529   7.4529   7.5355   7.5355
     7.5894   7.5894   7.6634   7.6635   7.6862   7.6862   7.7955   7.7955
    11.3394  11.3395  11.5954  11.5954  11.6772  11.6772  11.9356  11.9356
    12.1549  12.1549  12.4064  12.4064  12.4457  12.4457  12.4862  12.4862
    12.8000  12.8000  12.8886  12.8886  12.9741  12.9741  13.3858  13.3858
    15.9437  15.9437  16.4294  16.4294  16.5720  16.5720  16.8039  16.8039
    17.2136  17.2136  17.3245  17.3245  17.6115  17.6115

          k =-0.5000 0.3155-0.4999 ( 62304 PWs)   bands (ev):

   -65.9530 -65.9530 -65.9530 -65.9530 -65.9528 -65.9528 -65.9528 -65.9528
   -30.4108 -30.4108 -30.4108 -30.4108 -30.3807 -30.3807 -30.3807 -30.3807
   -30.2386 -30.2386 -30.2386 -30.2386 -30.2371 -30.2370 -30.2370 -30.2370
   -30.2358 -30.2358 -30.2358 -30.2358 -30.2342 -30.2342 -30.2342 -30.2342
   -20.1102 -20.1102 -20.1102 -20.1102 -20.1075 -20.1075 -20.1075 -20.1075
   -20.0968 -20.0968 -20.0968 -20.0968 -20.0966 -20.0966 -20.0966 -20.0966
   -20.0956 -20.0956 -20.0956 -20.0956 -20.0952 -20.0952 -20.0952 -20.0952
   -20.0945 -20.0945 -20.0945 -20.0945 -20.0943 -20.0943 -20.0943 -20.0943
   -20.0764 -20.0764 -20.0764 -20.0764 -20.0763 -20.0763 -20.0763 -20.0763
   -20.0258 -20.0258 -20.0258 -20.0258 -20.0257 -20.0257 -20.0257 -20.0257
   -20.0254 -20.0254 -20.0254 -20.0254 -20.0253 -20.0253 -20.0253 -20.0253
    -9.0788  -9.0788  -9.0788  -9.0788  -8.7603  -8.7603  -8.7603  -8.7603
    -8.4600  -8.4600  -8.4600  -8.4600  -8.3252  -8.3252  -8.3252  -8.3252
    -8.3058  -8.3058  -8.3058  -8.3058  -8.1085  -8.1085  -8.1085  -8.1085
     2.4095   2.4095   2.4095   2.4095   3.0789   3.0789   3.0789   3.0789
     3.1836   3.1836   3.1837   3.1837   3.3092   3.3092   3.3092   3.3092
     3.3786   3.3786   3.3786   3.3786   4.0107   4.0107   4.0107   4.0107
     4.0396   4.0396   4.0396   4.0396   4.1144   4.1144   4.1144   4.1144
     4.3897   4.3897   4.3897   4.3897   4.4107   4.4107   4.4107   4.4107
     4.7483   4.7483   4.7483   4.7483   5.0485   5.0485   5.0485   5.0485
     6.9262   6.9262   6.9262   6.9262   7.0286   7.0286   7.0286   7.0286
     7.4211   7.4211   7.4211   7.4212   7.5316   7.5317   7.5317   7.5317
     7.6501   7.6501   7.6501   7.6501   7.7313   7.7313   7.7313   7.7313
    11.8339  11.8340  11.8340  11.8340  11.9092  11.9092  11.9092  11.9092
    12.1351  12.1351  12.1351  12.1351  12.3862  12.3863  12.3863  12.3863
    12.7583  12.7583  12.7583  12.7583  12.9569  12.9569  12.9569  12.9569
    16.2942  16.2942  16.2942  16.2942  16.9256  16.9256  16.9256  16.9256
    17.4592  17.4592  17.4592  17.4592  17.9970  17.9970

          k =-0.5000-0.4733 0.0000 ( 62316 PWs)   bands (ev):

   -65.9534 -65.9534 -65.9534 -65.9534 -65.9524 -65.9524 -65.9524 -65.9524
   -30.3971 -30.3971 -30.3970 -30.3970 -30.3940 -30.3940 -30.3938 -30.3938
   -30.2873 -30.2873 -30.2873 -30.2873 -30.2386 -30.2386 -30.2384 -30.2384
   -30.2337 -30.2337 -30.2336 -30.2336 -30.1862 -30.1862 -30.1862 -30.1862
   -20.1090 -20.1090 -20.1090 -20.1090 -20.1087 -20.1087 -20.1087 -20.1087
   -20.0976 -20.0976 -20.0975 -20.0975 -20.0963 -20.0963 -20.0963 -20.0963
   -20.0961 -20.0961 -20.0960 -20.0960 -20.0950 -20.0949 -20.0949 -20.0949
   -20.0947 -20.0947 -20.0947 -20.0947 -20.0935 -20.0935 -20.0935 -20.0935
   -20.0765 -20.0765 -20.0765 -20.0765 -20.0762 -20.0762 -20.0762 -20.0762
   -20.0284 -20.0284 -20.0284 -20.0284 -20.0262 -20.0262 -20.0262 -20.0262
   -20.0247 -20.0247 -20.0247 -20.0247 -20.0227 -20.0227 -20.0227 -20.0227
    -9.4078  -9.4078  -9.4062  -9.4062  -8.6643  -8.6643  -8.6584  -8.6584
    -8.5662  -8.5662  -8.5614  -8.5614  -8.3700  -8.3700  -8.3583  -8.3583
    -8.2901  -8.2901  -8.2798  -8.2798  -7.6127  -7.6127  -7.6126  -7.6126
     1.4369   1.4369   1.4386   1.4386   3.0538   3.0538   3.0916   3.0916
     3.1965   3.1965   3.2014   3.2014   3.2385   3.2385   3.2629   3.2629
     3.3470   3.3470   3.3730   3.3730   3.4877   3.4877   3.5253   3.5253
     3.6074   3.6074   3.7079   3.7079   4.3220   4.3220   4.3413   4.3413
     4.4236   4.4236   4.4579   4.4579   5.2466   5.2466   5.2590   5.2590
     5.5503   5.5503   5.5639   5.5639   6.4084   6.4084   6.4163   6.4163
     6.5724   6.5724   6.5747   6.5747   6.6720   6.6720   6.6899   6.6899
     7.3044   7.3044   7.3193   7.3193   7.3599   7.3600   7.4249   7.4250
     7.4729   7.4730   7.5062   7.5062   7.6329   7.6329   7.6387   7.6387
    11.2732  11.2732  11.2769  11.2769  11.3732  11.3732  11.3786  11.3786
    12.3428  12.3428  12.3765  12.3765  12.3854  12.3854  12.4172  12.4172
    12.9710  12.9710  12.9738  12.9738  13.6828  13.6828  13.6924  13.6925
    15.6059  15.6059  15.6064  15.6064  16.8105  16.8105  16.8319  16.8319
    17.4009  17.4009  17.4225  17.4225  17.5435  17.5435

          k =-0.5000-0.4733 0.1666 ( 62256 PWs)   bands (ev):

   -65.9534 -65.9534 -65.9534 -65.9534 -65.9525 -65.9525 -65.9525 -65.9525
   -30.3970 -30.3970 -30.3969 -30.3969 -30.3942 -30.3942 -30.3941 -30.3941
   -30.2805 -30.2805 -30.2805 -30.2805 -30.2382 -30.2382 -30.2381 -30.2381
   -30.2340 -30.2340 -30.2339 -30.2339 -30.1930 -30.1930 -30.1930 -30.1930
   -20.1090 -20.1090 -20.1090 -20.1089 -20.1087 -20.1087 -20.1087 -20.1087
   -20.0974 -20.0974 -20.0974 -20.0974 -20.0964 -20.0964 -20.0963 -20.0963
   -20.0960 -20.0960 -20.0960 -20.0960 -20.0950 -20.0950 -20.0950 -20.0950
   -20.0947 -20.0947 -20.0947 -20.0947 -20.0937 -20.0937 -20.0937 -20.0937
   -20.0765 -20.0765 -20.0765 -20.0765 -20.0762 -20.0762 -20.0762 -20.0762
   -20.0281 -20.0281 -20.0281 -20.0281 -20.0261 -20.0261 -20.0261 -20.0261
   -20.0248 -20.0248 -20.0248 -20.0248 -20.0231 -20.0231 -20.0231 -20.0231
    -9.3302  -9.3302  -9.3285  -9.3284  -8.6830  -8.6830  -8.6767  -8.6767
    -8.5491  -8.5491  -8.5421  -8.5421  -8.3675  -8.3675  -8.3557  -8.3557
    -8.2922  -8.2921  -8.2822  -8.2822  -7.7359  -7.7359  -7.7355  -7.7355
     1.6936   1.6936   1.6961   1.6961   3.0570   3.0570   3.0947   3.0947
     3.1822   3.1822   3.2028   3.2028   3.2461   3.2461   3.3122   3.3123
     3.3500   3.3500   3.4589   3.4589   3.5390   3.5390   3.5782   3.5782
     3.6427   3.6427   3.7384   3.7384   4.3246   4.3246   4.3426   4.3426
     4.4168   4.4168   4.4510   4.4510   4.9192   4.9192   5.0854   5.0854
     5.1906   5.1906   5.3359   5.3359   5.9665   5.9665   5.9753   5.9753
     6.7865   6.7865   6.8224   6.8224   6.9232   6.9232   6.9594   6.9594
     7.2936   7.2936   7.3243   7.3244   7.3751   7.3751   7.4242   7.4242
     7.4673   7.4674   7.5173   7.5173   7.6455   7.6455   7.6677   7.6677
    11.3215  11.3215  11.3643  11.3643  11.4715  11.4715  11.5452  11.5452
    12.3397  12.3397  12.3775  12.3775  12.3926  12.3926  12.4262  12.4262
    12.8681  12.8681  12.9400  12.9400  13.5040  13.5040  13.5534  13.5534
    15.8548  15.8548  15.8809  15.8809  16.8667  16.8667  16.8923  16.8923
    17.4021  17.4021  17.4353  17.4353  17.5290  17.5290

          k =-0.5000-0.4733 0.3333 ( 62244 PWs)   bands (ev):

   -65.9532 -65.9532 -65.9532 -65.9532 -65.9527 -65.9527 -65.9527 -65.9527
   -30.3966 -30.3966 -30.3964 -30.3964 -30.3949 -30.3949 -30.3948 -30.3948
   -30.2620 -30.2620 -30.2620 -30.2620 -30.2373 -30.2373 -30.2372 -30.2372
   -30.2349 -30.2349 -30.2348 -30.2348 -30.2114 -30.2114 -30.2114 -30.2114
   -20.1090 -20.1089 -20.1089 -20.1089 -20.1088 -20.1088 -20.1088 -20.1088
   -20.0970 -20.0970 -20.0970 -20.0970 -20.0965 -20.0965 -20.0965 -20.0965
   -20.0958 -20.0958 -20.0958 -20.0957 -20.0951 -20.0951 -20.0951 -20.0951
   -20.0947 -20.0946 -20.0946 -20.0946 -20.0941 -20.0941 -20.0941 -20.0941
   -20.0764 -20.0764 -20.0764 -20.0764 -20.0763 -20.0763 -20.0763 -20.0763
   -20.0271 -20.0271 -20.0271 -20.0271 -20.0258 -20.0258 -20.0258 -20.0258
   -20.0251 -20.0251 -20.0251 -20.0251 -20.0242 -20.0242 -20.0242 -20.0242
    -9.1240  -9.1240  -9.1214  -9.1213  -8.7442  -8.7442  -8.7382  -8.7381
    -8.4880  -8.4880  -8.4812  -8.4812  -8.3609  -8.3609  -8.3514  -8.3514
    -8.2957  -8.2957  -8.2883  -8.2883  -8.0309  -8.0309  -8.0299  -8.0299
     2.3701   2.3701   2.3752   2.3752   3.0651   3.0652   3.0884   3.0884
     3.1749   3.1749   3.1895   3.1895   3.3025   3.3025   3.3314   3.3314
     3.4377   3.4377   3.4707   3.4707   3.6888   3.6888   3.7041   3.7041
     3.8486   3.8486   3.8956   3.8956   4.3000   4.3000   4.3174   4.3174
     4.3670   4.3670   4.4220   4.4220   4.4939   4.4939   4.6215   4.6215
     4.6885   4.6885   4.8439   4.8439   5.1523   5.1523   5.1656   5.1656
     7.0470   7.0470   7.0876   7.0876   7.2218   7.2218   7.2404   7.2404
     7.2951   7.2951   7.3401   7.3401   7.3615   7.3616   7.4254   7.4254
     7.5240   7.5240   7.5851   7.5851   7.6732   7.6732   7.6917   7.6917
    11.5513  11.5513  11.5913  11.5913  11.8297  11.8297  11.9135  11.9135
    12.2874  12.2874  12.3390  12.3390  12.4096  12.4096  12.4343  12.4343
    12.6043  12.6043  12.7159  12.7159  13.0671  13.0671  13.1499  13.1499
    16.5507  16.5507  16.6123  16.6123  17.0459  17.0459  17.0577  17.0578
    17.3650  17.3650  17.4464  17.4465  17.4949  17.4949

          k =-0.5000-0.4733-0.4999 ( 62296 PWs)   bands (ev):

   -65.9529 -65.9529 -65.9529 -65.9529 -65.9529 -65.9529 -65.9529 -65.9529
   -30.3958 -30.3958 -30.3958 -30.3958 -30.3957 -30.3957 -30.3957 -30.3957
   -30.2383 -30.2383 -30.2383 -30.2383 -30.2371 -30.2371 -30.2371 -30.2370
   -30.2358 -30.2358 -30.2358 -30.2358 -30.2345 -30.2345 -30.2345 -30.2345
   -20.1089 -20.1089 -20.1089 -20.1089 -20.1089 -20.1089 -20.1089 -20.1089
   -20.0967 -20.0967 -20.0967 -20.0967 -20.0967 -20.0966 -20.0966 -20.0966
   -20.0954 -20.0954 -20.0954 -20.0954 -20.0954 -20.0954 -20.0953 -20.0953
   -20.0945 -20.0945 -20.0945 -20.0945 -20.0945 -20.0945 -20.0945 -20.0945
   -20.0764 -20.0763 -20.0763 -20.0763 -20.0763 -20.0763 -20.0763 -20.0763
   -20.0258 -20.0258 -20.0258 -20.0258 -20.0257 -20.0257 -20.0257 -20.0257
   -20.0254 -20.0254 -20.0254 -20.0254 -20.0253 -20.0253 -20.0253 -20.0253
    -8.8872  -8.8872  -8.8872  -8.8872  -8.8825  -8.8825  -8.8825  -8.8825
    -8.3633  -8.3633  -8.3633  -8.3633  -8.3533  -8.3533  -8.3533  -8.3533
    -8.2928  -8.2928  -8.2928  -8.2928  -8.2902  -8.2902  -8.2902  -8.2902
     3.0652   3.0652   3.0652   3.0652   3.0793   3.0793   3.0793   3.0793
     3.2134   3.2134   3.2134   3.2134   3.2298   3.2298   3.2298   3.2298
     3.4812   3.4812   3.4812   3.4812   3.5222   3.5222   3.5222   3.5222
     4.2104   4.2104   4.2104   4.2104   4.2145   4.2145   4.2145   4.2145
     4.4104   4.4104   4.4104   4.4104   4.4161   4.4161   4.4162   4.4162
     4.5034   4.5034   4.5034   4.5034   4.5140   4.5140   4.5140   4.5140
     7.1948   7.1948   7.1948   7.1949   7.2499   7.2499   7.2499   7.2499
     7.3616   7.3616   7.3616   7.3616   7.3699   7.3700   7.3700   7.3700
     7.6566   7.6566   7.6566   7.6566   7.6691   7.6691   7.6691   7.6691
    11.9365  11.9365  11.9365  11.9365  11.9412  11.9412  11.9412  11.9412
    12.3419  12.3419  12.3419  12.3419  12.3917  12.3917  12.3917  12.3917
    12.6205  12.6205  12.6205  12.6205  12.6417  12.6417  12.6417  12.6417
    17.1431  17.1431  17.1431  17.1431  17.1713  17.1713  17.1713  17.1714
    17.4309  17.4309  17.4310  17.4311  17.4446  17.4446

     the Fermi energy is    10.0569 ev

!    total energy              =   -6260.39264798 Ry
     Harris-Foulkes estimate   =   -6260.39264798 Ry
     estimated scf accuracy    <          2.5E-09 Ry

     The total energy is the sum of the following terms:

     one-electron contribution =   -4726.13860205 Ry
     hartree contribution      =    2602.67048055 Ry
     xc contribution           =    -966.77870524 Ry
     ewald contribution        =   -3170.14580901 Ry
     smearing contrib. (-TS)   =      -0.00001223 Ry

     convergence has been achieved in  13 iterations

     Writing output data file Landau_3.save
 
     init_run     :     47.16s CPU     49.46s WALL (       1 calls)
     electrons    :   1955.64s CPU   2002.09s WALL (       1 calls)

     Called by init_run:
     wfcinit      :     44.16s CPU     46.30s WALL (       1 calls)
     potinit      :      1.23s CPU      1.26s WALL (       1 calls)

     Called by electrons:
     c_bands      :   1750.01s CPU   1793.67s WALL (      13 calls)
     sum_band     :    198.00s CPU    199.78s WALL (      13 calls)
     v_of_rho     :      1.48s CPU      1.52s WALL (      14 calls)
     mix_rho      :      2.80s CPU      3.48s WALL (      13 calls)

     Called by c_bands:
     init_us_2    :     11.18s CPU     11.84s WALL (      54 calls)
     cegterg      :   1482.23s CPU   1523.20s WALL (      26 calls)

     Called by sum_band:

     Called by *egterg:
     h_psi        :   1089.79s CPU   1100.51s WALL (     121 calls)
     g_psi        :      1.80s CPU      1.82s WALL (      93 calls)
     cdiaghg      :     21.08s CPU     21.20s WALL (     119 calls)

     Called by h_psi:
     h_psi:pot    :   1084.84s CPU   1095.28s WALL (     121 calls)
     h_psi:calbec :    173.17s CPU    178.47s WALL (     121 calls)
     vloc_psi     :    734.73s CPU    738.26s WALL (     121 calls)
     add_vuspsi   :    176.94s CPU    178.55s WALL (     121 calls)

     General routines
     calbec       :    173.17s CPU    178.47s WALL (     121 calls)
     fft          :      1.23s CPU      1.24s WALL (      56 calls)
     fftw         :    781.03s CPU    784.39s WALL (   34124 calls)
 
     Parallel routines
 
     PWSCF        : 33m26.72s CPU    34m18.87s WALL

 
   This run was terminated on:  22: 5:26  21Mar2020            

=------------------------------------------------------------------------------=
   JOB DONE.
=------------------------------------------------------------------------------=
