
     Program PWSCF v.6.4.1 starts on 21Nov2019 at 15:39:33 

     This program is part of the open-source Quantum ESPRESSO suite
     for quantum simulation of materials; please cite
         "P. Giannozzi et al., J. Phys.:Condens. Matter 21 395502 (2009);
         "P. Giannozzi et al., J. Phys.:Condens. Matter 29 465901 (2017);
          URL http://www.quantum-espresso.org", 
     in publications or presentations arising from this work. More details at
     http://www.quantum-espresso.org/quote

     Parallel version (MPI), running on    40 processors

     MPI processes distributed on     5 nodes
     K-points division:     npool     =      40
     Reading input from scf.in

     Current dimensions of program PWSCF are:
     Max number of different atomic species (ntypx) = 10
     Max number of k-points (npk) =  40000
     Max angular momentum in pseudopotentials (lmaxx) =  3

     Subspace diagonalization in iterative solution of the eigenvalue problem:
     a serial algorithm will be used

     Message from routine setup:
     using ibrav=0 with symmetry is DISCOURAGED, use correct ibrav instead
 
     G-vector sticks info
     --------------------
     sticks:   dense  smooth     PW     G-vecs:    dense   smooth      PW
     Sum        3761    3761   1033               253261   253261   36117
 


     bravais-lattice index     =            0
     lattice parameter (alat)  =       9.9260  a.u.
     unit-cell volume          =    1425.2335 (a.u.)^3
     number of atoms/cell      =           16
     number of atomic types    =            2
     number of electrons       =       184.18
     number of Kohn-Sham states=          111
     kinetic-energy cutoff     =     120.0000  Ry
     charge density cutoff     =     480.0000  Ry
     convergence threshold     =      1.0E-08
     mixing beta               =       0.7000
     number of iterations used =            8  plain     mixing
     Exchange-correlation      = SLA PW NOGX NOGC ( 1  4  0  0 0 0)

     celldm(1)=   9.925962  celldm(2)=   0.000000  celldm(3)=   0.000000
     celldm(4)=   0.000000  celldm(5)=   0.000000  celldm(6)=   0.000000

     crystal axes: (cart. coord. in units of alat)
               a(1) = (   1.000000   0.000000   0.000000 )  
               a(2) = (   0.000000   1.000000   0.000000 )  
               a(3) = (   0.000000   0.000000   1.457364 )  

     reciprocal axes: (cart. coord. in units 2 pi/alat)
               b(1) = (  1.000000  0.000000  0.000000 )  
               b(2) = (  0.000000  1.000000  0.000000 )  
               b(3) = (  0.000000  0.000000  0.686170 )  


     PseudoPot. # 1 for W  read from file:
     /cluster/scratch/mnoe/QE/pps/W_ONCV_LDA-4.0.upf
     MD5 check sum: ba0307d5d4cd419d6f1d13dc49d7c13a
     Pseudo is Norm-conserving + core correction, Zval = 28.0
     Generated using ONCVPSP code by D. R. Hamann
     Using radial grid of 1380 points,  8 beta functions with: 
                l(1) =   0
                l(2) =   0
                l(3) =   1
                l(4) =   1
                l(5) =   2
                l(6) =   2
                l(7) =   3
                l(8) =   3

     PseudoPot. # 2 for O  read from file:
     /cluster/scratch/mnoe/QE/pps/O_ONCV_LDA-3.0.upf
     MD5 check sum: b55cdb4f45ae2203d24ad12cf8d61a31
     Pseudo is Norm-conserving + core correction, Zval =  6.0
     Generated using ONCVPSP code by D. R. Hamann
     Using radial grid of  926 points,  5 beta functions with: 
                l(1) =   0
                l(2) =   0
                l(3) =   1
                l(4) =   1
                l(5) =   2

     atomic species   valence    mass     pseudopotential
        W             28.00   183.84000     W ( 1.00)
        O              6.00    15.99940     O ( 1.00)

     16 Sym. Ops., with inversion, found (14 have fractional translation)



   Cartesian axes

     site n.     atom                  positions (alat units)
         1           W   tau(   1) = (   0.2500000   0.2500000   0.3065006  )
         2           W   tau(   2) = (   0.7500000   0.7500000   1.1508638  )
         3           W   tau(   3) = (   0.7500000   0.7500000   0.4221816  )
         4           W   tau(   4) = (   0.2500000   0.2500000   1.0351828  )
         5           O   tau(   5) = (   0.2500000   0.2500000   0.6950073  )
         6           O   tau(   6) = (   0.7500000   0.7500000   0.7623571  )
         7           O   tau(   7) = (   0.7500000   0.7500000   0.0336749  )
         8           O   tau(   8) = (   0.2500000   0.2500000   1.4236895  )
         9           O   tau(   9) = (   0.4897845   0.5102155   0.3643411  )
        10           O   tau(  10) = (   0.5102155   0.4897845   1.0930233  )
        11           O   tau(  11) = (   0.0102155   0.9897845   0.3643411  )
        12           O   tau(  12) = (   0.9897844   0.0102155   1.0930233  )
        13           O   tau(  13) = (   0.9897845   0.4897845   0.3643411  )
        14           O   tau(  14) = (   0.0102155   0.5102155   1.0930233  )
        15           O   tau(  15) = (   0.5102155   0.0102155   0.3643411  )
        16           O   tau(  16) = (   0.4897845   0.9897844   1.0930233  )

     number of k points=    40  gaussian smearing, width (Ry)=  0.0007
                       cart. coord. in units 2pi/alat
        k(    1) = (   0.0000000   0.0000000   0.0000000), wk =   0.0092593
        k(    2) = (   0.0000000   0.0000000   0.1143617), wk =   0.0185185
        k(    3) = (   0.0000000   0.0000000   0.2287234), wk =   0.0185185
        k(    4) = (   0.0000000   0.0000000  -0.3430851), wk =   0.0092593
        k(    5) = (   0.0000000   0.1666667   0.0000000), wk =   0.0370370
        k(    6) = (   0.0000000   0.1666667   0.1143617), wk =   0.0740741
        k(    7) = (   0.0000000   0.1666667   0.2287234), wk =   0.0740741
        k(    8) = (   0.0000000   0.1666667  -0.3430851), wk =   0.0370370
        k(    9) = (   0.0000000   0.3333333   0.0000000), wk =   0.0370370
        k(   10) = (   0.0000000   0.3333333   0.1143617), wk =   0.0740741
        k(   11) = (   0.0000000   0.3333333   0.2287234), wk =   0.0740741
        k(   12) = (   0.0000000   0.3333333  -0.3430851), wk =   0.0370370
        k(   13) = (   0.0000000  -0.5000000   0.0000000), wk =   0.0185185
        k(   14) = (   0.0000000  -0.5000000   0.1143617), wk =   0.0370370
        k(   15) = (   0.0000000  -0.5000000   0.2287234), wk =   0.0370370
        k(   16) = (   0.0000000  -0.5000000  -0.3430851), wk =   0.0185185
        k(   17) = (   0.1666667   0.1666667   0.0000000), wk =   0.0370370
        k(   18) = (   0.1666667   0.1666667   0.1143617), wk =   0.0740741
        k(   19) = (   0.1666667   0.1666667   0.2287234), wk =   0.0740741
        k(   20) = (   0.1666667   0.1666667  -0.3430851), wk =   0.0370370
        k(   21) = (   0.1666667   0.3333333   0.0000000), wk =   0.0740741
        k(   22) = (   0.1666667   0.3333333   0.1143617), wk =   0.1481481
        k(   23) = (   0.1666667   0.3333333   0.2287234), wk =   0.1481481
        k(   24) = (   0.1666667   0.3333333  -0.3430851), wk =   0.0740741
        k(   25) = (   0.1666667  -0.5000000   0.0000000), wk =   0.0370370
        k(   26) = (   0.1666667  -0.5000000   0.1143617), wk =   0.0740741
        k(   27) = (   0.1666667  -0.5000000   0.2287234), wk =   0.0740741
        k(   28) = (   0.1666667  -0.5000000  -0.3430851), wk =   0.0370370
        k(   29) = (   0.3333333   0.3333333   0.0000000), wk =   0.0370370
        k(   30) = (   0.3333333   0.3333333   0.1143617), wk =   0.0740741
        k(   31) = (   0.3333333   0.3333333   0.2287234), wk =   0.0740741
        k(   32) = (   0.3333333   0.3333333  -0.3430851), wk =   0.0370370
        k(   33) = (   0.3333333  -0.5000000   0.0000000), wk =   0.0370370
        k(   34) = (   0.3333333  -0.5000000   0.1143617), wk =   0.0740741
        k(   35) = (   0.3333333  -0.5000000   0.2287234), wk =   0.0740741
        k(   36) = (   0.3333333  -0.5000000  -0.3430851), wk =   0.0370370
        k(   37) = (  -0.5000000  -0.5000000   0.0000000), wk =   0.0092593
        k(   38) = (  -0.5000000  -0.5000000   0.1143617), wk =   0.0185185
        k(   39) = (  -0.5000000  -0.5000000   0.2287234), wk =   0.0185185
        k(   40) = (  -0.5000000  -0.5000000  -0.3430851), wk =   0.0092593

     Dense  grid:   253261 G-vectors     FFT dimensions: (  72,  72, 108)

     Estimated max dynamical RAM per process >     793.69 MB

     Estimated total dynamical RAM >      31.00 GB

     Initial potential from superposition of free atoms

     starting charge  183.99828, renormalised to  184.18000
     Starting wfcs are  116 randomized atomic wfcs

     total cpu time spent up to now is        5.8 secs

     Self-consistent Calculation

     iteration #  1     ecut=   120.00 Ry     beta= 0.70
     Davidson diagonalization with overlap
     ethr =  1.00E-02,  avg # of iterations =  4.7

     total cpu time spent up to now is       21.4 secs

     total energy              =   -3126.72692034 Ry
     Harris-Foulkes estimate   =   -3132.21019966 Ry
     estimated scf accuracy    <       6.91676024 Ry

     iteration #  2     ecut=   120.00 Ry     beta= 0.70
     Davidson diagonalization with overlap
     ethr =  3.76E-03,  avg # of iterations =  3.4

     total cpu time spent up to now is       36.9 secs

     total energy              =   -3125.16703808 Ry
     Harris-Foulkes estimate   =   -3135.41301282 Ry
     estimated scf accuracy    <      27.46395355 Ry

     iteration #  3     ecut=   120.00 Ry     beta= 0.70
     Davidson diagonalization with overlap
     ethr =  3.76E-03,  avg # of iterations =  3.2

     total cpu time spent up to now is       51.1 secs

     total energy              =   -3130.39749785 Ry
     Harris-Foulkes estimate   =   -3130.53483145 Ry
     estimated scf accuracy    <       0.46523447 Ry

     iteration #  4     ecut=   120.00 Ry     beta= 0.70
     Davidson diagonalization with overlap
     ethr =  2.53E-04,  avg # of iterations =  2.7

     total cpu time spent up to now is       63.5 secs

     total energy              =   -3130.38713536 Ry
     Harris-Foulkes estimate   =   -3130.42843526 Ry
     estimated scf accuracy    <       0.11516501 Ry

     iteration #  5     ecut=   120.00 Ry     beta= 0.70
     Davidson diagonalization with overlap
     ethr =  6.25E-05,  avg # of iterations =  3.8

     total cpu time spent up to now is       76.2 secs

     total energy              =   -3130.39511465 Ry
     Harris-Foulkes estimate   =   -3130.40763599 Ry
     estimated scf accuracy    <       0.02975538 Ry

     iteration #  6     ecut=   120.00 Ry     beta= 0.70
     Davidson diagonalization with overlap
     ethr =  1.62E-05,  avg # of iterations =  4.1

     total cpu time spent up to now is       88.9 secs

     total energy              =   -3130.40080981 Ry
     Harris-Foulkes estimate   =   -3130.40242117 Ry
     estimated scf accuracy    <       0.00406186 Ry

     iteration #  7     ecut=   120.00 Ry     beta= 0.70
     Davidson diagonalization with overlap
     ethr =  2.21E-06,  avg # of iterations =  4.0

     total cpu time spent up to now is      101.7 secs

     total energy              =   -3130.40142989 Ry
     Harris-Foulkes estimate   =   -3130.40145092 Ry
     estimated scf accuracy    <       0.00003305 Ry

     iteration #  8     ecut=   120.00 Ry     beta= 0.70
     Davidson diagonalization with overlap
     ethr =  1.79E-08,  avg # of iterations =  3.7

     total cpu time spent up to now is      118.2 secs

     total energy              =   -3130.40145442 Ry
     Harris-Foulkes estimate   =   -3130.40146069 Ry
     estimated scf accuracy    <       0.00003218 Ry

     iteration #  9     ecut=   120.00 Ry     beta= 0.70
     Davidson diagonalization with overlap
     ethr =  1.75E-08,  avg # of iterations =  1.5

     total cpu time spent up to now is      129.5 secs

     total energy              =   -3130.40145044 Ry
     Harris-Foulkes estimate   =   -3130.40145594 Ry
     estimated scf accuracy    <       0.00001518 Ry

     iteration # 10     ecut=   120.00 Ry     beta= 0.70
     Davidson diagonalization with overlap
     ethr =  8.24E-09,  avg # of iterations =  2.0

     total cpu time spent up to now is      141.0 secs

     total energy              =   -3130.40145247 Ry
     Harris-Foulkes estimate   =   -3130.40145266 Ry
     estimated scf accuracy    <       0.00000043 Ry

     iteration # 11     ecut=   120.00 Ry     beta= 0.70
     Davidson diagonalization with overlap
     ethr =  2.31E-10,  avg # of iterations =  2.8

     total cpu time spent up to now is      154.5 secs

     total energy              =   -3130.40145257 Ry
     Harris-Foulkes estimate   =   -3130.40145259 Ry
     estimated scf accuracy    <       0.00000004 Ry

     iteration # 12     ecut=   120.00 Ry     beta= 0.70
     Davidson diagonalization with overlap
     ethr =  2.18E-11,  avg # of iterations =  2.0

     total cpu time spent up to now is      167.5 secs

     End of self-consistent calculation

          k = 0.0000 0.0000 0.0000 ( 31655 PWs)   bands (ev):

   -66.3684 -66.3679 -66.3671 -66.3666 -30.7408 -30.7365 -30.7023 -30.7023
   -30.6983 -30.6983 -30.6706 -30.6675 -30.6226 -30.6226 -30.6193 -30.6193
   -20.5268 -20.5267 -20.5267 -20.5266 -20.5108 -20.5107 -20.5064 -20.5064
   -20.5064 -20.5064 -20.5058 -20.5057 -20.5057 -20.5056 -20.5047 -20.5047
   -20.5045 -20.5045 -20.5041 -20.5041 -20.5012 -20.5012 -20.4999 -20.4999
   -20.4975 -20.4975 -20.4964 -20.4964 -10.1933  -9.8109  -9.4063  -9.1775
    -9.1540  -9.0635  -8.0045  -7.9096  -7.9096  -7.8853  -7.8853  -7.8824
     0.9354   0.9357   1.0042   1.2185   1.2847   1.3957   2.3303   2.3303
     2.3401   2.4507   3.9188   3.9188   4.6221   4.6221   4.8502   5.4254
     5.4254   5.5176   5.5176   5.6989   5.6989   5.7946   5.8427   6.4632
     6.4632   6.6898   6.9715   7.0180   7.0270   7.0270   7.0430   7.0430
     8.1253   8.1253   8.2045   8.2133   8.7961   8.8021   9.4340   9.4340
    12.2942  12.2942  13.1696  13.1696  13.4013  13.5705  13.5810  14.0468
    14.0468  14.1289  14.1313  14.5184  15.4263  16.3125  17.0390

          k = 0.0000 0.0000 0.1144 ( 31659 PWs)   bands (ev):

   -66.3684 -66.3679 -66.3671 -66.3666 -30.7362 -30.7319 -30.7020 -30.7020
   -30.6986 -30.6986 -30.6754 -30.6721 -30.6223 -30.6223 -30.6195 -30.6195
   -20.5267 -20.5267 -20.5267 -20.5266 -20.5103 -20.5103 -20.5064 -20.5064
   -20.5064 -20.5064 -20.5058 -20.5057 -20.5057 -20.5057 -20.5047 -20.5047
   -20.5046 -20.5045 -20.5045 -20.5045 -20.5011 -20.5011 -20.5000 -20.5000
   -20.4975 -20.4975 -20.4965 -20.4965 -10.1546  -9.8257  -9.3248  -9.1759
    -9.1556  -9.0190  -8.1146  -8.0032  -7.9080  -7.9080  -7.8870  -7.8870
     0.9355   0.9357   1.1685   1.2841   1.3931   1.5816   2.3473   2.4014
     2.4014   2.4431   3.7373   3.7373   4.6044   4.6776   4.6776   5.3703
     5.3703   5.4430   5.4430   5.4595   5.8377   5.8860   5.8860   6.4733
     6.4733   6.7079   6.8228   6.9519   7.0265   7.0265   7.0384   7.0384
     8.0392   8.0392   8.2051   8.2129   8.7968   8.8019   9.6779   9.6779
    12.1240  12.1240  13.2003  13.2003  13.5712  13.5803  13.6862  13.9516
    13.9516  14.1293  14.1314  14.7405  15.8446  16.0068  17.0782

          k = 0.0000 0.0000 0.2287 ( 31670 PWs)   bands (ev):

   -66.3683 -66.3680 -66.3670 -66.3667 -30.7234 -30.7193 -30.7013 -30.7013
   -30.6993 -30.6993 -30.6883 -30.6848 -30.6217 -30.6217 -30.6201 -30.6201
   -20.5267 -20.5267 -20.5267 -20.5266 -20.5091 -20.5091 -20.5064 -20.5064
   -20.5064 -20.5064 -20.5058 -20.5058 -20.5058 -20.5057 -20.5057 -20.5057
   -20.5046 -20.5046 -20.5046 -20.5046 -20.5009 -20.5009 -20.5002 -20.5002
   -20.4973 -20.4973 -20.4967 -20.4967 -10.0589  -9.8722  -9.1716  -9.1599
    -9.0934  -8.8770  -8.3964  -8.3004  -7.9036  -7.9036  -7.8915  -7.8915
     0.9356   0.9357   1.2610   1.2818   2.0109   2.3044   2.3672   2.4225
     2.6095   2.6095   3.3441   3.3441   3.9027   4.5076   4.8430   4.8430
     5.2454   5.2454   5.4737   5.4737   5.7663   5.7663   5.9651   6.4682
     6.7581   6.8384   6.8384   6.8989   7.0257   7.0257   7.0375   7.0375
     7.7771   7.7771   8.2068   8.2113   8.7983   8.8013  10.2704  10.2704
    11.6527  11.6527  13.3013  13.3013  13.5732  13.5785  13.7253  13.7253
    14.1301  14.1314  14.2407  15.4088  15.4315  16.8591  16.8890

          k = 0.0000 0.0000-0.3431 ( 31714 PWs)   bands (ev):

   -66.3682 -66.3682 -66.3669 -66.3669 -30.7059 -30.7059 -30.7021 -30.7021
   -30.7003 -30.7003 -30.7003 -30.7003 -30.6209 -30.6209 -30.6209 -30.6209
   -20.5267 -20.5267 -20.5267 -20.5267 -20.5075 -20.5075 -20.5075 -20.5075
   -20.5064 -20.5064 -20.5064 -20.5064 -20.5058 -20.5058 -20.5057 -20.5057
   -20.5046 -20.5046 -20.5046 -20.5046 -20.5005 -20.5005 -20.5005 -20.5005
   -20.4970 -20.4970 -20.4970 -20.4970  -9.9530  -9.9530  -9.1658  -9.1658
    -8.7562  -8.7561  -8.6280  -8.6280  -7.8976  -7.8976  -7.8976  -7.8976
     0.9357   0.9357   1.2765   1.2765   2.3946   2.3946   2.9370   2.9370
     2.9370   2.9370   2.9426   2.9426   3.3576   3.3576   5.0678   5.0678
     5.0678   5.0678   5.5649   5.5649   5.5649   5.5649   6.1741   6.1741
     6.8277   6.8278   7.0240   7.0240   7.0240   7.0240   7.3584   7.3584
     7.3584   7.3584   8.2091   8.2091   8.8001   8.8001  10.9869  10.9869
    10.9870  10.9870  13.4828  13.4828  13.4828  13.4828  13.5759  13.5759
    14.1310  14.1310  14.8235  14.8235  16.2445  16.2445  17.4645

          k = 0.0000 0.1667 0.0000 ( 31671 PWs)   bands (ev):

   -66.3683 -66.3678 -66.3672 -66.3667 -30.7411 -30.7370 -30.6980 -30.6970
   -30.6931 -30.6926 -30.6695 -30.6683 -30.6279 -30.6274 -30.6247 -30.6245
   -20.5268 -20.5267 -20.5267 -20.5266 -20.5108 -20.5108 -20.5069 -20.5068
   -20.5063 -20.5062 -20.5060 -20.5059 -20.5053 -20.5051 -20.5048 -20.5046
   -20.5045 -20.5044 -20.5040 -20.5040 -20.5010 -20.5010 -20.4998 -20.4997
   -20.4978 -20.4977 -20.4967 -20.4966 -10.1107  -9.7066  -9.4262  -9.1077
    -9.0842  -9.0391  -8.0845  -8.0532  -8.0154  -7.9913  -7.9600  -7.8890
     1.0408   1.1887   1.1916   1.2012   1.5533   1.6301   2.4006   2.4091
     2.5126   2.6194   3.8694   3.9107   4.2898   4.3822   4.8364   5.1205
     5.1541   5.3245   5.4150   5.7114   5.7185   5.8672   6.1893   6.2995
     6.3227   6.3572   6.4038   6.6698   6.8424   6.9115   6.9584   7.0019
     8.0451   8.0795   8.0867   8.0883   9.4553   9.4690   9.7480   9.8392
    12.3516  12.3828  12.9057  12.9159  13.4015  13.4115  13.6903  13.8542
    13.8668  14.6180  14.6379  14.7241  15.3571  16.6441  17.1187

          k = 0.0000 0.1667 0.1144 ( 31654 PWs)   bands (ev):

   -66.3683 -66.3679 -66.3671 -66.3667 -30.7365 -30.7324 -30.6980 -30.6967
   -30.6933 -30.6928 -30.6740 -30.6729 -30.6277 -30.6272 -30.6249 -30.6247
   -20.5268 -20.5267 -20.5267 -20.5266 -20.5104 -20.5104 -20.5069 -20.5068
   -20.5064 -20.5061 -20.5060 -20.5059 -20.5053 -20.5051 -20.5049 -20.5046
   -20.5045 -20.5044 -20.5044 -20.5043 -20.5009 -20.5009 -20.4998 -20.4998
   -20.4977 -20.4977 -20.4968 -20.4967 -10.0690  -9.7216  -9.3449  -9.1061
    -9.0857  -8.9975  -8.1514  -8.0514  -8.0337  -8.0138  -7.9929  -7.9807
     1.1889   1.1914   1.2684   1.4232   1.5522   1.7007   2.4733   2.4761
     2.5225   2.6131   3.7148   3.7565   4.3485   4.4396   4.5868   5.1258
     5.1490   5.1790   5.2461   5.4717   5.7979   5.8553   6.2205   6.3388
     6.3389   6.3658   6.3781   6.7610   6.7855   6.9171   6.9606   7.0137
     7.9692   8.0013   8.0759   8.0908   9.4574   9.4652   9.9411  10.0225
    12.1856  12.2197  12.9438  12.9471  13.3976  13.4116  13.7645  13.7671
    13.9844  14.6183  14.6329  14.9245  15.7752  16.2985  17.0560

          k = 0.0000 0.1667 0.2287 ( 31653 PWs)   bands (ev):

   -66.3682 -66.3679 -66.3671 -66.3668 -30.7241 -30.7199 -30.6986 -30.6960
   -30.6940 -30.6932 -30.6856 -30.6855 -30.6271 -30.6268 -30.6255 -30.6253
   -20.5267 -20.5267 -20.5267 -20.5267 -20.5093 -20.5092 -20.5069 -20.5068
   -20.5067 -20.5061 -20.5060 -20.5059 -20.5059 -20.5054 -20.5052 -20.5052
   -20.5046 -20.5046 -20.5045 -20.5044 -20.5007 -20.5007 -20.5001 -20.5000
   -20.4975 -20.4975 -20.4970 -20.4969  -9.9663  -9.7691  -9.1141  -9.1018
    -9.0900  -8.8631  -8.4159  -8.3073  -8.0460  -8.0249  -8.0095  -7.9974
     1.1894   1.1909   1.5090   1.5486   2.0161   2.2705   2.5350   2.5898
     2.6867   2.7082   3.3515   3.3953   3.8947   4.5056   4.5334   4.6153
     5.0211   5.0660   5.1701   5.1969   5.5182   5.5510   6.3062   6.3329
     6.3631   6.6036   6.7838   6.8185   6.8841   6.9206   6.9803   7.0510
     7.7241   7.7539   8.0793   8.0882   9.4598   9.4625  10.4439  10.5097
    11.7281  11.7700  13.0513  13.0548  13.3717  13.4039  13.5396  13.5621
    14.5544  14.6191  14.6252  15.5676  15.7204  16.8124  17.0265

          k = 0.0000 0.1667-0.3431 ( 31652 PWs)   bands (ev):

   -66.3681 -66.3681 -66.3669 -66.3669 -30.7078 -30.7078 -30.7027 -30.7027
   -30.6950 -30.6950 -30.6930 -30.6930 -30.6263 -30.6263 -30.6260 -30.6260
   -20.5267 -20.5267 -20.5267 -20.5267 -20.5078 -20.5078 -20.5076 -20.5076
   -20.5069 -20.5069 -20.5060 -20.5060 -20.5059 -20.5059 -20.5052 -20.5052
   -20.5046 -20.5046 -20.5045 -20.5045 -20.5004 -20.5004 -20.5003 -20.5003
   -20.4973 -20.4973 -20.4972 -20.4972  -9.8534  -9.8534  -9.0959  -9.0959
    -8.7770  -8.7770  -8.6232  -8.6232  -8.0377  -8.0377  -8.0034  -8.0034
     1.1902   1.1902   1.5397   1.5397   2.5611   2.5611   2.9276   2.9276
     2.9539   2.9539   3.0052   3.0052   3.3966   3.3966   4.7995   4.7996
     4.8639   4.8639   5.2659   5.2659   5.2847   5.2848   6.3381   6.3382
     6.4601   6.4601   6.9092   6.9092   6.9925   6.9925   7.3227   7.3227
     7.3583   7.3583   8.0841   8.0841   9.4613   9.4613  11.0959  11.0959
    11.1485  11.1485  13.2170  13.2170  13.2574  13.2574  13.4559  13.4560
    14.6208  14.6209  15.1272  15.1273  16.4103  16.4103  17.5104

          k = 0.0000 0.3333 0.0000 ( 31670 PWs)   bands (ev):

   -66.3681 -66.3676 -66.3674 -66.3669 -30.7411 -30.7384 -30.6873 -30.6825
   -30.6787 -30.6776 -30.6710 -30.6654 -30.6426 -30.6401 -30.6392 -30.6386
   -20.5268 -20.5267 -20.5267 -20.5266 -20.5110 -20.5109 -20.5072 -20.5071
   -20.5066 -20.5065 -20.5061 -20.5055 -20.5053 -20.5047 -20.5046 -20.5045
   -20.5044 -20.5042 -20.5039 -20.5039 -20.5004 -20.5003 -20.4993 -20.4992
   -20.4984 -20.4983 -20.4975 -20.4972  -9.8961  -9.4974  -9.4095  -8.9490
    -8.9086  -8.8851  -8.4771  -8.3946  -8.2843  -8.2604  -7.9556  -7.9072
     1.0814   1.1614   1.8653   1.8891   2.2331   2.2533   2.5843   2.6159
     3.0384   3.1386   3.6170   3.6457   3.8158   3.9151   4.3576   4.4106
     4.8081   4.8873   5.1999   5.2185   5.2261   5.7017   5.7821   5.9166
     6.0982   6.1426   6.2062   6.5201   6.8466   7.0395   7.1138   7.3332
     7.7588   7.7599   7.8343   7.9589  10.4826  10.5337  10.5771  10.6900
    12.2398  12.3097  12.5759  12.6677  12.7022  12.7123  13.4285  13.4977
    14.2618  15.1444  15.3452  15.9351  15.9357  17.2374  17.3155

          k = 0.0000 0.3333 0.1144 ( 31630 PWs)   bands (ev):

   -66.3680 -66.3676 -66.3674 -66.3670 -30.7366 -30.7339 -30.6883 -30.6822
   -30.6789 -30.6777 -30.6754 -30.6688 -30.6424 -30.6403 -30.6394 -30.6388
   -20.5267 -20.5267 -20.5267 -20.5266 -20.5106 -20.5105 -20.5072 -20.5071
   -20.5066 -20.5065 -20.5063 -20.5055 -20.5054 -20.5047 -20.5046 -20.5045
   -20.5044 -20.5043 -20.5042 -20.5041 -20.5004 -20.5003 -20.4994 -20.4992
   -20.4984 -20.4983 -20.4976 -20.4973  -9.8444  -9.4251  -9.4186  -8.9176
    -8.9070  -8.8866  -8.4989  -8.3902  -8.2827  -8.2620  -8.0582  -8.0145
     1.3330   1.4118   1.8671   1.8877   2.2303   2.2648   2.6586   2.6787
     3.0433   3.1328   3.5461   3.5904   3.8758   3.9744   4.3715   4.4249
     4.5406   4.7149   4.9392   5.1829   5.1978   5.4557   5.5087   5.7376
     6.2620   6.3267   6.5238   6.5965   6.8545   7.0329   7.1266   7.3249
     7.7501   7.7505   7.7835   7.9018  10.5335  10.5454  10.6379  10.7917
    12.2798  12.3147  12.4626  12.5215  12.7047  12.7073  13.3143  13.3876
    14.6139  15.4720  15.5658  15.9351  15.9358  16.9092  17.3357

          k = 0.0000 0.3333 0.2287 ( 31614 PWs)   bands (ev):

   -66.3679 -66.3677 -66.3673 -66.3671 -30.7243 -30.7214 -30.6940 -30.6875
   -30.6815 -30.6796 -30.6780 -30.6753 -30.6418 -30.6403 -30.6400 -30.6393
   -20.5267 -20.5267 -20.5267 -20.5267 -20.5095 -20.5094 -20.5072 -20.5071
   -20.5068 -20.5065 -20.5065 -20.5063 -20.5054 -20.5048 -20.5047 -20.5047
   -20.5045 -20.5044 -20.5043 -20.5043 -20.5002 -20.5000 -20.4996 -20.4994
   -20.4983 -20.4981 -20.4978 -20.4975  -9.7152  -9.4764  -9.1971  -8.9027
    -8.8909  -8.8101  -8.6095  -8.3752  -8.3115  -8.2783  -8.2664  -8.2285
     1.8718   1.8838   1.9780   2.0337   2.2200   2.3741   2.8574   2.8902
     3.0527   3.1178   3.3221   3.4020   3.8791   4.0700   4.1511   4.3038
     4.4292   4.4809   4.6167   4.7394   4.9861   5.1323   5.1957   5.2167
     6.7369   6.7484   6.8072   6.8604   6.8700   7.0123   7.1809   7.2891
     7.5785   7.6510   7.7689   7.7990  10.5507  10.5534  10.9522  11.1107
    11.9753  12.1020  12.4308  12.5198  12.7066  12.7136  13.0432  13.1193
    15.3099  15.9347  15.9357  15.9862  16.3983  16.5672  17.3157

          k = 0.0000 0.3333-0.3431 ( 31614 PWs)   bands (ev):

   -66.3678 -66.3678 -66.3672 -66.3672 -30.7080 -30.7080 -30.7044 -30.7044
   -30.6806 -30.6806 -30.6779 -30.6779 -30.6409 -30.6409 -30.6399 -30.6399
   -20.5267 -20.5267 -20.5267 -20.5267 -20.5080 -20.5080 -20.5078 -20.5078
   -20.5071 -20.5071 -20.5065 -20.5065 -20.5053 -20.5052 -20.5047 -20.5047
   -20.5045 -20.5045 -20.5043 -20.5043 -20.4999 -20.4999 -20.4997 -20.4997
   -20.4981 -20.4981 -20.4978 -20.4978  -9.5748  -9.5748  -8.8976  -8.8976
    -8.8847  -8.8847  -8.6007  -8.6007  -8.3386  -8.3386  -8.2724  -8.2724
     1.8780   1.8780   2.1916   2.1916   2.8739   2.8739   2.9810   2.9810
     3.0992   3.0992   3.1383   3.1383   3.4477   3.4478   4.3461   4.3461
     4.3891   4.3891   4.6025   4.6025   4.6850   4.6850   5.1907   5.1907
     6.8397   6.8397   6.9605   6.9605   7.1784   7.1784   7.2506   7.2506
     7.3620   7.3620   7.7756   7.7756  10.5542  10.5542  11.4445  11.4445
    11.5905  11.5905  12.5938  12.5938  12.7479  12.7479  12.8543  12.8543
    15.8716  15.8716  15.9368  15.9368  16.8209  16.8209  17.4124

          k = 0.0000-0.5000 0.0000 ( 31654 PWs)   bands (ev):

   -66.3677 -66.3677 -66.3673 -66.3673 -30.7401 -30.7401 -30.6767 -30.6767
   -30.6626 -30.6626 -30.6590 -30.6590 -30.6579 -30.6579 -30.6554 -30.6554
   -20.5267 -20.5267 -20.5267 -20.5267 -20.5110 -20.5110 -20.5070 -20.5070
   -20.5069 -20.5069 -20.5057 -20.5057 -20.5050 -20.5050 -20.5043 -20.5043
   -20.5043 -20.5043 -20.5038 -20.5038 -20.4995 -20.4995 -20.4994 -20.4994
   -20.4984 -20.4984 -20.4981 -20.4981  -9.6547  -9.6547  -8.9691  -8.9691
    -8.7401  -8.7401  -8.6131  -8.6131  -8.5894  -8.5894  -7.9320  -7.9319
     1.1189   1.1189   2.6052   2.6052   2.7135   2.7135   2.8359   2.8359
     3.0257   3.0257   3.6676   3.6676   3.7461   3.7462   3.9422   3.9422
     4.0411   4.0411   4.8230   4.8230   5.4093   5.4093   5.8767   5.8767
     5.9966   5.9966   6.2637   6.2637   7.3546   7.3546   7.3879   7.3879
     7.4399   7.4399   7.7119   7.7119  11.3400  11.3400  11.5241  11.5241
    11.7068  11.7068  11.7379  11.7379  12.9438  12.9438  13.0595  13.0595
    14.7789  14.7789  16.2948  16.2949  17.4418  17.4418  17.5321

          k = 0.0000-0.5000 0.1144 ( 31636 PWs)   bands (ev):

   -66.3677 -66.3677 -66.3673 -66.3673 -30.7355 -30.7355 -30.6799 -30.6799
   -30.6624 -30.6624 -30.6592 -30.6592 -30.6581 -30.6581 -30.6566 -30.6566
   -20.5267 -20.5267 -20.5267 -20.5267 -20.5106 -20.5106 -20.5070 -20.5070
   -20.5069 -20.5069 -20.5059 -20.5059 -20.5050 -20.5050 -20.5043 -20.5043
   -20.5043 -20.5043 -20.5040 -20.5040 -20.4995 -20.4995 -20.4993 -20.4993
   -20.4985 -20.4985 -20.4982 -20.4982  -9.5865  -9.5865  -8.9861  -8.9861
    -8.7251  -8.7251  -8.6116  -8.6116  -8.5910  -8.5910  -8.0385  -8.0385
     1.3722   1.3722   2.6285   2.6285   2.7535   2.7535   2.8267   2.8267
     3.0100   3.0100   3.7170   3.7170   3.7859   3.7859   3.9397   3.9397
     4.0411   4.0411   4.5652   4.5652   5.0536   5.0536   5.5947   5.5947
     6.3504   6.3504   6.4282   6.4282   7.3459   7.3459   7.3817   7.3817
     7.4233   7.4233   7.6785   7.6785  11.3915  11.3915  11.5755  11.5756
    11.7236  11.7236  11.7539  11.7539  12.8077  12.8077  12.9288  12.9288
    15.1750  15.1750  16.3711  16.3711  17.3278  17.3278  17.5377

          k = 0.0000-0.5000 0.2287 ( 31588 PWs)   bands (ev):

   -66.3676 -66.3676 -66.3674 -66.3674 -30.7232 -30.7232 -30.6904 -30.6904
   -30.6617 -30.6617 -30.6599 -30.6599 -30.6585 -30.6585 -30.6583 -30.6583
   -20.5267 -20.5267 -20.5267 -20.5267 -20.5095 -20.5095 -20.5070 -20.5070
   -20.5070 -20.5070 -20.5066 -20.5066 -20.5049 -20.5049 -20.5046 -20.5046
   -20.5043 -20.5043 -20.5042 -20.5042 -20.4993 -20.4993 -20.4991 -20.4991
   -20.4987 -20.4987 -20.4985 -20.4985  -9.4055  -9.4055  -9.0488  -9.0488
    -8.6697  -8.6697  -8.6073  -8.6073  -8.5952  -8.5952  -8.2903  -8.2903
     2.0460   2.0460   2.6854   2.6854   2.7979   2.7979   2.8657   2.8657
     2.9542   2.9542   3.8390   3.8390   3.8823   3.8823   3.9074   3.9075
     4.0609   4.0610   4.0780   4.0780   4.5661   4.5661   4.8828   4.8828
     6.7954   6.7954   6.8205   6.8205   7.3021   7.3021   7.3070   7.3070
     7.4243   7.4244   7.5807   7.5807  11.5219  11.5219  11.6343  11.6343
    11.8326  11.8326  11.8682  11.8682  12.4678  12.4678  12.5963  12.5963
    16.0941  16.0941  16.6184  16.6184  17.0645  17.0645  17.5418

          k = 0.0000-0.5000-0.3431 ( 31664 PWs)   bands (ev):

   -66.3675 -66.3675 -66.3675 -66.3675 -30.7065 -30.7065 -30.7064 -30.7064
   -30.6608 -30.6608 -30.6608 -30.6608 -30.6588 -30.6588 -30.6587 -30.6587
   -20.5267 -20.5267 -20.5267 -20.5267 -20.5080 -20.5080 -20.5080 -20.5080
   -20.5070 -20.5070 -20.5070 -20.5070 -20.5048 -20.5048 -20.5048 -20.5048
   -20.5043 -20.5043 -20.5043 -20.5043 -20.4991 -20.4991 -20.4991 -20.4991
   -20.4988 -20.4988 -20.4988 -20.4988  -9.1919  -9.1919  -9.1919  -9.1919
    -8.6017  -8.6017  -8.6017  -8.6017  -8.5338  -8.5337  -8.5337  -8.5337
     2.7445   2.7445   2.7445   2.7445   2.7743   2.7743   2.7743   2.7743
     3.1740   3.1740   3.1740   3.1740   3.9831   3.9832   3.9832   3.9832
     4.1625   4.1625   4.1625   4.1625   4.2999   4.2999   4.2999   4.2999
     7.1067   7.1067   7.1067   7.1067   7.1626   7.1626   7.1626   7.1626
     7.4709   7.4709   7.4709   7.4709  11.6158  11.6158  11.6158  11.6158
    12.0799  12.0799  12.0799  12.0799  12.2003  12.2003  12.2003  12.2003
    16.7311  16.7311  16.7311  16.7311  17.3610  17.3610  17.3610

          k = 0.1667 0.1667 0.0000 ( 31643 PWs)   bands (ev):

   -66.3682 -66.3677 -66.3673 -66.3668 -30.7410 -30.7375 -30.7035 -30.6995
   -30.6842 -30.6770 -30.6694 -30.6675 -30.6423 -30.6400 -30.6215 -30.6183
   -20.5268 -20.5267 -20.5267 -20.5266 -20.5109 -20.5108 -20.5068 -20.5068
   -20.5066 -20.5066 -20.5063 -20.5063 -20.5050 -20.5049 -20.5047 -20.5047
   -20.5042 -20.5041 -20.5041 -20.5038 -20.5012 -20.5004 -20.4999 -20.4992
   -20.4984 -20.4975 -20.4974 -20.4963 -10.0552  -9.6489  -9.4496  -9.0985
    -8.9815  -8.9411  -8.3616  -8.3296  -7.9757  -7.9240  -7.8989  -7.8947
     0.9962   1.0693   1.1582   1.1908   2.1248   2.1357   2.3143   2.6045
     2.6798   2.7800   3.6472   3.7818   3.9726   4.4380   4.6275   4.8221
     5.1287   5.2864   5.4005   5.6681   5.7750   5.8823   6.0304   6.1501
     6.2532   6.3042   6.3271   6.4898   6.6209   6.7666   7.0079   7.1948
     7.8715   7.9236   7.9317   8.1199   9.4782   9.9646   9.9860  10.5644
    12.2097  12.3583  12.6027  13.1644  13.2103  13.2128  13.4590  13.6888
    14.0477  14.7793  14.9250  15.1639  15.2726  17.1193  17.1984

          k = 0.1667 0.1667 0.1144 ( 31655 PWs)   bands (ev):

   -66.3682 -66.3678 -66.3672 -66.3668 -30.7364 -30.7329 -30.7032 -30.6998
   -30.6851 -30.6772 -30.6738 -30.6711 -30.6423 -30.6402 -30.6213 -30.6185
   -20.5267 -20.5267 -20.5267 -20.5266 -20.5104 -20.5104 -20.5068 -20.5068
   -20.5066 -20.5066 -20.5063 -20.5063 -20.5050 -20.5050 -20.5047 -20.5047
   -20.5044 -20.5042 -20.5042 -20.5041 -20.5012 -20.5003 -20.5000 -20.4993
   -20.4984 -20.4975 -20.4974 -20.4964 -10.0121  -9.6632  -9.3692  -9.0759
    -8.9840  -8.9219  -8.3788  -8.3268  -8.0774  -8.0077  -7.9223  -7.9006
     1.0509   1.0692   1.3423   1.4589   2.1225   2.1500   2.3848   2.6575
     2.7005   2.7737   3.5755   3.7226   3.9107   4.4532   4.5656   4.6868
     4.8799   5.2736   5.2941   5.4917   5.5896   5.8751   6.1787   6.2242
     6.2492   6.3140   6.4631   6.4989   6.6198   6.8265   6.8897   7.1918
     7.8301   7.9134   7.9212   8.0386   9.7083   9.9660   9.9909  10.6770
    12.1105  12.3424  12.4481  13.1715  13.2137  13.2169  13.3648  13.9360
    13.9543  14.7676  15.0975  15.2314  15.6876  16.6575  17.2134

          k = 0.1667 0.1667 0.2287 ( 31664 PWs)   bands (ev):

   -66.3681 -66.3679 -66.3671 -66.3669 -30.7238 -30.7204 -30.7025 -30.7005
   -30.6915 -30.6862 -30.6777 -30.6769 -30.6421 -30.6407 -30.6207 -30.6191
   -20.5267 -20.5267 -20.5267 -20.5267 -20.5093 -20.5093 -20.5068 -20.5068
   -20.5068 -20.5065 -20.5065 -20.5062 -20.5058 -20.5058 -20.5047 -20.5047
   -20.5046 -20.5044 -20.5041 -20.5041 -20.5009 -20.5002 -20.5001 -20.4995
   -20.4982 -20.4977 -20.4972 -20.4966  -9.9064  -9.7090  -9.1420  -9.0318
    -8.9915  -8.8303  -8.4992  -8.3180  -8.3166  -8.2287  -7.9178  -7.9052
     1.0646   1.0687   1.9725   2.0329   2.1143   2.3411   2.5885   2.6948
     2.7600   2.8839   3.3426   3.3599   3.8883   4.0876   4.3924   4.5096
     4.7353   4.8531   5.0702   5.1717   5.3367   5.7175   6.2681   6.2978
     6.3124   6.4789   6.6050   6.6382   6.8185   6.8475   7.0113   7.1728
     7.6441   7.7405   7.9223   7.9468   9.9678   9.9691  10.3081  11.0083
    11.6609  12.0361  12.4783  13.0209  13.2205  13.2253  13.3252  13.7287
    14.3603  14.7253  15.3069  15.8106  16.1101  16.7034  17.2696

          k = 0.1667 0.1667-0.3431 ( 31642 PWs)   bands (ev):

   -66.3680 -66.3680 -66.3670 -66.3670 -30.7069 -30.7069 -30.7033 -30.7033
   -30.7015 -30.7015 -30.6781 -30.6781 -30.6415 -30.6415 -30.6199 -30.6199
   -20.5267 -20.5267 -20.5267 -20.5267 -20.5078 -20.5078 -20.5077 -20.5077
   -20.5068 -20.5068 -20.5064 -20.5064 -20.5062 -20.5062 -20.5048 -20.5047
   -20.5046 -20.5046 -20.5041 -20.5041 -20.5006 -20.5006 -20.4998 -20.4998
   -20.4980 -20.4980 -20.4969 -20.4969  -9.7921  -9.7921  -9.0054  -9.0054
    -8.8145  -8.8145  -8.6143  -8.6142  -8.2984  -8.2984  -7.9115  -7.9115
     1.0675   1.0676   2.0948   2.0948   2.7163   2.7163   2.9321   2.9321
     2.9369   2.9369   3.0369   3.0369   3.4124   3.4124   4.3784   4.3784
     4.6691   4.6691   5.0501   5.0501   5.4540   5.4540   6.3068   6.3068
     6.4140   6.4140   6.5892   6.5892   7.1013   7.1013   7.3189   7.3189
     7.3240   7.3240   7.9333   7.9333   9.9715   9.9715  11.0065  11.0065
    11.5029  11.5029  12.7234  12.7234  13.2224  13.2224  13.4910  13.4910
    14.6172  14.6172  15.6273  15.6273  16.6536  16.6536  17.9044

          k = 0.1667 0.3333 0.0000 ( 31636 PWs)   bands (ev):

   -66.3680 -66.3675 -66.3675 -66.3670 -30.7406 -30.7386 -30.6996 -30.6948
   -30.6742 -30.6733 -30.6603 -30.6592 -30.6568 -30.6566 -30.6258 -30.6227
   -20.5267 -20.5267 -20.5267 -20.5266 -20.5109 -20.5109 -20.5072 -20.5072
   -20.5069 -20.5068 -20.5062 -20.5061 -20.5052 -20.5050 -20.5045 -20.5043
   -20.5041 -20.5039 -20.5037 -20.5036 -20.5011 -20.4999 -20.4994 -20.4993
   -20.4984 -20.4983 -20.4976 -20.4966  -9.9007  -9.5328  -9.4685  -9.0468
    -8.7731  -8.7091  -8.6878  -8.6687  -8.0545  -8.0445  -7.9502  -7.9103
     1.0712   1.1617   1.3351   1.3755   2.3787   2.6569   2.7244   2.9164
     3.0007   3.2216   3.2727   3.6917   3.7454   3.9308   4.3607   4.7873
     4.8237   4.9202   5.1015   5.5885   5.6212   5.6432   5.7151   5.8363
     6.0873   6.1021   6.3413   6.5220   6.6962   6.7921   6.8403   7.5170
     7.5369   7.5857   7.6073   8.0671   9.8381  10.9070  10.9326  11.4625
    11.4631  12.3817  12.6707  12.6894  12.8973  12.9948  13.0270  13.8762
    14.0023  15.0083  15.4832  15.5038  16.2722  17.3706  17.4034

          k = 0.1667 0.3333 0.1144 ( 31619 PWs)   bands (ev):

   -66.3680 -66.3676 -66.3674 -66.3670 -30.7360 -30.7340 -30.6994 -30.6951
   -30.6774 -30.6770 -30.6605 -30.6604 -30.6575 -30.6568 -30.6256 -30.6230
   -20.5267 -20.5267 -20.5267 -20.5266 -20.5105 -20.5105 -20.5072 -20.5072
   -20.5069 -20.5068 -20.5063 -20.5060 -20.5053 -20.5050 -20.5048 -20.5045
   -20.5042 -20.5039 -20.5037 -20.5037 -20.5010 -20.4999 -20.4993 -20.4993
   -20.4984 -20.4984 -20.4976 -20.4967  -9.8519  -9.4815  -9.4578  -9.0165
    -8.7856  -8.7135  -8.6822  -8.6607  -8.0881  -8.0528  -8.0343  -8.0030
     1.2565   1.3347   1.3817   1.4827   2.4510   2.6859   2.7623   2.9042
     2.9915   3.2201   3.2698   3.6973   3.7916   3.8076   4.4219   4.5345
     4.7905   4.8076   4.8613   5.3041   5.5520   5.5627   5.5911   5.8309
     6.2465   6.3342   6.4203   6.5457   6.6982   6.7792   6.8786   7.5106
     7.5282   7.5626   7.5774   7.9874  10.0196  10.9075  10.9328  11.5226
    11.5439  12.2183  12.6649  12.6795  12.8458  12.8755  12.9775  13.7759
    14.2867  15.3993  15.4588  15.6558  16.3324  17.1631  17.4301

          k = 0.1667 0.3333 0.2287 ( 31622 PWs)   bands (ev):

   -66.3679 -66.3677 -66.3673 -66.3671 -30.7236 -30.7216 -30.6994 -30.6956
   -30.6882 -30.6879 -30.6616 -30.6611 -30.6581 -30.6573 -30.6251 -30.6235
   -20.5267 -20.5267 -20.5267 -20.5267 -20.5094 -20.5094 -20.5072 -20.5072
   -20.5070 -20.5067 -20.5066 -20.5060 -20.5059 -20.5055 -20.5050 -20.5049
   -20.5041 -20.5039 -20.5038 -20.5037 -20.5007 -20.5001 -20.4992 -20.4992
   -20.4986 -20.4986 -20.4974 -20.4969  -9.7327  -9.5247  -9.2527  -8.9185
    -8.8389  -8.7304  -8.6584  -8.6298  -8.3248  -8.2934  -8.0478  -8.0320
     1.3231   1.3334   2.0292   2.1394   2.6631   2.7675   2.8535   2.8771
     2.9554   3.2024   3.2631   3.3919   3.8954   3.9133   3.9510   4.1775
     4.5860   4.6701   4.7739   4.8418   4.8518   5.3826   5.5951   5.6535
     6.5201   6.6058   6.6788   6.7099   6.7812   6.8676   7.0357   7.4225
     7.4578   7.5066   7.5534   7.7647  10.4951  10.9081  10.9380  11.7058
    11.7497  11.8117  12.4701  12.5243  12.6813  12.7153  13.0769  13.5354
    14.8104  15.3715  16.0526  16.3325  16.6265  16.7795  17.4841

          k = 0.1667 0.3333-0.3431 ( 31634 PWs)   bands (ev):

   -66.3678 -66.3678 -66.3672 -66.3672 -30.7073 -30.7073 -30.7047 -30.7047
   -30.6958 -30.6958 -30.6616 -30.6616 -30.6579 -30.6579 -30.6243 -30.6243
   -20.5267 -20.5267 -20.5267 -20.5267 -20.5079 -20.5079 -20.5079 -20.5079
   -20.5072 -20.5071 -20.5066 -20.5066 -20.5059 -20.5059 -20.5050 -20.5050
   -20.5040 -20.5040 -20.5038 -20.5038 -20.5004 -20.5004 -20.4989 -20.4989
   -20.4989 -20.4989 -20.4972 -20.4972  -9.6086  -9.6085  -8.9974  -8.9972
    -8.7869  -8.7863  -8.5613  -8.5597  -8.5370  -8.5355  -8.0408  -8.0407
     1.3305   1.3308   2.7498   2.7513   2.8160   2.8176   2.9294   2.9403
     3.0736   3.0851   3.2387   3.2419   3.3118   3.3173   4.1862   4.1892
     4.2572   4.2574   4.7054   4.7509   5.0133   5.0563   5.6054   5.6078
     6.6194   6.6416   6.6737   6.6957   7.2016   7.2042   7.2217   7.2472
     7.2879   7.3027   7.5857   7.5914  10.8890  10.8990  11.1590  11.1762
    12.0620  12.0740  12.1221  12.1254  12.6754  12.7053  13.2644  13.2843
    15.1735  15.1816  16.4089  16.4155  17.2462  17.2743  17.3243

          k = 0.1667-0.5000 0.0000 ( 31626 PWs)   bands (ev):

   -66.3677 -66.3677 -66.3673 -66.3673 -30.7398 -30.7398 -30.6872 -30.6872
   -30.6804 -30.6804 -30.6681 -30.6681 -30.6392 -30.6392 -30.6368 -30.6368
   -20.5267 -20.5267 -20.5266 -20.5266 -20.5110 -20.5110 -20.5072 -20.5072
   -20.5072 -20.5072 -20.5057 -20.5057 -20.5054 -20.5054 -20.5043 -20.5043
   -20.5039 -20.5039 -20.5035 -20.5035 -20.5004 -20.5004 -20.4992 -20.4992
   -20.4984 -20.4984 -20.4973 -20.4973  -9.6970  -9.6970  -9.1659  -9.1659
    -8.9193  -8.9193  -8.3550  -8.3550  -8.3528  -8.3528  -7.9316  -7.9316
     1.1221   1.1221   2.0177   2.0177   2.0238   2.0238   2.5856   2.5856
     3.6251   3.6251   3.8558   3.8558   4.0227   4.0227   4.1280   4.1280
     4.6038   4.6038   4.9799   4.9799   5.4151   5.4151   5.7309   5.7309
     6.1569   6.1569   6.3926   6.3926   7.0690   7.0691   7.0785   7.0785
     7.1469   7.1469   7.9027   7.9027  10.5970  10.5970  11.8554  11.8554
    11.8818  11.8818  12.3116  12.3116  12.6138  12.6138  13.4736  13.4736
    14.5537  14.5537  16.3938  16.3938  16.6838  16.6838  17.4910

          k = 0.1667-0.5000 0.1144 ( 31624 PWs)   bands (ev):

   -66.3677 -66.3677 -66.3673 -66.3673 -30.7353 -30.7353 -30.6877 -30.6877
   -30.6806 -30.6806 -30.6719 -30.6719 -30.6392 -30.6392 -30.6370 -30.6370
   -20.5267 -20.5267 -20.5267 -20.5267 -20.5105 -20.5105 -20.5073 -20.5073
   -20.5072 -20.5072 -20.5058 -20.5058 -20.5054 -20.5054 -20.5046 -20.5046
   -20.5039 -20.5039 -20.5036 -20.5036 -20.5004 -20.5004 -20.4992 -20.4992
   -20.4984 -20.4984 -20.4974 -20.4974  -9.6356  -9.6356  -9.1781  -9.1781
    -8.8984  -8.8984  -8.3621  -8.3621  -8.3510  -8.3510  -8.0368  -8.0368
     1.3720   1.3720   2.0199   2.0199   2.0277   2.0277   2.6569   2.6569
     3.5693   3.5693   3.8951   3.8951   4.0436   4.0436   4.0859   4.0859
     4.6119   4.6120   4.7620   4.7620   5.0953   5.0953   5.6962   5.6962
     6.2254   6.2254   6.5757   6.5757   7.0595   7.0595   7.0810   7.0810
     7.1518   7.1518   7.8418   7.8418  10.7100  10.7100  11.8531  11.8532
    11.8810  11.8810  12.3577  12.3577  12.4645  12.4645  13.3572  13.3572
    14.9037  14.9037  16.4798  16.4798  16.6469  16.6469  17.5219

          k = 0.1667-0.5000 0.2287 ( 31632 PWs)   bands (ev):

   -66.3676 -66.3676 -66.3674 -66.3674 -30.7229 -30.7229 -30.6922 -30.6922
   -30.6810 -30.6810 -30.6792 -30.6792 -30.6389 -30.6389 -30.6375 -30.6375
   -20.5267 -20.5267 -20.5267 -20.5267 -20.5094 -20.5094 -20.5074 -20.5073
   -20.5071 -20.5071 -20.5062 -20.5062 -20.5054 -20.5054 -20.5051 -20.5051
   -20.5038 -20.5038 -20.5037 -20.5037 -20.5001 -20.5001 -20.4995 -20.4995
   -20.4982 -20.4982 -20.4976 -20.4976  -9.4806  -9.4806  -9.2215  -9.2215
    -8.8199  -8.8199  -8.4212  -8.4212  -8.3435  -8.3435  -8.2534  -8.2534
     1.9198   1.9198   2.0142   2.0142   2.1720   2.1720   2.8704   2.8704
     3.3553   3.3553   3.9379   3.9379   3.9715   3.9715   4.1821   4.1821
     4.2230   4.2230   4.6430   4.6431   4.7385   4.7385   5.1339   5.1339
     6.6677   6.6677   6.8448   6.8448   7.0270   7.0270   7.0778   7.0778
     7.1884   7.1884   7.6567   7.6567  11.0356  11.0356  11.8327  11.8327
    11.8777  11.8777  12.0885  12.0885  12.5028  12.5028  13.0723  13.0723
    15.6418  15.6418  16.4943  16.4943  16.7739  16.7739  17.4005

          k = 0.1667-0.5000-0.3431 ( 31652 PWs)   bands (ev):

   -66.3675 -66.3675 -66.3675 -66.3675 -30.7064 -30.7064 -30.7064 -30.7064
   -30.6813 -30.6813 -30.6813 -30.6813 -30.6383 -30.6383 -30.6382 -30.6382
   -20.5267 -20.5267 -20.5267 -20.5267 -20.5080 -20.5080 -20.5080 -20.5080
   -20.5070 -20.5070 -20.5070 -20.5070 -20.5053 -20.5053 -20.5053 -20.5053
   -20.5038 -20.5038 -20.5037 -20.5037 -20.4998 -20.4998 -20.4998 -20.4998
   -20.4979 -20.4979 -20.4979 -20.4979  -9.3189  -9.3189  -9.3188  -9.3188
    -8.6431  -8.6431  -8.6427  -8.6427  -8.3274  -8.3274  -8.3271  -8.3271
     2.0007   2.0007   2.0011   2.0011   2.9194   2.9194   2.9211   2.9211
     3.3048   3.3048   3.3124   3.3125   3.9572   3.9572   3.9836   3.9836
     4.4892   4.4892   4.5027   4.5027   4.7441   4.7441   4.7459   4.7459
     6.9315   6.9315   6.9382   6.9382   7.0201   7.0201   7.0400   7.0400
     7.3692   7.3692   7.3794   7.3794  11.4959  11.4959  11.5180  11.5180
    11.8727  11.8727  11.9132  11.9132  12.7444  12.7444  12.7610  12.7610
    16.1969  16.1969  16.2172  16.2172  17.1262  17.1262  17.1646

          k = 0.3333 0.3333 0.0000 ( 31612 PWs)   bands (ev):

   -66.3679 -66.3676 -66.3674 -66.3671 -30.7396 -30.7389 -30.7059 -30.7018
   -30.6881 -30.6815 -30.6707 -30.6666 -30.6382 -30.6357 -30.6194 -30.6162
   -20.5267 -20.5267 -20.5267 -20.5266 -20.5109 -20.5108 -20.5076 -20.5075
   -20.5075 -20.5073 -20.5061 -20.5061 -20.5054 -20.5054 -20.5043 -20.5041
   -20.5037 -20.5035 -20.5033 -20.5032 -20.5013 -20.5005 -20.4998 -20.4992
   -20.4984 -20.4975 -20.4972 -20.4963  -9.8759  -9.6403  -9.4902  -9.1236
    -9.0721  -8.9106  -8.3693  -8.3669  -7.9522  -7.9513  -7.9256  -7.9189
     1.0158   1.0773   1.1536   1.1994   2.0157   2.0173   2.2830   2.5878
     3.5827   3.6788   3.8527   3.9100   3.9875   4.5541   4.6509   4.7975
     4.8488   4.9928   5.2161   5.5294   5.5342   5.5838   5.8406   5.8755
     6.1643   6.1847   6.2594   6.2767   6.4827   6.6617   6.9720   7.0169
     7.0189   7.1221   7.8946   8.1131   9.5429  10.6060  11.5891  11.6170
    12.2917  12.3076  12.5501  12.5534  12.6313  13.1368  13.4755  13.7900
    14.0494  14.6027  15.1992  15.9714  16.7551  16.8869  17.5154

          k = 0.3333 0.3333 0.1144 ( 31616 PWs)   bands (ev):

   -66.3679 -66.3676 -66.3675 -66.3671 -30.7350 -30.7343 -30.7056 -30.7021
   -30.6885 -30.6817 -30.6752 -30.6707 -30.6382 -30.6359 -30.6192 -30.6164
   -20.5267 -20.5267 -20.5267 -20.5266 -20.5105 -20.5104 -20.5076 -20.5075
   -20.5075 -20.5073 -20.5061 -20.5061 -20.5054 -20.5054 -20.5047 -20.5045
   -20.5037 -20.5035 -20.5033 -20.5032 -20.5012 -20.5004 -20.4999 -20.4993
   -20.4983 -20.4975 -20.4972 -20.4964  -9.8297  -9.5775  -9.5013  -9.1342
    -9.0361  -8.8903  -8.3776  -8.3643  -8.0598  -8.0292  -7.9504  -7.9274
     1.0585   1.0773   1.3761   1.4466   2.0152   2.0240   2.3559   2.6618
     3.5761   3.6738   3.7428   3.7956   3.9774   4.5617   4.6992   4.7556
     4.8016   4.8171   4.9262   5.1642   5.7038   5.7152   5.8506   5.8764
     5.9073   6.2508   6.3055   6.4454   6.4884   6.7223   6.8983   7.0113
     7.0113   7.1200   7.8326   8.0252   9.7721  10.7224  11.5893  11.6158
    12.1419  12.3360  12.4453  12.5559  12.5828  13.1675  13.3595  13.9519
    14.0423  14.9432  15.1700  16.1270  16.7123  16.9768  17.6233

          k = 0.3333 0.3333 0.2287 ( 31645 PWs)   bands (ev):

   -66.3678 -66.3675 -66.3675 -66.3672 -30.7224 -30.7219 -30.7049 -30.7029
   -30.6920 -30.6878 -30.6821 -30.6793 -30.6378 -30.6365 -30.6186 -30.6170
   -20.5267 -20.5267 -20.5267 -20.5267 -20.5094 -20.5092 -20.5076 -20.5075
   -20.5075 -20.5072 -20.5062 -20.5061 -20.5058 -20.5058 -20.5053 -20.5053
   -20.5036 -20.5034 -20.5034 -20.5033 -20.5010 -20.5004 -20.5000 -20.4995
   -20.4981 -20.4976 -20.4971 -20.4966  -9.7196  -9.5380  -9.4202  -9.1724
    -8.9130  -8.8111  -8.4407  -8.3564  -8.3256  -8.2595  -7.9456  -7.9323
     1.0726   1.0769   1.9115   2.0087   2.1608   2.1709   2.5697   2.8852
     3.3270   3.4308   3.6326   3.6605   4.1571   4.1739   4.2169   4.5973
     4.6923   4.7634   4.7728   4.9468   5.1420   5.5514   5.8863   5.9078
     6.1027   6.2339   6.3881   6.6689   6.6815   6.8690   6.9183   6.9879
     7.0794   7.1306   7.6407   7.7687  10.3364  11.0539  11.5709  11.6127
    11.7058  12.0542  12.4798  12.5605  12.5704  13.0562  13.2858  13.7194
    14.5163  15.0716  15.6740  16.5265  16.5702  17.3127  17.3370

          k = 0.3333 0.3333-0.3431 ( 31648 PWs)   bands (ev):

   -66.3677 -66.3677 -66.3673 -66.3673 -30.7055 -30.7055 -30.7051 -30.7051
   -30.7039 -30.7039 -30.6822 -30.6822 -30.6372 -30.6372 -30.6178 -30.6178
   -20.5267 -20.5267 -20.5267 -20.5267 -20.5081 -20.5081 -20.5076 -20.5076
   -20.5075 -20.5075 -20.5068 -20.5068 -20.5061 -20.5060 -20.5053 -20.5053
   -20.5035 -20.5035 -20.5034 -20.5034 -20.5006 -20.5006 -20.4998 -20.4998
   -20.4979 -20.4979 -20.4969 -20.4969  -9.6098  -9.6098  -9.2617  -9.2617
    -8.6851  -8.6850  -8.6207  -8.6206  -8.3390  -8.3390  -7.9390  -7.9390
     1.0759   1.0759   1.9951   1.9951   2.9075   2.9075   2.9323   2.9323
     3.1519   3.1519   3.3427   3.3427   3.6430   3.6431   4.4549   4.4549
     4.7076   4.7076   4.7867   4.7867   5.2287   5.2287   5.8975   5.8975
     6.1933   6.1933   6.5166   6.5166   6.9133   6.9133   7.0265   7.0265
     7.3166   7.3166   7.3960   7.3960  11.0242  11.0242  11.5396  11.5396
    11.6103  11.6104  12.5642  12.5642  12.7336  12.7336  13.4700  13.4700
    14.8709  14.8709  16.2660  16.2660  16.9436  16.9436  17.7437

          k = 0.3333-0.5000 0.0000 ( 31620 PWs)   bands (ev):

   -66.3677 -66.3677 -66.3673 -66.3673 -30.7391 -30.7391 -30.7016 -30.7016
   -30.6968 -30.6968 -30.6689 -30.6689 -30.6240 -30.6240 -30.6209 -30.6209
   -20.5267 -20.5267 -20.5266 -20.5266 -20.5108 -20.5108 -20.5077 -20.5077
   -20.5077 -20.5077 -20.5058 -20.5058 -20.5057 -20.5057 -20.5042 -20.5042
   -20.5035 -20.5035 -20.5031 -20.5031 -20.5011 -20.5011 -20.4997 -20.4997
   -20.4976 -20.4976 -20.4965 -20.4965  -9.7803  -9.7803  -9.3761  -9.3761
    -9.0331  -9.0330  -8.0781  -8.0781  -8.0639  -8.0639  -7.9311  -7.9311
     1.1112   1.1112   1.3317   1.3317   1.3814   1.3814   2.3603   2.3603
     3.9933   3.9933   4.2548   4.2548   4.2943   4.2943   4.4268   4.4268
     5.3132   5.3132   5.4475   5.4475   5.5150   5.5150   5.6060   5.6060
     6.3512   6.3512   6.4307   6.4307   6.4729   6.4729   6.5945   6.5945
     6.8820   6.8820   8.0593   8.0593   9.8778   9.8778  12.1901  12.1901
    12.2104  12.2104  12.3832  12.3832  12.9053  12.9053  13.8797  13.8797
    14.0680  14.0680  15.6928  15.6928  16.6635  16.6635  17.4629

          k = 0.3333-0.5000 0.1144 ( 31654 PWs)   bands (ev):

   -66.3677 -66.3677 -66.3673 -66.3673 -30.7345 -30.7345 -30.7014 -30.7014
   -30.6970 -30.6970 -30.6735 -30.6735 -30.6238 -30.6238 -30.6211 -30.6211
   -20.5267 -20.5267 -20.5266 -20.5266 -20.5104 -20.5104 -20.5077 -20.5077
   -20.5076 -20.5076 -20.5058 -20.5057 -20.5057 -20.5057 -20.5046 -20.5046
   -20.5035 -20.5035 -20.5031 -20.5031 -20.5010 -20.5010 -20.4998 -20.4998
   -20.4976 -20.4976 -20.4966 -20.4966  -9.7299  -9.7299  -9.3865  -9.3865
    -9.0004  -9.0004  -8.0928  -8.0927  -8.0761  -8.0761  -8.0174  -8.0174
     1.2642   1.2642   1.3313   1.3313   1.4889   1.4889   2.4352   2.4352
     3.8072   3.8072   4.2537   4.2537   4.2741   4.2741   4.4789   4.4789
     5.0200   5.0200   5.4126   5.4126   5.4522   5.4522   5.7950   5.7950
     6.1585   6.1585   6.4663   6.4663   6.5882   6.5882   6.6303   6.6303
     6.8448   6.8449   7.9774   7.9774  10.0600  10.0600  12.1780  12.1780
    12.2045  12.2045  12.2387  12.2387  12.9400  12.9400  13.7759  13.7759
    14.3482  14.3482  15.6598  15.6598  16.8030  16.8030  17.5314

          k = 0.3333-0.5000 0.2287 ( 31658 PWs)   bands (ev):

   -66.3676 -66.3676 -66.3674 -66.3674 -30.7221 -30.7221 -30.7011 -30.7011
   -30.6976 -30.6976 -30.6858 -30.6858 -30.6233 -30.6233 -30.6217 -30.6217
   -20.5267 -20.5267 -20.5267 -20.5267 -20.5093 -20.5093 -20.5078 -20.5078
   -20.5076 -20.5076 -20.5059 -20.5059 -20.5057 -20.5057 -20.5056 -20.5056
   -20.5034 -20.5034 -20.5032 -20.5032 -20.5008 -20.5008 -20.5001 -20.5001
   -20.4974 -20.4974 -20.4968 -20.4968  -9.6100  -9.6100  -9.4216  -9.4216
    -8.8843  -8.8843  -8.3406  -8.3406  -8.0710  -8.0710  -8.0541  -8.0541
     1.3200   1.3200   1.3302   1.3302   2.1379   2.1379   2.6613   2.6613
     3.3838   3.3838   4.2148   4.2148   4.2540   4.2540   4.2766   4.2766
     4.6594   4.6594   5.2656   5.2656   5.4663   5.4663   5.6175   5.6175
     6.2859   6.2859   6.4462   6.4462   6.6576   6.6576   6.7818   6.7818
     6.9242   6.9242   7.7337   7.7337  10.5395  10.5395  11.7716  11.7716
    12.1981  12.1981  12.2093  12.2093  13.0533  13.0533  13.5265  13.5265
    14.8978  14.8978  15.5489  15.5489  17.1699  17.1699  17.7152

          k = 0.3333-0.5000-0.3431 ( 31664 PWs)   bands (ev):

   -66.3675 -66.3675 -66.3675 -66.3675 -30.7062 -30.7061 -30.7061 -30.7061
   -30.6972 -30.6972 -30.6972 -30.6972 -30.6225 -30.6225 -30.6225 -30.6225
   -20.5267 -20.5267 -20.5267 -20.5267 -20.5080 -20.5080 -20.5080 -20.5080
   -20.5072 -20.5072 -20.5072 -20.5072 -20.5057 -20.5057 -20.5057 -20.5057
   -20.5033 -20.5033 -20.5033 -20.5033 -20.5004 -20.5004 -20.5004 -20.5004
   -20.4971 -20.4971 -20.4971 -20.4971  -9.4935  -9.4935  -9.4935  -9.4935
    -8.6527  -8.6527  -8.6527  -8.6526  -8.0635  -8.0635  -8.0635  -8.0635
     1.3276   1.3276   1.3277   1.3277   2.9193   2.9193   2.9207   2.9207
     3.2095   3.2095   3.2106   3.2106   4.2569   4.2570   4.2680   4.2680
     4.9487   4.9487   4.9592   4.9592   5.4982   5.4982   5.5026   5.5026
     6.3972   6.3972   6.4009   6.4009   6.7242   6.7242   6.7264   6.7264
     7.3491   7.3491   7.3517   7.3517  11.1640  11.1640  11.1656  11.1656
    12.1996  12.1996  12.2070  12.2070  13.2538  13.2538  13.2589  13.2589
    15.3157  15.3157  15.3201  15.3201  17.4826  17.4843  17.4944

          k =-0.5000-0.5000 0.0000 ( 31608 PWs)   bands (ev):

   -66.3677 -66.3677 -66.3673 -66.3673 -30.7386 -30.7386 -30.7071 -30.7071
   -30.7030 -30.7030 -30.6690 -30.6690 -30.6183 -30.6183 -30.6151 -30.6151
   -20.5267 -20.5267 -20.5266 -20.5266 -20.5107 -20.5107 -20.5079 -20.5079
   -20.5079 -20.5079 -20.5058 -20.5058 -20.5057 -20.5057 -20.5041 -20.5041
   -20.5034 -20.5034 -20.5029 -20.5029 -20.5014 -20.5014 -20.4999 -20.4999
   -20.4973 -20.4973 -20.4962 -20.4962  -9.8206  -9.8205  -9.4528  -9.4528
    -9.0642  -9.0642  -7.9661  -7.9661  -7.9387  -7.9387  -7.9379  -7.9379
     1.0286   1.0286   1.0743   1.0743   1.2175   1.2175   2.2715   2.2715
     4.0823   4.0823   4.4700   4.4700   4.5292   4.5292   4.6380   4.6380
     5.3458   5.3458   5.3619   5.3619   5.7917   5.7917   5.8080   5.8080
     6.1331   6.1331   6.2351   6.2351   6.3051   6.3051   6.4856   6.4856
     7.0128   7.0128   8.1095   8.1095   9.5667   9.5667  12.3069  12.3069
    12.3330  12.3330  12.3540  12.3540  13.1333  13.1333  13.8109  13.8109
    14.0505  14.0505  15.2763  15.2763  16.8161  16.8161  17.5099

          k =-0.5000-0.5000 0.1144 ( 31588 PWs)   bands (ev):

   -66.3677 -66.3677 -66.3673 -66.3673 -30.7340 -30.7340 -30.7068 -30.7068
   -30.7033 -30.7033 -30.6737 -30.6737 -30.6181 -30.6181 -30.6153 -30.6153
   -20.5267 -20.5267 -20.5266 -20.5266 -20.5103 -20.5103 -20.5079 -20.5079
   -20.5079 -20.5079 -20.5058 -20.5058 -20.5057 -20.5057 -20.5045 -20.5045
   -20.5033 -20.5033 -20.5029 -20.5029 -20.5013 -20.5013 -20.5000 -20.5000
   -20.4973 -20.4973 -20.4963 -20.4963  -9.7744  -9.7744  -9.4628  -9.4628
    -9.0272  -9.0272  -8.0516  -8.0516  -7.9643  -7.9643  -7.9406  -7.9406
     1.0586   1.0586   1.0743   1.0743   1.4503   1.4503   2.3456   2.3456
     3.8282   3.8282   4.4740   4.4740   4.5250   4.5250   4.7029   4.7029
     5.0444   5.0444   5.5025   5.5025   5.7941   5.7941   5.8109   5.8109
     6.1147   6.1147   6.1540   6.1540   6.3329   6.3329   6.5760   6.5760
     6.8983   6.8983   8.0207   8.0207   9.7948   9.7948  12.1407  12.1407
    12.3356  12.3356  12.3529  12.3529  13.1657  13.1657  13.9511  13.9511
    14.0639  14.0639  15.2458  15.2458  17.0124  17.0124  17.5444

          k =-0.5000-0.5000 0.2287 ( 31688 PWs)   bands (ev):

   -66.3676 -66.3676 -66.3674 -66.3674 -30.7213 -30.7213 -30.7061 -30.7061
   -30.7040 -30.7040 -30.6866 -30.6866 -30.6175 -30.6175 -30.6159 -30.6159
   -20.5267 -20.5267 -20.5267 -20.5267 -20.5091 -20.5091 -20.5079 -20.5079
   -20.5079 -20.5079 -20.5058 -20.5058 -20.5058 -20.5058 -20.5057 -20.5057
   -20.5032 -20.5032 -20.5030 -20.5030 -20.5010 -20.5010 -20.5003 -20.5003
   -20.4971 -20.4971 -20.4965 -20.4965  -9.6663  -9.6663  -9.4960  -9.4960
    -8.8988  -8.8988  -8.3333  -8.3333  -7.9594  -7.9594  -7.9457  -7.9457
     1.0704   1.0704   1.0741   1.0741   2.1571   2.1571   2.5636   2.5636
     3.3581   3.3581   4.2202   4.2202   4.4848   4.4848   4.5152   4.5152
     4.8901   4.8901   5.4580   5.4580   5.8184   5.8184   5.8364   5.8364
     6.0411   6.0411   6.1125   6.1125   6.4131   6.4131   6.7022   6.7022
     6.8984   6.8984   7.7591   7.7591  10.3563  10.3563  11.6842  11.6842
    12.3406  12.3406  12.3500  12.3500  13.2708  13.2708  13.7139  13.7139
    14.5538  14.5538  15.1429  15.1429  17.6263  17.6264  17.6417

          k =-0.5000-0.5000-0.3431 ( 31648 PWs)   bands (ev):

   -66.3675 -66.3675 -66.3675 -66.3675 -30.7051 -30.7051 -30.7050 -30.7050
   -30.7040 -30.7040 -30.7040 -30.7040 -30.6167 -30.6167 -30.6167 -30.6167
   -20.5267 -20.5267 -20.5267 -20.5267 -20.5079 -20.5079 -20.5079 -20.5079
   -20.5075 -20.5075 -20.5075 -20.5075 -20.5058 -20.5057 -20.5057 -20.5057
   -20.5031 -20.5031 -20.5031 -20.5031 -20.5007 -20.5007 -20.5006 -20.5006
   -20.4968 -20.4968 -20.4968 -20.4968  -9.5620  -9.5620  -9.5620  -9.5620
    -8.6542  -8.6542  -8.6542  -8.6542  -7.9525  -7.9525  -7.9525  -7.9525
     1.0732   1.0732   1.0732   1.0732   2.9114   2.9114   2.9114   2.9114
     3.1585   3.1585   3.1585   3.1585   4.4997   4.4997   4.4997   4.4997
     5.1707   5.1707   5.1707   5.1707   5.8316   5.8316   5.8316   5.8316
     6.0755   6.0755   6.0755   6.0755   6.5378   6.5378   6.5378   6.5378
     7.3540   7.3540   7.3540   7.3540  11.0429  11.0429  11.0429  11.0429
    12.3456  12.3456  12.3456  12.3456  13.4598  13.4598  13.4598  13.4598
    14.9309  14.9309  14.9309  14.9309  17.7865  17.7865  17.7865

     the Fermi energy is     9.4518 ev

!    total energy              =   -3130.40145257 Ry
     Harris-Foulkes estimate   =   -3130.40145257 Ry
     estimated scf accuracy    <          1.5E-09 Ry

     The total energy is the sum of the following terms:

     one-electron contribution =   -2397.27062808 Ry
     hartree contribution      =    1315.84462181 Ry
     xc contribution           =    -483.05600497 Ry
     ewald contribution        =   -1565.91940117 Ry
     smearing contrib. (-TS)   =      -0.00004017 Ry

     convergence has been achieved in  12 iterations

     Writing output data file Landau_23.save/
 
     init_run     :      4.73s CPU      5.03s WALL (       1 calls)
     electrons    :    159.44s CPU    161.72s WALL (       1 calls)

     Called by init_run:
     wfcinit      :      3.80s CPU      4.01s WALL (       1 calls)
     potinit      :      0.35s CPU      0.37s WALL (       1 calls)
     hinit0       :      0.48s CPU      0.52s WALL (       1 calls)

     Called by electrons:
     c_bands      :    134.47s CPU    136.43s WALL (      12 calls)
     sum_band     :     22.08s CPU     22.17s WALL (      12 calls)
     v_of_rho     :      0.94s CPU      0.95s WALL (      13 calls)
     mix_rho      :      1.51s CPU      1.65s WALL (      12 calls)

     Called by c_bands:
     init_us_2    :      1.40s CPU      1.50s WALL (      25 calls)
     cegterg      :    109.30s CPU    111.24s WALL (      12 calls)

     Called by sum_band:

     Called by *egterg:
     h_psi        :     93.44s CPU     94.33s WALL (      47 calls)
     g_psi        :      0.45s CPU      0.45s WALL (      34 calls)
     cdiaghg      :      1.04s CPU      1.07s WALL (      46 calls)

     Called by h_psi:
     h_psi:pot    :     93.12s CPU     93.35s WALL (      47 calls)
     h_psi:calbec :      6.73s CPU      6.86s WALL (      47 calls)
     vloc_psi     :     78.77s CPU     78.87s WALL (      47 calls)
     add_vuspsi   :      7.62s CPU      7.63s WALL (      47 calls)

     General routines
     calbec       :      6.73s CPU      6.85s WALL (      47 calls)
     fft          :      0.36s CPU      0.37s WALL (      39 calls)
     ffts         :      0.12s CPU      0.12s WALL (      12 calls)
     fftw         :     79.76s CPU     79.80s WALL (    7904 calls)
 
     Parallel routines
 
     PWSCF        :   2m44.94s CPU   2m47.91s WALL

 
   This run was terminated on:  15:42:21  21Nov2019            

=------------------------------------------------------------------------------=
   JOB DONE.
=------------------------------------------------------------------------------=
