
     Program PWSCF v.6.4.1 starts on 16Dec2019 at 18:11:57 

     This program is part of the open-source Quantum ESPRESSO suite
     for quantum simulation of materials; please cite
         "P. Giannozzi et al., J. Phys.:Condens. Matter 21 395502 (2009);
         "P. Giannozzi et al., J. Phys.:Condens. Matter 29 465901 (2017);
          URL http://www.quantum-espresso.org", 
     in publications or presentations arising from this work. More details at
     http://www.quantum-espresso.org/quote

     Parallel version (MPI), running on    40 processors

     MPI processes distributed on     9 nodes
     K-points division:     npool     =      40
     Reading input from scf.in

     Current dimensions of program PWSCF are:
     Max number of different atomic species (ntypx) = 10
     Max number of k-points (npk) =  40000
     Max angular momentum in pseudopotentials (lmaxx) =  3

     Subspace diagonalization in iterative solution of the eigenvalue problem:
     a serial algorithm will be used

     Message from routine setup:
     using ibrav=0 with symmetry is DISCOURAGED, use correct ibrav instead
 
     G-vector sticks info
     --------------------
     sticks:   dense  smooth     PW     G-vecs:    dense   smooth      PW
     Sum        7757    7757   2083               504565   504565   69917
 


     bravais-lattice index     =            0
     lattice parameter (alat)  =      13.9930  a.u.
     unit-cell volume          =    2841.3769 (a.u.)^3
     number of atoms/cell      =           32
     number of atomic types    =            2
     number of electrons       =       368.50
     number of Kohn-Sham states=          221
     kinetic-energy cutoff     =     120.0000  Ry
     charge density cutoff     =     480.0000  Ry
     convergence threshold     =      1.0E-08
     mixing beta               =       0.7000
     number of iterations used =            8  plain     mixing
     Exchange-correlation      = SLA PW NOGX NOGC ( 1  4  0  0 0 0)

     celldm(1)=  13.993030  celldm(2)=   0.000000  celldm(3)=   0.000000
     celldm(4)=   0.000000  celldm(5)=   0.000000  celldm(6)=   0.000000

     crystal axes: (cart. coord. in units of alat)
               a(1) = (   1.000000   0.000000   0.000000 )  
               a(2) = (   0.000000   1.036754   0.000000 )  
               a(3) = (   0.000000   0.000000   1.000271 )  

     reciprocal axes: (cart. coord. in units 2 pi/alat)
               b(1) = (  1.000000  0.000000  0.000000 )  
               b(2) = (  0.000000  0.964549  0.000000 )  
               b(3) = (  0.000000  0.000000  0.999729 )  


     PseudoPot. # 1 for W  read from file:
     /cluster/scratch/mnoe/QE/pps/W_ONCV_LDA-4.0.upf
     MD5 check sum: ba0307d5d4cd419d6f1d13dc49d7c13a
     Pseudo is Norm-conserving + core correction, Zval = 28.0
     Generated using ONCVPSP code by D. R. Hamann
     Using radial grid of 1380 points,  8 beta functions with: 
                l(1) =   0
                l(2) =   0
                l(3) =   1
                l(4) =   1
                l(5) =   2
                l(6) =   2
                l(7) =   3
                l(8) =   3

     PseudoPot. # 2 for O  read from file:
     /cluster/scratch/mnoe/QE/pps/O_ONCV_LDA-3.0.upf
     MD5 check sum: b55cdb4f45ae2203d24ad12cf8d61a31
     Pseudo is Norm-conserving + core correction, Zval =  6.0
     Generated using ONCVPSP code by D. R. Hamann
     Using radial grid of  926 points,  5 beta functions with: 
                l(1) =   0
                l(2) =   0
                l(3) =   1
                l(4) =   1
                l(5) =   2

     atomic species   valence    mass     pseudopotential
        W             28.00   183.84000     W ( 1.00)
        O              6.00    15.99940     O ( 1.00)

      8 Sym. Ops., with inversion, found ( 6 have fractional translation)



   Cartesian axes

     site n.     atom                  positions (alat units)
         1           W   tau(   1) = (   0.2439900   0.2967966   0.0056815  )
         2           W   tau(   2) = (   0.7560100   0.7399576   0.9945897  )
         3           W   tau(   3) = (   0.2560100   0.2215805   0.5058172  )
         4           W   tau(   4) = (   0.7439900   0.8151737   0.4944541  )
         5           W   tau(   5) = (   0.7560100   0.2967966   0.4944541  )
         6           W   tau(   6) = (   0.2439900   0.7399576   0.5058172  )
         7           W   tau(   7) = (   0.7439900   0.2215805   0.9945897  )
         8           W   tau(   8) = (   0.2560100   0.8151737   0.0056815  )
         9           O   tau(   9) = (   0.2389100   0.0172866   0.0017705  )
        10           O   tau(  10) = (   0.7610900   1.0194676   0.9985008  )
        11           O   tau(  11) = (   0.2610900   0.5010905   0.5019061  )
        12           O   tau(  12) = (   0.7389100   0.5356637   0.4983651  )
        13           O   tau(  13) = (   0.7610900   0.0172866   0.4983651  )
        14           O   tau(  14) = (   0.2389100   1.0194676   0.5019061  )
        15           O   tau(  15) = (   0.7389100   0.5010905   0.9985008  )
        16           O   tau(  16) = (   0.2610900   0.5356637   0.0017705  )
        17           O   tau(  17) = (   0.5016400   0.2473903   0.4724870  )
        18           O   tau(  18) = (   0.4983600   0.7893639   0.5277842  )
        19           O   tau(  19) = (   0.9983600   0.2709868   0.9726227  )
        20           O   tau(  20) = (   0.0016401   0.7657674   0.0276486  )
        21           O   tau(  21) = (   0.4983600   0.2473903   0.0276486  )
        22           O   tau(  22) = (   0.5016400   0.7893639   0.9726227  )
        23           O   tau(  23) = (   0.0016401   0.2709868   0.5277842  )
        24           O   tau(  24) = (   0.9983600   0.7657674   0.4724870  )
        25           O   tau(  25) = (   0.7223590   0.2566174   0.7477128  )
        26           O   tau(  26) = (   0.2776411   0.7801368   0.2525585  )
        27           O   tau(  27) = (   0.7776411   0.2617597   0.2475771  )
        28           O   tau(  28) = (   0.2223589   0.7749945   0.7526941  )
        29           O   tau(  29) = (   0.2776411   0.2566174   0.7526941  )
        30           O   tau(  30) = (   0.7223590   0.7801368   0.2475771  )
        31           O   tau(  31) = (   0.2223589   0.2617597   0.2525585  )
        32           O   tau(  32) = (   0.7776411   0.7749945   0.7477128  )

     number of k points=    64  gaussian smearing, width (Ry)=  0.0007
                       cart. coord. in units 2pi/alat
        k(    1) = (   0.0000000   0.0000000   0.0000000), wk =   0.0092593
        k(    2) = (   0.0000000   0.0000000   0.1666215), wk =   0.0185185
        k(    3) = (   0.0000000   0.0000000   0.3332429), wk =   0.0185185
        k(    4) = (   0.0000000   0.0000000  -0.4998644), wk =   0.0092593
        k(    5) = (   0.0000000   0.1607581   0.0000000), wk =   0.0185185
        k(    6) = (   0.0000000   0.1607581   0.1666215), wk =   0.0370370
        k(    7) = (   0.0000000   0.1607581   0.3332429), wk =   0.0370370
        k(    8) = (   0.0000000   0.1607581  -0.4998644), wk =   0.0185185
        k(    9) = (   0.0000000   0.3215163   0.0000000), wk =   0.0185185
        k(   10) = (   0.0000000   0.3215163   0.1666215), wk =   0.0370370
        k(   11) = (   0.0000000   0.3215163   0.3332429), wk =   0.0370370
        k(   12) = (   0.0000000   0.3215163  -0.4998644), wk =   0.0185185
        k(   13) = (   0.0000000  -0.4822744   0.0000000), wk =   0.0092593
        k(   14) = (   0.0000000  -0.4822744   0.1666215), wk =   0.0185185
        k(   15) = (   0.0000000  -0.4822744   0.3332429), wk =   0.0185185
        k(   16) = (   0.0000000  -0.4822744  -0.4998644), wk =   0.0092593
        k(   17) = (   0.1666667   0.0000000   0.0000000), wk =   0.0185185
        k(   18) = (   0.1666667   0.0000000   0.1666215), wk =   0.0370370
        k(   19) = (   0.1666667   0.0000000   0.3332429), wk =   0.0370370
        k(   20) = (   0.1666667   0.0000000  -0.4998644), wk =   0.0185185
        k(   21) = (   0.1666667   0.1607581   0.0000000), wk =   0.0370370
        k(   22) = (   0.1666667   0.1607581   0.1666215), wk =   0.0740741
        k(   23) = (   0.1666667   0.1607581   0.3332429), wk =   0.0740741
        k(   24) = (   0.1666667   0.1607581  -0.4998644), wk =   0.0370370
        k(   25) = (   0.1666667   0.3215163   0.0000000), wk =   0.0370370
        k(   26) = (   0.1666667   0.3215163   0.1666215), wk =   0.0740741
        k(   27) = (   0.1666667   0.3215163   0.3332429), wk =   0.0740741
        k(   28) = (   0.1666667   0.3215163  -0.4998644), wk =   0.0370370
        k(   29) = (   0.1666667  -0.4822744   0.0000000), wk =   0.0185185
        k(   30) = (   0.1666667  -0.4822744   0.1666215), wk =   0.0370370
        k(   31) = (   0.1666667  -0.4822744   0.3332429), wk =   0.0370370
        k(   32) = (   0.1666667  -0.4822744  -0.4998644), wk =   0.0185185
        k(   33) = (   0.3333333   0.0000000   0.0000000), wk =   0.0185185
        k(   34) = (   0.3333333   0.0000000   0.1666215), wk =   0.0370370
        k(   35) = (   0.3333333   0.0000000   0.3332429), wk =   0.0370370
        k(   36) = (   0.3333333   0.0000000  -0.4998644), wk =   0.0185185
        k(   37) = (   0.3333333   0.1607581   0.0000000), wk =   0.0370370
        k(   38) = (   0.3333333   0.1607581   0.1666215), wk =   0.0740741
        k(   39) = (   0.3333333   0.1607581   0.3332429), wk =   0.0740741
        k(   40) = (   0.3333333   0.1607581  -0.4998644), wk =   0.0370370
        k(   41) = (   0.3333333   0.3215163   0.0000000), wk =   0.0370370
        k(   42) = (   0.3333333   0.3215163   0.1666215), wk =   0.0740741
        k(   43) = (   0.3333333   0.3215163   0.3332429), wk =   0.0740741
        k(   44) = (   0.3333333   0.3215163  -0.4998644), wk =   0.0370370
        k(   45) = (   0.3333333  -0.4822744   0.0000000), wk =   0.0185185
        k(   46) = (   0.3333333  -0.4822744   0.1666215), wk =   0.0370370
        k(   47) = (   0.3333333  -0.4822744   0.3332429), wk =   0.0370370
        k(   48) = (   0.3333333  -0.4822744  -0.4998644), wk =   0.0185185
        k(   49) = (  -0.5000000   0.0000000   0.0000000), wk =   0.0092593
        k(   50) = (  -0.5000000   0.0000000   0.1666215), wk =   0.0185185
        k(   51) = (  -0.5000000   0.0000000   0.3332429), wk =   0.0185185
        k(   52) = (  -0.5000000   0.0000000  -0.4998644), wk =   0.0092593
        k(   53) = (  -0.5000000   0.1607581   0.0000000), wk =   0.0185185
        k(   54) = (  -0.5000000   0.1607581   0.1666215), wk =   0.0370370
        k(   55) = (  -0.5000000   0.1607581   0.3332429), wk =   0.0370370
        k(   56) = (  -0.5000000   0.1607581  -0.4998644), wk =   0.0185185
        k(   57) = (  -0.5000000   0.3215163   0.0000000), wk =   0.0185185
        k(   58) = (  -0.5000000   0.3215163   0.1666215), wk =   0.0370370
        k(   59) = (  -0.5000000   0.3215163   0.3332429), wk =   0.0370370
        k(   60) = (  -0.5000000   0.3215163  -0.4998644), wk =   0.0185185
        k(   61) = (  -0.5000000  -0.4822744   0.0000000), wk =   0.0092593
        k(   62) = (  -0.5000000  -0.4822744   0.1666215), wk =   0.0185185
        k(   63) = (  -0.5000000  -0.4822744   0.3332429), wk =   0.0185185
        k(   64) = (  -0.5000000  -0.4822744  -0.4998644), wk =   0.0092593

     Dense  grid:   504565 G-vectors     FFT dimensions: ( 100, 108, 100)

     Estimated max dynamical RAM per process >       3.17 GB

     Estimated total dynamical RAM >     126.65 GB

     Initial potential from superposition of free atoms

     starting charge  367.99656, renormalised to  368.50000
     Starting wfcs are  232 randomized atomic wfcs

     total cpu time spent up to now is       50.8 secs

     Self-consistent Calculation

     iteration #  1     ecut=   120.00 Ry     beta= 0.70
     Davidson diagonalization with overlap
     ethr =  1.00E-02,  avg # of iterations =  5.2

     total cpu time spent up to now is      225.9 secs

     total energy              =   -6253.46297414 Ry
     Harris-Foulkes estimate   =   -6264.34544328 Ry
     estimated scf accuracy    <      13.71805392 Ry

     iteration #  2     ecut=   120.00 Ry     beta= 0.70
     Davidson diagonalization with overlap
     ethr =  3.72E-03,  avg # of iterations =  3.6

     total cpu time spent up to now is      396.7 secs

     total energy              =   -6250.40938219 Ry
     Harris-Foulkes estimate   =   -6270.49023780 Ry
     estimated scf accuracy    <      53.53862791 Ry

     iteration #  3     ecut=   120.00 Ry     beta= 0.70
     Davidson diagonalization with overlap
     ethr =  3.72E-03,  avg # of iterations =  3.5

     total cpu time spent up to now is      551.2 secs

     total energy              =   -6260.73860569 Ry
     Harris-Foulkes estimate   =   -6261.00579950 Ry
     estimated scf accuracy    <       0.89924635 Ry

     iteration #  4     ecut=   120.00 Ry     beta= 0.70
     Davidson diagonalization with overlap
     ethr =  2.44E-04,  avg # of iterations =  3.3

     total cpu time spent up to now is      679.9 secs

     total energy              =   -6260.71695251 Ry
     Harris-Foulkes estimate   =   -6260.79878295 Ry
     estimated scf accuracy    <       0.22146780 Ry

     iteration #  5     ecut=   120.00 Ry     beta= 0.70
     Davidson diagonalization with overlap
     ethr =  6.01E-05,  avg # of iterations =  4.5

     total cpu time spent up to now is      819.5 secs

     total energy              =   -6260.73580848 Ry
     Harris-Foulkes estimate   =   -6260.75845232 Ry
     estimated scf accuracy    <       0.05424843 Ry

     iteration #  6     ecut=   120.00 Ry     beta= 0.70
     Davidson diagonalization with overlap
     ethr =  1.47E-05,  avg # of iterations =  5.7

     total cpu time spent up to now is      969.2 secs

     total energy              =   -6260.74586709 Ry
     Harris-Foulkes estimate   =   -6260.74914071 Ry
     estimated scf accuracy    <       0.00820799 Ry

     iteration #  7     ecut=   120.00 Ry     beta= 0.70
     Davidson diagonalization with overlap
     ethr =  2.23E-06,  avg # of iterations =  5.7

     total cpu time spent up to now is     1107.0 secs

     total energy              =   -6260.74712282 Ry
     Harris-Foulkes estimate   =   -6260.74715852 Ry
     estimated scf accuracy    <       0.00005754 Ry

     iteration #  8     ecut=   120.00 Ry     beta= 0.70
     Davidson diagonalization with overlap
     ethr =  1.56E-08,  avg # of iterations =  4.0

     total cpu time spent up to now is     1290.9 secs

     total energy              =   -6260.74716654 Ry
     Harris-Foulkes estimate   =   -6260.74717754 Ry
     estimated scf accuracy    <       0.00005645 Ry

     iteration #  9     ecut=   120.00 Ry     beta= 0.70
     Davidson diagonalization with overlap
     ethr =  1.53E-08,  avg # of iterations =  1.9

     total cpu time spent up to now is     1407.3 secs

     total energy              =   -6260.74716337 Ry
     Harris-Foulkes estimate   =   -6260.74717039 Ry
     estimated scf accuracy    <       0.00002971 Ry

     iteration # 10     ecut=   120.00 Ry     beta= 0.70
     Davidson diagonalization with overlap
     ethr =  8.06E-09,  avg # of iterations =  1.7

     total cpu time spent up to now is     1523.0 secs

     total energy              =   -6260.74716163 Ry
     Harris-Foulkes estimate   =   -6260.74716541 Ry
     estimated scf accuracy    <       0.00000872 Ry

     iteration # 11     ecut=   120.00 Ry     beta= 0.70
     Davidson diagonalization with overlap
     ethr =  2.37E-09,  avg # of iterations =  3.0

     total cpu time spent up to now is     1652.0 secs

     total energy              =   -6260.74716356 Ry
     Harris-Foulkes estimate   =   -6260.74716368 Ry
     estimated scf accuracy    <       0.00000031 Ry

     iteration # 12     ecut=   120.00 Ry     beta= 0.70
     Davidson diagonalization with overlap
     ethr =  8.32E-11,  avg # of iterations =  2.0

     total cpu time spent up to now is     1791.6 secs

     total energy              =   -6260.74716356 Ry
     Harris-Foulkes estimate   =   -6260.74716360 Ry
     estimated scf accuracy    <       0.00000007 Ry

     iteration # 13     ecut=   120.00 Ry     beta= 0.70
     Davidson diagonalization with overlap
     ethr =  1.83E-11,  avg # of iterations =  3.0

     total cpu time spent up to now is     1946.6 secs

     End of self-consistent calculation

          k = 0.0000 0.0000 0.0000 ( 63095 PWs)   bands (ev):

   -66.2710 -66.2705 -66.2702 -66.2702 -66.2698 -66.2698 -66.2695 -66.2690
   -30.6779 -30.6747 -30.6740 -30.6710 -30.6229 -30.6177 -30.6146 -30.6135
   -30.6133 -30.6072 -30.6063 -30.6059 -30.6033 -30.6006 -30.5942 -30.5939
   -30.5239 -30.5226 -30.5208 -30.5205 -30.5201 -30.5199 -30.5150 -30.5144
   -20.4237 -20.4237 -20.4236 -20.4236 -20.4235 -20.4235 -20.4235 -20.4235
   -20.4168 -20.4167 -20.4166 -20.4165 -20.4112 -20.4111 -20.4108 -20.4107
   -20.4094 -20.4093 -20.4083 -20.4082 -20.4081 -20.4080 -20.4074 -20.4072
   -20.4067 -20.4066 -20.4057 -20.4057 -20.4046 -20.4045 -20.4038 -20.4036
   -20.4015 -20.4012 -20.4012 -20.4010 -20.3994 -20.3990 -20.3988 -20.3986
   -20.3883 -20.3882 -20.3867 -20.3867 -20.3864 -20.3863 -20.3849 -20.3849
   -20.3829 -20.3828 -20.3819 -20.3819 -20.3815 -20.3815 -20.3804 -20.3804
   -10.1199  -9.7707  -9.7340  -9.7335  -9.4007  -9.3948  -9.3225  -9.1419
    -9.1210  -9.0344  -9.0237  -9.0222  -8.0073  -7.9383  -7.9314  -7.9147
    -7.9083  -7.8892  -7.8828  -7.8758  -7.8378  -7.8349  -7.8158  -7.8099
     1.0196   1.0207   1.1080   1.1148   1.1172   1.1390   1.1548   1.3415
     1.3415   1.3519   1.3807   1.5351   2.3471   2.3544   2.3677   2.4428
     2.4525   2.4554   3.9876   4.0043   4.1788   4.2062   4.5569   4.5591
     4.5953   4.6043   4.6244   4.6650   4.7332   4.7359   4.9361   5.3406
     5.3552   5.3748   5.3912   5.4535   5.4585   5.4601   5.4937   5.6680
     5.6938   5.7465   5.7487   5.7916   5.8270   5.8945   5.9241   6.0559
     6.0775   6.1875   6.2269   6.3421   6.3430   6.5518   6.5742   6.5821
     6.5960   6.6961   6.9430   6.9505   6.9687   6.9691   7.0859   7.0947
     7.1081   7.1140   8.0152   8.0326   8.0507   8.0618   8.0711   8.0791
     9.0255   9.0336   9.6655   9.6656   9.7407   9.7451  12.2788  12.2902
    12.3403  12.3687  12.3700  12.3729  12.3754  12.3985  12.9557  13.1069
    13.1769  13.2196  13.2800  13.4034  13.5041  13.7815  14.0376  14.0577
    14.0607  14.1289  14.2934  14.5825  14.6981  14.7144  15.4478  15.5401
    15.5633  16.4707  16.8562  16.8789  17.1525

          k = 0.0000 0.0000 0.1666 ( 63071 PWs)   bands (ev):

   -66.2709 -66.2705 -66.2703 -66.2702 -66.2698 -66.2697 -66.2695 -66.2691
   -30.6778 -30.6750 -30.6740 -30.6713 -30.6223 -30.6180 -30.6134 -30.6123
   -30.6087 -30.6075 -30.6063 -30.6011 -30.5972 -30.5969 -30.5946 -30.5919
   -30.5286 -30.5260 -30.5253 -30.5236 -30.5232 -30.5198 -30.5185 -30.5155
   -20.4237 -20.4237 -20.4236 -20.4236 -20.4235 -20.4235 -20.4235 -20.4235
   -20.4168 -20.4167 -20.4166 -20.4165 -20.4112 -20.4111 -20.4108 -20.4107
   -20.4094 -20.4093 -20.4083 -20.4083 -20.4081 -20.4081 -20.4076 -20.4073
   -20.4064 -20.4063 -20.4055 -20.4055 -20.4047 -20.4046 -20.4039 -20.4038
   -20.4015 -20.4011 -20.4011 -20.4010 -20.3993 -20.3990 -20.3988 -20.3986
   -20.3879 -20.3879 -20.3864 -20.3864 -20.3863 -20.3862 -20.3850 -20.3850
   -20.3832 -20.3832 -20.3819 -20.3818 -20.3818 -20.3818 -20.3806 -20.3805
   -10.0778  -9.7478  -9.7197  -9.6780  -9.4047  -9.3317  -9.3140  -9.1078
    -9.0828  -9.0248  -9.0197  -8.9908  -8.0357  -8.0323  -8.0002  -7.9625
    -7.9419  -7.9379  -7.9072  -7.9029  -7.8837  -7.8791  -7.8399  -7.8207
     1.0816   1.1081   1.1124   1.1566   1.1865   1.2340   1.3334   1.3460
     1.3964   1.4737   1.5563   1.6699   2.3597   2.4287   2.4373   2.4527
     2.5403   2.5404   3.9592   3.9726   4.1743   4.1815   4.2052   4.2797
     4.4288   4.4758   4.6276   4.6469   4.6531   4.7440   4.9323   5.2007
     5.2863   5.3318   5.4242   5.4285   5.4342   5.4526   5.4633   5.5217
     5.5399   5.6448   5.7036   5.7683   5.8317   5.9333   5.9713   6.0974
     6.1874   6.3343   6.3827   6.4115   6.4236   6.4440   6.5556   6.5930
     6.6451   6.7267   6.8104   6.8421   6.8708   6.8847   6.9364   6.9561
     6.9689   6.9908   7.9863   8.0162   8.0176   8.0247   8.0374   8.0422
     9.3844   9.3905   9.6713   9.7450   9.9775  10.0308  12.1740  12.2157
    12.3200  12.3519  12.3873  12.3919  12.3994  12.4786  12.9039  12.9591
    12.9772  13.1779  13.3303  13.3835  13.6348  13.7795  13.9029  13.9246
    14.1443  14.2387  14.2909  14.6859  14.7977  14.8326  15.4132  15.5431
    15.9243  16.5885  16.6515  17.0335  17.0571

          k = 0.0000 0.0000 0.3332 ( 63081 PWs)   bands (ev):

   -66.2708 -66.2704 -66.2703 -66.2700 -66.2700 -66.2697 -66.2696 -66.2692
   -30.6774 -30.6757 -30.6737 -30.6720 -30.6212 -30.6188 -30.6110 -30.6106
   -30.6084 -30.6072 -30.6012 -30.5957 -30.5855 -30.5850 -30.5814 -30.5812
   -30.5444 -30.5419 -30.5405 -30.5379 -30.5228 -30.5205 -30.5190 -30.5167
   -20.4236 -20.4236 -20.4236 -20.4236 -20.4235 -20.4235 -20.4235 -20.4235
   -20.4168 -20.4167 -20.4166 -20.4165 -20.4112 -20.4111 -20.4108 -20.4107
   -20.4094 -20.4094 -20.4084 -20.4084 -20.4082 -20.4082 -20.4077 -20.4075
   -20.4058 -20.4057 -20.4051 -20.4051 -20.4049 -20.4048 -20.4042 -20.4041
   -20.4014 -20.4012 -20.4011 -20.4010 -20.3993 -20.3991 -20.3988 -20.3987
   -20.3870 -20.3870 -20.3860 -20.3860 -20.3855 -20.3855 -20.3853 -20.3853
   -20.3842 -20.3842 -20.3829 -20.3828 -20.3816 -20.3815 -20.3808 -20.3808
    -9.9764  -9.7914  -9.6035  -9.5485  -9.4365  -9.3630  -9.0669  -9.0604
    -9.0320  -8.9450  -8.9104  -8.8688  -8.3249  -8.3233  -8.2935  -8.2690
    -7.9752  -7.9518  -7.9106  -7.8900  -7.8878  -7.8706  -7.8533  -7.8340
     1.0946   1.1068   1.1601   1.1613   1.2803   1.2901   1.3158   1.3336
     2.0867   2.1055   2.2099   2.2527   2.3734   2.4305   2.6560   2.6843
     2.7762   2.7899   3.6116   3.7252   3.7502   3.7577   3.9605   3.9941
     4.1150   4.2067   4.4514   4.6096   4.6303   4.6437   4.8424   4.9017
     4.9259   4.9977   5.0970   5.2358   5.3276   5.3580   5.5382   5.5469
     5.5586   5.6166   5.7248   5.8160   5.8667   5.9650   6.1131   6.1532
     6.1538   6.1649   6.2728   6.3067   6.3636   6.3664   6.3918   6.5893
     6.5991   6.6587   6.6664   6.8056   6.9555   6.9584   6.9754   7.0306
     7.1590   7.1943   7.7917   7.8516   7.8622   7.8914   8.0379   8.0404
     9.6863   9.7183  10.1266  10.1695  10.6906  10.7198  11.6926  11.7293
    12.1451  12.3524  12.4030  12.5222  12.5271  12.5573  12.5745  12.7259
    12.9567  13.1626  13.1871  13.1987  13.5335  13.5644  13.7445  13.7736
    14.2186  14.2824  14.6858  14.9865  15.0875  15.2991  15.4114  15.4757
    16.0245  16.8982  17.0347  17.2456  17.3093

          k = 0.0000 0.0000-0.4999 ( 63072 PWs)   bands (ev):

   -66.2706 -66.2706 -66.2701 -66.2701 -66.2699 -66.2699 -66.2694 -66.2694
   -30.6767 -30.6767 -30.6729 -30.6729 -30.6200 -30.6200 -30.6097 -30.6097
   -30.6086 -30.6086 -30.5976 -30.5976 -30.5655 -30.5654 -30.5637 -30.5637
   -30.5615 -30.5615 -30.5595 -30.5595 -30.5217 -30.5217 -30.5179 -30.5179
   -20.4236 -20.4236 -20.4236 -20.4236 -20.4236 -20.4236 -20.4236 -20.4235
   -20.4168 -20.4167 -20.4166 -20.4166 -20.4112 -20.4112 -20.4108 -20.4108
   -20.4094 -20.4094 -20.4084 -20.4084 -20.4083 -20.4083 -20.4077 -20.4077
   -20.4053 -20.4053 -20.4052 -20.4052 -20.4046 -20.4046 -20.4045 -20.4045
   -20.4012 -20.4012 -20.4010 -20.4010 -20.3992 -20.3992 -20.3987 -20.3987
   -20.3858 -20.3858 -20.3858 -20.3858 -20.3855 -20.3855 -20.3855 -20.3855
   -20.3842 -20.3842 -20.3842 -20.3842 -20.3812 -20.3812 -20.3812 -20.3812
    -9.8691  -9.8691  -9.4991  -9.4991  -9.4303  -9.4303  -9.0431  -9.0431
    -8.7023  -8.7023  -8.6739  -8.6739  -8.6551  -8.6550  -8.6152  -8.6151
    -7.9648  -7.9648  -7.8996  -7.8996  -7.8717  -7.8717  -7.8523  -7.8523
     1.1005   1.1005   1.1656   1.1656   1.2978   1.2978   1.3192   1.3192
     2.3915   2.3915   2.7734   2.7734   2.8635   2.8635   2.9900   2.9900
     3.1207   3.1207   3.1214   3.1214   3.2762   3.2763   3.6719   3.6719
     3.7613   3.7613   4.1736   4.1736   4.5932   4.5932   4.8508   4.8508
     5.0877   5.0877   5.1451   5.1451   5.1770   5.1771   5.5833   5.5834
     5.6722   5.6722   5.7542   5.7542   5.9536   5.9536   6.0497   6.0497
     6.0821   6.0822   6.2120   6.2120   6.2542   6.2542   6.4298   6.4298
     6.5903   6.5903   6.6823   6.6823   6.9677   6.9677   7.4421   7.4422
     7.5167   7.5167   7.5773   7.5773   7.6041   7.6041   8.0416   8.0416
     9.7048   9.7048  10.9539  10.9539  10.9982  10.9982  11.4914  11.4914
    11.5624  11.5625  12.4184  12.4184  12.7621  12.7621  12.8396  12.8397
    12.9110  12.9111  13.1098  13.1098  13.2491  13.2491  13.7641  13.7641
    14.2633  14.2633  15.0704  15.0705  15.3369  15.3369  15.4543  15.4543
    16.2824  16.2824  17.4832  17.4832  17.6565

          k = 0.0000 0.1608 0.0000 ( 63115 PWs)   bands (ev):

   -66.2710 -66.2705 -66.2702 -66.2702 -66.2698 -66.2698 -66.2695 -66.2691
   -30.6737 -30.6704 -30.6697 -30.6667 -30.6253 -30.6203 -30.6170 -30.6134
   -30.6131 -30.6103 -30.6068 -30.6062 -30.6035 -30.6024 -30.5963 -30.5962
   -30.5236 -30.5225 -30.5207 -30.5204 -30.5203 -30.5201 -30.5151 -30.5146
   -20.4237 -20.4237 -20.4236 -20.4236 -20.4235 -20.4235 -20.4235 -20.4235
   -20.4164 -20.4163 -20.4162 -20.4161 -20.4116 -20.4114 -20.4112 -20.4111
   -20.4093 -20.4092 -20.4083 -20.4082 -20.4081 -20.4080 -20.4074 -20.4073
   -20.4066 -20.4066 -20.4058 -20.4057 -20.4046 -20.4044 -20.4039 -20.4037
   -20.4015 -20.4012 -20.4012 -20.4010 -20.3993 -20.3990 -20.3989 -20.3987
   -20.3883 -20.3882 -20.3867 -20.3867 -20.3864 -20.3863 -20.3849 -20.3849
   -20.3829 -20.3828 -20.3819 -20.3819 -20.3815 -20.3815 -20.3804 -20.3804
   -10.0843  -9.7844  -9.6910  -9.6904  -9.4097  -9.4041  -9.2440  -9.1405
    -9.1224  -8.9897  -8.9864  -8.9853  -8.1026  -8.0421  -8.0378  -7.9913
    -7.9131  -7.9129  -7.8911  -7.8865  -7.8375  -7.8361  -7.8175  -7.8134
     1.0196   1.0205   1.1274   1.1383   1.1391   1.1547   1.2590   1.3801
     1.5199   1.5738   1.5818   1.7189   2.3586   2.4242   2.4377   2.4525
     2.5134   2.5244   3.8212   3.8407   3.9117   3.9351   4.5550   4.5607
     4.5786   4.5892   4.6004   4.7284   4.7444   4.7498   4.8033   5.0968
     5.1114   5.3504   5.3537   5.4671   5.4986   5.5033   5.5305   5.5468
     5.7007   5.7197   5.8054   5.8254   5.8407   5.8946   5.8949   6.0441
     6.0749   6.1399   6.1931   6.3664   6.3794   6.5730   6.5871   6.6388
     6.6494   6.7162   6.7708   6.8675   6.8795   6.9306   7.0883   7.0951
     7.1079   7.1121   7.9552   7.9572   7.9832   7.9849   8.0701   8.0709
     9.0277   9.0342   9.8700   9.8802   9.9487   9.9598  12.1252  12.1626
    12.2101  12.2334  12.3477  12.3527  12.3697  12.3758  12.9819  13.1304
    13.1973  13.2386  13.2840  13.4115  13.7362  13.8246  13.9611  13.9663
    14.0987  14.2920  14.4105  14.6968  14.7087  14.7871  15.5096  15.5309
    15.8569  16.1626  17.0293  17.0523  17.1936

          k = 0.0000 0.1608 0.1666 ( 63117 PWs)   bands (ev):

   -66.2709 -66.2705 -66.2703 -66.2701 -66.2699 -66.2697 -66.2695 -66.2691
   -30.6736 -30.6707 -30.6696 -30.6670 -30.6248 -30.6206 -30.6163 -30.6120
   -30.6106 -30.6089 -30.6071 -30.6012 -30.5981 -30.5974 -30.5967 -30.5939
   -30.5284 -30.5262 -30.5252 -30.5233 -30.5233 -30.5201 -30.5184 -30.5158
   -20.4237 -20.4237 -20.4236 -20.4236 -20.4235 -20.4235 -20.4235 -20.4235
   -20.4164 -20.4163 -20.4162 -20.4161 -20.4116 -20.4114 -20.4112 -20.4111
   -20.4093 -20.4092 -20.4084 -20.4083 -20.4082 -20.4081 -20.4076 -20.4074
   -20.4063 -20.4063 -20.4056 -20.4056 -20.4046 -20.4045 -20.4040 -20.4038
   -20.4015 -20.4012 -20.4011 -20.4010 -20.3993 -20.3990 -20.3988 -20.3987
   -20.3879 -20.3879 -20.3864 -20.3864 -20.3863 -20.3862 -20.3850 -20.3850
   -20.3832 -20.3832 -20.3819 -20.3818 -20.3818 -20.3818 -20.3806 -20.3805
   -10.0409  -9.7334  -9.7045  -9.6308  -9.4141  -9.3231  -9.2532  -9.1050
    -9.0842  -8.9880  -8.9778  -8.9580  -8.1108  -8.0608  -8.0408  -8.0305
    -8.0015  -7.9881  -7.9608  -7.9279  -7.9071  -7.8857  -7.8425  -7.8225
     1.1018   1.1080   1.1389   1.1565   1.3434   1.3573   1.3963   1.5359
     1.5556   1.5771   1.6087   1.7788   2.4324   2.4410   2.5049   2.5259
     2.5372   2.6100   3.8231   3.8264   3.9160   3.9378   4.2192   4.2759
     4.4613   4.5005   4.5669   4.6384   4.6508   4.7523   4.8089   5.0658
     5.1002   5.2020   5.2134   5.3557   5.3975   5.4528   5.4850   5.5209
     5.6454   5.6713   5.7227   5.7734   5.7974   5.9037   6.0161   6.0571
     6.0897   6.3578   6.3650   6.3691   6.4577   6.5554   6.5737   6.6415
     6.6827   6.7122   6.8148   6.8263   6.8370   6.8707   6.8889   6.9109
     6.9438   6.9945   7.9355   7.9430   7.9537   7.9580   8.0215   8.0270
     9.3876   9.3926   9.8873   9.9576  10.1405  10.2013  12.1354  12.1945
    12.2116  12.2238  12.2400  12.2744  12.4005  12.4329  12.9336  12.9845
    13.0043  13.1967  13.3357  13.3843  13.8012  13.8044  13.8250  13.8333
    14.1649  14.3991  14.5265  14.7955  14.8327  14.8789  15.5106  15.8223
    15.8918  16.3233  16.7392  17.1234  17.1834

          k = 0.0000 0.1608 0.3332 ( 63071 PWs)   bands (ev):

   -66.2708 -66.2704 -66.2704 -66.2700 -66.2700 -66.2696 -66.2696 -66.2692
   -30.6732 -30.6715 -30.6693 -30.6677 -30.6238 -30.6214 -30.6145 -30.6115
   -30.6107 -30.6080 -30.6024 -30.5977 -30.5856 -30.5855 -30.5819 -30.5813
   -30.5443 -30.5421 -30.5404 -30.5381 -30.5225 -30.5202 -30.5193 -30.5170
   -20.4236 -20.4236 -20.4236 -20.4236 -20.4235 -20.4235 -20.4235 -20.4235
   -20.4164 -20.4163 -20.4162 -20.4162 -20.4116 -20.4115 -20.4112 -20.4111
   -20.4094 -20.4093 -20.4085 -20.4083 -20.4083 -20.4082 -20.4078 -20.4076
   -20.4058 -20.4057 -20.4052 -20.4051 -20.4048 -20.4048 -20.4042 -20.4041
   -20.4013 -20.4012 -20.4011 -20.4010 -20.3992 -20.3991 -20.3988 -20.3987
   -20.3870 -20.3870 -20.3860 -20.3860 -20.3855 -20.3855 -20.3853 -20.3853
   -20.3842 -20.3842 -20.3829 -20.3828 -20.3816 -20.3816 -20.3808 -20.3808
    -9.9364  -9.7481  -9.6168  -9.4883  -9.4467  -9.2853  -9.0765  -9.0366
    -8.9958  -8.9472  -8.8925  -8.8489  -8.3340  -8.3210  -8.3097  -8.2665
    -8.0667  -8.0491  -8.0165  -7.9941  -7.8937  -7.8725  -7.8562  -7.8359
     1.1388   1.1408   1.1599   1.1611   1.4692   1.4971   1.5712   1.5779
     2.0853   2.1145   2.2101   2.2684   2.4459   2.4980   2.6768   2.7590
     2.7842   2.8313   3.6091   3.6837   3.7195   3.7463   3.8747   3.9123
     4.0198   4.0790   4.4642   4.5342   4.6153   4.6628   4.7369   4.7771
     4.8479   4.8969   4.9391   4.9808   5.2115   5.2721   5.3360   5.5020
     5.5825   5.6709   5.7459   5.7514   5.7856   5.9365   5.9816   6.1526
     6.1971   6.3043   6.3390   6.3581   6.3641   6.4978   6.5318   6.5595
     6.5861   6.6816   6.7222   6.8356   6.8706   6.8730   6.9953   7.0203
     7.1554   7.1915   7.7735   7.8052   7.8438   7.8622   7.9626   7.9707
     9.8960   9.9307  10.1311  10.1775  10.7963  10.8283  11.6933  11.7276
    12.0942  12.2390  12.3952  12.4433  12.4567  12.4676  12.5684  12.6438
    12.9708  13.1735  13.1792  13.2027  13.4262  13.4838  13.8201  13.8264
    14.3026  14.3894  15.0278  15.0755  15.1572  15.4445  15.4479  15.7059
    16.1699  16.8004  16.8573  17.1101  17.3594

          k = 0.0000 0.1608-0.4999 ( 63052 PWs)   bands (ev):

   -66.2706 -66.2706 -66.2702 -66.2702 -66.2698 -66.2698 -66.2694 -66.2694
   -30.6724 -30.6724 -30.6686 -30.6686 -30.6226 -30.6226 -30.6129 -30.6128
   -30.6093 -30.6093 -30.5994 -30.5994 -30.5655 -30.5655 -30.5639 -30.5639
   -30.5615 -30.5614 -30.5597 -30.5596 -30.5214 -30.5214 -30.5182 -30.5182
   -20.4236 -20.4236 -20.4236 -20.4236 -20.4236 -20.4235 -20.4235 -20.4235
   -20.4164 -20.4164 -20.4162 -20.4162 -20.4115 -20.4115 -20.4112 -20.4112
   -20.4094 -20.4094 -20.4085 -20.4084 -20.4083 -20.4083 -20.4077 -20.4077
   -20.4053 -20.4053 -20.4052 -20.4052 -20.4047 -20.4047 -20.4046 -20.4046
   -20.4012 -20.4012 -20.4010 -20.4010 -20.3991 -20.3991 -20.3987 -20.3987
   -20.3858 -20.3858 -20.3858 -20.3858 -20.3855 -20.3855 -20.3855 -20.3855
   -20.3842 -20.3842 -20.3842 -20.3842 -20.3812 -20.3812 -20.3812 -20.3812
    -9.8267  -9.8267  -9.5108  -9.5108  -9.3573  -9.3573  -9.0089  -9.0089
    -8.7131  -8.7130  -8.6785  -8.6785  -8.6499  -8.6498  -8.6081  -8.6081
    -8.0610  -8.0610  -8.0070  -8.0070  -7.8750  -7.8750  -7.8542  -7.8542
     1.1425   1.1425   1.1654   1.1654   1.4911   1.4911   1.5778   1.5778
     2.4621   2.4621   2.7991   2.7991   2.9035   2.9035   2.9798   2.9798
     3.1121   3.1121   3.1298   3.1298   3.2665   3.2665   3.6774   3.6774
     3.8088   3.8088   3.9925   3.9925   4.5016   4.5016   4.6862   4.6862
     4.8728   4.8728   5.1098   5.1099   5.1258   5.1258   5.3502   5.3502
     5.5733   5.5733   5.7691   5.7691   5.9207   5.9207   6.0746   6.0746
     6.1292   6.1292   6.2933   6.2933   6.4122   6.4122   6.4636   6.4636
     6.5999   6.5999   6.7460   6.7460   6.8631   6.8631   7.4506   7.4506
     7.5100   7.5101   7.5482   7.5483   7.5777   7.5777   7.9672   7.9672
     9.9198   9.9198  10.9566  10.9566  10.9975  10.9975  11.5593  11.5593
    11.6274  11.6274  12.2595  12.2595  12.7315  12.7315  12.8220  12.8220
    12.8495  12.8495  13.0159  13.0159  13.2338  13.2338  13.8208  13.8208
    14.3627  14.3628  15.3114  15.3114  15.4465  15.4465  15.6199  15.6199
    16.3475  16.3475  17.2694  17.2694  17.6792

          k = 0.0000 0.3215 0.0000 ( 63146 PWs)   bands (ev):

   -66.2709 -66.2706 -66.2701 -66.2701 -66.2699 -66.2699 -66.2694 -66.2691
   -30.6622 -30.6589 -30.6578 -30.6548 -30.6333 -30.6291 -30.6265 -30.6222
   -30.6130 -30.6128 -30.6058 -30.6056 -30.6043 -30.6040 -30.6008 -30.6004
   -30.5230 -30.5220 -30.5211 -30.5207 -30.5204 -30.5203 -30.5152 -30.5150
   -20.4237 -20.4237 -20.4236 -20.4236 -20.4235 -20.4235 -20.4235 -20.4234
   -20.4154 -20.4153 -20.4152 -20.4151 -20.4126 -20.4124 -20.4123 -20.4121
   -20.4091 -20.4090 -20.4085 -20.4084 -20.4081 -20.4079 -20.4076 -20.4075
   -20.4065 -20.4064 -20.4060 -20.4059 -20.4044 -20.4043 -20.4040 -20.4038
   -20.4015 -20.4013 -20.4011 -20.4011 -20.3992 -20.3990 -20.3990 -20.3988
   -20.3883 -20.3882 -20.3867 -20.3867 -20.3864 -20.3864 -20.3849 -20.3849
   -20.3829 -20.3828 -20.3819 -20.3819 -20.3815 -20.3815 -20.3804 -20.3804
    -9.9968  -9.8269  -9.5919  -9.5901  -9.4393  -9.4344  -9.1367  -9.1263
    -9.0214  -8.8581  -8.8578  -8.8483  -8.3624  -8.3092  -8.3064  -8.2795
    -7.9117  -7.9085  -7.8959  -7.8922  -7.8348  -7.8317  -7.8224  -7.8190
     1.0197   1.0202   1.1370   1.1393   1.1503   1.1544   1.3533   1.3778
     2.1107   2.2498   2.2617   2.3761   2.4076   2.4276   2.6464   2.6626
     2.7189   2.7400   3.4317   3.4372   3.4566   3.4618   3.9563   4.2702
     4.2848   4.5594   4.5602   4.5694   4.5921   4.6017   4.8734   4.8822
     4.9095   4.9195   5.2455   5.2474   5.4666   5.4731   5.5313   5.5359
     5.7577   5.7621   5.8048   5.8135   5.8934   5.8946   5.9570   6.0307
     6.0592   6.0763   6.1287   6.4351   6.4408   6.4528   6.6930   6.7132
     6.7631   6.8657   6.8888   6.8929   6.9232   6.9389   7.0925   7.0960
     7.1105   7.1130   7.7203   7.7331   7.7400   7.7542   8.0698   8.0709
     9.0312   9.0346  10.3979  10.4228  10.4769  10.4965  11.6889  11.7277
    11.7634  11.7865  12.3585  12.3622  12.3687  12.3739  13.0566  13.1747
    13.2844  13.3202  13.3255  13.4441  13.6829  13.7319  13.7325  13.7417
    14.4472  14.6956  14.7011  14.7969  14.8305  15.4062  15.4236  15.4443
    15.5932  16.8745  16.9548  17.5886  17.6108

          k = 0.0000 0.3215 0.1666 ( 63133 PWs)   bands (ev):

   -66.2708 -66.2706 -66.2702 -66.2701 -66.2699 -66.2698 -66.2694 -66.2692
   -30.6621 -30.6591 -30.6578 -30.6551 -30.6331 -30.6294 -30.6263 -30.6226
   -30.6112 -30.6093 -30.6060 -30.6014 -30.6008 -30.5997 -30.5979 -30.5972
   -30.5280 -30.5267 -30.5247 -30.5236 -30.5227 -30.5208 -30.5180 -30.5164
   -20.4237 -20.4236 -20.4236 -20.4236 -20.4235 -20.4235 -20.4235 -20.4235
   -20.4154 -20.4153 -20.4152 -20.4151 -20.4126 -20.4124 -20.4123 -20.4122
   -20.4091 -20.4090 -20.4086 -20.4084 -20.4081 -20.4079 -20.4077 -20.4075
   -20.4062 -20.4062 -20.4058 -20.4057 -20.4045 -20.4044 -20.4041 -20.4040
   -20.4014 -20.4012 -20.4011 -20.4011 -20.3992 -20.3990 -20.3989 -20.3988
   -20.3879 -20.3879 -20.3864 -20.3864 -20.3863 -20.3863 -20.3850 -20.3850
   -20.3832 -20.3832 -20.3819 -20.3818 -20.3818 -20.3818 -20.3806 -20.3805
    -9.9503  -9.7762  -9.6036  -9.5204  -9.4453  -9.3537  -9.0997  -9.0882
    -9.0307  -8.8614  -8.8414  -8.8407  -8.3674  -8.3173  -8.3041  -8.2842
    -8.0254  -8.0095  -7.9562  -7.9417  -7.9042  -7.8909  -7.8399  -7.8273
     1.1064   1.1077   1.1518   1.1562   1.3873   1.3958   1.5194   1.5529
     2.1141   2.2350   2.2592   2.3921   2.4639   2.5110   2.6501   2.7155
     2.7587   2.8300   3.4508   3.4585   3.4595   3.4858   3.9486   4.2320
     4.2397   4.2819   4.3048   4.5613   4.5853   4.6448   4.6604   4.6810
     4.8800   4.9345   5.0579   5.1858   5.2602   5.3042   5.4809   5.4886
     5.5495   5.5595   5.6429   5.7419   5.8740   5.9119   6.0030   6.0775
     6.1358   6.3138   6.3718   6.4328   6.4928   6.6845   6.6905   6.7773
     6.8034   6.8119   6.8460   6.8636   6.8875   6.9049   6.9218   6.9682
     6.9748   7.0282   7.7066   7.7234   7.7246   7.7304   8.0202   8.0244
     9.3922   9.3945  10.4295  10.4937  10.5889  10.6578  11.7280  11.7824
    11.7850  11.8514  12.2029  12.2132  12.4120  12.4225  13.0198  13.0768
    13.0867  13.2819  13.3365  13.3812  13.5577  13.6365  13.6812  13.7265
    14.5550  14.7897  14.8149  14.8633  15.0960  15.4034  15.5222  15.7551
    15.7811  16.8364  17.0372  17.1599  17.3197

          k = 0.0000 0.3215 0.3332 ( 63051 PWs)   bands (ev):

   -66.2707 -66.2704 -66.2703 -66.2701 -66.2699 -66.2697 -66.2696 -66.2693
   -30.6617 -30.6599 -30.6575 -30.6558 -30.6323 -30.6302 -30.6256 -30.6234
   -30.6096 -30.6069 -30.6052 -30.6017 -30.5863 -30.5860 -30.5824 -30.5818
   -30.5439 -30.5426 -30.5400 -30.5386 -30.5219 -30.5200 -30.5196 -30.5177
   -20.4236 -20.4236 -20.4236 -20.4236 -20.4235 -20.4235 -20.4235 -20.4235
   -20.4154 -20.4153 -20.4152 -20.4151 -20.4126 -20.4125 -20.4123 -20.4122
   -20.4092 -20.4091 -20.4087 -20.4085 -20.4082 -20.4080 -20.4079 -20.4077
   -20.4057 -20.4056 -20.4053 -20.4053 -20.4047 -20.4047 -20.4044 -20.4043
   -20.4013 -20.4012 -20.4011 -20.4010 -20.3992 -20.3990 -20.3989 -20.3988
   -20.3870 -20.3870 -20.3860 -20.3860 -20.3855 -20.3855 -20.3853 -20.3853
   -20.3842 -20.3842 -20.3829 -20.3828 -20.3816 -20.3816 -20.3808 -20.3808
    -9.8390  -9.6588  -9.6461  -9.4803  -9.3387  -9.1108  -9.0659  -8.9913
    -8.9538  -8.8727  -8.8027  -8.7711  -8.4400  -8.3971  -8.3138  -8.3019
    -8.2942  -8.2587  -8.2345  -8.1873  -7.8911  -7.8777  -7.8536  -7.8408
     1.1544   1.1558   1.1593   1.1607   1.9847   2.0551   2.0805   2.1336
     2.2054   2.2627   2.2742   2.4591   2.6552   2.6896   2.7082   2.7802
     2.9876   3.0259   3.4264   3.4512   3.4665   3.5397   3.6891   3.7052
     3.9348   4.1221   4.2033   4.2164   4.2782   4.4276   4.5165   4.6276
     4.6803   4.7198   4.8320   4.8916   4.8937   4.9972   5.0823   5.1883
     5.1954   5.4004   5.5335   5.6961   5.9326   5.9625   6.0910   6.1741
     6.2867   6.3761   6.3880   6.4375   6.5092   6.6298   6.6400   6.6667
     6.7212   6.8646   6.8700   6.8929   6.9011   6.9960   7.0300   7.0691
     7.1537   7.1747   7.6195   7.6246   7.7054   7.7315   7.8492   7.8689
    10.1394  10.1401  10.4504  10.4896  11.1035  11.1469  11.6660  11.7228
    11.7489  11.8120  12.0713  12.1173  12.5169  12.5370  12.5859  12.5936
    12.9442  13.0611  13.1813  13.2150  13.2822  13.3959  13.6775  13.6962
    14.6557  14.7902  15.0311  15.3417  15.5168  15.7757  15.8261  16.2690
    16.5791  16.7009  16.7170  17.3259  17.4372

          k = 0.0000 0.3215-0.4999 ( 63042 PWs)   bands (ev):

   -66.2705 -66.2705 -66.2703 -66.2703 -66.2697 -66.2697 -66.2695 -66.2695
   -30.6608 -30.6608 -30.6568 -30.6568 -30.6313 -30.6313 -30.6245 -30.6245
   -30.6082 -30.6082 -30.6032 -30.6032 -30.5654 -30.5654 -30.5644 -30.5644
   -30.5613 -30.5613 -30.5602 -30.5602 -30.5208 -30.5208 -30.5189 -30.5189
   -20.4236 -20.4236 -20.4236 -20.4236 -20.4236 -20.4235 -20.4235 -20.4235
   -20.4154 -20.4153 -20.4152 -20.4152 -20.4125 -20.4125 -20.4123 -20.4123
   -20.4092 -20.4092 -20.4087 -20.4086 -20.4082 -20.4081 -20.4078 -20.4078
   -20.4052 -20.4052 -20.4051 -20.4051 -20.4048 -20.4048 -20.4047 -20.4047
   -20.4012 -20.4012 -20.4011 -20.4011 -20.3991 -20.3991 -20.3988 -20.3988
   -20.3858 -20.3858 -20.3858 -20.3858 -20.3855 -20.3855 -20.3855 -20.3855
   -20.3842 -20.3842 -20.3842 -20.3842 -20.3812 -20.3812 -20.3812 -20.3812
    -9.7249  -9.7249  -9.5487  -9.5487  -9.1574  -9.1574  -8.9005  -8.9005
    -8.7599  -8.7598  -8.6959  -8.6959  -8.6279  -8.6278  -8.5806  -8.5806
    -8.3016  -8.3016  -8.2649  -8.2649  -7.8724  -7.8724  -7.8593  -7.8593
     1.1594   1.1594   1.1648   1.1648   2.1218   2.1218   2.2548   2.2548
     2.6647   2.6647   2.8712   2.8712   2.9474   2.9475   3.0029   3.0030
     3.0808   3.0808   3.1550   3.1550   3.2359   3.2359   3.4558   3.4558
     3.9222   3.9222   3.9448   3.9448   3.9736   3.9736   4.1968   4.1969
     4.6981   4.6981   4.8079   4.8079   4.9292   4.9292   5.0633   5.0633
     5.1971   5.1971   5.6101   5.6101   6.0430   6.0430   6.0851   6.0852
     6.3031   6.3031   6.3683   6.3683   6.4151   6.4151   6.6395   6.6395
     6.8377   6.8377   6.8895   6.8895   6.9803   6.9803   7.4107   7.4107
     7.4456   7.4456   7.4794   7.4794   7.5365   7.5365   7.7492   7.7492
    10.4537  10.4537  10.9619  10.9619  10.9983  10.9983  11.6683  11.6683
    11.8269  11.8269  11.9189  11.9189  12.5121  12.5122  12.5449  12.5449
    12.8607  12.8607  12.8950  12.8950  13.2918  13.2918  13.6815  13.6815
    14.7366  14.7366  15.2249  15.2249  16.0499  16.0500  16.3740  16.3740
    16.6358  16.6358  16.8684  16.8684  17.7753

          k = 0.0000-0.4823 0.0000 ( 63082 PWs)   bands (ev):

   -66.2708 -66.2707 -66.2700 -66.2700 -66.2700 -66.2700 -66.2693 -66.2693
   -30.6470 -30.6470 -30.6434 -30.6434 -30.6418 -30.6418 -30.6385 -30.6385
   -30.6127 -30.6127 -30.6045 -30.6045 -30.6043 -30.6043 -30.6036 -30.6036
   -30.5221 -30.5220 -30.5213 -30.5213 -30.5202 -30.5202 -30.5153 -30.5153
   -20.4237 -20.4237 -20.4236 -20.4236 -20.4235 -20.4235 -20.4235 -20.4234
   -20.4140 -20.4140 -20.4138 -20.4138 -20.4137 -20.4137 -20.4136 -20.4136
   -20.4088 -20.4088 -20.4087 -20.4087 -20.4078 -20.4078 -20.4077 -20.4077
   -20.4063 -20.4063 -20.4062 -20.4062 -20.4042 -20.4042 -20.4041 -20.4041
   -20.4014 -20.4014 -20.4011 -20.4011 -20.3991 -20.3991 -20.3989 -20.3989
   -20.3882 -20.3882 -20.3867 -20.3867 -20.3864 -20.3864 -20.3849 -20.3849
   -20.3828 -20.3828 -20.3819 -20.3819 -20.3815 -20.3815 -20.3804 -20.3804
    -9.9004  -9.9004  -9.4981  -9.4981  -9.4946  -9.4946  -9.1315  -9.1315
    -8.6992  -8.6992  -8.6186  -8.6185  -8.6170  -8.6170  -8.6025  -8.6025
    -7.9067  -7.9067  -7.8980  -7.8979  -7.8288  -7.8288  -7.8255  -7.8255
     1.0199   1.0199   1.1390   1.1390   1.1535   1.1535   1.3719   1.3719
     2.4024   2.4024   2.9133   2.9133   2.9958   2.9958   3.0079   3.0079
     3.0153   3.0153   3.0890   3.0890   3.2707   3.2708   3.2833   3.2833
     3.4535   3.4535   4.5740   4.5740   4.5826   4.5826   5.0657   5.0657
     5.0877   5.0877   5.1759   5.1759   5.1859   5.1859   5.6056   5.6056
     5.6138   5.6138   5.8800   5.8800   5.8873   5.8873   6.0308   6.0308
     6.0788   6.0788   6.1714   6.1714   6.5465   6.5465   6.5659   6.5659
     6.8238   6.8238   7.0926   7.0926   7.0966   7.0966   7.3415   7.3415
     7.3485   7.3485   7.3643   7.3643   7.3714   7.3714   8.0703   8.0703
     9.0336   9.0336  11.0631  11.0631  11.0980  11.0980  11.1288  11.1288
    11.1711  11.1711  12.3656  12.3656  12.3696  12.3696  13.1450  13.1451
    13.4578  13.4578  13.4641  13.4641  13.5013  13.5013  13.5655  13.5655
    14.6965  14.6965  14.9996  14.9996  15.1888  15.1888  15.2065  15.2065
    16.3044  16.3044  17.5827  17.5828  17.8850

          k = 0.0000-0.4823 0.1666 ( 63132 PWs)   bands (ev):

   -66.2707 -66.2707 -66.2701 -66.2700 -66.2699 -66.2699 -66.2693 -66.2693
   -30.6469 -30.6469 -30.6437 -30.6437 -30.6418 -30.6418 -30.6388 -30.6388
   -30.6101 -30.6101 -30.6039 -30.6039 -30.6010 -30.6010 -30.5982 -30.5982
   -30.5273 -30.5273 -30.5242 -30.5242 -30.5218 -30.5218 -30.5173 -30.5173
   -20.4237 -20.4236 -20.4236 -20.4236 -20.4235 -20.4235 -20.4235 -20.4235
   -20.4140 -20.4140 -20.4139 -20.4138 -20.4137 -20.4137 -20.4136 -20.4136
   -20.4089 -20.4089 -20.4087 -20.4087 -20.4079 -20.4079 -20.4077 -20.4077
   -20.4060 -20.4060 -20.4060 -20.4060 -20.4043 -20.4043 -20.4042 -20.4042
   -20.4013 -20.4013 -20.4011 -20.4011 -20.3991 -20.3991 -20.3989 -20.3989
   -20.3879 -20.3879 -20.3864 -20.3864 -20.3863 -20.3863 -20.3850 -20.3850
   -20.3832 -20.3832 -20.3819 -20.3818 -20.3818 -20.3818 -20.3805 -20.3805
    -9.8511  -9.8511  -9.5067  -9.5067  -9.4165  -9.4165  -9.0937  -9.0937
    -8.7076  -8.7076  -8.6239  -8.6239  -8.6102  -8.6102  -8.6004  -8.6004
    -8.0182  -8.0182  -7.9496  -7.9496  -7.8978  -7.8978  -7.8338  -7.8338
     1.1073   1.1073   1.1551   1.1551   1.3940   1.3940   1.5455   1.5455
     2.4866   2.4866   2.9227   2.9227   2.9774   2.9774   3.0183   3.0183
     3.0638   3.0638   3.0881   3.0882   3.2765   3.2765   3.3251   3.3251
     3.4794   3.4794   4.2509   4.2509   4.6387   4.6387   4.8413   4.8413
     4.9590   4.9590   5.0662   5.0662   5.1988   5.1988   5.3483   5.3483
     5.5665   5.5665   5.5808   5.5808   5.9134   5.9134   6.0608   6.0608
     6.2851   6.2851   6.3504   6.3504   6.5422   6.5422   6.7447   6.7447
     6.8387   6.8387   6.9000   6.9000   6.9489   6.9489   7.3335   7.3335
     7.3513   7.3513   7.3553   7.3553   7.3608   7.3608   8.0223   8.0223
     9.3944   9.3944  11.1012  11.1012  11.1534  11.1534  11.1985  11.1985
    11.2618  11.2618  12.2080  12.2080  12.4185  12.4185  13.1153  13.1153
    13.2786  13.2786  13.3553  13.3553  13.4551  13.4551  13.5717  13.5717
    14.7704  14.7704  15.1827  15.1827  15.1940  15.1940  15.5413  15.5413
    16.3848  16.3848  17.5610  17.5616  17.6184

          k = 0.0000-0.4823 0.3332 ( 63058 PWs)   bands (ev):

   -66.2706 -66.2706 -66.2702 -66.2702 -66.2698 -66.2698 -66.2694 -66.2694
   -30.6464 -30.6464 -30.6445 -30.6445 -30.6414 -30.6414 -30.6396 -30.6396
   -30.6078 -30.6078 -30.6049 -30.6049 -30.5864 -30.5864 -30.5823 -30.5823
   -30.5433 -30.5433 -30.5393 -30.5393 -30.5210 -30.5210 -30.5187 -30.5187
   -20.4236 -20.4236 -20.4236 -20.4236 -20.4235 -20.4235 -20.4235 -20.4235
   -20.4140 -20.4140 -20.4139 -20.4139 -20.4137 -20.4137 -20.4137 -20.4137
   -20.4089 -20.4089 -20.4088 -20.4088 -20.4080 -20.4080 -20.4079 -20.4079
   -20.4055 -20.4055 -20.4055 -20.4055 -20.4046 -20.4046 -20.4045 -20.4045
   -20.4012 -20.4012 -20.4011 -20.4011 -20.3990 -20.3990 -20.3989 -20.3989
   -20.3870 -20.3870 -20.3860 -20.3860 -20.3855 -20.3855 -20.3853 -20.3853
   -20.3842 -20.3842 -20.3829 -20.3828 -20.3816 -20.3816 -20.3808 -20.3808
    -9.7346  -9.7346  -9.5457  -9.5457  -9.1916  -9.1916  -8.9663  -8.9663
    -8.7495  -8.7495  -8.6468  -8.6468  -8.5895  -8.5895  -8.5836  -8.5835
    -8.2988  -8.2988  -8.2423  -8.2423  -7.8847  -7.8847  -7.8475  -7.8475
     1.1580   1.1580   1.1595   1.1595   2.0683   2.0683   2.1866   2.1866
     2.7280   2.7280   2.9304   2.9304   2.9760   2.9760   3.0330   3.0330
     3.0621   3.0621   3.1572   3.1572   3.2624   3.2624   3.4557   3.4557
     3.5298   3.5298   3.6934   3.6934   4.3696   4.3696   4.4789   4.4789
     4.6689   4.6689   4.7206   4.7206   4.9245   4.9245   5.0798   5.0798
     5.2336   5.2337   5.4893   5.4893   5.9632   5.9632   6.1605   6.1605
     6.3738   6.3738   6.4349   6.4349   6.5280   6.5280   6.6337   6.6337
     6.9173   6.9173   7.0379   7.0380   7.0839   7.0839   7.3052   7.3052
     7.3254   7.3255   7.3366   7.3366   7.3853   7.3854   7.8553   7.8553
    10.1451  10.1451  11.1125  11.1125  11.1458  11.1459  11.5727  11.5727
    11.6219  11.6219  11.7244  11.7245  12.5829  12.5829  12.7302  12.7302
    12.7852  12.7852  13.1793  13.1793  13.4500  13.4500  13.4920  13.4920
    14.9160  14.9160  15.1381  15.1381  15.8106  15.8106  16.4019  16.4019
    16.6743  16.6743  17.0438  17.0439  17.7080

          k = 0.0000-0.4823-0.4999 ( 63088 PWs)   bands (ev):

   -66.2704 -66.2704 -66.2704 -66.2704 -66.2696 -66.2696 -66.2696 -66.2696
   -30.6455 -30.6455 -30.6455 -30.6455 -30.6406 -30.6406 -30.6406 -30.6406
   -30.6062 -30.6062 -30.6062 -30.6062 -30.5650 -30.5650 -30.5650 -30.5650
   -30.5608 -30.5608 -30.5608 -30.5608 -30.5199 -30.5199 -30.5199 -30.5199
   -20.4236 -20.4236 -20.4236 -20.4236 -20.4235 -20.4235 -20.4235 -20.4235
   -20.4139 -20.4139 -20.4139 -20.4139 -20.4137 -20.4137 -20.4137 -20.4137
   -20.4089 -20.4089 -20.4089 -20.4089 -20.4080 -20.4080 -20.4080 -20.4080
   -20.4050 -20.4050 -20.4050 -20.4050 -20.4049 -20.4049 -20.4049 -20.4049
   -20.4012 -20.4012 -20.4012 -20.4011 -20.3990 -20.3990 -20.3990 -20.3990
   -20.3858 -20.3858 -20.3858 -20.3858 -20.3855 -20.3855 -20.3855 -20.3855
   -20.3842 -20.3842 -20.3842 -20.3842 -20.3812 -20.3812 -20.3812 -20.3812
    -9.6203  -9.6203  -9.6203  -9.6203  -8.9086  -8.9086  -8.9086  -8.9086
    -8.7562  -8.7562  -8.7562  -8.7562  -8.5360  -8.5360  -8.5360  -8.5360
    -8.4946  -8.4945  -8.4945  -8.4945  -7.8661  -7.8661  -7.8661  -7.8661
     1.1634   1.1634   1.1634   1.1634   2.8085   2.8085   2.8085   2.8085
     2.9164   2.9164   2.9164   2.9164   3.0208   3.0208   3.0208   3.0208
     3.1192   3.1192   3.1192   3.1192   3.2578   3.2578   3.2578   3.2578
     3.3769   3.3769   3.3769   3.3769   4.1941   4.1941   4.1941   4.1941
     4.2816   4.2816   4.2816   4.2816   5.0177   5.0177   5.0177   5.0177
     5.3345   5.3345   5.3345   5.3345   6.0810   6.0810   6.0810   6.0810
     6.3755   6.3755   6.3755   6.3755   6.4962   6.4962   6.4962   6.4962
     7.1933   7.1933   7.1933   7.1933   7.2368   7.2368   7.2368   7.2368
     7.2953   7.2953   7.2953   7.2953   7.5621   7.5622   7.5622   7.5622
    10.9458  10.9458  10.9458  10.9458  11.1632  11.1632  11.1632  11.1632
    12.1333  12.1333  12.1333  12.1333  12.1758  12.1758  12.1758  12.1758
    12.8687  12.8687  12.8687  12.8687  13.4572  13.4572  13.4572  13.4572
    15.0468  15.0468  15.0468  15.0468  16.4728  16.4729  16.4729  16.4729
    17.2869  17.2871  17.2872  17.2873  17.3608

          k = 0.1667 0.0000 0.0000 ( 63083 PWs)   bands (ev):

   -66.2709 -66.2705 -66.2703 -66.2702 -66.2698 -66.2697 -66.2695 -66.2691
   -30.6777 -30.6746 -30.6743 -30.6713 -30.6213 -30.6161 -30.6149 -30.6117
   -30.6096 -30.6063 -30.6036 -30.6032 -30.6014 -30.6010 -30.5909 -30.5906
   -30.5298 -30.5264 -30.5255 -30.5237 -30.5223 -30.5197 -30.5172 -30.5157
   -20.4237 -20.4237 -20.4236 -20.4236 -20.4235 -20.4235 -20.4235 -20.4235
   -20.4168 -20.4167 -20.4166 -20.4165 -20.4112 -20.4111 -20.4109 -20.4107
   -20.4093 -20.4092 -20.4084 -20.4082 -20.4081 -20.4080 -20.4074 -20.4073
   -20.4067 -20.4066 -20.4057 -20.4057 -20.4046 -20.4045 -20.4038 -20.4036
   -20.4013 -20.4010 -20.4009 -20.4008 -20.3995 -20.3991 -20.3989 -20.3988
   -20.3882 -20.3881 -20.3868 -20.3868 -20.3861 -20.3861 -20.3847 -20.3846
   -20.3828 -20.3827 -20.3823 -20.3823 -20.3816 -20.3815 -20.3808 -20.3807
   -10.0780  -9.7475  -9.7207  -9.6789  -9.4105  -9.3319  -9.3085  -9.1091
    -9.0823  -9.0264  -9.0183  -8.9890  -8.0541  -8.0183  -7.9930  -7.9776
    -7.9351  -7.9288  -7.9112  -7.9072  -7.8793  -7.8780  -7.8429  -7.8148
     1.0781   1.0989   1.1061   1.1409   1.1834   1.2353   1.3337   1.3354
     1.4104   1.4863   1.5658   1.6753   2.3653   2.4313   2.4414   2.4464
     2.5337   2.5408   3.9524   3.9824   4.1586   4.1861   4.2055   4.2728
     4.4158   4.4649   4.6513   4.6625   4.6743   4.7260   4.9111   5.2065
     5.3223   5.3268   5.4043   5.4048   5.4261   5.4710   5.4819   5.5191
     5.5364   5.6694   5.6867   5.7667   5.8764   5.9015   5.9678   6.1164
     6.2062   6.3280   6.3755   6.3781   6.4381   6.4550   6.5395   6.5786
     6.5966   6.7635   6.7760   6.8697   6.8922   6.8970   6.9269   6.9538
     6.9791   6.9814   7.9588   7.9866   8.0256   8.0267   8.0596   8.0737
     9.3797   9.3949   9.6712   9.7325   9.9848  10.0296  12.1857  12.2090
    12.2605  12.3534  12.3750  12.3964  12.4286  12.4998  12.8295  12.9189
    13.1255  13.2193  13.3313  13.3505  13.6074  13.8084  14.0057  14.0331
    14.0546  14.0602  14.3334  14.6848  14.7978  14.8264  15.4102  15.5220
    15.9391  16.5711  16.6484  17.0557  17.1976

          k = 0.1667 0.0000 0.1666 ( 63081 PWs)   bands (ev):

   -66.2709 -66.2704 -66.2702 -66.2702 -66.2698 -66.2698 -66.2696 -66.2691
   -30.6777 -30.6749 -30.6743 -30.6716 -30.6204 -30.6163 -30.6135 -30.6069
   -30.6068 -30.6066 -30.6017 -30.6001 -30.5974 -30.5972 -30.5909 -30.5895
   -30.5296 -30.5284 -30.5274 -30.5263 -30.5256 -30.5250 -30.5209 -30.5202
   -20.4237 -20.4237 -20.4236 -20.4236 -20.4235 -20.4235 -20.4235 -20.4235
   -20.4168 -20.4167 -20.4166 -20.4165 -20.4112 -20.4111 -20.4109 -20.4108
   -20.4093 -20.4092 -20.4084 -20.4082 -20.4082 -20.4080 -20.4076 -20.4074
   -20.4064 -20.4063 -20.4055 -20.4055 -20.4047 -20.4046 -20.4039 -20.4038
   -20.4013 -20.4010 -20.4009 -20.4008 -20.3994 -20.3992 -20.3989 -20.3988
   -20.3878 -20.3878 -20.3865 -20.3865 -20.3860 -20.3860 -20.3848 -20.3847
   -20.3831 -20.3831 -20.3822 -20.3822 -20.3819 -20.3819 -20.3809 -20.3809
   -10.0341  -9.6929  -9.6921  -9.6643  -9.3414  -9.3239  -9.3185  -9.0701
    -9.0491  -9.0104  -8.9934  -8.9916  -8.0630  -8.0286  -8.0146  -8.0132
    -8.0021  -7.9935  -7.9533  -7.9360  -7.9304  -7.9121  -7.9079  -7.8825
     1.1650   1.2258   1.2263   1.2761   1.2772   1.3255   1.3987   1.4126
     1.4740   1.4865   1.6491   1.7574   2.4460   2.4512   2.4915   2.5180
     2.5671   2.6277   3.9332   3.9463   4.1144   4.1209   4.3034   4.3041
     4.3489   4.3557   4.4262   4.4555   4.4592   4.5234   4.9053   5.1542
     5.1957   5.2369   5.3149   5.3595   5.4110   5.4858   5.4909   5.5281
     5.5344   5.5697   5.5703   5.6640   5.6922   5.8829   6.1707   6.2886
     6.2985   6.3992   6.4126   6.4249   6.4336   6.4517   6.4672   6.5222
     6.5479   6.6409   6.6520   6.7280   6.7992   6.8515   6.8682   6.9375
     7.0212   7.0651   7.9481   7.9734   7.9969   7.9982   8.0194   8.0279
     9.6270   9.6596   9.9382  10.0019  10.0292  10.0618  12.2308  12.2369
    12.2529  12.2613  12.3263  12.3906  12.4561  12.4793  12.8397  12.9129
    12.9421  12.9834  13.2954  13.3604  13.6886  13.7925  13.9012  13.9236
    14.0457  14.2321  14.3293  14.7943  14.9670  14.9698  15.3792  15.9026
    15.9176  16.7150  16.7259  16.7981  17.2406

          k = 0.1667 0.0000 0.3332 ( 63076 PWs)   bands (ev):

   -66.2707 -66.2704 -66.2703 -66.2701 -66.2699 -66.2697 -66.2696 -66.2693
   -30.6773 -30.6756 -30.6740 -30.6723 -30.6192 -30.6170 -30.6109 -30.6076
   -30.6048 -30.6025 -30.5980 -30.5920 -30.5851 -30.5847 -30.5814 -30.5811
   -30.5442 -30.5417 -30.5409 -30.5384 -30.5285 -30.5261 -30.5247 -30.5223
   -20.4236 -20.4236 -20.4236 -20.4236 -20.4235 -20.4235 -20.4235 -20.4235
   -20.4168 -20.4167 -20.4166 -20.4166 -20.4112 -20.4112 -20.4109 -20.4108
   -20.4093 -20.4093 -20.4084 -20.4084 -20.4083 -20.4082 -20.4078 -20.4076
   -20.4058 -20.4057 -20.4051 -20.4051 -20.4049 -20.4048 -20.4042 -20.4041
   -20.4012 -20.4010 -20.4009 -20.4008 -20.3994 -20.3992 -20.3989 -20.3988
   -20.3869 -20.3869 -20.3858 -20.3857 -20.3856 -20.3856 -20.3851 -20.3850
   -20.3841 -20.3841 -20.3830 -20.3830 -20.3819 -20.3819 -20.3812 -20.3811
    -9.9281  -9.7369  -9.5623  -9.5344  -9.3736  -9.3512  -9.0774  -9.0221
    -8.9991  -8.9248  -8.9060  -8.8721  -8.3224  -8.3186  -8.3046  -8.2769
    -8.0264  -8.0062  -7.9852  -7.9735  -7.9343  -7.9212  -7.9140  -7.8912
     1.1789   1.2094   1.2715   1.3075   1.4115   1.4180   1.4523   1.4869
     2.0897   2.1079   2.2087   2.2551   2.4581   2.5093   2.6823   2.7074
     2.8232   2.8847   3.6400   3.7360   3.7695   3.7958   3.9484   4.0403
     4.0704   4.1816   4.3606   4.3951   4.4444   4.5716   4.6146   4.6783
     4.8785   4.9646   5.0540   5.0704   5.2228   5.2471   5.4808   5.5250
     5.5560   5.6197   5.6339   5.6821   5.7231   5.8676   5.9028   5.9372
     6.2103   6.2580   6.2836   6.3615   6.4058   6.4367   6.4401   6.5679
     6.5766   6.7509   6.7719   6.7759   6.9081   6.9776   7.0515   7.0546
     7.1645   7.2188   7.7925   7.8267   7.8632   7.8812   7.9955   7.9985
     9.9698  10.0082  10.2776  10.3164  10.6962  10.7301  11.7552  11.7877
    12.1824  12.3430  12.4088  12.4167  12.4765  12.5310  12.5833  12.6968
    12.8336  12.9636  13.0753  13.1523  13.5192  13.5361  13.7606  13.7953
    14.1882  14.3143  14.6743  15.1044  15.2696  15.3755  15.5540  15.8483
    16.1445  16.8798  17.1010  17.1642  17.2541

          k = 0.1667 0.0000-0.4999 ( 63086 PWs)   bands (ev):

   -66.2706 -66.2706 -66.2701 -66.2701 -66.2699 -66.2699 -66.2694 -66.2694
   -30.6765 -30.6765 -30.6732 -30.6732 -30.6181 -30.6180 -30.6090 -30.6090
   -30.6036 -30.6036 -30.5939 -30.5939 -30.5652 -30.5652 -30.5634 -30.5634
   -30.5617 -30.5617 -30.5598 -30.5598 -30.5274 -30.5274 -30.5236 -30.5235
   -20.4236 -20.4236 -20.4236 -20.4236 -20.4236 -20.4236 -20.4236 -20.4235
   -20.4168 -20.4167 -20.4166 -20.4166 -20.4112 -20.4112 -20.4109 -20.4109
   -20.4093 -20.4093 -20.4084 -20.4084 -20.4083 -20.4083 -20.4078 -20.4077
   -20.4053 -20.4053 -20.4052 -20.4052 -20.4046 -20.4046 -20.4045 -20.4045
   -20.4011 -20.4011 -20.4008 -20.4008 -20.3993 -20.3993 -20.3988 -20.3988
   -20.3857 -20.3857 -20.3857 -20.3856 -20.3853 -20.3853 -20.3853 -20.3853
   -20.3843 -20.3843 -20.3843 -20.3843 -20.3815 -20.3815 -20.3815 -20.3815
    -9.8166  -9.8166  -9.4425  -9.4425  -9.4179  -9.4179  -9.0092  -9.0092
    -8.7147  -8.7147  -8.6682  -8.6682  -8.6479  -8.6479  -8.6183  -8.6182
    -8.0124  -8.0124  -7.9827  -7.9827  -7.9308  -7.9308  -7.9030  -7.9029
     1.1920   1.1920   1.2890   1.2891   1.4232   1.4232   1.4839   1.4839
     2.4726   2.4726   2.7757   2.7757   2.8448   2.8448   3.0017   3.0018
     3.0802   3.0803   3.2534   3.2534   3.3552   3.3552   3.6832   3.6832
     3.7543   3.7543   4.1339   4.1339   4.3630   4.3630   4.7973   4.7973
     4.8733   4.8733   4.9352   4.9352   5.1173   5.1173   5.5759   5.5759
     5.5998   5.5998   5.6577   5.6577   5.7044   5.7044   5.8362   5.8362
     6.1460   6.1461   6.1897   6.1897   6.4345   6.4345   6.5144   6.5144
     6.7025   6.7025   6.8058   6.8058   6.8653   6.8653   7.4727   7.4727
     7.5153   7.5153   7.5837   7.5837   7.6028   7.6028   7.9981   7.9981
     9.9959   9.9959  11.0408  11.0408  11.0820  11.0820  11.5034  11.5034
    11.5688  11.5688  12.4851  12.4851  12.6429  12.6429  12.6987  12.6987
    12.8644  12.8644  13.0834  13.0834  13.1446  13.1446  13.7799  13.7799
    14.2762  14.2763  15.0490  15.0490  15.5740  15.5740  15.6855  15.6855
    16.4225  16.4225  17.4652  17.4654  17.5564

          k = 0.1667 0.1608 0.0000 ( 63122 PWs)   bands (ev):

   -66.2709 -66.2705 -66.2702 -66.2702 -66.2698 -66.2698 -66.2695 -66.2691
   -30.6735 -30.6703 -30.6700 -30.6670 -30.6239 -30.6190 -30.6173 -30.6117
   -30.6107 -30.6097 -30.6038 -30.6030 -30.6027 -30.6010 -30.5929 -30.5922
   -30.5295 -30.5264 -30.5256 -30.5238 -30.5222 -30.5198 -30.5172 -30.5158
   -20.4237 -20.4237 -20.4236 -20.4236 -20.4235 -20.4235 -20.4235 -20.4235
   -20.4164 -20.4163 -20.4162 -20.4161 -20.4116 -20.4115 -20.4113 -20.4111
   -20.4092 -20.4091 -20.4083 -20.4082 -20.4081 -20.4081 -20.4075 -20.4073
   -20.4066 -20.4066 -20.4058 -20.4057 -20.4046 -20.4044 -20.4038 -20.4037
   -20.4013 -20.4010 -20.4010 -20.4008 -20.3994 -20.3991 -20.3990 -20.3988
   -20.3882 -20.3881 -20.3868 -20.3868 -20.3861 -20.3861 -20.3847 -20.3846
   -20.3828 -20.3827 -20.3823 -20.3823 -20.3816 -20.3815 -20.3808 -20.3808
   -10.0411  -9.7343  -9.7046  -9.6312  -9.4198  -9.3179  -9.2534  -9.1058
    -9.0837  -8.9893  -8.9769  -8.9566  -8.1132  -8.0618  -8.0425  -8.0252
    -8.0019  -7.9953  -7.9554  -7.9319  -7.9067  -7.8817  -7.8413  -7.8184
     1.0952   1.0989   1.1284   1.1411   1.3500   1.3578   1.4095   1.5384
     1.5571   1.5770   1.6179   1.7812   2.4320   2.4493   2.5066   2.5207
     2.5417   2.6012   3.8072   3.8344   3.9057   3.9590   4.2106   4.2714
     4.4464   4.4594   4.6281   4.6548   4.6963   4.7396   4.7528   5.0756
     5.1062   5.1957   5.2111   5.3631   5.3950   5.4376   5.4719   5.5521
     5.6562   5.6566   5.7385   5.7640   5.8166   5.9028   5.9916   6.0849
     6.1107   6.3035   6.3596   6.3761   6.4641   6.5447   6.5739   6.6242
     6.6581   6.7308   6.7843   6.8439   6.8693   6.8837   6.9000   6.9104
     6.9428   6.9919   7.9107   7.9173   7.9803   7.9858   8.0226   8.0280
     9.3844   9.3941   9.8768   9.9397  10.1556  10.2065  12.1155  12.1829
    12.2092  12.2117  12.2454  12.2920  12.4033  12.4425  12.8646  12.9381
    13.1547  13.2372  13.3279  13.3537  13.7215  13.7691  13.9581  13.9656
    14.0847  14.2907  14.5531  14.8017  14.8256  14.8782  15.4885  15.8220
    15.9050  16.3201  16.7259  17.1987  17.2681

          k = 0.1667 0.1608 0.1666 ( 63096 PWs)   bands (ev):

   -66.2709 -66.2704 -66.2702 -66.2702 -66.2698 -66.2698 -66.2696 -66.2692
   -30.6734 -30.6706 -30.6699 -30.6673 -30.6232 -30.6192 -30.6165 -30.6110
   -30.6069 -30.6067 -30.6013 -30.6001 -30.5982 -30.5976 -30.5925 -30.5913
   -30.5294 -30.5283 -30.5274 -30.5262 -30.5258 -30.5252 -30.5210 -30.5204
   -20.4237 -20.4237 -20.4236 -20.4236 -20.4235 -20.4235 -20.4235 -20.4235
   -20.4164 -20.4163 -20.4162 -20.4162 -20.4116 -20.4115 -20.4113 -20.4111
   -20.4092 -20.4091 -20.4083 -20.4083 -20.4081 -20.4081 -20.4077 -20.4074
   -20.4063 -20.4063 -20.4056 -20.4056 -20.4046 -20.4045 -20.4039 -20.4038
   -20.4013 -20.4010 -20.4010 -20.4008 -20.3994 -20.3991 -20.3989 -20.3988
   -20.3878 -20.3878 -20.3865 -20.3865 -20.3860 -20.3860 -20.3848 -20.3847
   -20.3831 -20.3831 -20.3822 -20.3822 -20.3819 -20.3819 -20.3809 -20.3809
    -9.9955  -9.6783  -9.6452  -9.6447  -9.3333  -9.3281  -9.2629  -9.0687
    -9.0505  -8.9687  -8.9606  -8.9592  -8.1239  -8.0623  -8.0601  -8.0267
    -8.0241  -8.0096  -7.9984  -7.9853  -7.9735  -7.9431  -7.9412  -7.9232
     1.2751   1.2758   1.3434   1.3496   1.3723   1.3986   1.4124   1.5399
     1.6048   1.6149   1.6491   1.8362   2.5140   2.5200   2.5309   2.5877
     2.6177   2.6254   3.8028   3.8261   3.9216   3.9280   4.2827   4.2969
     4.3328   4.3460   4.4341   4.4622   4.4905   4.5458   4.6959   5.0608
     5.0727   5.1343   5.1494   5.2258   5.2493   5.4207   5.4243   5.4658
     5.5336   5.5578   5.7088   5.7278   5.7345   5.7975   6.1633   6.2020
     6.2368   6.3337   6.3709   6.4471   6.4568   6.5039   6.5445   6.5916
     6.6057   6.6863   6.6968   6.7297   6.8156   6.8330   6.8396   6.9394
     7.0214   7.0703   7.9019   7.9177   7.9435   7.9445   7.9827   7.9900
     9.6377   9.6583  10.1109  10.1667  10.2057  10.2259  12.1815  12.2074
    12.2308  12.2362  12.2493  12.2786  12.3202  12.3384  12.8749  12.9338
    12.9638  13.0033  13.2903  13.3615  13.7353  13.7438  13.8001  13.8390
    14.2051  14.5147  14.5566  14.9658  14.9675  14.9738  15.7852  15.8723
    15.8846  16.4477  16.8450  16.8563  17.1989

          k = 0.1667 0.1608 0.3332 ( 63068 PWs)   bands (ev):

   -66.2707 -66.2703 -66.2703 -66.2701 -66.2699 -66.2697 -66.2697 -66.2693
   -30.6730 -30.6713 -30.6696 -30.6680 -30.6222 -30.6200 -30.6148 -30.6119
   -30.6046 -30.6021 -30.5988 -30.5936 -30.5852 -30.5851 -30.5818 -30.5816
   -30.5440 -30.5419 -30.5408 -30.5386 -30.5283 -30.5259 -30.5250 -30.5226
   -20.4236 -20.4236 -20.4236 -20.4236 -20.4235 -20.4235 -20.4235 -20.4235
   -20.4164 -20.4163 -20.4162 -20.4162 -20.4116 -20.4115 -20.4113 -20.4112
   -20.4093 -20.4092 -20.4084 -20.4084 -20.4083 -20.4082 -20.4078 -20.4076
   -20.4058 -20.4057 -20.4052 -20.4051 -20.4048 -20.4048 -20.4042 -20.4041
   -20.4012 -20.4010 -20.4009 -20.4008 -20.3993 -20.3992 -20.3989 -20.3988
   -20.3869 -20.3869 -20.3858 -20.3857 -20.3856 -20.3856 -20.3851 -20.3850
   -20.3841 -20.3841 -20.3830 -20.3830 -20.3819 -20.3819 -20.3812 -20.3811
    -9.8857  -9.6896  -9.5480  -9.5023  -9.3616  -9.2961  -9.0873  -8.9994
    -8.9669  -8.9267  -8.8894  -8.8521  -8.3349  -8.3185  -8.3163  -8.2743
    -8.0716  -8.0610  -8.0256  -8.0090  -8.0004  -7.9810  -7.9662  -7.9466
     1.3446   1.3477   1.4100   1.4164   1.4942   1.5006   1.5802   1.6107
     2.0884   2.1169   2.2083   2.2697   2.5316   2.5792   2.7452   2.7638
     2.8535   2.8793   3.6275   3.6724   3.7636   3.7873   3.8818   3.9536
     4.0205   4.0806   4.3727   4.4379   4.4563   4.5516   4.5707   4.6333
     4.7041   4.7788   4.8524   4.9717   5.0730   5.1117   5.1883   5.4644
     5.4865   5.5499   5.5863   5.6773   5.7445   5.7719   5.8778   5.9321
     6.1557   6.3357   6.3707   6.4314   6.4730   6.5253   6.5471   6.5977
     6.6306   6.7623   6.7762   6.8149   6.8963   6.9919   7.0442   7.0541
     7.1616   7.2148   7.7709   7.8072   7.8182   7.8448   7.9250   7.9366
    10.1275  10.1780  10.2877  10.3342  10.8031  10.8355  11.7551  11.7857
    12.1483  12.3129  12.3611  12.4059  12.4212  12.4319  12.5018  12.5742
    12.8641  12.9535  13.0671  13.1615  13.4090  13.4369  13.7396  13.7557
    14.4115  14.5406  15.0187  15.2534  15.3678  15.5729  15.6772  15.8175
    16.2686  16.8405  16.8557  17.1734  17.2329

          k = 0.1667 0.1608-0.4999 ( 63072 PWs)   bands (ev):

   -66.2705 -66.2705 -66.2701 -66.2701 -66.2699 -66.2699 -66.2695 -66.2695
   -30.6722 -30.6722 -30.6689 -30.6689 -30.6210 -30.6210 -30.6132 -30.6132
   -30.6033 -30.6033 -30.5953 -30.5953 -30.5652 -30.5652 -30.5636 -30.5636
   -30.5617 -30.5617 -30.5600 -30.5600 -30.5272 -30.5272 -30.5239 -30.5239
   -20.4236 -20.4236 -20.4236 -20.4236 -20.4236 -20.4236 -20.4236 -20.4235
   -20.4164 -20.4164 -20.4162 -20.4162 -20.4116 -20.4115 -20.4113 -20.4112
   -20.4093 -20.4093 -20.4084 -20.4084 -20.4083 -20.4083 -20.4078 -20.4078
   -20.4053 -20.4053 -20.4052 -20.4052 -20.4047 -20.4046 -20.4046 -20.4046
   -20.4011 -20.4010 -20.4008 -20.4008 -20.3992 -20.3992 -20.3989 -20.3989
   -20.3857 -20.3857 -20.3857 -20.3856 -20.3853 -20.3853 -20.3853 -20.3853
   -20.3843 -20.3843 -20.3843 -20.3843 -20.3815 -20.3815 -20.3815 -20.3815
    -9.7708  -9.7708  -9.4300  -9.4300  -9.3698  -9.3698  -8.9782  -8.9782
    -8.7257  -8.7256  -8.6718  -8.6717  -8.6434  -8.6434  -8.6114  -8.6114
    -8.0685  -8.0685  -8.0184  -8.0184  -7.9881  -7.9881  -7.9619  -7.9619
     1.3468   1.3468   1.4215   1.4215   1.5047   1.5047   1.6064   1.6064
     2.5434   2.5434   2.8019   2.8020   2.8802   2.8802   2.9942   2.9942
     3.0757   3.0757   3.2577   3.2577   3.3481   3.3481   3.6898   3.6899
     3.8020   3.8020   3.9894   3.9894   4.3848   4.3849   4.5843   4.5843
     4.7849   4.7849   4.8567   4.8567   4.9156   4.9156   5.3231   5.3231
     5.5577   5.5577   5.5765   5.5765   5.6742   5.6742   5.7624   5.7624
     6.2785   6.2785   6.4172   6.4172   6.4466   6.4466   6.5623   6.5623
     6.7312   6.7312   6.7795   6.7795   6.8979   6.8979   7.4671   7.4671
     7.5073   7.5074   7.5567   7.5567   7.5769   7.5769   7.9297   7.9297
    10.1700  10.1700  11.0429  11.0429  11.0824  11.0824  11.5706  11.5706
    11.6342  11.6342  12.3279  12.3280  12.6357  12.6357  12.6831  12.6831
    12.8342  12.8342  12.9735  12.9735  13.0856  13.0856  13.7440  13.7440
    14.5029  14.5029  15.4314  15.4314  15.6592  15.6592  15.7166  15.7166
    16.4717  16.4717  17.2915  17.2915  17.5527

          k = 0.1667 0.3215 0.0000 ( 63131 PWs)   bands (ev):

   -66.2708 -66.2706 -66.2702 -66.2701 -66.2699 -66.2698 -66.2694 -66.2692
   -30.6619 -30.6587 -30.6581 -30.6551 -30.6325 -30.6284 -30.6268 -30.6226
   -30.6114 -30.6102 -30.6047 -30.6043 -30.6022 -30.6001 -30.5967 -30.5953
   -30.5289 -30.5270 -30.5253 -30.5241 -30.5217 -30.5204 -30.5171 -30.5162
   -20.4237 -20.4237 -20.4236 -20.4236 -20.4235 -20.4235 -20.4235 -20.4234
   -20.4154 -20.4153 -20.4152 -20.4151 -20.4126 -20.4124 -20.4123 -20.4122
   -20.4090 -20.4089 -20.4084 -20.4083 -20.4081 -20.4080 -20.4077 -20.4075
   -20.4065 -20.4064 -20.4060 -20.4059 -20.4044 -20.4043 -20.4040 -20.4039
   -20.4013 -20.4011 -20.4010 -20.4009 -20.3994 -20.3991 -20.3991 -20.3989
   -20.3882 -20.3881 -20.3868 -20.3868 -20.3861 -20.3861 -20.3847 -20.3847
   -20.3828 -20.3827 -20.3823 -20.3823 -20.3816 -20.3816 -20.3808 -20.3808
    -9.9507  -9.7770  -9.6052  -9.5194  -9.4501  -9.3492  -9.0998  -9.0878
    -9.0308  -8.8616  -8.8408  -8.8407  -8.3672  -8.3152  -8.3063  -8.2846
    -8.0267  -8.0118  -7.9581  -7.9441  -7.9018  -7.8877  -7.8368  -7.8240
     1.0987   1.0990   1.1387   1.1412   1.3980   1.4084   1.5265   1.5613
     2.1141   2.2342   2.2583   2.3913   2.4605   2.5112   2.6667   2.7307
     2.7504   2.8117   3.4216   3.4319   3.4993   3.5034   3.9489   4.2203
     4.2332   4.2933   4.3131   4.5509   4.5866   4.6262   4.6750   4.6927
     4.8773   4.9228   5.0611   5.1907   5.2568   5.3089   5.4815   5.4867
     5.5452   5.5638   5.6368   5.7479   5.8896   5.9127   6.0075   6.1057
     6.1277   6.2680   6.3605   6.4364   6.5016   6.6681   6.7001   6.7763
     6.8069   6.8180   6.8521   6.8588   6.8817   6.9106   6.9260   6.9630
     6.9909   7.0279   7.6949   7.7127   7.7361   7.7457   8.0207   8.0250
     9.3903   9.3940  10.4045  10.4678  10.6167  10.6715  11.6891  11.7586
    11.8232  11.8714  12.1980  12.2074  12.4122  12.4279  12.9681  13.0119
    13.2405  13.3047  13.3281  13.3612  13.5769  13.5947  13.7292  13.7411
    14.5487  14.7776  14.7918  14.8470  15.1087  15.3873  15.5198  15.7519
    15.7887  16.8355  17.0331  17.1586  17.7009

          k = 0.1667 0.3215 0.1666 ( 63087 PWs)   bands (ev):

   -66.2708 -66.2705 -66.2701 -66.2701 -66.2699 -66.2699 -66.2695 -66.2692
   -30.6618 -30.6590 -30.6581 -30.6554 -30.6322 -30.6287 -30.6266 -30.6229
   -30.6067 -30.6065 -30.6004 -30.6001 -30.5993 -30.5979 -30.5956 -30.5948
   -30.5288 -30.5279 -30.5274 -30.5265 -30.5259 -30.5255 -30.5212 -30.5208
   -20.4237 -20.4236 -20.4236 -20.4236 -20.4235 -20.4235 -20.4235 -20.4235
   -20.4154 -20.4153 -20.4152 -20.4151 -20.4126 -20.4125 -20.4123 -20.4122
   -20.4091 -20.4089 -20.4085 -20.4084 -20.4082 -20.4080 -20.4078 -20.4076
   -20.4062 -20.4062 -20.4058 -20.4057 -20.4045 -20.4044 -20.4041 -20.4040
   -20.4012 -20.4010 -20.4010 -20.4009 -20.3993 -20.3991 -20.3991 -20.3989
   -20.3878 -20.3878 -20.3865 -20.3865 -20.3860 -20.3860 -20.3848 -20.3848
   -20.3831 -20.3831 -20.3822 -20.3822 -20.3819 -20.3819 -20.3809 -20.3809
    -9.9012  -9.7217  -9.5343  -9.5329  -9.3647  -9.3602  -9.0648  -9.0545
    -9.0404  -8.8444  -8.8439  -8.8344  -8.3742  -8.3144  -8.3123  -8.2883
    -8.0229  -8.0222  -8.0075  -8.0042  -7.9785  -7.9627  -7.9413  -7.9291
     1.2753   1.2758   1.3890   1.3962   1.4019   1.4109   1.5986   1.6444
     2.1172   2.2331   2.2426   2.3772   2.5459   2.5998   2.7475   2.7616
     2.8069   2.8288   3.4516   3.4533   3.4938   3.5200   3.9420   4.2488
     4.2654   4.2967   4.3027   4.3482   4.3636   4.5588   4.5746   4.6535
     4.6986   4.7080   5.0129   5.0442   5.2275   5.2484   5.2726   5.2796
     5.5260   5.5360   5.5438   5.5545   5.6439   5.6521   6.2272   6.2380
     6.3037   6.3689   6.3869   6.4958   6.5392   6.5871   6.6587   6.6866
     6.7716   6.7839   6.8356   6.8502   6.9026   6.9312   6.9443   6.9714
     7.0438   7.0951   7.6911   7.7022   7.7092   7.7288   7.9780   7.9838
     9.6495   9.6570  10.5725  10.6204  10.6695  10.6749  11.7730  11.8198
    11.8576  11.8690  12.2448  12.2546  12.2677  12.2743  12.9786  12.9986
    13.0694  13.0976  13.2708  13.3576  13.5220  13.5537  13.5735  13.6476
    14.7408  14.9466  14.9637  15.0856  15.1099  15.5875  15.7590  15.7716
    15.8786  16.8000  17.1038  17.2174  17.2193

          k = 0.1667 0.3215 0.3332 ( 63050 PWs)   bands (ev):

   -66.2706 -66.2704 -66.2703 -66.2700 -66.2700 -66.2697 -66.2696 -66.2694
   -30.6614 -30.6597 -30.6578 -30.6561 -30.6315 -30.6294 -30.6259 -30.6237
   -30.6038 -30.6011 -30.6005 -30.5967 -30.5858 -30.5856 -30.5825 -30.5821
   -30.5437 -30.5424 -30.5404 -30.5391 -30.5277 -30.5257 -30.5252 -30.5234
   -20.4236 -20.4236 -20.4236 -20.4236 -20.4235 -20.4235 -20.4235 -20.4235
   -20.4154 -20.4153 -20.4152 -20.4152 -20.4126 -20.4125 -20.4123 -20.4123
   -20.4091 -20.4090 -20.4086 -20.4085 -20.4082 -20.4081 -20.4079 -20.4077
   -20.4057 -20.4056 -20.4053 -20.4053 -20.4047 -20.4047 -20.4044 -20.4043
   -20.4011 -20.4010 -20.4010 -20.4009 -20.3993 -20.3991 -20.3990 -20.3989
   -20.3869 -20.3869 -20.3858 -20.3857 -20.3856 -20.3856 -20.3851 -20.3850
   -20.3841 -20.3841 -20.3830 -20.3830 -20.3819 -20.3819 -20.3812 -20.3811
    -9.7821  -9.5916  -9.5770  -9.3965  -9.3532  -9.1227  -9.0771  -8.9609
    -8.9324  -8.8541  -8.7993  -8.7741  -8.4547  -8.3922  -8.3099  -8.3048
    -8.2965  -8.2660  -8.2321  -8.1909  -8.0079  -7.9933  -7.9708  -7.9574
     1.4006   1.4036   1.4106   1.4162   1.9875   2.0486   2.0835   2.1326
     2.2032   2.2433   2.2758   2.4407   2.7488   2.7711   2.8176   2.8723
     2.9863   3.0257   3.4387   3.4603   3.4813   3.5443   3.7630   3.8039
     3.9309   4.1253   4.1970   4.2196   4.2671   4.4200   4.4393   4.5366
     4.5511   4.6380   4.6700   4.7155   4.7524   4.7802   4.9939   5.0436
     5.1575   5.1828   5.3076   5.4940   5.5714   5.6526   5.9129   5.9297
     6.3874   6.4927   6.5308   6.6303   6.6448   6.6566   6.7581   6.7838
     6.8173   6.8712   6.8851   6.9082   6.9578   7.0325   7.0616   7.0957
     7.1661   7.1964   7.6130   7.6231   7.6875   7.7089   7.8274   7.8454
    10.2762  10.2881  10.6339  10.6643  11.1122  11.1507  11.7333  11.7690
    11.8298  11.9087  12.0747  12.1133  12.4050  12.4566  12.5266  12.5575
    12.9034  12.9894  13.0213  13.1564  13.1988  13.2541  13.5346  13.5630
    14.9162  15.0646  15.3357  15.6123  15.7024  15.7704  15.8696  16.3322
    16.6154  16.6727  16.7274  17.3386  17.3881

          k = 0.1667 0.3215-0.4999 ( 63062 PWs)   bands (ev):

   -66.2704 -66.2704 -66.2702 -66.2702 -66.2698 -66.2698 -66.2696 -66.2696
   -30.6606 -30.6606 -30.6571 -30.6571 -30.6305 -30.6305 -30.6248 -30.6248
   -30.6023 -30.6023 -30.5982 -30.5982 -30.5651 -30.5651 -30.5641 -30.5641
   -30.5616 -30.5616 -30.5605 -30.5605 -30.5266 -30.5265 -30.5246 -30.5246
   -20.4236 -20.4236 -20.4236 -20.4236 -20.4236 -20.4235 -20.4235 -20.4235
   -20.4154 -20.4154 -20.4152 -20.4152 -20.4126 -20.4125 -20.4123 -20.4123
   -20.4091 -20.4091 -20.4086 -20.4086 -20.4082 -20.4082 -20.4079 -20.4079
   -20.4052 -20.4052 -20.4051 -20.4051 -20.4048 -20.4048 -20.4047 -20.4047
   -20.4010 -20.4010 -20.4009 -20.4009 -20.3992 -20.3992 -20.3990 -20.3989
   -20.3857 -20.3857 -20.3857 -20.3856 -20.3853 -20.3853 -20.3853 -20.3853
   -20.3843 -20.3843 -20.3843 -20.3843 -20.3815 -20.3815 -20.3815 -20.3815
    -9.6600  -9.6600  -9.4696  -9.4696  -9.1710  -9.1710  -8.8781  -8.8781
    -8.7736  -8.7736  -8.6867  -8.6866  -8.6232  -8.6231  -8.5840  -8.5840
    -8.3002  -8.3002  -8.2699  -8.2699  -7.9898  -7.9898  -7.9755  -7.9755
     1.4096   1.4096   1.4210   1.4210   2.1247   2.1247   2.2360   2.2360
     2.7443   2.7443   2.8763   2.8763   2.9390   2.9390   3.0011   3.0012
     3.0568   3.0568   3.2638   3.2638   3.3252   3.3252   3.4971   3.4971
     3.9253   3.9254   3.9431   3.9431   3.9670   3.9670   4.2058   4.2058
     4.5953   4.5953   4.6907   4.6907   4.8217   4.8217   4.8611   4.8611
     4.9341   4.9342   5.3834   5.3834   5.6658   5.6658   5.6991   5.6991
     6.5145   6.5145   6.6214   6.6214   6.6812   6.6812   6.7045   6.7045
     6.8328   6.8328   6.8963   6.8963   7.0396   7.0396   7.4064   7.4064
     7.4430   7.4430   7.4893   7.4893   7.5400   7.5401   7.7283   7.7283
    10.6253  10.6253  11.0469  11.0470  11.0879  11.0879  11.7181  11.7181
    11.8352  11.8352  11.9585  11.9585  12.4999  12.4999  12.5254  12.5254
    12.7250  12.7250  12.7995  12.7995  13.1167  13.1167  13.5404  13.5405
    15.0126  15.0126  15.5722  15.5722  16.1265  16.1265  16.3622  16.3622
    16.6967  16.6967  16.9204  16.9204  17.5797

          k = 0.1667-0.4823 0.0000 ( 63118 PWs)   bands (ev):

   -66.2707 -66.2707 -66.2701 -66.2700 -66.2700 -66.2699 -66.2693 -66.2693
   -30.6466 -30.6466 -30.6431 -30.6431 -30.6421 -30.6421 -30.6389 -30.6388
   -30.6108 -30.6108 -30.6048 -30.6048 -30.6005 -30.6005 -30.5978 -30.5978
   -30.5280 -30.5279 -30.5247 -30.5247 -30.5211 -30.5211 -30.5167 -30.5167
   -20.4237 -20.4237 -20.4236 -20.4236 -20.4235 -20.4235 -20.4235 -20.4234
   -20.4140 -20.4140 -20.4139 -20.4138 -20.4138 -20.4137 -20.4137 -20.4136
   -20.4087 -20.4087 -20.4086 -20.4086 -20.4079 -20.4079 -20.4077 -20.4077
   -20.4063 -20.4062 -20.4062 -20.4062 -20.4042 -20.4042 -20.4041 -20.4041
   -20.4012 -20.4012 -20.4009 -20.4009 -20.3992 -20.3992 -20.3990 -20.3990
   -20.3882 -20.3881 -20.3868 -20.3868 -20.3861 -20.3861 -20.3847 -20.3847
   -20.3828 -20.3827 -20.3823 -20.3823 -20.3816 -20.3816 -20.3808 -20.3808
    -9.8516  -9.8516  -9.5102  -9.5102  -9.4135  -9.4135  -9.0935  -9.0935
    -8.7078  -8.7078  -8.6232  -8.6232  -8.6114  -8.6113  -8.5998  -8.5997
    -8.0202  -8.0202  -7.9520  -7.9519  -7.8949  -7.8949  -7.8305  -7.8305
     1.0991   1.0991   1.1409   1.1409   1.4059   1.4059   1.5535   1.5535
     2.4862   2.4862   2.9158   2.9158   2.9771   2.9771   3.0187   3.0187
     3.0687   3.0687   3.0927   3.0927   3.2711   3.2712   3.3307   3.3307
     3.4777   3.4777   4.2524   4.2524   4.6223   4.6223   4.8535   4.8535
     4.9582   4.9582   5.0651   5.0652   5.1996   5.1996   5.3493   5.3493
     5.5629   5.5629   5.5818   5.5818   5.9173   5.9173   6.0750   6.0750
     6.2883   6.2883   6.3225   6.3225   6.5559   6.5559   6.7339   6.7340
     6.8465   6.8466   6.9051   6.9051   6.9455   6.9455   7.3271   7.3271
     7.3521   7.3521   7.3577   7.3577   7.3687   7.3687   8.0228   8.0228
     9.3932   9.3932  11.0681  11.0681  11.1239  11.1239  11.2276  11.2276
    11.2883  11.2883  12.2035  12.2035  12.4209  12.4209  13.0823  13.0823
    13.2694  13.2694  13.4448  13.4448  13.4863  13.4863  13.5221  13.5221
    14.7679  14.7679  15.1741  15.1741  15.1798  15.1798  15.5443  15.5443
    16.3834  16.3834  17.5618  17.5619  17.6206

          k = 0.1667-0.4823 0.1666 ( 63104 PWs)   bands (ev):

   -66.2707 -66.2706 -66.2700 -66.2700 -66.2700 -66.2700 -66.2694 -66.2694
   -30.6465 -30.6465 -30.6434 -30.6434 -30.6421 -30.6421 -30.6391 -30.6391
   -30.6065 -30.6065 -30.6000 -30.5999 -30.5985 -30.5984 -30.5971 -30.5971
   -30.5280 -30.5279 -30.5273 -30.5273 -30.5257 -30.5257 -30.5212 -30.5212
   -20.4237 -20.4236 -20.4236 -20.4236 -20.4235 -20.4235 -20.4235 -20.4235
   -20.4140 -20.4140 -20.4139 -20.4139 -20.4138 -20.4138 -20.4137 -20.4137
   -20.4088 -20.4088 -20.4087 -20.4087 -20.4080 -20.4080 -20.4078 -20.4078
   -20.4060 -20.4060 -20.4060 -20.4060 -20.4043 -20.4043 -20.4042 -20.4042
   -20.4011 -20.4011 -20.4009 -20.4009 -20.3992 -20.3992 -20.3990 -20.3990
   -20.3878 -20.3878 -20.3865 -20.3865 -20.3860 -20.3860 -20.3848 -20.3848
   -20.3831 -20.3831 -20.3822 -20.3822 -20.3819 -20.3819 -20.3809 -20.3809
    -9.7984  -9.7983  -9.4291  -9.4289  -9.4258  -9.4258  -9.0596  -9.0596
    -8.7172  -8.7171  -8.6172  -8.6164  -8.6161  -8.6158  -8.5972  -8.5972
    -8.0194  -8.0191  -8.0108  -8.0106  -7.9723  -7.9719  -7.9355  -7.9353
     1.2752   1.2757   1.3952   1.3961   1.4085   1.4088   1.6347   1.6349
     2.5711   2.5718   2.9255   2.9267   2.9746   2.9812   3.0192   3.0217
     3.0773   3.0806   3.1180   3.1279   3.3161   3.3220   3.3274   3.3330
     3.4971   3.4988   4.3001   4.3080   4.3272   4.3370   4.7966   4.8125
     4.8626   4.8726   4.9520   4.9659   4.9832   4.9936   5.3025   5.3097
[...]
    11.8481  11.8481  11.8481  11.8481  11.9429  11.9429  11.9429  11.9429
    12.8630  12.8630  12.8630  12.8630  13.0107  13.0107  13.0107  13.0107
    15.2145  15.2145  15.2145  15.2145  16.4618  16.4618  16.4619  16.4619
    17.4326  17.4326  17.4326  17.4326  17.6362

          k =-0.5000 0.3215 0.0000 ( 63046 PWs)   bands (ev):

   -66.2705 -66.2705 -66.2703 -66.2702 -66.2698 -66.2697 -66.2695 -66.2695
   -30.6601 -30.6601 -30.6570 -30.6570 -30.6291 -30.6291 -30.6250 -30.6250
   -30.6071 -30.6071 -30.6065 -30.6065 -30.5663 -30.5663 -30.5641 -30.5641
   -30.5619 -30.5619 -30.5600 -30.5600 -30.5198 -30.5198 -30.5185 -30.5185
   -20.4237 -20.4236 -20.4236 -20.4236 -20.4235 -20.4235 -20.4235 -20.4235
   -20.4153 -20.4153 -20.4152 -20.4152 -20.4125 -20.4125 -20.4124 -20.4124
   -20.4086 -20.4085 -20.4084 -20.4084 -20.4080 -20.4080 -20.4079 -20.4079
   -20.4065 -20.4065 -20.4060 -20.4060 -20.4043 -20.4043 -20.4039 -20.4039
   -20.4002 -20.4002 -20.3999 -20.3999 -20.3999 -20.3999 -20.3998 -20.3998
   -20.3875 -20.3875 -20.3875 -20.3875 -20.3843 -20.3843 -20.3843 -20.3843
   -20.3829 -20.3829 -20.3828 -20.3828 -20.3821 -20.3821 -20.3821 -20.3821
    -9.7267  -9.7267  -9.5529  -9.5529  -9.1589  -9.1588  -8.9026  -8.9026
    -8.7574  -8.7574  -8.6951  -8.6951  -8.6261  -8.6261  -8.5801  -8.5801
    -8.2994  -8.2994  -8.2651  -8.2651  -7.8695  -7.8695  -7.8561  -7.8561
     1.1465   1.1465   1.1512   1.1512   2.1200   2.1200   2.2532   2.2532
     2.6871   2.6871   2.8538   2.8539   2.9423   2.9423   3.0058   3.0058
     3.0791   3.0791   3.1981   3.1981   3.2115   3.2115   3.4453   3.4453
     3.9121   3.9121   3.9197   3.9197   4.0129   4.0129   4.2144   4.2144
     4.6911   4.6911   4.7853   4.7853   4.9285   4.9285   5.0723   5.0723
     5.1997   5.1997   5.6153   5.6153   6.0514   6.0514   6.0865   6.0865
     6.3054   6.3054   6.3729   6.3729   6.4169   6.4169   6.6507   6.6507
     6.8280   6.8280   6.8858   6.8858   6.9747   6.9747   7.4065   7.4065
     7.4402   7.4402   7.4922   7.4922   7.5390   7.5390   7.7597   7.7597
    10.4325  10.4325  10.9588  10.9588  10.9873  10.9874  11.6218  11.6218
    11.8223  11.8223  11.9297  11.9297  12.5248  12.5248  12.5667  12.5667
    12.8656  12.8656  12.9211  12.9211  13.3172  13.3172  13.7344  13.7344
    14.7074  14.7074  15.2050  15.2050  16.0496  16.0496  16.3619  16.3619
    16.6057  16.6057  16.8702  16.8702  17.7247

          k =-0.5000 0.3215 0.1666 ( 63066 PWs)   bands (ev):

   -66.2704 -66.2704 -66.2702 -66.2702 -66.2698 -66.2698 -66.2696 -66.2696
   -30.6601 -30.6601 -30.6573 -30.6573 -30.6289 -30.6289 -30.6253 -30.6253
   -30.6014 -30.6014 -30.6006 -30.6006 -30.5659 -30.5659 -30.5639 -30.5639
   -30.5621 -30.5621 -30.5604 -30.5604 -30.5256 -30.5256 -30.5243 -30.5243
   -20.4236 -20.4236 -20.4236 -20.4236 -20.4235 -20.4235 -20.4235 -20.4235
   -20.4154 -20.4154 -20.4153 -20.4153 -20.4125 -20.4125 -20.4124 -20.4124
   -20.4086 -20.4086 -20.4085 -20.4085 -20.4081 -20.4081 -20.4080 -20.4080
   -20.4062 -20.4062 -20.4058 -20.4058 -20.4044 -20.4044 -20.4040 -20.4040
   -20.4002 -20.4001 -20.4000 -20.4000 -20.3999 -20.3999 -20.3998 -20.3998
   -20.3872 -20.3872 -20.3872 -20.3872 -20.3842 -20.3842 -20.3842 -20.3842
   -20.3830 -20.3830 -20.3830 -20.3830 -20.3825 -20.3825 -20.3825 -20.3824
    -9.6614  -9.6614  -9.4733  -9.4733  -9.1722  -9.1722  -8.8804  -8.8804
    -8.7711  -8.7711  -8.6858  -8.6858  -8.6216  -8.6216  -8.5834  -8.5834
    -8.2984  -8.2984  -8.2697  -8.2697  -7.9881  -7.9881  -7.9732  -7.9732
     1.3986   1.3986   1.4087   1.4087   2.1232   2.1232   2.2358   2.2358
     2.7657   2.7657   2.8628   2.8628   2.9291   2.9291   3.0043   3.0043
     3.0673   3.0673   3.2817   3.2817   3.3135   3.3135   3.4864   3.4864
     3.9086   3.9086   3.9239   3.9239   4.0083   4.0083   4.2211   4.2211
     4.5894   4.5894   4.6741   4.6741   4.8255   4.8255   4.8645   4.8645
     4.9350   4.9350   5.3868   5.3868   5.6654   5.6654   5.7019   5.7019
     6.5190   6.5190   6.6359   6.6359   6.6881   6.6881   6.7090   6.7090
     6.8186   6.8186   6.8910   6.8910   7.0339   7.0340   7.4028   7.4028
     7.4401   7.4401   7.4980   7.4980   7.5406   7.5406   7.7365   7.7365
    10.6098  10.6098  11.0418  11.0418  11.0775  11.0775  11.6774  11.6774
    11.8314  11.8314  11.9664  11.9664  12.5087  12.5087  12.5520  12.5520
    12.7350  12.7350  12.8203  12.8203  13.1290  13.1290  13.5682  13.5682
    15.0042  15.0042  15.5621  15.5621  16.1265  16.1265  16.3541  16.3541
    16.6684  16.6684  16.9222  16.9222  17.5665

          k =-0.5000 0.3215 0.3332 ( 63044 PWs)   bands (ev):

   -66.2703 -66.2703 -66.2701 -66.2701 -66.2699 -66.2699 -66.2697 -66.2697
   -30.6597 -30.6597 -30.6580 -30.6580 -30.6282 -30.6282 -30.6261 -30.6261
   -30.5861 -30.5861 -30.5849 -30.5849 -30.5650 -30.5650 -30.5640 -30.5640
   -30.5619 -30.5619 -30.5614 -30.5614 -30.5410 -30.5410 -30.5400 -30.5400
   -20.4236 -20.4236 -20.4236 -20.4236 -20.4235 -20.4235 -20.4235 -20.4235
   -20.4154 -20.4154 -20.4153 -20.4153 -20.4125 -20.4125 -20.4125 -20.4125
   -20.4087 -20.4087 -20.4086 -20.4086 -20.4083 -20.4082 -20.4081 -20.4081
   -20.4057 -20.4057 -20.4053 -20.4053 -20.4047 -20.4047 -20.4043 -20.4043
   -20.4001 -20.4001 -20.4000 -20.4000 -20.3998 -20.3998 -20.3998 -20.3998
   -20.3863 -20.3863 -20.3863 -20.3862 -20.3840 -20.3840 -20.3840 -20.3840
   -20.3835 -20.3835 -20.3835 -20.3835 -20.3831 -20.3831 -20.3831 -20.3831
    -9.4966  -9.4966  -9.2560  -9.2560  -9.2191  -9.2191  -8.8298  -8.8298
    -8.7931  -8.7931  -8.6526  -8.6526  -8.6086  -8.6086  -8.5922  -8.5922
    -8.3361  -8.3361  -8.2811  -8.2811  -8.2724  -8.2724  -8.2119  -8.2119
     2.0042   2.0042   2.0917   2.0917   2.1350   2.1350   2.2620   2.2620
     2.8455   2.8456   2.9047   2.9047   2.9648   2.9648   3.0129   3.0129
     3.0706   3.0707   3.4277   3.4277   3.5650   3.5651   3.6105   3.6105
     3.8867   3.8867   3.9433   3.9433   3.9950   3.9950   4.1233   4.1233
     4.1772   4.1772   4.3492   4.3493   4.4647   4.4647   4.7066   4.7066
     4.7765   4.7765   4.8408   4.8408   4.8862   4.8862   5.1570   5.1570
     6.7176   6.7176   6.7632   6.7632   6.8085   6.8086   6.8661   6.8661
     7.0259   7.0259   7.0948   7.0948   7.2328   7.2328   7.3829   7.3829
     7.4228   7.4228   7.5132   7.5132   7.5245   7.5245   7.6677   7.6677
    11.0783  11.0783  11.3023  11.3023  11.3700  11.3700  11.7506  11.7506
    11.8626  11.8626  12.1451  12.1451  12.2688  12.2688  12.3127  12.3127
    12.5781  12.5781  12.6441  12.6441  12.6708  12.6709  13.1430  13.1430
    15.6803  15.6803  16.2841  16.2841  16.3370  16.3370  16.4838  16.4838
    16.9229  16.9229  17.0328  17.0328  17.2166

          k =-0.5000 0.3215-0.4999 ( 63052 PWs)   bands (ev):

   -66.2701 -66.2701 -66.2701 -66.2701 -66.2699 -66.2699 -66.2699 -66.2699
   -30.6590 -30.6590 -30.6590 -30.6589 -30.6272 -30.6272 -30.6272 -30.6272
   -30.5681 -30.5681 -30.5681 -30.5681 -30.5665 -30.5664 -30.5664 -30.5664
   -30.5598 -30.5598 -30.5598 -30.5598 -30.5578 -30.5578 -30.5578 -30.5578
   -20.4236 -20.4236 -20.4236 -20.4236 -20.4236 -20.4236 -20.4235 -20.4235
   -20.4153 -20.4153 -20.4153 -20.4153 -20.4125 -20.4125 -20.4125 -20.4125
   -20.4087 -20.4086 -20.4086 -20.4086 -20.4082 -20.4082 -20.4082 -20.4082
   -20.4052 -20.4051 -20.4051 -20.4051 -20.4047 -20.4047 -20.4047 -20.4047
   -20.4000 -20.4000 -20.4000 -20.4000 -20.3998 -20.3998 -20.3998 -20.3998
   -20.3850 -20.3850 -20.3850 -20.3850 -20.3850 -20.3849 -20.3849 -20.3849
   -20.3836 -20.3835 -20.3835 -20.3835 -20.3835 -20.3835 -20.3835 -20.3835
    -9.3240  -9.3240  -9.3240  -9.3240  -8.9872  -8.9872  -8.9872  -8.9872
    -8.6415  -8.6415  -8.6415  -8.6415  -8.5547  -8.5547  -8.5547  -8.5547
    -8.5404  -8.5404  -8.5404  -8.5404  -8.2682  -8.2682  -8.2682  -8.2681
     2.1374   2.1374   2.1374   2.1374   2.7823   2.7823   2.7823   2.7823
     2.8899   2.8899   2.8899   2.8899   2.9836   2.9836   2.9836   2.9836
     3.0866   3.0866   3.0866   3.0866   3.8216   3.8216   3.8216   3.8216
     3.8785   3.8786   3.8786   3.8786   3.9481   3.9481   3.9481   3.9481
     4.1173   4.1173   4.1173   4.1173   4.1857   4.1857   4.1858   4.1858
     4.5833   4.5833   4.5833   4.5833   4.9031   4.9031   4.9031   4.9031
     6.7799   6.7799   6.7800   6.7800   6.8359   6.8359   6.8359   6.8359
     7.2848   7.2848   7.2848   7.2848   7.3221   7.3221   7.3221   7.3221
     7.4405   7.4405   7.4405   7.4405   7.5702   7.5702   7.5702   7.5702
    11.6182  11.6182  11.6182  11.6182  11.6687  11.6687  11.6687  11.6687
    11.9035  11.9035  11.9035  11.9035  12.0421  12.0421  12.0421  12.0421
    12.5335  12.5335  12.5335  12.5335  12.6934  12.6934  12.6934  12.6934
    16.1456  16.1456  16.1456  16.1456  16.6698  16.6698  16.6698  16.6698
    17.1766  17.1766  17.1766  17.1766  17.6402

          k =-0.5000-0.4823 0.0000 ( 63088 PWs)   bands (ev):

   -66.2704 -66.2704 -66.2704 -66.2704 -66.2696 -66.2696 -66.2696 -66.2696
   -30.6445 -30.6445 -30.6440 -30.6440 -30.6412 -30.6412 -30.6407 -30.6407
   -30.6071 -30.6071 -30.6071 -30.6071 -30.5655 -30.5655 -30.5649 -30.5649
   -30.5615 -30.5615 -30.5609 -30.5609 -30.5192 -30.5192 -30.5192 -30.5192
   -20.4236 -20.4236 -20.4236 -20.4236 -20.4235 -20.4235 -20.4235 -20.4235
   -20.4140 -20.4140 -20.4139 -20.4139 -20.4139 -20.4139 -20.4138 -20.4138
   -20.4083 -20.4083 -20.4083 -20.4083 -20.4082 -20.4082 -20.4082 -20.4082
   -20.4062 -20.4062 -20.4062 -20.4062 -20.4041 -20.4041 -20.4041 -20.4041
   -20.4001 -20.4001 -20.4000 -20.4000 -20.3999 -20.3999 -20.3998 -20.3998
   -20.3875 -20.3875 -20.3875 -20.3875 -20.3843 -20.3843 -20.3843 -20.3843
   -20.3829 -20.3829 -20.3829 -20.3828 -20.3821 -20.3821 -20.3821 -20.3821
    -9.6254  -9.6254  -9.6214  -9.6213  -8.9183  -8.9183  -8.8994  -8.8994
    -8.7638  -8.7638  -8.7488  -8.7488  -8.5480  -8.5480  -8.5206  -8.5206
    -8.5072  -8.5071  -8.4809  -8.4809  -7.8630  -7.8630  -7.8629  -7.8629
     1.1484   1.1484   1.1515   1.1515   2.7817   2.7817   2.8475   2.8475
     2.9103   2.9103   2.9345   2.9345   2.9910   2.9910   2.9996   2.9996
     3.1617   3.1617   3.1707   3.1707   3.1970   3.1971   3.2751   3.2751
     3.2820   3.2820   3.4799   3.4799   4.1647   4.1647   4.2111   4.2111
     4.2413   4.2413   4.3043   4.3043   5.0058   5.0059   5.0361   5.0361
     5.3108   5.3108   5.3613   5.3614   6.0805   6.0805   6.0850   6.0850
     6.3816   6.3816   6.3878   6.3878   6.4869   6.4869   6.5161   6.5161
     7.1340   7.1340   7.1742   7.1743   7.2133   7.2133   7.2718   7.2718
     7.3026   7.3026   7.3541   7.3541   7.5587   7.5587   7.5634   7.5634
    10.9289  10.9289  10.9634  10.9634  11.1032  11.1032  11.1428  11.1428
    12.0724  12.0724  12.1379  12.1379  12.2123  12.2123  12.2325  12.2325
    12.8816  12.8816  12.8831  12.8831  13.4834  13.4834  13.5008  13.5008
    15.0273  15.0273  15.0364  15.0364  16.4301  16.4301  16.5048  16.5048
    17.2408  17.2410  17.2869  17.2870  17.3340

          k =-0.5000-0.4823 0.1666 ( 63072 PWs)   bands (ev):

   -66.2703 -66.2703 -66.2703 -66.2703 -66.2697 -66.2697 -66.2697 -66.2697
   -30.6444 -30.6444 -30.6440 -30.6440 -30.6415 -30.6415 -30.6410 -30.6410
   -30.6013 -30.6013 -30.6012 -30.6012 -30.5652 -30.5652 -30.5646 -30.5646
   -30.5618 -30.5618 -30.5612 -30.5612 -30.5250 -30.5250 -30.5250 -30.5250
   -20.4236 -20.4236 -20.4236 -20.4236 -20.4235 -20.4235 -20.4235 -20.4235
   -20.4140 -20.4140 -20.4139 -20.4139 -20.4139 -20.4139 -20.4138 -20.4138
   -20.4084 -20.4084 -20.4084 -20.4084 -20.4082 -20.4082 -20.4082 -20.4082
   -20.4060 -20.4060 -20.4060 -20.4060 -20.4042 -20.4042 -20.4042 -20.4042
   -20.4001 -20.4001 -20.4000 -20.4000 -20.3999 -20.3999 -20.3998 -20.3998
   -20.3872 -20.3872 -20.3872 -20.3872 -20.3842 -20.3842 -20.3842 -20.3842
   -20.3830 -20.3830 -20.3830 -20.3830 -20.3825 -20.3825 -20.3825 -20.3824
    -9.5510  -9.5510  -9.5464  -9.5464  -8.9332  -8.9332  -8.9146  -8.9146
    -8.7493  -8.7493  -8.7342  -8.7342  -8.5457  -8.5457  -8.5194  -8.5194
    -8.5083  -8.5083  -8.4835  -8.4835  -7.9813  -7.9813  -7.9812  -7.9811
     1.4044   1.4044   1.4082   1.4082   2.7870   2.7870   2.8506   2.8506
     2.8977   2.8977   2.9023   2.9023   3.0161   3.0161   3.0310   3.0310
     3.1563   3.1563   3.2136   3.2136   3.2793   3.2793   3.3255   3.3255
     3.3465   3.3465   3.5132   3.5132   4.1688   4.1689   4.2104   4.2104
     4.2355   4.2355   4.2967   4.2967   4.7219   4.7220   4.8373   4.8373
     5.0103   5.0103   5.1194   5.1194   5.6691   5.6691   5.6789   5.6789
     6.6064   6.6064   6.6599   6.6599   6.6925   6.6925   6.7331   6.7331
     7.1291   7.1291   7.1671   7.1671   7.2357   7.2357   7.2569   7.2569
     7.3017   7.3018   7.3634   7.3634   7.5473   7.5473   7.5703   7.5703
    11.0104  11.0104  11.0468  11.0468  11.2210  11.2210  11.2770  11.2770
    12.0775  12.0775  12.1387  12.1387  12.2120  12.2120  12.2336  12.2336
    12.7195  12.7195  12.7857  12.7857  13.2896  13.2896  13.3356  13.3356
    15.3658  15.3658  15.3857  15.3857  16.5082  16.5082  16.5782  16.5782
    17.2368  17.2368  17.2983  17.2986  17.3269

          k =-0.5000-0.4823 0.3332 ( 63056 PWs)   bands (ev):

   -66.2702 -66.2702 -66.2702 -66.2702 -66.2698 -66.2698 -66.2698 -66.2698
   -30.6440 -30.6440 -30.6436 -30.6436 -30.6422 -30.6422 -30.6417 -30.6417
   -30.5856 -30.5856 -30.5855 -30.5855 -30.5643 -30.5643 -30.5638 -30.5637
   -30.5627 -30.5626 -30.5621 -30.5620 -30.5406 -30.5406 -30.5405 -30.5405
   -20.4236 -20.4236 -20.4236 -20.4236 -20.4235 -20.4235 -20.4235 -20.4235
   -20.4140 -20.4140 -20.4139 -20.4139 -20.4139 -20.4139 -20.4138 -20.4138
   -20.4085 -20.4085 -20.4085 -20.4085 -20.4083 -20.4083 -20.4083 -20.4083
   -20.4055 -20.4055 -20.4055 -20.4055 -20.4045 -20.4045 -20.4045 -20.4045
   -20.4000 -20.4000 -20.4000 -20.4000 -20.3999 -20.3998 -20.3998 -20.3998
   -20.3863 -20.3863 -20.3863 -20.3862 -20.3840 -20.3840 -20.3840 -20.3840
   -20.3835 -20.3835 -20.3835 -20.3835 -20.3831 -20.3831 -20.3831 -20.3831
    -9.3537  -9.3537  -9.3467  -9.3467  -8.9890  -8.9890  -8.9718  -8.9717
    -8.6943  -8.6943  -8.6802  -8.6802  -8.5395  -8.5395  -8.5221  -8.5220
    -8.5055  -8.5055  -8.4909  -8.4909  -8.2631  -8.2631  -8.2623  -8.2623
     2.0773   2.0773   2.0848   2.0848   2.8000   2.8000   2.8387   2.8387
     2.8826   2.8826   2.8838   2.8838   3.0374   3.0374   3.0653   3.0653
     3.1806   3.1806   3.2294   3.2294   3.4161   3.4161   3.4252   3.4252
     3.6057   3.6057   3.6711   3.6711   4.1648   4.1648   4.1704   4.1704
     4.2025   4.2025   4.2482   4.2482   4.3260   4.3260   4.4100   4.4101
     4.5363   4.5363   4.6451   4.6451   4.8710   4.8710   4.8818   4.8818
     6.8814   6.8814   6.9530   6.9530   7.0097   7.0097   7.0245   7.0245
     7.1190   7.1190   7.1749   7.1749   7.2236   7.2236   7.2513   7.2513
     7.3441   7.3441   7.4038   7.4038   7.5252   7.5252   7.5539   7.5539
    11.2781  11.2781  11.3087  11.3087  11.5727  11.5727  11.6419  11.6419
    12.0570  12.0570  12.1363  12.1363  12.1814  12.1814  12.2203  12.2203
    12.3477  12.3477  12.4754  12.4754  12.8089  12.8089  12.8782  12.8782
    16.1955  16.1955  16.2512  16.2512  16.7530  16.7530  16.7939  16.7939
    17.1395  17.1395  17.2647  17.2648  17.3293

          k =-0.5000-0.4823-0.4999 ( 63024 PWs)   bands (ev):

   -66.2700 -66.2700 -66.2700 -66.2700 -66.2700 -66.2700 -66.2700 -66.2700
   -30.6432 -30.6432 -30.6432 -30.6432 -30.6427 -30.6427 -30.6427 -30.6427
   -30.5680 -30.5680 -30.5679 -30.5679 -30.5664 -30.5664 -30.5664 -30.5664
   -30.5598 -30.5598 -30.5598 -30.5598 -30.5583 -30.5583 -30.5583 -30.5583
   -20.4236 -20.4236 -20.4236 -20.4236 -20.4235 -20.4235 -20.4235 -20.4235
   -20.4140 -20.4140 -20.4140 -20.4140 -20.4139 -20.4139 -20.4139 -20.4139
   -20.4085 -20.4085 -20.4085 -20.4085 -20.4084 -20.4084 -20.4084 -20.4084
   -20.4051 -20.4050 -20.4050 -20.4050 -20.4048 -20.4048 -20.4048 -20.4048
   -20.4000 -20.4000 -20.4000 -20.4000 -20.3999 -20.3998 -20.3998 -20.3998
   -20.3850 -20.3850 -20.3850 -20.3850 -20.3850 -20.3849 -20.3849 -20.3849
   -20.3836 -20.3835 -20.3835 -20.3835 -20.3835 -20.3835 -20.3835 -20.3835
    -9.1268  -9.1268  -9.1268  -9.1268  -9.1143  -9.1142  -9.1142  -9.1142
    -8.5601  -8.5601  -8.5601  -8.5600  -8.5485  -8.5485  -8.5485  -8.5485
    -8.5097  -8.5097  -8.5097  -8.5097  -8.4915  -8.4915  -8.4915  -8.4915
     2.7555   2.7555   2.7555   2.7555   2.8233   2.8233   2.8233   2.8233
     2.8854   2.8854   2.8855   2.8855   2.9717   2.9717   2.9717   2.9717
     3.2073   3.2073   3.2073   3.2073   3.2915   3.2915   3.2915   3.2915
     4.0015   4.0015   4.0015   4.0015   4.0341   4.0341   4.0341   4.0341
     4.1905   4.1905   4.1905   4.1905   4.2128   4.2128   4.2128   4.2128
     4.3159   4.3159   4.3159   4.3159   4.3489   4.3489   4.3489   4.3489
     7.0210   7.0210   7.0210   7.0210   7.1266   7.1266   7.1266   7.1266
     7.1736   7.1736   7.1736   7.1736   7.2041   7.2041   7.2042   7.2042
     7.4573   7.4573   7.4573   7.4573   7.4895   7.4895   7.4895   7.4895
    11.6955  11.6955  11.6955  11.6955  11.7189  11.7189  11.7189  11.7189
    12.0786  12.0786  12.0786  12.0786  12.1843  12.1843  12.1843  12.1843
    12.3002  12.3002  12.3002  12.3002  12.3612  12.3612  12.3612  12.3612
    16.8178  16.8178  16.8178  16.8178  16.8863  16.8863  16.8864  16.8864
    17.3067  17.3067  17.3067  17.3067  17.3478

     the Fermi energy is     9.4003 ev

!    total energy              =   -6260.74716357 Ry
     Harris-Foulkes estimate   =   -6260.74716358 Ry
     estimated scf accuracy    <          9.9E-10 Ry

     The total energy is the sum of the following terms:

     one-electron contribution =   -4776.11370927 Ry
     hartree contribution      =    2623.55279000 Ry
     xc contribution           =    -966.24533135 Ry
     ewald contribution        =   -3141.94086898 Ry
     smearing contrib. (-TS)   =      -0.00004397 Ry

     convergence has been achieved in  13 iterations

     Writing output data file chempot_5.save/
 
     init_run     :     47.17s CPU     49.55s WALL (       1 calls)
     electrons    :   1861.18s CPU   1895.89s WALL (       1 calls)

     Called by init_run:
     wfcinit      :     44.32s CPU     46.50s WALL (       1 calls)
     potinit      :      1.10s CPU      1.15s WALL (       1 calls)
     hinit0       :      1.52s CPU      1.60s WALL (       1 calls)

     Called by electrons:
     c_bands      :   1681.92s CPU   1714.25s WALL (      13 calls)
     sum_band     :    172.06s CPU    173.56s WALL (      13 calls)
     v_of_rho     :      1.45s CPU      1.54s WALL (      14 calls)
     mix_rho      :      2.39s CPU      3.05s WALL (      13 calls)

     Called by c_bands:
     init_us_2    :      7.66s CPU      8.40s WALL (      54 calls)
     cegterg      :   1496.39s CPU   1526.55s WALL (      26 calls)

     Called by sum_band:

     Called by *egterg:
     h_psi        :   1093.23s CPU   1108.79s WALL (     121 calls)
     g_psi        :      1.67s CPU      1.68s WALL (      93 calls)
     cdiaghg      :     21.04s CPU     21.19s WALL (     119 calls)

     Called by h_psi:
     h_psi:pot    :   1090.32s CPU   1099.10s WALL (     121 calls)
     h_psi:calbec :    175.60s CPU    180.34s WALL (     121 calls)
     vloc_psi     :    733.80s CPU    736.60s WALL (     121 calls)
     add_vuspsi   :    180.91s CPU    182.16s WALL (     121 calls)

     General routines
     calbec       :    175.60s CPU    180.34s WALL (     121 calls)
     fft          :      0.92s CPU      0.95s WALL (      42 calls)
     ffts         :      0.30s CPU      0.31s WALL (      13 calls)
     fftw         :    780.87s CPU    783.15s WALL (   33954 calls)
 
     Parallel routines
 
     PWSCF        :  31m50.53s CPU  32m29.32s WALL

 
   This run was terminated on:  18:44:26  16Dec2019            

=------------------------------------------------------------------------------=
   JOB DONE.
=------------------------------------------------------------------------------=
