
     Program PWSCF v.6.2 (svn rev. 14038) starts on 25Mar2020 at 22:26: 9 

     This program is part of the open-source Quantum ESPRESSO suite
     for quantum simulation of materials; please cite
         "P. Giannozzi et al., J. Phys.:Condens. Matter 21 395502 (2009);
         "P. Giannozzi et al., J. Phys.:Condens. Matter 29 465901 (2017);
          URL http://www.quantum-espresso.org", 
     in publications or presentations arising from this work. More details at
     http://www.quantum-espresso.org/quote

     Parallel version (MPI), running on    40 processors

     MPI processes distributed on    10 nodes
     K-points division:     npool     =      40
     Reading input from scf.in

     Current dimensions of program PWSCF are:
     Max number of different atomic species (ntypx) = 10
     Max number of k-points (npk) =  40000
     Max angular momentum in pseudopotentials (lmaxx) =  3

     Subspace diagonalization in iterative solution of the eigenvalue problem:
     a serial algorithm will be used

 
     G-vector sticks info
     --------------------
     sticks:   dense  smooth     PW     G-vecs:    dense   smooth      PW
     Sum        7595    7595   2025               494051   494051   68439
 


     bravais-lattice index     =            0
     lattice parameter (alat)  =      13.9673  a.u.
     unit-cell volume          =    2782.1621 (a.u.)^3
     number of atoms/cell      =           32
     number of atomic types    =            2
     number of electrons       =       369.00
     number of Kohn-Sham states=          222
     kinetic-energy cutoff     =     120.0000  Ry
     charge density cutoff     =     480.0000  Ry
     convergence threshold     =      1.0E-08
     mixing beta               =       0.7000
     number of iterations used =            8  plain     mixing
     Exchange-correlation      = SLA PW NOGX NOGC ( 1  4  0  0 0 0)

     celldm(1)=  13.967312  celldm(2)=   0.000000  celldm(3)=   0.000000
     celldm(4)=   0.000000  celldm(5)=   0.000000  celldm(6)=   0.000000

     crystal axes: (cart. coord. in units of alat)
               a(1) = (   1.000000   0.000000   0.000000 )  
               a(2) = (   0.000000   1.018263   0.000000 )  
               a(3) = (   0.000000   0.000000   1.002730 )  

     reciprocal axes: (cart. coord. in units 2 pi/alat)
               b(1) = (  1.000000  0.000000  0.000000 )  
               b(2) = (  0.000000  0.982065  0.000000 )  
               b(3) = (  0.000000  0.000000  0.997277 )  


     PseudoPot. # 1 for W  read from file:
     /cluster/scratch/mnoe/QE/pps/W_ONCV_LDA-4.0.upf
     MD5 check sum: ba0307d5d4cd419d6f1d13dc49d7c13a
     Pseudo is Norm-conserving + core correction, Zval = 28.0
     Generated using ONCVPSP code by D. R. Hamann
     Using radial grid of 1380 points,  8 beta functions with: 
                l(1) =   0
                l(2) =   0
                l(3) =   1
                l(4) =   1
                l(5) =   2
                l(6) =   2
                l(7) =   3
                l(8) =   3

     PseudoPot. # 2 for O  read from file:
     /cluster/scratch/mnoe/QE/pps/O_ONCV_LDA-3.0.upf
     MD5 check sum: a1bd6164e7280c17a38c229939bfbd54
     Pseudo is Norm-conserving + core correction, Zval =  6.0
     Generated using ONCVPSP code by D. R. Hamann
     Using radial grid of  926 points,  5 beta functions with: 
                l(1) =   0
                l(2) =   0
                l(3) =   1
                l(4) =   1
                l(5) =   2

     atomic species   valence    mass     pseudopotential
        W             28.00   183.84000     W ( 1.00)
        O              6.00    15.99940     O ( 1.00)

      4 Sym. Ops. (no inversion) found ( 3 have fractional translation)



   Cartesian axes

     site n.     atom                  positions (alat units)
         1           W   tau(   1) = (   0.2215711   0.2833787   0.0032585  )
         2           W   tau(   2) = (   0.7548711   0.7348840  -0.0282733  )
         3           W   tau(   3) = (   0.2784289   0.2257526   0.5046236  )
         4           W   tau(   4) = (   0.7451289   0.7925101   0.4730917  )
         5           W   tau(   5) = (   0.7784289   0.2833787   0.4981066  )
         6           W   tau(   6) = (   0.2451289   0.7348840   0.5296385  )
         7           W   tau(   7) = (   0.7215711   0.2257526  -0.0032585  )
         8           W   tau(   8) = (   0.2548711   0.7925101   0.0282733  )
         9           O   tau(   9) = (   0.2156219   0.0074834  -0.0181741  )
        10           O   tau(  10) = (   0.7770558  -0.0074834  -0.0279748  )
        11           O   tau(  11) = (   0.2843781   0.5016480   0.4831909  )
        12           O   tau(  12) = (   0.7229441   0.5166147   0.4733903  )
        13           O   tau(  13) = (   0.7843780   0.0074834   0.5195393  )
        14           O   tau(  14) = (   0.2229441  -0.0074834   0.5293399  )
        15           O   tau(  15) = (   0.7156219   0.5016480   0.0181741  )
        16           O   tau(  16) = (   0.2770559   0.5166147   0.0279748  )
        17           O   tau(  17) = (   0.5097254   0.2172360   0.4595051  )
        18           O   tau(  18) = (   0.5006174   0.7905363   0.5432251  )
        19           O   tau(  19) = (  -0.0097254   0.2918953   0.9608702  )
        20           O   tau(  20) = (  -0.0006174   0.7368579   0.0418600  )
        21           O   tau(  21) = (   0.4902746   0.2172360   0.0418600  )
        22           O   tau(  22) = (   0.4993826   0.7905363   0.9608702  )
        23           O   tau(  23) = (   0.0097253   0.2918953   0.5432251  )
        24           O   tau(  24) = (   0.0006173   0.7368579   0.4595051  )
        25           O   tau(  25) = (   0.7082540   0.2716002   0.7485468  )
        26           O   tau(  26) = (   0.2917460   0.7947348   0.2610253  )
        27           O   tau(  27) = (   0.7917461   0.2375312   0.2471817  )
        28           O   tau(  28) = (   0.2082540   0.7326594   0.7623904  )
        29           O   tau(  29) = (   0.2917460   0.2716002   0.7555486  )
        30           O   tau(  30) = (   0.7082540   0.7947348   0.2403398  )
        31           O   tau(  31) = (   0.2082540   0.2375312   0.2541834  )
        32           O   tau(  32) = (   0.7917461   0.7326594   0.7417049  )

     number of k points=    64  gaussian smearing, width (Ry)=  0.0007
                       cart. coord. in units 2pi/alat
        k(    1) = (   0.0000000   0.0000000   0.0000000), wk =   0.0092593
        k(    2) = (   0.0000000   0.0000000   0.1662129), wk =   0.0185185
        k(    3) = (   0.0000000   0.0000000   0.3324257), wk =   0.0185185
        k(    4) = (   0.0000000   0.0000000  -0.4986386), wk =   0.0092593
        k(    5) = (   0.0000000   0.1636775   0.0000000), wk =   0.0185185
        k(    6) = (   0.0000000   0.1636775   0.1662129), wk =   0.0370370
        k(    7) = (   0.0000000   0.1636775   0.3324257), wk =   0.0370370
        k(    8) = (   0.0000000   0.1636775  -0.4986386), wk =   0.0185185
        k(    9) = (   0.0000000   0.3273549   0.0000000), wk =   0.0185185
        k(   10) = (   0.0000000   0.3273549   0.1662129), wk =   0.0370370
        k(   11) = (   0.0000000   0.3273549   0.3324257), wk =   0.0370370
        k(   12) = (   0.0000000   0.3273549  -0.4986386), wk =   0.0185185
        k(   13) = (   0.0000000  -0.4910324   0.0000000), wk =   0.0092593
        k(   14) = (   0.0000000  -0.4910324   0.1662129), wk =   0.0185185
        k(   15) = (   0.0000000  -0.4910324   0.3324257), wk =   0.0185185
        k(   16) = (   0.0000000  -0.4910324  -0.4986386), wk =   0.0092593
        k(   17) = (   0.1666667   0.0000000   0.0000000), wk =   0.0185185
        k(   18) = (   0.1666667   0.0000000   0.1662129), wk =   0.0370370
        k(   19) = (   0.1666667   0.0000000   0.3324257), wk =   0.0370370
        k(   20) = (   0.1666667   0.0000000  -0.4986386), wk =   0.0185185
        k(   21) = (   0.1666667   0.1636775   0.0000000), wk =   0.0370370
        k(   22) = (   0.1666667   0.1636775   0.1662129), wk =   0.0740741
        k(   23) = (   0.1666667   0.1636775   0.3324257), wk =   0.0740741
        k(   24) = (   0.1666667   0.1636775  -0.4986386), wk =   0.0370370
        k(   25) = (   0.1666667   0.3273549   0.0000000), wk =   0.0370370
        k(   26) = (   0.1666667   0.3273549   0.1662129), wk =   0.0740741
        k(   27) = (   0.1666667   0.3273549   0.3324257), wk =   0.0740741
        k(   28) = (   0.1666667   0.3273549  -0.4986386), wk =   0.0370370
        k(   29) = (   0.1666667  -0.4910324   0.0000000), wk =   0.0185185
        k(   30) = (   0.1666667  -0.4910324   0.1662129), wk =   0.0370370
        k(   31) = (   0.1666667  -0.4910324   0.3324257), wk =   0.0370370
        k(   32) = (   0.1666667  -0.4910324  -0.4986386), wk =   0.0185185
        k(   33) = (   0.3333333   0.0000000   0.0000000), wk =   0.0185185
        k(   34) = (   0.3333333   0.0000000   0.1662129), wk =   0.0370370
        k(   35) = (   0.3333333   0.0000000   0.3324257), wk =   0.0370370
        k(   36) = (   0.3333333   0.0000000  -0.4986386), wk =   0.0185185
        k(   37) = (   0.3333333   0.1636775   0.0000000), wk =   0.0370370
        k(   38) = (   0.3333333   0.1636775   0.1662129), wk =   0.0740741
        k(   39) = (   0.3333333   0.1636775   0.3324257), wk =   0.0740741
        k(   40) = (   0.3333333   0.1636775  -0.4986386), wk =   0.0370370
        k(   41) = (   0.3333333   0.3273549   0.0000000), wk =   0.0370370
        k(   42) = (   0.3333333   0.3273549   0.1662129), wk =   0.0740741
        k(   43) = (   0.3333333   0.3273549   0.3324257), wk =   0.0740741
        k(   44) = (   0.3333333   0.3273549  -0.4986386), wk =   0.0370370
        k(   45) = (   0.3333333  -0.4910324   0.0000000), wk =   0.0185185
        k(   46) = (   0.3333333  -0.4910324   0.1662129), wk =   0.0370370
        k(   47) = (   0.3333333  -0.4910324   0.3324257), wk =   0.0370370
        k(   48) = (   0.3333333  -0.4910324  -0.4986386), wk =   0.0185185
        k(   49) = (  -0.5000000   0.0000000   0.0000000), wk =   0.0092593
        k(   50) = (  -0.5000000   0.0000000   0.1662129), wk =   0.0185185
        k(   51) = (  -0.5000000   0.0000000   0.3324257), wk =   0.0185185
        k(   52) = (  -0.5000000   0.0000000  -0.4986386), wk =   0.0092593
        k(   53) = (  -0.5000000   0.1636775   0.0000000), wk =   0.0185185
        k(   54) = (  -0.5000000   0.1636775   0.1662129), wk =   0.0370370
        k(   55) = (  -0.5000000   0.1636775   0.3324257), wk =   0.0370370
        k(   56) = (  -0.5000000   0.1636775  -0.4986386), wk =   0.0185185
        k(   57) = (  -0.5000000   0.3273549   0.0000000), wk =   0.0185185
        k(   58) = (  -0.5000000   0.3273549   0.1662129), wk =   0.0370370
        k(   59) = (  -0.5000000   0.3273549   0.3324257), wk =   0.0370370
        k(   60) = (  -0.5000000   0.3273549  -0.4986386), wk =   0.0185185
        k(   61) = (  -0.5000000  -0.4910324   0.0000000), wk =   0.0092593
        k(   62) = (  -0.5000000  -0.4910324   0.1662129), wk =   0.0185185
        k(   63) = (  -0.5000000  -0.4910324   0.3324257), wk =   0.0185185
        k(   64) = (  -0.5000000  -0.4910324  -0.4986386), wk =   0.0092593

     Dense  grid:   494051 G-vectors     FFT dimensions: ( 100, 100, 100)

     Estimated max dynamical RAM per process >       3.11 GB

     Estimated total dynamical RAM >     124.31 GB

     Initial potential from superposition of free atoms

     starting charge  367.99656, renormalised to  369.00000
     Starting wfc are  232 randomized atomic wfcs

     total cpu time spent up to now is       36.1 secs

     Self-consistent Calculation

     iteration #  1     ecut=   120.00 Ry     beta= 0.70
     Davidson diagonalization with overlap
     ethr =  1.00E-02,  avg # of iterations =  5.3

     total cpu time spent up to now is      168.2 secs

     total energy              =   -6253.05590742 Ry
     Harris-Foulkes estimate   =   -6263.96718288 Ry
     estimated scf accuracy    <      13.70220520 Ry

     iteration #  2     ecut=   120.00 Ry     beta= 0.70
     Davidson diagonalization with overlap
     ethr =  3.71E-03,  avg # of iterations =  3.8

     total cpu time spent up to now is      291.9 secs

     total energy              =   -6250.08346348 Ry
     Harris-Foulkes estimate   =   -6269.80885291 Ry
     estimated scf accuracy    <      52.12716639 Ry

     iteration #  3     ecut=   120.00 Ry     beta= 0.70
     Davidson diagonalization with overlap
     ethr =  3.71E-03,  avg # of iterations =  3.4

     total cpu time spent up to now is      410.4 secs

     total energy              =   -6260.32274766 Ry
     Harris-Foulkes estimate   =   -6260.58306253 Ry
     estimated scf accuracy    <       0.87668378 Ry

     iteration #  4     ecut=   120.00 Ry     beta= 0.70
     Davidson diagonalization with overlap
     ethr =  2.38E-04,  avg # of iterations =  2.6

     total cpu time spent up to now is      503.5 secs

     total energy              =   -6260.31626318 Ry
     Harris-Foulkes estimate   =   -6260.38871953 Ry
     estimated scf accuracy    <       0.25033449 Ry

     iteration #  5     ecut=   120.00 Ry     beta= 0.70
     Davidson diagonalization with overlap
     ethr =  6.78E-05,  avg # of iterations =  5.4

     total cpu time spent up to now is      612.1 secs

     total energy              =   -6260.30252865 Ry
     Harris-Foulkes estimate   =   -6260.36273056 Ry
     estimated scf accuracy    <       0.16883662 Ry

     iteration #  6     ecut=   120.00 Ry     beta= 0.70
     Davidson diagonalization with overlap
     ethr =  4.58E-05,  avg # of iterations =  4.9

     total cpu time spent up to now is      718.3 secs

     total energy              =   -6260.32554799 Ry
     Harris-Foulkes estimate   =   -6260.33728780 Ry
     estimated scf accuracy    <       0.03642332 Ry

     iteration #  7     ecut=   120.00 Ry     beta= 0.70
     Davidson diagonalization with overlap
     ethr =  9.87E-06,  avg # of iterations =  4.6

     total cpu time spent up to now is      821.9 secs

     total energy              =   -6260.33050021 Ry
     Harris-Foulkes estimate   =   -6260.33211898 Ry
     estimated scf accuracy    <       0.00474615 Ry

     iteration #  8     ecut=   120.00 Ry     beta= 0.70
     Davidson diagonalization with overlap
     ethr =  1.29E-06,  avg # of iterations =  4.5

     total cpu time spent up to now is      920.9 secs

     total energy              =   -6260.33086806 Ry
     Harris-Foulkes estimate   =   -6260.33107951 Ry
     estimated scf accuracy    <       0.00044667 Ry

     iteration #  9     ecut=   120.00 Ry     beta= 0.70
     Davidson diagonalization with overlap
     ethr =  1.21E-07,  avg # of iterations =  3.0

     total cpu time spent up to now is     1027.5 secs

     total energy              =   -6260.33098384 Ry
     Harris-Foulkes estimate   =   -6260.33099712 Ry
     estimated scf accuracy    <       0.00004203 Ry

     iteration # 10     ecut=   120.00 Ry     beta= 0.70
     Davidson diagonalization with overlap
     ethr =  1.14E-08,  avg # of iterations =  2.0

     total cpu time spent up to now is     1123.5 secs

     total energy              =   -6260.33098524 Ry
     Harris-Foulkes estimate   =   -6260.33099135 Ry
     estimated scf accuracy    <       0.00001481 Ry

     iteration # 11     ecut=   120.00 Ry     beta= 0.70
     Davidson diagonalization with overlap
     ethr =  4.01E-09,  avg # of iterations =  2.4

     total cpu time spent up to now is     1218.2 secs

     total energy              =   -6260.33098741 Ry
     Harris-Foulkes estimate   =   -6260.33098787 Ry
     estimated scf accuracy    <       0.00000090 Ry

     iteration # 12     ecut=   120.00 Ry     beta= 0.70
     Davidson diagonalization with overlap
     ethr =  2.44E-10,  avg # of iterations =  3.0

     total cpu time spent up to now is     1335.5 secs

     total energy              =   -6260.33098764 Ry
     Harris-Foulkes estimate   =   -6260.33098782 Ry
     estimated scf accuracy    <       0.00000043 Ry

     iteration # 13     ecut=   120.00 Ry     beta= 0.70
     Davidson diagonalization with overlap
     ethr =  1.16E-10,  avg # of iterations =  2.0

     total cpu time spent up to now is     1436.7 secs

     total energy              =   -6260.33098771 Ry
     Harris-Foulkes estimate   =   -6260.33098773 Ry
     estimated scf accuracy    <       0.00000003 Ry

     iteration # 14     ecut=   120.00 Ry     beta= 0.70
     Davidson diagonalization with overlap
     ethr =  7.50E-12,  avg # of iterations =  2.1

     total cpu time spent up to now is     1537.8 secs

     End of self-consistent calculation

          k = 0.0000 0.0000 0.0000 ( 61821 PWs)   bands (ev):

   -65.7982 -65.7974 -65.7973 -65.7965 -65.7945 -65.7937 -65.7937 -65.7928
   -30.2981 -30.2915 -30.2914 -30.2894 -30.2265 -30.2230 -30.2207 -30.2047
   -30.1788 -30.1636 -30.1629 -30.1492 -30.1074 -30.1032 -30.0965 -30.0964
   -30.0914 -30.0907 -30.0870 -30.0828 -30.0149 -30.0092 -30.0080 -30.0034
   -19.9349 -19.9348 -19.9337 -19.9336 -19.9335 -19.9335 -19.9313 -19.9313
   -19.9280 -19.9279 -19.9262 -19.9261 -19.9211 -19.9210 -19.9207 -19.9206
   -19.9195 -19.9195 -19.9180 -19.9179 -19.9176 -19.9175 -19.9156 -19.9155
   -19.9135 -19.9132 -19.9126 -19.9123 -19.9107 -19.9103 -19.9087 -19.9087
   -19.9080 -19.9080 -19.9075 -19.9070 -19.9034 -19.9033 -19.8997 -19.8993
   -19.8979 -19.8977 -19.8972 -19.8969 -19.8962 -19.8956 -19.8952 -19.8949
   -19.8948 -19.8943 -19.8924 -19.8914 -19.8889 -19.8876 -19.8856 -19.8843
    -9.7744  -9.4343  -9.3774  -9.3755  -8.9710  -8.9616  -8.9302  -8.7828
    -8.6904  -8.6146  -8.6108  -8.6038  -7.8266  -7.7655  -7.6872  -7.6860
    -7.5888  -7.5317  -7.5234  -7.4828  -7.4754  -7.4587  -7.3678  -7.3652
     1.4840   1.5307   1.5377   1.5611   1.6729   1.7143   1.7351   1.7454
     1.8702   1.9088   1.9488   2.1421   2.5894   2.6408   2.7340   2.7963
     2.8367   2.8731   4.3963   4.4291   4.6855   4.6856   4.7807   4.7901
     4.8164   4.9216   4.9253   4.9727   5.2188   5.2528   5.4418   5.5678
     5.5794   5.5888   5.6327   5.7010   5.8219   5.8251   5.9030   5.9370
     5.9440   5.9509   6.0201   6.0493   6.0538   6.1381   6.1630   6.2690
     6.3609   6.5470   6.5481   6.5724   6.7001   6.7310   7.0227   7.0282
     7.0583   7.1362   7.1459   7.1849   7.1964   7.2351   7.2665   7.3036
     7.5316   7.5745   7.9964   8.0414   8.1102   8.1243   8.2185   8.3210
    10.0294  10.1220  10.2791  10.3002  10.3082  10.3623  12.4484  12.4875
    12.5262  12.6153  12.6320  12.8466  12.8735  13.0474  13.0905  13.1395
    13.3488  13.3847  13.4048  13.5935  13.8701  13.9090  14.0221  14.2706
    14.9363  14.9758  15.0430  15.1327  15.4501  15.6407  16.0390  16.0915
    16.1523  16.9523  17.1166  17.1836  17.5698  17.8874

          k = 0.0000 0.0000 0.1662 ( 61831 PWs)   bands (ev):

   -65.7981 -65.7975 -65.7972 -65.7965 -65.7945 -65.7937 -65.7937 -65.7929
   -30.2956 -30.2897 -30.2883 -30.2861 -30.2289 -30.2269 -30.2202 -30.2072
   -30.1782 -30.1647 -30.1629 -30.1507 -30.1063 -30.1019 -30.0972 -30.0934
   -30.0922 -30.0884 -30.0873 -30.0788 -30.0204 -30.0145 -30.0077 -30.0038
   -19.9349 -19.9348 -19.9336 -19.9335 -19.9334 -19.9334 -19.9314 -19.9314
   -19.9280 -19.9279 -19.9262 -19.9261 -19.9211 -19.9210 -19.9207 -19.9205
   -19.9196 -19.9195 -19.9178 -19.9177 -19.9176 -19.9175 -19.9157 -19.9157
   -19.9135 -19.9131 -19.9127 -19.9123 -19.9105 -19.9102 -19.9088 -19.9086
   -19.9081 -19.9079 -19.9075 -19.9071 -19.9034 -19.9033 -19.8997 -19.8993
   -19.8978 -19.8976 -19.8970 -19.8969 -19.8961 -19.8954 -19.8953 -19.8949
   -19.8947 -19.8945 -19.8926 -19.8917 -19.8888 -19.8877 -19.8855 -19.8844
    -9.7318  -9.3928  -9.3832  -9.3156  -8.9754  -8.9402  -8.9080  -8.7646
    -8.6577  -8.6168  -8.5743  -8.5699  -7.9068  -7.7947  -7.7836  -7.6933
    -7.5900  -7.5828  -7.5363  -7.5256  -7.4866  -7.4797  -7.4561  -7.3715
     1.5260   1.5558   1.6725   1.7009   1.7123   1.7339   1.7432   1.8454
     1.9093   2.0578   2.0936   2.2655   2.6463   2.7011   2.8193   2.8280
     2.8564   2.9584   4.2883   4.3935   4.4706   4.5577   4.5786   4.7115
     4.7589   4.8943   4.8947   4.9077   5.0359   5.2191   5.3615   5.4644
     5.5594   5.6204   5.6386   5.6991   5.7089   5.7965   5.8385   5.8978
     5.9324   5.9671   5.9907   6.0303   6.0413   6.1056   6.1964   6.2726
     6.3578   6.5242   6.6049   6.6765   6.7745   6.8997   6.9158   6.9571
     7.0030   7.0318   7.0891   7.1854   7.1890   7.2133   7.2614   7.3161
     7.3735   7.4738   7.9874   8.0235   8.0985   8.1424   8.1785   8.2989
    10.1711  10.2765  10.3329  10.4185  10.5400  10.6219  12.4334  12.4768
    12.5205  12.5974  12.6731  12.7978  12.9040  12.9638  13.1107  13.1790
    13.2662  13.4035  13.4175  13.6064  13.8732  13.8873  14.0272  14.1768
    14.9547  15.0492  15.1269  15.1330  15.4995  15.7002  15.9990  16.1189
    16.3437  16.9390  17.1076  17.2813  17.6516  17.8730

          k = 0.0000 0.0000 0.3324 ( 61765 PWs)   bands (ev):

   -65.7980 -65.7976 -65.7971 -65.7967 -65.7943 -65.7939 -65.7935 -65.7931
   -30.2934 -30.2906 -30.2752 -30.2719 -30.2388 -30.2373 -30.2187 -30.2122
   -30.1763 -30.1688 -30.1609 -30.1541 -30.1042 -30.0994 -30.0991 -30.0940
   -30.0911 -30.0883 -30.0754 -30.0666 -30.0353 -30.0288 -30.0069 -30.0047
   -19.9348 -19.9348 -19.9336 -19.9335 -19.9330 -19.9329 -19.9318 -19.9318
   -19.9280 -19.9279 -19.9262 -19.9261 -19.9211 -19.9211 -19.9205 -19.9203
   -19.9199 -19.9198 -19.9176 -19.9176 -19.9174 -19.9173 -19.9162 -19.9161
   -19.9133 -19.9129 -19.9128 -19.9125 -19.9100 -19.9097 -19.9091 -19.9085
   -19.9084 -19.9077 -19.9077 -19.9073 -19.9034 -19.9033 -19.8996 -19.8994
   -19.8976 -19.8972 -19.8972 -19.8966 -19.8959 -19.8959 -19.8954 -19.8949
   -19.8946 -19.8942 -19.8931 -19.8924 -19.8885 -19.8879 -19.8853 -19.8846
    -9.6296  -9.4401  -9.2531  -9.1742  -9.0211  -8.9741  -8.7335  -8.7128
    -8.6341  -8.5830  -8.4330  -8.4172  -8.1621  -8.0824  -7.8528  -7.8245
    -7.7184  -7.7099  -7.5804  -7.5487  -7.5225  -7.4968  -7.4382  -7.3891
     1.5349   1.5458   1.7291   1.7324   1.7325   1.7394   1.8865   1.9123
     2.4587   2.6186   2.6878   2.7056   2.8021   2.8397   2.9287   3.0569
     3.0747   3.1941   3.8693   3.9667   4.0850   4.1581   4.1983   4.5262
     4.6477   4.6723   4.7914   4.8104   4.8803   4.9489   5.1451   5.1627
     5.3566   5.4095   5.4905   5.5569   5.6198   5.6538   5.8104   5.8902
     5.9011   6.0021   6.0367   6.0742   6.1468   6.1973   6.2222   6.3546
     6.3575   6.4291   6.5640   6.6143   6.7170   6.7840   6.8640   6.8667
     6.9602   7.1276   7.1736   7.1764   7.2370   7.2687   7.3078   7.3532
     7.4377   7.5216   7.9096   7.9244   8.0170   8.0558   8.1737   8.2413
    10.2292  10.2666  10.8609  10.9965  11.0670  11.2531  12.1207  12.2170
    12.3722  12.5546  12.5766  12.7178  12.8502  12.9740  13.1144  13.1847
    13.3151  13.3870  13.4782  13.4963  13.7861  13.8872  13.9114  14.0158
    15.0278  15.1096  15.2551  15.4111  15.8432  15.8669  15.9784  15.9932
    16.4843  17.0885  17.4624  17.6086  17.7971  17.8673

          k = 0.0000 0.0000-0.4986 ( 61708 PWs)   bands (ev):

   -65.7978 -65.7978 -65.7969 -65.7969 -65.7941 -65.7941 -65.7933 -65.7933
   -30.2919 -30.2919 -30.2564 -30.2564 -30.2534 -30.2534 -30.2162 -30.2162
   -30.1731 -30.1730 -30.1579 -30.1579 -30.1019 -30.1019 -30.0964 -30.0964
   -30.0897 -30.0897 -30.0556 -30.0555 -30.0481 -30.0481 -30.0058 -30.0058
   -19.9348 -19.9348 -19.9336 -19.9336 -19.9324 -19.9324 -19.9323 -19.9323
   -19.9279 -19.9279 -19.9262 -19.9261 -19.9211 -19.9211 -19.9202 -19.9202
   -19.9201 -19.9201 -19.9176 -19.9176 -19.9168 -19.9168 -19.9167 -19.9167
   -19.9131 -19.9131 -19.9127 -19.9127 -19.9095 -19.9095 -19.9091 -19.9091
   -19.9081 -19.9080 -19.9075 -19.9075 -19.9033 -19.9033 -19.8995 -19.8995
   -19.8974 -19.8974 -19.8966 -19.8966 -19.8961 -19.8961 -19.8954 -19.8954
   -19.8938 -19.8938 -19.8934 -19.8934 -19.8882 -19.8882 -19.8850 -19.8850
    -9.5211  -9.5211  -9.1127  -9.1127  -9.0458  -9.0458  -8.6635  -8.6635
    -8.4652  -8.4651  -8.4016  -8.4016  -8.1715  -8.1715  -8.1358  -8.1358
    -7.7308  -7.7308  -7.5652  -7.5652  -7.5104  -7.5104  -7.4135  -7.4135
     1.5388   1.5388   1.7325   1.7325   1.7371   1.7371   1.9137   1.9137
     2.7472   2.7472   3.1940   3.1940   3.2875   3.2875   3.3623   3.3623
     3.4375   3.4376   3.4973   3.4973   3.7223   3.7223   3.8998   3.8998
     4.0462   4.0462   4.7374   4.7374   4.8272   4.8272   5.2460   5.2460
     5.3430   5.3430   5.4522   5.4522   5.5623   5.5623   5.8670   5.8670
     6.0094   6.0095   6.0683   6.0683   6.1427   6.1427   6.3054   6.3054
     6.4286   6.4286   6.4869   6.4869   6.6990   6.6990   6.7725   6.7725
     7.0477   7.0477   7.1744   7.1744   7.2033   7.2033   7.6676   7.6677
     7.6976   7.6976   7.7729   7.7729   7.8425   7.8425   8.1995   8.1995
    10.2501  10.2501  11.5242  11.5242  11.6814  11.6814  11.7315  11.7315
    11.9812  11.9812  12.6453  12.6453  13.0242  13.0242  13.1483  13.1483
    13.3278  13.3278  13.5423  13.5423  13.6584  13.6584  13.9281  13.9281
    15.0795  15.0795  15.5911  15.5911  15.7354  15.7354  16.1349  16.1349
    16.7358  16.7358  17.9599  17.9599  18.2205  18.2206

          k = 0.0000 0.1637 0.0000 ( 61837 PWs)   bands (ev):

   -65.7982 -65.7974 -65.7972 -65.7965 -65.7946 -65.7937 -65.7937 -65.7929
   -30.2975 -30.2918 -30.2912 -30.2892 -30.2242 -30.2218 -30.2195 -30.2055
   -30.1741 -30.1603 -30.1597 -30.1463 -30.1114 -30.1070 -30.1010 -30.0970
   -30.0956 -30.0916 -30.0871 -30.0837 -30.0149 -30.0092 -30.0080 -30.0035
   -19.9349 -19.9348 -19.9336 -19.9336 -19.9335 -19.9335 -19.9313 -19.9313
   -19.9280 -19.9278 -19.9262 -19.9261 -19.9211 -19.9210 -19.9207 -19.9206
   -19.9195 -19.9194 -19.9179 -19.9178 -19.9176 -19.9175 -19.9155 -19.9155
   -19.9135 -19.9131 -19.9125 -19.9122 -19.9106 -19.9103 -19.9089 -19.9088
   -19.9082 -19.9081 -19.9076 -19.9072 -19.9034 -19.9033 -19.8997 -19.8993
   -19.8979 -19.8977 -19.8972 -19.8969 -19.8962 -19.8957 -19.8952 -19.8949
   -19.8947 -19.8944 -19.8924 -19.8914 -19.8889 -19.8876 -19.8856 -19.8843
    -9.7394  -9.4478  -9.3419  -9.3410  -8.9603  -8.9524  -8.8504  -8.7538
    -8.6896  -8.5868  -8.5866  -8.5837  -7.8446  -7.7665  -7.7166  -7.7092
    -7.6722  -7.6102  -7.6084  -7.5993  -7.4752  -7.4601  -7.3684  -7.3659
     1.4940   1.5308   1.5457   1.5769   1.7641   1.7903   1.7953   1.9480
     1.9573   2.0416   2.0713   2.2571   2.6091   2.7073   2.7250   2.8918
     2.9183   2.9582   4.2561   4.3035   4.3698   4.4468   4.6663   4.7696
     4.8061   4.9175   4.9251   5.0482   5.1423   5.1501   5.3574   5.5237
     5.5501   5.6310   5.6785   5.6830   5.7161   5.7166   5.8191   5.8746
     5.8920   5.9028   5.9795   6.0836   6.1035   6.1425   6.2478   6.2716
     6.3037   6.5325   6.6404   6.6629   6.6786   6.7435   6.9958   7.0010
     7.0566   7.1226   7.1296   7.1489   7.1936   7.2149   7.2285   7.2355
     7.5300   7.5751   7.9868   8.0380   8.1045   8.1156   8.1963   8.2557
    10.0710  10.1329  10.4618  10.4744  10.4931  10.5264  12.4163  12.5007
    12.5365  12.5650  12.6196  12.6978  12.8818  12.9974  13.0294  13.0645
    13.3353  13.3473  13.3616  13.6199  13.8647  13.9681  13.9829  14.1949
    14.9647  15.1581  15.1961  15.2273  15.4350  15.6194  16.0908  16.1434
    16.4110  16.7205  17.2662  17.3322  17.6260  17.8508

          k = 0.0000 0.1637 0.1662 ( 61789 PWs)   bands (ev):

   -65.7981 -65.7975 -65.7972 -65.7965 -65.7945 -65.7937 -65.7937 -65.7929
   -30.2951 -30.2895 -30.2885 -30.2859 -30.2268 -30.2258 -30.2190 -30.2078
   -30.1735 -30.1612 -30.1596 -30.1477 -30.1106 -30.1060 -30.1018 -30.0969
   -30.0932 -30.0893 -30.0875 -30.0795 -30.0204 -30.0145 -30.0077 -30.0038
   -19.9349 -19.9348 -19.9336 -19.9335 -19.9334 -19.9333 -19.9314 -19.9314
   -19.9280 -19.9278 -19.9262 -19.9261 -19.9211 -19.9210 -19.9207 -19.9205
   -19.9196 -19.9195 -19.9178 -19.9176 -19.9176 -19.9175 -19.9157 -19.9156
   -19.9134 -19.9131 -19.9126 -19.9122 -19.9105 -19.9101 -19.9089 -19.9088
   -19.9082 -19.9082 -19.9076 -19.9073 -19.9034 -19.9033 -19.8997 -19.8993
   -19.8978 -19.8976 -19.8970 -19.8969 -19.8962 -19.8954 -19.8953 -19.8949
   -19.8947 -19.8945 -19.8926 -19.8917 -19.8888 -19.8877 -19.8855 -19.8844
    -9.6956  -9.3968  -9.3563  -9.2768  -8.9675  -8.8968  -8.8605  -8.7334
    -8.6564  -8.5891  -8.5604  -8.5486  -7.9128  -7.8018  -7.7942  -7.7220
    -7.6753  -7.6369  -7.6171  -7.6032  -7.5733  -7.4780  -7.4569  -7.3722
     1.5426   1.5721   1.6952   1.7542   1.7935   1.8488   1.9396   1.9622
     2.0707   2.0940   2.1243   2.3355   2.6901   2.7461   2.8097   2.9096
     2.9519   3.0418   4.2264   4.2632   4.3968   4.4146   4.5233   4.5464
     4.6205   4.8462   4.8695   4.9085   4.9534   5.1508   5.3224   5.3441
     5.4832   5.5773   5.6155   5.6623   5.7110   5.7377   5.7892   5.8389
     5.8607   5.9260   5.9592   6.0039   6.0761   6.0970   6.2009   6.2543
     6.4007   6.5480   6.6432   6.7176   6.7875   6.8680   6.9257   6.9538
     7.0113   7.0657   7.0912   7.1351   7.1890   7.2120   7.2396   7.2814
     7.3653   7.4799   7.9780   8.0210   8.0947   8.1229   8.1596   8.2380
    10.2842  10.3566  10.4721  10.5436  10.6651  10.7476  12.4248  12.4763
    12.4978  12.6026  12.6549  12.7356  12.8324  12.9646  13.0206  13.0949
    13.2014  13.3663  13.3893  13.6076  13.8648  13.8804  14.0189  14.1100
    15.0136  15.2111  15.2475  15.2995  15.4918  15.6886  16.1030  16.3385
    16.3868  16.8664  17.0745  17.4010  17.7027  17.9020

          k = 0.0000 0.1637 0.3324 ( 61746 PWs)   bands (ev):

   -65.7980 -65.7976 -65.7971 -65.7967 -65.7943 -65.7939 -65.7935 -65.7931
   -30.2931 -30.2904 -30.2751 -30.2715 -30.2381 -30.2359 -30.2177 -30.2122
   -30.1717 -30.1648 -30.1576 -30.1510 -30.1088 -30.1040 -30.1035 -30.0987
   -30.0914 -30.0885 -30.0757 -30.0668 -30.0353 -30.0289 -30.0070 -30.0047
   -19.9348 -19.9348 -19.9336 -19.9335 -19.9330 -19.9329 -19.9318 -19.9318
   -19.9279 -19.9279 -19.9261 -19.9261 -19.9211 -19.9211 -19.9205 -19.9203
   -19.9198 -19.9197 -19.9177 -19.9176 -19.9172 -19.9172 -19.9161 -19.9161
   -19.9133 -19.9129 -19.9128 -19.9124 -19.9100 -19.9096 -19.9092 -19.9086
   -19.9085 -19.9080 -19.9079 -19.9075 -19.9034 -19.9033 -19.8996 -19.8994
   -19.8976 -19.8972 -19.8972 -19.8966 -19.8959 -19.8959 -19.8954 -19.8949
   -19.8946 -19.8942 -19.8931 -19.8924 -19.8885 -19.8879 -19.8853 -19.8846
    -9.5916  -9.4029  -9.2641  -9.1191  -9.0172  -8.8957  -8.7245  -8.6764
    -8.6050  -8.5816  -8.4296  -8.4091  -8.1631  -8.0844  -7.8577  -7.8381
    -7.7324  -7.7278  -7.6656  -7.6309  -7.6271  -7.6031  -7.4390  -7.3899
     1.5552   1.5638   1.7991   1.8102   1.9333   1.9472   2.0292   2.0669
     2.4606   2.6275   2.6883   2.7828   2.8228   2.9011   2.9421   3.0554
     3.1626   3.2707   3.8761   3.9875   4.0751   4.1508   4.1926   4.4395
     4.4973   4.6142   4.6352   4.6768   4.7991   4.8752   5.0117   5.1442
     5.2382   5.2514   5.3827   5.5242   5.5437   5.6582   5.6998   5.8637
     5.9010   5.9052   5.9577   6.0002   6.0749   6.1480   6.2038   6.2570
     6.4751   6.5319   6.5529   6.6821   6.8200   6.8602   6.8770   6.9759
     7.0016   7.0606   7.0957   7.1689   7.2148   7.2662   7.3308   7.3643
     7.4455   7.5310   7.9031   7.9255   8.0155   8.0417   8.1444   8.1913
    10.4316  10.4655  10.8890  11.0254  11.1636  11.3153  12.1250  12.2434
    12.3999  12.5608  12.5855  12.7442  12.7977  12.8612  12.9831  13.1050
    13.2141  13.3818  13.4363  13.4467  13.6974  13.8580  13.8857  14.0059
    15.1045  15.1959  15.4158  15.6355  15.8481  15.9955  16.0029  16.2955
    16.5742  17.0742  17.3187  17.5564  17.8429  17.9239

          k = 0.0000 0.1637-0.4986 ( 61730 PWs)   bands (ev):

   -65.7978 -65.7978 -65.7969 -65.7969 -65.7941 -65.7941 -65.7933 -65.7933
   -30.2917 -30.2917 -30.2561 -30.2561 -30.2527 -30.2527 -30.2155 -30.2155
   -30.1687 -30.1687 -30.1546 -30.1546 -30.1065 -30.1065 -30.1010 -30.1010
   -30.0900 -30.0899 -30.0556 -30.0556 -30.0482 -30.0482 -30.0059 -30.0059
   -19.9348 -19.9348 -19.9336 -19.9336 -19.9324 -19.9324 -19.9323 -19.9323
   -19.9279 -19.9279 -19.9261 -19.9261 -19.9211 -19.9211 -19.9202 -19.9202
   -19.9200 -19.9200 -19.9176 -19.9176 -19.9167 -19.9167 -19.9166 -19.9166
   -19.9130 -19.9130 -19.9126 -19.9126 -19.9096 -19.9096 -19.9091 -19.9091
   -19.9082 -19.9082 -19.9077 -19.9077 -19.9034 -19.9034 -19.8995 -19.8995
   -19.8974 -19.8974 -19.8966 -19.8966 -19.8961 -19.8961 -19.8954 -19.8954
   -19.8938 -19.8938 -19.8934 -19.8934 -19.8882 -19.8882 -19.8850 -19.8850
    -9.4829  -9.4829  -9.1165  -9.1165  -8.9734  -8.9734  -8.6300  -8.6300
    -8.4642  -8.4641  -8.4015  -8.4015  -8.1724  -8.1724  -8.1376  -8.1376
    -7.7503  -7.7503  -7.6473  -7.6473  -7.6189  -7.6189  -7.4142  -7.4142
     1.5587   1.5587   1.8084   1.8084   1.9472   1.9472   2.0631   2.0631
     2.8253   2.8253   3.2028   3.2028   3.2886   3.2886   3.4004   3.4004
     3.4426   3.4426   3.5066   3.5066   3.7414   3.7414   3.9421   3.9421
     4.0544   4.0544   4.5320   4.5320   4.6995   4.6995   5.0116   5.0116
     5.2619   5.2619   5.3924   5.3924   5.5250   5.5250   5.7845   5.7845
     5.8946   5.8946   6.0203   6.0203   6.1002   6.1002   6.2206   6.2206
     6.4815   6.4815   6.6183   6.6183   6.7670   6.7670   6.9036   6.9036
     7.0553   7.0553   7.0880   7.0880   7.2171   7.2171   7.6711   7.6711
     7.6905   7.6905   7.7815   7.7815   7.8423   7.8423   8.1612   8.1612
    10.4547  10.4547  11.5411  11.5411  11.7041  11.7041  11.7949  11.7949
    12.0139  12.0139  12.6664  12.6664  12.8818  12.8818  13.1250  13.1250
    13.2731  13.2731  13.4197  13.4197  13.6168  13.6168  13.9206  13.9206
    15.1613  15.1613  15.6911  15.6911  16.0387  16.0387  16.1990  16.1990
    16.7858  16.7858  17.8288  17.8288  18.1447  18.1447

          k = 0.0000 0.3274 0.0000 ( 61770 PWs)   bands (ev):

   -65.7982 -65.7974 -65.7972 -65.7965 -65.7946 -65.7937 -65.7937 -65.7929
   -30.2961 -30.2926 -30.2908 -30.2888 -30.2197 -30.2187 -30.2173 -30.2079
   -30.1610 -30.1504 -30.1502 -30.1376 -30.1240 -30.1185 -30.1130 -30.1081
   -30.0967 -30.0928 -30.0872 -30.0850 -30.0149 -30.0091 -30.0081 -30.0036
   -19.9349 -19.9348 -19.9337 -19.9336 -19.9335 -19.9334 -19.9313 -19.9313
   -19.9279 -19.9278 -19.9261 -19.9260 -19.9211 -19.9211 -19.9207 -19.9205
   -19.9195 -19.9193 -19.9179 -19.9176 -19.9176 -19.9173 -19.9154 -19.9154
   -19.9134 -19.9130 -19.9123 -19.9119 -19.9104 -19.9101 -19.9095 -19.9092
   -19.9088 -19.9084 -19.9078 -19.9075 -19.9034 -19.9033 -19.8997 -19.8993
   -19.8979 -19.8977 -19.8972 -19.8969 -19.8963 -19.8957 -19.8952 -19.8949
   -19.8947 -19.8944 -19.8924 -19.8914 -19.8889 -19.8876 -19.8856 -19.8843
    -9.6543  -9.4896  -9.2774  -9.2706  -8.9339  -8.9292  -8.7055  -8.6879
    -8.6257  -8.4895  -8.4782  -8.4745  -8.0097  -7.9425  -7.9307  -7.8969
    -7.7713  -7.7578  -7.6582  -7.6531  -7.4741  -7.4635  -7.3693  -7.3672
     1.4977   1.5281   1.5488   1.5839   1.7805   1.8123   1.9114   1.9561
     2.4951   2.6126   2.6357   2.6459   2.7011   2.7839   2.9178   3.1708
     3.2132   3.2273   3.8539   3.8832   3.9416   3.9441   4.2752   4.6715
     4.7154   4.7875   4.8384   4.9183   4.9508   4.9997   5.2217   5.2584
     5.2994   5.3117   5.5733   5.5982   5.6279   5.6662   5.7405   5.8565
     5.9173   5.9324   5.9379   6.0747   6.0920   6.1687   6.2518   6.2830
     6.4534   6.5165   6.5760   6.6637   6.6885   6.7638   7.0505   7.0529
     7.0719   7.1023   7.1249   7.1396   7.2849   7.2949   7.3200   7.3299
     7.5368   7.5812   7.9206   8.0129   8.0216   8.0667   8.0700   8.0814
    10.1100  10.1379  10.9179  10.9332  10.9818  11.0753  12.1716  12.2606
    12.2798  12.4290  12.5326  12.5840  12.7505  12.9179  13.0097  13.0365
    13.3299  13.3502  13.3672  13.5988  13.7214  13.7910  13.9500  14.0392
    15.1110  15.3977  15.4241  15.4684  15.6337  15.8902  16.0830  16.1142
    16.2574  17.3083  17.4311  17.7696  17.8279  17.8645

          k = 0.0000 0.3274 0.1662 ( 61777 PWs)   bands (ev):

   -65.7981 -65.7975 -65.7972 -65.7965 -65.7945 -65.7937 -65.7937 -65.7929
   -30.2938 -30.2892 -30.2890 -30.2854 -30.2241 -30.2218 -30.2169 -30.2097
   -30.1605 -30.1514 -30.1496 -30.1388 -30.1234 -30.1177 -30.1140 -30.1090
   -30.0930 -30.0906 -30.0876 -30.0805 -30.0204 -30.0145 -30.0078 -30.0039
   -19.9349 -19.9348 -19.9336 -19.9336 -19.9334 -19.9333 -19.9314 -19.9314
   -19.9279 -19.9278 -19.9261 -19.9260 -19.9211 -19.9211 -19.9206 -19.9205
   -19.9196 -19.9194 -19.9178 -19.9176 -19.9174 -19.9173 -19.9155 -19.9155
   -19.9134 -19.9129 -19.9124 -19.9120 -19.9103 -19.9099 -19.9094 -19.9092
   -19.9087 -19.9084 -19.9079 -19.9076 -19.9034 -19.9033 -19.8997 -19.8993
   -19.8978 -19.8977 -19.8970 -19.8969 -19.8962 -19.8954 -19.8954 -19.8949
   -19.8947 -19.8945 -19.8926 -19.8917 -19.8888 -19.8877 -19.8855 -19.8844
    -9.6080  -9.4383  -9.2846  -9.2016  -8.9475  -8.8658  -8.6789  -8.6503
    -8.6357  -8.4817  -8.4772  -8.4541  -8.0179  -7.9519  -7.9339  -7.9061
    -7.8637  -7.7646  -7.7520  -7.6598  -7.5775  -7.4789  -7.4585  -7.3736
     1.5484   1.5794   1.6941   1.7742   1.8159   2.0090   2.0109   2.1305
     2.5059   2.6100   2.6447   2.7213   2.7835   2.7896   2.9588   3.1584
     3.2670   3.3013   3.8838   3.9111   3.9274   3.9852   4.2438   4.5010
     4.5447   4.6555   4.7503   4.8466   4.8883   4.9992   5.0288   5.0577
     5.2645   5.3079   5.3597   5.4745   5.5348   5.6955   5.7238   5.8141
     5.8834   5.8936   5.9160   5.9427   6.0166   6.0955   6.1460   6.2625
     6.5274   6.5758   6.6565   6.7059   6.8164   6.8701   6.9359   7.0328
     7.0522   7.1436   7.1672   7.2053   7.2801   7.2962   7.2984   7.3427
     7.4054   7.4961   7.9165   7.9974   8.0192   8.0428   8.0569   8.0723
    10.3543  10.3888  10.9753  10.9955  11.0643  11.1830  12.2366  12.2628
    12.3006  12.4492  12.4973  12.6406  12.7845  12.8697  12.9838  13.0607
    13.1718  13.3204  13.3682  13.5446  13.6783  13.7248  13.9359  14.0003
    15.1525  15.4345  15.4685  15.6264  15.7530  15.9487  16.0883  16.3222
    16.4125  17.2756  17.4442  17.5432  17.8276  17.9543

          k = 0.0000 0.3274 0.3324 ( 61754 PWs)   bands (ev):

   -65.7980 -65.7976 -65.7970 -65.7967 -65.7943 -65.7939 -65.7935 -65.7931
   -30.2925 -30.2900 -30.2749 -30.2708 -30.2369 -30.2332 -30.2157 -30.2123
   -30.1590 -30.1538 -30.1477 -30.1416 -30.1218 -30.1167 -30.1158 -30.1110
   -30.0917 -30.0888 -30.0761 -30.0673 -30.0354 -30.0289 -30.0070 -30.0047
   -19.9348 -19.9348 -19.9336 -19.9335 -19.9329 -19.9329 -19.9318 -19.9318
   -19.9279 -19.9278 -19.9261 -19.9260 -19.9211 -19.9211 -19.9204 -19.9203
   -19.9198 -19.9197 -19.9177 -19.9177 -19.9170 -19.9170 -19.9159 -19.9159
   -19.9132 -19.9127 -19.9126 -19.9122 -19.9100 -19.9095 -19.9094 -19.9090
   -19.9087 -19.9086 -19.9081 -19.9079 -19.9034 -19.9034 -19.8996 -19.8994
   -19.8976 -19.8973 -19.8971 -19.8966 -19.8960 -19.8959 -19.8954 -19.8949
   -19.8947 -19.8942 -19.8931 -19.8924 -19.8885 -19.8879 -19.8853 -19.8846
    -9.5034  -9.3281  -9.2965  -9.0081  -9.0000  -8.6943  -8.6704  -8.5942
    -8.5615  -8.4937  -8.4020  -8.3657  -8.1757  -8.1054  -7.9788  -7.9616
    -7.9138  -7.8965  -7.8251  -7.7666  -7.7053  -7.6773  -7.4404  -7.3912
     1.5635   1.5718   1.8248   1.8317   2.3614   2.4363   2.5106   2.5804
     2.6628   2.6872   2.7370   2.8876   2.9623   3.0223   3.0452   3.1463
     3.4406   3.4855   3.8365   3.9019   3.9182   3.9920   4.0453   4.1445
     4.2088   4.3780   4.4395   4.5982   4.6454   4.7459   4.8058   4.8381
     5.0497   5.1220   5.1548   5.2799   5.3144   5.4617   5.4839   5.5110
     5.6278   5.7173   5.8002   5.8997   6.1004   6.1305   6.1875   6.2786
     6.6225   6.6397   6.6577   6.7008   6.8469   6.9195   7.0086   7.0667
     7.1366   7.1592   7.2045   7.2389   7.2793   7.3162   7.3647   7.4124
     7.5182   7.5704   7.8641   7.9231   7.9537   7.9699   8.0274   8.0409
    10.8480  10.9383  11.0012  11.1293  11.4630  11.5821  12.1186  12.2370
    12.3493  12.4138  12.4748  12.5947  12.7257  12.7515  12.8375  12.9228
    13.1213  13.2014  13.3432  13.4295  13.4348  13.7388  13.7987  13.9087
    15.2092  15.3931  15.6877  15.9754  16.0908  16.1990  16.3254  16.8330
    16.9846  17.0383  17.1719  17.7139  17.7328  17.9919

          k = 0.0000 0.3274-0.4986 ( 61756 PWs)   bands (ev):

   -65.7978 -65.7978 -65.7969 -65.7968 -65.7941 -65.7941 -65.7933 -65.7933
   -30.2912 -30.2912 -30.2555 -30.2555 -30.2514 -30.2514 -30.2142 -30.2142
   -30.1566 -30.1566 -30.1449 -30.1449 -30.1195 -30.1195 -30.1135 -30.1135
   -30.0902 -30.0902 -30.0558 -30.0558 -30.0484 -30.0483 -30.0059 -30.0059
   -19.9348 -19.9348 -19.9336 -19.9335 -19.9324 -19.9324 -19.9323 -19.9323
   -19.9278 -19.9278 -19.9260 -19.9260 -19.9211 -19.9211 -19.9201 -19.9201
   -19.9200 -19.9200 -19.9177 -19.9177 -19.9165 -19.9165 -19.9164 -19.9164
   -19.9129 -19.9129 -19.9125 -19.9125 -19.9097 -19.9097 -19.9090 -19.9090
   -19.9086 -19.9086 -19.9083 -19.9083 -19.9034 -19.9034 -19.8995 -19.8995
   -19.8974 -19.8974 -19.8966 -19.8966 -19.8961 -19.8961 -19.8955 -19.8955
   -19.8939 -19.8939 -19.8934 -19.8934 -19.8882 -19.8882 -19.8850 -19.8850
    -9.4010  -9.4010  -9.1276  -9.1276  -8.7823  -8.7823  -8.5194  -8.5194
    -8.4578  -8.4577  -8.4012  -8.4011  -8.1780  -8.1779  -8.1487  -8.1487
    -7.9393  -7.9393  -7.8771  -7.8771  -7.7013  -7.7013  -7.4157  -7.4156
     1.5673   1.5673   1.8355   1.8355   2.5070   2.5070   2.6496   2.6496
     3.0469   3.0469   3.2252   3.2252   3.2846   3.2846   3.4338   3.4338
     3.4797   3.4797   3.5391   3.5391   3.7914   3.7914   3.9271   3.9271
     4.0874   4.0874   4.1997   4.1997   4.4048   4.4048   4.5449   4.5450
     5.0797   5.0797   5.2011   5.2011   5.3271   5.3271   5.3928   5.3928
     5.5646   5.5646   5.8799   5.8799   6.1496   6.1496   6.2216   6.2216
     6.6026   6.6026   6.7102   6.7102   6.8519   6.8519   6.9621   6.9621
     7.2342   7.2342   7.2562   7.2563   7.2767   7.2767   7.6551   7.6551
     7.6890   7.6890   7.7791   7.7791   7.8213   7.8213   8.0251   8.0251
    10.9697  10.9697  11.5738  11.5738  11.7498  11.7498  11.9927  11.9927
    12.1582  12.1583  12.4294  12.4294  12.7609  12.7609  12.8962  12.8962
    13.1033  13.1033  13.2254  13.2254  13.5867  13.5867  13.7922  13.7922
    15.3060  15.3060  15.8621  15.8621  16.4777  16.4777  16.8583  16.8583
    16.9761  16.9761  17.5006  17.5006  18.0209  18.0209

          k = 0.0000-0.4910 0.0000 ( 61814 PWs)   bands (ev):

   -65.7982 -65.7974 -65.7972 -65.7965 -65.7946 -65.7938 -65.7937 -65.7929
   -30.2950 -30.2934 -30.2906 -30.2886 -30.2186 -30.2162 -30.2139 -30.2111
   -30.1453 -30.1415 -30.1397 -30.1369 -30.1327 -30.1260 -30.1232 -30.1213
   -30.0967 -30.0931 -30.0873 -30.0855 -30.0149 -30.0091 -30.0081 -30.0036
   -19.9349 -19.9348 -19.9337 -19.9336 -19.9335 -19.9334 -19.9313 -19.9313
   -19.9279 -19.9277 -19.9260 -19.9259 -19.9211 -19.9211 -19.9207 -19.9205
   -19.9194 -19.9193 -19.9178 -19.9176 -19.9175 -19.9172 -19.9153 -19.9153
   -19.9134 -19.9130 -19.9121 -19.9117 -19.9101 -19.9100 -19.9099 -19.9095
   -19.9092 -19.9086 -19.9078 -19.9076 -19.9035 -19.9033 -19.8997 -19.8993
   -19.8979 -19.8978 -19.8972 -19.8969 -19.8963 -19.8957 -19.8952 -19.8949
   -19.8947 -19.8944 -19.8924 -19.8914 -19.8889 -19.8876 -19.8856 -19.8843
    -9.5640  -9.5580  -9.2482  -9.2379  -8.9186  -8.9152  -8.6893  -8.6890
    -8.3149  -8.3091  -8.2678  -8.2560  -8.2472  -8.2435  -8.2304  -8.2236
    -7.7757  -7.7644  -7.6615  -7.6563  -7.4730  -7.4658  -7.3698  -7.3678
     1.4979   1.5265   1.5490   1.5849   1.7828   1.8156   1.9283   1.9609
     2.6632   2.6680   3.0372   3.0455   3.0901   3.1102   3.4833   3.5022
     3.5135   3.5472   3.5475   3.6010   3.6544   3.7627   3.9787   4.0151
     4.0215   4.0296   4.7707   4.8247   4.8822   4.9048   5.3548   5.4310
     5.4317   5.4500   5.4744   5.4750   5.4788   5.5176   5.7595   5.7963
     5.9454   5.9554   6.0114   6.0494   6.0744   6.0915   6.2718   6.2727
     6.4649   6.4833   6.6222   6.6273   6.6391   6.6542   7.0036   7.0460
     7.0815   7.0908   7.1001   7.1254   7.5103   7.5281   7.5353   7.5455
     7.6376   7.6589   7.7934   7.8115   7.8477   7.8786   8.0424   8.0533
    10.1203  10.1386  11.3690  11.4336  11.4774  11.5158  11.7813  11.8654
    11.8954  11.9654  12.5397  12.5911  12.8328  12.8385  13.0146  13.0440
    13.4349  13.4743  13.4806  13.4998  13.5078  13.5532  13.9159  13.9507
    15.2709  15.3481  15.5576  15.5969  15.7994  15.8591  16.0740  16.0903
    16.7440  16.7461  18.1358  18.1514  18.1727  18.1737

          k = 0.0000-0.4910 0.1662 ( 61800 PWs)   bands (ev):

   -65.7981 -65.7974 -65.7972 -65.7965 -65.7945 -65.7938 -65.7937 -65.7929
   -30.2930 -30.2896 -30.2889 -30.2852 -30.2232 -30.2186 -30.2158 -30.2114
   -30.1451 -30.1418 -30.1389 -30.1362 -30.1321 -30.1263 -30.1247 -30.1229
   -30.0928 -30.0912 -30.0876 -30.0808 -30.0204 -30.0145 -30.0078 -30.0039
   -19.9349 -19.9348 -19.9336 -19.9336 -19.9334 -19.9333 -19.9314 -19.9314
   -19.9279 -19.9277 -19.9260 -19.9259 -19.9211 -19.9211 -19.9206 -19.9204
   -19.9195 -19.9194 -19.9178 -19.9176 -19.9173 -19.9171 -19.9155 -19.9154
   -19.9133 -19.9129 -19.9122 -19.9118 -19.9100 -19.9099 -19.9097 -19.9095
   -19.9092 -19.9087 -19.9080 -19.9077 -19.9035 -19.9033 -19.8997 -19.8994
   -19.8977 -19.8977 -19.8970 -19.8969 -19.8963 -19.8954 -19.8954 -19.8949
   -19.8947 -19.8945 -19.8926 -19.8917 -19.8888 -19.8877 -19.8855 -19.8844
    -9.5240  -9.4990  -9.2509  -9.1674  -8.9353  -8.8462  -8.6666  -8.6432
    -8.3222  -8.3164  -8.2734  -8.2551  -8.2476  -8.2407  -8.2327  -8.2133
    -7.8782  -7.7734  -7.7588  -7.6629  -7.5782  -7.4793  -7.4593  -7.3742
     1.5486   1.5803   1.6931   1.7760   1.8190   2.0164   2.0297   2.1416
     2.7450   2.7548   3.0433   3.0440   3.1348   3.1456   3.4615   3.4718
     3.5026   3.5566   3.5679   3.6487   3.6766   3.8343   3.9712   4.0276
     4.0482   4.0621   4.5259   4.5284   4.8412   4.8590   5.1093   5.2084
     5.2597   5.2666   5.3953   5.4336   5.4608   5.5498   5.7150   5.7758
     5.7966   5.8989   5.9087   5.9308   6.0196   6.0515   6.1441   6.2757
     6.5431   6.5728   6.6143   6.6764   6.8052   6.8400   6.9425   6.9965
     7.0746   7.1433   7.1928   7.2326   7.3311   7.4253   7.5392   7.5438
     7.6294   7.6374   7.8044   7.8130   7.8383   7.8719   8.0292   8.0395
    10.3631  10.3989  11.4541  11.4991  11.5168  11.5501  11.8477  11.8862
    11.9661  11.9898  12.4766  12.6440  12.8780  12.8967  12.9127  13.0670
    13.3173  13.3795  13.3909  13.4321  13.4897  13.5068  13.8980  13.9346
    15.2480  15.4536  15.5650  15.8018  15.9195  16.0089  16.1009  16.3060
    16.7977  16.8165  17.9103  18.0446  18.1536  18.1681

          k = 0.0000-0.4910 0.3324 ( 61744 PWs)   bands (ev):

   -65.7980 -65.7976 -65.7970 -65.7966 -65.7944 -65.7939 -65.7935 -65.7931
   -30.2922 -30.2898 -30.2749 -30.2705 -30.2363 -30.2318 -30.2148 -30.2123
   -30.1445 -30.1425 -30.1367 -30.1341 -30.1309 -30.1284 -30.1273 -30.1266
   -30.0917 -30.0888 -30.0762 -30.0674 -30.0354 -30.0289 -30.0070 -30.0048
   -19.9348 -19.9348 -19.9336 -19.9335 -19.9329 -19.9329 -19.9318 -19.9318
   -19.9278 -19.9278 -19.9260 -19.9260 -19.9211 -19.9211 -19.9204 -19.9202
   -19.9198 -19.9196 -19.9177 -19.9177 -19.9169 -19.9168 -19.9158 -19.9158
   -19.9131 -19.9127 -19.9125 -19.9121 -19.9099 -19.9096 -19.9094 -19.9092
   -19.9091 -19.9088 -19.9083 -19.9081 -19.9034 -19.9034 -19.8996 -19.8994
   -19.8976 -19.8973 -19.8971 -19.8966 -19.8960 -19.8959 -19.8954 -19.8949
   -19.8947 -19.8942 -19.8932 -19.8924 -19.8885 -19.8879 -19.8853 -19.8846
    -9.4428  -9.3307  -9.2894  -9.0021  -8.9413  -8.6546  -8.5885  -8.5078
    -8.3850  -8.3459  -8.2954  -8.2634  -8.2427  -8.2302  -8.2263  -8.1748
    -8.1065  -8.0222  -7.8375  -7.7833  -7.7074  -7.6809  -7.4412  -7.3919
     1.5643   1.5728   1.8284   1.8340   2.4077   2.5679   2.6210   2.7437
     2.9771   2.9914   3.0517   3.0641   3.2238   3.2678   3.3843   3.4634
     3.4940   3.5414   3.5881   3.6239   3.8199   3.9248   3.9592   4.0254
     4.0364   4.1128   4.1142   4.1364   4.5031   4.5605   4.6793   4.7929
     4.8713   5.0148   5.0785   5.1235   5.2842   5.3962   5.4233   5.4943
     5.5021   5.6643   5.7566   5.8172   6.0989   6.1544   6.1917   6.2968
     6.6367   6.6443   6.6542   6.6944   6.8063   6.9316   6.9579   7.1480
     7.1668   7.2366   7.2387   7.3035   7.4393   7.4659   7.5167   7.5643
     7.6099   7.6665   7.7935   7.8114   7.8212   7.8458   7.9530   7.9660
    10.9039  11.0233  11.4762  11.5229  11.7849  11.8450  11.8585  12.0063
    12.1311  12.1823  12.2490  12.4615  12.7988  12.8225  12.8828  12.8933
    13.0971  13.1254  13.1617  13.2569  13.5301  13.5332  13.8002  13.8209
    15.2601  15.4856  15.7084  15.9944  16.2483  16.5778  16.6384  16.9524
    16.9825  17.0532  17.5029  17.5385  18.0546  18.1071

          k = 0.0000-0.4910-0.4986 ( 61748 PWs)   bands (ev):

   -65.7978 -65.7978 -65.7968 -65.7968 -65.7941 -65.7941 -65.7933 -65.7933
   -30.2910 -30.2910 -30.2552 -30.2552 -30.2508 -30.2508 -30.2135 -30.2135
   -30.1435 -30.1435 -30.1332 -30.1332 -30.1308 -30.1308 -30.1287 -30.1287
   -30.0903 -30.0903 -30.0558 -30.0558 -30.0484 -30.0484 -30.0059 -30.0059
   -19.9348 -19.9348 -19.9336 -19.9335 -19.9324 -19.9324 -19.9323 -19.9323
   -19.9278 -19.9278 -19.9260 -19.9260 -19.9211 -19.9211 -19.9201 -19.9201
   -19.9199 -19.9199 -19.9177 -19.9177 -19.9164 -19.9164 -19.9163 -19.9163
   -19.9128 -19.9128 -19.9124 -19.9124 -19.9098 -19.9098 -19.9089 -19.9089
   -19.9088 -19.9088 -19.9086 -19.9086 -19.9034 -19.9034 -19.8995 -19.8995
   -19.8974 -19.8974 -19.8966 -19.8966 -19.8961 -19.8961 -19.8955 -19.8955
   -19.8939 -19.8939 -19.8934 -19.8934 -19.8882 -19.8882 -19.8850 -19.8850
    -9.3563  -9.3563  -9.1362  -9.1362  -8.6305  -8.6304  -8.4448  -8.4448
    -8.4258  -8.4258  -8.3480  -8.3480  -8.2253  -8.2253  -8.1887  -8.1887
    -8.1046  -8.1046  -8.0358  -8.0358  -7.7048  -7.7048  -7.4163  -7.4163
     1.5683   1.5683   1.8389   1.8389   2.9699   2.9699   3.2061   3.2061
     3.2379   3.2379   3.2787   3.2787   3.2945   3.2945   3.4322   3.4322
     3.4827   3.4827   3.5775   3.5775   3.6251   3.6251   3.7284   3.7284
     3.9606   3.9606   4.0410   4.0410   4.4608   4.4608   4.5374   4.5374
     4.5806   4.5806   4.6719   4.6719   5.3216   5.3216   5.4090   5.4090
     5.5576   5.5576   5.7728   5.7728   6.1775   6.1775   6.2243   6.2243
     6.6187   6.6187   6.6976   6.6976   6.8629   6.8629   6.9352   6.9352
     7.3598   7.3598   7.3999   7.3999   7.5104   7.5105   7.6111   7.6111
     7.7066   7.7066   7.7499   7.7499   7.7776   7.7776   7.8875   7.8875
    11.4011  11.4011  11.6510  11.6510  11.7271  11.7271  11.9565  11.9565
    12.2943  12.2943  12.3725  12.3725  12.5823  12.5823  12.6680  12.6680
    13.0053  13.0053  13.1885  13.1885  13.6238  13.6238  13.6485  13.6485
    15.3671  15.3671  15.8848  15.8848  16.8670  16.8670  17.0816  17.0816
    17.4546  17.4546  17.5866  17.5866  17.7322  17.7323

          k = 0.1667 0.0000 0.0000 ( 61793 PWs)   bands (ev):

   -65.7981 -65.7974 -65.7973 -65.7966 -65.7945 -65.7938 -65.7936 -65.7929
   -30.2967 -30.2917 -30.2872 -30.2840 -30.2283 -30.2246 -30.2225 -30.2076
   -30.1782 -30.1653 -30.1624 -30.1508 -30.1071 -30.1035 -30.0970 -30.0945
   -30.0920 -30.0858 -30.0839 -30.0812 -30.0145 -30.0137 -30.0102 -30.0084
   -19.9348 -19.9347 -19.9337 -19.9336 -19.9336 -19.9335 -19.9313 -19.9313
   -19.9279 -19.9277 -19.9263 -19.9262 -19.9209 -19.9208 -19.9207 -19.9206
   -19.9195 -19.9195 -19.9180 -19.9179 -19.9178 -19.9178 -19.9156 -19.9155
   -19.9135 -19.9132 -19.9126 -19.9123 -19.9107 -19.9104 -19.9087 -19.9086
   -19.9081 -19.9080 -19.9074 -19.9071 -19.9031 -19.9030 -19.8999 -19.8995
   -19.8979 -19.8976 -19.8972 -19.8967 -19.8961 -19.8957 -19.8951 -19.8951
   -19.8948 -19.8945 -19.8923 -19.8914 -19.8887 -19.8874 -19.8858 -19.8846
    -9.7322  -9.3914  -9.3847  -9.3189  -8.9853  -8.9413  -8.8983  -8.7637
    -8.6603  -8.6208  -8.5707  -8.5642  -7.8994  -7.7920  -7.7891  -7.6925
    -7.5910  -7.5744  -7.5350  -7.5286  -7.4874  -7.4757  -7.4632  -7.3745
     1.5041   1.5330   1.6776   1.6902   1.7132   1.7161   1.7437   1.8717
     1.8791   2.0829   2.1038   2.2885   2.6513   2.7015   2.8177   2.8476
     2.8630   2.9296   4.2773   4.4171   4.4481   4.5693   4.5792   4.6792
     4.8021   4.8450   4.9000   4.9377   4.9692   5.2349   5.4346   5.4623
     5.5326   5.6043   5.6400   5.7051   5.7288   5.8126   5.8484   5.9254
     5.9375   5.9757   5.9830   6.0137   6.0230   6.1146   6.2101   6.2610
     6.3537   6.5221   6.6100   6.6789   6.7753   6.8688   6.8917   7.0100
     7.0171   7.0596   7.0774   7.1355   7.1736   7.2134   7.2378   7.3043
     7.4193   7.4505   7.9889   8.0231   8.0913   8.1018   8.2345   8.3156
    10.1958  10.2987  10.3142  10.3987  10.5393  10.6215  12.3940  12.4580
    12.5324  12.6051  12.6782  12.8515  12.8988  13.0030  13.0721  13.1813
    13.2455  13.4196  13.4481  13.5844  13.8116  13.9454  14.0242  14.2167
    14.9364  15.0366  15.0577  15.1882  15.4768  15.6948  15.9791  16.0766
    16.4017  16.8868  17.1055  17.3486  17.6503  17.8569

          k = 0.1667 0.0000 0.1662 ( 61783 PWs)   bands (ev):

   -65.7981 -65.7974 -65.7973 -65.7966 -65.7944 -65.7937 -65.7937 -65.7930
   -30.2926 -30.2865 -30.2855 -30.2843 -30.2303 -30.2264 -30.2241 -30.2103
   -30.1776 -30.1646 -30.1642 -30.1523 -30.1059 -30.1022 -30.0975 -30.0927
   -30.0902 -30.0852 -30.0816 -30.0798 -30.0200 -30.0150 -30.0134 -30.0093
   -19.9348 -19.9347 -19.9337 -19.9336 -19.9334 -19.9334 -19.9314 -19.9314
   -19.9279 -19.9278 -19.9263 -19.9262 -19.9209 -19.9208 -19.9207 -19.9205
   -19.9196 -19.9195 -19.9179 -19.9178 -19.9178 -19.9177 -19.9157 -19.9157
   -19.9135 -19.9131 -19.9127 -19.9124 -19.9105 -19.9102 -19.9087 -19.9086
   -19.9082 -19.9080 -19.9075 -19.9071 -19.9031 -19.9030 -19.8999 -19.8996
   -19.8977 -19.8975 -19.8970 -19.8968 -19.8961 -19.8954 -19.8953 -19.8950
   -19.8949 -19.8946 -19.8925 -19.8917 -19.8886 -19.8875 -19.8857 -19.8846
    -9.6873  -9.3360  -9.3319  -9.3299  -8.9519  -8.9218  -8.9108  -8.7476
    -8.6210  -8.5790  -8.5736  -8.5461  -7.9163  -7.8683  -7.8023  -7.7989
    -7.5951  -7.5795  -7.5661  -7.5376  -7.5299  -7.4914  -7.4869  -7.4769
     1.6410   1.6753   1.6803   1.7411   1.7769   1.8140   1.8450   1.8786
     2.0664   2.0983   2.1960   2.3469   2.7080   2.7764   2.8801   2.9087
     2.9248   2.9576   4.2506   4.3160   4.4395   4.4680   4.5664   4.5879
     4.6516   4.7367   4.7822   4.8398   4.9711   5.0483   5.3170   5.3641
     5.4558   5.5633   5.5776   5.6452   5.6722   5.7589   5.8269   5.8588
     5.9146   5.9430   5.9569   5.9971   6.0459   6.0758   6.1379   6.3475
     6.3712   6.6203   6.6447   6.7130   6.8365   6.8441   6.9573   6.9616
     6.9963   7.0081   7.0578   7.0607   7.1170   7.1826   7.2442   7.3058
     7.3874   7.4114   7.9780   8.0059   8.0812   8.1153   8.1999   8.2900
    10.3733  10.3853  10.5053  10.5342  10.6911  10.7499  12.4190  12.4871
    12.4976  12.5746  12.6642  12.7958  12.9330  12.9932  13.0379  13.1962
    13.2572  13.3161  13.5275  13.5791  13.8218  13.8917  14.0308  14.1153
    14.9675  15.1149  15.1424  15.1992  15.5295  15.7818  15.9714  16.2949
    16.3546  17.0396  17.0869  17.2590  17.7271  17.9016

          k = 0.1667 0.0000 0.3324 ( 61743 PWs)   bands (ev):

   -65.7979 -65.7976 -65.7971 -65.7967 -65.7943 -65.7938 -65.7936 -65.7931
   -30.2883 -30.2853 -30.2745 -30.2722 -30.2387 -30.2377 -30.2226 -30.2160
   -30.1757 -30.1683 -30.1627 -30.1559 -30.1039 -30.0996 -30.0992 -30.0945
   -30.0854 -30.0827 -30.0749 -30.0674 -30.0349 -30.0294 -30.0126 -30.0103
   -19.9347 -19.9347 -19.9337 -19.9336 -19.9330 -19.9329 -19.9318 -19.9318
   -19.9279 -19.9278 -19.9263 -19.9262 -19.9209 -19.9209 -19.9205 -19.9203
   -19.9199 -19.9198 -19.9179 -19.9178 -19.9174 -19.9173 -19.9162 -19.9161
   -19.9133 -19.9130 -19.9128 -19.9125 -19.9100 -19.9097 -19.9090 -19.9085
   -19.9084 -19.9078 -19.9077 -19.9073 -19.9031 -19.9030 -19.8998 -19.8996
   -19.8975 -19.8972 -19.8970 -19.8967 -19.8959 -19.8958 -19.8955 -19.8950
   -19.8946 -19.8944 -19.8931 -19.8925 -19.8884 -19.8877 -19.8855 -19.8849
    -9.5797  -9.3826  -9.1967  -9.1884  -8.9872  -8.9547  -8.7439  -8.6972
    -8.5947  -8.5427  -8.4293  -8.4214  -8.1573  -8.0877  -7.8981  -7.8451
    -7.8231  -7.7405  -7.5858  -7.5630  -7.5366  -7.5274  -7.5017  -7.4951
     1.6619   1.6723   1.7268   1.7364   1.8763   1.8807   2.0660   2.1079
     2.4611   2.6204   2.6896   2.7819   2.8103   2.8975   3.0220   3.0873
     3.1634   3.1975   3.8925   3.9891   4.1269   4.1529   4.1627   4.4544
     4.5696   4.6019   4.6400   4.7227   4.8530   4.9121   4.9598   5.0531
     5.2360   5.2826   5.3418   5.3926   5.4694   5.6270   5.6812   5.8655
     5.8806   5.9078   5.9447   5.9766   6.0815   6.1037   6.1682   6.3547
     6.4665   6.5632   6.6313   6.6858   6.7218   6.7759   6.8977   6.9786
     6.9898   7.0610   7.0970   7.1479   7.1986   7.2824   7.3584   7.3951
     7.4500   7.5246   7.9093   7.9149   8.0122   8.0605   8.1550   8.2223
    10.4531  10.4684  10.9585  11.0536  11.1527  11.3210  12.1822  12.2439
    12.3857  12.5039  12.5640  12.6717  12.8176  13.0115  13.1224  13.1586
    13.2990  13.3460  13.4405  13.5269  13.7806  13.7896  13.9237  13.9512
    15.0669  15.1631  15.3639  15.4350  15.8725  15.9167  16.0745  16.1688
    16.6572  17.0104  17.5224  17.5311  17.6923  17.9333

          k = 0.1667 0.0000-0.4986 ( 61754 PWs)   bands (ev):

   -65.7978 -65.7977 -65.7969 -65.7969 -65.7940 -65.7940 -65.7933 -65.7933
   -30.2866 -30.2866 -30.2560 -30.2560 -30.2538 -30.2538 -30.2202 -30.2202
   -30.1725 -30.1725 -30.1597 -30.1597 -30.1017 -30.1017 -30.0968 -30.0968
   -30.0840 -30.0840 -30.0551 -30.0551 -30.0488 -30.0487 -30.0115 -30.0115
   -19.9347 -19.9347 -19.9336 -19.9336 -19.9324 -19.9324 -19.9323 -19.9323
   -19.9278 -19.9278 -19.9263 -19.9263 -19.9209 -19.9209 -19.9202 -19.9202
   -19.9201 -19.9201 -19.9179 -19.9179 -19.9168 -19.9168 -19.9167 -19.9167
   -19.9131 -19.9131 -19.9128 -19.9127 -19.9095 -19.9095 -19.9091 -19.9091
   -19.9080 -19.9080 -19.9076 -19.9075 -19.9031 -19.9031 -19.8997 -19.8997
   -19.8973 -19.8973 -19.8966 -19.8966 -19.8961 -19.8961 -19.8955 -19.8955
   -19.8939 -19.8939 -19.8934 -19.8934 -19.8880 -19.8880 -19.8852 -19.8852
    -9.4661  -9.4661  -9.0620  -9.0620  -9.0459  -9.0459  -8.6340  -8.6340
    -8.4713  -8.4713  -8.3851  -8.3851  -8.1800  -8.1800  -8.1381  -8.1381
    -7.8226  -7.8226  -7.5734  -7.5734  -7.5190  -7.5190  -7.5138  -7.5138
     1.6656   1.6656   1.7329   1.7329   1.8828   1.8828   2.1096   2.1096
     2.8235   2.8235   3.2169   3.2169   3.2872   3.2872   3.3747   3.3747
     3.4601   3.4601   3.5402   3.5402   3.7597   3.7597   3.8901   3.8901
     4.0728   4.0728   4.5387   4.5387   4.7982   4.7982   5.1155   5.1155
     5.1628   5.1628   5.2838   5.2838   5.4577   5.4577   5.7529   5.7529
     5.8971   5.8971   5.9173   5.9173   6.1072   6.1072   6.2960   6.2960
     6.4905   6.4905   6.6288   6.6288   6.6766   6.6766   6.9341   6.9341
     7.0524   7.0524   7.1376   7.1376   7.1980   7.1980   7.6780   7.6780
     7.7088   7.7088   7.7841   7.7841   7.8452   7.8452   8.1746   8.1746
    10.4699  10.4699  11.5914  11.5914  11.7216  11.7216  11.7707  11.7707
    12.0285  12.0285  12.5728  12.5728  13.0497  13.0497  13.1182  13.1182
    13.3180  13.3180  13.5376  13.5376  13.5765  13.5765  13.8937  13.8937
    15.1336  15.1336  15.6712  15.6712  15.7936  15.7936  16.3139  16.3139
    16.7950  16.7950  17.8297  17.8297  18.1710  18.1710

          k = 0.1667 0.1637 0.0000 ( 61800 PWs)   bands (ev):

   -65.7981 -65.7974 -65.7973 -65.7965 -65.7945 -65.7938 -65.7936 -65.7929
   -30.2962 -30.2915 -30.2873 -30.2838 -30.2261 -30.2236 -30.2214 -30.2083
   -30.1735 -30.1618 -30.1592 -30.1478 -30.1112 -30.1073 -30.1012 -30.0967
   -30.0951 -30.0863 -30.0849 -30.0813 -30.0145 -30.0137 -30.0101 -30.0086
   -19.9348 -19.9347 -19.9337 -19.9336 -19.9335 -19.9335 -19.9313 -19.9313
   -19.9279 -19.9277 -19.9263 -19.9262 -19.9209 -19.9208 -19.9207 -19.9206
   -19.9195 -19.9194 -19.9180 -19.9178 -19.9178 -19.9177 -19.9155 -19.9155
   -19.9135 -19.9132 -19.9125 -19.9122 -19.9106 -19.9103 -19.9089 -19.9088
   -19.9083 -19.9081 -19.9076 -19.9073 -19.9031 -19.9030 -19.8999 -19.8996
   -19.8978 -19.8976 -19.8972 -19.8967 -19.8961 -19.8958 -19.8951 -19.8951
   -19.8948 -19.8945 -19.8923 -19.8914 -19.8887 -19.8874 -19.8858 -19.8846
    -9.6962  -9.3980  -9.3571  -9.2777  -8.9758  -8.8889  -8.8614  -8.7321
    -8.6590  -8.5921  -8.5568  -8.5444  -7.9062  -7.7998  -7.7973  -7.7152
    -7.6781  -7.6442  -7.6165  -7.6038  -7.5649  -7.4742  -7.4638  -7.3751
     1.5131   1.5415   1.7026   1.7629   1.7796   1.8409   1.9539   1.9685
     2.0435   2.1113   2.1526   2.3486   2.6878   2.7554   2.8090   2.9368
     2.9536   3.0090   4.1945   4.2967   4.3650   4.4284   4.5355   4.5592
     4.6210   4.7958   4.8498   4.9106   4.9975   5.1536   5.3117   5.3917
     5.4724   5.5813   5.5967   5.6597   5.7184   5.7486   5.7682   5.8438
     5.8659   5.9285   5.9484   6.0341   6.0915   6.0962   6.2003   6.2572
     6.3771   6.5611   6.6269   6.7034   6.7981   6.8554   6.8994   6.9774
     7.0066   7.0483   7.1093   7.1306   7.1715   7.2192   7.2500   7.2751
     7.4107   7.4573   7.9792   8.0218   8.0855   8.0959   8.2014   8.2525
    10.2812  10.3594  10.4644  10.5315  10.6739  10.7559  12.3776  12.4564
    12.5467  12.5994  12.6465  12.7265  12.8810  13.0023  13.0127  13.0755
    13.1837  13.3674  13.4230  13.5930  13.8058  13.9551  13.9853  14.1521
    15.0155  15.1546  15.2367  15.3296  15.4676  15.6858  16.0492  16.3797
    16.3945  16.8625  17.0289  17.4614  17.7019  17.9014

          k = 0.1667 0.1637 0.1662 ( 61772 PWs)   bands (ev):

   -65.7981 -65.7974 -65.7973 -65.7966 -65.7944 -65.7937 -65.7937 -65.7930
   -30.2919 -30.2863 -30.2858 -30.2841 -30.2282 -30.2255 -30.2231 -30.2110
   -30.1729 -30.1611 -30.1607 -30.1492 -30.1103 -30.1063 -30.1020 -30.0973
   -30.0904 -30.0858 -30.0818 -30.0804 -30.0200 -30.0150 -30.0134 -30.0094
   -19.9348 -19.9347 -19.9337 -19.9336 -19.9334 -19.9334 -19.9314 -19.9314
   -19.9279 -19.9277 -19.9263 -19.9262 -19.9209 -19.9208 -19.9206 -19.9205
   -19.9196 -19.9195 -19.9179 -19.9178 -19.9177 -19.9176 -19.9157 -19.9156
   -19.9134 -19.9131 -19.9126 -19.9123 -19.9104 -19.9101 -19.9089 -19.9088
   -19.9083 -19.9082 -19.9076 -19.9073 -19.9031 -19.9030 -19.8999 -19.8996
   -19.8977 -19.8975 -19.8971 -19.8968 -19.8961 -19.8954 -19.8953 -19.8950
   -19.8949 -19.8946 -19.8925 -19.8917 -19.8886 -19.8875 -19.8857 -19.8846
    -9.6498  -9.3452  -9.2941  -9.2915  -8.9122  -8.9026  -8.8719  -8.7150
    -8.6203  -8.5560  -8.5516  -8.5352  -7.9238  -7.8696  -7.8100  -7.8044
    -7.6887  -7.6502  -7.6428  -7.6069  -7.5697  -7.5565  -7.4842  -7.4779
     1.7207   1.7507   1.7662   1.7870   1.9028   1.9427   1.9587   1.9719
     2.1203   2.1523   2.1977   2.3993   2.7674   2.8105   2.8971   2.9757
     3.0094   3.0371   4.1914   4.2374   4.3819   4.4056   4.4823   4.5717
     4.5906   4.6289   4.6516   4.8480   4.8686   4.9375   5.2617   5.2835
     5.3174   5.5363   5.5554   5.5830   5.6296   5.6446   5.6835   5.7875
     5.8750   5.9130   5.9573   6.0114   6.0322   6.0885   6.1224   6.2226
     6.4848   6.6161   6.6684   6.7746   6.8313   6.8358   6.9283   6.9472
     6.9866   7.0205   7.0947   7.1099   7.1651   7.1845   7.2794   7.2903
     7.3886   7.4112   7.9695   8.0049   8.0784   8.0990   8.1695   8.2307
    10.4695  10.4903  10.6575  10.6672  10.7555  10.8461  12.4090  12.4840
    12.5127  12.5621  12.6651  12.7561  12.8404  12.9795  13.0295  13.0648
    13.1792  13.2353  13.4927  13.5745  13.8064  13.8666  14.0063  14.0495
    15.0924  15.2610  15.2990  15.3523  15.5210  15.7792  16.2631  16.3395
    16.3908  16.9824  17.1613  17.2046  17.7714  17.9415

          k = 0.1667 0.1637 0.3324 ( 61738 PWs)   bands (ev):

   -65.7979 -65.7975 -65.7971 -65.7967 -65.7943 -65.7938 -65.7936 -65.7931
   -30.2879 -30.2850 -30.2745 -30.2718 -30.2378 -30.2365 -30.2218 -30.2162
   -30.1712 -30.1643 -30.1592 -30.1526 -30.1086 -30.1042 -30.1038 -30.0992
   -30.0856 -30.0828 -30.0752 -30.0676 -30.0350 -30.0294 -30.0126 -30.0103
   -19.9347 -19.9347 -19.9337 -19.9336 -19.9330 -19.9329 -19.9318 -19.9318
   -19.9278 -19.9278 -19.9263 -19.9262 -19.9209 -19.9209 -19.9204 -19.9203
   -19.9198 -19.9197 -19.9179 -19.9179 -19.9172 -19.9172 -19.9161 -19.9161
   -19.9133 -19.9129 -19.9128 -19.9124 -19.9100 -19.9097 -19.9091 -19.9086
   -19.9086 -19.9080 -19.9079 -19.9075 -19.9031 -19.9030 -19.8998 -19.8996
   -19.8975 -19.8972 -19.8970 -19.8967 -19.8959 -19.8958 -19.8955 -19.8951
   -19.8946 -19.8944 -19.8931 -19.8925 -19.8884 -19.8877 -19.8855 -19.8849
    -9.5391  -9.3409  -9.2069  -9.1352  -8.9517  -8.9083  -8.7361  -8.6624
    -8.5703  -8.5413  -8.4217  -8.4168  -8.1587  -8.0898  -7.9055  -7.8508
    -7.8268  -7.7460  -7.6816  -7.6529  -7.6352  -7.6089  -7.5421  -7.4952
     1.7624   1.7741   1.9338   1.9515   1.9646   1.9788   2.0952   2.1550
     2.4635   2.6273   2.6897   2.8102   2.8680   2.9708   3.0465   3.1488
     3.1850   3.2690   3.9005   4.0106   4.1078   4.1395   4.1818   4.4167
     4.5086   4.5415   4.6044   4.6354   4.6904   4.7929   4.9307   4.9482
     5.1098   5.1814   5.2398   5.2703   5.4207   5.4620   5.6344   5.6732
     5.8313   5.8728   5.9138   5.9491   5.9953   6.0557   6.1189   6.1828
     6.5374   6.6073   6.7344   6.7500   6.7999   6.8679   6.9455   6.9812
     7.0140   7.0398   7.1180   7.1931   7.2310   7.2841   7.3670   7.3951
     7.4653   7.5371   7.9039   7.9159   8.0110   8.0401   8.1278   8.1739
    10.6219  10.6347  11.0108  11.1365  11.1907  11.3670  12.1884  12.2730
    12.4130  12.5210  12.5803  12.6968  12.7962  12.8755  13.0068  13.1005
    13.1875  13.2513  13.4152  13.4979  13.7028  13.7160  13.8925  13.9268
    15.2273  15.3048  15.4955  15.6586  15.9206  16.0879  16.1697  16.2939
    16.7168  17.0123  17.3783  17.5761  17.6257  17.9703

          k = 0.1667 0.1637-0.4986 ( 61748 PWs)   bands (ev):

   -65.7977 -65.7977 -65.7969 -65.7969 -65.7941 -65.7941 -65.7933 -65.7933
   -30.2863 -30.2863 -30.2557 -30.2557 -30.2531 -30.2531 -30.2197 -30.2197
   -30.1682 -30.1682 -30.1562 -30.1562 -30.1064 -30.1064 -30.1015 -30.1015
   -30.0842 -30.0842 -30.0552 -30.0552 -30.0488 -30.0488 -30.0115 -30.0115
   -19.9347 -19.9347 -19.9336 -19.9336 -19.9324 -19.9324 -19.9323 -19.9323
   -19.9278 -19.9278 -19.9262 -19.9262 -19.9209 -19.9209 -19.9202 -19.9202
   -19.9200 -19.9200 -19.9179 -19.9179 -19.9167 -19.9167 -19.9166 -19.9166
   -19.9130 -19.9130 -19.9127 -19.9127 -19.9095 -19.9095 -19.9091 -19.9091
   -19.9082 -19.9082 -19.9078 -19.9078 -19.9031 -19.9031 -19.8997 -19.8997
   -19.8973 -19.8973 -19.8966 -19.8966 -19.8961 -19.8961 -19.8955 -19.8955
   -19.8939 -19.8939 -19.8934 -19.8934 -19.8880 -19.8880 -19.8852 -19.8852
    -9.4241  -9.4241  -9.0524  -9.0524  -8.9881  -8.9881  -8.6034  -8.6034
    -8.4708  -8.4708  -8.3852  -8.3852  -8.1807  -8.1807  -8.1398  -8.1398
    -7.8268  -7.8267  -7.6692  -7.6692  -7.6244  -7.6244  -7.5185  -7.5185
     1.7674   1.7674   1.9491   1.9491   1.9740   1.9740   2.1531   2.1531
     2.9006   2.9006   3.2273   3.2273   3.2963   3.2963   3.3965   3.3965
     3.4682   3.4682   3.5596   3.5596   3.7762   3.7762   3.9330   3.9330
     4.0783   4.0783   4.5080   4.5080   4.6056   4.6056   4.9642   4.9642
     5.0682   5.0682   5.2058   5.2058   5.2799   5.2800   5.7023   5.7023
     5.7791   5.7791   5.8836   5.8836   5.9992   5.9992   6.1420   6.1420
     6.6008   6.6008   6.7312   6.7312   6.8401   6.8401   6.9422   6.9422
     7.0315   7.0315   7.1425   7.1425   7.2536   7.2537   7.6791   7.6791
     7.7034   7.7034   7.7887   7.7887   7.8435   7.8436   8.1393   8.1393
    10.6427  10.6427  11.6170  11.6170  11.7675  11.7675  11.8085  11.8085
    12.0551  12.0551  12.6054  12.6054  12.9143  12.9143  13.0883  13.0883
    13.2670  13.2670  13.4122  13.4122  13.5150  13.5151  13.8684  13.8684
    15.2823  15.2823  15.8134  15.8135  16.0564  16.0564  16.3447  16.3447
    16.8368  16.8368  17.7768  17.7768  18.0459  18.0459

          k = 0.1667 0.3274 0.0000 ( 61795 PWs)   bands (ev):

   -65.7981 -65.7973 -65.7973 -65.7965 -65.7945 -65.7938 -65.7936 -65.7929
   -30.2952 -30.2911 -30.2877 -30.2833 -30.2218 -30.2207 -30.2192 -30.2107
   -30.1605 -30.1513 -30.1499 -30.1390 -30.1237 -30.1190 -30.1131 -30.1087
   -30.0960 -30.0870 -30.0863 -30.0814 -30.0146 -30.0137 -30.0098 -30.0089
   -19.9348 -19.9347 -19.9337 -19.9337 -19.9335 -19.9335 -19.9313 -19.9313
   -19.9278 -19.9276 -19.9262 -19.9261 -19.9209 -19.9209 -19.9207 -19.9205
   -19.9195 -19.9193 -19.9180 -19.9178 -19.9176 -19.9174 -19.9154 -19.9154
   -19.9134 -19.9131 -19.9123 -19.9120 -19.9104 -19.9101 -19.9094 -19.9091
   -19.9088 -19.9084 -19.9078 -19.9076 -19.9031 -19.9030 -19.8999 -19.8996
   -19.8978 -19.8976 -19.8972 -19.8967 -19.8962 -19.8958 -19.8952 -19.8951
   -19.8948 -19.8945 -19.8923 -19.8915 -19.8887 -19.8874 -19.8858 -19.8846
    -9.6095  -9.4386  -9.2915  -9.1959  -8.9524  -8.8620  -8.6767  -8.6523
    -8.6364  -8.4808  -8.4755  -8.4543  -8.0167  -7.9451  -7.9397  -7.9079
    -7.8518  -7.7660  -7.7560  -7.6650  -7.5687  -7.4754  -7.4652  -7.3760
     1.5155   1.5449   1.7015   1.7836   1.8046   1.9975   2.0367   2.1644
     2.5071   2.6070   2.6442   2.7201   2.7768   2.7872   2.9753   3.2051
     3.2530   3.2682   3.8565   3.8700   3.9567   4.0275   4.2424   4.5165
     4.5394   4.6862   4.7412   4.7739   4.8981   5.0142   5.0603   5.0907
     5.2461   5.2602   5.3679   5.4785   5.5231   5.7009   5.7424   5.7851
     5.8637   5.8989   5.9210   5.9576   6.0482   6.0856   6.1535   6.2646
     6.4931   6.5580   6.6385   6.7123   6.8210   6.8736   6.9140   7.0563
     7.0858   7.1548   7.1745   7.1892   7.2761   7.2965   7.3116   7.3346
     7.4342   7.4841   7.9162   8.0013   8.0062   8.0567   8.0671   8.0750
    10.3366  10.4090  10.9219  10.9588  11.1151  11.2052  12.1604  12.2761
    12.3472  12.4516  12.5288  12.5980  12.7674  12.9195  12.9961  13.0495
    13.1545  13.3620  13.3685  13.5467  13.6431  13.7911  13.8871  14.0100
    15.1842  15.4106  15.4285  15.6168  15.7616  15.9450  16.0583  16.3521
    16.4014  17.2740  17.4095  17.5510  17.8761  17.9587

          k = 0.1667 0.3274 0.1662 ( 61771 PWs)   bands (ev):

   -65.7981 -65.7974 -65.7972 -65.7966 -65.7945 -65.7937 -65.7937 -65.7930
   -30.2904 -30.2868 -30.2857 -30.2836 -30.2238 -30.2230 -30.2213 -30.2132
   -30.1600 -30.1509 -30.1506 -30.1401 -30.1232 -30.1182 -30.1141 -30.1095
   -30.0906 -30.0866 -30.0822 -30.0812 -30.0201 -30.0149 -30.0134 -30.0095
   -19.9348 -19.9347 -19.9337 -19.9336 -19.9334 -19.9333 -19.9314 -19.9314
   -19.9278 -19.9277 -19.9262 -19.9261 -19.9209 -19.9209 -19.9206 -19.9204
   -19.9196 -19.9194 -19.9179 -19.9178 -19.9174 -19.9174 -19.9155 -19.9155
   -19.9133 -19.9130 -19.9124 -19.9120 -19.9103 -19.9100 -19.9093 -19.9092
   -19.9088 -19.9085 -19.9079 -19.9077 -19.9031 -19.9030 -19.8999 -19.8996
   -19.8977 -19.8976 -19.8971 -19.8968 -19.8962 -19.8955 -19.8954 -19.8950
   -19.8949 -19.8946 -19.8925 -19.8917 -19.8886 -19.8875 -19.8857 -19.8846
    -9.5587  -9.3871  -9.2163  -9.2099  -8.8851  -8.8794  -8.6508  -8.6455
    -8.6193  -8.4649  -8.4613  -8.4566  -8.0253  -7.9518  -7.9442  -7.9167
    -7.8653  -7.8404  -7.7739  -7.7603  -7.5717  -7.5613  -7.4847  -7.4800
     1.7435   1.7682   1.7792   1.8076   2.0156   2.0417   2.1307   2.1983
     2.5162   2.6101   2.6410   2.7730   2.8103   2.8783   3.0214   3.2391
     3.2781   3.3181   3.8785   3.9209   3.9515   4.0386   4.2180   4.5034
     4.5502   4.5652   4.6034   4.7042   4.7633   4.9506   4.9926   5.0359
     5.0698   5.1240   5.2834   5.3045   5.4556   5.5343   5.6304   5.6528
     5.8438   5.8674   5.8843   5.8982   5.9761   6.0106   6.0607   6.1228
     6.5693   6.6914   6.7126   6.8099   6.8814   6.8926   6.9187   6.9699
     7.1618   7.1841   7.1995   7.2167   7.2693   7.2772   7.3214   7.3431
     7.4276   7.4514   7.9127   7.9821   8.0068   8.0353   8.0550   8.0602
    10.5623  10.5820  11.0557  11.0769  11.1266  11.2580  12.2245  12.3072
    12.3445  12.4813  12.5421  12.5912  12.7879  12.8887  12.9834  13.0421
    13.1291  13.1874  13.3902  13.5127  13.6206  13.6740  13.9036  13.9260
    15.2775  15.4780  15.6125  15.6647  15.8415  15.9980  16.2929  16.3249
    16.5283  17.2452  17.4610  17.5472  17.6439  17.9823

          k = 0.1667 0.3274 0.3324 ( 61768 PWs)   bands (ev):

   -65.7979 -65.7975 -65.7971 -65.7967 -65.7943 -65.7939 -65.7936 -65.7931
   -30.2871 -30.2845 -30.2746 -30.2711 -30.2366 -30.2336 -30.2202 -30.2166
   -30.1585 -30.1533 -30.1488 -30.1429 -30.1216 -30.1167 -30.1163 -30.1117
   -30.0858 -30.0830 -30.0756 -30.0680 -30.0350 -30.0294 -30.0126 -30.0104
   -19.9347 -19.9347 -19.9336 -19.9336 -19.9329 -19.9329 -19.9318 -19.9318
   -19.9278 -19.9277 -19.9262 -19.9261 -19.9209 -19.9209 -19.9204 -19.9203
   -19.9198 -19.9197 -19.9179 -19.9179 -19.9170 -19.9170 -19.9159 -19.9159
   -19.9131 -19.9128 -19.9126 -19.9122 -19.9100 -19.9095 -19.9094 -19.9090
   -19.9087 -19.9086 -19.9081 -19.9079 -19.9031 -19.9031 -19.8998 -19.8997
   -19.8975 -19.8972 -19.8970 -19.8967 -19.8959 -19.8959 -19.8955 -19.8951
   -19.8947 -19.8944 -19.8931 -19.8925 -19.8884 -19.8877 -19.8855 -19.8849
    -9.4430  -9.2565  -9.2418  -9.0158  -8.9414  -8.7104  -8.6847  -8.5732
    -8.5312  -8.4721  -8.3932  -8.3728  -8.1757  -8.1094  -7.9898  -7.9596
    -7.9232  -7.9074  -7.8326  -7.8179  -7.7836  -7.7268  -7.5448  -7.4969
     1.7965   1.8121   2.0366   2.0582   2.3646   2.4353   2.5182   2.5775
     2.6555   2.6781   2.7397   2.8806   3.0496   3.1038   3.1388   3.2296
     3.4534   3.4864   3.8535   3.9209   3.9530   3.9951   4.1020   4.1669
     4.2153   4.3837   4.4318   4.5465   4.6177   4.7242   4.7343   4.8053
     4.9151   5.0302   5.0439   5.1229   5.1479   5.2177   5.2942   5.4287
     5.5023   5.5585   5.5882   5.8046   5.9022   5.9903   6.0144   6.0562
     6.7034   6.7100   6.8120   6.8402   6.9446   7.0389   7.0785   7.1174
     7.1544   7.1964   7.2273   7.2738   7.3063   7.3324   7.4082   7.4277
     7.5248   7.5733   7.8675   7.9110   7.9493   7.9647   8.0192   8.0284
    10.9805  11.0378  11.1586  11.2598  11.4737  11.6046  12.1862  12.2792
    12.3961  12.4216  12.5025  12.6024  12.7175  12.7641  12.8030  12.8965
    13.0758  13.1543  13.2458  13.3800  13.4832  13.5687  13.7753  13.7992
    15.4088  15.6126  15.8066  16.1121  16.1872  16.2643  16.3478  16.8860
    16.9697  17.0903  17.1567  17.6724  17.7691  17.8467

          k = 0.1667 0.3274-0.4986 ( 61732 PWs)   bands (ev):

   -65.7977 -65.7977 -65.7969 -65.7969 -65.7941 -65.7941 -65.7934 -65.7934
   -30.2857 -30.2857 -30.2552 -30.2552 -30.2517 -30.2517 -30.2187 -30.2186
   -30.1561 -30.1561 -30.1461 -30.1461 -30.1193 -30.1193 -30.1141 -30.1141
   -30.0845 -30.0845 -30.0554 -30.0554 -30.0490 -30.0490 -30.0115 -30.0115
   -19.9347 -19.9347 -19.9336 -19.9336 -19.9324 -19.9324 -19.9323 -19.9323
   -19.9277 -19.9277 -19.9262 -19.9261 -19.9209 -19.9209 -19.9201 -19.9201
   -19.9200 -19.9200 -19.9179 -19.9179 -19.9165 -19.9165 -19.9164 -19.9164
   -19.9129 -19.9129 -19.9125 -19.9125 -19.9096 -19.9096 -19.9091 -19.9091
   -19.9086 -19.9086 -19.9083 -19.9083 -19.9031 -19.9031 -19.8997 -19.8997
   -19.8973 -19.8973 -19.8966 -19.8966 -19.8961 -19.8961 -19.8955 -19.8955
   -19.8939 -19.8939 -19.8934 -19.8934 -19.8880 -19.8880 -19.8852 -19.8852
    -9.3318  -9.3318  -9.0667  -9.0667  -8.7982  -8.7982  -8.5001  -8.5001
    -8.4673  -8.4672  -8.3856  -8.3856  -8.1845  -8.1845  -8.1505  -8.1504
    -7.9376  -7.9376  -7.8842  -7.8842  -7.7962  -7.7962  -7.5206  -7.5206
     1.8051   1.8051   2.0610   2.0610   2.5153   2.5154   2.6383   2.6383
     3.1067   3.1067   3.2565   3.2565   3.2975   3.2975   3.4389   3.4389
     3.4943   3.4943   3.6045   3.6045   3.8206   3.8206   3.9517   3.9517
     4.0958   4.0958   4.2180   4.2180   4.3892   4.3892   4.5518   4.5518
     4.9308   4.9308   5.0730   5.0730   5.1767   5.1767   5.2469   5.2469
     5.3265   5.3265   5.6463   5.6463   5.9264   5.9264   6.0158   6.0158
     6.7338   6.7338   6.8777   6.8777   6.9884   6.9884   7.0668   7.0668
     7.2242   7.2242   7.2645   7.2645   7.3490   7.3490   7.6658   7.6658
     7.6956   7.6956   7.7778   7.7778   7.8225   7.8225   8.0132   8.0132
    11.0973  11.0973  11.6670  11.6670  11.8186  11.8186  12.0081  12.0081
    12.1810  12.1810  12.4734  12.4734  12.7244  12.7244  12.9016  12.9016
    13.0843  13.0844  13.1669  13.1669  13.4715  13.4715  13.7040  13.7040
    15.5323  15.5323  16.0383  16.0383  16.5586  16.5586  16.8543  16.8543
    16.9958  16.9958  17.5272  17.5272  17.9370  17.9370

          k = 0.1667-0.4910 0.0000 ( 61810 PWs)   bands (ev):

   -65.7981 -65.7973 -65.7973 -65.7965 -65.7945 -65.7938 -65.7936 -65.7929
   -30.2947 -30.2909 -30.2879 -30.2831 -30.2209 -30.2183 -30.2158 -30.2142
   -30.1447 -30.1408 -30.1396 -30.1371 -30.1339 -30.1276 -30.1234 -30.1215
   -30.0962 -30.0872 -30.0867 -30.0814 -30.0146 -30.0137 -30.0096 -30.0092
   -19.9348 -19.9347 -19.9337 -19.9337 -19.9335 -19.9334 -19.9313 -19.9313
   -19.9278 -19.9276 -19.9261 -19.9261 -19.9209 -19.9209 -19.9207 -19.9205
   -19.9194 -19.9193 -19.9180 -19.9178 -19.9175 -19.9173 -19.9153 -19.9153
   -19.9134 -19.9130 -19.9121 -19.9118 -19.9100 -19.9100 -19.9099 -19.9094
   -19.9093 -19.9087 -19.9078 -19.9076 -19.9032 -19.9031 -19.8999 -19.8996
   -19.8978 -19.8976 -19.8972 -19.8967 -19.8962 -19.8958 -19.8952 -19.8951
   -19.8948 -19.8945 -19.8923 -19.8915 -19.8887 -19.8874 -19.8858 -19.8846
    -9.5309  -9.4939  -9.2613  -9.1576  -8.9385  -8.8442  -8.6660  -8.6425
    -8.3231  -8.3176  -8.2733  -8.2536  -8.2518  -8.2378  -8.2262  -8.2176
    -7.8662  -7.7705  -7.7669  -7.6683  -7.5694  -7.4759  -7.4658  -7.3765
     1.5153   1.5451   1.7005   1.7867   1.8067   2.0170   2.0433   2.1788
     2.7484   2.7492   3.0363   3.0405   3.1260   3.1642   3.4516   3.4851
     3.4906   3.5419   3.5547   3.6815   3.7380   3.7895   3.9774   4.0331
     4.0380   4.0585   4.5422   4.5559   4.7775   4.8220   5.1794   5.2086
     5.2786   5.2964   5.3614   5.4166   5.4365   5.5372   5.7361   5.7610
     5.7907   5.8922   5.9153   5.9347   6.0234   6.0545   6.1389   6.2762
     6.5210   6.5667   6.6106   6.6761   6.8099   6.8441   6.9199   7.0231
     7.0984   7.1664   7.1974   7.2137   7.3574   7.4070   7.5389   7.5557
     7.6120   7.6602   7.7994   7.8195   7.8474   7.8686   8.0316   8.0407
    10.3463  10.4193  11.3743  11.4322  11.5638  11.6278  11.7854  11.8988
    11.9456  12.0510  12.5100  12.5987  12.8709  12.9085  12.9381  13.0506
    13.2877  13.3940  13.3940  13.4626  13.5093  13.5552  13.8416  13.9331
    15.3052  15.3982  15.5370  15.8136  15.9554  15.9719  16.0714  16.3084
    16.7967  16.8160  17.9199  18.0592  18.1428  18.1683

          k = 0.1667-0.4910 0.1662 ( 61748 PWs)   bands (ev):

   -65.7980 -65.7974 -65.7972 -65.7966 -65.7945 -65.7938 -65.7937 -65.7930
   -30.2893 -30.2875 -30.2855 -30.2834 -30.2229 -30.2205 -30.2188 -30.2161
   -30.1445 -30.1411 -30.1389 -30.1364 -30.1333 -30.1279 -30.1249 -30.1231
   -30.0907 -30.0869 -30.0823 -30.0814 -30.0201 -30.0149 -30.0134 -30.0095
   -19.9347 -19.9347 -19.9336 -19.9336 -19.9334 -19.9333 -19.9314 -19.9314
   -19.9277 -19.9276 -19.9261 -19.9261 -19.9209 -19.9209 -19.9206 -19.9204
   -19.9195 -19.9194 -19.9180 -19.9179 -19.9173 -19.9172 -19.9155 -19.9154
   -19.9133 -19.9129 -19.9122 -19.9119 -19.9100 -19.9098 -19.9097 -19.9095
   -19.9092 -19.9087 -19.9079 -19.9077 -19.9031 -19.9031 -19.8999 -19.8996
   -19.8977 -19.8976 -19.8971 -19.8968 -19.8962 -19.8955 -19.8954 -19.8950
   -19.8949 -19.8947 -19.8925 -19.8917 -19.8886 -19.8875 -19.8857 -19.8846
    -9.4635  -9.4574  -9.1808  -9.1707  -8.8671  -8.8645  -8.6226  -8.6225
[...]
    12.4428  12.4428  12.4803  12.4803  12.5783  12.5783  12.6239  12.6239
    13.1849  13.1849  13.2959  13.2959  13.4360  13.4360  13.5368  13.5368
    15.8008  15.8008  15.8375  15.8375  16.7594  16.7594  17.0591  17.0591
    17.4290  17.4290  17.5393  17.5393  17.6559  17.6559

          k =-0.5000 0.3274 0.0000 ( 61756 PWs)   bands (ev):

   -65.7977 -65.7977 -65.7969 -65.7969 -65.7942 -65.7942 -65.7933 -65.7933
   -30.2931 -30.2930 -30.2534 -30.2534 -30.2489 -30.2489 -30.2167 -30.2167
   -30.1568 -30.1568 -30.1456 -30.1455 -30.1217 -30.1217 -30.1116 -30.1116
   -30.0918 -30.0917 -30.0503 -30.0502 -30.0452 -30.0452 -30.0122 -30.0122
   -19.9341 -19.9341 -19.9341 -19.9340 -19.9335 -19.9335 -19.9313 -19.9313
   -19.9270 -19.9270 -19.9269 -19.9269 -19.9207 -19.9207 -19.9196 -19.9196
   -19.9193 -19.9193 -19.9192 -19.9192 -19.9176 -19.9176 -19.9154 -19.9154
   -19.9133 -19.9133 -19.9122 -19.9122 -19.9103 -19.9103 -19.9092 -19.9092
   -19.9088 -19.9088 -19.9077 -19.9076 -19.9014 -19.9014 -19.9013 -19.9013
   -19.8975 -19.8975 -19.8966 -19.8966 -19.8961 -19.8961 -19.8955 -19.8954
   -19.8950 -19.8949 -19.8919 -19.8919 -19.8873 -19.8873 -19.8861 -19.8861
    -9.4077  -9.4077  -9.1325  -9.1325  -8.7865  -8.7864  -8.5234  -8.5234
    -8.4501  -8.4500  -8.3928  -8.3927  -8.1716  -8.1716  -8.1417  -8.1417
    -7.9308  -7.9308  -7.8794  -7.8794  -7.7075  -7.7075  -7.4199  -7.4199
     1.5335   1.5335   1.8046   1.8046   2.5057   2.5057   2.6395   2.6395
     3.0876   3.0876   3.1999   3.1999   3.2699   3.2699   3.4323   3.4323
     3.4945   3.4945   3.5645   3.5645   3.8059   3.8059   3.9295   3.9295
     4.0561   4.0562   4.1907   4.1907   4.4608   4.4608   4.5962   4.5963
     5.0785   5.0785   5.1394   5.1394   5.3204   5.3204   5.3993   5.3993
     5.5613   5.5613   5.8685   5.8685   6.1541   6.1541   6.2043   6.2043
     6.6117   6.6117   6.6925   6.6925   6.8755   6.8755   6.9783   6.9783
     7.2335   7.2335   7.2548   7.2548   7.2873   7.2873   7.6525   7.6525
     7.6835   7.6835   7.7868   7.7868   7.8341   7.8341   8.0587   8.0587
    10.9195  10.9195  11.5613  11.5613  11.7640  11.7640  11.9320  11.9320
    12.1837  12.1837  12.4217  12.4217  12.8424  12.8424  12.9097  12.9097
    13.1138  13.1138  13.2758  13.2758  13.5326  13.5326  13.8273  13.8273
    15.2841  15.2841  15.8327  15.8327  16.4693  16.4694  16.8340  16.8340
    16.8993  16.8994  17.5069  17.5069  17.9998  17.9998

          k =-0.5000 0.3274 0.1662 ( 61780 PWs)   bands (ev):

   -65.7977 -65.7976 -65.7970 -65.7970 -65.7941 -65.7941 -65.7933 -65.7933
   -30.2877 -30.2877 -30.2530 -30.2530 -30.2492 -30.2492 -30.2212 -30.2212
   -30.1562 -30.1562 -30.1466 -30.1466 -30.1211 -30.1211 -30.1125 -30.1125
   -30.0866 -30.0866 -30.0499 -30.0499 -30.0456 -30.0456 -30.0176 -30.0176
   -19.9341 -19.9341 -19.9341 -19.9340 -19.9334 -19.9334 -19.9314 -19.9314
   -19.9270 -19.9270 -19.9269 -19.9269 -19.9206 -19.9206 -19.9197 -19.9197
   -19.9194 -19.9193 -19.9192 -19.9192 -19.9175 -19.9175 -19.9155 -19.9155
   -19.9132 -19.9132 -19.9122 -19.9122 -19.9101 -19.9101 -19.9091 -19.9091
   -19.9089 -19.9089 -19.9078 -19.9077 -19.9014 -19.9014 -19.9013 -19.9012
   -19.8973 -19.8973 -19.8967 -19.8967 -19.8959 -19.8959 -19.8954 -19.8954
   -19.8951 -19.8951 -19.8921 -19.8921 -19.8872 -19.8872 -19.8862 -19.8862
    -9.3376  -9.3376  -9.0710  -9.0710  -8.8016  -8.8016  -8.5036  -8.5035
    -8.4604  -8.4603  -8.3780  -8.3780  -8.1780  -8.1780  -8.1447  -8.1446
    -7.9300  -7.9300  -7.8855  -7.8855  -7.8030  -7.8030  -7.5260  -7.5259
     1.7749   1.7749   2.0344   2.0344   2.5154   2.5154   2.6307   2.6307
     3.1391   3.1391   3.2294   3.2294   3.2843   3.2843   3.4494   3.4494
     3.5065   3.5065   3.6230   3.6230   3.8334   3.8335   3.9563   3.9563
     4.0675   4.0675   4.2093   4.2093   4.4417   4.4417   4.5902   4.5902
     4.9208   4.9208   5.0558   5.0558   5.1835   5.1835   5.2256   5.2256
     5.3261   5.3261   5.6355   5.6355   5.9201   5.9201   6.0071   6.0071
     6.7305   6.7305   6.8837   6.8837   7.0065   7.0066   7.0730   7.0730
     7.2182   7.2182   7.2807   7.2807   7.3406   7.3406   7.6538   7.6538
     7.6881   7.6881   7.7879   7.7879   7.8326   7.8326   8.0407   8.0407
    11.0583  11.0583  11.6482  11.6482  11.8293  11.8293  11.9550  11.9550
    12.2104  12.2104  12.4638  12.4638  12.8089  12.8090  12.9121  12.9121
    13.0976  13.0976  13.1910  13.1910  13.4336  13.4336  13.7249  13.7249
    15.5236  15.5236  16.0184  16.0184  16.5472  16.5472  16.8374  16.8374
    16.9250  16.9251  17.5357  17.5357  17.9148  17.9148

          k =-0.5000 0.3274 0.3324 ( 61730 PWs)   bands (ev):

   -65.7975 -65.7975 -65.7971 -65.7971 -65.7939 -65.7939 -65.7935 -65.7935
   -30.2731 -30.2731 -30.2520 -30.2520 -30.2502 -30.2502 -30.2339 -30.2339
   -30.1546 -30.1546 -30.1492 -30.1492 -30.1195 -30.1195 -30.1148 -30.1148
   -30.0723 -30.0723 -30.0491 -30.0491 -30.0466 -30.0466 -30.0324 -30.0324
   -19.9341 -19.9341 -19.9341 -19.9341 -19.9329 -19.9329 -19.9318 -19.9318
   -19.9270 -19.9270 -19.9269 -19.9269 -19.9204 -19.9204 -19.9198 -19.9198
   -19.9194 -19.9194 -19.9193 -19.9193 -19.9171 -19.9170 -19.9159 -19.9159
   -19.9130 -19.9130 -19.9124 -19.9124 -19.9097 -19.9097 -19.9091 -19.9091
   -19.9089 -19.9089 -19.9081 -19.9080 -19.9014 -19.9014 -19.9012 -19.9012
   -19.8970 -19.8970 -19.8967 -19.8966 -19.8960 -19.8960 -19.8956 -19.8956
   -19.8948 -19.8948 -19.8928 -19.8928 -19.8870 -19.8870 -19.8864 -19.8864
    -9.1570  -9.1570  -8.9068  -8.9068  -8.8520  -8.8519  -8.5114  -8.5114
    -8.4483  -8.4483  -8.3097  -8.3096  -8.2394  -8.2394  -8.1404  -8.1404
    -8.0143  -8.0143  -7.9148  -7.9148  -7.8943  -7.8943  -7.7773  -7.7773
     2.3711   2.3711   2.5345   2.5345   2.5742   2.5742   2.7271   2.7271
     3.2069   3.2069   3.2879   3.2879   3.3512   3.3512   3.4698   3.4698
     3.5854   3.5854   3.7706   3.7706   3.9070   3.9070   3.9751   3.9751
     4.1257   4.1257   4.2669   4.2670   4.3131   4.3131   4.4363   4.4363
     4.5835   4.5835   4.7593   4.7593   4.8220   4.8221   5.0232   5.0232
     5.1038   5.1038   5.1995   5.1995   5.3108   5.3108   5.5805   5.5805
     6.9516   6.9516   7.1011   7.1012   7.1307   7.1307   7.2162   7.2162
     7.3283   7.3283   7.4082   7.4082   7.4924   7.4924   7.6575   7.6575
     7.6861   7.6861   7.7912   7.7912   7.8168   7.8168   7.9800   7.9800
    11.4330  11.4330  11.8389  11.8389  11.9834  11.9834  12.0674  12.0674
    12.3127  12.3127  12.5155  12.5155  12.6427  12.6427  12.8154  12.8154
    12.9783  12.9784  13.0644  13.0645  13.1542  13.1542  13.4561  13.4561
    16.1873  16.1873  16.4801  16.4801  16.7570  16.7570  16.8967  16.8967
    17.0735  17.0735  17.5156  17.5156  17.7745  17.7745

          k =-0.5000 0.3274-0.4986 ( 61708 PWs)   bands (ev):

   -65.7973 -65.7973 -65.7973 -65.7973 -65.7937 -65.7937 -65.7937 -65.7937
   -30.2553 -30.2553 -30.2548 -30.2548 -30.2493 -30.2493 -30.2490 -30.2489
   -30.1523 -30.1522 -30.1520 -30.1520 -30.1175 -30.1175 -30.1172 -30.1171
   -30.0527 -30.0527 -30.0524 -30.0524 -30.0479 -30.0479 -30.0477 -30.0477
   -19.9341 -19.9341 -19.9341 -19.9341 -19.9324 -19.9324 -19.9323 -19.9323
   -19.9270 -19.9270 -19.9269 -19.9269 -19.9202 -19.9201 -19.9201 -19.9201
   -19.9194 -19.9194 -19.9193 -19.9193 -19.9165 -19.9165 -19.9165 -19.9164
   -19.9128 -19.9128 -19.9127 -19.9127 -19.9094 -19.9094 -19.9093 -19.9093
   -19.9085 -19.9085 -19.9084 -19.9084 -19.9014 -19.9014 -19.9012 -19.9012
   -19.8967 -19.8967 -19.8964 -19.8964 -19.8962 -19.8962 -19.8960 -19.8960
   -19.8941 -19.8941 -19.8936 -19.8936 -19.8868 -19.8867 -19.8867 -19.8867
    -8.9776  -8.9776  -8.9556  -8.9556  -8.6986  -8.6986  -8.6542  -8.6542
    -8.4001  -8.4001  -8.3453  -8.3453  -8.1597  -8.1597  -8.1122  -8.1122
    -8.1110  -8.1110  -8.0440  -8.0440  -7.8944  -7.8944  -7.8840  -7.8840
     2.5276   2.5276   2.5377   2.5377   3.1294   3.1294   3.1666   3.1666
     3.2561   3.2561   3.2563   3.2563   3.4740   3.4740   3.5395   3.5395
     3.5949   3.5949   3.6204   3.6204   3.8937   3.8937   3.9080   3.9080
     4.0840   4.0840   4.1630   4.1630   4.3455   4.3455   4.3636   4.3636
     4.4349   4.4349   4.5970   4.5970   4.6410   4.6411   4.6693   4.6693
     4.9186   4.9186   4.9197   4.9197   5.3415   5.3415   5.3619   5.3619
     7.0343   7.0343   7.1270   7.1270   7.1493   7.1493   7.2374   7.2374
     7.4914   7.4914   7.5402   7.5402   7.5556   7.5556   7.6522   7.6522
     7.7313   7.7314   7.7552   7.7552   7.8076   7.8076   7.9137   7.9137
    11.8293  11.8293  11.9238  11.9238  12.0091  12.0091  12.1220  12.1220
    12.4442  12.4442  12.4591  12.4591  12.6029  12.6029  12.6389  12.6389
    12.8521  12.8521  12.9485  12.9485  13.1309  13.1309  13.2098  13.2098
    16.6034  16.6034  16.6318  16.6318  16.9403  16.9403  17.1434  17.1434
    17.3009  17.3009  17.5611  17.5611  17.6924  17.6924

          k =-0.5000-0.4910 0.0000 ( 61756 PWs)   bands (ev):

   -65.7977 -65.7977 -65.7969 -65.7969 -65.7942 -65.7942 -65.7933 -65.7933
   -30.2928 -30.2928 -30.2531 -30.2531 -30.2482 -30.2482 -30.2161 -30.2161
   -30.1401 -30.1401 -30.1387 -30.1387 -30.1355 -30.1354 -30.1229 -30.1229
   -30.0921 -30.0921 -30.0503 -30.0503 -30.0453 -30.0452 -30.0122 -30.0122
   -19.9341 -19.9341 -19.9341 -19.9340 -19.9335 -19.9335 -19.9313 -19.9313
   -19.9270 -19.9270 -19.9269 -19.9268 -19.9207 -19.9207 -19.9196 -19.9196
   -19.9193 -19.9193 -19.9191 -19.9191 -19.9175 -19.9175 -19.9153 -19.9153
   -19.9132 -19.9132 -19.9120 -19.9120 -19.9100 -19.9100 -19.9097 -19.9097
   -19.9091 -19.9091 -19.9077 -19.9077 -19.9014 -19.9014 -19.9013 -19.9013
   -19.8975 -19.8975 -19.8966 -19.8966 -19.8961 -19.8961 -19.8955 -19.8955
   -19.8950 -19.8950 -19.8919 -19.8919 -19.8873 -19.8873 -19.8861 -19.8861
    -9.3666  -9.3666  -9.1378  -9.1378  -8.6261  -8.6261  -8.4517  -8.4517
    -8.4226  -8.4226  -8.3482  -8.3482  -8.2185  -8.2185  -8.1848  -8.1848
    -8.0941  -8.0941  -8.0300  -8.0300  -7.7109  -7.7109  -7.4204  -7.4204
     1.5337   1.5337   1.8072   1.8072   2.9604   2.9604   3.1702   3.1702
     3.2422   3.2422   3.2574   3.2574   3.3470   3.3470   3.4195   3.4195
     3.5040   3.5040   3.6006   3.6006   3.6780   3.6780   3.7083   3.7083
     3.9382   3.9382   4.1182   4.1182   4.4485   4.4485   4.5172   4.5172
     4.5750   4.5750   4.6621   4.6621   5.3171   5.3171   5.4043   5.4043
     5.5444   5.5444   5.7608   5.7608   6.1814   6.1814   6.1970   6.1970
     6.6305   6.6305   6.6965   6.6965   6.8849   6.8849   6.9504   6.9505
     7.3589   7.3589   7.3972   7.3972   7.5225   7.5225   7.6175   7.6175
     7.7006   7.7006   7.7679   7.7679   7.8094   7.8094   7.8887   7.8887
    11.3255  11.3255  11.6358  11.6358  11.7262  11.7262  11.8924  11.8924
    12.3267  12.3267  12.4124  12.4124  12.6085  12.6085  12.6941  12.6941
    13.0223  13.0223  13.2804  13.2804  13.5881  13.5881  13.6360  13.6360
    15.3508  15.3508  15.8673  15.8673  16.8272  16.8272  17.0668  17.0668
    17.4352  17.4352  17.5670  17.5670  17.7194  17.7195

          k =-0.5000-0.4910 0.1662 ( 61780 PWs)   bands (ev):

   -65.7976 -65.7976 -65.7970 -65.7970 -65.7941 -65.7941 -65.7934 -65.7933
   -30.2874 -30.2874 -30.2528 -30.2528 -30.2485 -30.2485 -30.2208 -30.2208
   -30.1398 -30.1398 -30.1380 -30.1380 -30.1357 -30.1357 -30.1245 -30.1245
   -30.0869 -30.0868 -30.0500 -30.0500 -30.0456 -30.0456 -30.0176 -30.0176
   -19.9341 -19.9341 -19.9341 -19.9340 -19.9334 -19.9334 -19.9314 -19.9314
   -19.9270 -19.9270 -19.9269 -19.9269 -19.9206 -19.9206 -19.9197 -19.9197
   -19.9193 -19.9193 -19.9192 -19.9192 -19.9174 -19.9173 -19.9155 -19.9155
   -19.9131 -19.9131 -19.9121 -19.9121 -19.9098 -19.9098 -19.9097 -19.9096
   -19.9092 -19.9092 -19.9078 -19.9078 -19.9014 -19.9014 -19.9013 -19.9013
   -19.8973 -19.8973 -19.8967 -19.8967 -19.8959 -19.8959 -19.8954 -19.8954
   -19.8952 -19.8951 -19.8921 -19.8921 -19.8872 -19.8872 -19.8862 -19.8862
    -9.2892  -9.2892  -9.0793  -9.0793  -8.6408  -8.6408  -8.4715  -8.4715
    -8.4033  -8.4033  -8.3368  -8.3368  -8.2142  -8.2142  -8.1880  -8.1880
    -8.0927  -8.0927  -8.0337  -8.0337  -7.8112  -7.8112  -7.5265  -7.5265
     1.7772   1.7772   2.0399   2.0400   2.9865   2.9865   3.1786   3.1786
     3.2527   3.2527   3.2719   3.2719   3.3265   3.3265   3.4172   3.4172
     3.5699   3.5699   3.6201   3.6201   3.6867   3.6867   3.8077   3.8078
     3.9635   3.9635   4.1391   4.1392   4.4458   4.4458   4.5010   4.5010
     4.5798   4.5798   4.6487   4.6487   5.0470   5.0470   5.1698   5.1698
     5.3028   5.3028   5.4885   5.4885   5.9209   5.9209   5.9473   5.9473
     6.7561   6.7561   6.9057   6.9057   7.0298   7.0298   7.1264   7.1264
     7.3606   7.3606   7.4171   7.4171   7.5254   7.5254   7.6242   7.6242
     7.6849   7.6849   7.7725   7.7725   7.8111   7.8111   7.8859   7.8859
    11.4274  11.4274  11.7270  11.7270  11.8027  11.8027  11.9713  11.9713
    12.3263  12.3263  12.4307  12.4307  12.6163  12.6163  12.6938  12.6938
    13.0056  13.0056  13.1602  13.1602  13.4779  13.4779  13.5292  13.5292
    15.6104  15.6104  16.0766  16.0766  16.8848  16.8848  17.1164  17.1164
    17.4319  17.4319  17.5736  17.5736  17.7164  17.7164

          k =-0.5000-0.4910 0.3324 ( 61748 PWs)   bands (ev):

   -65.7975 -65.7975 -65.7971 -65.7971 -65.7940 -65.7939 -65.7935 -65.7935
   -30.2727 -30.2727 -30.2518 -30.2518 -30.2494 -30.2494 -30.2340 -30.2340
   -30.1389 -30.1389 -30.1369 -30.1369 -30.1356 -30.1355 -30.1282 -30.1282
   -30.0724 -30.0724 -30.0491 -30.0491 -30.0466 -30.0466 -30.0324 -30.0324
   -19.9341 -19.9341 -19.9341 -19.9341 -19.9329 -19.9329 -19.9318 -19.9318
   -19.9270 -19.9269 -19.9269 -19.9269 -19.9204 -19.9204 -19.9198 -19.9198
   -19.9194 -19.9194 -19.9193 -19.9193 -19.9169 -19.9169 -19.9159 -19.9158
   -19.9129 -19.9129 -19.9123 -19.9123 -19.9096 -19.9096 -19.9093 -19.9093
   -19.9092 -19.9092 -19.9082 -19.9082 -19.9015 -19.9014 -19.9013 -19.9012
   -19.8969 -19.8969 -19.8967 -19.8967 -19.8960 -19.8959 -19.8957 -19.8957
   -19.8948 -19.8948 -19.8928 -19.8928 -19.8870 -19.8870 -19.8864 -19.8864
    -9.0756  -9.0756  -8.9335  -8.9335  -8.6882  -8.6882  -8.5607  -8.5607
    -8.3467  -8.3467  -8.2861  -8.2861  -8.2055  -8.2055  -8.1917  -8.1917
    -8.0947  -8.0947  -8.0673  -8.0673  -7.9973  -7.9973  -7.7861  -7.7861
     2.4226   2.4226   2.6438   2.6438   3.0471   3.0471   3.1617   3.1617
     3.2567   3.2567   3.3179   3.3179   3.3539   3.3539   3.4070   3.4070
     3.6355   3.6355   3.6695   3.6695   3.7874   3.7874   4.0117   4.0117
     4.0671   4.0671   4.1973   4.1973   4.3218   4.3218   4.4592   4.4592
     4.5660   4.5660   4.5909   4.5909   4.6914   4.6914   4.7505   4.7505
     4.8865   4.8865   5.0230   5.0230   5.2314   5.2314   5.2580   5.2580
     7.0289   7.0289   7.2272   7.2272   7.2679   7.2679   7.2981   7.2981
     7.3978   7.3978   7.5003   7.5003   7.5445   7.5445   7.6234   7.6234
     7.6867   7.6867   7.7774   7.7774   7.7987   7.7987   7.8691   7.8691
    11.7197  11.7197  11.9427  11.9427  12.0526  12.0526  12.1824  12.1824
    12.3304  12.3304  12.4906  12.4906  12.6013  12.6013  12.6842  12.6842
    12.7650  12.7650  12.8936  12.8936  13.1530  13.1530  13.2317  13.2317
    16.3613  16.3613  16.6847  16.6847  17.0518  17.0518  17.2418  17.2418
    17.4076  17.4076  17.5870  17.5870  17.7036  17.7036

          k =-0.5000-0.4910-0.4986 ( 61728 PWs)   bands (ev):

   -65.7973 -65.7973 -65.7973 -65.7973 -65.7937 -65.7937 -65.7937 -65.7937
   -30.2533 -30.2533 -30.2528 -30.2527 -30.2507 -30.2506 -30.2503 -30.2503
   -30.1379 -30.1378 -30.1378 -30.1377 -30.1326 -30.1326 -30.1321 -30.1321
   -30.0527 -30.0527 -30.0524 -30.0524 -30.0480 -30.0480 -30.0478 -30.0478
   -19.9341 -19.9341 -19.9341 -19.9341 -19.9324 -19.9324 -19.9323 -19.9323
   -19.9270 -19.9269 -19.9269 -19.9269 -19.9202 -19.9201 -19.9201 -19.9201
   -19.9194 -19.9194 -19.9193 -19.9193 -19.9164 -19.9164 -19.9164 -19.9163
   -19.9127 -19.9127 -19.9126 -19.9126 -19.9094 -19.9094 -19.9094 -19.9094
   -19.9087 -19.9087 -19.9086 -19.9086 -19.9015 -19.9014 -19.9012 -19.9012
   -19.8966 -19.8966 -19.8965 -19.8964 -19.8962 -19.8962 -19.8960 -19.8960
   -19.8941 -19.8941 -19.8936 -19.8936 -19.8868 -19.8867 -19.8867 -19.8867
    -8.8304  -8.8304  -8.7733  -8.7733  -8.7698  -8.7698  -8.7655  -8.7655
    -8.3021  -8.3021  -8.2301  -8.2301  -8.2146  -8.2146  -8.1847  -8.1846
    -8.0939  -8.0939  -8.0817  -8.0816  -8.0405  -8.0405  -8.0183  -8.0183
     3.0605   3.0605   3.0897   3.0898   3.0974   3.0974   3.1213   3.1213
     3.2713   3.2713   3.3846   3.3846   3.4124   3.4124   3.5060   3.5060
     3.5780   3.5781   3.6537   3.6538   3.7089   3.7089   3.7246   3.7247
     4.2688   4.2688   4.3101   4.3101   4.3617   4.3617   4.3740   4.3740
     4.5195   4.5195   4.5595   4.5595   4.5617   4.5617   4.6462   4.6462
     4.6757   4.6757   4.7485   4.7485   4.7719   4.7719   4.7964   4.7964
     7.1664   7.1664   7.2747   7.2747   7.2953   7.2953   7.4331   7.4331
     7.4869   7.4869   7.5210   7.5211   7.5432   7.5432   7.6349   7.6349
     7.7534   7.7534   7.7649   7.7649   7.7813   7.7813   7.8328   7.8328
    12.1090  12.1090  12.1250  12.1250  12.1734  12.1734  12.1990  12.1990
    12.4435  12.4435  12.4616  12.4616  12.5062  12.5063  12.6595  12.6595
    12.7009  12.7009  12.8136  12.8136  12.8600  12.8600  12.8824  12.8824
    17.0698  17.0698  17.1134  17.1134  17.1632  17.1632  17.2949  17.2949
    17.6077  17.6077  17.6410  17.6410  17.6584  17.6584

     the Fermi energy is    10.4535 ev

!    total energy              =   -6260.33098771 Ry
     Harris-Foulkes estimate   =   -6260.33098772 Ry
     estimated scf accuracy    <          6.5E-09 Ry

     The total energy is the sum of the following terms:

     one-electron contribution =   -4673.42756768 Ry
     hartree contribution      =    2578.30567656 Ry
     xc contribution           =    -966.74750156 Ry
     ewald contribution        =   -3198.46155721 Ry
     smearing contrib. (-TS)   =      -0.00003782 Ry

     convergence has been achieved in  14 iterations

     Writing output data file Landau_18.save
 
     init_run     :     27.31s CPU     29.09s WALL (       1 calls)
     electrons    :   1466.34s CPU   1501.86s WALL (       1 calls)

     Called by init_run:
     wfcinit      :     24.77s CPU     26.42s WALL (       1 calls)
     potinit      :      0.96s CPU      0.99s WALL (       1 calls)

     Called by electrons:
     c_bands      :   1291.62s CPU   1324.68s WALL (      14 calls)
     sum_band     :    161.97s CPU    163.60s WALL (      14 calls)
     v_of_rho     :      1.14s CPU      1.17s WALL (      15 calls)
     mix_rho      :      2.12s CPU      2.72s WALL (      14 calls)

     Called by c_bands:
     init_us_2    :      7.72s CPU      8.55s WALL (      58 calls)
     cegterg      :    817.13s CPU    847.69s WALL (      28 calls)

     Called by sum_band:

     Called by *egterg:
     h_psi        :    657.76s CPU    662.50s WALL (     116 calls)
     g_psi        :      1.42s CPU      1.44s WALL (      86 calls)
     cdiaghg      :     11.35s CPU     11.41s WALL (     114 calls)

     Called by h_psi:
     h_psi:pot    :    653.42s CPU    657.91s WALL (     116 calls)
     h_psi:calbec :     66.07s CPU     68.48s WALL (     116 calls)
     vloc_psi     :    513.74s CPU    515.53s WALL (     116 calls)
     add_vuspsi   :     73.61s CPU     73.90s WALL (     116 calls)

     General routines
     calbec       :     66.06s CPU     68.48s WALL (     116 calls)
     fft          :      0.86s CPU      0.86s WALL (      60 calls)
     fftw         :    538.93s CPU    540.46s WALL (   36068 calls)
 
     Parallel routines
 
     PWSCF        : 25m 1.55s CPU    25m43.74s WALL

 
   This run was terminated on:  22:51:53  25Mar2020            

=------------------------------------------------------------------------------=
   JOB DONE.
=------------------------------------------------------------------------------=
