
     Program PWSCF v.6.2 (svn rev. 14038) starts on 28Aug2019 at 20:55:37 

     This program is part of the open-source Quantum ESPRESSO suite
     for quantum simulation of materials; please cite
         "P. Giannozzi et al., J. Phys.:Condens. Matter 21 395502 (2009);
         "P. Giannozzi et al., J. Phys.:Condens. Matter 29 465901 (2017);
          URL http://www.quantum-espresso.org", 
     in publications or presentations arising from this work. More details at
     http://www.quantum-espresso.org/quote

     Parallel version (MPI), running on    64 processors

     MPI processes distributed on    12 nodes
     K-points division:     npool     =      64
     Reading input from scf.in

     Current dimensions of program PWSCF are:
     Max number of different atomic species (ntypx) = 10
     Max number of k-points (npk) =  40000
     Max angular momentum in pseudopotentials (lmaxx) =  3

     Subspace diagonalization in iterative solution of the eigenvalue problem:
     a serial algorithm will be used

 
     G-vector sticks info
     --------------------
     sticks:   dense  smooth     PW     G-vecs:    dense   smooth      PW
     Sum        7705    7705   2069               496521   496521   68827
 


     bravais-lattice index     =            0
     lattice parameter (alat)  =      13.8344  a.u.
     unit-cell volume          =    2795.7374 (a.u.)^3
     number of atoms/cell      =           32
     number of atomic types    =            2
     number of electrons       =       368.84
     number of Kohn-Sham states=          221
     kinetic-energy cutoff     =     120.0000  Ry
     charge density cutoff     =     480.0000  Ry
     convergence threshold     =      1.0E-08
     mixing beta               =       0.7000
     number of iterations used =            8  plain     mixing
     Exchange-correlation      = SLA PW NOGX NOGC ( 1  4  0  0 0 0)

     celldm(1)=  13.834424  celldm(2)=   0.000000  celldm(3)=   0.000000
     celldm(4)=   0.000000  celldm(5)=   0.000000  celldm(6)=   0.000000

     crystal axes: (cart. coord. in units of alat)
               a(1) = (   1.000000   0.000000   0.000000 )  
               a(2) = (   0.000000   1.053939   0.000000 )  
               a(3) = (   0.000000   0.000000   1.001838 )  

     reciprocal axes: (cart. coord. in units 2 pi/alat)
               b(1) = (  1.000000  0.000000  0.000000 )  
               b(2) = (  0.000000  0.948821  0.000000 )  
               b(3) = (  0.000000  0.000000  0.998165 )  


     PseudoPot. # 1 for W  read from file:
     /cluster/scratch/mnoe/QE/pps/W_ONCV_LDA-4.0.upf
     MD5 check sum: ba0307d5d4cd419d6f1d13dc49d7c13a
     Pseudo is Norm-conserving + core correction, Zval = 28.0
     Generated using ONCVPSP code by D. R. Hamann
     Using radial grid of 1380 points,  8 beta functions with: 
                l(1) =   0
                l(2) =   0
                l(3) =   1
                l(4) =   1
                l(5) =   2
                l(6) =   2
                l(7) =   3
                l(8) =   3

     PseudoPot. # 2 for O  read from file:
     /cluster/scratch/mnoe/QE/pps/O_ONCV_LDA-3.0.upf
     MD5 check sum: b55cdb4f45ae2203d24ad12cf8d61a31
     Pseudo is Norm-conserving + core correction, Zval =  6.0
     Generated using ONCVPSP code by D. R. Hamann
     Using radial grid of  926 points,  5 beta functions with: 
                l(1) =   0
                l(2) =   0
                l(3) =   1
                l(4) =   1
                l(5) =   2

     atomic species   valence    mass     pseudopotential
        W             28.00   183.84000     W ( 1.00)
        O              6.00    15.99940     O ( 1.00)

      8 Sym. Ops., with inversion, found ( 6 have fractional translation)



   Cartesian axes

     site n.     atom                  positions (alat units)
         1           W   tau(   1) = (   0.2412100   0.2970633   0.0083153  )
         2           W   tau(   2) = (   0.7587900   0.7568758   0.9935230  )
         3           W   tau(   3) = (   0.2587900   0.2299063   0.5092344  )
         4           W   tau(   4) = (   0.7412100   0.8240328   0.4926039  )
         5           W   tau(   5) = (   0.7587900   0.2970633   0.4926039  )
         6           W   tau(   6) = (   0.2412100   0.7568758   0.5092344  )
         7           W   tau(   7) = (   0.7412100   0.2299063   0.9935230  )
         8           W   tau(   8) = (   0.2587900   0.8240328   0.0083153  )
         9           O   tau(   9) = (   0.2337900   0.0087688   0.0025847  )
        10           O   tau(  10) = (   0.7662100   1.0451703   0.9992535  )
        11           O   tau(  11) = (   0.2662100   0.5182008   0.5035039  )
        12           O   tau(  12) = (   0.7337900   0.5357383   0.4983344  )
        13           O   tau(  13) = (   0.7662100   0.0087688   0.4983344  )
        14           O   tau(  14) = (   0.2337900   1.0451703   0.5035039  )
        15           O   tau(  15) = (   0.7337900   0.5182008   0.9992535  )
        16           O   tau(  16) = (   0.2662100   0.5357383   0.0025847  )
        17           O   tau(  17) = (   0.5024000   0.2459578   0.4503664  )
        18           O   tau(  18) = (   0.4976000   0.8079813   0.5514718  )
        19           O   tau(  19) = (   0.9976000   0.2810118   0.9512855  )
        20           O   tau(  20) = (   0.0023999   0.7729273   0.0505528  )
        21           O   tau(  21) = (   0.4976000   0.2459578   0.0505528  )
        22           O   tau(  22) = (   0.5024000   0.8079813   0.9512855  )
        23           O   tau(  23) = (   0.0023999   0.2810118   0.5514718  )
        24           O   tau(  24) = (   0.9976000   0.7729273   0.4503664  )
        25           O   tau(  25) = (   0.6995400   0.2596590   0.7477320  )
        26           O   tau(  26) = (   0.3004600   0.7942801   0.2541062  )
        27           O   tau(  27) = (   0.8004600   0.2673105   0.2468129  )
        28           O   tau(  28) = (   0.1995400   0.7866285   0.7550254  )
        29           O   tau(  29) = (   0.3004600   0.2596590   0.7550254  )
        30           O   tau(  30) = (   0.6995400   0.7942801   0.2468129  )
        31           O   tau(  31) = (   0.1995400   0.2673105   0.2541062  )
        32           O   tau(  32) = (   0.8004600   0.7866285   0.7477320  )

     number of k points=    64  gaussian smearing, width (Ry)=  0.0007
                       cart. coord. in units 2pi/alat
        k(    1) = (   0.0000000   0.0000000   0.0000000), wk =   0.0092593
        k(    2) = (   0.0000000   0.0000000   0.1663609), wk =   0.0185185
        k(    3) = (   0.0000000   0.0000000   0.3327217), wk =   0.0185185
        k(    4) = (   0.0000000   0.0000000  -0.4990826), wk =   0.0092593
        k(    5) = (   0.0000000   0.1581369   0.0000000), wk =   0.0185185
        k(    6) = (   0.0000000   0.1581369   0.1663609), wk =   0.0370370
        k(    7) = (   0.0000000   0.1581369   0.3327217), wk =   0.0370370
        k(    8) = (   0.0000000   0.1581369  -0.4990826), wk =   0.0185185
        k(    9) = (   0.0000000   0.3162738   0.0000000), wk =   0.0185185
        k(   10) = (   0.0000000   0.3162738   0.1663609), wk =   0.0370370
        k(   11) = (   0.0000000   0.3162738   0.3327217), wk =   0.0370370
        k(   12) = (   0.0000000   0.3162738  -0.4990826), wk =   0.0185185
        k(   13) = (   0.0000000  -0.4744107   0.0000000), wk =   0.0092593
        k(   14) = (   0.0000000  -0.4744107   0.1663609), wk =   0.0185185
        k(   15) = (   0.0000000  -0.4744107   0.3327217), wk =   0.0185185
        k(   16) = (   0.0000000  -0.4744107  -0.4990826), wk =   0.0092593
        k(   17) = (   0.1666667   0.0000000   0.0000000), wk =   0.0185185
        k(   18) = (   0.1666667   0.0000000   0.1663609), wk =   0.0370370
        k(   19) = (   0.1666667   0.0000000   0.3327217), wk =   0.0370370
        k(   20) = (   0.1666667   0.0000000  -0.4990826), wk =   0.0185185
        k(   21) = (   0.1666667   0.1581369   0.0000000), wk =   0.0370370
        k(   22) = (   0.1666667   0.1581369   0.1663609), wk =   0.0740741
        k(   23) = (   0.1666667   0.1581369   0.3327217), wk =   0.0740741
        k(   24) = (   0.1666667   0.1581369  -0.4990826), wk =   0.0370370
        k(   25) = (   0.1666667   0.3162738   0.0000000), wk =   0.0370370
        k(   26) = (   0.1666667   0.3162738   0.1663609), wk =   0.0740741
        k(   27) = (   0.1666667   0.3162738   0.3327217), wk =   0.0740741
        k(   28) = (   0.1666667   0.3162738  -0.4990826), wk =   0.0370370
        k(   29) = (   0.1666667  -0.4744107   0.0000000), wk =   0.0185185
        k(   30) = (   0.1666667  -0.4744107   0.1663609), wk =   0.0370370
        k(   31) = (   0.1666667  -0.4744107   0.3327217), wk =   0.0370370
        k(   32) = (   0.1666667  -0.4744107  -0.4990826), wk =   0.0185185
        k(   33) = (   0.3333333   0.0000000   0.0000000), wk =   0.0185185
        k(   34) = (   0.3333333   0.0000000   0.1663609), wk =   0.0370370
        k(   35) = (   0.3333333   0.0000000   0.3327217), wk =   0.0370370
        k(   36) = (   0.3333333   0.0000000  -0.4990826), wk =   0.0185185
        k(   37) = (   0.3333333   0.1581369   0.0000000), wk =   0.0370370
        k(   38) = (   0.3333333   0.1581369   0.1663609), wk =   0.0740741
        k(   39) = (   0.3333333   0.1581369   0.3327217), wk =   0.0740741
        k(   40) = (   0.3333333   0.1581369  -0.4990826), wk =   0.0370370
        k(   41) = (   0.3333333   0.3162738   0.0000000), wk =   0.0370370
        k(   42) = (   0.3333333   0.3162738   0.1663609), wk =   0.0740741
        k(   43) = (   0.3333333   0.3162738   0.3327217), wk =   0.0740741
        k(   44) = (   0.3333333   0.3162738  -0.4990826), wk =   0.0370370
        k(   45) = (   0.3333333  -0.4744107   0.0000000), wk =   0.0185185
        k(   46) = (   0.3333333  -0.4744107   0.1663609), wk =   0.0370370
        k(   47) = (   0.3333333  -0.4744107   0.3327217), wk =   0.0370370
        k(   48) = (   0.3333333  -0.4744107  -0.4990826), wk =   0.0185185
        k(   49) = (  -0.5000000   0.0000000   0.0000000), wk =   0.0092593
        k(   50) = (  -0.5000000   0.0000000   0.1663609), wk =   0.0185185
        k(   51) = (  -0.5000000   0.0000000   0.3327217), wk =   0.0185185
        k(   52) = (  -0.5000000   0.0000000  -0.4990826), wk =   0.0092593
        k(   53) = (  -0.5000000   0.1581369   0.0000000), wk =   0.0185185
        k(   54) = (  -0.5000000   0.1581369   0.1663609), wk =   0.0370370
        k(   55) = (  -0.5000000   0.1581369   0.3327217), wk =   0.0370370
        k(   56) = (  -0.5000000   0.1581369  -0.4990826), wk =   0.0185185
        k(   57) = (  -0.5000000   0.3162738   0.0000000), wk =   0.0185185
        k(   58) = (  -0.5000000   0.3162738   0.1663609), wk =   0.0370370
        k(   59) = (  -0.5000000   0.3162738   0.3327217), wk =   0.0370370
        k(   60) = (  -0.5000000   0.3162738  -0.4990826), wk =   0.0185185
        k(   61) = (  -0.5000000  -0.4744107   0.0000000), wk =   0.0092593
        k(   62) = (  -0.5000000  -0.4744107   0.1663609), wk =   0.0185185
        k(   63) = (  -0.5000000  -0.4744107   0.3327217), wk =   0.0185185
        k(   64) = (  -0.5000000  -0.4744107  -0.4990826), wk =   0.0092593

     Dense  grid:   496521 G-vectors     FFT dimensions: ( 100, 108, 100)

     Estimated max dynamical RAM per process >       2.71 GB

     Estimated total dynamical RAM >     173.34 GB

     Initial potential from superposition of free atoms

     starting charge  367.99656, renormalised to  368.84000
     Starting wfc are  232 randomized atomic wfcs

     total cpu time spent up to now is       20.8 secs

     Self-consistent Calculation

     iteration #  1     ecut=   120.00 Ry     beta= 0.70
     Davidson diagonalization with overlap
     ethr =  1.00E-02,  avg # of iterations =  5.2

     total cpu time spent up to now is       82.9 secs

     total energy              =   -6253.22589867 Ry
     Harris-Foulkes estimate   =   -6264.11745326 Ry
     estimated scf accuracy    <      13.69341841 Ry

     iteration #  2     ecut=   120.00 Ry     beta= 0.70
     Davidson diagonalization with overlap
     ethr =  3.71E-03,  avg # of iterations =  3.6

     total cpu time spent up to now is      143.1 secs

     total energy              =   -6250.26058319 Ry
     Harris-Foulkes estimate   =   -6270.04937844 Ry
     estimated scf accuracy    <      52.40826251 Ry

     iteration #  3     ecut=   120.00 Ry     beta= 0.70
     Davidson diagonalization with overlap
     ethr =  3.71E-03,  avg # of iterations =  3.3

     total cpu time spent up to now is      200.2 secs

     total energy              =   -6260.49085020 Ry
     Harris-Foulkes estimate   =   -6260.75667743 Ry
     estimated scf accuracy    <       0.89435872 Ry

     iteration #  4     ecut=   120.00 Ry     beta= 0.70
     Davidson diagonalization with overlap
     ethr =  2.42E-04,  avg # of iterations =  3.0

     total cpu time spent up to now is      246.6 secs

     total energy              =   -6260.48536719 Ry
     Harris-Foulkes estimate   =   -6260.55800776 Ry
     estimated scf accuracy    <       0.23072117 Ry

     iteration #  5     ecut=   120.00 Ry     beta= 0.70
     Davidson diagonalization with overlap
     ethr =  6.26E-05,  avg # of iterations =  5.1

     total cpu time spent up to now is      295.7 secs

     total energy              =   -6260.48537393 Ry
     Harris-Foulkes estimate   =   -6260.51759256 Ry
     estimated scf accuracy    <       0.07145123 Ry

     iteration #  6     ecut=   120.00 Ry     beta= 0.70
     Davidson diagonalization with overlap
     ethr =  1.94E-05,  avg # of iterations =  5.4

     total cpu time spent up to now is      347.3 secs

     total energy              =   -6260.50101368 Ry
     Harris-Foulkes estimate   =   -6260.50370089 Ry
     estimated scf accuracy    <       0.00698810 Ry

     iteration #  7     ecut=   120.00 Ry     beta= 0.70
     Davidson diagonalization with overlap
     ethr =  1.89E-06,  avg # of iterations =  5.7

     total cpu time spent up to now is      395.3 secs

     total energy              =   -6260.50194702 Ry
     Harris-Foulkes estimate   =   -6260.50203082 Ry
     estimated scf accuracy    <       0.00015038 Ry

     iteration #  8     ecut=   120.00 Ry     beta= 0.70
     Davidson diagonalization with overlap
     ethr =  4.08E-08,  avg # of iterations =  3.2

     total cpu time spent up to now is      458.5 secs

     total energy              =   -6260.50201391 Ry
     Harris-Foulkes estimate   =   -6260.50202615 Ry
     estimated scf accuracy    <       0.00005102 Ry

     iteration #  9     ecut=   120.00 Ry     beta= 0.70
     Davidson diagonalization with overlap
     ethr =  1.38E-08,  avg # of iterations =  2.0

     total cpu time spent up to now is      505.2 secs

     total energy              =   -6260.50201373 Ry
     Harris-Foulkes estimate   =   -6260.50201862 Ry
     estimated scf accuracy    <       0.00002205 Ry

     iteration # 10     ecut=   120.00 Ry     beta= 0.70
     Davidson diagonalization with overlap
     ethr =  5.98E-09,  avg # of iterations =  1.2

     total cpu time spent up to now is      551.0 secs

     total energy              =   -6260.50201206 Ry
     Harris-Foulkes estimate   =   -6260.50201515 Ry
     estimated scf accuracy    <       0.00000726 Ry

     iteration # 11     ecut=   120.00 Ry     beta= 0.70
     Davidson diagonalization with overlap
     ethr =  1.97E-09,  avg # of iterations =  3.0

     total cpu time spent up to now is      599.6 secs

     total energy              =   -6260.50201359 Ry
     Harris-Foulkes estimate   =   -6260.50201364 Ry
     estimated scf accuracy    <       0.00000012 Ry

     iteration # 12     ecut=   120.00 Ry     beta= 0.70
     Davidson diagonalization with overlap
     ethr =  3.25E-11,  avg # of iterations =  2.0

     total cpu time spent up to now is      656.8 secs

     total energy              =   -6260.50201361 Ry
     Harris-Foulkes estimate   =   -6260.50201362 Ry
     estimated scf accuracy    <       0.00000003 Ry

     iteration # 13     ecut=   120.00 Ry     beta= 0.70
     Davidson diagonalization with overlap
     ethr =  7.68E-12,  avg # of iterations =  2.6

     total cpu time spent up to now is      712.8 secs

     End of self-consistent calculation

          k = 0.0000 0.0000 0.0000 ( 62055 PWs)   bands (ev):

   -65.9160 -65.9155 -65.9150 -65.9149 -65.9145 -65.9145 -65.9139 -65.9135
   -30.3762 -30.3718 -30.3712 -30.3670 -30.3191 -30.3134 -30.3124 -30.3068
   -30.2667 -30.2648 -30.2573 -30.2563 -30.2540 -30.2528 -30.2464 -30.2464
   -30.1647 -30.1628 -30.1626 -30.1608 -30.1576 -30.1540 -30.1517 -30.1485
   -20.0677 -20.0674 -20.0673 -20.0670 -20.0636 -20.0634 -20.0629 -20.0627
   -20.0581 -20.0578 -20.0577 -20.0574 -20.0573 -20.0571 -20.0568 -20.0565
   -20.0550 -20.0546 -20.0542 -20.0540 -20.0539 -20.0525 -20.0521 -20.0518
   -20.0516 -20.0515 -20.0509 -20.0500 -20.0497 -20.0491 -20.0489 -20.0489
   -20.0368 -20.0367 -20.0365 -20.0364 -20.0361 -20.0359 -20.0357 -20.0356
   -20.0024 -20.0024 -20.0009 -20.0009 -19.9998 -19.9997 -19.9987 -19.9986
   -19.9964 -19.9964 -19.9953 -19.9953 -19.9943 -19.9943 -19.9929 -19.9928
    -9.8507  -9.5455  -9.4107  -9.4100  -9.1122  -9.0968  -9.0080  -8.9087
    -8.8943  -8.7921  -8.7529  -8.7492  -7.8004  -7.7309  -7.7198  -7.6824
    -7.6674  -7.6665  -7.6486  -7.6444  -7.5259  -7.5159  -7.5012  -7.4942
     1.3813   1.3846   1.4396   1.4548   1.4569   1.4873   1.4925   1.7172
     1.7192   1.7414   1.7985   1.9914   2.5054   2.5882   2.6445   2.6558
     2.7953   2.8159   4.2227   4.2570   4.4557   4.5213   4.8350   4.9083
     4.9374   4.9675   4.9721   4.9788   5.1401   5.1443   5.2092   5.4827
     5.5310   5.5801   5.6314   5.6324   5.6569   5.6838   5.7466   5.8879
     5.9384   5.9583   5.9619   5.9625   6.0451   6.0955   6.1209   6.2294
     6.2369   6.3205   6.3417   6.6295   6.6418   6.8653   6.9131   6.9209
     6.9216   6.9478   7.0441   7.0773   7.1202   7.1508   7.4378   7.4791
     7.4823   7.5212   7.8655   7.8822   8.1012   8.1594   8.1638   8.2207
     9.5777   9.5829  10.1679  10.1868  10.1950  10.2168  12.3732  12.3879
    12.4909  12.4966  12.5270  12.5577  12.6714  12.7068  12.8563  12.9948
    13.3660  13.4298  13.4819  13.5260  13.8465  14.0771  14.2632  14.2678
    14.4390  14.5581  14.7236  14.9173  15.6062  15.6248  15.6383  16.1802
    16.2171  16.9097  17.1151  17.1648  17.5217

          k = 0.0000 0.0000 0.1664 ( 62050 PWs)   bands (ev):

   -65.9159 -65.9155 -65.9150 -65.9149 -65.9146 -65.9144 -65.9140 -65.9136
   -30.3760 -30.3721 -30.3710 -30.3674 -30.3186 -30.3137 -30.3120 -30.3071
   -30.2619 -30.2613 -30.2532 -30.2514 -30.2514 -30.2491 -30.2468 -30.2442
   -30.1715 -30.1694 -30.1687 -30.1664 -30.1573 -30.1537 -30.1528 -30.1492
   -20.0677 -20.0674 -20.0673 -20.0671 -20.0635 -20.0633 -20.0629 -20.0628
   -20.0580 -20.0578 -20.0577 -20.0574 -20.0573 -20.0571 -20.0568 -20.0565
   -20.0549 -20.0544 -20.0541 -20.0539 -20.0539 -20.0526 -20.0522 -20.0520
   -20.0516 -20.0515 -20.0509 -20.0501 -20.0497 -20.0490 -20.0490 -20.0489
   -20.0368 -20.0367 -20.0365 -20.0364 -20.0361 -20.0359 -20.0357 -20.0356
   -20.0021 -20.0020 -20.0005 -20.0005 -19.9996 -19.9996 -19.9988 -19.9988
   -19.9968 -19.9968 -19.9957 -19.9956 -19.9942 -19.9942 -19.9930 -19.9929
    -9.8047  -9.4909  -9.4272  -9.3536  -9.1119  -9.0238  -9.0166  -8.8708
    -8.8545  -8.7798  -8.7539  -8.7196  -7.8149  -7.8003  -7.7664  -7.7348
    -7.7148  -7.6699  -7.6552  -7.6528  -7.6315  -7.6284  -7.5254  -7.5038
     1.4506   1.4551   1.4768   1.4929   1.5641   1.5979   1.7098   1.7114
     1.7362   1.8172   1.9599   2.1123   2.5932   2.6539   2.6799   2.7441
     2.7868   2.9044   4.1771   4.2241   4.4790   4.4820   4.5085   4.5856
     4.7395   4.8245   4.9077   5.0051   5.0225   5.1483   5.2029   5.4151
     5.4200   5.5047   5.5706   5.6441   5.6474   5.7087   5.7252   5.7519
     5.8113   5.8391   5.9108   6.0154   6.0540   6.1195   6.2261   6.2349
     6.3045   6.4964   6.5677   6.6305   6.7336   6.7767   6.8759   6.8915
     6.9069   6.9396   7.0226   7.0729   7.0765   7.1567   7.2582   7.2706
     7.2981   7.3588   7.8865   7.8913   8.1163   8.1165   8.1669   8.1775
     9.8912   9.8965  10.1896  10.1919  10.4339  10.4886  12.3287  12.4116
    12.4352  12.4827  12.5379  12.5810  12.7103  12.7697  12.9172  12.9905
    13.1944  13.4213  13.4259  13.4852  13.9395  14.0757  14.1263  14.1497
    14.4622  14.6736  14.7181  15.0270  15.6047  15.6316  15.6721  16.1885
    16.4768  16.8774  17.0783  17.2980  17.5721

          k = 0.0000 0.0000 0.3327 ( 62076 PWs)   bands (ev):

   -65.9157 -65.9153 -65.9152 -65.9148 -65.9147 -65.9142 -65.9142 -65.9138
   -30.3752 -30.3730 -30.3704 -30.3682 -30.3174 -30.3147 -30.3108 -30.3081
   -30.2577 -30.2543 -30.2538 -30.2480 -30.2358 -30.2358 -30.2323 -30.2317
   -30.1894 -30.1875 -30.1858 -30.1836 -30.1565 -30.1541 -30.1529 -30.1505
   -20.0676 -20.0674 -20.0674 -20.0672 -20.0634 -20.0633 -20.0631 -20.0629
   -20.0579 -20.0577 -20.0577 -20.0574 -20.0572 -20.0571 -20.0567 -20.0566
   -20.0547 -20.0541 -20.0540 -20.0537 -20.0535 -20.0530 -20.0525 -20.0525
   -20.0514 -20.0513 -20.0511 -20.0505 -20.0496 -20.0492 -20.0490 -20.0489
   -20.0367 -20.0366 -20.0366 -20.0364 -20.0360 -20.0358 -20.0358 -20.0357
   -20.0011 -20.0011 -19.9997 -19.9997 -19.9992 -19.9992 -19.9992 -19.9992
   -19.9978 -19.9978 -19.9967 -19.9967 -19.9940 -19.9940 -19.9932 -19.9932
    -9.6923  -9.4799  -9.3629  -9.2224  -9.1579  -9.0456  -8.8093  -8.7729
    -8.7668  -8.7139  -8.6804  -8.5932  -8.0929  -8.0922  -7.9880  -7.9683
    -7.7692  -7.7451  -7.7020  -7.6789  -7.6252  -7.6050  -7.5518  -7.5303
     1.4565   1.4607   1.5083   1.5334   1.6626   1.6889   1.6940   1.7272
     2.3928   2.4289   2.5813   2.6663   2.6794   2.7820   2.8447   2.9465
     2.9857   3.1434   3.8476   3.9378   3.9684   4.0598   4.2514   4.3815
     4.4573   4.6507   4.6645   4.7907   4.8603   4.9293   5.0522   5.1524
     5.2503   5.3151   5.3351   5.4206   5.5570   5.5959   5.6804   5.7602
     5.7914   5.8311   5.8822   6.0659   6.0831   6.2665   6.2850   6.3647
     6.3933   6.4647   6.5891   6.6169   6.6375   6.6569   6.6765   6.8773
     6.9213   6.9401   6.9564   7.0690   7.1022   7.1554   7.1630   7.2428
     7.3788   7.4315   7.8392   7.8546   7.9793   8.0404   8.1499   8.1696
    10.1431  10.1822  10.5660  10.6656  11.0300  11.1389  11.9851  12.0556
    12.2556  12.5926  12.6141  12.6779  12.7297  12.7387  12.8824  12.9304
    13.0268  13.2544  13.3119  13.5057  13.8011  13.8524  14.0544  14.0728
    14.5642  14.6996  14.9805  15.3240  15.4964  15.7653  16.0315  16.1016
    16.3204  17.2944  17.4797  17.6115  17.8567

          k = 0.0000 0.0000-0.4991 ( 62036 PWs)   bands (ev):

   -65.9155 -65.9155 -65.9150 -65.9150 -65.9144 -65.9144 -65.9140 -65.9140
   -30.3741 -30.3741 -30.3693 -30.3693 -30.3160 -30.3160 -30.3094 -30.3094
   -30.2558 -30.2558 -30.2500 -30.2500 -30.2133 -30.2133 -30.2119 -30.2119
   -30.2095 -30.2095 -30.2076 -30.2076 -30.1554 -30.1553 -30.1517 -30.1517
   -20.0675 -20.0675 -20.0673 -20.0673 -20.0633 -20.0633 -20.0631 -20.0631
   -20.0578 -20.0578 -20.0575 -20.0575 -20.0572 -20.0572 -20.0566 -20.0566
   -20.0544 -20.0543 -20.0535 -20.0535 -20.0531 -20.0531 -20.0530 -20.0530
   -20.0513 -20.0513 -20.0509 -20.0509 -20.0494 -20.0494 -20.0490 -20.0489
   -20.0366 -20.0366 -20.0365 -20.0365 -20.0359 -20.0359 -20.0358 -20.0357
   -20.0000 -20.0000 -20.0000 -20.0000 -19.9989 -19.9989 -19.9988 -19.9988
   -19.9981 -19.9980 -19.9980 -19.9980 -19.9936 -19.9936 -19.9936 -19.9936
    -9.5708  -9.5707  -9.2397  -9.2397  -9.1082  -9.1082  -8.7847  -8.7847
    -8.4462  -8.4462  -8.4255  -8.4255  -8.3980  -8.3980  -8.3275  -8.3275
    -7.7589  -7.7589  -7.6910  -7.6910  -7.5882  -7.5882  -7.5672  -7.5672
     1.4590   1.4590   1.5271   1.5271   1.6785   1.6786   1.7185   1.7185
     2.7118   2.7118   3.0906   3.0906   3.2337   3.2337   3.2390   3.2390
     3.3995   3.3995   3.4239   3.4239   3.6173   3.6173   3.8799   3.8799
     3.9759   3.9759   4.5975   4.5975   4.7514   4.7514   5.0413   5.0413
     5.3158   5.3158   5.4508   5.4508   5.4589   5.4589   5.7220   5.7220
     5.8500   5.8500   6.0163   6.0163   6.2381   6.2381   6.3351   6.3351
     6.4008   6.4008   6.4940   6.4940   6.5638   6.5638   6.6565   6.6565
     6.8652   6.8652   6.9341   6.9341   7.1310   7.1310   7.5875   7.5875
     7.6412   7.6412   7.7395   7.7395   7.7949   7.7949   8.1664   8.1664
    10.1666  10.1666  11.3297  11.3297  11.4233  11.4233  11.7162  11.7162
    11.9134  11.9134  12.7485  12.7485  12.7862  12.7862  12.9741  12.9741
    13.0314  13.0314  13.4051  13.4051  13.5920  13.5921  14.0712  14.0712
    14.6577  14.6577  15.2915  15.2915  15.7659  15.7659  15.9547  15.9547
    16.7638  16.7638  17.8792  17.8792  18.2142

          k = 0.0000 0.1581 0.0000 ( 62049 PWs)   bands (ev):

   -65.9159 -65.9156 -65.9149 -65.9149 -65.9146 -65.9145 -65.9139 -65.9135
   -30.3723 -30.3678 -30.3672 -30.3630 -30.3227 -30.3172 -30.3162 -30.3108
   -30.2666 -30.2649 -30.2574 -30.2565 -30.2537 -30.2525 -30.2472 -30.2469
   -30.1646 -30.1628 -30.1627 -30.1609 -30.1574 -30.1543 -30.1515 -30.1487
   -20.0674 -20.0671 -20.0669 -20.0667 -20.0638 -20.0636 -20.0631 -20.0630
   -20.0581 -20.0578 -20.0576 -20.0574 -20.0573 -20.0571 -20.0570 -20.0566
   -20.0550 -20.0546 -20.0542 -20.0540 -20.0538 -20.0526 -20.0520 -20.0518
   -20.0517 -20.0516 -20.0508 -20.0500 -20.0497 -20.0491 -20.0490 -20.0489
   -20.0368 -20.0367 -20.0365 -20.0364 -20.0361 -20.0360 -20.0357 -20.0356
   -20.0024 -20.0024 -20.0009 -20.0009 -19.9998 -19.9997 -19.9987 -19.9986
   -19.9964 -19.9964 -19.9953 -19.9953 -19.9943 -19.9943 -19.9929 -19.9928
    -9.8198  -9.5578  -9.3715  -9.3694  -9.1201  -9.1052  -8.9338  -8.9077
    -8.8952  -8.7472  -8.7168  -8.7139  -7.8881  -7.8287  -7.8189  -7.7738
    -7.6809  -7.6733  -7.6500  -7.6462  -7.5244  -7.5161  -7.5037  -7.4960
     1.3814   1.3841   1.4502   1.4571   1.4721   1.4873   1.6332   1.7977
     1.8997   1.9459   1.9639   2.1434   2.5112   2.5824   2.7174   2.7306
     2.8640   2.8877   4.0865   4.1276   4.1802   4.2328   4.7756   4.9259
     4.9497   4.9693   4.9740   4.9755   5.0787   5.0808   5.1020   5.3696
     5.4009   5.5819   5.5930   5.6586   5.7014   5.7400   5.7569   5.7722
     5.8747   5.8976   5.9599   5.9858   6.0078   6.1042   6.1273   6.2291
     6.2353   6.3137   6.3529   6.6496   6.6730   6.8684   6.9020   6.9307
     6.9422   6.9685   6.9706   7.0571   7.0620   7.0721   7.4476   7.4761
     7.4937   7.5195   7.8686   7.8808   8.0693   8.0989   8.1169   8.1395
     9.5826   9.5839  10.3653  10.3707  10.3720  10.3724  12.2675  12.3377
    12.4744  12.4979  12.5070  12.5132  12.5435  12.5446  12.8724  12.9936
    13.3937  13.4543  13.4819  13.5185  14.0075  14.0638  14.1655  14.1748
    14.4910  14.8280  14.9117  15.0939  15.6056  15.6212  16.0361  16.1498
    16.1822  16.5960  17.2489  17.2976  17.5753

          k = 0.0000 0.1581 0.1664 ( 62054 PWs)   bands (ev):

   -65.9159 -65.9155 -65.9150 -65.9148 -65.9146 -65.9145 -65.9140 -65.9136
   -30.3720 -30.3681 -30.3670 -30.3633 -30.3223 -30.3175 -30.3158 -30.3112
   -30.2618 -30.2612 -30.2529 -30.2514 -30.2514 -30.2491 -30.2474 -30.2449
   -30.1714 -30.1696 -30.1685 -30.1665 -30.1571 -30.1540 -30.1525 -30.1495
   -20.0674 -20.0671 -20.0670 -20.0668 -20.0638 -20.0636 -20.0632 -20.0630
   -20.0580 -20.0578 -20.0577 -20.0574 -20.0573 -20.0571 -20.0569 -20.0566
   -20.0549 -20.0544 -20.0540 -20.0539 -20.0538 -20.0527 -20.0521 -20.0520
   -20.0516 -20.0515 -20.0509 -20.0502 -20.0496 -20.0491 -20.0490 -20.0489
   -20.0368 -20.0367 -20.0365 -20.0364 -20.0361 -20.0359 -20.0357 -20.0356
   -20.0021 -20.0020 -20.0005 -20.0005 -19.9996 -19.9996 -19.9988 -19.9988
   -19.9968 -19.9968 -19.9957 -19.9956 -19.9942 -19.9942 -19.9930 -19.9929
    -9.7724  -9.5033  -9.3868  -9.3097  -9.1205  -9.0319  -8.9424  -8.8691
    -8.8555  -8.7368  -8.7186  -8.6880  -7.8902  -7.8394  -7.8203  -7.7987
    -7.7807  -7.7673  -7.6559  -7.6541  -7.6330  -7.6293  -7.5258  -7.5056
     1.4703   1.4761   1.4767   1.4929   1.6724   1.7114   1.7207   1.9081
     1.9591   1.9592   1.9725   2.2108   2.6000   2.6736   2.7265   2.8207
     2.8561   2.9757   4.0863   4.1006   4.2223   4.2231   4.5098   4.5797
     4.7618   4.7755   4.8286   4.9900   5.0189   5.0822   5.1083   5.3185
     5.3405   5.4251   5.4614   5.5928   5.6575   5.6786   5.7428   5.8052
     5.8095   5.8301   5.9151   5.9298   5.9557   6.1479   6.2180   6.2587
     6.2751   6.4589   6.5572   6.6576   6.7828   6.8383   6.8785   6.8876
     6.9172   6.9641   7.0116   7.0322   7.0794   7.0861   7.2603   7.2721
     7.3155   7.3570   7.8877   7.8899   8.0723   8.0766   8.1018   8.1030
     9.8978   9.9112  10.3688  10.3773  10.5872  10.6200  12.2959  12.3389
    12.4157  12.4219  12.5180  12.5454  12.5562  12.6574  12.9345  12.9977
    13.2146  13.4123  13.4439  13.4827  14.0257  14.0483  14.0574  14.0634
    14.5697  14.8993  14.9726  15.1872  15.6291  15.6707  16.0028  16.1537
    16.4443  16.7518  17.0002  17.4126  17.6407

          k = 0.0000 0.1581 0.3327 ( 62077 PWs)   bands (ev):

   -65.9157 -65.9153 -65.9152 -65.9148 -65.9147 -65.9143 -65.9142 -65.9138
   -30.3713 -30.3690 -30.3663 -30.3642 -30.3211 -30.3184 -30.3147 -30.3121
   -30.2575 -30.2541 -30.2539 -30.2486 -30.2359 -30.2359 -30.2325 -30.2318
   -30.1893 -30.1876 -30.1857 -30.1837 -30.1563 -30.1539 -30.1531 -30.1507
   -20.0673 -20.0671 -20.0671 -20.0669 -20.0637 -20.0635 -20.0633 -20.0632
   -20.0579 -20.0577 -20.0576 -20.0574 -20.0573 -20.0572 -20.0568 -20.0567
   -20.0546 -20.0540 -20.0540 -20.0536 -20.0535 -20.0530 -20.0525 -20.0524
   -20.0514 -20.0513 -20.0511 -20.0505 -20.0495 -20.0492 -20.0491 -20.0490
   -20.0367 -20.0366 -20.0365 -20.0365 -20.0360 -20.0359 -20.0358 -20.0357
   -20.0011 -20.0011 -19.9997 -19.9997 -19.9992 -19.9992 -19.9992 -19.9992
   -19.9978 -19.9978 -19.9967 -19.9967 -19.9940 -19.9940 -19.9932 -19.9932
    -9.6570  -9.4402  -9.3749  -9.1672  -9.1651  -8.9720  -8.7863  -8.7814
    -8.7313  -8.7155  -8.6618  -8.5751  -8.1000  -8.0903  -8.0071  -7.9663
    -7.8551  -7.8363  -7.8009  -7.7737  -7.6271  -7.6069  -7.5524  -7.5321
     1.4857   1.5063   1.5081   1.5331   1.8449   1.8672   1.9425   1.9571
     2.3915   2.4377   2.5855   2.6820   2.7514   2.8422   2.8555   2.9433
     3.0638   3.2074   3.8510   3.9397   3.9583   4.0074   4.2375   4.2377
     4.3105   4.4787   4.6704   4.7102   4.8291   4.8915   4.9212   5.0287
     5.1117   5.2417   5.2925   5.3091   5.4908   5.5227   5.6138   5.7121
     5.7761   5.8416   5.8553   5.9057   6.0380   6.2263   6.2931   6.2975
     6.4289   6.6180   6.6240   6.6503   6.6705   6.7350   6.8093   6.8710
     6.9135   6.9260   7.0159   7.0251   7.0675   7.1125   7.1941   7.2335
     7.3769   7.4229   7.8405   7.8526   7.9462   7.9824   8.0910   8.1061
    10.3320  10.3668  10.5767  10.6747  11.1375  11.2229  11.9855  12.0530
    12.2367  12.5523  12.5597  12.6429  12.6547  12.7069  12.8225  12.9167
    12.9443  13.2484  13.3044  13.4935  13.6965  13.7742  14.0623  14.0747
    14.7493  14.8842  15.3211  15.4565  15.7518  15.8928  16.0500  16.0684
    16.4454  17.2064  17.2601  17.5315  17.8648

          k = 0.0000 0.1581-0.4991 ( 62038 PWs)   bands (ev):

   -65.9154 -65.9154 -65.9151 -65.9151 -65.9144 -65.9144 -65.9140 -65.9140
   -30.3702 -30.3702 -30.3653 -30.3653 -30.3197 -30.3197 -30.3134 -30.3134
   -30.2555 -30.2555 -30.2505 -30.2505 -30.2133 -30.2132 -30.2120 -30.2120
   -30.2094 -30.2094 -30.2078 -30.2078 -30.1551 -30.1551 -30.1520 -30.1520
   -20.0672 -20.0672 -20.0670 -20.0670 -20.0635 -20.0635 -20.0633 -20.0633
   -20.0578 -20.0578 -20.0575 -20.0575 -20.0573 -20.0572 -20.0567 -20.0567
   -20.0543 -20.0543 -20.0535 -20.0535 -20.0530 -20.0530 -20.0530 -20.0530
   -20.0513 -20.0513 -20.0510 -20.0510 -20.0494 -20.0494 -20.0490 -20.0490
   -20.0366 -20.0366 -20.0365 -20.0365 -20.0359 -20.0359 -20.0358 -20.0358
   -20.0000 -20.0000 -20.0000 -20.0000 -19.9989 -19.9988 -19.9988 -19.9988
   -19.9981 -19.9980 -19.9980 -19.9980 -19.9936 -19.9936 -19.9936 -19.9936
    -9.5326  -9.5326  -9.2504  -9.2504  -9.0384  -9.0384  -8.7504  -8.7504
    -8.4500  -8.4500  -8.4209  -8.4209  -8.4077  -8.4076  -8.3217  -8.3217
    -7.8499  -7.8499  -7.7901  -7.7901  -7.5894  -7.5894  -7.5691  -7.5691
     1.4991   1.4991   1.5269   1.5269   1.8661   1.8662   1.9562   1.9562
     2.7805   2.7805   3.1078   3.1078   3.2311   3.2311   3.2747   3.2747
     3.4155   3.4155   3.4203   3.4203   3.6060   3.6060   3.8824   3.8824
     4.0248   4.0248   4.3799   4.3799   4.6485   4.6485   4.8637   4.8637
     5.1601   5.1601   5.4209   5.4209   5.4348   5.4348   5.6042   5.6042
     5.7959   5.7959   5.8818   5.8818   6.2336   6.2336   6.3914   6.3914
     6.4360   6.4360   6.5231   6.5231   6.6444   6.6445   6.7378   6.7378
     6.9216   6.9216   6.9513   6.9513   7.0555   7.0555   7.5943   7.5943
     7.6361   7.6361   7.7171   7.7171   7.7645   7.7645   8.1032   8.1032
    10.3592  10.3592  11.3366  11.3366  11.4215  11.4215  11.7807  11.7807
    11.9692  11.9692  12.6110  12.6110  12.7773  12.7773  12.9688  12.9688
    12.9769  12.9769  13.3012  13.3012  13.5549  13.5549  14.0655  14.0655
    14.8461  14.8461  15.6550  15.6550  15.9089  15.9089  15.9275  15.9276
    16.8050  16.8050  17.6837  17.6837  18.1972

          k = 0.0000 0.3163 0.0000 ( 62007 PWs)   bands (ev):

   -65.9159 -65.9156 -65.9149 -65.9148 -65.9146 -65.9146 -65.9138 -65.9136
   -30.3615 -30.3569 -30.3563 -30.3520 -30.3328 -30.3276 -30.3268 -30.3219
   -30.2662 -30.2652 -30.2575 -30.2568 -30.2527 -30.2515 -30.2490 -30.2484
   -30.1643 -30.1632 -30.1623 -30.1612 -30.1568 -30.1550 -30.1510 -30.1494
   -20.0666 -20.0663 -20.0661 -20.0659 -20.0645 -20.0643 -20.0639 -20.0637
   -20.0580 -20.0577 -20.0577 -20.0576 -20.0573 -20.0572 -20.0572 -20.0569
   -20.0548 -20.0546 -20.0541 -20.0540 -20.0535 -20.0528 -20.0519 -20.0518
   -20.0517 -20.0517 -20.0507 -20.0502 -20.0496 -20.0493 -20.0490 -20.0490
   -20.0368 -20.0367 -20.0365 -20.0364 -20.0361 -20.0360 -20.0357 -20.0356
   -20.0024 -20.0024 -20.0009 -20.0009 -19.9998 -19.9997 -19.9986 -19.9986
   -19.9964 -19.9964 -19.9953 -19.9953 -19.9943 -19.9943 -19.9929 -19.9928
    -9.7440  -9.5957  -9.2818  -9.2758  -9.1462  -9.1329  -8.9050  -8.8978
    -8.7243  -8.6067  -8.5939  -8.5915  -8.1244  -8.0770  -8.0692  -8.0463
    -7.6772  -7.6746  -7.6532  -7.6505  -7.5203  -7.5132  -7.5086  -7.5008
     1.3816   1.3832   1.4563   1.4574   1.4830   1.4870   1.7576   1.7946
     2.4453   2.5268   2.5668   2.5838   2.6087   2.7634   2.9301   2.9617
     3.0630   3.1069   3.6978   3.7365   3.7512   3.7892   4.2163   4.5371
     4.5781   4.8281   4.9211   4.9568   4.9806   5.0124   5.1336   5.1393
     5.1615   5.1713   5.4808   5.5040   5.6667   5.6705   5.7910   5.8163
     5.9486   5.9609   5.9609   5.9884   6.0968   6.1114   6.1379   6.2395
     6.2513   6.2916   6.3507   6.5929   6.7097   6.7317   6.9261   6.9405
     6.9703   7.0397   7.1586   7.1610   7.1822   7.1950   7.4638   7.4729
     7.5086   7.5177   7.8452   7.8634   7.9115   7.9163   7.9169   7.9410
     9.5861   9.5872  10.8019  10.8355  10.8579  10.8703  11.9149  11.9914
    12.0825  12.1112  12.4762  12.4965  12.5273  12.5355  12.9116  12.9834
    13.4904  13.5329  13.5361  13.5659  13.9011  13.9240  13.9340  13.9539
    14.9139  15.3830  15.4039  15.6041  15.6139  15.7342  16.0333  16.0447
    16.0661  17.0177  17.3231  17.7104  17.7528

          k = 0.0000 0.3163 0.1664 ( 62025 PWs)   bands (ev):

   -65.9158 -65.9156 -65.9149 -65.9148 -65.9147 -65.9145 -65.9139 -65.9137
   -30.3612 -30.3573 -30.3561 -30.3523 -30.3324 -30.3280 -30.3264 -30.3222
   -30.2615 -30.2612 -30.2519 -30.2515 -30.2513 -30.2489 -30.2488 -30.2465
   -30.1710 -30.1700 -30.1681 -30.1670 -30.1565 -30.1547 -30.1519 -30.1502
   -20.0665 -20.0663 -20.0661 -20.0659 -20.0644 -20.0642 -20.0639 -20.0637
   -20.0580 -20.0577 -20.0576 -20.0576 -20.0573 -20.0573 -20.0572 -20.0569
   -20.0547 -20.0545 -20.0540 -20.0539 -20.0536 -20.0529 -20.0520 -20.0520
   -20.0516 -20.0516 -20.0508 -20.0504 -20.0496 -20.0493 -20.0491 -20.0490
   -20.0368 -20.0367 -20.0365 -20.0364 -20.0360 -20.0360 -20.0357 -20.0357
   -20.0021 -20.0020 -20.0005 -20.0005 -19.9996 -19.9996 -19.9988 -19.9988
   -19.9968 -19.9968 -19.9957 -19.9956 -19.9942 -19.9942 -19.9930 -19.9929
    -9.6937  -9.5415  -9.2934  -9.2084  -9.1488  -9.0589  -8.8658  -8.8581
    -8.7326  -8.6004  -8.5973  -8.5752  -8.1247  -8.0841  -8.0666  -8.0523
    -7.7943  -7.7811  -7.6552  -7.6518  -7.6363  -7.6335  -7.5229  -7.5105
     1.4756   1.4765   1.4881   1.4925   1.7046   1.7111   1.9076   1.9558
     2.4504   2.5698   2.5996   2.6196   2.6575   2.7585   2.9381   3.0558
     3.0589   3.1983   3.7326   3.7542   3.7785   3.7901   4.2024   4.5206
     4.5307   4.5549   4.6206   4.8338   4.8456   4.9532   5.0276   5.0421
     5.1332   5.1857   5.2875   5.4043   5.4979   5.5707   5.6758   5.7291
     5.7834   5.8732   5.8813   5.9360   6.1062   6.1797   6.1809   6.2425
     6.3420   6.4836   6.5262   6.6509   6.7073   6.9044   6.9493   6.9975
     7.0284   7.0501   7.1407   7.1470   7.1559   7.1850   7.2620   7.2878
     7.3529   7.3639   7.8566   7.8569   7.8943   7.9035   7.9249   7.9251
     9.9091   9.9190  10.8391  10.8745  10.9778  11.0270  11.9868  12.0088
    12.1129  12.1585  12.3969  12.4105  12.5738  12.5891  12.9751  13.0097
    13.3091  13.4416  13.4997  13.5304  13.7873  13.8477  13.8988  13.9305
    15.0410  15.3912  15.5874  15.6175  15.6752  15.7974  16.0378  16.2007
    16.3330  16.9812  17.3883  17.3984  17.7810

          k = 0.0000 0.3163 0.3327 ( 62070 PWs)   bands (ev):

   -65.9156 -65.9154 -65.9151 -65.9149 -65.9146 -65.9144 -65.9141 -65.9139
   -30.3604 -30.3581 -30.3554 -30.3532 -30.3314 -30.3289 -30.3256 -30.3231
   -30.2567 -30.2547 -30.2530 -30.2499 -30.2361 -30.2361 -30.2326 -30.2322
   -30.1890 -30.1880 -30.1853 -30.1842 -30.1556 -30.1538 -30.1532 -30.1514
   -20.0665 -20.0663 -20.0662 -20.0660 -20.0644 -20.0642 -20.0641 -20.0639
   -20.0579 -20.0577 -20.0575 -20.0575 -20.0574 -20.0573 -20.0571 -20.0569
   -20.0544 -20.0541 -20.0538 -20.0536 -20.0535 -20.0532 -20.0524 -20.0524
   -20.0515 -20.0514 -20.0510 -20.0507 -20.0495 -20.0492 -20.0492 -20.0491
   -20.0367 -20.0366 -20.0365 -20.0365 -20.0359 -20.0359 -20.0358 -20.0357
   -20.0011 -20.0011 -19.9997 -19.9997 -19.9992 -19.9992 -19.9992 -19.9992
   -19.9978 -19.9978 -19.9967 -19.9967 -19.9940 -19.9940 -19.9932 -19.9932
    -9.5714  -9.4127  -9.3474  -9.1977  -9.0231  -8.8119  -8.7650  -8.7471
    -8.7205  -8.6116  -8.5670  -8.5031  -8.1694  -8.1486  -8.0842  -8.0761
    -8.0574  -8.0143  -7.9603  -7.9157  -7.6248  -7.6120  -7.5496  -7.5371
     1.5019   1.5076   1.5263   1.5324   2.3003   2.3874   2.3972   2.4778
     2.5855   2.6033   2.6082   2.8335   2.8957   2.9148   2.9608   3.0461
     3.2992   3.4072   3.7325   3.7496   3.7798   3.8666   3.9518   3.9545
     4.1890   4.3804   4.4612   4.4938   4.5344   4.6894   4.7192   4.8863
     4.8878   4.9446   5.1038   5.1755   5.2922   5.3067   5.3163   5.4685
     5.4870   5.7001   5.7282   5.8905   6.2086   6.2840   6.2930   6.3150
     6.5120   6.6551   6.6850   6.7458   6.7478   6.8797   6.8991   6.9136
     7.0162   7.0496   7.1150   7.1365   7.1551   7.2123   7.2632   7.2793
     7.3612   7.4047   7.7891   7.8156   7.8319   7.8532   7.8944   7.9188
    10.5981  10.6010  10.8473  10.9015  11.4369  11.4885  11.9247  12.0451
    12.0668  12.1418  12.2989  12.3792  12.7176  12.7422  12.7692  12.8319
    12.9511  13.2339  13.2494  13.4552  13.5326  13.6613  13.8953  13.9191
    15.2227  15.3619  15.6984  15.9595  15.9898  16.0946  16.1438  16.7127
    16.8516  16.8553  17.1170  17.6105  17.7186

          k = 0.0000 0.3163-0.4991 ( 62088 PWs)   bands (ev):

   -65.9154 -65.9154 -65.9151 -65.9151 -65.9143 -65.9143 -65.9141 -65.9141
   -30.3593 -30.3593 -30.3543 -30.3543 -30.3301 -30.3301 -30.3243 -30.3243
   -30.2546 -30.2546 -30.2517 -30.2517 -30.2131 -30.2131 -30.2124 -30.2124
   -30.2092 -30.2091 -30.2082 -30.2082 -30.1545 -30.1545 -30.1527 -30.1527
   -20.0664 -20.0664 -20.0662 -20.0661 -20.0642 -20.0642 -20.0640 -20.0640
   -20.0578 -20.0578 -20.0575 -20.0574 -20.0574 -20.0574 -20.0570 -20.0570
   -20.0541 -20.0541 -20.0536 -20.0536 -20.0530 -20.0530 -20.0530 -20.0529
   -20.0513 -20.0513 -20.0511 -20.0511 -20.0494 -20.0493 -20.0491 -20.0491
   -20.0366 -20.0366 -20.0366 -20.0365 -20.0359 -20.0358 -20.0358 -20.0358
   -20.0000 -20.0000 -20.0000 -20.0000 -19.9989 -19.9989 -19.9988 -19.9988
   -19.9981 -19.9980 -19.9980 -19.9980 -19.9936 -19.9936 -19.9936 -19.9936
    -9.4418  -9.4417  -9.2847  -9.2847  -8.8467  -8.8467  -8.6431  -8.6431
    -8.4683  -8.4683  -8.4477  -8.4477  -8.4006  -8.4006  -8.2993  -8.2993
    -8.0760  -8.0760  -8.0273  -8.0273  -7.5868  -7.5868  -7.5741  -7.5741
     1.5194   1.5194   1.5262   1.5262   2.4549   2.4549   2.5956   2.5956
     2.9750   2.9750   3.1575   3.1575   3.2081   3.2081   3.3458   3.3458
     3.4071   3.4071   3.4871   3.4871   3.5611   3.5611   3.7517   3.7517
     4.1585   4.1585   4.1640   4.1640   4.2162   4.2162   4.4262   4.4262
     4.9094   4.9094   5.0386   5.0386   5.2173   5.2173   5.3941   5.3941
     5.5492   5.5492   5.8101   5.8101   6.3455   6.3455   6.4159   6.4159
     6.5585   6.5585   6.5884   6.5884   6.6528   6.6529   6.8293   6.8293
     7.1214   7.1214   7.1299   7.1299   7.1760   7.1760   7.5912   7.5912
     7.6219   7.6219   7.6274   7.6274   7.6805   7.6805   7.9034   7.9034
    10.8451  10.8451  11.3512  11.3512  11.4197  11.4197  11.8886  11.8886
    12.1431  12.1431  12.2970  12.2970  12.6896  12.6896  12.7460  12.7460
    12.9878  12.9878  13.0945  13.0946  13.5553  13.5553  13.8997  13.8997
    15.3096  15.3096  15.8355  15.8355  16.3471  16.3471  16.5849  16.5849
    16.9690  16.9690  17.3105  17.3105  18.0082

          k = 0.0000-0.4744 0.0000 ( 61998 PWs)   bands (ev):

   -65.9158 -65.9157 -65.9148 -65.9148 -65.9147 -65.9147 -65.9137 -65.9137
   -30.3470 -30.3470 -30.3422 -30.3422 -30.3415 -30.3414 -30.3370 -30.3370
   -30.2657 -30.2657 -30.2573 -30.2573 -30.2511 -30.2511 -30.2500 -30.2500
   -30.1638 -30.1638 -30.1618 -30.1617 -30.1559 -30.1559 -30.1502 -30.1502
   -20.0655 -20.0655 -20.0653 -20.0652 -20.0650 -20.0649 -20.0647 -20.0647
   -20.0579 -20.0579 -20.0576 -20.0575 -20.0575 -20.0574 -20.0571 -20.0571
   -20.0547 -20.0547 -20.0541 -20.0541 -20.0532 -20.0532 -20.0518 -20.0518
   -20.0517 -20.0517 -20.0505 -20.0505 -20.0495 -20.0494 -20.0491 -20.0490
   -20.0368 -20.0368 -20.0365 -20.0364 -20.0360 -20.0360 -20.0357 -20.0357
   -20.0024 -20.0024 -20.0009 -20.0009 -19.9998 -19.9998 -19.9986 -19.9986
   -19.9964 -19.9964 -19.9953 -19.9953 -19.9943 -19.9943 -19.9929 -19.9928
    -9.6603  -9.6603  -9.1982  -9.1982  -9.1878  -9.1878  -8.9014  -8.9014
    -8.4260  -8.4259  -8.3670  -8.3670  -8.3646  -8.3646  -8.3616  -8.3616
    -7.6742  -7.6742  -7.6542  -7.6542  -7.5146  -7.5146  -7.5073  -7.5073
     1.3822   1.3822   1.4575   1.4575   1.4861   1.4861   1.7861   1.7861
     2.5459   2.5459   3.1626   3.1626   3.2783   3.2783   3.3010   3.3010
     3.3296   3.3296   3.4120   3.4121   3.6005   3.6006   3.6452   3.6452
     3.7807   3.7807   4.9347   4.9347   4.9905   4.9905   5.2852   5.2852
     5.3552   5.3552   5.3820   5.3820   5.4136   5.4137   5.8500   5.8500
     5.8766   5.8766   6.0500   6.0500   6.1129   6.1129   6.2323   6.2323
     6.2750   6.2750   6.3727   6.3727   6.8043   6.8043   6.8234   6.8234
     7.0083   7.0083   7.4575   7.4575   7.4791   7.4791   7.5297   7.5297
     7.5361   7.5361   7.6191   7.6192   7.6242   7.6242   7.8829   7.8829
     9.5877   9.5878  11.3738  11.3738  11.4353  11.4353  11.4597  11.4597
    11.5308  11.5308  12.4894  12.4894  12.5349  12.5350  12.9550  12.9550
    13.6470  13.6470  13.6838  13.6838  13.7212  13.7212  13.7345  13.7346
    15.4438  15.4438  15.6144  15.6145  15.8157  15.8157  15.8273  15.8273
    16.6290  16.6290  18.0081  18.0082  18.1736

          k = 0.0000-0.4744 0.1664 ( 62030 PWs)   bands (ev):

   -65.9157 -65.9157 -65.9148 -65.9148 -65.9147 -65.9146 -65.9138 -65.9138
   -30.3467 -30.3466 -30.3425 -30.3425 -30.3412 -30.3412 -30.3373 -30.3373
   -30.2613 -30.2613 -30.2514 -30.2514 -30.2504 -30.2504 -30.2481 -30.2481
   -30.1705 -30.1705 -30.1676 -30.1676 -30.1556 -30.1556 -30.1511 -30.1511
   -20.0655 -20.0655 -20.0652 -20.0652 -20.0650 -20.0650 -20.0648 -20.0648
   -20.0578 -20.0578 -20.0575 -20.0575 -20.0575 -20.0574 -20.0571 -20.0571
   -20.0546 -20.0546 -20.0539 -20.0539 -20.0533 -20.0532 -20.0520 -20.0520
   -20.0517 -20.0517 -20.0506 -20.0506 -20.0494 -20.0494 -20.0491 -20.0491
   -20.0367 -20.0367 -20.0365 -20.0365 -20.0360 -20.0360 -20.0357 -20.0357
   -20.0021 -20.0020 -20.0005 -20.0005 -19.9996 -19.9996 -19.9988 -19.9988
   -19.9968 -19.9968 -19.9957 -19.9956 -19.9942 -19.9942 -19.9930 -19.9929
    -9.6074  -9.6074  -9.2048  -9.2047  -9.1148  -9.1147  -8.8619  -8.8619
    -8.4316  -8.4315  -8.3723  -8.3723  -8.3639  -8.3638  -8.3547  -8.3547
    -7.7881  -7.7881  -7.6520  -7.6520  -7.6370  -7.6370  -7.5169  -7.5169
     1.4764   1.4764   1.4915   1.4915   1.7099   1.7099   1.9457   1.9457
     2.6360   2.6360   3.1794   3.1794   3.2609   3.2609   3.3227   3.3228
     3.3677   3.3677   3.4118   3.4118   3.6188   3.6188   3.6675   3.6675
     3.8127   3.8127   4.5565   4.5565   4.9982   4.9982   5.0796   5.0796
     5.2091   5.2091   5.3009   5.3009   5.4163   5.4163   5.5934   5.5934
     5.8372   5.8372   5.8807   5.8807   6.1771   6.1771   6.2232   6.2232
     6.4584   6.4584   6.5169   6.5169   6.7947   6.7948   6.9852   6.9852
     7.0721   7.0721   7.2534   7.2534   7.3015   7.3015   7.5240   7.5240
     7.5448   7.5448   7.5933   7.5933   7.6021   7.6022   7.8980   7.8980
     9.9168   9.9168  11.4355  11.4355  11.4976  11.4976  11.5138  11.5139
    11.5989  11.5989  12.4034  12.4034  12.5823  12.5823  13.0082  13.0082
    13.4824  13.4824  13.5611  13.5611  13.6808  13.6808  13.7530  13.7530
    15.5023  15.5023  15.7365  15.7365  15.8134  15.8134  16.0783  16.0783
    16.6901  16.6901  17.9211  17.9212  18.0501

          k = 0.0000-0.4744 0.3327 ( 62104 PWs)   bands (ev):

   -65.9155 -65.9155 -65.9150 -65.9150 -65.9145 -65.9145 -65.9140 -65.9140
   -30.3458 -30.3458 -30.3434 -30.3434 -30.3404 -30.3404 -30.3382 -30.3382
   -30.2557 -30.2557 -30.2515 -30.2515 -30.2362 -30.2362 -30.2325 -30.2325
   -30.1886 -30.1885 -30.1848 -30.1848 -30.1548 -30.1548 -30.1524 -30.1523
   -20.0654 -20.0654 -20.0652 -20.0652 -20.0651 -20.0651 -20.0649 -20.0649
   -20.0577 -20.0577 -20.0576 -20.0576 -20.0574 -20.0574 -20.0572 -20.0572
   -20.0542 -20.0542 -20.0535 -20.0535 -20.0535 -20.0535 -20.0524 -20.0524
   -20.0515 -20.0515 -20.0509 -20.0509 -20.0494 -20.0494 -20.0492 -20.0492
   -20.0367 -20.0367 -20.0365 -20.0365 -20.0359 -20.0359 -20.0357 -20.0357
   -20.0011 -20.0011 -19.9997 -19.9997 -19.9992 -19.9992 -19.9992 -19.9992
   -19.9978 -19.9978 -19.9967 -19.9967 -19.9940 -19.9940 -19.9932 -19.9932
    -9.4799  -9.4799  -9.2568  -9.2568  -8.8854  -8.8854  -8.7297  -8.7297
    -8.4641  -8.4640  -8.3949  -8.3949  -8.3552  -8.3552  -8.3269  -8.3268
    -8.0717  -8.0717  -7.9486  -7.9486  -7.6187  -7.6187  -7.5436  -7.5436
     1.5062   1.5062   1.5309   1.5309   2.3771   2.3771   2.5649   2.5650
     2.8953   2.8953   3.2046   3.2046   3.2587   3.2587   3.3381   3.3381
     3.3645   3.3645   3.4912   3.4912   3.6025   3.6025   3.7962   3.7962
     3.8840   3.8840   3.9499   3.9499   4.5645   4.5645   4.7322   4.7322
     4.8765   4.8765   4.9613   4.9613   5.3251   5.3252   5.3565   5.3565
     5.4748   5.4748   5.7612   5.7612   6.2799   6.2799   6.3224   6.3225
     6.6010   6.6010   6.7198   6.7198   6.7919   6.7919   6.9379   6.9379
     7.1303   7.1303   7.2526   7.2526   7.2654   7.2654   7.5042   7.5042
     7.5443   7.5443   7.5671   7.5672   7.5847   7.5847   7.8563   7.8563
    10.6132  10.6132  11.4433  11.4433  11.5018  11.5018  11.8699  11.8699
    11.9359  11.9359  12.0461  12.0461  12.7362  12.7362  12.8679  12.8679
    13.0318  13.0318  13.2873  13.2873  13.6762  13.6763  13.7246  13.7246
    15.5492  15.5492  15.7436  15.7436  16.3099  16.3099  16.7774  16.7774
    16.9103  16.9103  17.4153  17.4153  17.9794

          k = 0.0000-0.4744-0.4991 ( 62092 PWs)   bands (ev):

   -65.9153 -65.9153 -65.9152 -65.9152 -65.9142 -65.9142 -65.9142 -65.9142
   -30.3446 -30.3446 -30.3446 -30.3446 -30.3393 -30.3393 -30.3393 -30.3393
   -30.2532 -30.2532 -30.2532 -30.2532 -30.2128 -30.2128 -30.2128 -30.2128
   -30.2087 -30.2087 -30.2087 -30.2087 -30.1536 -30.1536 -30.1536 -30.1536
   -20.0653 -20.0653 -20.0653 -20.0653 -20.0651 -20.0651 -20.0650 -20.0650
   -20.0577 -20.0576 -20.0576 -20.0576 -20.0573 -20.0573 -20.0573 -20.0572
   -20.0538 -20.0538 -20.0538 -20.0538 -20.0530 -20.0529 -20.0529 -20.0529
   -20.0512 -20.0512 -20.0512 -20.0512 -20.0493 -20.0493 -20.0493 -20.0493
   -20.0366 -20.0366 -20.0366 -20.0366 -20.0358 -20.0358 -20.0358 -20.0358
   -20.0000 -20.0000 -20.0000 -20.0000 -19.9989 -19.9988 -19.9988 -19.9988
   -19.9981 -19.9980 -19.9980 -19.9980 -19.9936 -19.9936 -19.9936 -19.9936
    -9.3488  -9.3488  -9.3488  -9.3488  -8.6042  -8.6042  -8.6042  -8.6042
    -8.5089  -8.5089  -8.5088  -8.5088  -8.3077  -8.3077  -8.3077  -8.3077
    -8.2286  -8.2286  -8.2285  -8.2285  -7.5807  -7.5807  -7.5807  -7.5807
     1.5245   1.5245   1.5245   1.5246   3.0938   3.0938   3.0938   3.0938
     3.2179   3.2179   3.2179   3.2179   3.3295   3.3296   3.3296   3.3296
     3.3759   3.3759   3.3759   3.3759   3.5916   3.5916   3.5916   3.5916
     3.7297   3.7297   3.7297   3.7297   4.3978   4.3978   4.3978   4.3979
     4.5133   4.5133   4.5133   4.5133   5.3241   5.3241   5.3242   5.3242
     5.6185   5.6185   5.6185   5.6185   6.4046   6.4046   6.4046   6.4046
     6.6044   6.6044   6.6044   6.6044   6.7250   6.7250   6.7250   6.7250
     7.3600   7.3600   7.3600   7.3600   7.4461   7.4461   7.4461   7.4461
     7.5447   7.5447   7.5447   7.5448   7.6736   7.6736   7.6736   7.6736
    11.3239  11.3240  11.3240  11.3240  11.5350  11.5350  11.5350  11.5350
    12.4027  12.4027  12.4027  12.4027  12.4440  12.4440  12.4440  12.4440
    13.0052  13.0052  13.0052  13.0052  13.6856  13.6856  13.6856  13.6856
    15.6472  15.6472  15.6472  15.6472  16.9169  16.9169  16.9169  16.9169
    17.4411  17.4413  17.4413  17.4413  17.5804

          k = 0.1667 0.0000 0.0000 ( 62050 PWs)   bands (ev):

   -65.9159 -65.9155 -65.9150 -65.9149 -65.9146 -65.9145 -65.9140 -65.9136
   -30.3759 -30.3716 -30.3715 -30.3674 -30.3185 -30.3128 -30.3128 -30.3071
   -30.2652 -30.2630 -30.2577 -30.2567 -30.2488 -30.2463 -30.2412 -30.2402
   -30.1655 -30.1644 -30.1638 -30.1633 -30.1623 -30.1604 -30.1557 -30.1537
   -20.0677 -20.0675 -20.0672 -20.0670 -20.0636 -20.0634 -20.0629 -20.0627
   -20.0581 -20.0578 -20.0576 -20.0574 -20.0573 -20.0570 -20.0569 -20.0566
   -20.0549 -20.0545 -20.0542 -20.0540 -20.0537 -20.0524 -20.0522 -20.0518
   -20.0515 -20.0514 -20.0508 -20.0499 -20.0498 -20.0493 -20.0490 -20.0490
   -20.0368 -20.0366 -20.0364 -20.0363 -20.0361 -20.0360 -20.0358 -20.0357
   -20.0023 -20.0023 -20.0010 -20.0010 -19.9995 -19.9994 -19.9983 -19.9983
   -19.9963 -19.9963 -19.9955 -19.9954 -19.9947 -19.9946 -19.9932 -19.9932
    -9.8053  -9.4932  -9.4283  -9.3539  -9.1274  -9.0172  -9.0088  -8.8730
    -8.8523  -8.7762  -8.7580  -8.7146  -7.8273  -7.7729  -7.7523  -7.7296
    -7.7239  -7.6728  -7.6703  -7.6451  -7.6323  -7.6213  -7.5359  -7.5110
     1.4409   1.4421   1.4584   1.4627   1.5596   1.5997   1.7102   1.7137
     1.7374   1.8464   1.9795   2.1246   2.5893   2.6656   2.6791   2.7339
     2.8063   2.8885   4.1575   4.2506   4.4541   4.4633   4.5397   4.5911
     4.7161   4.8698   4.9078   4.9804   4.9924   5.1254   5.1846   5.4585
     5.4890   5.5083   5.5884   5.6076   5.6594   5.6863   5.7237   5.7548
     5.8351   5.8638   5.8791   6.0046   6.0894   6.1451   6.1696   6.2225
     6.3704   6.4880   6.5175   6.6095   6.7869   6.7982   6.8318   6.8664
     6.9034   6.9668   7.0197   7.0537   7.0766   7.1178   7.2826   7.3002
     7.3020   7.3292   7.8863   7.8918   8.0651   8.1280   8.1728   8.2215
     9.8889   9.9252  10.1814  10.2151  10.4147  10.4800  12.3278  12.4091
    12.4486  12.4710  12.5211  12.5851  12.6772  12.7972  12.8730  13.0267
    13.3012  13.3080  13.4354  13.5267  13.8949  14.0237  14.2605  14.2661
    14.3723  14.5523  14.7631  15.0303  15.6020  15.6335  15.6545  16.1526
    16.5111  16.8418  17.0718  17.3492  17.5702

          k = 0.1667 0.0000 0.1664 ( 62063 PWs)   bands (ev):

   -65.9158 -65.9154 -65.9150 -65.9149 -65.9145 -65.9145 -65.9141 -65.9136
   -30.3757 -30.3718 -30.3714 -30.3677 -30.3180 -30.3131 -30.3123 -30.3075
   -30.2599 -30.2579 -30.2517 -30.2506 -30.2467 -30.2467 -30.2405 -30.2398
   -30.1714 -30.1697 -30.1694 -30.1675 -30.1638 -30.1602 -30.1584 -30.1551
   -20.0677 -20.0674 -20.0673 -20.0671 -20.0635 -20.0634 -20.0629 -20.0628
   -20.0580 -20.0578 -20.0577 -20.0574 -20.0573 -20.0571 -20.0568 -20.0566
   -20.0548 -20.0544 -20.0541 -20.0539 -20.0538 -20.0525 -20.0523 -20.0520
   -20.0514 -20.0513 -20.0508 -20.0501 -20.0498 -20.0492 -20.0491 -20.0490
   -20.0367 -20.0366 -20.0364 -20.0363 -20.0361 -20.0360 -20.0358 -20.0357
   -20.0020 -20.0019 -20.0006 -20.0006 -19.9993 -19.9993 -19.9984 -19.9984
   -19.9967 -19.9967 -19.9958 -19.9958 -19.9946 -19.9946 -19.9933 -19.9933
    -9.7574  -9.4338  -9.3709  -9.3708  -9.0393  -9.0261  -9.0241  -8.8323
    -8.8173  -8.7687  -8.7250  -8.7199  -7.8316  -7.7907  -7.7652  -7.7649
    -7.7470  -7.7321  -7.7175  -7.6739  -7.6724  -7.6575  -7.6299  -7.6113
     1.5429   1.5894   1.5911   1.6379   1.6382   1.7025   1.7182   1.7437
     1.8205   1.8489   2.0531   2.1969   2.6790   2.7426   2.7522   2.7756
     2.8707   2.9093   4.1593   4.1765   4.4332   4.4483   4.5702   4.5755
     4.6423   4.6457   4.7467   4.7572   4.8574   4.9309   5.1739   5.3671
     5.3671   5.4329   5.4640   5.5707   5.5982   5.7075   5.7251   5.7716
     5.7909   5.8147   5.8454   5.8582   5.8779   6.0959   6.3530   6.4664
     6.4797   6.5515   6.6401   6.7179   6.7573   6.7661   6.7690   6.8108
     6.8472   6.9177   6.9630   6.9717   7.0030   7.0523   7.0569   7.1741
     7.3813   7.4403   7.8903   7.8915   8.0773   8.1310   8.1449   8.1785
    10.0931  10.1602  10.4120  10.4314  10.4542  10.5491  12.3822  12.3900
    12.4451  12.4572  12.5076  12.5461  12.7608  12.7916  12.9092  13.0351
    13.1733  13.3145  13.3280  13.4810  13.9448  14.0098  14.1230  14.1559
    14.4145  14.6658  14.7552  15.1480  15.5702  15.7049  15.7189  16.4427
    16.4766  17.0076  17.0322  17.2205  17.6184

          k = 0.1667 0.0000 0.3327 ( 62065 PWs)   bands (ev):

   -65.9157 -65.9152 -65.9152 -65.9148 -65.9147 -65.9143 -65.9143 -65.9138
   -30.3749 -30.3727 -30.3707 -30.3686 -30.3168 -30.3141 -30.3112 -30.3084
   -30.2516 -30.2493 -30.2476 -30.2421 -30.2354 -30.2350 -30.2318 -30.2313
   -30.1891 -30.1872 -30.1863 -30.1840 -30.1631 -30.1606 -30.1594 -30.1568
   -20.0676 -20.0674 -20.0674 -20.0672 -20.0634 -20.0633 -20.0631 -20.0629
   -20.0579 -20.0577 -20.0577 -20.0575 -20.0572 -20.0571 -20.0568 -20.0566
   -20.0545 -20.0540 -20.0539 -20.0537 -20.0535 -20.0529 -20.0526 -20.0525
   -20.0513 -20.0512 -20.0510 -20.0504 -20.0497 -20.0493 -20.0492 -20.0491
   -20.0367 -20.0365 -20.0365 -20.0364 -20.0360 -20.0359 -20.0358 -20.0357
   -20.0010 -20.0010 -19.9997 -19.9997 -19.9991 -19.9991 -19.9988 -19.9987
   -19.9976 -19.9976 -19.9968 -19.9968 -19.9943 -19.9943 -19.9936 -19.9936
    -9.6405  -9.4232  -9.2926  -9.2384  -9.0712  -9.0564  -8.7892  -8.7719
    -8.7338  -8.6901  -8.6731  -8.6010  -8.0822  -8.0815  -8.0046  -7.9809
    -7.7854  -7.7568  -7.7243  -7.7214  -7.7057  -7.6830  -7.6614  -7.6516
     1.5547   1.5773   1.6532   1.6861   1.7597   1.7803   1.8365   1.8573
     2.3998   2.4361   2.5652   2.6539   2.7662   2.8584   2.9495   2.9969
     3.0602   3.1512   3.8743   3.9679   4.0317   4.0343   4.2424   4.4090
     4.4225   4.5697   4.6237   4.6585   4.7011   4.8634   4.8828   5.0063
     5.1151   5.1484   5.1974   5.3222   5.3880   5.4495   5.6451   5.7465
     5.7627   5.8453   5.8615   5.8870   5.9152   6.1010   6.2168   6.2737
     6.4986   6.5086   6.5666   6.6316   6.6377   6.7499   6.7596   6.8024
     6.8421   6.9584   6.9746   6.9776   7.1979   7.2073   7.2871   7.3220
     7.4046   7.4465   7.8474   7.8612   7.9948   8.0423   8.1244   8.1338
    10.3963  10.4004  10.7205  10.8054  11.0391  11.1617  12.0462  12.1067
    12.2954  12.5344  12.6071  12.6194  12.6742  12.7916  12.9123  12.9344
    13.0069  13.2110  13.2190  13.4188  13.7863  13.8048  14.0009  14.0370
    14.5562  14.7294  14.9668  15.4622  15.4661  15.9420  16.1019  16.3831
    16.4576  17.2632  17.4584  17.5753  17.6673

          k = 0.1667 0.0000-0.4991 ( 62086 PWs)   bands (ev):

   -65.9154 -65.9154 -65.9150 -65.9150 -65.9145 -65.9145 -65.9141 -65.9141
   -30.3738 -30.3738 -30.3697 -30.3697 -30.3154 -30.3154 -30.3098 -30.3097
   -30.2493 -30.2493 -30.2442 -30.2442 -30.2129 -30.2129 -30.2115 -30.2115
   -30.2097 -30.2097 -30.2079 -30.2079 -30.1620 -30.1619 -30.1582 -30.1582
   -20.0675 -20.0675 -20.0673 -20.0673 -20.0633 -20.0633 -20.0631 -20.0631
   -20.0578 -20.0578 -20.0576 -20.0576 -20.0572 -20.0571 -20.0567 -20.0567
   -20.0542 -20.0542 -20.0534 -20.0534 -20.0531 -20.0531 -20.0530 -20.0530
   -20.0511 -20.0511 -20.0508 -20.0508 -20.0495 -20.0495 -20.0491 -20.0491
   -20.0366 -20.0366 -20.0365 -20.0365 -20.0359 -20.0359 -20.0358 -20.0358
   -19.9999 -19.9998 -19.9998 -19.9998 -19.9987 -19.9986 -19.9986 -19.9986
   -19.9981 -19.9981 -19.9981 -19.9981 -19.9940 -19.9940 -19.9940 -19.9940
    -9.5152  -9.5152  -9.1575  -9.1575  -9.1212  -9.1212  -8.7520  -8.7519
    -8.4483  -8.4483  -8.4366  -8.4366  -8.3848  -8.3848  -8.3296  -8.3296
    -7.7696  -7.7696  -7.7006  -7.7006  -7.6942  -7.6942  -7.6827  -7.6827
     1.5640   1.5640   1.6698   1.6698   1.7802   1.7802   1.8656   1.8656
     2.7918   2.7918   3.1059   3.1059   3.1887   3.1887   3.3045   3.3045
     3.4056   3.4056   3.5020   3.5020   3.6681   3.6681   3.9016   3.9016
     3.9683   3.9683   4.5275   4.5275   4.6151   4.6151   4.9920   4.9920
     5.1229   5.1229   5.1726   5.1726   5.3333   5.3333   5.7001   5.7001
     5.8752   5.8752   5.8779   5.8779   5.9870   5.9870   6.0643   6.0643
     6.4235   6.4235   6.5206   6.5206   6.7375   6.7375   6.7794   6.7794
     6.9269   6.9269   7.0379   7.0379   7.1015   7.1015   7.6258   7.6258
     7.6679   7.6679   7.7561   7.7561   7.7994   7.7994   8.1326   8.1326
    10.4142  10.4142  11.4099  11.4100  11.5020  11.5021  11.7357  11.7357
    11.9280  11.9280  12.7122  12.7123  12.8071  12.8071  12.8802  12.8802
    13.0480  13.0480  13.3863  13.3863  13.4945  13.4945  14.0163  14.0163
    14.6734  14.6734  15.2685  15.2685  15.9077  15.9077  16.2006  16.2006
    16.8545  16.8545  17.8685  17.8686  17.9624

          k = 0.1667 0.1581 0.0000 ( 62053 PWs)   bands (ev):

   -65.9159 -65.9155 -65.9150 -65.9149 -65.9146 -65.9145 -65.9140 -65.9136
   -30.3719 -30.3676 -30.3675 -30.3634 -30.3221 -30.3167 -30.3165 -30.3112
   -30.2651 -30.2632 -30.2578 -30.2568 -30.2485 -30.2460 -30.2419 -30.2407
   -30.1654 -30.1643 -30.1639 -30.1631 -30.1625 -30.1607 -30.1557 -30.1539
   -20.0674 -20.0672 -20.0669 -20.0667 -20.0638 -20.0636 -20.0631 -20.0630
   -20.0581 -20.0578 -20.0576 -20.0574 -20.0574 -20.0571 -20.0570 -20.0567
   -20.0549 -20.0545 -20.0542 -20.0540 -20.0536 -20.0525 -20.0521 -20.0518
   -20.0515 -20.0514 -20.0508 -20.0500 -20.0498 -20.0493 -20.0491 -20.0491
   -20.0368 -20.0367 -20.0364 -20.0363 -20.0361 -20.0360 -20.0358 -20.0357
   -20.0023 -20.0023 -20.0010 -20.0010 -19.9995 -19.9994 -19.9983 -19.9983
   -19.9963 -19.9963 -19.9955 -19.9955 -19.9947 -19.9946 -19.9932 -19.9932
    -9.7732  -9.5054  -9.3892  -9.3088  -9.1355  -9.0173  -8.9429  -8.8701
    -8.8534  -8.7345  -8.7217  -8.6841  -7.8928  -7.8350  -7.8248  -7.7812
    -7.7781  -7.7595  -7.6725  -7.6486  -7.6367  -7.6197  -7.5344  -7.5134
     1.4536   1.4567   1.4596   1.4630   1.6844   1.7200   1.7401   1.9109
     1.9381   1.9808   1.9952   2.2181   2.5967   2.6728   2.7400   2.8085
     2.8789   2.9565   4.0528   4.1242   4.1927   4.2690   4.4968   4.5877
     4.7087   4.7968   4.9480   4.9547   5.0003   5.0105   5.0806   5.3359
     5.3939   5.4286   5.4728   5.6008   5.6549   5.6734   5.7259   5.7619
     5.8452   5.8674   5.9082   5.9540   5.9602   6.1610   6.1778   6.2275
     6.3232   6.4920   6.4938   6.6390   6.7862   6.8263   6.8727   6.8796
     6.9184   6.9726   7.0047   7.0428   7.0640   7.0993   7.2860   7.2997
     7.3092   7.3283   7.8864   7.8910   8.0352   8.0691   8.1179   8.1405
     9.8984   9.9269  10.3651  10.3723  10.5829  10.6224  12.2416  12.4106
    12.4174  12.4518  12.4992  12.5076  12.5370  12.6627  12.8979  13.0205
    13.3179  13.3247  13.4470  13.5171  13.9500  13.9744  14.1647  14.1725
    14.5334  14.8248  15.0043  15.1900  15.6346  15.6516  15.9927  16.1294
    16.4747  16.7444  16.9720  17.4518  17.6450

          k = 0.1667 0.1581 0.1664 ( 62039 PWs)   bands (ev):

   -65.9158 -65.9154 -65.9149 -65.9149 -65.9146 -65.9145 -65.9140 -65.9137
   -30.3717 -30.3678 -30.3674 -30.3637 -30.3217 -30.3170 -30.3162 -30.3115
   -30.2597 -30.2580 -30.2517 -30.2507 -30.2464 -30.2464 -30.2410 -30.2404
   -30.1712 -30.1695 -30.1695 -30.1677 -30.1636 -30.1604 -30.1582 -30.1554
   -20.0674 -20.0671 -20.0670 -20.0668 -20.0638 -20.0636 -20.0632 -20.0630
   -20.0580 -20.0578 -20.0576 -20.0574 -20.0574 -20.0571 -20.0570 -20.0567
   -20.0547 -20.0544 -20.0541 -20.0539 -20.0537 -20.0526 -20.0522 -20.0520
   -20.0515 -20.0514 -20.0508 -20.0501 -20.0498 -20.0493 -20.0491 -20.0491
   -20.0367 -20.0366 -20.0364 -20.0364 -20.0361 -20.0360 -20.0358 -20.0357
   -20.0020 -20.0019 -20.0006 -20.0006 -19.9993 -19.9993 -19.9984 -19.9984
   -19.9967 -19.9967 -19.9958 -19.9958 -19.9946 -19.9946 -19.9933 -19.9933
    -9.7237  -9.4462  -9.3274  -9.3260  -9.0475  -9.0329  -8.9519  -8.8312
    -8.8182  -8.7266  -8.6932  -8.6890  -7.8954  -7.8385  -7.8306  -7.7894
    -7.7887  -7.7697  -7.7562  -7.7503  -7.6755  -7.6549  -7.6324  -7.6137
     1.6314   1.6369   1.6762   1.6878   1.7183   1.7280   1.7503   1.9091
     1.9701   1.9917   2.0532   2.2699   2.6884   2.7693   2.8173   2.8285
     2.9436   2.9756   4.0662   4.0927   4.2187   4.2505   4.5351   4.5637
     4.6320   4.6502   4.7243   4.7776   4.7897   4.8774   5.0051   5.2704
     5.3267   5.3415   5.3979   5.4695   5.4940   5.6439   5.6656   5.7124
     5.8299   5.8452   5.8681   5.8791   5.8930   5.9420   6.3535   6.4522
     6.4568   6.4839   6.6353   6.7178   6.7691   6.7914   6.8527   6.8546
     6.8936   6.9010   6.9788   6.9983   7.0266   7.0362   7.0772   7.1832
     7.3867   7.4380   7.8894   7.8915   8.0338   8.0729   8.0930   8.1030
    10.1168  10.1677  10.5597  10.5834  10.6062  10.6787  12.3077  12.3680
    12.4353  12.4629  12.4688  12.4788  12.6253  12.6452  12.9367  13.0336
    13.1885  13.3168  13.3272  13.4784  13.9480  13.9622  14.0243  14.0735
    14.6241  14.9596  15.0000  15.2909  15.7060  15.7161  15.9673  16.4130
    16.4422  16.8701  17.1163  17.1411  17.6862

          k = 0.1667 0.1581 0.3327 ( 62072 PWs)   bands (ev):

   -65.9156 -65.9152 -65.9151 -65.9147 -65.9147 -65.9143 -65.9142 -65.9139
   -30.3709 -30.3687 -30.3667 -30.3645 -30.3206 -30.3179 -30.3151 -30.3124
   -30.2514 -30.2493 -30.2474 -30.2426 -30.2354 -30.2351 -30.2319 -30.2316
   -30.1890 -30.1874 -30.1861 -30.1842 -30.1629 -30.1603 -30.1597 -30.1571
   -20.0673 -20.0671 -20.0671 -20.0669 -20.0637 -20.0635 -20.0633 -20.0632
   -20.0579 -20.0577 -20.0577 -20.0574 -20.0573 -20.0572 -20.0569 -20.0567
   -20.0545 -20.0540 -20.0538 -20.0536 -20.0535 -20.0529 -20.0525 -20.0525
   -20.0513 -20.0512 -20.0510 -20.0505 -20.0497 -20.0493 -20.0492 -20.0491
   -20.0367 -20.0366 -20.0365 -20.0364 -20.0360 -20.0359 -20.0358 -20.0357
   -20.0010 -20.0010 -19.9997 -19.9997 -19.9991 -19.9991 -19.9988 -19.9987
   -19.9976 -19.9976 -19.9968 -19.9968 -19.9943 -19.9943 -19.9936 -19.9936
    -9.6029  -9.3795  -9.3049  -9.1817  -9.0807  -8.9829  -8.7979  -8.7491
    -8.7026  -8.6911  -8.6565  -8.5823  -8.0896  -8.0796  -8.0239  -7.9789
    -7.8556  -7.8377  -7.8082  -7.7792  -7.7411  -7.7230  -7.6688  -7.6517
     1.6900   1.7040   1.7580   1.7781   1.8631   1.8751   1.9533   1.9913
     2.3986   2.4448   2.5679   2.6671   2.8395   2.9201   2.9712   3.0567
     3.0728   3.2099   3.8776   3.9657   3.9884   4.0271   4.2286   4.2734
     4.3256   4.4885   4.5574   4.6637   4.7014   4.8013   4.8407   4.9114
     4.9513   5.0462   5.0928   5.2286   5.3040   5.3557   5.4413   5.6916
     5.7135   5.7296   5.8539   5.8887   5.8975   5.9157   6.2164   6.2692
     6.4497   6.5929   6.6169   6.7011   6.7611   6.7638   6.7888   6.8674
     6.9054   6.9570   6.9951   7.0362   7.1979   7.2034   7.2860   7.3245
     7.4005   7.4392   7.8485   7.8584   7.9503   7.9838   8.0687   8.0763
    10.5350  10.5557  10.7492  10.8202  11.1463  11.2421  12.0466  12.1026
    12.2842  12.5098  12.5939  12.6150  12.6407  12.6737  12.8498  12.8885
    12.9368  13.1866  13.2121  13.4130  13.6795  13.7116  13.9685  13.9906
    14.8174  14.9759  15.3101  15.5727  15.8654  15.9358  16.1111  16.3524
    16.5637  17.2263  17.2694  17.5230  17.6215

          k = 0.1667 0.1581-0.4991 ( 62062 PWs)   bands (ev):

   -65.9154 -65.9154 -65.9150 -65.9150 -65.9145 -65.9145 -65.9141 -65.9141
   -30.3699 -30.3699 -30.3657 -30.3656 -30.3192 -30.3192 -30.3138 -30.3137
   -30.2490 -30.2490 -30.2446 -30.2446 -30.2129 -30.2129 -30.2116 -30.2116
   -30.2096 -30.2096 -30.2081 -30.2081 -30.1617 -30.1617 -30.1585 -30.1585
   -20.0672 -20.0672 -20.0670 -20.0670 -20.0635 -20.0635 -20.0634 -20.0633
   -20.0578 -20.0578 -20.0575 -20.0575 -20.0572 -20.0572 -20.0568 -20.0568
   -20.0541 -20.0541 -20.0534 -20.0534 -20.0531 -20.0531 -20.0530 -20.0530
   -20.0512 -20.0511 -20.0509 -20.0509 -20.0495 -20.0495 -20.0492 -20.0492
   -20.0366 -20.0366 -20.0365 -20.0365 -20.0359 -20.0359 -20.0358 -20.0358
   -19.9999 -19.9998 -19.9998 -19.9998 -19.9987 -19.9986 -19.9986 -19.9986
   -19.9981 -19.9981 -19.9981 -19.9981 -19.9940 -19.9940 -19.9940 -19.9940
    -9.4738  -9.4738  -9.1684  -9.1684  -9.0519  -9.0518  -8.7207  -8.7207
    -8.4526  -8.4526  -8.4381  -8.4381  -8.3875  -8.3875  -8.3244  -8.3244
    -7.8503  -7.8503  -7.7970  -7.7970  -7.7055  -7.7055  -7.6869  -7.6869
     1.6979   1.6980   1.7781   1.7782   1.8760   1.8760   1.9899   1.9899
     2.8603   2.8603   3.1250   3.1250   3.2073   3.2073   3.3172   3.3172
     3.4085   3.4085   3.5132   3.5132   3.6580   3.6580   3.9062   3.9062
     4.0168   4.0168   4.3837   4.3837   4.5627   4.5627   4.7953   4.7953
     5.0067   5.0067   5.1335   5.1335   5.2104   5.2104   5.5440   5.5440
     5.7761   5.7761   5.8327   5.8327   5.9356   5.9356   6.0001   6.0001
     6.5460   6.5460   6.6780   6.6780   6.7252   6.7252   6.8341   6.8341
     6.9867   6.9867   7.0127   7.0127   7.1276   7.1276   7.6251   7.6251
     7.6632   7.6632   7.7290   7.7290   7.7684   7.7684   8.0742   8.0742
    10.5757  10.5757  11.4174  11.4174  11.5015  11.5015  11.8014  11.8014
    11.9831  11.9831  12.6703  12.6703  12.7173  12.7173  12.8515  12.8515
    13.0248  13.0248  13.2787  13.2787  13.4348  13.4348  13.9713  13.9713
    14.9290  14.9290  15.6383  15.6383  16.0245  16.0245  16.1791  16.1791
    16.8865  16.8865  17.6950  17.6950  17.9697

          k = 0.1667 0.3163 0.0000 ( 62040 PWs)   bands (ev):

   -65.9158 -65.9156 -65.9149 -65.9148 -65.9147 -65.9146 -65.9139 -65.9137
   -30.3611 -30.3567 -30.3566 -30.3524 -30.3323 -30.3273 -30.3271 -30.3222
   -30.2648 -30.2637 -30.2579 -30.2572 -30.2474 -30.2454 -30.2433 -30.2419
   -30.1649 -30.1640 -30.1639 -30.1629 -30.1627 -30.1613 -30.1555 -30.1545
   -20.0666 -20.0663 -20.0661 -20.0659 -20.0645 -20.0643 -20.0639 -20.0637
   -20.0580 -20.0577 -20.0577 -20.0576 -20.0573 -20.0573 -20.0572 -20.0569
   -20.0547 -20.0545 -20.0542 -20.0540 -20.0534 -20.0527 -20.0520 -20.0518
   -20.0516 -20.0515 -20.0506 -20.0502 -20.0497 -20.0494 -20.0492 -20.0491
   -20.0367 -20.0367 -20.0364 -20.0364 -20.0361 -20.0360 -20.0357 -20.0357
   -20.0023 -20.0023 -20.0010 -20.0010 -19.9995 -19.9994 -19.9983 -19.9983
   -19.9963 -19.9963 -19.9955 -19.9955 -19.9947 -19.9946 -19.9932 -19.9932
    -9.6948  -9.5434  -9.2996  -9.2035  -9.1623  -9.0460  -8.8652  -8.8563
    -8.7331  -8.5993  -8.5975  -8.5747  -8.1244  -8.0783  -8.0722  -8.0529
    -7.7822  -7.7690  -7.6684  -7.6549  -7.6351  -7.6235  -7.5303  -7.5185
     1.4581   1.4595   1.4628   1.4636   1.7254   1.7352   1.9231   1.9738
     2.4503   2.5679   2.6026   2.6142   2.6571   2.7508   2.9712   3.0295
     3.1026   3.1613   3.6962   3.7236   3.8021   3.8374   4.2052   4.4842
     4.5489   4.5823   4.6491   4.8197   4.8536   4.9323   5.0034   5.0143
     5.1388   5.1465   5.3274   5.4327   5.5028   5.5887   5.6749   5.7255
     5.7873   5.8814   5.8817   5.9284   6.1385   6.1591   6.1848   6.2322
     6.3342   6.4610   6.4991   6.6499   6.7161   6.9198   6.9420   6.9866
     7.0321   7.0439   7.1328   7.1617   7.1759   7.1798   7.2990   7.2991
     7.3384   7.3476   7.8389   7.8675   7.8951   7.9155   7.9214   7.9308
     9.9128   9.9268  10.8058  10.8476  11.0219  11.0264  11.9111  12.0648
    12.1051  12.1817  12.4299  12.4426  12.5269  12.5585  12.9534  13.0116
    13.3861  13.3881  13.5205  13.5614  13.7840  13.7850  13.9363  13.9502
    15.0526  15.3753  15.5436  15.6447  15.6710  15.7963  16.0172  16.1870
    16.3519  16.9807  17.3411  17.4295  17.8597

          k = 0.1667 0.3163 0.1664 ( 62052 PWs)   bands (ev):

   -65.9157 -65.9155 -65.9149 -65.9148 -65.9146 -65.9146 -65.9140 -65.9138
   -30.3609 -30.3570 -30.3564 -30.3527 -30.3319 -30.3275 -30.3268 -30.3226
   -30.2594 -30.2584 -30.2517 -30.2511 -30.2457 -30.2455 -30.2422 -30.2420
   -30.1709 -30.1699 -30.1692 -30.1681 -30.1629 -30.1611 -30.1577 -30.1561
   -20.0665 -20.0663 -20.0661 -20.0659 -20.0644 -20.0643 -20.0639 -20.0637
   -20.0580 -20.0577 -20.0576 -20.0576 -20.0573 -20.0573 -20.0572 -20.0569
   -20.0546 -20.0544 -20.0540 -20.0539 -20.0534 -20.0528 -20.0521 -20.0520
   -20.0515 -20.0515 -20.0507 -20.0503 -20.0497 -20.0494 -20.0492 -20.0492
   -20.0367 -20.0366 -20.0364 -20.0364 -20.0361 -20.0360 -20.0358 -20.0357
   -20.0020 -20.0019 -20.0006 -20.0006 -19.9993 -19.9993 -19.9984 -19.9984
   -19.9967 -19.9967 -19.9958 -19.9958 -19.9946 -19.9946 -19.9933 -19.9933
    -9.6416  -9.4849  -9.2264  -9.2212  -9.0753  -9.0622  -8.8284  -8.8212
    -8.7418  -8.5932  -8.5809  -8.5787  -8.1261  -8.0804  -8.0740  -8.0585
    -7.7852  -7.7799  -7.7615  -7.7577  -7.6730  -7.6607  -7.6300  -7.6186
     1.6333   1.6360   1.7105   1.7172   1.7321   1.7419   1.9843   2.0478
     2.4540   2.5661   2.5867   2.7059   2.7207   2.7776   3.0395   3.0671
     3.1553   3.1922   3.7282   3.7607   3.8052   3.8421   4.1930   4.5095
     4.5405   4.5695   4.5978   4.6639   4.7058   4.8243   4.8401   4.9203
     4.9689   5.0063   5.2289   5.2492   5.4786   5.4894   5.5011   5.5319
     5.7233   5.7431   5.8460   5.8659   5.9087   5.9184   6.3954   6.4438
     6.4949   6.5269   6.6174   6.7026   6.8515   6.8880   6.9213   6.9518
     6.9913   7.0087   7.0706   7.0945   7.1543   7.1728   7.1989   7.2349
     7.4120   7.4388   7.8424   7.8606   7.8768   7.9010   7.9168   7.9253
    10.1475  10.1699  10.9646  10.9921  11.0349  11.0691  11.9986  12.0791
    12.1642  12.1806  12.4454  12.4727  12.4793  12.5052  12.9977  13.0326
    13.2837  13.3632  13.3735  13.5048  13.7312  13.7836  13.7923  13.8745
    15.1938  15.5561  15.5787  15.7079  15.7253  15.8569  16.2937  16.3128
    16.3344  16.9467  17.4073  17.4816  17.5072

          k = 0.1667 0.3163 0.3327 ( 62065 PWs)   bands (ev):

   -65.9155 -65.9153 -65.9150 -65.9148 -65.9146 -65.9144 -65.9142 -65.9139
   -30.3601 -30.3578 -30.3557 -30.3535 -30.3309 -30.3284 -30.3259 -30.3235
   -30.2508 -30.2496 -30.2466 -30.2438 -30.2355 -30.2353 -30.2322 -30.2321
   -30.1887 -30.1878 -30.1858 -30.1846 -30.1622 -30.1604 -30.1597 -30.1578
   -20.0665 -20.0663 -20.0662 -20.0660 -20.0644 -20.0642 -20.0641 -20.0639
   -20.0579 -20.0577 -20.0576 -20.0575 -20.0574 -20.0573 -20.0571 -20.0570
   -20.0543 -20.0540 -20.0537 -20.0536 -20.0535 -20.0531 -20.0525 -20.0524
   -20.0514 -20.0513 -20.0509 -20.0506 -20.0496 -20.0494 -20.0493 -20.0492
   -20.0366 -20.0366 -20.0365 -20.0364 -20.0360 -20.0359 -20.0358 -20.0357
   -20.0010 -20.0010 -19.9997 -19.9997 -19.9991 -19.9991 -19.9988 -19.9987
   -19.9976 -19.9976 -19.9968 -19.9968 -19.9943 -19.9943 -19.9936 -19.9936
    -9.5117  -9.3440  -9.2763  -9.1125  -9.0411  -8.8294  -8.7760  -8.7163
    -8.6947  -8.5929  -8.5622  -8.5091  -8.1761  -8.1456  -8.0779  -8.0740
    -8.0611  -8.0091  -7.9720  -7.9232  -7.7421  -7.7296  -7.6683  -7.6565
     1.7449   1.7573   1.7684   1.7783   2.3053   2.3867   2.3963   2.4739
     2.5681   2.5861   2.6092   2.8070   2.9831   3.0400   3.0680   3.1461
     3.3053   3.4043   3.7525   3.7692   3.7920   3.8793   3.9911   4.0602
     4.1857   4.3833   4.4560   4.4979   4.5189   4.6569   4.6861   4.7802
     4.8141   4.9104   4.9194   4.9591   5.0337   5.1158   5.2456   5.2539
     5.4168   5.4436   5.5391   5.6994   5.8893   5.9244   6.2519   6.2691
     6.6184   6.6907   6.7116   6.8072   6.8834   6.9064   6.9997   7.0459
     7.0781   7.0934   7.1284   7.1535   7.2211   7.2695   7.2970   7.3433
     7.3893   7.4268   7.7947   7.8020   7.8338   7.8576   7.8821   7.9113
    10.7127  10.7459  11.0248  11.0593  11.4480  11.5030  12.0031  12.0690
    12.1285  12.2472  12.3027  12.3724  12.6194  12.7060  12.7602  12.8307
    12.9574  13.1662  13.1999  13.4310  13.4438  13.5272  13.7737  13.8058
    15.4074  15.5472  15.8998  16.0537  16.0871  16.1459  16.2714  16.7680
    16.8220  16.9028  17.1194  17.6201  17.7196

          k = 0.1667 0.3163-0.4991 ( 62074 PWs)   bands (ev):

   -65.9153 -65.9153 -65.9151 -65.9151 -65.9144 -65.9144 -65.9142 -65.9142
   -30.3590 -30.3590 -30.3547 -30.3547 -30.3297 -30.3297 -30.3247 -30.3247
   -30.2482 -30.2482 -30.2456 -30.2456 -30.2127 -30.2127 -30.2120 -30.2120
   -30.2094 -30.2094 -30.2085 -30.2085 -30.1611 -30.1611 -30.1592 -30.1592
   -20.0664 -20.0664 -20.0662 -20.0662 -20.0642 -20.0642 -20.0641 -20.0640
   -20.0578 -20.0577 -20.0575 -20.0575 -20.0574 -20.0574 -20.0570 -20.0570
   -20.0540 -20.0539 -20.0535 -20.0535 -20.0530 -20.0530 -20.0530 -20.0530
   -20.0512 -20.0512 -20.0510 -20.0510 -20.0495 -20.0495 -20.0493 -20.0493
   -20.0366 -20.0365 -20.0365 -20.0365 -20.0359 -20.0359 -20.0358 -20.0358
   -19.9999 -19.9998 -19.9998 -19.9998 -19.9987 -19.9986 -19.9986 -19.9986
   -19.9981 -19.9981 -19.9981 -19.9981 -19.9940 -19.9940 -19.9940 -19.9940
    -9.3743  -9.3743  -9.2043  -9.2043  -8.8618  -8.8618  -8.6215  -8.6214
    -8.4823  -8.4823  -8.4480  -8.4480  -8.3842  -8.3842  -8.3034  -8.3034
    -8.0726  -8.0726  -8.0327  -8.0327  -7.7051  -7.7051  -7.6928  -7.6928
     1.7646   1.7646   1.7779   1.7779   2.4579   2.4580   2.5764   2.5764
     3.0477   3.0478   3.1818   3.1818   3.2190   3.2190   3.3632   3.3632
     3.4123   3.4123   3.5606   3.5606   3.6144   3.6144   3.8013   3.8013
     4.1493   4.1493   4.1730   4.1730   4.2081   4.2081   4.4398   4.4398
     4.8314   4.8314   4.9215   4.9215   5.0824   5.0824   5.1459   5.1459
     5.2514   5.2514   5.6086   5.6087   5.9868   5.9868   6.0026   6.0026
     6.7359   6.7359   6.8401   6.8401   6.9075   6.9075   6.9473   6.9473
     7.1031   7.1031   7.1470   7.1470   7.2545   7.2545   7.6002   7.6002
     7.6296   7.6296   7.6528   7.6528   7.6945   7.6945   7.8885   7.8885
    10.9969  10.9969  11.4324  11.4324  11.5053  11.5053  11.9403  11.9403
    12.1564  12.1564  12.3358  12.3358  12.6720  12.6720  12.7177  12.7177
    12.9444  12.9444  13.0570  13.0571  13.4086  13.4086  13.7746  13.7746
    15.5012  15.5012  16.0851  16.0851  16.4162  16.4162  16.5711  16.5711
    17.0181  17.0181  17.3470  17.3470  17.9208

          k = 0.1667-0.4744 0.0000 ( 62052 PWs)   bands (ev):

   -65.9157 -65.9157 -65.9148 -65.9148 -65.9147 -65.9147 -65.9138 -65.9138
   -30.3466 -30.3466 -30.3419 -30.3419 -30.3417 -30.3417 -30.3373 -30.3373
   -30.2643 -30.2643 -30.2577 -30.2576 -30.2460 -30.2460 -30.2433 -30.2433
   -30.1644 -30.1644 -30.1635 -30.1634 -30.1620 -30.1620 -30.1550 -30.1550
   -20.0655 -20.0655 -20.0653 -20.0653 -20.0650 -20.0649 -20.0648 -20.0648
   -20.0579 -20.0579 -20.0576 -20.0576 -20.0575 -20.0574 -20.0571 -20.0571
   -20.0546 -20.0546 -20.0541 -20.0541 -20.0531 -20.0530 -20.0519 -20.0519
   -20.0516 -20.0516 -20.0504 -20.0504 -20.0496 -20.0496 -20.0492 -20.0492
   -20.0367 -20.0367 -20.0364 -20.0364 -20.0361 -20.0361 -20.0357 -20.0357
   -20.0023 -20.0023 -20.0010 -20.0010 -19.9995 -19.9994 -19.9983 -19.9983
   -19.9963 -19.9963 -19.9955 -19.9955 -19.9947 -19.9946 -19.9932 -19.9932
    -9.6089  -9.6089  -9.2152  -9.2152  -9.1050  -9.1050  -8.8604  -8.8604
    -8.4322  -8.4322  -8.3729  -8.3728  -8.3603  -8.3603  -8.3568  -8.3567
    -7.7764  -7.7764  -7.6619  -7.6619  -7.6295  -7.6295  -7.5245  -7.5245
     1.4590   1.4590   1.4639   1.4639   1.7331   1.7331   1.9631   1.9631
     2.6351   2.6351   3.1664   3.1664   3.2585   3.2585   3.3255   3.3255
     3.3804   3.3804   3.4185   3.4185   3.6062   3.6062   3.6821   3.6821
     3.8080   3.8081   4.5762   4.5762   4.9111   4.9111   5.1316   5.1316
     5.2221   5.2221   5.2994   5.2994   5.4089   5.4089   5.6181   5.6181
     5.8251   5.8251   5.8849   5.8849   6.1771   6.1771   6.2212   6.2212
     6.4672   6.4672   6.4831   6.4831   6.8061   6.8061   6.9840   6.9840
     7.0750   7.0750   7.2782   7.2782   7.2866   7.2866   7.5226   7.5226
     7.5445   7.5445   7.5890   7.5890   7.6141   7.6141   7.8978   7.8978
     9.9223   9.9223  11.3779  11.3779  11.4491  11.4491  11.5673  11.5673
    11.6402  11.6402  12.4383  12.4383  12.5422  12.5422  12.9981  12.9981
    13.5005  13.5005  13.5935  13.5935  13.6920  13.6920  13.7196  13.7196
    15.5502  15.5502  15.6816  15.6816  15.7969  15.7969  16.0838  16.0838
    16.6904  16.6904  17.9155  17.9155  18.0508

          k = 0.1667-0.4744 0.1664 ( 62054 PWs)   bands (ev):

   -65.9156 -65.9156 -65.9148 -65.9147 -65.9147 -65.9147 -65.9139 -65.9139
   -30.3463 -30.3463 -30.3422 -30.3422 -30.3415 -30.3415 -30.3376 -30.3376
   -30.2589 -30.2589 -30.2515 -30.2515 -30.2449 -30.2448 -30.2432 -30.2431
   -30.1704 -30.1704 -30.1686 -30.1686 -30.1621 -30.1620 -30.1569 -30.1569
   -20.0655 -20.0654 -20.0653 -20.0652 -20.0650 -20.0650 -20.0648 -20.0648
   -20.0578 -20.0578 -20.0576 -20.0575 -20.0575 -20.0574 -20.0571 -20.0571
   -20.0545 -20.0545 -20.0539 -20.0539 -20.0531 -20.0531 -20.0520 -20.0520
   -20.0515 -20.0515 -20.0505 -20.0505 -20.0496 -20.0496 -20.0492 -20.0492
   -20.0367 -20.0367 -20.0364 -20.0364 -20.0360 -20.0360 -20.0357 -20.0357
   -20.0020 -20.0019 -20.0006 -20.0006 -19.9993 -19.9993 -19.9984 -19.9984
   -19.9967 -19.9967 -19.9958 -19.9958 -19.9946 -19.9946 -19.9933 -19.9933
    -9.5522  -9.5522  -9.1323  -9.1321  -9.1223  -9.1222  -8.8247  -8.8247
    -8.4395  -8.4391  -8.3694  -8.3687  -8.3622  -8.3617  -8.3558  -8.3548
    -7.7818  -7.7812  -7.7620  -7.7619  -7.6673  -7.6672  -7.6246  -7.6245
     1.6335   1.6355   1.7152   1.7171   1.7393   1.7405   2.0348   2.0361
     2.7279   2.7292   3.1829   3.1839   3.2516   3.2724   3.3211   3.3349
     3.3839   3.4009   3.4302   3.4649   3.6428   3.6516   3.6821   3.6854
     3.8298   3.8337   4.5777   4.6146   4.6244   4.6650   5.0091   5.0275
     5.0986   5.0996   5.1784   5.2108   5.2332   5.2653   5.5448   5.5463
     5.5841   5.5888   5.8446   5.8783   5.8828   5.9064   6.4334   6.4432
[...]
    11.7149  11.7149  11.7149  11.7149  11.8513  11.8513  11.8513  11.8513
    12.1690  12.1690  12.1690  12.1690  12.3853  12.3853  12.3853  12.3853
    13.1385  13.1385  13.1385  13.1385  13.3242  13.3242  13.3242  13.3242
    15.4271  15.4272  15.4272  15.4272  16.8245  16.8245  16.8245  16.8245
    17.7263  17.7264  17.7264  17.7264  17.9677

          k =-0.5000 0.3163 0.0000 ( 62080 PWs)   bands (ev):

   -65.9153 -65.9153 -65.9151 -65.9151 -65.9144 -65.9143 -65.9141 -65.9141
   -30.3589 -30.3589 -30.3545 -30.3545 -30.3295 -30.3295 -30.3246 -30.3246
   -30.2606 -30.2606 -30.2598 -30.2598 -30.2066 -30.2065 -30.2045 -30.2045
   -30.2023 -30.2022 -30.2006 -30.2006 -30.1618 -30.1618 -30.1608 -30.1608
   -20.0665 -20.0665 -20.0660 -20.0660 -20.0644 -20.0644 -20.0638 -20.0638
   -20.0579 -20.0579 -20.0575 -20.0575 -20.0575 -20.0574 -20.0571 -20.0571
   -20.0543 -20.0543 -20.0543 -20.0543 -20.0526 -20.0525 -20.0522 -20.0522
   -20.0507 -20.0507 -20.0505 -20.0505 -20.0500 -20.0500 -20.0498 -20.0497
   -20.0364 -20.0364 -20.0363 -20.0363 -20.0361 -20.0360 -20.0360 -20.0360
   -20.0017 -20.0016 -20.0016 -20.0016 -19.9974 -19.9974 -19.9973 -19.9973
   -19.9963 -19.9962 -19.9962 -19.9962 -19.9953 -19.9952 -19.9952 -19.9952
    -9.4478  -9.4478  -9.2963  -9.2963  -8.8491  -8.8491  -8.6469  -8.6469
    -8.4524  -8.4524  -8.4459  -8.4459  -8.3861  -8.3861  -8.2918  -8.2918
    -8.0692  -8.0692  -8.0275  -8.0275  -7.5957  -7.5957  -7.5834  -7.5834
     1.4925   1.4925   1.4982   1.4982   2.4477   2.4477   2.5913   2.5913
     3.0137   3.0137   3.1272   3.1272   3.1925   3.1926   3.3538   3.3538
     3.3979   3.3979   3.5168   3.5168   3.5910   3.5910   3.7479   3.7479
     4.1132   4.1132   4.1607   4.1607   4.2873   4.2873   4.4665   4.4665
     4.9053   4.9053   4.9849   4.9849   5.2139   5.2139   5.4028   5.4028
     5.5524   5.5524   5.8095   5.8095   6.3414   6.3414   6.3974   6.3974
     6.5643   6.5643   6.6288   6.6288   6.6367   6.6367   6.8350   6.8350
     7.1066   7.1066   7.1426   7.1426   7.1546   7.1546   7.5738   7.5738
     7.5958   7.5958   7.6727   7.6727   7.7048   7.7048   7.9160   7.9160
    10.8296  10.8296  11.3697  11.3697  11.4221  11.4221  11.7881  11.7881
    12.1572  12.1572  12.3092  12.3092  12.6877  12.6877  12.8122  12.8122
    12.9785  12.9785  13.1324  13.1324  13.5457  13.5457  13.9343  13.9343
    15.3001  15.3001  15.8074  15.8074  16.3453  16.3453  16.5798  16.5798
    16.9011  16.9011  17.3113  17.3113  17.9909

          k =-0.5000 0.3163 0.1664 ( 62060 PWs)   bands (ev):

   -65.9153 -65.9153 -65.9151 -65.9150 -65.9144 -65.9144 -65.9142 -65.9142
   -30.3587 -30.3587 -30.3549 -30.3549 -30.3292 -30.3292 -30.3249 -30.3249
   -30.2543 -30.2543 -30.2534 -30.2534 -30.2062 -30.2062 -30.2043 -30.2043
   -30.2024 -30.2024 -30.2011 -30.2010 -30.1681 -30.1681 -30.1673 -30.1672
   -20.0665 -20.0664 -20.0660 -20.0660 -20.0644 -20.0644 -20.0639 -20.0638
   -20.0579 -20.0578 -20.0575 -20.0575 -20.0575 -20.0574 -20.0572 -20.0571
   -20.0542 -20.0542 -20.0541 -20.0541 -20.0527 -20.0526 -20.0523 -20.0523
   -20.0507 -20.0506 -20.0505 -20.0505 -20.0501 -20.0500 -20.0498 -20.0498
   -20.0364 -20.0364 -20.0363 -20.0363 -20.0361 -20.0361 -20.0360 -20.0360
   -20.0013 -20.0013 -20.0013 -20.0013 -19.9973 -19.9973 -19.9973 -19.9973
   -19.9965 -19.9964 -19.9964 -19.9964 -19.9955 -19.9955 -19.9955 -19.9954
    -9.3795  -9.3795  -9.2151  -9.2151  -8.8635  -8.8635  -8.6261  -8.6261
    -8.4713  -8.4713  -8.4401  -8.4401  -8.3721  -8.3721  -8.2957  -8.2957
    -8.0661  -8.0661  -8.0323  -8.0323  -7.7150  -7.7150  -7.7026  -7.7026
     1.7414   1.7414   1.7524   1.7524   2.4523   2.4523   2.5739   2.5739
     3.0799   3.0799   3.1612   3.1612   3.1979   3.1979   3.3706   3.3706
     3.4190   3.4190   3.5811   3.5811   3.6335   3.6335   3.7990   3.7990
     4.1051   4.1051   4.1691   4.1691   4.2827   4.2827   4.4692   4.4692
     4.8162   4.8162   4.8939   4.8939   5.0814   5.0814   5.1473   5.1473
     5.2617   5.2617   5.6047   5.6047   5.9752   5.9752   5.9942   5.9942
     6.7355   6.7355   6.8601   6.8601   6.9201   6.9201   6.9511   6.9511
     7.0835   7.0835   7.1568   7.1568   7.2363   7.2363   7.5815   7.5815
     7.6101   7.6101   7.6843   7.6843   7.7156   7.7156   7.8961   7.8961
    10.9906  10.9906  11.4432  11.4432  11.5014  11.5014  11.8476  11.8476
    12.1713  12.1713  12.3473  12.3474  12.6743  12.6743  12.7778  12.7778
    12.9495  12.9495  13.0903  13.0903  13.3893  13.3893  13.7933  13.7933
    15.5034  15.5034  16.0592  16.0592  16.4125  16.4125  16.5734  16.5734
    16.9603  16.9603  17.3499  17.3499  17.8982

          k =-0.5000 0.3163 0.3327 ( 62054 PWs)   bands (ev):

   -65.9151 -65.9151 -65.9149 -65.9149 -65.9146 -65.9146 -65.9144 -65.9144
   -30.3579 -30.3579 -30.3557 -30.3557 -30.3283 -30.3283 -30.3258 -30.3258
   -30.2372 -30.2372 -30.2361 -30.2361 -30.2056 -30.2056 -30.2052 -30.2052
   -30.2027 -30.2027 -30.2019 -30.2019 -30.1847 -30.1847 -30.1843 -30.1843
   -20.0664 -20.0664 -20.0662 -20.0661 -20.0643 -20.0643 -20.0640 -20.0640
   -20.0578 -20.0577 -20.0575 -20.0575 -20.0574 -20.0574 -20.0572 -20.0572
   -20.0538 -20.0538 -20.0538 -20.0537 -20.0529 -20.0529 -20.0527 -20.0527
   -20.0506 -20.0505 -20.0504 -20.0504 -20.0501 -20.0501 -20.0500 -20.0500
   -20.0363 -20.0363 -20.0362 -20.0362 -20.0361 -20.0361 -20.0361 -20.0360
   -20.0004 -20.0004 -20.0004 -20.0003 -19.9978 -19.9978 -19.9978 -19.9978
   -19.9966 -19.9966 -19.9966 -19.9966 -19.9959 -19.9959 -19.9959 -19.9959
    -9.2061  -9.2061  -8.9933  -8.9933  -8.9133  -8.9133  -8.5641  -8.5641
    -8.5241  -8.5241  -8.4096  -8.4096  -8.3454  -8.3454  -8.3035  -8.3035
    -8.0730  -8.0730  -8.0517  -8.0517  -8.0011  -8.0011  -7.9642  -7.9642
     2.3319   2.3320   2.4258   2.4258   2.4689   2.4689   2.6080   2.6080
     3.1478   3.1478   3.1982   3.1982   3.3011   3.3011   3.3879   3.3880
     3.4707   3.4707   3.7292   3.7292   3.8212   3.8212   3.9255   3.9256
     4.0745   4.0745   4.1914   4.1915   4.2763   4.2763   4.3251   4.3251
     4.4457   4.4457   4.5796   4.5796   4.7354   4.7354   4.9402   4.9402
     5.0396   5.0396   5.1366   5.1366   5.1828   5.1828   5.3952   5.3952
     6.9120   6.9120   6.9696   6.9696   7.0482   7.0482   7.1005   7.1005
     7.2547   7.2547   7.3829   7.3829   7.4659   7.4659   7.5778   7.5778
     7.6284   7.6284   7.7061   7.7061   7.7264   7.7264   7.8432   7.8432
    11.4077  11.4077  11.6729  11.6729  11.7613  11.7613  11.9504  11.9504
    12.2275  12.2275  12.4754  12.4754  12.5135  12.5135  12.5489  12.5489
    12.8758  12.8758  12.9644  12.9644  13.0217  13.0217  13.4240  13.4240
    16.0058  16.0058  16.4626  16.4626  16.6468  16.6468  16.8148  16.8148
    17.1845  17.1845  17.4148  17.4148  17.6808

          k =-0.5000 0.3163-0.4991 ( 62024 PWs)   bands (ev):

   -65.9149 -65.9148 -65.9148 -65.9148 -65.9146 -65.9146 -65.9146 -65.9146
   -30.3569 -30.3569 -30.3569 -30.3569 -30.3271 -30.3270 -30.3270 -30.3270
   -30.2159 -30.2159 -30.2159 -30.2159 -30.2134 -30.2134 -30.2134 -30.2134
   -30.2014 -30.2014 -30.2013 -30.2013 -30.1983 -30.1983 -30.1983 -30.1983
   -20.0663 -20.0663 -20.0663 -20.0663 -20.0642 -20.0641 -20.0641 -20.0641
   -20.0576 -20.0576 -20.0576 -20.0576 -20.0573 -20.0573 -20.0573 -20.0573
   -20.0534 -20.0534 -20.0534 -20.0534 -20.0532 -20.0532 -20.0532 -20.0532
   -20.0504 -20.0504 -20.0504 -20.0504 -20.0502 -20.0502 -20.0502 -20.0502
   -20.0362 -20.0362 -20.0362 -20.0362 -20.0361 -20.0361 -20.0361 -20.0361
   -19.9991 -19.9991 -19.9991 -19.9991 -19.9990 -19.9990 -19.9989 -19.9989
   -19.9964 -19.9964 -19.9964 -19.9964 -19.9962 -19.9962 -19.9962 -19.9962
    -9.0236  -9.0236  -9.0236  -9.0236  -8.7166  -8.7166  -8.7166  -8.7166
    -8.4071  -8.4071  -8.4071  -8.4071  -8.2769  -8.2769  -8.2769  -8.2769
    -8.2540  -8.2540  -8.2540  -8.2540  -8.0374  -8.0374  -8.0374  -8.0374
     2.4673   2.4673   2.4673   2.4673   3.1042   3.1042   3.1042   3.1042
     3.2165   3.2165   3.2165   3.2165   3.3494   3.3494   3.3494   3.3494
     3.4634   3.4634   3.4634   3.4634   4.0037   4.0037   4.0037   4.0037
     4.0965   4.0965   4.0966   4.0966   4.1868   4.1868   4.1869   4.1869
     4.4387   4.4387   4.4387   4.4387   4.5029   4.5029   4.5029   4.5029
     4.8136   4.8136   4.8136   4.8136   5.1369   5.1369   5.1369   5.1369
     6.9717   6.9717   6.9717   6.9717   7.0852   7.0852   7.0852   7.0852
     7.4780   7.4780   7.4780   7.4780   7.5640   7.5640   7.5640   7.5640
     7.6750   7.6750   7.6750   7.6750   7.7729   7.7729   7.7729   7.7729
    11.8697  11.8697  11.8697  11.8697  11.9876  11.9876  11.9876  11.9876
    12.1936  12.1936  12.1936  12.1936  12.4641  12.4641  12.4641  12.4641
    12.8203  12.8203  12.8203  12.8203  13.0286  13.0286  13.0287  13.0287
    16.3495  16.3495  16.3495  16.3495  17.0012  17.0012  17.0012  17.0012
    17.5215  17.5215  17.5215  17.5215  17.9508

          k =-0.5000-0.4744 0.0000 ( 62076 PWs)   bands (ev):

   -65.9152 -65.9152 -65.9152 -65.9152 -65.9143 -65.9142 -65.9142 -65.9142
   -30.3443 -30.3443 -30.3439 -30.3439 -30.3398 -30.3398 -30.3394 -30.3393
   -30.2603 -30.2603 -30.2603 -30.2603 -30.2057 -30.2057 -30.2052 -30.2052
   -30.2018 -30.2018 -30.2013 -30.2013 -30.1613 -30.1613 -30.1613 -30.1613
   -20.0654 -20.0654 -20.0654 -20.0654 -20.0649 -20.0649 -20.0648 -20.0648
   -20.0578 -20.0578 -20.0577 -20.0577 -20.0573 -20.0573 -20.0573 -20.0573
   -20.0543 -20.0543 -20.0543 -20.0543 -20.0524 -20.0524 -20.0523 -20.0523
   -20.0506 -20.0506 -20.0506 -20.0506 -20.0499 -20.0499 -20.0499 -20.0499
   -20.0364 -20.0364 -20.0363 -20.0363 -20.0360 -20.0360 -20.0360 -20.0360
   -20.0017 -20.0016 -20.0016 -20.0016 -19.9974 -19.9974 -19.9974 -19.9973
   -19.9963 -19.9962 -19.9962 -19.9962 -19.9953 -19.9952 -19.9952 -19.9952
    -9.3605  -9.3605  -9.3553  -9.3553  -8.6123  -8.6123  -8.5931  -8.5931
    -8.5124  -8.5124  -8.4964  -8.4964  -8.3183  -8.3183  -8.2802  -8.2802
    -8.2395  -8.2395  -8.2059  -8.2059  -7.5898  -7.5898  -7.5895  -7.5895
     1.4940   1.4940   1.4991   1.4991   3.0375   3.0375   3.1291   3.1291
     3.1931   3.1931   3.2150   3.2151   3.3135   3.3135   3.3204   3.3204
     3.4323   3.4323   3.4629   3.4629   3.5557   3.5558   3.5974   3.5974
     3.6287   3.6287   3.8874   3.8874   4.3629   4.3629   4.4243   4.4243
     4.4489   4.4489   4.5452   4.5452   5.3004   5.3004   5.3383   5.3383
     5.5956   5.5956   5.6395   5.6395   6.3805   6.3805   6.3947   6.3947
     6.6333   6.6333   6.6391   6.6391   6.6911   6.6911   6.7446   6.7446
     7.3294   7.3294   7.3512   7.3512   7.3761   7.3761   7.5124   7.5124
     7.5493   7.5493   7.6099   7.6099   7.6609   7.6609   7.6820   7.6820
    11.3596  11.3596  11.3698  11.3698  11.4382  11.4382  11.4540  11.4540
    12.3596  12.3596  12.4135  12.4135  12.4696  12.4696  12.5274  12.5274
    13.0165  13.0165  13.0257  13.0257  13.6804  13.6804  13.7127  13.7127
    15.6381  15.6381  15.6451  15.6451  16.8549  16.8550  16.9341  16.9342
    17.3869  17.3869  17.4540  17.4541  17.5441

          k =-0.5000-0.4744 0.1664 ( 62004 PWs)   bands (ev):

   -65.9152 -65.9152 -65.9152 -65.9152 -65.9143 -65.9143 -65.9143 -65.9143
   -30.3440 -30.3440 -30.3437 -30.3437 -30.3401 -30.3401 -30.3397 -30.3397
   -30.2540 -30.2540 -30.2539 -30.2539 -30.2054 -30.2054 -30.2049 -30.2049
   -30.2022 -30.2022 -30.2017 -30.2017 -30.1677 -30.1677 -30.1677 -30.1677
   -20.0654 -20.0654 -20.0653 -20.0653 -20.0649 -20.0649 -20.0649 -20.0649
   -20.0577 -20.0577 -20.0577 -20.0577 -20.0574 -20.0574 -20.0573 -20.0573
   -20.0542 -20.0542 -20.0541 -20.0541 -20.0525 -20.0525 -20.0524 -20.0524
   -20.0506 -20.0506 -20.0506 -20.0506 -20.0500 -20.0500 -20.0500 -20.0500
   -20.0363 -20.0363 -20.0363 -20.0363 -20.0360 -20.0360 -20.0360 -20.0360
   -20.0013 -20.0013 -20.0013 -20.0013 -19.9973 -19.9973 -19.9973 -19.9973
   -19.9965 -19.9964 -19.9964 -19.9964 -19.9955 -19.9955 -19.9954 -19.9954
    -9.2840  -9.2840  -9.2783  -9.2782  -8.6318  -8.6318  -8.6126  -8.6125
    -8.4953  -8.4953  -8.4776  -8.4776  -8.3151  -8.3151  -8.2798  -8.2797
    -8.2396  -8.2395  -8.2089  -8.2089  -7.7092  -7.7092  -7.7090  -7.7090
     1.7466   1.7466   1.7530   1.7530   3.0486   3.0486   3.1429   3.1429
     3.1914   3.1914   3.2171   3.2171   3.2976   3.2976   3.3623   3.3623
     3.4437   3.4437   3.5503   3.5503   3.6007   3.6007   3.6322   3.6322
     3.6760   3.6760   3.9115   3.9115   4.3682   4.3682   4.4155   4.4155
     4.4470   4.4470   4.5366   4.5366   4.9820   4.9821   5.1524   5.1524
     5.2550   5.2550   5.4002   5.4002   5.9761   5.9761   5.9957   5.9957
     6.8065   6.8066   6.8706   6.8706   6.9604   6.9604   6.9960   6.9960
     7.3217   7.3217   7.3451   7.3451   7.4205   7.4205   7.4959   7.4959
     7.5431   7.5431   7.6085   7.6085   7.6794   7.6794   7.7026   7.7026
    11.4104  11.4104  11.4605  11.4605  11.5279  11.5279  11.6130  11.6130
    12.3658  12.3658  12.4194  12.4194  12.4654  12.4654  12.5373  12.5373
    12.9258  12.9258  12.9976  12.9976  13.5175  13.5176  13.5724  13.5724
    15.8807  15.8807  15.9056  15.9056  16.9141  16.9141  16.9881  16.9881
    17.3928  17.3928  17.4653  17.4653  17.5398

          k =-0.5000-0.4744 0.3327 ( 61980 PWs)   bands (ev):

   -65.9150 -65.9150 -65.9150 -65.9150 -65.9145 -65.9145 -65.9145 -65.9145
   -30.3432 -30.3432 -30.3429 -30.3429 -30.3409 -30.3409 -30.3405 -30.3405
   -30.2367 -30.2367 -30.2366 -30.2366 -30.2052 -30.2052 -30.2049 -30.2049
   -30.2030 -30.2030 -30.2024 -30.2024 -30.1846 -30.1846 -30.1845 -30.1845
   -20.0653 -20.0653 -20.0653 -20.0653 -20.0651 -20.0651 -20.0650 -20.0650
   -20.0576 -20.0576 -20.0576 -20.0576 -20.0574 -20.0574 -20.0574 -20.0574
   -20.0538 -20.0538 -20.0537 -20.0537 -20.0528 -20.0528 -20.0527 -20.0527
   -20.0505 -20.0505 -20.0505 -20.0505 -20.0501 -20.0501 -20.0501 -20.0501
   -20.0363 -20.0363 -20.0362 -20.0362 -20.0361 -20.0361 -20.0361 -20.0361
   -20.0004 -20.0004 -20.0004 -20.0003 -19.9978 -19.9978 -19.9978 -19.9978
   -19.9966 -19.9966 -19.9966 -19.9966 -19.9959 -19.9959 -19.9959 -19.9959
    -9.0804  -9.0804  -9.0719  -9.0719  -8.6961  -8.6961  -8.6769  -8.6769
    -8.4369  -8.4369  -8.4184  -8.4184  -8.3071  -8.3071  -8.2815  -8.2815
    -8.2368  -8.2368  -8.2168  -8.2168  -7.9944  -7.9944  -7.9933  -7.9933
     2.4101   2.4101   2.4232   2.4232   3.0748   3.0748   3.1319   3.1319
     3.2014   3.2014   3.2327   3.2327   3.3242   3.3242   3.3628   3.3628
     3.5298   3.5298   3.5852   3.5852   3.7139   3.7139   3.7534   3.7534
     3.9078   3.9078   4.0198   4.0198   4.3448   4.3448   4.3594   4.3594
     4.4168   4.4168   4.4874   4.4874   4.5759   4.5759   4.6972   4.6972
     4.7656   4.7656   4.9163   4.9163   5.1813   5.1813   5.2119   5.2119
     7.0533   7.0533   7.1484   7.1484   7.2428   7.2428   7.2820   7.2820
     7.3483   7.3483   7.3868   7.3868   7.4513   7.4513   7.4794   7.4794
     7.5616   7.5616   7.6421   7.6421   7.6961   7.6961   7.7306   7.7306
    11.6383  11.6383  11.6762  11.6762  11.8711  11.8711  11.9669  11.9669
    12.3426  12.3426  12.3938  12.3938  12.4521  12.4521  12.5389  12.5389
    12.6758  12.6758  12.7936  12.7936  13.1052  13.1052  13.1872  13.1872
    16.5680  16.5680  16.6309  16.6309  17.0878  17.0878  17.1393  17.1393
    17.3753  17.3753  17.4775  17.4776  17.5261

          k =-0.5000-0.4744-0.4991 ( 62056 PWs)   bands (ev):

   -65.9148 -65.9147 -65.9147 -65.9147 -65.9147 -65.9147 -65.9147 -65.9147
   -30.3421 -30.3421 -30.3421 -30.3421 -30.3417 -30.3417 -30.3417 -30.3417
   -30.2157 -30.2157 -30.2157 -30.2157 -30.2136 -30.2135 -30.2135 -30.2135
   -30.2010 -30.2010 -30.2010 -30.2010 -30.1988 -30.1988 -30.1988 -30.1988
   -20.0652 -20.0652 -20.0652 -20.0652 -20.0652 -20.0652 -20.0651 -20.0651
   -20.0575 -20.0575 -20.0575 -20.0575 -20.0575 -20.0575 -20.0574 -20.0574
   -20.0533 -20.0533 -20.0533 -20.0533 -20.0532 -20.0532 -20.0532 -20.0532
   -20.0505 -20.0504 -20.0504 -20.0504 -20.0502 -20.0502 -20.0502 -20.0502
   -20.0362 -20.0362 -20.0362 -20.0362 -20.0361 -20.0361 -20.0361 -20.0361
   -19.9991 -19.9991 -19.9991 -19.9991 -19.9990 -19.9990 -19.9989 -19.9989
   -19.9964 -19.9964 -19.9964 -19.9964 -19.9962 -19.9962 -19.9962 -19.9962
    -8.8441  -8.8441  -8.8441  -8.8441  -8.8282  -8.8282  -8.8282  -8.8282
    -8.3187  -8.3187  -8.3187  -8.3187  -8.2890  -8.2890  -8.2890  -8.2890
    -8.2418  -8.2418  -8.2418  -8.2418  -8.2245  -8.2245  -8.2245  -8.2244
     3.0486   3.0486   3.0486   3.0486   3.1135   3.1135   3.1135   3.1135
     3.2591   3.2591   3.2591   3.2591   3.3471   3.3471   3.3471   3.3471
     3.4816   3.4816   3.4816   3.4816   3.6141   3.6141   3.6141   3.6141
     4.2521   4.2521   4.2521   4.2521   4.2626   4.2627   4.2627   4.2627
     4.4539   4.4539   4.4539   4.4540   4.4951   4.4951   4.4951   4.4951
     4.5734   4.5734   4.5734   4.5734   4.6161   4.6161   4.6161   4.6161
     7.1874   7.1874   7.1874   7.1874   7.3399   7.3399   7.3399   7.3399
     7.4069   7.4069   7.4069   7.4069   7.4483   7.4483   7.4484   7.4484
     7.6675   7.6675   7.6675   7.6675   7.7151   7.7151   7.7151   7.7151
    11.9992  11.9992  11.9993  11.9993  12.0146  12.0146  12.0146  12.0146
    12.3473  12.3473  12.3473  12.3473  12.4882  12.4882  12.4882  12.4882
    12.6681  12.6681  12.6681  12.6681  12.7374  12.7374  12.7374  12.7374
    17.1652  17.1652  17.1652  17.1652  17.2421  17.2421  17.2421  17.2422
    17.4730  17.4732  17.4733  17.4733  17.5042

     the Fermi energy is    10.1618 ev

!    total energy              =   -6260.50201361 Ry
     Harris-Foulkes estimate   =   -6260.50201361 Ry
     estimated scf accuracy    <          7.5E-10 Ry

     The total energy is the sum of the following terms:

     one-electron contribution =   -4706.40315418 Ry
     hartree contribution      =    2593.23352516 Ry
     xc contribution           =    -966.59784783 Ry
     ewald contribution        =   -3180.73448895 Ry
     smearing contrib. (-TS)   =      -0.00004782 Ry

     convergence has been achieved in  13 iterations

     Writing output data file Landau_19.save
 
     init_run     :     15.42s CPU     16.35s WALL (       1 calls)
     electrons    :    673.84s CPU    692.26s WALL (       1 calls)

     Called by init_run:
     wfcinit      :     12.66s CPU     13.59s WALL (       1 calls)
     potinit      :      1.09s CPU      1.09s WALL (       1 calls)

     Called by electrons:
     c_bands      :    584.05s CPU    600.88s WALL (      13 calls)
     sum_band     :     82.68s CPU     83.57s WALL (      13 calls)
     v_of_rho     :      1.16s CPU      1.19s WALL (      14 calls)
     mix_rho      :      1.75s CPU      2.15s WALL (      13 calls)

     Called by c_bands:
     init_us_2    :      3.33s CPU      4.16s WALL (      27 calls)
     cegterg      :    391.10s CPU    407.26s WALL (      13 calls)

     Called by sum_band:

     Called by *egterg:
     h_psi        :    316.98s CPU    319.04s WALL (      55 calls)
     g_psi        :      0.67s CPU      0.68s WALL (      41 calls)
     cdiaghg      :      5.41s CPU      5.48s WALL (      54 calls)

     Called by h_psi:
     h_psi:pot    :    314.96s CPU    316.86s WALL (      55 calls)
     h_psi:calbec :     31.08s CPU     31.92s WALL (      55 calls)
     vloc_psi     :    250.13s CPU    250.94s WALL (      55 calls)
     add_vuspsi   :     33.74s CPU     34.00s WALL (      55 calls)

     General routines
     calbec       :     31.08s CPU     31.92s WALL (      55 calls)
     fft          :      0.84s CPU      0.84s WALL (      56 calls)
     fftw         :    258.81s CPU    259.51s WALL (   17019 calls)
 
     Parallel routines
 
     PWSCF        : 11m34.02s CPU    11m56.77s WALL

 
   This run was terminated on:  21: 7:34  28Aug2019            

=------------------------------------------------------------------------------=
   JOB DONE.
=------------------------------------------------------------------------------=
