
     Program PWSCF v.6.2 (svn rev. 14038) starts on 26Mar2020 at  1:33:17 

     This program is part of the open-source Quantum ESPRESSO suite
     for quantum simulation of materials; please cite
         "P. Giannozzi et al., J. Phys.:Condens. Matter 21 395502 (2009);
         "P. Giannozzi et al., J. Phys.:Condens. Matter 29 465901 (2017);
          URL http://www.quantum-espresso.org", 
     in publications or presentations arising from this work. More details at
     http://www.quantum-espresso.org/quote

     Parallel version (MPI), running on    40 processors

     MPI processes distributed on     9 nodes
     K-points division:     npool     =      40
     Reading input from scf.in

     Current dimensions of program PWSCF are:
     Max number of different atomic species (ntypx) = 10
     Max number of k-points (npk) =  40000
     Max angular momentum in pseudopotentials (lmaxx) =  3

     Subspace diagonalization in iterative solution of the eigenvalue problem:
     a serial algorithm will be used

 
     G-vector sticks info
     --------------------
     sticks:   dense  smooth     PW     G-vecs:    dense   smooth      PW
     Sum        7765    7765   2083               506561   506561   70229
 


     bravais-lattice index     =            0
     lattice parameter (alat)  =      14.0379  a.u.
     unit-cell volume          =    2851.8595 (a.u.)^3
     number of atoms/cell      =           32
     number of atomic types    =            2
     number of electrons       =       369.00
     number of Kohn-Sham states=          222
     kinetic-energy cutoff     =     120.0000  Ry
     charge density cutoff     =     480.0000  Ry
     convergence threshold     =      1.0E-08
     mixing beta               =       0.7000
     number of iterations used =            8  plain     mixing
     Exchange-correlation      = SLA PW NOGX NOGC ( 1  4  0  0 0 0)

     celldm(1)=  14.037932  celldm(2)=   0.000000  celldm(3)=   0.000000
     celldm(4)=   0.000000  celldm(5)=   0.000000  celldm(6)=   0.000000

     crystal axes: (cart. coord. in units of alat)
               a(1) = (   1.000000   0.000000   0.000000 )  
               a(2) = (   0.000000   1.030230   0.000000 )  
               a(3) = (   0.000000   0.000000   1.000656 )  

     reciprocal axes: (cart. coord. in units 2 pi/alat)
               b(1) = (  1.000000  0.000000  0.000000 )  
               b(2) = (  0.000000  0.970657  0.000000 )  
               b(3) = (  0.000000  0.000000  0.999345 )  


     PseudoPot. # 1 for W  read from file:
     /cluster/scratch/mnoe/QE/pps/W_ONCV_LDA-4.0.upf
     MD5 check sum: ba0307d5d4cd419d6f1d13dc49d7c13a
     Pseudo is Norm-conserving + core correction, Zval = 28.0
     Generated using ONCVPSP code by D. R. Hamann
     Using radial grid of 1380 points,  8 beta functions with: 
                l(1) =   0
                l(2) =   0
                l(3) =   1
                l(4) =   1
                l(5) =   2
                l(6) =   2
                l(7) =   3
                l(8) =   3

     PseudoPot. # 2 for O  read from file:
     /cluster/scratch/mnoe/QE/pps/O_ONCV_LDA-3.0.upf
     MD5 check sum: a1bd6164e7280c17a38c229939bfbd54
     Pseudo is Norm-conserving + core correction, Zval =  6.0
     Generated using ONCVPSP code by D. R. Hamann
     Using radial grid of  926 points,  5 beta functions with: 
                l(1) =   0
                l(2) =   0
                l(3) =   1
                l(4) =   1
                l(5) =   2

     atomic species   valence    mass     pseudopotential
        W             28.00   183.84000     W ( 1.00)
        O              6.00    15.99940     O ( 1.00)

      4 Sym. Ops. (no inversion) found ( 3 have fractional translation)



   Cartesian axes

     site n.     atom                  positions (alat units)
         1           W   tau(   1) = (   0.2422904   0.2831947   0.0043335  )
         2           W   tau(   2) = (   0.7547646   0.7470350  -0.0074541  )
         3           W   tau(   3) = (   0.2577096   0.2319202   0.5046613  )
         4           W   tau(   4) = (   0.7452353   0.7983096   0.4928738  )
         5           W   tau(   5) = (   0.7577096   0.2831947   0.4959944  )
         6           W   tau(   6) = (   0.2452353   0.7470350   0.5077820  )
         7           W   tau(   7) = (   0.7422903   0.2319202  -0.0043335  )
         8           W   tau(   8) = (   0.2547647   0.7983096   0.0074541  )
         9           O   tau(   9) = (   0.2380356   0.0066139  -0.0010467  )
        10           O   tau(  10) = (   0.7610490  -0.0066139  -0.0047105  )
        11           O   tau(  11) = (   0.2619644   0.5085010   0.4992812  )
        12           O   tau(  12) = (   0.7389509   0.5217287   0.4956174  )
        13           O   tau(  13) = (   0.7619644   0.0066139   0.5013746  )
        14           O   tau(  14) = (   0.2389509  -0.0066139   0.5050383  )
        15           O   tau(  15) = (   0.7380356   0.5085010   0.0010467  )
        16           O   tau(  16) = (   0.2610491   0.5217287   0.0047105  )
        17           O   tau(  17) = (   0.5023524   0.2447338   0.4669013  )
        18           O   tau(  18) = (   0.4989405   0.7841691   0.5337545  )
        19           O   tau(  19) = (  -0.0023524   0.2703811   0.9672292  )
        20           O   tau(  20) = (   0.0010595   0.7611755   0.0334265  )
        21           O   tau(  21) = (   0.4976476   0.2447338   0.0334265  )
        22           O   tau(  22) = (   0.5010595   0.7841691   0.9672292  )
        23           O   tau(  23) = (   0.0023524   0.2703811   0.5337545  )
        24           O   tau(  24) = (  -0.0010595   0.7611755   0.4669013  )
        25           O   tau(  25) = (   0.7165953   0.2579438   0.7483310  )
        26           O   tau(  26) = (   0.2834046   0.7783660   0.2531783  )
        27           O   tau(  27) = (   0.7834048   0.2571710   0.2480031  )
        28           O   tau(  28) = (   0.2165953   0.7669786   0.7535061  )
        29           O   tau(  29) = (   0.2834046   0.2579438   0.7526526  )
        30           O   tau(  30) = (   0.7165953   0.7783660   0.2471496  )
        31           O   tau(  31) = (   0.2165953   0.2571710   0.2523248  )
        32           O   tau(  32) = (   0.7834048   0.7669786   0.7474774  )

     number of k points=    64  gaussian smearing, width (Ry)=  0.0007
                       cart. coord. in units 2pi/alat
        k(    1) = (   0.0000000   0.0000000   0.0000000), wk =   0.0092593
        k(    2) = (   0.0000000   0.0000000   0.1665574), wk =   0.0185185
        k(    3) = (   0.0000000   0.0000000   0.3331149), wk =   0.0185185
        k(    4) = (   0.0000000   0.0000000  -0.4996723), wk =   0.0092593
        k(    5) = (   0.0000000   0.1617762   0.0000000), wk =   0.0185185
        k(    6) = (   0.0000000   0.1617762   0.1665574), wk =   0.0370370
        k(    7) = (   0.0000000   0.1617762   0.3331149), wk =   0.0370370
        k(    8) = (   0.0000000   0.1617762  -0.4996723), wk =   0.0185185
        k(    9) = (   0.0000000   0.3235524   0.0000000), wk =   0.0185185
        k(   10) = (   0.0000000   0.3235524   0.1665574), wk =   0.0370370
        k(   11) = (   0.0000000   0.3235524   0.3331149), wk =   0.0370370
        k(   12) = (   0.0000000   0.3235524  -0.4996723), wk =   0.0185185
        k(   13) = (   0.0000000  -0.4853287   0.0000000), wk =   0.0092593
        k(   14) = (   0.0000000  -0.4853287   0.1665574), wk =   0.0185185
        k(   15) = (   0.0000000  -0.4853287   0.3331149), wk =   0.0185185
        k(   16) = (   0.0000000  -0.4853287  -0.4996723), wk =   0.0092593
        k(   17) = (   0.1666667   0.0000000   0.0000000), wk =   0.0185185
        k(   18) = (   0.1666667   0.0000000   0.1665574), wk =   0.0370370
        k(   19) = (   0.1666667   0.0000000   0.3331149), wk =   0.0370370
        k(   20) = (   0.1666667   0.0000000  -0.4996723), wk =   0.0185185
        k(   21) = (   0.1666667   0.1617762   0.0000000), wk =   0.0370370
        k(   22) = (   0.1666667   0.1617762   0.1665574), wk =   0.0740741
        k(   23) = (   0.1666667   0.1617762   0.3331149), wk =   0.0740741
        k(   24) = (   0.1666667   0.1617762  -0.4996723), wk =   0.0370370
        k(   25) = (   0.1666667   0.3235524   0.0000000), wk =   0.0370370
        k(   26) = (   0.1666667   0.3235524   0.1665574), wk =   0.0740741
        k(   27) = (   0.1666667   0.3235524   0.3331149), wk =   0.0740741
        k(   28) = (   0.1666667   0.3235524  -0.4996723), wk =   0.0370370
        k(   29) = (   0.1666667  -0.4853287   0.0000000), wk =   0.0185185
        k(   30) = (   0.1666667  -0.4853287   0.1665574), wk =   0.0370370
        k(   31) = (   0.1666667  -0.4853287   0.3331149), wk =   0.0370370
        k(   32) = (   0.1666667  -0.4853287  -0.4996723), wk =   0.0185185
        k(   33) = (   0.3333333   0.0000000   0.0000000), wk =   0.0185185
        k(   34) = (   0.3333333   0.0000000   0.1665574), wk =   0.0370370
        k(   35) = (   0.3333333   0.0000000   0.3331149), wk =   0.0370370
        k(   36) = (   0.3333333   0.0000000  -0.4996723), wk =   0.0185185
        k(   37) = (   0.3333333   0.1617762   0.0000000), wk =   0.0370370
        k(   38) = (   0.3333333   0.1617762   0.1665574), wk =   0.0740741
        k(   39) = (   0.3333333   0.1617762   0.3331149), wk =   0.0740741
        k(   40) = (   0.3333333   0.1617762  -0.4996723), wk =   0.0370370
        k(   41) = (   0.3333333   0.3235524   0.0000000), wk =   0.0370370
        k(   42) = (   0.3333333   0.3235524   0.1665574), wk =   0.0740741
        k(   43) = (   0.3333333   0.3235524   0.3331149), wk =   0.0740741
        k(   44) = (   0.3333333   0.3235524  -0.4996723), wk =   0.0370370
        k(   45) = (   0.3333333  -0.4853287   0.0000000), wk =   0.0185185
        k(   46) = (   0.3333333  -0.4853287   0.1665574), wk =   0.0370370
        k(   47) = (   0.3333333  -0.4853287   0.3331149), wk =   0.0370370
        k(   48) = (   0.3333333  -0.4853287  -0.4996723), wk =   0.0185185
        k(   49) = (  -0.5000000   0.0000000   0.0000000), wk =   0.0092593
        k(   50) = (  -0.5000000   0.0000000   0.1665574), wk =   0.0185185
        k(   51) = (  -0.5000000   0.0000000   0.3331149), wk =   0.0185185
        k(   52) = (  -0.5000000   0.0000000  -0.4996723), wk =   0.0092593
        k(   53) = (  -0.5000000   0.1617762   0.0000000), wk =   0.0185185
        k(   54) = (  -0.5000000   0.1617762   0.1665574), wk =   0.0370370
        k(   55) = (  -0.5000000   0.1617762   0.3331149), wk =   0.0370370
        k(   56) = (  -0.5000000   0.1617762  -0.4996723), wk =   0.0185185
        k(   57) = (  -0.5000000   0.3235524   0.0000000), wk =   0.0185185
        k(   58) = (  -0.5000000   0.3235524   0.1665574), wk =   0.0370370
        k(   59) = (  -0.5000000   0.3235524   0.3331149), wk =   0.0370370
        k(   60) = (  -0.5000000   0.3235524  -0.4996723), wk =   0.0185185
        k(   61) = (  -0.5000000  -0.4853287   0.0000000), wk =   0.0092593
        k(   62) = (  -0.5000000  -0.4853287   0.1665574), wk =   0.0185185
        k(   63) = (  -0.5000000  -0.4853287   0.3331149), wk =   0.0185185
        k(   64) = (  -0.5000000  -0.4853287  -0.4996723), wk =   0.0092593

     Dense  grid:   506561 G-vectors     FFT dimensions: ( 100, 108, 100)

     Estimated max dynamical RAM per process >       3.19 GB

     Estimated total dynamical RAM >     127.53 GB

     Initial potential from superposition of free atoms

     starting charge  367.99656, renormalised to  369.00000
     Starting wfc are  232 randomized atomic wfcs

     total cpu time spent up to now is       49.0 secs

     Self-consistent Calculation

     iteration #  1     ecut=   120.00 Ry     beta= 0.70
     Davidson diagonalization with overlap
     ethr =  1.00E-02,  avg # of iterations =  5.7

     total cpu time spent up to now is      213.1 secs

     total energy              =   -6253.07046944 Ry
     Harris-Foulkes estimate   =   -6264.11464910 Ry
     estimated scf accuracy    <      13.86408146 Ry

     iteration #  2     ecut=   120.00 Ry     beta= 0.70
     Davidson diagonalization with overlap
     ethr =  3.76E-03,  avg # of iterations =  3.8

     total cpu time spent up to now is      374.2 secs

     total energy              =   -6250.10906221 Ry
     Harris-Foulkes estimate   =   -6269.99992987 Ry
     estimated scf accuracy    <      52.52398069 Ry

     iteration #  3     ecut=   120.00 Ry     beta= 0.70
     Davidson diagonalization with overlap
     ethr =  3.76E-03,  avg # of iterations =  3.6

     total cpu time spent up to now is      523.4 secs

     total energy              =   -6260.41328318 Ry
     Harris-Foulkes estimate   =   -6260.67302643 Ry
     estimated scf accuracy    <       0.89579138 Ry

     iteration #  4     ecut=   120.00 Ry     beta= 0.70
     Davidson diagonalization with overlap
     ethr =  2.43E-04,  avg # of iterations =  4.0

     total cpu time spent up to now is      656.6 secs

     total energy              =   -6260.38027382 Ry
     Harris-Foulkes estimate   =   -6260.46890665 Ry
     estimated scf accuracy    <       0.23711674 Ry

     iteration #  5     ecut=   120.00 Ry     beta= 0.70
     Davidson diagonalization with overlap
     ethr =  6.43E-05,  avg # of iterations =  4.9

     total cpu time spent up to now is      795.7 secs

     total energy              =   -6260.39285896 Ry
     Harris-Foulkes estimate   =   -6260.43551773 Ry
     estimated scf accuracy    <       0.12872039 Ry

     iteration #  6     ecut=   120.00 Ry     beta= 0.70
     Davidson diagonalization with overlap
     ethr =  3.49E-05,  avg # of iterations =  5.7

     total cpu time spent up to now is      936.0 secs

     total energy              =   -6260.41093413 Ry
     Harris-Foulkes estimate   =   -6260.41871456 Ry
     estimated scf accuracy    <       0.03058545 Ry

     iteration #  7     ecut=   120.00 Ry     beta= 0.70
     Davidson diagonalization with overlap
     ethr =  8.29E-06,  avg # of iterations =  4.6

     total cpu time spent up to now is     1073.2 secs

     total energy              =   -6260.41370671 Ry
     Harris-Foulkes estimate   =   -6260.41569735 Ry
     estimated scf accuracy    <       0.01176116 Ry

     iteration #  8     ecut=   120.00 Ry     beta= 0.70
     Davidson diagonalization with overlap
     ethr =  3.19E-06,  avg # of iterations =  2.2

     total cpu time spent up to now is     1203.0 secs

     total energy              =   -6260.41329896 Ry
     Harris-Foulkes estimate   =   -6260.41410976 Ry
     estimated scf accuracy    <       0.00291514 Ry

     iteration #  9     ecut=   120.00 Ry     beta= 0.70
     Davidson diagonalization with overlap
     ethr =  7.90E-07,  avg # of iterations =  4.5

     total cpu time spent up to now is     1326.0 secs

     total energy              =   -6260.41349822 Ry
     Harris-Foulkes estimate   =   -6260.41360561 Ry
     estimated scf accuracy    <       0.00020678 Ry

     iteration # 10     ecut=   120.00 Ry     beta= 0.70
     Davidson diagonalization with overlap
     ethr =  5.60E-08,  avg # of iterations =  3.2

     total cpu time spent up to now is     1462.1 secs

     total energy              =   -6260.41353136 Ry
     Harris-Foulkes estimate   =   -6260.41358058 Ry
     estimated scf accuracy    <       0.00022936 Ry

     iteration # 11     ecut=   120.00 Ry     beta= 0.70
     Davidson diagonalization with overlap
     ethr =  5.60E-08,  avg # of iterations =  1.7

     total cpu time spent up to now is     1577.1 secs

     total energy              =   -6260.41355395 Ry
     Harris-Foulkes estimate   =   -6260.41356826 Ry
     estimated scf accuracy    <       0.00016671 Ry

     iteration # 12     ecut=   120.00 Ry     beta= 0.70
     Davidson diagonalization with overlap
     ethr =  4.52E-08,  avg # of iterations =  1.0

     total cpu time spent up to now is     1692.5 secs

     total energy              =   -6260.41356029 Ry
     Harris-Foulkes estimate   =   -6260.41356052 Ry
     estimated scf accuracy    <       0.00000098 Ry

     iteration # 13     ecut=   120.00 Ry     beta= 0.70
     Davidson diagonalization with overlap
     ethr =  2.66E-10,  avg # of iterations =  3.2

     total cpu time spent up to now is     1832.5 secs

     total energy              =   -6260.41356045 Ry
     Harris-Foulkes estimate   =   -6260.41356052 Ry
     estimated scf accuracy    <       0.00000049 Ry

     iteration # 14     ecut=   120.00 Ry     beta= 0.70
     Davidson diagonalization with overlap
     ethr =  1.32E-10,  avg # of iterations =  1.4

     total cpu time spent up to now is     1948.4 secs

     total energy              =   -6260.41356045 Ry
     Harris-Foulkes estimate   =   -6260.41356048 Ry
     estimated scf accuracy    <       0.00000019 Ry

     iteration # 15     ecut=   120.00 Ry     beta= 0.70
     Davidson diagonalization with overlap
     ethr =  5.09E-11,  avg # of iterations =  1.0

     total cpu time spent up to now is     2060.1 secs

     total energy              =   -6260.41356047 Ry
     Harris-Foulkes estimate   =   -6260.41356047 Ry
     estimated scf accuracy    <       0.00000005 Ry

     iteration # 16     ecut=   120.00 Ry     beta= 0.70
     Davidson diagonalization with overlap
     ethr =  1.31E-11,  avg # of iterations =  1.0

     total cpu time spent up to now is     2169.6 secs

     End of self-consistent calculation

          k = 0.0000 0.0000 0.0000 ( 63291 PWs)   bands (ev):

   -66.2459 -66.2454 -66.2451 -66.2451 -66.2446 -66.2445 -66.2443 -66.2438
   -30.6761 -30.6717 -30.6714 -30.6672 -30.6130 -30.6067 -30.6056 -30.5988
   -30.5915 -30.5879 -30.5832 -30.5831 -30.5817 -30.5777 -30.5762 -30.5741
   -30.4991 -30.4974 -30.4956 -30.4941 -30.4907 -30.4893 -30.4861 -30.4846
   -20.3963 -20.3959 -20.3958 -20.3954 -20.3930 -20.3929 -20.3926 -20.3926
   -20.3921 -20.3920 -20.3918 -20.3917 -20.3898 -20.3894 -20.3890 -20.3885
   -20.3868 -20.3864 -20.3863 -20.3862 -20.3857 -20.3848 -20.3845 -20.3844
   -20.3835 -20.3833 -20.3831 -20.3826 -20.3818 -20.3814 -20.3814 -20.3812
   -20.3737 -20.3735 -20.3730 -20.3729 -20.3728 -20.3727 -20.3722 -20.3720
   -20.3423 -20.3419 -20.3409 -20.3408 -20.3407 -20.3401 -20.3396 -20.3394
   -20.3370 -20.3364 -20.3360 -20.3359 -20.3355 -20.3351 -20.3342 -20.3342
   -10.1310  -9.8154  -9.7579  -9.7570  -9.4507  -9.4451  -9.3929  -9.2172
    -9.1982  -9.1604  -9.1334  -9.1318  -8.0358  -7.9789  -7.9747  -7.9258
    -7.9184  -7.9157  -7.8814  -7.8767  -7.8320  -7.8311  -7.7969  -7.7968
     0.9744   0.9807   1.0301   1.0358   1.0598   1.0846   1.0985   1.2420
     1.3141   1.3246   1.3390   1.5548   2.3095   2.3520   2.3626   2.4077
     2.4783   2.4895   4.0856   4.1031   4.2475   4.2760   4.5245   4.5280
     4.5367   4.5600   4.5735   4.5779   4.6790   4.6813   4.9254   5.1903
     5.2100   5.3112   5.3258   5.3675   5.3949   5.4048   5.4072   5.5715
     5.5757   5.6197   5.7176   5.7390   5.8015   5.9390   5.9417   5.9720
     5.9881   6.1852   6.1964   6.2189   6.2203   6.5996   6.6814   6.7016
     6.7430   6.7572   6.8307   6.8767   6.8884   6.9012   7.0635   7.0750
     7.0913   7.1025   7.8883   7.8986   7.9014   7.9323   7.9539   7.9842
     9.0563   9.0853   9.4858   9.4937   9.5106   9.5190  12.2008  12.2284
    12.3119  12.3149  12.3523  12.3590  12.3770  12.3974  12.7277  12.8371
    12.9779  12.9977  13.1899  13.2745  13.7019  13.8118  13.9503  13.9521
    14.1333  14.2512  14.3685  14.5273  14.9629  14.9754  15.4659  15.8068
    15.8299  16.7825  16.8660  16.9154  16.9371  17.2224

          k = 0.0000 0.0000 0.1666 ( 63245 PWs)   bands (ev):

   -66.2458 -66.2453 -66.2451 -66.2450 -66.2446 -66.2445 -66.2443 -66.2438
   -30.6758 -30.6721 -30.6712 -30.6675 -30.6122 -30.6070 -30.6047 -30.5991
   -30.5890 -30.5848 -30.5834 -30.5785 -30.5768 -30.5744 -30.5740 -30.5713
   -30.5052 -30.5014 -30.4974 -30.4971 -30.4956 -30.4904 -30.4890 -30.4852
   -20.3963 -20.3959 -20.3958 -20.3954 -20.3930 -20.3929 -20.3927 -20.3926
   -20.3921 -20.3920 -20.3918 -20.3917 -20.3898 -20.3894 -20.3890 -20.3885
   -20.3867 -20.3862 -20.3862 -20.3861 -20.3855 -20.3847 -20.3844 -20.3844
   -20.3836 -20.3835 -20.3833 -20.3825 -20.3821 -20.3815 -20.3814 -20.3812
   -20.3737 -20.3735 -20.3730 -20.3729 -20.3728 -20.3726 -20.3722 -20.3720
   -20.3420 -20.3417 -20.3408 -20.3407 -20.3404 -20.3398 -20.3397 -20.3395
   -20.3374 -20.3368 -20.3359 -20.3358 -20.3357 -20.3354 -20.3344 -20.3343
   -10.0884  -9.7708  -9.7631  -9.7023  -9.4548  -9.4005  -9.3608  -9.1858
    -9.1581  -9.1389  -9.1347  -9.0962  -8.0519  -8.0349  -8.0115  -7.9824
    -7.9733  -7.9599  -7.9294  -7.9289  -7.9085  -7.8734  -7.8367  -7.8023
     1.0309   1.0353   1.0655   1.1012   1.1521   1.1537   1.2384   1.3224
     1.3521   1.4626   1.5228   1.6872   2.3611   2.3938   2.4461   2.4701
     2.4934   2.5735   3.9978   4.0933   4.1634   4.2506   4.2615   4.2783
     4.3205   4.4759   4.5231   4.6071   4.6130   4.6908   4.9122   5.0337
     5.1492   5.1860   5.2852   5.3314   5.3816   5.4209   5.4283   5.4453
     5.5217   5.6305   5.6793   5.7358   5.8114   5.8140   5.9455   6.0313
     6.1603   6.2090   6.3044   6.3727   6.5200   6.5449   6.5850   6.6381
     6.6505   6.7432   6.7518   6.7703   6.8484   6.8727   6.8839   6.8992
     6.9175   6.9485   7.8520   7.8566   7.8909   7.9227   7.9319   7.9566
     9.4006   9.4286   9.4863   9.5297   9.7919   9.8138  12.1546  12.1983
    12.2336  12.2612  12.3626  12.3902  12.3974  12.4688  12.6412  12.7436
    12.7988  12.9823  13.2430  13.2846  13.7549  13.8107  13.8183  13.8258
    14.1756  14.3653  14.4142  14.6396  15.0411  15.0773  15.4344  15.8033
    16.1759  16.5859  16.9548  16.9616  17.1087  17.2685

          k = 0.0000 0.0000 0.3331 ( 63297 PWs)   bands (ev):

   -66.2457 -66.2453 -66.2452 -66.2449 -66.2448 -66.2445 -66.2444 -66.2440
   -30.6751 -30.6729 -30.6705 -30.6683 -30.6107 -30.6079 -30.6030 -30.6000
   -30.5871 -30.5844 -30.5790 -30.5754 -30.5659 -30.5621 -30.5591 -30.5549
   -30.5219 -30.5178 -30.5139 -30.5099 -30.4963 -30.4938 -30.4882 -30.4861
   -20.3962 -20.3959 -20.3958 -20.3955 -20.3929 -20.3928 -20.3927 -20.3926
   -20.3921 -20.3921 -20.3918 -20.3917 -20.3897 -20.3895 -20.3889 -20.3887
   -20.3865 -20.3863 -20.3856 -20.3856 -20.3849 -20.3845 -20.3844 -20.3841
   -20.3841 -20.3839 -20.3837 -20.3826 -20.3824 -20.3818 -20.3814 -20.3813
   -20.3735 -20.3733 -20.3731 -20.3730 -20.3727 -20.3725 -20.3723 -20.3722
   -20.3412 -20.3411 -20.3405 -20.3402 -20.3400 -20.3398 -20.3395 -20.3389
   -20.3384 -20.3378 -20.3369 -20.3363 -20.3355 -20.3355 -20.3347 -20.3347
    -9.9876  -9.8115  -9.6467  -9.5810  -9.4858  -9.4261  -9.1647  -9.1424
    -9.1045  -9.0101  -8.9907  -8.9557  -8.3584  -8.3380  -8.3032  -8.2857
    -8.0147  -7.9916  -7.9594  -7.9373  -7.8940  -7.8583  -7.8520  -7.8173
     1.0347   1.0357   1.1085   1.1144   1.2083   1.2302   1.2793   1.3178
     2.0732   2.1304   2.2096   2.2931   2.3828   2.4527   2.6379   2.6843
     2.7449   2.8072   3.5765   3.6490   3.6887   3.8305   3.8965   4.1468
     4.2281   4.3237   4.3632   4.4918   4.4973   4.5819   4.7272   4.8575
     4.8593   4.8617   4.9191   5.1300   5.1714   5.2867   5.4860   5.5447
     5.5732   5.6375   5.6759   5.7089   5.8481   5.9814   6.0113   6.1005
     6.1389   6.1729   6.1960   6.2900   6.3510   6.3746   6.3829   6.5978
     6.6174   6.7443   6.7473   6.7591   6.8712   6.8926   6.9029   6.9593
     7.0444   7.0896   7.6783   7.7189   7.7512   7.7753   7.9473   7.9565
     9.4881   9.4948  10.1604  10.1934  10.4777  10.5138  11.7096  11.7441
    11.9395  12.1034  12.3983  12.4329  12.5008  12.5198  12.5478  12.6980
    12.7343  13.0091  13.1163  13.1261  13.4447  13.4876  13.8085  13.8150
    14.2839  14.3553  14.7965  14.9430  15.2985  15.3314  15.6235  15.7182
    15.9877  17.1331  17.1680  17.2098  17.3995  17.5330

          k = 0.0000 0.0000-0.4997 ( 63308 PWs)   bands (ev):

   -66.2455 -66.2455 -66.2450 -66.2450 -66.2447 -66.2447 -66.2442 -66.2441
   -30.6740 -30.6740 -30.6694 -30.6694 -30.6092 -30.6092 -30.6014 -30.6014
   -30.5857 -30.5856 -30.5768 -30.5768 -30.5444 -30.5444 -30.5402 -30.5402
   -30.5366 -30.5366 -30.5323 -30.5323 -30.4951 -30.4951 -30.4872 -30.4872
   -20.3961 -20.3961 -20.3957 -20.3957 -20.3928 -20.3928 -20.3927 -20.3927
   -20.3921 -20.3921 -20.3917 -20.3917 -20.3896 -20.3896 -20.3888 -20.3888
   -20.3864 -20.3864 -20.3849 -20.3849 -20.3848 -20.3848 -20.3843 -20.3843
   -20.3842 -20.3842 -20.3834 -20.3834 -20.3822 -20.3822 -20.3813 -20.3813
   -20.3733 -20.3733 -20.3732 -20.3731 -20.3725 -20.3725 -20.3723 -20.3723
   -20.3405 -20.3405 -20.3403 -20.3403 -20.3397 -20.3396 -20.3391 -20.3391
   -20.3382 -20.3382 -20.3376 -20.3376 -20.3351 -20.3351 -20.3351 -20.3350
    -9.8845  -9.8845  -9.5457  -9.5457  -9.4804  -9.4804  -9.1530  -9.1530
    -8.7293  -8.7293  -8.7176  -8.7176  -8.7054  -8.7054  -8.6682  -8.6682
    -8.0040  -8.0040  -7.9487  -7.9486  -7.8730  -7.8730  -7.8378  -7.8378
     1.0350   1.0350   1.1162   1.1162   1.2212   1.2212   1.3095   1.3095
     2.4117   2.4117   2.8850   2.8850   2.9447   2.9448   3.0183   3.0183
     3.0934   3.0934   3.1354   3.1354   3.2862   3.2862   3.5463   3.5463
     3.5662   3.5662   4.2885   4.2885   4.4594   4.4595   4.7588   4.7588
     4.9896   4.9896   5.0193   5.0193   5.0942   5.0942   5.5977   5.5977
     5.6066   5.6066   5.7839   5.7839   5.8638   5.8638   6.0198   6.0198
     6.0972   6.0972   6.1206   6.1206   6.2754   6.2754   6.3731   6.3731
     6.6300   6.6300   6.7439   6.7439   6.8909   6.8909   7.3510   7.3510
     7.4163   7.4163   7.4672   7.4672   7.4897   7.4897   7.9558   7.9558
     9.4913   9.4913  10.9823  10.9823  11.0229  11.0229  11.2676  11.2676
    11.3415  11.3415  12.4153  12.4153  12.6358  12.6358  12.8058  12.8058
    12.8218  12.8218  13.0554  13.0554  13.1339  13.1339  13.8091  13.8091
    14.3348  14.3348  15.1298  15.1298  15.4078  15.4078  15.5579  15.5579
    16.4667  16.4667  17.5671  17.5672  17.5844  17.5845

          k = 0.0000 0.1618 0.0000 ( 63291 PWs)   bands (ev):

   -66.2459 -66.2454 -66.2451 -66.2451 -66.2446 -66.2446 -66.2443 -66.2438
   -30.6716 -30.6672 -30.6668 -30.6626 -30.6164 -30.6106 -30.6095 -30.6034
   -30.5913 -30.5882 -30.5838 -30.5831 -30.5817 -30.5778 -30.5772 -30.5748
   -30.4990 -30.4973 -30.4955 -30.4941 -30.4908 -30.4894 -30.4860 -30.4847
   -20.3959 -20.3956 -20.3954 -20.3950 -20.3930 -20.3930 -20.3927 -20.3926
   -20.3921 -20.3920 -20.3917 -20.3917 -20.3901 -20.3897 -20.3893 -20.3889
   -20.3867 -20.3863 -20.3863 -20.3861 -20.3857 -20.3849 -20.3846 -20.3845
   -20.3834 -20.3832 -20.3831 -20.3825 -20.3819 -20.3815 -20.3814 -20.3813
   -20.3737 -20.3735 -20.3730 -20.3729 -20.3729 -20.3727 -20.3722 -20.3720
   -20.3423 -20.3419 -20.3409 -20.3408 -20.3407 -20.3401 -20.3396 -20.3394
   -20.3370 -20.3364 -20.3360 -20.3359 -20.3355 -20.3351 -20.3342 -20.3342
   -10.0965  -9.8269  -9.7140  -9.7136  -9.4580  -9.4526  -9.3124  -9.2159
    -9.1991  -9.1134  -9.0950  -9.0938  -8.1415  -8.0911  -8.0875  -8.0459
    -7.9181  -7.9144  -7.8836  -7.8790  -7.8304  -7.8303  -7.7991  -7.7988
     0.9748   0.9802   1.0624   1.0723   1.0862   1.0997   1.1947   1.3388
     1.4646   1.5368   1.5447   1.7096   2.3161   2.3996   2.4286   2.4399
     2.5517   2.5643   3.9230   3.9448   3.9608   3.9841   4.5215   4.5245
     4.5396   4.5626   4.5751   4.6233   4.6518   4.6523   4.7608   5.0754
     5.0878   5.1687   5.1764   5.4230   5.4469   5.4534   5.5153   5.5244
     5.5293   5.5521   5.6673   5.8353   5.8511   5.9381   5.9414   5.9730
     5.9839   6.1701   6.1857   6.2463   6.2572   6.6138   6.6503   6.6666
     6.6679   6.7491   6.7542   6.7860   6.7951   6.8228   7.0652   7.0763
     7.0937   7.1047   7.8609   7.8703   7.8865   7.8934   7.9061   7.9135
     9.0612   9.0847   9.7124   9.7167   9.7508   9.7549  12.0612  12.0972
    12.2005  12.2211  12.3127  12.3230  12.3523  12.3584  12.7658  12.8763
    12.9860  13.0056  13.1844  13.2799  13.7706  13.7742  13.8390  13.8498
    14.2764  14.5140  14.5689  14.7065  14.9629  14.9728  15.7776  15.7984
    15.8824  16.4179  16.9389  17.0694  17.0912  17.3045

          k = 0.0000 0.1618 0.1666 ( 63334 PWs)   bands (ev):

   -66.2458 -66.2453 -66.2451 -66.2450 -66.2447 -66.2445 -66.2443 -66.2438
   -30.6713 -30.6675 -30.6666 -30.6629 -30.6158 -30.6109 -30.6088 -30.6037
   -30.5889 -30.5849 -30.5835 -30.5789 -30.5772 -30.5751 -30.5745 -30.5715
   -30.5052 -30.5013 -30.4975 -30.4970 -30.4956 -30.4903 -30.4891 -30.4854
   -20.3959 -20.3956 -20.3954 -20.3951 -20.3930 -20.3929 -20.3927 -20.3926
   -20.3921 -20.3920 -20.3917 -20.3917 -20.3901 -20.3897 -20.3893 -20.3889
   -20.3866 -20.3861 -20.3861 -20.3861 -20.3855 -20.3847 -20.3845 -20.3845
   -20.3835 -20.3834 -20.3832 -20.3825 -20.3821 -20.3815 -20.3815 -20.3813
   -20.3737 -20.3735 -20.3730 -20.3729 -20.3728 -20.3726 -20.3722 -20.3721
   -20.3420 -20.3417 -20.3408 -20.3407 -20.3404 -20.3398 -20.3397 -20.3395
   -20.3374 -20.3368 -20.3359 -20.3358 -20.3357 -20.3354 -20.3344 -20.3343
   -10.0523  -9.7746  -9.7270  -9.6535  -9.4625  -9.3682  -9.3200  -9.1795
    -9.1585  -9.0989  -9.0966  -9.0632  -8.1423  -8.1002  -8.0871  -8.0538
    -8.0413  -8.0054  -7.9630  -7.9316  -7.9077  -7.8755  -7.8359  -7.8043
     1.0570   1.0680   1.0741   1.1025   1.2786   1.3049   1.3529   1.4680
     1.5225   1.5424   1.5884   1.7868   2.4009   2.4365   2.4853   2.5243
     2.5454   2.6482   3.9035   3.9445   3.9700   4.0080   4.1922   4.2472
     4.3676   4.3970   4.5135   4.5990   4.6151   4.6654   4.7520   4.9634
     5.0440   5.1233   5.1269   5.1961   5.2781   5.4084   5.4505   5.5007
     5.5929   5.5972   5.6703   5.7766   5.8054   5.8681   5.9439   6.0226
     6.0796   6.2450   6.2709   6.3450   6.5043   6.5340   6.6001   6.6283
     6.6685   6.7444   6.7559   6.7684   6.7864   6.7994   6.8676   6.8752
     6.9193   6.9529   7.8364   7.8462   7.8567   7.8695   7.8740   7.8953
     9.4184   9.4331   9.7204   9.7560   9.9688  10.0012  12.0742  12.1280
    12.1812  12.2102  12.2241  12.2629  12.3782  12.4156  12.6836  12.7833
    12.7936  12.9870  13.2418  13.2827  13.6811  13.7194  13.7731  13.7918
    14.3766  14.5629  14.7140  14.8007  15.0404  15.0804  15.7718  15.8512
    16.1451  16.5643  16.7139  17.0229  17.2383  17.3878

          k = 0.0000 0.1618 0.3331 ( 63304 PWs)   bands (ev):

   -66.2457 -66.2453 -66.2452 -66.2449 -66.2448 -66.2445 -66.2444 -66.2440
   -30.6706 -30.6684 -30.6659 -30.6638 -30.6145 -30.6118 -30.6074 -30.6046
   -30.5871 -30.5844 -30.5794 -30.5760 -30.5662 -30.5623 -30.5592 -30.5549
   -30.5219 -30.5178 -30.5139 -30.5100 -30.4962 -30.4937 -30.4883 -30.4862
   -20.3958 -20.3956 -20.3955 -20.3952 -20.3930 -20.3929 -20.3928 -20.3927
   -20.3921 -20.3920 -20.3917 -20.3917 -20.3900 -20.3898 -20.3893 -20.3890
   -20.3864 -20.3862 -20.3856 -20.3856 -20.3849 -20.3846 -20.3845 -20.3842
   -20.3840 -20.3838 -20.3836 -20.3827 -20.3824 -20.3819 -20.3815 -20.3814
   -20.3735 -20.3733 -20.3731 -20.3730 -20.3727 -20.3725 -20.3723 -20.3722
   -20.3412 -20.3411 -20.3405 -20.3402 -20.3400 -20.3398 -20.3395 -20.3389
   -20.3384 -20.3378 -20.3369 -20.3363 -20.3355 -20.3355 -20.3347 -20.3347
    -9.9480  -9.7679  -9.6577  -9.5171  -9.4942  -9.3462  -9.1326  -9.1122
    -9.1045  -9.0114  -8.9799  -8.9378  -8.3600  -8.3423  -8.3142  -8.2870
    -8.1182  -8.0977  -8.0715  -8.0476  -7.8934  -7.8605  -7.8513  -7.8193
     1.0786   1.0861   1.1097   1.1160   1.4392   1.4448   1.5071   1.5385
     2.0728   2.1373   2.2098   2.3069   2.4580   2.5236   2.6479   2.7396
     2.7653   2.8782   3.5813   3.6782   3.6836   3.8381   3.8909   3.9995
     4.0141   4.1059   4.3779   4.4678   4.4838   4.5617   4.5900   4.6962
     4.7186   4.8518   4.8855   4.9357   5.1000   5.1672   5.3065   5.4653
     5.5416   5.6047   5.6276   5.7707   5.7934   5.9246   6.0013   6.0544
     6.1192   6.2135   6.2896   6.3423   6.3856   6.4671   6.5639   6.5941
     6.6553   6.6658   6.7294   6.7548   6.7885   6.8171   6.9430   6.9509
     7.0469   7.0920   7.6731   7.7108   7.7179   7.7383   7.8831   7.8907
     9.7218   9.7376  10.1689  10.1975  10.5972  10.6253  11.7108  11.7441
    11.9349  12.1524  12.2241  12.3390  12.3888  12.4389  12.5504  12.6072
    12.7731  12.9984  13.0974  13.1270  13.3222  13.3944  13.7704  13.7823
    14.5006  14.5549  15.0849  15.1527  15.2902  15.6628  15.6874  15.7476
    16.1146  16.9663  17.0939  17.2388  17.2718  17.6750

          k = 0.0000 0.1618-0.4997 ( 63266 PWs)   bands (ev):

   -66.2455 -66.2455 -66.2450 -66.2450 -66.2447 -66.2446 -66.2442 -66.2442
   -30.6695 -30.6695 -30.6649 -30.6648 -30.6131 -30.6131 -30.6059 -30.6059
   -30.5857 -30.5857 -30.5774 -30.5774 -30.5445 -30.5445 -30.5403 -30.5402
   -30.5367 -30.5367 -30.5324 -30.5324 -30.4951 -30.4950 -30.4873 -30.4873
   -20.3957 -20.3957 -20.3953 -20.3953 -20.3929 -20.3929 -20.3928 -20.3928
   -20.3921 -20.3921 -20.3917 -20.3917 -20.3899 -20.3899 -20.3892 -20.3891
   -20.3863 -20.3863 -20.3850 -20.3849 -20.3848 -20.3848 -20.3844 -20.3843
   -20.3842 -20.3842 -20.3835 -20.3835 -20.3822 -20.3822 -20.3814 -20.3814
   -20.3733 -20.3733 -20.3732 -20.3731 -20.3725 -20.3725 -20.3723 -20.3723
   -20.3405 -20.3405 -20.3403 -20.3403 -20.3397 -20.3396 -20.3391 -20.3391
   -20.3382 -20.3382 -20.3376 -20.3376 -20.3351 -20.3351 -20.3351 -20.3350
    -9.8420  -9.8420  -9.5553  -9.5553  -9.4041  -9.4041  -9.1159  -9.1159
    -8.7361  -8.7361  -8.7220  -8.7220  -8.7031  -8.7031  -8.6627  -8.6627
    -8.1103  -8.1103  -8.0615  -8.0615  -7.8724  -7.8724  -7.8398  -7.8398
     1.0846   1.0846   1.1176   1.1176   1.4510   1.4510   1.5329   1.5329
     2.4850   2.4850   2.9012   2.9012   2.9881   2.9881   3.0134   3.0134
     3.1079   3.1079   3.1314   3.1314   3.2789   3.2789   3.5695   3.5695
     3.6173   3.6173   4.0495   4.0495   4.4013   4.4013   4.5694   4.5694
     4.7925   4.7925   4.9871   4.9871   5.0976   5.0976   5.2977   5.2977
     5.5357   5.5357   5.7140   5.7140   5.9099   5.9099   6.0778   6.0778
     6.1296   6.1296   6.1610   6.1610   6.3593   6.3593   6.4881   6.4881
     6.6982   6.6982   6.7013   6.7013   6.7775   6.7775   7.3636   7.3636
     7.4107   7.4107   7.4465   7.4465   7.4707   7.4707   7.8893   7.8893
     9.7316   9.7316  10.9879  10.9879  11.0236  11.0236  11.3434  11.3434
    11.4098  11.4098  12.2450  12.2451  12.6220  12.6220  12.7394  12.7394
    12.8286  12.8286  12.9455  12.9455  13.0826  13.0826  13.7714  13.7715
    14.5384  14.5384  15.4899  15.4899  15.5363  15.5363  15.5787  15.5787
    16.5337  16.5337  17.3596  17.3596  17.5937  17.8081

          k = 0.0000 0.3236 0.0000 ( 63354 PWs)   bands (ev):

   -66.2458 -66.2455 -66.2450 -66.2450 -66.2447 -66.2447 -66.2442 -66.2439
   -30.6593 -30.6549 -30.6544 -30.6501 -30.6270 -30.6219 -30.6209 -30.6159
   -30.5908 -30.5889 -30.5847 -30.5831 -30.5814 -30.5791 -30.5780 -30.5759
   -30.4989 -30.4971 -30.4952 -30.4942 -30.4909 -30.4896 -30.4859 -30.4852
   -20.3950 -20.3947 -20.3945 -20.3941 -20.3932 -20.3931 -20.3928 -20.3927
   -20.3920 -20.3919 -20.3916 -20.3915 -20.3909 -20.3906 -20.3901 -20.3898
   -20.3865 -20.3863 -20.3862 -20.3858 -20.3858 -20.3850 -20.3849 -20.3848
   -20.3832 -20.3830 -20.3829 -20.3823 -20.3822 -20.3818 -20.3816 -20.3815
   -20.3737 -20.3735 -20.3730 -20.3729 -20.3729 -20.3727 -20.3722 -20.3720
   -20.3423 -20.3419 -20.3409 -20.3408 -20.3407 -20.3401 -20.3396 -20.3394
   -20.3370 -20.3364 -20.3360 -20.3359 -20.3355 -20.3351 -20.3342 -20.3342
   -10.0138  -9.8629  -9.6174  -9.6159  -9.4820  -9.4773  -9.2123  -9.2025
    -9.0839  -8.9624  -8.9593  -8.9587  -8.4130  -8.3737  -8.3708  -8.3492
    -7.9139  -7.9100  -7.8885  -7.8847  -7.8263  -7.8263  -7.8038  -7.8037
     0.9758   0.9790   1.0772   1.0900   1.0906   1.1032   1.3056   1.3374
     2.0974   2.2151   2.2261   2.3331   2.3582   2.3821   2.6502   2.6721
     2.7664   2.7880   3.4612   3.4855   3.5174   3.5443   3.9638   4.2566
     4.2751   4.5173   4.5302   4.5464   4.5592   4.5744   4.7490   4.7683
     4.8031   4.8213   5.0784   5.0870   5.3393   5.3421   5.5068   5.5145
     5.7651   5.7891   5.7953   5.7973   5.8018   5.9338   5.9378   5.9807
     5.9898   6.0880   6.1179   6.3122   6.3195   6.3315   6.5925   6.6070
     6.6685   6.7843   6.9065   6.9067   6.9411   6.9431   7.0678   7.0786
     7.0969   7.1077   7.6670   7.6810   7.6813   7.6952   7.8984   7.8994
     9.0686   9.0814  10.2737  10.2949  10.3316  10.3468  11.6241  11.6600
    11.7182  11.7402  12.3222  12.3326  12.3552  12.3635  12.8789  12.9954
    13.0727  13.0941  13.1634  13.2996  13.5539  13.5654  13.5882  13.5957
    14.7330  14.9635  14.9684  15.0499  15.0679  15.4088  15.6772  15.6928
    15.8275  16.9190  17.0435  17.1527  17.5872  17.6749

          k = 0.0000 0.3236 0.1666 ( 63348 PWs)   bands (ev):

   -66.2457 -66.2454 -66.2450 -66.2449 -66.2447 -66.2446 -66.2442 -66.2439
   -30.6590 -30.6552 -30.6542 -30.6504 -30.6266 -30.6222 -30.6206 -30.6162
   -30.5886 -30.5849 -30.5834 -30.5797 -30.5781 -30.5763 -30.5753 -30.5717
   -30.5051 -30.5011 -30.4976 -30.4968 -30.4957 -30.4902 -30.4894 -30.4857
   -20.3950 -20.3947 -20.3945 -20.3942 -20.3932 -20.3931 -20.3928 -20.3927
   -20.3920 -20.3919 -20.3916 -20.3915 -20.3908 -20.3906 -20.3901 -20.3899
   -20.3864 -20.3861 -20.3860 -20.3858 -20.3856 -20.3849 -20.3849 -20.3848
   -20.3834 -20.3832 -20.3831 -20.3824 -20.3823 -20.3818 -20.3817 -20.3815
   -20.3736 -20.3735 -20.3730 -20.3729 -20.3728 -20.3726 -20.3722 -20.3721
   -20.3420 -20.3417 -20.3408 -20.3407 -20.3404 -20.3398 -20.3397 -20.3395
   -20.3374 -20.3368 -20.3359 -20.3358 -20.3357 -20.3354 -20.3344 -20.3343
    -9.9661  -9.8110  -9.6286  -9.5434  -9.4879  -9.3931  -9.1730  -9.1618
    -9.0915  -8.9624  -8.9547  -8.9409  -8.4131  -8.3801  -8.3679  -8.3550
    -8.0376  -8.0138  -7.9592  -7.9376  -7.9035  -7.8809  -7.8319  -7.8092
     1.0615   1.0710   1.0925   1.1061   1.3403   1.3564   1.4777   1.5211
     2.0997   2.2079   2.2248   2.3573   2.4199   2.4669   2.6590   2.7590
     2.7638   2.8757   3.4858   3.5074   3.5361   3.5695   3.9542   4.2019
     4.2227   4.2658   4.2842   4.4625   4.5228   4.5611   4.6090   4.6213
     4.7619   4.8294   4.8832   5.0615   5.1178   5.2263   5.3497   5.4799
     5.5474   5.5833   5.6830   5.7723   5.9065   5.9312   5.9667   5.9808
     6.0335   6.2531   6.2904   6.3157   6.3798   6.5792   6.5845   6.7068
     6.7402   6.7862   6.8317   6.8582   6.8667   6.8791   6.9304   6.9602
     6.9756   6.9845   7.6515   7.6626   7.6702   7.6743   7.8630   7.8660
     9.4265   9.4358  10.3000  10.3444  10.4508  10.5040  11.6594  11.7087
    11.7375  11.8011  12.1848  12.2133  12.3848  12.4141  12.8157  12.8706
    12.9063  13.0701  13.2153  13.2551  13.4059  13.4895  13.5508  13.5946
    14.8289  15.0360  15.0541  15.1109  15.3268  15.4859  15.6677  15.9770
    16.0379  16.8844  17.0859  17.1351  17.2216  17.6939

          k = 0.0000 0.3236 0.3331 ( 63342 PWs)   bands (ev):

   -66.2456 -66.2453 -66.2452 -66.2449 -66.2448 -66.2445 -66.2444 -66.2441
   -30.6583 -30.6560 -30.6535 -30.6513 -30.6255 -30.6230 -30.6196 -30.6171
   -30.5870 -30.5843 -30.5801 -30.5772 -30.5667 -30.5625 -30.5594 -30.5551
   -30.5219 -30.5177 -30.5141 -30.5102 -30.4960 -30.4935 -30.4886 -30.4865
   -20.3949 -20.3946 -20.3946 -20.3943 -20.3931 -20.3930 -20.3929 -20.3928
   -20.3920 -20.3919 -20.3915 -20.3915 -20.3908 -20.3907 -20.3901 -20.3899
   -20.3862 -20.3859 -20.3856 -20.3854 -20.3850 -20.3850 -20.3847 -20.3844
   -20.3839 -20.3837 -20.3836 -20.3829 -20.3822 -20.3819 -20.3817 -20.3816
   -20.3735 -20.3734 -20.3731 -20.3730 -20.3727 -20.3725 -20.3723 -20.3722
   -20.3412 -20.3411 -20.3405 -20.3402 -20.3400 -20.3398 -20.3395 -20.3389
   -20.3384 -20.3378 -20.3369 -20.3363 -20.3355 -20.3355 -20.3347 -20.3347
    -9.8542  -9.6930  -9.6689  -9.5216  -9.3591  -9.1406  -9.1197  -9.0629
    -9.0170  -8.9724  -8.9068  -8.8631  -8.4552  -8.4347  -8.3744  -8.3590
    -8.3443  -8.2884  -8.2826  -8.2289  -7.8892  -7.8658  -7.8472  -7.8243
     1.0989   1.1051   1.1135   1.1201   1.9576   2.0229   2.0702   2.1120
     2.2049   2.2258   2.2815   2.4716   2.6682   2.6761   2.6956   2.7664
     3.0066   3.0955   3.4626   3.5067   3.5847   3.6395   3.6717   3.6791
     3.9297   3.9819   4.0834   4.1819   4.2395   4.3471   4.4321   4.5154
     4.5747   4.6004   4.7274   4.7817   4.8658   4.9318   5.0356   5.0443
     5.1668   5.3717   5.4164   5.6980   5.9959   6.0085   6.0239   6.1177
     6.1732   6.2728   6.3716   6.4115   6.4429   6.5641   6.5674   6.6005
     6.7034   6.8175   6.8443   6.8620   6.8792   6.9569   6.9873   7.0039
     7.0853   7.1039   7.5551   7.5566   7.6391   7.6780   7.7214   7.7514
    10.1571  10.1811  10.3193  10.3543  10.9369  10.9738  11.6381  11.7045
    11.7390  11.7804  11.9750  12.0521  12.3120  12.3624  12.5515  12.5761
    12.8428  12.9098  13.0467  13.0780  13.1257  13.2886  13.5447  13.5687
    14.9139  15.0328  15.2493  15.5713  15.5917  15.9259  15.9537  16.4248
    16.5017  16.7656  16.9557  17.4053  17.4306  17.4487

          k = 0.0000 0.3236-0.4997 ( 63292 PWs)   bands (ev):

   -66.2454 -66.2454 -66.2451 -66.2451 -66.2446 -66.2446 -66.2443 -66.2443
   -30.6572 -30.6572 -30.6524 -30.6524 -30.6243 -30.6243 -30.6183 -30.6183
   -30.5856 -30.5856 -30.5785 -30.5785 -30.5445 -30.5445 -30.5403 -30.5402
   -30.5369 -30.5369 -30.5326 -30.5326 -30.4949 -30.4949 -30.4875 -30.4875
   -20.3948 -20.3948 -20.3945 -20.3945 -20.3930 -20.3930 -20.3929 -20.3929
   -20.3920 -20.3920 -20.3915 -20.3915 -20.3907 -20.3907 -20.3900 -20.3900
   -20.3860 -20.3860 -20.3852 -20.3852 -20.3847 -20.3847 -20.3843 -20.3843
   -20.3842 -20.3842 -20.3837 -20.3837 -20.3821 -20.3821 -20.3817 -20.3816
   -20.3733 -20.3733 -20.3732 -20.3732 -20.3725 -20.3725 -20.3723 -20.3723
   -20.3405 -20.3405 -20.3403 -20.3403 -20.3397 -20.3396 -20.3391 -20.3391
   -20.3382 -20.3382 -20.3376 -20.3376 -20.3351 -20.3351 -20.3351 -20.3350
    -9.7434  -9.7434  -9.5866  -9.5866  -9.1932  -9.1932  -8.9934  -8.9934
    -8.7744  -8.7744  -8.7389  -8.7389  -8.6888  -8.6888  -8.6408  -8.6408
    -8.3702  -8.3702  -8.3327  -8.3327  -7.8682  -7.8682  -7.8450  -7.8450
     1.1061   1.1061   1.1215   1.1215   2.1003   2.1003   2.2126   2.2127
     2.6960   2.6960   2.9471   2.9471   2.9909   2.9909   3.0605   3.0605
     3.1171   3.1171   3.1706   3.1706   3.2517   3.2517   3.5083   3.5084
     3.7577   3.7577   3.8100   3.8100   3.9014   3.9014   4.1232   4.1232
     4.6121   4.6121   4.6964   4.6964   4.8445   4.8445   4.9600   4.9600
     5.1651   5.1651   5.5453   5.5453   6.0869   6.0869   6.1161   6.1162
     6.2478   6.2478   6.2617   6.2617   6.3461   6.3461   6.5348   6.5348
     6.8491   6.8491   6.8738   6.8738   6.9366   6.9366   7.3351   7.3351
     7.3643   7.3643   7.3893   7.3893   7.4431   7.4431   7.6904   7.6905
    10.3168  10.3168  10.9960  10.9960  11.0262  11.0262  11.5173  11.5173
    11.6299  11.6299  11.8360  11.8360  12.4019  12.4019  12.4520  12.4520
    12.8236  12.8236  12.8434  12.8434  13.1039  13.1039  13.5492  13.5492
    14.9860  14.9860  15.4543  15.4543  15.9817  15.9817  16.4856  16.4856
    16.8072  16.8072  16.9371  16.9371  17.7447  17.7447

          k = 0.0000-0.4853 0.0000 ( 63442 PWs)   bands (ev):

   -66.2457 -66.2455 -66.2449 -66.2449 -66.2447 -66.2447 -66.2441 -66.2439
   -30.6429 -30.6428 -30.6388 -30.6382 -30.6376 -30.6368 -30.6331 -30.6330
   -30.5902 -30.5896 -30.5849 -30.5830 -30.5807 -30.5805 -30.5781 -30.5765
   -30.4989 -30.4970 -30.4950 -30.4943 -30.4910 -30.4898 -30.4857 -30.4855
   -20.3942 -20.3940 -20.3937 -20.3936 -20.3934 -20.3934 -20.3932 -20.3930
   -20.3918 -20.3917 -20.3915 -20.3914 -20.3911 -20.3910 -20.3910 -20.3908
   -20.3864 -20.3862 -20.3861 -20.3859 -20.3854 -20.3853 -20.3851 -20.3850
   -20.3831 -20.3829 -20.3827 -20.3824 -20.3821 -20.3821 -20.3817 -20.3816
   -20.3737 -20.3736 -20.3730 -20.3729 -20.3729 -20.3727 -20.3722 -20.3720
   -20.3423 -20.3419 -20.3409 -20.3408 -20.3407 -20.3401 -20.3396 -20.3394
   -20.3370 -20.3364 -20.3360 -20.3359 -20.3355 -20.3351 -20.3342 -20.3342
    -9.9268  -9.9265  -9.5414  -9.5378  -9.5229  -9.5198  -9.2075  -9.2073
    -8.7534  -8.7533  -8.7033  -8.7016  -8.7013  -8.6997  -8.6989  -8.6989
    -7.9095  -7.9079  -7.8906  -7.8895  -7.8234  -7.8230  -7.8071  -7.8069
     0.9769   0.9778   1.0791   1.0921   1.0925   1.1049   1.3308   1.3313
     2.3574   2.3577   2.9222   2.9245   3.0133   3.0176   3.0210   3.0324
     3.0705   3.0830   3.0850   3.0880   3.2420   3.2633   3.2890   3.3039
     3.4165   3.4167   4.5424   4.5445   4.5573   4.5585   4.9165   4.9284
     4.9408   4.9514   5.0630   5.0636   5.0764   5.0771   5.6131   5.6148
     5.6224   5.6247   5.8726   5.8740   5.9157   5.9158   5.9587   5.9670
     6.0154   6.0354   6.0611   6.0717   6.4227   6.4357   6.4475   6.4614
     6.7267   6.7274   7.0654   7.0758   7.0936   7.1033   7.3141   7.3188
     7.3317   7.3318   7.3366   7.3392   7.3444   7.3521   7.8987   7.8988
     9.0757   9.0757  10.9633  10.9833  10.9959  11.0157  11.0286  11.0455
    11.0673  11.0843  12.3255  12.3358  12.3567  12.3663  13.0254  13.0288
    13.2460  13.2552  13.2758  13.2784  13.3004  13.3034  13.4035  13.4085
    14.9626  14.9648  15.2445  15.2462  15.4456  15.4584  15.4731  15.4856
    16.3421  16.3422  17.4886  17.8179  17.8197  17.8415

          k = 0.0000-0.4853 0.1666 ( 63358 PWs)   bands (ev):

   -66.2457 -66.2455 -66.2450 -66.2449 -66.2448 -66.2447 -66.2442 -66.2440
   -30.6426 -30.6425 -30.6391 -30.6379 -30.6379 -30.6366 -30.6334 -30.6333
   -30.5884 -30.5850 -30.5834 -30.5801 -30.5784 -30.5768 -30.5755 -30.5718
   -30.5051 -30.5011 -30.4977 -30.4967 -30.4958 -30.4902 -30.4895 -30.4858
   -20.3941 -20.3940 -20.3936 -20.3936 -20.3934 -20.3934 -20.3932 -20.3930
   -20.3918 -20.3917 -20.3915 -20.3914 -20.3911 -20.3910 -20.3910 -20.3908
   -20.3863 -20.3860 -20.3859 -20.3857 -20.3854 -20.3853 -20.3850 -20.3849
   -20.3833 -20.3830 -20.3829 -20.3826 -20.3821 -20.3820 -20.3818 -20.3817
   -20.3736 -20.3735 -20.3730 -20.3729 -20.3728 -20.3726 -20.3722 -20.3721
   -20.3420 -20.3417 -20.3408 -20.3407 -20.3404 -20.3398 -20.3397 -20.3395
   -20.3374 -20.3368 -20.3359 -20.3358 -20.3357 -20.3354 -20.3344 -20.3344
    -9.8769  -9.8750  -9.5493  -9.5316  -9.4560  -9.4380  -9.1682  -9.1661
    -8.7592  -8.7591  -8.7081  -8.7063  -8.6972  -8.6970  -8.6944  -8.6928
    -8.0345  -8.0174  -7.9563  -7.9408  -7.9001  -7.8848  -7.8286  -7.8127
     1.0620   1.0714   1.0950   1.1078   1.3458   1.3589   1.5085   1.5171
     2.4424   2.4429   2.9307   2.9378   2.9997   3.0102   3.0346   3.0642
     3.0748   3.0886   3.1029   3.1306   3.2475   3.2901   3.3106   3.3443
     3.4505   3.4533   4.2194   4.2209   4.5784   4.6033   4.6841   4.7178
     4.8340   4.8348   4.9269   4.9327   5.0839   5.0864   5.3174   5.3215
     5.5899   5.5928   5.6123   5.6140   5.9497   5.9774   5.9786   5.9976
     6.1482   6.1511   6.2466   6.2894   6.4162   6.4413   6.6368   6.6611
     6.7922   6.7996   6.8525   6.8644   6.8997   6.9303   7.3035   7.3209
     7.3217   7.3233   7.3297   7.3366   7.3398   7.3410   7.8637   7.8643
     9.4297   9.4352  10.9987  11.0182  11.0524  11.0626  11.0951  11.1025
    11.1512  11.1722  12.1862  12.2138  12.3875  12.4164  12.9961  13.0109
    13.0698  13.0865  13.1525  13.1639  13.2727  13.2746  13.4242  13.4337
    15.0103  15.0257  15.4125  15.4239  15.4398  15.4683  15.7854  15.8080
    16.4245  16.4261  17.4945  17.4994  17.5275  17.5289

          k = 0.0000-0.4853 0.3331 ( 63314 PWs)   bands (ev):

   -66.2455 -66.2453 -66.2451 -66.2449 -66.2447 -66.2445 -66.2443 -66.2441
   -30.6419 -30.6414 -30.6399 -30.6388 -30.6369 -30.6361 -30.6343 -30.6341
   -30.5870 -30.5843 -30.5805 -30.5777 -30.5669 -30.5626 -30.5595 -30.5552
   -30.5218 -30.5177 -30.5142 -30.5103 -30.4959 -30.4934 -30.4887 -30.4866
   -20.3940 -20.3939 -20.3937 -20.3936 -20.3936 -20.3934 -20.3933 -20.3931
   -20.3918 -20.3917 -20.3915 -20.3914 -20.3911 -20.3910 -20.3910 -20.3909
   -20.3859 -20.3857 -20.3855 -20.3854 -20.3853 -20.3851 -20.3847 -20.3845
   -20.3838 -20.3836 -20.3835 -20.3832 -20.3820 -20.3820 -20.3819 -20.3818
   -20.3735 -20.3734 -20.3731 -20.3730 -20.3727 -20.3725 -20.3723 -20.3722
   -20.3412 -20.3411 -20.3405 -20.3402 -20.3400 -20.3398 -20.3395 -20.3389
   -20.3384 -20.3378 -20.3369 -20.3363 -20.3355 -20.3355 -20.3347 -20.3347
    -9.7627  -9.7548  -9.5858  -9.5692  -9.2203  -9.2040  -9.0331  -9.0266
    -8.7907  -8.7895  -8.7263  -8.7247  -8.6855  -8.6846  -8.6681  -8.6650
    -8.3399  -8.3235  -8.2770  -8.2611  -7.8856  -7.8696  -7.8438  -7.8279
     1.1016   1.1072   1.1152   1.1217   2.0557   2.0679   2.1815   2.1921
     2.6892   2.6894   2.9365   2.9666   2.9872   3.0207   3.0484   3.0646
     3.0672   3.0808   3.1843   3.2042   3.2470   3.2740   3.4795   3.4927
     3.5510   3.5560   3.6572   3.6632   4.1777   4.1778   4.3221   4.3282
     4.5876   4.6125   4.6423   4.6671   4.9057   4.9193   4.9365   4.9388
     5.1372   5.1452   5.4833   5.4909   6.0177   6.0251   6.0737   6.1190
     6.2777   6.2872   6.3514   6.3994   6.4250   6.4469   6.5762   6.6082
     6.8424   6.8471   6.9502   6.9706   6.9989   7.0133   7.2671   7.2779
     7.2855   7.2960   7.3150   7.3221   7.3509   7.3650   7.7262   7.7291
    10.1756  10.1874  11.0108  11.0281  11.0428  11.0599  11.4396  11.4519
    11.4955  11.5147  11.7307  11.7518  12.5430  12.5602  12.5868  12.5918
    12.6136  12.6230  13.0664  13.0819  13.2676  13.2683  13.3440  13.3506
    15.1348  15.1615  15.3799  15.4074  15.9465  15.9630  16.6223  16.6358
    16.7473  16.7517  16.9995  17.0011  17.6285  17.7646

          k = 0.0000-0.4853-0.4997 ( 63276 PWs)   bands (ev):

   -66.2453 -66.2453 -66.2451 -66.2451 -66.2445 -66.2445 -66.2443 -66.2443
   -30.6409 -30.6409 -30.6401 -30.6401 -30.6356 -30.6356 -30.6351 -30.6351
   -30.5856 -30.5856 -30.5790 -30.5790 -30.5446 -30.5445 -30.5402 -30.5402
   -30.5370 -30.5369 -30.5327 -30.5327 -30.4948 -30.4948 -30.4877 -30.4877
   -20.3939 -20.3939 -20.3937 -20.3937 -20.3934 -20.3934 -20.3933 -20.3932
   -20.3917 -20.3917 -20.3914 -20.3914 -20.3911 -20.3910 -20.3909 -20.3909
   -20.3857 -20.3856 -20.3855 -20.3855 -20.3846 -20.3846 -20.3843 -20.3843
   -20.3842 -20.3842 -20.3839 -20.3839 -20.3820 -20.3819 -20.3819 -20.3819
   -20.3733 -20.3733 -20.3732 -20.3732 -20.3725 -20.3725 -20.3723 -20.3723
   -20.3405 -20.3405 -20.3403 -20.3403 -20.3397 -20.3396 -20.3391 -20.3391
   -20.3382 -20.3382 -20.3376 -20.3376 -20.3351 -20.3351 -20.3351 -20.3350
    -9.6549  -9.6549  -9.6411  -9.6411  -8.9298  -8.9297  -8.9204  -8.9204
    -8.8144  -8.8143  -8.8097  -8.8096  -8.6212  -8.6212  -8.6122  -8.6122
    -8.5709  -8.5709  -8.5607  -8.5607  -7.8647  -7.8647  -7.8487  -7.8487
     1.1088   1.1088   1.1232   1.1232   2.8431   2.8431   2.8758   2.8758
     2.9595   2.9595   2.9733   2.9733   3.0137   3.0137   3.0441   3.0441
     3.0950   3.0950   3.1189   3.1189   3.2541   3.2541   3.2714   3.2714
     3.3679   3.3679   3.4104   3.4104   4.0409   4.0409   4.0560   4.0560
     4.1275   4.1275   4.1464   4.1464   4.9045   4.9045   4.9114   4.9114
     5.2886   5.2886   5.3048   5.3049   6.1195   6.1195   6.1236   6.1236
     6.2980   6.2980   6.3163   6.3163   6.3781   6.3781   6.3902   6.3902
     7.1259   7.1259   7.1360   7.1360   7.1623   7.1623   7.1924   7.1924
     7.2644   7.2644   7.2784   7.2784   7.4769   7.4769   7.4861   7.4861
    10.9430  10.9430  10.9605  10.9605  11.0935  11.0935  11.0969  11.0969
    11.9781  11.9781  11.9901  11.9901  12.0267  12.0267  12.0422  12.0422
    12.8237  12.8237  12.8421  12.8421  13.2784  13.2784  13.2825  13.2825
    15.2755  15.2755  15.3038  15.3038  16.4861  16.4861  16.4984  16.4984
    17.3966  17.3966  17.4038  17.4039  17.5272  17.5318

          k = 0.1667 0.0000 0.0000 ( 63277 PWs)   bands (ev):

   -66.2458 -66.2453 -66.2451 -66.2450 -66.2446 -66.2445 -66.2443 -66.2438
   -30.6758 -30.6717 -30.6715 -30.6675 -30.6120 -30.6059 -30.6057 -30.5991
   -30.5897 -30.5849 -30.5835 -30.5789 -30.5780 -30.5774 -30.5716 -30.5685
   -30.5036 -30.5003 -30.4988 -30.4965 -30.4947 -30.4909 -30.4904 -30.4862
   -20.3963 -20.3960 -20.3957 -20.3954 -20.3930 -20.3929 -20.3926 -20.3926
   -20.3921 -20.3920 -20.3918 -20.3917 -20.3898 -20.3893 -20.3891 -20.3886
   -20.3867 -20.3864 -20.3863 -20.3859 -20.3857 -20.3847 -20.3843 -20.3841
   -20.3836 -20.3832 -20.3832 -20.3827 -20.3818 -20.3816 -20.3815 -20.3813
   -20.3736 -20.3735 -20.3729 -20.3729 -20.3728 -20.3727 -20.3722 -20.3721
   -20.3422 -20.3418 -20.3408 -20.3406 -20.3406 -20.3402 -20.3393 -20.3391
   -20.3369 -20.3363 -20.3363 -20.3363 -20.3356 -20.3353 -20.3346 -20.3345
   -10.0886  -9.7701  -9.7640  -9.7036  -9.4605  -9.4008  -9.3553  -9.1886
    -9.1571  -9.1364  -9.1360  -9.0942  -8.0602  -8.0188  -8.0140  -7.9840
    -7.9783  -7.9497  -7.9319  -7.9291  -7.9108  -7.8737  -7.8377  -7.8024
     1.0270   1.0299   1.0569   1.0874   1.1502   1.1548   1.2385   1.3120
     1.3641   1.4747   1.5315   1.6924   2.3674   2.3941   2.4384   2.4809
     2.4936   2.5639   3.9916   4.1058   4.1554   4.2412   4.2482   4.3022
     4.3103   4.4589   4.5549   4.5924   4.6288   4.6729   4.8993   5.0595
     5.1601   5.1713   5.3063   5.3286   5.3756   5.3951   5.4352   5.4602
     5.5257   5.6246   5.6996   5.7223   5.8098   5.8242   5.9421   6.0284
     6.1909   6.2095   6.2852   6.3546   6.5032   6.5635   6.5954   6.6201
     6.6725   6.7293   6.7375   6.7907   6.8609   6.8745   6.8795   6.8823
     6.9152   6.9405   7.8392   7.8567   7.8780   7.9072   7.9530   7.9840
     9.4179   9.4269   9.4944   9.5137   9.7976   9.8037  12.1545  12.1810
    12.2231  12.2902  12.3585  12.3801  12.3894  12.4809  12.5848  12.7848
    12.8381  13.0003  13.2544  13.2590  13.6831  13.7529  13.9406  13.9504
    14.1162  14.2483  14.4641  14.6413  15.0399  15.0685  15.4330  15.7807
    16.1943  16.5729  16.9547  16.9590  17.1310  17.2674

          k = 0.1667 0.0000 0.1666 ( 63326 PWs)   bands (ev):

   -66.2458 -66.2453 -66.2451 -66.2451 -66.2446 -66.2446 -66.2444 -66.2439
   -30.6755 -30.6718 -30.6715 -30.6678 -30.6112 -30.6060 -30.6050 -30.5994
   -30.5852 -30.5819 -30.5784 -30.5777 -30.5752 -30.5722 -30.5702 -30.5688
   -30.5050 -30.5034 -30.5020 -30.5007 -30.4964 -30.4950 -30.4924 -30.4909
   -20.3963 -20.3959 -20.3958 -20.3955 -20.3930 -20.3929 -20.3927 -20.3926
   -20.3921 -20.3920 -20.3918 -20.3917 -20.3897 -20.3894 -20.3891 -20.3886
   -20.3866 -20.3862 -20.3861 -20.3859 -20.3855 -20.3846 -20.3843 -20.3842
   -20.3837 -20.3835 -20.3833 -20.3827 -20.3820 -20.3817 -20.3815 -20.3814
   -20.3736 -20.3734 -20.3730 -20.3729 -20.3728 -20.3727 -20.3723 -20.3721
   -20.3419 -20.3415 -20.3406 -20.3405 -20.3404 -20.3399 -20.3394 -20.3392
   -20.3373 -20.3367 -20.3363 -20.3362 -20.3359 -20.3356 -20.3347 -20.3347
   -10.0439  -9.7165  -9.7154  -9.7059  -9.4087  -9.3707  -9.3652  -9.1416
    -9.1359  -9.1191  -9.0993  -9.0972  -8.0648  -8.0382  -8.0191  -8.0107
    -8.0084  -7.9973  -7.9747  -7.9654  -7.9541  -7.9396  -7.9321  -7.9141
     1.1182   1.1498   1.1507   1.2347   1.2414   1.2491   1.3552   1.3673
     1.4642   1.4761   1.6170   1.7757   2.4438   2.4538   2.4762   2.5477
     2.5781   2.5813   3.9849   4.0174   4.1686   4.1730   4.2724   4.2802
     4.3201   4.3258   4.3641   4.3752   4.4548   4.4947   4.8862   4.9862
     5.0523   5.1000   5.1537   5.3136   5.3200   5.3398   5.3617   5.5321
     5.5333   5.5586   5.5662   5.6770   5.7230   5.8324   6.0246   6.2474
     6.2568   6.3558   6.3905   6.4565   6.4612   6.5220   6.5469   6.5579
     6.5778   6.5908   6.5953   6.6418   6.7255   6.7803   6.7919   6.8430
     6.9959   7.0159   7.8229   7.8283   7.8761   7.9068   7.9123   7.9343
     9.6475   9.6782   9.7508   9.7945   9.8150   9.8790  12.2031  12.2129
    12.2318  12.2488  12.2703  12.2902  12.4500  12.4693  12.5918  12.6463
    12.7995  12.8178  13.2430  13.2843  13.7069  13.7331  13.8001  13.8332
    14.1796  14.4093  14.4597  14.7643  15.1808  15.1891  15.4030  16.1455
    16.1642  16.7264  16.7366  17.0256  17.1234  17.3108

          k = 0.1667 0.0000 0.3331 ( 63322 PWs)   bands (ev):

   -66.2456 -66.2452 -66.2451 -66.2449 -66.2447 -66.2445 -66.2444 -66.2440
   -30.6748 -30.6726 -30.6708 -30.6686 -30.6097 -30.6069 -30.6033 -30.6004
   -30.5814 -30.5786 -30.5740 -30.5700 -30.5651 -30.5623 -30.5587 -30.5551
   -30.5216 -30.5182 -30.5137 -30.5105 -30.5024 -30.4996 -30.4943 -30.4922
   -20.3962 -20.3959 -20.3958 -20.3956 -20.3929 -20.3928 -20.3927 -20.3927
   -20.3921 -20.3920 -20.3918 -20.3917 -20.3897 -20.3895 -20.3890 -20.3887
   -20.3864 -20.3861 -20.3856 -20.3855 -20.3850 -20.3844 -20.3843 -20.3841
   -20.3840 -20.3839 -20.3837 -20.3826 -20.3826 -20.3819 -20.3816 -20.3815
   -20.3734 -20.3733 -20.3731 -20.3729 -20.3727 -20.3725 -20.3724 -20.3722
   -20.3410 -20.3409 -20.3402 -20.3400 -20.3397 -20.3396 -20.3395 -20.3390
   -20.3383 -20.3377 -20.3370 -20.3365 -20.3359 -20.3358 -20.3350 -20.3350
    -9.9385  -9.7572  -9.5933  -9.5741  -9.4350  -9.3970  -9.1272  -9.1149
    -9.1054  -8.9915  -8.9804  -8.9599  -8.3532  -8.3327  -8.3138  -8.2961
    -8.0347  -8.0092  -7.9983  -7.9853  -7.9630  -7.9615  -7.9446  -7.9406
     1.1309   1.1432   1.2037   1.2262   1.3752   1.3756   1.4436   1.4794
     2.0769   2.1337   2.2061   2.2947   2.4662   2.5321   2.6886   2.7245
     2.8161   2.8413   3.6120   3.6718   3.7571   3.8251   3.8691   4.1634
     4.1787   4.2638   4.2713   4.3339   4.3539   4.5242   4.5361   4.6551
     4.7711   4.8325   4.8389   4.9741   5.0252   5.1863   5.3687   5.4139
     5.5718   5.6213   5.6286   5.6865   5.7252   5.8066   5.8956   5.9411
     6.2269   6.2457   6.3098   6.3312   6.3495   6.4678   6.5078   6.5625
     6.5704   6.6853   6.6875   6.7089   6.8693   6.9199   6.9728   6.9888
     7.0567   7.1152   7.6842   7.7047   7.7512   7.7743   7.9047   7.9092
     9.7732   9.7882  10.2934  10.3417  10.4810  10.5396  11.7702  11.8041
    11.9634  12.1092  12.3443  12.3966  12.4391  12.4651  12.5504  12.6032
    12.6732  12.8593  13.0483  13.1060  13.4340  13.4589  13.7281  13.7477
    14.3277  14.4442  14.7851  15.0854  15.3033  15.5578  15.7430  16.0705
    16.1242  17.0986  17.1212  17.2542  17.3025  17.6207

          k = 0.1667 0.0000-0.4997 ( 63304 PWs)   bands (ev):

   -66.2454 -66.2454 -66.2449 -66.2449 -66.2447 -66.2447 -66.2442 -66.2442
   -30.6737 -30.6737 -30.6697 -30.6697 -30.6082 -30.6082 -30.6017 -30.6017
   -30.5799 -30.5799 -30.5714 -30.5713 -30.5441 -30.5441 -30.5405 -30.5405
   -30.5363 -30.5363 -30.5327 -30.5326 -30.5012 -30.5012 -30.4933 -30.4933
   -20.3960 -20.3960 -20.3957 -20.3957 -20.3928 -20.3928 -20.3927 -20.3927
   -20.3921 -20.3921 -20.3918 -20.3918 -20.3896 -20.3896 -20.3889 -20.3889
   -20.3862 -20.3862 -20.3849 -20.3849 -20.3848 -20.3848 -20.3843 -20.3843
   -20.3841 -20.3841 -20.3833 -20.3833 -20.3823 -20.3823 -20.3815 -20.3815
   -20.3733 -20.3732 -20.3731 -20.3731 -20.3725 -20.3725 -20.3724 -20.3723
   -20.3402 -20.3402 -20.3401 -20.3401 -20.3395 -20.3394 -20.3389 -20.3389
   -20.3383 -20.3383 -20.3377 -20.3377 -20.3355 -20.3355 -20.3354 -20.3354
    -9.8315  -9.8315  -9.4908  -9.4908  -9.4608  -9.4608  -9.1164  -9.1164
    -8.7417  -8.7417  -8.7141  -8.7141  -8.6971  -8.6971  -8.6697  -8.6697
    -8.0202  -8.0202  -7.9868  -7.9868  -7.9614  -7.9614  -7.9520  -7.9520
     1.1361   1.1361   1.2168   1.2168   1.3837   1.3837   1.4785   1.4785
     2.4928   2.4928   2.8903   2.8903   2.9275   2.9275   3.0403   3.0403
     3.0943   3.0943   3.2216   3.2216   3.3470   3.3470   3.5566   3.5566
     3.5692   3.5692   4.2130   4.2130   4.2904   4.2904   4.7268   4.7268
     4.7797   4.7797   4.8113   4.8113   4.9986   4.9986   5.4936   5.4936
     5.5242   5.5242   5.6548   5.6548   5.7066   5.7066   5.8386   5.8386
     6.1294   6.1294   6.2436   6.2437   6.3977   6.3977   6.5682   6.5682
     6.6385   6.6385   6.7430   6.7430   6.8047   6.8047   7.3819   7.3819
     7.4245   7.4245   7.4734   7.4734   7.4919   7.4919   7.9097   7.9097
     9.7830   9.7830  11.0622  11.0622  11.1069  11.1069  11.2778  11.2778
    11.3565  11.3565  12.4591  12.4591  12.5026  12.5026  12.7009  12.7010
    12.7776  12.7776  13.0331  13.0331  13.0653  13.0653  13.7343  13.7343
    14.4087  14.4087  15.1085  15.1085  15.5488  15.5488  15.8846  15.8846
    16.5909  16.5909  17.4966  17.4979  17.5830  17.6044

          k = 0.1667 0.1618 0.0000 ( 63337 PWs)   bands (ev):

   -66.2458 -66.2453 -66.2451 -66.2450 -66.2446 -66.2445 -66.2443 -66.2438
   -30.6713 -30.6672 -30.6669 -30.6629 -30.6156 -30.6098 -30.6097 -30.6037
   -30.5897 -30.5851 -30.5842 -30.5789 -30.5781 -30.5773 -30.5725 -30.5690
   -30.5035 -30.5002 -30.4987 -30.4965 -30.4947 -30.4911 -30.4905 -30.4863
   -20.3959 -20.3956 -20.3954 -20.3951 -20.3930 -20.3930 -20.3927 -20.3926
   -20.3921 -20.3920 -20.3918 -20.3917 -20.3901 -20.3897 -20.3894 -20.3889
   -20.3866 -20.3863 -20.3863 -20.3859 -20.3857 -20.3848 -20.3844 -20.3843
   -20.3835 -20.3832 -20.3831 -20.3827 -20.3819 -20.3817 -20.3816 -20.3814
   -20.3736 -20.3735 -20.3729 -20.3729 -20.3728 -20.3727 -20.3722 -20.3721
   -20.3422 -20.3418 -20.3408 -20.3406 -20.3406 -20.3402 -20.3393 -20.3391
   -20.3369 -20.3363 -20.3363 -20.3363 -20.3356 -20.3353 -20.3346 -20.3345
   -10.0525  -9.7755  -9.7268  -9.6543  -9.4679  -9.3630  -9.3203  -9.1809
    -9.1577  -9.0979  -9.0973  -9.0616  -8.1429  -8.0982  -8.0894  -8.0542
    -8.0379  -8.0047  -7.9614  -7.9311  -7.9090  -7.8761  -7.8361  -7.8047
     1.0491   1.0601   1.0647   1.0891   1.2840   1.3072   1.3642   1.4692
     1.5256   1.5401   1.5979   1.7896   2.3998   2.4457   2.4836   2.5177
     2.5573   2.6371   3.8865   3.9359   3.9816   4.0259   4.1896   4.2460
     4.3492   4.3786   4.5754   4.5927   4.6427   4.6550   4.6953   4.9914
     5.0464   5.0960   5.1379   5.2077   5.2775   5.4007   5.4413   5.5213
     5.5822   5.5933   5.6917   5.7722   5.8088   5.8693   5.9473   6.0197
     6.0896   6.2384   6.2770   6.3205   6.5045   6.5317   6.5798   6.6369
     6.6676   6.7303   6.7523   6.7797   6.7972   6.8037   6.8797   6.8867
     6.9110   6.9451   7.8146   7.8315   7.8647   7.8684   7.8959   7.9098
     9.4226   9.4321   9.7164   9.7445   9.9804  10.0001  12.0407  12.1627
    12.1801  12.2050  12.2193  12.2753  12.3684  12.4140  12.6294  12.7780
    12.8776  13.0048  13.2510  13.2571  13.6518  13.6762  13.8341  13.8480
    14.3595  14.5133  14.7281  14.8016  15.0424  15.0704  15.7479  15.8534
    16.1611  16.5614  16.7049  17.0229  17.2547  17.3914

          k = 0.1667 0.1618 0.1666 ( 63318 PWs)   bands (ev):

   -66.2458 -66.2453 -66.2451 -66.2451 -66.2446 -66.2446 -66.2444 -66.2439
   -30.6710 -30.6672 -30.6669 -30.6632 -30.6150 -30.6101 -30.6091 -30.6040
   -30.5850 -30.5822 -30.5788 -30.5777 -30.5752 -30.5724 -30.5709 -30.5693
   -30.5049 -30.5033 -30.5019 -30.5007 -30.4965 -30.4951 -30.4924 -30.4911
   -20.3959 -20.3956 -20.3954 -20.3951 -20.3930 -20.3929 -20.3927 -20.3926
   -20.3921 -20.3920 -20.3918 -20.3917 -20.3900 -20.3897 -20.3894 -20.3890
   -20.3865 -20.3862 -20.3861 -20.3858 -20.3855 -20.3847 -20.3844 -20.3843
   -20.3836 -20.3834 -20.3833 -20.3826 -20.3821 -20.3817 -20.3816 -20.3815
   -20.3736 -20.3734 -20.3730 -20.3729 -20.3728 -20.3727 -20.3723 -20.3721
   -20.3419 -20.3415 -20.3406 -20.3405 -20.3404 -20.3399 -20.3394 -20.3392
   -20.3373 -20.3367 -20.3363 -20.3362 -20.3359 -20.3356 -20.3347 -20.3347
   -10.0060  -9.7176  -9.6674  -9.6667  -9.3783  -9.3731  -9.3282  -9.1397
    -9.1229  -9.0898  -9.0662  -9.0645  -8.1452  -8.0991  -8.0962  -8.0631
    -8.0365  -8.0330  -8.0031  -7.9984  -7.9841  -7.9577  -7.9397  -7.9170
     1.2400   1.2478   1.2797   1.2853   1.3179   1.3561   1.3678   1.4684
     1.5871   1.5971   1.6173   1.8518   2.4852   2.5210   2.5326   2.5727
     2.6264   2.6481   3.9057   3.9175   3.9934   4.0051   4.2388   4.2513
     4.2993   4.3140   4.3595   4.3659   4.3939   4.4486   4.6769   4.9180
     4.9730   5.0558   5.0843   5.1363   5.1806   5.2813   5.2848   5.4412
     5.5589   5.5647   5.6905   5.7032   5.7241   5.7999   6.0567   6.1794
     6.2089   6.2799   6.3491   6.4332   6.4711   6.5040   6.5118   6.5279
     6.5468   6.6727   6.6896   6.7012   6.7675   6.7715   6.7880   6.8472
     6.9965   7.0180   7.8083   7.8162   7.8383   7.8506   7.8630   7.8673
     9.6774   9.6846   9.9379   9.9788  10.0036  10.0410  12.0995  12.1445
    12.2207  12.2248  12.2451  12.2557  12.3061  12.3174  12.6367  12.6902
    12.7852  12.8034  13.2377  13.2792  13.6413  13.6552  13.6864  13.7363
    14.4728  14.7074  14.7292  14.9038  15.1829  15.1879  15.8187  16.1164
    16.1325  16.6775  16.8334  16.8406  17.1003  17.4652

          k = 0.1667 0.1618 0.3331 ( 63315 PWs)   bands (ev):

   -66.2456 -66.2452 -66.2451 -66.2449 -66.2447 -66.2445 -66.2444 -66.2440
   -30.6703 -30.6681 -30.6662 -30.6641 -30.6136 -30.6109 -30.6077 -30.6049
   -30.5814 -30.5786 -30.5742 -30.5706 -30.5654 -30.5625 -30.5588 -30.5552
   -30.5216 -30.5182 -30.5138 -30.5106 -30.5023 -30.4995 -30.4944 -30.4923
   -20.3958 -20.3955 -20.3955 -20.3952 -20.3930 -20.3929 -20.3928 -20.3927
   -20.3921 -20.3920 -20.3917 -20.3917 -20.3900 -20.3898 -20.3893 -20.3891
   -20.3863 -20.3860 -20.3856 -20.3855 -20.3850 -20.3845 -20.3843 -20.3841
   -20.3840 -20.3839 -20.3837 -20.3827 -20.3825 -20.3820 -20.3817 -20.3816
   -20.3734 -20.3733 -20.3731 -20.3729 -20.3727 -20.3725 -20.3724 -20.3722
   -20.3410 -20.3409 -20.3402 -20.3400 -20.3397 -20.3396 -20.3395 -20.3390
   -20.3383 -20.3377 -20.3370 -20.3365 -20.3359 -20.3358 -20.3350 -20.3350
    -9.8959  -9.7087  -9.5855  -9.5297  -9.4055  -9.3551  -9.1229  -9.0956
    -9.0724  -8.9912  -8.9731  -8.9417  -8.3551  -8.3370  -8.3260  -8.2964
    -8.1170  -8.0994  -8.0773  -8.0533  -8.0174  -7.9852  -7.9756  -7.9453
     1.2863   1.2945   1.3749   1.3758   1.4408   1.4564   1.5402   1.5955
     2.0765   2.1406   2.2061   2.3073   2.5426   2.6057   2.7395   2.7724
     2.8364   2.8782   3.6235   3.6988   3.7486   3.8167   3.8881   3.9949
     4.0575   4.1300   4.2752   4.3222   4.3599   4.4618   4.5103   4.5987
     4.6168   4.6687   4.6956   4.9012   4.9364   5.0422   5.1338   5.3339
     5.4579   5.5061   5.5790   5.6529   5.7329   5.7506   5.8864   5.9322
     6.1435   6.2837   6.3698   6.4206   6.4635   6.4903   6.5252   6.5592
     6.6106   6.7062   6.7346   6.7714   6.8617   6.9326   6.9731   6.9866
     7.0604   7.1164   7.6730   7.6987   7.7156   7.7293   7.8450   7.8506
     9.9594   9.9843  10.3106  10.3498  10.6018  10.6401  11.7708  11.8041
    11.9708  12.1578  12.2825  12.3003  12.3835  12.4106  12.4293  12.5408
    12.6475  12.8127  13.0330  13.1082  13.3090  13.3485  13.6515  13.6701
    14.6321  14.7172  15.1453  15.2020  15.5518  15.7187  15.7651  16.0438
    16.2283  17.0169  17.0666  17.1763  17.3079  17.3656

          k = 0.1667 0.1618-0.4997 ( 63264 PWs)   bands (ev):

   -66.2454 -66.2454 -66.2449 -66.2449 -66.2447 -66.2447 -66.2442 -66.2442
   -30.6692 -30.6692 -30.6652 -30.6652 -30.6122 -30.6122 -30.6063 -30.6062
   -30.5799 -30.5799 -30.5718 -30.5718 -30.5441 -30.5441 -30.5406 -30.5405
   -30.5364 -30.5364 -30.5328 -30.5327 -30.5011 -30.5011 -30.4934 -30.4934
   -20.3957 -20.3957 -20.3954 -20.3954 -20.3929 -20.3928 -20.3928 -20.3928
   -20.3920 -20.3920 -20.3917 -20.3917 -20.3899 -20.3899 -20.3892 -20.3892
   -20.3861 -20.3861 -20.3849 -20.3849 -20.3848 -20.3848 -20.3843 -20.3843
   -20.3841 -20.3841 -20.3834 -20.3834 -20.3823 -20.3823 -20.3816 -20.3816
   -20.3733 -20.3732 -20.3731 -20.3731 -20.3725 -20.3725 -20.3724 -20.3724
   -20.3402 -20.3402 -20.3401 -20.3401 -20.3395 -20.3394 -20.3389 -20.3389
   -20.3383 -20.3383 -20.3377 -20.3377 -20.3355 -20.3355 -20.3354 -20.3354
    -9.7849  -9.7849  -9.4707  -9.4707  -9.4147  -9.4147  -9.0833  -9.0833
    -8.7493  -8.7493  -8.7171  -8.7171  -8.6946  -8.6946  -8.6651  -8.6651
    -8.1100  -8.1100  -8.0681  -8.0681  -7.9971  -7.9971  -7.9652  -7.9652
     1.2903   1.2903   1.3835   1.3835   1.4545   1.4545   1.5886   1.5886
     2.5667   2.5667   2.9077   2.9077   2.9626   2.9626   3.0416   3.0416
     3.0974   3.0974   3.2314   3.2314   3.3416   3.3416   3.5861   3.5861
     3.6125   3.6125   4.0662   4.0662   4.2594   4.2594   4.5053   4.5053
     4.6928   4.6928   4.7663   4.7663   4.8332   4.8332   5.2600   5.2600
     5.4716   5.4716   5.5301   5.5301   5.6797   5.6797   5.7811   5.7812
     6.2676   6.2676   6.4120   6.4121   6.4428   6.4428   6.5113   6.5114
     6.6928   6.6928   6.7364   6.7364   6.8436   6.8436   7.3774   7.3774
     7.4181   7.4181   7.4536   7.4536   7.4737   7.4737   7.8490   7.8490
     9.9770   9.9771  11.0696  11.0696  11.1099  11.1099  11.3528  11.3528
    11.4223  11.4223  12.3035  12.3035  12.5014  12.5014  12.6763  12.6763
    12.7706  12.7706  12.9102  12.9102  12.9686  12.9686  13.6553  13.6554
    14.6924  14.6924  15.4988  15.4988  15.6693  15.6693  15.8644  15.8644
    16.6415  16.6415  17.3734  17.3735  17.5360  17.5360

          k = 0.1667 0.3236 0.0000 ( 63345 PWs)   bands (ev):

   -66.2457 -66.2454 -66.2450 -66.2449 -66.2447 -66.2446 -66.2442 -66.2439
   -30.6590 -30.6548 -30.6546 -30.6505 -30.6264 -30.6214 -30.6212 -30.6163
   -30.5897 -30.5856 -30.5850 -30.5786 -30.5783 -30.5772 -30.5740 -30.5699
   -30.5033 -30.5000 -30.4987 -30.4966 -30.4947 -30.4913 -30.4906 -30.4864
   -20.3950 -20.3947 -20.3944 -20.3942 -20.3932 -20.3931 -20.3928 -20.3927
   -20.3920 -20.3919 -20.3916 -20.3915 -20.3908 -20.3905 -20.3902 -20.3899
   -20.3865 -20.3862 -20.3862 -20.3858 -20.3856 -20.3849 -20.3847 -20.3846
   -20.3833 -20.3830 -20.3829 -20.3825 -20.3822 -20.3820 -20.3818 -20.3816
   -20.3736 -20.3735 -20.3729 -20.3729 -20.3728 -20.3727 -20.3722 -20.3721
   -20.3422 -20.3418 -20.3408 -20.3406 -20.3406 -20.3402 -20.3393 -20.3391
   -20.3369 -20.3363 -20.3363 -20.3363 -20.3356 -20.3353 -20.3346 -20.3345
    -9.9665  -9.8117  -9.6302  -9.5424  -9.4926  -9.3886  -9.1731  -9.1612
    -9.0918  -8.9624  -8.9542  -8.9407  -8.4130  -8.3777  -8.3702  -8.3553
    -8.0361  -8.0123  -7.9587  -7.9370  -7.9043  -7.8815  -7.8319  -7.8094
     1.0528   1.0635   1.0798   1.0934   1.3506   1.3672   1.4849   1.5293
     2.0999   2.2079   2.2233   2.3557   2.4184   2.4668   2.6765   2.7468
     2.7827   2.8562   3.4601   3.5055   3.5392   3.5961   3.9534   4.2055
     4.2090   4.2705   4.2948   4.4750   4.5137   4.5671   4.5926   4.6287
     4.7523   4.8142   4.8938   5.0599   5.1164   5.2380   5.3500   5.4737
     5.5505   5.5838   5.6834   5.7711   5.9193   5.9476   5.9611   5.9905
     6.0142   6.2230   6.2876   6.3139   6.3912   6.5752   6.5972   6.6997
     6.7476   6.7856   6.8352   6.8594   6.8655   6.8758   6.9428   6.9633
     6.9733   6.9800   7.6397   7.6505   7.6836   7.6890   7.8641   7.8668
     9.4275   9.4360  10.2789  10.3244  10.4752  10.5138  11.6232  11.7120
    11.7498  11.8184  12.1910  12.2185  12.3758  12.4078  12.7650  12.8498
    13.0013  13.0897  13.2173  13.2344  13.4364  13.4564  13.5716  13.5872
    14.8402  15.0287  15.0458  15.0880  15.3316  15.4838  15.6533  15.9740
    16.0474  16.8842  17.0591  17.1606  17.2214  17.6786

          k = 0.1667 0.3236 0.1666 ( 63335 PWs)   bands (ev):

   -66.2457 -66.2454 -66.2450 -66.2450 -66.2447 -66.2447 -66.2443 -66.2440
   -30.6587 -30.6549 -30.6545 -30.6508 -30.6260 -30.6216 -30.6209 -30.6166
   -30.5845 -30.5828 -30.5793 -30.5777 -30.5750 -30.5732 -30.5718 -30.5702
   -30.5048 -30.5031 -30.5017 -30.5008 -30.4966 -30.4954 -30.4923 -30.4915
   -20.3950 -20.3947 -20.3945 -20.3942 -20.3932 -20.3931 -20.3928 -20.3928
   -20.3920 -20.3919 -20.3916 -20.3915 -20.3908 -20.3906 -20.3902 -20.3899
   -20.3863 -20.3861 -20.3860 -20.3856 -20.3856 -20.3848 -20.3847 -20.3846
   -20.3834 -20.3832 -20.3831 -20.3825 -20.3824 -20.3820 -20.3818 -20.3817
   -20.3736 -20.3734 -20.3730 -20.3728 -20.3728 -20.3727 -20.3722 -20.3721
   -20.3419 -20.3415 -20.3406 -20.3405 -20.3404 -20.3399 -20.3394 -20.3392
   -20.3373 -20.3367 -20.3363 -20.3362 -20.3359 -20.3356 -20.3347 -20.3347
    -9.9154  -9.7545  -9.5565  -9.5553  -9.4038  -9.3994  -9.1359  -9.1261
    -9.0996  -8.9476  -8.9443  -8.9437  -8.4146  -8.3767  -8.3744  -8.3605
    -8.0340  -8.0309  -8.0090  -8.0057  -7.9814  -7.9662  -7.9365  -7.9227
     1.2420   1.2463   1.3430   1.3531   1.3601   1.3707   1.5550   1.6138
     2.1019   2.2071   2.2161   2.3534   2.5056   2.5565   2.7513   2.7713
     2.8503   2.8695   3.5038   3.5281   3.5523   3.6045   3.9447   4.2336
     4.2495   4.2554   4.2666   4.3101   4.3336   4.4492   4.5072   4.5592
     4.5765   4.5948   4.8347   4.8834   5.1210   5.1259   5.1707   5.2260
     5.5319   5.5342   5.5707   5.5742   5.6975   5.7027   6.1527   6.1718
     6.1947   6.2936   6.3424   6.4425   6.4909   6.5113   6.5624   6.5771
     6.7030   6.7129   6.8056   6.8114   6.8932   6.9008   6.9469   6.9563
     7.0200   7.0361   7.6345   7.6426   7.6548   7.6667   7.8330   7.8380
     9.6900   9.6932  10.4343  10.4745  10.5116  10.5262  11.6981  11.7483
    11.8005  11.8177  12.2372  12.2427  12.2703  12.2749  12.7735  12.8267
    12.8505  12.8780  13.2028  13.2379  13.3746  13.4011  13.4518  13.5134
    15.0255  15.1701  15.1847  15.3184  15.3333  15.5416  16.0104  16.0230
    16.0930  16.8516  17.1249  17.1527  17.2359  17.2846

          k = 0.1667 0.3236 0.3331 ( 63307 PWs)   bands (ev):

   -66.2455 -66.2452 -66.2451 -66.2448 -66.2448 -66.2445 -66.2444 -66.2441
   -30.6579 -30.6557 -30.6538 -30.6516 -30.6250 -30.6225 -30.6199 -30.6174
   -30.5813 -30.5785 -30.5745 -30.5715 -30.5660 -30.5628 -30.5590 -30.5554
   -30.5216 -30.5181 -30.5139 -30.5107 -30.5021 -30.4993 -30.4947 -30.4926
   -20.3949 -20.3946 -20.3946 -20.3943 -20.3931 -20.3930 -20.3929 -20.3928
   -20.3920 -20.3919 -20.3916 -20.3915 -20.3908 -20.3906 -20.3902 -20.3900
   -20.3860 -20.3857 -20.3855 -20.3854 -20.3850 -20.3848 -20.3845 -20.3843
   -20.3839 -20.3837 -20.3836 -20.3829 -20.3824 -20.3821 -20.3819 -20.3818
   -20.3734 -20.3733 -20.3731 -20.3729 -20.3727 -20.3725 -20.3724 -20.3722
   -20.3410 -20.3409 -20.3402 -20.3400 -20.3397 -20.3396 -20.3395 -20.3390
   -20.3383 -20.3377 -20.3370 -20.3365 -20.3359 -20.3358 -20.3350 -20.3350
    -9.7946  -9.6223  -9.5968  -9.4342  -9.3726  -9.1521  -9.1290  -9.0305
    -8.9951  -8.9530  -8.9037  -8.8664  -8.4663  -8.4301  -8.3736  -8.3647
    -8.3388  -8.2918  -8.2838  -8.2335  -8.0147  -7.9916  -7.9732  -7.9508
     1.3602   1.3652   1.3773   1.3815   1.9603   2.0158   2.0738   2.1118
     2.2008   2.2172   2.2830   2.4582   2.7584   2.7675   2.8059   2.8542
     3.0108   3.0910   3.5048   3.5423   3.5714   3.6497   3.7207   3.7751
     3.9217   3.9894   4.0782   4.1923   4.2246   4.3373   4.3705   4.4447
     4.4771   4.5210   4.5521   4.6161   4.6507   4.7128   4.8323   5.0134
     5.1067   5.1381   5.1721   5.4616   5.5944   5.7043   5.9198   5.9332
     6.3343   6.3741   6.4545   6.5347   6.5535   6.5984   6.7387   6.7550
     6.7920   6.8293   6.8473   6.8747   6.9189   6.9844   6.9995   7.0387
     7.1037   7.1184   7.5445   7.5595   7.6195   7.6525   7.7076   7.7340
    10.3002  10.3221  10.4935  10.5227  10.9455  10.9785  11.7118  11.7621
    11.7906  11.8714  11.9785  12.0487  12.3133  12.3629  12.4126  12.4579
    12.7622  12.8426  12.9008  13.0102  13.1065  13.1699  13.3992  13.4349
    15.1777  15.2979  15.5262  15.6623  15.9041  15.9502  15.9856  16.4867
    16.5627  16.7364  16.9432  17.3175  17.4153  17.4531

          k = 0.1667 0.3236-0.4997 ( 63276 PWs)   bands (ev):

   -66.2453 -66.2453 -66.2450 -66.2450 -66.2446 -66.2446 -66.2443 -66.2443
   -30.6569 -30.6568 -30.6527 -30.6527 -30.6237 -30.6237 -30.6187 -30.6186
   -30.5798 -30.5798 -30.5726 -30.5726 -30.5442 -30.5442 -30.5406 -30.5405
   -30.5366 -30.5366 -30.5329 -30.5329 -30.5009 -30.5009 -30.4937 -30.4937
   -20.3948 -20.3947 -20.3945 -20.3945 -20.3930 -20.3930 -20.3929 -20.3929
   -20.3919 -20.3919 -20.3916 -20.3915 -20.3907 -20.3907 -20.3901 -20.3901
   -20.3858 -20.3858 -20.3850 -20.3850 -20.3847 -20.3847 -20.3843 -20.3843
   -20.3842 -20.3842 -20.3836 -20.3836 -20.3823 -20.3823 -20.3819 -20.3818
   -20.3732 -20.3732 -20.3731 -20.3731 -20.3725 -20.3725 -20.3724 -20.3724
   -20.3402 -20.3402 -20.3401 -20.3401 -20.3395 -20.3394 -20.3389 -20.3389
   -20.3383 -20.3383 -20.3377 -20.3377 -20.3355 -20.3355 -20.3354 -20.3354
    -9.6754  -9.6754  -9.5036  -9.5035  -9.2049  -9.2049  -8.9708  -8.9708
    -8.7882  -8.7882  -8.7305  -8.7305  -8.6821  -8.6821  -8.6445  -8.6444
    -8.3674  -8.3674  -8.3374  -8.3374  -7.9943  -7.9943  -7.9714  -7.9714
     1.3692   1.3692   1.3872   1.3872   2.1025   2.1025   2.2031   2.2031
     2.7785   2.7785   2.9557   2.9557   2.9914   2.9914   3.0697   3.0697
     3.1046   3.1046   3.2646   3.2646   3.3201   3.3201   3.5527   3.5527
     3.7618   3.7618   3.8091   3.8091   3.8976   3.8976   4.1326   4.1326
     4.4839   4.4839   4.6128   4.6128   4.7259   4.7260   4.7606   4.7607
     4.8810   4.8810   5.2824   5.2824   5.6788   5.6788   5.7419   5.7419
     6.4440   6.4440   6.5399   6.5399   6.6097   6.6097   6.6454   6.6454
     6.8346   6.8346   6.8769   6.8769   6.9932   6.9932   7.3278   7.3278
     7.3666   7.3666   7.4019   7.4019   7.4506   7.4506   7.6661   7.6661
    10.4811  10.4811  11.0797  11.0797  11.1162  11.1162  11.5486  11.5486
    11.6403  11.6403  11.8842  11.8842  12.3880  12.3880  12.4424  12.4424
    12.6930  12.6930  12.7666  12.7666  12.9416  12.9416  13.4042  13.4042
    15.2588  15.2588  15.7839  15.7839  16.0549  16.0549  16.4721  16.4721
    16.8577  16.8577  16.9839  16.9839  17.5506  17.5506

          k = 0.1667-0.4853 0.0000 ( 63358 PWs)   bands (ev):

   -66.2457 -66.2455 -66.2450 -66.2449 -66.2448 -66.2447 -66.2442 -66.2440
   -30.6426 -30.6423 -30.6386 -30.6383 -30.6373 -30.6371 -30.6334 -30.6333
   -30.5897 -30.5858 -30.5853 -30.5784 -30.5784 -30.5770 -30.5748 -30.5704
   -30.5032 -30.4999 -30.4986 -30.4967 -30.4947 -30.4914 -30.4907 -30.4865
   -20.3942 -20.3940 -20.3936 -20.3936 -20.3935 -20.3934 -20.3932 -20.3930
   -20.3917 -20.3916 -20.3915 -20.3913 -20.3912 -20.3910 -20.3910 -20.3909
   -20.3864 -20.3862 -20.3861 -20.3859 -20.3852 -20.3851 -20.3849 -20.3848
   -20.3832 -20.3830 -20.3827 -20.3824 -20.3823 -20.3823 -20.3819 -20.3817
   -20.3736 -20.3735 -20.3729 -20.3729 -20.3728 -20.3727 -20.3722 -20.3721
   -20.3422 -20.3418 -20.3408 -20.3406 -20.3406 -20.3402 -20.3393 -20.3391
   -20.3369 -20.3363 -20.3363 -20.3363 -20.3356 -20.3353 -20.3346 -20.3345
    -9.8779  -9.8752  -9.5530  -9.5347  -9.4527  -9.4352  -9.1676  -9.1659
    -8.7595  -8.7595  -8.7078  -8.7062  -8.6970  -8.6962  -8.6944  -8.6934
    -8.0327  -8.0164  -7.9555  -7.9407  -7.9007  -7.8852  -7.8290  -7.8125
     1.0533   1.0639   1.0818   1.0951   1.3570   1.3695   1.5162   1.5252
     2.4423   2.4425   2.9238   2.9320   3.0002   3.0134   3.0289   3.0689
     3.0798   3.0912   3.0990   3.1398   3.2507   3.2935   3.3092   3.3446
     3.4479   3.4505   4.2252   4.2266   4.5530   4.5661   4.7172   4.7381
     4.8381   4.8385   4.9200   4.9262   5.0779   5.0806   5.3254   5.3290
     5.5851   5.5877   5.6128   5.6137   5.9516   5.9790   5.9797   6.0042
     6.1518   6.1560   6.2283   6.2757   6.4253   6.4511   6.6327   6.6562
     6.7968   6.8029   6.8625   6.8741   6.8914   6.9227   7.3001   7.3164
     7.3188   7.3286   7.3320   7.3363   7.3435   7.3481   7.8649   7.8653
     9.4302   9.4357  10.9682  10.9878  11.0229  11.0405  11.1190  11.1326
    11.1744  11.1966  12.1932  12.2202  12.3788  12.4084  12.9538  12.9620
    13.0868  13.0917  13.2233  13.2601  13.2922  13.2959  13.3611  13.3878
    15.0146  15.0276  15.4043  15.4141  15.4308  15.4593  15.7865  15.8092
    16.4233  16.4247  17.5012  17.5069  17.5277  17.8084

          k = 0.1667-0.4853 0.1666 ( 63358 PWs)   bands (ev):

   -66.2456 -66.2454 -66.2449 -66.2449 -66.2447 -66.2447 -66.2442 -66.2440
   -30.6421 -30.6421 -30.6386 -30.6382 -30.6376 -30.6370 -30.6337 -30.6336
[...]
    11.8618  11.8618  11.8638  11.8638  11.9224  11.9224  11.9246  11.9246
    12.7786  12.7786  12.7847  12.7847  12.9476  12.9476  12.9532  12.9532
    15.3000  15.3000  15.3010  15.3010  16.4741  16.4742  16.4853  16.4853
    17.4730  17.4730  17.4844  17.4845  17.7880  17.7881

          k =-0.5000 0.3236 0.0000 ( 63280 PWs)   bands (ev):

   -66.2454 -66.2454 -66.2451 -66.2451 -66.2446 -66.2446 -66.2443 -66.2443
   -30.6569 -30.6569 -30.6525 -30.6525 -30.6236 -30.6236 -30.6186 -30.6186
   -30.5872 -30.5872 -30.5806 -30.5806 -30.5427 -30.5427 -30.5388 -30.5388
   -30.5356 -30.5356 -30.5311 -30.5311 -30.4968 -30.4968 -30.4887 -30.4887
   -20.3949 -20.3949 -20.3943 -20.3943 -20.3932 -20.3932 -20.3928 -20.3928
   -20.3918 -20.3918 -20.3917 -20.3917 -20.3905 -20.3905 -20.3902 -20.3902
   -20.3863 -20.3863 -20.3859 -20.3859 -20.3843 -20.3843 -20.3839 -20.3839
   -20.3834 -20.3834 -20.3833 -20.3833 -20.3827 -20.3827 -20.3820 -20.3820
   -20.3732 -20.3732 -20.3731 -20.3731 -20.3725 -20.3725 -20.3724 -20.3724
   -20.3415 -20.3415 -20.3410 -20.3410 -20.3386 -20.3386 -20.3386 -20.3386
   -20.3372 -20.3372 -20.3370 -20.3370 -20.3361 -20.3361 -20.3355 -20.3355
    -9.7451  -9.7451  -9.5907  -9.5907  -9.1948  -9.1948  -8.9951  -8.9951
    -8.7716  -8.7715  -8.7369  -8.7369  -8.6847  -8.6847  -8.6386  -8.6386
    -8.3680  -8.3680  -8.3332  -8.3332  -7.8686  -7.8685  -7.8455  -7.8455
     1.0936   1.0936   1.1091   1.1091   2.1004   2.1004   2.2086   2.2086
     2.7165   2.7165   2.9299   2.9299   2.9812   2.9812   3.0720   3.0720
     3.1054   3.1054   3.2009   3.2009   3.2494   3.2494   3.4990   3.4990
     3.7462   3.7462   3.7830   3.7831   3.9504   3.9504   4.1465   4.1466
     4.6090   4.6090   4.6674   4.6674   4.8444   4.8444   4.9640   4.9640
     5.1656   5.1656   5.5456   5.5457   6.0956   6.0956   6.1119   6.1119
     6.2337   6.2337   6.2708   6.2708   6.3497   6.3497   6.5443   6.5443
     6.8449   6.8449   6.8752   6.8752   6.9343   6.9343   7.3311   7.3311
     7.3566   7.3566   7.4025   7.4026   7.4466   7.4466   7.7013   7.7013
    10.2991  10.2991  10.9964  10.9965  11.0246  11.0246  11.4844  11.4844
    11.6336  11.6336  11.8414  11.8414  12.4303  12.4303  12.4573  12.4573
    12.8324  12.8324  12.8701  12.8701  13.0897  13.0897  13.5747  13.5747
    14.9757  14.9757  15.4371  15.4371  15.9800  15.9801  16.4762  16.4762
    16.7630  16.7630  16.9546  16.9547  17.6565  17.6566

          k =-0.5000 0.3236 0.1666 ( 63286 PWs)   bands (ev):

   -66.2453 -66.2453 -66.2450 -66.2450 -66.2446 -66.2446 -66.2443 -66.2443
   -30.6566 -30.6566 -30.6528 -30.6528 -30.6232 -30.6232 -30.6189 -30.6189
   -30.5814 -30.5813 -30.5746 -30.5746 -30.5423 -30.5423 -30.5391 -30.5391
   -30.5353 -30.5353 -30.5314 -30.5314 -30.5029 -30.5029 -30.4948 -30.4948
   -20.3949 -20.3949 -20.3944 -20.3944 -20.3932 -20.3932 -20.3928 -20.3928
   -20.3918 -20.3918 -20.3917 -20.3917 -20.3905 -20.3905 -20.3903 -20.3903
   -20.3861 -20.3861 -20.3857 -20.3857 -20.3843 -20.3843 -20.3839 -20.3839
   -20.3835 -20.3835 -20.3833 -20.3833 -20.3828 -20.3828 -20.3822 -20.3822
   -20.3732 -20.3732 -20.3730 -20.3730 -20.3726 -20.3726 -20.3725 -20.3725
   -20.3412 -20.3412 -20.3407 -20.3407 -20.3385 -20.3385 -20.3385 -20.3385
   -20.3374 -20.3374 -20.3371 -20.3371 -20.3365 -20.3365 -20.3359 -20.3358
    -9.6767  -9.6767  -9.5074  -9.5074  -9.2062  -9.2062  -8.9728  -8.9728
    -8.7855  -8.7854  -8.7285  -8.7285  -8.6783  -8.6782  -8.6422  -8.6421
    -8.3655  -8.3655  -8.3376  -8.3376  -7.9954  -7.9954  -7.9724  -7.9724
     1.3584   1.3584   1.3761   1.3761   2.1028   2.1028   2.2003   2.2003
     2.7984   2.7984   2.9402   2.9402   2.9807   2.9807   3.0783   3.0783
     3.1079   3.1079   3.2845   3.2845   3.3136   3.3136   3.5440   3.5440
     3.7473   3.7473   3.7871   3.7871   3.9475   3.9476   4.1512   4.1512
     4.4727   4.4727   4.5972   4.5972   4.7303   4.7303   4.7604   4.7604
     4.8813   4.8813   5.2828   5.2829   5.6768   5.6769   5.7399   5.7399
     6.4452   6.4453   6.5465   6.5465   6.6145   6.6145   6.6486   6.6486
     6.8284   6.8284   6.8781   6.8781   6.9896   6.9896   7.3241   7.3241
     7.3607   7.3608   7.4112   7.4113   7.4520   7.4521   7.6748   7.6748
    10.4672  10.4672  11.0778  11.0778  11.1143  11.1143  11.5216  11.5216
    11.6446  11.6446  11.8858  11.8858  12.4202  12.4202  12.4460  12.4460
    12.7061  12.7061  12.7841  12.7841  12.9239  12.9239  13.4180  13.4180
    15.2588  15.2588  15.7725  15.7725  16.0532  16.0533  16.4658  16.4658
    16.8181  16.8181  16.9994  16.9994  17.5399  17.5399

          k =-0.5000 0.3236 0.3331 ( 63264 PWs)   bands (ev):

   -66.2452 -66.2452 -66.2449 -66.2449 -66.2448 -66.2448 -66.2445 -66.2445
   -30.6559 -30.6559 -30.6537 -30.6537 -30.6222 -30.6222 -30.6197 -30.6197
   -30.5653 -30.5653 -30.5585 -30.5585 -30.5412 -30.5412 -30.5400 -30.5400
   -30.5346 -30.5346 -30.5323 -30.5323 -30.5192 -30.5192 -30.5114 -30.5114
   -20.3948 -20.3948 -20.3945 -20.3945 -20.3931 -20.3931 -20.3929 -20.3929
   -20.3918 -20.3918 -20.3917 -20.3917 -20.3905 -20.3905 -20.3903 -20.3903
   -20.3856 -20.3856 -20.3853 -20.3853 -20.3845 -20.3845 -20.3840 -20.3840
   -20.3835 -20.3835 -20.3833 -20.3833 -20.3830 -20.3830 -20.3826 -20.3826
   -20.3730 -20.3730 -20.3729 -20.3729 -20.3727 -20.3727 -20.3726 -20.3726
   -20.3403 -20.3403 -20.3399 -20.3399 -20.3384 -20.3384 -20.3382 -20.3382
   -20.3378 -20.3378 -20.3376 -20.3376 -20.3371 -20.3371 -20.3367 -20.3367
    -9.5066  -9.5066  -9.2787  -9.2787  -9.2464  -9.2463  -8.8885  -8.8885
    -8.8362  -8.8362  -8.7008  -8.7007  -8.6614  -8.6614  -8.6491  -8.6491
    -8.3768  -8.3768  -8.3515  -8.3515  -8.2995  -8.2995  -8.2570  -8.2570
     1.9793   1.9793   2.0871   2.0871   2.1122   2.1122   2.2660   2.2660
     2.9361   2.9361   2.9748   2.9748   3.0089   3.0090   3.0838   3.0838
     3.1389   3.1389   3.4815   3.4815   3.5286   3.5286   3.6313   3.6313
     3.7337   3.7337   3.8176   3.8176   3.9313   3.9313   3.9831   3.9831
     4.1022   4.1022   4.2757   4.2757   4.3447   4.3447   4.6018   4.6018
     4.7039   4.7039   4.7789   4.7789   4.8291   4.8291   5.1209   5.1209
     6.6786   6.6786   6.7370   6.7370   6.7961   6.7961   6.8380   6.8380
     6.9373   6.9373   7.0465   7.0466   7.1664   7.1664   7.3018   7.3019
     7.3540   7.3540   7.4252   7.4252   7.4438   7.4438   7.5969   7.5969
    10.9260  10.9260  11.3233  11.3233  11.3936  11.3936  11.5784  11.5784
    11.6930  11.6930  12.0605  12.0605  12.1961  12.1961  12.3134  12.3134
    12.4636  12.4636  12.5436  12.5436  12.5627  12.5627  13.0158  13.0158
    15.9035  15.9035  16.2728  16.2729  16.4007  16.4007  16.6348  16.6348
    17.0258  17.0258  17.0943  17.0943  17.2518  17.2518

          k =-0.5000 0.3236-0.4997 ( 63244 PWs)   bands (ev):

   -66.2450 -66.2450 -66.2450 -66.2450 -66.2447 -66.2447 -66.2447 -66.2447
   -30.6548 -30.6548 -30.6548 -30.6548 -30.6209 -30.6209 -30.6209 -30.6209
   -30.5441 -30.5441 -30.5438 -30.5438 -30.5424 -30.5424 -30.5422 -30.5422
   -30.5334 -30.5334 -30.5333 -30.5333 -30.5318 -30.5318 -30.5317 -30.5317
   -20.3946 -20.3946 -20.3946 -20.3946 -20.3930 -20.3930 -20.3930 -20.3930
   -20.3918 -20.3917 -20.3917 -20.3917 -20.3904 -20.3904 -20.3904 -20.3904
   -20.3850 -20.3850 -20.3849 -20.3849 -20.3846 -20.3846 -20.3845 -20.3845
   -20.3834 -20.3834 -20.3832 -20.3832 -20.3831 -20.3831 -20.3830 -20.3830
   -20.3729 -20.3729 -20.3728 -20.3728 -20.3727 -20.3727 -20.3727 -20.3727
   -20.3392 -20.3392 -20.3391 -20.3391 -20.3389 -20.3389 -20.3387 -20.3387
   -20.3377 -20.3377 -20.3376 -20.3376 -20.3375 -20.3375 -20.3374 -20.3374
    -9.3395  -9.3395  -9.3387  -9.3387  -8.9974  -8.9973  -8.9947  -8.9947
    -8.7277  -8.7277  -8.7227  -8.7227  -8.5945  -8.5945  -8.5917  -8.5917
    -8.5804  -8.5804  -8.5749  -8.5749  -8.3397  -8.3397  -8.3393  -8.3393
     2.1089   2.1089   2.1092   2.1092   2.8762   2.8762   2.8828   2.8828
     2.9476   2.9477   2.9479   2.9480   3.0618   3.0618   3.0722   3.0722
     3.1463   3.1463   3.1473   3.1474   3.6804   3.6805   3.6890   3.6890
     3.7485   3.7485   3.7657   3.7657   3.8493   3.8493   3.8546   3.8547
     4.0699   4.0699   4.0831   4.0831   4.1280   4.1280   4.1333   4.1333
     4.4672   4.4672   4.4673   4.4673   4.8204   4.8204   4.8213   4.8213
     6.7501   6.7502   6.7562   6.7563   6.8229   6.8230   6.8279   6.8280
     7.1936   7.1936   7.1972   7.1972   7.2576   7.2576   7.2645   7.2645
     7.3656   7.3656   7.3672   7.3672   7.4872   7.4872   7.4922   7.4922
    11.4822  11.4822  11.4886  11.4886  11.5986  11.5986  11.6042  11.6042
    11.8803  11.8803  11.8810  11.8810  11.9525  11.9526  11.9549  11.9549
    12.4194  12.4194  12.4242  12.4242  12.5937  12.5937  12.5980  12.5980
    16.2779  16.2779  16.2801  16.2801  16.6582  16.6583  16.6671  16.6672
    17.2119  17.2119  17.2281  17.2281  17.8009  17.8015

          k =-0.5000-0.4853 0.0000 ( 63300 PWs)   bands (ev):

   -66.2453 -66.2453 -66.2451 -66.2451 -66.2445 -66.2445 -66.2443 -66.2443
   -30.6406 -30.6406 -30.6395 -30.6395 -30.6357 -30.6357 -30.6353 -30.6353
   -30.5874 -30.5874 -30.5807 -30.5807 -30.5426 -30.5426 -30.5387 -30.5387
   -30.5358 -30.5358 -30.5312 -30.5312 -30.4967 -30.4967 -30.4888 -30.4888
   -20.3941 -20.3941 -20.3936 -20.3936 -20.3935 -20.3935 -20.3931 -20.3931
   -20.3915 -20.3915 -20.3913 -20.3913 -20.3913 -20.3913 -20.3911 -20.3911
   -20.3862 -20.3862 -20.3860 -20.3860 -20.3840 -20.3840 -20.3839 -20.3839
   -20.3836 -20.3836 -20.3835 -20.3835 -20.3825 -20.3825 -20.3822 -20.3822
   -20.3732 -20.3732 -20.3731 -20.3731 -20.3725 -20.3725 -20.3724 -20.3724
   -20.3415 -20.3415 -20.3410 -20.3410 -20.3386 -20.3386 -20.3386 -20.3386
   -20.3372 -20.3372 -20.3370 -20.3370 -20.3361 -20.3361 -20.3355 -20.3355
    -9.6584  -9.6584  -9.6438  -9.6438  -8.9320  -8.9320  -8.9186  -8.9186
    -8.8163  -8.8163  -8.8074  -8.8074  -8.6228  -8.6227  -8.6041  -8.6040
    -8.5734  -8.5734  -8.5547  -8.5546  -7.8654  -7.8654  -7.8489  -7.8489
     1.0958   1.0958   1.1110   1.1110   2.8198   2.8198   2.8999   2.8999
     2.9499   2.9500   2.9651   2.9651   3.0100   3.0100   3.0360   3.0361
     3.1488   3.1488   3.1607   3.1608   3.1994   3.1994   3.2756   3.2756
     3.3053   3.3053   3.4954   3.4955   4.0141   4.0141   4.0743   4.0743
     4.0942   4.0943   4.1657   4.1657   4.8943   4.8943   4.9192   4.9192
     5.2748   5.2748   5.3163   5.3163   6.1142   6.1142   6.1183   6.1183
     6.3107   6.3107   6.3294   6.3294   6.3709   6.3709   6.3971   6.3971
     7.1072   7.1072   7.1252   7.1252   7.1465   7.1465   7.2328   7.2329
     7.2472   7.2472   7.3107   7.3107   7.4778   7.4779   7.4872   7.4872
    10.9324  10.9324  10.9662  10.9662  11.0529  11.0529  11.0817  11.0817
    11.9608  11.9608  12.0006  12.0006  12.0472  12.0472  12.0770  12.0770
    12.8344  12.8344  12.8558  12.8558  13.2782  13.2782  13.3008  13.3008
    15.2671  15.2671  15.2952  15.2952  16.4663  16.4663  16.5036  16.5036
    17.3787  17.3787  17.3992  17.3992  17.5101  17.5103

          k =-0.5000-0.4853 0.1666 ( 63276 PWs)   bands (ev):

   -66.2453 -66.2453 -66.2451 -66.2451 -66.2446 -66.2446 -66.2444 -66.2444
   -30.6402 -30.6402 -30.6393 -30.6393 -30.6360 -30.6360 -30.6356 -30.6356
   -30.5815 -30.5815 -30.5747 -30.5747 -30.5422 -30.5422 -30.5390 -30.5390
   -30.5355 -30.5355 -30.5316 -30.5316 -30.5028 -30.5028 -30.4949 -30.4949
   -20.3941 -20.3941 -20.3936 -20.3936 -20.3935 -20.3935 -20.3931 -20.3931
   -20.3915 -20.3915 -20.3913 -20.3913 -20.3913 -20.3913 -20.3911 -20.3911
   -20.3860 -20.3860 -20.3858 -20.3858 -20.3841 -20.3841 -20.3839 -20.3839
   -20.3836 -20.3836 -20.3835 -20.3835 -20.3826 -20.3826 -20.3824 -20.3824
   -20.3732 -20.3732 -20.3730 -20.3730 -20.3726 -20.3726 -20.3725 -20.3725
   -20.3412 -20.3412 -20.3407 -20.3407 -20.3385 -20.3385 -20.3385 -20.3385
   -20.3374 -20.3374 -20.3371 -20.3371 -20.3365 -20.3365 -20.3359 -20.3358
    -9.5793  -9.5793  -9.5656  -9.5656  -8.9458  -8.9458  -8.9325  -8.9325
    -8.8021  -8.8020  -8.7930  -8.7930  -8.6203  -8.6203  -8.6022  -8.6021
    -8.5753  -8.5752  -8.5570  -8.5570  -7.9924  -7.9924  -7.9758  -7.9758
     1.3640   1.3640   1.3787   1.3787   2.8268   2.8268   2.9054   2.9054
     2.9341   2.9341   2.9619   2.9619   3.0334   3.0335   3.0580   3.0580
     3.1403   3.1403   3.2344   3.2344   3.2679   3.2679   3.3282   3.3282
     3.3558   3.3558   3.5260   3.5260   4.0184   4.0184   4.0710   4.0710
     4.0911   4.0911   4.1584   4.1584   4.6171   4.6171   4.7080   4.7080
     4.9558   4.9558   5.0457   5.0457   5.6849   5.6849   5.6992   5.6992
     6.5204   6.5204   6.5730   6.5730   6.6207   6.6207   6.6595   6.6595
     7.0985   7.0985   7.1171   7.1171   7.1740   7.1740   7.2245   7.2246
     7.2446   7.2446   7.3164   7.3165   7.4668   7.4668   7.4953   7.4953
    11.0148  11.0148  11.0658  11.0658  11.1420  11.1420  11.2098  11.2098
    11.9664  11.9664  11.9994  11.9994  12.0549  12.0549  12.0722  12.0722
    12.6955  12.6955  12.7690  12.7690  13.0920  13.0920  13.1515  13.1515
    15.5949  15.5949  15.6239  15.6239  16.5365  16.5366  16.5702  16.5702
    17.3457  17.3457  17.4044  17.4044  17.5027  17.5027

          k =-0.5000-0.4853 0.3331 ( 63304 PWs)   bands (ev):

   -66.2451 -66.2451 -66.2449 -66.2449 -66.2447 -66.2447 -66.2445 -66.2445
   -30.6392 -30.6392 -30.6387 -30.6387 -30.6368 -30.6368 -30.6365 -30.6365
   -30.5653 -30.5653 -30.5586 -30.5586 -30.5411 -30.5411 -30.5399 -30.5399
   -30.5348 -30.5348 -30.5325 -30.5325 -30.5192 -30.5192 -30.5114 -30.5114
   -20.3940 -20.3940 -20.3937 -20.3937 -20.3935 -20.3935 -20.3932 -20.3932
   -20.3914 -20.3914 -20.3914 -20.3914 -20.3912 -20.3912 -20.3912 -20.3912
   -20.3855 -20.3855 -20.3852 -20.3852 -20.3843 -20.3843 -20.3841 -20.3841
   -20.3835 -20.3835 -20.3834 -20.3834 -20.3830 -20.3830 -20.3828 -20.3828
   -20.3730 -20.3730 -20.3729 -20.3729 -20.3727 -20.3727 -20.3726 -20.3726
   -20.3403 -20.3403 -20.3399 -20.3399 -20.3384 -20.3384 -20.3382 -20.3382
   -20.3378 -20.3378 -20.3376 -20.3376 -20.3371 -20.3371 -20.3367 -20.3367
    -9.3682  -9.3681  -9.3578  -9.3578  -8.9966  -8.9965  -8.9845  -8.9845
    -8.7472  -8.7472  -8.7390  -8.7390  -8.6140  -8.6140  -8.5993  -8.5993
    -8.5781  -8.5781  -8.5631  -8.5631  -8.2965  -8.2965  -8.2811  -8.2811
     2.0743   2.0743   2.0883   2.0883   2.8421   2.8421   2.8846   2.8846
     2.9371   2.9371   2.9601   2.9601   3.0558   3.0558   3.0860   3.0861
     3.2034   3.2034   3.2349   3.2350   3.4395   3.4395   3.4821   3.4821
     3.5862   3.5862   3.6644   3.6644   4.0082   4.0082   4.0206   4.0206
     4.0644   4.0644   4.1133   4.1133   4.1962   4.1962   4.2567   4.2567
     4.4516   4.4516   4.5425   4.5425   4.8534   4.8534   4.8668   4.8668
     6.8093   6.8094   6.8759   6.8759   6.9585   6.9585   6.9650   6.9650
     7.0792   7.0792   7.1339   7.1339   7.1736   7.1737   7.2068   7.2068
     7.2800   7.2800   7.3443   7.3443   7.4477   7.4477   7.4797   7.4797
    11.2845  11.2845  11.3402  11.3402  11.4586  11.4586  11.5526  11.5526
    11.9610  11.9610  12.0033  12.0033  12.0430  12.0430  12.0814  12.0814
    12.3083  12.3083  12.4456  12.4456  12.6346  12.6346  12.7278  12.7278
    16.3998  16.3998  16.4601  16.4601  16.7703  16.7704  16.7796  16.7796
    17.1998  17.1998  17.3167  17.3168  17.4881  17.4881

          k =-0.5000-0.4853-0.4997 ( 63344 PWs)   bands (ev):

   -66.2449 -66.2449 -66.2449 -66.2449 -66.2447 -66.2447 -66.2447 -66.2447
   -30.6380 -30.6380 -30.6379 -30.6379 -30.6377 -30.6377 -30.6376 -30.6376
   -30.5439 -30.5439 -30.5434 -30.5434 -30.5428 -30.5428 -30.5422 -30.5422
   -30.5333 -30.5333 -30.5332 -30.5332 -30.5321 -30.5321 -30.5321 -30.5321
   -20.3938 -20.3938 -20.3938 -20.3938 -20.3934 -20.3934 -20.3933 -20.3933
   -20.3914 -20.3914 -20.3914 -20.3914 -20.3912 -20.3912 -20.3912 -20.3912
   -20.3849 -20.3849 -20.3847 -20.3847 -20.3847 -20.3847 -20.3845 -20.3845
   -20.3835 -20.3835 -20.3833 -20.3833 -20.3832 -20.3832 -20.3831 -20.3831
   -20.3729 -20.3729 -20.3728 -20.3728 -20.3727 -20.3727 -20.3727 -20.3727
   -20.3392 -20.3392 -20.3391 -20.3391 -20.3389 -20.3389 -20.3387 -20.3387
   -20.3377 -20.3377 -20.3376 -20.3376 -20.3375 -20.3375 -20.3374 -20.3374
    -9.1307  -9.1307  -9.1270  -9.1269  -9.1212  -9.1212  -9.1207  -9.1207
    -8.6220  -8.6220  -8.6081  -8.6081  -8.5988  -8.5987  -8.5948  -8.5947
    -8.5809  -8.5809  -8.5752  -8.5752  -8.5707  -8.5707  -8.5639  -8.5639
     2.8248   2.8248   2.8270   2.8271   2.8678   2.8678   2.8697   2.8697
     2.9626   2.9626   2.9627   2.9627   3.0150   3.0150   3.0218   3.0218
     3.1814   3.1814   3.2129   3.2129   3.2835   3.2835   3.2991   3.2991
     3.9425   3.9425   3.9505   3.9505   3.9651   3.9651   3.9661   3.9661
     4.0701   4.0701   4.0786   4.0786   4.0923   4.0923   4.1041   4.1041
     4.1832   4.1832   4.1941   4.1941   4.2254   4.2255   4.2279   4.2279
     6.9621   6.9621   6.9813   6.9813   7.0457   7.0457   7.0753   7.0753
     7.1319   7.1319   7.1371   7.1372   7.1530   7.1531   7.1555   7.1555
     7.3866   7.3866   7.3891   7.3891   7.4116   7.4116   7.4199   7.4200
    11.6973  11.6973  11.6990  11.6990  11.7157  11.7157  11.7184  11.7184
    11.9413  11.9413  11.9610  11.9610  12.0292  12.0292  12.0569  12.0569
    12.1676  12.1676  12.1844  12.1844  12.2234  12.2234  12.2308  12.2308
    16.8888  16.8889  16.8957  16.8957  16.9329  16.9329  16.9497  16.9497
    17.4179  17.4179  17.4236  17.4236  17.4371  17.4371

     the Fermi energy is     9.6861 ev

!    total energy              =   -6260.41356047 Ry
     Harris-Foulkes estimate   =   -6260.41356047 Ry
     estimated scf accuracy    <          9.2E-10 Ry

     The total energy is the sum of the following terms:

     one-electron contribution =   -4794.05648949 Ry
     hartree contribution      =    2632.93215992 Ry
     xc contribution           =    -966.76969697 Ry
     ewald contribution        =   -3132.51947665 Ry
     smearing contrib. (-TS)   =      -0.00005727 Ry

     convergence has been achieved in  16 iterations

     Writing output data file Landau_9.save
 
     init_run     :     39.05s CPU     40.72s WALL (       1 calls)
     electrons    :   2078.58s CPU   2120.71s WALL (       1 calls)

     Called by init_run:
     wfcinit      :     35.38s CPU     36.91s WALL (       1 calls)
     potinit      :      1.56s CPU      1.60s WALL (       1 calls)

     Called by electrons:
     c_bands      :   1814.26s CPU   1853.98s WALL (      16 calls)
     sum_band     :    251.45s CPU    252.89s WALL (      16 calls)
     v_of_rho     :      2.25s CPU      2.29s WALL (      17 calls)
     mix_rho      :      3.82s CPU      4.54s WALL (      16 calls)

     Called by c_bands:
     init_us_2    :     14.67s CPU     15.44s WALL (      66 calls)
     cegterg      :   1404.76s CPU   1442.77s WALL (      32 calls)

     Called by sum_band:

     Called by *egterg:
     h_psi        :   1099.62s CPU   1104.51s WALL (     132 calls)
     g_psi        :      4.43s CPU      4.44s WALL (      98 calls)
     cdiaghg      :     16.43s CPU     16.47s WALL (     130 calls)

     Called by h_psi:
     h_psi:pot    :   1092.42s CPU   1097.08s WALL (     132 calls)
     h_psi:calbec :    134.91s CPU    138.09s WALL (     132 calls)
     vloc_psi     :    815.34s CPU    816.36s WALL (     132 calls)
     add_vuspsi   :    142.17s CPU    142.63s WALL (     132 calls)

     General routines
     calbec       :    134.91s CPU    138.09s WALL (     132 calls)
     fft          :      1.42s CPU      1.42s WALL (      68 calls)
     fftw         :    837.37s CPU    838.08s WALL (   39546 calls)
 
     Parallel routines
 
     PWSCF        : 35m27.89s CPU    36m14.97s WALL

 
   This run was terminated on:   2: 9:32  26Mar2020            

=------------------------------------------------------------------------------=
   JOB DONE.
=------------------------------------------------------------------------------=
