
     Program PWSCF v.6.2 (svn rev. 14038) starts on 22Mar2020 at  0: 0:14 

     This program is part of the open-source Quantum ESPRESSO suite
     for quantum simulation of materials; please cite
         "P. Giannozzi et al., J. Phys.:Condens. Matter 21 395502 (2009);
         "P. Giannozzi et al., J. Phys.:Condens. Matter 29 465901 (2017);
          URL http://www.quantum-espresso.org", 
     in publications or presentations arising from this work. More details at
     http://www.quantum-espresso.org/quote

     Parallel version (MPI), running on    40 processors

     MPI processes distributed on     7 nodes
     K-points division:     npool     =      40
     Reading input from scf.in

     Current dimensions of program PWSCF are:
     Max number of different atomic species (ntypx) = 10
     Max number of k-points (npk) =  40000
     Max angular momentum in pseudopotentials (lmaxx) =  3

     Subspace diagonalization in iterative solution of the eigenvalue problem:
     a serial algorithm will be used

 
     G-vector sticks info
     --------------------
     sticks:   dense  smooth     PW     G-vecs:    dense   smooth      PW
     Sum        7745    7745   2075               500013   500013   69273
 


     bravais-lattice index     =            0
     lattice parameter (alat)  =      13.8859  a.u.
     unit-cell volume          =    2814.9192 (a.u.)^3
     number of atoms/cell      =           32
     number of atomic types    =            2
     number of electrons       =       369.00
     number of Kohn-Sham states=          222
     kinetic-energy cutoff     =     120.0000  Ry
     charge density cutoff     =     480.0000  Ry
     convergence threshold     =      1.0E-08
     mixing beta               =       0.7000
     number of iterations used =            8  plain     mixing
     Exchange-correlation      = SLA PW NOGX NOGC ( 1  4  0  0 0 0)

     celldm(1)=  13.885916  celldm(2)=   0.000000  celldm(3)=   0.000000
     celldm(4)=   0.000000  celldm(5)=   0.000000  celldm(6)=   0.000000

     crystal axes: (cart. coord. in units of alat)
               a(1) = (   1.000000   0.000000   0.000000 )  
               a(2) = (   0.000000   1.050835   0.000000 )  
               a(3) = (   0.000000   0.000000   1.000478 )  

     reciprocal axes: (cart. coord. in units 2 pi/alat)
               b(1) = (  1.000000  0.000000  0.000000 )  
               b(2) = (  0.000000  0.951624  0.000000 )  
               b(3) = (  0.000000  0.000000  0.999522 )  


     PseudoPot. # 1 for W  read from file:
     /cluster/scratch/mnoe/QE/pps/W_ONCV_LDA-4.0.upf
     MD5 check sum: ba0307d5d4cd419d6f1d13dc49d7c13a
     Pseudo is Norm-conserving + core correction, Zval = 28.0
     Generated using ONCVPSP code by D. R. Hamann
     Using radial grid of 1380 points,  8 beta functions with: 
                l(1) =   0
                l(2) =   0
                l(3) =   1
                l(4) =   1
                l(5) =   2
                l(6) =   2
                l(7) =   3
                l(8) =   3

     PseudoPot. # 2 for O  read from file:
     /cluster/scratch/mnoe/QE/pps/O_ONCV_LDA-3.0.upf
     MD5 check sum: a1bd6164e7280c17a38c229939bfbd54
     Pseudo is Norm-conserving + core correction, Zval =  6.0
     Generated using ONCVPSP code by D. R. Hamann
     Using radial grid of  926 points,  5 beta functions with: 
                l(1) =   0
                l(2) =   0
                l(3) =   1
                l(4) =   1
                l(5) =   2

     atomic species   valence    mass     pseudopotential
        W             28.00   183.84000     W ( 1.00)
        O              6.00    15.99940     O ( 1.00)

      8 Sym. Ops., with inversion, found ( 6 have fractional translation)



   Cartesian axes

     site n.     atom                  positions (alat units)
         1           W   tau(   1) = (   0.2453800   0.2946272   0.0043721  )
         2           W   tau(   2) = (   0.7546200   0.7562081   0.9961064  )
         3           W   tau(   3) = (   0.2546200   0.2307905   0.5046113  )
         4           W   tau(   4) = (   0.7453800   0.8200448   0.4958671  )
         5           W   tau(   5) = (   0.7546200   0.2946272   0.4958671  )
         6           W   tau(   6) = (   0.2453800   0.7562081   0.5046113  )
         7           W   tau(   7) = (   0.7453800   0.2307905   0.9961064  )
         8           W   tau(   8) = (   0.2546200   0.8200448   0.0043721  )
         9           O   tau(   9) = (   0.2414700   0.0083176   0.0013607  )
        10           O   tau(  10) = (   0.7585300   1.0425177   0.9991178  )
        11           O   tau(  11) = (   0.2585300   0.5171000   0.5015999  )
        12           O   tau(  12) = (   0.7414699   0.5337352   0.4988786  )
        13           O   tau(  13) = (   0.7585300   0.0083176   0.4988786  )
        14           O   tau(  14) = (   0.2414700   1.0425177   0.5015999  )
        15           O   tau(  15) = (   0.7414699   0.5171000   0.9991178  )
        16           O   tau(  16) = (   0.2585300   0.5337352   0.0013607  )
        17           O   tau(  17) = (   0.5012600   0.2535140   0.4533897  )
        18           O   tau(  18) = (   0.4987400   0.7973213   0.5470887  )
        19           O   tau(  19) = (   0.9987400   0.2719036   0.9536289  )
        20           O   tau(  20) = (   0.0012600   0.7789316   0.0468495  )
        21           O   tau(  21) = (   0.4987400   0.2535140   0.0468495  )
        22           O   tau(  22) = (   0.5012600   0.7973213   0.9536289  )
        23           O   tau(  23) = (   0.0012600   0.2719036   0.5470887  )
        24           O   tau(  24) = (   0.9987400   0.7789316   0.4533897  )
        25           O   tau(  25) = (   0.7031729   0.2607017   0.7484379  )
        26           O   tau(  26) = (   0.2968271   0.7901335   0.2520405  )
        27           O   tau(  27) = (   0.7968271   0.2647159   0.2481987  )
        28           O   tau(  28) = (   0.2031729   0.7861194   0.7522797  )
        29           O   tau(  29) = (   0.2968271   0.2607017   0.7522797  )
        30           O   tau(  30) = (   0.7031729   0.7901335   0.2481987  )
        31           O   tau(  31) = (   0.2031729   0.2647159   0.2520405  )
        32           O   tau(  32) = (   0.7968271   0.7861194   0.7484379  )

     number of k points=    64  gaussian smearing, width (Ry)=  0.0007
                       cart. coord. in units 2pi/alat
        k(    1) = (   0.0000000   0.0000000   0.0000000), wk =   0.0092593
        k(    2) = (   0.0000000   0.0000000   0.1665870), wk =   0.0185185
        k(    3) = (   0.0000000   0.0000000   0.3331739), wk =   0.0185185
        k(    4) = (   0.0000000   0.0000000  -0.4997609), wk =   0.0092593
        k(    5) = (   0.0000000   0.1586040   0.0000000), wk =   0.0185185
        k(    6) = (   0.0000000   0.1586040   0.1665870), wk =   0.0370370
        k(    7) = (   0.0000000   0.1586040   0.3331739), wk =   0.0370370
        k(    8) = (   0.0000000   0.1586040  -0.4997609), wk =   0.0185185
        k(    9) = (   0.0000000   0.3172080   0.0000000), wk =   0.0185185
        k(   10) = (   0.0000000   0.3172080   0.1665870), wk =   0.0370370
        k(   11) = (   0.0000000   0.3172080   0.3331739), wk =   0.0370370
        k(   12) = (   0.0000000   0.3172080  -0.4997609), wk =   0.0185185
        k(   13) = (   0.0000000  -0.4758120   0.0000000), wk =   0.0092593
        k(   14) = (   0.0000000  -0.4758120   0.1665870), wk =   0.0185185
        k(   15) = (   0.0000000  -0.4758120   0.3331739), wk =   0.0185185
        k(   16) = (   0.0000000  -0.4758120  -0.4997609), wk =   0.0092593
        k(   17) = (   0.1666667   0.0000000   0.0000000), wk =   0.0185185
        k(   18) = (   0.1666667   0.0000000   0.1665870), wk =   0.0370370
        k(   19) = (   0.1666667   0.0000000   0.3331739), wk =   0.0370370
        k(   20) = (   0.1666667   0.0000000  -0.4997609), wk =   0.0185185
        k(   21) = (   0.1666667   0.1586040   0.0000000), wk =   0.0370370
        k(   22) = (   0.1666667   0.1586040   0.1665870), wk =   0.0740741
        k(   23) = (   0.1666667   0.1586040   0.3331739), wk =   0.0740741
        k(   24) = (   0.1666667   0.1586040  -0.4997609), wk =   0.0370370
        k(   25) = (   0.1666667   0.3172080   0.0000000), wk =   0.0370370
        k(   26) = (   0.1666667   0.3172080   0.1665870), wk =   0.0740741
        k(   27) = (   0.1666667   0.3172080   0.3331739), wk =   0.0740741
        k(   28) = (   0.1666667   0.3172080  -0.4997609), wk =   0.0370370
        k(   29) = (   0.1666667  -0.4758120   0.0000000), wk =   0.0185185
        k(   30) = (   0.1666667  -0.4758120   0.1665870), wk =   0.0370370
        k(   31) = (   0.1666667  -0.4758120   0.3331739), wk =   0.0370370
        k(   32) = (   0.1666667  -0.4758120  -0.4997609), wk =   0.0185185
        k(   33) = (   0.3333333   0.0000000   0.0000000), wk =   0.0185185
        k(   34) = (   0.3333333   0.0000000   0.1665870), wk =   0.0370370
        k(   35) = (   0.3333333   0.0000000   0.3331739), wk =   0.0370370
        k(   36) = (   0.3333333   0.0000000  -0.4997609), wk =   0.0185185
        k(   37) = (   0.3333333   0.1586040   0.0000000), wk =   0.0370370
        k(   38) = (   0.3333333   0.1586040   0.1665870), wk =   0.0740741
        k(   39) = (   0.3333333   0.1586040   0.3331739), wk =   0.0740741
        k(   40) = (   0.3333333   0.1586040  -0.4997609), wk =   0.0370370
        k(   41) = (   0.3333333   0.3172080   0.0000000), wk =   0.0370370
        k(   42) = (   0.3333333   0.3172080   0.1665870), wk =   0.0740741
        k(   43) = (   0.3333333   0.3172080   0.3331739), wk =   0.0740741
        k(   44) = (   0.3333333   0.3172080  -0.4997609), wk =   0.0370370
        k(   45) = (   0.3333333  -0.4758120   0.0000000), wk =   0.0185185
        k(   46) = (   0.3333333  -0.4758120   0.1665870), wk =   0.0370370
        k(   47) = (   0.3333333  -0.4758120   0.3331739), wk =   0.0370370
        k(   48) = (   0.3333333  -0.4758120  -0.4997609), wk =   0.0185185
        k(   49) = (  -0.5000000   0.0000000   0.0000000), wk =   0.0092593
        k(   50) = (  -0.5000000   0.0000000   0.1665870), wk =   0.0185185
        k(   51) = (  -0.5000000   0.0000000   0.3331739), wk =   0.0185185
        k(   52) = (  -0.5000000   0.0000000  -0.4997609), wk =   0.0092593
        k(   53) = (  -0.5000000   0.1586040   0.0000000), wk =   0.0185185
        k(   54) = (  -0.5000000   0.1586040   0.1665870), wk =   0.0370370
        k(   55) = (  -0.5000000   0.1586040   0.3331739), wk =   0.0370370
        k(   56) = (  -0.5000000   0.1586040  -0.4997609), wk =   0.0185185
        k(   57) = (  -0.5000000   0.3172080   0.0000000), wk =   0.0185185
        k(   58) = (  -0.5000000   0.3172080   0.1665870), wk =   0.0370370
        k(   59) = (  -0.5000000   0.3172080   0.3331739), wk =   0.0370370
        k(   60) = (  -0.5000000   0.3172080  -0.4997609), wk =   0.0185185
        k(   61) = (  -0.5000000  -0.4758120   0.0000000), wk =   0.0092593
        k(   62) = (  -0.5000000  -0.4758120   0.1665870), wk =   0.0185185
        k(   63) = (  -0.5000000  -0.4758120   0.3331739), wk =   0.0185185
        k(   64) = (  -0.5000000  -0.4758120  -0.4997609), wk =   0.0092593

     Dense  grid:   500013 G-vectors     FFT dimensions: ( 100, 108, 100)

     Estimated max dynamical RAM per process >       3.15 GB

     Estimated total dynamical RAM >     125.94 GB

     Initial potential from superposition of free atoms

     starting charge  367.99656, renormalised to  369.00000
     Starting wfc are  232 randomized atomic wfcs

     total cpu time spent up to now is       44.3 secs

     Self-consistent Calculation

     iteration #  1     ecut=   120.00 Ry     beta= 0.70
     Davidson diagonalization with overlap
     ethr =  1.00E-02,  avg # of iterations =  5.5

     total cpu time spent up to now is      196.6 secs

     total energy              =   -6253.08282492 Ry
     Harris-Foulkes estimate   =   -6264.06468726 Ry
     estimated scf accuracy    <      13.78749479 Ry

     iteration #  2     ecut=   120.00 Ry     beta= 0.70
     Davidson diagonalization with overlap
     ethr =  3.74E-03,  avg # of iterations =  3.6

     total cpu time spent up to now is      345.0 secs

     total energy              =   -6250.15936049 Ry
     Harris-Foulkes estimate   =   -6269.92661546 Ry
     estimated scf accuracy    <      52.16722906 Ry

     iteration #  3     ecut=   120.00 Ry     beta= 0.70
     Davidson diagonalization with overlap
     ethr =  3.74E-03,  avg # of iterations =  3.4

     total cpu time spent up to now is      484.4 secs

     total energy              =   -6260.39132939 Ry
     Harris-Foulkes estimate   =   -6260.65130933 Ry
     estimated scf accuracy    <       0.88705093 Ry

     iteration #  4     ecut=   120.00 Ry     beta= 0.70
     Davidson diagonalization with overlap
     ethr =  2.40E-04,  avg # of iterations =  3.2

     total cpu time spent up to now is      598.2 secs

     total energy              =   -6260.37561448 Ry
     Harris-Foulkes estimate   =   -6260.45235756 Ry
     estimated scf accuracy    <       0.23000272 Ry

     iteration #  5     ecut=   120.00 Ry     beta= 0.70
     Davidson diagonalization with overlap
     ethr =  6.23E-05,  avg # of iterations =  4.9

     total cpu time spent up to now is      727.1 secs

     total energy              =   -6260.38170111 Ry
     Harris-Foulkes estimate   =   -6260.41184997 Ry
     estimated scf accuracy    <       0.06897869 Ry

     iteration #  6     ecut=   120.00 Ry     beta= 0.70
     Davidson diagonalization with overlap
     ethr =  1.87E-05,  avg # of iterations =  5.7

     total cpu time spent up to now is      859.1 secs

     total energy              =   -6260.39582108 Ry
     Harris-Foulkes estimate   =   -6260.39881565 Ry
     estimated scf accuracy    <       0.00784591 Ry

     iteration #  7     ecut=   120.00 Ry     beta= 0.70
     Davidson diagonalization with overlap
     ethr =  2.13E-06,  avg # of iterations =  6.1

     total cpu time spent up to now is      989.6 secs

     total energy              =   -6260.39680749 Ry
     Harris-Foulkes estimate   =   -6260.39691428 Ry
     estimated scf accuracy    <       0.00018754 Ry

     iteration #  8     ecut=   120.00 Ry     beta= 0.70
     Davidson diagonalization with overlap
     ethr =  5.08E-08,  avg # of iterations =  3.1

     total cpu time spent up to now is     1139.2 secs

     total energy              =   -6260.39689135 Ry
     Harris-Foulkes estimate   =   -6260.39690652 Ry
     estimated scf accuracy    <       0.00006727 Ry

     iteration #  9     ecut=   120.00 Ry     beta= 0.70
     Davidson diagonalization with overlap
     ethr =  1.82E-08,  avg # of iterations =  1.0

     total cpu time spent up to now is     1244.2 secs

     total energy              =   -6260.39688537 Ry
     Harris-Foulkes estimate   =   -6260.39689493 Ry
     estimated scf accuracy    <       0.00002460 Ry

     iteration # 10     ecut=   120.00 Ry     beta= 0.70
     Davidson diagonalization with overlap
     ethr =  6.67E-09,  avg # of iterations =  2.7

     total cpu time spent up to now is     1357.1 secs

     total energy              =   -6260.39688938 Ry
     Harris-Foulkes estimate   =   -6260.39688967 Ry
     estimated scf accuracy    <       0.00000066 Ry

     iteration # 11     ecut=   120.00 Ry     beta= 0.70
     Davidson diagonalization with overlap
     ethr =  1.79E-10,  avg # of iterations =  3.0

     total cpu time spent up to now is     1496.2 secs

     total energy              =   -6260.39688955 Ry
     Harris-Foulkes estimate   =   -6260.39688964 Ry
     estimated scf accuracy    <       0.00000026 Ry

     iteration # 12     ecut=   120.00 Ry     beta= 0.70
     Davidson diagonalization with overlap
     ethr =  6.96E-11,  avg # of iterations =  1.9

     total cpu time spent up to now is     1604.7 secs

     total energy              =   -6260.39688952 Ry
     Harris-Foulkes estimate   =   -6260.39688956 Ry
     estimated scf accuracy    <       0.00000008 Ry

     iteration # 13     ecut=   120.00 Ry     beta= 0.70
     Davidson diagonalization with overlap
     ethr =  2.06E-11,  avg # of iterations =  2.6

     total cpu time spent up to now is     1737.1 secs

     End of self-consistent calculation

          k = 0.0000 0.0000 0.0000 ( 62423 PWs)   bands (ev):

   -66.0091 -66.0087 -66.0082 -66.0082 -66.0078 -66.0077 -66.0072 -66.0068
   -30.4690 -30.4652 -30.4651 -30.4615 -30.4075 -30.4039 -30.4034 -30.3999
   -30.3525 -30.3505 -30.3479 -30.3465 -30.3445 -30.3443 -30.3436 -30.3401
   -30.2526 -30.2499 -30.2498 -30.2486 -30.2468 -30.2465 -30.2447 -30.2422
   -20.1624 -20.1621 -20.1620 -20.1617 -20.1569 -20.1566 -20.1565 -20.1562
   -20.1517 -20.1515 -20.1515 -20.1513 -20.1512 -20.1511 -20.1510 -20.1509
   -20.1493 -20.1493 -20.1491 -20.1487 -20.1484 -20.1478 -20.1475 -20.1474
   -20.1464 -20.1463 -20.1460 -20.1454 -20.1452 -20.1447 -20.1444 -20.1443
   -20.1315 -20.1314 -20.1311 -20.1310 -20.1310 -20.1309 -20.1306 -20.1305
   -20.0930 -20.0930 -20.0923 -20.0923 -20.0914 -20.0914 -20.0909 -20.0909
   -20.0873 -20.0873 -20.0867 -20.0867 -20.0858 -20.0858 -20.0852 -20.0851
    -9.9443  -9.6407  -9.5245  -9.5240  -9.2243  -9.2194  -9.1332  -9.0179
    -9.0037  -8.9115  -8.8768  -8.8754  -7.8844  -7.8241  -7.8212  -7.7698
    -7.7476  -7.7442  -7.7185  -7.7172  -7.6107  -7.6077  -7.5866  -7.5843
     1.2424   1.2437   1.3054   1.3103   1.3341   1.3434   1.3543   1.5776
     1.5927   1.5989   1.6539   1.8483   2.4374   2.5195   2.5509   2.5537
     2.6969   2.7022   4.1671   4.1775   4.3815   4.4001   4.7771   4.7997
     4.8409   4.8491   4.8749   4.8753   4.9916   4.9919   5.0723   5.4168
     5.4285   5.4732   5.4984   5.5373   5.5401   5.5646   5.5833   5.8197
     5.8334   5.8497   5.8504   5.8826   5.9494   6.0749   6.0810   6.1438
     6.1462   6.2700   6.2751   6.5183   6.5216   6.7934   6.8086   6.8412
     6.8474   6.8508   7.0035   7.0162   7.0690   7.0774   7.3705   7.3816
     7.4019   7.4121   7.8658   7.8807   8.0515   8.0677   8.1172   8.1332
     9.3552   9.3579   9.9662   9.9702   9.9861   9.9915  12.3286  12.3295
    12.3810  12.3956  12.4293  12.4448  12.5510  12.5621  12.9657  13.0384
    13.2391  13.2897  13.3862  13.3990  13.8397  14.1127  14.1886  14.1965
    14.2499  14.4285  14.5052  14.7759  15.4576  15.4703  15.5476  16.1053
    16.1167  16.8737  17.0772  17.0912  17.2646  17.3717

          k = 0.0000 0.0000 0.1666 ( 62509 PWs)   bands (ev):

   -66.0091 -66.0086 -66.0082 -66.0081 -66.0078 -66.0077 -66.0073 -66.0069
   -30.4688 -30.4655 -30.4649 -30.4618 -30.4074 -30.4041 -30.4033 -30.4002
   -30.3495 -30.3473 -30.3448 -30.3427 -30.3419 -30.3404 -30.3396 -30.3370
   -30.2593 -30.2565 -30.2550 -30.2523 -30.2496 -30.2465 -30.2457 -30.2427
   -20.1623 -20.1620 -20.1620 -20.1617 -20.1569 -20.1566 -20.1565 -20.1562
   -20.1517 -20.1515 -20.1514 -20.1513 -20.1512 -20.1512 -20.1510 -20.1509
   -20.1492 -20.1491 -20.1489 -20.1488 -20.1483 -20.1477 -20.1475 -20.1475
   -20.1466 -20.1465 -20.1461 -20.1454 -20.1454 -20.1448 -20.1444 -20.1443
   -20.1315 -20.1314 -20.1311 -20.1310 -20.1310 -20.1309 -20.1306 -20.1305
   -20.0927 -20.0927 -20.0922 -20.0922 -20.0911 -20.0911 -20.0910 -20.0910
   -20.0877 -20.0877 -20.0866 -20.0866 -20.0862 -20.0862 -20.0853 -20.0853
    -9.8990  -9.5870  -9.5398  -9.4676  -9.2329  -9.1415  -9.1345  -8.9808
    -8.9625  -8.8970  -8.8797  -8.8420  -7.8873  -7.8693  -7.8524  -7.8277
    -7.8110  -7.7731  -7.7414  -7.7331  -7.7195  -7.7077  -7.6165  -7.5929
     1.3085   1.3112   1.3330   1.3489   1.4265   1.4583   1.5708   1.5936
     1.5942   1.7012   1.8271   1.9768   2.5237   2.5601   2.6099   2.6417
     2.6883   2.7907   4.1022   4.1712   4.3817   4.3875   4.4052   4.4932
     4.6224   4.7555   4.7695   4.9140   4.9160   4.9922   5.0585   5.3132
     5.3135   5.4121   5.4724   5.5418   5.5418   5.5947   5.5971   5.6189
     5.7497   5.7528   5.8178   5.9025   5.9618   6.0724   6.1420   6.1442
     6.2801   6.4395   6.5040   6.5109   6.6562   6.6932   6.7737   6.8058
     6.8298   6.8429   6.9591   6.9840   7.0158   7.0852   7.1563   7.1565
     7.2018   7.2529   7.8712   7.8761   8.0254   8.0698   8.0887   8.1186
     9.6935   9.7128   9.9728   9.9841  10.2350  10.2759  12.2654  12.3271
    12.3451  12.3968  12.4308  12.4698  12.5644  12.6488  12.9786  13.0120
    13.0646  13.2907  13.3210  13.3874  13.9472  14.0451  14.0677  14.1110
    14.2646  14.5000  14.5562  14.8857  15.4953  15.5139  15.5274  16.0888
    16.4236  16.7795  17.0462  17.2660  17.3532  17.4214

          k = 0.0000 0.0000 0.3332 ( 62480 PWs)   bands (ev):

   -66.0089 -66.0085 -66.0084 -66.0080 -66.0079 -66.0075 -66.0075 -66.0070
   -30.4682 -30.4663 -30.4644 -30.4625 -30.4068 -30.4049 -30.4028 -30.4010
   -30.3484 -30.3458 -30.3443 -30.3414 -30.3266 -30.3240 -30.3218 -30.3191
   -30.2774 -30.2747 -30.2729 -30.2702 -30.2488 -30.2466 -30.2457 -30.2435
   -20.1623 -20.1621 -20.1620 -20.1618 -20.1569 -20.1566 -20.1566 -20.1563
   -20.1515 -20.1514 -20.1513 -20.1513 -20.1512 -20.1512 -20.1511 -20.1510
   -20.1491 -20.1488 -20.1486 -20.1485 -20.1477 -20.1475 -20.1475 -20.1473
   -20.1471 -20.1470 -20.1465 -20.1460 -20.1453 -20.1450 -20.1443 -20.1443
   -20.1314 -20.1313 -20.1312 -20.1311 -20.1309 -20.1308 -20.1307 -20.1306
   -20.0921 -20.0921 -20.0916 -20.0915 -20.0913 -20.0913 -20.0901 -20.0901
   -20.0888 -20.0888 -20.0873 -20.0873 -20.0863 -20.0863 -20.0856 -20.0856
    -9.7898  -9.5887  -9.4635  -9.3389  -9.2741  -9.1693  -8.9286  -8.8911
    -8.8790  -8.8161  -8.7833  -8.7097  -8.1710  -8.1690  -8.0806  -8.0643
    -7.8607  -7.8376  -7.8057  -7.7821  -7.7077  -7.6831  -7.6405  -7.6167
     1.3138   1.3191   1.3636   1.3856   1.5247   1.5463   1.5560   1.5855
     2.2899   2.3264   2.4741   2.5522   2.5851   2.6786   2.7727   2.8744
     2.8839   3.0308   3.7724   3.8334   3.8790   3.9998   4.1300   4.2996
     4.3442   4.5188   4.5694   4.7379   4.7697   4.8240   4.9535   5.0056
     5.1431   5.1784   5.1949   5.3331   5.4295   5.4911   5.6152   5.6535
     5.6997   5.7268   5.7870   5.9593   5.9892   6.1831   6.2612   6.2925
     6.2935   6.3658   6.4740   6.5177   6.5612   6.5615   6.6303   6.7635
     6.8340   6.8582   6.8592   6.9874   7.0390   7.0459   7.0799   7.1371
     7.2902   7.3270   7.7872   7.8095   7.8980   7.9472   8.1033   8.1205
     9.9605   9.9783  10.4064  10.4766  10.8608  10.9532  11.8884  11.9372
    12.1315  12.4910  12.5586  12.5625  12.6060  12.6371  12.7494  12.9078
    12.9820  13.1793  13.2017  13.3993  13.7075  13.7382  14.0777  14.1067
    14.3578  14.4829  14.8816  15.1856  15.4052  15.6542  15.9209  16.0034
    16.2025  17.2784  17.3845  17.5615  17.5916  17.6008

          k = 0.0000 0.0000-0.4998 ( 62488 PWs)   bands (ev):

   -66.0087 -66.0087 -66.0082 -66.0082 -66.0077 -66.0077 -66.0073 -66.0073
   -30.4673 -30.4673 -30.4635 -30.4635 -30.4059 -30.4059 -30.4020 -30.4020
   -30.3471 -30.3471 -30.3428 -30.3428 -30.3021 -30.3021 -30.2994 -30.2994
   -30.2974 -30.2974 -30.2946 -30.2946 -30.2477 -30.2477 -30.2446 -30.2446
   -20.1622 -20.1622 -20.1619 -20.1619 -20.1568 -20.1568 -20.1565 -20.1565
   -20.1514 -20.1514 -20.1513 -20.1513 -20.1511 -20.1511 -20.1511 -20.1511
   -20.1489 -20.1489 -20.1479 -20.1479 -20.1478 -20.1478 -20.1474 -20.1474
   -20.1471 -20.1471 -20.1467 -20.1466 -20.1452 -20.1452 -20.1443 -20.1443
   -20.1313 -20.1313 -20.1312 -20.1312 -20.1308 -20.1308 -20.1307 -20.1307
   -20.0917 -20.0917 -20.0917 -20.0917 -20.0902 -20.0902 -20.0902 -20.0902
   -20.0887 -20.0887 -20.0887 -20.0887 -20.0860 -20.0860 -20.0859 -20.0859
    -9.6739  -9.6739  -9.3485  -9.3485  -9.2290  -9.2290  -8.9072  -8.9072
    -8.5347  -8.5346  -8.5163  -8.5163  -8.4997  -8.4997  -8.4338  -8.4338
    -7.8507  -7.8506  -7.7942  -7.7942  -7.6738  -7.6738  -7.6496  -7.6496
     1.3171   1.3171   1.3808   1.3808   1.5410   1.5410   1.5761   1.5761
     2.6177   2.6177   3.0113   3.0113   3.1427   3.1427   3.1630   3.1630
     3.2992   3.2992   3.3580   3.3581   3.4926   3.4926   3.7788   3.7788
     3.8593   3.8593   4.4597   4.4597   4.6939   4.6939   4.9145   4.9145
     5.2190   5.2190   5.3214   5.3214   5.3405   5.3406   5.6606   5.6606
     5.7360   5.7360   5.9173   5.9173   6.1519   6.1519   6.2306   6.2306
     6.3312   6.3312   6.4085   6.4085   6.4618   6.4618   6.5474   6.5474
     6.7896   6.7896   6.8385   6.8385   7.0611   7.0611   7.5017   7.5017
     7.5687   7.5687   7.6659   7.6659   7.6932   7.6932   8.1181   8.1181
     9.9700   9.9700  11.2018  11.2018  11.2718  11.2718  11.5766  11.5766
    11.7554  11.7554  12.6049  12.6049  12.7775  12.7775  12.8805  12.8805
    12.9534  12.9534  13.2964  13.2964  13.4673  13.4673  14.1005  14.1005
    14.4452  14.4453  15.1991  15.1991  15.6368  15.6369  15.8554  15.8554
    16.6744  16.6745  17.7461  17.7461  17.9489  17.9489

          k = 0.0000 0.1586 0.0000 ( 62475 PWs)   bands (ev):

   -66.0091 -66.0087 -66.0082 -66.0081 -66.0078 -66.0078 -66.0072 -66.0068
   -30.4648 -30.4611 -30.4609 -30.4574 -30.4116 -30.4079 -30.4076 -30.4041
   -30.3523 -30.3504 -30.3479 -30.3464 -30.3447 -30.3442 -30.3438 -30.3404
   -30.2524 -30.2500 -30.2497 -30.2484 -30.2470 -30.2465 -30.2446 -30.2424
   -20.1620 -20.1617 -20.1616 -20.1613 -20.1573 -20.1570 -20.1568 -20.1565
   -20.1517 -20.1515 -20.1515 -20.1513 -20.1512 -20.1511 -20.1510 -20.1509
   -20.1493 -20.1492 -20.1491 -20.1487 -20.1485 -20.1479 -20.1476 -20.1475
   -20.1463 -20.1462 -20.1460 -20.1453 -20.1453 -20.1447 -20.1445 -20.1444
   -20.1315 -20.1314 -20.1311 -20.1310 -20.1310 -20.1309 -20.1306 -20.1305
   -20.0930 -20.0930 -20.0923 -20.0923 -20.0914 -20.0914 -20.0909 -20.0909
   -20.0873 -20.0873 -20.0867 -20.0867 -20.0858 -20.0858 -20.0852 -20.0851
    -9.9128  -9.6526  -9.4843  -9.4834  -9.2320  -9.2273  -9.0579  -9.0169
    -9.0047  -8.8662  -8.8405  -8.8394  -7.9807  -7.9260  -7.9235  -7.8793
    -7.7458  -7.7438  -7.7205  -7.7192  -7.6091  -7.6066  -7.5884  -7.5860
     1.2424   1.2435   1.3213   1.3281   1.3341   1.3433   1.4957   1.6533
     1.7668   1.8211   1.8260   2.0048   2.4428   2.5138   2.6237   2.6271
     2.7662   2.7724   4.0265   4.0391   4.1025   4.1176   4.7485   4.8380
     4.8526   4.8611   4.8614   4.8716   4.9257   4.9397   4.9416   5.2621
     5.2710   5.4396   5.4432   5.5858   5.6312   5.6336   5.6367   5.6564
     5.7802   5.7850   5.8924   5.8995   5.9238   6.0746   6.0785   6.1488
     6.1507   6.2626   6.2738   6.5407   6.5475   6.8182   6.8197   6.8296
     6.8579   6.8767   6.8787   6.9869   6.9894   6.9977   7.3778   7.3873
     7.4029   7.4115   7.8696   7.8799   8.0117   8.0248   8.0412   8.0525
     9.3566   9.3581  10.1679  10.1686  10.1729  10.1733  12.2041  12.2258
    12.3865  12.3907  12.3968  12.4007  12.4291  12.4397  12.9772  13.0394
    13.2722  13.3168  13.3922  13.4031  14.0160  14.0628  14.0867  14.1010
    14.2890  14.7048  14.7353  14.9562  15.4577  15.4683  15.9512  16.0725
    16.0826  16.5263  17.2139  17.2276  17.3259  17.4574

          k = 0.0000 0.1586 0.1666 ( 62496 PWs)   bands (ev):

   -66.0091 -66.0087 -66.0082 -66.0081 -66.0078 -66.0077 -66.0072 -66.0069
   -30.4647 -30.4614 -30.4608 -30.4577 -30.4114 -30.4082 -30.4074 -30.4044
   -30.3493 -30.3473 -30.3446 -30.3429 -30.3421 -30.3408 -30.3395 -30.3372
   -30.2591 -30.2567 -30.2549 -30.2525 -30.2494 -30.2467 -30.2455 -30.2429
   -20.1620 -20.1617 -20.1617 -20.1614 -20.1573 -20.1570 -20.1569 -20.1566
   -20.1517 -20.1515 -20.1514 -20.1513 -20.1512 -20.1512 -20.1510 -20.1510
   -20.1492 -20.1490 -20.1489 -20.1487 -20.1483 -20.1477 -20.1476 -20.1475
   -20.1465 -20.1464 -20.1461 -20.1455 -20.1453 -20.1448 -20.1444 -20.1444
   -20.1315 -20.1314 -20.1311 -20.1310 -20.1310 -20.1309 -20.1306 -20.1305
   -20.0927 -20.0927 -20.0922 -20.0922 -20.0911 -20.0911 -20.0910 -20.0910
   -20.0877 -20.0877 -20.0866 -20.0866 -20.0862 -20.0862 -20.0853 -20.0853
    -9.8663  -9.5989  -9.4994  -9.4226  -9.2410  -9.1424  -9.0661  -8.9784
    -8.9635  -8.8544  -8.8435  -8.8104  -7.9804  -7.9354  -7.9225  -7.8859
    -7.8676  -7.8414  -7.7399  -7.7327  -7.7186  -7.7095  -7.6154  -7.5946
     1.3269   1.3321   1.3330   1.3489   1.5445   1.5894   1.5935   1.7748
     1.8218   1.8263   1.8525   2.0763   2.5301   2.6036   2.6328   2.7169
     2.7583   2.8605   4.0027   4.0455   4.1069   4.1417   4.4157   4.4904
     4.6608   4.6872   4.7327   4.8989   4.9072   4.9194   4.9613   5.2224
     5.2257   5.3035   5.3227   5.4602   5.5587   5.5822   5.6331   5.6951
     5.7240   5.7551   5.8316   5.8602   5.8634   6.1051   6.1392   6.1530
     6.2203   6.4182   6.4817   6.5356   6.6903   6.7668   6.7785   6.8114
     6.8148   6.8794   6.9398   6.9590   6.9958   6.9979   7.1568   7.1574
     7.2156   7.2525   7.8730   7.8758   7.9846   8.0135   8.0160   8.0432
     9.6993   9.7163  10.1692  10.1762  10.4027  10.4218  12.2009  12.2799
    12.3033  12.3282  12.4032  12.4110  12.4467  12.5421  12.9949  13.0251
    13.0867  13.3127  13.3220  13.3910  13.9403  13.9718  14.0421  14.0612
    14.3886  14.7289  14.8578  15.0502  15.4942  15.5273  15.9177  16.0550
    16.3887  16.6779  16.9031  17.3816  17.4115  17.5298

          k = 0.0000 0.1586 0.3332 ( 62523 PWs)   bands (ev):

   -66.0089 -66.0085 -66.0084 -66.0080 -66.0079 -66.0075 -66.0074 -66.0071
   -30.4641 -30.4622 -30.4603 -30.4584 -30.4109 -30.4090 -30.4070 -30.4051
   -30.3482 -30.3455 -30.3446 -30.3418 -30.3265 -30.3242 -30.3217 -30.3193
   -30.2773 -30.2749 -30.2728 -30.2703 -30.2486 -30.2464 -30.2459 -30.2437
   -20.1619 -20.1618 -20.1616 -20.1615 -20.1572 -20.1570 -20.1569 -20.1567
   -20.1515 -20.1514 -20.1513 -20.1513 -20.1512 -20.1512 -20.1511 -20.1510
   -20.1490 -20.1487 -20.1485 -20.1484 -20.1478 -20.1476 -20.1476 -20.1474
   -20.1471 -20.1469 -20.1465 -20.1460 -20.1453 -20.1450 -20.1444 -20.1444
   -20.1314 -20.1313 -20.1312 -20.1311 -20.1309 -20.1308 -20.1307 -20.1306
   -20.0921 -20.0921 -20.0916 -20.0915 -20.0913 -20.0913 -20.0901 -20.0901
   -20.0888 -20.0888 -20.0873 -20.0873 -20.0863 -20.0863 -20.0856 -20.0856
    -9.7539  -9.5489  -9.4749  -9.2829  -9.2800  -9.0945  -8.9031  -8.8874
    -8.8549  -8.8179  -8.7669  -8.6920  -8.1766  -8.1691  -8.1004  -8.0623
    -7.9517  -7.9333  -7.9066  -7.8790  -7.7068  -7.6849  -7.6395  -7.6184
     1.3424   1.3615   1.3635   1.3856   1.7157   1.7344   1.8087   1.8199
     2.2885   2.3355   2.4770   2.5679   2.6572   2.7411   2.7833   2.8710
     2.9611   3.0942   3.7734   3.8387   3.8730   3.9445   4.1248   4.1541
     4.1911   4.3355   4.5878   4.6820   4.7606   4.7938   4.8214   4.8695
     4.9886   5.1315   5.1561   5.1723   5.3534   5.3940   5.5084   5.6079
     5.6782   5.7361   5.7769   5.8365   5.9506   6.1379   6.2171   6.2669
     6.3191   6.4988   6.5383   6.5587   6.6177   6.6499   6.7124   6.7954
     6.8216   6.8222   6.9212   6.9487   6.9871   7.0236   7.0851   7.1262
     7.2849   7.3215   7.7909   7.8074   7.8630   7.8898   8.0347   8.0458
    10.1610  10.1700  10.4163  10.4797  10.9762  11.0457  11.8896  11.9350
    12.1010  12.4139  12.5086  12.5353  12.5433  12.6111  12.6896  12.8015
    12.9838  13.1835  13.2087  13.3932  13.6027  13.6490  14.0545  14.0585
    14.5877  14.7129  15.2297  15.3240  15.6424  15.8087  15.9396  15.9713
    16.3284  17.1135  17.2356  17.4403  17.6447  17.7872

          k = 0.0000 0.1586-0.4998 ( 62450 PWs)   bands (ev):

   -66.0086 -66.0086 -66.0083 -66.0083 -66.0077 -66.0077 -66.0073 -66.0073
   -30.4632 -30.4632 -30.4594 -30.4594 -30.4100 -30.4100 -30.4061 -30.4061
   -30.3468 -30.3468 -30.3431 -30.3431 -30.3020 -30.3020 -30.2996 -30.2996
   -30.2972 -30.2972 -30.2948 -30.2948 -30.2475 -30.2475 -30.2448 -30.2448
   -20.1619 -20.1619 -20.1616 -20.1616 -20.1571 -20.1571 -20.1568 -20.1568
   -20.1514 -20.1514 -20.1513 -20.1513 -20.1512 -20.1512 -20.1511 -20.1511
   -20.1488 -20.1488 -20.1479 -20.1479 -20.1477 -20.1477 -20.1474 -20.1474
   -20.1471 -20.1471 -20.1467 -20.1467 -20.1452 -20.1452 -20.1444 -20.1444
   -20.1313 -20.1313 -20.1312 -20.1312 -20.1308 -20.1308 -20.1307 -20.1307
   -20.0917 -20.0917 -20.0917 -20.0917 -20.0902 -20.0902 -20.0902 -20.0902
   -20.0887 -20.0887 -20.0887 -20.0887 -20.0860 -20.0860 -20.0859 -20.0859
    -9.6354  -9.6354  -9.3586  -9.3585  -9.1578  -9.1578  -8.8721  -8.8721
    -8.5386  -8.5386  -8.5120  -8.5120  -8.5095  -8.5094  -8.4283  -8.4282
    -7.9464  -7.9464  -7.8957  -7.8957  -7.6729  -7.6729  -7.6513  -7.6513
     1.3553   1.3553   1.3807   1.3807   1.7354   1.7354   1.8206   1.8206
     2.6871   2.6871   3.0292   3.0292   3.1551   3.1552   3.1896   3.1896
     3.3082   3.3082   3.3546   3.3546   3.4818   3.4819   3.7838   3.7838
     3.9073   3.9073   4.2462   4.2463   4.6094   4.6094   4.7405   4.7405
     5.0392   5.0392   5.2920   5.2920   5.3195   5.3195   5.4778   5.4778
     5.6892   5.6892   5.8089   5.8089   6.1561   6.1561   6.3035   6.3035
     6.3560   6.3560   6.4341   6.4341   6.5343   6.5343   6.6444   6.6444
     6.8486   6.8486   6.8513   6.8513   6.9713   6.9713   7.5116   7.5116
     7.5632   7.5632   7.6399   7.6400   7.6656   7.6656   8.0447   8.0447
    10.1692  10.1692  11.2080  11.2080  11.2698  11.2698  11.6439  11.6439
    11.8165  11.8165  12.4629  12.4629  12.7539  12.7539  12.8904  12.8904
    12.8935  12.8935  13.1960  13.1960  13.4310  13.4310  14.0553  14.0553
    14.6783  14.6783  15.5687  15.5687  15.7844  15.7844  15.8296  15.8296
    16.7182  16.7182  17.5484  17.5485  17.9674  18.0737

          k = 0.0000 0.3172 0.0000 ( 62493 PWs)   bands (ev):

   -66.0090 -66.0088 -66.0081 -66.0081 -66.0079 -66.0078 -66.0071 -66.0069
   -30.4535 -30.4499 -30.4497 -30.4462 -30.4228 -30.4192 -30.4188 -30.4154
   -30.3518 -30.3506 -30.3476 -30.3459 -30.3456 -30.3444 -30.3435 -30.3413
   -30.2519 -30.2505 -30.2491 -30.2479 -30.2476 -30.2468 -30.2443 -30.2430
   -20.1610 -20.1607 -20.1606 -20.1603 -20.1583 -20.1580 -20.1579 -20.1576
   -20.1517 -20.1516 -20.1515 -20.1514 -20.1512 -20.1512 -20.1510 -20.1509
   -20.1491 -20.1491 -20.1489 -20.1486 -20.1484 -20.1480 -20.1478 -20.1478
   -20.1461 -20.1461 -20.1459 -20.1455 -20.1452 -20.1448 -20.1447 -20.1446
   -20.1315 -20.1314 -20.1311 -20.1310 -20.1310 -20.1309 -20.1306 -20.1305
   -20.0930 -20.0930 -20.0923 -20.0923 -20.0914 -20.0914 -20.0909 -20.0909
   -20.0873 -20.0873 -20.0867 -20.0867 -20.0858 -20.0858 -20.0852 -20.0852
    -9.8364  -9.6895  -9.3930  -9.3909  -9.2576  -9.2534  -9.0143  -9.0073
    -8.8449  -8.7239  -8.7148  -8.7143  -8.2274  -8.1823  -8.1803  -8.1571
    -7.7408  -7.7397  -7.7256  -7.7244  -7.6048  -7.6026  -7.5929  -7.5905
     1.2425   1.2432   1.3310   1.3341   1.3392   1.3432   1.6156   1.6506
     2.3398   2.4575   2.4801   2.4870   2.4984   2.6447   2.8379   2.8467
     2.9683   2.9803   3.6202   3.6357   3.6691   3.6851   4.1297   4.4439
     4.4553   4.7177   4.8416   4.8592   4.8679   4.8853   5.0028   5.0130
     5.0324   5.0423   5.3437   5.3512   5.5641   5.5644   5.6894   5.6967
     5.8707   5.8741   5.9079   5.9151   6.0370   6.0646   6.0665   6.1661
     6.1695   6.2324   6.2506   6.5066   6.6056   6.6121   6.8356   6.8403
     6.8922   6.9715   7.0769   7.0773   7.0830   7.0866   7.3880   7.3916
     7.4082   7.4116   7.8053   7.8120   7.8390   7.8453   7.8790   7.8815
     9.3580   9.3583  10.6386  10.6492  10.6889  10.6941  11.8201  11.8420
    11.9510  11.9604  12.4060  12.4191  12.4264  12.4361  13.0030  13.0374
    13.3821  13.4109  13.4567  13.4667  13.8437  13.8440  13.8578  13.8737
    14.7968  15.2740  15.2812  15.4584  15.4642  15.6100  15.9420  15.9608
    15.9678  16.9551  17.2214  17.5097  17.6825  17.6945

          k = 0.0000 0.3172 0.1666 ( 62482 PWs)   bands (ev):

   -66.0090 -66.0088 -66.0081 -66.0080 -66.0079 -66.0078 -66.0072 -66.0070
   -30.4534 -30.4502 -30.4495 -30.4465 -30.4226 -30.4195 -30.4187 -30.4157
   -30.3487 -30.3474 -30.3438 -30.3431 -30.3426 -30.3417 -30.3391 -30.3378
   -30.2586 -30.2572 -30.2543 -30.2530 -30.2488 -30.2473 -30.2450 -30.2434
   -20.1610 -20.1607 -20.1607 -20.1604 -20.1583 -20.1580 -20.1579 -20.1576
   -20.1516 -20.1515 -20.1514 -20.1513 -20.1512 -20.1512 -20.1510 -20.1510
   -20.1490 -20.1489 -20.1488 -20.1484 -20.1484 -20.1479 -20.1478 -20.1478
   -20.1463 -20.1463 -20.1460 -20.1457 -20.1452 -20.1449 -20.1447 -20.1446
   -20.1315 -20.1314 -20.1311 -20.1311 -20.1309 -20.1309 -20.1306 -20.1305
   -20.0927 -20.0927 -20.0922 -20.0922 -20.0911 -20.0911 -20.0910 -20.0910
   -20.0877 -20.0877 -20.0866 -20.0866 -20.0862 -20.0862 -20.0853 -20.0853
    -9.7868  -9.6360  -9.4069  -9.3190  -9.2677  -9.1690  -8.9744  -8.9663
    -8.8529  -8.7188  -8.7167  -8.6968  -8.2275  -8.1893  -8.1771  -8.1628
    -7.8629  -7.8496  -7.7359  -7.7302  -7.7213  -7.7143  -7.6114  -7.5992
     1.3320   1.3330   1.3444   1.3487   1.5840   1.5930   1.7764   1.8232
     2.3424   2.4628   2.4851   2.5456   2.5878   2.6383   2.8459   2.9472
     2.9610   3.0743   3.6378   3.6636   3.6754   3.7155   4.1209   4.4153
     4.4430   4.4618   4.5126   4.7224   4.7276   4.8316   4.9114   4.9233
     5.0046   5.0555   5.1418   5.2921   5.3822   5.4469   5.5712   5.6399
     5.6788   5.7903   5.8027   5.8528   6.0524   6.1178   6.1354   6.1621
     6.2257   6.4354   6.4419   6.5675   6.5977   6.8207   6.8462   6.9062
     6.9465   6.9676   7.0503   7.0688   7.0761   7.0847   7.1569   7.1677
     7.2455   7.2593   7.7877   7.8082   7.8128   7.8261   7.8795   7.8827
     9.7082   9.7168  10.6539  10.6945  10.8205  10.8593  11.8403  11.9145
    11.9612  12.0307  12.3083  12.3235  12.4689  12.4919  13.0241  13.0487
    13.1955  13.3627  13.3923  13.4528  13.6910  13.7478  13.8449  13.8549
    14.9329  15.2716  15.4879  15.4925  15.5306  15.6776  15.9416  16.1029
    16.2684  16.9187  17.2933  17.2935  17.5802  17.7953

          k = 0.0000 0.3172 0.3332 ( 62457 PWs)   bands (ev):

   -66.0088 -66.0086 -66.0083 -66.0081 -66.0078 -66.0076 -66.0073 -66.0071
   -30.4528 -30.4510 -30.4490 -30.4472 -30.4221 -30.4202 -30.4182 -30.4164
   -30.3475 -30.3454 -30.3448 -30.3426 -30.3261 -30.3247 -30.3212 -30.3198
   -30.2768 -30.2754 -30.2723 -30.2709 -30.2480 -30.2465 -30.2458 -30.2443
   -20.1610 -20.1608 -20.1607 -20.1605 -20.1582 -20.1580 -20.1579 -20.1577
   -20.1515 -20.1514 -20.1513 -20.1513 -20.1512 -20.1512 -20.1511 -20.1510
   -20.1488 -20.1485 -20.1485 -20.1483 -20.1479 -20.1478 -20.1477 -20.1475
   -20.1469 -20.1468 -20.1465 -20.1462 -20.1451 -20.1450 -20.1446 -20.1446
   -20.1314 -20.1313 -20.1312 -20.1311 -20.1309 -20.1308 -20.1306 -20.1306
   -20.0921 -20.0921 -20.0916 -20.0915 -20.0913 -20.0913 -20.0901 -20.0901
   -20.0888 -20.0888 -20.0873 -20.0873 -20.0863 -20.0863 -20.0856 -20.0856
    -9.6677  -9.5113  -9.4566  -9.3117  -9.1335  -8.9178  -8.8834  -8.8560
    -8.8233  -8.7318  -8.6788  -8.6211  -8.2632  -8.2495  -8.1813  -8.1677
    -8.1631  -8.1064  -8.0563  -8.0158  -7.7027  -7.6898  -7.6354  -7.6230
     1.3580   1.3633   1.3798   1.3852   2.1919   2.2843   2.2844   2.3626
     2.4755   2.4860   2.5028   2.7311   2.8109   2.8410   2.8682   2.9520
     3.1939   3.2914   3.6230   3.6441   3.7281   3.7739   3.8596   3.8695
     4.1012   4.2582   4.3660   4.3730   4.4644   4.5648   4.6362   4.7791
     4.7917   4.8130   4.9665   5.0316   5.1796   5.1844   5.1868   5.3353
     5.3691   5.5886   5.6236   5.8050   6.1471   6.2090   6.2218   6.2731
     6.4007   6.5576   6.6252   6.6523   6.6772   6.7884   6.8088   6.8309
     6.9019   6.9613   7.0137   7.0380   7.0561   7.1300   7.1587   7.1815
     7.2643   7.3090   7.7083   7.7203   7.7774   7.8036   7.8188   7.8503
    10.4347  10.4458  10.6689  10.7004  11.2934  11.3291  11.8154  11.9099
    11.9284  11.9927  12.2040  12.2670  12.6242  12.6582  12.6773  12.7033
    12.9505  13.1650  13.1990  13.3791  13.4489  13.5134  13.8414  13.8517
    15.1111  15.2441  15.5934  15.8503  15.8643  16.0242  16.0603  16.5998
    16.7284  16.7928  17.0851  17.5423  17.6469  17.7095

          k = 0.0000 0.3172-0.4998 ( 62488 PWs)   bands (ev):

   -66.0086 -66.0086 -66.0083 -66.0083 -66.0076 -66.0076 -66.0074 -66.0074
   -30.4520 -30.4520 -30.4482 -30.4482 -30.4212 -30.4212 -30.4174 -30.4174
   -30.3461 -30.3461 -30.3440 -30.3440 -30.3015 -30.3015 -30.3001 -30.3001
   -30.2968 -30.2968 -30.2954 -30.2954 -30.2469 -30.2469 -30.2454 -30.2454
   -20.1609 -20.1609 -20.1606 -20.1606 -20.1581 -20.1581 -20.1578 -20.1578
   -20.1514 -20.1514 -20.1513 -20.1513 -20.1512 -20.1512 -20.1511 -20.1511
   -20.1486 -20.1486 -20.1480 -20.1480 -20.1476 -20.1476 -20.1474 -20.1474
   -20.1472 -20.1472 -20.1469 -20.1469 -20.1451 -20.1451 -20.1446 -20.1446
   -20.1312 -20.1312 -20.1312 -20.1312 -20.1307 -20.1307 -20.1307 -20.1307
   -20.0917 -20.0917 -20.0917 -20.0917 -20.0902 -20.0902 -20.0902 -20.0902
   -20.0887 -20.0887 -20.0887 -20.0887 -20.0860 -20.0859 -20.0859 -20.0859
    -9.5443  -9.5443  -9.3911  -9.3911  -8.9617  -8.9617  -8.7605  -8.7605
    -8.5597  -8.5596  -8.5488  -8.5487  -8.4936  -8.4936  -8.4069  -8.4069
    -8.1797  -8.1797  -8.1380  -8.1380  -7.6688  -7.6688  -7.6561  -7.6561
     1.3743   1.3743   1.3803   1.3803   2.3448   2.3448   2.4777   2.4777
     2.8870   2.8870   3.0792   3.0792   3.1303   3.1303   3.2767   3.2767
     3.3425   3.3425   3.3581   3.3581   3.4396   3.4396   3.6482   3.6482
     4.0373   4.0373   4.0893   4.0893   4.0917   4.0917   4.3349   4.3350
     4.7951   4.7952   4.8981   4.8981   5.0900   5.0900   5.2625   5.2625
     5.4259   5.4259   5.7134   5.7134   6.2909   6.2909   6.3540   6.3540
     6.4623   6.4623   6.5023   6.5023   6.5377   6.5377   6.7449   6.7449
     7.0263   7.0263   7.0359   7.0359   7.0834   7.0834   7.5058   7.5058
     7.5425   7.5425   7.5457   7.5458   7.5961   7.5961   7.8288   7.8288
    10.6721  10.6721  11.2218  11.2218  11.2655  11.2655  11.7390  11.7390
    12.0059  12.0059  12.1588  12.1588  12.6153  12.6153  12.6596  12.6596
    12.9097  12.9097  13.0129  13.0129  13.4496  13.4496  13.8446  13.8446
    15.1936  15.1936  15.7397  15.7397  16.2210  16.2210  16.5162  16.5162
    16.9039  16.9039  17.1668  17.1668  17.9431  17.9431

          k = 0.0000-0.4758 0.0000 ( 62506 PWs)   bands (ev):

   -66.0089 -66.0089 -66.0080 -66.0080 -66.0080 -66.0080 -66.0070 -66.0070
   -30.4381 -30.4381 -30.4345 -30.4345 -30.4343 -30.4343 -30.4308 -30.4308
   -30.3511 -30.3511 -30.3467 -30.3467 -30.3452 -30.3452 -30.3424 -30.3424
   -30.2512 -30.2512 -30.2484 -30.2484 -30.2473 -30.2473 -30.2437 -30.2437
   -20.1597 -20.1597 -20.1593 -20.1593 -20.1593 -20.1593 -20.1590 -20.1590
   -20.1516 -20.1516 -20.1514 -20.1514 -20.1512 -20.1512 -20.1510 -20.1510
   -20.1491 -20.1491 -20.1488 -20.1487 -20.1481 -20.1481 -20.1480 -20.1479
   -20.1459 -20.1459 -20.1458 -20.1458 -20.1449 -20.1449 -20.1448 -20.1448
   -20.1315 -20.1315 -20.1311 -20.1311 -20.1310 -20.1310 -20.1305 -20.1305
   -20.0930 -20.0930 -20.0923 -20.0923 -20.0914 -20.0914 -20.0909 -20.0909
   -20.0873 -20.0873 -20.0867 -20.0867 -20.0858 -20.0858 -20.0852 -20.0852
    -9.7529  -9.7529  -9.3090  -9.3090  -9.3056  -9.3056  -9.0108  -9.0108
    -8.5393  -8.5393  -8.4809  -8.4809  -8.4796  -8.4796  -8.4790  -8.4790
    -7.7356  -7.7356  -7.7299  -7.7299  -7.5989  -7.5989  -7.5966  -7.5966
     1.2428   1.2428   1.3336   1.3336   1.3423   1.3423   1.6427   1.6427
     2.4777   2.4777   3.1273   3.1273   3.1827   3.1827   3.2549   3.2549
     3.2655   3.2656   3.2668   3.2669   3.4567   3.4567   3.4723   3.4723
     3.6430   3.6430   4.8533   4.8533   4.8693   4.8693   5.1706   5.1706
     5.1914   5.1914   5.2842   5.2842   5.2929   5.2929   5.7596   5.7596
     5.7672   5.7672   6.0171   6.0171   6.0342   6.0342   6.1782   6.1782
     6.1998   6.1998   6.2574   6.2574   6.7059   6.7059   6.7118   6.7118
     6.9331   6.9331   7.3785   7.3785   7.3842   7.3842   7.4523   7.4523
     7.4543   7.4543   7.5195   7.5195   7.5205   7.5205   7.8779   7.8779
     9.3584   9.3585  11.2477  11.2477  11.2659  11.2659  11.3305  11.3305
    11.3513  11.3513  12.4196  12.4196  12.4312  12.4312  13.0258  13.0258
    13.5714  13.5714  13.6032  13.6032  13.6217  13.6217  13.6329  13.6329
    15.3485  15.3485  15.4613  15.4613  15.7211  15.7211  15.7254  15.7254
    16.5234  16.5234  17.8099  17.8099  18.1274  18.1274

          k = 0.0000-0.4758 0.1666 ( 62466 PWs)   bands (ev):

   -66.0089 -66.0089 -66.0080 -66.0080 -66.0079 -66.0079 -66.0071 -66.0071
   -30.4380 -30.4380 -30.4348 -30.4348 -30.4341 -30.4341 -30.4311 -30.4311
   -30.3479 -30.3479 -30.3430 -30.3430 -30.3428 -30.3428 -30.3385 -30.3385
   -30.2579 -30.2579 -30.2537 -30.2537 -30.2481 -30.2481 -30.2442 -30.2442
   -20.1596 -20.1596 -20.1593 -20.1593 -20.1593 -20.1593 -20.1590 -20.1590
   -20.1516 -20.1516 -20.1514 -20.1514 -20.1512 -20.1512 -20.1510 -20.1510
   -20.1489 -20.1489 -20.1486 -20.1486 -20.1481 -20.1481 -20.1479 -20.1479
   -20.1461 -20.1461 -20.1460 -20.1460 -20.1449 -20.1449 -20.1448 -20.1448
   -20.1314 -20.1314 -20.1311 -20.1311 -20.1309 -20.1309 -20.1306 -20.1306
   -20.0927 -20.0927 -20.0922 -20.0922 -20.0911 -20.0911 -20.0910 -20.0910
   -20.0877 -20.0877 -20.0866 -20.0866 -20.0862 -20.0862 -20.0853 -20.0853
    -9.7007  -9.7007  -9.3209  -9.3209  -9.2244  -9.2244  -8.9701  -8.9701
    -8.5450  -8.5450  -8.4862  -8.4861  -8.4775  -8.4775  -8.4724  -8.4723
    -7.8564  -7.8564  -7.7310  -7.7310  -7.7200  -7.7200  -7.6053  -7.6053
     1.3328   1.3328   1.3478   1.3478   1.5911   1.5911   1.8135   1.8135
     2.5668   2.5668   3.1404   3.1404   3.1845   3.1845   3.2540   3.2540
     3.2682   3.2683   3.3059   3.3059   3.4650   3.4650   3.5126   3.5126
     3.6739   3.6739   4.4675   4.4675   4.8982   4.8982   4.9472   4.9472
     5.0901   5.0902   5.1689   5.1689   5.3029   5.3029   5.4910   5.4910
     5.7382   5.7382   5.7982   5.7982   6.1293   6.1293   6.1499   6.1499
     6.3679   6.3679   6.4398   6.4398   6.6962   6.6962   6.8860   6.8860
     6.9948   6.9948   7.1519   7.1519   7.2045   7.2045   7.4401   7.4401
     7.4613   7.4613   7.4906   7.4906   7.5054   7.5054   7.8780   7.8780
     9.7140   9.7140  11.2700  11.2700  11.3409  11.3409  11.3767  11.3767
    11.4561  11.4561  12.3169  12.3169  12.4819  12.4819  13.0512  13.0512
    13.3958  13.3958  13.4874  13.4874  13.6136  13.6136  13.6234  13.6234
    15.4031  15.4032  15.6042  15.6043  15.7069  15.7070  16.0017  16.0017
    16.5901  16.5901  17.7783  17.7783  17.8539  17.8539

          k = 0.0000-0.4758 0.3332 ( 62458 PWs)   bands (ev):

   -66.0087 -66.0087 -66.0082 -66.0082 -66.0077 -66.0077 -66.0072 -66.0072
   -30.4374 -30.4374 -30.4356 -30.4356 -30.4337 -30.4337 -30.4319 -30.4319
   -30.3465 -30.3464 -30.3437 -30.3437 -30.3254 -30.3254 -30.3205 -30.3205
   -30.2761 -30.2761 -30.2716 -30.2716 -30.2473 -30.2473 -30.2451 -30.2451
   -20.1596 -20.1596 -20.1594 -20.1594 -20.1593 -20.1593 -20.1591 -20.1591
   -20.1515 -20.1515 -20.1513 -20.1513 -20.1513 -20.1513 -20.1510 -20.1510
   -20.1485 -20.1485 -20.1482 -20.1482 -20.1481 -20.1481 -20.1477 -20.1477
   -20.1466 -20.1466 -20.1465 -20.1465 -20.1449 -20.1449 -20.1448 -20.1448
   -20.1313 -20.1313 -20.1311 -20.1311 -20.1308 -20.1308 -20.1306 -20.1306
   -20.0921 -20.0921 -20.0916 -20.0915 -20.0913 -20.0913 -20.0901 -20.0901
   -20.0888 -20.0888 -20.0873 -20.0873 -20.0863 -20.0863 -20.0856 -20.0856
    -9.5768  -9.5768  -9.3681  -9.3681  -8.9919  -8.9919  -8.8337  -8.8337
    -8.5764  -8.5764  -8.5073  -8.5073  -8.4671  -8.4670  -8.4435  -8.4435
    -8.1516  -8.1516  -8.0452  -8.0452  -7.6964  -7.6964  -7.6293  -7.6293
     1.3621   1.3621   1.3840   1.3840   2.2734   2.2734   2.4546   2.4546
     2.8248   2.8248   3.1559   3.1559   3.1958   3.1958   3.2452   3.2452
     3.2603   3.2603   3.3870   3.3870   3.4559   3.4560   3.6695   3.6695
     3.7508   3.7508   3.8570   3.8570   4.4499   4.4499   4.6109   4.6110
     4.7879   4.7879   4.8529   4.8529   5.1996   5.1996   5.2165   5.2165
     5.3573   5.3573   5.6593   5.6593   6.2084   6.2084   6.2689   6.2689
     6.5085   6.5085   6.6487   6.6487   6.6947   6.6947   6.8467   6.8467
     7.0186   7.0186   7.1639   7.1639   7.1750   7.1750   7.4183   7.4183
     7.4485   7.4485   7.4808   7.4808   7.4874   7.4874   7.8095   7.8095
    10.4480  10.4480  11.2828  11.2828  11.3255  11.3255  11.7499  11.7499
    11.8046  11.8046  11.9240  11.9240  12.6464  12.6464  12.8129  12.8129
    12.9268  12.9268  13.2447  13.2447  13.6017  13.6017  13.6190  13.6190
    15.4477  15.4477  15.6457  15.6457  16.1818  16.1818  16.7314  16.7314
    16.8379  16.8379  17.2693  17.2693  17.9482  17.9482

          k = 0.0000-0.4758-0.4998 ( 62500 PWs)   bands (ev):

   -66.0085 -66.0085 -66.0084 -66.0084 -66.0075 -66.0075 -66.0075 -66.0075
   -30.4366 -30.4366 -30.4366 -30.4366 -30.4328 -30.4328 -30.4328 -30.4328
   -30.3451 -30.3451 -30.3451 -30.3451 -30.3008 -30.3008 -30.3008 -30.3008
   -30.2961 -30.2961 -30.2961 -30.2961 -30.2462 -30.2462 -30.2462 -30.2462
   -20.1595 -20.1595 -20.1595 -20.1595 -20.1592 -20.1592 -20.1592 -20.1592
   -20.1514 -20.1514 -20.1514 -20.1514 -20.1511 -20.1511 -20.1511 -20.1511
   -20.1483 -20.1483 -20.1483 -20.1483 -20.1474 -20.1474 -20.1473 -20.1473
   -20.1472 -20.1472 -20.1472 -20.1472 -20.1449 -20.1449 -20.1449 -20.1449
   -20.1312 -20.1312 -20.1312 -20.1312 -20.1307 -20.1307 -20.1307 -20.1307
   -20.0917 -20.0917 -20.0917 -20.0917 -20.0902 -20.0902 -20.0902 -20.0902
   -20.0887 -20.0887 -20.0887 -20.0887 -20.0860 -20.0859 -20.0859 -20.0859
    -9.4529  -9.4529  -9.4529  -9.4528  -8.7105  -8.7104  -8.7104  -8.7104
    -8.6108  -8.6108  -8.6108  -8.6108  -8.4107  -8.4106  -8.4106  -8.4106
    -8.3392  -8.3392  -8.3391  -8.3391  -7.6625  -7.6625  -7.6625  -7.6625
     1.3789   1.3789   1.3790   1.3790   3.0315   3.0315   3.0315   3.0315
     3.1475   3.1475   3.1475   3.1475   3.2265   3.2265   3.2265   3.2265
     3.2913   3.2913   3.2913   3.2914   3.4665   3.4665   3.4665   3.4665
     3.6067   3.6067   3.6067   3.6068   4.2802   4.2802   4.2802   4.2802
     4.3867   4.3867   4.3867   4.3867   5.1921   5.1921   5.1921   5.1921
     5.5067   5.5067   5.5067   5.5068   6.3459   6.3459   6.3459   6.3459
     6.5168   6.5168   6.5168   6.5168   6.6213   6.6213   6.6213   6.6213
     7.2778   7.2778   7.2779   7.2779   7.3513   7.3513   7.3513   7.3514
     7.4481   7.4481   7.4481   7.4481   7.6026   7.6026   7.6026   7.6026
    11.2034  11.2034  11.2034  11.2034  11.3447  11.3447  11.3447  11.3447
    12.2996  12.2996  12.2996  12.2996  12.3229  12.3229  12.3229  12.3229
    12.9353  12.9353  12.9353  12.9353  13.6057  13.6057  13.6057  13.6057
    15.5488  15.5488  15.5488  15.5488  16.7643  16.7643  16.7643  16.7643
    17.4124  17.4124  17.4125  17.4125  17.5521  17.5521

          k = 0.1667 0.0000 0.0000 ( 62495 PWs)   bands (ev):

   -66.0091 -66.0086 -66.0082 -66.0081 -66.0078 -66.0077 -66.0073 -66.0069
   -30.4688 -30.4654 -30.4651 -30.4618 -30.4073 -30.4037 -30.4037 -30.4002
   -30.3518 -30.3487 -30.3469 -30.3440 -30.3426 -30.3384 -30.3375 -30.3336
   -30.2566 -30.2535 -30.2523 -30.2523 -30.2503 -30.2495 -30.2474 -30.2457
   -20.1623 -20.1621 -20.1620 -20.1617 -20.1569 -20.1566 -20.1565 -20.1562
   -20.1517 -20.1515 -20.1515 -20.1513 -20.1512 -20.1511 -20.1510 -20.1509
   -20.1492 -20.1492 -20.1491 -20.1485 -20.1485 -20.1477 -20.1473 -20.1472
   -20.1464 -20.1463 -20.1461 -20.1456 -20.1452 -20.1448 -20.1446 -20.1445
   -20.1315 -20.1314 -20.1311 -20.1310 -20.1310 -20.1309 -20.1306 -20.1305
   -20.0929 -20.0929 -20.0920 -20.0920 -20.0916 -20.0915 -20.0905 -20.0905
   -20.0872 -20.0872 -20.0871 -20.0871 -20.0860 -20.0860 -20.0855 -20.0855
    -9.8993  -9.5877  -9.5404  -9.4675  -9.2377  -9.1416  -9.1298  -8.9817
    -8.9619  -8.8957  -8.8811  -8.8402  -7.8941  -7.8541  -7.8532  -7.8249
    -7.8145  -7.7732  -7.7422  -7.7310  -7.7202  -7.7087  -7.6195  -7.5952
     1.3055   1.3066   1.3273   1.3397   1.4255   1.4592   1.5709   1.5879
     1.6017   1.7096   1.8330   1.9805   2.5224   2.5633   2.6097   2.6392
     2.6933   2.7866   4.0964   4.1796   4.3722   4.3773   4.4214   4.4938
     4.6158   4.7459   4.7951   4.9016   4.9210   4.9772   5.0492   5.3263
     5.3396   5.4058   5.4751   5.5279   5.5550   5.5772   5.6090   5.6173
     5.7507   5.7648   5.8092   5.8985   5.9719   6.0725   6.1360   6.1408
     6.2968   6.4364   6.4888   6.5053   6.6711   6.6996   6.7610   6.7915
     6.8328   6.8533   6.9546   6.9898   7.0105   7.0740   7.1645   7.1675
     7.1976   7.2444   7.8716   7.8763   8.0115   8.0747   8.0854   8.1340
     9.6930   9.7214   9.9686   9.9898  10.2314  10.2739  12.2872  12.2965
    12.3475  12.3928  12.4531  12.4547  12.5539  12.6573  12.9293  13.0144
    13.1876  13.2066  13.3280  13.3995  13.9068  14.0249  14.1633  14.1865
    14.1951  14.4229  14.5887  14.8866  15.4955  15.5131  15.5223  16.0776
    16.4338  16.7701  17.0444  17.2804  17.3531  17.4211

          k = 0.1667 0.0000 0.1666 ( 62464 PWs)   bands (ev):

   -66.0090 -66.0086 -66.0082 -66.0082 -66.0078 -66.0077 -66.0073 -66.0069
   -30.4686 -30.4654 -30.4652 -30.4621 -30.4071 -30.4040 -30.4036 -30.4005
   -30.3455 -30.3435 -30.3410 -30.3406 -30.3383 -30.3373 -30.3370 -30.3339
   -30.2590 -30.2567 -30.2563 -30.2551 -30.2538 -30.2528 -30.2514 -30.2491
   -20.1623 -20.1621 -20.1620 -20.1618 -20.1569 -20.1566 -20.1565 -20.1562
   -20.1517 -20.1515 -20.1514 -20.1513 -20.1512 -20.1511 -20.1510 -20.1510
   -20.1491 -20.1491 -20.1489 -20.1485 -20.1483 -20.1476 -20.1473 -20.1472
   -20.1466 -20.1465 -20.1462 -20.1456 -20.1454 -20.1449 -20.1446 -20.1445
   -20.1314 -20.1313 -20.1311 -20.1310 -20.1310 -20.1309 -20.1306 -20.1305
   -20.0926 -20.0926 -20.0919 -20.0919 -20.0912 -20.0912 -20.0906 -20.0906
   -20.0876 -20.0876 -20.0870 -20.0870 -20.0863 -20.0863 -20.0857 -20.0857
    -9.8520  -9.5288  -9.4834  -9.4831  -9.1503  -9.1481  -9.1435  -8.9403
    -8.9258  -8.8874  -8.8466  -8.8448  -7.8958  -7.8612  -7.8488  -7.8463
    -7.8449  -7.8155  -7.8118  -7.7766  -7.7669  -7.7498  -7.7249  -7.7028
     1.4071   1.4524   1.4524   1.5034   1.5045   1.5638   1.5996   1.6077
     1.7038   1.7121   1.9161   2.0601   2.6093   2.6478   2.6504   2.7041
     2.7649   2.7995   4.1012   4.1067   4.3427   4.3473   4.4796   4.4804
     4.5544   4.5560   4.6476   4.6517   4.7191   4.7820   5.0363   5.2621
     5.2633   5.3342   5.3424   5.4731   5.4838   5.6037   5.6089   5.6736
     5.6763   5.7381   5.7668   5.7705   5.7926   5.9798   6.2848   6.4420
     6.4710   6.4896   6.5489   6.6367   6.6753   6.6779   6.6815   6.7139
     6.7349   6.8204   6.8300   6.8712   6.8824   6.9764   6.9791   7.0799
     7.2890   7.3390   7.8680   7.8682   8.0192   8.0634   8.0763   8.0897
     9.9146   9.9787  10.2209  10.2370  10.2438  10.3348  12.3224  12.3423
    12.3470  12.3638  12.3876  12.4181  12.6381  12.6479  12.9443  12.9961
    13.0593  13.1957  13.2010  13.3889  13.9550  13.9981  14.0424  14.0861
    14.2132  14.5485  14.5810  15.0042  15.4805  15.5852  15.5999  16.3895
    16.3997  16.9330  16.9398  17.1853  17.4400  17.4685

          k = 0.1667 0.0000 0.3332 ( 62483 PWs)   bands (ev):

   -66.0088 -66.0084 -66.0084 -66.0080 -66.0079 -66.0076 -66.0075 -66.0071
   -30.4680 -30.4661 -30.4647 -30.4628 -30.4066 -30.4047 -30.4031 -30.4013
   -30.3418 -30.3392 -30.3380 -30.3350 -30.3261 -30.3236 -30.3221 -30.3194
   -30.2771 -30.2744 -30.2733 -30.2705 -30.2554 -30.2532 -30.2523 -30.2501
   -20.1623 -20.1621 -20.1620 -20.1619 -20.1569 -20.1566 -20.1566 -20.1564
   -20.1515 -20.1514 -20.1513 -20.1513 -20.1512 -20.1512 -20.1511 -20.1510
   -20.1489 -20.1486 -20.1486 -20.1485 -20.1478 -20.1473 -20.1473 -20.1472
   -20.1471 -20.1470 -20.1465 -20.1459 -20.1455 -20.1452 -20.1446 -20.1445
   -20.1313 -20.1312 -20.1311 -20.1310 -20.1309 -20.1308 -20.1307 -20.1306
   -20.0918 -20.0918 -20.0914 -20.0914 -20.0909 -20.0909 -20.0902 -20.0902
   -20.0887 -20.0887 -20.0874 -20.0874 -20.0867 -20.0867 -20.0860 -20.0860
    -9.7381  -9.5319  -9.3912  -9.3534  -9.1857  -9.1791  -8.8937  -8.8908
    -8.8569  -8.7934  -8.7759  -8.7164  -8.1617  -8.1594  -8.0962  -8.0759
    -7.8644  -7.8439  -7.8246  -7.8090  -7.8034  -7.7858  -7.7610  -7.7424
     1.4192   1.4400   1.5159   1.5485   1.6231   1.6393   1.6963   1.7200
     2.2962   2.3328   2.4614   2.5433   2.6712   2.7563   2.8715   2.8923
     2.9843   3.0403   3.8065   3.8574   3.9482   3.9703   4.1229   4.3182
     4.3269   4.4983   4.4999   4.5654   4.5851   4.7456   4.7686   4.9134
     4.9970   5.0293   5.0807   5.2211   5.2660   5.3574   5.5421   5.6457
     5.6844   5.7383   5.7787   5.8001   5.8150   5.9908   6.1401   6.2053
     6.4114   6.4244   6.4756   6.5468   6.5557   6.6593   6.6616   6.6827
     6.7607   6.8603   6.8779   6.8872   7.1290   7.1325   7.1803   7.2203
     7.3035   7.3507   7.7954   7.8111   7.9131   7.9493   8.0694   8.0788
    10.2238  10.2291  10.5507  10.6187  10.8677  10.9751  11.9457  11.9903
    12.1752  12.4764  12.5082  12.5124  12.5810  12.6461  12.7991  12.8863
    12.9213  13.0906  13.1258  13.3006  13.6889  13.7087  13.9953  14.0241
    14.3799  14.5555  14.8678  15.3217  15.3755  15.8567  16.0208  16.3046
    16.3385  17.2500  17.3574  17.5036  17.5854  17.7421

          k = 0.1667 0.0000-0.4998 ( 62474 PWs)   bands (ev):

   -66.0086 -66.0086 -66.0082 -66.0082 -66.0078 -66.0078 -66.0073 -66.0073
   -30.4672 -30.4672 -30.4638 -30.4638 -30.4057 -30.4057 -30.4022 -30.4022
   -30.3404 -30.3404 -30.3363 -30.3363 -30.3018 -30.3018 -30.2991 -30.2991
   -30.2977 -30.2977 -30.2950 -30.2950 -30.2543 -30.2543 -30.2512 -30.2512
   -20.1622 -20.1622 -20.1620 -20.1620 -20.1568 -20.1568 -20.1565 -20.1565
   -20.1514 -20.1514 -20.1513 -20.1513 -20.1512 -20.1512 -20.1511 -20.1511
   -20.1487 -20.1487 -20.1479 -20.1479 -20.1478 -20.1478 -20.1472 -20.1472
   -20.1471 -20.1471 -20.1466 -20.1466 -20.1454 -20.1454 -20.1445 -20.1445
   -20.1312 -20.1312 -20.1311 -20.1311 -20.1308 -20.1308 -20.1307 -20.1307
   -20.0913 -20.0913 -20.0913 -20.0913 -20.0901 -20.0901 -20.0901 -20.0901
   -20.0888 -20.0888 -20.0888 -20.0888 -20.0864 -20.0863 -20.0863 -20.0863
    -9.6183  -9.6183  -9.2644  -9.2644  -9.2407  -9.2407  -8.8733  -8.8733
    -8.5376  -8.5375  -8.5280  -8.5280  -8.4853  -8.4853  -8.4360  -8.4360
    -7.8536  -7.8536  -7.7993  -7.7993  -7.7929  -7.7929  -7.7734  -7.7734
     1.4278   1.4278   1.5328   1.5328   1.6410   1.6410   1.7263   1.7263
     2.6990   2.6990   3.0232   3.0232   3.1006   3.1006   3.2202   3.2202
     3.3183   3.3183   3.4291   3.4291   3.5458   3.5459   3.7980   3.7980
     3.8528   3.8529   4.4170   4.4170   4.5097   4.5097   4.8867   4.8868
     5.0275   5.0275   5.0491   5.0491   5.2260   5.2260   5.6170   5.6170
     5.7744   5.7744   5.7805   5.7805   5.9040   5.9040   5.9597   5.9597
     6.3287   6.3288   6.4165   6.4165   6.6535   6.6535   6.6881   6.6881
     6.8199   6.8199   6.9603   6.9603   7.0194   7.0194   7.5431   7.5431
     7.5915   7.5915   7.6777   7.6778   7.6987   7.6987   8.0784   8.0784
    10.2348  10.2348  11.2789  11.2789  11.3508  11.3508  11.5958  11.5958
    11.7690  11.7690  12.6688  12.6688  12.7006  12.7006  12.7752  12.7752
    12.9474  12.9474  13.2735  13.2735  13.3673  13.3673  14.0078  14.0078
    14.5002  14.5002  15.1763  15.1763  15.7774  15.7774  16.1287  16.1287
    16.7847  16.7847  17.7487  17.7487  17.7969  17.7970

          k = 0.1667 0.1586 0.0000 ( 62491 PWs)   bands (ev):

   -66.0091 -66.0087 -66.0082 -66.0081 -66.0078 -66.0077 -66.0072 -66.0069
   -30.4646 -30.4613 -30.4610 -30.4577 -30.4114 -30.4079 -30.4078 -30.4044
   -30.3516 -30.3489 -30.3467 -30.3442 -30.3424 -30.3386 -30.3374 -30.3339
   -30.2564 -30.2537 -30.2521 -30.2521 -30.2503 -30.2497 -30.2474 -30.2458
   -20.1620 -20.1617 -20.1616 -20.1614 -20.1573 -20.1570 -20.1568 -20.1566
   -20.1517 -20.1515 -20.1515 -20.1513 -20.1512 -20.1511 -20.1510 -20.1509
   -20.1492 -20.1491 -20.1491 -20.1485 -20.1484 -20.1478 -20.1474 -20.1473
   -20.1463 -20.1462 -20.1461 -20.1455 -20.1453 -20.1448 -20.1447 -20.1446
   -20.1315 -20.1314 -20.1311 -20.1310 -20.1310 -20.1309 -20.1306 -20.1305
   -20.0929 -20.0929 -20.0920 -20.0920 -20.0916 -20.0915 -20.0905 -20.0905
   -20.0872 -20.0872 -20.0871 -20.0871 -20.0860 -20.0860 -20.0855 -20.0855
    -9.8665  -9.5996  -9.5004  -9.4221  -9.2457  -9.1378  -9.0663  -8.9788
    -8.9629  -8.8535  -8.8447  -8.8090  -7.9810  -7.9338  -7.9241  -7.8861
    -7.8624  -7.8386  -7.7417  -7.7303  -7.7202  -7.7096  -7.6179  -7.5971
     1.3226   1.3248   1.3280   1.3397   1.5485   1.5893   1.6026   1.7756
     1.8148   1.8343   1.8587   2.0784   2.5293   2.6034   2.6362   2.7139
     2.7642   2.8555   3.9923   4.0525   4.0994   4.1545   4.4128   4.4916
     4.6419   4.6706   4.8368   4.8451   4.8850   4.9221   4.9454   5.2261
     5.2606   5.2774   5.3361   5.4630   5.5626   5.5760   5.6277   5.6833
     5.7380   5.7627   5.8296   5.8627   5.8679   6.1035   6.1383   6.1436
     6.2301   6.4300   6.4611   6.5305   6.6924   6.7553   6.7833   6.8039
     6.8199   6.8824   6.9363   6.9632   6.9854   7.0089   7.1654   7.1677
     7.2090   7.2444   7.8730   7.8763   7.9734   8.0045   8.0287   8.0535
     9.6996   9.7207  10.1692  10.1708  10.4048  10.4220  12.1836  12.3011
    12.3052  12.3358  12.3936  12.4105  12.4379  12.5421  12.9586  13.0131
    13.1983  13.2366  13.3363  13.4013  13.9162  13.9467  14.0854  14.0987
    14.3707  14.7008  14.8687  15.0508  15.4955  15.5217  15.9151  16.0470
    16.3977  16.6758  16.8961  17.3928  17.4103  17.5317

          k = 0.1667 0.1586 0.1666 ( 62501 PWs)   bands (ev):

   -66.0090 -66.0086 -66.0082 -66.0081 -66.0078 -66.0078 -66.0073 -66.0069
   -30.4645 -30.4613 -30.4611 -30.4580 -30.4112 -30.4081 -30.4077 -30.4047
   -30.3453 -30.3435 -30.3410 -30.3405 -30.3381 -30.3375 -30.3372 -30.3342
   -30.2588 -30.2565 -30.2565 -30.2549 -30.2539 -30.2529 -30.2514 -30.2493
   -20.1620 -20.1617 -20.1617 -20.1614 -20.1573 -20.1570 -20.1569 -20.1566
   -20.1517 -20.1515 -20.1514 -20.1513 -20.1512 -20.1512 -20.1510 -20.1510
   -20.1490 -20.1490 -20.1489 -20.1485 -20.1483 -20.1477 -20.1474 -20.1473
   -20.1465 -20.1464 -20.1462 -20.1455 -20.1455 -20.1450 -20.1447 -20.1446
   -20.1314 -20.1313 -20.1311 -20.1310 -20.1310 -20.1309 -20.1306 -20.1305
   -20.0926 -20.0926 -20.0919 -20.0919 -20.0912 -20.0912 -20.0906 -20.0906
   -20.0876 -20.0876 -20.0870 -20.0870 -20.0863 -20.0863 -20.0857 -20.0857
    -9.8177  -9.5408  -9.4387  -9.4380  -9.1563  -9.1517  -9.0749  -8.9394
    -8.9267  -8.8450  -8.8148  -8.8133  -7.9818  -7.9336  -7.9314  -7.8935
    -7.8585  -7.8539  -7.8319  -7.8303  -7.7670  -7.7460  -7.7242  -7.7046
     1.5018   1.5039   1.5471   1.5510   1.5993   1.6000   1.6113   1.7746
     1.8506   1.8567   1.9156   2.1354   2.6185   2.6975   2.7225   2.7252
     2.8385   2.8644   4.0044   4.0241   4.1281   4.1363   4.4619   4.4700
     4.5540   4.5606   4.6475   4.6522   4.6785   4.7338   4.8294   5.1753
     5.2164   5.2340   5.2567   5.3501   5.3769   5.5537   5.5601   5.6123
     5.7543   5.7570   5.7766   5.7911   5.7936   5.8586   6.3054   6.3717
     6.3863   6.4850   6.5436   6.6342   6.6698   6.7112   6.7584   6.7673
     6.7793   6.8143   6.8556   6.8689   6.9412   6.9540   6.9679   7.0873
     7.2922   7.3377   7.8677   7.8687   7.9667   8.0065   8.0101   8.0147
     9.9348   9.9786  10.3778  10.4031  10.4117  10.4727  12.2462  12.2859
    12.3463  12.3533  12.3553  12.3591  12.4998  12.5060  12.9769  13.0087
    13.0733  13.1946  13.2066  13.3925  13.9074  13.9187  13.9392  13.9992
    14.4793  14.8505  14.8637  15.1516  15.5862  15.5984  15.8847  16.3567
    16.3655  16.7970  17.0369  17.0427  17.4841  17.6011

          k = 0.1667 0.1586 0.3332 ( 62507 PWs)   bands (ev):

   -66.0088 -66.0084 -66.0083 -66.0080 -66.0080 -66.0076 -66.0075 -66.0071
   -30.4639 -30.4620 -30.4606 -30.4587 -30.4107 -30.4088 -30.4072 -30.4054
   -30.3415 -30.3389 -30.3382 -30.3353 -30.3260 -30.3238 -30.3220 -30.3196
   -30.2770 -30.2746 -30.2731 -30.2707 -30.2552 -30.2530 -30.2525 -30.2503
   -20.1619 -20.1617 -20.1617 -20.1615 -20.1572 -20.1570 -20.1570 -20.1567
   -20.1515 -20.1514 -20.1513 -20.1513 -20.1512 -20.1512 -20.1511 -20.1510
   -20.1488 -20.1485 -20.1485 -20.1484 -20.1478 -20.1474 -20.1474 -20.1473
   -20.1471 -20.1469 -20.1465 -20.1460 -20.1455 -20.1452 -20.1446 -20.1446
   -20.1313 -20.1312 -20.1311 -20.1310 -20.1309 -20.1308 -20.1307 -20.1306
   -20.0918 -20.0918 -20.0914 -20.0914 -20.0909 -20.0909 -20.0902 -20.0902
   -20.0887 -20.0887 -20.0874 -20.0874 -20.0867 -20.0867 -20.0860 -20.0860
    -9.6997  -9.4877  -9.4030  -9.2950  -9.1947  -9.1044  -8.9023  -8.8657
    -8.8251  -8.7948  -8.7616  -8.6982  -8.1672  -8.1598  -8.1164  -8.0738
    -7.9500  -7.9340  -7.9119  -7.8839  -7.8283  -7.8064  -7.7622  -7.7425
     1.5558   1.5693   1.6225   1.6386   1.7323   1.7402   1.8191   1.8563
     2.2950   2.3419   2.4631   2.5569   2.7447   2.8221   2.8911   2.9678
     2.9807   3.0972   3.8096   3.8627   3.9228   3.9409   4.1258   4.1646
     4.2232   4.3501   4.5119   4.5822   4.6115   4.6925   4.7300   4.7747
     4.8600   4.9203   4.9600   5.1282   5.1879   5.2480   5.3058   5.5928
     5.6110   5.6365   5.7448   5.8010   5.8158   5.8288   6.1466   6.2025
     6.3532   6.4915   6.5319   6.6078   6.6740   6.6766   6.7031   6.7630
     6.8152   6.8668   6.8964   6.9345   7.1229   7.1280   7.1754   7.2255
     7.2971   7.3458   7.7956   7.8081   7.8681   7.8916   8.0053   8.0102
    10.3694  10.3974  10.5723  10.6280  10.9826  11.0637  11.9465  11.9871
    12.1550  12.4594  12.4855  12.5029  12.5159  12.5569  12.7225  12.7653
    12.9440  13.0942  13.1010  13.3015  13.5784  13.6095  13.9209  13.9460
    14.6877  14.8424  15.2190  15.4389  15.7807  15.8512  16.0307  16.2732
    16.4451  17.1697  17.2102  17.4164  17.5457  17.6775

          k = 0.1667 0.1586-0.4998 ( 62490 PWs)   bands (ev):

   -66.0086 -66.0086 -66.0082 -66.0082 -66.0077 -66.0077 -66.0074 -66.0074
   -30.4630 -30.4630 -30.4597 -30.4597 -30.4098 -30.4098 -30.4064 -30.4064
   -30.3402 -30.3402 -30.3366 -30.3366 -30.3016 -30.3016 -30.2993 -30.2992
   -30.2976 -30.2976 -30.2952 -30.2951 -30.2541 -30.2541 -30.2514 -30.2514
   -20.1619 -20.1619 -20.1616 -20.1616 -20.1571 -20.1571 -20.1569 -20.1569
   -20.1514 -20.1514 -20.1513 -20.1513 -20.1512 -20.1512 -20.1511 -20.1511
   -20.1486 -20.1486 -20.1478 -20.1478 -20.1477 -20.1477 -20.1473 -20.1473
   -20.1471 -20.1471 -20.1467 -20.1467 -20.1454 -20.1454 -20.1446 -20.1446
   -20.1312 -20.1312 -20.1311 -20.1311 -20.1308 -20.1308 -20.1307 -20.1307
   -20.0913 -20.0913 -20.0913 -20.0913 -20.0901 -20.0901 -20.0901 -20.0901
   -20.0888 -20.0888 -20.0888 -20.0888 -20.0864 -20.0863 -20.0863 -20.0863
    -9.5761  -9.5761  -9.2747  -9.2747  -9.1700  -9.1700  -8.8416  -8.8416
    -8.5426  -8.5426  -8.5304  -8.5304  -8.4868  -8.4867  -8.4310  -8.4310
    -7.9453  -7.9453  -7.9017  -7.9017  -7.7953  -7.7953  -7.7744  -7.7744
     1.5635   1.5635   1.6404   1.6404   1.7439   1.7439   1.8547   1.8547
     2.7687   2.7687   3.0425   3.0425   3.1234   3.1234   3.2327   3.2327
     3.3215   3.3215   3.4343   3.4343   3.5369   3.5369   3.8047   3.8047
     3.9006   3.9007   4.2551   4.2551   4.5070   4.5070   4.6673   4.6673
     4.9127   4.9127   5.0199   5.0199   5.0858   5.0859   5.4224   5.4224
     5.6739   5.6739   5.7338   5.7338   5.8582   5.8582   5.9072   5.9072
     6.4550   6.4550   6.5914   6.5914   6.6280   6.6280   6.7381   6.7381
     6.8920   6.8920   6.9240   6.9240   7.0437   7.0437   7.5411   7.5411
     7.5860   7.5860   7.6494   7.6494   7.6711   7.6711   8.0103   8.0103
    10.4004  10.4004  11.2860  11.2860  11.3502  11.3502  11.6644  11.6644
    11.8293  11.8293  12.5258  12.5258  12.6926  12.6926  12.7582  12.7582
    12.9313  12.9313  13.1661  13.1661  13.3024  13.3024  13.9285  13.9285
    14.7968  14.7968  15.5540  15.5540  15.8985  15.8986  16.1061  16.1061
    16.8173  16.8173  17.5654  17.5654  17.8122  17.8123

          k = 0.1667 0.3172 0.0000 ( 62479 PWs)   bands (ev):

   -66.0090 -66.0088 -66.0081 -66.0080 -66.0079 -66.0078 -66.0072 -66.0070
   -30.4534 -30.4500 -30.4497 -30.4465 -30.4226 -30.4191 -30.4190 -30.4157
   -30.3511 -30.3495 -30.3462 -30.3448 -30.3416 -30.3395 -30.3368 -30.3348
   -30.2559 -30.2543 -30.2517 -30.2516 -30.2505 -30.2502 -30.2472 -30.2463
   -20.1610 -20.1607 -20.1606 -20.1604 -20.1583 -20.1580 -20.1579 -20.1576
   -20.1517 -20.1516 -20.1515 -20.1514 -20.1512 -20.1511 -20.1510 -20.1510
   -20.1491 -20.1490 -20.1489 -20.1486 -20.1482 -20.1478 -20.1476 -20.1475
   -20.1461 -20.1461 -20.1459 -20.1455 -20.1454 -20.1450 -20.1449 -20.1448
   -20.1314 -20.1314 -20.1310 -20.1310 -20.1310 -20.1309 -20.1306 -20.1305
   -20.0929 -20.0929 -20.0920 -20.0920 -20.0916 -20.0916 -20.0905 -20.0905
   -20.0872 -20.0872 -20.0871 -20.0871 -20.0860 -20.0860 -20.0855 -20.0855
    -9.7871  -9.6367  -9.4091  -9.3172  -9.2719  -9.1649  -8.9742  -8.9657
    -8.8530  -8.7190  -8.7165  -8.6964  -8.2275  -8.1877  -8.1787  -8.1629
    -7.8595  -7.8461  -7.7376  -7.7262  -7.7250  -7.7139  -7.6136  -7.6017
     1.3270   1.3275   1.3364   1.3397   1.5906   1.6005   1.7812   1.8287
     2.3424   2.4623   2.4850   2.5453   2.5877   2.6360   2.8552   2.9380
     2.9748   3.0641   3.6205   3.6565   3.6859   3.7305   4.1215   4.4043
     4.4481   4.4673   4.5229   4.7187   4.7312   4.8404   4.8825   4.9166
     5.0101   5.0450   5.1549   5.2985   5.3832   5.4536   5.5706   5.6374
     5.6812   5.7926   5.8034   5.8505   6.0620   6.1112   6.1396   6.1580
     6.2226   6.4206   6.4409   6.5662   6.6024   6.8253   6.8431   6.9030
     6.9481   6.9660   7.0551   7.0604   7.0844   7.0855   7.1701   7.1726
     7.2407   7.2511   7.7817   7.8076   7.8153   7.8337   7.8799   7.8817
     9.7093   9.7189  10.6433  10.6848  10.8348  10.8607  11.8184  11.9298
    11.9584  12.0387  12.3170  12.3314  12.4568  12.4843  13.0200  13.0261
    13.2541  13.3258  13.4046  13.4622  13.6924  13.7300  13.8445  13.8702
    14.9363  15.2661  15.4569  15.5212  15.5258  15.6774  15.9349  16.0992
    16.2741  16.9186  17.2646  17.3193  17.5805  17.8053

          k = 0.1667 0.3172 0.1666 ( 62463 PWs)   bands (ev):

   -66.0089 -66.0087 -66.0081 -66.0081 -66.0079 -66.0078 -66.0072 -66.0070
   -30.4532 -30.4500 -30.4498 -30.4468 -30.4224 -30.4193 -30.4190 -30.4160
   -30.3448 -30.3436 -30.3408 -30.3402 -30.3383 -30.3380 -30.3370 -30.3351
   -30.2583 -30.2570 -30.2559 -30.2545 -30.2544 -30.2532 -30.2511 -30.2498
   -20.1610 -20.1607 -20.1607 -20.1604 -20.1583 -20.1580 -20.1579 -20.1576
   -20.1516 -20.1515 -20.1514 -20.1513 -20.1512 -20.1512 -20.1510 -20.1510
   -20.1489 -20.1489 -20.1488 -20.1484 -20.1482 -20.1477 -20.1476 -20.1476
   -20.1463 -20.1463 -20.1461 -20.1457 -20.1454 -20.1450 -20.1449 -20.1448
   -20.1314 -20.1313 -20.1311 -20.1310 -20.1310 -20.1309 -20.1306 -20.1306
   -20.0926 -20.0926 -20.0919 -20.0919 -20.0912 -20.0912 -20.0906 -20.0906
   -20.0876 -20.0876 -20.0870 -20.0870 -20.0863 -20.0863 -20.0857 -20.0857
    -9.7344  -9.5785  -9.3353  -9.3335  -9.1836  -9.1794  -8.9367  -8.9296
    -8.8614  -8.7099  -8.7012  -8.7005  -8.2290  -8.1857  -8.1840  -8.1681
    -7.8539  -7.8519  -7.8389  -7.8372  -7.7631  -7.7507  -7.7205  -7.7090
     1.5024   1.5035   1.5895   1.5958   1.5993   1.6065   1.8501   1.9115
     2.3444   2.4620   2.4677   2.6156   2.6375   2.6930   2.9468   2.9545
     3.0572   3.0684   3.6615   3.6759   3.6932   3.7417   4.1136   4.4271
     4.4362   4.4908   4.4996   4.5722   4.5865   4.7052   4.7125   4.7982
     4.8434   4.8550   5.0942   5.1292   5.3676   5.3817   5.3837   5.4187
     5.6359   5.6526   5.7706   5.7757   5.8297   5.8321   6.3761   6.3962
     6.4084   6.4816   6.5277   6.6185   6.7417   6.7505   6.8287   6.8384
     6.9039   6.9095   6.9744   6.9950   7.0714   7.0838   7.0907   7.1278
     7.3105   7.3396   7.7805   7.7893   7.7922   7.8209   7.8716   7.8802
     9.9587   9.9762  10.7993  10.8416  10.8632  10.8819  11.8980  11.9469
    12.0309  12.0371  12.3563  12.3636  12.3881  12.3946  13.0245  13.0456
    13.1874  13.2457  13.2568  13.4300  13.6673  13.6881  13.6953  13.7859
    15.0910  15.4758  15.4852  15.5929  15.5975  15.7375  16.2181  16.2406
    16.2483  16.8841  17.3338  17.3722  17.3930  17.6418

          k = 0.1667 0.3172 0.3332 ( 62489 PWs)   bands (ev):

   -66.0087 -66.0085 -66.0082 -66.0080 -66.0079 -66.0077 -66.0074 -66.0072
   -30.4527 -30.4508 -30.4493 -30.4475 -30.4219 -30.4200 -30.4185 -30.4167
   -30.3408 -30.3389 -30.3382 -30.3361 -30.3256 -30.3244 -30.3215 -30.3201
   -30.2765 -30.2751 -30.2726 -30.2712 -30.2547 -30.2531 -30.2524 -30.2509
   -20.1610 -20.1608 -20.1607 -20.1605 -20.1582 -20.1580 -20.1580 -20.1577
   -20.1515 -20.1514 -20.1513 -20.1513 -20.1512 -20.1512 -20.1511 -20.1510
   -20.1486 -20.1484 -20.1483 -20.1482 -20.1479 -20.1476 -20.1475 -20.1475
   -20.1469 -20.1468 -20.1465 -20.1462 -20.1453 -20.1452 -20.1448 -20.1448
   -20.1313 -20.1313 -20.1311 -20.1311 -20.1309 -20.1308 -20.1307 -20.1306
   -20.0918 -20.0918 -20.0914 -20.0914 -20.0909 -20.0909 -20.0902 -20.0902
   -20.0887 -20.0887 -20.0874 -20.0874 -20.0867 -20.0867 -20.0860 -20.0860
    -9.6072  -9.4408  -9.3842  -9.2247  -9.1498  -8.9335  -8.8936  -8.8243
    -8.7988  -8.7130  -8.6746  -8.6261  -8.2737  -8.2433  -8.1814  -8.1744
    -8.1529  -8.1007  -8.0673  -8.0228  -7.8250  -7.8122  -7.7588  -7.7469
     1.6102   1.6218   1.6294   1.6383   2.1963   2.2758   2.2910   2.3585
     2.4617   2.4689   2.5055   2.7024   2.9071   2.9599   2.9752   3.0485
     3.1981   3.2884   3.6577   3.6750   3.7196   3.7795   3.9075   3.9760
     4.0967   4.2639   4.3524   4.3892   4.4525   4.5606   4.5906   4.6567
     4.7034   4.7580   4.8048   4.8395   4.9059   4.9832   5.1178   5.1538
     5.3126   5.3308   5.4204   5.6025   5.8011   5.8419   6.1850   6.2031
     6.5301   6.5971   6.6282   6.7223   6.7960   6.8052   6.9162   6.9459
     6.9857   7.0096   7.0311   7.0572   7.1364   7.1696   7.1891   7.2550
     7.2842   7.3338   7.7079   7.7123   7.7696   7.7979   7.8072   7.8436
    10.5568  10.5882  10.8511  10.8710  11.3026  11.3427  11.8972  11.9533
    11.9726  12.1012  12.2067  12.2597  12.5199  12.5982  12.6731  12.7065
    12.9418  13.0961  13.1198  13.3326  13.3456  13.4016  13.6876  13.7285
    15.3150  15.4593  15.8171  15.9243  16.0182  16.0919  16.1768  16.6573
    16.7626  16.7853  17.0797  17.5504  17.6025  17.6778

          k = 0.1667 0.3172-0.4998 ( 62480 PWs)   bands (ev):

   -66.0085 -66.0085 -66.0083 -66.0083 -66.0077 -66.0076 -66.0074 -66.0074
   -30.4518 -30.4518 -30.4485 -30.4485 -30.4210 -30.4210 -30.4177 -30.4177
   -30.3395 -30.3395 -30.3375 -30.3375 -30.3012 -30.3012 -30.2998 -30.2998
   -30.2971 -30.2971 -30.2957 -30.2957 -30.2536 -30.2536 -30.2520 -30.2520
   -20.1609 -20.1609 -20.1606 -20.1606 -20.1581 -20.1581 -20.1579 -20.1579
   -20.1514 -20.1514 -20.1513 -20.1513 -20.1512 -20.1512 -20.1511 -20.1511
   -20.1484 -20.1484 -20.1479 -20.1478 -20.1476 -20.1476 -20.1473 -20.1473
   -20.1472 -20.1472 -20.1469 -20.1469 -20.1453 -20.1453 -20.1448 -20.1448
   -20.1312 -20.1312 -20.1312 -20.1311 -20.1308 -20.1308 -20.1307 -20.1307
   -20.0913 -20.0913 -20.0913 -20.0913 -20.0901 -20.0901 -20.0901 -20.0901
   -20.0888 -20.0888 -20.0888 -20.0888 -20.0864 -20.0863 -20.0863 -20.0863
    -9.4758  -9.4757  -9.3088  -9.3088  -8.9752  -8.9752  -8.7386  -8.7386
    -8.5777  -8.5777  -8.5422  -8.5421  -8.4806  -8.4806  -8.4109  -8.4109
    -8.1766  -8.1766  -8.1428  -8.1428  -7.7919  -7.7919  -7.7795  -7.7795
     1.6276   1.6276   1.6398   1.6398   2.3471   2.3471   2.4609   2.4609
     2.9664   2.9664   3.0987   3.0987   3.1343   3.1343   3.2867   3.2867
     3.3285   3.3285   3.4577   3.4577   3.4997   3.4997   3.6963   3.6963
     4.0402   4.0402   4.0853   4.0853   4.0897   4.0897   4.3444   4.3444
     4.7134   4.7134   4.7936   4.7936   4.9655   4.9655   5.0138   5.0138
     5.1315   5.1315   5.4982   5.4982   5.9040   5.9040   5.9164   5.9164
     6.6533   6.6533   6.7585   6.7585   6.8225   6.8225   6.8542   6.8542
     7.0059   7.0059   7.0481   7.0481   7.1619   7.1620   7.5068   7.5068
     7.5446   7.5446   7.5738   7.5738   7.6131   7.6132   7.8096   7.8096
    10.8356  10.8356  11.3005  11.3005  11.3503  11.3503  11.7956  11.7956
    12.0173  12.0173  12.1960  12.1960  12.6006  12.6006  12.6328  12.6328
    12.8500  12.8500  12.9605  12.9605  13.2883  13.2883  13.7003  13.7003
    15.4111  15.4111  16.0173  16.0173  16.2908  16.2908  16.5023  16.5023
    16.9615  16.9615  17.2079  17.2079  17.8016  17.8016

          k = 0.1667-0.4758 0.0000 ( 62496 PWs)   bands (ev):

   -66.0089 -66.0089 -66.0080 -66.0080 -66.0079 -66.0079 -66.0071 -66.0071
   -30.4379 -30.4379 -30.4346 -30.4346 -30.4344 -30.4344 -30.4311 -30.4311
   -30.3503 -30.3503 -30.3455 -30.3455 -30.3406 -30.3406 -30.3358 -30.3358
   -30.2551 -30.2551 -30.2511 -30.2510 -30.2509 -30.2509 -30.2468 -30.2468
   -20.1597 -20.1596 -20.1594 -20.1594 -20.1593 -20.1593 -20.1590 -20.1590
   -20.1516 -20.1516 -20.1514 -20.1514 -20.1512 -20.1512 -20.1510 -20.1510
   -20.1490 -20.1490 -20.1488 -20.1488 -20.1479 -20.1479 -20.1478 -20.1478
   -20.1459 -20.1459 -20.1458 -20.1458 -20.1451 -20.1451 -20.1450 -20.1449
   -20.1314 -20.1314 -20.1310 -20.1310 -20.1310 -20.1310 -20.1306 -20.1306
   -20.0929 -20.0929 -20.0920 -20.0920 -20.0916 -20.0915 -20.0905 -20.0905
   -20.0872 -20.0872 -20.0871 -20.0871 -20.0860 -20.0860 -20.0855 -20.0855
    -9.7012  -9.7012  -9.3243  -9.3243  -9.2212  -9.2212  -8.9697  -8.9697
    -8.5452  -8.5452  -8.4863  -8.4862  -8.4768  -8.4768  -8.4727  -8.4727
    -7.8531  -7.8531  -7.7314  -7.7314  -7.7201  -7.7201  -7.6077  -7.6077
     1.3276   1.3276   1.3391   1.3391   1.5984   1.5984   1.8188   1.8188
     2.5666   2.5666   3.1319   3.1319   3.1872   3.1872   3.2546   3.2546
     3.2742   3.2742   3.3077   3.3077   3.4585   3.4585   3.5189   3.5189
     3.6725   3.6725   4.4728   4.4728   4.8582   4.8582   4.9798   4.9798
     5.0936   5.0936   5.1668   5.1669   5.2999   5.2999   5.4984   5.4984
     5.7343   5.7343   5.8000   5.8000   6.1302   6.1302   6.1487   6.1487
     6.3701   6.3701   6.4301   6.4302   6.6997   6.6997   6.8853   6.8853
     6.9960   6.9961   7.1604   7.1604   7.1986   7.1986   7.4400   7.4400
     7.4611   7.4611   7.4885   7.4885   7.5093   7.5093   7.8783   7.8783
     9.7155   9.7155  11.2526  11.2526  11.3217  11.3217  11.3964  11.3964
    11.4697  11.4697  12.3258  12.3258  12.4717  12.4717  13.0447  13.0448
    13.4057  13.4057  13.5113  13.5113  13.5861  13.5861  13.6297  13.6297
    15.4157  15.4157  15.5887  15.5887  15.7024  15.7024  16.0033  16.0033
    16.5901  16.5901  17.7792  17.7792  17.8536  17.8537

          k = 0.1667-0.4758 0.1666 ( 62494 PWs)   bands (ev):

   -66.0088 -66.0088 -66.0080 -66.0080 -66.0080 -66.0080 -66.0071 -66.0071
   -30.4378 -30.4378 -30.4347 -30.4347 -30.4344 -30.4344 -30.4314 -30.4314
   -30.3442 -30.3442 -30.3403 -30.3403 -30.3384 -30.3384 -30.3361 -30.3361
   -30.2577 -30.2576 -30.2552 -30.2552 -30.2538 -30.2538 -30.2505 -30.2505
   -20.1596 -20.1596 -20.1594 -20.1594 -20.1593 -20.1593 -20.1590 -20.1590
   -20.1516 -20.1516 -20.1514 -20.1514 -20.1512 -20.1512 -20.1510 -20.1510
   -20.1488 -20.1488 -20.1486 -20.1486 -20.1479 -20.1479 -20.1477 -20.1477
   -20.1461 -20.1461 -20.1460 -20.1460 -20.1451 -20.1451 -20.1450 -20.1450
   -20.1314 -20.1314 -20.1310 -20.1310 -20.1309 -20.1309 -20.1306 -20.1306
   -20.0926 -20.0926 -20.0919 -20.0919 -20.0912 -20.0912 -20.0906 -20.0906
   -20.0876 -20.0876 -20.0870 -20.0870 -20.0863 -20.0863 -20.0857 -20.0857
    -9.6449  -9.6449  -9.2401  -9.2400  -9.2369  -9.2368  -8.9331  -8.9331
    -8.5522  -8.5521  -8.4805  -8.4800  -8.4779  -8.4778  -8.4733  -8.4730
    -7.8487  -7.8484  -7.8430  -7.8428  -7.7571  -7.7570  -7.7148  -7.7148
     1.5026   1.5031   1.5965   1.5974   1.6041   1.6048   1.8993   1.8996
     2.6583   2.6586   3.1452   3.1455   3.1862   3.1956   3.2536   3.2571
[...]
    12.0523  12.0523  12.0523  12.0523  12.2245  12.2245  12.2245  12.2245
    13.0215  13.0215  13.0215  13.0215  13.1982  13.1982  13.1982  13.1982
    15.3462  15.3462  15.3462  15.3462  16.6929  16.6929  16.6929  16.6929
    17.6735  17.6735  17.6735  17.6735  17.9422  17.9422

          k =-0.5000 0.3172 0.0000 ( 62500 PWs)   bands (ev):

   -66.0086 -66.0085 -66.0083 -66.0083 -66.0076 -66.0076 -66.0074 -66.0074
   -30.4518 -30.4518 -30.4483 -30.4483 -30.4210 -30.4210 -30.4175 -30.4175
   -30.3486 -30.3486 -30.3471 -30.3471 -30.2989 -30.2989 -30.2972 -30.2971
   -30.2942 -30.2942 -30.2925 -30.2925 -30.2497 -30.2497 -30.2483 -30.2483
   -20.1609 -20.1609 -20.1605 -20.1605 -20.1582 -20.1582 -20.1578 -20.1578
   -20.1516 -20.1516 -20.1515 -20.1515 -20.1511 -20.1511 -20.1511 -20.1511
   -20.1490 -20.1490 -20.1487 -20.1487 -20.1469 -20.1469 -20.1467 -20.1467
   -20.1463 -20.1463 -20.1462 -20.1462 -20.1459 -20.1459 -20.1454 -20.1454
   -20.1312 -20.1312 -20.1311 -20.1311 -20.1308 -20.1308 -20.1307 -20.1307
   -20.0922 -20.0922 -20.0922 -20.0922 -20.0897 -20.0897 -20.0897 -20.0897
   -20.0882 -20.0882 -20.0882 -20.0881 -20.0865 -20.0865 -20.0865 -20.0865
    -9.5463  -9.5463  -9.3948  -9.3948  -8.9623  -8.9622  -8.7618  -8.7618
    -8.5543  -8.5543  -8.5485  -8.5485  -8.4893  -8.4893  -8.4043  -8.4043
    -8.1780  -8.1779  -8.1380  -8.1380  -7.6714  -7.6714  -7.6589  -7.6589
     1.3660   1.3661   1.3716   1.3716   2.3431   2.3431   2.4763   2.4763
     2.8981   2.8981   3.0700   3.0700   3.1258   3.1258   3.2847   3.2847
     3.3173   3.3174   3.3888   3.3888   3.4445   3.4445   3.6461   3.6461
     4.0296   4.0296   4.0582   4.0582   4.1384   4.1384   4.3472   4.3472
     4.7936   4.7936   4.8823   4.8823   5.0893   5.0893   5.2650   5.2650
     5.4269   5.4269   5.7131   5.7131   6.2895   6.2895   6.3485   6.3485
     6.4635   6.4635   6.5130   6.5130   6.5329   6.5329   6.7467   6.7467
     7.0193   7.0193   7.0412   7.0412   7.0789   7.0789   7.5024   7.5024
     7.5258   7.5258   7.5681   7.5681   7.6019   7.6019   7.8321   7.8321
    10.6660  10.6660  11.2268  11.2268  11.2659  11.2659  11.7104  11.7105
    12.0099  12.0099  12.1634  12.1634  12.6155  12.6155  12.6787  12.6787
    12.9071  12.9071  13.0252  13.0252  13.4473  13.4473  13.8553  13.8553
    15.1896  15.1896  15.7308  15.7308  16.2204  16.2204  16.5142  16.5142
    16.8836  16.8836  17.1688  17.1688  17.9354  17.9354

          k =-0.5000 0.3172 0.1666 ( 62474 PWs)   bands (ev):

   -66.0085 -66.0085 -66.0083 -66.0083 -66.0077 -66.0076 -66.0074 -66.0074
   -30.4517 -30.4517 -30.4486 -30.4486 -30.4208 -30.4208 -30.4178 -30.4178
   -30.3420 -30.3420 -30.3405 -30.3405 -30.2986 -30.2986 -30.2968 -30.2968
   -30.2945 -30.2945 -30.2928 -30.2928 -30.2563 -30.2563 -30.2549 -30.2549
   -20.1609 -20.1609 -20.1606 -20.1606 -20.1582 -20.1582 -20.1578 -20.1578
   -20.1516 -20.1515 -20.1515 -20.1514 -20.1511 -20.1511 -20.1511 -20.1511
   -20.1488 -20.1488 -20.1485 -20.1485 -20.1469 -20.1469 -20.1467 -20.1467
   -20.1464 -20.1464 -20.1462 -20.1462 -20.1460 -20.1460 -20.1456 -20.1455
   -20.1312 -20.1311 -20.1311 -20.1311 -20.1308 -20.1308 -20.1308 -20.1308
   -20.0919 -20.0919 -20.0919 -20.0919 -20.0896 -20.0896 -20.0896 -20.0896
   -20.0883 -20.0883 -20.0883 -20.0883 -20.0869 -20.0869 -20.0869 -20.0869
    -9.4775  -9.4775  -9.3123  -9.3123  -8.9756  -8.9756  -8.7402  -8.7401
    -8.5743  -8.5743  -8.5397  -8.5397  -8.4768  -8.4768  -8.4083  -8.4083
    -8.1749  -8.1749  -8.1426  -8.1426  -7.7948  -7.7948  -7.7824  -7.7824
     1.6204   1.6204   1.6319   1.6319   2.3458   2.3458   2.4600   2.4600
     2.9767   2.9767   3.0915   3.0915   3.1284   3.1284   3.2909   3.2909
     3.3285   3.3285   3.4692   3.4693   3.5007   3.5007   3.6946   3.6946
     4.0282   4.0282   4.0608   4.0608   4.1353   4.1354   4.3537   4.3537
     4.7077   4.7077   4.7851   4.7852   4.9654   4.9654   5.0151   5.0151
     5.1339   5.1339   5.4972   5.4972   5.9006   5.9006   5.9139   5.9139
     6.6530   6.6530   6.7645   6.7645   6.8252   6.8252   6.8549   6.8549
     6.9992   6.9992   7.0513   7.0513   7.1578   7.1578   7.5038   7.5038
     7.5369   7.5369   7.5851   7.5851   7.6173   7.6173   7.8116   7.8116
    10.8321  10.8321  11.3032  11.3032  11.3493  11.3493  11.7693  11.7693
    12.0215  12.0215  12.2001  12.2001  12.6007  12.6007  12.6520  12.6520
    12.8512  12.8512  12.9712  12.9712  13.2827  13.2827  13.7057  13.7057
    15.4112  15.4112  16.0096  16.0096  16.2897  16.2897  16.5028  16.5028
    16.9441  16.9441  17.2101  17.2101  17.7945  17.7945

          k =-0.5000 0.3172 0.3332 ( 62492 PWs)   bands (ev):

   -66.0083 -66.0083 -66.0081 -66.0081 -66.0078 -66.0078 -66.0076 -66.0076
   -30.4512 -30.4512 -30.4493 -30.4493 -30.4203 -30.4203 -30.4185 -30.4185
   -30.3240 -30.3240 -30.3226 -30.3225 -30.2977 -30.2977 -30.2960 -30.2960
   -30.2953 -30.2953 -30.2938 -30.2938 -30.2742 -30.2742 -30.2729 -30.2729
   -20.1609 -20.1608 -20.1607 -20.1607 -20.1581 -20.1581 -20.1579 -20.1579
   -20.1514 -20.1514 -20.1514 -20.1513 -20.1512 -20.1512 -20.1512 -20.1511
   -20.1483 -20.1483 -20.1481 -20.1481 -20.1471 -20.1471 -20.1469 -20.1469
   -20.1466 -20.1465 -20.1462 -20.1462 -20.1461 -20.1461 -20.1460 -20.1459
   -20.1311 -20.1311 -20.1310 -20.1310 -20.1309 -20.1309 -20.1308 -20.1308
   -20.0909 -20.0909 -20.0909 -20.0909 -20.0893 -20.0893 -20.0893 -20.0893
   -20.0886 -20.0886 -20.0886 -20.0886 -20.0879 -20.0879 -20.0879 -20.0879
    -9.3040  -9.3040  -9.0865  -9.0865  -9.0220  -9.0220  -8.6659  -8.6659
    -8.6307  -8.6307  -8.5088  -8.5087  -8.4514  -8.4514  -8.4165  -8.4165
    -8.1790  -8.1790  -8.1599  -8.1599  -8.0923  -8.0923  -8.0592  -8.0592
     2.2261   2.2261   2.3219   2.3219   2.3558   2.3558   2.4995   2.4995
     3.0776   3.0776   3.1300   3.1301   3.1978   3.1978   3.2924   3.2924
     3.3657   3.3657   3.6275   3.6275   3.7260   3.7260   3.8214   3.8214
     4.0094   4.0094   4.0762   4.0762   4.1349   4.1349   4.2209   4.2209
     4.3240   4.3240   4.4667   4.4667   4.5996   4.5996   4.8218   4.8218
     4.9425   4.9425   5.0062   5.0062   5.0768   5.0768   5.2886   5.2886
     6.8325   6.8325   6.8893   6.8893   6.9526   6.9527   7.0119   7.0120
     7.1478   7.1478   7.2824   7.2824   7.3894   7.3894   7.4894   7.4894
     7.5418   7.5418   7.6153   7.6153   7.6363   7.6364   7.7568   7.7568
    11.2673  11.2673  11.5423  11.5423  11.6229  11.6229  11.8674  11.8675
    12.0694  12.0694  12.3469  12.3469  12.3987  12.3987  12.4524  12.4524
    12.7383  12.7383  12.8280  12.8280  12.8913  12.8913  13.3149  13.3149
    15.9418  15.9418  16.4248  16.4248  16.5201  16.5201  16.7670  16.7670
    17.1723  17.1723  17.2819  17.2820  17.5457  17.5457

          k =-0.5000 0.3172-0.4998 ( 62504 PWs)   bands (ev):

   -66.0081 -66.0081 -66.0081 -66.0081 -66.0079 -66.0079 -66.0079 -66.0078
   -30.4503 -30.4503 -30.4503 -30.4503 -30.4195 -30.4195 -30.4195 -30.4195
   -30.3009 -30.3008 -30.3008 -30.3008 -30.2989 -30.2989 -30.2989 -30.2989
   -30.2953 -30.2953 -30.2953 -30.2953 -30.2933 -30.2933 -30.2933 -30.2932
   -20.1608 -20.1608 -20.1608 -20.1608 -20.1580 -20.1580 -20.1580 -20.1580
   -20.1513 -20.1513 -20.1513 -20.1513 -20.1513 -20.1512 -20.1512 -20.1512
   -20.1476 -20.1476 -20.1476 -20.1476 -20.1475 -20.1475 -20.1475 -20.1475
   -20.1464 -20.1464 -20.1464 -20.1464 -20.1461 -20.1461 -20.1461 -20.1461
   -20.1310 -20.1310 -20.1309 -20.1309 -20.1309 -20.1309 -20.1309 -20.1309
   -20.0897 -20.0897 -20.0897 -20.0897 -20.0896 -20.0896 -20.0896 -20.0896
   -20.0888 -20.0888 -20.0888 -20.0888 -20.0887 -20.0887 -20.0887 -20.0887
    -9.1259  -9.1259  -9.1259  -9.1259  -8.8073  -8.8072  -8.8072  -8.8072
    -8.5093  -8.5093  -8.5093  -8.5093  -8.3798  -8.3798  -8.3798  -8.3798
    -8.3618  -8.3618  -8.3618  -8.3617  -8.1467  -8.1467  -8.1467  -8.1467
     2.3574   2.3574   2.3574   2.3574   3.0382   3.0382   3.0382   3.0382
     3.1361   3.1361   3.1361   3.1361   3.2586   3.2586   3.2586   3.2586
     3.3356   3.3356   3.3356   3.3356   3.9418   3.9418   3.9418   3.9418
     3.9935   3.9935   3.9935   3.9935   4.0619   4.0619   4.0619   4.0619
     4.3244   4.3244   4.3244   4.3244   4.3590   4.3590   4.3590   4.3590
     4.6956   4.6956   4.6956   4.6956   5.0126   5.0127   5.0127   5.0127
     6.8933   6.8933   6.8933   6.8933   6.9901   6.9901   6.9901   6.9901
     7.3807   7.3807   7.3807   7.3807   7.4757   7.4757   7.4757   7.4757
     7.5886   7.5886   7.5886   7.5887   7.6827   7.6827   7.6827   7.6827
    11.7846  11.7846  11.7846  11.7846  11.8427  11.8427  11.8427  11.8427
    12.0821  12.0821  12.0821  12.0821  12.3028  12.3028  12.3028  12.3028
    12.6965  12.6965  12.6966  12.6966  12.8906  12.8906  12.8906  12.8906
    16.2975  16.2975  16.2975  16.2975  16.8770  16.8770  16.8770  16.8770
    17.4176  17.4176  17.4176  17.4176  17.9515  17.9515

          k =-0.5000-0.4758 0.0000 ( 62492 PWs)   bands (ev):

   -66.0085 -66.0084 -66.0084 -66.0084 -66.0075 -66.0075 -66.0075 -66.0075
   -30.4365 -30.4365 -30.4363 -30.4363 -30.4330 -30.4330 -30.4328 -30.4328
   -30.3478 -30.3478 -30.3478 -30.3478 -30.2982 -30.2982 -30.2979 -30.2979
   -30.2935 -30.2935 -30.2932 -30.2932 -30.2490 -30.2490 -30.2490 -30.2490
   -20.1596 -20.1596 -20.1595 -20.1595 -20.1592 -20.1592 -20.1591 -20.1591
   -20.1516 -20.1516 -20.1515 -20.1515 -20.1511 -20.1511 -20.1511 -20.1511
   -20.1489 -20.1489 -20.1488 -20.1488 -20.1466 -20.1466 -20.1466 -20.1466
   -20.1465 -20.1465 -20.1464 -20.1464 -20.1457 -20.1457 -20.1457 -20.1457
   -20.1312 -20.1312 -20.1312 -20.1311 -20.1308 -20.1308 -20.1308 -20.1308
   -20.0922 -20.0922 -20.0922 -20.0922 -20.0897 -20.0897 -20.0897 -20.0897
   -20.0882 -20.0882 -20.0882 -20.0881 -20.0865 -20.0865 -20.0865 -20.0865
    -9.4570  -9.4570  -9.4546  -9.4546  -8.7147  -8.7147  -8.7050  -8.7050
    -8.6136  -8.6136  -8.6057  -8.6057  -8.4173  -8.4172  -8.3988  -8.3988
    -8.3455  -8.3455  -8.3289  -8.3289  -7.6652  -7.6652  -7.6652  -7.6652
     1.3691   1.3691   1.3716   1.3716   2.9981   2.9981   3.0587   3.0587
     3.1508   3.1508   3.1655   3.1655   3.1902   3.1902   3.2019   3.2019
     3.3237   3.3237   3.3419   3.3419   3.4288   3.4288   3.4891   3.4891
     3.5277   3.5277   3.6923   3.6923   4.2617   4.2617   4.2965   4.2965
     4.3543   4.3543   4.4104   4.4104   5.1807   5.1807   5.2009   5.2009
     5.4943   5.4943   5.5185   5.5185   6.3357   6.3357   6.3443   6.3443
     6.5261   6.5261   6.5270   6.5270   6.6052   6.6052   6.6326   6.6326
     7.2632   7.2632   7.2880   7.2880   7.3006   7.3006   7.4047   7.4047
     7.4260   7.4260   7.4809   7.4809   7.5982   7.5982   7.6053   7.6053
    11.2124  11.2125  11.2224  11.2224  11.3097  11.3097  11.3222  11.3222
    12.2713  12.2713  12.2967  12.2967  12.3431  12.3431  12.3594  12.3594
    12.9390  12.9390  12.9404  12.9404  13.6013  13.6013  13.6178  13.6178
    15.5458  15.5458  15.5467  15.5467  16.7412  16.7412  16.7761  16.7761
    17.3893  17.3893  17.4222  17.4222  17.5338  17.5339

          k =-0.5000-0.4758 0.1666 ( 62460 PWs)   bands (ev):

   -66.0084 -66.0084 -66.0084 -66.0084 -66.0076 -66.0076 -66.0075 -66.0075
   -30.4363 -30.4363 -30.4362 -30.4362 -30.4333 -30.4333 -30.4331 -30.4331
   -30.3412 -30.3412 -30.3412 -30.3412 -30.2979 -30.2979 -30.2976 -30.2976
   -30.2938 -30.2938 -30.2936 -30.2936 -30.2556 -30.2556 -30.2556 -30.2556
   -20.1595 -20.1595 -20.1595 -20.1595 -20.1592 -20.1592 -20.1592 -20.1592
   -20.1515 -20.1515 -20.1515 -20.1515 -20.1511 -20.1511 -20.1511 -20.1511
   -20.1487 -20.1487 -20.1487 -20.1487 -20.1467 -20.1467 -20.1466 -20.1466
   -20.1465 -20.1465 -20.1464 -20.1464 -20.1458 -20.1458 -20.1458 -20.1458
   -20.1311 -20.1311 -20.1311 -20.1311 -20.1308 -20.1308 -20.1308 -20.1308
   -20.0919 -20.0919 -20.0919 -20.0919 -20.0896 -20.0896 -20.0896 -20.0896
   -20.0883 -20.0883 -20.0883 -20.0883 -20.0869 -20.0869 -20.0869 -20.0869
    -9.3792  -9.3792  -9.3765  -9.3765  -8.7324  -8.7324  -8.7225  -8.7225
    -8.5972  -8.5972  -8.5879  -8.5878  -8.4145  -8.4145  -8.3967  -8.3967
    -8.3472  -8.3471  -8.3315  -8.3315  -7.7889  -7.7889  -7.7886  -7.7886
     1.6278   1.6278   1.6312   1.6312   3.0038   3.0038   3.0639   3.0639
     3.1362   3.1362   3.1514   3.1514   3.2053   3.2053   3.2611   3.2611
     3.3161   3.3161   3.4334   3.4334   3.4774   3.4774   3.5379   3.5379
     3.5684   3.5684   3.7210   3.7210   4.2657   4.2657   4.2959   4.2959
     4.3478   4.3478   4.4032   4.4032   4.8633   4.8633   5.0170   5.0170
     5.1449   5.1449   5.2825   5.2825   5.9016   5.9016   5.9149   5.9149
     6.7292   6.7292   6.7740   6.7740   6.8613   6.8613   6.8972   6.8972
     7.2563   7.2563   7.2771   7.2771   7.3346   7.3346   7.3940   7.3940
     7.4258   7.4258   7.4877   7.4877   7.6045   7.6045   7.6300   7.6301
    11.2678  11.2678  11.3135  11.3135  11.4049  11.4049  11.4802  11.4802
    12.2722  12.2722  12.3011  12.3011  12.3418  12.3418  12.3681  12.3681
    12.8286  12.8286  12.9011  12.9011  13.4234  13.4234  13.4753  13.4753
    15.8065  15.8065  15.8306  15.8306  16.8021  16.8021  16.8360  16.8361
    17.3879  17.3879  17.4324  17.4324  17.5233  17.5233

          k =-0.5000-0.4758 0.3332 ( 62448 PWs)   bands (ev):

   -66.0082 -66.0082 -66.0082 -66.0082 -66.0077 -66.0077 -66.0077 -66.0077
   -30.4359 -30.4359 -30.4357 -30.4357 -30.4340 -30.4340 -30.4338 -30.4338
   -30.3233 -30.3233 -30.3233 -30.3233 -30.2970 -30.2970 -30.2967 -30.2967
   -30.2947 -30.2947 -30.2945 -30.2945 -30.2736 -30.2736 -30.2736 -30.2736
   -20.1595 -20.1595 -20.1595 -20.1595 -20.1593 -20.1593 -20.1593 -20.1593
   -20.1514 -20.1514 -20.1514 -20.1514 -20.1512 -20.1512 -20.1512 -20.1512
   -20.1482 -20.1482 -20.1482 -20.1481 -20.1469 -20.1469 -20.1469 -20.1469
   -20.1464 -20.1464 -20.1464 -20.1464 -20.1461 -20.1461 -20.1461 -20.1461
   -20.1310 -20.1310 -20.1310 -20.1310 -20.1308 -20.1308 -20.1308 -20.1308
   -20.0909 -20.0909 -20.0909 -20.0909 -20.0893 -20.0893 -20.0893 -20.0893
   -20.0886 -20.0886 -20.0886 -20.0886 -20.0879 -20.0879 -20.0879 -20.0879
    -9.1722  -9.1722  -9.1681  -9.1680  -8.7920  -8.7920  -8.7823  -8.7823
    -8.5383  -8.5383  -8.5290  -8.5290  -8.4075  -8.4074  -8.3938  -8.3938
    -8.3494  -8.3494  -8.3382  -8.3382  -8.0849  -8.0849  -8.0839  -8.0839
     2.3099   2.3099   2.3167   2.3167   3.0175   3.0175   3.0533   3.0533
     3.1285   3.1285   3.1456   3.1456   3.2570   3.2570   3.2795   3.2795
     3.3978   3.3978   3.4360   3.4360   3.6354   3.6354   3.6613   3.6613
     3.7930   3.7930   3.8615   3.8615   4.2460   4.2460   4.2609   4.2609
     4.3041   4.3041   4.3670   4.3670   4.4428   4.4428   4.5539   4.5539
     4.6462   4.6462   4.7895   4.7895   5.0863   5.0863   5.1040   5.1040
     6.9927   6.9927   7.0513   7.0513   7.1664   7.1665   7.1866   7.1866
     7.2578   7.2578   7.2969   7.2969   7.3329   7.3329   7.3855   7.3855
     7.4723   7.4723   7.5379   7.5379   7.6219   7.6219   7.6472   7.6472
    11.5048  11.5048  11.5477  11.5477  11.7555  11.7555  11.8436  11.8436
    12.2341  12.2341  12.2922  12.2923  12.3306  12.3306  12.3740  12.3740
    12.5398  12.5398  12.6613  12.6613  12.9840  12.9840  13.0686  13.0686
    16.5215  16.5215  16.5840  16.5840  16.9937  16.9937  17.0059  17.0059
    17.3362  17.3362  17.4349  17.4349  17.4951  17.4951

          k =-0.5000-0.4758-0.4998 ( 62448 PWs)   bands (ev):

   -66.0080 -66.0080 -66.0080 -66.0080 -66.0080 -66.0080 -66.0080 -66.0080
   -30.4350 -30.4350 -30.4350 -30.4350 -30.4348 -30.4348 -30.4348 -30.4348
   -30.3006 -30.3006 -30.3006 -30.3006 -30.2991 -30.2991 -30.2991 -30.2991
   -30.2951 -30.2951 -30.2951 -30.2951 -30.2936 -30.2936 -30.2936 -30.2936
   -20.1594 -20.1594 -20.1594 -20.1594 -20.1594 -20.1594 -20.1594 -20.1594
   -20.1513 -20.1513 -20.1513 -20.1513 -20.1513 -20.1513 -20.1513 -20.1513
   -20.1475 -20.1475 -20.1475 -20.1475 -20.1474 -20.1474 -20.1474 -20.1474
   -20.1464 -20.1464 -20.1464 -20.1464 -20.1463 -20.1463 -20.1463 -20.1463
   -20.1309 -20.1309 -20.1309 -20.1309 -20.1309 -20.1309 -20.1309 -20.1309
   -20.0897 -20.0897 -20.0897 -20.0897 -20.0896 -20.0896 -20.0896 -20.0896
   -20.0888 -20.0888 -20.0888 -20.0888 -20.0887 -20.0887 -20.0887 -20.0887
    -8.9344  -8.9344  -8.9344  -8.9344  -8.9269  -8.9268  -8.9268  -8.9268
    -8.4123  -8.4123  -8.4123  -8.4123  -8.3969  -8.3969  -8.3969  -8.3969
    -8.3491  -8.3491  -8.3490  -8.3490  -8.3430  -8.3430  -8.3430  -8.3430
     3.0096   3.0096   3.0096   3.0096   3.0400   3.0400   3.0400   3.0400
     3.1631   3.1631   3.1631   3.1631   3.2017   3.2017   3.2017   3.2017
     3.4161   3.4162   3.4162   3.4162   3.4864   3.4864   3.4864   3.4864
     4.1566   4.1566   4.1566   4.1566   4.1658   4.1658   4.1658   4.1658
     4.3439   4.3439   4.3439   4.3439   4.3582   4.3582   4.3582   4.3582
     4.4438   4.4438   4.4438   4.4438   4.4651   4.4651   4.4651   4.4651
     7.1399   7.1399   7.1399   7.1399   7.2248   7.2248   7.2248   7.2248
     7.3188   7.3188   7.3188   7.3188   7.3323   7.3323   7.3323   7.3323
     7.5954   7.5954   7.5954   7.5954   7.6173   7.6173   7.6173   7.6173
    11.8943  11.8944  11.8944  11.8944  11.9027  11.9027  11.9027  11.9027
    12.2544  12.2544  12.2544  12.2544  12.3339  12.3339  12.3339  12.3339
    12.5335  12.5335  12.5335  12.5335  12.5697  12.5697  12.5697  12.5697
    17.0933  17.0934  17.0934  17.0934  17.1400  17.1400  17.1401  17.1401
    17.4252  17.4252  17.4252  17.4253  17.4484  17.4484

     the Fermi energy is     9.9767 ev

!    total energy              =   -6260.39688954 Ry
     Harris-Foulkes estimate   =   -6260.39688954 Ry
     estimated scf accuracy    <          1.5E-09 Ry

     The total energy is the sum of the following terms:

     one-electron contribution =   -4738.20257516 Ry
     hartree contribution      =    2607.99655623 Ry
     xc contribution           =    -966.77459490 Ry
     ewald contribution        =   -3163.41620089 Ry
     smearing contrib. (-TS)   =      -0.00007483 Ry

     convergence has been achieved in  13 iterations

     Writing output data file Landau_5.save
 
     init_run     :     33.05s CPU     34.56s WALL (       1 calls)
     electrons    :   1664.99s CPU   1693.41s WALL (       1 calls)

     Called by init_run:
     wfcinit      :     29.77s CPU     31.13s WALL (       1 calls)
     potinit      :      1.34s CPU      1.37s WALL (       1 calls)

     Called by electrons:
     c_bands      :   1462.90s CPU   1489.22s WALL (      13 calls)
     sum_band     :    194.34s CPU    195.38s WALL (      13 calls)
     v_of_rho     :      1.53s CPU      1.54s WALL (      14 calls)
     mix_rho      :      1.94s CPU      2.40s WALL (      13 calls)

     Called by c_bands:
     init_us_2    :      8.60s CPU      9.24s WALL (      54 calls)
     cegterg      :    984.69s CPU   1009.76s WALL (      26 calls)

     Called by sum_band:

     Called by *egterg:
     h_psi        :    744.76s CPU    747.82s WALL (     119 calls)
     g_psi        :      3.57s CPU      3.59s WALL (      91 calls)
     cdiaghg      :     13.75s CPU     13.79s WALL (     117 calls)

     Called by h_psi:
     h_psi:pot    :    740.04s CPU    742.86s WALL (     119 calls)
     h_psi:calbec :    100.72s CPU    102.73s WALL (     119 calls)
     vloc_psi     :    532.07s CPU    532.54s WALL (     119 calls)
     add_vuspsi   :    107.24s CPU    107.59s WALL (     119 calls)

     General routines
     calbec       :    100.72s CPU    102.73s WALL (     119 calls)
     fft          :      0.89s CPU      0.91s WALL (      56 calls)
     fftw         :    564.50s CPU    564.82s WALL (   34072 calls)
 
     Parallel routines
 
     PWSCF        : 28m28.20s CPU    29m 2.15s WALL

 
   This run was terminated on:   0:29:16  22Mar2020            

=------------------------------------------------------------------------------=
   JOB DONE.
=------------------------------------------------------------------------------=
