
     Program PWSCF v.6.2 (svn rev. 14038) starts on 23Mar2020 at 21: 0:21 

     This program is part of the open-source Quantum ESPRESSO suite
     for quantum simulation of materials; please cite
         "P. Giannozzi et al., J. Phys.:Condens. Matter 21 395502 (2009);
         "P. Giannozzi et al., J. Phys.:Condens. Matter 29 465901 (2017);
          URL http://www.quantum-espresso.org", 
     in publications or presentations arising from this work. More details at
     http://www.quantum-espresso.org/quote

     Parallel version (MPI), running on    40 processors

     MPI processes distributed on     7 nodes
     K-points division:     npool     =      40
     Reading input from rscf.in

     Current dimensions of program PWSCF are:
     Max number of different atomic species (ntypx) = 10
     Max number of k-points (npk) =  40000
     Max angular momentum in pseudopotentials (lmaxx) =  3

     Subspace diagonalization in iterative solution of the eigenvalue problem:
     a serial algorithm will be used

 
     G-vector sticks info
     --------------------
     sticks:   dense  smooth     PW     G-vecs:    dense   smooth      PW
     Sum        7747    7747   2077               498127   498127   69057
 


     bravais-lattice index     =            0
     lattice parameter (alat)  =      13.8397  a.u.
     unit-cell volume          =    2804.9816 (a.u.)^3
     number of atoms/cell      =           32
     number of atomic types    =            2
     number of electrons       =       368.00
     number of Kohn-Sham states=          221
     kinetic-energy cutoff     =     120.0000  Ry
     charge density cutoff     =     480.0000  Ry
     convergence threshold     =      1.0E-08
     mixing beta               =       0.7000
     number of iterations used =            8  plain     mixing
     Exchange-correlation      = SLA PW NOGX NOGC ( 1  4  0  0 0 0)
     nstep                     =           50


     celldm(1)=  13.839685  celldm(2)=   0.000000  celldm(3)=   0.000000
     celldm(4)=   0.000000  celldm(5)=   0.000000  celldm(6)=   0.000000

     crystal axes: (cart. coord. in units of alat)
               a(1) = (   1.000000   0.000000   0.000000 )  
               a(2) = (   0.000000   1.058160   0.000000 )  
               a(3) = (   0.000000   0.000000   1.000000 )  

     reciprocal axes: (cart. coord. in units 2 pi/alat)
               b(1) = (  1.000000  0.000000  0.000000 )  
               b(2) = (  0.000000  0.945037  0.000000 )  
               b(3) = (  0.000000  0.000000  1.000000 )  


     PseudoPot. # 1 for W  read from file:
     /cluster/scratch/mnoe/QE/pps/W_ONCV_LDA-4.0.upf
     MD5 check sum: ba0307d5d4cd419d6f1d13dc49d7c13a
     Pseudo is Norm-conserving + core correction, Zval = 28.0
     Generated using ONCVPSP code by D. R. Hamann
     Using radial grid of 1380 points,  8 beta functions with: 
                l(1) =   0
                l(2) =   0
                l(3) =   1
                l(4) =   1
                l(5) =   2
                l(6) =   2
                l(7) =   3
                l(8) =   3

     PseudoPot. # 2 for O  read from file:
     /cluster/scratch/mnoe/QE/pps/O_ONCV_LDA-3.0.upf
     MD5 check sum: a1bd6164e7280c17a38c229939bfbd54
     Pseudo is Norm-conserving + core correction, Zval =  6.0
     Generated using ONCVPSP code by D. R. Hamann
     Using radial grid of  926 points,  5 beta functions with: 
                l(1) =   0
                l(2) =   0
                l(3) =   1
                l(4) =   1
                l(5) =   2

     atomic species   valence    mass     pseudopotential
        W             28.00   183.84000     W ( 1.00)
        O              6.00    15.99940     O ( 1.00)

      4 Sym. Ops. (no inversion) found ( 3 have fractional translation)



   Cartesian axes

     site n.     atom                  positions (alat units)
         1           W   tau(   1) = (   0.2309424   0.2910003   0.0057613  )
         2           W   tau(   2) = (   0.7568424   0.7671598  -0.0186966  )
         3           W   tau(   3) = (   0.2690576   0.2380798   0.5057613  )
         4           W   tau(   4) = (   0.7431576   0.8200804   0.4813033  )
         5           W   tau(   5) = (   0.7690575   0.2910003   0.4942387  )
         6           W   tau(   6) = (   0.2431576   0.7671598   0.5186967  )
         7           W   tau(   7) = (   0.7309424   0.2380798  -0.0057613  )
         8           W   tau(   8) = (   0.2568424   0.8200804   0.0186967  )
         9           O   tau(   9) = (   0.2242106   0.0068280  -0.0081310  )
        10           O   tau(  10) = (   0.7719926  -0.0068281  -0.0157330  )
        11           O   tau(  11) = (   0.2757893   0.5222520   0.4918690  )
        12           O   tau(  12) = (   0.7280073   0.5359081   0.4842670  )
        13           O   tau(  13) = (   0.7757893   0.0068280   0.5081310  )
        14           O   tau(  14) = (   0.2280073  -0.0068281   0.5157330  )
        15           O   tau(  15) = (   0.7242106   0.5222520   0.0081310  )
        16           O   tau(  16) = (   0.2719926   0.5359081   0.0157330  )
        17           O   tau(  17) = (   0.5062235   0.2357814   0.4662995  )
        18           O   tau(  18) = (   0.4991395   0.8167261   0.5337005  )
        19           O   tau(  19) = (  -0.0062235   0.2932986   0.9662996  )
        20           O   tau(  20) = (   0.0008605   0.7705141   0.0337004  )
        21           O   tau(  21) = (   0.4937765   0.2357814   0.0337004  )
        22           O   tau(  22) = (   0.5008605   0.8167261   0.9662996  )
        23           O   tau(  23) = (   0.0062234   0.2932986   0.5337005  )
        24           O   tau(  24) = (  -0.0008606   0.7705141   0.4662995  )
        25           O   tau(  25) = (   0.7162995   0.2718325   0.7464000  )
        26           O   tau(  26) = (   0.2837004   0.8122306   0.2571380  )
        27           O   tau(  27) = (   0.7837005   0.2572476   0.2464001  )
        28           O   tau(  28) = (   0.2162996   0.7750096   0.7571380  )
        29           O   tau(  29) = (   0.2837004   0.2718325   0.7536000  )
        30           O   tau(  30) = (   0.7162995   0.8122306   0.2428621  )
        31           O   tau(  31) = (   0.2162996   0.2572476   0.2536000  )
        32           O   tau(  32) = (   0.7837005   0.7750096   0.7428620  )

     number of k points=    64  gaussian smearing, width (Ry)=  0.0007
                       cart. coord. in units 2pi/alat
        k(    1) = (   0.0000000   0.0000000   0.0000000), wk =   0.0092593
        k(    2) = (   0.0000000   0.0000000   0.1666667), wk =   0.0185185
        k(    3) = (   0.0000000   0.0000000   0.3333333), wk =   0.0185185
        k(    4) = (   0.0000000   0.0000000  -0.5000000), wk =   0.0092593
        k(    5) = (   0.0000000   0.1575061   0.0000000), wk =   0.0185185
        k(    6) = (   0.0000000   0.1575061   0.1666667), wk =   0.0370370
        k(    7) = (   0.0000000   0.1575061   0.3333333), wk =   0.0370370
        k(    8) = (   0.0000000   0.1575061  -0.5000000), wk =   0.0185185
        k(    9) = (   0.0000000   0.3150122   0.0000000), wk =   0.0185185
        k(   10) = (   0.0000000   0.3150122   0.1666667), wk =   0.0370370
        k(   11) = (   0.0000000   0.3150122   0.3333333), wk =   0.0370370
        k(   12) = (   0.0000000   0.3150122  -0.5000000), wk =   0.0185185
        k(   13) = (   0.0000000  -0.4725183   0.0000000), wk =   0.0092593
        k(   14) = (   0.0000000  -0.4725183   0.1666667), wk =   0.0185185
        k(   15) = (   0.0000000  -0.4725183   0.3333333), wk =   0.0185185
        k(   16) = (   0.0000000  -0.4725183  -0.5000000), wk =   0.0092593
        k(   17) = (   0.1666667   0.0000000   0.1666667), wk =   0.0370370
        k(   18) = (   0.1666667   0.0000000   0.3333333), wk =   0.0370370
        k(   19) = (   0.1666667   0.0000000  -0.5000000), wk =   0.0185185
        k(   20) = (   0.1666667   0.1575061   0.1666667), wk =   0.0740741
        k(   21) = (   0.1666667   0.1575061   0.3333333), wk =   0.0740741
        k(   22) = (   0.1666667   0.1575061  -0.5000000), wk =   0.0370370
        k(   23) = (   0.1666667   0.3150122   0.1666667), wk =   0.0740741
        k(   24) = (   0.1666667   0.3150122   0.3333333), wk =   0.0740741
        k(   25) = (   0.1666667   0.3150122  -0.5000000), wk =   0.0370370
        k(   26) = (   0.1666667  -0.4725183   0.1666667), wk =   0.0370370
        k(   27) = (   0.1666667  -0.4725183   0.3333333), wk =   0.0370370
        k(   28) = (   0.1666667  -0.4725183  -0.5000000), wk =   0.0185185
        k(   29) = (   0.3333333   0.0000000   0.3333333), wk =   0.0370370
        k(   30) = (   0.3333333   0.0000000  -0.5000000), wk =   0.0185185
        k(   31) = (   0.3333333   0.1575061   0.3333333), wk =   0.0740741
        k(   32) = (   0.3333333   0.1575061  -0.5000000), wk =   0.0370370
        k(   33) = (   0.3333333   0.3150122   0.3333333), wk =   0.0740741
        k(   34) = (   0.3333333   0.3150122  -0.5000000), wk =   0.0370370
        k(   35) = (   0.3333333  -0.4725183   0.3333333), wk =   0.0370370
        k(   36) = (   0.3333333  -0.4725183  -0.5000000), wk =   0.0185185
        k(   37) = (  -0.5000000   0.0000000  -0.5000000), wk =   0.0092593
        k(   38) = (  -0.5000000   0.1575061  -0.5000000), wk =   0.0185185
        k(   39) = (  -0.5000000   0.3150122  -0.5000000), wk =   0.0185185
        k(   40) = (  -0.5000000  -0.4725183  -0.5000000), wk =   0.0092593
        k(   41) = (   0.1666667   0.0000000   0.0000000), wk =   0.0185185
        k(   42) = (   0.3333333   0.0000000   0.0000000), wk =   0.0185185
        k(   43) = (  -0.5000000   0.0000000   0.0000000), wk =   0.0092593
        k(   44) = (   0.1666667  -0.1575061   0.0000000), wk =   0.0370370
        k(   45) = (   0.3333333  -0.1575061   0.0000000), wk =   0.0370370
        k(   46) = (  -0.5000000  -0.1575061   0.0000000), wk =   0.0185185
        k(   47) = (   0.1666667  -0.3150122   0.0000000), wk =   0.0370370
        k(   48) = (   0.3333333  -0.3150122   0.0000000), wk =   0.0370370
        k(   49) = (  -0.5000000  -0.3150122   0.0000000), wk =   0.0185185
        k(   50) = (   0.1666667   0.4725183   0.0000000), wk =   0.0185185
        k(   51) = (   0.3333333   0.4725183   0.0000000), wk =   0.0185185
        k(   52) = (  -0.5000000   0.4725183   0.0000000), wk =   0.0092593
        k(   53) = (   0.3333333   0.0000000   0.1666667), wk =   0.0370370
        k(   54) = (  -0.5000000   0.0000000   0.1666667), wk =   0.0185185
        k(   55) = (   0.3333333  -0.1575061   0.1666667), wk =   0.0740741
        k(   56) = (  -0.5000000  -0.1575061   0.1666667), wk =   0.0370370
        k(   57) = (   0.3333333  -0.3150122   0.1666667), wk =   0.0740741
        k(   58) = (  -0.5000000  -0.3150122   0.1666667), wk =   0.0370370
        k(   59) = (   0.3333333   0.4725183   0.1666667), wk =   0.0370370
        k(   60) = (  -0.5000000   0.4725183   0.1666667), wk =   0.0185185
        k(   61) = (  -0.5000000   0.0000000   0.3333333), wk =   0.0185185
        k(   62) = (  -0.5000000  -0.1575061   0.3333333), wk =   0.0370370
        k(   63) = (  -0.5000000  -0.3150122   0.3333333), wk =   0.0370370
        k(   64) = (  -0.5000000   0.4725183   0.3333333), wk =   0.0185185

     Dense  grid:   498127 G-vectors     FFT dimensions: ( 100, 108, 100)

     Estimated max dynamical RAM per process >       3.15 GB

     Estimated total dynamical RAM >     125.81 GB

     Initial potential from superposition of free atoms

     starting charge  367.99656, renormalised to  368.00000
     Starting wfc are  232 randomized atomic wfcs

     total cpu time spent up to now is       65.1 secs

     Self-consistent Calculation

     iteration #  1     ecut=   120.00 Ry     beta= 0.70
     Davidson diagonalization with overlap
     ethr =  1.00E-02,  avg # of iterations =  5.2

     total cpu time spent up to now is      243.6 secs

     total energy              =   -6254.00891755 Ry
     Harris-Foulkes estimate   =   -6264.52977221 Ry
     estimated scf accuracy    <      13.33926118 Ry

     iteration #  2     ecut=   120.00 Ry     beta= 0.70
     Davidson diagonalization with overlap
     ethr =  3.62E-03,  avg # of iterations =  3.5

     total cpu time spent up to now is      417.8 secs

     total energy              =   -6250.83790239 Ry
     Harris-Foulkes estimate   =   -6270.54484846 Ry
     estimated scf accuracy    <      52.92729346 Ry

     iteration #  3     ecut=   120.00 Ry     beta= 0.70
     Davidson diagonalization with overlap
     ethr =  3.62E-03,  avg # of iterations =  3.6

     total cpu time spent up to now is      578.1 secs

     total energy              =   -6260.98886560 Ry
     Harris-Foulkes estimate   =   -6261.42496128 Ry
     estimated scf accuracy    <       1.36610508 Ry

     iteration #  4     ecut=   120.00 Ry     beta= 0.70
     Davidson diagonalization with overlap
     ethr =  3.71E-04,  avg # of iterations =  2.7

     total cpu time spent up to now is      702.8 secs

     total energy              =   -6261.04741266 Ry
     Harris-Foulkes estimate   =   -6261.14188214 Ry
     estimated scf accuracy    <       0.32704038 Ry

     iteration #  5     ecut=   120.00 Ry     beta= 0.70
     Davidson diagonalization with overlap
     ethr =  8.89E-05,  avg # of iterations =  5.2

     total cpu time spent up to now is      828.9 secs

     total energy              =   -6261.02996780 Ry
     Harris-Foulkes estimate   =   -6261.07536035 Ry
     estimated scf accuracy    <       0.09805120 Ry

     iteration #  6     ecut=   120.00 Ry     beta= 0.70
     Davidson diagonalization with overlap
     ethr =  2.66E-05,  avg # of iterations =  6.6

     total cpu time spent up to now is      976.2 secs

     total energy              =   -6261.05241751 Ry
     Harris-Foulkes estimate   =   -6261.05426922 Ry
     estimated scf accuracy    <       0.00646475 Ry

     iteration #  7     ecut=   120.00 Ry     beta= 0.70
     Davidson diagonalization with overlap
     ethr =  1.76E-06,  avg # of iterations =  6.5

     total cpu time spent up to now is     1118.6 secs

     total energy              =   -6261.05247444 Ry
     Harris-Foulkes estimate   =   -6261.05361700 Ry
     estimated scf accuracy    <       0.00385377 Ry

     iteration #  8     ecut=   120.00 Ry     beta= 0.70
     Davidson diagonalization with overlap
     ethr =  1.05E-06,  avg # of iterations =  2.2

     total cpu time spent up to now is     1239.6 secs

     total energy              =   -6261.05286906 Ry
     Harris-Foulkes estimate   =   -6261.05294571 Ry
     estimated scf accuracy    <       0.00019606 Ry

     iteration #  9     ecut=   120.00 Ry     beta= 0.70
     Davidson diagonalization with overlap
     ethr =  5.33E-08,  avg # of iterations =  3.3

     total cpu time spent up to now is     1380.4 secs

     total energy              =   -6261.05290400 Ry
     Harris-Foulkes estimate   =   -6261.05291868 Ry
     estimated scf accuracy    <       0.00003265 Ry

     iteration # 10     ecut=   120.00 Ry     beta= 0.70
     Davidson diagonalization with overlap
     ethr =  8.87E-09,  avg # of iterations =  3.0

     total cpu time spent up to now is     1521.2 secs

     total energy              =   -6261.05291108 Ry
     Harris-Foulkes estimate   =   -6261.05291268 Ry
     estimated scf accuracy    <       0.00000409 Ry

     iteration # 11     ecut=   120.00 Ry     beta= 0.70
     Davidson diagonalization with overlap
     ethr =  1.11E-09,  avg # of iterations =  2.1

     total cpu time spent up to now is     1650.7 secs

     total energy              =   -6261.05291156 Ry
     Harris-Foulkes estimate   =   -6261.05291174 Ry
     estimated scf accuracy    <       0.00000036 Ry

     iteration # 12     ecut=   120.00 Ry     beta= 0.70
     Davidson diagonalization with overlap
     ethr =  9.87E-11,  avg # of iterations =  2.9

     total cpu time spent up to now is     1809.8 secs

     total energy              =   -6261.05291163 Ry
     Harris-Foulkes estimate   =   -6261.05291165 Ry
     estimated scf accuracy    <       0.00000005 Ry

     iteration # 13     ecut=   120.00 Ry     beta= 0.70
     Davidson diagonalization with overlap
     ethr =  1.28E-11,  avg # of iterations =  3.0

     total cpu time spent up to now is     1966.9 secs

     total energy              =   -6261.05291163 Ry
     Harris-Foulkes estimate   =   -6261.05291165 Ry
     estimated scf accuracy    <       0.00000003 Ry

     iteration # 14     ecut=   120.00 Ry     beta= 0.70
     Davidson diagonalization with overlap
     ethr =  7.33E-12,  avg # of iterations =  2.1

     total cpu time spent up to now is     2101.0 secs

     End of self-consistent calculation

          k = 0.0000 0.0000 0.0000 ( 62239 PWs)   bands (ev):

   -66.1557 -66.1548 -66.1547 -66.1537 -66.1528 -66.1518 -66.1518 -66.1508
   -30.6379 -30.6328 -30.6276 -30.6210 -30.5554 -30.5533 -30.5409 -30.5361
   -30.5289 -30.5260 -30.5165 -30.5129 -30.4513 -30.4453 -30.4369 -30.4322
   -30.4318 -30.4274 -30.4257 -30.4209 -30.3757 -30.3718 -30.3712 -30.3674
   -20.3072 -20.3071 -20.3069 -20.3068 -20.3037 -20.3035 -20.3033 -20.3031
   -20.2878 -20.2876 -20.2868 -20.2864 -20.2848 -20.2842 -20.2831 -20.2830
   -20.2808 -20.2807 -20.2806 -20.2801 -20.2798 -20.2796 -20.2795 -20.2790
   -20.2790 -20.2785 -20.2773 -20.2770 -20.2766 -20.2762 -20.2761 -20.2756
   -20.2749 -20.2745 -20.2725 -20.2717 -20.2715 -20.2709 -20.2706 -20.2703
   -20.2703 -20.2699 -20.2678 -20.2676 -20.2656 -20.2652 -20.2648 -20.2641
   -20.2637 -20.2633 -20.2620 -20.2613 -20.2610 -20.2597 -20.2577 -20.2563
   -10.0919  -9.9139  -9.7059  -9.6543  -9.5113  -9.4506  -9.2643  -9.2442
    -8.7308  -8.6612  -8.6609  -8.6606  -7.9476  -7.9174  -7.8400  -7.8304
    -7.7967  -7.7764  -7.7083  -7.6930  -7.5948  -7.5352  -7.5258  -7.4733
     0.8257   0.8535   0.9306   1.0215   1.0339   1.1233   1.2792   1.3298
     1.8863   1.9073   1.9269   1.9887   2.1128   2.1978   2.5813   2.6483
     2.7490   2.7510   4.0869   4.1590   4.1786   4.2796   4.3755   4.4096
     4.4625   4.4982   4.8520   5.1374   5.2039   5.2170   5.2458   5.4265
     5.4461   5.4694   5.5391   5.5505   5.5689   5.5981   5.6175   5.6623
     5.8422   5.8783   5.9321   5.9406   5.9443   5.9834   6.0656   6.0666
     6.2098   6.3249   6.3934   6.4168   6.4932   6.6455   6.8405   6.8985
     6.9458   6.9736   6.9996   7.0455   7.1089   7.1151   7.1566   7.2020
     7.2057   7.2152   7.9131   7.9298   8.0744   8.1051   8.1659   8.2170
     9.4429   9.4807   9.7866   9.8078   9.8198   9.8584  12.2071  12.3314
    12.3771  12.4937  12.5620  12.5662  12.7443  12.8219  12.8300  13.0488
    13.1810  13.2671  13.3938  13.5784  13.6711  13.8034  13.9536  14.1331
    14.3835  14.4575  14.6055  14.9273  15.2653  15.4617  15.4785  16.2401
    16.2519  17.0599  17.1712  17.2122  17.3139

          k = 0.0000 0.0000 0.1667 ( 62262 PWs)   bands (ev):

   -66.1557 -66.1548 -66.1546 -66.1538 -66.1527 -66.1518 -66.1517 -66.1508
   -30.6308 -30.6270 -30.6258 -30.6214 -30.5498 -30.5464 -30.5404 -30.5391
   -30.5341 -30.5327 -30.5171 -30.5117 -30.4581 -30.4518 -30.4366 -30.4321
   -30.4318 -30.4270 -30.4262 -30.4215 -30.3754 -30.3715 -30.3715 -30.3677
   -20.3072 -20.3070 -20.3069 -20.3068 -20.3037 -20.3035 -20.3033 -20.3031
   -20.2878 -20.2876 -20.2868 -20.2865 -20.2848 -20.2843 -20.2829 -20.2828
   -20.2809 -20.2808 -20.2805 -20.2801 -20.2798 -20.2797 -20.2796 -20.2791
   -20.2790 -20.2785 -20.2773 -20.2769 -20.2766 -20.2763 -20.2760 -20.2753
   -20.2750 -20.2742 -20.2720 -20.2719 -20.2714 -20.2708 -20.2706 -20.2705
   -20.2702 -20.2696 -20.2685 -20.2677 -20.2659 -20.2650 -20.2648 -20.2642
   -20.2637 -20.2636 -20.2624 -20.2615 -20.2609 -20.2598 -20.2576 -20.2564
   -10.0351  -9.8542  -9.6668  -9.6132  -9.4624  -9.4171  -9.2222  -9.2053
    -8.7440  -8.6684  -8.6558  -8.6525  -8.0763  -7.9863  -7.9461  -7.9158
    -7.8489  -7.8364  -7.7734  -7.6988  -7.5913  -7.5394  -7.5235  -7.4770
     0.9399   0.9930   1.0201   1.1249   1.2095   1.3137   1.4165   1.4945
     1.8820   1.9165   1.9190   2.0159   2.2025   2.2874   2.6145   2.7158
     2.7402   2.8392   4.0307   4.0968   4.1282   4.2016   4.2078   4.2648
     4.4633   4.5126   4.7272   4.7820   4.9200   5.1833   5.2099   5.2447
     5.3327   5.3902   5.4667   5.5339   5.5374   5.6104   5.6348   5.6722
     5.6911   5.8382   5.8815   5.9357   6.0121   6.0139   6.1110   6.1772
     6.2112   6.3540   6.4774   6.5269   6.6708   6.7486   6.7519   6.7860
     6.8359   6.9144   6.9309   6.9355   7.0020   7.0417   7.0768   7.1286
     7.1953   7.2118   7.8812   7.8911   8.0945   8.0990   8.1245   8.1847
     9.7074   9.7876   9.7903   9.8868  10.0928  10.1390  12.2712  12.3069
    12.4165  12.4557  12.5159  12.6259  12.6784  12.7657  12.8625  12.9228
    13.0513  13.1927  13.4044  13.6375  13.6736  13.7543  13.9251  14.0103
    14.3788  14.5109  14.5989  15.0409  15.2375  15.5451  15.5760  16.2232
    16.5827  16.9150  17.2294  17.4043  17.4072

          k = 0.0000 0.0000 0.3333 ( 62268 PWs)   bands (ev):

   -66.1555 -66.1550 -66.1544 -66.1540 -66.1525 -66.1520 -66.1515 -66.1510
   -30.6258 -30.6225 -30.6113 -30.6065 -30.5576 -30.5532 -30.5394 -30.5361
   -30.5359 -30.5277 -30.5192 -30.5063 -30.4769 -30.4694 -30.4357 -30.4331
   -30.4306 -30.4275 -30.4259 -30.4229 -30.3745 -30.3722 -30.3706 -30.3684
   -20.3071 -20.3070 -20.3070 -20.3068 -20.3036 -20.3034 -20.3034 -20.3032
   -20.2877 -20.2876 -20.2868 -20.2866 -20.2847 -20.2844 -20.2824 -20.2823
   -20.2812 -20.2812 -20.2803 -20.2799 -20.2799 -20.2798 -20.2796 -20.2793
   -20.2789 -20.2786 -20.2773 -20.2768 -20.2768 -20.2765 -20.2756 -20.2751
   -20.2744 -20.2732 -20.2723 -20.2714 -20.2711 -20.2707 -20.2704 -20.2704
   -20.2699 -20.2698 -20.2685 -20.2684 -20.2669 -20.2648 -20.2647 -20.2646
   -20.2643 -20.2632 -20.2632 -20.2621 -20.2607 -20.2600 -20.2573 -20.2566
    -9.9047  -9.7125  -9.7070  -9.5010  -9.3549  -9.1507  -9.0981  -9.0422
    -8.8037  -8.7004  -8.6375  -8.6217  -8.4085  -8.3440  -8.2777  -8.2143
    -7.8964  -7.8528  -7.7583  -7.7148  -7.5811  -7.5508  -7.5146  -7.4873
     1.0018   1.0177   1.1159   1.1292   1.7911   1.7967   1.8732   1.9032
     2.0180   2.1428   2.1729   2.3252   2.4619   2.5426   2.6492   2.7197
     2.9616   3.0724   3.4691   3.5720   3.9192   3.9414   4.1578   4.1849
     4.2450   4.3906   4.4106   4.5642   4.6638   4.7764   4.7872   4.8067
     5.0206   5.1605   5.2413   5.2564   5.3221   5.3528   5.6977   5.7485
     5.8058   5.8967   5.9267   5.9825   6.0356   6.0377   6.2028   6.2263
     6.2538   6.3526   6.3673   6.4588   6.4835   6.6435   6.6703   6.7868
     6.8880   6.9605   6.9981   7.0202   7.0238   7.0434   7.1785   7.2033
     7.2567   7.3386   7.7391   7.7490   7.9758   8.0172   8.1192   8.1372
     9.7860   9.7891  10.4771  10.5589  10.7628  10.8335  12.0040  12.1109
    12.2215  12.4108  12.4468  12.4752  12.6368  12.6665  12.8081  12.8120
    12.9861  13.2517  13.3387  13.3936  13.5196  13.6863  13.7438  13.8414
    14.4423  14.5766  14.7367  15.1489  15.3145  15.7927  16.1081  16.1110
    16.3841  17.4914  17.5829  17.6696  17.7887

          k = 0.0000 0.0000-0.5000 ( 62264 PWs)   bands (ev):

   -66.1553 -66.1552 -66.1542 -66.1542 -66.1523 -66.1523 -66.1513 -66.1513
   -30.6241 -30.6241 -30.5845 -30.5845 -30.5800 -30.5799 -30.5378 -30.5378
   -30.5242 -30.5242 -30.5024 -30.5024 -30.4913 -30.4913 -30.4344 -30.4344
   -30.4291 -30.4291 -30.4244 -30.4244 -30.3733 -30.3733 -30.3695 -30.3695
   -20.3071 -20.3070 -20.3069 -20.3069 -20.3035 -20.3035 -20.3033 -20.3033
   -20.2877 -20.2877 -20.2867 -20.2867 -20.2846 -20.2846 -20.2817 -20.2817
   -20.2817 -20.2817 -20.2801 -20.2801 -20.2797 -20.2797 -20.2796 -20.2796
   -20.2787 -20.2787 -20.2771 -20.2771 -20.2767 -20.2766 -20.2753 -20.2753
   -20.2733 -20.2733 -20.2720 -20.2720 -20.2711 -20.2711 -20.2704 -20.2704
   -20.2694 -20.2694 -20.2685 -20.2685 -20.2666 -20.2666 -20.2645 -20.2645
   -20.2640 -20.2640 -20.2627 -20.2627 -20.2604 -20.2603 -20.2570 -20.2570
    -9.7834  -9.7834  -9.5793  -9.5793  -9.0145  -9.0144  -8.8603  -8.8602
    -8.7641  -8.7641  -8.7460  -8.7460  -8.5713  -8.5713  -8.5213  -8.5213
    -7.8752  -7.8752  -7.7366  -7.7366  -7.5661  -7.5661  -7.5011  -7.5011
     1.0148   1.0148   1.1319   1.1319   1.8620   1.8620   1.8820   1.8820
     2.6639   2.6639   2.8068   2.8068   2.9130   2.9130   3.0122   3.0122
     3.0780   3.0780   3.1693   3.1693   3.3639   3.3639   3.6962   3.6962
     3.7874   3.7874   4.3180   4.3180   4.6597   4.6597   4.8854   4.8854
     4.9950   4.9950   5.1156   5.1156   5.2791   5.2791   5.7862   5.7862
     5.8716   5.8716   5.9512   5.9512   6.0448   6.0448   6.1949   6.1949
     6.2516   6.2516   6.3251   6.3251   6.4682   6.4682   6.7447   6.7447
     6.8732   6.8732   6.9965   6.9965   7.1934   7.1934   7.4321   7.4321
     7.4585   7.4585   7.6907   7.6907   7.7513   7.7513   8.1293   8.1293
     9.7893   9.7893  11.2864  11.2864  11.3951  11.3951  11.5561  11.5561
    11.6625  11.6625  12.4874  12.4874  12.7055  12.7056  12.9775  12.9775
    13.1167  13.1167  13.1827  13.1828  13.4396  13.4396  13.7305  13.7306
    14.5292  14.5292  14.9840  14.9840  15.7329  15.7329  16.0529  16.0529
    16.9219  16.9219  17.9527  17.9527  18.0546

          k = 0.0000 0.1575 0.0000 ( 62231 PWs)   bands (ev):

   -66.1557 -66.1548 -66.1547 -66.1537 -66.1528 -66.1518 -66.1518 -66.1508
   -30.6379 -30.6328 -30.6276 -30.6210 -30.5554 -30.5533 -30.5409 -30.5361
   -30.5289 -30.5259 -30.5165 -30.5129 -30.4511 -30.4451 -30.4369 -30.4319
   -30.4284 -30.4237 -30.4222 -30.4176 -30.3795 -30.3756 -30.3749 -30.3711
   -20.3072 -20.3071 -20.3069 -20.3068 -20.3037 -20.3035 -20.3033 -20.3031
   -20.2878 -20.2876 -20.2868 -20.2864 -20.2848 -20.2842 -20.2831 -20.2830
   -20.2808 -20.2807 -20.2806 -20.2801 -20.2799 -20.2796 -20.2796 -20.2791
   -20.2790 -20.2784 -20.2770 -20.2768 -20.2763 -20.2760 -20.2760 -20.2756
   -20.2749 -20.2745 -20.2725 -20.2718 -20.2717 -20.2712 -20.2707 -20.2705
   -20.2705 -20.2700 -20.2678 -20.2676 -20.2656 -20.2652 -20.2648 -20.2641
   -20.2637 -20.2633 -20.2620 -20.2613 -20.2610 -20.2597 -20.2577 -20.2563
   -10.0758  -9.9225  -9.6969  -9.6436  -9.5123  -9.4523  -9.2633  -9.2449
    -8.6618  -8.6047  -8.6047  -8.6020  -7.9494  -7.9175  -7.8410  -7.8320
    -7.7971  -7.7776  -7.7091  -7.6951  -7.6820  -7.6265  -7.6189  -7.5732
     0.8256   0.8532   0.9306   1.0220   1.0340   1.1240   1.2934   1.3322
     2.0606   2.1228   2.1256   2.1492   2.1922   2.2323   2.6506   2.7259
     2.8171   2.8245   3.9473   3.9661   4.0426   4.0715   4.3767   4.4034
     4.4568   4.4898   4.7139   5.1892   5.1954   5.2174   5.2644   5.3329
     5.3594   5.4405   5.4888   5.5345   5.6044   5.6057   5.6116   5.6301
     5.7806   5.8231   5.8673   5.9706   5.9824   5.9965   6.0623   6.0776
     6.0922   6.3074   6.4228   6.4417   6.5812   6.6930   6.8419   6.8653
     6.8687   6.8688   6.9083   6.9490   7.0852   7.1029   7.1322   7.1421
     7.1510   7.1969   7.9119   7.9288   8.0505   8.0611   8.1264   8.1424
     9.4567   9.4847   9.9868  10.0022  10.0415  10.0476  12.0793  12.2046
    12.2204  12.3275  12.5715  12.5740  12.7788  12.8269  12.8345  13.0751
    13.1901  13.2737  13.3932  13.6770  13.7073  13.8641  13.9249  14.0708
    14.4985  14.6830  14.7715  15.0079  15.4518  15.4788  15.6707  16.2072
    16.2161  16.7736  17.2685  17.3151  17.3817

          k = 0.0000 0.1575 0.1667 ( 62237 PWs)   bands (ev):

   -66.1557 -66.1548 -66.1546 -66.1538 -66.1527 -66.1518 -66.1517 -66.1508
   -30.6308 -30.6271 -30.6258 -30.6214 -30.5499 -30.5463 -30.5405 -30.5391
   -30.5341 -30.5327 -30.5171 -30.5116 -30.4580 -30.4516 -30.4366 -30.4322
   -30.4280 -30.4233 -30.4227 -30.4181 -30.3792 -30.3753 -30.3752 -30.3714
   -20.3072 -20.3070 -20.3069 -20.3068 -20.3037 -20.3035 -20.3033 -20.3031
   -20.2878 -20.2876 -20.2868 -20.2865 -20.2848 -20.2843 -20.2829 -20.2828
   -20.2809 -20.2808 -20.2805 -20.2801 -20.2799 -20.2797 -20.2796 -20.2791
   -20.2789 -20.2785 -20.2771 -20.2767 -20.2764 -20.2761 -20.2759 -20.2753
   -20.2749 -20.2742 -20.2720 -20.2719 -20.2715 -20.2710 -20.2708 -20.2706
   -20.2705 -20.2696 -20.2685 -20.2678 -20.2659 -20.2650 -20.2648 -20.2642
   -20.2637 -20.2636 -20.2624 -20.2615 -20.2609 -20.2598 -20.2576 -20.2564
   -10.0185  -9.8629  -9.6558  -9.6033  -9.4644  -9.4180  -9.2211  -9.2061
    -8.6752  -8.6123  -8.6003  -8.5953  -8.0768  -7.9872  -7.9470  -7.9173
    -7.8498  -7.8379  -7.7748  -7.7008  -7.6788  -7.6293  -7.6180  -7.5749
     0.9401   0.9927   1.0207   1.1257   1.2108   1.3152   1.4414   1.4971
     2.0665   2.1255   2.1440   2.2044   2.2445   2.2816   2.6835   2.7942
     2.8096   2.9129   3.9631   3.9796   4.0292   4.0593   4.1223   4.1470
     4.4521   4.4989   4.6647   4.7849   4.9059   5.1550   5.1931   5.2314
     5.3097   5.3245   5.3938   5.4514   5.5010   5.5413   5.6338   5.6696
     5.7711   5.8130   5.8213   5.8937   5.9878   6.0449   6.0698   6.0918
     6.2168   6.2758   6.5121   6.5782   6.7177   6.7280   6.7526   6.7926
     6.8252   6.8710   6.8796   6.9104   6.9422   6.9619   7.1128   7.1214
     7.1432   7.1625   7.8796   7.8913   8.0555   8.0596   8.0873   8.1156
     9.7653   9.8012  10.0052  10.0564  10.2381  10.2913  12.1497  12.1913
    12.2631  12.3557  12.4591  12.6284  12.6797  12.7997  12.8646  12.9602
    13.0583  13.2006  13.4123  13.6365  13.7099  13.7590  13.9181  13.9837
    14.5267  14.7484  14.8087  15.1138  15.5313  15.5797  15.6520  16.1876
    16.5486  16.9207  17.0115  17.4639  17.4853

          k = 0.0000 0.1575 0.3333 ( 62284 PWs)   bands (ev):

   -66.1555 -66.1550 -66.1544 -66.1540 -66.1525 -66.1520 -66.1515 -66.1510
   -30.6258 -30.6225 -30.6113 -30.6065 -30.5576 -30.5532 -30.5394 -30.5361
   -30.5359 -30.5277 -30.5192 -30.5063 -30.4768 -30.4693 -30.4357 -30.4331
   -30.4269 -30.4239 -30.4223 -30.4193 -30.3783 -30.3759 -30.3744 -30.3721
   -20.3071 -20.3070 -20.3070 -20.3068 -20.3036 -20.3034 -20.3034 -20.3032
   -20.2877 -20.2876 -20.2868 -20.2866 -20.2847 -20.2844 -20.2823 -20.2823
   -20.2812 -20.2812 -20.2803 -20.2799 -20.2799 -20.2798 -20.2796 -20.2793
   -20.2788 -20.2786 -20.2771 -20.2766 -20.2766 -20.2762 -20.2755 -20.2751
   -20.2744 -20.2733 -20.2724 -20.2716 -20.2713 -20.2710 -20.2706 -20.2704
   -20.2700 -20.2698 -20.2685 -20.2684 -20.2669 -20.2648 -20.2647 -20.2646
   -20.2643 -20.2632 -20.2632 -20.2621 -20.2607 -20.2600 -20.2573 -20.2566
    -9.8882  -9.7201  -9.6947  -9.5038  -9.3404  -9.1509  -9.0974  -9.0416
    -8.7403  -8.6505  -8.5848  -8.5696  -8.4060  -8.3438  -8.2758  -8.2119
    -7.8973  -7.8542  -7.7600  -7.7167  -7.6689  -7.6396  -7.6097  -7.5838
     1.0025   1.0183   1.1169   1.1303   1.9019   1.9423   2.0321   2.0810
     2.1277   2.1760   2.2241   2.3968   2.4701   2.5381   2.7162   2.7890
     3.0396   3.1412   3.4713   3.5678   3.8690   3.9175   4.0615   4.0864
     4.2261   4.3154   4.4014   4.5132   4.5967   4.6522   4.7101   4.7879
     4.9877   5.0429   5.2118   5.2459   5.3109   5.3670   5.4739   5.7639
     5.8125   5.8301   5.8808   5.8935   5.9694   6.0169   6.0910   6.1011
     6.2442   6.3976   6.3994   6.4913   6.5445   6.6608   6.7793   6.8134
     6.8303   6.8883   6.9728   7.0142   7.0320   7.0653   7.1103   7.1791
     7.2775   7.3436   7.7410   7.7489   7.9496   7.9774   8.0719   8.0826
    10.0037  10.0127  10.4871  10.5695  10.8572  10.9200  11.9987  12.0961
    12.2032  12.2962  12.3703  12.4455  12.5356  12.5815  12.7949  12.8468
    12.9866  13.2557  13.3084  13.3669  13.4327  13.7201  13.7319  13.8692
    14.6302  14.7411  15.0867  15.3662  15.5537  15.7871  16.0953  16.1399
    16.4533  17.3523  17.4428  17.6404  17.7512

          k = 0.0000 0.1575-0.5000 ( 62234 PWs)   bands (ev):

   -66.1553 -66.1552 -66.1542 -66.1542 -66.1523 -66.1523 -66.1513 -66.1513
   -30.6241 -30.6241 -30.5845 -30.5845 -30.5800 -30.5799 -30.5378 -30.5378
   -30.5242 -30.5242 -30.5024 -30.5024 -30.4913 -30.4913 -30.4344 -30.4344
   -30.4254 -30.4254 -30.4208 -30.4208 -30.3771 -30.3771 -30.3732 -30.3732
   -20.3071 -20.3070 -20.3069 -20.3069 -20.3035 -20.3035 -20.3033 -20.3033
   -20.2877 -20.2877 -20.2867 -20.2867 -20.2846 -20.2846 -20.2817 -20.2817
   -20.2817 -20.2817 -20.2801 -20.2801 -20.2798 -20.2797 -20.2796 -20.2796
   -20.2787 -20.2787 -20.2769 -20.2769 -20.2764 -20.2764 -20.2753 -20.2753
   -20.2733 -20.2733 -20.2721 -20.2721 -20.2712 -20.2712 -20.2706 -20.2706
   -20.2695 -20.2695 -20.2685 -20.2685 -20.2666 -20.2666 -20.2645 -20.2645
   -20.2640 -20.2640 -20.2627 -20.2627 -20.2604 -20.2603 -20.2570 -20.2570
    -9.7691  -9.7691  -9.5840  -9.5840  -8.9824  -8.9824  -8.8497  -8.8497
    -8.7615  -8.7615  -8.7410  -8.7410  -8.5342  -8.5341  -8.4890  -8.4890
    -7.8763  -7.8763  -7.7384  -7.7384  -7.6543  -7.6543  -7.5969  -7.5968
     1.0156   1.0156   1.1332   1.1332   2.0500   2.0500   2.1177   2.1177
     2.7257   2.7257   2.8115   2.8115   2.9137   2.9138   3.0177   3.0177
     3.0812   3.0812   3.1920   3.1920   3.3701   3.3701   3.7270   3.7270
     3.8469   3.8469   4.1556   4.1556   4.5036   4.5036   4.7333   4.7333
     4.9838   4.9838   5.0958   5.0958   5.2963   5.2963   5.5735   5.5735
     5.8657   5.8657   5.9158   5.9158   5.9797   5.9797   6.0904   6.0904
     6.2461   6.2461   6.3838   6.3838   6.5178   6.5178   6.8236   6.8236
     6.9185   6.9185   6.9647   6.9648   7.1005   7.1005   7.4397   7.4397
     7.4642   7.4642   7.6856   7.6856   7.7316   7.7316   8.0786   8.0786
    10.0125  10.0126  11.2912  11.2912  11.4024  11.4024  11.6127  11.6128
    11.7107  11.7107  12.3350  12.3350  12.6916  12.6916  12.8794  12.8794
    13.0579  13.0579  13.1763  13.1763  13.4379  13.4379  13.7604  13.7605
    14.7060  14.7060  15.3561  15.3561  15.8052  15.8052  16.0434  16.0434
    16.9701  16.9701  17.7481  17.7481  18.0712

          k = 0.0000 0.3150 0.0000 ( 62175 PWs)   bands (ev):

   -66.1557 -66.1548 -66.1547 -66.1537 -66.1528 -66.1518 -66.1518 -66.1508
   -30.6379 -30.6328 -30.6276 -30.6210 -30.5554 -30.5533 -30.5409 -30.5361
   -30.5288 -30.5259 -30.5165 -30.5129 -30.4508 -30.4446 -30.4369 -30.4319
   -30.4182 -30.4137 -30.4126 -30.4081 -30.3898 -30.3858 -30.3851 -30.3811
   -20.3072 -20.3071 -20.3069 -20.3067 -20.3037 -20.3035 -20.3033 -20.3031
   -20.2877 -20.2876 -20.2868 -20.2864 -20.2848 -20.2842 -20.2831 -20.2830
   -20.2808 -20.2806 -20.2806 -20.2801 -20.2799 -20.2796 -20.2796 -20.2791
   -20.2789 -20.2784 -20.2766 -20.2764 -20.2757 -20.2757 -20.2756 -20.2755
   -20.2747 -20.2745 -20.2725 -20.2722 -20.2721 -20.2717 -20.2712 -20.2709
   -20.2709 -20.2701 -20.2678 -20.2676 -20.2656 -20.2652 -20.2649 -20.2641
   -20.2637 -20.2633 -20.2620 -20.2613 -20.2610 -20.2597 -20.2577 -20.2563
   -10.0358  -9.9478  -9.6795  -9.6225  -9.5146  -9.4562  -9.2610  -9.2468
    -8.4732  -8.4368  -8.4337  -8.4307  -7.9847  -7.9199  -7.8982  -7.8881
    -7.8774  -7.8277  -7.8160  -7.8036  -7.7970  -7.7774  -7.7085  -7.6927
     0.8255   0.8524   0.9305   1.0226   1.0339   1.1249   1.3065   1.3372
     2.1304   2.1752   2.5894   2.6867   2.7381   2.8063   2.8578   3.0238
     3.0279   3.0742   3.5742   3.6206   3.6743   3.7215   4.2174   4.3738
     4.3990   4.4415   4.4724   4.6386   4.6750   4.9382   5.2889   5.3090
     5.3384   5.3754   5.4086   5.4187   5.5671   5.6550   5.6760   5.6933
     5.7192   5.8013   5.8281   6.0055   6.0228   6.0308   6.0494   6.0554
     6.1285   6.1922   6.3544   6.4418   6.5246   6.5581   6.6865   6.7439
     6.7803   6.8788   6.9080   6.9531   7.1229   7.1689   7.2271   7.2304
     7.2445   7.2586   7.8548   7.9101   7.9125   7.9382   7.9498   7.9518
     9.4714   9.4867  10.4710  10.5384  10.5391  10.5968  11.6902  11.7936
    11.8063  11.8934  12.5857  12.5883  12.8382  12.8435  12.8764  13.1201
    13.2537  13.3452  13.3464  13.6066  13.6307  13.7440  13.8857  13.9676
    15.1249  15.2585  15.2916  15.3216  15.4473  15.5048  16.0802  16.1024
    16.2480  16.6415  17.0184  17.6175  17.6767

          k = 0.0000 0.3150 0.1667 ( 62260 PWs)   bands (ev):

   -66.1557 -66.1548 -66.1546 -66.1538 -66.1527 -66.1518 -66.1517 -66.1508
   -30.6308 -30.6271 -30.6258 -30.6214 -30.5499 -30.5463 -30.5405 -30.5391
   -30.5341 -30.5327 -30.5171 -30.5116 -30.4578 -30.4513 -30.4366 -30.4322
   -30.4178 -30.4133 -30.4129 -30.4085 -30.3895 -30.3855 -30.3853 -30.3814
   -20.3072 -20.3070 -20.3069 -20.3068 -20.3037 -20.3035 -20.3033 -20.3031
   -20.2877 -20.2876 -20.2868 -20.2865 -20.2848 -20.2843 -20.2829 -20.2828
   -20.2809 -20.2807 -20.2805 -20.2800 -20.2799 -20.2797 -20.2796 -20.2792
   -20.2789 -20.2785 -20.2767 -20.2762 -20.2758 -20.2756 -20.2755 -20.2753
   -20.2747 -20.2742 -20.2723 -20.2722 -20.2718 -20.2716 -20.2714 -20.2710
   -20.2707 -20.2697 -20.2685 -20.2678 -20.2659 -20.2650 -20.2648 -20.2642
   -20.2637 -20.2636 -20.2624 -20.2615 -20.2609 -20.2598 -20.2576 -20.2564
    -9.9774  -9.8886  -9.6339  -9.5841  -9.4687  -9.4201  -9.2184  -9.2084
    -8.4845  -8.4466  -8.4345  -8.4260  -8.0837  -8.0009  -7.9611  -7.9427
    -7.8896  -7.8810  -7.8627  -7.8547  -7.8081  -7.8044  -7.7726  -7.6984
     0.9400   0.9923   1.0214   1.1268   1.2120   1.3167   1.4634   1.5028
     2.2200   2.2648   2.5959   2.6755   2.7309   2.8158   2.8856   3.0151
     3.0811   3.1634   3.6198   3.6613   3.6968   3.7120   4.0970   4.1047
     4.2145   4.4431   4.4732   4.6032   4.6791   4.9136   4.9342   5.0378
     5.1358   5.3120   5.3271   5.3867   5.4019   5.4334   5.6304   5.6470
     5.7170   5.7773   5.7961   5.8494   5.9159   5.9873   6.0215   6.0941
     6.1843   6.3091   6.4303   6.5315   6.5804   6.6757   6.7458   6.7700
     6.8016   6.8887   6.8976   6.9422   6.9669   7.0189   7.2270   7.2447
     7.2571   7.2657   7.8405   7.8852   7.9040   7.9122   7.9256   7.9357
     9.7865   9.8141  10.5431  10.5783  10.6536  10.7289  11.7763  11.8052
    11.8446  11.9307  12.4662  12.6403  12.6855  12.8707  12.9046  13.0576
    13.1343  13.2603  13.3155  13.5080  13.5762  13.6085  13.8816  13.9404
    15.1774  15.2644  15.3873  15.4633  15.5649  15.6357  16.0623  16.4037
    16.4232  16.6146  17.0956  17.3138  17.6596

          k = 0.0000 0.3150 0.3333 ( 62269 PWs)   bands (ev):

   -66.1555 -66.1550 -66.1544 -66.1539 -66.1525 -66.1520 -66.1515 -66.1510
   -30.6258 -30.6225 -30.6113 -30.6065 -30.5576 -30.5531 -30.5394 -30.5361
   -30.5359 -30.5277 -30.5192 -30.5062 -30.4767 -30.4691 -30.4357 -30.4331
   -30.4167 -30.4139 -30.4123 -30.4095 -30.3885 -30.3861 -30.3845 -30.3822
   -20.3071 -20.3070 -20.3070 -20.3068 -20.3036 -20.3034 -20.3034 -20.3032
   -20.2877 -20.2876 -20.2867 -20.2865 -20.2847 -20.2844 -20.2823 -20.2823
   -20.2812 -20.2811 -20.2803 -20.2799 -20.2798 -20.2798 -20.2797 -20.2793
   -20.2788 -20.2785 -20.2767 -20.2761 -20.2760 -20.2757 -20.2752 -20.2748
   -20.2744 -20.2734 -20.2725 -20.2721 -20.2719 -20.2715 -20.2712 -20.2704
   -20.2702 -20.2699 -20.2686 -20.2684 -20.2669 -20.2649 -20.2647 -20.2646
   -20.2643 -20.2632 -20.2632 -20.2621 -20.2607 -20.2600 -20.2573 -20.2566
    -9.8496  -9.7411  -9.6701  -9.5102  -9.3132  -9.1515  -9.0961  -9.0407
    -8.5775  -8.5203  -8.4281  -8.4105  -8.3906  -8.3434  -8.2609  -8.1962
    -7.9343  -7.9049  -7.8637  -7.8529  -7.8261  -7.8213  -7.7576  -7.7143
     1.0032   1.0191   1.1180   1.1316   1.9630   2.0623   2.1023   2.1853
     2.4762   2.5213   2.6158   2.6617   2.7388   2.8205   2.9293   2.9980
     3.2834   3.3550   3.4704   3.5529   3.6788   3.6927   3.7402   3.8042
     4.1268   4.2634   4.3362   4.4051   4.4757   4.5272   4.5919   4.6188
     4.7825   4.8416   4.9500   5.0355   5.2257   5.2402   5.3409   5.3960
     5.4713   5.5230   5.7780   5.8423   5.9917   6.0180   6.0846   6.1264
     6.2804   6.4258   6.4755   6.4905   6.5688   6.6191   6.6677   6.7047
     6.8703   6.9451   7.0812   7.0896   7.1626   7.2013   7.2292   7.2890
     7.3381   7.3855   7.7248   7.7527   7.8273   7.8395   7.9014   7.9182
    10.4463  10.5179  10.5637  10.6539  11.1381  11.2130  11.7923  11.8647
    12.0268  12.0576  12.1711  12.1892  12.5654  12.6030  12.7982  12.9285
    12.9966  13.0753  13.1900  13.3006  13.3309  13.6178  13.7194  13.8094
    15.2175  15.2564  15.6098  15.7810  15.9290  16.0132  16.2586  16.5195
    16.7260  16.8676  17.2569  17.4263  17.7432

          k = 0.0000 0.3150-0.5000 ( 62306 PWs)   bands (ev):

   -66.1552 -66.1552 -66.1542 -66.1542 -66.1523 -66.1523 -66.1513 -66.1513
   -30.6241 -30.6241 -30.5845 -30.5845 -30.5799 -30.5799 -30.5378 -30.5378
   -30.5242 -30.5242 -30.5023 -30.5023 -30.4912 -30.4912 -30.4344 -30.4344
   -30.4153 -30.4153 -30.4109 -30.4109 -30.3873 -30.3873 -30.3833 -30.3833
   -20.3071 -20.3070 -20.3069 -20.3069 -20.3035 -20.3035 -20.3033 -20.3033
   -20.2877 -20.2877 -20.2867 -20.2867 -20.2846 -20.2846 -20.2817 -20.2817
   -20.2817 -20.2817 -20.2801 -20.2801 -20.2798 -20.2798 -20.2796 -20.2796
   -20.2787 -20.2787 -20.2765 -20.2765 -20.2759 -20.2759 -20.2750 -20.2750
   -20.2734 -20.2734 -20.2725 -20.2724 -20.2716 -20.2715 -20.2711 -20.2711
   -20.2696 -20.2696 -20.2685 -20.2685 -20.2666 -20.2666 -20.2645 -20.2645
   -20.2640 -20.2640 -20.2627 -20.2627 -20.2604 -20.2603 -20.2570 -20.2570
    -9.7386  -9.7386  -9.5956  -9.5956  -8.9232  -8.9232  -8.8325  -8.8325
    -8.7574  -8.7574  -8.7314  -8.7314  -8.4032  -8.4032  -8.3675  -8.3675
    -7.9205  -7.9205  -7.8486  -7.8485  -7.8346  -7.8346  -7.7360  -7.7360
     1.0164   1.0165   1.1346   1.1347   2.5664   2.5664   2.6801   2.6801
     2.8310   2.8310   2.8600   2.8600   2.9582   2.9582   3.0482   3.0483
     3.1010   3.1010   3.2443   3.2444   3.3906   3.3906   3.6701   3.6701
     3.9775   3.9776   4.0156   4.0156   4.1496   4.1496   4.3436   4.3436
     4.9109   4.9109   5.0005   5.0005   5.0649   5.0649   5.1836   5.1836
     5.4477   5.4477   5.8458   5.8459   6.0494   6.0494   6.0965   6.0965
     6.2936   6.2936   6.4305   6.4305   6.5404   6.5404   6.6515   6.6515
     7.1269   7.1269   7.1664   7.1664   7.1957   7.1957   7.4338   7.4338
     7.4911   7.4911   7.6384   7.6384   7.6613   7.6613   7.9086   7.9086
    10.5537  10.5538  11.2985  11.2985  11.4140  11.4140  11.7266  11.7266
    11.8821  11.8821  11.9923  11.9923  12.5127  12.5128  12.6032  12.6032
    12.9940  12.9940  13.1711  13.1711  13.4524  13.4524  13.6650  13.6650
    15.2403  15.2403  15.8474  15.8474  16.1758  16.1758  16.3296  16.3296
    17.1182  17.1182  17.3384  17.3384  18.0202

          k = 0.0000-0.4725 0.0000 ( 62212 PWs)   bands (ev):

   -66.1557 -66.1547 -66.1547 -66.1537 -66.1528 -66.1518 -66.1518 -66.1508
   -30.6378 -30.6328 -30.6276 -30.6210 -30.5554 -30.5533 -30.5409 -30.5361
   -30.5288 -30.5259 -30.5165 -30.5129 -30.4507 -30.4445 -30.4369 -30.4319
   -30.4056 -30.4024 -30.4012 -30.4004 -30.3984 -30.3974 -30.3959 -30.3936
   -20.3072 -20.3070 -20.3069 -20.3067 -20.3037 -20.3035 -20.3033 -20.3031
   -20.2877 -20.2876 -20.2868 -20.2864 -20.2848 -20.2842 -20.2831 -20.2830
   -20.2808 -20.2806 -20.2806 -20.2801 -20.2799 -20.2796 -20.2796 -20.2792
   -20.2789 -20.2784 -20.2765 -20.2759 -20.2757 -20.2753 -20.2753 -20.2753
   -20.2745 -20.2745 -20.2727 -20.2725 -20.2723 -20.2721 -20.2717 -20.2710
   -20.2709 -20.2701 -20.2678 -20.2676 -20.2656 -20.2652 -20.2649 -20.2641
   -20.2637 -20.2633 -20.2620 -20.2613 -20.2610 -20.2597 -20.2577 -20.2563
    -9.9943  -9.9820  -9.6710  -9.6120  -9.5159  -9.4584  -9.2595  -9.2481
    -8.2207  -8.2175  -8.1801  -8.1773  -8.1689  -8.1689  -8.1543  -8.1520
    -7.9248  -7.9076  -7.8304  -7.8164  -7.7975  -7.7790  -7.7092  -7.6938
     0.8254   0.8521   0.9304   1.0228   1.0339   1.1252   1.3095   1.3394
     2.1516   2.1543   3.0287   3.0642   3.0981   3.1397   3.2423   3.2843
     3.3267   3.3793   3.4797   3.4836   3.6732   3.6826   3.8041   3.8184
     3.9253   3.9299   4.3874   4.4087   4.4522   4.4796   5.3307   5.3633
     5.3738   5.4005   5.4765   5.5022   5.5501   5.5640   5.7332   5.7586
     5.7743   5.7969   5.9337   5.9471   5.9505   5.9640   6.0443   6.0564
     6.1261   6.2095   6.2764   6.3181   6.4875   6.5162   6.5659   6.6040
     6.8124   6.8193   6.9110   6.9555   7.1269   7.1807   7.5095   7.5243
     7.5634   7.5848   7.6234   7.6378   7.6515   7.6776   7.9273   7.9345
     9.4771   9.4860  11.0165  11.0801  11.1255  11.1667  11.1845  11.2794
    11.2920  11.3689  12.5909  12.5955  12.8442  12.8475  13.0095  13.0409
    13.3993  13.4128  13.4194  13.4761  13.5132  13.5190  13.8866  13.9096
    15.3710  15.4430  15.6823  15.7015  15.7210  15.7736  15.8745  15.9136
    16.2135  16.2151  17.7891  17.7910  17.9215

          k = 0.0000-0.4725 0.1667 ( 62246 PWs)   bands (ev):

   -66.1557 -66.1548 -66.1546 -66.1538 -66.1527 -66.1518 -66.1517 -66.1508
   -30.6307 -30.6271 -30.6258 -30.6214 -30.5499 -30.5463 -30.5405 -30.5391
   -30.5341 -30.5327 -30.5171 -30.5116 -30.4577 -30.4512 -30.4366 -30.4322
   -30.4053 -30.4020 -30.4008 -30.4007 -30.3981 -30.3977 -30.3962 -30.3939
   -20.3072 -20.3070 -20.3069 -20.3068 -20.3037 -20.3035 -20.3033 -20.3031
   -20.2877 -20.2876 -20.2868 -20.2865 -20.2848 -20.2843 -20.2829 -20.2828
   -20.2809 -20.2807 -20.2805 -20.2800 -20.2799 -20.2797 -20.2797 -20.2792
   -20.2789 -20.2784 -20.2766 -20.2758 -20.2756 -20.2754 -20.2752 -20.2752
   -20.2745 -20.2742 -20.2726 -20.2725 -20.2721 -20.2719 -20.2718 -20.2711
   -20.2708 -20.2697 -20.2685 -20.2678 -20.2659 -20.2650 -20.2648 -20.2642
   -20.2637 -20.2636 -20.2624 -20.2615 -20.2609 -20.2598 -20.2576 -20.2564
    -9.9328  -9.9255  -9.6230  -9.5747  -9.4713  -9.4212  -9.2164  -9.2103
    -8.2345  -8.2223  -8.1985  -8.1922  -8.1718  -8.1716  -8.1639  -8.1604
    -8.0412  -7.9589  -7.9326  -7.8991  -7.8425  -7.8223  -7.7746  -7.6997
     0.9400   0.9920   1.0216   1.1271   1.2124   1.3171   1.4683   1.5054
     2.2408   2.2447   3.0593   3.0600   3.1473   3.1526   3.2732   3.2971
     3.3723   3.3977   3.4685   3.4743   3.6650   3.7227   3.8048   3.8320
     3.9443   3.9456   4.1113   4.1167   4.4568   4.4881   5.0208   5.0837
     5.2266   5.2628   5.3187   5.3428   5.4880   5.5080   5.5582   5.5952
     5.7202   5.7461   5.7556   5.7569   5.9189   5.9570   6.0108   6.1188
     6.2302   6.3319   6.3496   6.4313   6.4913   6.5729   6.7550   6.7777
     6.8126   6.8946   6.9081   6.9263   6.9668   7.0338   7.5132   7.5212
     7.5606   7.5795   7.6327   7.6348   7.6422   7.6711   7.8972   7.8987
     9.7903   9.8177  11.1145  11.1481  11.1704  11.2017  11.2709  11.3097
    11.3783  11.4069  12.4692  12.6479  12.6890  12.8806  13.0429  13.0640
    13.2983  13.3066  13.3220  13.3453  13.4034  13.4157  13.8838  13.8950
    15.3799  15.5168  15.6770  15.8485  15.8609  15.9801  16.0208  16.1756
    16.2850  16.3001  17.6706  17.7638  17.8295

          k = 0.0000-0.4725 0.3333 ( 62268 PWs)   bands (ev):

   -66.1555 -66.1550 -66.1544 -66.1539 -66.1525 -66.1520 -66.1515 -66.1510
   -30.6258 -30.6225 -30.6113 -30.6065 -30.5576 -30.5531 -30.5394 -30.5362
   -30.5359 -30.5277 -30.5192 -30.5062 -30.4767 -30.4690 -30.4357 -30.4331
   -30.4043 -30.4016 -30.4011 -30.3998 -30.3985 -30.3972 -30.3971 -30.3947
   -20.3071 -20.3070 -20.3070 -20.3068 -20.3036 -20.3034 -20.3034 -20.3032
   -20.2877 -20.2876 -20.2867 -20.2865 -20.2847 -20.2844 -20.2823 -20.2823
   -20.2812 -20.2811 -20.2803 -20.2799 -20.2798 -20.2798 -20.2797 -20.2794
   -20.2788 -20.2785 -20.2765 -20.2759 -20.2756 -20.2753 -20.2749 -20.2747
   -20.2744 -20.2735 -20.2727 -20.2724 -20.2723 -20.2719 -20.2714 -20.2703
   -20.2703 -20.2699 -20.2686 -20.2684 -20.2669 -20.2649 -20.2647 -20.2646
   -20.2643 -20.2632 -20.2632 -20.2621 -20.2607 -20.2600 -20.2573 -20.2566
    -9.8224  -9.7596  -9.6574  -9.5140  -9.3005  -9.1519  -9.0955  -9.0404
    -8.4754  -8.4284  -8.3557  -8.3467  -8.1924  -8.1866  -8.1611  -8.1584
    -8.1443  -8.1250  -8.1005  -8.0729  -7.8824  -7.8385  -7.7593  -7.7156
     1.0033   1.0193   1.1183   1.1320   1.9692   2.0673   2.1247   2.1918
     2.5008   2.5012   3.0539   3.0872   3.2088   3.2394   3.3214   3.3394
     3.3542   3.4232   3.4397   3.5162   3.5810   3.5969   3.6222   3.7602
     3.8329   3.8854   3.9555   3.9800   4.3811   4.3868   4.5006   4.6036
     4.6961   4.7106   4.8795   4.8888   5.0431   5.0595   5.2414   5.2458
     5.5626   5.6513   5.6804   5.7737   5.9780   6.0377   6.0946   6.1656
     6.2999   6.4261   6.4689   6.4697   6.5192   6.5268   6.5605   6.7159
     6.9158   6.9413   7.1316   7.1734   7.2642   7.2688   7.4731   7.5346
     7.5383   7.5759   7.6021   7.6259   7.6430   7.6525   7.7652   7.7932
    10.4862  10.5612  11.1359  11.1677  11.2872  11.3089  11.5400  11.6083
    11.6527  11.7518  12.0311  12.1889  12.7671  12.7747  12.7792  12.8065
    12.8826  13.0022  13.1520  13.2069  13.4192  13.4376  13.7318  13.7506
    15.4609  15.6361  15.6624  15.8296  16.3148  16.3912  16.6759  16.6979
    16.7557  16.8231  17.2089  17.2849  17.6644

          k = 0.0000-0.4725-0.5000 ( 62284 PWs)   bands (ev):

   -66.1552 -66.1552 -66.1542 -66.1542 -66.1523 -66.1523 -66.1513 -66.1513
   -30.6241 -30.6241 -30.5845 -30.5845 -30.5799 -30.5799 -30.5378 -30.5378
   -30.5242 -30.5242 -30.5023 -30.5023 -30.4911 -30.4911 -30.4344 -30.4344
   -30.4029 -30.4029 -30.3998 -30.3998 -30.3985 -30.3984 -30.3959 -30.3959
   -20.3071 -20.3070 -20.3069 -20.3069 -20.3035 -20.3035 -20.3033 -20.3033
   -20.2877 -20.2877 -20.2867 -20.2866 -20.2846 -20.2846 -20.2817 -20.2817
   -20.2816 -20.2816 -20.2801 -20.2801 -20.2798 -20.2798 -20.2796 -20.2796
   -20.2787 -20.2786 -20.2763 -20.2763 -20.2755 -20.2755 -20.2747 -20.2747
   -20.2735 -20.2735 -20.2728 -20.2728 -20.2718 -20.2718 -20.2713 -20.2713
   -20.2696 -20.2696 -20.2685 -20.2685 -20.2666 -20.2666 -20.2645 -20.2645
   -20.2640 -20.2640 -20.2627 -20.2627 -20.2604 -20.2603 -20.2570 -20.2570
    -9.7217  -9.7217  -9.6032  -9.6032  -8.8983  -8.8982  -8.8249  -8.8249
    -8.7554  -8.7554  -8.7275  -8.7275  -8.1879  -8.1879  -8.1631  -8.1630
    -8.1446  -8.1446  -8.1194  -8.1194  -7.8606  -7.8606  -7.7375  -7.7375
     1.0166   1.0167   1.1351   1.1351   2.8033   2.8033   2.8691   2.8691
     2.9154   2.9154   3.0052   3.0052   3.1107   3.1107   3.1959   3.1959
     3.3000   3.3000   3.3556   3.3556   3.4001   3.4001   3.5428   3.5428
     3.6579   3.6579   3.8162   3.8162   4.3139   4.3139   4.3867   4.3867
     4.4124   4.4124   4.4911   4.4911   4.9857   4.9857   5.0834   5.0835
     5.5984   5.5984   5.7261   5.7261   6.0779   6.0779   6.1104   6.1104
     6.3142   6.3142   6.4499   6.4499   6.5050   6.5050   6.5315   6.5315
     7.2990   7.2990   7.3198   7.3198   7.3561   7.3561   7.4205   7.4205
     7.5584   7.5584   7.5687   7.5687   7.6098   7.6098   7.6959   7.6959
    11.1045  11.1045  11.2469  11.2469  11.3627  11.3627  11.4655  11.4655
    12.1066  12.1066  12.1263  12.1263  12.2447  12.2447  12.2970  12.2970
    13.0347  13.0348  13.1429  13.1429  13.5039  13.5039  13.5391  13.5391
    15.5689  15.5689  15.7654  15.7654  16.7418  16.7418  16.7538  16.7538
    17.3430  17.3431  17.4285  17.4286  17.5124

          k = 0.1667 0.0000 0.1667 ( 62234 PWs)   bands (ev):

   -66.1556 -66.1548 -66.1547 -66.1538 -66.1526 -66.1518 -66.1518 -66.1509
   -30.6305 -30.6262 -30.6203 -30.6145 -30.5514 -30.5458 -30.5385 -30.5337
   -30.5330 -30.5278 -30.5241 -30.5176 -30.4578 -30.4524 -30.4438 -30.4396
   -30.4314 -30.4269 -30.4259 -30.4216 -30.3751 -30.3717 -30.3712 -30.3678
   -20.3072 -20.3070 -20.3069 -20.3068 -20.3037 -20.3035 -20.3033 -20.3032
   -20.2877 -20.2875 -20.2868 -20.2865 -20.2844 -20.2839 -20.2829 -20.2828
   -20.2809 -20.2809 -20.2805 -20.2802 -20.2800 -20.2798 -20.2796 -20.2792
   -20.2788 -20.2783 -20.2773 -20.2770 -20.2766 -20.2764 -20.2761 -20.2753
   -20.2751 -20.2742 -20.2719 -20.2716 -20.2713 -20.2708 -20.2706 -20.2702
   -20.2701 -20.2697 -20.2685 -20.2676 -20.2658 -20.2651 -20.2649 -20.2644
   -20.2640 -20.2636 -20.2623 -20.2616 -20.2607 -20.2597 -20.2579 -20.2567
    -9.9806  -9.7981  -9.6256  -9.5775  -9.4289  -9.3706  -9.1825  -9.1625
    -8.7586  -8.6606  -8.6584  -8.6495  -8.0792  -8.0484  -7.9947  -7.9790
    -7.9309  -7.9075  -7.8581  -7.8329  -7.5882  -7.5372  -7.5283  -7.4816
     1.1098   1.1355   1.2093   1.2864   1.3170   1.3930   1.5107   1.6151
     1.8783   1.9097   1.9306   2.0479   2.2918   2.3785   2.6797   2.7479
     2.8220   2.8422   4.0146   4.0430   4.1152   4.1915   4.1985   4.2470
     4.2530   4.3434   4.6390   4.7070   4.8064   4.8941   5.0930   5.1283
     5.1741   5.2742   5.2947   5.4937   5.5171   5.5356   5.5951   5.6362
     5.6781   5.7957   5.8273   5.9919   6.0170   6.0903   6.1494   6.1993
     6.2405   6.4732   6.5230   6.5649   6.6131   6.6836   6.7069   6.8049
     6.8427   6.8929   6.9123   6.9344   6.9604   7.0351   7.0616   7.0807
     7.1093   7.1507   7.8536   7.8607   8.0655   8.0769   8.1440   8.1801
     9.9539   9.9757  10.0557  10.0825  10.1655  10.2348  12.2379  12.3695
    12.4344  12.4844  12.5143  12.5707  12.6530  12.7308  12.7863  12.9211
    12.9967  13.0635  13.5020  13.5752  13.6477  13.7310  13.9104  13.9562
    14.3293  14.5015  14.5934  15.1934  15.2078  15.6438  15.6794  16.5380
    16.5595  17.0875  17.1046  17.3588  17.4929

          k = 0.1667 0.0000 0.3333 ( 62265 PWs)   bands (ev):

   -66.1554 -66.1549 -66.1545 -66.1540 -66.1525 -66.1519 -66.1516 -66.1511
   -30.6189 -30.6156 -30.6110 -30.6069 -30.5574 -30.5535 -30.5391 -30.5325
   -30.5294 -30.5274 -30.5259 -30.5106 -30.4765 -30.4702 -30.4429 -30.4405
   -30.4303 -30.4271 -30.4259 -30.4229 -30.3742 -30.3719 -30.3708 -30.3686
   -20.3071 -20.3070 -20.3070 -20.3068 -20.3036 -20.3034 -20.3034 -20.3032
   -20.2877 -20.2875 -20.2868 -20.2866 -20.2844 -20.2841 -20.2824 -20.2823
   -20.2812 -20.2812 -20.2804 -20.2801 -20.2800 -20.2799 -20.2797 -20.2794
   -20.2787 -20.2784 -20.2773 -20.2768 -20.2768 -20.2765 -20.2759 -20.2754
   -20.2743 -20.2733 -20.2721 -20.2713 -20.2711 -20.2708 -20.2703 -20.2701
   -20.2698 -20.2697 -20.2685 -20.2683 -20.2668 -20.2650 -20.2650 -20.2646
   -20.2646 -20.2633 -20.2631 -20.2622 -20.2605 -20.2599 -20.2576 -20.2569
    -9.8360  -9.6424  -9.6193  -9.4104  -9.3685  -9.1626  -9.0640  -9.0221
    -8.8200  -8.6884  -8.6321  -8.6282  -8.4042  -8.3522  -8.2722  -8.2259
    -8.0269  -7.9842  -7.8945  -7.8518  -7.5782  -7.5484  -7.5193  -7.4919
     1.2674   1.2883   1.3692   1.3988   1.7910   1.7929   1.8682   1.9152
     2.0197   2.1439   2.1700   2.3273   2.5635   2.6440   2.7402   2.8069
     2.9722   3.0665   3.5253   3.6449   3.8886   3.9561   4.1547   4.1705
     4.1981   4.3262   4.4044   4.4505   4.5184   4.6414   4.6892   4.7148
     4.8846   4.9075   5.0142   5.0454   5.0962   5.2848   5.5375   5.6267
     5.6706   5.7633   5.8344   5.8572   6.0215   6.0959   6.1313   6.2177
     6.3577   6.4307   6.5463   6.6238   6.6439   6.6800   6.7843   6.8427
     6.8597   6.8840   6.9252   7.0043   7.0236   7.0723   7.1070   7.1401
     7.2717   7.3452   7.7277   7.7361   7.9871   8.0152   8.0939   8.1110
    10.0525  10.0633  10.6137  10.6985  10.7727  10.8758  12.0731  12.1579
    12.2546  12.4067  12.4316  12.5212  12.6194  12.6630  12.6859  12.7808
    12.9124  13.0520  13.3653  13.4193  13.5108  13.5656  13.7276  13.7384
    14.4064  14.5652  14.7210  15.1213  15.5011  16.0224  16.1901  16.4007
    16.6016  17.4283  17.5940  17.6850  17.7070

          k = 0.1667 0.0000-0.5000 ( 62322 PWs)   bands (ev):

   -66.1552 -66.1552 -66.1543 -66.1543 -66.1522 -66.1522 -66.1513 -66.1513
   -30.6172 -30.6172 -30.5843 -30.5843 -30.5803 -30.5803 -30.5310 -30.5310
   -30.5300 -30.5300 -30.5020 -30.5020 -30.4931 -30.4930 -30.4417 -30.4417
   -30.4287 -30.4287 -30.4244 -30.4244 -30.3730 -30.3730 -30.3697 -30.3697
   -20.3070 -20.3070 -20.3069 -20.3069 -20.3035 -20.3035 -20.3033 -20.3033
   -20.2876 -20.2876 -20.2867 -20.2867 -20.2842 -20.2842 -20.2818 -20.2818
   -20.2817 -20.2817 -20.2801 -20.2801 -20.2799 -20.2799 -20.2796 -20.2796
   -20.2786 -20.2786 -20.2771 -20.2771 -20.2767 -20.2767 -20.2756 -20.2756
   -20.2731 -20.2731 -20.2720 -20.2720 -20.2710 -20.2710 -20.2704 -20.2704
   -20.2692 -20.2692 -20.2684 -20.2683 -20.2668 -20.2667 -20.2648 -20.2648
   -20.2640 -20.2639 -20.2629 -20.2628 -20.2602 -20.2602 -20.2573 -20.2573
    -9.7014  -9.7014  -9.4943  -9.4943  -9.0315  -9.0315  -8.8430  -8.8430
    -8.7733  -8.7732  -8.7375  -8.7375  -8.5668  -8.5668  -8.5254  -8.5254
    -8.0077  -8.0077  -7.8733  -7.8733  -7.5635  -7.5635  -7.5058  -7.5058
     1.2860   1.2860   1.3994   1.3994   1.8564   1.8564   1.8930   1.8930
     2.7388   2.7388   2.8570   2.8570   2.9421   2.9421   3.0210   3.0210
     3.0777   3.0777   3.2193   3.2194   3.4020   3.4020   3.7107   3.7107
     3.7775   3.7775   4.3100   4.3100   4.5653   4.5653   4.7221   4.7221
     4.7582   4.7582   4.9011   4.9011   5.0550   5.0550   5.5981   5.5981
     5.7125   5.7125   5.7272   5.7272   6.0638   6.0638   6.2223   6.2223
     6.3718   6.3718   6.5505   6.5505   6.6887   6.6887   6.7468   6.7469
     6.8915   6.8915   6.9371   6.9371   7.0858   7.0858   7.4450   7.4450
     7.4736   7.4736   7.7029   7.7030   7.7519   7.7519   8.1005   8.1005
    10.0638  10.0638  11.3757  11.3757  11.4717  11.4717  11.5670  11.5670
    11.6899  11.6899  12.5370  12.5370  12.6091  12.6091  12.9579  12.9579
    13.0935  13.0935  13.1389  13.1389  13.3017  13.3017  13.6770  13.6771
    14.5067  14.5067  14.9608  14.9608  15.9304  15.9304  16.3310  16.3310
    17.0322  17.0322  17.9009  17.9009  18.0222

          k = 0.1667 0.1575 0.1667 ( 62255 PWs)   bands (ev):

   -66.1556 -66.1548 -66.1547 -66.1538 -66.1527 -66.1518 -66.1518 -66.1509
   -30.6305 -30.6262 -30.6203 -30.6145 -30.5515 -30.5458 -30.5384 -30.5337
   -30.5330 -30.5278 -30.5241 -30.5176 -30.4576 -30.4522 -30.4438 -30.4395
   -30.4276 -30.4233 -30.4223 -30.4182 -30.3789 -30.3754 -30.3749 -30.3715
   -20.3072 -20.3070 -20.3069 -20.3068 -20.3037 -20.3035 -20.3033 -20.3032
   -20.2877 -20.2875 -20.2868 -20.2865 -20.2844 -20.2839 -20.2829 -20.2828
   -20.2809 -20.2808 -20.2805 -20.2802 -20.2800 -20.2798 -20.2796 -20.2792
   -20.2788 -20.2783 -20.2771 -20.2768 -20.2764 -20.2762 -20.2760 -20.2753
   -20.2751 -20.2742 -20.2719 -20.2718 -20.2714 -20.2710 -20.2708 -20.2704
   -20.2701 -20.2698 -20.2685 -20.2676 -20.2658 -20.2651 -20.2649 -20.2644
   -20.2640 -20.2636 -20.2623 -20.2616 -20.2607 -20.2597 -20.2579 -20.2567
    -9.9637  -9.8067  -9.6153  -9.5652  -9.4300  -9.3725  -9.1815  -9.1632
    -8.6900  -8.6047  -8.6030  -8.5949  -8.0801  -8.0485  -7.9961  -7.9795
    -7.9317  -7.9091  -7.8595  -7.8343  -7.6770  -7.6295  -7.6212  -7.5776
     1.1101   1.1350   1.2107   1.2892   1.3188   1.3962   1.5516   1.6163
     2.0694   2.1218   2.1439   2.2428   2.3005   2.3749   2.7519   2.8265
     2.8970   2.9105   3.9280   3.9593   4.0386   4.1008   4.1632   4.1796
     4.2000   4.2253   4.5904   4.7238   4.8406   4.9123   5.0268   5.1008
     5.1471   5.2603   5.2841   5.3268   5.3965   5.4818   5.5129   5.6138
     5.6738   5.8300   5.8695   5.8994   5.9606   6.0120   6.0860   6.1561
     6.2750   6.4127   6.4974   6.5325   6.6134   6.7172   6.7467   6.7820
     6.7893   6.8752   6.8977   6.9333   6.9505   6.9845   7.0899   7.1130
     7.1404   7.1691   7.8521   7.8611   8.0306   8.0390   8.0949   8.1124
    10.0104  10.0246  10.2086  10.2265  10.3032  10.3649  12.1299  12.2530
    12.2937  12.3881  12.5018  12.5247  12.6685  12.7288  12.8055  12.9551
    12.9958  13.0637  13.4807  13.5663  13.6627  13.7309  13.8846  13.9074
    14.5369  14.7827  14.8250  15.2659  15.5955  15.6522  15.6899  16.5053
    16.5250  17.0201  17.1706  17.1870  17.5466

          k = 0.1667 0.1575 0.3333 ( 62260 PWs)   bands (ev):

   -66.1554 -66.1549 -66.1545 -66.1540 -66.1525 -66.1519 -66.1516 -66.1511
   -30.6189 -30.6156 -30.6110 -30.6068 -30.5574 -30.5535 -30.5392 -30.5325
   -30.5294 -30.5274 -30.5259 -30.5106 -30.4764 -30.4701 -30.4429 -30.4404
   -30.4265 -30.4235 -30.4223 -30.4194 -30.3780 -30.3756 -30.3745 -30.3723
   -20.3071 -20.3070 -20.3070 -20.3068 -20.3036 -20.3034 -20.3034 -20.3032
   -20.2876 -20.2875 -20.2868 -20.2866 -20.2844 -20.2841 -20.2823 -20.2823
   -20.2812 -20.2812 -20.2803 -20.2801 -20.2800 -20.2799 -20.2798 -20.2794
   -20.2787 -20.2784 -20.2771 -20.2766 -20.2766 -20.2763 -20.2758 -20.2753
   -20.2743 -20.2733 -20.2721 -20.2715 -20.2713 -20.2710 -20.2705 -20.2702
   -20.2698 -20.2697 -20.2685 -20.2684 -20.2668 -20.2650 -20.2650 -20.2646
   -20.2646 -20.2633 -20.2631 -20.2622 -20.2605 -20.2599 -20.2576 -20.2569
    -9.8183  -9.6505  -9.6057  -9.4132  -9.3535  -9.1632  -9.0634  -9.0216
    -8.7572  -8.6398  -8.5798  -8.5769  -8.4019  -8.3525  -8.2704  -8.2229
    -8.0270  -7.9844  -7.8962  -7.8536  -7.6677  -7.6394  -7.6129  -7.5867
     1.2702   1.2917   1.3711   1.4021   1.9016   1.9402   2.0338   2.0772
     2.1302   2.1732   2.2217   2.3924   2.5701   2.6447   2.8076   2.8789
     3.0487   3.1348   3.5264   3.6404   3.8456   3.9410   4.0600   4.1103
     4.2182   4.2813   4.3316   4.3904   4.4773   4.5901   4.6503   4.7148
     4.8223   4.8599   4.9564   5.0257   5.0910   5.1209   5.4177   5.5193
     5.6499   5.7362   5.7635   5.8319   5.8739   5.9984   6.0458   6.0959
     6.3042   6.4494   6.5867   6.6658   6.6907   6.7260   6.7751   6.8062
     6.8218   6.8830   6.9970   7.0297   7.0474   7.0704   7.1401   7.1780
     7.2812   7.3533   7.7275   7.7361   7.9521   7.9750   8.0514   8.0595
    10.2249  10.2447  10.6389  10.7118  10.8675  10.9464  12.0666  12.1463
    12.2430  12.3311  12.3798  12.4596  12.5353  12.5968  12.6623  12.7615
    12.9141  13.0408  13.3022  13.3911  13.4475  13.5357  13.7269  13.7381
    14.6531  14.7955  15.0736  15.4765  15.6045  16.0182  16.2072  16.4068
    16.6361  17.3825  17.4167  17.6411  17.7279

          k = 0.1667 0.1575-0.5000 ( 62292 PWs)   bands (ev):

   -66.1552 -66.1552 -66.1543 -66.1543 -66.1522 -66.1522 -66.1514 -66.1513
   -30.6172 -30.6172 -30.5843 -30.5843 -30.5803 -30.5803 -30.5310 -30.5310
   -30.5300 -30.5300 -30.5020 -30.5020 -30.4930 -30.4930 -30.4417 -30.4417
   -30.4250 -30.4250 -30.4209 -30.4209 -30.3768 -30.3768 -30.3734 -30.3734
   -20.3070 -20.3070 -20.3069 -20.3069 -20.3035 -20.3035 -20.3033 -20.3033
   -20.2876 -20.2876 -20.2867 -20.2867 -20.2842 -20.2842 -20.2817 -20.2817
   -20.2817 -20.2817 -20.2801 -20.2801 -20.2799 -20.2799 -20.2796 -20.2796
   -20.2786 -20.2785 -20.2769 -20.2769 -20.2764 -20.2764 -20.2755 -20.2755
   -20.2732 -20.2732 -20.2721 -20.2721 -20.2711 -20.2711 -20.2706 -20.2706
   -20.2692 -20.2692 -20.2684 -20.2684 -20.2668 -20.2667 -20.2648 -20.2648
   -20.2640 -20.2639 -20.2629 -20.2628 -20.2602 -20.2602 -20.2573 -20.2573
    -9.6855  -9.6855  -9.4994  -9.4994  -8.9989  -8.9989  -8.8339  -8.8339
    -8.7725  -8.7725  -8.7308  -8.7308  -8.5296  -8.5296  -8.4937  -8.4937
    -8.0080  -8.0080  -7.8751  -7.8751  -7.6537  -7.6537  -7.5999  -7.5999
     1.2897   1.2897   1.4029   1.4029   2.0511   2.0511   2.1138   2.1138
     2.7923   2.7923   2.8656   2.8656   2.9485   2.9486   3.0278   3.0278
     3.0830   3.0830   3.2398   3.2398   3.4086   3.4086   3.7424   3.7424
     3.8373   3.8373   4.1723   4.1723   4.4641   4.4641   4.6604   4.6604
     4.7246   4.7246   4.8399   4.8399   4.9805   4.9805   5.5172   5.5172
     5.5964   5.5964   5.7041   5.7041   5.9159   5.9159   6.0664   6.0664
     6.4404   6.4404   6.5827   6.5827   6.7246   6.7246   6.7691   6.7691
     6.8972   6.8972   6.9841   6.9841   7.1157   7.1157   7.4462   7.4462
     7.4763   7.4763   7.6898   7.6898   7.7320   7.7320   8.0545   8.0545
    10.2442  10.2442  11.3836  11.3836  11.4814  11.4814  11.6243  11.6243
    11.7326  11.7326  12.3899  12.3900  12.6127  12.6127  12.8713  12.8713
    13.0226  13.0226  13.1005  13.1005  13.2940  13.2940  13.6764  13.6764
    14.7477  14.7477  15.3368  15.3368  15.9994  15.9994  16.3128  16.3128
    17.0690  17.0690  17.7599  17.7599  17.9927

          k = 0.1667 0.3150 0.1667 ( 62249 PWs)   bands (ev):

   -66.1556 -66.1547 -66.1547 -66.1538 -66.1527 -66.1518 -66.1518 -66.1509
   -30.6305 -30.6262 -30.6203 -30.6144 -30.5515 -30.5458 -30.5384 -30.5336
   -30.5331 -30.5278 -30.5241 -30.5176 -30.4574 -30.4519 -30.4438 -30.4394
   -30.4174 -30.4134 -30.4126 -30.4087 -30.3892 -30.3856 -30.3850 -30.3815
   -20.3072 -20.3070 -20.3069 -20.3068 -20.3037 -20.3035 -20.3033 -20.3031
   -20.2877 -20.2875 -20.2868 -20.2865 -20.2844 -20.2839 -20.2829 -20.2828
   -20.2809 -20.2808 -20.2805 -20.2802 -20.2800 -20.2799 -20.2797 -20.2792
   -20.2788 -20.2783 -20.2768 -20.2762 -20.2759 -20.2757 -20.2756 -20.2752
   -20.2749 -20.2743 -20.2723 -20.2721 -20.2718 -20.2716 -20.2714 -20.2707
   -20.2702 -20.2698 -20.2685 -20.2677 -20.2658 -20.2651 -20.2649 -20.2644
   -20.2640 -20.2636 -20.2623 -20.2616 -20.2608 -20.2597 -20.2579 -20.2567
    -9.9219  -9.8320  -9.5953  -9.5410  -9.4325  -9.3767  -9.1792  -9.1650
    -8.4990  -8.4411  -8.4371  -8.4321  -8.0926  -8.0524  -8.0123  -7.9860
    -7.9395  -7.9251  -7.8985  -7.8786  -7.8523  -7.8465  -7.8303  -7.7928
     1.1105   1.1340   1.2121   1.2918   1.3204   1.3992   1.5885   1.6203
     2.3101   2.3536   2.6010   2.6715   2.7087   2.7955   2.9711   3.0943
     3.1184   3.1652   3.6116   3.6626   3.7258   3.7838   4.1204   4.1354
     4.1653   4.1811   4.2222   4.6052   4.6314   4.8679   4.9107   5.0080
     5.0435   5.0824   5.1147   5.1325   5.3046   5.3740   5.4149   5.4454
     5.6615   5.6825   5.7720   5.7857   5.8708   5.8976   5.9419   5.9743
     6.3529   6.4048   6.4427   6.5548   6.6055   6.6652   6.7498   6.7973
     6.8990   6.9178   6.9489   6.9640   7.0078   7.0210   7.2216   7.2426
     7.2793   7.2929   7.8215   7.8594   7.8861   7.9073   7.9107   7.9335
    10.0432  10.0524  10.6397  10.6688  10.7381  10.7944  11.7721  11.8595
    11.9037  11.9799  12.5096  12.5277  12.7029  12.7333  12.8857  13.0379
    13.0654  13.1317  13.3402  13.4472  13.5070  13.5628  13.8316  13.8383
    15.3070  15.4075  15.4684  15.5246  15.6388  15.7390  16.3669  16.3965
    16.5121  16.5922  17.1483  17.4100  17.4352

          k = 0.1667 0.3150 0.3333 ( 62265 PWs)   bands (ev):

   -66.1554 -66.1549 -66.1545 -66.1540 -66.1525 -66.1520 -66.1516 -66.1511
   -30.6189 -30.6156 -30.6110 -30.6068 -30.5574 -30.5534 -30.5392 -30.5325
   -30.5294 -30.5274 -30.5259 -30.5106 -30.4763 -30.4699 -30.4429 -30.4403
   -30.4164 -30.4136 -30.4124 -30.4097 -30.3882 -30.3858 -30.3847 -30.3823
   -20.3071 -20.3070 -20.3070 -20.3068 -20.3036 -20.3034 -20.3034 -20.3032
   -20.2876 -20.2875 -20.2868 -20.2866 -20.2843 -20.2840 -20.2823 -20.2823
   -20.2812 -20.2811 -20.2803 -20.2801 -20.2800 -20.2799 -20.2798 -20.2794
   -20.2787 -20.2784 -20.2768 -20.2762 -20.2760 -20.2757 -20.2754 -20.2751
   -20.2743 -20.2734 -20.2724 -20.2721 -20.2719 -20.2715 -20.2710 -20.2702
   -20.2699 -20.2698 -20.2686 -20.2684 -20.2668 -20.2650 -20.2650 -20.2646
   -20.2646 -20.2633 -20.2631 -20.2622 -20.2605 -20.2599 -20.2576 -20.2569
    -9.7760  -9.6737  -9.5784  -9.4198  -9.3251  -9.1647  -9.0622  -9.0211
    -8.5951  -8.5125  -8.4244  -8.4201  -8.3883  -8.3543  -8.2560  -8.2045
    -8.0328  -7.9917  -7.9181  -7.8917  -7.8768  -7.8548  -7.8344  -7.8070
     1.2727   1.2947   1.3727   1.4054   1.9645   2.0651   2.1029   2.1829
     2.5716   2.5969   2.6341   2.6667   2.7114   2.8122   3.0224   3.1002
     3.2892   3.3492   3.5191   3.6211   3.6758   3.7336   3.7857   3.8408
     4.1087   4.2077   4.2942   4.3474   4.3852   4.4664   4.5379   4.6023
     4.6926   4.7637   4.8260   4.9218   5.0122   5.0429   5.0875   5.1739
     5.3326   5.4298   5.4651   5.6714   5.6971   5.8445   5.8866   5.9192
     6.3907   6.4877   6.6073   6.7069   6.7508   6.7638   6.8181   6.8376
     6.9380   7.0037   7.0871   7.1009   7.1696   7.2078   7.2522   7.3134
     7.3403   7.3900   7.7120   7.7396   7.8236   7.8331   7.8933   7.9068
    10.5942  10.6508  10.7398  10.8111  11.1494  11.2230  11.8671  11.9266
    12.0503  12.1124  12.1761  12.2480  12.5729  12.6027  12.6824  12.8055
    12.9429  13.0559  13.0857  13.1695  13.3530  13.4333  13.6411  13.6725
    15.3819  15.4264  15.7719  15.8933  16.0332  16.2382  16.3590  16.5020
    16.8316  16.9357  17.2467  17.4444  17.7190

          k = 0.1667 0.3150-0.5000 ( 62264 PWs)   bands (ev):

   -66.1552 -66.1552 -66.1543 -66.1542 -66.1522 -66.1522 -66.1514 -66.1513
   -30.6172 -30.6172 -30.5843 -30.5843 -30.5803 -30.5802 -30.5310 -30.5310
   -30.5300 -30.5300 -30.5020 -30.5019 -30.4929 -30.4929 -30.4416 -30.4416
   -30.4150 -30.4150 -30.4110 -30.4110 -30.3870 -30.3870 -30.3835 -30.3835
   -20.3070 -20.3070 -20.3069 -20.3069 -20.3035 -20.3035 -20.3033 -20.3033
   -20.2876 -20.2876 -20.2867 -20.2867 -20.2842 -20.2842 -20.2817 -20.2817
   -20.2817 -20.2817 -20.2801 -20.2801 -20.2800 -20.2800 -20.2796 -20.2796
   -20.2785 -20.2785 -20.2766 -20.2766 -20.2759 -20.2759 -20.2752 -20.2752
   -20.2733 -20.2733 -20.2724 -20.2724 -20.2715 -20.2715 -20.2711 -20.2711
   -20.2693 -20.2693 -20.2684 -20.2684 -20.2668 -20.2668 -20.2648 -20.2648
   -20.2640 -20.2639 -20.2629 -20.2628 -20.2602 -20.2602 -20.2573 -20.2573
    -9.6515  -9.6515  -9.5122  -9.5122  -8.9376  -8.9376  -8.8182  -8.8182
    -8.7732  -8.7732  -8.7188  -8.7187  -8.3992  -8.3992  -8.3746  -8.3746
    -8.0151  -8.0151  -7.9025  -7.9025  -7.8687  -7.8687  -7.8219  -7.8219
     1.2931   1.2931   1.4062   1.4062   2.5712   2.5712   2.6607   2.6607
     2.8604   2.8604   2.9100   2.9100   3.0004   3.0004   3.0707   3.0707
     3.1342   3.1342   3.2851   3.2852   3.4286   3.4286   3.7143   3.7143
     3.9750   3.9751   4.0166   4.0166   4.1433   4.1433   4.3479   4.3479
     4.6826   4.6826   4.7549   4.7549   4.9644   4.9644   5.1033   5.1033
     5.1480   5.1480   5.5226   5.5226   5.7316   5.7316   5.8902   5.8902
     6.5136   6.5136   6.6372   6.6372   6.7123   6.7123   6.8504   6.8505
     7.1186   7.1186   7.1791   7.1791   7.2362   7.2362   7.4403   7.4403
     7.4981   7.4981   7.6344   7.6344   7.6622   7.6622   7.8974   7.8974
    10.7101  10.7101  11.3956  11.3956  11.4967  11.4967  11.7678  11.7679
    11.8963  11.8963  12.0305  12.0306  12.5021  12.5021  12.5995  12.5995
    12.9031  12.9032  13.0748  13.0748  13.3015  13.3015  13.5393  13.5393
    15.4122  15.4123  16.0889  16.0889  16.2905  16.2905  16.3615  16.3615
    17.1795  17.1795  17.3910  17.3910  17.9171

          k = 0.1667-0.4725 0.1667 ( 62220 PWs)   bands (ev):

   -66.1556 -66.1547 -66.1547 -66.1538 -66.1527 -66.1518 -66.1518 -66.1509
   -30.6305 -30.6261 -30.6203 -30.6144 -30.5515 -30.5458 -30.5384 -30.5336
   -30.5331 -30.5278 -30.5241 -30.5175 -30.4573 -30.4518 -30.4438 -30.4394
   -30.4050 -30.4017 -30.4010 -30.4004 -30.3981 -30.3974 -30.3965 -30.3939
   -20.3072 -20.3070 -20.3069 -20.3068 -20.3037 -20.3035 -20.3033 -20.3031
   -20.2877 -20.2875 -20.2868 -20.2865 -20.2844 -20.2839 -20.2829 -20.2828
   -20.2809 -20.2807 -20.2805 -20.2801 -20.2801 -20.2799 -20.2797 -20.2792
   -20.2788 -20.2783 -20.2768 -20.2758 -20.2757 -20.2753 -20.2753 -20.2752
   -20.2746 -20.2743 -20.2726 -20.2725 -20.2721 -20.2719 -20.2717 -20.2708
   -20.2702 -20.2698 -20.2686 -20.2677 -20.2658 -20.2651 -20.2649 -20.2644
   -20.2640 -20.2636 -20.2623 -20.2616 -20.2608 -20.2597 -20.2579 -20.2567
    -9.8791  -9.8667  -9.5855  -9.5291  -9.4339  -9.3792  -9.1777  -9.1662
    -8.2450  -8.2392  -8.1961  -8.1925  -8.1916  -8.1841  -8.1733  -8.1686
    -8.0373  -8.0165  -7.9635  -7.9461  -7.9219  -7.8996  -7.8487  -7.8283
     1.1107   1.1334   1.2125   1.2925   1.3208   1.4000   1.5964   1.6230
     2.3311   2.3342   3.0628   3.0828   3.1609   3.1905   3.2776   3.3118
     3.4016   3.4242   3.4730   3.5007   3.7011   3.7198   3.8222   3.8344
     3.9521   3.9547   4.1395   4.1628   4.1830   4.1939   4.9752   4.9985
     5.0903   5.1031   5.2179   5.2357   5.2915   5.2964   5.4210   5.4417
     5.5539   5.5668   5.6795   5.7089   5.7573   5.7706   5.9360   5.9581
     6.3855   6.4166   6.5351   6.5569   6.5888   6.5980   6.7670   6.7847
     6.8820   6.9010   6.9497   6.9683   7.0367   7.0447   7.5101   7.5202
     7.5669   7.5812   7.6256   7.6403   7.6510   7.6693   7.8677   7.8730
    10.0492  10.0581  11.1385  11.1958  11.2227  11.2856  11.3091  11.3878
    11.4263  11.4820  12.5156  12.5306  12.7201  12.7371  13.0216  13.0550
    13.2093  13.2587  13.2843  13.2909  13.3115  13.3445  13.8116  13.8150
    15.5732  15.6186  15.9264  15.9599  16.0249  16.0594  16.1247  16.1673
    16.3515  16.3555  17.6490  17.6679  17.8232

          k = 0.1667-0.4725 0.3333 ( 62252 PWs)   bands (ev):

   -66.1554 -66.1549 -66.1545 -66.1540 -66.1525 -66.1520 -66.1516 -66.1511
   -30.6189 -30.6156 -30.6110 -30.6068 -30.5574 -30.5534 -30.5392 -30.5325
   -30.5294 -30.5274 -30.5259 -30.5105 -30.4763 -30.4699 -30.4429 -30.4403
   -30.4039 -30.4013 -30.4008 -30.4000 -30.3982 -30.3974 -30.3972 -30.3947
   -20.3071 -20.3070 -20.3070 -20.3068 -20.3036 -20.3034 -20.3034 -20.3032
   -20.2876 -20.2875 -20.2868 -20.2866 -20.2843 -20.2840 -20.2823 -20.2823
   -20.2812 -20.2811 -20.2803 -20.2801 -20.2800 -20.2799 -20.2798 -20.2794
   -20.2787 -20.2784 -20.2767 -20.2761 -20.2756 -20.2754 -20.2750 -20.2748
   -20.2744 -20.2736 -20.2726 -20.2724 -20.2722 -20.2719 -20.2712 -20.2702
   -20.2700 -20.2698 -20.2686 -20.2684 -20.2668 -20.2650 -20.2650 -20.2646
   -20.2646 -20.2633 -20.2631 -20.2622 -20.2605 -20.2599 -20.2576 -20.2569
    -9.7433  -9.6970  -9.5644  -9.4238  -9.3116  -9.1656  -9.0617  -9.0210
    -8.4808  -8.4310  -8.3765  -8.3448  -8.1934  -8.1850  -8.1784  -8.1681
    -8.1443  -8.1245  -8.1091  -8.0818  -7.9984  -7.9594  -7.8856  -7.8440
     1.2733   1.2955   1.3731   1.4062   1.9708   2.0702   2.1259   2.1901
     2.5973   2.6017   3.0872   3.1147   3.2135   3.2473   3.3251   3.3285
     3.4026   3.4191   3.5073   3.5415   3.6193   3.6530   3.6834   3.7896
     3.8314   3.8812   3.9578   3.9936   4.2664   4.3513   4.3796   4.5597
     4.5808   4.6474   4.8316   4.8671   4.9388   4.9578   5.0236   5.0477
     5.2524   5.3211   5.3264   5.4822   5.7197   5.7521   5.8451   5.8668
     6.4194   6.4945   6.6555   6.7141   6.7622   6.7822   6.8072   6.8634
     6.9412   6.9943   7.1361   7.2006   7.2607   7.2818   7.4826   7.5199
     7.5549   7.5736   7.6003   7.6231   7.6321   7.6689   7.7527   7.7804
    10.6464  10.6958  11.2417  11.2839  11.3681  11.4175  11.5453  11.6282
    11.6634  11.7518  12.1039  12.2480  12.6769  12.7714  12.7817  12.8023
    12.8402  12.8959  13.0763  13.1095  13.2646  13.2932  13.6046  13.6414
    15.7323  15.8951  15.9275  16.0759  16.3932  16.4626  16.6864  16.7174
    16.7559  16.8187  17.2605  17.3407  17.6091

          k = 0.1667-0.4725-0.5000 ( 62232 PWs)   bands (ev):

   -66.1552 -66.1552 -66.1543 -66.1542 -66.1522 -66.1522 -66.1514 -66.1514
   -30.6172 -30.6172 -30.5843 -30.5843 -30.5803 -30.5802 -30.5310 -30.5310
   -30.5300 -30.5300 -30.5019 -30.5019 -30.4929 -30.4929 -30.4416 -30.4416
   -30.4026 -30.4026 -30.3995 -30.3995 -30.3987 -30.3987 -30.3959 -30.3959
   -20.3070 -20.3070 -20.3069 -20.3069 -20.3035 -20.3035 -20.3033 -20.3033
   -20.2876 -20.2876 -20.2867 -20.2867 -20.2842 -20.2842 -20.2817 -20.2817
   -20.2816 -20.2816 -20.2801 -20.2801 -20.2800 -20.2800 -20.2796 -20.2796
   -20.2785 -20.2785 -20.2764 -20.2764 -20.2755 -20.2755 -20.2748 -20.2748
   -20.2734 -20.2734 -20.2727 -20.2727 -20.2717 -20.2717 -20.2713 -20.2713
   -20.2693 -20.2693 -20.2684 -20.2684 -20.2668 -20.2668 -20.2648 -20.2648
   -20.2640 -20.2639 -20.2629 -20.2628 -20.2602 -20.2602 -20.2573 -20.2573
    -9.6323  -9.6323  -9.5211  -9.5210  -8.9108  -8.9108  -8.8100  -8.8099
    -8.7750  -8.7750  -8.7139  -8.7139  -8.1884  -8.1884  -8.1652  -8.1652
    -8.1548  -8.1548  -8.1326  -8.1326  -7.9794  -7.9794  -7.8649  -7.8649
     1.2939   1.2939   1.4070   1.4070   2.8409   2.8409   2.8832   2.8832
     2.9383   2.9383   3.0106   3.0106   3.1448   3.1448   3.2265   3.2265
     3.3124   3.3124   3.4009   3.4009   3.4191   3.4191   3.5672   3.5672
     3.6945   3.6945   3.8384   3.8384   4.3071   4.3071   4.3762   4.3762
     4.4086   4.4086   4.4762   4.4762   4.7168   4.7168   4.7953   4.7953
     5.2525   5.2525   5.3766   5.3766   5.7464   5.7464   5.7768   5.7768
     6.5356   6.5356   6.6472   6.6473   6.7400   6.7400   6.8394   6.8394
     7.2924   7.2924   7.3463   7.3463   7.3627   7.3627   7.4284   7.4284
     7.5430   7.5430   7.5845   7.5845   7.6082   7.6082   7.6973   7.6973
    11.2031  11.2031  11.3418  11.3418  11.4624  11.4624  11.5686  11.5686
    12.1088  12.1088  12.1316  12.1316  12.2514  12.2514  12.2941  12.2941
    12.9436  12.9436  13.0372  13.0372  13.3380  13.3380  13.4084  13.4084
    15.8581  15.8581  16.0201  16.0201  16.7969  16.7969  16.8220  16.8220
    17.3256  17.3256  17.4124  17.4125  17.5293

          k = 0.3333 0.0000 0.3333 ( 62316 PWs)   bands (ev):

   -66.1552 -66.1547 -66.1547 -66.1542 -66.1523 -66.1518 -66.1518 -66.1513
   -30.6102 -30.6078 -30.6002 -30.5967 -30.5567 -30.5543 -30.5520 -30.5448
   -30.5259 -30.5184 -30.5137 -30.5109 -30.4754 -30.4720 -30.4622 -30.4596
   -30.4292 -30.4266 -30.4261 -30.4236 -30.3734 -30.3714 -30.3711 -30.3691
   -20.3071 -20.3070 -20.3069 -20.3069 -20.3036 -20.3035 -20.3034 -20.3033
   -20.2875 -20.2873 -20.2870 -20.2868 -20.2834 -20.2831 -20.2824 -20.2822
   -20.2814 -20.2811 -20.2808 -20.2805 -20.2803 -20.2800 -20.2798 -20.2795
   -20.2784 -20.2780 -20.2774 -20.2769 -20.2768 -20.2766 -20.2763 -20.2761
   -20.2740 -20.2735 -20.2716 -20.2712 -20.2710 -20.2708 -20.2701 -20.2698
   -20.2698 -20.2689 -20.2687 -20.2677 -20.2665 -20.2658 -20.2655 -20.2654
   -20.2643 -20.2636 -20.2630 -20.2625 -20.2601 -20.2594 -20.2584 -20.2578
    -9.6689  -9.4683  -9.4143  -9.3785  -9.2041  -9.1544  -8.9498  -8.9345
    -8.8830  -8.6551  -8.6437  -8.6115  -8.4419  -8.3763  -8.3514  -8.3226
    -8.2551  -8.2236  -8.2022  -8.1633  -7.5670  -7.5378  -7.5323  -7.5044
     1.7625   1.7789   1.7875   1.8584   1.8978   1.9101   2.0204   2.0748
     2.1487   2.1957   2.3143   2.4625   2.8373   2.9067   2.9424   3.0015
     3.0492   3.1041   3.6023   3.6696   3.7975   3.8542   3.9089   3.9740
     4.1095   4.1416   4.1943   4.2507   4.2977   4.3005   4.4128   4.4703
     4.5767   4.6996   4.7841   4.8474   4.8591   4.9105   4.9769   5.1915
     5.2413   5.3379   5.4245   5.6918   6.1761   6.1890   6.2285   6.2340
     6.5103   6.5474   6.5955   6.6805   6.7022   6.7825   6.8107   6.8356
     6.9875   7.0073   7.0202   7.0388   7.1134   7.1728   7.2117   7.2656
     7.3112   7.4522   7.6389   7.6496   7.9446   7.9623   8.0440   8.0500
    10.6442  10.6803  10.7782  10.8137  11.1409  11.2239  12.1072  12.1450
    12.2514  12.2826  12.3432  12.3833  12.5223  12.5445  12.6693  12.7601
    12.7698  12.8398  13.1108  13.2337  13.4020  13.4577  13.5174  13.6078
    14.4455  14.6668  14.6794  15.0341  15.9495  16.6027  16.6174  16.8737
    16.9948  17.3724  17.4698  17.8220  17.8533

          k = 0.3333 0.0000-0.5000 ( 62288 PWs)   bands (ev):

   -66.1550 -66.1550 -66.1545 -66.1544 -66.1520 -66.1520 -66.1515 -66.1515
   -30.5984 -30.5984 -30.5835 -30.5835 -30.5812 -30.5812 -30.5474 -30.5474
   -30.5123 -30.5123 -30.5009 -30.5008 -30.4962 -30.4962 -30.4609 -30.4609
   -30.4277 -30.4277 -30.4251 -30.4251 -30.3722 -30.3722 -30.3702 -30.3702
   -20.3070 -20.3070 -20.3070 -20.3069 -20.3035 -20.3034 -20.3034 -20.3033
   -20.2874 -20.2874 -20.2869 -20.2869 -20.2833 -20.2833 -20.2818 -20.2818
   -20.2816 -20.2816 -20.2806 -20.2806 -20.2800 -20.2800 -20.2798 -20.2798
   -20.2782 -20.2782 -20.2772 -20.2772 -20.2767 -20.2767 -20.2762 -20.2762
   -20.2729 -20.2729 -20.2721 -20.2721 -20.2708 -20.2708 -20.2704 -20.2704
   -20.2683 -20.2683 -20.2680 -20.2680 -20.2671 -20.2671 -20.2656 -20.2656
   -20.2638 -20.2637 -20.2631 -20.2631 -20.2597 -20.2597 -20.2581 -20.2581
    -9.4841  -9.4841  -9.2630  -9.2630  -9.0921  -9.0920  -8.8313  -8.8313
    -8.7596  -8.7596  -8.7042  -8.7041  -8.5547  -8.5546  -8.5375  -8.5375
    -8.3235  -8.3235  -8.2026  -8.2026  -7.5526  -7.5526  -7.5185  -7.5185
[...]
   -20.4592 -20.4592 -20.4588 -20.4588 -20.4567 -20.4567 -20.4562 -20.4562
   -20.4556 -20.4556 -20.4535 -20.4535 -20.4531 -20.4531 -20.4525 -20.4525
   -20.4499 -20.4499 -20.4482 -20.4482 -20.4481 -20.4481 -20.4479 -20.4478
   -20.4452 -20.4452 -20.4431 -20.4431 -20.4408 -20.4408 -20.4398 -20.4398
    -9.6279  -9.6279  -9.4362  -9.4362  -9.1211  -9.1211  -8.8793  -8.8793
    -8.7585  -8.7585  -8.6989  -8.6988  -8.5849  -8.5848  -8.5586  -8.5585
    -8.2587  -8.2587  -8.2284  -8.2284  -8.0363  -8.0363  -7.9008  -7.9008
     1.3660   1.3660   1.4827   1.4827   2.1686   2.1686   2.2609   2.2609
     2.8797   2.8797   2.9391   2.9391   2.9755   2.9755   3.0997   3.0997
     3.1265   3.1265   3.3204   3.3204   3.4536   3.4536   3.6246   3.6246
     3.7450   3.7450   3.8433   3.8433   4.0843   4.0843   4.2604   4.2604
     4.5649   4.5649   4.6986   4.6986   4.8105   4.8106   4.8694   4.8694
     4.9522   4.9522   5.3329   5.3329   5.6488   5.6488   5.7521   5.7521
     6.4789   6.4789   6.5768   6.5769   6.6792   6.6792   6.7306   6.7306
     6.9200   6.9200   6.9799   6.9799   7.0566   7.0566   7.3839   7.3839
     7.4070   7.4070   7.4719   7.4719   7.5044   7.5044   7.7637   7.7637
    10.5440  10.5440  11.1444  11.1445  11.2574  11.2574  11.5224  11.5225
    11.6953  11.6953  11.9797  11.9797  12.4676  12.4676  12.4946  12.4946
    12.7013  12.7013  12.8150  12.8150  12.9346  12.9346  13.3647  13.3647
    15.2489  15.2489  15.6600  15.6600  16.2395  16.2395  16.5013  16.5013
    16.7118  16.7118  17.2411  17.2411  17.7166

          k = 0.3287 0.4827 0.1640 ( 62822 PWs)   bands (ev):

   -66.3256 -66.3251 -66.3249 -66.3245 -66.3227 -66.3223 -66.3220 -66.3216
   -30.7137 -30.7115 -30.7026 -30.6981 -30.6684 -30.6640 -30.6590 -30.6561
   -30.6483 -30.6451 -30.6445 -30.6417 -30.6407 -30.6314 -30.6298 -30.6238
   -30.6210 -30.6181 -30.6148 -30.6126 -30.5762 -30.5729 -30.5633 -30.5606
   -20.4911 -20.4910 -20.4907 -20.4906 -20.4879 -20.4877 -20.4875 -20.4873
   -20.4721 -20.4717 -20.4716 -20.4713 -20.4667 -20.4664 -20.4657 -20.4655
   -20.4626 -20.4625 -20.4624 -20.4623 -20.4617 -20.4615 -20.4607 -20.4606
   -20.4593 -20.4590 -20.4587 -20.4582 -20.4569 -20.4563 -20.4558 -20.4556
   -20.4555 -20.4548 -20.4540 -20.4539 -20.4539 -20.4537 -20.4530 -20.4521
   -20.4504 -20.4498 -20.4497 -20.4492 -20.4485 -20.4478 -20.4466 -20.4464
   -20.4454 -20.4451 -20.4432 -20.4430 -20.4411 -20.4404 -20.4402 -20.4394
    -9.6664  -9.6131  -9.5020  -9.3637  -9.2254  -9.0940  -8.9436  -8.9051
    -8.7096  -8.6989  -8.6253  -8.6118  -8.5817  -8.5755  -8.5703  -8.5562
    -8.3487  -8.2981  -8.2211  -8.1801  -8.0541  -8.0152  -7.9214  -7.8821
     1.3629   1.3668   1.4733   1.4833   2.0702   2.1724   2.1987   2.2841
     2.7886   2.7976   2.8795   2.8912   2.9988   3.0411   3.0729   3.0998
     3.1713   3.1814   3.3186   3.4239   3.4426   3.5464   3.6182   3.6668
     3.6868   3.7138   3.7864   3.8215   4.1415   4.1498   4.3708   4.4022
     4.4936   4.5378   4.6858   4.7394   4.7540   4.8358   4.8401   4.8786
     4.9594   5.0082   5.2299   5.2952   5.6135   5.6328   5.8132   5.8396
     6.4595   6.4918   6.5479   6.5639   6.6403   6.7579   6.7645   6.8046
     6.9233   6.9609   6.9755   7.0658   7.0872   7.1324   7.2944   7.3423
     7.3751   7.4071   7.4348   7.4530   7.4892   7.5061   7.7076   7.7322
    10.4419  10.5070  11.0975  11.1274  11.2594  11.2766  11.5333  11.5504
    11.6330  11.6953  11.8231  11.9688  12.3931  12.5082  12.5407  12.5612
    12.5844  12.6502  12.9020  12.9690  13.0289  13.0686  13.2190  13.2594
    15.2664  15.4165  15.5544  15.7503  16.1103  16.2191  16.4581  16.5844
    16.7457  16.7756  17.2722  17.3075  17.7072

          k =-0.4931 0.4827 0.1640 ( 62784 PWs)   bands (ev):

   -66.3254 -66.3253 -66.3247 -66.3247 -66.3225 -66.3225 -66.3218 -66.3218
   -30.7126 -30.7126 -30.6840 -30.6840 -30.6794 -30.6794 -30.6574 -30.6574
   -30.6467 -30.6466 -30.6429 -30.6429 -30.6372 -30.6371 -30.6275 -30.6275
   -30.6196 -30.6196 -30.5965 -30.5965 -30.5937 -30.5937 -30.5621 -30.5621
   -20.4910 -20.4910 -20.4906 -20.4906 -20.4878 -20.4878 -20.4874 -20.4874
   -20.4719 -20.4718 -20.4714 -20.4714 -20.4666 -20.4666 -20.4656 -20.4656
   -20.4624 -20.4624 -20.4617 -20.4617 -20.4615 -20.4615 -20.4614 -20.4614
   -20.4590 -20.4590 -20.4586 -20.4586 -20.4563 -20.4563 -20.4557 -20.4557
   -20.4556 -20.4556 -20.4540 -20.4540 -20.4538 -20.4538 -20.4526 -20.4526
   -20.4499 -20.4499 -20.4482 -20.4482 -20.4481 -20.4481 -20.4479 -20.4479
   -20.4452 -20.4452 -20.4431 -20.4431 -20.4408 -20.4408 -20.4398 -20.4398
    -9.5680  -9.5680  -9.4589  -9.4589  -8.9158  -8.9157  -8.8297  -8.8297
    -8.7467  -8.7467  -8.7009  -8.7009  -8.5510  -8.5510  -8.5199  -8.5198
    -8.4879  -8.4878  -8.4442  -8.4441  -8.0379  -8.0379  -7.9018  -7.9018
     1.3693   1.3693   1.4871   1.4871   2.7778   2.7778   2.8847   2.8847
     2.9392   2.9392   2.9740   2.9740   3.0519   3.0519   3.0902   3.0902
     3.2254   3.2254   3.2899   3.2899   3.3361   3.3361   3.4341   3.4341
     3.5074   3.5074   3.7322   3.7322   4.0852   4.0852   4.1495   4.1495
     4.2004   4.2005   4.2665   4.2665   4.6951   4.6951   4.7880   4.7880
     5.0106   5.0106   5.1300   5.1300   5.6583   5.6583   5.6824   5.6825
     6.5299   6.5299   6.6062   6.6062   6.6813   6.6813   6.7431   6.7431
     7.1286   7.1286   7.1691   7.1691   7.2489   7.2489   7.3210   7.3210
     7.3798   7.3798   7.4499   7.4499   7.4784   7.4784   7.5725   7.5726
    11.0330  11.0330  11.1752  11.1752  11.2675  11.2675  11.3216  11.3216
    11.9751  11.9751  12.0102  12.0102  12.1375  12.1375  12.1661  12.1661
    12.6887  12.6887  12.8146  12.8146  13.0450  13.0450  13.1141  13.1141
    15.4384  15.4384  15.6343  15.6343  16.6786  16.6787  16.8016  16.8016
    17.2922  17.2922  17.3590  17.3592  17.4572

          k =-0.4931 0.0000 0.3280 ( 62764 PWs)   bands (ev):

   -66.3253 -66.3252 -66.3249 -66.3249 -66.3223 -66.3223 -66.3219 -66.3219
   -30.7037 -30.7037 -30.6930 -30.6930 -30.6860 -30.6860 -30.6691 -30.6691
   -30.6651 -30.6651 -30.6460 -30.6460 -30.6211 -30.6211 -30.6081 -30.6081
   -30.6061 -30.6061 -30.5929 -30.5929 -30.5917 -30.5916 -30.5766 -30.5765
   -20.4910 -20.4910 -20.4907 -20.4907 -20.4877 -20.4877 -20.4875 -20.4875
   -20.4718 -20.4718 -20.4716 -20.4715 -20.4663 -20.4663 -20.4658 -20.4658
   -20.4627 -20.4627 -20.4624 -20.4623 -20.4612 -20.4612 -20.4610 -20.4610
   -20.4598 -20.4598 -20.4595 -20.4595 -20.4570 -20.4570 -20.4568 -20.4568
   -20.4545 -20.4545 -20.4523 -20.4523 -20.4521 -20.4520 -20.4514 -20.4514
   -20.4509 -20.4509 -20.4490 -20.4490 -20.4481 -20.4481 -20.4479 -20.4479
   -20.4448 -20.4448 -20.4437 -20.4437 -20.4406 -20.4406 -20.4400 -20.4400
    -9.6362  -9.6362  -9.4375  -9.4375  -9.1890  -9.1889  -8.9153  -8.9153
    -8.7699  -8.7698  -8.6610  -8.6610  -8.6259  -8.6259  -8.5552  -8.5552
    -8.3246  -8.3246  -8.2026  -8.2026  -7.8687  -7.8687  -7.8458  -7.8458
     1.2800   1.2800   1.3011   1.3011   2.0952   2.0952   2.2042   2.2042
     2.7857   2.7857   2.9178   2.9178   2.9561   2.9561   3.0722   3.0722
     3.1267   3.1268   3.4063   3.4063   3.5134   3.5135   3.6015   3.6015
     3.7676   3.7676   3.8304   3.8304   4.0535   4.0535   4.2775   4.2775
     4.5496   4.5496   4.7697   4.7697   4.8842   4.8842   4.9370   4.9370
     5.1938   5.1938   5.4733   5.4734   5.9346   5.9346   6.0167   6.0167
     6.2773   6.2773   6.3268   6.3268   6.4224   6.4224   6.4476   6.4476
     6.9749   6.9749   7.0603   7.0603   7.1386   7.1386   7.3735   7.3735
     7.4179   7.4179   7.5004   7.5004   7.5312   7.5312   7.8524   7.8524
    10.5380  10.5380  11.2081  11.2081  11.2454  11.2454  11.4960  11.4960
    11.6279  11.6279  12.0134  12.0134  12.4022  12.4022  12.5119  12.5119
    12.7337  12.7337  13.0529  13.0529  13.0832  13.0832  13.4351  13.4351
    14.8103  14.8103  15.1575  15.1576  16.1195  16.1195  16.5346  16.5346
    16.8166  16.8166  17.2406  17.2406  17.8631

          k =-0.4931-0.1609 0.3280 ( 62778 PWs)   bands (ev):

   -66.3252 -66.3252 -66.3249 -66.3249 -66.3223 -66.3223 -66.3219 -66.3219
   -30.7020 -30.7020 -30.6898 -30.6898 -30.6852 -30.6852 -30.6686 -30.6686
   -30.6629 -30.6629 -30.6454 -30.6454 -30.6220 -30.6220 -30.6109 -30.6109
   -30.6090 -30.6090 -30.5941 -30.5941 -30.5927 -30.5926 -30.5767 -30.5767
   -20.4910 -20.4910 -20.4907 -20.4907 -20.4877 -20.4877 -20.4875 -20.4875
   -20.4718 -20.4718 -20.4716 -20.4715 -20.4663 -20.4663 -20.4658 -20.4658
   -20.4626 -20.4626 -20.4622 -20.4622 -20.4613 -20.4613 -20.4611 -20.4611
   -20.4596 -20.4596 -20.4593 -20.4593 -20.4569 -20.4569 -20.4567 -20.4567
   -20.4545 -20.4545 -20.4525 -20.4525 -20.4524 -20.4523 -20.4515 -20.4515
   -20.4509 -20.4509 -20.4490 -20.4490 -20.4481 -20.4481 -20.4479 -20.4479
   -20.4448 -20.4448 -20.4437 -20.4437 -20.4406 -20.4406 -20.4400 -20.4400
    -9.5812  -9.5812  -9.3640  -9.3640  -9.1979  -9.1979  -8.8911  -8.8911
    -8.7757  -8.7756  -8.6618  -8.6618  -8.6206  -8.6205  -8.5554  -8.5554
    -8.3247  -8.3247  -8.2054  -8.2054  -7.9773  -7.9773  -7.9548  -7.9547
     1.5144   1.5144   1.5439   1.5439   2.0977   2.0977   2.2081   2.2081
     2.8506   2.8506   2.9333   2.9333   2.9794   2.9794   3.0816   3.0817
     3.1349   3.1349   3.4393   3.4393   3.5496   3.5496   3.6177   3.6177
     3.7676   3.7676   3.8848   3.8848   4.0234   4.0234   4.2717   4.2717
     4.4231   4.4231   4.6099   4.6099   4.7969   4.7969   4.8561   4.8561
     4.9379   4.9379   5.2187   5.2187   5.6611   5.6611   5.7833   5.7833
     6.4462   6.4462   6.4811   6.4811   6.5538   6.5538   6.6619   6.6619
     6.9908   6.9908   7.0621   7.0621   7.1470   7.1470   7.3757   7.3757
     7.4139   7.4139   7.4952   7.4952   7.5289   7.5289   7.8096   7.8096
    10.6460  10.6460  11.2668  11.2668  11.3239  11.3239  11.5043  11.5043
    11.6469  11.6469  12.0549  12.0549  12.3998  12.3998  12.5101  12.5101
    12.5805  12.5805  12.9224  12.9224  12.9535  12.9535  13.3175  13.3175
    15.1527  15.1527  15.5224  15.5224  16.1931  16.1931  16.5384  16.5384
    16.8290  16.8290  17.2735  17.2735  17.7098

          k =-0.4931-0.3218 0.3280 ( 62820 PWs)   bands (ev):

   -66.3252 -66.3252 -66.3249 -66.3249 -66.3223 -66.3223 -66.3219 -66.3219
   -30.6993 -30.6993 -30.6840 -30.6840 -30.6829 -30.6829 -30.6667 -30.6667
   -30.6552 -30.6552 -30.6429 -30.6428 -30.6279 -30.6279 -30.6198 -30.6198
   -30.6145 -30.6145 -30.5957 -30.5957 -30.5939 -30.5939 -30.5770 -30.5770
   -20.4910 -20.4909 -20.4907 -20.4907 -20.4877 -20.4877 -20.4875 -20.4875
   -20.4718 -20.4718 -20.4716 -20.4715 -20.4663 -20.4663 -20.4658 -20.4658
   -20.4624 -20.4624 -20.4620 -20.4620 -20.4614 -20.4614 -20.4612 -20.4612
   -20.4592 -20.4592 -20.4589 -20.4589 -20.4565 -20.4565 -20.4563 -20.4562
   -20.4546 -20.4546 -20.4533 -20.4533 -20.4531 -20.4531 -20.4516 -20.4516
   -20.4510 -20.4510 -20.4490 -20.4490 -20.4481 -20.4481 -20.4479 -20.4479
   -20.4449 -20.4449 -20.4437 -20.4437 -20.4406 -20.4406 -20.4400 -20.4400
    -9.4495  -9.4495  -9.2293  -9.2292  -9.1654  -9.1654  -8.8128  -8.8128
    -8.7955  -8.7955  -8.6640  -8.6639  -8.5963  -8.5962  -8.5547  -8.5547
    -8.3311  -8.3311  -8.2570  -8.2570  -8.2374  -8.2374  -8.1674  -8.1674
     2.0030   2.0030   2.1285   2.1285   2.1876   2.1876   2.3244   2.3244
     2.9365   2.9365   2.9817   2.9817   3.0439   3.0439   3.1136   3.1136
     3.2047   3.2047   3.5003   3.5003   3.5855   3.5855   3.6961   3.6961
     3.7326   3.7326   3.9005   3.9005   3.9992   3.9992   4.0941   4.0941
     4.1992   4.1992   4.3794   4.3794   4.4553   4.4553   4.6825   4.6825
     4.7502   4.7502   4.8522   4.8522   4.9141   4.9141   5.2262   5.2262
     6.7344   6.7344   6.8187   6.8187   6.8714   6.8714   6.9188   6.9188
     7.0230   7.0230   7.0882   7.0882   7.1882   7.1882   7.3679   7.3679
     7.3973   7.3974   7.4705   7.4706   7.4962   7.4962   7.6779   7.6779
    10.9745  10.9745  11.3835  11.3835  11.4981  11.4981  11.5800  11.5800
    11.7647  11.7647  12.1215  12.1215  12.2182  12.2182  12.3673  12.3673
    12.5189  12.5189  12.5910  12.5910  12.6386  12.6386  13.0158  13.0158
    15.9226  15.9226  16.3320  16.3320  16.4661  16.4661  16.5906  16.5906
    16.8913  16.8913  17.2998  17.2999  17.4470

          k =-0.4931 0.4827 0.3280 ( 62776 PWs)   bands (ev):

   -66.3252 -66.3252 -66.3249 -66.3248 -66.3223 -66.3223 -66.3219 -66.3219
   -30.6982 -30.6982 -30.6828 -30.6828 -30.6802 -30.6802 -30.6649 -30.6649
   -30.6427 -30.6427 -30.6409 -30.6408 -30.6381 -30.6381 -30.6286 -30.6286
   -30.6160 -30.6160 -30.5962 -30.5962 -30.5943 -30.5943 -30.5771 -30.5771
   -20.4910 -20.4909 -20.4907 -20.4907 -20.4877 -20.4877 -20.4875 -20.4875
   -20.4718 -20.4718 -20.4716 -20.4715 -20.4663 -20.4663 -20.4658 -20.4658
   -20.4623 -20.4622 -20.4618 -20.4618 -20.4615 -20.4615 -20.4614 -20.4614
   -20.4590 -20.4590 -20.4587 -20.4587 -20.4561 -20.4561 -20.4558 -20.4558
   -20.4549 -20.4549 -20.4540 -20.4540 -20.4536 -20.4536 -20.4516 -20.4516
   -20.4511 -20.4511 -20.4490 -20.4490 -20.4481 -20.4481 -20.4479 -20.4479
   -20.4449 -20.4449 -20.4437 -20.4437 -20.4406 -20.4406 -20.4400 -20.4400
    -9.3506  -9.3506  -9.2731  -9.2731  -8.9634  -8.9633  -8.8949  -8.8949
    -8.6874  -8.6874  -8.6577  -8.6577  -8.5439  -8.5439  -8.5261  -8.5261
    -8.4834  -8.4834  -8.4496  -8.4495  -8.3131  -8.3131  -8.1905  -8.1905
     2.0616   2.0616   2.1632   2.1632   2.8099   2.8099   2.8745   2.8745
     2.9625   2.9625   3.0046   3.0046   3.0487   3.0487   3.0784   3.0784
     3.2944   3.2945   3.3310   3.3311   3.4568   3.4568   3.6097   3.6097
     3.6763   3.6763   3.8270   3.8270   4.0377   4.0377   4.0927   4.0928
     4.1684   4.1684   4.2044   4.2044   4.3089   4.3089   4.3678   4.3679
     4.5386   4.5387   4.6431   4.6431   4.8873   4.8873   4.9058   4.9058
     6.8256   6.8256   6.9558   6.9558   6.9788   6.9788   7.0128   7.0128
     7.1184   7.1184   7.2110   7.2110   7.2641   7.2641   7.3059   7.3059
     7.3720   7.3720   7.4494   7.4494   7.4609   7.4609   7.5459   7.5459
    11.3322  11.3322  11.4358  11.4358  11.5298  11.5298  11.6256  11.6256
    11.9645  11.9645  12.0363  12.0363  12.1114  12.1114  12.1873  12.1873
    12.3430  12.3430  12.4943  12.4943  12.6454  12.6454  12.7403  12.7403
    16.2892  16.2892  16.4349  16.4349  16.8593  16.8593  16.9706  16.9706
    17.2501  17.2502  17.3617  17.3618  17.4502

     the Fermi energy is     8.7509 ev

!    total energy              =   -6261.10691344 Ry
     Harris-Foulkes estimate   =   -6261.10691344 Ry
     estimated scf accuracy    <          3.8E-11 Ry

     The total energy is the sum of the following terms:

     one-electron contribution =   -4753.08004175 Ry
     hartree contribution      =    2611.27144851 Ry
     xc contribution           =    -965.66648531 Ry
     ewald contribution        =   -3153.63183490 Ry
     smearing contrib. (-TS)   =      -0.00000000 Ry

     convergence has been achieved in  16 iterations

     Forces acting on atoms (cartesian axes, Ry/au):

     atom    1 type  1   force =     0.00632814    0.00610188    0.00651616
     atom    2 type  1   force =     0.00480082   -0.00745082    0.00722088
     atom    3 type  1   force =    -0.00632814   -0.00610188    0.00651616
     atom    4 type  1   force =    -0.00480082    0.00745082    0.00722088
     atom    5 type  1   force =    -0.00632814    0.00610188   -0.00651616
     atom    6 type  1   force =    -0.00480082   -0.00745082   -0.00722088
     atom    7 type  1   force =     0.00632814   -0.00610188   -0.00651616
     atom    8 type  1   force =     0.00480082    0.00745082   -0.00722088
     atom    9 type  2   force =    -0.00066824   -0.00429085    0.00028087
     atom   10 type  2   force =    -0.00136984    0.00399860    0.00019019
     atom   11 type  2   force =     0.00066824    0.00429085    0.00028087
     atom   12 type  2   force =     0.00136984   -0.00399860    0.00019019
     atom   13 type  2   force =     0.00066824   -0.00429085   -0.00028087
     atom   14 type  2   force =     0.00136984    0.00399860   -0.00019019
     atom   15 type  2   force =    -0.00066824    0.00429085   -0.00028087
     atom   16 type  2   force =    -0.00136984   -0.00399860   -0.00019019
     atom   17 type  2   force =     0.00460994   -0.00120512   -0.00032465
     atom   18 type  2   force =     0.00331136    0.00011209   -0.00017888
     atom   19 type  2   force =    -0.00460994    0.00120512   -0.00032465
     atom   20 type  2   force =    -0.00331136   -0.00011209   -0.00017888
     atom   21 type  2   force =    -0.00460994   -0.00120512    0.00032465
     atom   22 type  2   force =    -0.00331136    0.00011209    0.00017888
     atom   23 type  2   force =     0.00460994    0.00120512    0.00032465
     atom   24 type  2   force =     0.00331136   -0.00011209    0.00017888
     atom   25 type  2   force =    -0.00220360    0.00106626    0.00486056
     atom   26 type  2   force =     0.00155804   -0.00087673    0.00425812
     atom   27 type  2   force =     0.00220360   -0.00106626    0.00486056
     atom   28 type  2   force =    -0.00155804    0.00087673    0.00425812
     atom   29 type  2   force =     0.00220360    0.00106626   -0.00486056
     atom   30 type  2   force =    -0.00155804   -0.00087673   -0.00425812
     atom   31 type  2   force =    -0.00220360   -0.00106626   -0.00486056
     atom   32 type  2   force =     0.00155804    0.00087673   -0.00425812

     Total force =     0.000000     Total SCF correction =     0.000000


     Computing stress (Cartesian axis) and pressure

          total   stress  (Ry/bohr**3)                   (kbar)     P=    0.63
   0.00000635   0.00000000   0.00000000          0.93      0.00      0.00
   0.00000000  -0.00000088   0.00000000          0.00     -0.13      0.00
   0.00000000   0.00000000   0.00000744          0.00      0.00      1.09


     Writing output data file Landau_14.save
 
     init_run     :     97.57s CPU    100.49s WALL (       2 calls)
     electrons    :  14445.07s CPU  14740.33s WALL (       7 calls)
     update_pot   :    110.42s CPU    114.11s WALL (       5 calls)
     forces       :    251.77s CPU    256.24s WALL (       7 calls)
     stress       :   1481.10s CPU   1498.20s WALL (       7 calls)

     Called by init_run:
     wfcinit      :     76.81s CPU     79.47s WALL (       2 calls)
     potinit      :      9.60s CPU      9.67s WALL (       2 calls)

     Called by electrons:
     c_bands      :  13093.56s CPU  13372.06s WALL (     101 calls)
     sum_band     :   1276.52s CPU   1287.27s WALL (     101 calls)
     v_of_rho     :      9.69s CPU      9.89s WALL (     106 calls)
     mix_rho      :     15.89s CPU     20.43s WALL (     101 calls)

     Called by c_bands:
     init_us_2    :     59.42s CPU     64.04s WALL (     436 calls)
     cegterg      :  10223.16s CPU  10481.39s WALL (     202 calls)

     Called by sum_band:

     Called by *egterg:
     h_psi        :   7259.32s CPU   7307.98s WALL (     830 calls)
     g_psi        :     11.47s CPU     13.25s WALL (     624 calls)
     cdiaghg      :    128.80s CPU    129.08s WALL (     812 calls)

     Called by h_psi:
     h_psi:pot    :   7229.50s CPU   7277.23s WALL (     830 calls)
     h_psi:calbec :   1168.55s CPU   1194.73s WALL (     830 calls)
     vloc_psi     :   4850.62s CPU   4865.46s WALL (     830 calls)
     add_vuspsi   :   1210.33s CPU   1217.03s WALL (     830 calls)

     General routines
     calbec       :   1331.15s CPU   1357.56s WALL (     900 calls)
     fft          :      9.41s CPU      9.41s WALL (     482 calls)
     fftw         :   5222.44s CPU   5237.41s WALL (  261644 calls)
 
     Parallel routines
 
     PWSCF        :     4h33m CPU        4h38m WALL

 
   This run was terminated on:   1:39:12  24Mar2020            

=------------------------------------------------------------------------------=
   JOB DONE.
=------------------------------------------------------------------------------=
