
     Program PWSCF v.6.2 (svn rev. 14038) starts on 25Mar2020 at  4: 0:19 

     This program is part of the open-source Quantum ESPRESSO suite
     for quantum simulation of materials; please cite
         "P. Giannozzi et al., J. Phys.:Condens. Matter 21 395502 (2009);
         "P. Giannozzi et al., J. Phys.:Condens. Matter 29 465901 (2017);
          URL http://www.quantum-espresso.org", 
     in publications or presentations arising from this work. More details at
     http://www.quantum-espresso.org/quote

     Parallel version (MPI), running on    40 processors

     MPI processes distributed on     9 nodes
     K-points division:     npool     =      40
     Reading input from scf.in

     Current dimensions of program PWSCF are:
     Max number of different atomic species (ntypx) = 10
     Max number of k-points (npk) =  40000
     Max angular momentum in pseudopotentials (lmaxx) =  3

     Subspace diagonalization in iterative solution of the eigenvalue problem:
     a serial algorithm will be used

 
     G-vector sticks info
     --------------------
     sticks:   dense  smooth     PW     G-vecs:    dense   smooth      PW
     Sum        7767    7767   2077               510525   510525   70799
 


     bravais-lattice index     =            0
     lattice parameter (alat)  =      14.1466  a.u.
     unit-cell volume          =    2875.3705 (a.u.)^3
     number of atoms/cell      =           32
     number of atomic types    =            2
     number of electrons       =       368.20
     number of Kohn-Sham states=          221
     kinetic-energy cutoff     =     120.0000  Ry
     charge density cutoff     =     480.0000  Ry
     convergence threshold     =      1.0E-08
     mixing beta               =       0.7000
     number of iterations used =            8  plain     mixing
     Exchange-correlation      = SLA PW NOGX NOGC ( 1  4  0  0 0 0)

     celldm(1)=  14.146648  celldm(2)=   0.000000  celldm(3)=   0.000000
     celldm(4)=   0.000000  celldm(5)=   0.000000  celldm(6)=   0.000000

     crystal axes: (cart. coord. in units of alat)
               a(1) = (   1.000000   0.000000   0.000000 )  
               a(2) = (   0.000000   1.014947   0.000000 )  
               a(3) = (   0.000000   0.000000   1.000667 )  

     reciprocal axes: (cart. coord. in units 2 pi/alat)
               b(1) = (  1.000000  0.000000  0.000000 )  
               b(2) = (  0.000000  0.985273  0.000000 )  
               b(3) = (  0.000000  0.000000  0.999333 )  


     PseudoPot. # 1 for W  read from file:
     /cluster/scratch/mnoe/QE/pps/W_ONCV_LDA-4.0.upf
     MD5 check sum: ba0307d5d4cd419d6f1d13dc49d7c13a
     Pseudo is Norm-conserving + core correction, Zval = 28.0
     Generated using ONCVPSP code by D. R. Hamann
     Using radial grid of 1380 points,  8 beta functions with: 
                l(1) =   0
                l(2) =   0
                l(3) =   1
                l(4) =   1
                l(5) =   2
                l(6) =   2
                l(7) =   3
                l(8) =   3

     PseudoPot. # 2 for O  read from file:
     /cluster/scratch/mnoe/QE/pps/O_ONCV_LDA-3.0.upf
     MD5 check sum: a1bd6164e7280c17a38c229939bfbd54
     Pseudo is Norm-conserving + core correction, Zval =  6.0
     Generated using ONCVPSP code by D. R. Hamann
     Using radial grid of  926 points,  5 beta functions with: 
                l(1) =   0
                l(2) =   0
                l(3) =   1
                l(4) =   1
                l(5) =   2

     atomic species   valence    mass     pseudopotential
        W             28.00   183.84000     W ( 1.00)
        O              6.00    15.99940     O ( 1.00)

      4 Sym. Ops. (no inversion) found ( 3 have fractional translation)



   Cartesian axes

     site n.     atom                  positions (alat units)
         1           W   tau(   1) = (   0.2402791   0.2734876   0.0045204  )
         2           W   tau(   2) = (   0.7550662   0.7414596  -0.0094528  )
         3           W   tau(   3) = (   0.2597209   0.2339860   0.5048541  )
         4           W   tau(   4) = (   0.7449337   0.7809613   0.4908809  )
         5           W   tau(   5) = (   0.7597208   0.2734876   0.4958132  )
         6           W   tau(   6) = (   0.2449337   0.7414596   0.5097864  )
         7           W   tau(   7) = (   0.7402790   0.2339860  -0.0045204  )
         8           W   tau(   8) = (   0.2550663   0.7809613   0.0094528  )
         9           O   tau(   9) = (   0.2356364   0.0050157  -0.0023782  )
        10           O   tau(  10) = (   0.7629167  -0.0050158  -0.0067213  )
        11           O   tau(  11) = (   0.2643636   0.5024579   0.4979555  )
        12           O   tau(  12) = (   0.7370831   0.5124894   0.4936123  )
        13           O   tau(  13) = (   0.7643635   0.0050157   0.5027119  )
        14           O   tau(  14) = (   0.2370832  -0.0050158   0.5070550  )
        15           O   tau(  15) = (   0.7356364   0.5024579   0.0023782  )
        16           O   tau(  16) = (   0.2629168   0.5124894   0.0067213  )
        17           O   tau(  17) = (   0.5030440   0.2385028   0.4801808  )
        18           O   tau(  18) = (   0.4989995   0.7743785   0.5204866  )
        19           O   tau(  19) = (  -0.0030440   0.2689708   0.9805145  )
        20           O   tau(  20) = (   0.0010005   0.7480425   0.0201528  )
        21           O   tau(  21) = (   0.4969560   0.2385028   0.0201528  )
        22           O   tau(  22) = (   0.5010005   0.7743785   0.9805145  )
        23           O   tau(  23) = (   0.0030440   0.2689708   0.5204866  )
        24           O   tau(  24) = (  -0.0010005   0.7480425   0.4801808  )
        25           O   tau(  25) = (   0.7298605   0.2553715   0.7481076  )
        26           O   tau(  26) = (   0.2701394   0.7690431   0.2539087  )
        27           O   tau(  27) = (   0.7701396   0.2521021   0.2477740  )
        28           O   tau(  28) = (   0.2298606   0.7533778   0.7542423  )
        29           O   tau(  29) = (   0.2701394   0.2553715   0.7528933  )
        30           O   tau(  30) = (   0.7298605   0.7690431   0.2464249  )
        31           O   tau(  31) = (   0.2298606   0.2521021   0.2525597  )
        32           O   tau(  32) = (   0.7701396   0.7533778   0.7467585  )

     number of k points=    64  gaussian smearing, width (Ry)=  0.0007
                       cart. coord. in units 2pi/alat
        k(    1) = (   0.0000000   0.0000000   0.0000000), wk =   0.0092593
        k(    2) = (   0.0000000   0.0000000   0.1665555), wk =   0.0185185
        k(    3) = (   0.0000000   0.0000000   0.3331110), wk =   0.0185185
        k(    4) = (   0.0000000   0.0000000  -0.4996666), wk =   0.0092593
        k(    5) = (   0.0000000   0.1642122   0.0000000), wk =   0.0185185
        k(    6) = (   0.0000000   0.1642122   0.1665555), wk =   0.0370370
        k(    7) = (   0.0000000   0.1642122   0.3331110), wk =   0.0370370
        k(    8) = (   0.0000000   0.1642122  -0.4996666), wk =   0.0185185
        k(    9) = (   0.0000000   0.3284243   0.0000000), wk =   0.0185185
        k(   10) = (   0.0000000   0.3284243   0.1665555), wk =   0.0370370
        k(   11) = (   0.0000000   0.3284243   0.3331110), wk =   0.0370370
        k(   12) = (   0.0000000   0.3284243  -0.4996666), wk =   0.0185185
        k(   13) = (   0.0000000  -0.4926365   0.0000000), wk =   0.0092593
        k(   14) = (   0.0000000  -0.4926365   0.1665555), wk =   0.0185185
        k(   15) = (   0.0000000  -0.4926365   0.3331110), wk =   0.0185185
        k(   16) = (   0.0000000  -0.4926365  -0.4996666), wk =   0.0092593
        k(   17) = (   0.1666667   0.0000000   0.0000000), wk =   0.0185185
        k(   18) = (   0.1666667   0.0000000   0.1665555), wk =   0.0370370
        k(   19) = (   0.1666667   0.0000000   0.3331110), wk =   0.0370370
        k(   20) = (   0.1666667   0.0000000  -0.4996666), wk =   0.0185185
        k(   21) = (   0.1666667   0.1642122   0.0000000), wk =   0.0370370
        k(   22) = (   0.1666667   0.1642122   0.1665555), wk =   0.0740741
        k(   23) = (   0.1666667   0.1642122   0.3331110), wk =   0.0740741
        k(   24) = (   0.1666667   0.1642122  -0.4996666), wk =   0.0370370
        k(   25) = (   0.1666667   0.3284243   0.0000000), wk =   0.0370370
        k(   26) = (   0.1666667   0.3284243   0.1665555), wk =   0.0740741
        k(   27) = (   0.1666667   0.3284243   0.3331110), wk =   0.0740741
        k(   28) = (   0.1666667   0.3284243  -0.4996666), wk =   0.0370370
        k(   29) = (   0.1666667  -0.4926365   0.0000000), wk =   0.0185185
        k(   30) = (   0.1666667  -0.4926365   0.1665555), wk =   0.0370370
        k(   31) = (   0.1666667  -0.4926365   0.3331110), wk =   0.0370370
        k(   32) = (   0.1666667  -0.4926365  -0.4996666), wk =   0.0185185
        k(   33) = (   0.3333333   0.0000000   0.0000000), wk =   0.0185185
        k(   34) = (   0.3333333   0.0000000   0.1665555), wk =   0.0370370
        k(   35) = (   0.3333333   0.0000000   0.3331110), wk =   0.0370370
        k(   36) = (   0.3333333   0.0000000  -0.4996666), wk =   0.0185185
        k(   37) = (   0.3333333   0.1642122   0.0000000), wk =   0.0370370
        k(   38) = (   0.3333333   0.1642122   0.1665555), wk =   0.0740741
        k(   39) = (   0.3333333   0.1642122   0.3331110), wk =   0.0740741
        k(   40) = (   0.3333333   0.1642122  -0.4996666), wk =   0.0370370
        k(   41) = (   0.3333333   0.3284243   0.0000000), wk =   0.0370370
        k(   42) = (   0.3333333   0.3284243   0.1665555), wk =   0.0740741
        k(   43) = (   0.3333333   0.3284243   0.3331110), wk =   0.0740741
        k(   44) = (   0.3333333   0.3284243  -0.4996666), wk =   0.0370370
        k(   45) = (   0.3333333  -0.4926365   0.0000000), wk =   0.0185185
        k(   46) = (   0.3333333  -0.4926365   0.1665555), wk =   0.0370370
        k(   47) = (   0.3333333  -0.4926365   0.3331110), wk =   0.0370370
        k(   48) = (   0.3333333  -0.4926365  -0.4996666), wk =   0.0185185
        k(   49) = (  -0.5000000   0.0000000   0.0000000), wk =   0.0092593
        k(   50) = (  -0.5000000   0.0000000   0.1665555), wk =   0.0185185
        k(   51) = (  -0.5000000   0.0000000   0.3331110), wk =   0.0185185
        k(   52) = (  -0.5000000   0.0000000  -0.4996666), wk =   0.0092593
        k(   53) = (  -0.5000000   0.1642122   0.0000000), wk =   0.0185185
        k(   54) = (  -0.5000000   0.1642122   0.1665555), wk =   0.0370370
        k(   55) = (  -0.5000000   0.1642122   0.3331110), wk =   0.0370370
        k(   56) = (  -0.5000000   0.1642122  -0.4996666), wk =   0.0185185
        k(   57) = (  -0.5000000   0.3284243   0.0000000), wk =   0.0185185
        k(   58) = (  -0.5000000   0.3284243   0.1665555), wk =   0.0370370
        k(   59) = (  -0.5000000   0.3284243   0.3331110), wk =   0.0370370
        k(   60) = (  -0.5000000   0.3284243  -0.4996666), wk =   0.0185185
        k(   61) = (  -0.5000000  -0.4926365   0.0000000), wk =   0.0092593
        k(   62) = (  -0.5000000  -0.4926365   0.1665555), wk =   0.0185185
        k(   63) = (  -0.5000000  -0.4926365   0.3331110), wk =   0.0185185
        k(   64) = (  -0.5000000  -0.4926365  -0.4996666), wk =   0.0092593

     Dense  grid:   510525 G-vectors     FFT dimensions: ( 100, 108, 100)

     Estimated max dynamical RAM per process >       3.20 GB

     Estimated total dynamical RAM >     128.11 GB

     Initial potential from superposition of free atoms

     starting charge  367.99656, renormalised to  368.20000
     Starting wfc are  232 randomized atomic wfcs

     total cpu time spent up to now is       37.3 secs

     Self-consistent Calculation

     iteration #  1     ecut=   120.00 Ry     beta= 0.70
     Davidson diagonalization with overlap
     ethr =  1.00E-02,  avg # of iterations =  5.0

     total cpu time spent up to now is      176.9 secs

     total energy              =   -6253.71984400 Ry
     Harris-Foulkes estimate   =   -6264.53910725 Ry
     estimated scf accuracy    <      13.67193465 Ry

     iteration #  2     ecut=   120.00 Ry     beta= 0.70
     Davidson diagonalization with overlap
     ethr =  3.71E-03,  avg # of iterations =  3.6

     total cpu time spent up to now is      307.3 secs

     total energy              =   -6250.55079546 Ry
     Harris-Foulkes estimate   =   -6270.83173918 Ry
     estimated scf accuracy    <      54.43319631 Ry

     iteration #  3     ecut=   120.00 Ry     beta= 0.70
     Davidson diagonalization with overlap
     ethr =  3.71E-03,  avg # of iterations =  3.6

     total cpu time spent up to now is      429.4 secs

     total energy              =   -6260.95554134 Ry
     Harris-Foulkes estimate   =   -6261.23620080 Ry
     estimated scf accuracy    <       0.94714414 Ry

     iteration #  4     ecut=   120.00 Ry     beta= 0.70
     Davidson diagonalization with overlap
     ethr =  2.57E-04,  avg # of iterations =  3.6

     total cpu time spent up to now is      538.3 secs

     total energy              =   -6260.91929865 Ry
     Harris-Foulkes estimate   =   -6261.01527043 Ry
     estimated scf accuracy    <       0.23266051 Ry

     iteration #  5     ecut=   120.00 Ry     beta= 0.70
     Davidson diagonalization with overlap
     ethr =  6.32E-05,  avg # of iterations =  4.8

     total cpu time spent up to now is      651.9 secs

     total energy              =   -6260.95474677 Ry
     Harris-Foulkes estimate   =   -6260.97052825 Ry
     estimated scf accuracy    <       0.04195606 Ry

     iteration #  6     ecut=   120.00 Ry     beta= 0.70
     Davidson diagonalization with overlap
     ethr =  1.14E-05,  avg # of iterations =  5.8

     total cpu time spent up to now is      771.2 secs

     total energy              =   -6260.96062860 Ry
     Harris-Foulkes estimate   =   -6260.96407975 Ry
     estimated scf accuracy    <       0.00912967 Ry

     iteration #  7     ecut=   120.00 Ry     beta= 0.70
     Davidson diagonalization with overlap
     ethr =  2.48E-06,  avg # of iterations =  6.3

     total cpu time spent up to now is      894.3 secs

     total energy              =   -6260.96187709 Ry
     Harris-Foulkes estimate   =   -6260.96194762 Ry
     estimated scf accuracy    <       0.00011568 Ry

     iteration #  8     ecut=   120.00 Ry     beta= 0.70
     Davidson diagonalization with overlap
     ethr =  3.14E-08,  avg # of iterations =  3.4

     total cpu time spent up to now is     1031.4 secs

     total energy              =   -6260.96193425 Ry
     Harris-Foulkes estimate   =   -6260.96196123 Ry
     estimated scf accuracy    <       0.00011329 Ry

     iteration #  9     ecut=   120.00 Ry     beta= 0.70
     Davidson diagonalization with overlap
     ethr =  3.08E-08,  avg # of iterations =  2.0

     total cpu time spent up to now is     1129.8 secs

     total energy              =   -6260.96194056 Ry
     Harris-Foulkes estimate   =   -6260.96194880 Ry
     estimated scf accuracy    <       0.00004773 Ry

     iteration # 10     ecut=   120.00 Ry     beta= 0.70
     Davidson diagonalization with overlap
     ethr =  1.30E-08,  avg # of iterations =  1.0

     total cpu time spent up to now is     1220.4 secs

     total energy              =   -6260.96193356 Ry
     Harris-Foulkes estimate   =   -6260.96194307 Ry
     estimated scf accuracy    <       0.00002270 Ry

     iteration # 11     ecut=   120.00 Ry     beta= 0.70
     Davidson diagonalization with overlap
     ethr =  6.16E-09,  avg # of iterations =  2.7

     total cpu time spent up to now is     1320.3 secs

     total energy              =   -6260.96193788 Ry
     Harris-Foulkes estimate   =   -6260.96193826 Ry
     estimated scf accuracy    <       0.00000094 Ry

     iteration # 12     ecut=   120.00 Ry     beta= 0.70
     Davidson diagonalization with overlap
     ethr =  2.56E-10,  avg # of iterations =  2.7

     total cpu time spent up to now is     1439.2 secs

     total energy              =   -6260.96193807 Ry
     Harris-Foulkes estimate   =   -6260.96193813 Ry
     estimated scf accuracy    <       0.00000014 Ry

     iteration # 13     ecut=   120.00 Ry     beta= 0.70
     Davidson diagonalization with overlap
     ethr =  3.70E-11,  avg # of iterations =  1.7

     total cpu time spent up to now is     1532.8 secs

     total energy              =   -6260.96193806 Ry
     Harris-Foulkes estimate   =   -6260.96193807 Ry
     estimated scf accuracy    <       0.00000003 Ry

     iteration # 14     ecut=   120.00 Ry     beta= 0.70
     Davidson diagonalization with overlap
     ethr =  7.17E-12,  avg # of iterations =  2.9

     total cpu time spent up to now is     1656.5 secs

     End of self-consistent calculation

          k = 0.0000 0.0000 0.0000 ( 63735 PWs)   bands (ev):

   -66.5813 -66.5806 -66.5806 -66.5803 -66.5799 -66.5796 -66.5796 -66.5789
   -30.9453 -30.9402 -30.9392 -30.9341 -30.9279 -30.9246 -30.9217 -30.9212
   -30.9114 -30.9104 -30.9068 -30.9067 -30.8643 -30.8639 -30.8628 -30.8617
   -30.8392 -30.8386 -30.8370 -30.8345 -30.8257 -30.8246 -30.8214 -30.8202
   -20.7492 -20.7491 -20.7491 -20.7490 -20.7483 -20.7482 -20.7482 -20.7481
   -20.7257 -20.7253 -20.7249 -20.7246 -20.7244 -20.7244 -20.7236 -20.7233
   -20.7231 -20.7228 -20.7223 -20.7222 -20.7218 -20.7216 -20.7215 -20.7213
   -20.7208 -20.7207 -20.7205 -20.7198 -20.7195 -20.7190 -20.7179 -20.7177
   -20.7172 -20.7170 -20.7168 -20.7165 -20.7157 -20.7156 -20.7152 -20.7148
   -20.7147 -20.7136 -20.7135 -20.7132 -20.7131 -20.7120 -20.7117 -20.7104
   -20.7088 -20.7086 -20.7080 -20.7076 -20.7075 -20.7070 -20.7067 -20.7055
   -10.2945  -9.9846  -9.9478  -9.9455  -9.6513  -9.6460  -9.5880  -9.4102
    -9.3901  -9.3606  -9.3436  -9.3426  -8.1466  -8.0911  -8.0894  -8.0878
    -8.0840  -8.0444  -8.0377  -8.0346  -8.0327  -8.0305  -7.9880  -7.9835
     0.7071   0.7180   0.7604   0.7677   0.7917   0.8336   0.8513   0.9633
     1.0571   1.0780   1.0911   1.3111   2.1718   2.1995   2.2164   2.2802
     2.3114   2.3282   4.0290   4.0522   4.1281   4.1638   4.2674   4.2705
     4.3162   4.3208   4.3234   4.3672   4.4100   4.4164   4.8094   4.9516
     4.9620   5.2306   5.2449   5.2520   5.2596   5.2622   5.2705   5.3360
     5.3439   5.4228   5.6654   5.6811   5.6970   5.7369   5.7443   5.8554
     5.8697   5.9936   5.9996   6.1211   6.1441   6.3990   6.6138   6.6350
     6.6758   6.6878   6.6927   6.7445   6.7602   6.7615   6.8064   6.8130
     6.8522   6.8597   7.8032   7.8182   7.8479   7.8538   7.8613   7.8688
     8.7417   8.7878   9.0277   9.0347   9.0832   9.1012  12.0710  12.1115
    12.1678  12.1745  12.1957  12.2201  12.2277  12.2314  12.3757  12.4745
    12.5550  12.5797  13.2162  13.3145  13.4830  13.4845  13.6753  13.6953
    14.0139  14.0280  14.1818  14.3865  14.4118  14.4435  15.3544  15.4737
    15.5092  16.6760  16.7093  16.7595  16.7843

          k = 0.0000 0.0000 0.1666 ( 63783 PWs)   bands (ev):

   -66.5812 -66.5806 -66.5805 -66.5802 -66.5799 -66.5796 -66.5795 -66.5789
   -30.9449 -30.9405 -30.9388 -30.9344 -30.9266 -30.9220 -30.9201 -30.9159
   -30.9109 -30.9070 -30.9051 -30.9011 -30.8640 -30.8636 -30.8636 -30.8624
   -30.8439 -30.8409 -30.8389 -30.8368 -30.8312 -30.8264 -30.8243 -30.8207
   -20.7492 -20.7491 -20.7491 -20.7490 -20.7483 -20.7482 -20.7482 -20.7481
   -20.7257 -20.7254 -20.7249 -20.7245 -20.7244 -20.7243 -20.7236 -20.7234
   -20.7230 -20.7227 -20.7223 -20.7222 -20.7218 -20.7217 -20.7215 -20.7212
   -20.7209 -20.7207 -20.7203 -20.7197 -20.7196 -20.7190 -20.7179 -20.7176
   -20.7172 -20.7169 -20.7168 -20.7165 -20.7156 -20.7151 -20.7149 -20.7148
   -20.7145 -20.7135 -20.7133 -20.7130 -20.7130 -20.7121 -20.7116 -20.7105
   -20.7091 -20.7087 -20.7085 -20.7081 -20.7076 -20.7075 -20.7066 -20.7055
   -10.2531  -9.9591  -9.9334  -9.8904  -9.6537  -9.5952  -9.5615  -9.3822
    -9.3526  -9.3447  -9.3331  -9.3067  -8.2234  -8.1820  -8.1709  -8.1460
    -8.1123  -8.0927  -8.0851  -8.0705  -8.0394  -8.0377  -8.0364  -7.9917
     0.7626   0.7673   0.8018   0.8524   0.8814   0.8991   0.9617   1.0897
     1.1063   1.2368   1.2470   1.4400   2.2081   2.2546   2.2977   2.3040
     2.3619   2.4091   3.8965   3.9703   4.0315   4.0364   4.0951   4.1444
     4.1696   4.2540   4.3252   4.3459   4.3566   4.4299   4.7895   4.7947
     4.9379   4.9839   5.0801   5.1739   5.2229   5.2888   5.3125   5.3262
     5.3876   5.3933   5.6104   5.6499   5.6949   5.7045   5.7525   5.8983
     5.9843   6.0596   6.1763   6.2556   6.3238   6.4757   6.4814   6.5006
     6.5185   6.5633   6.6035   6.6311   6.6507   6.6897   6.7038   6.7142
     6.7501   6.7680   7.7803   7.7959   7.8050   7.8139   7.8169   7.8317
     9.0313   9.0513   9.1425   9.1491   9.3607   9.4087  11.9978  12.0403
    12.0856  12.1223  12.2143  12.2187  12.2610  12.2744  12.2850  12.3887
    12.4120  12.5642  13.2180  13.2905  13.4819  13.4934  13.5588  13.5744
    14.0740  14.1796  14.2284  14.5014  14.5341  14.6185  15.3244  15.4829
    15.8874  16.4543  16.7976  16.8592  16.9532

          k = 0.0000 0.0000 0.3331 ( 63840 PWs)   bands (ev):

   -66.5811 -66.5808 -66.5804 -66.5801 -66.5801 -66.5797 -66.5794 -66.5791
   -30.9438 -30.9414 -30.9378 -30.9353 -30.9253 -30.9229 -30.9104 -30.9079
   -30.9051 -30.9009 -30.8899 -30.8858 -30.8681 -30.8658 -30.8629 -30.8626
   -30.8561 -30.8537 -30.8475 -30.8439 -30.8381 -30.8349 -30.8236 -30.8215
   -20.7492 -20.7491 -20.7491 -20.7490 -20.7483 -20.7482 -20.7482 -20.7481
   -20.7256 -20.7254 -20.7248 -20.7245 -20.7244 -20.7242 -20.7238 -20.7236
   -20.7229 -20.7225 -20.7225 -20.7220 -20.7219 -20.7216 -20.7216 -20.7211
   -20.7211 -20.7208 -20.7201 -20.7197 -20.7195 -20.7191 -20.7177 -20.7175
   -20.7173 -20.7170 -20.7168 -20.7166 -20.7154 -20.7150 -20.7142 -20.7139
   -20.7137 -20.7136 -20.7126 -20.7125 -20.7124 -20.7121 -20.7113 -20.7107
   -20.7104 -20.7098 -20.7093 -20.7088 -20.7085 -20.7078 -20.7064 -20.7058
   -10.1567  -9.9949  -9.8220  -9.7691  -9.6790  -9.6193  -9.3675  -9.3504
    -9.3056  -9.2019  -9.1776  -9.1651  -8.5426  -8.5088  -8.5055  -8.4769
    -8.1248  -8.1016  -8.0751  -8.0669  -8.0471  -8.0455  -8.0295  -8.0019
     0.7667   0.7672   0.8504   0.8551   0.9413   0.9580   1.0417   1.0858
     1.8453   1.9248   1.9553   2.0566   2.2278   2.2853   2.4945   2.5341
     2.6025   2.6373   3.3967   3.4813   3.5074   3.6022   3.7754   4.0012
     4.1110   4.1642   4.1786   4.2803   4.3067   4.3599   4.5330   4.5770
     4.6046   4.6804   4.7378   4.8762   5.0335   5.0942   5.3589   5.4338
     5.4699   5.5196   5.6218   5.6722   5.7350   5.7879   5.8091   5.9050
     5.9549   5.9962   6.0654   6.0874   6.1637   6.1896   6.2901   6.4048
     6.4690   6.5881   6.6742   6.6860   6.7326   6.7630   6.7722   6.7997
     6.8528   6.9050   7.5819   7.6175   7.6273   7.6410   7.8283   7.8284
     9.0412   9.0677   9.8886   9.9069  10.0938  10.1242  11.4878  11.5234
    11.6835  11.7278  12.2149  12.2406  12.2576  12.3826  12.3936  12.4359
    12.4771  12.6178  13.0358  13.0558  13.1823  13.2222  13.4799  13.4988
    14.1397  14.1731  14.6715  14.8200  14.9050  15.2253  15.3364  15.3955
    15.8731  16.9334  16.9795  17.0519  17.4494

          k = 0.0000 0.0000-0.4997 ( 63842 PWs)   bands (ev):

   -66.5809 -66.5809 -66.5802 -66.5802 -66.5799 -66.5799 -66.5792 -66.5792
   -30.9426 -30.9426 -30.9365 -30.9365 -30.9241 -30.9241 -30.9091 -30.9091
   -30.8849 -30.8849 -30.8809 -30.8809 -30.8691 -30.8691 -30.8656 -30.8656
   -30.8606 -30.8605 -30.8600 -30.8600 -30.8369 -30.8369 -30.8225 -30.8225
   -20.7492 -20.7491 -20.7491 -20.7490 -20.7483 -20.7482 -20.7482 -20.7481
   -20.7255 -20.7255 -20.7247 -20.7246 -20.7241 -20.7241 -20.7239 -20.7239
   -20.7227 -20.7227 -20.7222 -20.7222 -20.7217 -20.7217 -20.7213 -20.7213
   -20.7209 -20.7209 -20.7199 -20.7199 -20.7193 -20.7193 -20.7176 -20.7175
   -20.7173 -20.7172 -20.7167 -20.7167 -20.7152 -20.7151 -20.7138 -20.7138
   -20.7130 -20.7129 -20.7122 -20.7122 -20.7114 -20.7114 -20.7112 -20.7112
   -20.7108 -20.7108 -20.7105 -20.7105 -20.7082 -20.7081 -20.7061 -20.7061
   -10.0608 -10.0608  -9.7302  -9.7302  -9.6709  -9.6709  -9.3585  -9.3585
    -8.9289  -8.9289  -8.9092  -8.9092  -8.8827  -8.8827  -8.8712  -8.8712
    -8.1136  -8.1136  -8.0611  -8.0611  -8.0564  -8.0564  -8.0157  -8.0157
     0.7668   0.7668   0.8570   0.8570   0.9530   0.9530   1.0763   1.0763
     2.2538   2.2538   2.7642   2.7642   2.7856   2.7856   2.8437   2.8437
     2.8938   2.8938   2.9225   2.9225   3.1042   3.1042   3.2997   3.2997
     3.3185   3.3185   4.1574   4.1574   4.2793   4.2793   4.6256   4.6256
     4.7444   4.7444   4.8094   4.8094   4.8716   4.8716   5.5069   5.5069
     5.5757   5.5757   5.6221   5.6221   5.6899   5.6899   5.8646   5.8646
     5.8905   5.8905   5.9061   5.9061   6.1506   6.1506   6.2021   6.2021
     6.4999   6.4999   6.6809   6.6809   6.7548   6.7549   7.2362   7.2362
     7.2742   7.2742   7.3081   7.3081   7.3217   7.3217   7.8301   7.8301
     9.0547   9.0547  10.7326  10.7326  10.7592  10.7592  10.9328  10.9328
    10.9571  10.9571  12.2171  12.2172  12.3663  12.3663  12.6808  12.6808
    12.7218  12.7219  12.8009  12.8009  12.8289  12.8290  13.4808  13.4808
    14.1616  14.1616  15.0245  15.0245  15.2138  15.2138  15.3031  15.3031
    16.2583  16.2583  17.4189  17.4190  17.5579

          k = 0.0000 0.1642 0.0000 ( 63800 PWs)   bands (ev):

   -66.5812 -66.5806 -66.5805 -66.5803 -66.5799 -66.5796 -66.5796 -66.5789
   -30.9414 -30.9361 -30.9348 -30.9293 -30.9279 -30.9237 -30.9210 -30.9207
   -30.9115 -30.9103 -30.9068 -30.9067 -30.8693 -30.8687 -30.8675 -30.8663
   -30.8393 -30.8388 -30.8369 -30.8348 -30.8258 -30.8247 -30.8214 -30.8203
   -20.7492 -20.7491 -20.7491 -20.7490 -20.7483 -20.7482 -20.7482 -20.7481
   -20.7255 -20.7251 -20.7247 -20.7244 -20.7242 -20.7241 -20.7234 -20.7232
   -20.7230 -20.7227 -20.7222 -20.7222 -20.7218 -20.7216 -20.7214 -20.7213
   -20.7208 -20.7208 -20.7205 -20.7198 -20.7196 -20.7190 -20.7181 -20.7180
   -20.7173 -20.7172 -20.7171 -20.7169 -20.7157 -20.7156 -20.7152 -20.7149
   -20.7148 -20.7136 -20.7135 -20.7133 -20.7131 -20.7120 -20.7117 -20.7104
   -20.7088 -20.7086 -20.7080 -20.7076 -20.7075 -20.7070 -20.7067 -20.7055
   -10.2590  -9.9954  -9.9035  -9.9018  -9.6578  -9.6528  -9.5032  -9.4086
    -9.3890  -9.3125  -9.3014  -9.3008  -8.2554  -8.2081  -8.2042  -8.1645
    -8.0936  -8.0890  -8.0466  -8.0408  -8.0349  -8.0303  -7.9900  -7.9866
     0.7081   0.7172   0.8022   0.8150   0.8372   0.8545   0.9171   1.0571
     1.2113   1.2997   1.3096   1.4714   2.1792   2.2630   2.2835   2.2994
     2.3880   2.4065   3.8429   3.8438   3.8730   3.8745   4.2619   4.2720
     4.3083   4.3162   4.3312   4.4077   4.4123   4.4325   4.6354   4.9035
     4.9225   4.9521   4.9933   5.2788   5.2836   5.2863   5.2902   5.3134
     5.4200   5.4675   5.4946   5.7365   5.7451   5.7973   5.8383   5.8569
     5.8634   6.0338   6.0598   6.1018   6.1334   6.4248   6.5137   6.5396
     6.5398   6.6307   6.6382   6.6489   6.6531   6.6847   6.8049   6.8112
     6.8538   6.8608   7.7570   7.7584   7.7943   7.7977   7.8548   7.8607
     8.7490   8.7886   9.3008   9.3126   9.3595   9.3736  11.9173  11.9624
    12.0070  12.0352  12.1708  12.1754  12.2291  12.2316  12.4219  12.5192
    12.5677  12.5967  13.1957  13.3135  13.4601  13.5143  13.5743  13.5884
    14.2198  14.2694  14.3527  14.3930  14.4055  14.5909  15.4468  15.4796
    15.7810  16.3502  16.7901  16.9308  16.9568

          k = 0.0000 0.1642 0.1666 ( 63841 PWs)   bands (ev):

   -66.5812 -66.5806 -66.5805 -66.5802 -66.5799 -66.5796 -66.5795 -66.5790
   -30.9408 -30.9364 -30.9342 -30.9296 -30.9262 -30.9213 -30.9196 -30.9156
   -30.9108 -30.9070 -30.9051 -30.9012 -30.8690 -30.8684 -30.8681 -30.8668
   -30.8443 -30.8409 -30.8390 -30.8371 -30.8313 -30.8265 -30.8244 -30.8208
   -20.7492 -20.7491 -20.7491 -20.7490 -20.7483 -20.7482 -20.7482 -20.7481
   -20.7254 -20.7251 -20.7247 -20.7244 -20.7242 -20.7242 -20.7235 -20.7232
   -20.7230 -20.7227 -20.7223 -20.7221 -20.7217 -20.7217 -20.7214 -20.7213
   -20.7209 -20.7208 -20.7204 -20.7197 -20.7196 -20.7190 -20.7180 -20.7179
   -20.7173 -20.7172 -20.7171 -20.7170 -20.7156 -20.7151 -20.7150 -20.7148
   -20.7145 -20.7136 -20.7133 -20.7131 -20.7130 -20.7121 -20.7116 -20.7105
   -20.7091 -20.7087 -20.7085 -20.7081 -20.7076 -20.7075 -20.7066 -20.7055
   -10.2159  -9.9443  -9.9147  -9.8407  -9.6607  -9.5681  -9.5105  -9.3729
    -9.3490  -9.3030  -9.2969  -9.2705  -8.2609  -8.2255  -8.2115  -8.2062
    -8.1800  -8.1620  -8.1598  -8.1140  -8.0872  -8.0417  -8.0387  -7.9938
     0.7877   0.8077   0.8155   0.8557   1.0193   1.0419   1.1085   1.2124
     1.2471   1.3082   1.3611   1.5475   2.2617   2.2852   2.3511   2.3790
     2.3844   2.4878   3.8240   3.8545   3.8648   3.9032   3.9911   4.0271
     4.1360   4.1667   4.3238   4.3355   4.3749   4.4143   4.6207   4.7349
     4.8935   4.9171   4.9911   5.0025   5.0355   5.2424   5.2876   5.3166
     5.3708   5.5081   5.5772   5.6853   5.7403   5.7624   5.7860   5.8911
     5.9702   6.0484   6.1278   6.2433   6.3248   6.3584   6.4411   6.5019
     6.5428   6.5745   6.6142   6.6156   6.6330   6.6425   6.6683   6.6764
     6.6957   6.7302   7.7397   7.7455   7.7566   7.7630   7.7998   7.8115
     9.1098   9.1472   9.3203   9.3721   9.5672   9.6191  11.9432  11.9748
    12.0055  12.0312  12.0576  12.0747  12.2247  12.2799  12.3206  12.4025
    12.4374  12.5712  13.2102  13.2761  13.4122  13.4519  13.4601  13.5313
    14.2905  14.3456  14.5061  14.5392  14.5869  14.7066  15.4533  15.7511
    15.8597  16.5000  16.5941  16.8730  17.0962

          k = 0.0000 0.1642 0.3331 ( 63833 PWs)   bands (ev):

   -66.5811 -66.5807 -66.5804 -66.5801 -66.5800 -66.5798 -66.5794 -66.5791
   -30.9397 -30.9372 -30.9330 -30.9305 -30.9247 -30.9222 -30.9104 -30.9079
   -30.9050 -30.9009 -30.8900 -30.8859 -30.8712 -30.8694 -30.8676 -30.8672
   -30.8578 -30.8548 -30.8476 -30.8440 -30.8382 -30.8350 -30.8237 -30.8216
   -20.7492 -20.7491 -20.7491 -20.7490 -20.7483 -20.7482 -20.7482 -20.7481
   -20.7254 -20.7252 -20.7246 -20.7243 -20.7242 -20.7240 -20.7237 -20.7234
   -20.7229 -20.7225 -20.7224 -20.7219 -20.7219 -20.7215 -20.7215 -20.7211
   -20.7211 -20.7208 -20.7202 -20.7198 -20.7195 -20.7191 -20.7179 -20.7178
   -20.7174 -20.7174 -20.7171 -20.7170 -20.7154 -20.7150 -20.7142 -20.7139
   -20.7138 -20.7137 -20.7126 -20.7125 -20.7124 -20.7121 -20.7113 -20.7107
   -20.7104 -20.7098 -20.7093 -20.7088 -20.7085 -20.7078 -20.7064 -20.7058
   -10.1158  -9.9506  -9.8322  -9.7026  -9.6865  -9.5352  -9.3320  -9.3123
    -9.3092  -9.2014  -9.1689  -9.1458  -8.5433  -8.5128  -8.5095  -8.4805
    -8.2362  -8.2149  -8.1893  -8.1677  -8.0779  -8.0493  -8.0317  -8.0040
     0.8164   0.8169   0.8549   0.8586   1.1892   1.2039   1.2560   1.3045
     1.8458   1.9314   1.9552   2.0707   2.3052   2.3605   2.5029   2.5952
     2.6187   2.7156   3.4015   3.5008   3.5306   3.6662   3.7275   3.8865
     3.8964   3.9403   4.1607   4.2581   4.2978   4.3539   4.3706   4.4788
     4.5575   4.5726   4.6499   4.7762   4.8503   5.0392   5.1123   5.3413
     5.3874   5.4551   5.5491   5.6983   5.7389   5.7579   5.7960   5.8764
     5.9385   6.0241   6.0867   6.1595   6.2058   6.3241   6.3985   6.4822
     6.5188   6.5498   6.5843   6.6089   6.6377   6.6730   6.7896   6.8127
     6.8774   6.9132   7.5668   7.5885   7.6107   7.6218   7.7663   7.7730
     9.3232   9.3526   9.8928   9.9122  10.2178  10.2548  11.4882  11.5251
    11.7194  11.7810  12.0322  12.0797  12.1671  12.2686  12.3864  12.4340
    12.4575  12.6004  12.9878  13.0423  13.0563  13.1441  13.4562  13.4745
    14.3172  14.3415  14.8840  14.9759  15.0361  15.3679  15.4032  15.6500
    16.0063  16.8980  16.9094  17.0710  17.1185

          k = 0.0000 0.1642-0.4997 ( 63862 PWs)   bands (ev):

   -66.5809 -66.5809 -66.5802 -66.5802 -66.5800 -66.5799 -66.5793 -66.5792
   -30.9385 -30.9384 -30.9317 -30.9317 -30.9234 -30.9234 -30.9091 -30.9090
   -30.8853 -30.8852 -30.8814 -30.8814 -30.8697 -30.8697 -30.8671 -30.8671
   -30.8644 -30.8644 -30.8628 -30.8628 -30.8370 -30.8370 -30.8227 -30.8227
   -20.7492 -20.7491 -20.7491 -20.7490 -20.7483 -20.7482 -20.7482 -20.7481
   -20.7253 -20.7253 -20.7244 -20.7244 -20.7240 -20.7239 -20.7237 -20.7237
   -20.7227 -20.7226 -20.7222 -20.7222 -20.7217 -20.7216 -20.7213 -20.7213
   -20.7210 -20.7210 -20.7199 -20.7199 -20.7193 -20.7193 -20.7177 -20.7176
   -20.7176 -20.7176 -20.7171 -20.7170 -20.7152 -20.7152 -20.7139 -20.7139
   -20.7130 -20.7129 -20.7122 -20.7122 -20.7114 -20.7114 -20.7112 -20.7112
   -20.7108 -20.7108 -20.7105 -20.7105 -20.7082 -20.7081 -20.7061 -20.7061
   -10.0172 -10.0172  -9.7390  -9.7390  -9.5908  -9.5908  -9.3184  -9.3183
    -8.9351  -8.9351  -8.9104  -8.9104  -8.8818  -8.8817  -8.8662  -8.8662
    -8.2267  -8.2266  -8.1795  -8.1795  -8.0637  -8.0637  -8.0179  -8.0179
     0.8185   0.8185   0.8608   0.8609   1.2053   1.2053   1.2954   1.2954
     2.3299   2.3299   2.7746   2.7746   2.8136   2.8136   2.8431   2.8431
     2.9023   2.9023   2.9379   2.9379   3.1002   3.1002   3.3402   3.3402
     3.3695   3.3695   3.9093   3.9093   4.2369   4.2369   4.4403   4.4403
     4.5825   4.5825   4.7253   4.7253   4.8780   4.8780   5.1751   5.1751
     5.4164   5.4164   5.5535   5.5535   5.7863   5.7863   5.8716   5.8716
     5.9511   5.9511   5.9820   5.9820   6.1942   6.1942   6.3868   6.3868
     6.5671   6.5671   6.5880   6.5880   6.6306   6.6306   7.2464   7.2464
     7.2680   7.2680   7.2958   7.2958   7.3089   7.3089   7.7701   7.7701
     9.3393   9.3394  10.7346  10.7346  10.7622  10.7622  11.0104  11.0104
    11.0373  11.0373  12.0347  12.0348  12.3828  12.3828  12.5880  12.5880
    12.6616  12.6616  12.7185  12.7186  12.7876  12.7876  13.4575  13.4576
    14.3314  14.3314  15.1937  15.1937  15.4065  15.4065  15.4669  15.4669
    16.3460  16.3460  17.3031  17.3032  17.4478

          k = 0.0000 0.3284 0.0000 ( 63842 PWs)   bands (ev):

   -66.5812 -66.5805 -66.5805 -66.5803 -66.5798 -66.5796 -66.5796 -66.5789
   -30.9336 -30.9282 -30.9281 -30.9259 -30.9192 -30.9164 -30.9162 -30.9159
   -30.9118 -30.9090 -30.9069 -30.9061 -30.8827 -30.8818 -30.8805 -30.8792
   -30.8395 -30.8390 -30.8367 -30.8352 -30.8259 -30.8250 -30.8213 -30.8207
   -20.7492 -20.7491 -20.7491 -20.7490 -20.7483 -20.7482 -20.7482 -20.7481
   -20.7252 -20.7247 -20.7245 -20.7239 -20.7238 -20.7235 -20.7231 -20.7229
   -20.7225 -20.7225 -20.7220 -20.7220 -20.7217 -20.7215 -20.7215 -20.7211
   -20.7210 -20.7207 -20.7206 -20.7199 -20.7198 -20.7190 -20.7189 -20.7188
   -20.7181 -20.7180 -20.7176 -20.7172 -20.7158 -20.7156 -20.7152 -20.7150
   -20.7149 -20.7136 -20.7135 -20.7134 -20.7131 -20.7120 -20.7117 -20.7104
   -20.7088 -20.7086 -20.7080 -20.7076 -20.7075 -20.7070 -20.7067 -20.7055
   -10.1755 -10.0294  -9.8085  -9.8077  -9.6789  -9.6748  -9.4042  -9.3925
    -9.2622  -9.1520  -9.1511  -9.1509  -8.5482  -8.5137  -8.5104  -8.4902
    -8.0903  -8.0853  -8.0509  -8.0466  -8.0313  -8.0267  -7.9948  -7.9913
     0.7099   0.7152   0.8210   0.8371   0.8450   0.8621   1.0241   1.0563
     1.8935   1.9956   2.0093   2.1249   2.1984   2.2505   2.5062   2.5400
     2.6120   2.6413   3.3354   3.3678   3.3978   3.4345   3.8241   4.1047
     4.1276   4.2690   4.2787   4.3013   4.3087   4.3628   4.5426   4.5699
     4.6177   4.6424   4.8544   4.8590   5.1399   5.1453   5.3431   5.3489
     5.5788   5.6692   5.6761   5.7320   5.7379   5.7620   5.7709   5.8458
     5.8565   5.9536   5.9994   6.1099   6.1273   6.1711   6.4063   6.4338
     6.4899   6.6316   6.7641   6.7703   6.8117   6.8158   6.8363   6.8382
     6.8556   6.8620   7.5620   7.5692   7.5841   7.5921   7.8559   7.8595
     8.7606   8.7831   9.9471   9.9804  10.0043  10.0327  11.4324  11.4788
    11.4928  11.5272  12.1768  12.1796  12.2333  12.2348  12.5659  12.6634
    12.6820  12.7167  13.0700  13.2272  13.2343  13.2876  13.3639  13.4315
    14.3875  14.3955  14.7107  14.7701  14.8041  15.2569  15.3541  15.3811
    15.7781  16.8404  16.9015  17.4942  17.5186

          k = 0.0000 0.3284 0.1666 ( 63822 PWs)   bands (ev):

   -66.5812 -66.5806 -66.5805 -66.5803 -66.5799 -66.5797 -66.5796 -66.5790
   -30.9328 -30.9285 -30.9248 -30.9231 -30.9171 -30.9167 -30.9161 -30.9134
   -30.9101 -30.9064 -30.9049 -30.9012 -30.8823 -30.8815 -30.8808 -30.8796
   -30.8446 -30.8410 -30.8392 -30.8373 -30.8314 -30.8265 -30.8247 -30.8211
   -20.7492 -20.7491 -20.7491 -20.7490 -20.7483 -20.7482 -20.7482 -20.7481
   -20.7251 -20.7247 -20.7245 -20.7239 -20.7238 -20.7234 -20.7231 -20.7229
   -20.7225 -20.7225 -20.7221 -20.7219 -20.7217 -20.7216 -20.7214 -20.7211
   -20.7210 -20.7207 -20.7206 -20.7198 -20.7197 -20.7190 -20.7188 -20.7187
   -20.7181 -20.7180 -20.7175 -20.7172 -20.7157 -20.7152 -20.7150 -20.7148
   -20.7146 -20.7137 -20.7133 -20.7131 -20.7130 -20.7121 -20.7116 -20.7105
   -20.7091 -20.7087 -20.7085 -20.7081 -20.7076 -20.7075 -20.7066 -20.7056
   -10.1288  -9.9784  -9.8185  -9.7325  -9.6833  -9.5899  -9.3651  -9.3518
    -9.2695  -9.1549  -9.1433  -9.1347  -8.5482  -8.5203  -8.5079  -8.4967
    -8.2137  -8.1767  -8.1611  -8.1265  -8.0833  -8.0469  -8.0352  -7.9985
     0.7928   0.8120   0.8378   0.8634   1.0910   1.1170   1.2026   1.2473
     1.8952   1.9940   2.0087   2.1304   2.2809   2.3317   2.5158   2.6062
     2.6243   2.7256   3.3647   3.3869   3.4278   3.4542   3.8137   3.9805
     4.0135   4.1004   4.1348   4.2410   4.3502   4.3520   4.3617   4.3802
     4.5643   4.6372   4.6716   4.8396   4.8953   5.0443   5.1550   5.3100
     5.3735   5.4545   5.5734   5.6963   5.7408   5.7573   5.7782   5.8570
     5.9203   6.0819   6.1135   6.1522   6.2404   6.3806   6.4013   6.5560
     6.5648   6.6048   6.6172   6.6324   6.6687   6.6850   6.7858   6.8042
     6.8416   6.8663   7.5512   7.5564   7.5631   7.5665   7.8012   7.8071
     9.1231   9.1442   9.9859  10.0285  10.1188  10.1734  11.4794  11.5082
    11.5234  11.5733  12.0070  12.0557  12.2299  12.2839  12.4695  12.5164
    12.5861  12.6809  13.0619  13.1033  13.1267  13.2314  13.3443  13.4044
    14.4886  14.5239  14.7902  14.9007  15.1043  15.3411  15.3561  15.7621
    15.9238  16.8058  16.9726  17.0115  17.0904

          k = 0.0000 0.3284 0.3331 ( 63865 PWs)   bands (ev):

   -66.5810 -66.5807 -66.5803 -66.5802 -66.5800 -66.5798 -66.5795 -66.5791
   -30.9317 -30.9293 -30.9209 -30.9202 -30.9176 -30.9171 -30.9101 -30.9073
   -30.9045 -30.9008 -30.8903 -30.8865 -30.8826 -30.8813 -30.8797 -30.8796
   -30.8596 -30.8559 -30.8477 -30.8442 -30.8384 -30.8351 -30.8239 -30.8219
   -20.7492 -20.7491 -20.7491 -20.7490 -20.7483 -20.7482 -20.7482 -20.7481
   -20.7250 -20.7248 -20.7244 -20.7240 -20.7237 -20.7233 -20.7232 -20.7228
   -20.7226 -20.7224 -20.7223 -20.7218 -20.7217 -20.7216 -20.7212 -20.7212
   -20.7212 -20.7208 -20.7203 -20.7199 -20.7196 -20.7192 -20.7187 -20.7185
   -20.7183 -20.7181 -20.7175 -20.7173 -20.7155 -20.7151 -20.7144 -20.7139
   -20.7138 -20.7138 -20.7126 -20.7125 -20.7124 -20.7121 -20.7113 -20.7107
   -20.7104 -20.7098 -20.7093 -20.7088 -20.7085 -20.7078 -20.7064 -20.7058
   -10.0211  -9.8651  -9.8528  -9.7112  -9.5420  -9.3369  -9.2967  -9.2540
    -9.2048  -9.1641  -9.0950  -9.0620  -8.6095  -8.5897  -8.5223  -8.5182
    -8.5002  -8.4834  -8.4469  -8.4051  -8.0742  -8.0457  -8.0369  -8.0089
     0.8350   0.8396   0.8629   0.8665   1.7290   1.7789   1.8463   1.9021
     1.9515   2.0073   2.0835   2.2488   2.5205   2.5274   2.5498   2.6182
     2.8658   2.9484   3.3257   3.4028   3.4675   3.4926   3.5005   3.5442
     3.7499   3.7752   3.8746   3.9926   4.0501   4.1638   4.2257   4.2956
     4.3851   4.4380   4.5160   4.5750   4.5884   4.7238   4.8006   4.9107
     5.0030   5.1776   5.2245   5.5892   5.8091   5.8476   5.8532   5.9677
     6.0313   6.0581   6.1542   6.2206   6.2650   6.3606   6.3892   6.4056
     6.5358   6.7039   6.7326   6.7365   6.7486   6.8198   6.8409   6.8692
     6.9280   6.9842   7.4374   7.4446   7.5219   7.5732   7.6215   7.6568
     9.8572   9.9051  10.0106  10.0398  10.5959  10.6434  11.4536  11.4858
    11.5120  11.5679  11.7560  11.8159  11.9591  12.0050  12.3908  12.4426
    12.5717  12.6753  12.6897  12.7294  13.0165  13.1177  13.2258  13.2784
    14.6309  14.7681  14.8616  15.2797  15.4277  15.7847  15.8242  16.3476
    16.3965  16.6930  16.7767  17.2667  17.3048

          k = 0.0000 0.3284-0.4997 ( 63858 PWs)   bands (ev):

   -66.5809 -66.5809 -66.5802 -66.5802 -66.5800 -66.5800 -66.5793 -66.5793
   -30.9305 -30.9305 -30.9192 -30.9192 -30.9183 -30.9182 -30.9085 -30.9085
   -30.8884 -30.8883 -30.8858 -30.8858 -30.8763 -30.8763 -30.8738 -30.8738
   -30.8683 -30.8683 -30.8644 -30.8643 -30.8372 -30.8372 -30.8229 -30.8229
   -20.7492 -20.7491 -20.7491 -20.7490 -20.7483 -20.7482 -20.7482 -20.7481
   -20.7249 -20.7249 -20.7242 -20.7242 -20.7235 -20.7234 -20.7230 -20.7230
   -20.7225 -20.7225 -20.7221 -20.7221 -20.7215 -20.7214 -20.7214 -20.7214
   -20.7210 -20.7210 -20.7201 -20.7201 -20.7193 -20.7193 -20.7185 -20.7185
   -20.7183 -20.7183 -20.7174 -20.7174 -20.7153 -20.7153 -20.7140 -20.7140
   -20.7130 -20.7129 -20.7122 -20.7122 -20.7115 -20.7114 -20.7112 -20.7112
   -20.7109 -20.7108 -20.7106 -20.7105 -20.7082 -20.7081 -20.7061 -20.7061
    -9.9187  -9.9187  -9.7675  -9.7675  -9.3700  -9.3700  -9.1841  -9.1841
    -8.9666  -8.9666  -8.9214  -8.9214  -8.8705  -8.8704  -8.8433  -8.8433
    -8.5123  -8.5123  -8.4778  -8.4778  -8.0600  -8.0600  -8.0229  -8.0229
     0.8408   0.8408   0.8689   0.8689   1.8911   1.8912   1.9895   1.9895
     2.5490   2.5490   2.8077   2.8077   2.8224   2.8224   2.8576   2.8576
     2.8996   2.8996   3.0051   3.0051   3.0891   3.0891   3.3934   3.3934
     3.5207   3.5207   3.5702   3.5702   3.7476   3.7476   3.9588   3.9588
     4.4549   4.4549   4.5464   4.5464   4.6372   4.6372   4.7028   4.7028
     4.9430   4.9430   5.3772   5.3772   5.8963   5.8963   5.9170   5.9171
     6.0681   6.0681   6.0965   6.0965   6.1819   6.1819   6.3676   6.3676
     6.7064   6.7064   6.7644   6.7644   6.8389   6.8389   7.2012   7.2012
     7.2309   7.2309   7.2438   7.2438   7.3114   7.3114   7.5864   7.5864
     9.9994   9.9994  10.7364  10.7364  10.7667  10.7667  11.2482  11.2483
    11.2912  11.2912  11.5481  11.5481  12.1577  12.1577  12.2179  12.2179
    12.5874  12.5874  12.7139  12.7140  12.8053  12.8053  13.2345  13.2345
    14.7199  14.7199  15.1288  15.1288  15.8684  15.8684  16.4067  16.4068
    16.6839  16.6839  16.8447  16.8448  17.5228

          k = 0.0000-0.4926 0.0000 ( 63810 PWs)   bands (ev):

   -66.5812 -66.5805 -66.5805 -66.5803 -66.5798 -66.5797 -66.5797 -66.5790
   -30.9306 -30.9284 -30.9259 -30.9238 -30.9142 -30.9124 -30.9103 -30.9077
   -30.9011 -30.9005 -30.8992 -30.8982 -30.8976 -30.8972 -30.8972 -30.8970
   -30.8395 -30.8390 -30.8366 -30.8353 -30.8260 -30.8251 -30.8213 -30.8209
   -20.7492 -20.7491 -20.7491 -20.7490 -20.7483 -20.7482 -20.7482 -20.7481
   -20.7251 -20.7245 -20.7245 -20.7237 -20.7236 -20.7231 -20.7229 -20.7224
   -20.7224 -20.7221 -20.7219 -20.7217 -20.7215 -20.7215 -20.7214 -20.7211
   -20.7208 -20.7208 -20.7205 -20.7201 -20.7198 -20.7196 -20.7193 -20.7193
   -20.7188 -20.7186 -20.7176 -20.7172 -20.7158 -20.7156 -20.7152 -20.7150
   -20.7150 -20.7137 -20.7135 -20.7135 -20.7132 -20.7120 -20.7117 -20.7104
   -20.7088 -20.7086 -20.7080 -20.7076 -20.7075 -20.7070 -20.7067 -20.7055
   -10.0902 -10.0901  -9.7439  -9.7415  -9.7093  -9.7065  -9.3985  -9.3981
    -8.9115  -8.9111  -8.8719  -8.8693  -8.8690  -8.8674  -8.8671  -8.8667
    -8.0867  -8.0839  -8.0527  -8.0505  -8.0287  -8.0244  -7.9976  -7.9939
     0.7119   0.7130   0.8236   0.8401   0.8476   0.8648   1.0493   1.0513
     2.2239   2.2242   2.7628   2.7636   2.8303   2.8437   2.8874   2.8876
     2.9157   2.9162   2.9185   2.9396   3.0802   3.1021   3.1590   3.1703
     3.2501   3.2510   4.2818   4.2856   4.2902   4.2912   4.7045   4.7246
     4.7276   4.7461   4.8775   4.8792   4.8952   4.8969   5.4831   5.4916
     5.4930   5.5021   5.7320   5.7349   5.7603   5.7608   5.8007   5.8161
     5.8475   5.8754   5.9047   5.9195   6.2094   6.2302   6.2510   6.2731
     6.5587   6.5599   6.8032   6.8094   6.8531   6.8595   7.2070   7.2114
     7.2200   7.2206   7.2323   7.2459   7.2459   7.2541   7.8574   7.8580
     8.7721   8.7735  10.7010  10.7379  10.7480  10.7488  10.7809  10.7830
    10.8055  10.8361  12.1792  12.1813  12.2348  12.2362  12.7952  12.8071
    12.9173  12.9199  12.9273  12.9319  12.9597  12.9669  13.3643  13.3677
    14.3904  14.3905  15.1237  15.1499  15.1773  15.2013  15.2063  15.2073
    16.1863  16.1867  17.3813  17.3814  17.6676

          k = 0.0000-0.4926 0.1666 ( 63872 PWs)   bands (ev):

   -66.5811 -66.5806 -66.5804 -66.5803 -66.5799 -66.5797 -66.5796 -66.5790
   -30.9302 -30.9262 -30.9234 -30.9189 -30.9136 -30.9106 -30.9078 -30.9041
   -30.8998 -30.8989 -30.8985 -30.8982 -30.8975 -30.8973 -30.8970 -30.8970
   -30.8447 -30.8410 -30.8392 -30.8374 -30.8315 -30.8266 -30.8248 -30.8212
   -20.7492 -20.7491 -20.7491 -20.7490 -20.7483 -20.7482 -20.7482 -20.7481
   -20.7250 -20.7246 -20.7245 -20.7238 -20.7235 -20.7231 -20.7229 -20.7224
   -20.7224 -20.7220 -20.7220 -20.7217 -20.7216 -20.7215 -20.7213 -20.7211
   -20.7208 -20.7206 -20.7205 -20.7200 -20.7198 -20.7195 -20.7193 -20.7192
   -20.7189 -20.7186 -20.7176 -20.7173 -20.7157 -20.7152 -20.7151 -20.7148
   -20.7147 -20.7137 -20.7133 -20.7131 -20.7130 -20.7121 -20.7116 -20.7105
   -20.7091 -20.7087 -20.7085 -20.7080 -20.7076 -20.7075 -20.7066 -20.7056
   -10.0427 -10.0381  -9.7508  -9.7162  -9.6575  -9.6236  -9.3598  -9.3563
    -8.9173  -8.9168  -8.8767  -8.8737  -8.8659  -8.8653  -8.8630  -8.8605
    -8.2114  -8.1799  -8.1589  -8.1296  -8.0805  -8.0501  -8.0325  -8.0015
     0.7935   0.8124   0.8408   0.8660   1.0969   1.1212   1.2309   1.2466
     2.3059   2.3061   2.7659   2.7767   2.8316   2.8527   2.8690   2.9091
     2.9164   2.9315   2.9402   2.9940   3.0778   3.1541   3.1601   3.2156
     3.2843   3.2903   3.9957   3.9978   4.3085   4.3396   4.4725   4.5221
     4.6317   4.6320   4.7142   4.7275   4.9015   4.9044   5.1679   5.1688
     5.4290   5.4295   5.4541   5.4654   5.7824   5.8093   5.8215   5.8642
     5.9857   5.9858   6.0705   6.1539   6.2047   6.2469   6.4558   6.4963
     6.5879   6.6042   6.6322   6.6598   6.6612   6.7009   7.1950   7.2035
     7.2193   7.2198   7.2250   7.2320   7.2449   7.2528   7.8034   7.8047
     9.1302   9.1391  10.7487  10.7825  10.7872  10.7984  10.8367  10.8493
    10.8711  10.9051  12.0077  12.0565  12.2328  12.2856  12.7234  12.7399
    12.7670  12.7771  12.8316  12.8517  12.9182  12.9244  13.3486  13.3504
    14.5050  14.5232  15.1282  15.1792  15.3580  15.3705  15.5190  15.5619
    16.2804  16.2829  17.3676  17.3759  17.4143

          k = 0.0000-0.4926 0.3331 ( 63858 PWs)   bands (ev):

   -66.5810 -66.5807 -66.5803 -66.5802 -66.5800 -66.5798 -66.5795 -66.5791
   -30.9294 -30.9270 -30.9149 -30.9115 -30.9090 -30.9077 -30.9024 -30.9015
   -30.8991 -30.8990 -30.8988 -30.8986 -30.8937 -30.8920 -30.8889 -30.8851
   -30.8600 -30.8562 -30.8478 -30.8443 -30.8384 -30.8352 -30.8240 -30.8220
   -20.7492 -20.7491 -20.7491 -20.7490 -20.7483 -20.7482 -20.7482 -20.7481
   -20.7249 -20.7247 -20.7243 -20.7239 -20.7234 -20.7230 -20.7229 -20.7224
   -20.7222 -20.7221 -20.7219 -20.7218 -20.7218 -20.7215 -20.7214 -20.7211
   -20.7210 -20.7206 -20.7203 -20.7200 -20.7197 -20.7194 -20.7194 -20.7191
   -20.7189 -20.7187 -20.7176 -20.7174 -20.7155 -20.7152 -20.7144 -20.7139
   -20.7138 -20.7138 -20.7126 -20.7125 -20.7124 -20.7121 -20.7113 -20.7107
   -20.7104 -20.7098 -20.7093 -20.7088 -20.7085 -20.7078 -20.7064 -20.7058
    -9.9359  -9.9194  -9.7808  -9.7481  -9.4169  -9.3860  -9.2244  -9.2118
    -8.9504  -8.9478  -8.8951  -8.8925  -8.8547  -8.8532  -8.8411  -8.8362
    -8.5224  -8.4921  -8.4820  -8.4526  -8.0713  -8.0430  -8.0401  -8.0119
     0.8373   0.8426   0.8652   0.8692   1.8278   1.8510   1.9251   1.9434
     2.5423   2.5440   2.7667   2.8021   2.8222   2.8715   2.8720   2.9009
     2.9164   2.9327   3.0185   3.0521   3.1010   3.1352   3.3379   3.3631
     3.4000   3.4114   3.4700   3.4800   3.9341   3.9345   4.0809   4.0948
     4.4034   4.4401   4.4743   4.5136   4.6420   4.6618   4.7063   4.7125
     4.9525   4.9648   5.3230   5.3420   5.8397   5.8558   5.8893   5.9699
     6.1006   6.1076   6.1222   6.1978   6.2199   6.2459   6.3443   6.4041
     6.6915   6.6926   6.7929   6.8299   6.8684   6.8967   7.1541   7.1567
     7.1815   7.1944   7.1962   7.2142   7.2498   7.2779   7.6270   7.6345
     9.8864   9.9068  10.7608  10.7748  10.7968  10.8105  11.1529  11.1757
    11.1975  11.2325  11.4991  11.5381  12.2658  12.2714  12.2986  12.3169
    12.4023  12.4466  12.8292  12.8437  12.9185  12.9197  13.1390  13.1451
    14.7680  14.8127  15.0726  15.1235  15.8329  15.8563  16.4576  16.4833
    16.6424  16.6501  16.8747  16.8793  17.5015

          k = 0.0000-0.4926-0.4997 ( 63892 PWs)   bands (ev):

   -66.5809 -66.5808 -66.5802 -66.5801 -66.5800 -66.5800 -66.5793 -66.5793
   -30.9282 -30.9282 -30.9128 -30.9128 -30.9017 -30.9017 -30.9016 -30.9016
   -30.9000 -30.9000 -30.8999 -30.8999 -30.8798 -30.8798 -30.8762 -30.8762
   -30.8686 -30.8686 -30.8646 -30.8645 -30.8372 -30.8372 -30.8230 -30.8230
   -20.7492 -20.7491 -20.7491 -20.7490 -20.7483 -20.7482 -20.7482 -20.7481
   -20.7248 -20.7248 -20.7241 -20.7241 -20.7232 -20.7232 -20.7226 -20.7226
   -20.7220 -20.7220 -20.7219 -20.7219 -20.7217 -20.7217 -20.7213 -20.7213
   -20.7208 -20.7208 -20.7201 -20.7201 -20.7196 -20.7196 -20.7192 -20.7192
   -20.7188 -20.7188 -20.7175 -20.7175 -20.7153 -20.7153 -20.7140 -20.7140
   -20.7130 -20.7129 -20.7122 -20.7122 -20.7115 -20.7114 -20.7112 -20.7112
   -20.7109 -20.7109 -20.7106 -20.7105 -20.7082 -20.7081 -20.7061 -20.7061
    -9.8397  -9.8396  -9.8120  -9.8120  -9.1078  -9.1078  -9.0887  -9.0887
    -8.9939  -8.9939  -8.9839  -8.9839  -8.7982  -8.7982  -8.7839  -8.7839
    -8.7605  -8.7604  -8.7445  -8.7445  -8.0572  -8.0572  -8.0260  -8.0260
     0.8437   0.8437   0.8715   0.8716   2.6668   2.6668   2.7098   2.7098
     2.7702   2.7702   2.7736   2.7736   2.8459   2.8459   2.8927   2.8928
     2.9239   2.9239   2.9746   2.9746   3.0646   3.0646   3.0923   3.0923
     3.1979   3.1979   3.2421   3.2421   3.8451   3.8451   3.8698   3.8698
     3.9252   3.9252   3.9511   3.9511   4.6599   4.6600   4.6692   4.6692
     5.1013   5.1014   5.1301   5.1301   5.9169   5.9169   5.9247   5.9247
     6.1089   6.1089   6.1364   6.1364   6.1967   6.1967   6.2093   6.2093
     7.0174   7.0175   7.0265   7.0265   7.0445   7.0445   7.0715   7.0715
     7.1225   7.1225   7.1404   7.1405   7.3637   7.3637   7.3846   7.3846
    10.6769  10.6769  10.7019  10.7019  10.8441  10.8441  10.8505  10.8505
    11.6715  11.6716  11.6860  11.6860  11.7262  11.7262  11.7475  11.7475
    12.6665  12.6666  12.6973  12.6974  12.9492  12.9492  12.9529  12.9529
    14.9613  14.9613  15.0118  15.0119  16.3587  16.3587  16.3768  16.3769
    17.3478  17.3480  17.3590  17.3590  17.4413

          k = 0.1667 0.0000 0.0000 ( 63775 PWs)   bands (ev):

   -66.5812 -66.5806 -66.5805 -66.5802 -66.5799 -66.5796 -66.5795 -66.5789
   -30.9446 -30.9396 -30.9395 -30.9344 -30.9259 -30.9215 -30.9213 -30.9166
   -30.9100 -30.9071 -30.9056 -30.9011 -30.8648 -30.8639 -30.8625 -30.8624
   -30.8446 -30.8418 -30.8383 -30.8356 -30.8300 -30.8259 -30.8254 -30.8215
   -20.7492 -20.7491 -20.7491 -20.7490 -20.7483 -20.7482 -20.7482 -20.7481
   -20.7256 -20.7253 -20.7249 -20.7246 -20.7245 -20.7244 -20.7235 -20.7233
   -20.7231 -20.7228 -20.7223 -20.7222 -20.7219 -20.7216 -20.7214 -20.7212
   -20.7209 -20.7206 -20.7205 -20.7196 -20.7195 -20.7187 -20.7177 -20.7177
   -20.7169 -20.7168 -20.7167 -20.7164 -20.7158 -20.7155 -20.7150 -20.7150
   -20.7148 -20.7137 -20.7136 -20.7133 -20.7130 -20.7118 -20.7115 -20.7101
   -20.7092 -20.7085 -20.7079 -20.7079 -20.7077 -20.7071 -20.7070 -20.7059
   -10.2532  -9.9570  -9.9344  -9.8930  -9.6590  -9.5955  -9.5565  -9.3853
    -9.3512  -9.3459  -9.3307  -9.3053  -8.2300  -8.1786  -8.1755  -8.1457
    -8.1120  -8.0875  -8.0843  -8.0758  -8.0379  -8.0354  -8.0344  -7.9873
     0.7568   0.7602   0.7911   0.8348   0.8838   0.8973   0.9619   1.0768
     1.1215   1.2510   1.2580   1.4460   2.2197   2.2553   2.2839   2.3203
     2.3626   2.3937   3.9020   3.9501   4.0254   4.0456   4.0777   4.1325
     4.1969   4.2274   4.3350   4.3593   4.3759   4.4176   4.7819   4.8042
     4.9313   4.9918   5.0739   5.2058   5.2207   5.2581   5.3209   5.3255
     5.3807   5.4127   5.6105   5.6803   5.6879   5.7083   5.7451   5.8992
     5.9899   6.1011   6.1369   6.2265   6.2945   6.4642   6.4948   6.5290
     6.5309   6.5573   6.6346   6.6462   6.6494   6.6735   6.6925   6.7096
     6.7402   6.7507   7.7459   7.7677   7.8023   7.8073   7.8608   7.8686
     9.0379   9.0623   9.1180   9.1537   9.3661   9.4048  11.9928  12.0149
    12.0520  12.1638  12.1990  12.2188  12.2228  12.2703  12.2973  12.4007
    12.4753  12.5850  13.2547  13.2677  13.4201  13.4667  13.6737  13.6768
    14.0056  14.0262  14.2903  14.5065  14.5338  14.6115  15.3220  15.4485
    15.9126  16.4389  16.7974  16.8567  16.9785

          k = 0.1667 0.0000 0.1666 ( 63766 PWs)   bands (ev):

   -66.5812 -66.5806 -66.5806 -66.5802 -66.5800 -66.5796 -66.5796 -66.5790
   -30.9441 -30.9398 -30.9391 -30.9348 -30.9220 -30.9193 -30.9169 -30.9162
   -30.9054 -30.9046 -30.9015 -30.9012 -30.8644 -30.8636 -30.8632 -30.8630
   -30.8444 -30.8437 -30.8427 -30.8402 -30.8310 -30.8298 -30.8273 -30.8260
   -20.7492 -20.7491 -20.7491 -20.7490 -20.7483 -20.7482 -20.7482 -20.7481
   -20.7256 -20.7253 -20.7249 -20.7245 -20.7245 -20.7244 -20.7236 -20.7234
   -20.7230 -20.7227 -20.7223 -20.7221 -20.7218 -20.7217 -20.7214 -20.7211
   -20.7209 -20.7206 -20.7204 -20.7196 -20.7195 -20.7188 -20.7177 -20.7176
   -20.7170 -20.7169 -20.7167 -20.7164 -20.7157 -20.7151 -20.7150 -20.7147
   -20.7146 -20.7137 -20.7134 -20.7131 -20.7129 -20.7119 -20.7114 -20.7102
   -20.7091 -20.7090 -20.7084 -20.7082 -20.7080 -20.7076 -20.7070 -20.7060
   -10.2096  -9.9044  -9.9019  -9.8770  -9.6029  -9.5693  -9.5643  -9.3416
    -9.3343  -9.3091  -9.3082  -9.3057  -8.2329  -8.2181  -8.1924  -8.1829
    -8.1725  -8.1709  -8.1393  -8.1103  -8.1091  -8.0788  -8.0733  -8.0408
     0.8610   0.8800   0.8820   0.9602   0.9794   0.9928   1.1077   1.1229
     1.2372   1.2522   1.3450   1.5303   2.2884   2.3045   2.3373   2.3821
     2.4084   2.4455   3.8774   3.9368   3.9866   4.0025   4.0568   4.0695
     4.1060   4.1223   4.1886   4.2191   4.2493   4.2702   4.7418   4.7672
     4.7958   4.9347   4.9746   5.0765   5.0856   5.2042   5.2363   5.3397
     5.3491   5.4669   5.4744   5.6603   5.7037   5.7178   5.8215   6.0261
     6.0435   6.2188   6.2438   6.2739   6.2914   6.3426   6.3715   6.4590
     6.4794   6.5051   6.5168   6.5322   6.5869   6.6084   6.6389   6.6820
     6.7511   6.7658   7.7404   7.7507   7.7671   7.7761   7.8077   7.8153
     9.3170   9.3499   9.3605   9.3797   9.4321   9.4785  12.0405  12.0502
    12.0636  12.0894  12.1026  12.1305  12.2296  12.2581  12.2809  12.2820
    12.4226  12.4319  13.2122  13.2221  13.4322  13.4479  13.5394  13.5602
    14.0957  14.2260  14.2928  14.6769  14.7302  14.7376  15.2945  15.8594
    15.8851  16.5924  16.6046  16.8755  17.0181

          k = 0.1667 0.0000 0.3331 ( 63804 PWs)   bands (ev):

   -66.5810 -66.5807 -66.5804 -66.5801 -66.5800 -66.5797 -66.5794 -66.5791
   -30.9431 -30.9407 -30.9381 -30.9356 -30.9202 -30.9177 -30.9056 -30.9044
   -30.9020 -30.9011 -30.8895 -30.8861 -30.8679 -30.8662 -30.8634 -30.8624
   -30.8560 -30.8542 -30.8480 -30.8448 -30.8433 -30.8389 -30.8291 -30.8270
   -20.7492 -20.7491 -20.7491 -20.7490 -20.7483 -20.7482 -20.7482 -20.7481
   -20.7255 -20.7254 -20.7248 -20.7246 -20.7243 -20.7242 -20.7238 -20.7236
   -20.7229 -20.7225 -20.7224 -20.7220 -20.7219 -20.7216 -20.7215 -20.7211
   -20.7209 -20.7207 -20.7201 -20.7197 -20.7193 -20.7189 -20.7175 -20.7175
   -20.7171 -20.7171 -20.7166 -20.7165 -20.7155 -20.7151 -20.7142 -20.7138
   -20.7137 -20.7137 -20.7127 -20.7125 -20.7122 -20.7122 -20.7111 -20.7105
   -20.7103 -20.7097 -20.7094 -20.7090 -20.7087 -20.7082 -20.7068 -20.7062
   -10.1081  -9.9406  -9.7802  -9.7492  -9.6276  -9.5902  -9.3300  -9.3138
    -9.3133  -9.1864  -9.1687  -9.1657  -8.5397  -8.5160  -8.5023  -8.4862
    -8.2128  -8.1848  -8.1634  -8.1384  -8.1072  -8.0872  -8.0703  -8.0489
     0.8744   0.8791   0.9393   0.9564   1.1151   1.1261   1.2014   1.2515
     1.8471   1.9260   1.9566   2.0641   2.3094   2.3645   2.5366   2.5837
     2.6372   2.6912   3.4396   3.4975   3.5743   3.5966   3.7550   3.9971
     4.0287   4.0592   4.0705   4.1652   4.1838   4.3231   4.3377   4.4089
     4.5484   4.6145   4.7136   4.7178   4.8348   5.0503   5.1209   5.3039
     5.3692   5.5564   5.5966   5.6022   5.6151   5.6820   5.7261   5.7624
     6.0570   6.0953   6.1535   6.1738   6.2404   6.2751   6.3504   6.5050
     6.5069   6.5297   6.5574   6.5739   6.6399   6.7162   6.8061   6.8143
     6.8754   6.9321   7.5758   7.5885   7.6198   7.6363   7.7766   7.7800
     9.3567   9.3849  10.0270  10.0484  10.1059  10.1451  11.5531  11.5839
    11.6912  11.7338  12.1354  12.1866  12.2557  12.2754  12.2958  12.3092
    12.4571  12.5234  12.9389  12.9665  13.1752  13.1992  13.4380  13.4520
    14.2160  14.2858  14.6632  14.9820  15.1980  15.2150  15.4483  15.7930
    16.0124  16.9009  16.9923  17.0954  17.1149

          k = 0.1667 0.0000-0.4997 ( 63836 PWs)   bands (ev):

   -66.5809 -66.5809 -66.5803 -66.5803 -66.5799 -66.5799 -66.5793 -66.5793
   -30.9419 -30.9419 -30.9368 -30.9368 -30.9189 -30.9189 -30.9035 -30.9035
   -30.8846 -30.8846 -30.8812 -30.8812 -30.8689 -30.8688 -30.8659 -30.8659
   -30.8615 -30.8614 -30.8597 -30.8597 -30.8421 -30.8421 -30.8281 -30.8281
   -20.7492 -20.7491 -20.7491 -20.7490 -20.7483 -20.7482 -20.7482 -20.7481
   -20.7255 -20.7254 -20.7247 -20.7247 -20.7241 -20.7241 -20.7239 -20.7239
   -20.7227 -20.7226 -20.7222 -20.7222 -20.7217 -20.7217 -20.7214 -20.7213
   -20.7208 -20.7208 -20.7199 -20.7199 -20.7191 -20.7191 -20.7173 -20.7173
   -20.7173 -20.7173 -20.7166 -20.7165 -20.7153 -20.7153 -20.7139 -20.7139
   -20.7128 -20.7128 -20.7121 -20.7121 -20.7114 -20.7113 -20.7112 -20.7112
   -20.7107 -20.7107 -20.7106 -20.7106 -20.7086 -20.7085 -20.7065 -20.7065
   -10.0080 -10.0080  -9.6806  -9.6805  -9.6451  -9.6450  -9.3216  -9.3216
    -8.9373  -8.9373  -8.9033  -8.9033  -8.8827  -8.8827  -8.8705  -8.8705
    -8.1994  -8.1994  -8.1509  -8.1509  -8.0980  -8.0980  -8.0598  -8.0598
     0.8765   0.8766   0.9511   0.9512   1.1285   1.1285   1.2444   1.2445
     2.3340   2.3340   2.7666   2.7667   2.7789   2.7789   2.8483   2.8483
     2.8762   2.8762   3.0222   3.0222   3.1681   3.1681   3.2945   3.2945
     3.3404   3.3404   4.0281   4.0281   4.1477   4.1477   4.5340   4.5340
     4.5851   4.5851   4.6134   4.6134   4.8222   4.8222   5.2501   5.2501
     5.4423   5.4423   5.4603   5.4603   5.6556   5.6556   5.7619   5.7619
     5.9779   5.9779   6.1313   6.1313   6.1769   6.1769   6.4661   6.4661
     6.5139   6.5139   6.5714   6.5715   6.6382   6.6382   7.2516   7.2517
     7.2706   7.2706   7.3050   7.3050   7.3266   7.3266   7.7791   7.7791
     9.3720   9.3720  10.8199  10.8199  10.8406  10.8406  10.9417  10.9417
    10.9700  10.9700  12.1928  12.1928  12.2765  12.2765  12.5546  12.5546
    12.6034  12.6034  12.7844  12.7844  12.7920  12.7920  13.4415  13.4416
    14.2644  14.2644  15.0056  15.0056  15.4409  15.4409  15.5949  15.5949
    16.3774  16.3774  17.3750  17.3755  17.4409

          k = 0.1667 0.1642 0.0000 ( 63834 PWs)   bands (ev):

   -66.5812 -66.5806 -66.5805 -66.5802 -66.5799 -66.5796 -66.5796 -66.5790
   -30.9404 -30.9352 -30.9350 -30.9296 -30.9259 -30.9210 -30.9207 -30.9162
   -30.9100 -30.9072 -30.9056 -30.9011 -30.8693 -30.8689 -30.8671 -30.8669
   -30.8448 -30.8419 -30.8385 -30.8357 -30.8302 -30.8261 -30.8255 -30.8215
   -20.7492 -20.7491 -20.7491 -20.7490 -20.7483 -20.7482 -20.7482 -20.7481
   -20.7254 -20.7251 -20.7247 -20.7244 -20.7242 -20.7242 -20.7234 -20.7232
   -20.7230 -20.7227 -20.7222 -20.7221 -20.7219 -20.7216 -20.7213 -20.7212
   -20.7208 -20.7207 -20.7206 -20.7197 -20.7196 -20.7187 -20.7180 -20.7179
   -20.7172 -20.7171 -20.7168 -20.7167 -20.7159 -20.7155 -20.7151 -20.7151
   -20.7149 -20.7137 -20.7136 -20.7134 -20.7130 -20.7118 -20.7115 -20.7101
   -20.7092 -20.7085 -20.7079 -20.7079 -20.7077 -20.7071 -20.7070 -20.7059
   -10.2160  -9.9452  -9.9133  -9.8428  -9.6657  -9.5634  -9.5108  -9.3746
    -9.3483  -9.3038  -9.2952  -9.2695  -8.2629  -8.2258  -8.2100  -8.2080
    -8.1807  -8.1696  -8.1569  -8.1169  -8.0836  -8.0386  -8.0342  -7.9903
     0.7776   0.7976   0.8031   0.8385   1.0267   1.0459   1.1230   1.2135
     1.2563   1.2995   1.3728   1.5506   2.2607   2.3008   2.3434   2.3734
     2.4008   2.4706   3.8075   3.8198   3.9025   3.9207   3.9903   4.0238
     4.1231   4.1337   4.3156   4.3655   4.4133   4.4301   4.5768   4.7478
     4.8793   4.9507   4.9632   5.0104   5.0316   5.2393   5.2809   5.3308
     5.3672   5.5006   5.6205   5.6610   5.7439   5.7536   5.8265   5.8919
     5.9833   6.0257   6.1202   6.2109   6.3100   6.3613   6.4321   6.5118
     6.5353   6.5648   6.6029   6.6208   6.6396   6.6487   6.6874   6.6905
     6.6977   6.7303   7.7073   7.7136   7.7876   7.7978   7.8012   7.8167
     9.1109   9.1426   9.3087   9.3544   9.5835   9.6272  11.8984  11.9885
    12.0077  12.0242  12.0526  12.0948  12.2307  12.2674  12.2847  12.3861
    12.5206  12.5970  13.2258  13.2540  13.3918  13.4061  13.5651  13.5751
    14.2489  14.2705  14.4843  14.5797  14.5941  14.7013  15.4202  15.7506
    15.8817  16.4964  16.5834  16.8731  17.1179

          k = 0.1667 0.1642 0.1666 ( 63850 PWs)   bands (ev):

   -66.5812 -66.5806 -66.5805 -66.5802 -66.5800 -66.5796 -66.5796 -66.5790
   -30.9399 -30.9354 -30.9345 -30.9299 -30.9221 -30.9187 -30.9165 -30.9159
   -30.9056 -30.9045 -30.9016 -30.9012 -30.8690 -30.8686 -30.8677 -30.8674
   -30.8446 -30.8440 -30.8428 -30.8406 -30.8311 -30.8300 -30.8273 -30.8262
   -20.7492 -20.7491 -20.7491 -20.7490 -20.7483 -20.7482 -20.7482 -20.7481
   -20.7254 -20.7251 -20.7247 -20.7244 -20.7242 -20.7242 -20.7235 -20.7232
   -20.7230 -20.7227 -20.7223 -20.7221 -20.7218 -20.7217 -20.7213 -20.7212
   -20.7209 -20.7207 -20.7205 -20.7197 -20.7195 -20.7188 -20.7180 -20.7178
   -20.7173 -20.7171 -20.7168 -20.7167 -20.7158 -20.7151 -20.7151 -20.7147
   -20.7146 -20.7137 -20.7134 -20.7131 -20.7129 -20.7119 -20.7114 -20.7102
   -20.7091 -20.7090 -20.7084 -20.7082 -20.7080 -20.7076 -20.7070 -20.7060
   -10.1704  -9.8879  -9.8543  -9.8523  -9.5761  -9.5714  -9.5182  -9.3329
    -9.3156  -9.2868  -9.2728  -9.2716  -8.2701  -8.2265  -8.2243  -8.2121
    -8.2064  -8.1947  -8.1862  -8.1600  -8.1584  -8.1457  -8.1219  -8.1078
     0.9779   0.9909   1.0198   1.0277   1.0581   1.1099   1.1246   1.2133
     1.3437   1.3615   1.3721   1.6135   2.3440   2.3672   2.3857   2.4348
     2.4653   2.4852   3.8199   3.8360   3.8802   3.9022   4.0422   4.0563
     4.0735   4.0872   4.1288   4.1333   4.1715   4.2110   4.5559   4.6881
     4.7340   4.9186   4.9442   4.9600   4.9935   5.0385   5.0470   5.3040
     5.3527   5.3643   5.6360   5.6520   5.6997   5.7720   5.8627   5.9959
     6.0233   6.1301   6.1498   6.2833   6.2880   6.3018   6.3274   6.3578
     6.3692   6.5679   6.5773   6.5900   6.6334   6.6473   6.6586   6.6757
     6.7513   6.7804   7.7031   7.7117   7.7401   7.7494   7.7542   7.7729
     9.3761   9.4021   9.5449   9.5847   9.6297   9.6491  11.9513  12.0012
    12.0413  12.0515  12.0707  12.0912  12.1109  12.1239  12.2770  12.3273
    12.3919  12.4116  13.2003  13.2051  13.3602  13.3835  13.4226  13.4544
    14.4085  14.5124  14.5434  14.7278  14.7302  14.8127  15.7189  15.8337
    15.8557  16.6151  16.7089  16.7178  16.9506

          k = 0.1667 0.1642 0.3331 ( 63804 PWs)   bands (ev):

   -66.5810 -66.5807 -66.5804 -66.5801 -66.5801 -66.5797 -66.5795 -66.5791
   -30.9387 -30.9363 -30.9333 -30.9308 -30.9199 -30.9173 -30.9056 -30.9043
   -30.9020 -30.9011 -30.8896 -30.8862 -30.8709 -30.8698 -30.8679 -30.8672
   -30.8576 -30.8552 -30.8481 -30.8450 -30.8436 -30.8391 -30.8293 -30.8272
   -20.7492 -20.7491 -20.7491 -20.7490 -20.7483 -20.7482 -20.7482 -20.7481
   -20.7253 -20.7251 -20.7246 -20.7244 -20.7242 -20.7240 -20.7237 -20.7235
   -20.7228 -20.7225 -20.7224 -20.7219 -20.7219 -20.7216 -20.7214 -20.7211
   -20.7210 -20.7208 -20.7202 -20.7198 -20.7193 -20.7189 -20.7178 -20.7177
   -20.7174 -20.7173 -20.7168 -20.7168 -20.7156 -20.7152 -20.7143 -20.7138
   -20.7137 -20.7137 -20.7127 -20.7125 -20.7122 -20.7122 -20.7111 -20.7105
   -20.7103 -20.7097 -20.7094 -20.7090 -20.7087 -20.7082 -20.7068 -20.7062
   -10.0640  -9.8908  -9.7598  -9.7140  -9.5980  -9.5437  -9.3207  -9.2954
    -9.2776  -9.1839  -9.1614  -9.1485  -8.5411  -8.5207  -8.5061  -8.4894
    -8.2400  -8.2232  -8.2029  -8.1946  -8.1808  -8.1696  -8.1518  -8.1274
     1.0280   1.0342   1.1173   1.1276   1.1897   1.2093   1.2984   1.3689
     1.8477   1.9326   1.9565   2.0775   2.3878   2.4419   2.5894   2.6248
     2.6859   2.7117   3.4507   3.5405   3.5651   3.6636   3.7118   3.8807
     3.9333   3.9719   4.0782   4.1008   4.1317   4.2576   4.3042   4.3725
     4.4193   4.4503   4.5055   4.6511   4.7865   4.8473   5.0019   5.0940
     5.3294   5.3864   5.4224   5.5566   5.5679   5.6872   5.7245   5.7851
     5.9816   6.1085   6.2412   6.2656   6.2920   6.3469   6.3580   6.3987
     6.5077   6.5853   6.6177   6.6374   6.6579   6.7531   6.8104   6.8136
     6.8884   6.9375   7.5613   7.5797   7.5905   7.5984   7.7213   7.7302
     9.5751   9.6081  10.0423  10.0627  10.2277  10.2591  11.5527  11.5869
    11.7325  11.7866  12.0826  12.0996  12.1512  12.2042  12.2340  12.3043
    12.3306  12.4411  12.9246  12.9602  13.0419  13.0777  13.3622  13.3778
    14.5027  14.5402  15.0249  15.0932  15.2119  15.4899  15.6229  15.7681
    16.1214  16.8709  16.9578  17.0528  17.1573

          k = 0.1667 0.1642-0.4997 ( 63832 PWs)   bands (ev):

   -66.5809 -66.5808 -66.5803 -66.5802 -66.5799 -66.5799 -66.5793 -66.5793
   -30.9375 -30.9374 -30.9320 -30.9320 -30.9185 -30.9185 -30.9036 -30.9035
   -30.8850 -30.8849 -30.8817 -30.8817 -30.8695 -30.8694 -30.8671 -30.8671
   -30.8651 -30.8651 -30.8628 -30.8628 -30.8423 -30.8423 -30.8283 -30.8283
   -20.7492 -20.7491 -20.7491 -20.7490 -20.7483 -20.7482 -20.7482 -20.7481
   -20.7252 -20.7252 -20.7245 -20.7245 -20.7239 -20.7239 -20.7238 -20.7237
   -20.7226 -20.7226 -20.7222 -20.7222 -20.7216 -20.7216 -20.7213 -20.7213
   -20.7209 -20.7209 -20.7200 -20.7200 -20.7191 -20.7191 -20.7177 -20.7176
   -20.7175 -20.7174 -20.7168 -20.7168 -20.7154 -20.7153 -20.7140 -20.7140
   -20.7128 -20.7128 -20.7121 -20.7121 -20.7114 -20.7113 -20.7112 -20.7112
   -20.7107 -20.7107 -20.7106 -20.7106 -20.7086 -20.7085 -20.7065 -20.7065
    -9.9599  -9.9599  -9.6542  -9.6541  -9.6007  -9.6007  -9.2859  -9.2858
    -8.9441  -8.9441  -8.9044  -8.9043  -8.8793  -8.8793  -8.8676  -8.8676
    -8.2318  -8.2318  -8.1941  -8.1941  -8.1825  -8.1825  -8.1401  -8.1401
     1.0310   1.0311   1.1301   1.1301   1.2069   1.2069   1.3576   1.3576
     2.4107   2.4107   2.7773   2.7773   2.8102   2.8102   2.8484   2.8484
     2.8797   2.8797   3.0417   3.0417   3.1662   3.1663   3.3450   3.3450
     3.3766   3.3766   3.9338   3.9338   4.0665   4.0666   4.3665   4.3665
     4.4875   4.4875   4.5523   4.5523   4.6188   4.6188   5.1330   5.1330
     5.2423   5.2423   5.4081   5.4081   5.4690   5.4691   5.7526   5.7526
     6.1282   6.1282   6.2186   6.2186   6.3183   6.3183   6.3865   6.3865
     6.4841   6.4841   6.6258   6.6258   6.6979   6.6979   7.2469   7.2469
     7.2634   7.2634   7.2960   7.2960   7.3120   7.3120   7.7252   7.7252
     9.5943   9.5943  10.8233  10.8233  10.8495  10.8495  11.0167  11.0167
    11.0453  11.0453  12.0906  12.0906  12.2343  12.2343  12.5324  12.5324
    12.5943  12.5943  12.6442  12.6442  12.6663  12.6663  13.3658  13.3658
    14.5281  14.5281  15.4061  15.4061  15.5479  15.5479  15.5908  15.5908
    16.4464  16.4464  17.3123  17.3124  17.4137

          k = 0.1667 0.3284 0.0000 ( 63841 PWs)   bands (ev):

   -66.5812 -66.5805 -66.5805 -66.5803 -66.5799 -66.5797 -66.5796 -66.5790
   -30.9316 -30.9263 -30.9259 -30.9248 -30.9176 -30.9166 -30.9160 -30.9135
   -30.9100 -30.9072 -30.9049 -30.9009 -30.8822 -30.8821 -30.8799 -30.8796
   -30.8451 -30.8420 -30.8387 -30.8359 -30.8304 -30.8264 -30.8256 -30.8217
   -20.7492 -20.7491 -20.7491 -20.7490 -20.7483 -20.7482 -20.7482 -20.7481
   -20.7251 -20.7247 -20.7246 -20.7239 -20.7238 -20.7235 -20.7230 -20.7229
   -20.7225 -20.7225 -20.7220 -20.7220 -20.7217 -20.7216 -20.7214 -20.7210
   -20.7209 -20.7207 -20.7207 -20.7199 -20.7197 -20.7189 -20.7188 -20.7186
   -20.7181 -20.7179 -20.7172 -20.7169 -20.7159 -20.7155 -20.7152 -20.7151
   -20.7150 -20.7138 -20.7136 -20.7135 -20.7130 -20.7118 -20.7115 -20.7101
   -20.7092 -20.7085 -20.7080 -20.7079 -20.7077 -20.7071 -20.7071 -20.7059
   -10.1290  -9.9792  -9.8190  -9.7327  -9.6874  -9.5861  -9.3655  -9.3513
    -9.2698  -9.1544  -9.1428  -9.1351  -8.5479  -8.5176  -8.5105  -8.4972
    -8.2165  -8.1790  -8.1645  -8.1289  -8.0794  -8.0439  -8.0306  -7.9951
     0.7820   0.8019   0.8219   0.8464   1.1042   1.1315   1.2112   1.2575
     1.8957   1.9935   2.0075   2.1278   2.2803   2.3317   2.5397   2.6029
     2.6358   2.6980   3.3338   3.3884   3.4228   3.4918   3.8102   3.9843
     4.0064   4.0812   4.1399   4.2769   4.3064   4.3740   4.3864   4.3901
     4.5415   4.6266   4.6642   4.8384   4.8909   5.0522   5.1565   5.3062
     5.3687   5.4556   5.5701   5.6989   5.7553   5.7682   5.8075   5.8671
     5.8934   6.0432   6.1047   6.1403   6.2579   6.3743   6.4238   6.5552
     6.5746   6.6049   6.6203   6.6287   6.6675   6.6811   6.7867   6.8073
     6.8450   6.8683   7.5329   7.5361   7.5861   7.5871   7.8018   7.8083
     9.1214   9.1432   9.9526   9.9965  10.1528  10.1961  11.4325  11.4883
    11.5568  11.6014  12.0019  12.0518  12.2337  12.2860  12.4225  12.4922
    12.6647  12.7137  13.0238  13.0748  13.2241  13.2777  13.3332  13.3644
    14.4800  14.5137  14.7692  14.8919  15.1076  15.3319  15.3383  15.7755
    15.9217  16.8062  16.9370  17.0443  17.0905

          k = 0.1667 0.3284 0.1666 ( 63868 PWs)   bands (ev):

   -66.5811 -66.5805 -66.5805 -66.5802 -66.5799 -66.5796 -66.5796 -66.5790
   -30.9302 -30.9255 -30.9237 -30.9221 -30.9168 -30.9152 -30.9138 -30.9136
   -30.9060 -30.9039 -30.9016 -30.9010 -30.8818 -30.8817 -30.8804 -30.8800
   -30.8448 -30.8443 -30.8427 -30.8412 -30.8312 -30.8303 -30.8273 -30.8266
   -20.7492 -20.7491 -20.7491 -20.7490 -20.7483 -20.7482 -20.7482 -20.7481
   -20.7251 -20.7247 -20.7245 -20.7240 -20.7238 -20.7235 -20.7231 -20.7228
   -20.7226 -20.7225 -20.7221 -20.7219 -20.7217 -20.7216 -20.7213 -20.7210
   -20.7209 -20.7207 -20.7206 -20.7199 -20.7196 -20.7189 -20.7189 -20.7185
   -20.7182 -20.7179 -20.7172 -20.7169 -20.7158 -20.7152 -20.7151 -20.7147
   -20.7147 -20.7138 -20.7134 -20.7132 -20.7129 -20.7119 -20.7114 -20.7102
   -20.7091 -20.7090 -20.7085 -20.7082 -20.7080 -20.7076 -20.7070 -20.7060
   -10.0785  -9.9225  -9.7440  -9.7432  -9.5986  -9.5948  -9.3284  -9.3166
    -9.2774  -9.1380  -9.1376  -9.1361  -8.5495  -8.5172  -8.5148  -8.5031
    -8.2144  -8.2119  -8.1824  -8.1753  -8.1709  -8.1635  -8.1281  -8.1146
     0.9811   0.9882   1.0920   1.1052   1.1190   1.1334   1.2840   1.3428
     1.8973   1.9939   2.0052   2.1320   2.3641   2.4158   2.6022   2.6338
     2.6926   2.7197   3.3807   3.4129   3.4401   3.4993   3.8008   4.0269
     4.0378   4.0546   4.0717   4.1057   4.1364   4.2509   4.3379   4.3668
     4.3879   4.3958   4.6098   4.6553   4.8995   4.9073   4.9904   5.0440
     5.3628   5.3728   5.4312   5.4440   5.5774   5.5876   5.9587   5.9640
     6.0037   6.1460   6.1591   6.2885   6.3096   6.3398   6.3634   6.3859
     6.5566   6.5710   6.6707   6.6783   6.7103   6.7203   6.7917   6.8315
     6.8594   6.8665   7.5254   7.5340   7.5549   7.5568   7.7542   7.7619
     9.3892   9.4072  10.1066  10.1448  10.1887  10.2003  11.5024  11.5497
    11.5776  11.6005  12.0557  12.0631  12.1055  12.1107  12.4294  12.4724
    12.4949  12.5207  13.0228  13.0705  13.0831  13.1100  13.2874  13.2923
    14.7184  14.7258  14.9987  15.0910  15.1125  15.4023  15.7358  15.7547
    16.0400  16.7746  17.0031  17.0404  17.1271

          k = 0.1667 0.3284 0.3331 ( 63856 PWs)   bands (ev):

   -66.5810 -66.5806 -66.5804 -66.5801 -66.5800 -66.5798 -66.5795 -66.5792
   -30.9287 -30.9262 -30.9206 -30.9182 -30.9171 -30.9147 -30.9055 -30.9039
   -30.9019 -30.9010 -30.8899 -30.8867 -30.8820 -30.8817 -30.8800 -30.8793
   -30.8593 -30.8563 -30.8482 -30.8453 -30.8439 -30.8393 -30.8296 -30.8275
   -20.7492 -20.7491 -20.7491 -20.7490 -20.7483 -20.7482 -20.7482 -20.7481
   -20.7250 -20.7248 -20.7244 -20.7241 -20.7236 -20.7233 -20.7232 -20.7228
   -20.7226 -20.7224 -20.7222 -20.7218 -20.7217 -20.7216 -20.7212 -20.7211
   -20.7211 -20.7208 -20.7204 -20.7200 -20.7194 -20.7190 -20.7187 -20.7184
   -20.7182 -20.7180 -20.7171 -20.7170 -20.7156 -20.7153 -20.7144 -20.7139
   -20.7137 -20.7137 -20.7127 -20.7125 -20.7122 -20.7122 -20.7111 -20.7105
   -20.7103 -20.7098 -20.7094 -20.7091 -20.7087 -20.7082 -20.7068 -20.7062
    -9.9610  -9.7941  -9.7794  -9.6236  -9.5539  -9.3461  -9.3055  -9.2225
    -9.1847  -9.1460  -9.0923  -9.0645  -8.6211  -8.5864  -8.5196  -8.5159
    -8.5061  -8.4901  -8.4445  -8.4082  -8.2017  -8.1734  -8.1646  -8.1371
     1.1010   1.1091   1.1273   1.1374   1.7309   1.7736   1.8482   1.9030
     1.9528   2.0039   2.0837   2.2447   2.6076   2.6151   2.6479   2.7015
     2.8700   2.9432   3.3734   3.4392   3.4588   3.5362   3.5486   3.5995
     3.7519   3.7702   3.8715   3.9823   4.0492   4.1492   4.1632   4.2378
     4.2771   4.3252   4.3554   4.4285   4.4545   4.4719   4.5862   4.8817
     4.9165   4.9522   4.9929   5.3225   5.3911   5.5814   5.6837   5.7123
     6.1729   6.2046   6.3005   6.3441   6.4236   6.4474   6.5498   6.5910
     6.6167   6.7059   6.7194   6.7450   6.7727   6.8230   6.8614   6.8972
     6.9514   6.9828   7.4275   7.4472   7.4954   7.5439   7.5936   7.6277
    10.0055  10.0535  10.1747  10.2038  10.6045  10.6431  11.5176  11.5517
    11.5720  11.6450  11.7602  11.8133  11.9641  12.0034  12.2249  12.2785
    12.4453  12.4955  12.6764  12.7055  12.9256  12.9771  13.0955  13.1387
    14.9631  15.0800  15.1907  15.5203  15.6617  15.8034  15.8239  16.4137
    16.4613  16.6641  16.7604  17.1967  17.2910

          k = 0.1667 0.3284-0.4997 ( 63808 PWs)   bands (ev):

   -66.5808 -66.5808 -66.5802 -66.5802 -66.5799 -66.5799 -66.5793 -66.5793
   -30.9274 -30.9274 -30.9189 -30.9189 -30.9160 -30.9159 -30.9034 -30.9033
   -30.8880 -30.8880 -30.8861 -30.8860 -30.8760 -30.8760 -30.8741 -30.8740
   -30.8682 -30.8681 -30.8647 -30.8647 -30.8426 -30.8426 -30.8286 -30.8285
   -20.7492 -20.7491 -20.7491 -20.7490 -20.7483 -20.7482 -20.7482 -20.7481
   -20.7249 -20.7249 -20.7242 -20.7242 -20.7234 -20.7234 -20.7231 -20.7230
   -20.7225 -20.7224 -20.7221 -20.7221 -20.7214 -20.7214 -20.7213 -20.7213
   -20.7209 -20.7209 -20.7201 -20.7201 -20.7192 -20.7192 -20.7185 -20.7185
   -20.7182 -20.7181 -20.7171 -20.7170 -20.7154 -20.7154 -20.7141 -20.7141
   -20.7128 -20.7128 -20.7121 -20.7121 -20.7114 -20.7113 -20.7112 -20.7112
   -20.7107 -20.7107 -20.7106 -20.7106 -20.7086 -20.7085 -20.7065 -20.7065
    -9.8495  -9.8495  -9.6841  -9.6841  -9.3809  -9.3809  -9.1625  -9.1625
    -8.9771  -8.9771  -8.9138  -8.9138  -8.8664  -8.8663  -8.8466  -8.8465
    -8.5099  -8.5099  -8.4829  -8.4829  -8.1881  -8.1881  -8.1511  -8.1511
     1.1110   1.1110   1.1396   1.1396   1.8932   1.8932   1.9849   1.9849
     2.6294   2.6294   2.8111   2.8111   2.8271   2.8271   2.8638   2.8638
     2.8941   2.8941   3.0894   3.0894   3.1590   3.1590   3.4340   3.4340
     3.5281   3.5281   3.5725   3.5725   3.7406   3.7406   3.9697   3.9697
     4.2878   4.2878   4.4437   4.4437   4.5012   4.5012   4.5957   4.5957
     4.6659   4.6660   5.0828   5.0828   5.4655   5.4655   5.5997   5.5997
     6.2812   6.2813   6.3422   6.3422   6.4430   6.4430   6.4922   6.4923
     6.7054   6.7054   6.7622   6.7622   6.8772   6.8772   7.1932   7.1932
     7.2268   7.2268   7.2500   7.2500   7.3070   7.3070   7.5579   7.5579
    10.1592  10.1592  10.8276  10.8276  10.8568  10.8569  11.2573  11.2573
    11.2979  11.2979  11.6114  11.6114  12.1491  12.1491  12.2109  12.2109
    12.4363  12.4363  12.5809  12.5809  12.6419  12.6419  13.0982  13.0983
    15.0465  15.0465  15.5059  15.5059  15.9455  15.9455  16.3943  16.3943
    16.7267  16.7267  16.8919  16.8919  17.4340

          k = 0.1667-0.4926 0.0000 ( 63884 PWs)   bands (ev):

   -66.5811 -66.5805 -66.5805 -66.5803 -66.5799 -66.5797 -66.5796 -66.5790
   -30.9281 -30.9257 -30.9241 -30.9210 -30.9121 -30.9100 -30.9082 -30.9068
   -30.9015 -30.8996 -30.8988 -30.8984 -30.8972 -30.8967 -30.8963 -30.8947
   -30.8452 -30.8420 -30.8387 -30.8359 -30.8306 -30.8265 -30.8257 -30.8217
   -20.7492 -20.7491 -20.7491 -20.7490 -20.7483 -20.7482 -20.7482 -20.7481
   -20.7250 -20.7245 -20.7245 -20.7238 -20.7236 -20.7232 -20.7228 -20.7224
   -20.7223 -20.7221 -20.7219 -20.7217 -20.7214 -20.7214 -20.7213 -20.7211
   -20.7208 -20.7208 -20.7205 -20.7201 -20.7199 -20.7197 -20.7193 -20.7190
   -20.7188 -20.7183 -20.7173 -20.7169 -20.7159 -20.7155 -20.7152 -20.7151
   -20.7150 -20.7138 -20.7136 -20.7136 -20.7130 -20.7118 -20.7115 -20.7101
   -20.7092 -20.7085 -20.7080 -20.7079 -20.7077 -20.7071 -20.7071 -20.7059
   -10.0432 -10.0387  -9.7532  -9.7190  -9.6555  -9.6213  -9.3599  -9.3558
    -8.9177  -8.9174  -8.8762  -8.8735  -8.8660  -8.8644  -8.8628  -8.8614
    -8.2140  -8.1824  -8.1622  -8.1323  -8.0766  -8.0470  -8.0282  -7.9977
     0.7828   0.8023   0.8245   0.8490   1.1108   1.1358   1.2393   1.2573
     2.3056   2.3058   2.7632   2.7718   2.8322   2.8522   2.8702   2.9044
     2.9154   2.9318   2.9368   3.0081   3.0983   3.1453   3.1646   3.2093
     3.2808   3.2877   3.9971   4.0008   4.2983   4.3198   4.4914   4.5323
     4.6350   4.6352   4.7067   4.7205   4.8943   4.8975   5.1720   5.1729
     5.4267   5.4268   5.4502   5.4614   5.7925   5.8093   5.8244   5.8816
     5.9936   5.9955   6.0393   6.1332   6.2207   6.2636   6.4461   6.4858
     6.5994   6.6167   6.6312   6.6590   6.6625   6.6963   7.1938   7.1988
     7.2208   7.2209   7.2267   7.2356   7.2430   7.2612   7.8038   7.8061
     9.1276   9.1391  10.7059  10.7406  10.7472  10.7806  10.8619  10.8876
    10.9010  10.9404  12.0036  12.0535  12.2350  12.2870  12.6780  12.6895
    12.7538  12.7570  12.9092  12.9336  12.9560  12.9616  13.3224  13.3293
    14.4973  14.5155  15.1107  15.1641  15.3548  15.3654  15.5226  15.5637
    16.2774  16.2805  17.3735  17.3843  17.4188

          k = 0.1667-0.4926 0.1666 ( 63824 PWs)   bands (ev):

   -66.5811 -66.5805 -66.5805 -66.5803 -66.5799 -66.5797 -66.5797 -66.5791
   -30.9253 -30.9231 -30.9213 -30.9192 -30.9094 -30.9077 -30.9071 -30.9042
   -30.9000 -30.8989 -30.8983 -30.8977 -30.8971 -30.8969 -30.8959 -30.8949
   -30.8449 -30.8444 -30.8426 -30.8414 -30.8313 -30.8304 -30.8272 -30.8268
   -20.7492 -20.7491 -20.7491 -20.7490 -20.7483 -20.7482 -20.7482 -20.7481
   -20.7250 -20.7245 -20.7245 -20.7238 -20.7235 -20.7231 -20.7229 -20.7223
   -20.7223 -20.7221 -20.7220 -20.7217 -20.7215 -20.7215 -20.7213 -20.7211
   -20.7209 -20.7207 -20.7205 -20.7200 -20.7199 -20.7196 -20.7193 -20.7190
   -20.7188 -20.7184 -20.7173 -20.7169 -20.7158 -20.7152 -20.7151 -20.7147
   -20.7147 -20.7139 -20.7134 -20.7132 -20.7129 -20.7119 -20.7114 -20.7102
   -20.7091 -20.7090 -20.7085 -20.7081 -20.7080 -20.7076 -20.7070 -20.7060
    -9.9862  -9.9862  -9.6671  -9.6650  -9.6337  -9.6312  -9.3226  -9.3222
    -8.9246  -8.9243  -8.8715  -8.8701  -8.8676  -8.8664  -8.8603  -8.8598
    -8.2120  -8.2102  -8.1785  -8.1783  -8.1713  -8.1707  -8.1231  -8.1216
     0.9840   0.9850   1.0979   1.1116   1.1233   1.1377   1.3318   1.3336
[...]
    10.9069  10.9069  10.9235  10.9235  11.0884  11.0884  11.1019  11.1019
    11.6154  11.6154  11.6178  11.6178  11.6452  11.6453  11.6466  11.6466
    12.5406  12.5406  12.5465  12.5465  12.7047  12.7047  12.7098  12.7098
    15.2120  15.2120  15.2158  15.2158  16.3958  16.3959  16.4154  16.4154
    17.3844  17.3845  17.4126  17.4126  17.5772

          k =-0.5000 0.3284 0.0000 ( 63836 PWs)   bands (ev):

   -66.5809 -66.5809 -66.5802 -66.5802 -66.5800 -66.5800 -66.5793 -66.5793
   -30.9283 -30.9283 -30.9192 -30.9192 -30.9185 -30.9185 -30.9095 -30.9095
   -30.8897 -30.8897 -30.8870 -30.8870 -30.8770 -30.8770 -30.8746 -30.8746
   -30.8665 -30.8665 -30.8625 -30.8625 -30.8368 -30.8368 -30.8238 -30.8238
   -20.7492 -20.7492 -20.7490 -20.7490 -20.7483 -20.7483 -20.7481 -20.7481
   -20.7248 -20.7248 -20.7243 -20.7243 -20.7237 -20.7237 -20.7228 -20.7228
   -20.7226 -20.7226 -20.7219 -20.7219 -20.7218 -20.7218 -20.7210 -20.7210
   -20.7208 -20.7208 -20.7203 -20.7203 -20.7192 -20.7192 -20.7184 -20.7184
   -20.7171 -20.7171 -20.7165 -20.7165 -20.7156 -20.7156 -20.7151 -20.7151
   -20.7146 -20.7146 -20.7142 -20.7142 -20.7116 -20.7116 -20.7102 -20.7102
   -20.7097 -20.7097 -20.7083 -20.7083 -20.7080 -20.7080 -20.7075 -20.7075
    -9.9196  -9.9196  -9.7713  -9.7713  -9.3724  -9.3724  -9.1857  -9.1857
    -8.9657  -8.9656  -8.9210  -8.9210  -8.8678  -8.8677  -8.8426  -8.8425
    -8.5103  -8.5103  -8.4789  -8.4789  -8.0557  -8.0556  -8.0197  -8.0197
     0.8255   0.8255   0.8527   0.8527   1.8941   1.8941   1.9828   1.9828
     2.5775   2.5775   2.7861   2.7861   2.8113   2.8113   2.8692   2.8692
     2.9109   2.9110   3.0170   3.0170   3.0837   3.0838   3.3732   3.3732
     3.5034   3.5034   3.5398   3.5399   3.8045   3.8046   3.9969   3.9969
     4.4558   4.4558   4.5026   4.5026   4.6363   4.6363   4.7069   4.7069
     4.9422   4.9422   5.3786   5.3786   5.8952   5.8952   5.9480   5.9480
     6.0482   6.0482   6.0908   6.0908   6.1847   6.1847   6.3918   6.3918
     6.7064   6.7064   6.7619   6.7619   6.8379   6.8379   7.1934   7.1934
     7.2211   7.2212   7.2525   7.2526   7.3125   7.3125   7.6061   7.6061
     9.9674   9.9674  10.7288  10.7288  10.7602  10.7602  11.2424  11.2424
    11.2868  11.2868  11.5359  11.5359  12.1910  12.1910  12.2299  12.2299
    12.6472  12.6472  12.7215  12.7215  12.7826  12.7826  13.2802  13.2802
    14.6967  14.6967  15.1011  15.1011  15.8662  15.8663  16.3893  16.3893
    16.6267  16.6267  16.8719  16.8720  17.5127

          k =-0.5000 0.3284 0.1666 ( 63806 PWs)   bands (ev):

   -66.5808 -66.5808 -66.5802 -66.5802 -66.5799 -66.5799 -66.5793 -66.5793
   -30.9257 -30.9257 -30.9191 -30.9191 -30.9159 -30.9159 -30.9041 -30.9040
   -30.8893 -30.8893 -30.8872 -30.8872 -30.8766 -30.8766 -30.8749 -30.8749
   -30.8663 -30.8663 -30.8629 -30.8629 -30.8423 -30.8423 -30.8294 -30.8294
   -20.7492 -20.7492 -20.7490 -20.7490 -20.7483 -20.7483 -20.7481 -20.7481
   -20.7248 -20.7248 -20.7243 -20.7243 -20.7236 -20.7236 -20.7229 -20.7229
   -20.7226 -20.7226 -20.7219 -20.7219 -20.7218 -20.7218 -20.7209 -20.7209
   -20.7209 -20.7209 -20.7203 -20.7203 -20.7192 -20.7192 -20.7184 -20.7184
   -20.7170 -20.7170 -20.7165 -20.7165 -20.7155 -20.7155 -20.7151 -20.7151
   -20.7143 -20.7143 -20.7139 -20.7138 -20.7115 -20.7115 -20.7103 -20.7103
   -20.7097 -20.7097 -20.7085 -20.7085 -20.7084 -20.7084 -20.7080 -20.7080
    -9.8500  -9.8500  -9.6875  -9.6875  -9.3830  -9.3829  -9.1643  -9.1643
    -8.9762  -8.9761  -8.9135  -8.9135  -8.8638  -8.8637  -8.8458  -8.8457
    -8.5082  -8.5082  -8.4836  -8.4836  -8.1848  -8.1848  -8.1488  -8.1488
     1.0976   1.0976   1.1252   1.1252   1.8960   1.8960   1.9800   1.9800
     2.6571   2.6571   2.7919   2.7919   2.8144   2.8145   2.8755   2.8755
     2.9044   2.9044   3.1025   3.1025   3.1504   3.1504   3.4141   3.4141
     3.5088   3.5088   3.5465   3.5465   3.8006   3.8006   4.0026   4.0026
     4.2772   4.2772   4.4277   4.4278   4.4975   4.4975   4.5950   4.5950
     4.6614   4.6614   5.0854   5.0855   5.4659   5.4659   5.6013   5.6013
     6.2848   6.2848   6.3475   6.3475   6.4496   6.4496   6.5012   6.5012
     6.7024   6.7024   6.7601   6.7601   6.8750   6.8751   7.1854   7.1854
     7.2200   7.2201   7.2546   7.2547   7.3064   7.3065   7.5748   7.5749
    10.1321  10.1322  10.8193  10.8193  10.8507  10.8507  11.2555  11.2555
    11.2968  11.2968  11.5950  11.5950  12.1874  12.1874  12.2216  12.2216
    12.4706  12.4706  12.5905  12.5905  12.6255  12.6255  13.1223  13.1223
    15.0435  15.0435  15.4901  15.4901  15.9433  15.9434  16.3798  16.3798
    16.6732  16.6733  16.9164  16.9165  17.4212

          k =-0.5000 0.3284 0.3331 ( 63820 PWs)   bands (ev):

   -66.5807 -66.5807 -66.5803 -66.5803 -66.5798 -66.5798 -66.5795 -66.5795
   -30.9229 -30.9229 -30.9199 -30.9199 -30.9034 -30.9034 -30.8904 -30.8904
   -30.8882 -30.8881 -30.8869 -30.8869 -30.8761 -30.8761 -30.8750 -30.8750
   -30.8665 -30.8665 -30.8639 -30.8639 -30.8563 -30.8563 -30.8447 -30.8447
   -20.7491 -20.7491 -20.7491 -20.7491 -20.7482 -20.7482 -20.7482 -20.7482
   -20.7247 -20.7247 -20.7244 -20.7244 -20.7235 -20.7235 -20.7230 -20.7230
   -20.7225 -20.7225 -20.7221 -20.7221 -20.7216 -20.7216 -20.7211 -20.7211
   -20.7207 -20.7207 -20.7204 -20.7204 -20.7190 -20.7190 -20.7186 -20.7186
   -20.7169 -20.7168 -20.7166 -20.7166 -20.7154 -20.7154 -20.7151 -20.7151
   -20.7133 -20.7133 -20.7128 -20.7128 -20.7112 -20.7112 -20.7106 -20.7106
   -20.7100 -20.7100 -20.7093 -20.7093 -20.7092 -20.7092 -20.7087 -20.7087
    -9.6771  -9.6771  -9.4568  -9.4568  -9.4204  -9.4204  -9.0812  -9.0812
    -9.0193  -9.0192  -8.8865  -8.8864  -8.8590  -8.8589  -8.8466  -8.8466
    -8.5414  -8.5413  -8.4968  -8.4968  -8.4884  -8.4884  -8.4263  -8.4263
     1.7447   1.7447   1.8510   1.8510   1.9018   1.9018   2.0540   2.0540
     2.7907   2.7907   2.8107   2.8108   2.8409   2.8410   2.8831   2.8832
     2.9515   2.9515   3.3185   3.3185   3.3512   3.3512   3.4656   3.4656
     3.5020   3.5020   3.5971   3.5971   3.7504   3.7504   3.8099   3.8099
     3.9075   3.9075   4.0967   4.0968   4.1395   4.1395   4.4272   4.4272
     4.4840   4.4840   4.5989   4.5989   4.6126   4.6126   4.9813   4.9813
     6.5727   6.5727   6.6244   6.6244   6.6847   6.6847   6.7165   6.7165
     6.7760   6.7760   6.8423   6.8424   7.0016   7.0016   7.1575   7.1576
     7.1934   7.1935   7.2689   7.2690   7.2774   7.2775   7.4788   7.4788
    10.5905  10.5906  11.0836  11.0836  11.1323  11.1324  11.2729  11.2729
    11.3428  11.3428  11.7963  11.7963  11.9398  11.9398  12.1076  12.1076
    12.1880  12.1880  12.2520  12.2520  12.2936  12.2936  12.7225  12.7225
    15.8012  15.8012  16.1742  16.1742  16.3185  16.3185  16.4661  16.4661
    16.8736  16.8737  17.0091  17.0091  17.0871

          k =-0.5000 0.3284-0.4997 ( 63812 PWs)   bands (ev):

   -66.5805 -66.5805 -66.5805 -66.5805 -66.5797 -66.5796 -66.5796 -66.5796
   -30.9212 -30.9212 -30.9212 -30.9212 -30.8908 -30.8908 -30.8906 -30.8906
   -30.8813 -30.8813 -30.8811 -30.8811 -30.8764 -30.8764 -30.8756 -30.8755
   -30.8654 -30.8654 -30.8654 -30.8654 -30.8629 -30.8629 -30.8626 -30.8626
   -20.7491 -20.7491 -20.7491 -20.7491 -20.7482 -20.7482 -20.7482 -20.7482
   -20.7246 -20.7246 -20.7245 -20.7245 -20.7232 -20.7232 -20.7232 -20.7232
   -20.7223 -20.7223 -20.7223 -20.7223 -20.7214 -20.7214 -20.7213 -20.7213
   -20.7205 -20.7205 -20.7205 -20.7205 -20.7188 -20.7188 -20.7188 -20.7188
   -20.7167 -20.7167 -20.7167 -20.7167 -20.7153 -20.7153 -20.7152 -20.7151
   -20.7118 -20.7118 -20.7116 -20.7116 -20.7115 -20.7115 -20.7113 -20.7113
   -20.7107 -20.7107 -20.7105 -20.7105 -20.7090 -20.7090 -20.7090 -20.7089
    -9.5100  -9.5100  -9.5090  -9.5090  -9.1724  -9.1724  -9.1695  -9.1694
    -8.9197  -8.9197  -8.9146  -8.9146  -8.7919  -8.7919  -8.7890  -8.7890
    -8.7765  -8.7764  -8.7704  -8.7704  -8.4841  -8.4841  -8.4838  -8.4838
     1.8963   1.8963   1.8968   1.8968   2.6957   2.6957   2.7049   2.7049
     2.7412   2.7413   2.7458   2.7459   2.8930   2.8931   2.9070   2.9070
     2.9666   2.9666   2.9728   2.9728   3.4612   3.4613   3.4620   3.4620
     3.5263   3.5263   3.5408   3.5408   3.6889   3.6889   3.6997   3.6997
     3.8526   3.8526   3.8716   3.8716   3.9245   3.9246   3.9363   3.9363
     4.2910   4.2910   4.2917   4.2917   4.6651   4.6651   4.6664   4.6664
     6.6616   6.6616   6.6685   6.6685   6.7052   6.7052   6.7094   6.7094
     7.0428   7.0428   7.0483   7.0484   7.0732   7.0733   7.0844   7.0844
     7.1818   7.1818   7.1848   7.1849   7.3394   7.3394   7.3474   7.3475
    11.1462  11.1462  11.1527  11.1527  11.3452  11.3452  11.3514  11.3514
    11.6188  11.6189  11.6246  11.6246  11.6539  11.6539  11.6580  11.6580
    12.1525  12.1525  12.1573  12.1573  12.3145  12.3145  12.3199  12.3199
    16.2027  16.2027  16.2091  16.2091  16.5822  16.5822  16.5985  16.5985
    17.1321  17.1322  17.1650  17.1650  17.5749

          k =-0.5000-0.4926 0.0000 ( 63896 PWs)   bands (ev):

   -66.5808 -66.5808 -66.5802 -66.5802 -66.5800 -66.5800 -66.5793 -66.5793
   -30.9261 -30.9261 -30.9101 -30.9101 -30.9061 -30.9061 -30.9027 -30.9027
   -30.9008 -30.9008 -30.8999 -30.8999 -30.8799 -30.8799 -30.8767 -30.8767
   -30.8674 -30.8674 -30.8631 -30.8631 -30.8369 -30.8369 -30.8238 -30.8238
   -20.7492 -20.7492 -20.7490 -20.7490 -20.7483 -20.7483 -20.7481 -20.7481
   -20.7248 -20.7248 -20.7241 -20.7241 -20.7234 -20.7234 -20.7225 -20.7225
   -20.7223 -20.7223 -20.7218 -20.7218 -20.7213 -20.7213 -20.7211 -20.7211
   -20.7210 -20.7210 -20.7202 -20.7202 -20.7199 -20.7199 -20.7191 -20.7191
   -20.7172 -20.7172 -20.7166 -20.7166 -20.7157 -20.7157 -20.7151 -20.7151
   -20.7146 -20.7146 -20.7142 -20.7142 -20.7116 -20.7116 -20.7102 -20.7102
   -20.7097 -20.7097 -20.7083 -20.7083 -20.7080 -20.7080 -20.7075 -20.7075
    -9.8420  -9.8420  -9.8146  -9.8146  -9.1105  -9.1104  -9.0889  -9.0888
    -8.9964  -8.9963  -8.9830  -8.9830  -8.7986  -8.7986  -8.7783  -8.7783
    -8.7628  -8.7628  -8.7412  -8.7411  -8.0531  -8.0531  -8.0225  -8.0225
     0.8280   0.8280   0.8552   0.8552   2.6537   2.6537   2.7273   2.7274
     2.7399   2.7400   2.7979   2.7979   2.8484   2.8484   2.9040   2.9041
     2.9627   2.9627   2.9949   2.9950   3.0112   3.0113   3.0805   3.0805
     3.1491   3.1492   3.3243   3.3243   3.8131   3.8131   3.8892   3.8893
     3.8951   3.8951   3.9667   3.9667   4.6519   4.6519   4.6746   4.6746
     5.0881   5.0881   5.1396   5.1397   5.9152   5.9152   5.9220   5.9220
     6.1218   6.1218   6.1543   6.1543   6.1952   6.1952   6.2195   6.2195
     6.9871   6.9871   7.0201   7.0201   7.0453   7.0453   7.0958   7.0959
     7.1079   7.1079   7.1679   7.1679   7.3657   7.3657   7.3895   7.3895
    10.6460  10.6460  10.6981  10.6981  10.7932  10.7932  10.8396  10.8397
    11.6645  11.6645  11.7073  11.7073  11.7484  11.7484  11.7828  11.7828
    12.6875  12.6875  12.7225  12.7225  12.9572  12.9572  12.9808  12.9808
    14.9409  14.9409  14.9937  14.9937  16.3384  16.3385  16.3821  16.3821
    17.3311  17.3312  17.3453  17.3454  17.4212

          k =-0.5000-0.4926 0.1666 ( 63836 PWs)   bands (ev):

   -66.5808 -66.5808 -66.5802 -66.5802 -66.5800 -66.5800 -66.5794 -66.5794
   -30.9211 -30.9211 -30.9071 -30.9071 -30.9036 -30.9036 -30.9027 -30.9027
   -30.9003 -30.9003 -30.8999 -30.8999 -30.8794 -30.8794 -30.8771 -30.8771
   -30.8672 -30.8672 -30.8635 -30.8634 -30.8425 -30.8425 -30.8295 -30.8295
   -20.7492 -20.7492 -20.7490 -20.7490 -20.7483 -20.7483 -20.7481 -20.7481
   -20.7247 -20.7247 -20.7242 -20.7242 -20.7233 -20.7233 -20.7225 -20.7225
   -20.7222 -20.7222 -20.7218 -20.7218 -20.7214 -20.7214 -20.7211 -20.7211
   -20.7209 -20.7209 -20.7202 -20.7202 -20.7198 -20.7198 -20.7192 -20.7192
   -20.7171 -20.7171 -20.7166 -20.7166 -20.7156 -20.7156 -20.7151 -20.7151
   -20.7143 -20.7143 -20.7139 -20.7139 -20.7115 -20.7115 -20.7103 -20.7103
   -20.7097 -20.7097 -20.7085 -20.7085 -20.7084 -20.7084 -20.7080 -20.7080
    -9.7615  -9.7615  -9.7358  -9.7358  -9.1225  -9.1224  -9.1014  -9.1014
    -8.9834  -8.9833  -8.9709  -8.9708  -8.7965  -8.7965  -8.7762  -8.7762
    -8.7649  -8.7649  -8.7434  -8.7433  -8.1825  -8.1825  -8.1519  -8.1519
     1.1031   1.1031   1.1293   1.1293   2.6594   2.6594   2.7229   2.7229
     2.7487   2.7487   2.7966   2.7966   2.8547   2.8547   2.8991   2.8992
     2.9766   2.9766   3.0484   3.0484   3.0928   3.0928   3.1429   3.1429
     3.2002   3.2002   3.3575   3.3575   3.8156   3.8156   3.8832   3.8832
     3.8965   3.8966   3.9601   3.9602   4.4018   4.4018   4.4464   4.4465
     4.7882   4.7883   4.8438   4.8438   5.4907   5.4907   5.4991   5.4991
     6.3634   6.3634   6.3986   6.3986   6.4359   6.4360   6.4644   6.4645
     6.9782   6.9782   7.0163   7.0163   7.0618   7.0618   7.0887   7.0888
     7.1046   7.1046   7.1732   7.1732   7.3498   7.3499   7.3809   7.3810
    10.7380  10.7380  10.7878  10.7878  10.8960  10.8960  10.9491  10.9491
    11.6684  11.6684  11.7063  11.7063  11.7554  11.7554  11.7765  11.7765
    12.5260  12.5260  12.5902  12.5902  12.7702  12.7702  12.8240  12.8240
    15.3306  15.3306  15.3749  15.3749  16.4095  16.4096  16.4503  16.4503
    17.2964  17.2965  17.3466  17.3467  17.4134

          k =-0.5000-0.4926 0.3331 ( 63784 PWs)   bands (ev):

   -66.5807 -66.5807 -66.5803 -66.5803 -66.5798 -66.5798 -66.5795 -66.5795
   -30.9100 -30.9100 -30.9057 -30.9057 -30.9036 -30.9036 -30.9015 -30.9015
   -30.8950 -30.8950 -30.8898 -30.8898 -30.8783 -30.8783 -30.8772 -30.8772
   -30.8670 -30.8670 -30.8645 -30.8644 -30.8569 -30.8569 -30.8448 -30.8448
   -20.7491 -20.7491 -20.7491 -20.7491 -20.7482 -20.7482 -20.7482 -20.7482
   -20.7246 -20.7246 -20.7243 -20.7243 -20.7231 -20.7231 -20.7227 -20.7227
   -20.7221 -20.7221 -20.7218 -20.7218 -20.7216 -20.7216 -20.7213 -20.7213
   -20.7207 -20.7207 -20.7203 -20.7203 -20.7196 -20.7196 -20.7193 -20.7193
   -20.7169 -20.7169 -20.7167 -20.7167 -20.7154 -20.7154 -20.7152 -20.7151
   -20.7133 -20.7133 -20.7128 -20.7128 -20.7112 -20.7112 -20.7106 -20.7106
   -20.7100 -20.7100 -20.7093 -20.7093 -20.7092 -20.7092 -20.7087 -20.7087
    -9.5447  -9.5447  -9.5261  -9.5261  -9.1683  -9.1683  -9.1505  -9.1505
    -8.9323  -8.9322  -8.9230  -8.9230  -8.7907  -8.7907  -8.7732  -8.7732
    -8.7679  -8.7679  -8.7492  -8.7491  -8.4917  -8.4917  -8.4631  -8.4631
     1.8344   1.8344   1.8575   1.8575   2.6710   2.6710   2.7057   2.7057
     2.7624   2.7624   2.7917   2.7917   2.8632   2.8633   2.9123   2.9123
     3.0342   3.0342   3.0537   3.0537   3.2776   3.2776   3.3461   3.3461
     3.3979   3.3979   3.4966   3.4966   3.7893   3.7893   3.8242   3.8242
     3.8845   3.8845   3.9047   3.9047   3.9829   3.9829   4.0068   4.0068
     4.2813   4.2814   4.3354   4.3355   4.6479   4.6479   4.6541   4.6541
     6.6820   6.6821   6.7497   6.7497   6.7650   6.7650   6.7810   6.7810
     6.9525   6.9525   7.0172   7.0172   7.0539   7.0539   7.0604   7.0604
     7.1399   7.1400   7.1927   7.1928   7.3080   7.3080   7.3410   7.3410
    11.0279  11.0279  11.0682  11.0682  11.2066  11.2066  11.2712  11.2712
    11.6597  11.6597  11.7126  11.7127  11.7485  11.7485  11.7814  11.7814
    12.0985  12.0985  12.2085  12.2085  12.3085  12.3085  12.3887  12.3887
    16.2679  16.2679  16.3170  16.3170  16.6314  16.6314  16.6549  16.6549
    17.1267  17.1268  17.1957  17.1957  17.3999

          k =-0.5000-0.4926-0.4997 ( 63816 PWs)   bands (ev):

   -66.5805 -66.5805 -66.5805 -66.5805 -66.5797 -66.5797 -66.5797 -66.5796
   -30.9049 -30.9049 -30.9047 -30.9047 -30.9036 -30.9036 -30.9036 -30.9036
   -30.8805 -30.8805 -30.8801 -30.8801 -30.8797 -30.8797 -30.8788 -30.8788
   -30.8654 -30.8654 -30.8650 -30.8650 -30.8645 -30.8645 -30.8639 -30.8639
   -20.7491 -20.7491 -20.7491 -20.7491 -20.7482 -20.7482 -20.7482 -20.7482
   -20.7245 -20.7245 -20.7244 -20.7244 -20.7229 -20.7229 -20.7228 -20.7228
   -20.7219 -20.7218 -20.7218 -20.7218 -20.7216 -20.7216 -20.7215 -20.7215
   -20.7205 -20.7205 -20.7204 -20.7204 -20.7195 -20.7195 -20.7194 -20.7194
   -20.7168 -20.7168 -20.7168 -20.7168 -20.7153 -20.7153 -20.7152 -20.7152
   -20.7118 -20.7118 -20.7116 -20.7116 -20.7115 -20.7115 -20.7113 -20.7113
   -20.7107 -20.7107 -20.7105 -20.7105 -20.7090 -20.7090 -20.7090 -20.7090
    -9.2982  -9.2982  -9.2938  -9.2937  -9.2885  -9.2885  -9.2879  -9.2878
    -8.8051  -8.8051  -8.7884  -8.7884  -8.7827  -8.7826  -8.7825  -8.7824
    -8.7728  -8.7728  -8.7612  -8.7611  -8.7604  -8.7603  -8.7510  -8.7509
     2.6437   2.6437   2.6482   2.6482   2.6935   2.6935   2.6976   2.6977
     2.7647   2.7647   2.7667   2.7667   2.8138   2.8139   2.8205   2.8206
     2.9952   2.9952   3.0415   3.0415   3.1096   3.1097   3.1316   3.1317
     3.7637   3.7638   3.7747   3.7747   3.7933   3.7934   3.7983   3.7983
     3.8496   3.8496   3.8574   3.8574   3.8796   3.8797   3.8906   3.8906
     3.9687   3.9687   3.9818   3.9818   4.0238   4.0239   4.0255   4.0256
     6.8513   6.8513   6.8707   6.8707   6.9199   6.9199   6.9518   6.9518
     6.9647   6.9648   6.9770   6.9771   7.0082   7.0083   7.0127   7.0128
     7.2278   7.2278   7.2314   7.2315   7.2526   7.2526   7.2649   7.2650
    11.4432  11.4432  11.4484  11.4484  11.4745  11.4745  11.4796  11.4796
    11.6756  11.6756  11.7038  11.7038  11.7593  11.7593  11.7895  11.7895
    11.8207  11.8207  11.8461  11.8461  11.8866  11.8866  11.8978  11.8978
    16.8116  16.8117  16.8163  16.8164  16.8489  16.8489  16.8727  16.8727
    17.3673  17.3674  17.3810  17.3822  17.3827

     the Fermi energy is     9.0475 ev

!    total energy              =   -6260.96193806 Ry
     Harris-Foulkes estimate   =   -6260.96193807 Ry
     estimated scf accuracy    <          3.3E-09 Ry

     The total energy is the sum of the following terms:

     one-electron contribution =   -4829.40125185 Ry
     hartree contribution      =    2646.32760709 Ry
     xc contribution           =    -965.89624023 Ry
     ewald contribution        =   -3111.99203712 Ry
     smearing contrib. (-TS)   =      -0.00001595 Ry

     convergence has been achieved in  14 iterations

     Writing output data file Landau_16.save
 
     init_run     :     28.28s CPU     30.07s WALL (       1 calls)
     electrons    :   1582.72s CPU   1619.46s WALL (       1 calls)

     Called by init_run:
     wfcinit      :     25.70s CPU     27.35s WALL (       1 calls)
     potinit      :      0.99s CPU      1.03s WALL (       1 calls)

     Called by electrons:
     c_bands      :   1394.93s CPU   1428.79s WALL (      14 calls)
     sum_band     :    169.53s CPU    171.37s WALL (      14 calls)
     v_of_rho     :      1.22s CPU      1.26s WALL (      15 calls)
     mix_rho      :      2.18s CPU      2.80s WALL (      14 calls)

     Called by c_bands:
     init_us_2    :      7.87s CPU      8.60s WALL (      58 calls)
     cegterg      :    858.19s CPU    889.55s WALL (      28 calls)

     Called by sum_band:

     Called by *egterg:
     h_psi        :    688.29s CPU    693.55s WALL (     127 calls)
     g_psi        :      1.49s CPU      1.49s WALL (      97 calls)
     cdiaghg      :     12.55s CPU     12.61s WALL (     125 calls)

     Called by h_psi:
     h_psi:pot    :    683.79s CPU    688.80s WALL (     127 calls)
     h_psi:calbec :     70.85s CPU     73.37s WALL (     127 calls)
     vloc_psi     :    537.09s CPU    539.00s WALL (     127 calls)
     add_vuspsi   :     75.84s CPU     76.43s WALL (     127 calls)

     General routines
     calbec       :     70.85s CPU     73.37s WALL (     127 calls)
     fft          :      0.90s CPU      0.90s WALL (      60 calls)
     fftw         :    559.90s CPU    561.51s WALL (   36148 calls)
 
     Parallel routines
 
     PWSCF        : 27m 4.76s CPU    27m49.21s WALL

 
   This run was terminated on:   4:28: 9  25Mar2020            

=------------------------------------------------------------------------------=
   JOB DONE.
=------------------------------------------------------------------------------=
