
     Program PWSCF v.6.4.1 starts on 16Dec2019 at 21:49:50 

     This program is part of the open-source Quantum ESPRESSO suite
     for quantum simulation of materials; please cite
         "P. Giannozzi et al., J. Phys.:Condens. Matter 21 395502 (2009);
         "P. Giannozzi et al., J. Phys.:Condens. Matter 29 465901 (2017);
          URL http://www.quantum-espresso.org", 
     in publications or presentations arising from this work. More details at
     http://www.quantum-espresso.org/quote

     Parallel version (MPI), running on    40 processors

     MPI processes distributed on     2 nodes
     K-points division:     npool     =      40
     Reading input from scf.in

     Current dimensions of program PWSCF are:
     Max number of different atomic species (ntypx) = 10
     Max number of k-points (npk) =  40000
     Max angular momentum in pseudopotentials (lmaxx) =  3

     Subspace diagonalization in iterative solution of the eigenvalue problem:
     a serial algorithm will be used

     Message from routine setup:
     using ibrav=0 with symmetry is DISCOURAGED, use correct ibrav instead
 
     G-vector sticks info
     --------------------
     sticks:   dense  smooth     PW     G-vecs:    dense   smooth      PW
     Sum        7581    7581   2019               491005   491005   68029
 


     bravais-lattice index     =            0
     lattice parameter (alat)  =      13.8141  a.u.
     unit-cell volume          =    2764.7179 (a.u.)^3
     number of atoms/cell      =           32
     number of atomic types    =            2
     number of electrons       =       368.10
     number of Kohn-Sham states=          221
     kinetic-energy cutoff     =     120.0000  Ry
     charge density cutoff     =     480.0000  Ry
     convergence threshold     =      1.0E-08
     mixing beta               =       0.7000
     number of iterations used =            8  plain     mixing
     Exchange-correlation      = SLA PW NOGX NOGC ( 1  4  0  0 0 0)

     celldm(1)=  13.814133  celldm(2)=   0.000000  celldm(3)=   0.000000
     celldm(4)=   0.000000  celldm(5)=   0.000000  celldm(6)=   0.000000

     crystal axes: (cart. coord. in units of alat)
               a(1) = (   1.000000   0.000000   0.000000 )  
               a(2) = (   0.000000   1.039858   0.000000 )  
               a(3) = (   0.000000   0.000000   1.008570 )  

     reciprocal axes: (cart. coord. in units 2 pi/alat)
               b(1) = (  1.000000  0.000000  0.000000 )  
               b(2) = (  0.000000  0.961670  0.000000 )  
               b(3) = (  0.000000  0.000000  0.991503 )  


     PseudoPot. # 1 for W  read from file:
     /cluster/scratch/mnoe/QE/pps/W_ONCV_LDA-4.0.upf
     MD5 check sum: ba0307d5d4cd419d6f1d13dc49d7c13a
     Pseudo is Norm-conserving + core correction, Zval = 28.0
     Generated using ONCVPSP code by D. R. Hamann
     Using radial grid of 1380 points,  8 beta functions with: 
                l(1) =   0
                l(2) =   0
                l(3) =   1
                l(4) =   1
                l(5) =   2
                l(6) =   2
                l(7) =   3
                l(8) =   3

     PseudoPot. # 2 for O  read from file:
     /cluster/scratch/mnoe/QE/pps/O_ONCV_LDA-3.0.upf
     MD5 check sum: b55cdb4f45ae2203d24ad12cf8d61a31
     Pseudo is Norm-conserving + core correction, Zval =  6.0
     Generated using ONCVPSP code by D. R. Hamann
     Using radial grid of  926 points,  5 beta functions with: 
                l(1) =   0
                l(2) =   0
                l(3) =   1
                l(4) =   1
                l(5) =   2

     atomic species   valence    mass     pseudopotential
        W             28.00   183.84000     W ( 1.00)
        O              6.00    15.99940     O ( 1.00)

      8 Sym. Ops., with inversion, found ( 6 have fractional translation)



   Cartesian axes

     site n.     atom                  positions (alat units)
         1           W   tau(   1) = (   0.2315000   0.2930943   0.0176197  )
         2           W   tau(   2) = (   0.7685000   0.7467633   0.9909503  )
         3           W   tau(   3) = (   0.2685000   0.2268345   0.5219047  )
         4           W   tau(   4) = (   0.7315000   0.8130230   0.4866653  )
         5           W   tau(   5) = (   0.7685000   0.2930943   0.4866653  )
         6           W   tau(   6) = (   0.2315000   0.7467633   0.5219047  )
         7           W   tau(   7) = (   0.7315000   0.2268345   0.9909503  )
         8           W   tau(   8) = (   0.2685000   0.8130230   0.0176197  )
         9           O   tau(   9) = (   0.2158700   0.0086516   0.0054765  )
        10           O   tau(  10) = (   0.7841300   1.0312060   1.0030935  )
        11           O   tau(  11) = (   0.2841300   0.5112772   0.5097615  )
        12           O   tau(  12) = (   0.7158700   0.5285804   0.4988085  )
        13           O   tau(  13) = (   0.7841300   0.0086516   0.4988085  )
        14           O   tau(  14) = (   0.2158700   1.0312060   0.5097615  )
        15           O   tau(  15) = (   0.7158700   0.5112772   1.0030935  )
        16           O   tau(  16) = (   0.2841300   0.5285804   0.0054765  )
        17           O   tau(  17) = (   0.5050600   0.2235590   0.4533926  )
        18           O   tau(  18) = (   0.4949400   0.8162986   0.5551774  )
        19           O   tau(  19) = (   0.9949400   0.2963698   0.9576776  )
        20           O   tau(  20) = (   0.0050600   0.7434878   0.0508925  )
        21           O   tau(  21) = (   0.4949400   0.2235590   0.0508925  )
        22           O   tau(  22) = (   0.5050600   0.8162986   0.9576776  )
        23           O   tau(  23) = (   0.0050600   0.2963698   0.5551774  )
        24           O   tau(  24) = (   0.9949400   0.7434878   0.4533926  )
        25           O   tau(  25) = (   0.6995400   0.2520199   0.7486918  )
        26           O   tau(  26) = (   0.3004600   0.7878377   0.2598782  )
        27           O   tau(  27) = (   0.8004600   0.2679089   0.2444069  )
        28           O   tau(  28) = (   0.1995400   0.7719487   0.7641632  )
        29           O   tau(  29) = (   0.3004600   0.2520199   0.7641632  )
        30           O   tau(  30) = (   0.6995400   0.7878377   0.2444069  )
        31           O   tau(  31) = (   0.1995400   0.2679089   0.2598782  )
        32           O   tau(  32) = (   0.8004600   0.7719487   0.7486918  )

     number of k points=    64  gaussian smearing, width (Ry)=  0.0007
                       cart. coord. in units 2pi/alat
        k(    1) = (   0.0000000   0.0000000   0.0000000), wk =   0.0092593
        k(    2) = (   0.0000000   0.0000000   0.1652505), wk =   0.0185185
        k(    3) = (   0.0000000   0.0000000   0.3305009), wk =   0.0185185
        k(    4) = (   0.0000000   0.0000000  -0.4957514), wk =   0.0092593
        k(    5) = (   0.0000000   0.1602784   0.0000000), wk =   0.0185185
        k(    6) = (   0.0000000   0.1602784   0.1652505), wk =   0.0370370
        k(    7) = (   0.0000000   0.1602784   0.3305009), wk =   0.0370370
        k(    8) = (   0.0000000   0.1602784  -0.4957514), wk =   0.0185185
        k(    9) = (   0.0000000   0.3205567   0.0000000), wk =   0.0185185
        k(   10) = (   0.0000000   0.3205567   0.1652505), wk =   0.0370370
        k(   11) = (   0.0000000   0.3205567   0.3305009), wk =   0.0370370
        k(   12) = (   0.0000000   0.3205567  -0.4957514), wk =   0.0185185
        k(   13) = (   0.0000000  -0.4808351   0.0000000), wk =   0.0092593
        k(   14) = (   0.0000000  -0.4808351   0.1652505), wk =   0.0185185
        k(   15) = (   0.0000000  -0.4808351   0.3305009), wk =   0.0185185
        k(   16) = (   0.0000000  -0.4808351  -0.4957514), wk =   0.0092593
        k(   17) = (   0.1666667   0.0000000   0.0000000), wk =   0.0185185
        k(   18) = (   0.1666667   0.0000000   0.1652505), wk =   0.0370370
        k(   19) = (   0.1666667   0.0000000   0.3305009), wk =   0.0370370
        k(   20) = (   0.1666667   0.0000000  -0.4957514), wk =   0.0185185
        k(   21) = (   0.1666667   0.1602784   0.0000000), wk =   0.0370370
        k(   22) = (   0.1666667   0.1602784   0.1652505), wk =   0.0740741
        k(   23) = (   0.1666667   0.1602784   0.3305009), wk =   0.0740741
        k(   24) = (   0.1666667   0.1602784  -0.4957514), wk =   0.0370370
        k(   25) = (   0.1666667   0.3205567   0.0000000), wk =   0.0370370
        k(   26) = (   0.1666667   0.3205567   0.1652505), wk =   0.0740741
        k(   27) = (   0.1666667   0.3205567   0.3305009), wk =   0.0740741
        k(   28) = (   0.1666667   0.3205567  -0.4957514), wk =   0.0370370
        k(   29) = (   0.1666667  -0.4808351   0.0000000), wk =   0.0185185
        k(   30) = (   0.1666667  -0.4808351   0.1652505), wk =   0.0370370
        k(   31) = (   0.1666667  -0.4808351   0.3305009), wk =   0.0370370
        k(   32) = (   0.1666667  -0.4808351  -0.4957514), wk =   0.0185185
        k(   33) = (   0.3333333   0.0000000   0.0000000), wk =   0.0185185
        k(   34) = (   0.3333333   0.0000000   0.1652505), wk =   0.0370370
        k(   35) = (   0.3333333   0.0000000   0.3305009), wk =   0.0370370
        k(   36) = (   0.3333333   0.0000000  -0.4957514), wk =   0.0185185
        k(   37) = (   0.3333333   0.1602784   0.0000000), wk =   0.0370370
        k(   38) = (   0.3333333   0.1602784   0.1652505), wk =   0.0740741
        k(   39) = (   0.3333333   0.1602784   0.3305009), wk =   0.0740741
        k(   40) = (   0.3333333   0.1602784  -0.4957514), wk =   0.0370370
        k(   41) = (   0.3333333   0.3205567   0.0000000), wk =   0.0370370
        k(   42) = (   0.3333333   0.3205567   0.1652505), wk =   0.0740741
        k(   43) = (   0.3333333   0.3205567   0.3305009), wk =   0.0740741
        k(   44) = (   0.3333333   0.3205567  -0.4957514), wk =   0.0370370
        k(   45) = (   0.3333333  -0.4808351   0.0000000), wk =   0.0185185
        k(   46) = (   0.3333333  -0.4808351   0.1652505), wk =   0.0370370
        k(   47) = (   0.3333333  -0.4808351   0.3305009), wk =   0.0370370
        k(   48) = (   0.3333333  -0.4808351  -0.4957514), wk =   0.0185185
        k(   49) = (  -0.5000000   0.0000000   0.0000000), wk =   0.0092593
        k(   50) = (  -0.5000000   0.0000000   0.1652505), wk =   0.0185185
        k(   51) = (  -0.5000000   0.0000000   0.3305009), wk =   0.0185185
        k(   52) = (  -0.5000000   0.0000000  -0.4957514), wk =   0.0092593
        k(   53) = (  -0.5000000   0.1602784   0.0000000), wk =   0.0185185
        k(   54) = (  -0.5000000   0.1602784   0.1652505), wk =   0.0370370
        k(   55) = (  -0.5000000   0.1602784   0.3305009), wk =   0.0370370
        k(   56) = (  -0.5000000   0.1602784  -0.4957514), wk =   0.0185185
        k(   57) = (  -0.5000000   0.3205567   0.0000000), wk =   0.0185185
        k(   58) = (  -0.5000000   0.3205567   0.1652505), wk =   0.0370370
        k(   59) = (  -0.5000000   0.3205567   0.3305009), wk =   0.0370370
        k(   60) = (  -0.5000000   0.3205567  -0.4957514), wk =   0.0185185
        k(   61) = (  -0.5000000  -0.4808351   0.0000000), wk =   0.0092593
        k(   62) = (  -0.5000000  -0.4808351   0.1652505), wk =   0.0185185
        k(   63) = (  -0.5000000  -0.4808351   0.3305009), wk =   0.0185185
        k(   64) = (  -0.5000000  -0.4808351  -0.4957514), wk =   0.0092593

     Dense  grid:   491005 G-vectors     FFT dimensions: ( 100, 108, 100)

     Estimated max dynamical RAM per process >       3.08 GB

     Estimated total dynamical RAM >     123.36 GB

     Initial potential from superposition of free atoms

     starting charge  367.99656, renormalised to  368.10000
     Starting wfcs are  232 randomized atomic wfcs

     total cpu time spent up to now is       36.0 secs

     Self-consistent Calculation

     iteration #  1     ecut=   120.00 Ry     beta= 0.70
     Davidson diagonalization with overlap
     ethr =  1.00E-02,  avg # of iterations =  5.0

     total cpu time spent up to now is      158.7 secs

     total energy              =   -6253.95088207 Ry
     Harris-Foulkes estimate   =   -6264.47521319 Ry
     estimated scf accuracy    <      13.32002034 Ry

     iteration #  2     ecut=   120.00 Ry     beta= 0.70
     Davidson diagonalization with overlap
     ethr =  3.62E-03,  avg # of iterations =  3.4

     total cpu time spent up to now is      274.1 secs

     total energy              =   -6250.78421017 Ry
     Harris-Foulkes estimate   =   -6270.59927215 Ry
     estimated scf accuracy    <      53.22111354 Ry

     iteration #  3     ecut=   120.00 Ry     beta= 0.70
     Davidson diagonalization with overlap
     ethr =  3.62E-03,  avg # of iterations =  3.4

     total cpu time spent up to now is      386.8 secs

     total energy              =   -6261.01151251 Ry
     Harris-Foulkes estimate   =   -6261.28891147 Ry
     estimated scf accuracy    <       0.89602409 Ry

     iteration #  4     ecut=   120.00 Ry     beta= 0.70
     Davidson diagonalization with overlap
     ethr =  2.43E-04,  avg # of iterations =  2.6

     total cpu time spent up to now is      478.0 secs

     total energy              =   -6261.01482905 Ry
     Harris-Foulkes estimate   =   -6261.08250178 Ry
     estimated scf accuracy    <       0.21243231 Ry

     iteration #  5     ecut=   120.00 Ry     beta= 0.70
     Davidson diagonalization with overlap
     ethr =  5.77E-05,  avg # of iterations =  5.0

     total cpu time spent up to now is      580.3 secs

     total energy              =   -6261.01715360 Ry
     Harris-Foulkes estimate   =   -6261.04714706 Ry
     estimated scf accuracy    <       0.06667572 Ry

     iteration #  6     ecut=   120.00 Ry     beta= 0.70
     Davidson diagonalization with overlap
     ethr =  1.81E-05,  avg # of iterations =  5.3

     total cpu time spent up to now is      688.8 secs

     total energy              =   -6261.03171849 Ry
     Harris-Foulkes estimate   =   -6261.03384761 Ry
     estimated scf accuracy    <       0.00590386 Ry

     iteration #  7     ecut=   120.00 Ry     beta= 0.70
     Davidson diagonalization with overlap
     ethr =  1.60E-06,  avg # of iterations =  4.8

     total cpu time spent up to now is      792.7 secs

     total energy              =   -6261.03234728 Ry
     Harris-Foulkes estimate   =   -6261.03248933 Ry
     estimated scf accuracy    <       0.00028533 Ry

     iteration #  8     ecut=   120.00 Ry     beta= 0.70
     Davidson diagonalization with overlap
     ethr =  7.75E-08,  avg # of iterations =  3.1

     total cpu time spent up to now is      904.0 secs

     total energy              =   -6261.03243188 Ry
     Harris-Foulkes estimate   =   -6261.03244462 Ry
     estimated scf accuracy    <       0.00003949 Ry

     iteration #  9     ecut=   120.00 Ry     beta= 0.70
     Davidson diagonalization with overlap
     ethr =  1.07E-08,  avg # of iterations =  2.3

     total cpu time spent up to now is      998.8 secs

     total energy              =   -6261.03243529 Ry
     Harris-Foulkes estimate   =   -6261.03244033 Ry
     estimated scf accuracy    <       0.00001984 Ry

     iteration # 10     ecut=   120.00 Ry     beta= 0.70
     Davidson diagonalization with overlap
     ethr =  5.39E-09,  avg # of iterations =  1.7

     total cpu time spent up to now is     1084.1 secs

     total energy              =   -6261.03243451 Ry
     Harris-Foulkes estimate   =   -6261.03243689 Ry
     estimated scf accuracy    <       0.00000553 Ry

     iteration # 11     ecut=   120.00 Ry     beta= 0.70
     Davidson diagonalization with overlap
     ethr =  1.50E-09,  avg # of iterations =  2.9

     total cpu time spent up to now is     1175.6 secs

     total energy              =   -6261.03243569 Ry
     Harris-Foulkes estimate   =   -6261.03243573 Ry
     estimated scf accuracy    <       0.00000010 Ry

     iteration # 12     ecut=   120.00 Ry     beta= 0.70
     Davidson diagonalization with overlap
     ethr =  2.69E-11,  avg # of iterations =  2.1

     total cpu time spent up to now is     1284.0 secs

     total energy              =   -6261.03243571 Ry
     Harris-Foulkes estimate   =   -6261.03243572 Ry
     estimated scf accuracy    <       0.00000002 Ry

     iteration # 13     ecut=   120.00 Ry     beta= 0.70
     Davidson diagonalization with overlap
     ethr =  5.66E-12,  avg # of iterations =  2.2

     total cpu time spent up to now is     1381.0 secs

     End of self-consistent calculation

          k = 0.0000 0.0000 0.0000 ( 61379 PWs)   bands (ev):

   -65.8650 -65.8644 -65.8641 -65.8639 -65.8635 -65.8633 -65.8630 -65.8625
   -30.2775 -30.2691 -30.2672 -30.2552 -30.2547 -30.2502 -30.2478 -30.2413
   -30.2367 -30.2247 -30.2184 -30.2011 -30.1957 -30.1888 -30.1852 -30.1591
   -30.1534 -30.1529 -30.1434 -30.1328 -30.1279 -30.1192 -30.1174 -30.1087
   -20.0238 -20.0235 -20.0233 -20.0231 -20.0231 -20.0229 -20.0225 -20.0224
   -20.0040 -20.0037 -20.0036 -20.0036 -20.0034 -20.0033 -20.0033 -20.0030
   -19.9971 -19.9969 -19.9968 -19.9968 -19.9967 -19.9966 -19.9964 -19.9962
   -19.9918 -19.9914 -19.9906 -19.9903 -19.9880 -19.9874 -19.9869 -19.9865
   -19.9864 -19.9862 -19.9853 -19.9849 -19.9820 -19.9820 -19.9807 -19.9805
   -19.9795 -19.9794 -19.9791 -19.9789 -19.9769 -19.9766 -19.9763 -19.9761
   -19.9636 -19.9633 -19.9625 -19.9624 -19.9622 -19.9620 -19.9613 -19.9609
    -9.7100  -9.3837  -9.2589  -9.2464  -8.9538  -8.9068  -8.8259  -8.7233
    -8.6969  -8.6244  -8.5777  -8.5733  -7.7084  -7.6388  -7.5739  -7.5619
    -7.5440  -7.5308  -7.5219  -7.4728  -7.4493  -7.4307  -7.4217  -7.4182
     1.5776   1.5968   1.6364   1.6425   1.6804   1.6850   1.7427   1.8605
     1.8774   1.9719   1.9766   2.1908   2.6220   2.7248   2.7612   2.8256
     2.8995   3.0060   4.3207   4.4337   4.5742   4.8380   4.8416   4.9327
     4.9832   5.0266   5.0304   5.0438   5.3212   5.3931   5.4683   5.5846
     5.7227   5.7985   5.8139   5.8205   5.9088   5.9224   5.9342   6.0152
     6.0330   6.0628   6.0641   6.0995   6.1904   6.2028   6.2358   6.3047
     6.3702   6.4652   6.5185   6.7135   6.7427   6.9261   6.9917   7.0246
     7.0675   7.1115   7.1604   7.2271   7.2282   7.2493   7.3381   7.3790
     7.4896   7.5271   7.8963   7.9327   8.0835   8.1544   8.3415   8.3874
    10.0200  10.0644  10.4121  10.4147  10.5015  10.5091  12.3269  12.4764
    12.5251  12.5847  12.7912  12.8166  12.8251  12.9028  12.9288  13.0157
    13.4524  13.4645  13.4899  13.5804  13.7782  13.8299  14.2717  14.2801
    14.8691  14.9083  15.1600  15.2035  15.6119  15.6705  15.9031  16.0991
    16.2646  16.9491  17.0387  17.2426  17.9163

          k = 0.0000 0.0000 0.1653 ( 61381 PWs)   bands (ev):

   -65.8649 -65.8643 -65.8641 -65.8638 -65.8636 -65.8633 -65.8631 -65.8625
   -30.2762 -30.2677 -30.2673 -30.2553 -30.2499 -30.2451 -30.2447 -30.2409
   -30.2370 -30.2207 -30.2193 -30.1990 -30.1973 -30.1917 -30.1844 -30.1583
   -30.1577 -30.1573 -30.1485 -30.1360 -30.1276 -30.1204 -30.1170 -30.1098
   -20.0237 -20.0235 -20.0232 -20.0231 -20.0230 -20.0229 -20.0226 -20.0224
   -20.0040 -20.0037 -20.0037 -20.0036 -20.0033 -20.0033 -20.0033 -20.0030
   -19.9971 -19.9969 -19.9969 -19.9968 -19.9967 -19.9966 -19.9964 -19.9963
   -19.9917 -19.9913 -19.9906 -19.9903 -19.9878 -19.9872 -19.9869 -19.9864
   -19.9864 -19.9862 -19.9854 -19.9850 -19.9819 -19.9815 -19.9805 -19.9802
   -19.9795 -19.9793 -19.9792 -19.9789 -19.9772 -19.9769 -19.9766 -19.9764
   -19.9635 -19.9633 -19.9625 -19.9624 -19.9621 -19.9621 -19.9614 -19.9610
    -9.6647  -9.3287  -9.2769  -9.1900  -8.9226  -8.8707  -8.8351  -8.6860
    -8.6630  -8.6164  -8.5778  -8.5488  -7.7566  -7.7393  -7.6290  -7.5905
    -7.5809  -7.5788  -7.5391  -7.5242  -7.4739  -7.4524  -7.4378  -7.4268
     1.6579   1.6761   1.6931   1.7441   1.7713   1.7860   1.8561   1.8808
     1.9723   1.9838   2.1000   2.2856   2.7121   2.7688   2.8164   2.8918
     2.9102   3.0886   4.3153   4.3193   4.5820   4.6088   4.6441   4.8198
     4.8282   4.8331   5.0281   5.0693   5.1774   5.3377   5.4927   5.5443
     5.5884   5.6871   5.7082   5.8099   5.8417   5.8576   5.8886   5.9320
     5.9485   6.0756   6.0992   6.1185   6.1524   6.1943   6.2331   6.3756
     6.3760   6.6159   6.6669   6.7298   6.8822   6.9355   6.9536   6.9633
     7.0611   7.0685   7.1407   7.2124   7.2420   7.2422   7.2608   7.2892
     7.3300   7.3839   7.9223   7.9414   8.1011   8.1589   8.2908   8.3430
    10.1997  10.3036  10.4094  10.5031  10.6992  10.7624  12.3666  12.4351
    12.5319  12.5895  12.7412  12.8293  12.8452  12.9286  13.0102  13.0207
    13.3453  13.4672  13.4858  13.5096  13.8311  13.8441  14.1556  14.1857
    14.9318  14.9792  15.1561  15.3089  15.6311  15.7286  15.8730  16.2347
    16.3632  17.0073  17.1043  17.2012  17.9929

          k = 0.0000 0.0000 0.3305 ( 61350 PWs)   bands (ev):

   -65.8647 -65.8643 -65.8642 -65.8637 -65.8637 -65.8632 -65.8631 -65.8627
   -30.2735 -30.2689 -30.2634 -30.2569 -30.2404 -30.2379 -30.2365 -30.2355
   -30.2314 -30.2223 -30.2086 -30.2029 -30.2012 -30.1919 -30.1819 -30.1714
   -30.1671 -30.1619 -30.1556 -30.1434 -30.1266 -30.1228 -30.1159 -30.1120
   -20.0236 -20.0234 -20.0232 -20.0231 -20.0231 -20.0229 -20.0227 -20.0225
   -20.0039 -20.0038 -20.0036 -20.0036 -20.0034 -20.0034 -20.0033 -20.0031
   -19.9971 -19.9969 -19.9969 -19.9968 -19.9967 -19.9965 -19.9965 -19.9963
   -19.9914 -19.9911 -19.9908 -19.9905 -19.9872 -19.9868 -19.9867 -19.9865
   -19.9863 -19.9863 -19.9858 -19.9854 -19.9812 -19.9805 -19.9801 -19.9798
   -19.9795 -19.9793 -19.9791 -19.9786 -19.9781 -19.9776 -19.9776 -19.9772
   -19.9633 -19.9630 -19.9627 -19.9624 -19.9622 -19.9619 -19.9616 -19.9613
    -9.5523  -9.3322  -9.1956  -9.0568  -8.9716  -8.8664  -8.6355  -8.6265
    -8.5900  -8.5430  -8.5316  -8.4393  -8.0037  -8.0009  -7.8962  -7.8780
    -7.6280  -7.5926  -7.5169  -7.5074  -7.4803  -7.4615  -7.4563  -7.4505
     1.6638   1.6687   1.7510   1.7642   1.8274   1.8466   1.9263   1.9656
     2.5378   2.5945   2.6738   2.7824   2.7913   2.8875   2.9632   3.0744
     3.1429   3.3135   3.9403   4.0839   4.0917   4.1629   4.3639   4.4906
     4.6959   4.7406   4.7920   4.8729   4.9799   5.0687   5.1510   5.4027
     5.4540   5.4584   5.4992   5.5638   5.7126   5.7544   5.8131   5.8969
     6.0496   6.1072   6.1301   6.1349   6.2283   6.2304   6.3770   6.3805
     6.4688   6.5992   6.6245   6.6755   6.7694   6.7952   6.8301   6.9837
     7.0011   7.1294   7.1805   7.1985   7.2250   7.2434   7.3329   7.3739
     7.4230   7.5618   7.8973   7.9026   8.1257   8.1327   8.1586   8.1997
    10.3231  10.3920  10.8718  11.0075  11.2376  11.3447  12.1354  12.2418
    12.4490  12.4736  12.6451  12.6557  12.9471  12.9525  13.0406  13.1466
    13.2242  13.3414  13.4187  13.5281  13.8391  13.8693  13.9069  13.9525
    15.0299  15.1425  15.2776  15.5662  15.7698  15.7744  16.1257  16.1423
    16.5048  17.1333  17.6010  17.6259  17.7144

          k = 0.0000 0.0000-0.4958 ( 61312 PWs)   bands (ev):

   -65.8645 -65.8645 -65.8639 -65.8639 -65.8635 -65.8635 -65.8629 -65.8629
   -30.2709 -30.2709 -30.2597 -30.2597 -30.2391 -30.2391 -30.2280 -30.2280
   -30.2173 -30.2173 -30.2149 -30.2149 -30.1904 -30.1904 -30.1786 -30.1786
   -30.1766 -30.1766 -30.1507 -30.1507 -30.1249 -30.1249 -30.1142 -30.1142
   -20.0234 -20.0234 -20.0232 -20.0232 -20.0229 -20.0229 -20.0227 -20.0227
   -20.0039 -20.0038 -20.0035 -20.0035 -20.0035 -20.0035 -20.0032 -20.0032
   -19.9970 -19.9970 -19.9969 -19.9968 -19.9967 -19.9966 -19.9964 -19.9964
   -19.9911 -19.9911 -19.9908 -19.9907 -19.9867 -19.9866 -19.9865 -19.9865
   -19.9864 -19.9864 -19.9859 -19.9859 -19.9803 -19.9803 -19.9797 -19.9797
   -19.9792 -19.9792 -19.9786 -19.9786 -19.9786 -19.9786 -19.9781 -19.9781
   -19.9630 -19.9630 -19.9627 -19.9627 -19.9619 -19.9619 -19.9616 -19.9616
    -9.4275  -9.4275  -9.0613  -9.0613  -8.9346  -8.9346  -8.6064  -8.6064
    -8.3202  -8.3201  -8.3011  -8.3011  -8.2756  -8.2756  -8.2041  -8.2041
    -7.6118  -7.6118  -7.4835  -7.4835  -7.4833  -7.4832  -7.4709  -7.4709
     1.6647   1.6647   1.7626   1.7626   1.8373   1.8373   1.9584   1.9584
     2.8195   2.8195   3.2306   3.2306   3.3394   3.3394   3.3573   3.3573
     3.4582   3.4582   3.5469   3.5469   3.7931   3.7931   4.0021   4.0021
     4.0891   4.0891   4.7551   4.7551   4.9134   4.9134   5.2424   5.2425
     5.4718   5.4718   5.5851   5.5851   5.6119   5.6119   5.8566   5.8566
     6.1227   6.1228   6.2211   6.2211   6.2258   6.2258   6.3883   6.3883
     6.4744   6.4744   6.5383   6.5383   6.7617   6.7617   6.8082   6.8082
     6.9747   6.9747   7.2137   7.2137   7.2155   7.2155   7.6909   7.6910
     7.7164   7.7164   7.8282   7.8283   7.9395   7.9395   8.1509   8.1509
    10.3632  10.3632  11.5481  11.5481  11.6806  11.6806  11.8914  11.8914
    12.0436  12.0436  12.5942  12.5942  13.0548  13.0548  13.1620  13.1620
    13.1729  13.1729  13.5348  13.5348  13.6856  13.6856  13.8676  13.8676
    15.1095  15.1095  15.5813  15.5813  15.9783  15.9783  15.9810  15.9810
    16.8855  16.8855  18.0857  18.0857  18.3701

          k = 0.0000 0.1603 0.0000 ( 61330 PWs)   bands (ev):

   -65.8649 -65.8644 -65.8640 -65.8639 -65.8635 -65.8634 -65.8630 -65.8625
   -30.2747 -30.2664 -30.2639 -30.2555 -30.2507 -30.2505 -30.2477 -30.2422
   -30.2377 -30.2234 -30.2171 -30.1992 -30.1992 -30.1912 -30.1883 -30.1628
   -30.1534 -30.1530 -30.1431 -30.1343 -30.1275 -30.1187 -30.1185 -30.1098
   -20.0237 -20.0235 -20.0233 -20.0231 -20.0230 -20.0229 -20.0226 -20.0224
   -20.0040 -20.0037 -20.0036 -20.0036 -20.0034 -20.0033 -20.0033 -20.0030
   -19.9971 -19.9969 -19.9968 -19.9968 -19.9966 -19.9966 -19.9964 -19.9963
   -19.9915 -19.9911 -19.9902 -19.9899 -19.9882 -19.9876 -19.9868 -19.9865
   -19.9864 -19.9863 -19.9856 -19.9852 -19.9820 -19.9820 -19.9808 -19.9807
   -19.9794 -19.9794 -19.9791 -19.9790 -19.9769 -19.9767 -19.9762 -19.9761
   -19.9636 -19.9634 -19.9625 -19.9623 -19.9622 -19.9621 -19.9613 -19.9610
    -9.6776  -9.3973  -9.2156  -9.2077  -8.9618  -8.9172  -8.7500  -8.7210
    -8.6986  -8.5787  -8.5406  -8.5358  -7.7490  -7.6564  -7.6382  -7.6100
    -7.5940  -7.5602  -7.5530  -7.5460  -7.4711  -7.4467  -7.4384  -7.4215
     1.5781   1.5944   1.6373   1.6475   1.7170   1.7428   1.8097   1.9707
     2.0530   2.0942   2.1752   2.3277   2.6324   2.7171   2.8383   2.9109
     2.9719   3.0903   4.1806   4.3067   4.3250   4.5152   4.7677   4.9099
     4.9570   5.0208   5.0485   5.1058   5.2463   5.2710   5.4107   5.5501
     5.6518   5.7811   5.8163   5.8312   5.8435   5.9231   5.9243   5.9709
     5.9792   6.0320   6.0326   6.1250   6.1329   6.2249   6.2465   6.2904
     6.3203   6.4364   6.5687   6.7300   6.8223   6.9180   6.9460   7.0315
     7.1107   7.1277   7.1440   7.1775   7.1802   7.2040   7.3484   7.3775
     7.5080   7.5240   7.8953   7.9297   8.0839   8.1289   8.3027   8.3095
    10.0500  10.0678  10.6025  10.6148  10.6257  10.6519  12.2738  12.4902
    12.5514  12.5885  12.7407  12.7716  12.7897  12.8010  12.8514  12.9016
    13.4264  13.4678  13.5054  13.5278  13.8479  13.8815  14.1730  14.1895
    15.0170  15.0915  15.2815  15.3436  15.6061  15.6655  16.0834  16.2294
    16.2829  16.7297  17.1819  17.3829  17.8887

          k = 0.0000 0.1603 0.1653 ( 61375 PWs)   bands (ev):

   -65.8649 -65.8644 -65.8641 -65.8638 -65.8636 -65.8633 -65.8631 -65.8626
   -30.2732 -30.2647 -30.2640 -30.2512 -30.2503 -30.2455 -30.2446 -30.2417
   -30.2380 -30.2198 -30.2180 -30.2006 -30.1972 -30.1939 -30.1876 -30.1620
   -30.1578 -30.1575 -30.1482 -30.1377 -30.1271 -30.1199 -30.1181 -30.1109
   -20.0237 -20.0235 -20.0232 -20.0231 -20.0230 -20.0229 -20.0226 -20.0224
   -20.0040 -20.0037 -20.0037 -20.0036 -20.0034 -20.0033 -20.0033 -20.0030
   -19.9971 -19.9969 -19.9968 -19.9968 -19.9967 -19.9966 -19.9965 -19.9963
   -19.9914 -19.9910 -19.9903 -19.9900 -19.9880 -19.9874 -19.9868 -19.9865
   -19.9864 -19.9863 -19.9857 -19.9853 -19.9818 -19.9815 -19.9807 -19.9804
   -19.9795 -19.9793 -19.9792 -19.9789 -19.9772 -19.9769 -19.9766 -19.9764
   -19.9635 -19.9633 -19.9624 -19.9624 -19.9622 -19.9621 -19.9613 -19.9611
    -9.6310  -9.3425  -9.2337  -9.1472  -8.9332  -8.8787  -8.7592  -8.6844
    -8.6645  -8.5712  -8.5423  -8.5139  -7.7790  -7.7378  -7.6777  -7.6517
    -7.6224  -7.5889  -7.5718  -7.5570  -7.5419  -7.5282  -7.4546  -7.4301
     1.6901   1.6931   1.7155   1.7441   1.8603   1.8815   1.8930   2.0588
     2.0992   2.1224   2.1708   2.3840   2.7227   2.8071   2.8468   2.9647
     2.9960   3.1716   4.1881   4.2561   4.3587   4.4888   4.6104   4.6283
     4.7643   4.8857   5.0070   5.0339   5.0703   5.2555   5.4148   5.4554
     5.5416   5.5908   5.7438   5.7680   5.7944   5.8619   5.8715   5.9360
     5.9448   6.0162   6.0415   6.1139   6.1437   6.1439   6.2380   6.2976
     6.4412   6.5513   6.6854   6.7974   6.9072   6.9705   6.9715   7.0283
     7.0349   7.0854   7.1251   7.1738   7.1909   7.2018   7.2673   7.2959
     7.3680   7.3826   7.9203   7.9389   8.0935   8.1358   8.2534   8.2736
    10.2809  10.3113  10.6107  10.6428  10.8157  10.8723  12.3256  12.4411
    12.5354  12.6209  12.6973  12.7749  12.8371  12.8540  12.8840  12.9377
    13.3243  13.4338  13.4387  13.5112  13.8475  13.9256  14.0540  14.0987
    15.0675  15.2069  15.2943  15.4280  15.6231  15.7331  16.1992  16.2533
    16.3464  16.8845  17.1384  17.3249  17.9422

          k = 0.0000 0.1603 0.3305 ( 61360 PWs)   bands (ev):

   -65.8647 -65.8643 -65.8642 -65.8638 -65.8636 -65.8632 -65.8632 -65.8627
   -30.2703 -30.2657 -30.2599 -30.2529 -30.2416 -30.2389 -30.2364 -30.2356
   -30.2321 -30.2214 -30.2080 -30.2056 -30.2027 -30.1905 -30.1848 -30.1714
   -30.1680 -30.1615 -30.1590 -30.1458 -30.1261 -30.1223 -30.1170 -30.1131
   -20.0236 -20.0234 -20.0232 -20.0231 -20.0230 -20.0229 -20.0228 -20.0226
   -20.0039 -20.0037 -20.0036 -20.0036 -20.0034 -20.0034 -20.0033 -20.0031
   -19.9971 -19.9969 -19.9969 -19.9968 -19.9967 -19.9966 -19.9965 -19.9964
   -19.9911 -19.9908 -19.9905 -19.9902 -19.9874 -19.9870 -19.9867 -19.9865
   -19.9865 -19.9863 -19.9861 -19.9856 -19.9811 -19.9805 -19.9803 -19.9797
   -19.9797 -19.9793 -19.9791 -19.9787 -19.9781 -19.9777 -19.9776 -19.9772
   -19.9633 -19.9631 -19.9627 -19.9624 -19.9622 -19.9619 -19.9616 -19.9613
    -9.5154  -9.2900  -9.2095  -9.0008  -8.9831  -8.7914  -8.6437  -8.6027
    -8.5541  -8.5448  -8.5116  -8.4178  -8.0095  -7.9986  -7.9081  -7.8754
    -7.6891  -7.6664  -7.5834  -7.5627  -7.5373  -7.5202  -7.4768  -7.4538
     1.7148   1.7243   1.7507   1.7636   2.0219   2.0371   2.1151   2.1637
     2.5372   2.5990   2.6769   2.7981   2.8673   2.9537   2.9752   3.0686
     3.2284   3.3882   3.9506   4.0566   4.1038   4.1196   4.3657   4.4164
     4.5200   4.7044   4.7185   4.7709   4.8044   4.9794   5.0006   5.2699
     5.2942   5.4324   5.4549   5.4812   5.6735   5.7663   5.8202   5.9402
     5.9945   6.0112   6.0597   6.0853   6.1034   6.2374   6.2837   6.3308
     6.5461   6.5850   6.7489   6.7671   6.7848   6.8813   6.9574   6.9578
     7.0216   7.1086   7.1547   7.1702   7.1949   7.2160   7.3564   7.3739
     7.4434   7.5552   7.8957   7.9006   8.0994   8.1140   8.1364   8.1478
    10.5283  10.5994  10.8836  11.0205  11.3221  11.4136  12.1417  12.2390
    12.4680  12.4714  12.6812  12.6846  12.8724  12.8805  12.9501  13.0536
    13.0983  13.3115  13.3807  13.4934  13.7568  13.8542  13.8867  13.9414
    15.1743  15.2500  15.5855  15.6807  15.7530  16.0986  16.1084  16.2056
    16.6351  17.1114  17.3664  17.6724  17.7975

          k = 0.0000 0.1603-0.4958 ( 61400 PWs)   bands (ev):

   -65.8645 -65.8645 -65.8640 -65.8640 -65.8634 -65.8634 -65.8629 -65.8629
   -30.2677 -30.2677 -30.2558 -30.2558 -30.2401 -30.2401 -30.2274 -30.2274
   -30.2182 -30.2181 -30.2164 -30.2164 -30.1902 -30.1902 -30.1786 -30.1786
   -30.1777 -30.1777 -30.1537 -30.1537 -30.1245 -30.1245 -30.1153 -30.1153
   -20.0234 -20.0234 -20.0232 -20.0232 -20.0229 -20.0229 -20.0227 -20.0227
   -20.0038 -20.0038 -20.0035 -20.0035 -20.0035 -20.0035 -20.0032 -20.0032
   -19.9970 -19.9970 -19.9968 -19.9968 -19.9967 -19.9967 -19.9965 -19.9965
   -19.9908 -19.9908 -19.9904 -19.9904 -19.9868 -19.9868 -19.9866 -19.9866
   -19.9866 -19.9866 -19.9860 -19.9860 -19.9803 -19.9803 -19.9797 -19.9797
   -19.9792 -19.9792 -19.9786 -19.9786 -19.9786 -19.9786 -19.9782 -19.9782
   -19.9630 -19.9630 -19.9627 -19.9627 -19.9619 -19.9619 -19.9616 -19.9616
    -9.3872  -9.3872  -9.0741  -9.0741  -8.8647  -8.8647  -8.5712  -8.5712
    -8.3246  -8.3246  -8.2959  -8.2959  -8.2832  -8.2832  -8.1965  -8.1965
    -7.6807  -7.6807  -7.5744  -7.5744  -7.5072  -7.5072  -7.4868  -7.4868
     1.7203   1.7203   1.7622   1.7622   2.0368   2.0368   2.1522   2.1522
     2.8910   2.8910   3.2442   3.2442   3.3497   3.3497   3.3647   3.3647
     3.4553   3.4553   3.5856   3.5856   3.7810   3.7811   4.0167   4.0168
     4.1447   4.1447   4.6450   4.6450   4.6499   4.6499   5.0158   5.0158
     5.3601   5.3601   5.5522   5.5523   5.6116   5.6116   5.8735   5.8735
     6.0205   6.0205   6.0486   6.0486   6.2112   6.2112   6.3797   6.3797
     6.5433   6.5433   6.5971   6.5971   6.8085   6.8085   6.9091   6.9091
     7.0350   7.0350   7.1723   7.1723   7.1803   7.1803   7.6903   7.6903
     7.7150   7.7150   7.8216   7.8216   7.9116   7.9116   8.1284   8.1284
    10.5762  10.5762  11.5561  11.5561  11.6804  11.6804  11.9485  11.9485
    12.0889  12.0889  12.6248  12.6248  12.9138  12.9138  13.0981  13.0981
    13.1535  13.1535  13.4117  13.4117  13.6416  13.6416  13.8841  13.8841
    15.2293  15.2293  15.9219  15.9219  15.9528  15.9528  16.1146  16.1146
    16.9368  16.9368  17.9454  17.9455  18.2152

          k = 0.0000 0.3206 0.0000 ( 61352 PWs)   bands (ev):

   -65.8648 -65.8645 -65.8639 -65.8638 -65.8636 -65.8635 -65.8629 -65.8626
   -30.2677 -30.2602 -30.2567 -30.2558 -30.2516 -30.2478 -30.2445 -30.2409
   -30.2390 -30.2187 -30.2129 -30.2093 -30.1987 -30.1963 -30.1935 -30.1724
   -30.1535 -30.1532 -30.1423 -30.1376 -30.1261 -30.1211 -30.1173 -30.1124
   -20.0236 -20.0234 -20.0234 -20.0232 -20.0229 -20.0228 -20.0227 -20.0225
   -20.0039 -20.0038 -20.0036 -20.0035 -20.0034 -20.0034 -20.0032 -20.0031
   -19.9970 -19.9969 -19.9968 -19.9967 -19.9966 -19.9966 -19.9965 -19.9963
   -19.9907 -19.9903 -19.9893 -19.9890 -19.9888 -19.9883 -19.9868 -19.9868
   -19.9867 -19.9863 -19.9860 -19.9860 -19.9818 -19.9818 -19.9812 -19.9811
   -19.9794 -19.9793 -19.9792 -19.9791 -19.9769 -19.9767 -19.9762 -19.9762
   -19.9635 -19.9634 -19.9624 -19.9623 -19.9623 -19.9621 -19.9612 -19.9610
    -9.5978  -9.4389  -9.1206  -9.1133  -8.9879  -8.9506  -8.7158  -8.7032
    -8.5368  -8.4337  -8.4181  -8.4040  -7.9500  -7.8987  -7.8614  -7.8407
    -7.6371  -7.6313  -7.5567  -7.5509  -7.4662  -7.4508  -7.4503  -7.4302
     1.5799   1.5890   1.6397   1.6472   1.7385   1.7431   1.9290   1.9674
     2.5561   2.6654   2.6801   2.6961   2.7809   2.8933   3.0576   3.1771
     3.1900   3.3625   3.8147   3.8155   4.0049   4.0158   4.3280   4.6527
     4.8149   4.8935   4.9692   5.0367   5.0558   5.1295   5.2823   5.3049
     5.4030   5.4145   5.7059   5.7643   5.7762   5.8410   5.9470   5.9976
     5.9982   6.0275   6.0890   6.1286   6.1701   6.1981   6.2443   6.3152
     6.3549   6.3979   6.5863   6.7059   6.7893   6.8741   7.0010   7.0315
     7.0605   7.1214   7.3240   7.3316   7.3325   7.3469   7.3978   7.3982
     7.5287   7.5363   7.8695   7.9216   8.0072   8.0204   8.0837   8.1332
    10.0730  10.0738  10.9945  11.0838  11.1192  11.1282  12.0162  12.3054
    12.3283  12.4196  12.5968  12.5976  12.6759  12.7521  12.8052  12.8773
    13.4303  13.4983  13.5275  13.5419  13.7432  13.8971  13.9361  13.9856
    15.2758  15.5360  15.5896  15.6097  15.6515  15.9836  16.0207  16.1194
    16.2679  17.2049  17.5344  17.6744  17.8497

          k = 0.0000 0.3206 0.1653 ( 61359 PWs)   bands (ev):

   -65.8648 -65.8645 -65.8640 -65.8637 -65.8637 -65.8634 -65.8629 -65.8627
   -30.2658 -30.2576 -30.2560 -30.2522 -30.2470 -30.2451 -30.2436 -30.2412
   -30.2395 -30.2162 -30.2136 -30.2103 -30.2001 -30.1959 -30.1918 -30.1713
   -30.1579 -30.1579 -30.1472 -30.1415 -30.1257 -30.1207 -30.1185 -30.1134
   -20.0236 -20.0234 -20.0233 -20.0231 -20.0230 -20.0228 -20.0227 -20.0225
   -20.0039 -20.0038 -20.0036 -20.0035 -20.0034 -20.0034 -20.0033 -20.0031
   -19.9970 -19.9969 -19.9968 -19.9967 -19.9966 -19.9966 -19.9965 -19.9964
   -19.9906 -19.9902 -19.9894 -19.9891 -19.9886 -19.9881 -19.9869 -19.9868
   -19.9867 -19.9863 -19.9861 -19.9861 -19.9817 -19.9814 -19.9810 -19.9808
   -19.9794 -19.9792 -19.9792 -19.9790 -19.9772 -19.9770 -19.9766 -19.9765
   -19.9635 -19.9633 -19.9624 -19.9623 -19.9622 -19.9622 -19.9613 -19.9611
    -9.5482  -9.3848  -9.1321  -9.0494  -8.9675  -8.9055  -8.6803  -8.6688
    -8.5457  -8.4288  -8.4209  -8.3910  -7.9533  -7.9062  -7.8630  -7.8471
    -7.7335  -7.7129  -7.5844  -7.5724  -7.5588  -7.5491  -7.4588  -7.4388
     1.6935   1.6965   1.7388   1.7442   1.8834   1.8863   2.0507   2.0965
     2.5763   2.6776   2.7395   2.7781   2.7863   2.9004   3.0640   3.1704
     3.2683   3.4386   3.8183   3.8996   3.9880   4.0221   4.2997   4.5840
     4.6104   4.6782   4.8161   4.9825   5.0352   5.0822   5.1152   5.1422
     5.3428   5.4363   5.5491   5.5888   5.6306   5.7482   5.8127   5.9160
     5.9409   5.9643   6.0188   6.1011   6.1581   6.1684   6.1922   6.3080
     6.5195   6.5827   6.6877   6.7556   6.8264   6.9727   7.0201   7.1147
     7.1217   7.1594   7.2306   7.2473   7.2762   7.2836   7.3412   7.3830
     7.4353   7.4665   7.8914   7.9291   8.0042   8.0295   8.0599   8.1025
    10.3258  10.3291  11.1272  11.1343  11.1503  11.2435  12.0979  12.3093
    12.3770  12.4218  12.5415  12.5554  12.7454  12.7904  12.8373  12.9394
    13.3396  13.3972  13.4385  13.4922  13.7428  13.8066  13.9219  13.9251
    15.3407  15.5731  15.5988  15.7503  15.7569  16.0432  16.0880  16.2756
    16.4383  17.1714  17.5685  17.5907  17.7615

          k = 0.0000 0.3206 0.3305 ( 61381 PWs)   bands (ev):

   -65.8646 -65.8643 -65.8642 -65.8639 -65.8635 -65.8633 -65.8631 -65.8628
   -30.2622 -30.2576 -30.2510 -30.2456 -30.2423 -30.2421 -30.2360 -30.2359
   -30.2348 -30.2183 -30.2140 -30.2071 -30.2056 -30.1921 -30.1860 -30.1713
   -30.1700 -30.1674 -30.1598 -30.1511 -30.1247 -30.1209 -30.1196 -30.1157
   -20.0235 -20.0233 -20.0232 -20.0231 -20.0230 -20.0229 -20.0228 -20.0227
   -20.0039 -20.0037 -20.0037 -20.0035 -20.0035 -20.0034 -20.0033 -20.0032
   -19.9970 -19.9968 -19.9968 -19.9968 -19.9967 -19.9966 -19.9966 -19.9964
   -19.9903 -19.9899 -19.9896 -19.9893 -19.9881 -19.9877 -19.9871 -19.9869
   -19.9866 -19.9864 -19.9862 -19.9862 -19.9810 -19.9805 -19.9804 -19.9800
   -19.9796 -19.9794 -19.9790 -19.9788 -19.9780 -19.9778 -19.9775 -19.9774
   -19.9632 -19.9631 -19.9626 -19.9625 -19.9621 -19.9620 -19.9615 -19.9614
    -9.4250  -9.2523  -9.1895  -9.0197  -8.8657  -8.6728  -8.5828  -8.5695
    -8.5499  -8.4340  -8.4038  -8.3332  -8.0494  -7.9913  -7.9911  -7.9010
    -7.8746  -7.8670  -7.8384  -7.7716  -7.5478  -7.5289  -7.4824  -7.4625
     1.7423   1.7501   1.7554   1.7626   2.4479   2.5195   2.5353   2.6223
     2.6769   2.7312   2.7764   2.9464   3.0325   3.0331   3.0871   3.1624
     3.4788   3.6172   3.8438   3.9156   3.9900   4.0026   4.0516   4.1208
     4.3114   4.5002   4.5325   4.6425   4.6519   4.8041   4.8603   4.9783
     5.0196   5.1804   5.3439   5.4619   5.4671   5.4696   5.5389   5.6385
     5.6851   5.8609   5.8933   6.0691   6.2423   6.2869   6.2894   6.3349
     6.6557   6.6681   6.7506   6.8365   6.8457   6.9448   6.9662   6.9721
     7.1932   7.1977   7.2472   7.2970   7.3187   7.3707   7.4279   7.4314
     7.4689   7.5539   7.8818   7.8839   7.9761   7.9965   8.0005   8.0211
    10.8771  10.9096  11.1227  11.2092  11.5760  11.6704  12.1303  12.2253
    12.3578  12.3891  12.4373  12.5732  12.7593  12.8095  12.8844  12.9078
    12.9804  13.2259  13.2406  13.4684  13.4935  13.7531  13.7956  13.8914
    15.4299  15.5510  15.7001  16.0047  16.2143  16.2651  16.2854  16.9258
    17.0421  17.0535  17.0714  17.7746  17.8484

          k = 0.0000 0.3206-0.4958 ( 61366 PWs)   bands (ev):

   -65.8644 -65.8644 -65.8641 -65.8641 -65.8633 -65.8633 -65.8630 -65.8630
   -30.2595 -30.2595 -30.2455 -30.2455 -30.2436 -30.2436 -30.2257 -30.2257
   -30.2224 -30.2224 -30.2199 -30.2199 -30.1894 -30.1894 -30.1831 -30.1831
   -30.1747 -30.1747 -30.1610 -30.1610 -30.1231 -30.1230 -30.1179 -30.1179
   -20.0233 -20.0233 -20.0231 -20.0231 -20.0230 -20.0230 -20.0228 -20.0228
   -20.0038 -20.0038 -20.0036 -20.0036 -20.0034 -20.0034 -20.0033 -20.0033
   -19.9969 -19.9969 -19.9967 -19.9967 -19.9967 -19.9967 -19.9965 -19.9965
   -19.9899 -19.9899 -19.9896 -19.9895 -19.9876 -19.9876 -19.9873 -19.9872
   -19.9865 -19.9865 -19.9863 -19.9863 -19.9802 -19.9802 -19.9799 -19.9799
   -19.9791 -19.9791 -19.9788 -19.9788 -19.9785 -19.9785 -19.9783 -19.9783
   -19.9629 -19.9629 -19.9628 -19.9628 -19.9618 -19.9618 -19.9617 -19.9617
    -9.2899  -9.2899  -9.1146  -9.1146  -8.6760  -8.6760  -8.4646  -8.4646
    -8.3469  -8.3469  -8.3092  -8.3092  -8.2709  -8.2709  -8.1661  -8.1661
    -7.9011  -7.9011  -7.8256  -7.8256  -7.5151  -7.5151  -7.4956  -7.4956
     1.7522   1.7522   1.7612   1.7612   2.5938   2.5938   2.7448   2.7448
     3.0841   3.0841   3.2838   3.2838   3.3302   3.3302   3.4168   3.4168
     3.4451   3.4451   3.6948   3.6948   3.7301   3.7301   3.9612   3.9612
     4.2282   4.2283   4.3108   4.3109   4.3850   4.3850   4.5306   4.5306
     5.1232   5.1233   5.3097   5.3097   5.4628   5.4628   5.5401   5.5401
     5.7045   5.7045   5.9845   5.9845   6.3098   6.3098   6.3814   6.3814
     6.6583   6.6583   6.6927   6.6927   6.7995   6.7995   6.9239   6.9239
     7.2608   7.2608   7.3183   7.3183   7.3607   7.3607   7.6813   7.6813
     7.7090   7.7090   7.7678   7.7678   7.8253   7.8253   8.0049   8.0049
    11.0978  11.0978  11.5755  11.5755  11.6873  11.6874  12.1220  12.1220
    12.2461  12.2461  12.5093  12.5093  12.6744  12.6744  12.8530  12.8530
    13.1218  13.1218  13.1357  13.1357  13.6043  13.6043  13.7983  13.7983
    15.5026  15.5026  15.8670  15.8670  16.5748  16.5748  16.7814  16.7814
    17.1039  17.1039  17.5941  17.5941  18.0144

          k = 0.0000-0.4808 0.0000 ( 61334 PWs)   bands (ev):

   -65.8647 -65.8647 -65.8638 -65.8638 -65.8636 -65.8636 -65.8628 -65.8627
   -30.2606 -30.2606 -30.2546 -30.2546 -30.2471 -30.2471 -30.2468 -30.2468
   -30.2239 -30.2238 -30.2097 -30.2097 -30.2055 -30.2055 -30.1839 -30.1839
   -30.1535 -30.1534 -30.1406 -30.1405 -30.1239 -30.1239 -30.1151 -30.1151
   -20.0235 -20.0235 -20.0233 -20.0233 -20.0228 -20.0228 -20.0226 -20.0226
   -20.0039 -20.0039 -20.0035 -20.0035 -20.0035 -20.0035 -20.0032 -20.0031
   -19.9969 -19.9969 -19.9967 -19.9967 -19.9966 -19.9966 -19.9964 -19.9964
   -19.9897 -19.9897 -19.9893 -19.9893 -19.9880 -19.9880 -19.9878 -19.9878
   -19.9866 -19.9865 -19.9862 -19.9862 -19.9816 -19.9816 -19.9815 -19.9815
   -19.9793 -19.9792 -19.9792 -19.9792 -19.9768 -19.9768 -19.9762 -19.9762
   -19.9635 -19.9635 -19.9624 -19.9623 -19.9622 -19.9622 -19.9611 -19.9611
    -9.5087  -9.5087  -9.0391  -9.0391  -9.0147  -9.0147  -8.7094  -8.7094
    -8.2419  -8.2419  -8.1903  -8.1902  -8.1763  -8.1763  -8.1629  -8.1629
    -7.6362  -7.6362  -7.5553  -7.5553  -7.4592  -7.4592  -7.4415  -7.4415
     1.5836   1.5836   1.6434   1.6434   1.7429   1.7429   1.9590   1.9590
     2.6668   2.6668   3.2021   3.2021   3.3300   3.3300   3.3962   3.3962
     3.4409   3.4409   3.5975   3.5975   3.8468   3.8468   3.9844   3.9844
     4.0738   4.0738   4.9139   4.9139   5.0667   5.0667   5.4498   5.4498
     5.5085   5.5085   5.6228   5.6228   5.6563   5.6563   6.0003   6.0003
     6.0065   6.0065   6.0927   6.0927   6.2054   6.2054   6.2770   6.2770
     6.3935   6.3935   6.5547   6.5547   6.8782   6.8782   6.9461   6.9461
     7.0871   7.0871   7.3653   7.3653   7.5005   7.5005   7.6648   7.6648
     7.7083   7.7083   7.7563   7.7563   7.8232   7.8232   7.9472   7.9472
    10.0774  10.0774  11.5210  11.5210  11.6118  11.6118  11.7742  11.7742
    11.8776  11.8777  12.5955  12.5955  12.7793  12.7793  12.7938  12.7938
    13.5474  13.5474  13.5581  13.5581  13.6867  13.6867  13.8465  13.8465
    15.5339  15.5339  15.8153  15.8153  15.8634  15.8634  15.9188  15.9188
    16.8355  16.8355  18.2551  18.2552  18.4962

          k = 0.0000-0.4808 0.1653 ( 61354 PWs)   bands (ev):

   -65.8646 -65.8646 -65.8639 -65.8638 -65.8636 -65.8636 -65.8628 -65.8628
   -30.2575 -30.2575 -30.2508 -30.2508 -30.2473 -30.2473 -30.2447 -30.2447
   -30.2246 -30.2246 -30.2089 -30.2089 -30.2059 -30.2059 -30.1826 -30.1825
   -30.1580 -30.1580 -30.1451 -30.1451 -30.1235 -30.1235 -30.1163 -30.1163
   -20.0235 -20.0234 -20.0232 -20.0232 -20.0228 -20.0228 -20.0227 -20.0227
   -20.0038 -20.0038 -20.0035 -20.0035 -20.0035 -20.0035 -20.0032 -20.0032
   -19.9969 -19.9969 -19.9967 -19.9967 -19.9966 -19.9966 -19.9965 -19.9965
   -19.9896 -19.9896 -19.9892 -19.9891 -19.9881 -19.9881 -19.9878 -19.9878
   -19.9865 -19.9865 -19.9862 -19.9862 -19.9814 -19.9814 -19.9811 -19.9811
   -19.9793 -19.9793 -19.9791 -19.9791 -19.9771 -19.9771 -19.9766 -19.9765
   -19.9634 -19.9634 -19.9623 -19.9623 -19.9623 -19.9623 -19.9612 -19.9612
    -9.4562  -9.4562  -9.0327  -9.0326  -8.9597  -8.9597  -8.6746  -8.6746
    -8.2468  -8.2468  -8.1951  -8.1951  -8.1789  -8.1789  -8.1572  -8.1572
    -7.7268  -7.7268  -7.5784  -7.5784  -7.5572  -7.5572  -7.4501  -7.4501
     1.6950   1.6950   1.7437   1.7437   1.8861   1.8861   2.0876   2.0876
     2.7562   2.7562   3.2228   3.2228   3.3289   3.3289   3.3903   3.3903
     3.5010   3.5010   3.5865   3.5865   3.8536   3.8536   4.0044   4.0044
     4.1035   4.1035   4.6068   4.6068   5.0497   5.0497   5.2525   5.2525
     5.3521   5.3521   5.5510   5.5511   5.6120   5.6120   5.7566   5.7566
     5.9499   5.9499   6.0380   6.0380   6.1547   6.1547   6.2816   6.2816
     6.5785   6.5785   6.6563   6.6563   6.8743   6.8743   7.0818   7.0818
     7.1710   7.1711   7.2528   7.2528   7.3259   7.3259   7.6846   7.6846
     7.7001   7.7001   7.7463   7.7463   7.8069   7.8069   7.9636   7.9636
    10.3344  10.3344  11.6271  11.6271  11.7053  11.7053  11.7813  11.7813
    11.8980  11.8980  12.5383  12.5383  12.8083  12.8084  12.8815  12.8815
    13.4145  13.4145  13.5307  13.5307  13.5626  13.5626  13.8568  13.8568
    15.5357  15.5357  15.8760  15.8760  15.9979  15.9979  16.1169  16.1169
    16.8898  16.8898  18.1476  18.1479  18.2395

          k = 0.0000-0.4808 0.3305 ( 61392 PWs)   bands (ev):

   -65.8645 -65.8644 -65.8640 -65.8640 -65.8634 -65.8634 -65.8630 -65.8630
   -30.2529 -30.2529 -30.2487 -30.2487 -30.2412 -30.2412 -30.2363 -30.2363
   -30.2271 -30.2271 -30.2132 -30.2132 -30.2002 -30.2002 -30.1780 -30.1780
   -30.1707 -30.1707 -30.1564 -30.1564 -30.1225 -30.1224 -30.1186 -30.1186
   -20.0233 -20.0233 -20.0231 -20.0231 -20.0230 -20.0230 -20.0228 -20.0228
   -20.0038 -20.0038 -20.0036 -20.0036 -20.0034 -20.0034 -20.0033 -20.0032
   -19.9969 -19.9969 -19.9967 -19.9967 -19.9967 -19.9967 -19.9965 -19.9965
   -19.9892 -19.9892 -19.9888 -19.9888 -19.9884 -19.9883 -19.9880 -19.9880
   -19.9865 -19.9865 -19.9863 -19.9863 -19.9808 -19.9808 -19.9802 -19.9802
   -19.9795 -19.9795 -19.9789 -19.9789 -19.9779 -19.9779 -19.9775 -19.9775
   -19.9632 -19.9632 -19.9626 -19.9625 -19.9621 -19.9621 -19.9614 -19.9614
    -9.3265  -9.3265  -9.0883  -9.0882  -8.7399  -8.7399  -8.5582  -8.5582
    -8.2841  -8.2841  -8.2194  -8.2194  -8.1785  -8.1784  -8.1363  -8.1362
    -7.9721  -7.9721  -7.8480  -7.8480  -7.5399  -7.5399  -7.4738  -7.4738
     1.7487   1.7487   1.7612   1.7612   2.5284   2.5284   2.6586   2.6586
     3.0066   3.0066   3.2599   3.2599   3.3270   3.3271   3.4140   3.4140
     3.5103   3.5103   3.6755   3.6755   3.8116   3.8116   4.0650   4.0651
     4.0750   4.0750   4.1625   4.1625   4.6911   4.6911   4.8483   4.8483
     5.0223   5.0223   5.1238   5.1238   5.4974   5.4974   5.5639   5.5639
     5.6671   5.6671   5.9346   5.9346   6.2879   6.2879   6.3327   6.3327
     6.6773   6.6773   6.7767   6.7767   6.8716   6.8716   6.9849   6.9849
     7.2820   7.2820   7.3564   7.3565   7.4122   7.4122   7.6645   7.6645
     7.7064   7.7064   7.7207   7.7207   7.7795   7.7795   7.9285   7.9285
    10.9245  10.9245  11.7411  11.7411  11.8147  11.8147  11.9849  11.9849
    12.1082  12.1082  12.2498  12.2498  12.8841  12.8841  12.9192  12.9192
    13.0316  13.0316  13.2128  13.2128  13.5778  13.5778  13.8023  13.8023
    15.5983  15.5983  15.8237  15.8238  16.5401  16.5401  16.7988  16.7988
    17.0760  17.0760  17.6812  17.6812  18.0615

          k = 0.0000-0.4808-0.4958 ( 61364 PWs)   bands (ev):

   -65.8642 -65.8642 -65.8642 -65.8642 -65.8632 -65.8632 -65.8632 -65.8632
   -30.2503 -30.2503 -30.2503 -30.2503 -30.2327 -30.2327 -30.2327 -30.2327
   -30.2230 -30.2230 -30.2230 -30.2230 -30.1872 -30.1872 -30.1872 -30.1872
   -30.1690 -30.1690 -30.1690 -30.1690 -30.1208 -30.1208 -30.1208 -30.1208
   -20.0232 -20.0232 -20.0231 -20.0231 -20.0230 -20.0230 -20.0230 -20.0229
   -20.0037 -20.0037 -20.0037 -20.0037 -20.0034 -20.0033 -20.0033 -20.0033
   -19.9968 -19.9968 -19.9968 -19.9968 -19.9966 -19.9966 -19.9966 -19.9966
   -19.9888 -19.9887 -19.9887 -19.9887 -19.9884 -19.9884 -19.9884 -19.9884
   -19.9864 -19.9864 -19.9864 -19.9864 -19.9801 -19.9801 -19.9801 -19.9801
   -19.9790 -19.9790 -19.9790 -19.9790 -19.9784 -19.9784 -19.9784 -19.9784
   -19.9629 -19.9629 -19.9629 -19.9629 -19.9618 -19.9618 -19.9618 -19.9617
    -9.1876  -9.1876  -9.1876  -9.1876  -8.4550  -8.4550  -8.4550  -8.4550
    -8.3533  -8.3533  -8.3533  -8.3532  -8.1498  -8.1498  -8.1498  -8.1498
    -8.0666  -8.0666  -8.0666  -8.0666  -7.5068  -7.5068  -7.5068  -7.5068
     1.7593   1.7593   1.7593   1.7593   3.1765   3.1765   3.1765   3.1765
     3.2801   3.2801   3.2801   3.2802   3.4152   3.4152   3.4152   3.4152
     3.5204   3.5204   3.5204   3.5204   3.7807   3.7807   3.7807   3.7807
     3.9435   3.9435   3.9435   3.9435   4.5911   4.5911   4.5911   4.5911
     4.7092   4.7092   4.7092   4.7092   5.5112   5.5112   5.5112   5.5113
     5.7898   5.7898   5.7898   5.7898   6.3667   6.3667   6.3667   6.3667
     6.7019   6.7019   6.7019   6.7019   6.8333   6.8333   6.8333   6.8333
     7.4948   7.4948   7.4948   7.4948   7.6054   7.6054   7.6054   7.6055
     7.6889   7.6889   7.6889   7.6889   7.7992   7.7992   7.7992   7.7992
    11.5486  11.5486  11.5486  11.5486  11.8753  11.8753  11.8753  11.8753
    12.4731  12.4731  12.4731  12.4731  12.5527  12.5527  12.5527  12.5527
    13.0480  13.0481  13.0481  13.0481  13.6609  13.6609  13.6609  13.6609
    15.7198  15.7198  15.7198  15.7198  17.2033  17.2033  17.2033  17.2033
    17.5046  17.5046  17.5046  17.5047  17.6529

          k = 0.1667 0.0000 0.0000 ( 61364 PWs)   bands (ev):

   -65.8649 -65.8643 -65.8640 -65.8640 -65.8634 -65.8634 -65.8631 -65.8625
   -30.2766 -30.2695 -30.2658 -30.2553 -30.2549 -30.2506 -30.2450 -30.2361
   -30.2318 -30.2255 -30.2137 -30.1978 -30.1965 -30.1878 -30.1872 -30.1579
   -30.1561 -30.1552 -30.1428 -30.1337 -30.1321 -30.1233 -30.1220 -30.1121
   -20.0237 -20.0236 -20.0233 -20.0231 -20.0231 -20.0229 -20.0225 -20.0224
   -20.0040 -20.0037 -20.0037 -20.0036 -20.0034 -20.0033 -20.0033 -20.0030
   -19.9972 -19.9970 -19.9969 -19.9968 -19.9967 -19.9966 -19.9964 -19.9963
   -19.9918 -19.9915 -19.9906 -19.9903 -19.9880 -19.9874 -19.9865 -19.9861
   -19.9858 -19.9858 -19.9851 -19.9850 -19.9821 -19.9819 -19.9809 -19.9805
   -19.9799 -19.9798 -19.9794 -19.9792 -19.9769 -19.9766 -19.9763 -19.9761
   -19.9635 -19.9633 -19.9626 -19.9623 -19.9623 -19.9620 -19.9614 -19.9610
    -9.6656  -9.3352  -9.2666  -9.2052  -8.9699  -8.8380  -8.8247  -8.6945
    -8.6562  -8.6043  -8.5838  -8.5406  -7.7643  -7.6801  -7.6311  -7.5958
    -7.5917  -7.5419  -7.5298  -7.5282  -7.4872  -7.4826  -7.4545  -7.4305
     1.6276   1.6368   1.6388   1.6414   1.7511   1.7859   1.8576   1.8740
     1.9691   2.0949   2.1684   2.3276   2.6973   2.8117   2.8310   2.8512
     2.9934   3.0057   4.2564   4.3973   4.5243   4.6011   4.6751   4.7710
     4.8461   4.9446   4.9637   4.9940   5.0620   5.3621   5.4891   5.6432
     5.6913   5.7392   5.7701   5.7805   5.8037   5.8914   5.8963   5.9207
     6.0336   6.0732   6.0835   6.1145   6.1316   6.1403   6.2863   6.3336
     6.4588   6.5636   6.6529   6.6866   6.8984   6.9190   7.0429   7.0468
     7.0532   7.0544   7.0711   7.0728   7.1350   7.1911   7.2799   7.3010
     7.3978   7.4000   7.9240   7.9451   8.0685   8.1407   8.3530   8.3886
    10.2732  10.3085  10.4674  10.5089  10.6228  10.7320  12.2767  12.4804
    12.5355  12.6182  12.7271  12.7919  12.8560  12.9379  13.0016  13.0812
    13.3229  13.4058  13.5148  13.5856  13.7916  13.8191  14.2692  14.2729
    14.8667  14.8712  15.1591  15.3338  15.6375  15.6516  15.8507  16.0844
    16.5229  16.8395  17.0883  17.4104  17.9997

          k = 0.1667 0.0000 0.1653 ( 61340 PWs)   bands (ev):

   -65.8648 -65.8642 -65.8641 -65.8639 -65.8635 -65.8633 -65.8632 -65.8626
   -30.2752 -30.2677 -30.2662 -30.2558 -30.2496 -30.2454 -30.2417 -30.2357
   -30.2321 -30.2215 -30.2146 -30.1980 -30.1960 -30.1908 -30.1865 -30.1599
   -30.1596 -30.1570 -30.1479 -30.1353 -30.1333 -30.1249 -30.1216 -30.1134
   -20.0237 -20.0235 -20.0232 -20.0231 -20.0230 -20.0230 -20.0226 -20.0224
   -20.0040 -20.0037 -20.0036 -20.0036 -20.0034 -20.0033 -20.0033 -20.0030
   -19.9971 -19.9970 -19.9969 -19.9968 -19.9967 -19.9966 -19.9965 -19.9963
   -19.9917 -19.9913 -19.9906 -19.9903 -19.9877 -19.9872 -19.9865 -19.9861
   -19.9858 -19.9858 -19.9853 -19.9851 -19.9819 -19.9816 -19.9808 -19.9803
   -19.9799 -19.9798 -19.9794 -19.9792 -19.9772 -19.9769 -19.9766 -19.9764
   -19.9635 -19.9632 -19.9625 -19.9624 -19.9622 -19.9621 -19.9614 -19.9611
    -9.6187  -9.2763  -9.2228  -9.2101  -8.8870  -8.8476  -8.8405  -8.6555
    -8.6263  -8.5999  -8.5549  -8.5456  -7.7823  -7.7359  -7.6632  -7.6506
    -7.6353  -7.6106  -7.5883  -7.5476  -7.5319  -7.4910  -7.4789  -7.4576
     1.7368   1.7687   1.7761   1.8249   1.8338   1.8526   1.8843   1.9688
     1.9927   2.0951   2.2157   2.3795   2.7890   2.8560   2.9064   2.9100
     3.0058   3.0817   4.2491   4.3075   4.5381   4.5695   4.6641   4.6743
     4.7134   4.7708   4.8278   4.8896   5.0406   5.1793   5.4507   5.4759
     5.5504   5.6179   5.6254   5.7635   5.7779   5.7850   5.8534   5.9233
     5.9335   5.9839   6.0071   6.0888   6.1234   6.2518   6.2857   6.3420
     6.5689   6.6650   6.7863   6.8345   6.8685   6.8853   6.9551   6.9578
     7.0195   7.0196   7.0455   7.1323   7.1455   7.1457   7.2057   7.2632
     7.3868   7.4342   7.9348   7.9457   8.0870   8.1439   8.3069   8.3443
    10.4143  10.4439  10.6467  10.7029  10.7169  10.8404  12.3139  12.4985
    12.5170  12.5712  12.7545  12.7900  12.8421  12.9896  13.0156  13.0824
    13.2814  13.4303  13.4437  13.5375  13.8182  13.8221  14.1509  14.1799
    14.9015  14.9743  15.1547  15.4471  15.6892  15.7177  15.8330  16.3344
    16.4896  16.9974  17.1144  17.2751  18.0061

          k = 0.1667 0.0000 0.3305 ( 61367 PWs)   bands (ev):

   -65.8647 -65.8642 -65.8641 -65.8638 -65.8636 -65.8633 -65.8632 -65.8627
   -30.2723 -30.2675 -30.2638 -30.2574 -30.2367 -30.2337 -30.2331 -30.2330
   -30.2317 -30.2177 -30.2093 -30.2034 -30.2005 -30.1896 -30.1841 -30.1726
   -30.1695 -30.1612 -30.1544 -30.1426 -30.1322 -30.1279 -30.1204 -30.1160
   -20.0236 -20.0234 -20.0232 -20.0231 -20.0231 -20.0229 -20.0227 -20.0226
   -20.0039 -20.0037 -20.0036 -20.0036 -20.0034 -20.0034 -20.0033 -20.0031
   -19.9971 -19.9970 -19.9969 -19.9968 -19.9968 -19.9966 -19.9965 -19.9964
   -19.9914 -19.9911 -19.9908 -19.9905 -19.9872 -19.9867 -19.9864 -19.9861
   -19.9859 -19.9858 -19.9856 -19.9854 -19.9813 -19.9806 -19.9805 -19.9801
   -19.9798 -19.9795 -19.9793 -19.9789 -19.9781 -19.9776 -19.9776 -19.9772
   -19.9632 -19.9630 -19.9626 -19.9623 -19.9623 -19.9620 -19.9617 -19.9614
    -9.5025  -9.2780  -9.1318  -9.0760  -8.8906  -8.8804  -8.6523  -8.5926
    -8.5592  -8.5231  -8.5181  -8.4472  -7.9958  -7.9907  -7.9116  -7.8905
    -7.6939  -7.6466  -7.6258  -7.5657  -7.5336  -7.5039  -7.4858  -7.4658
     1.7454   1.7627   1.8206   1.8419   1.9783   1.9943   2.0672   2.0962
     2.5435   2.6002   2.6614   2.7745   2.8775   2.9618   3.0619   3.1639
     3.1804   3.3147   3.9604   4.1250   4.1336   4.1382   4.3553   4.5082
     4.5301   4.7013   4.7056   4.7538   4.9529   5.0233   5.0545   5.1268
     5.2197   5.3174   5.4386   5.4818   5.5257   5.5948   5.8279   5.8709
     5.9405   5.9412   6.0954   6.1022   6.1441   6.1673   6.2391   6.3498
     6.5895   6.6391   6.6748   6.7646   6.7991   6.8412   6.9579   6.9989
     7.0315   7.0982   7.1048   7.1436   7.2301   7.2521   7.4125   7.4155
     7.4668   7.5623   7.9091   7.9195   8.0981   8.1416   8.1629   8.2011
    10.5449  10.5697  11.0245  11.1421  11.2483  11.3751  12.2045  12.2957
    12.4033  12.4877  12.5587  12.6747  12.8834  12.9587  13.0921  13.1892
    13.2052  13.3297  13.3576  13.5222  13.7753  13.8579  13.8651  13.9655
    15.0115  15.1404  15.2669  15.7097  15.7425  15.9076  16.1305  16.3985
    16.6404  17.0956  17.4831  17.6282  17.7352

          k = 0.1667 0.0000-0.4958 ( 61322 PWs)   bands (ev):

   -65.8645 -65.8644 -65.8639 -65.8639 -65.8635 -65.8635 -65.8630 -65.8630
   -30.2696 -30.2696 -30.2602 -30.2601 -30.2342 -30.2342 -30.2239 -30.2239
   -30.2167 -30.2167 -30.2152 -30.2152 -30.1913 -30.1912 -30.1789 -30.1788
   -30.1772 -30.1772 -30.1496 -30.1496 -30.1304 -30.1304 -30.1185 -30.1185
   -20.0234 -20.0234 -20.0232 -20.0232 -20.0229 -20.0229 -20.0227 -20.0227
   -20.0038 -20.0038 -20.0035 -20.0035 -20.0035 -20.0035 -20.0032 -20.0032
   -19.9970 -19.9970 -19.9969 -19.9969 -19.9967 -19.9967 -19.9965 -19.9965
   -19.9911 -19.9911 -19.9908 -19.9908 -19.9866 -19.9866 -19.9861 -19.9861
   -19.9860 -19.9860 -19.9857 -19.9857 -19.9806 -19.9806 -19.9801 -19.9800
   -19.9793 -19.9793 -19.9788 -19.9788 -19.9785 -19.9785 -19.9781 -19.9781
   -19.9630 -19.9629 -19.9627 -19.9626 -19.9620 -19.9620 -19.9617 -19.9617
    -9.3743  -9.3742  -8.9854  -8.9854  -8.9512  -8.9512  -8.5759  -8.5759
    -8.3319  -8.3319  -8.3042  -8.3042  -8.2608  -8.2608  -8.2058  -8.2058
    -7.6718  -7.6718  -7.5961  -7.5961  -7.5202  -7.5202  -7.4766  -7.4766
     1.7519   1.7519   1.8314   1.8314   1.9963   1.9963   2.1011   2.1011
     2.8955   2.8955   3.2526   3.2526   3.3184   3.3184   3.4039   3.4039
     3.4586   3.4586   3.6052   3.6053   3.8455   3.8455   4.0257   4.0258
     4.0807   4.0807   4.5961   4.5962   4.8620   4.8620   5.1938   5.1938
     5.2334   5.2334   5.3357   5.3357   5.4736   5.4736   5.8937   5.8937
     5.9243   5.9243   6.0107   6.0107   6.1584   6.1584   6.2893   6.2893
     6.5503   6.5503   6.7284   6.7284   6.7630   6.7630   7.0212   7.0212
     7.0726   7.0726   7.1135   7.1135   7.1857   7.1857   7.7224   7.7224
     7.7494   7.7494   7.8489   7.8489   7.9400   7.9400   8.1357   8.1357
    10.5743  10.5743  11.6351  11.6351  11.7639  11.7639  11.9045  11.9045
    12.0615  12.0615  12.5254  12.5254  13.0548  13.0548  13.1231  13.1231
    13.2188  13.2188  13.5239  13.5239  13.6030  13.6030  13.8612  13.8612
    15.1016  15.1016  15.5591  15.5591  16.0936  16.0936  16.2120  16.2120
    16.9251  16.9251  18.0464  18.0466  18.1773

          k = 0.1667 0.1603 0.0000 ( 61343 PWs)   bands (ev):

   -65.8648 -65.8643 -65.8640 -65.8639 -65.8635 -65.8634 -65.8631 -65.8626
   -30.2737 -30.2667 -30.2623 -30.2551 -30.2512 -30.2507 -30.2449 -30.2371
   -30.2329 -30.2242 -30.2126 -30.2000 -30.1961 -30.1908 -30.1894 -30.1615
   -30.1561 -30.1553 -30.1426 -30.1336 -30.1332 -30.1234 -30.1227 -30.1133
   -20.0237 -20.0235 -20.0233 -20.0231 -20.0230 -20.0229 -20.0226 -20.0224
   -20.0040 -20.0037 -20.0037 -20.0036 -20.0034 -20.0033 -20.0033 -20.0030
   -19.9971 -19.9969 -19.9968 -19.9968 -19.9967 -19.9966 -19.9965 -19.9963
   -19.9915 -19.9912 -19.9902 -19.9899 -19.9882 -19.9877 -19.9865 -19.9861
   -19.9858 -19.9858 -19.9854 -19.9853 -19.9821 -19.9819 -19.9811 -19.9806
   -19.9799 -19.9798 -19.9794 -19.9793 -19.9769 -19.9766 -19.9763 -19.9761
   -19.9635 -19.9633 -19.9626 -19.9623 -19.9623 -19.9620 -19.9613 -19.9611
    -9.6322  -9.3486  -9.2281  -9.1577  -8.9782  -8.8352  -8.7620  -8.6883
    -8.6581  -8.5634  -8.5449  -8.5090  -7.7840  -7.6892  -7.6709  -7.6327
    -7.6161  -7.5954  -7.5838  -7.5696  -7.5378  -7.5213  -7.4807  -7.4478
     1.6283   1.6393   1.6443   1.6494   1.8932   1.9047   1.9665   2.0679
     2.0863   2.1715   2.2158   2.4083   2.7091   2.8043   2.9174   2.9294
     3.0757   3.0786   4.1460   4.2585   4.3768   4.5423   4.5477   4.6691
     4.7599   4.9122   4.9153   4.9800   5.1085   5.2698   5.3529   5.5203
     5.6197   5.6913   5.7148   5.7354   5.7741   5.8459   5.8760   5.9355
     5.9922   6.0450   6.1054   6.1074   6.1196   6.1514   6.2135   6.2860
     6.4592   6.5328   6.6664   6.7180   6.8810   6.9174   6.9985   7.0093
     7.0516   7.0827   7.1424   7.1698   7.1783   7.1861   7.2799   7.3000
     7.3984   7.4143   7.9202   7.9445   8.0677   8.1196   8.3036   8.3110
    10.3012  10.3327  10.6193  10.6253  10.7860  10.8770  12.2372  12.5112
    12.5516  12.6117  12.7080  12.7453  12.7887  12.8269  12.9243  12.9885
    13.2947  13.4177  13.5202  13.5268  13.8153  13.8455  14.1703  14.1831
    15.0343  15.0929  15.3114  15.4579  15.6440  15.6451  16.0329  16.2648
    16.4881  16.8673  16.9870  17.5086  17.9446

          k = 0.1667 0.1603 0.1653 ( 61358 PWs)   bands (ev):

   -65.8648 -65.8643 -65.8640 -65.8639 -65.8635 -65.8634 -65.8631 -65.8626
   -30.2721 -30.2647 -30.2627 -30.2517 -30.2500 -30.2458 -30.2417 -30.2367
   -30.2333 -30.2204 -30.2136 -30.2013 -30.1945 -30.1927 -30.1894 -30.1609
   -30.1597 -30.1596 -30.1476 -30.1370 -30.1328 -30.1244 -30.1228 -30.1146
   -20.0237 -20.0235 -20.0232 -20.0231 -20.0231 -20.0229 -20.0226 -20.0225
   -20.0040 -20.0037 -20.0036 -20.0036 -20.0034 -20.0033 -20.0033 -20.0031
   -19.9971 -19.9969 -19.9969 -19.9968 -19.9967 -19.9966 -19.9965 -19.9963
   -19.9914 -19.9911 -19.9903 -19.9900 -19.9880 -19.9875 -19.9865 -19.9861
   -19.9859 -19.9858 -19.9855 -19.9854 -19.9819 -19.9815 -19.9809 -19.9804
   -19.9799 -19.9798 -19.9794 -19.9792 -19.9772 -19.9769 -19.9766 -19.9764
   -19.9634 -19.9632 -19.9625 -19.9624 -19.9622 -19.9621 -19.9614 -19.9611
    -9.5838  -9.2900  -9.1759  -9.1674  -8.8954  -8.8514  -8.7717  -8.6517
    -8.6279  -8.5581  -8.5207  -8.5133  -7.8004  -7.7355  -7.6865  -7.6713
    -7.6493  -7.6375  -7.6195  -7.5974  -7.5861  -7.5403  -7.5350  -7.5253
     1.8074   1.8282   1.8604   1.8805   1.9005   1.9128   1.9748   2.0652
     2.1208   2.2064   2.2232   2.4474   2.8021   2.8977   2.9393   2.9934
     3.0773   3.1629   4.1515   4.2375   4.3787   4.5082   4.5589   4.6311
     4.6777   4.7154   4.8076   4.8674   4.9674   5.0804   5.3309   5.3891
     5.5004   5.5291   5.6199   5.6412   5.7167   5.7322   5.7685   5.8389
     5.9361   5.9997   6.0294   6.0975   6.1359   6.1549   6.2485   6.2855
     6.6026   6.6065   6.7885   6.8059   6.8887   6.9241   6.9653   6.9825
     7.0406   7.0565   7.1019   7.1221   7.1405   7.2062   7.2449   7.2826
     7.4019   7.4340   7.9313   7.9456   8.0782   8.1239   8.2583   8.2750
    10.4704  10.5122  10.7741  10.8034  10.8455  10.9531  12.2859  12.5052
    12.5501  12.5674  12.7225  12.7395  12.8393  12.8747  12.9254  13.0029
    13.2442  13.3785  13.4328  13.5150  13.8054  13.8663  14.0500  14.0952
    15.0876  15.2187  15.3165  15.5485  15.6920  15.7223  16.1893  16.3403
    16.4562  16.9939  17.1227  17.2707  17.9810

          k = 0.1667 0.1603 0.3305 ( 61334 PWs)   bands (ev):

   -65.8646 -65.8642 -65.8641 -65.8637 -65.8637 -65.8633 -65.8632 -65.8628
   -30.2690 -30.2641 -30.2603 -30.2534 -30.2381 -30.2342 -30.2337 -30.2331
   -30.2323 -30.2170 -30.2088 -30.2061 -30.2019 -30.1882 -30.1867 -30.1727
   -30.1702 -30.1607 -30.1577 -30.1449 -30.1317 -30.1274 -30.1217 -30.1172
   -20.0235 -20.0234 -20.0232 -20.0231 -20.0230 -20.0229 -20.0227 -20.0226
   -20.0039 -20.0037 -20.0036 -20.0036 -20.0034 -20.0034 -20.0033 -20.0031
   -19.9971 -19.9969 -19.9969 -19.9968 -19.9968 -19.9966 -19.9966 -19.9964
   -19.9911 -19.9908 -19.9905 -19.9902 -19.9874 -19.9870 -19.9865 -19.9861
   -19.9860 -19.9859 -19.9857 -19.9856 -19.9812 -19.9806 -19.9805 -19.9801
   -19.9799 -19.9796 -19.9793 -19.9789 -19.9780 -19.9776 -19.9776 -19.9772
   -19.9632 -19.9630 -19.9626 -19.9623 -19.9623 -19.9620 -19.9617 -19.9614
    -9.4636  -9.2322  -9.1458  -9.0205  -8.9024  -8.8055  -8.6610  -8.5676
    -8.5277  -8.5188  -8.5060  -8.4253  -8.0020  -7.9885  -7.9237  -7.8878
    -7.7153  -7.6848  -7.6362  -7.6099  -7.5872  -7.5775  -7.5587  -7.5459
     1.8837   1.8939   1.9702   1.9860   2.0357   2.0539   2.1459   2.2087
     2.5432   2.6049   2.6643   2.7876   2.9539   3.0231   3.0902   3.1750
     3.2448   3.3860   3.9686   4.0705   4.1369   4.1421   4.3805   4.4152
     4.5012   4.5794   4.6681   4.7166   4.8046   4.9315   4.9724   5.0737
     5.1071   5.2032   5.2967   5.3849   5.4441   5.5184   5.7487   5.7942
     5.8616   5.9519   6.0394   6.0755   6.0961   6.0989   6.1701   6.2203
     6.5684   6.7160   6.7730   6.8430   6.8709   6.9068   6.9656   6.9964
     7.0474   7.0905   7.1376   7.2235   7.2422   7.2872   7.4026   7.4357
     7.4726   7.5567   7.9095   7.9170   8.0743   8.1212   8.1303   8.1501
    10.7152  10.7363  11.0519  11.1558  11.3341  11.4382  12.2096  12.2914
    12.4113  12.5084  12.5983  12.7041  12.8310  12.9360  12.9652  13.0632
    13.0924  13.2543  13.3365  13.5000  13.7225  13.7530  13.8700  13.9254
    15.2076  15.2955  15.5789  15.7938  15.8969  16.0818  16.1907  16.3727
    16.7494  17.0817  17.4224  17.5550  17.7365

          k = 0.1667 0.1603-0.4958 ( 61376 PWs)   bands (ev):

   -65.8644 -65.8644 -65.8639 -65.8639 -65.8635 -65.8635 -65.8630 -65.8630
   -30.2662 -30.2661 -30.2563 -30.2562 -30.2354 -30.2354 -30.2236 -30.2236
   -30.2175 -30.2175 -30.2166 -30.2166 -30.1911 -30.1911 -30.1807 -30.1807
   -30.1764 -30.1763 -30.1526 -30.1525 -30.1299 -30.1299 -30.1198 -30.1198
   -20.0234 -20.0234 -20.0232 -20.0232 -20.0229 -20.0229 -20.0228 -20.0228
   -20.0038 -20.0038 -20.0035 -20.0035 -20.0035 -20.0035 -20.0032 -20.0032
   -19.9970 -19.9970 -19.9969 -19.9968 -19.9967 -19.9967 -19.9965 -19.9965
   -19.9908 -19.9908 -19.9905 -19.9905 -19.9868 -19.9868 -19.9864 -19.9864
   -19.9860 -19.9860 -19.9857 -19.9857 -19.9806 -19.9806 -19.9801 -19.9801
   -19.9793 -19.9793 -19.9788 -19.9788 -19.9785 -19.9785 -19.9782 -19.9782
   -19.9629 -19.9629 -19.9627 -19.9627 -19.9620 -19.9620 -19.9617 -19.9617
    -9.3311  -9.3311  -8.9985  -8.9985  -8.8817  -8.8817  -8.5433  -8.5433
    -8.3370  -8.3370  -8.3038  -8.3038  -8.2622  -8.2622  -8.1990  -8.1990
    -7.7028  -7.7028  -7.6110  -7.6110  -7.5858  -7.5858  -7.5642  -7.5642
     1.8887   1.8887   1.9872   1.9872   2.0485   2.0485   2.2016   2.2016
     2.9661   2.9661   3.2682   3.2682   3.3362   3.3362   3.4048   3.4048
     3.4586   3.4586   3.6419   3.6419   3.8337   3.8337   4.0437   4.0437
     4.1327   4.1327   4.5506   4.5506   4.6559   4.6559   4.9954   4.9954
     5.1280   5.1280   5.2807   5.2807   5.3758   5.3758   5.8105   5.8105
     5.9111   5.9111   5.9554   5.9554   6.0802   6.0802   6.1273   6.1273
     6.6649   6.6649   6.8046   6.8046   6.8714   6.8714   7.0029   7.0030
     7.0662   7.0662   7.1363   7.1363   7.2614   7.2614   7.7221   7.7221
     7.7475   7.7475   7.8313   7.8313   7.9108   7.9108   8.1157   8.1157
    10.7545  10.7545  11.6429  11.6429  11.7651  11.7651  11.9620  11.9621
    12.1054  12.1054  12.5598  12.5598  12.9625  12.9625  13.0373  13.0373
    13.1812  13.1812  13.4039  13.4039  13.5404  13.5405  13.8564  13.8564
    15.2729  15.2729  15.9038  15.9038  16.1267  16.1267  16.2654  16.2654
    16.9707  16.9707  17.9305  17.9305  18.1473

          k = 0.1667 0.3206 0.0000 ( 61383 PWs)   bands (ev):

   -65.8647 -65.8644 -65.8639 -65.8638 -65.8636 -65.8635 -65.8630 -65.8627
   -30.2667 -30.2605 -30.2564 -30.2535 -30.2520 -30.2446 -30.2397 -30.2396
   -30.2366 -30.2196 -30.2101 -30.2091 -30.1994 -30.1955 -30.1906 -30.1707
   -30.1560 -30.1555 -30.1418 -30.1369 -30.1317 -30.1261 -30.1214 -30.1161
   -20.0236 -20.0234 -20.0234 -20.0232 -20.0229 -20.0228 -20.0227 -20.0225
   -20.0039 -20.0038 -20.0036 -20.0035 -20.0035 -20.0034 -20.0033 -20.0031
   -19.9971 -19.9969 -19.9969 -19.9967 -19.9967 -19.9966 -19.9965 -19.9964
   -19.9907 -19.9904 -19.9893 -19.9890 -19.9888 -19.9883 -19.9869 -19.9866
   -19.9861 -19.9859 -19.9857 -19.9856 -19.9820 -19.9817 -19.9814 -19.9810
   -19.9798 -19.9798 -19.9794 -19.9794 -19.9768 -19.9767 -19.9763 -19.9762
   -19.9635 -19.9633 -19.9625 -19.9624 -19.9622 -19.9621 -19.9613 -19.9611
    -9.5504  -9.3899  -9.1402  -9.0454  -9.0052  -8.8694  -8.6791  -8.6633
    -8.5482  -8.4257  -8.4143  -8.3967  -7.9518  -7.8957  -7.8722  -7.8513
    -7.6957  -7.6841  -7.5995  -7.5854  -7.5563  -7.5373  -7.4759  -7.4603
     1.6306   1.6389   1.6439   1.6501   1.9562   1.9669   2.1052   2.1600
     2.5786   2.6728   2.7363   2.7677   2.7840   2.8747   3.1546   3.2015
     3.2803   3.3545   3.8058   3.8127   4.0571   4.0661   4.3058   4.5613
     4.6555   4.7519   4.8315   4.8528   4.9757   5.0549   5.1714   5.2520
     5.2790   5.3016   5.6093   5.6326   5.6517   5.8014   5.8352   5.8764
     5.9456   6.0064   6.0291   6.0826   6.1237   6.1298   6.2601   6.2827
     6.4657   6.5289   6.6259   6.7499   6.8342   7.0298   7.0620   7.0849
     7.1361   7.1549   7.2007   7.2436   7.3103   7.3188   7.3636   7.3698
     7.4516   7.4936   7.8884   7.9395   7.9947   8.0214   8.0856   8.1278
    10.3336  10.3496  10.9982  11.0580  11.2392  11.3008  12.0074  12.3103
    12.4085  12.4547  12.6039  12.6481  12.6650  12.6848  12.8381  12.9457
    13.3017  13.4467  13.5195  13.5391  13.6735  13.7930  13.9338  13.9744
    15.4290  15.5352  15.5698  15.6123  15.7906  15.9892  16.0283  16.3828
    16.4027  17.1663  17.4352  17.6026  17.9451

          k = 0.1667 0.3206 0.1653 ( 61377 PWs)   bands (ev):

   -65.8647 -65.8644 -65.8639 -65.8638 -65.8636 -65.8635 -65.8630 -65.8627
   -30.2646 -30.2577 -30.2541 -30.2515 -30.2472 -30.2423 -30.2398 -30.2389
   -30.2369 -30.2167 -30.2111 -30.2103 -30.1992 -30.1968 -30.1891 -30.1697
   -30.1601 -30.1599 -30.1466 -30.1409 -30.1313 -30.1258 -30.1229 -30.1174
   -20.0236 -20.0234 -20.0233 -20.0231 -20.0230 -20.0228 -20.0227 -20.0225
   -20.0039 -20.0037 -20.0036 -20.0036 -20.0034 -20.0034 -20.0033 -20.0031
   -19.9970 -19.9969 -19.9969 -19.9968 -19.9967 -19.9966 -19.9966 -19.9964
   -19.9906 -19.9903 -19.9894 -19.9891 -19.9886 -19.9882 -19.9869 -19.9866
   -19.9861 -19.9859 -19.9857 -19.9856 -19.9817 -19.9814 -19.9812 -19.9808
   -19.9798 -19.9798 -19.9794 -19.9793 -19.9772 -19.9770 -19.9766 -19.9765
   -19.9634 -19.9633 -19.9624 -19.9623 -19.9623 -19.9622 -19.9614 -19.9612
    -9.4984  -9.3322  -9.0699  -9.0638  -8.9231  -8.8864  -8.6457  -8.6329
    -8.5577  -8.4210  -8.4053  -8.3956  -7.9565  -7.9022  -7.8739  -7.8578
    -7.7319  -7.7160  -7.6556  -7.6480  -7.6012  -7.5812  -7.5554  -7.5381
     1.8124   1.8240   1.8845   1.8887   1.9622   1.9733   2.1443   2.2085
     2.5906   2.6748   2.7577   2.8156   2.8613   2.9054   3.1624   3.2637
     3.2913   3.4297   3.8118   3.8868   4.0459   4.0688   4.2841   4.5704
     4.5866   4.6579   4.7337   4.7562   4.8944   4.9959   5.0606   5.0921
     5.1591   5.2574   5.4351   5.4552   5.6195   5.6331   5.6440   5.7055
     5.8952   5.9050   5.9286   5.9683   6.0554   6.0663   6.2683   6.2754
     6.6246   6.6743   6.7687   6.8219   6.9459   7.0157   7.0217   7.0794
     7.1003   7.1469   7.2037   7.2230   7.3083   7.3118   7.3478   7.3906
     7.4780   7.4927   7.9007   7.9409   7.9899   8.0240   8.0603   8.1009
    10.5290  10.5514  11.1524  11.1873  11.2580  11.3353  12.0871  12.3618
    12.4058  12.4491  12.6071  12.6292  12.6411  12.7220  12.8916  12.9898
    13.2460  13.3601  13.4300  13.4765  13.6412  13.7956  13.8211  13.9133
    15.5061  15.6046  15.6965  15.7334  15.8035  16.0884  16.2425  16.3562
    16.5448  17.1358  17.5032  17.6234  17.6997

          k = 0.1667 0.3206 0.3305 ( 61370 PWs)   bands (ev):

   -65.8645 -65.8642 -65.8641 -65.8638 -65.8636 -65.8633 -65.8632 -65.8629
   -30.2606 -30.2554 -30.2514 -30.2428 -30.2424 -30.2382 -30.2351 -30.2336
   -30.2330 -30.2149 -30.2143 -30.2067 -30.2055 -30.1937 -30.1838 -30.1726
   -30.1716 -30.1661 -30.1590 -30.1502 -30.1302 -30.1258 -30.1246 -30.1202
   -20.0234 -20.0233 -20.0232 -20.0231 -20.0230 -20.0229 -20.0228 -20.0227
   -20.0038 -20.0037 -20.0037 -20.0035 -20.0035 -20.0034 -20.0034 -20.0032
   -19.9970 -19.9968 -19.9968 -19.9968 -19.9967 -19.9966 -19.9966 -19.9965
   -19.9903 -19.9900 -19.9896 -19.9893 -19.9881 -19.9877 -19.9872 -19.9869
   -19.9861 -19.9860 -19.9858 -19.9857 -19.9811 -19.9807 -19.9805 -19.9802
   -19.9800 -19.9797 -19.9793 -19.9790 -19.9780 -19.9778 -19.9775 -19.9774
   -19.9632 -19.9630 -19.9626 -19.9624 -19.9622 -19.9621 -19.9616 -19.9614
    -9.3687  -9.1893  -9.1225  -8.9402  -8.8863  -8.6913  -8.5965  -8.5419
    -8.5233  -8.4159  -8.3978  -8.3401  -8.0501  -7.9980  -7.9811  -7.8999
    -7.8820  -7.8705  -7.8440  -7.7783  -7.6496  -7.6315  -7.5857  -7.5675
     1.9572   1.9718   1.9833   1.9940   2.4535   2.5109   2.5407   2.6221
     2.6675   2.7340   2.7598   2.9296   3.0944   3.1371   3.2005   3.2684
     3.4913   3.6116   3.8361   3.9238   4.0270   4.0333   4.1008   4.1877
     4.3028   4.4721   4.5418   4.6252   4.6586   4.7233   4.8624   4.9315
     4.9603   5.0767   5.1179   5.1959   5.2444   5.3230   5.4134   5.4722
     5.5930   5.6234   5.6999   5.9011   5.9662   6.0568   6.1845   6.2071
     6.7223   6.8048   6.8132   6.9316   7.0013   7.0399   7.1133   7.1290
     7.1905   7.2456   7.2757   7.3044   7.3474   7.4084   7.4565   7.4651
     7.5187   7.5500   7.8963   7.9037   7.9564   7.9806   8.0123   8.0221
    11.0006  11.0235  11.2764  11.3317  11.5912  11.6838  12.2036  12.2527
    12.3402  12.4531  12.5222  12.5754  12.7096  12.7876  12.8678  12.8940
    12.9922  13.1525  13.2241  13.4643  13.4793  13.5679  13.7774  13.8028
    15.5926  15.6821  15.8716  16.1243  16.2588  16.3315  16.3421  16.9366
    16.9966  17.0575  17.1668  17.7481  17.8122

          k = 0.1667 0.3206-0.4958 ( 61390 PWs)   bands (ev):

   -65.8643 -65.8643 -65.8640 -65.8640 -65.8634 -65.8634 -65.8631 -65.8631
   -30.2575 -30.2574 -30.2460 -30.2460 -30.2395 -30.2395 -30.2229 -30.2229
   -30.2222 -30.2222 -30.2186 -30.2186 -30.1904 -30.1904 -30.1848 -30.1848
   -30.1734 -30.1733 -30.1598 -30.1598 -30.1284 -30.1284 -30.1227 -30.1227
   -20.0233 -20.0233 -20.0231 -20.0231 -20.0230 -20.0230 -20.0229 -20.0228
   -20.0038 -20.0037 -20.0036 -20.0036 -20.0035 -20.0034 -20.0033 -20.0033
   -19.9969 -19.9969 -19.9968 -19.9968 -19.9967 -19.9967 -19.9966 -19.9966
   -19.9899 -19.9899 -19.9896 -19.9896 -19.9876 -19.9876 -19.9872 -19.9872
   -19.9860 -19.9860 -19.9858 -19.9858 -19.9805 -19.9805 -19.9802 -19.9802
   -19.9792 -19.9792 -19.9789 -19.9789 -19.9786 -19.9785 -19.9783 -19.9783
   -19.9629 -19.9629 -19.9627 -19.9627 -19.9619 -19.9619 -19.9618 -19.9618
    -9.2266  -9.2266  -9.0403  -9.0403  -8.6949  -8.6949  -8.4438  -8.4438
    -8.3632  -8.3632  -8.3071  -8.3070  -8.2539  -8.2539  -8.1703  -8.1703
    -7.8976  -7.8975  -7.8340  -7.8340  -7.6184  -7.6184  -7.5994  -7.5994
     1.9764   1.9764   1.9922   1.9922   2.5997   2.5997   2.7253   2.7253
     3.1462   3.1462   3.3118   3.3118   3.3565   3.3565   3.4261   3.4261
     3.4637   3.4637   3.7400   3.7400   3.7830   3.7830   4.0082   4.0082
     4.2164   4.2164   4.3115   4.3115   4.3746   4.3746   4.5601   4.5602
     5.0112   5.0112   5.1461   5.1461   5.3007   5.3007   5.3483   5.3483
     5.4236   5.4236   5.7791   5.7791   6.0238   6.0238   6.0879   6.0879
     6.8145   6.8145   6.9300   6.9300   6.9799   6.9799   7.0675   7.0675
     7.2620   7.2620   7.3159   7.3159   7.4289   7.4289   7.7125   7.7125
     7.7379   7.7379   7.7666   7.7666   7.8239   7.8239   8.0011   8.0012
    11.2120  11.2120  11.6619  11.6619  11.7789  11.7789  12.1428  12.1428
    12.2599  12.2599  12.5531  12.5531  12.6366  12.6366  12.8554  12.8555
    13.0743  13.0743  13.1368  13.1368  13.4882  13.4882  13.7273  13.7273
    15.6583  15.6584  16.0689  16.0689  16.6389  16.6389  16.7712  16.7712
    17.1209  17.1209  17.6149  17.6149  18.0075

          k = 0.1667-0.4808 0.0000 ( 61394 PWs)   bands (ev):

   -65.8646 -65.8646 -65.8637 -65.8637 -65.8637 -65.8637 -65.8628 -65.8628
   -30.2599 -30.2599 -30.2549 -30.2549 -30.2438 -30.2438 -30.2427 -30.2427
   -30.2245 -30.2245 -30.2106 -30.2105 -30.2031 -30.2031 -30.1817 -30.1817
   -30.1558 -30.1558 -30.1400 -30.1399 -30.1292 -30.1292 -30.1191 -30.1191
   -20.0235 -20.0235 -20.0233 -20.0233 -20.0228 -20.0228 -20.0226 -20.0226
   -20.0038 -20.0038 -20.0035 -20.0035 -20.0035 -20.0034 -20.0032 -20.0032
   -19.9970 -19.9970 -19.9968 -19.9968 -19.9966 -19.9966 -19.9965 -19.9965
   -19.9897 -19.9897 -19.9893 -19.9893 -19.9881 -19.9881 -19.9877 -19.9877
   -19.9861 -19.9861 -19.9857 -19.9857 -19.9817 -19.9817 -19.9814 -19.9814
   -19.9798 -19.9798 -19.9794 -19.9794 -19.9768 -19.9768 -19.9762 -19.9762
   -19.9634 -19.9634 -19.9624 -19.9624 -19.9621 -19.9621 -19.9612 -19.9612
    -9.4599  -9.4599  -9.0577  -9.0577  -8.9372  -8.9372  -8.6706  -8.6706
    -8.2498  -8.2498  -8.1964  -8.1964  -8.1696  -8.1696  -8.1622  -8.1622
    -7.6953  -7.6953  -7.5935  -7.5935  -7.5487  -7.5486  -7.4688  -7.4688
     1.6345   1.6345   1.6466   1.6466   1.9659   1.9659   2.1494   2.1494
     2.7526   2.7526   3.2026   3.2026   3.3233   3.3233   3.3914   3.3914
     3.5154   3.5154   3.6147   3.6147   3.8597   3.8597   4.0074   4.0074
     4.0927   4.0927   4.6806   4.6806   4.8732   4.8733   5.3150   5.3150
     5.4077   5.4077   5.5274   5.5274   5.5885   5.5885   5.8282   5.8282
     5.9737   5.9737   5.9823   5.9823   6.1171   6.1171   6.2827   6.2827
     6.5578   6.5579   6.6241   6.6241   6.9098   6.9098   7.1039   7.1039
     7.1774   7.1774   7.2313   7.2313   7.3692   7.3692   7.6726   7.6727
     7.7194   7.7195   7.7603   7.7603   7.8158   7.8158   7.9650   7.9650
    10.3484  10.3484  11.5223  11.5224  11.6060  11.6060  11.8804  11.8804
    11.9573  11.9573  12.6512  12.6512  12.6667  12.6668  12.8878  12.8879
    13.4241  13.4241  13.5298  13.5299  13.6808  13.6808  13.7888  13.7888
    15.5993  15.5993  15.8358  15.8359  15.8873  15.8873  16.1478  16.1479
    16.8901  16.8901  18.0974  18.0974  18.3441

          k = 0.1667-0.4808 0.1653 ( 61416 PWs)   bands (ev):

   -65.8645 -65.8645 -65.8638 -65.8638 -65.8636 -65.8636 -65.8629 -65.8629
   -30.2565 -30.2565 -30.2510 -30.2509 -30.2442 -30.2441 -30.2410 -30.2410
   -30.2252 -30.2252 -30.2090 -30.2088 -30.2046 -30.2044 -30.1804 -30.1804
   -30.1601 -30.1601 -30.1444 -30.1444 -30.1289 -30.1288 -30.1205 -30.1205
   -20.0234 -20.0234 -20.0233 -20.0233 -20.0228 -20.0228 -20.0227 -20.0227
   -20.0038 -20.0038 -20.0035 -20.0035 -20.0035 -20.0035 -20.0032 -20.0032
   -19.9970 -19.9969 -19.9968 -19.9968 -19.9967 -19.9967 -19.9965 -19.9965
   -19.9896 -19.9896 -19.9892 -19.9892 -19.9882 -19.9881 -19.9878 -19.9878
   -19.9861 -19.9861 -19.9857 -19.9857 -19.9815 -19.9815 -19.9812 -19.9811
   -19.9798 -19.9798 -19.9794 -19.9794 -19.9771 -19.9771 -19.9766 -19.9766
   -19.9633 -19.9633 -19.9624 -19.9624 -19.9622 -19.9622 -19.9613 -19.9613
    -9.4043  -9.4042  -8.9793  -8.9785  -8.9554  -8.9549  -8.6391  -8.6390
    -8.2577  -8.2563  -8.1969  -8.1955  -8.1751  -8.1730  -8.1593  -8.1560
    -7.7300  -7.7282  -7.6541  -7.6538  -7.5941  -7.5938  -7.5485  -7.5482
     1.8139   1.8213   1.8861   1.8898   1.9702   1.9740   2.1941   2.2001
     2.8429   2.8468   3.2221   3.2239   3.3175   3.3645   3.3680   3.4014
     3.5292   3.5619   3.5945   3.6428   3.8700   3.8880   4.0114   4.0234
     4.1158   4.1159   4.5935   4.6455   4.7300   4.7572   5.1552   5.1782
     5.2907   5.3088   5.3463   5.4059   5.4407   5.4901   5.6928   5.7039
[...]
    12.3841  12.3841  12.3841  12.3841  12.5970  12.5970  12.5970  12.5970
    13.2881  13.2881  13.2881  13.2881  13.4931  13.4931  13.4931  13.4931
    15.6886  15.6886  15.6886  15.6886  17.0619  17.0620  17.0620  17.0620
    17.5374  17.5374  17.5374  17.5374  17.7943

          k =-0.5000 0.3206 0.0000 ( 61412 PWs)   bands (ev):

   -65.8643 -65.8643 -65.8640 -65.8640 -65.8634 -65.8634 -65.8631 -65.8631
   -30.2630 -30.2630 -30.2542 -30.2541 -30.2444 -30.2444 -30.2281 -30.2281
   -30.2176 -30.2176 -30.2138 -30.2138 -30.1802 -30.1802 -30.1781 -30.1781
   -30.1654 -30.1654 -30.1540 -30.1540 -30.1365 -30.1364 -30.1308 -30.1308
   -20.0235 -20.0235 -20.0233 -20.0233 -20.0229 -20.0228 -20.0226 -20.0226
   -20.0038 -20.0038 -20.0036 -20.0036 -20.0034 -20.0034 -20.0032 -20.0032
   -19.9970 -19.9970 -19.9969 -19.9968 -19.9968 -19.9967 -19.9965 -19.9965
   -19.9906 -19.9906 -19.9892 -19.9892 -19.9886 -19.9886 -19.9866 -19.9866
   -19.9835 -19.9835 -19.9833 -19.9833 -19.9828 -19.9828 -19.9826 -19.9826
   -19.9811 -19.9811 -19.9805 -19.9805 -19.9765 -19.9765 -19.9764 -19.9764
   -19.9630 -19.9630 -19.9629 -19.9629 -19.9618 -19.9618 -19.9616 -19.9616
    -9.3016  -9.3016  -9.1471  -9.1471  -8.6908  -8.6908  -8.4757  -8.4757
    -8.3152  -8.3152  -8.2887  -8.2887  -8.2262  -8.2262  -8.1488  -8.1488
    -7.8720  -7.8720  -7.8321  -7.8321  -7.5393  -7.5393  -7.5231  -7.5231
     1.6575   1.6575   1.6675   1.6675   2.5776   2.5776   2.7205   2.7206
     3.1774   3.1774   3.2450   3.2450   3.2756   3.2756   3.4088   3.4089
     3.5069   3.5069   3.7196   3.7196   3.8505   3.8505   3.9369   3.9369
     4.1493   4.1493   4.2768   4.2768   4.5461   4.5461   4.6786   4.6786
     5.1187   5.1187   5.1252   5.1252   5.4260   5.4260   5.5719   5.5719
     5.7074   5.7074   5.9805   5.9805   6.3122   6.3122   6.3314   6.3314
     6.6594   6.6594   6.7644   6.7644   6.7899   6.7899   6.9567   6.9567
     7.2648   7.2648   7.2903   7.2903   7.3390   7.3390   7.6495   7.6495
     7.6837   7.6837   7.8400   7.8400   7.8774   7.8774   8.0951   8.0952
    11.0265  11.0265  11.6017  11.6017  11.7086  11.7086  11.8316  11.8316
    12.2955  12.2955  12.5083  12.5083  12.7951  12.7951  12.9964  12.9964
    13.0800  13.0800  13.2601  13.2601  13.5217  13.5217  13.9213  13.9213
    15.4767  15.4768  15.7595  15.7595  16.5459  16.5459  16.7513  16.7514
    16.8619  16.8619  17.6033  17.6033  18.0111

          k =-0.5000 0.3206 0.1653 ( 61404 PWs)   bands (ev):

   -65.8642 -65.8642 -65.8639 -65.8639 -65.8635 -65.8635 -65.8632 -65.8632
   -30.2603 -30.2603 -30.2495 -30.2494 -30.2449 -30.2449 -30.2253 -30.2253
   -30.2182 -30.2182 -30.2129 -30.2129 -30.1821 -30.1821 -30.1807 -30.1807
   -30.1647 -30.1647 -30.1533 -30.1533 -30.1404 -30.1404 -30.1339 -30.1339
   -20.0235 -20.0235 -20.0232 -20.0232 -20.0229 -20.0229 -20.0226 -20.0226
   -20.0038 -20.0037 -20.0036 -20.0036 -20.0034 -20.0034 -20.0033 -20.0033
   -19.9970 -19.9970 -19.9969 -19.9968 -19.9968 -19.9968 -19.9966 -19.9965
   -19.9905 -19.9905 -19.9893 -19.9893 -19.9884 -19.9884 -19.9867 -19.9867
   -19.9834 -19.9834 -19.9833 -19.9833 -19.9828 -19.9828 -19.9826 -19.9826
   -19.9809 -19.9808 -19.9803 -19.9803 -19.9769 -19.9768 -19.9767 -19.9767
   -19.9630 -19.9629 -19.9628 -19.9628 -19.9619 -19.9619 -19.9617 -19.9617
    -9.2363  -9.2363  -9.0706  -9.0706  -8.7067  -8.7067  -8.4576  -8.4575
    -8.3340  -8.3340  -8.2814  -8.2814  -8.2166  -8.2166  -8.1518  -8.1518
    -7.8702  -7.8702  -7.8377  -7.8377  -7.6470  -7.6470  -7.6286  -7.6286
     1.8967   1.8967   1.9070   1.9070   2.5880   2.5880   2.7081   2.7082
     3.1970   3.1970   3.2720   3.2720   3.3164   3.3164   3.4445   3.4445
     3.5265   3.5265   3.7612   3.7612   3.8832   3.8832   3.9878   3.9878
     4.1401   4.1401   4.2905   4.2905   4.5361   4.5361   4.6571   4.6571
     4.9728   4.9728   5.0915   5.0915   5.2890   5.2890   5.3255   5.3255
     5.4431   5.4431   5.7576   5.7576   5.9901   5.9902   6.0592   6.0592
     6.8335   6.8335   6.9942   6.9942   7.0172   7.0172   7.0631   7.0631
     7.2409   7.2409   7.3205   7.3205   7.3746   7.3746   7.6544   7.6544
     7.6953   7.6953   7.8460   7.8460   7.8769   7.8769   8.0701   8.0701
    11.1744  11.1745  11.6613  11.6613  11.7795  11.7795  11.8820  11.8820
    12.3189  12.3189  12.5467  12.5467  12.7878  12.7878  12.9564  12.9565
    13.0860  13.0860  13.2367  13.2367  13.3915  13.3915  13.8012  13.8012
    15.6683  15.6684  15.9744  15.9745  16.5948  16.5949  16.7508  16.7508
    16.9219  16.9219  17.6398  17.6399  17.9774

          k =-0.5000 0.3206 0.3305 ( 61388 PWs)   bands (ev):

   -65.8641 -65.8641 -65.8638 -65.8638 -65.8636 -65.8636 -65.8634 -65.8633
   -30.2546 -30.2546 -30.2468 -30.2468 -30.2375 -30.2375 -30.2206 -30.2206
   -30.2159 -30.2159 -30.2096 -30.2096 -30.1891 -30.1891 -30.1888 -30.1888
   -30.1625 -30.1625 -30.1516 -30.1516 -30.1490 -30.1490 -30.1407 -30.1407
   -20.0234 -20.0233 -20.0231 -20.0231 -20.0230 -20.0230 -20.0228 -20.0227
   -20.0037 -20.0037 -20.0035 -20.0035 -20.0035 -20.0035 -20.0033 -20.0033
   -19.9970 -19.9970 -19.9969 -19.9968 -19.9968 -19.9968 -19.9966 -19.9966
   -19.9902 -19.9901 -19.9895 -19.9895 -19.9880 -19.9879 -19.9870 -19.9870
   -19.9833 -19.9833 -19.9833 -19.9832 -19.9828 -19.9827 -19.9827 -19.9827
   -19.9801 -19.9801 -19.9797 -19.9796 -19.9778 -19.9778 -19.9776 -19.9775
   -19.9627 -19.9627 -19.9626 -19.9626 -19.9621 -19.9621 -19.9620 -19.9619
    -9.0681  -9.0681  -8.8615  -8.8615  -8.7613  -8.7613  -8.4242  -8.4242
    -8.3694  -8.3693  -8.2571  -8.2571  -8.1960  -8.1960  -8.1567  -8.1567
    -7.9247  -7.9247  -7.9070  -7.9070  -7.8512  -7.8512  -7.8124  -7.8124
     2.4520   2.4521   2.5465   2.5465   2.6213   2.6214   2.7493   2.7493
     3.2385   3.2385   3.2689   3.2689   3.4340   3.4340   3.5021   3.5021
     3.6140   3.6140   3.8909   3.8909   3.9852   3.9852   4.0646   4.0646
     4.1359   4.1359   4.3307   4.3307   4.4380   4.4380   4.5036   4.5036
     4.6435   4.6435   4.7761   4.7761   4.9565   4.9565   5.1057   5.1057
     5.1751   5.1751   5.2726   5.2726   5.3487   5.3487   5.6090   5.6091
     7.0476   7.0476   7.1218   7.1218   7.2242   7.2242   7.2408   7.2408
     7.3965   7.3965   7.4564   7.4564   7.5161   7.5161   7.6747   7.6747
     7.7301   7.7301   7.8497   7.8497   7.8666   7.8666   7.9911   7.9911
    11.5643  11.5643  11.8378  11.8378  11.9429  11.9429  12.0335  12.0335
    12.4034  12.4034  12.6036  12.6036  12.6900  12.6900  12.7287  12.7287
    13.0218  13.0218  13.1292  13.1292  13.1438  13.1438  13.4956  13.4957
    16.1905  16.1905  16.5068  16.5068  16.7632  16.7632  16.8671  16.8671
    17.1085  17.1085  17.6734  17.6734  17.8846

          k =-0.5000 0.3206-0.4958 ( 61388 PWs)   bands (ev):

   -65.8639 -65.8638 -65.8638 -65.8638 -65.8636 -65.8636 -65.8635 -65.8635
   -30.2498 -30.2498 -30.2498 -30.2498 -30.2262 -30.2261 -30.2261 -30.2261
   -30.2029 -30.2029 -30.2029 -30.2029 -30.1999 -30.1999 -30.1999 -30.1999
   -30.1578 -30.1578 -30.1578 -30.1578 -30.1469 -30.1469 -30.1469 -30.1469
   -20.0232 -20.0232 -20.0232 -20.0232 -20.0230 -20.0229 -20.0229 -20.0229
   -20.0036 -20.0036 -20.0036 -20.0036 -20.0035 -20.0034 -20.0034 -20.0034
   -19.9970 -19.9969 -19.9969 -19.9969 -19.9967 -19.9967 -19.9967 -19.9967
   -19.9898 -19.9898 -19.9898 -19.9898 -19.9875 -19.9874 -19.9874 -19.9874
   -19.9833 -19.9832 -19.9832 -19.9832 -19.9827 -19.9827 -19.9827 -19.9827
   -19.9791 -19.9791 -19.9791 -19.9791 -19.9786 -19.9786 -19.9786 -19.9786
   -19.9625 -19.9624 -19.9624 -19.9624 -19.9623 -19.9623 -19.9623 -19.9623
    -8.8825  -8.8825  -8.8825  -8.8825  -8.5925  -8.5925  -8.5925  -8.5925
    -8.2608  -8.2608  -8.2608  -8.2608  -8.1488  -8.1488  -8.1488  -8.1488
    -8.1047  -8.1046  -8.1046  -8.1046  -7.8421  -7.8421  -7.8420  -7.8420
     2.6046   2.6046   2.6046   2.6046   3.1810   3.1810   3.1810   3.1810
     3.2974   3.2974   3.2974   3.2974   3.4628   3.4628   3.4628   3.4628
     3.6695   3.6695   3.6695   3.6696   4.0338   4.0338   4.0339   4.0339
     4.2458   4.2458   4.2458   4.2458   4.3583   4.3583   4.3583   4.3583
     4.5787   4.5787   4.5787   4.5787   4.7231   4.7231   4.7231   4.7231
     5.0057   5.0057   5.0057   5.0057   5.3873   5.3874   5.3874   5.3874
     7.1231   7.1231   7.1231   7.1232   7.2574   7.2574   7.2574   7.2574
     7.5421   7.5421   7.5422   7.5422   7.6937   7.6938   7.6938   7.6938
     7.7779   7.7779   7.7779   7.7779   7.8946   7.8946   7.8946   7.8946
    11.9363  11.9363  11.9363  11.9363  12.1418  12.1418  12.1418  12.1418
    12.3740  12.3740  12.3740  12.3740  12.6507  12.6507  12.6507  12.6507
    12.9585  12.9585  12.9585  12.9585  13.1976  13.1976  13.1976  13.1976
    16.5202  16.5203  16.5203  16.5203  17.1815  17.1815  17.1815  17.1815
    17.5028  17.5028  17.5028  17.5028  17.8348

          k =-0.5000-0.4808 0.0000 ( 61468 PWs)   bands (ev):

   -65.8642 -65.8641 -65.8641 -65.8641 -65.8633 -65.8633 -65.8633 -65.8633
   -30.2572 -30.2572 -30.2571 -30.2571 -30.2312 -30.2312 -30.2297 -30.2297
   -30.2224 -30.2224 -30.2208 -30.2208 -30.1796 -30.1796 -30.1788 -30.1788
   -30.1616 -30.1616 -30.1595 -30.1594 -30.1346 -30.1346 -30.1338 -30.1338
   -20.0234 -20.0234 -20.0234 -20.0234 -20.0227 -20.0227 -20.0227 -20.0227
   -20.0037 -20.0037 -20.0037 -20.0037 -20.0033 -20.0033 -20.0033 -20.0033
   -19.9970 -19.9970 -19.9969 -19.9969 -19.9967 -19.9966 -19.9966 -19.9966
   -19.9896 -19.9896 -19.9895 -19.9895 -19.9880 -19.9880 -19.9878 -19.9878
   -19.9835 -19.9835 -19.9834 -19.9834 -19.9828 -19.9828 -19.9826 -19.9826
   -19.9810 -19.9810 -19.9807 -19.9807 -19.9765 -19.9765 -19.9764 -19.9764
   -19.9630 -19.9630 -19.9630 -19.9629 -19.9617 -19.9617 -19.9617 -19.9617
    -9.2165  -9.2165  -9.2046  -9.2046  -8.4740  -8.4740  -8.4337  -8.4337
    -8.3568  -8.3568  -8.3198  -8.3198  -8.1620  -8.1620  -8.0911  -8.0911
    -8.0808  -8.0807  -8.0205  -8.0205  -7.5322  -7.5322  -7.5316  -7.5316
     1.6586   1.6586   1.6670   1.6670   3.0872   3.0872   3.1952   3.1952
     3.2129   3.2129   3.2550   3.2550   3.4255   3.4255   3.5291   3.5291
     3.5459   3.5459   3.6897   3.6897   3.7190   3.7190   3.8357   3.8357
     3.8624   3.8624   4.2252   4.2252   4.4948   4.4948   4.5951   4.5951
     4.6322   4.6322   4.7060   4.7060   5.4590   5.4590   5.5259   5.5259
     5.7288   5.7288   5.8225   5.8225   6.3258   6.3258   6.3325   6.3325
     6.7556   6.7556   6.7694   6.7694   6.8093   6.8093   6.8719   6.8719
     7.4375   7.4376   7.4682   7.4682   7.5308   7.5308   7.6598   7.6598
     7.7501   7.7501   7.7879   7.7879   7.8078   7.8078   7.8749   7.8749
    11.5337  11.5337  11.5552  11.5552  11.6728  11.6728  11.7023  11.7023
    12.4898  12.4898  12.5649  12.5649  12.5773  12.5773  12.7050  12.7050
    13.1204  13.1204  13.1314  13.1314  13.6306  13.6306  13.7077  13.7077
    15.6664  15.6664  15.7044  15.7044  16.9796  16.9796  17.2061  17.2061
    17.4179  17.4179  17.5334  17.5334  17.5919

          k =-0.5000-0.4808 0.1653 ( 61412 PWs)   bands (ev):

   -65.8641 -65.8641 -65.8641 -65.8641 -65.8633 -65.8633 -65.8633 -65.8633
   -30.2533 -30.2533 -30.2532 -30.2532 -30.2318 -30.2318 -30.2303 -30.2303
   -30.2206 -30.2206 -30.2191 -30.2191 -30.1817 -30.1817 -30.1811 -30.1811
   -30.1609 -30.1609 -30.1588 -30.1588 -30.1382 -30.1382 -30.1373 -30.1373
   -20.0234 -20.0234 -20.0233 -20.0233 -20.0228 -20.0228 -20.0227 -20.0227
   -20.0037 -20.0037 -20.0037 -20.0037 -20.0034 -20.0034 -20.0033 -20.0033
   -19.9969 -19.9969 -19.9969 -19.9969 -19.9967 -19.9967 -19.9967 -19.9966
   -19.9895 -19.9895 -19.9893 -19.9893 -19.9881 -19.9881 -19.9879 -19.9879
   -19.9834 -19.9834 -19.9833 -19.9833 -19.9828 -19.9828 -19.9826 -19.9826
   -19.9807 -19.9807 -19.9805 -19.9805 -19.9768 -19.9768 -19.9768 -19.9768
   -19.9629 -19.9629 -19.9629 -19.9629 -19.9618 -19.9618 -19.9618 -19.9618
    -9.1444  -9.1444  -9.1313  -9.1313  -8.4945  -8.4945  -8.4542  -8.4542
    -8.3415  -8.3415  -8.3027  -8.3027  -8.1591  -8.1591  -8.0994  -8.0994
    -8.0720  -8.0720  -8.0236  -8.0236  -7.6395  -7.6395  -7.6392  -7.6392
     1.8986   1.8986   1.9091   1.9091   3.1050   3.1050   3.2098   3.2098
     3.2206   3.2206   3.2847   3.2847   3.3934   3.3934   3.5224   3.5224
     3.6078   3.6078   3.7278   3.7278   3.7719   3.7719   3.8397   3.8397
     3.9289   3.9289   4.2438   4.2438   4.5004   4.5004   4.5827   4.5827
     4.6268   4.6269   4.6892   4.6892   5.1619   5.1619   5.3222   5.3222
     5.4337   5.4337   5.5709   5.5709   5.9908   5.9908   6.0224   6.0224
     6.9023   6.9023   6.9884   6.9884   7.0439   7.0439   7.0906   7.0906
     7.4282   7.4282   7.4755   7.4755   7.5667   7.5667   7.6509   7.6509
     7.7317   7.7317   7.7692   7.7692   7.8344   7.8344   7.8746   7.8746
    11.6098  11.6098  11.6642  11.6642  11.7317  11.7317  11.8129  11.8129
    12.5047  12.5047  12.5564  12.5564  12.5843  12.5843  12.7219  12.7219
    13.0597  13.0597  13.1202  13.1202  13.5002  13.5002  13.5798  13.5798
    15.8867  15.8867  15.9271  15.9271  17.0295  17.0295  17.2584  17.2584
    17.4168  17.4168  17.5470  17.5472  17.5873

          k =-0.5000-0.4808 0.3305 ( 61372 PWs)   bands (ev):

   -65.8639 -65.8639 -65.8639 -65.8639 -65.8635 -65.8635 -65.8635 -65.8635
   -30.2447 -30.2447 -30.2443 -30.2443 -30.2336 -30.2336 -30.2324 -30.2324
   -30.2142 -30.2142 -30.2131 -30.2131 -30.1890 -30.1890 -30.1888 -30.1888
   -30.1587 -30.1587 -30.1567 -30.1567 -30.1464 -30.1464 -30.1451 -30.1451
   -20.0232 -20.0232 -20.0232 -20.0232 -20.0229 -20.0229 -20.0229 -20.0229
   -20.0036 -20.0036 -20.0036 -20.0036 -20.0034 -20.0034 -20.0034 -20.0034
   -19.9969 -19.9969 -19.9969 -19.9969 -19.9967 -19.9967 -19.9967 -19.9967
   -19.9891 -19.9891 -19.9890 -19.9889 -19.9883 -19.9883 -19.9881 -19.9881
   -19.9833 -19.9833 -19.9832 -19.9832 -19.9828 -19.9828 -19.9827 -19.9827
   -19.9800 -19.9800 -19.9798 -19.9798 -19.9777 -19.9777 -19.9777 -19.9776
   -19.9627 -19.9627 -19.9627 -19.9626 -19.9621 -19.9620 -19.9620 -19.9620
    -8.9515  -8.9515  -8.9333  -8.9333  -8.5645  -8.5644  -8.5248  -8.5248
    -8.2897  -8.2896  -8.2495  -8.2495  -8.1528  -8.1528  -8.1107  -8.1107
    -8.0589  -8.0589  -8.0325  -8.0325  -7.8926  -7.8926  -7.8914  -7.8913
     2.5241   2.5241   2.5494   2.5494   3.1468   3.1468   3.2001   3.2001
     3.2613   3.2613   3.3579   3.3579   3.3700   3.3700   3.4928   3.4928
     3.7008   3.7008   3.7892   3.7892   3.8561   3.8561   3.9099   3.9099
     4.1379   4.1379   4.2913   4.2913   4.4774   4.4774   4.4997   4.4997
     4.5785   4.5785   4.6315   4.6315   4.7753   4.7753   4.9070   4.9070
     4.9822   4.9822   5.1172   5.1173   5.2670   5.2670   5.3195   5.3195
     7.1508   7.1508   7.2674   7.2674   7.3410   7.3410   7.3988   7.3988
     7.4303   7.4303   7.5282   7.5282   7.6074   7.6074   7.6494   7.6494
     7.7136   7.7136   7.7594   7.7594   7.8530   7.8530   7.8622   7.8622
    11.8398  11.8398  11.9198  11.9198  11.9651  11.9651  12.1009  12.1009
    12.4846  12.4846  12.5106  12.5106  12.6116  12.6116  12.7629  12.7629
    12.8117  12.8117  12.9367  12.9367  13.1820  13.1820  13.2559  13.2559
    16.5458  16.5458  16.6073  16.6073  17.1584  17.1584  17.3739  17.3739
    17.3975  17.3975  17.5750  17.5757  17.6090

          k =-0.5000-0.4808-0.4958 ( 61408 PWs)   bands (ev):

   -65.8637 -65.8637 -65.8637 -65.8637 -65.8637 -65.8637 -65.8637 -65.8637
   -30.2378 -30.2378 -30.2378 -30.2378 -30.2364 -30.2364 -30.2363 -30.2363
   -30.2031 -30.2031 -30.2031 -30.2031 -30.2002 -30.2002 -30.2002 -30.2001
   -30.1545 -30.1545 -30.1545 -30.1545 -30.1517 -30.1517 -30.1517 -30.1517
   -20.0231 -20.0231 -20.0231 -20.0231 -20.0230 -20.0230 -20.0230 -20.0230
   -20.0036 -20.0036 -20.0035 -20.0035 -20.0035 -20.0035 -20.0035 -20.0035
   -19.9969 -19.9968 -19.9968 -19.9968 -19.9968 -19.9968 -19.9968 -19.9968
   -19.9887 -19.9887 -19.9887 -19.9887 -19.9885 -19.9885 -19.9885 -19.9885
   -19.9832 -19.9832 -19.9832 -19.9832 -19.9827 -19.9827 -19.9827 -19.9827
   -19.9790 -19.9790 -19.9790 -19.9790 -19.9787 -19.9787 -19.9787 -19.9787
   -19.9624 -19.9624 -19.9624 -19.9624 -19.9624 -19.9623 -19.9623 -19.9623
    -8.7251  -8.7251  -8.7251  -8.7251  -8.6847  -8.6847  -8.6847  -8.6846
    -8.1830  -8.1830  -8.1830  -8.1830  -8.1298  -8.1298  -8.1298  -8.1298
    -8.0987  -8.0987  -8.0987  -8.0987  -8.0414  -8.0414  -8.0414  -8.0414
     3.0795   3.0795   3.0796   3.0796   3.1895   3.1895   3.1895   3.1895
     3.3797   3.3797   3.3797   3.3797   3.5019   3.5019   3.5019   3.5019
     3.5930   3.5931   3.5931   3.5931   3.8093   3.8093   3.8093   3.8093
     4.3725   4.3725   4.3725   4.3725   4.4286   4.4286   4.4286   4.4286
     4.5904   4.5904   4.5904   4.5904   4.6844   4.6844   4.6844   4.6844
     4.7700   4.7701   4.7701   4.7701   4.8831   4.8831   4.8831   4.8831
     7.2863   7.2863   7.2863   7.2863   7.4588   7.4588   7.4589   7.4589
     7.5548   7.5548   7.5548   7.5548   7.6247   7.6247   7.6247   7.6247
     7.7496   7.7496   7.7496   7.7496   7.8513   7.8513   7.8513   7.8513
    12.1509  12.1509  12.1509  12.1509  12.1893  12.1893  12.1893  12.1893
    12.4313  12.4313  12.4313  12.4313  12.6366  12.6366  12.6366  12.6366
    12.7958  12.7958  12.7958  12.7958  12.9406  12.9406  12.9406  12.9406
    17.1911  17.1911  17.1911  17.1911  17.3109  17.3109  17.3109  17.3109
    17.5554  17.5554  17.5554  17.5554  17.6915

     the Fermi energy is    10.0812 ev

!    total energy              =   -6261.03243571 Ry
     Harris-Foulkes estimate   =   -6261.03243571 Ry
     estimated scf accuracy    <          1.8E-09 Ry

     The total energy is the sum of the following terms:

     one-electron contribution =   -4647.37953067 Ry
     hartree contribution      =    2564.20173341 Ry
     xc contribution           =    -965.76263450 Ry
     ewald contribution        =   -3212.09199569 Ry
     smearing contrib. (-TS)   =      -0.00000825 Ry

     convergence has been achieved in  13 iterations

     Writing output data file chempot_1.save/
 
     init_run     :     33.61s CPU     35.73s WALL (       1 calls)
     electrons    :   1316.80s CPU   1345.35s WALL (       1 calls)

     Called by init_run:
     wfcinit      :     31.28s CPU     33.23s WALL (       1 calls)
     potinit      :      0.89s CPU      0.94s WALL (       1 calls)
     hinit0       :      1.26s CPU      1.31s WALL (       1 calls)

     Called by electrons:
     c_bands      :   1134.96s CPU   1161.08s WALL (      13 calls)
     sum_band     :    175.78s CPU    177.03s WALL (      13 calls)
     v_of_rho     :      1.62s CPU      1.71s WALL (      14 calls)
     mix_rho      :      3.64s CPU      4.33s WALL (      13 calls)

     Called by c_bands:
     init_us_2    :     12.55s CPU     13.13s WALL (      54 calls)
     cegterg      :   1017.05s CPU   1041.72s WALL (      26 calls)

     Called by sum_band:

     Called by *egterg:
     h_psi        :    828.51s CPU    841.04s WALL (     119 calls)
     g_psi        :      1.93s CPU      1.94s WALL (      91 calls)
     cdiaghg      :     14.06s CPU     14.17s WALL (     117 calls)

     Called by h_psi:
     h_psi:pot    :    825.62s CPU    831.55s WALL (     119 calls)
     h_psi:calbec :     78.12s CPU     80.95s WALL (     119 calls)
     vloc_psi     :    665.52s CPU    668.20s WALL (     119 calls)
     add_vuspsi   :     81.97s CPU     82.40s WALL (     119 calls)

     General routines
     calbec       :     78.12s CPU     80.95s WALL (     119 calls)
     fft          :      0.73s CPU      0.73s WALL (      42 calls)
     ffts         :      0.23s CPU      0.23s WALL (      13 calls)
     fftw         :    658.26s CPU    660.42s WALL (   33766 calls)
 
     Parallel routines
 
     PWSCF        :  22m33.95s CPU  23m 7.21s WALL

 
   This run was terminated on:  22:12:57  16Dec2019            

=------------------------------------------------------------------------------=
   JOB DONE.
=------------------------------------------------------------------------------=
