
     Program PWSCF v.6.2 (svn rev. 14038) starts on 21Mar2020 at 20:30:35 

     This program is part of the open-source Quantum ESPRESSO suite
     for quantum simulation of materials; please cite
         "P. Giannozzi et al., J. Phys.:Condens. Matter 21 395502 (2009);
         "P. Giannozzi et al., J. Phys.:Condens. Matter 29 465901 (2017);
          URL http://www.quantum-espresso.org", 
     in publications or presentations arising from this work. More details at
     http://www.quantum-espresso.org/quote

     Parallel version (MPI), running on    40 processors

     MPI processes distributed on     8 nodes
     K-points division:     npool     =      40
     Reading input from scf.in

     Current dimensions of program PWSCF are:
     Max number of different atomic species (ntypx) = 10
     Max number of k-points (npk) =  40000
     Max angular momentum in pseudopotentials (lmaxx) =  3

     Subspace diagonalization in iterative solution of the eigenvalue problem:
     a serial algorithm will be used

 
     G-vector sticks info
     --------------------
     sticks:   dense  smooth     PW     G-vecs:    dense   smooth      PW
     Sum        7617    7617   2037               492513   492513   68199
 


     bravais-lattice index     =            0
     lattice parameter (alat)  =      13.8196  a.u.
     unit-cell volume          =    2772.3119 (a.u.)^3
     number of atoms/cell      =           32
     number of atomic types    =            2
     number of electrons       =       369.00
     number of Kohn-Sham states=          222
     kinetic-energy cutoff     =     120.0000  Ry
     charge density cutoff     =     480.0000  Ry
     convergence threshold     =      1.0E-08
     mixing beta               =       0.7000
     number of iterations used =            8  plain     mixing
     Exchange-correlation      = SLA PW NOGX NOGC ( 1  4  0  0 0 0)

     celldm(1)=  13.819597  celldm(2)=   0.000000  celldm(3)=   0.000000
     celldm(4)=   0.000000  celldm(5)=   0.000000  celldm(6)=   0.000000

     crystal axes: (cart. coord. in units of alat)
               a(1) = (   1.000000   0.000000   0.000000 )  
               a(2) = (   0.000000   1.043250   0.000000 )  
               a(3) = (   0.000000   0.000000   1.006856 )  

     reciprocal axes: (cart. coord. in units 2 pi/alat)
               b(1) = (  1.000000  0.000000  0.000000 )  
               b(2) = (  0.000000  0.958543  0.000000 )  
               b(3) = (  0.000000  0.000000  0.993190 )  


     PseudoPot. # 1 for W  read from file:
     /cluster/scratch/mnoe/QE/pps/W_ONCV_LDA-4.0.upf
     MD5 check sum: ba0307d5d4cd419d6f1d13dc49d7c13a
     Pseudo is Norm-conserving + core correction, Zval = 28.0
     Generated using ONCVPSP code by D. R. Hamann
     Using radial grid of 1380 points,  8 beta functions with: 
                l(1) =   0
                l(2) =   0
                l(3) =   1
                l(4) =   1
                l(5) =   2
                l(6) =   2
                l(7) =   3
                l(8) =   3

     PseudoPot. # 2 for O  read from file:
     /cluster/scratch/mnoe/QE/pps/O_ONCV_LDA-3.0.upf
     MD5 check sum: a1bd6164e7280c17a38c229939bfbd54
     Pseudo is Norm-conserving + core correction, Zval =  6.0
     Generated using ONCVPSP code by D. R. Hamann
     Using radial grid of  926 points,  5 beta functions with: 
                l(1) =   0
                l(2) =   0
                l(3) =   1
                l(4) =   1
                l(5) =   2

     atomic species   valence    mass     pseudopotential
        W             28.00   183.84000     W ( 1.00)
        O              6.00    15.99940     O ( 1.00)

      8 Sym. Ops., with inversion, found ( 6 have fractional translation)



   Cartesian axes

     site n.     atom                  positions (alat units)
         1           W   tau(   1) = (   0.2333500   0.2940505   0.0158278  )
         2           W   tau(   2) = (   0.7666500   0.7491996   0.9910287  )
         3           W   tau(   3) = (   0.2666500   0.2275746   0.5192560  )
         4           W   tau(   4) = (   0.7333500   0.8156754   0.4876005  )
         5           W   tau(   5) = (   0.7666500   0.2940505   0.4876005  )
         6           W   tau(   6) = (   0.2333500   0.7491996   0.5192560  )
         7           W   tau(   7) = (   0.7333500   0.2275746   0.9910287  )
         8           W   tau(   8) = (   0.2666500   0.8156754   0.0158278  )
         9           O   tau(   9) = (   0.2192900   0.0086798   0.0049235  )
        10           O   tau(  10) = (   0.7807100   1.0345702   1.0019329  )
        11           O   tau(  11) = (   0.2807100   0.5129452   0.5083518  )
        12           O   tau(  12) = (   0.7192900   0.5303048   0.4985047  )
        13           O   tau(  13) = (   0.7807100   0.0086798   0.4985047  )
        14           O   tau(  14) = (   0.2192900   1.0345702   0.5083518  )
        15           O   tau(  15) = (   0.7192900   0.5129452   1.0019329  )
        16           O   tau(  16) = (   0.2807100   0.5303048   0.0049235  )
        17           O   tau(  17) = (   0.5045500   0.2279397   0.4526223  )
        18           O   tau(  18) = (   0.4954500   0.8153103   0.5542342  )
        19           O   tau(  19) = (   0.9954500   0.2936853   0.9560505  )
        20           O   tau(  20) = (   0.0045500   0.7495647   0.0508060  )
        21           O   tau(  21) = (   0.4954500   0.2279397   0.0508060  )
        22           O   tau(  22) = (   0.5045500   0.8153103   0.9560505  )
        23           O   tau(  23) = (   0.0045500   0.2936853   0.5542342  )
        24           O   tau(  24) = (   0.9954500   0.7495647   0.4526223  )
        25           O   tau(  25) = (   0.6995400   0.2536349   0.7481950  )
        26           O   tau(  26) = (   0.3004600   0.7896150   0.2586614  )
        27           O   tau(  27) = (   0.8004600   0.2679900   0.2447667  )
        28           O   tau(  28) = (   0.1995400   0.7752599   0.7620897  )
        29           O   tau(  29) = (   0.3004600   0.2536349   0.7620897  )
        30           O   tau(  30) = (   0.6995400   0.7896150   0.2447667  )
        31           O   tau(  31) = (   0.1995400   0.2679900   0.2586614  )
        32           O   tau(  32) = (   0.8004600   0.7752599   0.7481950  )

     number of k points=    64  gaussian smearing, width (Ry)=  0.0007
                       cart. coord. in units 2pi/alat
        k(    1) = (   0.0000000   0.0000000   0.0000000), wk =   0.0092593
        k(    2) = (   0.0000000   0.0000000   0.1655317), wk =   0.0185185
        k(    3) = (   0.0000000   0.0000000   0.3310634), wk =   0.0185185
        k(    4) = (   0.0000000   0.0000000  -0.4965951), wk =   0.0092593
        k(    5) = (   0.0000000   0.1597572   0.0000000), wk =   0.0185185
        k(    6) = (   0.0000000   0.1597572   0.1655317), wk =   0.0370370
        k(    7) = (   0.0000000   0.1597572   0.3310634), wk =   0.0370370
        k(    8) = (   0.0000000   0.1597572  -0.4965951), wk =   0.0185185
        k(    9) = (   0.0000000   0.3195143   0.0000000), wk =   0.0185185
        k(   10) = (   0.0000000   0.3195143   0.1655317), wk =   0.0370370
        k(   11) = (   0.0000000   0.3195143   0.3310634), wk =   0.0370370
        k(   12) = (   0.0000000   0.3195143  -0.4965951), wk =   0.0185185
        k(   13) = (   0.0000000  -0.4792715   0.0000000), wk =   0.0092593
        k(   14) = (   0.0000000  -0.4792715   0.1655317), wk =   0.0185185
        k(   15) = (   0.0000000  -0.4792715   0.3310634), wk =   0.0185185
        k(   16) = (   0.0000000  -0.4792715  -0.4965951), wk =   0.0092593
        k(   17) = (   0.1666667   0.0000000   0.0000000), wk =   0.0185185
        k(   18) = (   0.1666667   0.0000000   0.1655317), wk =   0.0370370
        k(   19) = (   0.1666667   0.0000000   0.3310634), wk =   0.0370370
        k(   20) = (   0.1666667   0.0000000  -0.4965951), wk =   0.0185185
        k(   21) = (   0.1666667   0.1597572   0.0000000), wk =   0.0370370
        k(   22) = (   0.1666667   0.1597572   0.1655317), wk =   0.0740741
        k(   23) = (   0.1666667   0.1597572   0.3310634), wk =   0.0740741
        k(   24) = (   0.1666667   0.1597572  -0.4965951), wk =   0.0370370
        k(   25) = (   0.1666667   0.3195143   0.0000000), wk =   0.0370370
        k(   26) = (   0.1666667   0.3195143   0.1655317), wk =   0.0740741
        k(   27) = (   0.1666667   0.3195143   0.3310634), wk =   0.0740741
        k(   28) = (   0.1666667   0.3195143  -0.4965951), wk =   0.0370370
        k(   29) = (   0.1666667  -0.4792715   0.0000000), wk =   0.0185185
        k(   30) = (   0.1666667  -0.4792715   0.1655317), wk =   0.0370370
        k(   31) = (   0.1666667  -0.4792715   0.3310634), wk =   0.0370370
        k(   32) = (   0.1666667  -0.4792715  -0.4965951), wk =   0.0185185
        k(   33) = (   0.3333333   0.0000000   0.0000000), wk =   0.0185185
        k(   34) = (   0.3333333   0.0000000   0.1655317), wk =   0.0370370
        k(   35) = (   0.3333333   0.0000000   0.3310634), wk =   0.0370370
        k(   36) = (   0.3333333   0.0000000  -0.4965951), wk =   0.0185185
        k(   37) = (   0.3333333   0.1597572   0.0000000), wk =   0.0370370
        k(   38) = (   0.3333333   0.1597572   0.1655317), wk =   0.0740741
        k(   39) = (   0.3333333   0.1597572   0.3310634), wk =   0.0740741
        k(   40) = (   0.3333333   0.1597572  -0.4965951), wk =   0.0370370
        k(   41) = (   0.3333333   0.3195143   0.0000000), wk =   0.0370370
        k(   42) = (   0.3333333   0.3195143   0.1655317), wk =   0.0740741
        k(   43) = (   0.3333333   0.3195143   0.3310634), wk =   0.0740741
        k(   44) = (   0.3333333   0.3195143  -0.4965951), wk =   0.0370370
        k(   45) = (   0.3333333  -0.4792715   0.0000000), wk =   0.0185185
        k(   46) = (   0.3333333  -0.4792715   0.1655317), wk =   0.0370370
        k(   47) = (   0.3333333  -0.4792715   0.3310634), wk =   0.0370370
        k(   48) = (   0.3333333  -0.4792715  -0.4965951), wk =   0.0185185
        k(   49) = (  -0.5000000   0.0000000   0.0000000), wk =   0.0092593
        k(   50) = (  -0.5000000   0.0000000   0.1655317), wk =   0.0185185
        k(   51) = (  -0.5000000   0.0000000   0.3310634), wk =   0.0185185
        k(   52) = (  -0.5000000   0.0000000  -0.4965951), wk =   0.0092593
        k(   53) = (  -0.5000000   0.1597572   0.0000000), wk =   0.0185185
        k(   54) = (  -0.5000000   0.1597572   0.1655317), wk =   0.0370370
        k(   55) = (  -0.5000000   0.1597572   0.3310634), wk =   0.0370370
        k(   56) = (  -0.5000000   0.1597572  -0.4965951), wk =   0.0185185
        k(   57) = (  -0.5000000   0.3195143   0.0000000), wk =   0.0185185
        k(   58) = (  -0.5000000   0.3195143   0.1655317), wk =   0.0370370
        k(   59) = (  -0.5000000   0.3195143   0.3310634), wk =   0.0370370
        k(   60) = (  -0.5000000   0.3195143  -0.4965951), wk =   0.0185185
        k(   61) = (  -0.5000000  -0.4792715   0.0000000), wk =   0.0092593
        k(   62) = (  -0.5000000  -0.4792715   0.1655317), wk =   0.0185185
        k(   63) = (  -0.5000000  -0.4792715   0.3310634), wk =   0.0185185
        k(   64) = (  -0.5000000  -0.4792715  -0.4965951), wk =   0.0092593

     Dense  grid:   492513 G-vectors     FFT dimensions: ( 100, 108, 100)

     Estimated max dynamical RAM per process >       3.10 GB

     Estimated total dynamical RAM >     124.10 GB

     Initial potential from superposition of free atoms

     starting charge  367.99656, renormalised to  369.00000
     Starting wfc are  232 randomized atomic wfcs

     total cpu time spent up to now is       43.7 secs

     Self-consistent Calculation

     iteration #  1     ecut=   120.00 Ry     beta= 0.70
     Davidson diagonalization with overlap
     ethr =  1.00E-02,  avg # of iterations =  5.3

     total cpu time spent up to now is      183.2 secs

     total energy              =   -6253.07910774 Ry
     Harris-Foulkes estimate   =   -6263.97581933 Ry
     estimated scf accuracy    <      13.68340587 Ry

     iteration #  2     ecut=   120.00 Ry     beta= 0.70
     Davidson diagonalization with overlap
     ethr =  3.71E-03,  avg # of iterations =  3.7

     total cpu time spent up to now is      320.0 secs

     total energy              =   -6250.14767696 Ry
     Harris-Foulkes estimate   =   -6269.83643268 Ry
     estimated scf accuracy    <      52.01565217 Ry

     iteration #  3     ecut=   120.00 Ry     beta= 0.70
     Davidson diagonalization with overlap
     ethr =  3.71E-03,  avg # of iterations =  3.4

     total cpu time spent up to now is      449.0 secs

     total energy              =   -6260.34328534 Ry
     Harris-Foulkes estimate   =   -6260.59979091 Ry
     estimated scf accuracy    <       0.86083895 Ry

     iteration #  4     ecut=   120.00 Ry     beta= 0.70
     Davidson diagonalization with overlap
     ethr =  2.33E-04,  avg # of iterations =  3.0

     total cpu time spent up to now is      559.1 secs

     total energy              =   -6260.33203233 Ry
     Harris-Foulkes estimate   =   -6260.40533141 Ry
     estimated scf accuracy    <       0.21845097 Ry

     iteration #  5     ecut=   120.00 Ry     beta= 0.70
     Davidson diagonalization with overlap
     ethr =  5.92E-05,  avg # of iterations =  5.3

     total cpu time spent up to now is      675.1 secs

     total energy              =   -6260.33838857 Ry
     Harris-Foulkes estimate   =   -6260.36635495 Ry
     estimated scf accuracy    <       0.06257061 Ry

     iteration #  6     ecut=   120.00 Ry     beta= 0.70
     Davidson diagonalization with overlap
     ethr =  1.70E-05,  avg # of iterations =  5.3

     total cpu time spent up to now is      801.2 secs

     total energy              =   -6260.35190969 Ry
     Harris-Foulkes estimate   =   -6260.35445974 Ry
     estimated scf accuracy    <       0.00706069 Ry

     iteration #  7     ecut=   120.00 Ry     beta= 0.70
     Davidson diagonalization with overlap
     ethr =  1.91E-06,  avg # of iterations =  5.2

     total cpu time spent up to now is      916.7 secs

     total energy              =   -6260.35260891 Ry
     Harris-Foulkes estimate   =   -6260.35281081 Ry
     estimated scf accuracy    <       0.00038982 Ry

     iteration #  8     ecut=   120.00 Ry     beta= 0.70
     Davidson diagonalization with overlap
     ethr =  1.06E-07,  avg # of iterations =  3.0

     total cpu time spent up to now is     1038.2 secs

     total energy              =   -6260.35273187 Ry
     Harris-Foulkes estimate   =   -6260.35275065 Ry
     estimated scf accuracy    <       0.00007128 Ry

     iteration #  9     ecut=   120.00 Ry     beta= 0.70
     Davidson diagonalization with overlap
     ethr =  1.93E-08,  avg # of iterations =  2.2

     total cpu time spent up to now is     1144.5 secs

     total energy              =   -6260.35273382 Ry
     Harris-Foulkes estimate   =   -6260.35274222 Ry
     estimated scf accuracy    <       0.00003153 Ry

     iteration # 10     ecut=   120.00 Ry     beta= 0.70
     Davidson diagonalization with overlap
     ethr =  8.55E-09,  avg # of iterations =  1.1

     total cpu time spent up to now is     1243.1 secs

     total energy              =   -6260.35273283 Ry
     Harris-Foulkes estimate   =   -6260.35273585 Ry
     estimated scf accuracy    <       0.00000702 Ry

     iteration # 11     ecut=   120.00 Ry     beta= 0.70
     Davidson diagonalization with overlap
     ethr =  1.90E-09,  avg # of iterations =  3.0

     total cpu time spent up to now is     1351.2 secs

     total energy              =   -6260.35273436 Ry
     Harris-Foulkes estimate   =   -6260.35273441 Ry
     estimated scf accuracy    <       0.00000012 Ry

     iteration # 12     ecut=   120.00 Ry     beta= 0.70
     Davidson diagonalization with overlap
     ethr =  3.23E-11,  avg # of iterations =  2.0

     total cpu time spent up to now is     1477.0 secs

     total energy              =   -6260.35273438 Ry
     Harris-Foulkes estimate   =   -6260.35273439 Ry
     estimated scf accuracy    <       0.00000003 Ry

     iteration # 13     ecut=   120.00 Ry     beta= 0.70
     Davidson diagonalization with overlap
     ethr =  7.30E-12,  avg # of iterations =  2.2

     total cpu time spent up to now is     1592.3 secs

     End of self-consistent calculation

          k = 0.0000 0.0000 0.0000 ( 61535 PWs)   bands (ev):

   -65.7207 -65.7202 -65.7198 -65.7196 -65.7192 -65.7191 -65.7187 -65.7182
   -30.1771 -30.1688 -30.1685 -30.1597 -30.1322 -30.1235 -30.1177 -30.1047
   -30.1046 -30.0979 -30.0877 -30.0763 -30.0724 -30.0629 -30.0620 -30.0381
   -30.0078 -30.0064 -29.9984 -29.9940 -29.9812 -29.9735 -29.9726 -29.9649
   -19.8649 -19.8647 -19.8642 -19.8641 -19.8628 -19.8627 -19.8619 -19.8618
   -19.8522 -19.8519 -19.8516 -19.8512 -19.8512 -19.8511 -19.8503 -19.8501
   -19.8478 -19.8474 -19.8461 -19.8460 -19.8459 -19.8450 -19.8443 -19.8436
   -19.8417 -19.8412 -19.8406 -19.8403 -19.8402 -19.8401 -19.8395 -19.8393
   -19.8331 -19.8329 -19.8329 -19.8327 -19.8305 -19.8302 -19.8302 -19.8300
   -19.8140 -19.8138 -19.8129 -19.8128 -19.8087 -19.8087 -19.8077 -19.8077
   -19.8042 -19.8041 -19.8030 -19.8029 -19.8002 -19.8001 -19.7990 -19.7989
    -9.7094  -9.3791  -9.2602  -9.2528  -8.9468  -8.9031  -8.8452  -8.7192
    -8.6954  -8.6311  -8.5838  -8.5764  -7.6881  -7.6047  -7.5795  -7.5462
    -7.5379  -7.5264  -7.5218  -7.4763  -7.4403  -7.4091  -7.4021  -7.3877
     1.6050   1.6206   1.6596   1.6599   1.6928   1.6932   1.7519   1.8701
     1.8819   1.9660   1.9932   2.1914   2.6338   2.7345   2.7589   2.8049
     2.9039   2.9846   4.3389   4.4362   4.5872   4.8122   4.8640   4.9811
     5.0347   5.0414   5.0658   5.0689   5.3160   5.3690   5.4399   5.5777
     5.7195   5.7637   5.7895   5.7998   5.8877   5.8963   5.9631   6.0194
     6.0473   6.0535   6.0772   6.0963   6.1767   6.2057   6.2280   6.3417
     6.3781   6.4614   6.4994   6.7100   6.7376   6.9445   6.9848   7.0477
     7.0565   7.1387   7.1662   7.1766   7.1854   7.2498   7.4010   7.4434
     7.5298   7.5671   7.9239   7.9551   8.1118   8.1786   8.3208   8.3687
    10.0245  10.0593  10.4325  10.4395  10.4991  10.5110  12.4151  12.5495
    12.6604  12.6754  12.8135  12.8311  12.8529  12.9401  13.0165  13.0227
    13.5170  13.5325  13.5815  13.6420  13.8752  13.9640  14.3502  14.3554
    14.8856  14.8967  15.0853  15.1610  15.7189  15.7632  15.9187  16.2153
    16.3475  16.9975  17.1147  17.2838  17.7327  17.7862

          k = 0.0000 0.0000 0.1655 ( 61509 PWs)   bands (ev):

   -65.7206 -65.7201 -65.7198 -65.7196 -65.7193 -65.7190 -65.7188 -65.7183
   -30.1764 -30.1692 -30.1677 -30.1602 -30.1299 -30.1202 -30.1182 -30.1016
   -30.1009 -30.0987 -30.0825 -30.0771 -30.0695 -30.0637 -30.0607 -30.0367
   -30.0127 -30.0116 -30.0039 -29.9986 -29.9808 -29.9738 -29.9732 -29.9660
   -19.8649 -19.8647 -19.8643 -19.8641 -19.8627 -19.8626 -19.8620 -19.8619
   -19.8521 -19.8519 -19.8516 -19.8512 -19.8511 -19.8511 -19.8504 -19.8502
   -19.8477 -19.8473 -19.8462 -19.8460 -19.8459 -19.8449 -19.8444 -19.8437
   -19.8417 -19.8413 -19.8405 -19.8403 -19.8402 -19.8401 -19.8395 -19.8393
   -19.8331 -19.8329 -19.8329 -19.8328 -19.8305 -19.8302 -19.8302 -19.8300
   -19.8136 -19.8135 -19.8126 -19.8125 -19.8091 -19.8091 -19.8081 -19.8081
   -19.8041 -19.8040 -19.8031 -19.8030 -19.8001 -19.8000 -19.7991 -19.7990
    -9.6640  -9.3238  -9.2780  -9.1973  -8.9190  -8.8624  -8.8542  -8.6812
    -8.6603  -8.6224  -8.5812  -8.5525  -7.7282  -7.7095  -7.6212  -7.5838
    -7.5645  -7.5608  -7.5210  -7.5144  -7.4900  -7.4795  -7.4173  -7.3966
     1.6732   1.6893   1.7161   1.7544   1.7827   1.7948   1.8648   1.9062
     1.9620   1.9981   2.1281   2.2947   2.7240   2.7675   2.8263   2.8911
     2.8957   3.0695   4.3230   4.3391   4.5995   4.6221   4.6799   4.7951
     4.8392   4.8540   5.0704   5.1078   5.1499   5.3325   5.4568   5.5487
     5.5919   5.6783   5.6860   5.8293   5.8308   5.8390   5.9007   5.9185
     5.9461   6.0487   6.1136   6.1262   6.1386   6.2103   6.2763   6.3610
     6.3812   6.6252   6.6740   6.7253   6.8684   6.9407   6.9459   6.9598
     7.0593   7.0750   7.1560   7.1753   7.2082   7.2460   7.2988   7.3268
     7.3604   7.4153   7.9490   7.9644   8.1286   8.1834   8.2719   8.3245
    10.2268  10.3070  10.4350  10.5111  10.7086  10.7681  12.4603  12.5020
    12.5992  12.7372  12.7673  12.8538  12.8706  13.0242  13.0275  13.0288
    13.3891  13.5449  13.5474  13.5946  13.9470  13.9646  14.2275  14.2577
    14.9204  14.9939  15.1566  15.1986  15.7363  15.8109  15.8878  16.3176
    16.4858  17.0091  17.1576  17.2833  17.8202  17.8342

          k = 0.0000 0.0000 0.3311 ( 61550 PWs)   bands (ev):

   -65.7205 -65.7200 -65.7199 -65.7195 -65.7194 -65.7190 -65.7189 -65.7184
   -30.1745 -30.1705 -30.1658 -30.1615 -30.1255 -30.1196 -30.1128 -30.1012
   -30.0922 -30.0921 -30.0795 -30.0692 -30.0677 -30.0603 -30.0526 -30.0320
   -30.0264 -30.0264 -30.0186 -30.0102 -29.9798 -29.9761 -29.9721 -29.9682
   -19.8648 -19.8646 -19.8644 -19.8643 -19.8626 -19.8625 -19.8621 -19.8620
   -19.8520 -19.8517 -19.8517 -19.8513 -19.8509 -19.8509 -19.8505 -19.8503
   -19.8474 -19.8471 -19.8466 -19.8463 -19.8456 -19.8448 -19.8447 -19.8440
   -19.8416 -19.8413 -19.8405 -19.8403 -19.8402 -19.8401 -19.8394 -19.8393
   -19.8330 -19.8329 -19.8329 -19.8328 -19.8304 -19.8303 -19.8302 -19.8301
   -19.8127 -19.8126 -19.8117 -19.8116 -19.8101 -19.8101 -19.8091 -19.8091
   -19.8039 -19.8038 -19.8033 -19.8032 -19.7999 -19.7998 -19.7993 -19.7992
    -9.5518  -9.3330  -9.1905  -9.0679  -8.9679  -8.8849  -8.6296  -8.6233
    -8.5938  -8.5363  -8.5253  -8.4354  -7.9801  -7.9783  -7.8732  -7.8544
    -7.6249  -7.5958  -7.5089  -7.4995  -7.4905  -7.4880  -7.4396  -7.4212
     1.6770   1.6823   1.7634   1.7812   1.8325   1.8536   1.9241   1.9563
     2.5668   2.6171   2.7118   2.7914   2.8142   2.8941   2.9769   3.0880
     3.1282   3.3017   3.9557   4.0871   4.1026   4.1903   4.3619   4.5188
     4.7064   4.7596   4.8182   4.9082   4.9488   5.0779   5.1683   5.3951
     5.4187   5.4734   5.5071   5.5581   5.7070   5.7587   5.8039   5.8837
     6.0189   6.0644   6.1011   6.1557   6.2459   6.2751   6.3891   6.4160
     6.4741   6.6072   6.6326   6.6746   6.7835   6.7841   6.7969   6.9904
     7.0220   7.1398   7.1570   7.1826   7.1885   7.2513   7.3296   7.3829
     7.4343   7.5543   7.9202   7.9277   8.1118   8.1597   8.1832   8.1841
    10.3592  10.4201  10.8916  11.0230  11.2616  11.3665  12.1897  12.2923
    12.4859  12.5822  12.7173  12.7855  12.9771  12.9831  13.0498  13.1674
    13.2548  13.4071  13.4861  13.5986  13.9297  13.9700  14.0154  14.0194
    15.0192  15.1413  15.2893  15.4905  15.7872  15.8675  16.1710  16.2260
    16.4661  17.2634  17.6179  17.6673  17.8100  17.9667

          k = 0.0000 0.0000-0.4966 ( 61524 PWs)   bands (ev):

   -65.7203 -65.7202 -65.7197 -65.7197 -65.7192 -65.7192 -65.7187 -65.7186
   -30.1724 -30.1724 -30.1635 -30.1635 -30.1219 -30.1219 -30.1058 -30.1058
   -30.0842 -30.0842 -30.0794 -30.0794 -30.0471 -30.0471 -30.0445 -30.0444
   -30.0372 -30.0372 -30.0230 -30.0230 -29.9782 -29.9782 -29.9704 -29.9704
   -19.8646 -19.8646 -19.8644 -19.8644 -19.8624 -19.8624 -19.8623 -19.8623
   -19.8518 -19.8518 -19.8515 -19.8515 -19.8507 -19.8507 -19.8506 -19.8506
   -19.8470 -19.8470 -19.8467 -19.8467 -19.8452 -19.8452 -19.8444 -19.8444
   -19.8415 -19.8414 -19.8404 -19.8404 -19.8401 -19.8401 -19.8394 -19.8393
   -19.8330 -19.8330 -19.8328 -19.8328 -19.8304 -19.8304 -19.8301 -19.8301
   -19.8115 -19.8114 -19.8114 -19.8113 -19.8104 -19.8104 -19.8104 -19.8104
   -19.8036 -19.8036 -19.8035 -19.8035 -19.7996 -19.7996 -19.7995 -19.7995
    -9.4275  -9.4275  -9.0570  -9.0570  -8.9508  -8.9508  -8.6106  -8.6106
    -8.3043  -8.3043  -8.2865  -8.2864  -8.2596  -8.2596  -8.1895  -8.1895
    -7.6121  -7.6121  -7.4993  -7.4993  -7.4699  -7.4699  -7.4555  -7.4555
     1.6782   1.6782   1.7773   1.7773   1.8429   1.8429   1.9513   1.9513
     2.8219   2.8219   3.2485   3.2485   3.3566   3.3567   3.3846   3.3846
     3.5055   3.5056   3.5517   3.5517   3.8069   3.8069   4.0152   4.0152
     4.0947   4.0947   4.7822   4.7822   4.8840   4.8840   5.2379   5.2379
     5.4600   5.4600   5.5944   5.5944   5.6213   5.6213   5.8435   5.8435
     6.0884   6.0884   6.2017   6.2017   6.2703   6.2703   6.4342   6.4342
     6.4708   6.4708   6.5471   6.5471   6.7326   6.7326   6.8083   6.8083
     6.9727   6.9727   7.1706   7.1706   7.2222   7.2222   7.7054   7.7054
     7.7362   7.7362   7.8241   7.8241   7.9282   7.9282   8.1773   8.1773
    10.3951  10.3951  11.5855  11.5856  11.7140  11.7140  11.9259  11.9259
    12.0837  12.0837  12.7210  12.7210  13.0661  13.0661  13.2081  13.2081
    13.2196  13.2196  13.5809  13.5809  13.7468  13.7468  13.9917  13.9917
    15.1046  15.1046  15.5924  15.5924  15.9201  15.9202  16.0692  16.0692
    16.9057  16.9057  18.0715  18.0715  18.3738  18.3738

          k = 0.0000 0.1598 0.0000 ( 61532 PWs)   bands (ev):

   -65.7207 -65.7202 -65.7198 -65.7196 -65.7193 -65.7191 -65.7187 -65.7182
   -30.1735 -30.1650 -30.1646 -30.1555 -30.1344 -30.1254 -30.1204 -30.1049
   -30.1048 -30.1018 -30.0875 -30.0756 -30.0745 -30.0634 -30.0618 -30.0405
   -30.0077 -30.0065 -29.9983 -29.9946 -29.9808 -29.9742 -29.9722 -29.9656
   -19.8647 -19.8646 -19.8640 -19.8639 -19.8629 -19.8628 -19.8620 -19.8620
   -19.8522 -19.8519 -19.8516 -19.8512 -19.8512 -19.8511 -19.8503 -19.8501
   -19.8477 -19.8472 -19.8461 -19.8459 -19.8458 -19.8451 -19.8443 -19.8437
   -19.8417 -19.8412 -19.8405 -19.8405 -19.8402 -19.8402 -19.8396 -19.8394
   -19.8331 -19.8329 -19.8329 -19.8328 -19.8305 -19.8303 -19.8302 -19.8300
   -19.8139 -19.8138 -19.8129 -19.8128 -19.8087 -19.8087 -19.8077 -19.8077
   -19.8042 -19.8041 -19.8030 -19.8029 -19.8002 -19.8001 -19.7990 -19.7989
    -9.6765  -9.3927  -9.2161  -9.2125  -8.9550  -8.9133  -8.7696  -8.7170
    -8.6969  -8.5866  -8.5475  -8.5417  -7.7473  -7.6701  -7.6334  -7.6039
    -7.5868  -7.5755  -7.5322  -7.5238  -7.4386  -7.4167  -7.4103  -7.3906
     1.6054   1.6185   1.6603   1.6669   1.7281   1.7519   1.8263   1.9921
     2.0602   2.1003   2.1669   2.3266   2.6431   2.7272   2.8353   2.8880
     2.9757   3.0666   4.1970   4.3105   4.3202   4.4853   4.7945   4.9603
     5.0052   5.0614   5.0850   5.1028   5.2431   5.2542   5.3777   5.5403
     5.6319   5.7968   5.8057   5.8081   5.8129   5.9207   5.9405   5.9666
     5.9717   6.0360   6.0537   6.1243   6.1292   6.2035   6.2423   6.3304
     6.3505   6.4415   6.5418   6.7278   6.8038   6.9289   6.9622   7.0204
     7.1143   7.1275   7.1373   7.1473   7.1718   7.1737   7.4115   7.4417
     7.5445   7.5644   7.9229   7.9525   8.1043   8.1465   8.2797   8.2897
    10.0473  10.0619  10.6241  10.6330  10.6364  10.6572  12.3491  12.5538
    12.6639  12.6898  12.7530  12.7933  12.8222  12.8248  12.8567  13.0152
    13.5130  13.5246  13.5974  13.6002  13.9758  13.9846  14.2518  14.2618
    14.9817  15.1217  15.2544  15.2947  15.7140  15.7553  16.1960  16.3022
    16.3121  16.7345  17.2552  17.4209  17.7836  17.7877

          k = 0.0000 0.1598 0.1655 ( 61533 PWs)   bands (ev):

   -65.7206 -65.7201 -65.7198 -65.7195 -65.7193 -65.7191 -65.7188 -65.7183
   -30.1727 -30.1653 -30.1638 -30.1559 -30.1323 -30.1224 -30.1209 -30.1029
   -30.1013 -30.1009 -30.0822 -30.0764 -30.0714 -30.0649 -30.0596 -30.0390
   -30.0127 -30.0117 -30.0038 -29.9993 -29.9804 -29.9738 -29.9734 -29.9667
   -19.8647 -19.8645 -19.8641 -19.8640 -19.8629 -19.8627 -19.8621 -19.8620
   -19.8521 -19.8519 -19.8516 -19.8512 -19.8511 -19.8511 -19.8504 -19.8502
   -19.8476 -19.8471 -19.8461 -19.8460 -19.8459 -19.8450 -19.8445 -19.8439
   -19.8416 -19.8412 -19.8405 -19.8404 -19.8402 -19.8402 -19.8396 -19.8394
   -19.8331 -19.8329 -19.8329 -19.8328 -19.8305 -19.8302 -19.8302 -19.8300
   -19.8136 -19.8135 -19.8126 -19.8125 -19.8091 -19.8091 -19.8081 -19.8081
   -19.8041 -19.8040 -19.8031 -19.8030 -19.8001 -19.8000 -19.7991 -19.7990
    -9.6298  -9.3376  -9.2340  -9.1529  -8.9294  -8.8707  -8.7786  -8.6798
    -8.6617  -8.5784  -8.5471  -8.5198  -7.7647  -7.7079  -7.6841  -7.6565
    -7.6306  -7.5947  -7.5593  -7.5381  -7.5180  -7.5169  -7.4252  -7.3995
     1.7107   1.7159   1.7280   1.7543   1.8788   1.9067   1.9090   2.0670
     2.1274   2.1298   2.1626   2.3878   2.7339   2.8184   2.8437   2.9682
     2.9752   3.1503   4.2064   4.2567   4.3631   4.4664   4.6277   4.6639
     4.7912   4.8867   5.0138   5.0490   5.1099   5.2518   5.3809   5.4540
     5.5320   5.5968   5.7457   5.7625   5.7635   5.8461   5.9055   5.9316
     5.9463   6.0232   6.0444   6.1011   6.1204   6.1756   6.2719   6.3367
     6.4191   6.5607   6.6858   6.7832   6.9026   6.9589   6.9761   7.0186
     7.0240   7.0871   7.1281   7.1638   7.1745   7.1932   7.3043   7.3327
     7.3881   7.4126   7.9469   7.9621   8.1125   8.1531   8.2332   8.2528
    10.2943  10.3149  10.6298  10.6583  10.8329  10.8831  12.4060  12.5009
    12.6029  12.7144  12.7492  12.8124  12.8583  12.8662  12.9126  13.0344
    13.3742  13.5055  13.5228  13.5974  13.9758  14.0312  14.1256  14.1685
    15.0438  15.2345  15.3052  15.3452  15.7289  15.8081  16.2714  16.2816
    16.4650  16.8904  17.1339  17.4046  17.8423  18.1010

          k = 0.0000 0.1598 0.3311 ( 61497 PWs)   bands (ev):

   -65.7204 -65.7200 -65.7200 -65.7195 -65.7194 -65.7189 -65.7189 -65.7185
   -30.1708 -30.1666 -30.1617 -30.1573 -30.1282 -30.1223 -30.1156 -30.1050
   -30.0921 -30.0921 -30.0790 -30.0701 -30.0676 -30.0614 -30.0518 -30.0341
   -30.0265 -30.0265 -30.0184 -30.0113 -29.9794 -29.9757 -29.9728 -29.9689
   -19.8646 -19.8644 -19.8642 -19.8641 -19.8627 -19.8626 -19.8623 -19.8622
   -19.8520 -19.8517 -19.8517 -19.8513 -19.8509 -19.8509 -19.8505 -19.8503
   -19.8473 -19.8469 -19.8464 -19.8462 -19.8457 -19.8449 -19.8448 -19.8442
   -19.8415 -19.8413 -19.8404 -19.8404 -19.8402 -19.8402 -19.8395 -19.8394
   -19.8330 -19.8329 -19.8329 -19.8328 -19.8304 -19.8303 -19.8302 -19.8301
   -19.8127 -19.8126 -19.8117 -19.8116 -19.8101 -19.8101 -19.8091 -19.8091
   -19.8039 -19.8038 -19.8033 -19.8032 -19.7999 -19.7998 -19.7993 -19.7992
    -9.5141  -9.2899  -9.2043  -9.0104  -8.9791  -8.8100  -8.6319  -8.6040
    -8.5593  -8.5381  -8.5086  -8.4158  -7.9866  -7.9761  -7.8875  -7.8520
    -7.6996  -7.6788  -7.6103  -7.5874  -7.5153  -7.4934  -7.4491  -7.4241
     1.7293   1.7419   1.7631   1.7807   2.0253   2.0419   2.1190   2.1568
     2.5660   2.6212   2.7167   2.8278   2.8672   2.9577   2.9891   3.0823
     3.2133   3.3748   3.9664   4.0795   4.0978   4.1414   4.3823   4.4129
     4.4979   4.7096   4.7316   4.7836   4.8453   5.0065   5.0224   5.2590
     5.2805   5.4112   5.4694   5.4856   5.6735   5.7464   5.7986   5.9197
     5.9722   6.0043   6.0603   6.0631   6.1169   6.2872   6.3103   6.3757
     6.5407   6.6211   6.7408   6.7743   6.7804   6.8639   6.9472   6.9722
     7.0207   7.1118   7.1273   7.1668   7.1730   7.2176   7.3567   7.3806
     7.4460   7.5471   7.9187   7.9253   8.0836   8.1295   8.1320   8.1538
    10.5591  10.6210  10.9041  11.0348  11.3514  11.4382  12.1944  12.2894
    12.4987  12.5692  12.7442  12.8168  12.8846  12.9052  12.9825  13.0784
    13.1349  13.3844  13.4495  13.5689  13.8176  13.9490  13.9813  14.0521
    15.1717  15.2645  15.5846  15.6345  15.8500  16.1387  16.1912  16.2206
    16.5916  17.2348  17.3630  17.6712  17.8853  18.0335

          k = 0.0000 0.1598-0.4966 ( 61536 PWs)   bands (ev):

   -65.7202 -65.7202 -65.7197 -65.7197 -65.7192 -65.7191 -65.7187 -65.7187
   -30.1686 -30.1685 -30.1594 -30.1594 -30.1247 -30.1247 -30.1092 -30.1092
   -30.0839 -30.0839 -30.0797 -30.0797 -30.0471 -30.0471 -30.0449 -30.0449
   -30.0368 -30.0368 -30.0246 -30.0246 -29.9778 -29.9778 -29.9711 -29.9711
   -19.8644 -19.8644 -19.8643 -19.8643 -19.8625 -19.8625 -19.8624 -19.8624
   -19.8518 -19.8518 -19.8515 -19.8515 -19.8507 -19.8507 -19.8506 -19.8506
   -19.8469 -19.8469 -19.8466 -19.8466 -19.8453 -19.8453 -19.8445 -19.8445
   -19.8414 -19.8414 -19.8403 -19.8403 -19.8403 -19.8403 -19.8395 -19.8395
   -19.8330 -19.8330 -19.8328 -19.8328 -19.8304 -19.8303 -19.8301 -19.8301
   -19.8115 -19.8114 -19.8114 -19.8114 -19.8104 -19.8104 -19.8104 -19.8104
   -19.8036 -19.8036 -19.8035 -19.8035 -19.7996 -19.7996 -19.7995 -19.7995
    -9.3865  -9.3865  -9.0696  -9.0696  -8.8804  -8.8804  -8.5765  -8.5765
    -8.3087  -8.3087  -8.2817  -8.2817  -8.2680  -8.2680  -8.1827  -8.1827
    -7.6926  -7.6926  -7.6008  -7.6008  -7.4821  -7.4821  -7.4585  -7.4584
     1.7365   1.7365   1.7769   1.7769   2.0402   2.0402   2.1482   2.1482
     2.8933   2.8934   3.2634   3.2634   3.3767   3.3767   3.3876   3.3877
     3.5021   3.5022   3.5861   3.5861   3.7949   3.7949   4.0266   4.0266
     4.1471   4.1471   4.6223   4.6223   4.6722   4.6722   5.0168   5.0168
     5.3418   5.3418   5.5629   5.5629   5.6169   5.6170   5.8383   5.8383
     6.0014   6.0014   6.0389   6.0389   6.2581   6.2581   6.4340   6.4340
     6.5440   6.5441   6.6005   6.6005   6.8021   6.8021   6.8888   6.8888
     7.0285   7.0285   7.1501   7.1501   7.1677   7.1677   7.7061   7.7062
     7.7338   7.7338   7.8133   7.8133   7.8996   7.8996   8.1461   8.1461
    10.6018  10.6019  11.5940  11.5940  11.7133  11.7133  11.9856  11.9856
    12.1308  12.1308  12.7449  12.7449  12.9199  12.9199  13.1443  13.1443
    13.2046  13.2046  13.4612  13.4612  13.7050  13.7050  14.0051  14.0051
    15.2387  15.2387  15.9301  15.9301  16.0397  16.0397  16.0647  16.0647
    16.9544  16.9544  17.8791  17.8791  18.2927  18.2927

          k = 0.0000 0.3195 0.0000 ( 61524 PWs)   bands (ev):

   -65.7206 -65.7203 -65.7197 -65.7195 -65.7194 -65.7192 -65.7186 -65.7183
   -30.1639 -30.1549 -30.1542 -30.1440 -30.1411 -30.1315 -30.1285 -30.1131
   -30.1050 -30.1049 -30.0863 -30.0793 -30.0737 -30.0667 -30.0586 -30.0464
   -30.0075 -30.0068 -29.9980 -29.9959 -29.9796 -29.9759 -29.9710 -29.9673
   -19.8643 -19.8641 -19.8636 -19.8635 -19.8633 -19.8631 -19.8624 -19.8623
   -19.8521 -19.8520 -19.8515 -19.8513 -19.8512 -19.8511 -19.8503 -19.8502
   -19.8473 -19.8468 -19.8464 -19.8455 -19.8455 -19.8453 -19.8446 -19.8441
   -19.8415 -19.8411 -19.8408 -19.8406 -19.8404 -19.8401 -19.8399 -19.8397
   -19.8331 -19.8330 -19.8329 -19.8328 -19.8305 -19.8303 -19.8302 -19.8301
   -19.8139 -19.8139 -19.8129 -19.8128 -19.8087 -19.8087 -19.8077 -19.8077
   -19.8042 -19.8041 -19.8030 -19.8029 -19.8002 -19.8001 -19.7990 -19.7989
    -9.5954  -9.4345  -9.1212  -9.1115  -8.9821  -8.9463  -8.7122  -8.7009
    -8.5567  -8.4452  -8.4272  -8.4173  -7.9648  -7.9149  -7.8852  -7.8648
    -7.6021  -7.5976  -7.5339  -7.5285  -7.4339  -7.4194  -7.4167  -7.3983
     1.6068   1.6140   1.6622   1.6679   1.7476   1.7520   1.9511   1.9888
     2.5702   2.6709   2.6959   2.7073   2.7803   2.9007   3.0544   3.1607
     3.1805   3.3302   3.8137   3.8301   3.9829   3.9897   4.3386   4.6638
     4.8005   4.9462   5.0150   5.0196   5.0916   5.1503   5.2774   5.2938
     5.3812   5.3866   5.6830   5.7421   5.7909   5.8301   5.9531   6.0161
     6.0237   6.0328   6.1156   6.1253   6.1622   6.2137   6.2567   6.3449
     6.3727   6.4059   6.5634   6.7029   6.7877   6.8583   7.0058   7.0352
     7.0524   7.1189   7.3013   7.3120   7.3343   7.3547   7.4364   7.4413
     7.5651   7.5654   7.8917   7.9409   8.0087   8.0257   8.0645   8.1066
    10.0658  10.0668  11.0189  11.1013  11.1335  11.1362  12.0647  12.3260
    12.3271  12.4210  12.6613  12.6702  12.7943  12.8068  12.8327  12.9926
    13.5297  13.5707  13.6116  13.6391  13.8599  13.9884  14.0166  14.0500
    15.2216  15.5958  15.6557  15.6981  15.7440  15.9351  16.1228  16.2001
    16.2287  17.2369  17.4874  17.7397  17.8832  17.9552

          k = 0.0000 0.3195 0.1655 ( 61517 PWs)   bands (ev):

   -65.7205 -65.7202 -65.7197 -65.7194 -65.7194 -65.7192 -65.7187 -65.7184
   -30.1629 -30.1550 -30.1535 -30.1445 -30.1394 -30.1296 -30.1286 -30.1137
   -30.1015 -30.1011 -30.0814 -30.0755 -30.0746 -30.0680 -30.0565 -30.0448
   -30.0126 -30.0120 -30.0034 -30.0009 -29.9793 -29.9755 -29.9722 -29.9684
   -19.8643 -19.8641 -19.8636 -19.8635 -19.8632 -19.8631 -19.8625 -19.8624
   -19.8521 -19.8519 -19.8515 -19.8513 -19.8511 -19.8511 -19.8503 -19.8502
   -19.8472 -19.8467 -19.8463 -19.8457 -19.8455 -19.8454 -19.8447 -19.8442
   -19.8415 -19.8412 -19.8408 -19.8406 -19.8404 -19.8401 -19.8399 -19.8397
   -19.8330 -19.8329 -19.8329 -19.8328 -19.8304 -19.8303 -19.8302 -19.8301
   -19.8136 -19.8135 -19.8126 -19.8125 -19.8091 -19.8091 -19.8081 -19.8081
   -19.8041 -19.8040 -19.8030 -19.8030 -19.8001 -19.8000 -19.7990 -19.7990
    -9.5455  -9.3800  -9.1302  -9.0503  -8.9632  -8.8985  -8.6759  -8.6655
    -8.5655  -8.4397  -8.4298  -8.4031  -7.9666  -7.9219  -7.8853  -7.8709
    -7.7035  -7.6863  -7.5551  -7.5468  -7.5311  -7.5234  -7.4256  -7.4072
     1.7161   1.7178   1.7491   1.7542   1.9081   1.9091   2.0787   2.1246
     2.5864   2.6911   2.7483   2.7783   2.7981   2.9056   3.0613   3.1736
     3.2435   3.4104   3.8288   3.9051   3.9737   3.9893   4.3126   4.6176
     4.6451   4.6828   4.8084   4.9800   5.0240   5.0857   5.1366   5.1598
     5.3257   5.4118   5.5166   5.5871   5.6326   5.7446   5.8172   5.9110
     5.9647   5.9760   6.0271   6.1106   6.1839   6.2024   6.2196   6.3466
     6.5072   6.5856   6.6792   6.7546   6.8154   6.9778   7.0260   7.1095
     7.1179   7.1532   7.2510   7.2750   7.2812   7.2963   7.3282   7.3869
     7.4404   7.4604   7.9117   7.9461   8.0043   8.0358   8.0425   8.0779
    10.3289  10.3333  11.1341  11.1486  11.1789  11.2637  12.1493  12.3136
    12.3981  12.4231  12.6063  12.6078  12.8305  12.8691  12.8808  13.0437
    13.4060  13.4816  13.5353  13.5845  13.8598  13.8796  13.9891  14.0122
    15.3135  15.6271  15.7029  15.8046  15.8279  15.9893  16.1668  16.3674
    16.4189  17.2029  17.5405  17.5477  17.8293  18.0379

          k = 0.0000 0.3195 0.3311 ( 61549 PWs)   bands (ev):

   -65.7203 -65.7201 -65.7199 -65.7196 -65.7193 -65.7190 -65.7188 -65.7186
   -30.1607 -30.1563 -30.1510 -30.1459 -30.1360 -30.1305 -30.1240 -30.1156
   -30.0920 -30.0920 -30.0775 -30.0724 -30.0671 -30.0638 -30.0493 -30.0392
   -30.0267 -30.0266 -30.0176 -30.0137 -29.9782 -29.9745 -29.9744 -29.9706
   -19.8641 -19.8640 -19.8638 -19.8636 -19.8631 -19.8629 -19.8626 -19.8625
   -19.8519 -19.8518 -19.8516 -19.8514 -19.8509 -19.8509 -19.8505 -19.8504
   -19.8469 -19.8465 -19.8460 -19.8460 -19.8457 -19.8453 -19.8451 -19.8446
   -19.8414 -19.8412 -19.8407 -19.8406 -19.8403 -19.8402 -19.8398 -19.8397
   -19.8330 -19.8329 -19.8329 -19.8328 -19.8304 -19.8303 -19.8302 -19.8301
   -19.8127 -19.8126 -19.8117 -19.8116 -19.8101 -19.8101 -19.8091 -19.8091
   -19.8039 -19.8038 -19.8033 -19.8032 -19.7998 -19.7998 -19.7993 -19.7992
    -9.4222  -9.2471  -9.1874  -9.0154  -8.8695  -8.6625  -8.5999  -8.5662
    -8.5432  -8.4428  -8.4110  -8.3383  -8.0385  -7.9919  -7.9691  -7.9146
    -7.8851  -7.8574  -7.8444  -7.7728  -7.5190  -7.5012  -7.4502  -7.4319
     1.7551   1.7625   1.7724   1.7796   2.4697   2.5472   2.5638   2.6312
     2.7180   2.7436   2.7790   2.9634   3.0427   3.0489   3.0842   3.1659
     3.4642   3.6009   3.8657   3.9123   3.9680   4.0107   4.0691   4.1163
     4.3203   4.5226   4.5320   4.6400   4.6580   4.8307   4.8625   5.0051
     5.0167   5.1596   5.3237   5.4262   5.4620   5.4820   5.5122   5.6336
     5.6785   5.8683   5.8899   6.0675   6.2785   6.3270   6.3315   6.3792
     6.6500   6.7041   6.7535   6.8399   6.8446   6.9573   6.9853   6.9878
     7.1808   7.1872   7.2369   7.2840   7.3041   7.3492   7.4214   7.4248
     7.4616   7.5407   7.8951   7.9025   7.9692   7.9729   7.9992   8.0251
    10.9017  10.9304  11.1323  11.2182  11.6151  11.6982  12.1703  12.2764
    12.3929  12.4183  12.4423  12.6023  12.8295  12.9219  12.9368  12.9709
    13.0214  13.2992  13.3282  13.5412  13.5728  13.8590  13.8675  13.9841
    15.4529  15.5993  15.7910  16.0835  16.1660  16.3022  16.3216  16.8934
    17.0077  17.0842  17.1463  17.7523  17.8582  18.0288

          k = 0.0000 0.3195-0.4966 ( 61520 PWs)   bands (ev):

   -65.7201 -65.7201 -65.7198 -65.7198 -65.7191 -65.7190 -65.7188 -65.7188
   -30.1583 -30.1583 -30.1482 -30.1482 -30.1328 -30.1328 -30.1191 -30.1191
   -30.0831 -30.0830 -30.0806 -30.0806 -30.0471 -30.0471 -30.0460 -30.0459
   -30.0353 -30.0352 -30.0284 -30.0284 -29.9766 -29.9766 -29.9728 -29.9728
   -19.8640 -19.8640 -19.8638 -19.8638 -19.8629 -19.8628 -19.8627 -19.8627
   -19.8518 -19.8518 -19.8516 -19.8516 -19.8507 -19.8507 -19.8506 -19.8506
   -19.8465 -19.8465 -19.8461 -19.8461 -19.8456 -19.8456 -19.8449 -19.8449
   -19.8413 -19.8413 -19.8407 -19.8407 -19.8402 -19.8402 -19.8397 -19.8397
   -19.8330 -19.8329 -19.8329 -19.8329 -19.8303 -19.8303 -19.8302 -19.8302
   -19.8114 -19.8114 -19.8114 -19.8114 -19.8104 -19.8104 -19.8104 -19.8104
   -19.8036 -19.8035 -19.8035 -19.8035 -19.7996 -19.7995 -19.7995 -19.7995
    -9.2874  -9.2874  -9.1099  -9.1099  -8.6888  -8.6888  -8.4707  -8.4707
    -8.3324  -8.3323  -8.2975  -8.2975  -8.2602  -8.2602  -8.1561  -8.1561
    -7.9157  -7.9157  -7.8468  -7.8468  -7.4845  -7.4845  -7.4663  -7.4663
     1.7673   1.7673   1.7759   1.7759   2.6025   2.6025   2.7521   2.7521
     3.0898   3.0898   3.3065   3.3065   3.3550   3.3550   3.4449   3.4449
     3.4895   3.4895   3.6926   3.6926   3.7437   3.7437   3.9510   3.9510
     4.2459   4.2459   4.3024   4.3024   4.3727   4.3727   4.5365   4.5366
     5.1044   5.1045   5.2814   5.2814   5.4320   5.4320   5.5469   5.5469
     5.7138   5.7138   5.9815   5.9815   6.3611   6.3611   6.4408   6.4408
     6.6670   6.6670   6.6973   6.6973   6.7921   6.7921   6.9261   6.9261
     7.2449   7.2449   7.2966   7.2966   7.3359   7.3359   7.6931   7.6931
     7.7253   7.7253   7.7536   7.7537   7.8147   7.8147   8.0051   8.0051
    11.1135  11.1135  11.6132  11.6132  11.7177  11.7177  12.1533  12.1533
    12.2887  12.2887  12.5262  12.5262  12.7659  12.7659  12.8985  12.8985
    13.1829  13.1829  13.2021  13.2021  13.6752  13.6752  13.9038  13.9038
    15.5442  15.5442  15.9477  15.9477  16.5091  16.5091  16.8150  16.8150
    17.1276  17.1276  17.5048  17.5048  18.0862  18.0862

          k = 0.0000-0.4793 0.0000 ( 61526 PWs)   bands (ev):

   -65.7204 -65.7204 -65.7195 -65.7195 -65.7194 -65.7194 -65.7185 -65.7185
   -30.1517 -30.1517 -30.1422 -30.1422 -30.1408 -30.1408 -30.1284 -30.1284
   -30.1051 -30.1051 -30.0838 -30.0837 -30.0706 -30.0706 -30.0531 -30.0531
   -30.0072 -30.0072 -29.9972 -29.9972 -29.9779 -29.9779 -29.9693 -29.9693
   -19.8638 -19.8638 -19.8636 -19.8636 -19.8630 -19.8630 -19.8629 -19.8629
   -19.8521 -19.8520 -19.8514 -19.8514 -19.8511 -19.8511 -19.8502 -19.8502
   -19.8468 -19.8468 -19.8462 -19.8461 -19.8450 -19.8450 -19.8447 -19.8447
   -19.8412 -19.8412 -19.8409 -19.8409 -19.8402 -19.8402 -19.8400 -19.8399
   -19.8330 -19.8330 -19.8328 -19.8328 -19.8304 -19.8304 -19.8301 -19.8301
   -19.8139 -19.8139 -19.8129 -19.8129 -19.8087 -19.8087 -19.8077 -19.8077
   -19.8041 -19.8041 -19.8030 -19.8029 -19.8001 -19.8001 -19.7990 -19.7989
    -9.5050  -9.5050  -9.0356  -9.0356  -9.0108  -9.0108  -8.7065  -8.7065
    -8.2594  -8.2594  -8.2039  -8.2038  -8.1952  -8.1952  -8.1827  -8.1827
    -7.6007  -7.6007  -7.5327  -7.5327  -7.4271  -7.4271  -7.4084  -7.4084
     1.6097   1.6097   1.6651   1.6651   1.7516   1.7516   1.9805   1.9805
     2.6797   2.6797   3.2167   3.2168   3.3511   3.3511   3.4114   3.4114
     3.4282   3.4282   3.6000   3.6000   3.8279   3.8279   3.9453   3.9453
     4.0344   4.0344   4.9660   4.9660   5.1019   5.1019   5.4384   5.4384
     5.5079   5.5079   5.6066   5.6066   5.6217   5.6217   6.0073   6.0073
     6.0433   6.0434   6.0881   6.0881   6.2356   6.2356   6.3004   6.3004
     6.3993   6.3993   6.5425   6.5425   6.8805   6.8805   6.9374   6.9374
     7.0864   7.0864   7.4303   7.4303   7.5379   7.5379   7.6553   7.6553
     7.6839   7.6839   7.7455   7.7455   7.7919   7.7919   7.9665   7.9665
    10.0697  10.0697  11.5564  11.5564  11.6458  11.6458  11.7679  11.7679
    11.8703  11.8703  12.6666  12.6666  12.8153  12.8153  12.9164  12.9164
    13.6554  13.6554  13.6583  13.6583  13.7692  13.7692  13.9111  13.9111
    15.5863  15.5863  15.8079  15.8079  15.9481  15.9481  15.9905  15.9905
    16.8065  16.8065  18.2254  18.2254  18.2793  18.2793

          k = 0.0000-0.4793 0.1655 ( 61514 PWs)   bands (ev):

   -65.7204 -65.7204 -65.7196 -65.7196 -65.7193 -65.7193 -65.7185 -65.7185
   -30.1505 -30.1505 -30.1416 -30.1416 -30.1403 -30.1403 -30.1289 -30.1289
   -30.1014 -30.1014 -30.0793 -30.0792 -30.0716 -30.0716 -30.0513 -30.0513
   -30.0123 -30.0123 -30.0024 -30.0024 -29.9775 -29.9775 -29.9704 -29.9704
   -19.8637 -19.8637 -19.8636 -19.8636 -19.8630 -19.8630 -19.8629 -19.8629
   -19.8520 -19.8520 -19.8514 -19.8514 -19.8511 -19.8511 -19.8503 -19.8503
   -19.8467 -19.8467 -19.8461 -19.8461 -19.8452 -19.8451 -19.8448 -19.8448
   -19.8412 -19.8412 -19.8410 -19.8409 -19.8402 -19.8402 -19.8400 -19.8399
   -19.8330 -19.8330 -19.8328 -19.8328 -19.8304 -19.8304 -19.8301 -19.8301
   -19.8136 -19.8136 -19.8125 -19.8125 -19.8091 -19.8091 -19.8081 -19.8081
   -19.8041 -19.8040 -19.8030 -19.8030 -19.8001 -19.8000 -19.7990 -19.7990
    -9.4521  -9.4521  -9.0288  -9.0287  -8.9555  -8.9554  -8.6707  -8.6707
    -8.2645  -8.2645  -8.2086  -8.2086  -8.1966  -8.1966  -8.1765  -8.1765
    -7.6970  -7.6970  -7.5502  -7.5502  -7.5303  -7.5302  -7.4173  -7.4173
     1.7170   1.7170   1.7535   1.7535   1.9100   1.9100   2.1157   2.1157
     2.7698   2.7698   3.2378   3.2378   3.3455   3.3455   3.4039   3.4039
     3.4960   3.4960   3.5877   3.5877   3.8388   3.8388   3.9632   3.9633
     4.0666   4.0666   4.6424   4.6424   5.0817   5.0817   5.2473   5.2473
     5.3479   5.3480   5.5239   5.5239   5.5969   5.5970   5.7603   5.7603
     5.9813   5.9813   6.0379   6.0379   6.1951   6.1951   6.3163   6.3163
     6.5765   6.5765   6.6516   6.6516   6.8758   6.8758   7.0816   7.0817
     7.1651   7.1651   7.2950   7.2950   7.3596   7.3596   7.6740   7.6740
     7.6772   7.6772   7.7325   7.7325   7.7762   7.7762   7.9828   7.9828
    10.3372  10.3372  11.6645  11.6645  11.7368  11.7368  11.7775  11.7775
    11.8933  11.8933  12.6018  12.6018  12.8498  12.8498  12.9957  12.9957
    13.5043  13.5043  13.6148  13.6148  13.6638  13.6638  13.9266  13.9266
    15.6032  15.6032  15.9229  15.9229  16.0051  16.0051  16.1998  16.1998
    16.8631  16.8631  18.0661  18.0661  18.2290  18.2295

          k = 0.0000-0.4793 0.3311 ( 61550 PWs)   bands (ev):

   -65.7202 -65.7202 -65.7197 -65.7197 -65.7192 -65.7191 -65.7187 -65.7187
   -30.1478 -30.1478 -30.1428 -30.1428 -30.1369 -30.1369 -30.1306 -30.1306
   -30.0919 -30.0919 -30.0752 -30.0751 -30.0659 -30.0659 -30.0449 -30.0449
   -30.0268 -30.0268 -30.0160 -30.0160 -29.9765 -29.9765 -29.9727 -29.9727
   -19.8636 -19.8636 -19.8634 -19.8634 -19.8632 -19.8632 -19.8631 -19.8631
   -19.8519 -19.8518 -19.8515 -19.8515 -19.8509 -19.8509 -19.8504 -19.8504
   -19.8464 -19.8464 -19.8459 -19.8459 -19.8455 -19.8455 -19.8451 -19.8451
   -19.8411 -19.8411 -19.8410 -19.8410 -19.8401 -19.8401 -19.8400 -19.8400
   -19.8330 -19.8330 -19.8329 -19.8329 -19.8303 -19.8303 -19.8302 -19.8302
   -19.8127 -19.8127 -19.8117 -19.8117 -19.8101 -19.8101 -19.8091 -19.8091
   -19.8038 -19.8038 -19.8032 -19.8032 -19.7998 -19.7998 -19.7992 -19.7992
    -9.3220  -9.3220  -9.0843  -9.0843  -8.7347  -8.7346  -8.5517  -8.5517
    -8.2997  -8.2997  -8.2308  -8.2308  -8.1927  -8.1927  -8.1523  -8.1522
    -7.9532  -7.9532  -7.8285  -7.8285  -7.5112  -7.5112  -7.4421  -7.4421
     1.7610   1.7610   1.7780   1.7780   2.5561   2.5561   2.6995   2.6995
     3.0237   3.0237   3.2756   3.2756   3.3418   3.3418   3.4303   3.4303
     3.5139   3.5139   3.6658   3.6659   3.8055   3.8055   4.0411   4.0411
     4.0884   4.0884   4.1335   4.1335   4.6930   4.6930   4.8567   4.8567
     5.0229   5.0229   5.1241   5.1241   5.5002   5.5002   5.5475   5.5475
     5.6573   5.6573   5.9377   5.9377   6.3346   6.3346   6.3734   6.3734
     6.6917   6.6917   6.7845   6.7845   6.8786   6.8786   7.0096   7.0096
     7.2844   7.2844   7.3520   7.3520   7.3975   7.3975   7.6481   7.6481
     7.6885   7.6885   7.7064   7.7064   7.7542   7.7542   7.9467   7.9467
    10.9455  10.9455  11.7483  11.7483  11.8199  11.8199  12.0241  12.0241
    12.1362  12.1362  12.2944  12.2944  12.9501  12.9501  12.9851  12.9851
    13.1069  13.1069  13.3001  13.3001  13.6793  13.6793  13.8755  13.8755
    15.6649  15.6649  15.8923  15.8924  16.5056  16.5056  16.8820  16.8820
    17.0713  17.0713  17.5809  17.5810  18.0912  18.0913

          k = 0.0000-0.4793-0.4966 ( 61548 PWs)   bands (ev):

   -65.7200 -65.7200 -65.7200 -65.7200 -65.7189 -65.7189 -65.7189 -65.7189
   -30.1450 -30.1450 -30.1450 -30.1450 -30.1334 -30.1333 -30.1333 -30.1333
   -30.0818 -30.0818 -30.0818 -30.0818 -30.0468 -30.0467 -30.0467 -30.0467
   -30.0324 -30.0324 -30.0324 -30.0324 -29.9748 -29.9748 -29.9748 -29.9748
   -19.8634 -19.8634 -19.8634 -19.8634 -19.8633 -19.8633 -19.8633 -19.8632
   -19.8517 -19.8517 -19.8517 -19.8517 -19.8507 -19.8507 -19.8507 -19.8506
   -19.8460 -19.8460 -19.8460 -19.8460 -19.8455 -19.8455 -19.8455 -19.8455
   -19.8411 -19.8410 -19.8410 -19.8410 -19.8400 -19.8400 -19.8400 -19.8400
   -19.8329 -19.8329 -19.8329 -19.8329 -19.8303 -19.8303 -19.8303 -19.8302
   -19.8114 -19.8114 -19.8114 -19.8114 -19.8104 -19.8104 -19.8104 -19.8104
   -19.8035 -19.8035 -19.8035 -19.8035 -19.7995 -19.7995 -19.7995 -19.7995
    -9.1834  -9.1834  -9.1834  -9.1834  -8.4555  -8.4555  -8.4555  -8.4555
    -8.3475  -8.3475  -8.3475  -8.3475  -8.1559  -8.1559  -8.1558  -8.1558
    -8.0705  -8.0705  -8.0705  -8.0705  -7.4765  -7.4765  -7.4765  -7.4765
     1.7739   1.7740   1.7740   1.7740   3.2021   3.2021   3.2021   3.2021
     3.3118   3.3118   3.3118   3.3118   3.4411   3.4411   3.4411   3.4411
     3.5260   3.5260   3.5260   3.5261   3.7852   3.7852   3.7852   3.7852
     3.9326   3.9327   3.9327   3.9327   4.5713   4.5713   4.5713   4.5713
     4.6912   4.6912   4.6912   4.6912   5.5031   5.5031   5.5031   5.5031
     5.7910   5.7910   5.7910   5.7910   6.4248   6.4248   6.4248   6.4248
     6.7093   6.7093   6.7093   6.7093   6.8350   6.8350   6.8350   6.8350
     7.4842   7.4842   7.4842   7.4842   7.5874   7.5874   7.5874   7.5874
     7.6838   7.6838   7.6838   7.6838   7.7966   7.7967   7.7967   7.7967
    11.5808  11.5808  11.5808  11.5808  11.8783  11.8783  11.8783  11.8783
    12.5285  12.5285  12.5285  12.5285  12.5992  12.5992  12.5992  12.5992
    13.1286  13.1286  13.1286  13.1287  13.7472  13.7472  13.7472  13.7472
    15.7855  15.7855  15.7855  15.7855  17.1006  17.1006  17.1006  17.1006
    17.5639  17.5639  17.5639  17.5640  17.7193  17.7193

          k = 0.1667 0.0000 0.0000 ( 61490 PWs)   bands (ev):

   -65.7206 -65.7201 -65.7197 -65.7197 -65.7192 -65.7192 -65.7188 -65.7183
   -30.1764 -30.1689 -30.1680 -30.1602 -30.1312 -30.1239 -30.1153 -30.1024
   -30.1014 -30.0986 -30.0884 -30.0736 -30.0707 -30.0599 -30.0573 -30.0354
   -30.0100 -30.0086 -29.9979 -29.9933 -29.9872 -29.9791 -29.9770 -29.9691
   -19.8649 -19.8648 -19.8642 -19.8641 -19.8628 -19.8627 -19.8619 -19.8618
   -19.8521 -19.8519 -19.8515 -19.8513 -19.8512 -19.8511 -19.8504 -19.8502
   -19.8478 -19.8474 -19.8462 -19.8460 -19.8458 -19.8450 -19.8443 -19.8437
   -19.8416 -19.8412 -19.8406 -19.8403 -19.8402 -19.8400 -19.8396 -19.8393
   -19.8329 -19.8327 -19.8327 -19.8326 -19.8307 -19.8304 -19.8304 -19.8302
   -19.8139 -19.8138 -19.8130 -19.8129 -19.8087 -19.8086 -19.8078 -19.8078
   -19.8039 -19.8038 -19.8027 -19.8027 -19.8005 -19.8004 -19.7993 -19.7992
    -9.6651  -9.3298  -9.2724  -9.2072  -8.9629  -8.8565  -8.8196  -8.6908
    -8.6542  -8.6093  -8.5897  -8.5418  -7.7367  -7.6517  -7.6124  -7.5840
    -7.5732  -7.5433  -7.5372  -7.5049  -7.4905  -7.4813  -7.4501  -7.4115
     1.6577   1.6583   1.6590   1.6628   1.7600   1.7960   1.8660   1.8782
     1.9831   2.0925   2.1889   2.3332   2.7109   2.8127   2.8235   2.8487
     2.9725   3.0073   4.2721   4.4092   4.5498   4.6076   4.7025   4.7910
     4.8220   4.9947   4.9985   5.0202   5.0560   5.3423   5.4486   5.6314
     5.6845   5.7272   5.7572   5.7670   5.8212   5.8581   5.8737   5.9462
     6.0269   6.0300   6.1020   6.1040   6.1461   6.1807   6.3139   6.3260
     6.4615   6.5757   6.6378   6.6843   6.9141   6.9279   7.0128   7.0269
     7.0478   7.0641   7.0706   7.1101   7.1190   7.1848   7.3234   7.3245
     7.4223   7.4232   7.9490   7.9673   8.0912   8.1601   8.3322   8.3697
    10.2847  10.3223  10.4738  10.5106  10.6491  10.7468  12.3653  12.5944
    12.6094  12.6921  12.7615  12.8414  12.8738  12.9497  13.0943  13.0987
    13.3875  13.4928  13.5772  13.6457  13.8884  13.9440  14.3477  14.3486
    14.8568  14.8825  15.1659  15.2075  15.7428  15.7558  15.8737  16.1939
    16.6126  16.8811  17.1424  17.4557  17.8180  17.8197

          k = 0.1667 0.0000 0.1655 ( 61510 PWs)   bands (ev):

   -65.7206 -65.7200 -65.7198 -65.7197 -65.7192 -65.7191 -65.7189 -65.7183
   -30.1756 -30.1684 -30.1682 -30.1606 -30.1287 -30.1206 -30.1158 -30.0994
   -30.0985 -30.0983 -30.0831 -30.0716 -30.0706 -30.0605 -30.0565 -30.0341
   -30.0147 -30.0133 -30.0034 -29.9978 -29.9869 -29.9790 -29.9783 -29.9704
   -19.8649 -19.8647 -19.8643 -19.8642 -19.8627 -19.8626 -19.8620 -19.8619
   -19.8521 -19.8518 -19.8515 -19.8512 -19.8511 -19.8511 -19.8505 -19.8502
   -19.8477 -19.8473 -19.8463 -19.8461 -19.8457 -19.8449 -19.8444 -19.8438
   -19.8416 -19.8412 -19.8406 -19.8403 -19.8402 -19.8400 -19.8395 -19.8393
   -19.8329 -19.8327 -19.8327 -19.8326 -19.8307 -19.8304 -19.8304 -19.8302
   -19.8136 -19.8134 -19.8127 -19.8126 -19.8091 -19.8090 -19.8082 -19.8081
   -19.8038 -19.8037 -19.8028 -19.8027 -19.8004 -19.8003 -19.7994 -19.7993
    -9.6182  -9.2704  -9.2248  -9.2168  -8.8788  -8.8659  -8.8355  -8.6503
    -8.6233  -8.6051  -8.5585  -8.5470  -7.7519  -7.7044  -7.6424  -7.6320
    -7.6136  -7.5921  -7.5636  -7.5587  -7.5173  -7.4941  -7.4880  -7.4842
     1.7397   1.7818   1.7852   1.8509   1.8602   1.8603   1.9107   1.9842
     2.0067   2.0938   2.2393   2.3888   2.8030   2.8566   2.8928   2.9202
     3.0022   3.0649   4.2669   4.3199   4.5631   4.5792   4.6904   4.7031
     4.7422   4.7768   4.8413   4.8829   5.0369   5.1571   5.4239   5.4809
     5.5509   5.6144   5.6153   5.7506   5.7842   5.8033   5.8462   5.9483
     5.9514   5.9694   5.9900   6.0472   6.0873   6.3008   6.3315   6.3591
     6.5660   6.6754   6.7868   6.8470   6.8581   6.8810   6.9329   6.9726
     7.0000   7.0033   7.0578   7.1213   7.1302   7.1515   7.1969   7.2634
     7.4231   7.4698   7.9588   7.9681   8.1091   8.1638   8.2890   8.3256
    10.4350  10.4766  10.6642  10.7163  10.7275  10.8469  12.4071  12.5655
    12.6294  12.6376  12.7904  12.8160  12.8913  13.0190  13.0888  13.0943
    13.3357  13.4907  13.5124  13.6048  13.9256  13.9403  14.2226  14.2531
    14.8880  14.9889  15.1602  15.3271  15.7957  15.8152  15.8504  16.4545
    16.5782  17.0415  17.1351  17.3114  17.8669  17.9001

          k = 0.1667 0.0000 0.3311 ( 61522 PWs)   bands (ev):

   -65.7204 -65.7199 -65.7199 -65.7195 -65.7194 -65.7190 -65.7189 -65.7185
   -30.1738 -30.1697 -30.1662 -30.1620 -30.1237 -30.1172 -30.1132 -30.1018
   -30.0893 -30.0885 -30.0741 -30.0685 -30.0658 -30.0614 -30.0498 -30.0298
   -30.0279 -30.0274 -30.0179 -30.0092 -29.9858 -29.9816 -29.9775 -29.9731
   -19.8647 -19.8646 -19.8644 -19.8643 -19.8626 -19.8625 -19.8621 -19.8621
   -19.8519 -19.8516 -19.8516 -19.8512 -19.8510 -19.8509 -19.8506 -19.8504
   -19.8474 -19.8471 -19.8466 -19.8464 -19.8455 -19.8448 -19.8447 -19.8441
   -19.8415 -19.8413 -19.8405 -19.8404 -19.8401 -19.8400 -19.8395 -19.8393
   -19.8329 -19.8328 -19.8327 -19.8326 -19.8306 -19.8305 -19.8303 -19.8302
   -19.8127 -19.8126 -19.8118 -19.8117 -19.8101 -19.8100 -19.8092 -19.8091
   -19.8036 -19.8035 -19.8030 -19.8029 -19.8002 -19.8001 -19.7996 -19.7995
    -9.5022  -9.2794  -9.1254  -9.0863  -8.8981  -8.8856  -8.6402  -8.5954
    -8.5613  -8.5157  -8.5114  -8.4434  -7.9714  -7.9678  -7.8889  -7.8671
    -7.6725  -7.6294  -7.6014  -7.5572  -7.5307  -7.5129  -7.5111  -7.4927
     1.7499   1.7709   1.8248   1.8479   1.9959   2.0151   2.0781   2.0979
     2.5729   2.6232   2.6976   2.8033   2.8791   2.9696   3.0753   3.1495
     3.1971   3.3050   3.9755   4.1220   4.1592   4.1596   4.3544   4.5374
     4.5589   4.7070   4.7318   4.7735   4.9348   5.0312   5.0573   5.1384
     5.2207   5.3268   5.4097   5.4871   5.5287   5.5917   5.8420   5.8522
     5.9199   5.9709   6.0773   6.0802   6.1110   6.2067   6.2884   6.3335
     6.6009   6.6288   6.6758   6.7511   6.7639   6.8527   6.9545   6.9844
     6.9930   7.0953   7.0968   7.1213   7.2591   7.2698   7.4173   7.4230
     7.4767   7.5574   7.9309   7.9421   8.1045   8.1626   8.1657   8.1848
    10.5874  10.6072  11.0419  11.1585  11.2718  11.3976  12.2577  12.3456
    12.4875  12.5486  12.6807  12.7353  12.9197  12.9985  13.1036  13.2116
    13.2357  13.3844  13.4235  13.5796  13.8773  13.9249  13.9683  14.0444
    15.0007  15.1421  15.2785  15.6319  15.7558  16.0128  16.1879  16.4874
    16.6006  17.2268  17.5134  17.6584  17.7647  17.9995

          k = 0.1667 0.0000-0.4966 ( 61508 PWs)   bands (ev):

   -65.7202 -65.7202 -65.7196 -65.7196 -65.7193 -65.7193 -65.7187 -65.7187
   -30.1716 -30.1716 -30.1640 -30.1640 -30.1198 -30.1198 -30.1063 -30.1063
   -30.0795 -30.0795 -30.0764 -30.0764 -30.0478 -30.0478 -30.0457 -30.0457
   -30.0359 -30.0359 -30.0213 -30.0213 -29.9840 -29.9840 -29.9757 -29.9756
   -19.8646 -19.8646 -19.8645 -19.8644 -19.8624 -19.8624 -19.8623 -19.8623
   -19.8518 -19.8518 -19.8514 -19.8514 -19.8508 -19.8508 -19.8506 -19.8506
   -19.8470 -19.8470 -19.8468 -19.8467 -19.8452 -19.8451 -19.8444 -19.8444
   -19.8414 -19.8414 -19.8404 -19.8404 -19.8401 -19.8401 -19.8394 -19.8394
   -19.8328 -19.8328 -19.8326 -19.8326 -19.8305 -19.8305 -19.8303 -19.8303
   -19.8114 -19.8114 -19.8113 -19.8113 -19.8105 -19.8105 -19.8104 -19.8104
   -19.8033 -19.8033 -19.8032 -19.8032 -19.7999 -19.7998 -19.7998 -19.7998
    -9.3748  -9.3748  -8.9797  -8.9797  -8.9664  -8.9664  -8.5787  -8.5787
    -8.3150  -8.3150  -8.2904  -8.2904  -8.2451  -8.2451  -8.1911  -8.1911
    -7.6518  -7.6518  -7.5716  -7.5716  -7.5305  -7.5305  -7.5039  -7.5039
     1.7582   1.7582   1.8361   1.8361   2.0150   2.0150   2.1059   2.1059
     2.9004   2.9004   3.2691   3.2691   3.3338   3.3338   3.4341   3.4342
     3.5042   3.5042   3.6161   3.6161   3.8576   3.8576   4.0376   4.0376
     4.0883   4.0883   4.6162   4.6162   4.8449   4.8449   5.1851   5.1851
     5.2447   5.2448   5.3361   5.3361   5.4746   5.4746   5.8730   5.8730
     5.9555   5.9555   6.0378   6.0378   6.1361   6.1361   6.2632   6.2632
     6.5448   6.5448   6.6943   6.6943   6.7784   6.7784   6.9908   6.9908
     7.0775   7.0775   7.1169   7.1169   7.1872   7.1872   7.7368   7.7368
     7.7676   7.7676   7.8447   7.8447   7.9296   7.9296   8.1575   8.1575
    10.6138  10.6138  11.6707  11.6707  11.7963  11.7963  11.9394  11.9394
    12.1028  12.1028  12.6465  12.6466  13.0946  13.0946  13.1430  13.1430
    13.2635  13.2635  13.5695  13.5695  13.6606  13.6606  13.9721  13.9721
    15.0978  15.0979  15.5699  15.5699  16.0572  16.0572  16.2830  16.2830
    16.9603  16.9603  18.0143  18.0143  18.1723  18.1723

          k = 0.1667 0.1598 0.0000 ( 61519 PWs)   bands (ev):

   -65.7206 -65.7201 -65.7197 -65.7197 -65.7192 -65.7192 -65.7188 -65.7183
   -30.1727 -30.1652 -30.1640 -30.1560 -30.1333 -30.1258 -30.1182 -30.1028
   -30.1025 -30.1015 -30.0881 -30.0756 -30.0701 -30.0602 -30.0571 -30.0377
   -30.0099 -30.0087 -29.9978 -29.9939 -29.9868 -29.9798 -29.9766 -29.9698
   -19.8647 -19.8646 -19.8640 -19.8639 -19.8629 -19.8628 -19.8620 -19.8620
   -19.8521 -19.8519 -19.8515 -19.8513 -19.8512 -19.8511 -19.8504 -19.8502
   -19.8477 -19.8472 -19.8461 -19.8458 -19.8458 -19.8452 -19.8443 -19.8438
   -19.8416 -19.8412 -19.8406 -19.8404 -19.8402 -19.8401 -19.8397 -19.8395
   -19.8329 -19.8327 -19.8327 -19.8326 -19.8307 -19.8304 -19.8304 -19.8302
   -19.8139 -19.8138 -19.8130 -19.8129 -19.8087 -19.8087 -19.8078 -19.8078
   -19.8039 -19.8038 -19.8027 -19.8027 -19.8005 -19.8004 -19.7993 -19.7992
    -9.6312  -9.3433  -9.2325  -9.1588  -8.9714  -8.8300  -8.7807  -8.6842
    -8.6559  -8.5704  -8.5526  -8.5120  -7.7695  -7.6806  -7.6626  -7.6332
    -7.6267  -7.5983  -7.5763  -7.5497  -7.5192  -7.5010  -7.4484  -7.4199
     1.6584   1.6632   1.6698   1.6705   1.9077   1.9162   1.9807   2.0760
     2.0933   2.1904   2.2097   2.4109   2.7222   2.8158   2.8963   2.9270
     3.0554   3.0772   4.1618   4.2655   4.3727   4.5205   4.5711   4.6961
     4.7799   4.9283   4.9628   5.0185   5.1063   5.2534   5.3090   5.5100
     5.6055   5.6746   5.7040   5.7525   5.7802   5.8270   5.8856   5.9216
     6.0043   6.0519   6.0974   6.1092   6.1328   6.1836   6.1967   6.3264
     6.4527   6.5473   6.6503   6.7165   6.8880   6.9224   6.9977   7.0056
     7.0316   7.0753   7.1263   7.1731   7.1747   7.1841   7.3207   7.3219
     7.4222   7.4331   7.9449   7.9666   8.0837   8.1333   8.2804   8.2910
    10.3081  10.3394  10.6312  10.6363  10.8140  10.8918  12.3141  12.6159
    12.6188  12.6814  12.7428  12.7620  12.8109  12.8718  12.9401  13.0863
    13.3703  13.5040  13.5822  13.5991  13.9307  13.9449  14.2491  14.2565
    15.0101  15.1221  15.3364  15.3512  15.7471  15.7475  16.1375  16.2929
    16.5772  16.8712  17.0251  17.5491  17.8496  17.8685

          k = 0.1667 0.1598 0.1655 ( 61533 PWs)   bands (ev):

   -65.7205 -65.7201 -65.7197 -65.7196 -65.7193 -65.7191 -65.7188 -65.7184
   -30.1719 -30.1645 -30.1642 -30.1564 -30.1310 -30.1228 -30.1187 -30.1033
   -30.0985 -30.0984 -30.0828 -30.0725 -30.0709 -30.0614 -30.0556 -30.0363
   -30.0146 -30.0134 -30.0033 -29.9986 -29.9865 -29.9795 -29.9781 -29.9712
   -19.8647 -19.8646 -19.8641 -19.8640 -19.8629 -19.8627 -19.8621 -19.8620
   -19.8520 -19.8518 -19.8515 -19.8512 -19.8512 -19.8511 -19.8504 -19.8502
   -19.8476 -19.8472 -19.8462 -19.8459 -19.8458 -19.8451 -19.8445 -19.8439
   -19.8415 -19.8412 -19.8406 -19.8404 -19.8403 -19.8401 -19.8397 -19.8395
   -19.8329 -19.8327 -19.8327 -19.8326 -19.8306 -19.8304 -19.8304 -19.8302
   -19.8136 -19.8134 -19.8127 -19.8126 -19.8091 -19.8090 -19.8082 -19.8082
   -19.8038 -19.8037 -19.8028 -19.8027 -19.8004 -19.8003 -19.7994 -19.7993
    -9.5826  -9.2842  -9.1769  -9.1725  -8.8873  -8.8462  -8.7903  -8.6463
    -8.6247  -8.5649  -8.5260  -8.5167  -7.7812  -7.7043  -7.6870  -7.6661
    -7.6360  -7.6259  -7.6206  -7.6036  -7.5713  -7.5331  -7.5198  -7.5008
     1.8361   1.8547   1.8814   1.9045   1.9167   1.9244   1.9888   2.0728
     2.1289   2.2050   2.2414   2.4531   2.8158   2.9117   2.9360   2.9779
     3.0742   3.1429   4.1697   4.2450   4.3778   4.4920   4.5864   4.6619
     4.7048   4.7443   4.8258   4.8745   4.9568   5.0634   5.2933   5.3937
     5.4979   5.5211   5.6245   5.6344   5.7208   5.7471   5.7630   5.8485
     5.9684   5.9931   6.0308   6.0793   6.1084   6.1385   6.3071   6.3575
     6.5872   6.6082   6.7867   6.8132   6.8880   6.9137   6.9589   6.9738
     7.0273   7.0489   7.0974   7.1191   7.1424   7.1918   7.2332   7.2799
     7.4333   7.4681   7.9550   7.9680   8.0927   8.1375   8.2391   8.2541
    10.4845  10.5309  10.7955  10.8247  10.8635  10.9629  12.3676  12.5662
    12.6322  12.6535  12.7500  12.7614  12.8746  12.9181  12.9385  13.0915
    13.3070  13.4376  13.5149  13.5858  13.9184  13.9676  14.1216  14.1679
    15.0725  15.2476  15.3378  15.4507  15.7974  15.8105  16.2216  16.4447
    16.5444  16.9989  17.1631  17.2653  17.8848  17.9488

          k = 0.1667 0.1598 0.3311 ( 61509 PWs)   bands (ev):

   -65.7204 -65.7199 -65.7199 -65.7195 -65.7194 -65.7190 -65.7190 -65.7185
   -30.1699 -30.1658 -30.1622 -30.1578 -30.1265 -30.1202 -30.1160 -30.1056
   -30.0892 -30.0886 -30.0737 -30.0684 -30.0665 -30.0624 -30.0490 -30.0318
   -30.0279 -30.0275 -30.0176 -30.0102 -29.9854 -29.9811 -29.9782 -29.9739
   -19.8646 -19.8644 -19.8642 -19.8641 -19.8627 -19.8626 -19.8623 -19.8622
   -19.8519 -19.8517 -19.8516 -19.8513 -19.8510 -19.8509 -19.8506 -19.8504
   -19.8473 -19.8469 -19.8464 -19.8462 -19.8456 -19.8449 -19.8448 -19.8442
   -19.8415 -19.8412 -19.8405 -19.8404 -19.8403 -19.8402 -19.8396 -19.8395
   -19.8329 -19.8327 -19.8327 -19.8326 -19.8306 -19.8304 -19.8304 -19.8303
   -19.8127 -19.8126 -19.8118 -19.8117 -19.8101 -19.8100 -19.8092 -19.8091
   -19.8036 -19.8035 -19.8030 -19.8029 -19.8001 -19.8001 -19.7996 -19.7995
    -9.4626  -9.2327  -9.1393  -9.0293  -8.8971  -8.8233  -8.6491  -8.5685
    -8.5308  -8.5126  -8.5023  -8.4234  -7.9785  -7.9657  -7.9033  -7.8646
    -7.7111  -7.6866  -7.6299  -7.6052  -7.5984  -7.5887  -7.5453  -7.5306
     1.9003   1.9090   1.9872   2.0039   2.0439   2.0599   2.1529   2.2046
     2.5725   2.6275   2.7013   2.8144   2.9555   3.0334   3.1018   3.1917
     3.2290   3.3737   3.9854   4.0955   4.1366   4.1584   4.3901   4.4173
     4.5033   4.5934   4.6840   4.7387   4.8066   4.9470   4.9869   5.0719
     5.1040   5.2086   5.2889   5.3780   5.4479   5.5230   5.7092   5.8147
     5.8681   5.9259   6.0486   6.0649   6.0752   6.0976   6.2186   6.2751
     6.5639   6.7170   6.7563   6.8339   6.8661   6.8875   6.9441   6.9955
     7.0282   7.0859   7.1343   7.2066   7.2602   7.2927   7.4110   7.4353
     7.4819   7.5506   7.9314   7.9391   8.0714   8.1254   8.1353   8.1388
    10.7523  10.7693  11.0701  11.1716  11.3626  11.4632  12.2615  12.3411
    12.4934  12.5577  12.7128  12.7666  12.8637  12.9451  13.0068  13.0951
    13.1213  13.3201  13.4027  13.5615  13.8040  13.8200  13.9743  14.0115
    15.2091  15.3159  15.5977  15.7311  16.0009  16.1217  16.2150  16.4590
    16.7064  17.2073  17.4118  17.5869  17.7327  18.0610

          k = 0.1667 0.1598-0.4966 ( 61540 PWs)   bands (ev):

   -65.7201 -65.7201 -65.7197 -65.7197 -65.7192 -65.7192 -65.7188 -65.7187
   -30.1677 -30.1677 -30.1599 -30.1598 -30.1227 -30.1227 -30.1098 -30.1097
   -30.0793 -30.0793 -30.0765 -30.0765 -30.0479 -30.0479 -30.0461 -30.0461
   -30.0354 -30.0354 -30.0229 -30.0229 -29.9836 -29.9836 -29.9764 -29.9764
   -19.8644 -19.8644 -19.8643 -19.8643 -19.8625 -19.8625 -19.8624 -19.8624
   -19.8517 -19.8517 -19.8514 -19.8514 -19.8508 -19.8508 -19.8507 -19.8506
   -19.8469 -19.8468 -19.8466 -19.8466 -19.8453 -19.8452 -19.8446 -19.8446
   -19.8414 -19.8413 -19.8404 -19.8404 -19.8402 -19.8402 -19.8395 -19.8395
   -19.8328 -19.8328 -19.8327 -19.8326 -19.8305 -19.8305 -19.8303 -19.8303
   -19.8114 -19.8114 -19.8113 -19.8113 -19.8105 -19.8105 -19.8105 -19.8104
   -19.8033 -19.8033 -19.8032 -19.8032 -19.7999 -19.7998 -19.7998 -19.7998
    -9.3308  -9.3308  -8.9927  -8.9927  -8.8964  -8.8964  -8.5473  -8.5473
    -8.3203  -8.3203  -8.2905  -8.2905  -8.2472  -8.2472  -8.1851  -8.1850
    -7.7024  -7.7024  -7.6143  -7.6143  -7.5784  -7.5784  -7.5593  -7.5593
     1.9045   1.9045   2.0042   2.0042   2.0546   2.0546   2.2006   2.2006
     2.9715   2.9715   3.2861   3.2861   3.3554   3.3554   3.4362   3.4362
     3.5044   3.5044   3.6475   3.6475   3.8460   3.8460   4.0529   4.0529
     4.1368   4.1369   4.5699   4.5699   4.6398   4.6398   4.9864   4.9864
     5.1296   5.1296   5.2882   5.2882   5.3757   5.3757   5.7800   5.7800
     5.9387   5.9387   5.9590   5.9590   6.0826   6.0826   6.1301   6.1301
     6.6595   6.6595   6.8056   6.8056   6.8511   6.8511   6.9761   6.9761
     7.0785   7.0785   7.1400   7.1400   7.2467   7.2467   7.7364   7.7364
     7.7650   7.7650   7.8246   7.8246   7.9000   7.9000   8.1294   8.1294
    10.7886  10.7887  11.6794  11.6794  11.7970  11.7970  11.9996  11.9996
    12.1483  12.1483  12.6749  12.6749  12.9726  12.9726  13.0837  13.0837
    13.2287  13.2287  13.4512  13.4512  13.5998  13.5998  13.9621  13.9621
    15.2865  15.2865  15.9186  15.9186  16.1572  16.1572  16.2713  16.2713
    17.0012  17.0012  17.8708  17.8708  18.1450  18.1450

          k = 0.1667 0.3195 0.0000 ( 61539 PWs)   bands (ev):

   -65.7205 -65.7202 -65.7196 -65.7196 -65.7193 -65.7193 -65.7187 -65.7184
   -30.1630 -30.1551 -30.1534 -30.1445 -30.1399 -30.1319 -30.1267 -30.1136
   -30.1026 -30.1022 -30.0870 -30.0802 -30.0684 -30.0626 -30.0545 -30.0432
   -30.0097 -30.0090 -29.9974 -29.9953 -29.9856 -29.9816 -29.9755 -29.9716
   -19.8643 -19.8642 -19.8636 -19.8635 -19.8632 -19.8631 -19.8624 -19.8623
   -19.8521 -19.8519 -19.8514 -19.8513 -19.8512 -19.8511 -19.8504 -19.8502
   -19.8473 -19.8468 -19.8463 -19.8456 -19.8455 -19.8453 -19.8446 -19.8442
   -19.8414 -19.8411 -19.8407 -19.8405 -19.8405 -19.8402 -19.8400 -19.8397
   -19.8329 -19.8328 -19.8327 -19.8326 -19.8306 -19.8305 -19.8303 -19.8302
   -19.8139 -19.8138 -19.8130 -19.8129 -19.8087 -19.8087 -19.8078 -19.8078
   -19.8039 -19.8038 -19.8027 -19.8027 -19.8004 -19.8004 -19.7993 -19.7992
    -9.5479  -9.3849  -9.1406  -9.0436  -8.9993  -8.8639  -8.6749  -8.6605
    -8.5675  -8.4367  -8.4266  -8.4052  -7.9653  -7.9116  -7.8942  -7.8740
    -7.6698  -7.6556  -7.5744  -7.5593  -7.5265  -7.5094  -7.4437  -7.4291
     1.6604   1.6643   1.6699   1.6719   1.9701   1.9805   2.1271   2.1808
     2.5880   2.6866   2.7473   2.7680   2.7963   2.8827   3.1529   3.1723
     3.2838   3.3236   3.8120   3.8193   4.0346   4.0425   4.3190   4.5826
     4.6766   4.7596   4.8341   4.9001   4.9919   5.0440   5.1533   5.2250
     5.2769   5.2895   5.5872   5.6271   5.6496   5.7990   5.8300   5.8874
     5.9684   6.0114   6.0342   6.0981   6.1575   6.1770   6.2763   6.3220
     6.4592   6.5344   6.6211   6.7468   6.8249   7.0236   7.0523   7.0832
     7.1320   7.1489   7.2275   7.2900   7.3014   7.3038   7.3714   7.3721
     7.4483   7.4883   7.9046   7.9569   7.9946   8.0273   8.0662   8.1011
    10.3362  10.3516  11.0226  11.0780  11.2642  11.3101  12.0570  12.3266
    12.4135  12.4689  12.6767  12.7104  12.7131  12.7436  12.9165  13.0500
    13.3950  13.5356  13.6049  13.6128  13.7774  13.8764  14.0138  14.0419
    15.3698  15.5924  15.6691  15.7209  15.8574  15.9831  16.0916  16.3614
    16.4653  17.1993  17.4319  17.5846  17.9774  18.0212

          k = 0.1667 0.3195 0.1655 ( 61537 PWs)   bands (ev):

   -65.7204 -65.7202 -65.7196 -65.7195 -65.7194 -65.7192 -65.7187 -65.7185
   -30.1620 -30.1542 -30.1537 -30.1450 -30.1382 -30.1297 -30.1272 -30.1143
   -30.0987 -30.0986 -30.0820 -30.0765 -30.0693 -30.0638 -30.0528 -30.0417
   -30.0144 -30.0137 -30.0028 -30.0002 -29.9852 -29.9812 -29.9770 -29.9730
   -19.8643 -19.8641 -19.8636 -19.8635 -19.8632 -19.8631 -19.8625 -19.8624
   -19.8520 -19.8519 -19.8515 -19.8513 -19.8512 -19.8511 -19.8504 -19.8503
   -19.8472 -19.8467 -19.8462 -19.8456 -19.8456 -19.8454 -19.8447 -19.8443
   -19.8414 -19.8411 -19.8407 -19.8405 -19.8404 -19.8402 -19.8399 -19.8397
   -19.8329 -19.8328 -19.8327 -19.8326 -19.8306 -19.8305 -19.8304 -19.8303
   -19.8135 -19.8135 -19.8126 -19.8126 -19.8091 -19.8090 -19.8082 -19.8082
   -19.8038 -19.8038 -19.8028 -19.8028 -19.8004 -19.8003 -19.7993 -19.7993
    -9.4956  -9.3266  -9.0703  -9.0621  -8.9160  -8.8809  -8.6406  -8.6293
    -8.5766  -8.4316  -8.4137  -8.4064  -7.9684  -7.9176  -7.8945  -7.8800
    -7.7002  -7.6888  -7.6348  -7.6279  -7.5723  -7.5552  -7.5255  -7.5095
     1.8418   1.8518   1.9100   1.9139   1.9763   1.9870   2.1687   2.2326
     2.5980   2.6875   2.7565   2.8307   2.8688   2.9159   3.1616   3.2507
     3.2825   3.4024   3.8229   3.8900   4.0337   4.0378   4.2981   4.5998
     4.6247   4.6831   4.7380   4.7790   4.8869   4.9853   5.0389   5.0848
     5.1387   5.2313   5.4188   5.4426   5.6261   5.6395   5.6486   5.7113
     5.9001   5.9244   5.9463   5.9846   6.0697   6.0740   6.3333   6.3494
     6.6130   6.6704   6.7654   6.8169   6.9536   7.0115   7.0297   7.0723
     7.0985   7.1395   7.1945   7.2192   7.2929   7.3100   7.3467   7.3827
     7.4863   7.4947   7.9156   7.9579   7.9876   8.0295   8.0429   8.0768
    10.5379  10.5605  11.1802  11.2096  11.2810  11.3469  12.1393  12.3728
    12.4234  12.4661  12.6590  12.6851  12.7112  12.7647  12.9708  13.0869
    13.3290  13.4355  13.5161  13.5583  13.7413  13.8711  13.9011  13.9829
    15.4762  15.6981  15.7871  15.7965  15.8728  16.0350  16.3485  16.4317
    16.5098  17.1682  17.4971  17.6144  17.6633  18.0830

          k = 0.1667 0.3195 0.3311 ( 61538 PWs)   bands (ev):

   -65.7203 -65.7200 -65.7198 -65.7195 -65.7194 -65.7191 -65.7189 -65.7186
   -30.1598 -30.1553 -30.1515 -30.1465 -30.1345 -30.1287 -30.1244 -30.1162
   -30.0890 -30.0886 -30.0725 -30.0688 -30.0675 -30.0646 -30.0465 -30.0368
   -30.0280 -30.0278 -30.0168 -30.0127 -29.9841 -29.9801 -29.9798 -29.9758
   -19.8641 -19.8640 -19.8638 -19.8637 -19.8631 -19.8629 -19.8626 -19.8625
   -19.8519 -19.8517 -19.8515 -19.8513 -19.8510 -19.8509 -19.8505 -19.8504
   -19.8469 -19.8465 -19.8461 -19.8459 -19.8458 -19.8453 -19.8451 -19.8446
   -19.8413 -19.8411 -19.8407 -19.8405 -19.8404 -19.8402 -19.8399 -19.8398
   -19.8328 -19.8327 -19.8327 -19.8326 -19.8305 -19.8304 -19.8304 -19.8303
   -19.8126 -19.8126 -19.8118 -19.8117 -19.8101 -19.8100 -19.8092 -19.8092
   -19.8036 -19.8035 -19.8030 -19.8030 -19.8001 -19.8001 -19.7995 -19.7995
    -9.3656  -9.1831  -9.1204  -8.9347  -8.8895  -8.6810  -8.6137  -8.5359
    -8.5168  -8.4237  -8.4053  -8.3450  -8.0413  -7.9946  -7.9590  -7.9141
    -7.8871  -7.8625  -7.8520  -7.7794  -7.6246  -7.6077  -7.5572  -7.5405
     1.9765   1.9907   2.0024   2.0134   2.4751   2.5383   2.5698   2.6307
     2.7038   2.7423   2.7654   2.9430   3.1115   3.1561   3.2026   3.2718
     3.4759   3.5959   3.8571   3.9243   4.0098   4.0369   4.1140   4.1897
     4.3147   4.4991   4.5417   4.6294   4.6571   4.7487   4.8603   4.9442
     4.9620   5.0749   5.1206   5.1718   5.2216   5.3123   5.4086   5.4560
     5.5921   5.6160   5.7006   5.8927   6.0035   6.0719   6.2497   6.2688
     6.7276   6.8016   6.8182   6.9249   6.9913   7.0309   7.1196   7.1442
     7.1917   7.2283   7.2675   7.2854   7.3381   7.4140   7.4346   7.4589
     7.5169   7.5391   7.9088   7.9165   7.9477   7.9695   8.0071   8.0193
    11.0247  11.0499  11.2927  11.3475  11.6295  11.7119  12.2449  12.3005
    12.3946  12.4679  12.5358  12.6029  12.7968  12.8553  12.9209  12.9515
    13.0481  13.2389  13.2941  13.5354  13.5449  13.6538  13.8615  13.8815
    15.6245  15.7430  15.9685  16.1915  16.2542  16.3096  16.4151  16.9442
    17.0048  17.0663  17.1801  17.7240  17.8318  17.9128

          k = 0.1667 0.3195-0.4966 ( 61536 PWs)   bands (ev):

   -65.7200 -65.7200 -65.7198 -65.7198 -65.7191 -65.7191 -65.7189 -65.7188
   -30.1573 -30.1573 -30.1487 -30.1487 -30.1311 -30.1311 -30.1196 -30.1196
   -30.0787 -30.0787 -30.0771 -30.0771 -30.0479 -30.0479 -30.0470 -30.0470
   -30.0337 -30.0337 -30.0268 -30.0267 -29.9824 -29.9824 -29.9783 -29.9782
   -19.8640 -19.8639 -19.8638 -19.8638 -19.8629 -19.8628 -19.8627 -19.8627
   -19.8517 -19.8517 -19.8515 -19.8515 -19.8508 -19.8507 -19.8507 -19.8507
   -19.8465 -19.8465 -19.8462 -19.8461 -19.8455 -19.8455 -19.8450 -19.8450
   -19.8412 -19.8412 -19.8406 -19.8406 -19.8403 -19.8403 -19.8398 -19.8398
   -19.8328 -19.8328 -19.8327 -19.8327 -19.8305 -19.8305 -19.8304 -19.8304
   -19.8114 -19.8114 -19.8113 -19.8113 -19.8105 -19.8105 -19.8105 -19.8105
   -19.8033 -19.8033 -19.8033 -19.8032 -19.7998 -19.7998 -19.7998 -19.7998
    -9.2239  -9.2239  -9.0343  -9.0343  -8.7066  -8.7066  -8.4488  -8.4488
    -8.3497  -8.3497  -8.2954  -8.2954  -8.2425  -8.2425  -8.1602  -8.1601
    -7.9118  -7.9118  -7.8540  -7.8540  -7.5914  -7.5913  -7.5740  -7.5740
     1.9956   1.9956   2.0109   2.0109   2.6079   2.6079   2.7319   2.7319
     3.1594   3.1594   3.3342   3.3342   3.3768   3.3768   3.4605   3.4605
     3.5035   3.5035   3.7412   3.7412   3.7947   3.7947   3.9993   3.9993
     4.2341   4.2341   4.3059   4.3059   4.3639   4.3639   4.5618   4.5618
     5.0016   5.0016   5.1352   5.1352   5.2837   5.2837   5.3333   5.3333
     5.4185   5.4185   5.7786   5.7786   6.0693   6.0693   6.1160   6.1160
     6.8223   6.8223   6.9351   6.9352   6.9890   6.9890   7.0628   7.0628
     7.2467   7.2467   7.2946   7.2947   7.4086   7.4086   7.7195   7.7195
     7.7439   7.7439   7.7627   7.7627   7.8180   7.8180   7.9990   7.9990
    11.2368  11.2368  11.6987  11.6988  11.8076  11.8076  12.1784  12.1784
    12.3043  12.3043  12.5714  12.5714  12.7268  12.7268  12.8992  12.8992
    13.1321  13.1321  13.1973  13.1973  13.5530  13.5530  13.8194  13.8194
    15.7085  15.7085  16.1583  16.1583  16.5780  16.5780  16.7984  16.7984
    17.1499  17.1499  17.5332  17.5332  18.0488  18.0488

          k = 0.1667-0.4793 0.0000 ( 61580 PWs)   bands (ev):

   -65.7204 -65.7204 -65.7195 -65.7194 -65.7194 -65.7194 -65.7185 -65.7185
   -30.1507 -30.1507 -30.1426 -30.1426 -30.1395 -30.1395 -30.1289 -30.1289
   -30.1026 -30.1026 -30.0845 -30.0845 -30.0657 -30.0657 -30.0495 -30.0495
   -30.0093 -30.0093 -29.9966 -29.9966 -29.9837 -29.9837 -29.9737 -29.9737
   -19.8638 -19.8637 -19.8636 -19.8636 -19.8630 -19.8630 -19.8629 -19.8629
   -19.8520 -19.8520 -19.8514 -19.8514 -19.8512 -19.8512 -19.8503 -19.8503
   -19.8468 -19.8468 -19.8462 -19.8462 -19.8450 -19.8450 -19.8448 -19.8447
   -19.8411 -19.8411 -19.8409 -19.8409 -19.8403 -19.8403 -19.8400 -19.8400
   -19.8328 -19.8328 -19.8326 -19.8326 -19.8306 -19.8306 -19.8303 -19.8303
   -19.8138 -19.8138 -19.8129 -19.8129 -19.8087 -19.8087 -19.8078 -19.8078
   -19.8039 -19.8039 -19.8027 -19.8027 -19.8004 -19.8004 -19.7992 -19.7992
    -9.4558  -9.4558  -9.0540  -9.0540  -8.9324  -8.9324  -8.6671  -8.6671
    -8.2671  -8.2671  -8.2108  -8.2108  -8.1862  -8.1862  -8.1817  -8.1817
    -7.6661  -7.6660  -7.5675  -7.5675  -7.5192  -7.5192  -7.4369  -7.4369
     1.6630   1.6630   1.6699   1.6699   1.9793   1.9793   2.1705   2.1705
     2.7667   2.7667   3.2184   3.2184   3.3378   3.3378   3.4074   3.4074
     3.5092   3.5092   3.6142   3.6142   3.8400   3.8400   3.9708   3.9708
     4.0554   4.0554   4.7033   4.7033   4.9225   4.9225   5.3066   5.3066
     5.3969   5.3969   5.5053   5.5053   5.5750   5.5750   5.8280   5.8280
     5.9871   5.9871   6.0062   6.0062   6.1676   6.1676   6.3186   6.3186
     6.5659   6.5659   6.6058   6.6058   6.9044   6.9044   7.0962   7.0962
     7.1733   7.1733   7.2822   7.2822   7.3942   7.3942   7.6594   7.6594
     7.6952   7.6952   7.7436   7.7437   7.7868   7.7868   7.9835   7.9835
    10.3497  10.3497  11.5584  11.5584  11.6384  11.6384  11.8807  11.8807
    11.9569  11.9569  12.7104  12.7104  12.7220  12.7220  12.9921  12.9921
    13.5243  13.5243  13.6268  13.6268  13.7629  13.7629  13.8501  13.8501
    15.7116  15.7116  15.8187  15.8187  15.9309  15.9309  16.2215  16.2215
    16.8637  16.8637  18.0557  18.0557  18.2603  18.2603

          k = 0.1667-0.4793 0.1655 ( 61548 PWs)   bands (ev):

   -65.7203 -65.7203 -65.7195 -65.7195 -65.7194 -65.7194 -65.7186 -65.7186
   -30.1494 -30.1494 -30.1412 -30.1410 -30.1400 -30.1398 -30.1295 -30.1295
   -30.0988 -30.0988 -30.0800 -30.0800 -30.0668 -30.0668 -30.0479 -30.0479
   -30.0141 -30.0141 -30.0018 -30.0018 -29.9834 -29.9834 -29.9752 -29.9752
   -19.8637 -19.8637 -19.8636 -19.8636 -19.8630 -19.8630 -19.8629 -19.8629
   -19.8519 -19.8519 -19.8514 -19.8514 -19.8511 -19.8511 -19.8504 -19.8504
   -19.8467 -19.8467 -19.8461 -19.8461 -19.8452 -19.8451 -19.8449 -19.8449
   -19.8411 -19.8411 -19.8409 -19.8409 -19.8402 -19.8402 -19.8400 -19.8400
   -19.8328 -19.8328 -19.8327 -19.8326 -19.8305 -19.8305 -19.8303 -19.8303
   -19.8135 -19.8135 -19.8126 -19.8126 -19.8091 -19.8090 -19.8082 -19.8082
   -19.8038 -19.8038 -19.8028 -19.8028 -19.8003 -19.8003 -19.7993 -19.7993
    -9.3997  -9.3997  -8.9748  -8.9741  -8.9507  -8.9504  -8.6347  -8.6346
    -8.2748  -8.2738  -8.2101  -8.2090  -8.1913  -8.1898  -8.1780  -8.1753
    -7.6979  -7.6965  -7.6333  -7.6331  -7.5655  -7.5653  -7.5187  -7.5184
     1.8429   1.8497   1.9114   1.9155   1.9841   1.9873   2.2188   2.2239
     2.8582   2.8617   3.2381   3.2405   3.3307   3.3739   3.3886   3.4185
[...]
    12.4261  12.4261  12.4261  12.4261  12.6371  12.6371  12.6371  12.6371
    13.3278  13.3278  13.3278  13.3278  13.5326  13.5326  13.5326  13.5326
    15.7065  15.7065  15.7065  15.7065  16.9837  16.9837  16.9837  16.9837
    17.6712  17.6712  17.6712  17.6712  17.9012  17.9013

          k =-0.5000 0.3195 0.0000 ( 61608 PWs)   bands (ev):

   -65.7200 -65.7200 -65.7198 -65.7198 -65.7191 -65.7191 -65.7189 -65.7189
   -30.1585 -30.1585 -30.1483 -30.1483 -30.1351 -30.1351 -30.1185 -30.1185
   -30.0926 -30.0926 -30.0883 -30.0883 -30.0342 -30.0342 -30.0330 -30.0330
   -30.0226 -30.0226 -30.0162 -30.0162 -29.9921 -29.9921 -29.9890 -29.9890
   -19.8642 -19.8642 -19.8635 -19.8635 -19.8632 -19.8632 -19.8624 -19.8624
   -19.8517 -19.8517 -19.8515 -19.8515 -19.8509 -19.8509 -19.8507 -19.8507
   -19.8471 -19.8471 -19.8461 -19.8461 -19.8454 -19.8454 -19.8445 -19.8445
   -19.8409 -19.8409 -19.8406 -19.8406 -19.8403 -19.8403 -19.8401 -19.8401
   -19.8317 -19.8317 -19.8316 -19.8316 -19.8315 -19.8315 -19.8314 -19.8314
   -19.8134 -19.8134 -19.8134 -19.8134 -19.8083 -19.8083 -19.8083 -19.8083
   -19.8022 -19.8022 -19.8021 -19.8021 -19.8011 -19.8011 -19.8010 -19.8010
    -9.2999  -9.2999  -9.1406  -9.1406  -8.6999  -8.6999  -8.4816  -8.4816
    -8.3026  -8.3026  -8.2791  -8.2791  -8.2188  -8.2188  -8.1375  -8.1374
    -7.8918  -7.8918  -7.8503  -7.8503  -7.5083  -7.5083  -7.4930  -7.4930
     1.6850   1.6850   1.6938   1.6938   2.5857   2.5857   2.7335   2.7335
     3.1993   3.1993   3.2323   3.2323   3.3105   3.3105   3.4414   3.4414
     3.5336   3.5336   3.7220   3.7220   3.8455   3.8455   3.9378   3.9378
     4.1734   4.1734   4.2824   4.2824   4.5179   4.5179   4.6596   4.6596
     5.1048   5.1048   5.1205   5.1205   5.4046   5.4046   5.5709   5.5709
     5.7180   5.7180   5.9779   5.9779   6.3609   6.3609   6.3930   6.3930
     6.6576   6.6576   6.7687   6.7687   6.7917   6.7917   6.9471   6.9471
     7.2444   7.2444   7.2770   7.2770   7.3119   7.3119   7.6610   7.6610
     7.6961   7.6961   7.8279   7.8279   7.8685   7.8685   8.0706   8.0706
    11.0500  11.0500  11.6421  11.6421  11.7373  11.7373  11.8897  11.8897
    12.3357  12.3357  12.5382  12.5382  12.8569  12.8569  13.0323  13.0323
    13.1524  13.1524  13.3198  13.3198  13.5987  13.5987  13.9991  13.9991
    15.5256  15.5256  15.8638  15.8638  16.4982  16.4982  16.7905  16.7905
    16.9095  16.9095  17.5111  17.5111  18.0534  18.0534

          k =-0.5000 0.3195 0.1655 ( 61546 PWs)   bands (ev):

   -65.7200 -65.7200 -65.7197 -65.7197 -65.7192 -65.7192 -65.7189 -65.7189
   -30.1574 -30.1574 -30.1488 -30.1488 -30.1329 -30.1329 -30.1191 -30.1191
   -30.0877 -30.0877 -30.0846 -30.0846 -30.0360 -30.0360 -30.0352 -30.0352
   -30.0221 -30.0221 -30.0155 -30.0155 -29.9964 -29.9964 -29.9928 -29.9928
   -19.8642 -19.8642 -19.8636 -19.8636 -19.8631 -19.8631 -19.8624 -19.8624
   -19.8516 -19.8516 -19.8515 -19.8515 -19.8509 -19.8509 -19.8507 -19.8507
   -19.8470 -19.8470 -19.8460 -19.8460 -19.8455 -19.8455 -19.8446 -19.8446
   -19.8409 -19.8409 -19.8407 -19.8407 -19.8403 -19.8403 -19.8401 -19.8401
   -19.8317 -19.8317 -19.8316 -19.8316 -19.8315 -19.8315 -19.8314 -19.8314
   -19.8131 -19.8131 -19.8131 -19.8131 -19.8087 -19.8087 -19.8087 -19.8087
   -19.8021 -19.8021 -19.8021 -19.8021 -19.8011 -19.8011 -19.8011 -19.8011
    -9.2345  -9.2345  -9.0631  -9.0630  -8.7153  -8.7153  -8.4622  -8.4622
    -8.3224  -8.3224  -8.2719  -8.2719  -8.2079  -8.2079  -8.1408  -8.1408
    -7.8892  -7.8892  -7.8554  -7.8554  -7.6185  -7.6185  -7.6021  -7.6021
     1.9260   1.9260   1.9363   1.9363   2.5953   2.5953   2.7195   2.7195
     3.2262   3.2262   3.2926   3.2926   3.3211   3.3211   3.4746   3.4746
     3.5532   3.5532   3.7659   3.7659   3.8765   3.8765   3.9912   3.9912
     4.1638   4.1638   4.2945   4.2945   4.5097   4.5097   4.6446   4.6446
     4.9646   4.9646   5.0806   5.0806   5.2739   5.2739   5.3189   5.3189
     5.4433   5.4433   5.7604   5.7604   6.0387   6.0387   6.0876   6.0876
     6.8291   6.8291   6.9875   6.9876   7.0261   7.0261   7.0667   7.0667
     7.2202   7.2202   7.3078   7.3078   7.3565   7.3565   7.6669   7.6669
     7.7073   7.7073   7.8352   7.8352   7.8696   7.8696   8.0470   8.0471
    11.2011  11.2011  11.7047  11.7047  11.8110  11.8110  11.9412  11.9412
    12.3578  12.3578  12.5763  12.5763  12.8476  12.8476  12.9982  12.9982
    13.1445  13.1445  13.2910  13.2910  13.4631  13.4631  13.8744  13.8744
    15.7190  15.7190  16.0843  16.0843  16.5588  16.5588  16.7879  16.7879
    16.9637  16.9637  17.5498  17.5498  17.9869  17.9869

          k =-0.5000 0.3195 0.3311 ( 61540 PWs)   bands (ev):

   -65.7198 -65.7198 -65.7195 -65.7195 -65.7194 -65.7194 -65.7191 -65.7191
   -30.1550 -30.1550 -30.1502 -30.1502 -30.1282 -30.1282 -30.1209 -30.1209
   -30.0744 -30.0744 -30.0735 -30.0735 -30.0431 -30.0431 -30.0428 -30.0428
   -30.0200 -30.0200 -30.0135 -30.0135 -30.0064 -30.0064 -30.0013 -30.0013
   -19.8641 -19.8641 -19.8637 -19.8637 -19.8630 -19.8630 -19.8626 -19.8626
   -19.8514 -19.8514 -19.8513 -19.8513 -19.8510 -19.8510 -19.8509 -19.8509
   -19.8467 -19.8467 -19.8460 -19.8460 -19.8456 -19.8456 -19.8449 -19.8449
   -19.8408 -19.8408 -19.8407 -19.8407 -19.8402 -19.8402 -19.8401 -19.8401
   -19.8317 -19.8317 -19.8317 -19.8317 -19.8314 -19.8314 -19.8314 -19.8314
   -19.8122 -19.8122 -19.8122 -19.8122 -19.8097 -19.8097 -19.8096 -19.8096
   -19.8019 -19.8019 -19.8019 -19.8019 -19.8013 -19.8013 -19.8013 -19.8013
    -9.0668  -9.0668  -8.8510  -8.8510  -8.7680  -8.7680  -8.4152  -8.4152
    -8.3686  -8.3685  -8.2475  -8.2475  -8.1848  -8.1848  -8.1462  -8.1462
    -7.9157  -7.9157  -7.8898  -7.8898  -7.8657  -7.8657  -7.8186  -7.8186
     2.4800   2.4800   2.5822   2.5822   2.6282   2.6282   2.7647   2.7647
     3.2715   3.2715   3.3066   3.3066   3.4504   3.4504   3.5298   3.5298
     3.6231   3.6231   3.9028   3.9028   3.9853   3.9853   4.0869   4.0869
     4.1481   4.1481   4.3287   4.3287   4.4408   4.4408   4.4864   4.4864
     4.6357   4.6357   4.7726   4.7726   4.9352   4.9352   5.1024   5.1024
     5.1861   5.1861   5.2961   5.2961   5.3362   5.3362   5.5919   5.5920
     7.0326   7.0326   7.1027   7.1027   7.2063   7.2063   7.2278   7.2278
     7.3894   7.3894   7.4806   7.4806   7.5231   7.5231   7.6822   7.6822
     7.7389   7.7389   7.8433   7.8433   7.8592   7.8592   7.9758   7.9758
    11.6000  11.6000  11.8910  11.8910  12.0096  12.0096  12.0682  12.0682
    12.4404  12.4404  12.6617  12.6617  12.7250  12.7250  12.7704  12.7704
    13.0762  13.0762  13.1692  13.1692  13.1888  13.1888  13.5545  13.5545
    16.2328  16.2328  16.5855  16.5855  16.7675  16.7675  16.9031  16.9031
    17.1599  17.1599  17.6082  17.6082  17.8085  17.8085

          k =-0.5000 0.3195-0.4966 ( 61556 PWs)   bands (ev):

   -65.7196 -65.7196 -65.7196 -65.7196 -65.7193 -65.7193 -65.7193 -65.7193
   -30.1524 -30.1524 -30.1524 -30.1524 -30.1239 -30.1239 -30.1239 -30.1239
   -30.0585 -30.0585 -30.0585 -30.0585 -30.0558 -30.0558 -30.0558 -30.0558
   -30.0155 -30.0155 -30.0155 -30.0155 -30.0086 -30.0086 -30.0086 -30.0086
   -19.8639 -19.8639 -19.8639 -19.8639 -19.8628 -19.8628 -19.8628 -19.8628
   -19.8512 -19.8512 -19.8512 -19.8512 -19.8511 -19.8511 -19.8511 -19.8510
   -19.8464 -19.8463 -19.8463 -19.8463 -19.8453 -19.8453 -19.8453 -19.8453
   -19.8408 -19.8408 -19.8408 -19.8408 -19.8401 -19.8401 -19.8401 -19.8401
   -19.8317 -19.8317 -19.8317 -19.8317 -19.8314 -19.8314 -19.8314 -19.8314
   -19.8110 -19.8110 -19.8110 -19.8110 -19.8109 -19.8109 -19.8109 -19.8109
   -19.8017 -19.8017 -19.8017 -19.8016 -19.8015 -19.8015 -19.8015 -19.8015
    -8.8848  -8.8848  -8.8848  -8.8848  -8.5799  -8.5799  -8.5799  -8.5799
    -8.2575  -8.2574  -8.2574  -8.2574  -8.1312  -8.1312  -8.1312  -8.1312
    -8.0922  -8.0922  -8.0922  -8.0922  -7.8610  -7.8609  -7.8609  -7.8609
     2.6144   2.6144   2.6144   2.6144   3.2197   3.2197   3.2197   3.2197
     3.3387   3.3388   3.3388   3.3388   3.4915   3.4915   3.4915   3.4915
     3.6778   3.6778   3.6778   3.6778   4.0583   4.0583   4.0583   4.0583
     4.2419   4.2419   4.2419   4.2419   4.3534   4.3534   4.3534   4.3534
     4.5891   4.5891   4.5891   4.5891   4.7171   4.7171   4.7171   4.7171
     4.9880   4.9880   4.9880   4.9880   5.3611   5.3611   5.3611   5.3611
     7.1034   7.1034   7.1034   7.1034   7.2371   7.2371   7.2371   7.2371
     7.5653   7.5653   7.5653   7.5653   7.6871   7.6871   7.6871   7.6871
     7.7808   7.7808   7.7808   7.7808   7.8903   7.8904   7.8904   7.8904
    12.0007  12.0007  12.0007  12.0007  12.1883  12.1883  12.1883  12.1883
    12.4168  12.4168  12.4168  12.4168  12.6919  12.6919  12.6919  12.6919
    12.9996  12.9996  12.9996  12.9996  13.2360  13.2360  13.2360  13.2360
    16.5601  16.5601  16.5601  16.5601  17.1310  17.1310  17.1310  17.1310
    17.5856  17.5856  17.5856  17.5856  17.9062  17.9063

          k =-0.5000-0.4793 0.0000 ( 61628 PWs)   bands (ev):

   -65.7199 -65.7199 -65.7199 -65.7199 -65.7190 -65.7190 -65.7190 -65.7190
   -30.1462 -30.1462 -30.1456 -30.1456 -30.1336 -30.1336 -30.1327 -30.1327
   -30.0913 -30.0913 -30.0908 -30.0908 -30.0338 -30.0338 -30.0333 -30.0333
   -30.0205 -30.0205 -30.0190 -30.0190 -29.9910 -29.9910 -29.9905 -29.9905
   -19.8637 -19.8637 -19.8637 -19.8637 -19.8629 -19.8629 -19.8629 -19.8629
   -19.8517 -19.8517 -19.8516 -19.8516 -19.8508 -19.8508 -19.8507 -19.8507
   -19.8465 -19.8465 -19.8465 -19.8465 -19.8450 -19.8450 -19.8449 -19.8449
   -19.8407 -19.8407 -19.8407 -19.8407 -19.8404 -19.8404 -19.8404 -19.8404
   -19.8317 -19.8317 -19.8317 -19.8317 -19.8315 -19.8315 -19.8314 -19.8314
   -19.8134 -19.8134 -19.8134 -19.8134 -19.8083 -19.8083 -19.8083 -19.8083
   -19.8022 -19.8022 -19.8022 -19.8022 -19.8010 -19.8010 -19.8010 -19.8010
    -9.2110  -9.2110  -9.2007  -9.2006  -8.4703  -8.4703  -8.4372  -8.4371
    -8.3509  -8.3509  -8.3209  -8.3209  -8.1647  -8.1647  -8.0940  -8.0939
    -8.0873  -8.0872  -8.0265  -8.0265  -7.5014  -7.5014  -7.5008  -7.5008
     1.6857   1.6857   1.6940   1.6940   3.1175   3.1175   3.2149   3.2149
     3.2569   3.2569   3.2814   3.2814   3.4606   3.4606   3.5233   3.5233
     3.5655   3.5655   3.6879   3.6879   3.7109   3.7109   3.8350   3.8350
     3.8469   3.8469   4.1931   4.1931   4.4941   4.4941   4.5849   4.5849
     4.6136   4.6137   4.7018   4.7018   5.4503   5.4504   5.5154   5.5154
     5.7387   5.7387   5.8257   5.8257   6.3827   6.3827   6.3934   6.3934
     6.7633   6.7633   6.7633   6.7633   6.8136   6.8136   6.8654   6.8654
     7.4296   7.4296   7.4540   7.4540   7.5189   7.5189   7.6551   7.6551
     7.7429   7.7429   7.7785   7.7785   7.7827   7.7827   7.8548   7.8548
    11.5713  11.5713  11.5915  11.5915  11.7035  11.7035  11.7269  11.7269
    12.5273  12.5273  12.6095  12.6095  12.6297  12.6297  12.7439  12.7439
    13.1933  13.1933  13.2021  13.2021  13.7140  13.7140  13.7825  13.7825
    15.7513  15.7513  15.7816  15.7816  16.9331  16.9331  17.1062  17.1062
    17.4766  17.4766  17.5665  17.5667  17.6586  17.6586

          k =-0.5000-0.4793 0.1655 ( 61544 PWs)   bands (ev):

   -65.7198 -65.7198 -65.7198 -65.7198 -65.7191 -65.7191 -65.7190 -65.7190
   -30.1447 -30.1447 -30.1441 -30.1441 -30.1341 -30.1341 -30.1332 -30.1332
   -30.0869 -30.0869 -30.0864 -30.0864 -30.0358 -30.0358 -30.0353 -30.0353
   -30.0199 -30.0199 -30.0184 -30.0184 -29.9952 -29.9952 -29.9946 -29.9946
   -19.8637 -19.8637 -19.8636 -19.8636 -19.8630 -19.8630 -19.8630 -19.8630
   -19.8516 -19.8516 -19.8515 -19.8515 -19.8509 -19.8509 -19.8508 -19.8508
   -19.8465 -19.8465 -19.8464 -19.8464 -19.8451 -19.8451 -19.8450 -19.8450
   -19.8407 -19.8407 -19.8406 -19.8406 -19.8404 -19.8404 -19.8404 -19.8404
   -19.8317 -19.8317 -19.8317 -19.8317 -19.8315 -19.8315 -19.8314 -19.8314
   -19.8131 -19.8131 -19.8131 -19.8131 -19.8087 -19.8087 -19.8087 -19.8087
   -19.8021 -19.8021 -19.8021 -19.8021 -19.8011 -19.8011 -19.8011 -19.8011
    -9.1381  -9.1381  -9.1266  -9.1266  -8.4906  -8.4906  -8.4569  -8.4569
    -8.3354  -8.3354  -8.3034  -8.3034  -8.1614  -8.1614  -8.1025  -8.1025
    -8.0784  -8.0784  -8.0296  -8.0296  -7.6114  -7.6114  -7.6112  -7.6112
     1.9282   1.9282   1.9386   1.9386   3.1355   3.1355   3.2388   3.2388
     3.2549   3.2549   3.3115   3.3115   3.4180   3.4181   3.5395   3.5395
     3.6175   3.6175   3.7250   3.7250   3.7718   3.7718   3.8390   3.8390
     3.9122   3.9122   4.2116   4.2116   4.5011   4.5011   4.5705   4.5705
     4.6122   4.6122   4.6867   4.6867   5.1526   5.1526   5.3127   5.3127
     5.4338   5.4338   5.5685   5.5685   6.0377   6.0377   6.0679   6.0679
     6.8975   6.8976   6.9850   6.9850   7.0594   7.0594   7.1016   7.1016
     7.4196   7.4196   7.4617   7.4617   7.5560   7.5560   7.6414   7.6414
     7.7247   7.7248   7.7561   7.7561   7.8211   7.8211   7.8567   7.8567
    11.6481  11.6481  11.7029  11.7029  11.7591  11.7591  11.8463  11.8463
    12.5409  12.5409  12.6134  12.6134  12.6242  12.6242  12.7597  12.7597
    13.1214  13.1214  13.1875  13.1875  13.5771  13.5771  13.6520  13.6520
    15.9756  15.9756  16.0109  16.0109  16.9896  16.9897  17.1617  17.1617
    17.4767  17.4767  17.5808  17.5808  17.6598  17.6598

          k =-0.5000-0.4793 0.3311 ( 61516 PWs)   bands (ev):

   -65.7197 -65.7197 -65.7197 -65.7197 -65.7192 -65.7192 -65.7192 -65.7192
   -30.1415 -30.1415 -30.1408 -30.1408 -30.1357 -30.1357 -30.1348 -30.1348
   -30.0744 -30.0744 -30.0739 -30.0739 -30.0430 -30.0430 -30.0428 -30.0428
   -30.0177 -30.0177 -30.0163 -30.0163 -30.0047 -30.0047 -30.0037 -30.0037
   -19.8635 -19.8635 -19.8635 -19.8635 -19.8631 -19.8631 -19.8631 -19.8631
   -19.8514 -19.8514 -19.8513 -19.8513 -19.8510 -19.8510 -19.8509 -19.8509
   -19.8462 -19.8462 -19.8462 -19.8462 -19.8454 -19.8454 -19.8454 -19.8454
   -19.8406 -19.8406 -19.8406 -19.8406 -19.8404 -19.8404 -19.8404 -19.8404
   -19.8317 -19.8317 -19.8317 -19.8317 -19.8315 -19.8314 -19.8314 -19.8314
   -19.8122 -19.8122 -19.8122 -19.8122 -19.8097 -19.8097 -19.8096 -19.8096
   -19.8019 -19.8019 -19.8019 -19.8019 -19.8013 -19.8013 -19.8013 -19.8013
    -8.9435  -8.9435  -8.9274  -8.9274  -8.5592  -8.5592  -8.5254  -8.5254
    -8.2815  -8.2815  -8.2487  -8.2487  -8.1534  -8.1534  -8.1137  -8.1137
    -8.0660  -8.0659  -8.0381  -8.0381  -7.8725  -7.8725  -7.8707  -7.8707
     2.5608   2.5608   2.5847   2.5847   3.1781   3.1781   3.2407   3.2407
     3.2822   3.2823   3.3796   3.3796   3.3955   3.3956   3.5155   3.5155
     3.7130   3.7130   3.8002   3.8002   3.8576   3.8576   3.9121   3.9121
     4.1273   4.1273   4.2700   4.2700   4.4800   4.4800   4.4993   4.4993
     4.5684   4.5684   4.6284   4.6284   4.7633   4.7633   4.8888   4.8888
     4.9686   4.9686   5.1024   5.1024   5.2933   5.2933   5.3424   5.3424
     7.1418   7.1419   7.2589   7.2589   7.3532   7.3532   7.4004   7.4004
     7.4391   7.4391   7.5185   7.5185   7.5988   7.5988   7.6306   7.6306
     7.7005   7.7005   7.7662   7.7662   7.8365   7.8365   7.8579   7.8579
    11.8832  11.8832  11.9506  11.9506  12.0140  12.0140  12.1473  12.1473
    12.5423  12.5423  12.5528  12.5528  12.6464  12.6464  12.7923  12.7923
    12.8632  12.8632  12.9924  12.9924  13.2383  13.2383  13.3169  13.3169
    16.6319  16.6319  16.6982  16.6982  17.1461  17.1461  17.3113  17.3113
    17.4521  17.4521  17.6027  17.6027  17.6618  17.6618

          k =-0.5000-0.4793-0.4966 ( 61584 PWs)   bands (ev):

   -65.7195 -65.7195 -65.7195 -65.7194 -65.7194 -65.7194 -65.7194 -65.7194
   -30.1383 -30.1383 -30.1383 -30.1383 -30.1373 -30.1373 -30.1373 -30.1373
   -30.0585 -30.0585 -30.0585 -30.0585 -30.0559 -30.0559 -30.0559 -30.0559
   -30.0137 -30.0137 -30.0137 -30.0137 -30.0111 -30.0111 -30.0111 -30.0110
   -19.8634 -19.8634 -19.8634 -19.8633 -19.8633 -19.8633 -19.8633 -19.8633
   -19.8512 -19.8512 -19.8512 -19.8512 -19.8511 -19.8511 -19.8511 -19.8511
   -19.8458 -19.8458 -19.8458 -19.8458 -19.8458 -19.8458 -19.8458 -19.8458
   -19.8406 -19.8406 -19.8406 -19.8406 -19.8404 -19.8404 -19.8404 -19.8404
   -19.8317 -19.8317 -19.8317 -19.8317 -19.8314 -19.8314 -19.8314 -19.8314
   -19.8110 -19.8110 -19.8110 -19.8110 -19.8109 -19.8109 -19.8109 -19.8109
   -19.8017 -19.8017 -19.8017 -19.8016 -19.8015 -19.8015 -19.8015 -19.8015
    -8.7161  -8.7161  -8.7161  -8.7161  -8.6819  -8.6819  -8.6819  -8.6819
    -8.1762  -8.1762  -8.1762  -8.1762  -8.1210  -8.1210  -8.1210  -8.1210
    -8.0948  -8.0948  -8.0947  -8.0947  -8.0476  -8.0476  -8.0476  -8.0476
     3.1211   3.1211   3.1211   3.1211   3.2240   3.2240   3.2240   3.2240
     3.4066   3.4066   3.4066   3.4066   3.5384   3.5384   3.5384   3.5384
     3.6009   3.6009   3.6009   3.6009   3.8098   3.8098   3.8098   3.8099
     4.3808   4.3808   4.3808   4.3808   4.4244   4.4244   4.4244   4.4244
     4.5885   4.5885   4.5885   4.5885   4.6775   4.6775   4.6775   4.6775
     4.7606   4.7606   4.7606   4.7606   4.8525   4.8525   4.8525   4.8525
     7.2757   7.2757   7.2757   7.2757   7.4684   7.4684   7.4684   7.4684
     7.5406   7.5406   7.5406   7.5406   7.6113   7.6113   7.6114   7.6114
     7.7565   7.7565   7.7565   7.7565   7.8458   7.8458   7.8458   7.8458
    12.2048  12.2048  12.2048  12.2048  12.2379  12.2379  12.2379  12.2379
    12.4786  12.4786  12.4786  12.4786  12.6787  12.6787  12.6787  12.6787
    12.8431  12.8431  12.8431  12.8431  12.9747  12.9747  12.9747  12.9747
    17.2197  17.2197  17.2197  17.2197  17.3398  17.3398  17.3398  17.3398
    17.6119  17.6119  17.6120  17.6120  17.6939  17.6939

     the Fermi energy is    10.5344 ev

!    total energy              =   -6260.35273438 Ry
     Harris-Foulkes estimate   =   -6260.35273438 Ry
     estimated scf accuracy    <          1.9E-09 Ry

     The total energy is the sum of the following terms:

     one-electron contribution =   -4663.13423993 Ry
     hartree contribution      =    2574.06448060 Ry
     xc contribution           =    -966.76561751 Ry
     ewald contribution        =   -3204.51733030 Ry
     smearing contrib. (-TS)   =      -0.00002724 Ry

     convergence has been achieved in  13 iterations

     Writing output data file Landau_18.save
 
     init_run     :     36.15s CPU     37.76s WALL (       1 calls)
     electrons    :   1519.20s CPU   1548.98s WALL (       1 calls)

     Called by init_run:
     wfcinit      :     32.79s CPU     34.27s WALL (       1 calls)
     potinit      :      1.35s CPU      1.38s WALL (       1 calls)

     Called by electrons:
     c_bands      :   1333.56s CPU   1361.66s WALL (      13 calls)
     sum_band     :    176.04s CPU    176.82s WALL (      13 calls)
     v_of_rho     :      1.71s CPU      1.73s WALL (      14 calls)
     mix_rho      :      2.21s CPU      2.71s WALL (      13 calls)

     Called by c_bands:
     init_us_2    :      9.12s CPU      9.49s WALL (      54 calls)
     cegterg      :   1059.95s CPU   1087.00s WALL (      26 calls)

     Called by sum_band:

     Called by *egterg:
     h_psi        :    822.18s CPU    825.73s WALL (     112 calls)
     g_psi        :      3.67s CPU      3.68s WALL (      84 calls)
     cdiaghg      :     13.34s CPU     13.37s WALL (     110 calls)

     Called by h_psi:
     h_psi:pot    :    817.18s CPU    820.49s WALL (     112 calls)
     h_psi:calbec :    102.73s CPU    105.09s WALL (     112 calls)
     vloc_psi     :    605.19s CPU    605.84s WALL (     112 calls)
     add_vuspsi   :    109.26s CPU    109.56s WALL (     112 calls)

     General routines
     calbec       :    102.73s CPU    105.09s WALL (     112 calls)
     fft          :      1.03s CPU      1.03s WALL (      56 calls)
     fftw         :    634.29s CPU    634.63s WALL (   33838 calls)
 
     Parallel routines
 
     PWSCF        : 26m 0.65s CPU    26m36.59s WALL

 
   This run was terminated on:  20:57:11  21Mar2020            

=------------------------------------------------------------------------------=
   JOB DONE.
=------------------------------------------------------------------------------=
