
     Program PWSCF v.6.2 (svn rev. 14038) starts on 23Mar2020 at  1: 0:30 

     This program is part of the open-source Quantum ESPRESSO suite
     for quantum simulation of materials; please cite
         "P. Giannozzi et al., J. Phys.:Condens. Matter 21 395502 (2009);
         "P. Giannozzi et al., J. Phys.:Condens. Matter 29 465901 (2017);
          URL http://www.quantum-espresso.org", 
     in publications or presentations arising from this work. More details at
     http://www.quantum-espresso.org/quote

     Parallel version (MPI), running on    40 processors

     MPI processes distributed on     6 nodes
     K-points division:     npool     =      40
     Reading input from rscf.in

     Current dimensions of program PWSCF are:
     Max number of different atomic species (ntypx) = 10
     Max number of k-points (npk) =  40000
     Max angular momentum in pseudopotentials (lmaxx) =  3

     Subspace diagonalization in iterative solution of the eigenvalue problem:
     a serial algorithm will be used

 
     G-vector sticks info
     --------------------
     sticks:   dense  smooth     PW     G-vecs:    dense   smooth      PW
     Sum        7747    7747   2077               498127   498127   69057
 


     bravais-lattice index     =            0
     lattice parameter (alat)  =      13.8397  a.u.
     unit-cell volume          =    2804.9816 (a.u.)^3
     number of atoms/cell      =           32
     number of atomic types    =            2
     number of electrons       =       368.00
     number of Kohn-Sham states=          221
     kinetic-energy cutoff     =     120.0000  Ry
     charge density cutoff     =     480.0000  Ry
     convergence threshold     =      1.0E-08
     mixing beta               =       0.7000
     number of iterations used =            8  plain     mixing
     Exchange-correlation      = SLA PW NOGX NOGC ( 1  4  0  0 0 0)
     nstep                     =           50


     celldm(1)=  13.839685  celldm(2)=   0.000000  celldm(3)=   0.000000
     celldm(4)=   0.000000  celldm(5)=   0.000000  celldm(6)=   0.000000

     crystal axes: (cart. coord. in units of alat)
               a(1) = (   1.000000   0.000000   0.000000 )  
               a(2) = (   0.000000   1.058160   0.000000 )  
               a(3) = (   0.000000   0.000000   1.000000 )  

     reciprocal axes: (cart. coord. in units 2 pi/alat)
               b(1) = (  1.000000  0.000000  0.000000 )  
               b(2) = (  0.000000  0.945037  0.000000 )  
               b(3) = (  0.000000  0.000000  1.000000 )  


     PseudoPot. # 1 for W  read from file:
     /cluster/scratch/mnoe/QE/pps/W_ONCV_LDA-4.0.upf
     MD5 check sum: ba0307d5d4cd419d6f1d13dc49d7c13a
     Pseudo is Norm-conserving + core correction, Zval = 28.0
     Generated using ONCVPSP code by D. R. Hamann
     Using radial grid of 1380 points,  8 beta functions with: 
                l(1) =   0
                l(2) =   0
                l(3) =   1
                l(4) =   1
                l(5) =   2
                l(6) =   2
                l(7) =   3
                l(8) =   3

     PseudoPot. # 2 for O  read from file:
     /cluster/scratch/mnoe/QE/pps/O_ONCV_LDA-3.0.upf
     MD5 check sum: a1bd6164e7280c17a38c229939bfbd54
     Pseudo is Norm-conserving + core correction, Zval =  6.0
     Generated using ONCVPSP code by D. R. Hamann
     Using radial grid of  926 points,  5 beta functions with: 
                l(1) =   0
                l(2) =   0
                l(3) =   1
                l(4) =   1
                l(5) =   2

     atomic species   valence    mass     pseudopotential
        W             28.00   183.84000     W ( 1.00)
        O              6.00    15.99940     O ( 1.00)

      4 Sym. Ops. (no inversion) found ( 3 have fractional translation)



   Cartesian axes

     site n.     atom                  positions (alat units)
         1           W   tau(   1) = (   0.2342264   0.2936875   0.0036798  )
         2           W   tau(   2) = (   0.7545764   0.7644725  -0.0155372  )
         3           W   tau(   3) = (   0.2657736   0.2353925   0.5036798  )
         4           W   tau(   4) = (   0.7454236   0.8227676   0.4844628  )
         5           W   tau(   5) = (   0.7657736   0.2936875   0.4963202  )
         6           W   tau(   6) = (   0.2454236   0.7644725   0.5155372  )
         7           W   tau(   7) = (   0.7342264   0.2353925  -0.0036798  )
         8           W   tau(   8) = (   0.2545764   0.8227676   0.0155372  )
         9           O   tau(   9) = (   0.2294883   0.0075601  -0.0079511  )
        10           O   tau(  10) = (   0.7670313  -0.0075601  -0.0139241  )
        11           O   tau(  11) = (   0.2705116   0.5215199   0.4920488  )
        12           O   tau(  12) = (   0.7329686   0.5366402   0.4860759  )
        13           O   tau(  13) = (   0.7705116   0.0075601   0.5079511  )
        14           O   tau(  14) = (   0.2329686  -0.0075601   0.5139241  )
        15           O   tau(  15) = (   0.7294883   0.5215199   0.0079511  )
        16           O   tau(  16) = (   0.2670313   0.5366402   0.0139241  )
        17           O   tau(  17) = (   0.5052410   0.2415738   0.4600899  )
        18           O   tau(  18) = (   0.4996750   0.8114047   0.5399101  )
        19           O   tau(  19) = (  -0.0052410   0.2875062   0.9600899  )
        20           O   tau(  20) = (   0.0003250   0.7758355   0.0399101  )
        21           O   tau(  21) = (   0.4947590   0.2415738   0.0399101  )
        22           O   tau(  22) = (   0.5003250   0.8114047   0.9600899  )
        23           O   tau(  23) = (   0.0052410   0.2875062   0.5399101  )
        24           O   tau(  24) = (  -0.0003250   0.7758355   0.4600899  )
        25           O   tau(  25) = (   0.7100899   0.2719658   0.7474031  )
        26           O   tau(  26) = (   0.2899101   0.8099387   0.2558401  )
        27           O   tau(  27) = (   0.7899101   0.2571142   0.2474031  )
        28           O   tau(  28) = (   0.2100899   0.7773015   0.7558401  )
        29           O   tau(  29) = (   0.2899101   0.2719658   0.7525969  )
        30           O   tau(  30) = (   0.7100899   0.8099387   0.2441600  )
        31           O   tau(  31) = (   0.2100899   0.2571142   0.2525969  )
        32           O   tau(  32) = (   0.7899101   0.7773015   0.7441599  )

     number of k points=    64  gaussian smearing, width (Ry)=  0.0007
                       cart. coord. in units 2pi/alat
        k(    1) = (   0.0000000   0.0000000   0.0000000), wk =   0.0092593
        k(    2) = (   0.0000000   0.0000000   0.1666667), wk =   0.0185185
        k(    3) = (   0.0000000   0.0000000   0.3333333), wk =   0.0185185
        k(    4) = (   0.0000000   0.0000000  -0.5000000), wk =   0.0092593
        k(    5) = (   0.0000000   0.1575061   0.0000000), wk =   0.0185185
        k(    6) = (   0.0000000   0.1575061   0.1666667), wk =   0.0370370
        k(    7) = (   0.0000000   0.1575061   0.3333333), wk =   0.0370370
        k(    8) = (   0.0000000   0.1575061  -0.5000000), wk =   0.0185185
        k(    9) = (   0.0000000   0.3150122   0.0000000), wk =   0.0185185
        k(   10) = (   0.0000000   0.3150122   0.1666667), wk =   0.0370370
        k(   11) = (   0.0000000   0.3150122   0.3333333), wk =   0.0370370
        k(   12) = (   0.0000000   0.3150122  -0.5000000), wk =   0.0185185
        k(   13) = (   0.0000000  -0.4725183   0.0000000), wk =   0.0092593
        k(   14) = (   0.0000000  -0.4725183   0.1666667), wk =   0.0185185
        k(   15) = (   0.0000000  -0.4725183   0.3333333), wk =   0.0185185
        k(   16) = (   0.0000000  -0.4725183  -0.5000000), wk =   0.0092593
        k(   17) = (   0.1666667   0.0000000   0.1666667), wk =   0.0370370
        k(   18) = (   0.1666667   0.0000000   0.3333333), wk =   0.0370370
        k(   19) = (   0.1666667   0.0000000  -0.5000000), wk =   0.0185185
        k(   20) = (   0.1666667   0.1575061   0.1666667), wk =   0.0740741
        k(   21) = (   0.1666667   0.1575061   0.3333333), wk =   0.0740741
        k(   22) = (   0.1666667   0.1575061  -0.5000000), wk =   0.0370370
        k(   23) = (   0.1666667   0.3150122   0.1666667), wk =   0.0740741
        k(   24) = (   0.1666667   0.3150122   0.3333333), wk =   0.0740741
        k(   25) = (   0.1666667   0.3150122  -0.5000000), wk =   0.0370370
        k(   26) = (   0.1666667  -0.4725183   0.1666667), wk =   0.0370370
        k(   27) = (   0.1666667  -0.4725183   0.3333333), wk =   0.0370370
        k(   28) = (   0.1666667  -0.4725183  -0.5000000), wk =   0.0185185
        k(   29) = (   0.3333333   0.0000000   0.3333333), wk =   0.0370370
        k(   30) = (   0.3333333   0.0000000  -0.5000000), wk =   0.0185185
        k(   31) = (   0.3333333   0.1575061   0.3333333), wk =   0.0740741
        k(   32) = (   0.3333333   0.1575061  -0.5000000), wk =   0.0370370
        k(   33) = (   0.3333333   0.3150122   0.3333333), wk =   0.0740741
        k(   34) = (   0.3333333   0.3150122  -0.5000000), wk =   0.0370370
        k(   35) = (   0.3333333  -0.4725183   0.3333333), wk =   0.0370370
        k(   36) = (   0.3333333  -0.4725183  -0.5000000), wk =   0.0185185
        k(   37) = (  -0.5000000   0.0000000  -0.5000000), wk =   0.0092593
        k(   38) = (  -0.5000000   0.1575061  -0.5000000), wk =   0.0185185
        k(   39) = (  -0.5000000   0.3150122  -0.5000000), wk =   0.0185185
        k(   40) = (  -0.5000000  -0.4725183  -0.5000000), wk =   0.0092593
        k(   41) = (   0.1666667   0.0000000   0.0000000), wk =   0.0185185
        k(   42) = (   0.3333333   0.0000000   0.0000000), wk =   0.0185185
        k(   43) = (  -0.5000000   0.0000000   0.0000000), wk =   0.0092593
        k(   44) = (   0.1666667  -0.1575061   0.0000000), wk =   0.0370370
        k(   45) = (   0.3333333  -0.1575061   0.0000000), wk =   0.0370370
        k(   46) = (  -0.5000000  -0.1575061   0.0000000), wk =   0.0185185
        k(   47) = (   0.1666667  -0.3150122   0.0000000), wk =   0.0370370
        k(   48) = (   0.3333333  -0.3150122   0.0000000), wk =   0.0370370
        k(   49) = (  -0.5000000  -0.3150122   0.0000000), wk =   0.0185185
        k(   50) = (   0.1666667   0.4725183   0.0000000), wk =   0.0185185
        k(   51) = (   0.3333333   0.4725183   0.0000000), wk =   0.0185185
        k(   52) = (  -0.5000000   0.4725183   0.0000000), wk =   0.0092593
        k(   53) = (   0.3333333   0.0000000   0.1666667), wk =   0.0370370
        k(   54) = (  -0.5000000   0.0000000   0.1666667), wk =   0.0185185
        k(   55) = (   0.3333333  -0.1575061   0.1666667), wk =   0.0740741
        k(   56) = (  -0.5000000  -0.1575061   0.1666667), wk =   0.0370370
        k(   57) = (   0.3333333  -0.3150122   0.1666667), wk =   0.0740741
        k(   58) = (  -0.5000000  -0.3150122   0.1666667), wk =   0.0370370
        k(   59) = (   0.3333333   0.4725183   0.1666667), wk =   0.0370370
        k(   60) = (  -0.5000000   0.4725183   0.1666667), wk =   0.0185185
        k(   61) = (  -0.5000000   0.0000000   0.3333333), wk =   0.0185185
        k(   62) = (  -0.5000000  -0.1575061   0.3333333), wk =   0.0370370
        k(   63) = (  -0.5000000  -0.3150122   0.3333333), wk =   0.0370370
        k(   64) = (  -0.5000000   0.4725183   0.3333333), wk =   0.0185185

     Dense  grid:   498127 G-vectors     FFT dimensions: ( 100, 108, 100)

     Estimated max dynamical RAM per process >       3.15 GB

     Estimated total dynamical RAM >     125.81 GB

     Initial potential from superposition of free atoms

     starting charge  367.99656, renormalised to  368.00000
     Starting wfc are  232 randomized atomic wfcs

     total cpu time spent up to now is       65.6 secs

     Self-consistent Calculation

     iteration #  1     ecut=   120.00 Ry     beta= 0.70
     Davidson diagonalization with overlap
     ethr =  1.00E-02,  avg # of iterations =  5.0

     total cpu time spent up to now is      240.3 secs

     total energy              =   -6254.01613833 Ry
     Harris-Foulkes estimate   =   -6264.55929325 Ry
     estimated scf accuracy    <      13.36147482 Ry

     iteration #  2     ecut=   120.00 Ry     beta= 0.70
     Davidson diagonalization with overlap
     ethr =  3.63E-03,  avg # of iterations =  3.5

     total cpu time spent up to now is      404.7 secs

     total energy              =   -6250.88758947 Ry
     Harris-Foulkes estimate   =   -6270.63682498 Ry
     estimated scf accuracy    <      53.00923805 Ry

     iteration #  3     ecut=   120.00 Ry     beta= 0.70
     Davidson diagonalization with overlap
     ethr =  3.63E-03,  avg # of iterations =  3.6

     total cpu time spent up to now is      560.4 secs

     total energy              =   -6261.03733610 Ry
     Harris-Foulkes estimate   =   -6261.41336958 Ry
     estimated scf accuracy    <       1.19168381 Ry

     iteration #  4     ecut=   120.00 Ry     beta= 0.70
     Davidson diagonalization with overlap
     ethr =  3.24E-04,  avg # of iterations =  2.6

     total cpu time spent up to now is      688.8 secs

     total energy              =   -6261.07771235 Ry
     Harris-Foulkes estimate   =   -6261.16492487 Ry
     estimated scf accuracy    <       0.30134742 Ry

     iteration #  5     ecut=   120.00 Ry     beta= 0.70
     Davidson diagonalization with overlap
     ethr =  8.19E-05,  avg # of iterations =  4.7

     total cpu time spent up to now is      823.2 secs

     total energy              =   -6261.06428029 Ry
     Harris-Foulkes estimate   =   -6261.10625982 Ry
     estimated scf accuracy    <       0.09086499 Ry

     iteration #  6     ecut=   120.00 Ry     beta= 0.70
     Davidson diagonalization with overlap
     ethr =  2.47E-05,  avg # of iterations =  6.3

     total cpu time spent up to now is      967.6 secs

     total energy              =   -6261.08499387 Ry
     Harris-Foulkes estimate   =   -6261.08662071 Ry
     estimated scf accuracy    <       0.00554110 Ry

     iteration #  7     ecut=   120.00 Ry     beta= 0.70
     Davidson diagonalization with overlap
     ethr =  1.51E-06,  avg # of iterations =  7.9

     total cpu time spent up to now is     1108.9 secs

     total energy              =   -6261.08507398 Ry
     Harris-Foulkes estimate   =   -6261.08593460 Ry
     estimated scf accuracy    <       0.00292920 Ry

     iteration #  8     ecut=   120.00 Ry     beta= 0.70
     Davidson diagonalization with overlap
     ethr =  7.96E-07,  avg # of iterations =  2.1

     total cpu time spent up to now is     1231.4 secs

     total energy              =   -6261.08536801 Ry
     Harris-Foulkes estimate   =   -6261.08543625 Ry
     estimated scf accuracy    <       0.00016866 Ry

     iteration #  9     ecut=   120.00 Ry     beta= 0.70
     Davidson diagonalization with overlap
     ethr =  4.58E-08,  avg # of iterations =  3.0

     total cpu time spent up to now is     1370.6 secs

     total energy              =   -6261.08540100 Ry
     Harris-Foulkes estimate   =   -6261.08541108 Ry
     estimated scf accuracy    <       0.00002203 Ry

     iteration # 10     ecut=   120.00 Ry     beta= 0.70
     Davidson diagonalization with overlap
     ethr =  5.99E-09,  avg # of iterations =  3.1

     total cpu time spent up to now is     1512.9 secs

     total energy              =   -6261.08540564 Ry
     Harris-Foulkes estimate   =   -6261.08540732 Ry
     estimated scf accuracy    <       0.00000442 Ry

     iteration # 11     ecut=   120.00 Ry     beta= 0.70
     Davidson diagonalization with overlap
     ethr =  1.20E-09,  avg # of iterations =  2.1

     total cpu time spent up to now is     1635.2 secs

     total energy              =   -6261.08540615 Ry
     Harris-Foulkes estimate   =   -6261.08540631 Ry
     estimated scf accuracy    <       0.00000032 Ry

     iteration # 12     ecut=   120.00 Ry     beta= 0.70
     Davidson diagonalization with overlap
     ethr =  8.72E-11,  avg # of iterations =  3.0

     total cpu time spent up to now is     1799.9 secs

     total energy              =   -6261.08540621 Ry
     Harris-Foulkes estimate   =   -6261.08540624 Ry
     estimated scf accuracy    <       0.00000005 Ry

     iteration # 13     ecut=   120.00 Ry     beta= 0.70
     Davidson diagonalization with overlap
     ethr =  1.29E-11,  avg # of iterations =  3.0

     total cpu time spent up to now is     1942.1 secs

     total energy              =   -6261.08540622 Ry
     Harris-Foulkes estimate   =   -6261.08540623 Ry
     estimated scf accuracy    <       0.00000003 Ry

     iteration # 14     ecut=   120.00 Ry     beta= 0.70
     Davidson diagonalization with overlap
     ethr =  8.68E-12,  avg # of iterations =  2.7

     total cpu time spent up to now is     2069.9 secs

     End of self-consistent calculation

          k = 0.0000 0.0000 0.0000 ( 62239 PWs)   bands (ev):

   -66.1608 -66.1598 -66.1598 -66.1596 -66.1588 -66.1586 -66.1585 -66.1575
   -30.5999 -30.5945 -30.5930 -30.5869 -30.5388 -30.5363 -30.5310 -30.5266
   -30.4966 -30.4943 -30.4897 -30.4860 -30.4720 -30.4659 -30.4640 -30.4601
   -30.4356 -30.4299 -30.4285 -30.4234 -30.4151 -30.4106 -30.4103 -30.4060
   -20.3165 -20.3163 -20.3161 -20.3160 -20.3150 -20.3147 -20.3147 -20.3144
   -20.2961 -20.2957 -20.2957 -20.2952 -20.2934 -20.2932 -20.2930 -20.2928
   -20.2925 -20.2925 -20.2924 -20.2921 -20.2907 -20.2903 -20.2899 -20.2891
   -20.2891 -20.2883 -20.2883 -20.2879 -20.2871 -20.2868 -20.2851 -20.2845
   -20.2841 -20.2839 -20.2836 -20.2836 -20.2827 -20.2821 -20.2815 -20.2814
   -20.2807 -20.2789 -20.2772 -20.2772 -20.2758 -20.2753 -20.2748 -20.2746
   -20.2737 -20.2737 -20.2730 -20.2721 -20.2713 -20.2707 -20.2697 -20.2686
   -10.0374  -9.8346  -9.6182  -9.5902  -9.4292  -9.3925  -9.1973  -9.1820
    -8.8451  -8.7432  -8.7406  -8.7404  -7.9051  -7.8761  -7.7840  -7.7818
    -7.7750  -7.7670  -7.6759  -7.6748  -7.6637  -7.6161  -7.6139  -7.5651
     0.9447   0.9582   1.0451   1.0958   1.1235   1.1735   1.3465   1.4253
     1.8054   1.8101   1.8221   1.8997   2.2023   2.2860   2.5812   2.6343
     2.7470   2.7473   4.1136   4.1651   4.2276   4.2981   4.5257   4.5412
     4.5898   4.6071   4.8531   5.0574   5.1521   5.1628   5.1969   5.4580
     5.4827   5.5049   5.5578   5.5579   5.5697   5.6249   5.6582   5.7128
     5.8654   5.8896   5.9409   5.9481   5.9591   5.9938   6.0203   6.0756
     6.1542   6.3036   6.3533   6.3980   6.4495   6.6826   6.8742   6.9717
     6.9869   7.0280   7.0318   7.0362   7.0397   7.0688   7.0712   7.0936
     7.2270   7.2669   7.8688   7.8852   8.0698   8.1113   8.1174   8.1911
     9.3746   9.4014   9.8665   9.8764   9.8825   9.9042  12.2298  12.2968
    12.4073  12.4439  12.4545  12.5019  12.6468  12.6552  12.8037  13.0381
    13.2571  13.3118  13.3167  13.5327  13.6729  13.8180  13.9853  14.1094
    14.3299  14.4475  14.5479  14.8903  15.3291  15.4712  15.4776  16.1816
    16.1838  16.9698  17.1279  17.1534  17.3716

          k = 0.0000 0.0000 0.1667 ( 62262 PWs)   bands (ev):

   -66.1608 -66.1599 -66.1597 -66.1595 -66.1589 -66.1586 -66.1585 -66.1576
   -30.5935 -30.5922 -30.5877 -30.5873 -30.5325 -30.5304 -30.5298 -30.5272
   -30.5029 -30.5003 -30.4892 -30.4870 -30.4714 -30.4671 -30.4635 -30.4616
   -30.4421 -30.4360 -30.4282 -30.4238 -30.4147 -30.4106 -30.4102 -30.4062
   -20.3165 -20.3163 -20.3161 -20.3160 -20.3150 -20.3147 -20.3147 -20.3145
   -20.2961 -20.2957 -20.2957 -20.2953 -20.2934 -20.2932 -20.2930 -20.2928
   -20.2925 -20.2925 -20.2922 -20.2919 -20.2907 -20.2904 -20.2899 -20.2892
   -20.2891 -20.2884 -20.2883 -20.2879 -20.2870 -20.2868 -20.2849 -20.2844
   -20.2839 -20.2837 -20.2836 -20.2836 -20.2824 -20.2815 -20.2815 -20.2814
   -20.2807 -20.2786 -20.2780 -20.2774 -20.2761 -20.2753 -20.2747 -20.2746
   -20.2740 -20.2736 -20.2730 -20.2722 -20.2717 -20.2711 -20.2697 -20.2687
    -9.9838  -9.7772  -9.6046  -9.5322  -9.4049  -9.3371  -9.1566  -9.1407
    -8.8564  -8.7462  -8.7342  -8.7310  -8.0273  -7.9218  -7.9195  -7.8818
    -7.8120  -7.7820  -7.7624  -7.6723  -7.6707  -7.6204  -7.6134  -7.5687
     1.0398   1.0867   1.0965   1.1765   1.3127   1.3915   1.4670   1.5957
     1.7992   1.8137   1.8246   1.9482   2.2923   2.3761   2.6105   2.7049
     2.7381   2.8351   4.0875   4.1172   4.2131   4.2435   4.2658   4.2873
     4.6056   4.6362   4.7108   4.7954   4.9062   5.1510   5.1799   5.2304
     5.3436   5.4351   5.4877   5.5555   5.5732   5.6482   5.6493   5.6758
     5.6917   5.9041   5.9407   5.9420   6.0084   6.0211   6.0359   6.1550
     6.1982   6.3386   6.4361   6.4908   6.6863   6.7796   6.8094   6.8230
     6.9071   6.9216   6.9271   6.9496   7.0093   7.0299   7.0412   7.0591
     7.0643   7.1415   7.8521   7.8609   8.0768   8.0916   8.0999   8.1646
     9.6845   9.7223   9.8662   9.9085  10.1538  10.1888  12.2616  12.2971
    12.3519  12.4350  12.4948  12.5256  12.5504  12.7073  12.8201  12.9414
    13.0784  13.2615  13.3663  13.5179  13.7236  13.8185  13.9183  13.9885
    14.3292  14.5067  14.5422  15.0117  15.2987  15.5284  15.5559  16.1561
    16.5108  16.8704  17.1390  17.3468  17.4610

          k = 0.0000 0.0000 0.3333 ( 62268 PWs)   bands (ev):

   -66.1606 -66.1601 -66.1596 -66.1593 -66.1591 -66.1588 -66.1583 -66.1578
   -30.5914 -30.5883 -30.5744 -30.5692 -30.5305 -30.5294 -30.5193 -30.5183
   -30.5147 -30.5125 -30.4889 -30.4875 -30.4712 -30.4699 -30.4682 -30.4619
   -30.4573 -30.4504 -30.4273 -30.4247 -30.4138 -30.4113 -30.4094 -30.4070
   -20.3164 -20.3162 -20.3162 -20.3161 -20.3149 -20.3148 -20.3146 -20.3145
   -20.2960 -20.2958 -20.2956 -20.2954 -20.2934 -20.2931 -20.2931 -20.2927
   -20.2927 -20.2925 -20.2918 -20.2915 -20.2910 -20.2906 -20.2898 -20.2894
   -20.2890 -20.2885 -20.2883 -20.2880 -20.2870 -20.2868 -20.2845 -20.2842
   -20.2839 -20.2837 -20.2833 -20.2826 -20.2818 -20.2817 -20.2810 -20.2809
   -20.2801 -20.2794 -20.2785 -20.2778 -20.2770 -20.2752 -20.2749 -20.2748
   -20.2742 -20.2733 -20.2728 -20.2726 -20.2722 -20.2719 -20.2695 -20.2689
    -9.8576  -9.6499  -9.6436  -9.4443  -9.3002  -9.0770  -9.0301  -8.9846
    -8.9009  -8.7668  -8.7086  -8.6817  -8.3522  -8.2726  -8.2490  -8.1709
    -7.8537  -7.8013  -7.7431  -7.6899  -7.6624  -7.6319  -7.6051  -7.5787
     1.0956   1.0994   1.1835   1.1846   1.7165   1.7396   1.7866   1.7970
     2.0830   2.1753   2.2620   2.3778   2.5519   2.6230   2.6550   2.7182
     2.9484   3.0645   3.5621   3.6560   3.9146   3.9236   4.1870   4.1949
     4.2578   4.4402   4.4412   4.6405   4.7665   4.8092   4.8270   4.9204
     5.0901   5.1139   5.2061   5.3140   5.3806   5.3990   5.7008   5.7894
     5.8160   5.9077   5.9462   5.9512   6.0521   6.0934   6.1736   6.2043
     6.2757   6.3505   6.3753   6.4583   6.5381   6.6067   6.6763   6.7617
     6.7654   6.9640   6.9660   7.0238   7.0322   7.0342   7.0564   7.0651
     7.2664   7.3336   7.7379   7.7478   7.9427   7.9900   8.1219   8.1410
     9.8488   9.8639  10.4137  10.5028  10.7999  10.8771  11.9182  12.0249
    12.1542  12.4279  12.4644  12.5051  12.6254  12.6763  12.7432  12.8770
    12.8835  13.2727  13.2875  13.3112  13.5635  13.6810  13.8225  13.8706
    14.3991  14.5230  14.7508  15.2016  15.2994  15.7320  16.0286  16.0593
    16.3327  17.3941  17.5253  17.6884  17.7037

          k = 0.0000 0.0000-0.5000 ( 62264 PWs)   bands (ev):

   -66.1603 -66.1603 -66.1593 -66.1593 -66.1591 -66.1590 -66.1581 -66.1581
   -30.5898 -30.5898 -30.5494 -30.5494 -30.5438 -30.5438 -30.5272 -30.5272
   -30.4948 -30.4948 -30.4900 -30.4900 -30.4813 -30.4813 -30.4669 -30.4668
   -30.4589 -30.4589 -30.4260 -30.4260 -30.4126 -30.4126 -30.4082 -30.4082
   -20.3163 -20.3163 -20.3162 -20.3162 -20.3148 -20.3148 -20.3146 -20.3146
   -20.2959 -20.2959 -20.2955 -20.2955 -20.2933 -20.2933 -20.2929 -20.2929
   -20.2926 -20.2926 -20.2913 -20.2913 -20.2910 -20.2910 -20.2896 -20.2896
   -20.2888 -20.2888 -20.2882 -20.2882 -20.2869 -20.2869 -20.2842 -20.2842
   -20.2839 -20.2839 -20.2824 -20.2824 -20.2813 -20.2813 -20.2810 -20.2810
   -20.2800 -20.2800 -20.2784 -20.2784 -20.2763 -20.2763 -20.2750 -20.2750
   -20.2735 -20.2735 -20.2727 -20.2727 -20.2725 -20.2725 -20.2692 -20.2692
    -9.7332  -9.7332  -9.5200  -9.5200  -9.0355  -9.0355  -8.8416  -8.8416
    -8.7121  -8.7121  -8.6885  -8.6885  -8.5881  -8.5881  -8.5211  -8.5211
    -7.8278  -7.8278  -7.7164  -7.7164  -7.6474  -7.6474  -7.5921  -7.5921
     1.1028   1.1028   1.1923   1.1923   1.7719   1.7719   1.7780   1.7780
     2.6639   2.6639   2.8846   2.8846   2.9746   2.9747   3.0752   3.0752
     3.1239   3.1239   3.1816   3.1816   3.3883   3.3883   3.7253   3.7253
     3.8323   3.8323   4.3483   4.3484   4.7094   4.7094   4.9164   4.9164
     5.1166   5.1166   5.1964   5.1964   5.2623   5.2623   5.8022   5.8022
     5.8704   5.8704   6.0102   6.0102   6.0680   6.0680   6.1987   6.1987
     6.2358   6.2358   6.3189   6.3189   6.4742   6.4742   6.6345   6.6345
     6.8224   6.8224   7.0041   7.0041   7.0476   7.0476   7.4474   7.4474
     7.4777   7.4777   7.6772   7.6772   7.7309   7.7309   8.1352   8.1352
     9.8588   9.8588  11.2162  11.2162  11.3231  11.3231  11.5545  11.5545
    11.6935  11.6936  12.5091  12.5092  12.7446  12.7446  12.9327  12.9327
    13.0199  13.0199  13.1982  13.1982  13.3991  13.3991  13.8382  13.8382
    14.4813  14.4813  15.0207  15.0207  15.7210  15.7210  15.9684  15.9684
    16.8247  16.8247  17.9296  17.9298  18.0866

          k = 0.0000 0.1575 0.0000 ( 62231 PWs)   bands (ev):

   -66.1608 -66.1598 -66.1598 -66.1596 -66.1588 -66.1586 -66.1585 -66.1576
   -30.5999 -30.5945 -30.5931 -30.5869 -30.5387 -30.5363 -30.5310 -30.5266
   -30.4962 -30.4937 -30.4891 -30.4860 -30.4682 -30.4626 -30.4609 -30.4572
   -30.4356 -30.4299 -30.4286 -30.4235 -30.4189 -30.4142 -30.4140 -30.4094
   -20.3165 -20.3163 -20.3161 -20.3160 -20.3150 -20.3147 -20.3147 -20.3144
   -20.2961 -20.2957 -20.2957 -20.2952 -20.2934 -20.2931 -20.2929 -20.2928
   -20.2924 -20.2924 -20.2924 -20.2921 -20.2905 -20.2902 -20.2898 -20.2892
   -20.2888 -20.2882 -20.2881 -20.2877 -20.2871 -20.2867 -20.2851 -20.2845
   -20.2844 -20.2841 -20.2839 -20.2838 -20.2828 -20.2821 -20.2815 -20.2815
   -20.2807 -20.2789 -20.2772 -20.2772 -20.2758 -20.2753 -20.2748 -20.2746
   -20.2737 -20.2737 -20.2730 -20.2721 -20.2713 -20.2707 -20.2697 -20.2686
   -10.0183  -9.8440  -9.6037  -9.5742  -9.4318  -9.3956  -9.1963  -9.1827
    -8.7744  -8.6885  -8.6868  -8.6866  -7.9111  -7.8766  -7.7884  -7.7858
    -7.7848  -7.7710  -7.7569  -7.7056  -7.7046  -7.6736  -7.6672  -7.6606
     0.9448   0.9579   1.0453   1.0965   1.1239   1.1744   1.3785   1.4256
     1.9790   2.0364   2.0496   2.1461   2.2091   2.2803   2.6508   2.7091
     2.8149   2.8180   3.9731   4.0149   4.0274   4.0758   4.5265   4.5374
     4.5851   4.6009   4.7216   5.1175   5.1383   5.1550   5.1909   5.3240
     5.3424   5.4667   5.4825   5.6046   5.6148   5.6220   5.6564   5.7272
     5.7390   5.8368   5.8754   5.9683   5.9816   6.0326   6.0679   6.0783
     6.0836   6.2964   6.3538   6.4373   6.5040   6.6900   6.8444   6.8754
     6.8844   6.8954   7.0014   7.0051   7.0336   7.0463   7.0651   7.0953
     7.2294   7.2695   7.8701   7.8842   8.0412   8.0577   8.0799   8.1138
     9.3839   9.4028  10.0584  10.0621  10.0922  10.0936  12.1045  12.1748
    12.2519  12.3356  12.4514  12.4636  12.6493  12.6586  12.8307  13.0562
    13.2640  13.3157  13.3177  13.5581  13.8272  13.8314  13.9529  14.0299
    14.4395  14.6770  14.7317  14.9950  15.4667  15.4755  15.7338  16.1464
    16.1507  16.6832  17.2368  17.2652  17.4359

          k = 0.0000 0.1575 0.1667 ( 62237 PWs)   bands (ev):

   -66.1608 -66.1599 -66.1597 -66.1595 -66.1589 -66.1586 -66.1585 -66.1576
   -30.5934 -30.5922 -30.5877 -30.5872 -30.5324 -30.5305 -30.5298 -30.5272
   -30.5026 -30.5000 -30.4886 -30.4868 -30.4677 -30.4638 -30.4604 -30.4587
   -30.4420 -30.4360 -30.4283 -30.4238 -30.4186 -30.4142 -30.4139 -30.4097
   -20.3165 -20.3163 -20.3161 -20.3160 -20.3150 -20.3147 -20.3147 -20.3145
   -20.2961 -20.2957 -20.2957 -20.2953 -20.2934 -20.2931 -20.2930 -20.2928
   -20.2925 -20.2924 -20.2922 -20.2919 -20.2906 -20.2903 -20.2898 -20.2893
   -20.2888 -20.2882 -20.2882 -20.2877 -20.2870 -20.2868 -20.2849 -20.2846
   -20.2841 -20.2840 -20.2839 -20.2837 -20.2824 -20.2815 -20.2815 -20.2814
   -20.2807 -20.2786 -20.2780 -20.2774 -20.2761 -20.2753 -20.2747 -20.2746
   -20.2740 -20.2736 -20.2730 -20.2722 -20.2717 -20.2711 -20.2697 -20.2687
    -9.9640  -9.7866  -9.5882  -9.5157  -9.4083  -9.3397  -9.1557  -9.1413
    -8.7857  -8.6931  -8.6812  -8.6782  -8.0286  -7.9247  -7.9212  -7.8864
    -7.8141  -7.7916  -7.7694  -7.7513  -7.7089  -7.7082  -7.6679  -7.6667
     1.0401   1.0865   1.0976   1.1777   1.3156   1.3946   1.5195   1.5976
     1.9821   2.0362   2.0465   2.1607   2.2988   2.3704   2.6802   2.7807
     2.8068   2.9061   3.9862   3.9913   4.0634   4.0699   4.2103   4.2376
     4.5969   4.6224   4.6721   4.7810   4.8791   5.1421   5.1664   5.1910
     5.2833   5.3227   5.4131   5.4431   5.5315   5.5647   5.6516   5.7079
     5.7849   5.8070   5.8651   5.9699   6.0122   6.0203   6.0528   6.0809
     6.2257   6.2664   6.4668   6.4996   6.7180   6.7384   6.7845   6.8406
     6.8617   6.8882   6.9097   6.9477   6.9569   7.0024   7.0332   7.0520
     7.0614   7.1532   7.8521   7.8611   8.0408   8.0479   8.0497   8.0927
     9.7072   9.7332  10.0637  10.0977  10.3039  10.3414  12.1563  12.1776
    12.2847  12.3515  12.3674  12.5215  12.5246  12.7045  12.8495  12.9736
    13.0856  13.2668  13.3581  13.5171  13.7887  13.8321  13.8721  13.9432
    14.4827  14.7200  14.7968  15.1065  15.5251  15.5561  15.7054  16.1219
    16.4758  16.8366  16.9748  17.4325  17.5205

          k = 0.0000 0.1575 0.3333 ( 62284 PWs)   bands (ev):

   -66.1606 -66.1601 -66.1595 -66.1593 -66.1591 -66.1588 -66.1583 -66.1578
   -30.5914 -30.5883 -30.5744 -30.5691 -30.5305 -30.5294 -30.5192 -30.5181
   -30.5147 -30.5125 -30.4887 -30.4869 -30.4689 -30.4663 -30.4661 -30.4590
   -30.4560 -30.4494 -30.4273 -30.4248 -30.4176 -30.4151 -30.4130 -30.4106
   -20.3164 -20.3163 -20.3162 -20.3161 -20.3149 -20.3148 -20.3146 -20.3145
   -20.2960 -20.2958 -20.2956 -20.2954 -20.2934 -20.2931 -20.2930 -20.2927
   -20.2927 -20.2925 -20.2917 -20.2915 -20.2908 -20.2906 -20.2897 -20.2894
   -20.2887 -20.2883 -20.2881 -20.2879 -20.2870 -20.2868 -20.2847 -20.2844
   -20.2842 -20.2840 -20.2834 -20.2826 -20.2818 -20.2817 -20.2810 -20.2809
   -20.2801 -20.2795 -20.2785 -20.2778 -20.2770 -20.2752 -20.2749 -20.2748
   -20.2742 -20.2733 -20.2728 -20.2726 -20.2722 -20.2719 -20.2695 -20.2689
    -9.8372  -9.6521  -9.6324  -9.4486  -9.2753  -9.0792  -9.0285  -8.9837
    -8.8327  -8.7168  -8.6598  -8.6376  -8.3522  -8.2748  -8.2487  -8.1708
    -7.8584  -7.8094  -7.7563  -7.7360  -7.7207  -7.7019  -7.6863  -7.6763
     1.0971   1.1007   1.1852   1.1864   1.8916   1.9104   2.0009   2.0298
     2.0947   2.2123   2.2649   2.4191   2.5591   2.6283   2.7116   2.7877
     3.0245   3.1306   3.5635   3.6514   3.8719   3.8934   4.0795   4.0899
     4.2427   4.3354   4.4533   4.5882   4.6644   4.6996   4.7581   4.8974
     5.0203   5.0700   5.1758   5.2380   5.3343   5.4080   5.4425   5.7455
     5.7926   5.8603   5.9073   5.9113   5.9961   6.0270   6.1104   6.1606
     6.2870   6.3342   6.4512   6.5114   6.5456   6.6885   6.7195   6.7897
     6.8325   6.8901   6.9316   6.9452   7.0061   7.0220   7.0608   7.1222
     7.2743   7.3352   7.7424   7.7454   7.9153   7.9450   8.0663   8.0792
    10.0538  10.0667  10.4239  10.5112  10.9032  10.9657  11.9148  12.0195
    12.1225  12.3108  12.4060  12.4693  12.5350  12.6176  12.7173  12.8577
    12.9070  13.2562  13.2860  13.2912  13.4721  13.6375  13.8369  13.8940
    14.6027  14.7074  15.0994  15.3712  15.6076  15.7272  16.0375  16.0553
    16.4221  17.2914  17.3480  17.5866  17.7732

          k = 0.0000 0.1575-0.5000 ( 62234 PWs)   bands (ev):

   -66.1603 -66.1603 -66.1593 -66.1593 -66.1591 -66.1591 -66.1581 -66.1581
   -30.5898 -30.5898 -30.5494 -30.5494 -30.5437 -30.5437 -30.5272 -30.5272
   -30.4948 -30.4948 -30.4897 -30.4897 -30.4803 -30.4803 -30.4636 -30.4636
   -30.4563 -30.4563 -30.4261 -30.4261 -30.4163 -30.4163 -30.4118 -30.4118
   -20.3163 -20.3163 -20.3162 -20.3162 -20.3148 -20.3148 -20.3146 -20.3146
   -20.2959 -20.2959 -20.2955 -20.2955 -20.2933 -20.2932 -20.2929 -20.2929
   -20.2926 -20.2926 -20.2912 -20.2912 -20.2910 -20.2910 -20.2896 -20.2896
   -20.2885 -20.2885 -20.2880 -20.2880 -20.2869 -20.2869 -20.2845 -20.2845
   -20.2842 -20.2842 -20.2824 -20.2824 -20.2813 -20.2813 -20.2811 -20.2810
   -20.2800 -20.2800 -20.2784 -20.2784 -20.2763 -20.2763 -20.2750 -20.2750
   -20.2735 -20.2735 -20.2727 -20.2727 -20.2725 -20.2725 -20.2692 -20.2692
    -9.7140  -9.7140  -9.5261  -9.5261  -8.9858  -8.9858  -8.8168  -8.8168
    -8.7081  -8.7081  -8.6900  -8.6900  -8.5670  -8.5670  -8.5024  -8.5024
    -7.8342  -7.8342  -7.7382  -7.7382  -7.7119  -7.7119  -7.6892  -7.6892
     1.1044   1.1044   1.1944   1.1944   1.9588   1.9588   2.0286   2.0286
     2.7287   2.7287   2.8920   2.8920   2.9731   2.9731   3.0844   3.0845
     3.1249   3.1249   3.2064   3.2064   3.3890   3.3890   3.7469   3.7469
     3.8883   3.8883   4.1807   4.1807   4.5487   4.5487   4.7691   4.7691
     5.0979   5.0979   5.1756   5.1757   5.2418   5.2418   5.5558   5.5558
     5.8260   5.8260   5.9565   5.9565   6.0354   6.0354   6.1451   6.1451
     6.2772   6.2772   6.3827   6.3827   6.4764   6.4764   6.7826   6.7826
     6.8841   6.8841   6.9142   6.9142   7.0067   7.0067   7.4613   7.4613
     7.4739   7.4739   7.6658   7.6658   7.7082   7.7082   8.0756   8.0756
    10.0663  10.0664  11.2212  11.2212  11.3262  11.3262  11.6150  11.6150
    11.7470  11.7470  12.3603  12.3603  12.7286  12.7286  12.8520  12.8520
    13.0210  13.0210  13.1203  13.1203  13.3833  13.3833  13.8522  13.8522
    14.6761  14.6761  15.3925  15.3925  15.8037  15.8037  15.9665  15.9665
    16.8704  16.8704  17.7287  17.7287  18.1048

          k = 0.0000 0.3150 0.0000 ( 62175 PWs)   bands (ev):

   -66.1608 -66.1598 -66.1598 -66.1596 -66.1588 -66.1586 -66.1586 -66.1576
   -30.5998 -30.5945 -30.5931 -30.5868 -30.5387 -30.5363 -30.5310 -30.5266
   -30.4956 -30.4928 -30.4881 -30.4859 -30.4579 -30.4536 -30.4520 -30.4488
   -30.4357 -30.4306 -30.4295 -30.4294 -30.4239 -30.4235 -30.4232 -30.4181
   -20.3165 -20.3163 -20.3161 -20.3160 -20.3150 -20.3147 -20.3147 -20.3144
   -20.2961 -20.2957 -20.2956 -20.2952 -20.2934 -20.2929 -20.2929 -20.2928
   -20.2924 -20.2924 -20.2923 -20.2923 -20.2902 -20.2902 -20.2897 -20.2893
   -20.2881 -20.2877 -20.2875 -20.2872 -20.2870 -20.2867 -20.2853 -20.2851
   -20.2850 -20.2848 -20.2846 -20.2843 -20.2828 -20.2821 -20.2815 -20.2815
   -20.2807 -20.2789 -20.2772 -20.2772 -20.2758 -20.2753 -20.2748 -20.2746
   -20.2737 -20.2737 -20.2730 -20.2721 -20.2714 -20.2707 -20.2697 -20.2686
    -9.9710  -9.8719  -9.5746  -9.5418  -9.4382  -9.4032  -9.1938  -9.1848
    -8.5772  -8.5253  -8.5240  -8.5230  -8.0319  -7.9746  -7.9680  -7.9313
    -7.8813  -7.8659  -7.7841  -7.7702  -7.7692  -7.7588  -7.6754  -7.6632
     0.9448   0.9572   1.0455   1.0972   1.1242   1.1755   1.4073   1.4267
     2.2221   2.2643   2.5169   2.6383   2.6644   2.7798   2.8538   2.9644
     3.0192   3.0429   3.5982   3.6405   3.6571   3.6998   4.1928   4.4982
     4.5220   4.5518   4.5627   4.6258   4.6578   4.8675   5.2383   5.2527
     5.2755   5.3022   5.4186   5.4223   5.6426   5.6769   5.6885   5.7032
     5.7742   5.8299   5.8641   6.0052   6.0112   6.0144   6.0306   6.0690
     6.1217   6.2123   6.2895   6.4761   6.4846   6.5198   6.7359   6.7527
     6.7938   6.8795   7.0525   7.0830   7.1753   7.1754   7.1811   7.1898
     7.2453   7.2831   7.8318   7.8672   7.8900   7.9030   7.9079   7.9090
     9.3950   9.4039  10.5321  10.5656  10.5892  10.6264  11.7221  11.7868
    11.8267  11.8988  12.4644  12.4762  12.6564  12.6666  12.9062  13.0730
    13.3283  13.3505  13.3814  13.5750  13.6962  13.7693  13.7763  13.8615
    15.0234  15.2490  15.2660  15.4164  15.4616  15.4995  16.0230  16.0372
    16.1504  16.7175  17.0966  17.6227  17.6571

          k = 0.0000 0.3150 0.1667 ( 62260 PWs)   bands (ev):

   -66.1607 -66.1599 -66.1597 -66.1595 -66.1589 -66.1586 -66.1585 -66.1576
   -30.5932 -30.5924 -30.5877 -30.5872 -30.5323 -30.5306 -30.5298 -30.5272
   -30.5022 -30.4995 -30.4876 -30.4865 -30.4574 -30.4551 -30.4516 -30.4510
   -30.4412 -30.4357 -30.4292 -30.4290 -30.4244 -30.4238 -30.4230 -30.4187
   -20.3165 -20.3163 -20.3161 -20.3160 -20.3150 -20.3147 -20.3147 -20.3145
   -20.2961 -20.2957 -20.2957 -20.2953 -20.2934 -20.2930 -20.2929 -20.2927
   -20.2925 -20.2924 -20.2921 -20.2920 -20.2903 -20.2903 -20.2897 -20.2894
   -20.2881 -20.2877 -20.2876 -20.2872 -20.2870 -20.2867 -20.2854 -20.2852
   -20.2848 -20.2847 -20.2845 -20.2839 -20.2825 -20.2816 -20.2816 -20.2814
   -20.2808 -20.2786 -20.2780 -20.2774 -20.2761 -20.2753 -20.2747 -20.2746
   -20.2740 -20.2736 -20.2730 -20.2721 -20.2717 -20.2711 -20.2697 -20.2687
    -9.9156  -9.8146  -9.5549  -9.4830  -9.4166  -9.3461  -9.1535  -9.1431
    -8.5877  -8.5326  -8.5216  -8.5170  -8.0602  -8.0103  -7.9760  -7.9722
    -7.9499  -7.9043  -7.8898  -7.8588  -7.8039  -7.7658  -7.7629  -7.6703
     1.0403   1.0862   1.0985   1.1790   1.3181   1.3974   1.5613   1.6028
     2.3115   2.3542   2.5219   2.6208   2.6596   2.7714   2.8860   3.0043
     3.0399   3.1356   3.6395   3.6506   3.6916   3.7055   4.1583   4.2038
     4.2429   4.5367   4.5604   4.5983   4.6755   4.8689   4.8968   5.0051
     5.1497   5.2677   5.3029   5.3320   5.4276   5.4538   5.6326   5.6645
     5.7443   5.7677   5.8273   5.8759   5.9984   6.0146   6.0271   6.0919
     6.1949   6.2944   6.4045   6.5000   6.5559   6.7249   6.7614   6.8721
     6.8932   6.8993   6.9339   6.9416   7.0060   7.0662   7.1740   7.2003
     7.2138   7.2361   7.8186   7.8504   7.8787   7.8810   7.8865   7.9048
     9.7196   9.7454  10.5697  10.6107  10.7140  10.7772  11.7848  11.8103
    11.8643  11.9494  12.3560  12.5232  12.5305  12.7097  12.9328  13.0414
    13.1668  13.3217  13.3286  13.4770  13.6066  13.6953  13.7449  13.8362
    15.1109  15.2483  15.4266  15.4943  15.5587  15.5898  16.0016  16.3099
    16.3517  16.6869  17.1652  17.3166  17.6995

          k = 0.0000 0.3150 0.3333 ( 62269 PWs)   bands (ev):

   -66.1606 -66.1601 -66.1595 -66.1593 -66.1590 -66.1588 -66.1583 -66.1578
   -30.5914 -30.5883 -30.5744 -30.5691 -30.5304 -30.5294 -30.5190 -30.5179
   -30.5147 -30.5124 -30.4883 -30.4858 -30.4656 -30.4614 -30.4561 -30.4504
   -30.4501 -30.4446 -30.4283 -30.4279 -30.4255 -30.4248 -30.4222 -30.4197
   -20.3164 -20.3162 -20.3162 -20.3161 -20.3149 -20.3148 -20.3146 -20.3145
   -20.2960 -20.2958 -20.2956 -20.2954 -20.2933 -20.2931 -20.2929 -20.2927
   -20.2926 -20.2924 -20.2916 -20.2915 -20.2906 -20.2905 -20.2896 -20.2895
   -20.2880 -20.2877 -20.2876 -20.2874 -20.2869 -20.2867 -20.2853 -20.2851
   -20.2850 -20.2848 -20.2835 -20.2827 -20.2819 -20.2818 -20.2810 -20.2809
   -20.2801 -20.2795 -20.2786 -20.2778 -20.2770 -20.2752 -20.2749 -20.2748
   -20.2742 -20.2733 -20.2728 -20.2726 -20.2722 -20.2719 -20.2695 -20.2689
    -9.7891  -9.6768  -9.5959  -9.4595  -9.2260  -9.0851  -9.0259  -8.9824
    -8.6449  -8.5708  -8.5098  -8.4938  -8.3538  -8.2899  -8.2456  -8.1692
    -7.9980  -7.9738  -7.9458  -7.9166  -7.8384  -7.7852  -7.7433  -7.6897
     1.0984   1.1018   1.1869   1.1880   2.0390   2.1156   2.1816   2.2709
     2.5324   2.5712   2.6069   2.6143   2.6673   2.7839   2.9194   2.9911
     3.2581   3.3319   3.5456   3.6212   3.6748   3.6873   3.7438   3.8009
     4.1251   4.2945   4.3842   4.4334   4.4757   4.5513   4.6010   4.6569
     4.8005   4.9103   4.9397   5.0462   5.2162   5.2956   5.3125   5.3295
     5.4463   5.5245   5.7748   5.9091   6.0135   6.0679   6.1240   6.1969
     6.3093   6.4132   6.4909   6.5437   6.5725   6.6404   6.7067   6.7535
     6.8821   6.9645   7.0479   7.0543   7.1211   7.1621   7.1870   7.2557
     7.3045   7.3573   7.7233   7.7487   7.7915   7.7987   7.8792   7.8951
    10.4088  10.4666  10.5831  10.6520  11.1949  11.2540  11.7629  11.8748
    11.9542  12.0568  12.1085  12.1942  12.5921  12.6297  12.7046  12.8512
    12.9623  13.0691  13.2453  13.2834  13.3392  13.5929  13.6966  13.7720
    15.1842  15.2360  15.6180  15.7961  15.9108  15.9678  16.1641  16.5790
    16.7323  16.8185  17.1766  17.4440  17.7471

          k = 0.0000 0.3150-0.5000 ( 62306 PWs)   bands (ev):

   -66.1603 -66.1603 -66.1593 -66.1593 -66.1591 -66.1591 -66.1581 -66.1581
   -30.5898 -30.5898 -30.5493 -30.5493 -30.5436 -30.5436 -30.5272 -30.5272
   -30.4947 -30.4947 -30.4892 -30.4892 -30.4788 -30.4787 -30.4541 -30.4541
   -30.4482 -30.4482 -30.4273 -30.4273 -30.4261 -30.4260 -30.4210 -30.4210
   -20.3163 -20.3163 -20.3162 -20.3162 -20.3148 -20.3148 -20.3146 -20.3146
   -20.2959 -20.2959 -20.2955 -20.2955 -20.2932 -20.2932 -20.2928 -20.2928
   -20.2925 -20.2925 -20.2911 -20.2911 -20.2910 -20.2910 -20.2896 -20.2896
   -20.2879 -20.2879 -20.2875 -20.2875 -20.2868 -20.2868 -20.2852 -20.2852
   -20.2850 -20.2850 -20.2824 -20.2824 -20.2813 -20.2813 -20.2811 -20.2811
   -20.2800 -20.2800 -20.2784 -20.2784 -20.2763 -20.2763 -20.2750 -20.2750
   -20.2735 -20.2735 -20.2727 -20.2727 -20.2725 -20.2725 -20.2692 -20.2692
    -9.6717  -9.6717  -9.5427  -9.5427  -8.8763  -8.8763  -8.7749  -8.7749
    -8.7041  -8.7040  -8.6901  -8.6901  -8.4686  -8.4686  -8.4210  -8.4210
    -7.9881  -7.9881  -7.9346  -7.9346  -7.8118  -7.8118  -7.7164  -7.7164
     1.1058   1.1059   1.1965   1.1965   2.5066   2.5066   2.6324   2.6324
     2.8948   2.8948   2.9173   2.9173   2.9840   2.9840   3.1112   3.1112
     3.1310   3.1310   3.2661   3.2661   3.3957   3.3957   3.6563   3.6563
     4.0107   4.0107   4.0456   4.0456   4.1579   4.1579   4.3565   4.3565
     4.8953   4.8953   5.0349   5.0349   5.1183   5.1183   5.2150   5.2150
     5.3874   5.3874   5.8511   5.8511   6.1237   6.1237   6.1549   6.1549
     6.3481   6.3481   6.4607   6.4607   6.4836   6.4836   6.6784   6.6784
     7.0996   7.0996   7.1148   7.1148   7.1450   7.1450   7.4572   7.4572
     7.4910   7.4910   7.6042   7.6042   7.6296   7.6296   7.8864   7.8864
    10.5814  10.5814  11.2302  11.2302  11.3315  11.3315  11.7093  11.7094
    11.9219  11.9219  12.0485  12.0485  12.5560  12.5560  12.6025  12.6025
    12.9721  12.9721  13.0718  13.0718  13.4038  13.4038  13.7133  13.7133
    15.2148  15.2148  15.8006  15.8006  16.1968  16.1968  16.3681  16.3681
    17.0277  17.0277  17.3317  17.3317  17.9852

          k = 0.0000-0.4725 0.0000 ( 62212 PWs)   bands (ev):

   -66.1608 -66.1598 -66.1598 -66.1596 -66.1588 -66.1586 -66.1586 -66.1576
   -30.5998 -30.5945 -30.5931 -30.5868 -30.5387 -30.5363 -30.5311 -30.5266
   -30.4954 -30.4924 -30.4877 -30.4859 -30.4449 -30.4444 -30.4430 -30.4405
   -30.4403 -30.4375 -30.4364 -30.4336 -30.4322 -30.4272 -30.4250 -30.4227
   -20.3165 -20.3163 -20.3161 -20.3160 -20.3150 -20.3147 -20.3147 -20.3144
   -20.2961 -20.2957 -20.2956 -20.2952 -20.2933 -20.2929 -20.2928 -20.2927
   -20.2925 -20.2924 -20.2923 -20.2922 -20.2902 -20.2900 -20.2896 -20.2895
   -20.2875 -20.2871 -20.2871 -20.2869 -20.2867 -20.2865 -20.2860 -20.2856
   -20.2855 -20.2852 -20.2851 -20.2843 -20.2828 -20.2821 -20.2815 -20.2815
   -20.2807 -20.2789 -20.2772 -20.2772 -20.2758 -20.2753 -20.2748 -20.2746
   -20.2737 -20.2737 -20.2730 -20.2721 -20.2714 -20.2707 -20.2697 -20.2687
    -9.9194  -9.9139  -9.5597  -9.5251  -9.4422  -9.4082  -9.1919  -9.1866
    -8.3087  -8.3073  -8.2707  -8.2668  -8.2653  -8.2627  -8.2530  -8.2519
    -7.8847  -7.8715  -7.7842  -7.7720  -7.7704  -7.7609  -7.6758  -7.6639
     0.9448   0.9568   1.0455   1.0974   1.1243   1.1758   1.4140   1.4277
     2.2427   2.2438   3.0557   3.0771   3.1362   3.1602   3.2361   3.2647
     3.3269   3.3605   3.4230   3.4283   3.5893   3.6062   3.7208   3.7330
     3.8370   3.8393   4.5367   4.5427   4.5817   4.5911   5.3176   5.3457
     5.3556   5.3802   5.4680   5.4807   5.5175   5.5205   5.7882   5.7960
     5.8034   5.8224   5.8475   5.8653   6.0023   6.0023   6.0504   6.0514
     6.1322   6.1899   6.2456   6.2721   6.5221   6.5379   6.6331   6.6507
     6.8332   6.8356   7.0576   7.0891   7.2269   7.2613   7.4888   7.4932
     7.5452   7.5532   7.5750   7.5795   7.6111   7.6234   7.8843   7.8878
     9.3996   9.4033  11.0861  11.1434  11.1584  11.2054  11.2073  11.2587
    11.3059  11.3488  12.4692  12.4813  12.6597  12.6706  13.0030  13.0168
    13.4646  13.4801  13.4903  13.5005  13.5404  13.5483  13.7209  13.7423
    15.4011  15.4530  15.5957  15.6478  15.6734  15.6956  15.8146  15.8376
    16.3195  16.3201  17.8911  17.8922  17.9532

          k = 0.0000-0.4725 0.1667 ( 62246 PWs)   bands (ev):

   -66.1607 -66.1599 -66.1597 -66.1595 -66.1588 -66.1586 -66.1585 -66.1576
   -30.5930 -30.5926 -30.5877 -30.5872 -30.5323 -30.5306 -30.5298 -30.5272
   -30.5020 -30.4992 -30.4872 -30.4864 -30.4485 -30.4449 -30.4440 -30.4426
   -30.4401 -30.4372 -30.4369 -30.4349 -30.4342 -30.4281 -30.4269 -30.4230
   -20.3165 -20.3163 -20.3161 -20.3160 -20.3150 -20.3147 -20.3147 -20.3145
   -20.2961 -20.2957 -20.2957 -20.2953 -20.2934 -20.2930 -20.2929 -20.2926
   -20.2925 -20.2923 -20.2922 -20.2920 -20.2903 -20.2901 -20.2896 -20.2895
   -20.2876 -20.2872 -20.2872 -20.2868 -20.2868 -20.2864 -20.2860 -20.2857
   -20.2855 -20.2853 -20.2846 -20.2839 -20.2825 -20.2816 -20.2816 -20.2814
   -20.2808 -20.2786 -20.2780 -20.2774 -20.2761 -20.2753 -20.2747 -20.2746
   -20.2740 -20.2736 -20.2730 -20.2721 -20.2717 -20.2711 -20.2697 -20.2687
    -9.8645  -9.8555  -9.5375  -9.4664  -9.4221  -9.3503  -9.1520  -9.1444
    -8.3148  -8.3117  -8.2801  -8.2794  -8.2651  -8.2599  -8.2591  -8.2559
    -8.0094  -7.9136  -7.9059  -7.8664  -7.8077  -7.7680  -7.7637  -7.6710
     1.0402   1.0860   1.0988   1.1794   1.3186   1.3981   1.5692   1.6056
     2.3321   2.3343   3.0746   3.0805   3.1689   3.1819   3.2621   3.2763
     3.3536   3.3820   3.4216   3.4223   3.5902   3.6463   3.7205   3.7531
     3.8578   3.8611   4.2185   4.2195   4.6012   4.6124   5.0260   5.0813
     5.2221   5.2426   5.3054   5.3266   5.4848   5.5113   5.5257   5.5377
     5.7417   5.7419   5.7645   5.8093   5.9001   6.0283   6.0565   6.1054
     6.2323   6.3309   6.3498   6.4100   6.5210   6.6323   6.7763   6.8953
     6.8986   6.9062   6.9457   6.9483   7.0083   7.0988   7.4822   7.4997
     7.5349   7.5490   7.5743   7.5836   7.6028   7.6143   7.8660   7.8676
     9.7226   9.7489  11.1448  11.2045  11.2057  11.2584  11.2785  11.3291
    11.3598  11.4248  12.3583  12.5250  12.5345  12.7133  13.0373  13.0419
    13.3221  13.3505  13.3632  13.3873  13.4798  13.4886  13.7146  13.7432
    15.3960  15.5050  15.6609  15.7535  15.7941  15.8638  15.9875  16.1022
    16.3843  16.3946  17.7542  17.8458  17.8709

          k = 0.0000-0.4725 0.3333 ( 62268 PWs)   bands (ev):

   -66.1606 -66.1601 -66.1595 -66.1593 -66.1590 -66.1588 -66.1583 -66.1578
   -30.5913 -30.5883 -30.5744 -30.5691 -30.5304 -30.5294 -30.5190 -30.5178
   -30.5146 -30.5124 -30.4882 -30.4853 -30.4646 -30.4593 -30.4429 -30.4415
   -30.4391 -30.4387 -30.4383 -30.4360 -30.4356 -30.4320 -30.4260 -30.4237
   -20.3164 -20.3163 -20.3162 -20.3161 -20.3149 -20.3148 -20.3146 -20.3145
   -20.2960 -20.2958 -20.2956 -20.2954 -20.2933 -20.2931 -20.2929 -20.2926
   -20.2926 -20.2924 -20.2916 -20.2915 -20.2906 -20.2904 -20.2896 -20.2895
   -20.2875 -20.2873 -20.2873 -20.2870 -20.2866 -20.2864 -20.2860 -20.2857
   -20.2857 -20.2854 -20.2836 -20.2827 -20.2819 -20.2818 -20.2810 -20.2810
   -20.2802 -20.2795 -20.2786 -20.2778 -20.2770 -20.2752 -20.2749 -20.2748
   -20.2742 -20.2733 -20.2728 -20.2726 -20.2723 -20.2719 -20.2695 -20.2689
    -9.7519  -9.7023  -9.5760  -9.4670  -9.2015  -9.0895  -9.0247  -8.9819
    -8.4421  -8.4032  -8.3831  -8.3648  -8.2737  -8.2685  -8.2517  -8.2482
    -8.2103  -8.1718  -8.1502  -8.0968  -7.8415  -7.7877  -7.7441  -7.6904
     1.0987   1.1021   1.1875   1.1885   2.0490   2.1224   2.2197   2.2776
     2.5929   2.5931   3.0704   3.1059   3.2118   3.2491   3.3035   3.3168
     3.3262   3.3842   3.4260   3.5000   3.5619   3.6376   3.6469   3.6993
     3.7791   3.8229   3.8836   3.9052   4.4295   4.4303   4.5611   4.6313
     4.7355   4.7860   4.8552   4.8853   5.0555   5.1149   5.2858   5.2934
     5.5277   5.5897   5.6702   5.7483   6.0096   6.0902   6.1363   6.2239
     6.3206   6.4449   6.4777   6.5330   6.5775   6.5781   6.6125   6.7722
     6.9372   6.9781   7.1250   7.1533   7.2262   7.2341   7.4471   7.5009
     7.5159   7.5474   7.5531   7.5801   7.5885   7.6031   7.7614   7.7746
    10.4290  10.4917  11.1557  11.1961  11.2701  11.3089  11.6055  11.6617
    11.6851  11.7717  11.9454  12.0676  12.6995  12.7765  12.7902  12.8126
    12.8661  12.8893  13.1705  13.2416  13.4843  13.4898  13.6274  13.6419
    15.4454  15.5891  15.6203  15.7602  16.3082  16.4081  16.6598  16.6729
    16.7279  16.7749  17.2754  17.3172  17.7399

          k = 0.0000-0.4725-0.5000 ( 62284 PWs)   bands (ev):

   -66.1603 -66.1603 -66.1593 -66.1593 -66.1591 -66.1591 -66.1581 -66.1581
   -30.5898 -30.5898 -30.5493 -30.5493 -30.5436 -30.5436 -30.5272 -30.5272
   -30.4947 -30.4947 -30.4890 -30.4890 -30.4781 -30.4781 -30.4412 -30.4412
   -30.4399 -30.4399 -30.4374 -30.4374 -30.4343 -30.4343 -30.4249 -30.4249
   -20.3163 -20.3163 -20.3162 -20.3162 -20.3148 -20.3148 -20.3146 -20.3146
   -20.2959 -20.2959 -20.2955 -20.2955 -20.2932 -20.2932 -20.2928 -20.2928
   -20.2925 -20.2925 -20.2911 -20.2911 -20.2909 -20.2909 -20.2896 -20.2896
   -20.2875 -20.2874 -20.2872 -20.2872 -20.2865 -20.2865 -20.2858 -20.2858
   -20.2856 -20.2856 -20.2825 -20.2825 -20.2813 -20.2813 -20.2812 -20.2812
   -20.2801 -20.2800 -20.2784 -20.2784 -20.2763 -20.2763 -20.2750 -20.2750
   -20.2735 -20.2735 -20.2727 -20.2727 -20.2725 -20.2725 -20.2692 -20.2692
    -9.6459  -9.6459  -9.5559  -9.5559  -8.8183  -8.8183  -8.7563  -8.7563
    -8.7123  -8.7123  -8.6858  -8.6858  -8.2691  -8.2691  -8.2455  -8.2455
    -8.2309  -8.2309  -8.2053  -8.2053  -7.8146  -7.8146  -7.7171  -7.7171
     1.1062   1.1062   1.1971   1.1971   2.8767   2.8767   2.9217   2.9217
     2.9916   2.9916   3.0625   3.0625   3.1285   3.1285   3.2080   3.2080
     3.2806   3.2806   3.3473   3.3473   3.4010   3.4010   3.5147   3.5147
     3.6207   3.6207   3.7696   3.7696   4.3117   4.3117   4.3670   4.3670
     4.4132   4.4132   4.4803   4.4803   5.1039   5.1039   5.1620   5.1620
     5.5725   5.5725   5.6585   5.6585   6.1509   6.1509   6.1604   6.1604
     6.3701   6.3701   6.4756   6.4756   6.5065   6.5065   6.5708   6.5708
     7.2811   7.2811   7.3201   7.3201   7.3323   7.3323   7.4205   7.4205
     7.5093   7.5093   7.5399   7.5399   7.5834   7.5834   7.6503   7.6503
    11.1067  11.1067  11.2103  11.2103  11.3204  11.3204  11.3976  11.3976
    12.1640  12.1640  12.1719  12.1719  12.2775  12.2775  12.3108  12.3108
    12.9663  12.9663  13.0710  13.0711  13.5169  13.5169  13.5241  13.5241
    15.5413  15.5413  15.6891  15.6891  16.8004  16.8004  16.8181  16.8181
    17.3535  17.3536  17.4191  17.4240  17.4502

          k = 0.1667 0.0000 0.1667 ( 62234 PWs)   bands (ev):

   -66.1607 -66.1598 -66.1598 -66.1594 -66.1590 -66.1586 -66.1585 -66.1577
   -30.5928 -30.5881 -30.5859 -30.5805 -30.5319 -30.5304 -30.5240 -30.5210
   -30.5022 -30.5009 -30.4950 -30.4932 -30.4709 -30.4667 -30.4649 -30.4624
   -30.4418 -30.4371 -30.4344 -30.4306 -30.4144 -30.4104 -30.4102 -30.4064
   -20.3164 -20.3163 -20.3161 -20.3160 -20.3150 -20.3147 -20.3147 -20.3145
   -20.2961 -20.2957 -20.2957 -20.2953 -20.2934 -20.2931 -20.2930 -20.2928
   -20.2926 -20.2923 -20.2922 -20.2918 -20.2908 -20.2903 -20.2900 -20.2893
   -20.2890 -20.2884 -20.2883 -20.2880 -20.2868 -20.2865 -20.2848 -20.2845
   -20.2839 -20.2837 -20.2836 -20.2836 -20.2825 -20.2814 -20.2811 -20.2810
   -20.2808 -20.2790 -20.2780 -20.2774 -20.2760 -20.2756 -20.2749 -20.2745
   -20.2742 -20.2736 -20.2728 -20.2720 -20.2716 -20.2711 -20.2700 -20.2691
    -9.9298  -9.7199  -9.5467  -9.5210  -9.3495  -9.3141  -9.1166  -9.1015
    -8.8685  -8.7370  -8.7326  -8.7270  -8.0283  -8.0023  -7.9324  -7.9232
    -7.9099  -7.8935  -7.8218  -7.8003  -7.6704  -7.6215  -7.6177  -7.5728
     1.2192   1.2331   1.3139   1.3560   1.3952   1.4375   1.5276   1.7037
     1.7935   1.8175   1.8319   1.9992   2.3831   2.4687   2.6789   2.7334
     2.8170   2.8392   4.0618   4.0799   4.1987   4.2388   4.2920   4.3090
     4.3342   4.3764   4.6411   4.7302   4.7780   4.8730   5.0804   5.1847
     5.2113   5.3031   5.3095   5.5269   5.5496   5.5728   5.5822   5.6559
     5.6933   5.8128   5.8297   5.9523   6.0369   6.1035   6.1292   6.1698
     6.2615   6.4908   6.5205   6.6010   6.6085   6.7260   6.7394   6.8018
     6.8267   6.8780   6.9015   6.9129   6.9274   6.9494   6.9803   7.0410
     7.0982   7.1510   7.8358   7.8404   8.0552   8.0775   8.1038   8.1528
     9.9208   9.9565  10.1145  10.1338  10.1943  10.2649  12.2600  12.3303
    12.3906  12.3970  12.4803  12.5390  12.5796  12.6142  12.7873  12.9263
    13.0429  13.1017  13.4441  13.4555  13.7037  13.7780  13.9225  13.9429
    14.2855  14.4985  14.5574  15.1551  15.2677  15.6266  15.6407  16.4686
    16.4860  17.0390  17.0558  17.2769  17.5461

          k = 0.1667 0.0000 0.3333 ( 62265 PWs)   bands (ev):

   -66.1605 -66.1600 -66.1596 -66.1592 -66.1591 -66.1587 -66.1584 -66.1579
   -30.5848 -30.5816 -30.5741 -30.5695 -30.5269 -30.5227 -30.5188 -30.5159
   -30.5150 -30.5131 -30.4952 -30.4927 -30.4709 -30.4694 -30.4685 -30.4633
   -30.4571 -30.4515 -30.4340 -30.4316 -30.4135 -30.4110 -30.4095 -30.4072
   -20.3164 -20.3163 -20.3162 -20.3161 -20.3149 -20.3147 -20.3147 -20.3145
   -20.2960 -20.2958 -20.2957 -20.2954 -20.2934 -20.2931 -20.2930 -20.2927
   -20.2926 -20.2924 -20.2918 -20.2914 -20.2910 -20.2906 -20.2899 -20.2895
   -20.2889 -20.2885 -20.2883 -20.2881 -20.2867 -20.2866 -20.2845 -20.2842
   -20.2839 -20.2837 -20.2832 -20.2826 -20.2819 -20.2814 -20.2812 -20.2806
   -20.2800 -20.2794 -20.2785 -20.2780 -20.2769 -20.2754 -20.2751 -20.2751
   -20.2741 -20.2733 -20.2726 -20.2726 -20.2721 -20.2719 -20.2698 -20.2693
    -9.7924  -9.5720  -9.5679  -9.3544  -9.3161  -9.0891  -8.9978  -8.9639
    -8.9137  -8.7515  -8.7029  -8.6866  -8.3460  -8.2823  -8.2419  -8.1841
    -7.9803  -7.9281  -7.8763  -7.8240  -7.6612  -7.6324  -7.6094  -7.5828
     1.3517   1.3605   1.4324   1.4479   1.7236   1.7330   1.7804   1.8166
     2.0864   2.1792   2.2547   2.3754   2.6559   2.7145   2.7577   2.8052
     2.9576   3.0604   3.6154   3.7285   3.9001   3.9289   4.1786   4.2013
     4.2281   4.3791   4.4310   4.5296   4.5783   4.6454   4.7144   4.7621
     4.9337   4.9831   5.0145   5.1061   5.1684   5.3411   5.5833   5.6209
     5.6905   5.8453   5.8665   5.9154   5.9672   6.0208   6.0646   6.1578
     6.3686   6.4659   6.5337   6.5834   6.6510   6.6796   6.7545   6.7938
     6.8423   6.8600   6.9021   6.9481   6.9607   7.0347   7.0932   7.1354
     7.2796   7.3462   7.7352   7.7419   7.9574   7.9895   8.0913   8.1077
    10.1181  10.1215  10.5604  10.6443  10.8080  10.9068  11.9845  12.0775
    12.1914  12.4322  12.4468  12.5383  12.5626  12.6575  12.7160  12.7932
    12.8446  13.0845  13.2511  13.3333  13.5537  13.5983  13.7877  13.8048
    14.3744  14.5311  14.7364  15.1736  15.4720  15.9486  16.1140  16.3550
    16.5230  17.3495  17.5363  17.6304  17.7009

          k = 0.1667 0.0000-0.5000 ( 62322 PWs)   bands (ev):

   -66.1603 -66.1603 -66.1594 -66.1594 -66.1590 -66.1590 -66.1581 -66.1581
   -30.5831 -30.5831 -30.5489 -30.5489 -30.5441 -30.5441 -30.5208 -30.5208
   -30.4995 -30.4995 -30.4897 -30.4896 -30.4830 -30.4830 -30.4664 -30.4664
   -30.4603 -30.4603 -30.4328 -30.4328 -30.4122 -30.4122 -30.4083 -30.4083
   -20.3163 -20.3163 -20.3162 -20.3162 -20.3148 -20.3148 -20.3146 -20.3146
   -20.2959 -20.2959 -20.2956 -20.2956 -20.2933 -20.2933 -20.2929 -20.2929
   -20.2925 -20.2925 -20.2914 -20.2913 -20.2910 -20.2909 -20.2897 -20.2897
   -20.2887 -20.2887 -20.2882 -20.2882 -20.2867 -20.2866 -20.2843 -20.2843
   -20.2839 -20.2839 -20.2821 -20.2821 -20.2815 -20.2815 -20.2811 -20.2811
   -20.2798 -20.2798 -20.2783 -20.2783 -20.2766 -20.2765 -20.2753 -20.2753
   -20.2735 -20.2734 -20.2727 -20.2727 -20.2724 -20.2723 -20.2695 -20.2695
    -9.6568  -9.6568  -9.4347  -9.4347  -9.0524  -9.0524  -8.8207  -8.8207
    -8.7134  -8.7134  -8.6897  -8.6897  -8.5827  -8.5827  -8.5244  -8.5244
    -7.9559  -7.9559  -7.8502  -7.8502  -7.6470  -7.6470  -7.5963  -7.5963
     1.3632   1.3632   1.4527   1.4527   1.7667   1.7667   1.7961   1.7961
     2.7417   2.7417   2.9201   2.9201   2.9847   2.9847   3.0911   3.0911
     3.1254   3.1254   3.2529   3.2529   3.4303   3.4303   3.7405   3.7405
     3.8227   3.8227   4.3341   4.3341   4.5822   4.5822   4.7865   4.7865
     4.8568   4.8568   4.9388   4.9388   5.1365   5.1365   5.6584   5.6584
     5.7206   5.7206   5.7611   5.7611   5.9964   5.9964   6.1490   6.1490
     6.3675   6.3675   6.5829   6.5829   6.6139   6.6139   6.7532   6.7532
     6.8761   6.8761   6.8999   6.8999   6.9771   6.9771   7.4732   7.4732
     7.4945   7.4945   7.6896   7.6896   7.7332   7.7332   8.1010   8.1010
    10.1279  10.1279  11.3038  11.3038  11.4030  11.4030  11.5683  11.5683
    11.7127  11.7127  12.5635  12.5635  12.6467  12.6467  12.8784  12.8784
    13.0047  13.0047  13.1709  13.1709  13.2764  13.2764  13.7816  13.7816
    14.4758  14.4758  14.9983  14.9983  15.9054  15.9054  16.2402  16.2402
    16.9314  16.9314  17.8922  17.8922  18.0166

          k = 0.1667 0.1575 0.1667 ( 62255 PWs)   bands (ev):

   -66.1607 -66.1598 -66.1598 -66.1594 -66.1589 -66.1586 -66.1585 -66.1577
   -30.5927 -30.5881 -30.5859 -30.5805 -30.5319 -30.5304 -30.5240 -30.5209
   -30.5019 -30.5005 -30.4946 -30.4932 -30.4672 -30.4634 -30.4617 -30.4594
   -30.4417 -30.4372 -30.4343 -30.4307 -30.4182 -30.4140 -30.4139 -30.4099
   -20.3164 -20.3163 -20.3161 -20.3160 -20.3150 -20.3147 -20.3147 -20.3145
   -20.2961 -20.2957 -20.2957 -20.2953 -20.2934 -20.2931 -20.2930 -20.2927
   -20.2925 -20.2922 -20.2922 -20.2918 -20.2907 -20.2903 -20.2899 -20.2893
   -20.2888 -20.2882 -20.2881 -20.2878 -20.2868 -20.2865 -20.2849 -20.2846
   -20.2842 -20.2840 -20.2839 -20.2837 -20.2826 -20.2814 -20.2811 -20.2811
   -20.2808 -20.2790 -20.2780 -20.2774 -20.2760 -20.2756 -20.2749 -20.2745
   -20.2742 -20.2736 -20.2728 -20.2720 -20.2716 -20.2711 -20.2700 -20.2691
    -9.9094  -9.7293  -9.5299  -9.5026  -9.3524  -9.3175  -9.1156  -9.1021
    -8.7979  -8.6847  -8.6815  -8.6749  -8.0305  -8.0031  -7.9362  -7.9259
    -7.9106  -7.8957  -7.8258  -7.8023  -7.7576  -7.7135  -7.7107  -7.6684
     1.2198   1.2326   1.3173   1.3610   1.3988   1.4423   1.6055   1.7038
     1.9840   2.0343   2.0472   2.1774   2.3893   2.4637   2.7508   2.8095
     2.8902   2.9061   3.9590   3.9804   4.0693   4.1029   4.2637   4.2815
     4.3015   4.3103   4.6053   4.7304   4.8213   4.8725   4.9882   5.1366
     5.1774   5.2716   5.2945   5.3362   5.3752   5.5192   5.5415   5.6277
     5.6908   5.7933   5.8935   5.9405   5.9553   6.0394   6.0983   6.1437
     6.2892   6.4299   6.4728   6.5759   6.6449   6.7211   6.7312   6.7685
     6.7757   6.8700   6.8822   6.9271   6.9687   7.0000   7.0347   7.0434
     7.1139   7.1586   7.8347   7.8410   8.0143   8.0299   8.0559   8.0819
     9.9518   9.9755  10.2678  10.2900  10.3455  10.4047  12.1545  12.2291
    12.3119  12.3685  12.4164  12.4406  12.5710  12.5789  12.8214  12.9619
    13.0375  13.1008  13.4298  13.4477  13.7286  13.7564  13.8618  13.8839
    14.5122  14.7830  14.8075  15.2435  15.6200  15.6389  15.6822  16.4363
    16.4507  16.9476  17.1323  17.1422  17.5945

          k = 0.1667 0.1575 0.3333 ( 62260 PWs)   bands (ev):

   -66.1605 -66.1600 -66.1596 -66.1592 -66.1591 -66.1587 -66.1584 -66.1579
   -30.5847 -30.5816 -30.5740 -30.5695 -30.5268 -30.5227 -30.5187 -30.5159
   -30.5150 -30.5130 -30.4950 -30.4923 -30.4686 -30.4663 -30.4658 -30.4602
   -30.4558 -30.4505 -30.4340 -30.4316 -30.4173 -30.4147 -30.4131 -30.4108
   -20.3164 -20.3163 -20.3162 -20.3161 -20.3149 -20.3147 -20.3147 -20.3145
   -20.2960 -20.2958 -20.2957 -20.2954 -20.2934 -20.2931 -20.2930 -20.2927
   -20.2925 -20.2923 -20.2917 -20.2914 -20.2909 -20.2906 -20.2898 -20.2895
   -20.2887 -20.2883 -20.2881 -20.2879 -20.2867 -20.2865 -20.2847 -20.2844
   -20.2842 -20.2840 -20.2833 -20.2826 -20.2820 -20.2814 -20.2812 -20.2806
   -20.2800 -20.2794 -20.2785 -20.2780 -20.2769 -20.2754 -20.2751 -20.2751
   -20.2741 -20.2733 -20.2726 -20.2725 -20.2721 -20.2719 -20.2698 -20.2693
    -9.7706  -9.5807  -9.5485  -9.3588  -9.2907  -9.0918  -8.9966  -8.9627
    -8.8464  -8.7035  -8.6545  -8.6429  -8.3461  -8.2849  -8.2417  -8.1837
    -7.9814  -7.9296  -7.8788  -7.8275  -7.7504  -7.7232  -7.7037  -7.6778
     1.3579   1.3671   1.4363   1.4534   1.8922   1.9082   1.9941   2.0333
     2.0979   2.2145   2.2574   2.4133   2.6630   2.7352   2.8034   2.8763
     3.0323   3.1259   3.6151   3.7232   3.8536   3.9167   4.0781   4.1240
     4.2357   4.3325   4.3709   4.4807   4.5444   4.6114   4.6991   4.7481
     4.8674   4.8740   4.9340   5.0739   5.1446   5.1667   5.3899   5.5596
     5.6633   5.7251   5.8095   5.8750   5.8978   5.9769   6.0017   6.0502
     6.3247   6.4774   6.5567   6.6708   6.6851   6.7262   6.7544   6.7654
     6.8373   6.8985   6.9345   6.9837   7.0157   7.0545   7.1046   7.1549
     7.2829   7.3489   7.7366   7.7400   7.9195   7.9446   8.0404   8.0500
    10.2750  10.2924  10.5807  10.6562  10.9110  10.9876  11.9810  12.0727
    12.1684  12.3594  12.4011  12.4760  12.5164  12.6190  12.6412  12.7415
    12.8680  13.0619  13.2195  13.3343  13.4617  13.5300  13.7686  13.7808
    14.6453  14.7832  15.0885  15.5004  15.6200  15.9453  16.1284  16.3473
    16.5830  17.3134  17.3441  17.5877  17.6824

          k = 0.1667 0.1575-0.5000 ( 62292 PWs)   bands (ev):

   -66.1603 -66.1603 -66.1594 -66.1594 -66.1590 -66.1590 -66.1581 -66.1581
   -30.5831 -30.5831 -30.5489 -30.5489 -30.5441 -30.5441 -30.5208 -30.5208
   -30.4994 -30.4994 -30.4894 -30.4894 -30.4822 -30.4822 -30.4631 -30.4631
   -30.4576 -30.4576 -30.4328 -30.4328 -30.4160 -30.4160 -30.4119 -30.4119
   -20.3163 -20.3163 -20.3162 -20.3162 -20.3148 -20.3148 -20.3146 -20.3146
   -20.2959 -20.2959 -20.2956 -20.2955 -20.2932 -20.2932 -20.2929 -20.2929
   -20.2924 -20.2924 -20.2912 -20.2912 -20.2910 -20.2910 -20.2897 -20.2897
   -20.2885 -20.2885 -20.2880 -20.2880 -20.2866 -20.2866 -20.2845 -20.2845
   -20.2842 -20.2842 -20.2821 -20.2821 -20.2815 -20.2815 -20.2811 -20.2811
   -20.2798 -20.2798 -20.2783 -20.2783 -20.2766 -20.2766 -20.2753 -20.2753
   -20.2735 -20.2734 -20.2727 -20.2727 -20.2724 -20.2724 -20.2695 -20.2695
    -9.6355  -9.6355  -9.4412  -9.4412  -9.0031  -9.0031  -8.7984  -8.7984
    -8.7107  -8.7106  -8.6889  -8.6889  -8.5618  -8.5618  -8.5060  -8.5060
    -7.9573  -7.9573  -7.8532  -7.8532  -7.7372  -7.7372  -7.6910  -7.6910
     1.3711   1.3711   1.4587   1.4587   1.9615   1.9615   2.0258   2.0258
     2.8029   2.8029   2.9304   2.9304   2.9886   2.9886   3.1004   3.1004
     3.1286   3.1287   3.2727   3.2727   3.4317   3.4317   3.7636   3.7636
     3.8787   3.8787   4.1929   4.1929   4.5030   4.5030   4.6934   4.6934
     4.8118   4.8118   4.9009   4.9009   5.0135   5.0135   5.5052   5.5052
     5.6505   5.6505   5.7345   5.7345   5.8648   5.8648   6.0220   6.0220
     6.4608   6.4608   6.6058   6.6058   6.6969   6.6969   6.7888   6.7888
     6.8256   6.8256   6.9429   6.9429   7.0442   7.0442   7.4765   7.4765
     7.4920   7.4920   7.6716   7.6716   7.7098   7.7098   8.0464   8.0464
    10.2976  10.2976  11.3105  11.3105  11.4072  11.4072  11.6299  11.6299
    11.7639  11.7639  12.4173  12.4173  12.6470  12.6470  12.8259  12.8259
    12.9811  12.9811  13.0780  13.0780  13.2442  13.2442  13.7559  13.7559
    14.7390  14.7390  15.3754  15.3754  15.9859  15.9859  16.2247  16.2247
    16.9666  16.9666  17.7427  17.7427  17.9812

          k = 0.1667 0.3150 0.1667 ( 62249 PWs)   bands (ev):

   -66.1607 -66.1598 -66.1598 -66.1595 -66.1589 -66.1586 -66.1586 -66.1577
   -30.5927 -30.5880 -30.5859 -30.5805 -30.5319 -30.5304 -30.5241 -30.5209
   -30.5015 -30.4999 -30.4939 -30.4931 -30.4570 -30.4547 -30.4526 -30.4514
   -30.4410 -30.4375 -30.4339 -30.4311 -30.4285 -30.4238 -30.4234 -30.4191
   -20.3164 -20.3163 -20.3161 -20.3160 -20.3150 -20.3147 -20.3147 -20.3145
   -20.2961 -20.2957 -20.2957 -20.2953 -20.2934 -20.2930 -20.2929 -20.2926
   -20.2925 -20.2921 -20.2921 -20.2920 -20.2903 -20.2903 -20.2898 -20.2895
   -20.2881 -20.2877 -20.2876 -20.2873 -20.2867 -20.2864 -20.2854 -20.2852
   -20.2848 -20.2847 -20.2844 -20.2839 -20.2827 -20.2815 -20.2812 -20.2811
   -20.2809 -20.2790 -20.2780 -20.2774 -20.2760 -20.2756 -20.2749 -20.2745
   -20.2742 -20.2736 -20.2728 -20.2720 -20.2717 -20.2711 -20.2700 -20.2691
    -9.8596  -9.7574  -9.4961  -9.4651  -9.3595  -9.3260  -9.1131  -9.1041
    -8.5999  -8.5260  -8.5243  -8.5179  -8.0726  -8.0227  -8.0063  -7.9751
    -7.9714  -7.9488  -7.9114  -7.8958  -7.8824  -7.8699  -7.8104  -7.7959
     1.2204   1.2315   1.3200   1.3650   1.4019   1.4465   1.6744   1.7034
     2.4029   2.4431   2.5269   2.6176   2.6379   2.7529   2.9682   3.0575
     3.1062   3.1352   3.6323   3.6685   3.7093   3.7644   4.1495   4.2453
     4.2693   4.2801   4.3007   4.5664   4.5912   4.8503   4.8574   4.9673
     5.0102   5.0396   5.1254   5.1481   5.3276   5.3783   5.4332   5.4593
     5.6830   5.7011   5.7514   5.7663   5.8526   5.8902   6.0694   6.0920
     6.3697   6.4123   6.4405   6.5963   6.6574   6.6665   6.7591   6.7794
     6.8943   6.9085   6.9792   6.9986   7.0465   7.0592   7.1727   7.1923
     7.2429   7.2482   7.8030   7.8357   7.8572   7.8725   7.8805   7.8958
     9.9801   9.9883  10.6936  10.7240  10.7741  10.8273  11.8034  11.8682
    11.9165  11.9858  12.4142  12.4168  12.5723  12.5734  12.9175  13.0363
    13.1054  13.1622  13.3684  13.4079  13.5420  13.5861  13.7186  13.7476
    15.2538  15.4104  15.4509  15.5760  15.6201  15.6964  16.3071  16.3244
    16.4268  16.6583  17.2167  17.4113  17.4301

          k = 0.1667 0.3150 0.3333 ( 62265 PWs)   bands (ev):

   -66.1605 -66.1600 -66.1596 -66.1593 -66.1591 -66.1588 -66.1584 -66.1579
   -30.5847 -30.5816 -30.5740 -30.5694 -30.5267 -30.5227 -30.5185 -30.5158
   -30.5150 -30.5129 -30.4948 -30.4915 -30.4652 -30.4617 -30.4557 -30.4513
   -30.4499 -30.4458 -30.4341 -30.4319 -30.4276 -30.4248 -30.4227 -30.4202
   -20.3164 -20.3163 -20.3162 -20.3161 -20.3149 -20.3147 -20.3147 -20.3145
   -20.2960 -20.2958 -20.2957 -20.2954 -20.2933 -20.2931 -20.2929 -20.2927
   -20.2924 -20.2922 -20.2916 -20.2915 -20.2906 -20.2906 -20.2898 -20.2896
   -20.2880 -20.2877 -20.2876 -20.2874 -20.2866 -20.2865 -20.2853 -20.2851
   -20.2849 -20.2848 -20.2834 -20.2827 -20.2821 -20.2814 -20.2813 -20.2806
   -20.2801 -20.2795 -20.2785 -20.2780 -20.2769 -20.2754 -20.2751 -20.2751
   -20.2741 -20.2733 -20.2726 -20.2725 -20.2721 -20.2719 -20.2698 -20.2693
    -9.7186  -9.6071  -9.5076  -9.3702  -9.2401  -9.0992  -8.9946  -8.9615
    -8.6602  -8.5613  -8.5057  -8.5008  -8.3487  -8.3021  -8.2391  -8.1801
    -8.0146  -7.9898  -7.9648  -7.9375  -7.9331  -7.8954  -7.8630  -7.8146
     1.3621   1.3719   1.4393   1.4580   2.0419   2.1202   2.1774   2.2640
     2.5363   2.6048   2.6376   2.6712   2.6925   2.7967   3.0150   3.0918
     3.2628   3.3270   3.5839   3.6651   3.6955   3.7213   3.7899   3.8506
     4.1120   4.2741   4.3463   4.3907   4.4532   4.4746   4.5396   4.5988
     4.7132   4.7853   4.8535   4.9048   4.9868   5.0396   5.0827   5.1805
     5.3261   5.4051   5.4825   5.6982   5.7144   5.8673   5.9413   5.9699
     6.4406   6.5308   6.5933   6.7073   6.7669   6.7962   6.8605   6.8758
     6.9531   7.0164   7.0525   7.0702   7.1256   7.1727   7.2187   7.2657
     7.3130   7.3667   7.7173   7.7425   7.7846   7.7961   7.8651   7.8806
    10.5561  10.5987  10.7620  10.8131  11.2053  11.2660  11.8437  11.9291
    12.0249  12.0935  12.1440  12.1970  12.5748  12.6177  12.6407  12.7223
    12.9380  13.0568  13.0875  13.2134  13.3347  13.4158  13.6084  13.6378
    15.3646  15.4191  15.7989  15.8926  15.9924  16.1680  16.2799  16.5537
    16.8161  16.8899  17.1665  17.4702  17.7087

          k = 0.1667 0.3150-0.5000 ( 62264 PWs)   bands (ev):

   -66.1603 -66.1602 -66.1594 -66.1593 -66.1590 -66.1590 -66.1581 -66.1581
   -30.5831 -30.5831 -30.5488 -30.5488 -30.5440 -30.5439 -30.5208 -30.5208
   -30.4993 -30.4993 -30.4889 -30.4889 -30.4810 -30.4810 -30.4537 -30.4537
   -30.4493 -30.4493 -30.4330 -30.4330 -30.4262 -30.4262 -30.4215 -30.4215
   -20.3163 -20.3163 -20.3162 -20.3162 -20.3148 -20.3148 -20.3146 -20.3146
   -20.2959 -20.2959 -20.2955 -20.2955 -20.2932 -20.2932 -20.2928 -20.2928
   -20.2923 -20.2923 -20.2911 -20.2910 -20.2910 -20.2910 -20.2897 -20.2897
   -20.2879 -20.2879 -20.2876 -20.2875 -20.2865 -20.2865 -20.2852 -20.2852
   -20.2850 -20.2850 -20.2822 -20.2822 -20.2816 -20.2816 -20.2812 -20.2811
   -20.2798 -20.2798 -20.2783 -20.2783 -20.2766 -20.2766 -20.2753 -20.2753
   -20.2734 -20.2734 -20.2727 -20.2727 -20.2724 -20.2724 -20.2695 -20.2695
    -9.5884  -9.5884  -9.4592  -9.4592  -8.8939  -8.8938  -8.7627  -8.7627
    -8.7153  -8.7153  -8.6771  -8.6771  -8.4642  -8.4642  -8.4256  -8.4256
    -8.0023  -8.0023  -7.9571  -7.9571  -7.9155  -7.9155  -7.8392  -7.8392
     1.3765   1.3765   1.4636   1.4636   2.5104   2.5104   2.6097   2.6097
     2.9222   2.9222   2.9671   2.9671   3.0290   3.0290   3.1240   3.1240
     3.1651   3.1651   3.3176   3.3176   3.4385   3.4385   3.6989   3.6989
     4.0079   4.0080   4.0466   4.0466   4.1517   4.1517   4.3623   4.3623
     4.7421   4.7421   4.8178   4.8178   4.9769   4.9769   5.0709   5.0709
     5.1104   5.1104   5.5530   5.5530   5.7702   5.7702   5.8793   5.8793
     6.5741   6.5741   6.6896   6.6896   6.7331   6.7331   6.8260   6.8260
     7.0773   7.0773   7.1263   7.1263   7.1996   7.1996   7.4699   7.4699
     7.5015   7.5015   7.6022   7.6022   7.6316   7.6316   7.8706   7.8706
    10.7417  10.7417  11.3224  11.3224  11.4147  11.4147  11.7602  11.7602
    11.9357  11.9357  12.0818  12.0818  12.5431  12.5431  12.5964  12.5964
    12.8903  12.8903  12.9890  12.9890  13.2513  13.2513  13.5818  13.5818
    15.4013  15.4013  16.0636  16.0636  16.2884  16.2884  16.3799  16.3799
    17.0904  17.0904  17.3782  17.3782  17.8996

          k = 0.1667-0.4725 0.1667 ( 62220 PWs)   bands (ev):

   -66.1607 -66.1598 -66.1598 -66.1595 -66.1589 -66.1586 -66.1586 -66.1577
   -30.5926 -30.5880 -30.5859 -30.5805 -30.5319 -30.5304 -30.5241 -30.5209
   -30.5013 -30.4996 -30.4936 -30.4931 -30.4483 -30.4451 -30.4437 -30.4422
   -30.4420 -30.4378 -30.4377 -30.4366 -30.4346 -30.4303 -30.4288 -30.4282
   -20.3164 -20.3163 -20.3161 -20.3160 -20.3149 -20.3147 -20.3147 -20.3145
   -20.2961 -20.2957 -20.2957 -20.2953 -20.2934 -20.2930 -20.2929 -20.2925
   -20.2923 -20.2922 -20.2921 -20.2920 -20.2903 -20.2901 -20.2898 -20.2896
   -20.2875 -20.2872 -20.2871 -20.2868 -20.2865 -20.2862 -20.2860 -20.2857
   -20.2855 -20.2853 -20.2845 -20.2839 -20.2827 -20.2815 -20.2812 -20.2811
   -20.2809 -20.2790 -20.2780 -20.2774 -20.2760 -20.2756 -20.2749 -20.2745
   -20.2743 -20.2736 -20.2728 -20.2720 -20.2717 -20.2711 -20.2700 -20.2691
    -9.8059  -9.8003  -9.4788  -9.4456  -9.3642  -9.3318  -9.1111  -9.1058
    -8.3234  -8.3214  -8.2790  -8.2772  -8.2732  -8.2719  -8.2609  -8.2593
    -8.0036  -7.9882  -7.9141  -7.9080  -7.8985  -7.8895  -7.8137  -7.7997
     1.2206   1.2310   1.3206   1.3658   1.4026   1.4475   1.6900   1.7025
     2.4238   2.4252   3.0834   3.0949   3.1883   3.2046   3.2655   3.2904
     3.3823   3.3857   3.4313   3.4600   3.6290   3.6487   3.7448   3.7544
     3.8727   3.8745   4.2514   4.2685   4.2923   4.3020   4.9847   4.9995
     5.0864   5.0935   5.2101   5.2287   5.2600   5.2715   5.4410   5.4493
     5.5219   5.5276   5.7037   5.7321   5.7474   5.7657   6.0798   6.0991
     6.4102   6.4367   6.5189   6.5284   6.6426   6.6538   6.7775   6.7887
     6.8885   6.8996   7.0189   7.0211   7.0730   7.0840   7.4830   7.4873
     7.5383   7.5450   7.5735   7.5790   7.6049   7.6130   7.8475   7.8503
     9.9874   9.9912  11.2083  11.2507  11.2718  11.3201  11.3408  11.3808
    11.4364  11.4664  12.4160  12.4188  12.5743  12.5760  13.0337  13.0483
    13.2709  13.3133  13.3188  13.3218  13.3377  13.3670  13.6661  13.6694
    15.5767  15.6021  15.8634  15.8744  15.9808  15.9821  16.0689  16.0920
    16.4484  16.4500  17.7425  17.7538  17.8589

          k = 0.1667-0.4725 0.3333 ( 62252 PWs)   bands (ev):

   -66.1605 -66.1600 -66.1596 -66.1593 -66.1591 -66.1588 -66.1584 -66.1579
   -30.5847 -30.5816 -30.5740 -30.5694 -30.5267 -30.5226 -30.5184 -30.5157
   -30.5150 -30.5129 -30.4946 -30.4911 -30.4643 -30.4598 -30.4426 -30.4413
   -30.4410 -30.4389 -30.4381 -30.4378 -30.4366 -30.4326 -30.4302 -30.4288
   -20.3164 -20.3163 -20.3162 -20.3161 -20.3149 -20.3147 -20.3147 -20.3145
   -20.2960 -20.2958 -20.2956 -20.2954 -20.2933 -20.2931 -20.2929 -20.2926
   -20.2923 -20.2921 -20.2916 -20.2915 -20.2906 -20.2904 -20.2898 -20.2897
   -20.2875 -20.2873 -20.2872 -20.2870 -20.2863 -20.2862 -20.2860 -20.2858
   -20.2856 -20.2854 -20.2834 -20.2827 -20.2821 -20.2814 -20.2814 -20.2806
   -20.2801 -20.2795 -20.2785 -20.2780 -20.2769 -20.2755 -20.2751 -20.2751
   -20.2741 -20.2733 -20.2726 -20.2725 -20.2721 -20.2719 -20.2698 -20.2693
    -9.6753  -9.6378  -9.4851  -9.3785  -9.2145  -9.1046  -8.9937  -8.9612
    -8.4525  -8.4041  -8.4003  -8.3580  -8.2748  -8.2674  -8.2596  -8.2549
    -8.2069  -8.1679  -8.1548  -8.1019  -7.9654  -7.9142  -7.8710  -7.8191
     1.3630   1.3729   1.4400   1.4591   2.0522   2.1272   2.2160   2.2713
     2.6923   2.6959   3.0976   3.1270   3.2185   3.2546   3.3045   3.3086
     3.3574   3.3828   3.4881   3.5259   3.6099   3.6752   3.6975   3.7431
     3.8005   3.8261   3.8942   3.9257   4.3384   4.4109   4.4631   4.5876
     4.6207   4.6822   4.8338   4.8383   4.9618   4.9813   5.0137   5.0947
     5.2389   5.3021   5.3301   5.4632   5.7353   5.7553   5.9380   5.9595
     6.4854   6.5361   6.6452   6.7061   6.7654   6.8436   6.8805   6.8911
     6.9761   7.0411   7.1259   7.1824   7.2259   7.2450   7.4536   7.4906
     7.5223   7.5390   7.5529   7.5694   7.5888   7.6128   7.7531   7.7685
    10.5839  10.6256  11.2692  11.3139  11.3730  11.4193  11.6123  11.6694
    11.6963  11.7693  12.0144  12.1289  12.5888  12.7223  12.7830  12.8052
    12.8314  12.8968  13.0882  13.1505  13.3156  13.3372  13.5041  13.5454
    15.7036  15.8284  15.8992  16.0150  16.3746  16.4758  16.6643  16.7007
    16.7324  16.7702  17.3238  17.3688  17.6871

          k = 0.1667-0.4725-0.5000 ( 62232 PWs)   bands (ev):

   -66.1602 -66.1602 -66.1593 -66.1593 -66.1590 -66.1590 -66.1582 -66.1582
   -30.5831 -30.5831 -30.5487 -30.5487 -30.5439 -30.5439 -30.5208 -30.5208
   -30.4992 -30.4992 -30.4887 -30.4887 -30.4805 -30.4805 -30.4410 -30.4410
   -30.4397 -30.4397 -30.4394 -30.4394 -30.4349 -30.4349 -30.4296 -30.4296
   -20.3163 -20.3163 -20.3162 -20.3162 -20.3148 -20.3148 -20.3146 -20.3146
   -20.2959 -20.2959 -20.2955 -20.2955 -20.2932 -20.2932 -20.2928 -20.2928
   -20.2922 -20.2922 -20.2911 -20.2911 -20.2909 -20.2909 -20.2897 -20.2897
   -20.2874 -20.2874 -20.2871 -20.2871 -20.2862 -20.2862 -20.2859 -20.2858
   -20.2856 -20.2856 -20.2822 -20.2822 -20.2816 -20.2816 -20.2812 -20.2812
   -20.2798 -20.2798 -20.2783 -20.2783 -20.2766 -20.2766 -20.2753 -20.2753
   -20.2734 -20.2734 -20.2727 -20.2727 -20.2724 -20.2724 -20.2695 -20.2695
    -9.5590  -9.5590  -9.4744  -9.4744  -8.8342  -8.8341  -8.7420  -8.7420
    -8.7328  -8.7328  -8.6688  -8.6688  -8.2677  -8.2677  -8.2448  -8.2448
    -8.2360  -8.2360  -8.2122  -8.2121  -7.9405  -7.9405  -7.8450  -7.8450
     1.3777   1.3777   1.4648   1.4648   2.8944   2.8944   2.9345   2.9345
     3.0156   3.0156   3.0640   3.0640   3.1642   3.1642   3.2496   3.2496
     3.2899   3.2899   3.3915   3.3916   3.4277   3.4277   3.5438   3.5438
     3.6585   3.6585   3.7939   3.7939   4.3097   4.3097   4.3602   4.3602
     4.4060   4.4061   4.4689   4.4689   4.7932   4.7933   4.8929   4.8929
     5.2358   5.2358   5.3622   5.3622   5.7774   5.7774   5.8034   5.8034
     6.6144   6.6144   6.7009   6.7009   6.7470   6.7470   6.8401   6.8401
     7.2809   7.2809   7.3192   7.3192   7.3625   7.3625   7.4311   7.4311
     7.4971   7.4971   7.5505   7.5505   7.5801   7.5801   7.6528   7.6528
    11.2020  11.2020  11.3051  11.3051  11.4168  11.4168  11.5120  11.5120
    12.1637  12.1637  12.1800  12.1800  12.2837  12.2837  12.3090  12.3090
    12.8776  12.8776  12.9774  12.9774  13.3433  13.3433  13.3996  13.3996
    15.8232  15.8232  15.9484  15.9484  16.8602  16.8602  16.8745  16.8745
    17.3474  17.3476  17.4162  17.4177  17.4611

          k = 0.3333 0.0000 0.3333 ( 62316 PWs)   bands (ev):

   -66.1603 -66.1598 -66.1598 -66.1593 -66.1591 -66.1586 -66.1585 -66.1580
   -30.5732 -30.5705 -30.5664 -30.5632 -30.5230 -30.5217 -30.5198 -30.5135
   -30.5118 -30.5047 -30.5042 -30.5010 -30.4700 -30.4695 -30.4679 -30.4664
   -30.4570 -30.4550 -30.4499 -30.4492 -30.4126 -30.4103 -30.4101 -30.4079
   -20.3164 -20.3163 -20.3162 -20.3161 -20.3148 -20.3147 -20.3147 -20.3146
   -20.2960 -20.2958 -20.2958 -20.2955 -20.2933 -20.2931 -20.2930 -20.2928
   -20.2923 -20.2919 -20.2919 -20.2912 -20.2911 -20.2904 -20.2902 -20.2897
   -20.2888 -20.2885 -20.2884 -20.2882 -20.2860 -20.2858 -20.2847 -20.2843
   -20.2840 -20.2836 -20.2831 -20.2827 -20.2825 -20.2822 -20.2804 -20.2798
   -20.2795 -20.2793 -20.2787 -20.2781 -20.2766 -20.2763 -20.2759 -20.2756
   -20.2740 -20.2735 -20.2724 -20.2722 -20.2720 -20.2717 -20.2706 -20.2701
    -9.6323  -9.3935  -9.3682  -9.3502  -9.1313  -9.0999  -8.9695  -8.8874
    -8.8716  -8.7030  -8.6922  -8.6790  -8.3749  -8.3169  -8.3027  -8.2785
    -8.2222  -8.2005  -8.1538  -8.1244  -7.6520  -7.6238  -7.6211  -7.5941
     1.6883   1.7168   1.7196   1.7670   1.9718   1.9794   2.0928   2.1249
     2.1884   2.2172   2.3798   2.4996   2.9156   2.9416   2.9683   3.0052
     3.0664   3.1091   3.6729   3.7410   3.8569   3.9113   3.9351   3.9679
     4.1286   4.1629   4.2014   4.2929   4.3165   4.3306   4.4525   4.4884
     4.6516   4.7600   4.8475   4.9027   4.9263   4.9419   5.0512   5.2922
     5.3221   5.3877   5.4411   5.7102   6.0861   6.0922   6.1231   6.1725
     6.5008   6.5342   6.5475   6.6345   6.6457   6.6699   6.7095   6.7132
     6.9973   7.0554   7.0610   7.1165   7.1294   7.1812   7.2493   7.2786
     7.3091   7.4551   7.6665   7.6715   7.9229   7.9538   8.0218   8.0259
    10.6915  10.7269  10.8091  10.8382  11.0759  11.1930  12.1222  12.1393
    12.1874  12.2267  12.2674  12.3196  12.4832  12.5085  12.7091  12.7922
    12.7978  12.8830  12.9824  13.1330  13.4531  13.5215  13.5516  13.6481
    14.4517  14.6876  14.6918  15.0839  15.9002  16.5146  16.5215  16.8251
    16.9318  17.2856  17.3789  17.8183  17.8494

          k = 0.3333 0.0000-0.5000 ( 62288 PWs)   bands (ev):

   -66.1601 -66.1601 -66.1596 -66.1596 -66.1588 -66.1588 -66.1583 -66.1583
   -30.5648 -30.5648 -30.5477 -30.5477 -30.5451 -30.5450 -30.5155 -30.5155
   -30.5032 -30.5032 -30.4887 -30.4887 -30.4853 -30.4853 -30.4652 -30.4651
   -30.4639 -30.4639 -30.4502 -30.4502 -30.4114 -30.4113 -30.4090 -30.4090
   -20.3163 -20.3163 -20.3162 -20.3162 -20.3148 -20.3148 -20.3146 -20.3146
   -20.2959 -20.2959 -20.2957 -20.2957 -20.2932 -20.2932 -20.2930 -20.2930
   -20.2921 -20.2921 -20.2915 -20.2915 -20.2907 -20.2907 -20.2900 -20.2899
   -20.2886 -20.2886 -20.2883 -20.2883 -20.2859 -20.2859 -20.2845 -20.2844
   -20.2838 -20.2838 -20.2824 -20.2824 -20.2816 -20.2815 -20.2811 -20.2811
   -20.2789 -20.2789 -20.2781 -20.2780 -20.2771 -20.2771 -20.2761 -20.2761
   -20.2733 -20.2733 -20.2729 -20.2729 -20.2719 -20.2719 -20.2704 -20.2703
    -9.4587  -9.4587  -9.2007  -9.2007  -9.1110  -9.1110  -8.7709  -8.7709
    -8.7229  -8.7229  -8.6622  -8.6622  -8.5708  -8.5708  -8.5328  -8.5328
    -8.2673  -8.2672  -8.1739  -8.1739  -7.6381  -7.6381  -7.6078  -7.6078
[...]
   -20.4135 -20.4135 -20.4130 -20.4130 -20.4107 -20.4107 -20.4103 -20.4103
   -20.4086 -20.4086 -20.4078 -20.4078 -20.4074 -20.4074 -20.4055 -20.4055
   -20.4030 -20.4030 -20.4023 -20.4023 -20.4019 -20.4019 -20.4011 -20.4011
   -20.3987 -20.3987 -20.3967 -20.3967 -20.3963 -20.3963 -20.3958 -20.3958
    -9.5828  -9.5828  -9.4075  -9.4075  -9.0636  -9.0636  -8.8311  -8.8311
    -8.7063  -8.7063  -8.6563  -8.6562  -8.5625  -8.5625  -8.5193  -8.5193
    -8.2251  -8.2251  -8.1941  -8.1941  -7.9741  -7.9741  -7.8715  -7.8715
     1.4283   1.4283   1.5167   1.5167   2.2304   2.2304   2.3332   2.3332
     2.9041   2.9041   2.9737   2.9737   3.0134   3.0134   3.1428   3.1428
     3.1747   3.1747   3.3478   3.3479   3.4608   3.4608   3.6429   3.6429
     3.8453   3.8453   3.9216   3.9216   4.1019   4.1019   4.2817   4.2817
     4.6186   4.6186   4.7318   4.7318   4.8775   4.8775   4.9048   4.9048
     5.0061   5.0062   5.3986   5.3986   5.7144   5.7144   5.7827   5.7827
     6.5307   6.5307   6.6512   6.6512   6.7185   6.7185   6.7587   6.7587
     6.9457   6.9457   7.0027   7.0027   7.0835   7.0835   7.4205   7.4205
     7.4403   7.4403   7.5085   7.5085   7.5392   7.5392   7.7748   7.7748
    10.6373  10.6373  11.1606  11.1606  11.2547  11.2547  11.5976  11.5976
    11.7945  11.7945  12.0405  12.0405  12.4888  12.4888  12.5158  12.5158
    12.7215  12.7215  12.8240  12.8240  13.0231  13.0231  13.4612  13.4612
    15.2869  15.2869  15.7485  15.7485  16.2885  16.2885  16.4700  16.4700
    16.7650  16.7650  17.2585  17.2585  17.7782

          k = 0.3302 0.4793 0.1649 ( 62642 PWs)   bands (ev):

   -66.2787 -66.2782 -66.2779 -66.2775 -66.2775 -66.2771 -66.2768 -66.2763
   -30.6583 -30.6558 -30.6466 -30.6423 -30.6242 -30.6211 -30.6201 -30.6177
   -30.6086 -30.6078 -30.6060 -30.6014 -30.5995 -30.5919 -30.5793 -30.5758
   -30.5738 -30.5725 -30.5623 -30.5620 -30.5331 -30.5296 -30.5189 -30.5162
   -20.4428 -20.4428 -20.4425 -20.4424 -20.4415 -20.4413 -20.4412 -20.4411
   -20.4232 -20.4228 -20.4227 -20.4224 -20.4208 -20.4205 -20.4200 -20.4198
   -20.4168 -20.4167 -20.4160 -20.4158 -20.4157 -20.4155 -20.4149 -20.4148
   -20.4132 -20.4129 -20.4127 -20.4125 -20.4114 -20.4112 -20.4109 -20.4108
   -20.4091 -20.4089 -20.4088 -20.4085 -20.4068 -20.4059 -20.4059 -20.4047
   -20.4039 -20.4038 -20.4028 -20.4025 -20.4013 -20.4009 -20.4007 -20.4006
   -20.3989 -20.3986 -20.3971 -20.3964 -20.3963 -20.3962 -20.3961 -20.3952
    -9.6268  -9.5870  -9.4467  -9.3428  -9.1668  -9.0667  -8.9159  -8.8854
    -8.6602  -8.6516  -8.5766  -8.5672  -8.5349  -8.5306  -8.5249  -8.5133
    -8.2974  -8.2325  -8.2002  -8.1426  -7.9977  -7.9485  -7.8972  -7.8478
     1.4239   1.4270   1.5053   1.5157   2.1133   2.1886   2.2584   2.3239
     2.8193   2.8242   2.9517   2.9665   3.0738   3.1031   3.1348   3.1567
     3.2171   3.2236   3.3450   3.4332   3.4482   3.5453   3.6247   3.6700
     3.7029   3.7165   3.8082   3.8601   4.2344   4.2551   4.4539   4.4749
     4.5386   4.5874   4.7172   4.7711   4.8111   4.8865   4.9023   4.9320
     5.0130   5.0700   5.2590   5.3291   5.6537   5.6793   5.9206   5.9432
     6.5083   6.5426   6.5697   6.6116   6.6886   6.7920   6.8562   6.8794
     6.9697   7.0052   7.0257   7.1042   7.1174   7.1510   7.3295   7.3808
     7.3994   7.4285   7.4422   7.4638   7.4956   7.5008   7.7225   7.7368
    10.4509  10.4998  11.1825  11.2161  11.2992  11.3241  11.5903  11.6126
    11.6655  11.7160  11.8313  11.9457  12.3831  12.5100  12.6032  12.6242
    12.6901  12.7396  12.9508  13.0375  13.1480  13.1826  13.2497  13.3104
    15.3927  15.5113  15.6489  15.7878  16.1432  16.2360  16.5115  16.6034
    16.7773  16.7998  17.3186  17.3574  17.7551

          k =-0.4953 0.4793 0.1649 ( 62672 PWs)   bands (ev):

   -66.2784 -66.2784 -66.2777 -66.2777 -66.2773 -66.2773 -66.2765 -66.2765
   -30.6570 -30.6570 -30.6327 -30.6327 -30.6288 -30.6288 -30.6189 -30.6189
   -30.6073 -30.6073 -30.6032 -30.6032 -30.5914 -30.5914 -30.5855 -30.5855
   -30.5652 -30.5652 -30.5539 -30.5538 -30.5513 -30.5513 -30.5176 -30.5176
   -20.4428 -20.4428 -20.4424 -20.4424 -20.4414 -20.4414 -20.4411 -20.4411
   -20.4230 -20.4230 -20.4225 -20.4225 -20.4207 -20.4207 -20.4199 -20.4199
   -20.4167 -20.4167 -20.4157 -20.4157 -20.4154 -20.4154 -20.4153 -20.4152
   -20.4130 -20.4130 -20.4126 -20.4126 -20.4113 -20.4113 -20.4109 -20.4109
   -20.4087 -20.4086 -20.4078 -20.4078 -20.4074 -20.4074 -20.4055 -20.4055
   -20.4030 -20.4030 -20.4023 -20.4023 -20.4019 -20.4019 -20.4011 -20.4011
   -20.3987 -20.3987 -20.3967 -20.3967 -20.3963 -20.3963 -20.3958 -20.3958
    -9.5193  -9.5192  -9.4371  -9.4371  -8.8580  -8.8579  -8.7910  -8.7910
    -8.7073  -8.7073  -8.6670  -8.6670  -8.5063  -8.5063  -8.4692  -8.4692
    -8.4545  -8.4544  -8.4064  -8.4063  -7.9750  -7.9750  -7.8724  -7.8724
     1.4315   1.4315   1.5203   1.5203   2.8309   2.8310   2.9438   2.9438
     2.9911   2.9911   3.0181   3.0181   3.1118   3.1118   3.1324   3.1324
     3.2589   3.2589   3.3272   3.3272   3.3634   3.3634   3.4625   3.4625
     3.5142   3.5142   3.7262   3.7262   4.1484   4.1484   4.2063   4.2063
     4.2412   4.2413   4.3212   4.3212   4.7513   4.7513   4.8725   4.8725
     5.0547   5.0547   5.1824   5.1824   5.7167   5.7167   5.7435   5.7435
     6.5849   6.5849   6.6910   6.6910   6.7100   6.7100   6.7883   6.7883
     7.1700   7.1700   7.1975   7.1975   7.2740   7.2740   7.3485   7.3485
     7.3981   7.3981   7.4692   7.4692   7.5086   7.5087   7.5743   7.5744
    11.0914  11.0914  11.1958  11.1958  11.2867  11.2867  11.3601  11.3601
    12.0570  12.0570  12.0842  12.0842  12.1993  12.1993  12.2204  12.2204
    12.6866  12.6866  12.7922  12.7922  13.1587  13.1587  13.2179  13.2179
    15.5416  15.5416  15.6833  15.6833  16.7554  16.7554  16.8576  16.8576
    17.2865  17.2865  17.3562  17.3562  17.4448

          k =-0.4953 0.0000 0.3297 ( 62688 PWs)   bands (ev):

   -66.2783 -66.2783 -66.2779 -66.2779 -66.2771 -66.2771 -66.2767 -66.2766
   -30.6586 -30.6586 -30.6530 -30.6530 -30.6322 -30.6322 -30.6131 -30.6131
   -30.6098 -30.6098 -30.5902 -30.5902 -30.5811 -30.5811 -30.5701 -30.5701
   -30.5671 -30.5671 -30.5528 -30.5528 -30.5513 -30.5513 -30.5333 -30.5333
   -20.4427 -20.4427 -20.4425 -20.4425 -20.4414 -20.4413 -20.4412 -20.4412
   -20.4229 -20.4229 -20.4227 -20.4227 -20.4205 -20.4205 -20.4201 -20.4201
   -20.4174 -20.4174 -20.4171 -20.4171 -20.4152 -20.4152 -20.4148 -20.4148
   -20.4141 -20.4141 -20.4138 -20.4138 -20.4098 -20.4098 -20.4095 -20.4095
   -20.4076 -20.4076 -20.4072 -20.4072 -20.4071 -20.4071 -20.4045 -20.4045
   -20.4041 -20.4041 -20.4022 -20.4022 -20.4021 -20.4021 -20.4018 -20.4018
   -20.3984 -20.3984 -20.3970 -20.3970 -20.3965 -20.3965 -20.3960 -20.3960
    -9.5818  -9.5818  -9.3727  -9.3727  -9.1495  -9.1495  -8.8658  -8.8658
    -8.7193  -8.7193  -8.6181  -8.6181  -8.5911  -8.5911  -8.5279  -8.5279
    -8.2689  -8.2689  -8.1757  -8.1757  -7.8520  -7.8520  -7.8284  -7.8284
     1.3538   1.3538   1.3817   1.3817   2.1504   2.1504   2.2338   2.2338
     2.8232   2.8232   2.9438   2.9438   2.9825   2.9825   3.1131   3.1131
     3.1844   3.1844   3.4733   3.4733   3.5991   3.5991   3.6753   3.6753
     3.7881   3.7881   3.9021   3.9021   4.0838   4.0838   4.3028   4.3028
     4.5927   4.5927   4.8209   4.8209   4.9336   4.9336   4.9805   4.9805
     5.2036   5.2036   5.4822   5.4823   5.9170   5.9170   6.0044   6.0044
     6.3111   6.3111   6.3477   6.3477   6.4448   6.4448   6.4705   6.4705
     7.0309   7.0309   7.1410   7.1410   7.2128   7.2128   7.4288   7.4288
     7.4623   7.4623   7.5658   7.5659   7.6025   7.6026   7.8890   7.8890
    10.6452  10.6452  11.2912  11.2912  11.3559  11.3559  11.5083  11.5083
    11.6699  11.6699  12.0951  12.0951  12.3878  12.3878  12.5259  12.5259
    12.7634  12.7634  13.0975  13.0975  13.1305  13.1305  13.4993  13.4993
    14.7345  14.7345  15.0909  15.0909  16.1774  16.1774  16.5942  16.5942
    16.9010  16.9010  17.3221  17.3222  17.8879

          k =-0.4953-0.1598 0.3297 ( 62646 PWs)   bands (ev):

   -66.2783 -66.2783 -66.2779 -66.2779 -66.2771 -66.2771 -66.2767 -66.2767
   -30.6554 -30.6554 -30.6491 -30.6491 -30.6322 -30.6321 -30.6138 -30.6138
   -30.6094 -30.6093 -30.5906 -30.5906 -30.5827 -30.5827 -30.5720 -30.5720
   -30.5694 -30.5694 -30.5533 -30.5533 -30.5517 -30.5517 -30.5334 -30.5334
   -20.4427 -20.4427 -20.4425 -20.4425 -20.4413 -20.4413 -20.4412 -20.4412
   -20.4229 -20.4229 -20.4227 -20.4227 -20.4205 -20.4205 -20.4201 -20.4201
   -20.4172 -20.4172 -20.4168 -20.4168 -20.4152 -20.4152 -20.4148 -20.4148
   -20.4139 -20.4139 -20.4136 -20.4136 -20.4100 -20.4100 -20.4097 -20.4097
   -20.4076 -20.4076 -20.4073 -20.4073 -20.4072 -20.4072 -20.4045 -20.4045
   -20.4042 -20.4041 -20.4022 -20.4022 -20.4021 -20.4021 -20.4018 -20.4018
   -20.3984 -20.3984 -20.3970 -20.3970 -20.3965 -20.3965 -20.3960 -20.3960
    -9.5293  -9.5293  -9.3018  -9.3018  -9.1592  -9.1592  -8.8413  -8.8413
    -8.7260  -8.7259  -8.6199  -8.6199  -8.5844  -8.5843  -8.5275  -8.5275
    -8.2693  -8.2693  -8.1784  -8.1784  -7.9555  -7.9555  -7.9322  -7.9322
     1.5857   1.5857   1.6194   1.6194   2.1527   2.1527   2.2391   2.2391
     2.8818   2.8818   2.9646   2.9646   3.0062   3.0062   3.1224   3.1224
     3.1893   3.1894   3.4994   3.4994   3.6175   3.6175   3.7062   3.7063
     3.7867   3.7867   3.9491   3.9491   4.0600   4.0600   4.3037   4.3037
     4.4655   4.4655   4.6343   4.6343   4.8654   4.8654   4.9067   4.9067
     4.9675   4.9675   5.2441   5.2441   5.6669   5.6669   5.7771   5.7771
     6.4647   6.4647   6.5017   6.5017   6.5676   6.5676   6.6813   6.6814
     7.0451   7.0451   7.1380   7.1380   7.2173   7.2173   7.4289   7.4289
     7.4573   7.4573   7.5532   7.5533   7.5912   7.5913   7.8423   7.8423
    10.7529  10.7529  11.3323  11.3323  11.4242  11.4242  11.5201  11.5201
    11.7025  11.7025  12.1305  12.1305  12.3841  12.3841  12.5322  12.5322
    12.6157  12.6157  12.9681  12.9681  13.0007  13.0007  13.3870  13.3870
    15.0885  15.0885  15.4672  15.4672  16.2553  16.2553  16.5956  16.5956
    16.9111  16.9111  17.3500  17.3500  17.7321

          k =-0.4953-0.3195 0.3297 ( 62618 PWs)   bands (ev):

   -66.2783 -66.2783 -66.2779 -66.2779 -66.2771 -66.2771 -66.2767 -66.2767
   -30.6482 -30.6482 -30.6390 -30.6390 -30.6319 -30.6319 -30.6170 -30.6170
   -30.6072 -30.6072 -30.5920 -30.5920 -30.5893 -30.5893 -30.5755 -30.5755
   -30.5735 -30.5735 -30.5540 -30.5540 -30.5522 -30.5522 -30.5335 -30.5335
   -20.4427 -20.4427 -20.4425 -20.4425 -20.4413 -20.4413 -20.4412 -20.4412
   -20.4229 -20.4229 -20.4226 -20.4226 -20.4205 -20.4205 -20.4201 -20.4201
   -20.4167 -20.4167 -20.4163 -20.4163 -20.4153 -20.4153 -20.4151 -20.4151
   -20.4134 -20.4134 -20.4132 -20.4132 -20.4107 -20.4107 -20.4104 -20.4104
   -20.4077 -20.4077 -20.4074 -20.4074 -20.4073 -20.4073 -20.4045 -20.4045
   -20.4042 -20.4042 -20.4022 -20.4022 -20.4020 -20.4020 -20.4018 -20.4018
   -20.3984 -20.3984 -20.3970 -20.3970 -20.3965 -20.3965 -20.3960 -20.3960
    -9.4032  -9.4032  -9.1931  -9.1931  -9.1102  -9.1102  -8.7689  -8.7689
    -8.7444  -8.7444  -8.6232  -8.6232  -8.5583  -8.5582  -8.5227  -8.5227
    -8.2811  -8.2811  -8.2227  -8.2227  -8.2016  -8.2016  -8.1374  -8.1374
     2.0654   2.0654   2.1724   2.1724   2.2489   2.2489   2.3764   2.3764
     2.9641   2.9641   3.0141   3.0142   3.0833   3.0833   3.1588   3.1588
     3.2408   3.2408   3.5395   3.5395   3.6233   3.6233   3.7307   3.7307
     3.8131   3.8131   3.9599   3.9599   4.0482   4.0482   4.1391   4.1391
     4.2346   4.2346   4.4024   4.4025   4.4998   4.4998   4.7382   4.7382
     4.8068   4.8068   4.9053   4.9053   4.9489   4.9489   5.2407   5.2407
     6.7621   6.7621   6.8414   6.8414   6.8968   6.8968   6.9502   6.9502
     7.0777   7.0777   7.1433   7.1433   7.2421   7.2421   7.4113   7.4114
     7.4379   7.4379   7.5121   7.5121   7.5413   7.5413   7.7010   7.7010
    11.0675  11.0675  11.4064  11.4064  11.5085  11.5085  11.6625  11.6625
    11.8507  11.8507  12.1790  12.1790  12.2592  12.2592  12.3571  12.3571
    12.5628  12.5628  12.6634  12.6634  12.6883  12.6883  13.1023  13.1023
    15.8906  15.8906  16.3507  16.3507  16.5017  16.5017  16.6202  16.6202
    16.9633  16.9633  17.3250  17.3250  17.5169

          k =-0.4953 0.4793 0.3297 ( 62652 PWs)   bands (ev):

   -66.2783 -66.2783 -66.2779 -66.2779 -66.2771 -66.2771 -66.2767 -66.2767
   -30.6441 -30.6441 -30.6318 -30.6318 -30.6296 -30.6296 -30.6224 -30.6224
   -30.6030 -30.6030 -30.5975 -30.5975 -30.5925 -30.5925 -30.5777 -30.5777
   -30.5745 -30.5745 -30.5542 -30.5542 -30.5524 -30.5524 -30.5335 -30.5335
   -20.4427 -20.4427 -20.4425 -20.4425 -20.4413 -20.4413 -20.4412 -20.4412
   -20.4229 -20.4229 -20.4226 -20.4226 -20.4205 -20.4205 -20.4201 -20.4201
   -20.4165 -20.4165 -20.4159 -20.4159 -20.4154 -20.4154 -20.4153 -20.4153
   -20.4130 -20.4130 -20.4127 -20.4127 -20.4113 -20.4113 -20.4110 -20.4110
   -20.4077 -20.4077 -20.4075 -20.4075 -20.4074 -20.4074 -20.4045 -20.4045
   -20.4042 -20.4042 -20.4022 -20.4022 -20.4020 -20.4020 -20.4019 -20.4018
   -20.3984 -20.3984 -20.3970 -20.3970 -20.3965 -20.3965 -20.3960 -20.3960
    -9.3022  -9.3022  -9.2436  -9.2436  -8.9102  -8.9102  -8.8564  -8.8563
    -8.6479  -8.6479  -8.6210  -8.6210  -8.4992  -8.4992  -8.4748  -8.4748
    -8.4503  -8.4503  -8.4117  -8.4117  -8.2557  -8.2557  -8.1629  -8.1629
     2.1201   2.1201   2.1971   2.1972   2.8568   2.8568   2.9253   2.9253
     3.0076   3.0076   3.0397   3.0397   3.1173   3.1173   3.1396   3.1396
     3.3272   3.3272   3.3654   3.3654   3.4959   3.4960   3.6206   3.6206
     3.7005   3.7005   3.8267   3.8267   4.1001   4.1001   4.1490   4.1490
     4.2195   4.2195   4.2630   4.2630   4.3617   4.3617   4.4294   4.4294
     4.5754   4.5754   4.6955   4.6955   4.9339   4.9339   4.9588   4.9588
     6.8709   6.8709   6.9962   6.9962   7.0404   7.0404   7.0617   7.0617
     7.1695   7.1695   7.2320   7.2320   7.3076   7.3076   7.3286   7.3286
     7.3972   7.3972   7.4772   7.4772   7.5003   7.5003   7.5667   7.5667
    11.3677  11.3677  11.4425  11.4425  11.5825  11.5825  11.6835  11.6835
    12.0422  12.0422  12.1070  12.1070  12.1616  12.1616  12.2355  12.2355
    12.3712  12.3712  12.5120  12.5120  12.7480  12.7480  12.8351  12.8351
    16.3515  16.3515  16.4580  16.4580  16.9277  16.9278  17.0150  17.0150
    17.2653  17.2653  17.3614  17.3615  17.4460

     the Fermi energy is     8.8196 ev

!    total energy              =   -6261.10973197 Ry
     Harris-Foulkes estimate   =   -6261.10973197 Ry
     estimated scf accuracy    <          3.3E-11 Ry

     The total energy is the sum of the following terms:

     one-electron contribution =   -4742.78387082 Ry
     hartree contribution      =    2606.71929020 Ry
     xc contribution           =    -965.66571867 Ry
     ewald contribution        =   -3159.37943268 Ry
     smearing contrib. (-TS)   =      -0.00000000 Ry

     convergence has been achieved in  16 iterations

     Forces acting on atoms (cartesian axes, Ry/au):

     atom    1 type  1   force =     0.00249333    0.00475354    0.00372404
     atom    2 type  1   force =     0.00266703   -0.00529272    0.00337679
     atom    3 type  1   force =    -0.00249333   -0.00475354    0.00372404
     atom    4 type  1   force =    -0.00266703    0.00529272    0.00337679
     atom    5 type  1   force =    -0.00249333    0.00475354   -0.00372404
     atom    6 type  1   force =    -0.00266703   -0.00529272   -0.00337679
     atom    7 type  1   force =     0.00249333   -0.00475354   -0.00372404
     atom    8 type  1   force =     0.00266703    0.00529272   -0.00337679
     atom    9 type  2   force =    -0.00067134   -0.00277299    0.00028969
     atom   10 type  2   force =    -0.00060788    0.00265636   -0.00023397
     atom   11 type  2   force =     0.00067134    0.00277299    0.00028969
     atom   12 type  2   force =     0.00060788   -0.00265636   -0.00023397
     atom   13 type  2   force =     0.00067134   -0.00277299   -0.00028969
     atom   14 type  2   force =     0.00060788    0.00265636    0.00023397
     atom   15 type  2   force =    -0.00067134    0.00277299   -0.00028969
     atom   16 type  2   force =    -0.00060788   -0.00265636    0.00023397
     atom   17 type  2   force =     0.00226055   -0.00089233   -0.00051503
     atom   18 type  2   force =     0.00184309   -0.00044231   -0.00004558
     atom   19 type  2   force =    -0.00226055    0.00089233   -0.00051503
     atom   20 type  2   force =    -0.00184309    0.00044231   -0.00004558
     atom   21 type  2   force =    -0.00226055   -0.00089233    0.00051503
     atom   22 type  2   force =    -0.00184309   -0.00044231    0.00004558
     atom   23 type  2   force =     0.00226055    0.00089233    0.00051503
     atom   24 type  2   force =     0.00184309    0.00044231    0.00004558
     atom   25 type  2   force =    -0.00117532   -0.00032960    0.00255054
     atom   26 type  2   force =     0.00125645    0.00021002    0.00230047
     atom   27 type  2   force =     0.00117532    0.00032960    0.00255054
     atom   28 type  2   force =    -0.00125645   -0.00021002    0.00230047
     atom   29 type  2   force =     0.00117532   -0.00032960   -0.00255054
     atom   30 type  2   force =    -0.00125645    0.00021002   -0.00230047
     atom   31 type  2   force =    -0.00117532    0.00032960   -0.00255054
     atom   32 type  2   force =     0.00125645   -0.00021002   -0.00230047

     Total force =     0.000000     Total SCF correction =     0.000000


     Computing stress (Cartesian axis) and pressure

          total   stress  (Ry/bohr**3)                   (kbar)     P=    0.33
   0.00000357   0.00000000   0.00000000          0.53      0.00      0.00
   0.00000000  -0.00000087   0.00000000          0.00     -0.13      0.00
   0.00000000   0.00000000   0.00000406          0.00      0.00      0.60


     Writing output data file Landau_11.save
 
     init_run     :     98.94s CPU    102.26s WALL (       2 calls)
     electrons    :  13273.74s CPU  13553.17s WALL (       6 calls)
     update_pot   :     89.08s CPU     89.41s WALL (       4 calls)
     forces       :    212.45s CPU    215.37s WALL (       6 calls)
     stress       :   1353.70s CPU   1373.36s WALL (       6 calls)

     Called by init_run:
     wfcinit      :     78.76s CPU     81.76s WALL (       2 calls)
     potinit      :      9.00s CPU      9.09s WALL (       2 calls)

     Called by electrons:
     c_bands      :  11965.80s CPU  12228.77s WALL (      92 calls)
     sum_band     :   1241.03s CPU   1251.77s WALL (      92 calls)
     v_of_rho     :      9.69s CPU      9.89s WALL (      97 calls)
     mix_rho      :     19.56s CPU     23.96s WALL (      92 calls)

     Called by c_bands:
     init_us_2    :     75.37s CPU     79.75s WALL (     396 calls)
     cegterg      :   9612.78s CPU   9858.77s WALL (     184 calls)

     Called by sum_band:

     Called by *egterg:
     h_psi        :   6867.16s CPU   6915.03s WALL (     730 calls)
     g_psi        :     12.07s CPU     12.17s WALL (     542 calls)
     cdiaghg      :    117.55s CPU    118.02s WALL (     716 calls)

     Called by h_psi:
     h_psi:pot    :   6834.13s CPU   6881.05s WALL (     730 calls)
     h_psi:calbec :   1080.12s CPU   1105.34s WALL (     730 calls)
     vloc_psi     :   4636.88s CPU   4651.56s WALL (     730 calls)
     add_vuspsi   :   1117.11s CPU   1124.15s WALL (     730 calls)

     General routines
     calbec       :   1221.27s CPU   1247.02s WALL (     790 calls)
     fft          :      8.82s CPU      8.86s WALL (     436 calls)
     fftw         :   4920.91s CPU   4934.40s WALL (  238342 calls)
 
     Parallel routines
 
     PWSCF        :     4h10m CPU        4h15m WALL

 
   This run was terminated on:   5:16:23  23Mar2020            

=------------------------------------------------------------------------------=
   JOB DONE.
=------------------------------------------------------------------------------=
