
     Program PWSCF v.6.2 (svn rev. 14038) starts on 26Mar2020 at  0: 3:45 

     This program is part of the open-source Quantum ESPRESSO suite
     for quantum simulation of materials; please cite
         "P. Giannozzi et al., J. Phys.:Condens. Matter 21 395502 (2009);
         "P. Giannozzi et al., J. Phys.:Condens. Matter 29 465901 (2017);
          URL http://www.quantum-espresso.org", 
     in publications or presentations arising from this work. More details at
     http://www.quantum-espresso.org/quote

     Parallel version (MPI), running on    40 processors

     MPI processes distributed on     5 nodes
     K-points division:     npool     =      40
     Reading input from scf.in

     Current dimensions of program PWSCF are:
     Max number of different atomic species (ntypx) = 10
     Max number of k-points (npk) =  40000
     Max angular momentum in pseudopotentials (lmaxx) =  3

     Subspace diagonalization in iterative solution of the eigenvalue problem:
     a serial algorithm will be used

 
     G-vector sticks info
     --------------------
     sticks:   dense  smooth     PW     G-vecs:    dense   smooth      PW
     Sum        7733    7733   2077               498197   498197   69057
 


     bravais-lattice index     =            0
     lattice parameter (alat)  =      13.8507  a.u.
     unit-cell volume          =    2805.5587 (a.u.)^3
     number of atoms/cell      =           32
     number of atomic types    =            2
     number of electrons       =       369.00
     number of Kohn-Sham states=          222
     kinetic-energy cutoff     =     120.0000  Ry
     charge density cutoff     =     480.0000  Ry
     convergence threshold     =      1.0E-08
     mixing beta               =       0.7000
     number of iterations used =            8  plain     mixing
     Exchange-correlation      = SLA PW NOGX NOGC ( 1  4  0  0 0 0)

     celldm(1)=  13.850722  celldm(2)=   0.000000  celldm(3)=   0.000000
     celldm(4)=   0.000000  celldm(5)=   0.000000  celldm(6)=   0.000000

     crystal axes: (cart. coord. in units of alat)
               a(1) = (   1.000000   0.000000   0.000000 )  
               a(2) = (   0.000000   1.055850   0.000000 )  
               a(3) = (   0.000000   0.000000   1.000000 )  

     reciprocal axes: (cart. coord. in units 2 pi/alat)
               b(1) = (  1.000000  0.000000  0.000000 )  
               b(2) = (  0.000000  0.947104  0.000000 )  
               b(3) = (  0.000000  0.000000  1.000000 )  


     PseudoPot. # 1 for W  read from file:
     /cluster/scratch/mnoe/QE/pps/W_ONCV_LDA-4.0.upf
     MD5 check sum: ba0307d5d4cd419d6f1d13dc49d7c13a
     Pseudo is Norm-conserving + core correction, Zval = 28.0
     Generated using ONCVPSP code by D. R. Hamann
     Using radial grid of 1380 points,  8 beta functions with: 
                l(1) =   0
                l(2) =   0
                l(3) =   1
                l(4) =   1
                l(5) =   2
                l(6) =   2
                l(7) =   3
                l(8) =   3

     PseudoPot. # 2 for O  read from file:
     /cluster/scratch/mnoe/QE/pps/O_ONCV_LDA-3.0.upf
     MD5 check sum: a1bd6164e7280c17a38c229939bfbd54
     Pseudo is Norm-conserving + core correction, Zval =  6.0
     Generated using ONCVPSP code by D. R. Hamann
     Using radial grid of  926 points,  5 beta functions with: 
                l(1) =   0
                l(2) =   0
                l(3) =   1
                l(4) =   1
                l(5) =   2

     atomic species   valence    mass     pseudopotential
        W             28.00   183.84000     W ( 1.00)
        O              6.00    15.99940     O ( 1.00)

      8 Sym. Ops. (no inversion) found ( 7 have fractional translation)



   Cartesian axes

     site n.     atom                  positions (alat units)
         1           W   tau(   1) = (   0.2446045   0.2972856  -0.0001545  )
         2           W   tau(   2) = (   0.7501545   0.7585641  -0.0053955  )
         3           W   tau(   3) = (   0.2553955   0.2306393   0.4998455  )
         4           W   tau(   4) = (   0.7498455   0.8252104   0.4946045  )
         5           W   tau(   5) = (   0.7553955   0.2972856   0.5001545  )
         6           W   tau(   6) = (   0.2498455   0.7585641   0.5053955  )
         7           W   tau(   7) = (   0.7446045   0.2306393   0.0001545  )
         8           W   tau(   8) = (   0.2501545   0.8252104   0.0053955  )
         9           O   tau(   9) = (   0.2440660   0.0086985  -0.0043050  )
        10           O   tau(  10) = (   0.7543050  -0.0086985  -0.0059340  )
        11           O   tau(  11) = (   0.2559340   0.5192263   0.4956950  )
        12           O   tau(  12) = (   0.7456950   0.5366234   0.4940660  )
        13           O   tau(  13) = (   0.7559340   0.0086985   0.5043050  )
        14           O   tau(  14) = (   0.2456950  -0.0086985   0.5059340  )
        15           O   tau(  15) = (   0.7440660   0.5192263   0.0043050  )
        16           O   tau(  16) = (   0.2543050   0.5366234   0.0059340  )
        17           O   tau(  17) = (   0.5019095   0.2572076   0.4502723  )
        18           O   tau(  18) = (   0.5003915   0.7962221   0.5497277  )
        19           O   tau(  19) = (  -0.0019095   0.2707172   0.9502723  )
        20           O   tau(  20) = (  -0.0003915   0.7875525   0.0497277  )
        21           O   tau(  21) = (   0.4980905   0.2572076   0.0497277  )
        22           O   tau(  22) = (   0.4996085   0.7962221   0.9502723  )
        23           O   tau(  23) = (   0.0019095   0.2707172   0.5497277  )
        24           O   tau(  24) = (   0.0003915   0.7875525   0.4502723  )
        25           O   tau(  25) = (   0.7002723   0.2682972   0.7496085  )
        26           O   tau(  26) = (   0.2997277   0.7986421   0.2519095  )
        27           O   tau(  27) = (   0.7997277   0.2596276   0.2496085  )
        28           O   tau(  28) = (   0.2002723   0.7851325   0.7519095  )
        29           O   tau(  29) = (   0.2997277   0.2682972   0.7503915  )
        30           O   tau(  30) = (   0.7002723   0.7986421   0.2480905  )
        31           O   tau(  31) = (   0.2002723   0.2596276   0.2503915  )
        32           O   tau(  32) = (   0.7997277   0.7851325   0.7480905  )

     number of k points=    40  gaussian smearing, width (Ry)=  0.0007
                       cart. coord. in units 2pi/alat
        k(    1) = (   0.0000000   0.0000000   0.0000000), wk =   0.0092593
        k(    2) = (   0.0000000   0.0000000   0.1666667), wk =   0.0370370
        k(    3) = (   0.0000000   0.0000000   0.3333333), wk =   0.0370370
        k(    4) = (   0.0000000   0.0000000  -0.5000000), wk =   0.0185185
        k(    5) = (   0.0000000   0.1578507   0.0000000), wk =   0.0185185
        k(    6) = (   0.0000000   0.1578507   0.1666667), wk =   0.0740741
        k(    7) = (   0.0000000   0.1578507   0.3333333), wk =   0.0740741
        k(    8) = (   0.0000000   0.1578507  -0.5000000), wk =   0.0370370
        k(    9) = (   0.0000000   0.3157015   0.0000000), wk =   0.0185185
        k(   10) = (   0.0000000   0.3157015   0.1666667), wk =   0.0740741
        k(   11) = (   0.0000000   0.3157015   0.3333333), wk =   0.0740741
        k(   12) = (   0.0000000   0.3157015  -0.5000000), wk =   0.0370370
        k(   13) = (   0.0000000  -0.4735522   0.0000000), wk =   0.0092593
        k(   14) = (   0.0000000  -0.4735522   0.1666667), wk =   0.0370370
        k(   15) = (   0.0000000  -0.4735522   0.3333333), wk =   0.0370370
        k(   16) = (   0.0000000  -0.4735522  -0.5000000), wk =   0.0185185
        k(   17) = (   0.1666667   0.0000000   0.1666667), wk =   0.0370370
        k(   18) = (   0.1666667   0.0000000   0.3333333), wk =   0.0740741
        k(   19) = (   0.1666667   0.0000000  -0.5000000), wk =   0.0370370
        k(   20) = (   0.1666667   0.1578507   0.1666667), wk =   0.0740741
        k(   21) = (   0.1666667   0.1578507   0.3333333), wk =   0.1481481
        k(   22) = (   0.1666667   0.1578507  -0.5000000), wk =   0.0740741
        k(   23) = (   0.1666667   0.3157015   0.1666667), wk =   0.0740741
        k(   24) = (   0.1666667   0.3157015   0.3333333), wk =   0.1481481
        k(   25) = (   0.1666667   0.3157015  -0.5000000), wk =   0.0740741
        k(   26) = (   0.1666667  -0.4735522   0.1666667), wk =   0.0370370
        k(   27) = (   0.1666667  -0.4735522   0.3333333), wk =   0.0740741
        k(   28) = (   0.1666667  -0.4735522  -0.5000000), wk =   0.0370370
        k(   29) = (   0.3333333   0.0000000   0.3333333), wk =   0.0370370
        k(   30) = (   0.3333333   0.0000000  -0.5000000), wk =   0.0370370
        k(   31) = (   0.3333333   0.1578507   0.3333333), wk =   0.0740741
        k(   32) = (   0.3333333   0.1578507  -0.5000000), wk =   0.0740741
        k(   33) = (   0.3333333   0.3157015   0.3333333), wk =   0.0740741
        k(   34) = (   0.3333333   0.3157015  -0.5000000), wk =   0.0740741
        k(   35) = (   0.3333333  -0.4735522   0.3333333), wk =   0.0370370
        k(   36) = (   0.3333333  -0.4735522  -0.5000000), wk =   0.0370370
        k(   37) = (  -0.5000000   0.0000000  -0.5000000), wk =   0.0092593
        k(   38) = (  -0.5000000   0.1578507  -0.5000000), wk =   0.0185185
        k(   39) = (  -0.5000000   0.3157015  -0.5000000), wk =   0.0185185
        k(   40) = (  -0.5000000  -0.4735522  -0.5000000), wk =   0.0092593

     Dense  grid:   498197 G-vectors     FFT dimensions: ( 100, 108, 100)

     Estimated max dynamical RAM per process >       2.73 GB

     Estimated total dynamical RAM >     109.05 GB

     Initial potential from superposition of free atoms

     starting charge  367.99656, renormalised to  369.00000
     Starting wfc are  232 randomized atomic wfcs

     total cpu time spent up to now is       27.1 secs

     Self-consistent Calculation

     iteration #  1     ecut=   120.00 Ry     beta= 0.70
     Davidson diagonalization with overlap
     ethr =  1.00E-02,  avg # of iterations =  5.6

     total cpu time spent up to now is      118.3 secs

     total energy              =   -6253.08318909 Ry
     Harris-Foulkes estimate   =   -6264.05210561 Ry
     estimated scf accuracy    <      13.77157893 Ry

     iteration #  2     ecut=   120.00 Ry     beta= 0.70
     Davidson diagonalization with overlap
     ethr =  3.73E-03,  avg # of iterations =  3.6

     total cpu time spent up to now is      207.1 secs

     total energy              =   -6250.15039501 Ry
     Harris-Foulkes estimate   =   -6269.91686824 Ry
     estimated scf accuracy    <      52.18601329 Ry

     iteration #  3     ecut=   120.00 Ry     beta= 0.70
     Davidson diagonalization with overlap
     ethr =  3.73E-03,  avg # of iterations =  3.4

     total cpu time spent up to now is      291.2 secs

     total energy              =   -6260.38404996 Ry
     Harris-Foulkes estimate   =   -6260.64647699 Ry
     estimated scf accuracy    <       0.89393233 Ry

     iteration #  4     ecut=   120.00 Ry     beta= 0.70
     Davidson diagonalization with overlap
     ethr =  2.42E-04,  avg # of iterations =  3.5

     total cpu time spent up to now is      361.7 secs

     total energy              =   -6260.37401123 Ry
     Harris-Foulkes estimate   =   -6260.44862035 Ry
     estimated scf accuracy    <       0.23351443 Ry

     iteration #  5     ecut=   120.00 Ry     beta= 0.70
     Davidson diagonalization with overlap
     ethr =  6.33E-05,  avg # of iterations =  4.5

     total cpu time spent up to now is      435.7 secs

     total energy              =   -6260.37492087 Ry
     Harris-Foulkes estimate   =   -6260.40708926 Ry
     estimated scf accuracy    <       0.07200754 Ry

     iteration #  6     ecut=   120.00 Ry     beta= 0.70
     Davidson diagonalization with overlap
     ethr =  1.95E-05,  avg # of iterations =  5.6

     total cpu time spent up to now is      513.5 secs

     total energy              =   -6260.39055766 Ry
     Harris-Foulkes estimate   =   -6260.39354346 Ry
     estimated scf accuracy    <       0.00761132 Ry

     iteration #  7     ecut=   120.00 Ry     beta= 0.70
     Davidson diagonalization with overlap
     ethr =  2.06E-06,  avg # of iterations =  7.0

     total cpu time spent up to now is      596.1 secs

     total energy              =   -6260.39164493 Ry
     Harris-Foulkes estimate   =   -6260.39170671 Ry
     estimated scf accuracy    <       0.00010549 Ry

     iteration #  8     ecut=   120.00 Ry     beta= 0.70
     Davidson diagonalization with overlap
     ethr =  2.86E-08,  avg # of iterations =  3.5

     total cpu time spent up to now is      688.2 secs

     total energy              =   -6260.39170178 Ry
     Harris-Foulkes estimate   =   -6260.39171484 Ry
     estimated scf accuracy    <       0.00005361 Ry

     iteration #  9     ecut=   120.00 Ry     beta= 0.70
     Davidson diagonalization with overlap
     ethr =  1.45E-08,  avg # of iterations =  1.1

     total cpu time spent up to now is      752.9 secs

     total energy              =   -6260.39169954 Ry
     Harris-Foulkes estimate   =   -6260.39170525 Ry
     estimated scf accuracy    <       0.00001833 Ry

     iteration # 10     ecut=   120.00 Ry     beta= 0.70
     Davidson diagonalization with overlap
     ethr =  4.97E-09,  avg # of iterations =  2.1

     total cpu time spent up to now is      820.6 secs

     total energy              =   -6260.39170058 Ry
     Harris-Foulkes estimate   =   -6260.39170184 Ry
     estimated scf accuracy    <       0.00000296 Ry

     iteration # 11     ecut=   120.00 Ry     beta= 0.70
     Davidson diagonalization with overlap
     ethr =  8.01E-10,  avg # of iterations =  3.0

     total cpu time spent up to now is      895.7 secs

     total energy              =   -6260.39170125 Ry
     Harris-Foulkes estimate   =   -6260.39170133 Ry
     estimated scf accuracy    <       0.00000022 Ry

     iteration # 12     ecut=   120.00 Ry     beta= 0.70
     Davidson diagonalization with overlap
     ethr =  6.03E-11,  avg # of iterations =  2.0

     total cpu time spent up to now is      966.2 secs

     total energy              =   -6260.39170123 Ry
     Harris-Foulkes estimate   =   -6260.39170127 Ry
     estimated scf accuracy    <       0.00000005 Ry

     iteration # 13     ecut=   120.00 Ry     beta= 0.70
     Davidson diagonalization with overlap
     ethr =  1.49E-11,  avg # of iterations =  3.0

     total cpu time spent up to now is     1051.3 secs

     End of self-consistent calculation

          k = 0.0000 0.0000 0.0000 ( 62231 PWs)   bands (ev):

   -65.9478 -65.9474 -65.9468 -65.9468 -65.9464 -65.9464 -65.9458 -65.9454
   -30.4219 -30.4183 -30.4183 -30.4148 -30.3615 -30.3581 -30.3581 -30.3548
   -30.2884 -30.2860 -30.2819 -30.2819 -30.2813 -30.2799 -30.2753 -30.2753
   -30.1861 -30.1860 -30.1826 -30.1812 -30.1795 -30.1795 -30.1756 -30.1743
   -20.1048 -20.1045 -20.1045 -20.1043 -20.0994 -20.0991 -20.0991 -20.0988
   -20.0917 -20.0914 -20.0914 -20.0912 -20.0905 -20.0901 -20.0901 -20.0898
   -20.0898 -20.0897 -20.0897 -20.0895 -20.0885 -20.0882 -20.0882 -20.0882
   -20.0874 -20.0872 -20.0872 -20.0869 -20.0861 -20.0861 -20.0861 -20.0858
   -20.0702 -20.0701 -20.0698 -20.0698 -20.0697 -20.0697 -20.0695 -20.0694
   -20.0232 -20.0232 -20.0229 -20.0229 -20.0216 -20.0216 -20.0214 -20.0213
   -20.0174 -20.0174 -20.0172 -20.0172 -20.0160 -20.0160 -20.0156 -20.0156
    -9.8959  -9.5924  -9.4646  -9.4646  -9.1580  -9.1580  -9.0740  -8.9631
    -8.9504  -8.8518  -8.8119  -8.8119  -7.8502  -7.7880  -7.7880  -7.7349
    -7.7022  -7.6984  -7.6744  -7.6683  -7.5483  -7.5483  -7.5227  -7.5227
     1.3163   1.3166   1.3774   1.3774   1.4066   1.4066   1.4240   1.6553
     1.6623   1.6623   1.7396   1.9263   2.4749   2.5531   2.5972   2.6046
     2.7539   2.7539   4.1980   4.1980   4.4270   4.4274   4.8358   4.8561
     4.9344   4.9344   4.9614   4.9614   5.0644   5.0644   5.1062   5.4481
     5.4484   5.5550   5.5550   5.5780   5.5780   5.6185   5.6185   5.8542
     5.8542   5.9201   5.9209   5.9520   5.9821   6.1007   6.1047   6.2027
     6.2031   6.3025   6.3036   6.5994   6.5994   6.8319   6.8319   6.8724
     6.8738   6.9101   7.0510   7.0539   7.1213   7.1213   7.4560   7.4560
     7.5034   7.5034   7.8649   7.8799   8.1011   8.1011   8.1588   8.1703
     9.4325   9.4363  10.0750  10.0779  10.1075  10.1075  12.3672  12.3672
    12.4064  12.4064  12.4738  12.4738  12.5905  12.6048  12.9924  13.0335
    13.3106  13.3521  13.4864  13.4864  13.8645  14.2190  14.2190  14.2490
    14.2860  14.5041  14.5041  14.8359  15.5686  15.5739  15.5860  16.1852
    16.1852  16.9011  17.1280  17.1280  17.3669  17.4104

          k = 0.0000 0.0000 0.1667 ( 62264 PWs)   bands (ev):

   -65.9477 -65.9473 -65.9469 -65.9467 -65.9464 -65.9463 -65.9458 -65.9454
   -30.4217 -30.4185 -30.4181 -30.4151 -30.3613 -30.3583 -30.3580 -30.3551
   -30.2871 -30.2823 -30.2809 -30.2796 -30.2757 -30.2752 -30.2738 -30.2685
   -30.1929 -30.1886 -30.1864 -30.1858 -30.1828 -30.1809 -30.1792 -30.1752
   -20.1048 -20.1045 -20.1045 -20.1043 -20.0994 -20.0991 -20.0991 -20.0988
   -20.0917 -20.0914 -20.0912 -20.0911 -20.0904 -20.0901 -20.0899 -20.0898
   -20.0898 -20.0898 -20.0895 -20.0895 -20.0884 -20.0882 -20.0881 -20.0881
   -20.0875 -20.0873 -20.0872 -20.0870 -20.0863 -20.0862 -20.0861 -20.0859
   -20.0702 -20.0700 -20.0698 -20.0698 -20.0697 -20.0697 -20.0695 -20.0694
   -20.0231 -20.0229 -20.0227 -20.0225 -20.0217 -20.0215 -20.0213 -20.0210
   -20.0178 -20.0176 -20.0173 -20.0171 -20.0163 -20.0161 -20.0159 -20.0157
    -9.8503  -9.5386  -9.4813  -9.4082  -9.1726  -9.0824  -9.0684  -8.9260
    -8.9089  -8.8369  -8.8166  -8.7765  -7.8540  -7.8172  -7.8084  -7.7918
    -7.7746  -7.7383  -7.6899  -7.6768  -7.6625  -7.6547  -7.5580  -7.5323
     1.3788   1.3789   1.4052   1.4129   1.4933   1.5315   1.6477   1.6569
     1.6625   1.7671   1.9127   2.0568   2.5610   2.6105   2.6446   2.6902
     2.7451   2.8443   4.1287   4.2007   4.4164   4.4384   4.4488   4.5626
     4.6965   4.8206   4.8404   4.9952   5.0037   5.0569   5.0881   5.3618
     5.3990   5.4391   5.5404   5.5643   5.5876   5.6295   5.6460   5.6916
     5.7750   5.8143   5.8375   5.9707   5.9996   6.1397   6.1660   6.1989
     6.3271   6.4743   6.5446   6.5868   6.6945   6.7246   6.8003   6.8644
     6.8648   6.8974   7.0088   7.0400   7.0619   7.1290   7.2401   7.2513
     7.2754   7.3387   7.8824   7.8861   8.0602   8.1157   8.1216   8.1664
     9.7666   9.7994  10.0792  10.1053  10.3365  10.3892  12.3138  12.3461
    12.3863  12.4341  12.4573  12.4989  12.6003  12.6989  13.0114  13.0344
    13.1623  13.3214  13.3918  13.4868  13.9683  14.1103  14.1394  14.2174
    14.2758  14.4980  14.6038  14.9458  15.5341  15.6041  15.6328  16.1571
    16.4922  16.8250  17.0712  17.3158  17.4540  17.4622

          k = 0.0000 0.0000 0.3333 ( 62262 PWs)   bands (ev):

   -65.9475 -65.9471 -65.9470 -65.9466 -65.9465 -65.9461 -65.9460 -65.9456
   -30.4212 -30.4193 -30.4176 -30.4158 -30.3608 -30.3591 -30.3575 -30.3558
   -30.2860 -30.2833 -30.2794 -30.2767 -30.2618 -30.2569 -30.2553 -30.2502
   -30.2114 -30.2069 -30.2049 -30.2002 -30.1849 -30.1827 -30.1784 -30.1761
   -20.1048 -20.1046 -20.1045 -20.1044 -20.0994 -20.0992 -20.0991 -20.0989
   -20.0916 -20.0914 -20.0908 -20.0908 -20.0903 -20.0901 -20.0900 -20.0900
   -20.0898 -20.0896 -20.0893 -20.0891 -20.0883 -20.0883 -20.0879 -20.0879
   -20.0878 -20.0878 -20.0871 -20.0871 -20.0868 -20.0866 -20.0861 -20.0860
   -20.0701 -20.0700 -20.0699 -20.0698 -20.0697 -20.0696 -20.0695 -20.0695
   -20.0228 -20.0225 -20.0220 -20.0218 -20.0217 -20.0216 -20.0203 -20.0200
   -20.0189 -20.0187 -20.0174 -20.0172 -20.0170 -20.0168 -20.0163 -20.0160
    -9.7396  -9.5325  -9.4139  -9.2805  -9.2170  -9.1107  -8.8710  -8.8294
    -8.8133  -8.7625  -8.7254  -8.6430  -8.1261  -8.1119  -8.0196  -7.9971
    -7.8242  -7.8019  -7.7718  -7.7476  -7.6601  -7.6332  -7.5848  -7.5588
     1.3826   1.3892   1.4296   1.4564   1.5980   1.6098   1.6313   1.6475
     2.3503   2.3828   2.5497   2.6281   2.6367   2.7390   2.8102   2.9118
     2.9342   3.0879   3.8308   3.8717   3.9343   4.0320   4.2040   4.3489
     4.3761   4.5669   4.6223   4.8074   4.8384   4.8893   5.0195   5.0321
     5.2142   5.2586   5.2836   5.3740   5.5070   5.5461   5.6369   5.6883
     5.7208   5.7664   5.8050   6.0219   6.0332   6.2401   6.3084   6.3239
     6.3715   6.4108   6.5527   6.5546   6.6116   6.6271   6.7161   6.7993
     6.8584   6.9012   6.9151   7.0517   7.0813   7.0925   7.1252   7.1866
     7.3590   7.3865   7.8206   7.8418   7.9368   7.9870   8.1496   8.1676
    10.0784  10.0987  10.4750  10.5522  10.9474  11.0618  11.9455  11.9962
    12.1621  12.5800  12.5810  12.5956  12.6359  12.6885  12.7922  12.9647
    13.0315  13.2130  13.2626  13.4951  13.7724  13.7949  14.1787  14.2130
    14.3386  14.4782  14.9044  15.2451  15.4235  15.7422  15.9941  16.0714
    16.2547  17.3217  17.4365  17.6035  17.6085  17.7017

          k = 0.0000 0.0000-0.5000 ( 62312 PWs)   bands (ev):

   -65.9473 -65.9473 -65.9469 -65.9469 -65.9463 -65.9463 -65.9459 -65.9459
   -30.4203 -30.4203 -30.4168 -30.4168 -30.3600 -30.3600 -30.3567 -30.3567
   -30.2846 -30.2846 -30.2780 -30.2780 -30.2366 -30.2366 -30.2319 -30.2319
   -30.2302 -30.2302 -30.2252 -30.2252 -30.1838 -30.1838 -30.1773 -30.1773
   -20.1047 -20.1047 -20.1044 -20.1044 -20.0993 -20.0993 -20.0990 -20.0990
   -20.0915 -20.0915 -20.0904 -20.0904 -20.0903 -20.0903 -20.0902 -20.0902
   -20.0897 -20.0897 -20.0887 -20.0887 -20.0885 -20.0885 -20.0882 -20.0882
   -20.0874 -20.0874 -20.0874 -20.0874 -20.0870 -20.0870 -20.0860 -20.0860
   -20.0700 -20.0700 -20.0699 -20.0699 -20.0696 -20.0696 -20.0695 -20.0695
   -20.0224 -20.0224 -20.0221 -20.0221 -20.0204 -20.0204 -20.0202 -20.0202
   -20.0189 -20.0189 -20.0186 -20.0186 -20.0166 -20.0166 -20.0164 -20.0164
    -9.6209  -9.6209  -9.2956  -9.2956  -9.1709  -9.1709  -8.8472  -8.8472
    -8.4832  -8.4832  -8.4604  -8.4604  -8.4351  -8.4351  -8.3667  -8.3667
    -7.8151  -7.8151  -7.7601  -7.7601  -7.6221  -7.6221  -7.5956  -7.5956
     1.3868   1.3868   1.4494   1.4494   1.6150   1.6150   1.6385   1.6385
     2.6708   2.6708   3.0468   3.0468   3.1959   3.1959   3.2032   3.2032
     3.3530   3.3530   3.4254   3.4254   3.5573   3.5573   3.8406   3.8406
     3.9305   3.9305   4.5020   4.5020   4.7618   4.7618   4.9487   4.9487
     5.2759   5.2759   5.4038   5.4038   5.4106   5.4106   5.6799   5.6799
     5.7659   5.7659   5.9497   5.9497   6.2251   6.2251   6.2907   6.2907
     6.3943   6.3943   6.4897   6.4897   6.5090   6.5090   6.5923   6.5923
     6.8310   6.8311   6.8628   6.8628   7.1038   7.1038   7.5469   7.5469
     7.6150   7.6150   7.7220   7.7220   7.7404   7.7404   8.1651   8.1651
    10.0888  10.0888  11.2654  11.2654  11.3423  11.3423  11.6388  11.6388
    11.8571  11.8571  12.6418  12.6418  12.8038  12.8038  12.9128  12.9128
    13.0154  13.0154  13.3598  13.3598  13.5503  13.5503  14.2057  14.2057
    14.4346  14.4346  15.2160  15.2160  15.6920  15.6920  15.9290  15.9290
    16.7256  16.7256  17.7866  17.7866  18.0450  18.1349

          k = 0.0000 0.1579 0.0000 ( 62239 PWs)   bands (ev):

   -65.9478 -65.9474 -65.9468 -65.9468 -65.9464 -65.9464 -65.9458 -65.9454
   -30.4178 -30.4142 -30.4142 -30.4108 -30.3655 -30.3621 -30.3621 -30.3589
   -30.2881 -30.2860 -30.2818 -30.2818 -30.2813 -30.2801 -30.2754 -30.2754
   -30.1860 -30.1860 -30.1825 -30.1812 -30.1796 -30.1796 -30.1755 -30.1745
   -20.1045 -20.1042 -20.1042 -20.1039 -20.0998 -20.0995 -20.0995 -20.0992
   -20.0917 -20.0913 -20.0913 -20.0912 -20.0905 -20.0901 -20.0901 -20.0899
   -20.0897 -20.0897 -20.0897 -20.0895 -20.0885 -20.0882 -20.0882 -20.0882
   -20.0873 -20.0871 -20.0871 -20.0869 -20.0862 -20.0862 -20.0862 -20.0859
   -20.0702 -20.0701 -20.0698 -20.0698 -20.0697 -20.0697 -20.0695 -20.0694
   -20.0232 -20.0232 -20.0229 -20.0229 -20.0216 -20.0216 -20.0214 -20.0213
   -20.0174 -20.0174 -20.0172 -20.0172 -20.0160 -20.0160 -20.0156 -20.0156
    -9.8649  -9.6045  -9.4243  -9.4243  -9.1659  -9.1659  -8.9999  -8.9622
    -8.9512  -8.8074  -8.7769  -8.7769  -7.9444  -7.8876  -7.8876  -7.8420
    -7.7016  -7.6969  -7.6760  -7.6700  -7.5473  -7.5473  -7.5240  -7.5240
     1.3163   1.3165   1.3911   1.3911   1.4074   1.4074   1.5704   1.7389
     1.8373   1.8895   1.8895   2.0791   2.4800   2.5477   2.6694   2.6773
     2.8226   2.8226   4.0627   4.0627   4.1471   4.1474   4.8024   4.9176
     4.9335   4.9335   4.9516   4.9516   4.9610   5.0074   5.0074   5.3111
     5.3111   5.5084   5.5084   5.6226   5.6613   5.6800   5.6863   5.6863
     5.8453   5.8470   5.9117   5.9117   5.9921   6.1068   6.1092   6.2058
     6.2077   6.3007   6.3018   6.6222   6.6222   6.8583   6.8650   6.8650
     6.9040   6.9123   6.9262   7.0424   7.0424   7.0466   7.4632   7.4632
     7.5038   7.5038   7.8693   7.8790   8.0590   8.0590   8.0802   8.0883
     9.4329   9.4369  10.2742  10.2747  10.2777  10.2777  12.2520  12.2520
    12.4151  12.4151  12.4348  12.4471  12.4708  12.4708  12.9980  13.0332
    13.3460  13.3823  13.4915  13.4915  14.0776  14.1479  14.1479  14.1505
    14.2894  14.7601  14.7601  15.0153  15.5740  15.5841  15.9690  16.1508
    16.1508  16.5557  17.2603  17.2603  17.4256  17.4971

          k = 0.0000 0.1579 0.1667 ( 62260 PWs)   bands (ev):

   -65.9477 -65.9473 -65.9468 -65.9467 -65.9465 -65.9463 -65.9458 -65.9455
   -30.4177 -30.4145 -30.4141 -30.4111 -30.3654 -30.3624 -30.3620 -30.3592
   -30.2869 -30.2822 -30.2810 -30.2795 -30.2758 -30.2751 -30.2739 -30.2687
   -30.1928 -30.1886 -30.1865 -30.1857 -30.1828 -30.1809 -30.1793 -30.1753
   -20.1045 -20.1042 -20.1042 -20.1039 -20.0998 -20.0995 -20.0995 -20.0992
   -20.0916 -20.0914 -20.0912 -20.0911 -20.0904 -20.0901 -20.0900 -20.0898
   -20.0898 -20.0898 -20.0895 -20.0895 -20.0884 -20.0883 -20.0881 -20.0881
   -20.0874 -20.0873 -20.0871 -20.0870 -20.0863 -20.0863 -20.0862 -20.0860
   -20.0701 -20.0700 -20.0698 -20.0698 -20.0698 -20.0697 -20.0695 -20.0694
   -20.0231 -20.0229 -20.0227 -20.0225 -20.0217 -20.0215 -20.0213 -20.0210
   -20.0178 -20.0176 -20.0173 -20.0171 -20.0163 -20.0161 -20.0159 -20.0157
    -9.8179  -9.5507  -9.4412  -9.3632  -9.1807  -9.0764  -9.0083  -8.9236
    -8.9097  -8.7953  -8.7815  -8.7462  -7.9440  -7.8969  -7.8861  -7.8483
    -7.8189  -7.7929  -7.6891  -7.6761  -7.6638  -7.6537  -7.5570  -7.5336
     1.3956   1.3963   1.4065   1.4138   1.6136   1.6575   1.6639   1.8470
     1.8845   1.9122   1.9191   2.1525   2.5674   2.6386   2.6826   2.7646
     2.8144   2.9125   4.0280   4.0798   4.1395   4.1843   4.4749   4.5599
     4.7237   4.7437   4.8282   4.9313   4.9814   4.9930   5.0253   5.2672
     5.3003   5.3406   5.3806   5.5324   5.6205   5.6350   5.6805   5.7129
     5.7624   5.8125   5.8470   5.8778   5.9239   6.1652   6.1785   6.2007
     6.2732   6.4612   6.5223   6.6107   6.7369   6.7988   6.8212   6.8469
     6.8836   6.9177   6.9904   7.0084   7.0467   7.0631   7.2404   7.2511
     7.2889   7.3387   7.8844   7.8856   8.0203   8.0471   8.0603   8.0862
     9.7730   9.7995  10.2749  10.2791  10.5029  10.5286  12.2306  12.3312
    12.3348  12.3769  12.4367  12.4474  12.4717  12.5881  13.0225  13.0385
    13.1901  13.3479  13.3991  13.4898  13.9931  14.0243  14.1291  14.1460
    14.3788  14.7544  14.8963  15.1098  15.6034  15.6322  15.9344  16.1234
    16.4555  16.7071  16.9478  17.4275  17.5101  17.5682

          k = 0.0000 0.1579 0.3333 ( 62284 PWs)   bands (ev):

   -65.9475 -65.9472 -65.9470 -65.9467 -65.9465 -65.9462 -65.9460 -65.9456
   -30.4171 -30.4153 -30.4136 -30.4118 -30.3649 -30.3631 -30.3616 -30.3599
   -30.2859 -30.2832 -30.2795 -30.2768 -30.2617 -30.2568 -30.2555 -30.2503
   -30.2113 -30.2069 -30.2050 -30.2003 -30.1849 -30.1826 -30.1784 -30.1762
   -20.1044 -20.1043 -20.1041 -20.1040 -20.0998 -20.0996 -20.0995 -20.0993
   -20.0915 -20.0914 -20.0908 -20.0907 -20.0903 -20.0902 -20.0900 -20.0900
   -20.0898 -20.0896 -20.0893 -20.0891 -20.0883 -20.0883 -20.0879 -20.0879
   -20.0878 -20.0878 -20.0871 -20.0871 -20.0868 -20.0867 -20.0861 -20.0861
   -20.0701 -20.0700 -20.0699 -20.0698 -20.0697 -20.0696 -20.0695 -20.0695
   -20.0228 -20.0225 -20.0220 -20.0218 -20.0217 -20.0216 -20.0203 -20.0200
   -20.0189 -20.0187 -20.0174 -20.0172 -20.0170 -20.0168 -20.0163 -20.0160
    -9.7042  -9.4931  -9.4255  -9.2259  -9.2221  -9.0371  -8.8467  -8.8216
    -8.7941  -8.7640  -8.7090  -8.6261  -8.1301  -8.1140  -8.0416  -7.9969
    -7.9113  -7.8951  -7.8696  -7.8400  -7.6591  -7.6347  -7.5838  -7.5602
     1.4080   1.4301   1.4311   1.4573   1.7779   1.8007   1.8798   1.8847
     2.3489   2.3921   2.5543   2.6434   2.7085   2.7987   2.8213   2.9090
     3.0104   3.1491   3.8300   3.8718   3.9282   3.9772   4.1607   4.1998
     4.2625   4.3908   4.6398   4.7568   4.8187   4.8634   4.8764   4.9133
     5.0557   5.1844   5.2186   5.2614   5.4030   5.4705   5.5600   5.6352
     5.7189   5.7582   5.8045   5.8541   6.0144   6.1921   6.2763   6.3172
     6.3799   6.5667   6.5951   6.6252   6.6838   6.6955   6.7597   6.8510
     6.8584   6.8704   6.9735   7.0029   7.0425   7.0799   7.1249   7.1760
     7.3522   7.3810   7.8240   7.8391   7.9026   7.9299   8.0782   8.0886
    10.2709  10.2776  10.4856  10.5534  11.0620  11.1513  11.9471  11.9940
    12.1266  12.4549  12.5504  12.5782  12.6204  12.6462  12.7415  12.8606
    13.0223  13.2150  13.2801  13.4891  13.6759  13.7066  14.1342  14.1421
    14.5918  14.7358  15.2473  15.3815  15.7313  15.8234  16.0089  16.0411
    16.3797  17.1486  17.2769  17.4888  17.7430  17.8105

          k = 0.0000 0.1579-0.5000 ( 62252 PWs)   bands (ev):

   -65.9473 -65.9473 -65.9469 -65.9469 -65.9463 -65.9463 -65.9459 -65.9459
   -30.4163 -30.4163 -30.4128 -30.4128 -30.3640 -30.3640 -30.3608 -30.3608
   -30.2845 -30.2845 -30.2781 -30.2781 -30.2366 -30.2366 -30.2319 -30.2319
   -30.2303 -30.2303 -30.2253 -30.2253 -30.1838 -30.1838 -30.1773 -30.1773
   -20.1044 -20.1044 -20.1041 -20.1041 -20.0997 -20.0997 -20.0994 -20.0994
   -20.0915 -20.0915 -20.0904 -20.0904 -20.0903 -20.0903 -20.0902 -20.0902
   -20.0897 -20.0897 -20.0886 -20.0886 -20.0885 -20.0885 -20.0882 -20.0882
   -20.0874 -20.0874 -20.0874 -20.0874 -20.0870 -20.0870 -20.0861 -20.0861
   -20.0700 -20.0700 -20.0699 -20.0699 -20.0696 -20.0696 -20.0695 -20.0695
   -20.0224 -20.0224 -20.0221 -20.0221 -20.0204 -20.0204 -20.0202 -20.0202
   -20.0189 -20.0189 -20.0186 -20.0186 -20.0166 -20.0166 -20.0164 -20.0164
    -9.5829  -9.5829  -9.3057  -9.3057  -9.1007  -9.1007  -8.8129  -8.8129
    -8.4866  -8.4866  -8.4573  -8.4573  -8.4447  -8.4447  -8.3615  -8.3615
    -7.9085  -7.9085  -7.8587  -7.8587  -7.6211  -7.6211  -7.5970  -7.5970
     1.4231   1.4231   1.4502   1.4502   1.7992   1.7992   1.8880   1.8880
     2.7398   2.7398   3.0646   3.0646   3.1931   3.1931   3.2464   3.2464
     3.3593   3.3593   3.4232   3.4232   3.5456   3.5456   3.8389   3.8389
     3.9775   3.9776   4.2958   4.2958   4.6787   4.6787   4.7762   4.7762
     5.0978   5.0978   5.3681   5.3681   5.3774   5.3774   5.5273   5.5273
     5.7227   5.7227   5.8304   5.8304   6.2280   6.2280   6.3645   6.3645
     6.4205   6.4205   6.5114   6.5114   6.5809   6.5809   6.6855   6.6855
     6.8856   6.8856   6.8890   6.8890   7.0232   7.0232   7.5554   7.5554
     7.6084   7.6084   7.6952   7.6952   7.7140   7.7140   8.0882   8.0882
    10.2770  10.2770  11.2718  11.2718  11.3397  11.3397  11.7033  11.7033
    11.9170  11.9170  12.5112  12.5112  12.7771  12.7771  12.9198  12.9198
    12.9581  12.9581  13.2632  13.2632  13.5167  13.5167  14.1376  14.1376
    14.6958  14.6958  15.5806  15.5806  15.8366  15.8366  15.9061  15.9061
    16.7643  16.7643  17.5942  17.5942  18.0609  18.0610

          k = 0.0000 0.3157 0.0000 ( 62235 PWs)   bands (ev):

   -65.9477 -65.9475 -65.9467 -65.9467 -65.9465 -65.9465 -65.9457 -65.9455
   -30.4068 -30.4033 -30.4033 -30.3999 -30.3766 -30.3732 -30.3731 -30.3699
   -30.2876 -30.2863 -30.2816 -30.2816 -30.2813 -30.2805 -30.2757 -30.2757
   -30.1858 -30.1858 -30.1821 -30.1813 -30.1797 -30.1797 -30.1754 -30.1748
   -20.1035 -20.1032 -20.1032 -20.1029 -20.1008 -20.1005 -20.1005 -20.1002
   -20.0915 -20.0912 -20.0912 -20.0912 -20.0904 -20.0902 -20.0902 -20.0900
   -20.0897 -20.0897 -20.0897 -20.0895 -20.0884 -20.0883 -20.0883 -20.0882
   -20.0871 -20.0870 -20.0870 -20.0867 -20.0864 -20.0863 -20.0863 -20.0861
   -20.0702 -20.0701 -20.0698 -20.0698 -20.0698 -20.0698 -20.0694 -20.0694
   -20.0232 -20.0232 -20.0229 -20.0229 -20.0216 -20.0216 -20.0214 -20.0213
   -20.0174 -20.0174 -20.0172 -20.0172 -20.0160 -20.0160 -20.0156 -20.0156
    -9.7890  -9.6417  -9.3320  -9.3320  -9.1921  -9.1921  -8.9599  -8.9535
    -8.7905  -8.6681  -8.6559  -8.6559  -8.1853  -8.1379  -8.1379  -8.1138
    -7.6980  -7.6934  -7.6795  -7.6746  -7.5444  -7.5444  -7.5272  -7.5272
     1.3163   1.3164   1.3983   1.3983   1.4091   1.4091   1.6986   1.7358
     2.3955   2.4939   2.5330   2.5444   2.5444   2.7125   2.8816   2.8939
     3.0241   3.0241   3.6665   3.6698   3.7164   3.7164   4.1676   4.4917
     4.4917   4.7638   4.9395   4.9395   4.9652   4.9652   5.0656   5.0656
     5.0865   5.0903   5.4106   5.4106   5.6112   5.6132   5.7458   5.7458
     5.8965   5.8965   5.9466   5.9495   6.1028   6.1032   6.1059   6.2197
     6.2243   6.2834   6.2846   6.5579   6.6844   6.6844   6.9031   6.9031
     6.9519   7.0230   7.1101   7.1113   7.1288   7.1288   7.4718   7.4718
     7.5058   7.5058   7.8383   7.8439   7.8800   7.8821   7.8840   7.8840
     9.4340   9.4367  10.7324  10.7324  10.7753  10.7801  11.8789  11.8789
    12.0066  12.0164  12.4361  12.4361  12.4694  12.4694  13.0109  13.0306
    13.4580  13.4826  13.5517  13.5517  13.9072  13.9166  13.9374  13.9374
    14.8093  15.3281  15.3281  15.5746  15.5800  15.6596  15.9711  16.0342
    16.0342  16.9645  17.2657  17.6019  17.7155  17.7155

          k = 0.0000 0.3157 0.1667 ( 62265 PWs)   bands (ev):

   -65.9476 -65.9474 -65.9468 -65.9466 -65.9465 -65.9464 -65.9457 -65.9455
   -30.4066 -30.4035 -30.4031 -30.4002 -30.3764 -30.3734 -30.3730 -30.3702
   -30.2867 -30.2820 -30.2813 -30.2794 -30.2761 -30.2749 -30.2742 -30.2689
   -30.1926 -30.1884 -30.1867 -30.1855 -30.1829 -30.1808 -30.1794 -30.1755
   -20.1035 -20.1032 -20.1032 -20.1029 -20.1008 -20.1005 -20.1005 -20.1002
   -20.0915 -20.0913 -20.0911 -20.0911 -20.0904 -20.0902 -20.0901 -20.0899
   -20.0897 -20.0897 -20.0896 -20.0896 -20.0884 -20.0883 -20.0882 -20.0882
   -20.0872 -20.0872 -20.0870 -20.0868 -20.0865 -20.0865 -20.0863 -20.0862
   -20.0701 -20.0701 -20.0698 -20.0698 -20.0698 -20.0697 -20.0695 -20.0694
   -20.0231 -20.0229 -20.0227 -20.0225 -20.0217 -20.0215 -20.0213 -20.0210
   -20.0178 -20.0176 -20.0173 -20.0171 -20.0163 -20.0161 -20.0159 -20.0157
    -9.7392  -9.5882  -9.3490  -9.2586  -9.2076  -9.1037  -8.9197  -8.9121
    -8.7986  -8.6609  -8.6603  -8.6374  -8.1853  -8.1450  -8.1343  -8.1194
    -7.8165  -7.7982  -7.6862  -7.6738  -7.6670  -7.6558  -7.5542  -7.5368
     1.3999   1.4040   1.4078   1.4155   1.6496   1.6635   1.8582   1.9084
     2.3981   2.5215   2.5452   2.5828   2.6235   2.7034   2.8960   2.9904
     3.0178   3.1209   3.6698   3.7032   3.7163   3.7610   4.1596   4.4557
     4.5070   4.5114   4.5841   4.7671   4.7910   4.9036   4.9806   5.0018
     5.0669   5.1055   5.2104   5.3490   5.4465   5.5133   5.6197   5.6730
     5.7284   5.8390   5.8487   5.8753   6.0923   6.1602   6.1884   6.2170
     6.2853   6.4701   6.4980   6.6175   6.6740   6.8853   6.9134   6.9622
     6.9987   7.0160   7.0978   7.1027   7.1194   7.1388   7.2433   7.2524
     7.3158   7.3448   7.8193   7.8428   7.8497   7.8684   7.8933   7.8946
     9.7835   9.7973  10.7371  10.7767  10.9173  10.9457  11.8772  11.9744
    12.0142  12.0897  12.3450  12.3732  12.4878  12.5260  13.0368  13.0542
    13.2919  13.4237  13.4709  13.5472  13.7616  13.8095  13.9122  13.9339
    14.9504  15.3191  15.5261  15.6025  15.6321  15.7268  16.0079  16.1331
    16.3299  16.9275  17.3214  17.3528  17.6730  17.8291

          k = 0.0000 0.3157 0.3333 ( 62291 PWs)   bands (ev):

   -65.9474 -65.9472 -65.9469 -65.9467 -65.9464 -65.9462 -65.9459 -65.9457
   -30.4061 -30.4043 -30.4027 -30.4009 -30.3759 -30.3742 -30.3726 -30.3709
   -30.2857 -30.2830 -30.2798 -30.2770 -30.2616 -30.2567 -30.2557 -30.2505
   -30.2112 -30.2067 -30.2052 -30.2005 -30.1847 -30.1825 -30.1786 -30.1764
   -20.1035 -20.1033 -20.1032 -20.1030 -20.1008 -20.1006 -20.1005 -20.1003
   -20.0914 -20.0913 -20.0908 -20.0907 -20.0903 -20.0902 -20.0899 -20.0899
   -20.0899 -20.0897 -20.0893 -20.0891 -20.0884 -20.0883 -20.0880 -20.0879
   -20.0877 -20.0877 -20.0870 -20.0870 -20.0869 -20.0869 -20.0863 -20.0862
   -20.0700 -20.0700 -20.0699 -20.0698 -20.0697 -20.0697 -20.0695 -20.0695
   -20.0228 -20.0225 -20.0220 -20.0218 -20.0217 -20.0216 -20.0203 -20.0200
   -20.0189 -20.0187 -20.0174 -20.0172 -20.0170 -20.0168 -20.0163 -20.0160
    -9.6189  -9.4622  -9.4014  -9.2549  -9.0757  -8.8538  -8.8292  -8.8009
    -8.7689  -8.6742  -8.6226  -8.5590  -8.2164  -8.2038  -8.1376  -8.1245
    -8.1105  -8.0586  -7.9917  -7.9554  -7.6561  -7.6382  -7.5809  -7.5634
     1.4199   1.4322   1.4462   1.4593   2.2520   2.3389   2.3518   2.4259
     2.5362   2.5587   2.5623   2.7949   2.8528   2.8814   2.9201   3.0055
     3.2404   3.3393   3.6581   3.6749   3.7813   3.8110   3.9142   3.9269
     4.1378   4.3205   4.4249   4.4426   4.5253   4.6083   4.6862   4.8450
     4.8607   4.8687   5.0194   5.0832   5.2217   5.2513   5.2696   5.4079
     5.4242   5.6479   5.6687   5.8315   6.1943   6.2587   6.2773   6.3255
     6.4601   6.6322   6.6807   6.7213   6.7678   6.8430   6.8699   6.8970
     6.9557   7.0023   7.0596   7.0825   7.1026   7.1796   7.1942   7.2235
     7.3257   7.3676   7.7459   7.7628   7.8202   7.8319   7.8566   7.8812
    10.5058  10.5290  10.7537  10.7775  11.3726  11.4225  11.8607  11.9551
    11.9883  12.0471  12.2709  12.3161  12.6519  12.7121  12.7326  12.7766
    12.9758  13.2154  13.2716  13.4678  13.5412  13.5694  13.9133  13.9282
    15.1508  15.2905  15.6745  15.9104  15.9308  16.0445  16.1033  16.6375
    16.7830  16.8000  17.1221  17.5698  17.6792  17.7797

          k = 0.0000 0.3157-0.5000 ( 62318 PWs)   bands (ev):

   -65.9472 -65.9472 -65.9470 -65.9470 -65.9462 -65.9462 -65.9460 -65.9460
   -30.4053 -30.4053 -30.4018 -30.4018 -30.3751 -30.3751 -30.3718 -30.3718
   -30.2843 -30.2843 -30.2784 -30.2784 -30.2364 -30.2364 -30.2317 -30.2317
   -30.2305 -30.2305 -30.2255 -30.2255 -30.1836 -30.1836 -30.1775 -30.1775
   -20.1034 -20.1034 -20.1031 -20.1031 -20.1007 -20.1007 -20.1004 -20.1004
   -20.0914 -20.0914 -20.0904 -20.0904 -20.0903 -20.0903 -20.0901 -20.0901
   -20.0898 -20.0898 -20.0886 -20.0886 -20.0884 -20.0884 -20.0882 -20.0882
   -20.0875 -20.0875 -20.0874 -20.0874 -20.0869 -20.0869 -20.0863 -20.0863
   -20.0699 -20.0699 -20.0699 -20.0699 -20.0696 -20.0696 -20.0696 -20.0696
   -20.0224 -20.0224 -20.0221 -20.0221 -20.0204 -20.0204 -20.0202 -20.0202
   -20.0189 -20.0189 -20.0186 -20.0186 -20.0166 -20.0166 -20.0164 -20.0164
    -9.4927  -9.4927  -9.3386  -9.3386  -8.9070  -8.9070  -8.7043  -8.7043
    -8.5027  -8.5027  -8.4924  -8.4924  -8.4386  -8.4386  -8.3418  -8.3418
    -8.1350  -8.1350  -8.0924  -8.0924  -7.6181  -7.6181  -7.6004  -7.6004
     1.4386   1.4386   1.4521   1.4521   2.3999   2.3999   2.5388   2.5388
     2.9400   2.9400   3.1141   3.1141   3.1674   3.1675   3.3403   3.3403
     3.3899   3.3899   3.4237   3.4237   3.4994   3.4994   3.6859   3.6859
     4.1031   4.1031   4.1276   4.1276   4.1769   4.1769   4.3929   4.3929
     4.8385   4.8385   4.9404   4.9404   5.1446   5.1446   5.3422   5.3422
     5.4984   5.4984   5.7501   5.7501   6.3529   6.3529   6.4209   6.4209
     6.5197   6.5197   6.5726   6.5726   6.5928   6.5928   6.8001   6.8001
     7.0662   7.0662   7.0820   7.0820   7.1210   7.1210   7.5499   7.5499
     7.5789   7.5789   7.6065   7.6065   7.6440   7.6440   7.8654   7.8654
    10.7581  10.7581  11.2872  11.2872  11.3332  11.3332  11.7785  11.7785
    12.1009  12.1009  12.2359  12.2359  12.6475  12.6475  12.7335  12.7335
    12.9414  12.9414  13.0765  13.0765  13.5352  13.5352  13.9204  13.9204
    15.2387  15.2387  15.8078  15.8078  16.2755  16.2755  16.5260  16.5260
    16.9292  16.9292  17.2230  17.2231  17.9723  17.9723

          k = 0.0000-0.4736 0.0000 ( 62186 PWs)   bands (ev):

   -65.9476 -65.9476 -65.9466 -65.9466 -65.9466 -65.9466 -65.9456 -65.9456
   -30.3917 -30.3917 -30.3885 -30.3885 -30.3879 -30.3879 -30.3849 -30.3849
   -30.2869 -30.2869 -30.2815 -30.2815 -30.2810 -30.2810 -30.2758 -30.2758
   -30.1858 -30.1858 -30.1817 -30.1817 -30.1798 -30.1798 -30.1752 -30.1752
   -20.1022 -20.1022 -20.1019 -20.1019 -20.1018 -20.1018 -20.1016 -20.1016
   -20.0913 -20.0913 -20.0912 -20.0912 -20.0903 -20.0903 -20.0902 -20.0902
   -20.0897 -20.0897 -20.0896 -20.0896 -20.0884 -20.0884 -20.0883 -20.0883
   -20.0869 -20.0869 -20.0868 -20.0868 -20.0865 -20.0865 -20.0864 -20.0863
   -20.0701 -20.0701 -20.0698 -20.0698 -20.0698 -20.0698 -20.0694 -20.0694
   -20.0232 -20.0232 -20.0229 -20.0229 -20.0216 -20.0216 -20.0214 -20.0213
   -20.0174 -20.0174 -20.0172 -20.0172 -20.0160 -20.0159 -20.0156 -20.0156
    -9.7056  -9.7056  -9.2528  -9.2528  -9.2381  -9.2381  -8.9567  -8.9567
    -8.4906  -8.4906  -8.4295  -8.4295  -8.4287  -8.4286  -8.4281  -8.4281
    -7.6933  -7.6933  -7.6796  -7.6796  -7.5425  -7.5425  -7.5292  -7.5292
     1.3163   1.3163   1.3995   1.3996   1.4097   1.4097   1.7272   1.7272
     2.5133   2.5133   3.1769   3.1769   3.2316   3.2316   3.2931   3.2931
     3.3010   3.3010   3.3404   3.3404   3.4846   3.4846   3.5253   3.5253
     3.6965   3.6965   4.9500   4.9500   4.9512   4.9512   5.2336   5.2336
     5.2407   5.2407   5.3362   5.3362   5.3382   5.3382   5.8045   5.8045
     5.8089   5.8089   6.0515   6.0515   6.0779   6.0780   6.2343   6.2343
     6.2505   6.2505   6.3126   6.3126   6.7693   6.7693   6.7921   6.7921
     6.9886   6.9886   7.4499   7.4499   7.4605   7.4605   7.4796   7.4796
     7.4915   7.4915   7.5759   7.5759   7.5790   7.5790   7.8767   7.8767
     9.4355   9.4355  11.3155  11.3155  11.3311  11.3311  11.4020  11.4020
    11.4200  11.4200  12.4439  12.4439  12.4690  12.4690  13.0232  13.0232
    13.6505  13.6505  13.6699  13.6699  13.7079  13.7079  13.7095  13.7096
    15.3736  15.3737  15.5771  15.5771  15.7761  15.7761  15.7956  15.7956
    16.5681  16.5681  17.8927  17.8927  18.1697  18.1697

          k = 0.0000-0.4736 0.1667 ( 62292 PWs)   bands (ev):

   -65.9475 -65.9475 -65.9467 -65.9466 -65.9465 -65.9465 -65.9456 -65.9456
   -30.3916 -30.3915 -30.3888 -30.3884 -30.3882 -30.3878 -30.3852 -30.3852
   -30.2865 -30.2819 -30.2815 -30.2793 -30.2762 -30.2748 -30.2743 -30.2690
   -30.1926 -30.1883 -30.1868 -30.1855 -30.1830 -30.1807 -30.1795 -30.1756
   -20.1022 -20.1021 -20.1019 -20.1019 -20.1019 -20.1018 -20.1016 -20.1016
   -20.0913 -20.0912 -20.0912 -20.0910 -20.0903 -20.0902 -20.0902 -20.0899
   -20.0897 -20.0897 -20.0896 -20.0896 -20.0884 -20.0883 -20.0883 -20.0882
   -20.0871 -20.0870 -20.0869 -20.0868 -20.0866 -20.0865 -20.0865 -20.0864
   -20.0701 -20.0701 -20.0698 -20.0698 -20.0698 -20.0698 -20.0695 -20.0694
   -20.0231 -20.0229 -20.0227 -20.0225 -20.0217 -20.0215 -20.0213 -20.0210
   -20.0178 -20.0176 -20.0173 -20.0171 -20.0163 -20.0161 -20.0159 -20.0157
    -9.6541  -9.6524  -9.2692  -9.2547  -9.1685  -9.1541  -8.9164  -8.9150
    -8.4963  -8.4963  -8.4355  -8.4339  -8.4269  -8.4268  -8.4216  -8.4202
    -7.8144  -7.8007  -7.6841  -7.6727  -7.6687  -7.6576  -7.5522  -7.5389
     1.4002   1.4053   1.4081   1.4162   1.6540   1.6642   1.8943   1.9010
     2.6031   2.6033   3.1790   3.1898   3.2375   3.2462   3.2795   3.2989
     3.3067   3.3335   3.3419   3.3830   3.4813   3.5232   3.5428   3.5729
     3.7257   3.7268   4.5381   4.5399   4.9461   4.9689   5.0168   5.0416
     5.1538   5.1545   5.2199   5.2234   5.3491   5.3527   5.5392   5.5482
     5.7783   5.7810   5.8496   5.8535   6.1578   6.1869   6.2007   6.2031
     6.4234   6.4307   6.4692   6.5017   6.7576   6.7805   6.9394   6.9606
     7.0462   7.0499   7.2340   7.2472   7.2696   7.2904   7.4666   7.4774
     7.4899   7.4985   7.5259   7.5350   7.5515   7.5570   7.8882   7.8886
     9.7895   9.7941  11.3205  11.3355  11.3946  11.4073  11.4511  11.4608
    11.5250  11.5423  12.3492  12.3717  12.4960  12.5198  13.0536  13.0537
    13.4754  13.4818  13.5698  13.5836  13.6647  13.6807  13.7039  13.7065
    15.4602  15.4769  15.6657  15.6801  15.7565  15.7772  16.0454  16.0619
    16.6317  16.6326  17.8418  17.8478  17.9377  17.9378

          k = 0.0000-0.4736 0.3333 ( 62284 PWs)   bands (ev):

   -65.9473 -65.9473 -65.9468 -65.9468 -65.9463 -65.9463 -65.9458 -65.9458
   -30.3911 -30.3909 -30.3895 -30.3890 -30.3878 -30.3875 -30.3860 -30.3859
   -30.2856 -30.2829 -30.2799 -30.2772 -30.2615 -30.2566 -30.2558 -30.2506
   -30.2111 -30.2066 -30.2053 -30.2006 -30.1847 -30.1824 -30.1787 -30.1764
   -20.1021 -20.1021 -20.1020 -20.1019 -20.1018 -20.1018 -20.1017 -20.1017
   -20.0913 -20.0913 -20.0908 -20.0906 -20.0903 -20.0902 -20.0900 -20.0899
   -20.0899 -20.0897 -20.0893 -20.0891 -20.0884 -20.0883 -20.0880 -20.0879
   -20.0876 -20.0876 -20.0871 -20.0870 -20.0868 -20.0868 -20.0864 -20.0864
   -20.0700 -20.0700 -20.0699 -20.0698 -20.0697 -20.0697 -20.0695 -20.0695
   -20.0228 -20.0225 -20.0220 -20.0218 -20.0217 -20.0216 -20.0203 -20.0200
   -20.0189 -20.0187 -20.0174 -20.0172 -20.0170 -20.0168 -20.0163 -20.0160
    -9.5313  -9.5250  -9.3190  -9.3055  -8.9372  -8.9244  -8.7814  -8.7767
    -8.5277  -8.5268  -8.4568  -8.4554  -8.4163  -8.4160  -8.3915  -8.3888
    -8.1069  -8.0940  -7.9874  -7.9747  -7.6539  -7.6406  -7.5789  -7.5656
     1.4217   1.4330   1.4481   1.4602   2.3280   2.3371   2.5275   2.5365
     2.8633   2.8638   3.1820   3.2097   3.2508   3.2612   3.2636   3.3018
     3.3115   3.3141   3.4218   3.4607   3.4703   3.5159   3.7143   3.7232
     3.7986   3.8012   3.9115   3.9166   4.5122   4.5125   4.6821   4.6857
     4.8234   4.8352   4.9127   4.9245   5.2687   5.2732   5.2806   5.2856
     5.4062   5.4159   5.7062   5.7074   6.2618   6.2649   6.2991   6.3345
     6.5625   6.5737   6.7060   6.7446   6.7537   6.7872   6.9032   6.9275
     7.0602   7.0760   7.2065   7.2160   7.2227   7.2249   7.4478   7.4629
     7.4867   7.4971   7.5109   7.5218   7.5256   7.5329   7.8392   7.8396
    10.5187  10.5279  11.3351  11.3492  11.3773  11.3920  11.8277  11.8378
    11.8722  11.8869  11.9698  11.9869  12.6671  12.6867  12.8454  12.8482
    13.0065  13.0131  13.3076  13.3198  13.6739  13.6759  13.6971  13.7016
    15.5079  15.5286  15.6960  15.7159  16.2253  16.2409  16.7528  16.7639
    16.8610  16.8653  17.3361  17.3363  17.9727  17.9786

          k = 0.0000-0.4736-0.5000 ( 62272 PWs)   bands (ev):

   -65.9471 -65.9471 -65.9471 -65.9471 -65.9461 -65.9461 -65.9461 -65.9461
   -30.3904 -30.3904 -30.3900 -30.3900 -30.3870 -30.3870 -30.3867 -30.3867
   -30.2842 -30.2842 -30.2785 -30.2785 -30.2363 -30.2363 -30.2316 -30.2316
   -30.2306 -30.2306 -30.2256 -30.2256 -30.1835 -30.1835 -30.1776 -30.1776
   -20.1021 -20.1021 -20.1020 -20.1020 -20.1018 -20.1018 -20.1017 -20.1017
   -20.0913 -20.0913 -20.0904 -20.0904 -20.0902 -20.0902 -20.0901 -20.0901
   -20.0898 -20.0898 -20.0886 -20.0886 -20.0884 -20.0884 -20.0881 -20.0881
   -20.0876 -20.0876 -20.0875 -20.0875 -20.0868 -20.0868 -20.0864 -20.0864
   -20.0699 -20.0699 -20.0699 -20.0699 -20.0696 -20.0696 -20.0696 -20.0696
   -20.0224 -20.0224 -20.0221 -20.0221 -20.0204 -20.0204 -20.0202 -20.0202
   -20.0189 -20.0189 -20.0186 -20.0186 -20.0166 -20.0166 -20.0164 -20.0164
    -9.4066  -9.4066  -9.3954  -9.3954  -8.6606  -8.6605  -8.6515  -8.6515
    -8.5612  -8.5612  -8.5550  -8.5550  -8.3652  -8.3651  -8.3523  -8.3523
    -8.2861  -8.2860  -8.2730  -8.2730  -7.6160  -7.6160  -7.6026  -7.6026
     1.4408   1.4408   1.4530   1.4530   3.0538   3.0538   3.0944   3.0944
     3.1963   3.1963   3.2053   3.2053   3.2487   3.2487   3.2672   3.2672
     3.3511   3.3511   3.3748   3.3749   3.4971   3.4971   3.5336   3.5336
     3.6167   3.6167   3.7141   3.7141   4.3278   4.3278   4.3476   4.3476
     4.4301   4.4301   4.4644   4.4644   5.2529   5.2530   5.2654   5.2654
     5.5554   5.5554   5.5712   5.5712   6.4064   6.4064   6.4139   6.4139
     6.5694   6.5694   6.5852   6.5852   6.6732   6.6732   6.6963   6.6963
     7.3079   7.3079   7.3248   7.3248   7.3644   7.3644   7.4305   7.4305
     7.4787   7.4787   7.5116   7.5116   7.6365   7.6365   7.6437   7.6437
    11.2728  11.2728  11.2836  11.2836  11.3919  11.3919  11.3993  11.3993
    12.3471  12.3471  12.3776  12.3776  12.3937  12.3937  12.4218  12.4218
    12.9706  12.9706  12.9854  12.9854  13.6820  13.6820  13.6913  13.6913
    15.6005  15.6005  15.6216  15.6216  16.8170  16.8170  16.8402  16.8402
    17.4053  17.4054  17.4275  17.4275  17.5485  17.5485

          k = 0.1667 0.0000 0.1667 ( 62270 PWs)   bands (ev):

   -65.9477 -65.9472 -65.9468 -65.9468 -65.9464 -65.9464 -65.9459 -65.9455
   -30.4215 -30.4184 -30.4184 -30.4153 -30.3612 -30.3582 -30.3582 -30.3554
   -30.2812 -30.2791 -30.2756 -30.2755 -30.2741 -30.2728 -30.2689 -30.2688
   -30.1926 -30.1926 -30.1898 -30.1885 -30.1859 -30.1857 -30.1826 -30.1814
   -20.1048 -20.1045 -20.1045 -20.1043 -20.0994 -20.0991 -20.0991 -20.0989
   -20.0916 -20.0912 -20.0912 -20.0910 -20.0903 -20.0900 -20.0899 -20.0899
   -20.0898 -20.0897 -20.0896 -20.0895 -20.0884 -20.0882 -20.0881 -20.0880
   -20.0876 -20.0873 -20.0873 -20.0871 -20.0863 -20.0863 -20.0863 -20.0860
   -20.0701 -20.0700 -20.0698 -20.0698 -20.0697 -20.0697 -20.0695 -20.0694
   -20.0227 -20.0227 -20.0224 -20.0224 -20.0214 -20.0214 -20.0211 -20.0211
   -20.0177 -20.0177 -20.0175 -20.0175 -20.0165 -20.0164 -20.0161 -20.0161
    -9.8027  -9.4798  -9.4248  -9.4246  -9.0912  -9.0834  -9.0831  -8.8851
    -8.8723  -8.8276  -8.7818  -8.7815  -7.8567  -7.8107  -7.8094  -7.8058
    -7.7972  -7.7739  -7.7713  -7.7418  -7.7066  -7.6921  -7.6618  -7.6416
     1.4738   1.5243   1.5248   1.5755   1.5758   1.6398   1.6690   1.6695
     1.7702   1.7702   1.9973   2.1371   2.6484   2.6953   2.7028   2.7406
     2.8196   2.8559   4.1321   4.1340   4.3887   4.3898   4.5295   4.5298
     4.6225   4.6272   4.7203   4.7345   4.7867   4.8512   5.0714   5.3083
     5.3320   5.3850   5.4148   5.5080   5.5142   5.6701   5.6706   5.7160
     5.7186   5.7544   5.8090   5.8255   5.8315   6.0117   6.3519   6.4816
     6.5158   6.5521   6.5960   6.6640   6.7094   6.7178   6.7201   6.7617
     6.8087   6.8958   6.8962   6.9135   6.9457   7.0251   7.0297   7.1450
     7.3714   7.4313   7.8839   7.8842   8.0580   8.1054   8.1181   8.1294
     9.9865  10.0598  10.3347  10.3363  10.3536  10.4473  12.3682  12.3711
    12.3875  12.3986  12.4247  12.4528  12.6814  12.6953  13.0260  13.0475
    13.1163  13.2139  13.2823  13.4554  14.0177  14.0679  14.1025  14.1445
    14.2216  14.5951  14.5955  15.0631  15.5008  15.6844  15.6999  16.4553
    16.4589  16.9865  16.9905  17.2103  17.5086  17.5413

          k = 0.1667 0.0000 0.3333 ( 62286 PWs)   bands (ev):

   -65.9475 -65.9471 -65.9470 -65.9466 -65.9466 -65.9462 -65.9461 -65.9457
   -30.4210 -30.4192 -30.4179 -30.4161 -30.3607 -30.3590 -30.3578 -30.3561
   -30.2792 -30.2765 -30.2726 -30.2700 -30.2613 -30.2572 -30.2550 -30.2505
   -30.2111 -30.2073 -30.2047 -30.2006 -30.1917 -30.1894 -30.1851 -30.1829
   -20.1048 -20.1046 -20.1045 -20.1044 -20.0994 -20.0992 -20.0991 -20.0989
   -20.0915 -20.0913 -20.0908 -20.0908 -20.0903 -20.0900 -20.0900 -20.0899
   -20.0898 -20.0897 -20.0893 -20.0891 -20.0883 -20.0882 -20.0879 -20.0878
   -20.0878 -20.0878 -20.0873 -20.0873 -20.0868 -20.0867 -20.0863 -20.0861
   -20.0700 -20.0699 -20.0699 -20.0698 -20.0697 -20.0696 -20.0695 -20.0695
   -20.0224 -20.0222 -20.0217 -20.0217 -20.0214 -20.0213 -20.0204 -20.0201
   -20.0188 -20.0186 -20.0176 -20.0174 -20.0173 -20.0171 -20.0167 -20.0164
    -9.6875  -9.4756  -9.3416  -9.2955  -9.1288  -9.1206  -8.8343  -8.8284
    -8.7952  -8.7397  -8.7175  -8.6506  -8.1155  -8.1010  -8.0356  -8.0102
    -7.8242  -7.8052  -7.7806  -7.7742  -7.7541  -7.7512  -7.7066  -7.6839
     1.4865   1.5102   1.5880   1.6228   1.6865   1.7077   1.7616   1.7801
     2.3573   2.3902   2.5332   2.6147   2.7234   2.8154   2.9154   2.9413
     3.0268   3.0985   3.8643   3.8959   4.0008   4.0047   4.1955   4.3559
     4.3786   4.5516   4.5623   4.6097   4.6588   4.8135   4.8292   4.9858
     5.0300   5.1072   5.1463   5.2747   5.3336   5.4123   5.5685   5.7016
     5.7173   5.7671   5.8188   5.8379   5.8477   6.0241   6.2156   6.2796
     6.4466   6.4869   6.5081   6.5971   6.6238   6.6889   6.6935   6.7206
     6.8309   6.9057   6.9242   6.9403   7.1771   7.2091   7.2267   7.3008
     7.3722   7.4117   7.8294   7.8451   7.9540   7.9897   8.1171   8.1266
    10.3332  10.3420  10.6221  10.6915  10.9561  11.0838  12.0005  12.0465
    12.2109  12.5191  12.5447  12.5920  12.6326  12.6881  12.8457  12.9437
    13.0062  13.1097  13.1840  13.3792  13.7506  13.7689  14.0810  14.1075
    14.3755  14.5673  14.8903  15.3801  15.3939  15.9330  16.0914  16.3574
    16.3942  17.2938  17.4178  17.5540  17.6337  17.8092

          k = 0.1667 0.0000-0.5000 ( 62318 PWs)   bands (ev):

   -65.9472 -65.9472 -65.9468 -65.9468 -65.9464 -65.9464 -65.9459 -65.9459
   -30.4201 -30.4201 -30.4171 -30.4171 -30.3599 -30.3599 -30.3570 -30.3570
   -30.2779 -30.2779 -30.2713 -30.2713 -30.2363 -30.2363 -30.2323 -30.2323
   -30.2298 -30.2298 -30.2255 -30.2255 -30.1906 -30.1906 -30.1840 -30.1840
   -20.1047 -20.1047 -20.1045 -20.1045 -20.0993 -20.0993 -20.0990 -20.0990
   -20.0914 -20.0914 -20.0904 -20.0904 -20.0904 -20.0904 -20.0900 -20.0900
   -20.0897 -20.0897 -20.0886 -20.0886 -20.0884 -20.0884 -20.0882 -20.0882
   -20.0875 -20.0875 -20.0874 -20.0874 -20.0872 -20.0872 -20.0862 -20.0862
   -20.0699 -20.0699 -20.0698 -20.0698 -20.0696 -20.0696 -20.0695 -20.0695
   -20.0221 -20.0221 -20.0218 -20.0218 -20.0203 -20.0203 -20.0201 -20.0201
   -20.0190 -20.0190 -20.0187 -20.0187 -20.0171 -20.0171 -20.0168 -20.0168
    -9.5650  -9.5650  -9.2116  -9.2116  -9.1828  -9.1828  -8.8136  -8.8136
    -8.4844  -8.4844  -8.4719  -8.4719  -8.4229  -8.4228  -8.3689  -8.3688
    -7.8156  -7.8156  -7.7641  -7.7641  -7.7431  -7.7431  -7.7196  -7.7196
     1.4963   1.4963   1.6057   1.6057   1.7072   1.7072   1.7890   1.7890
     2.7521   2.7521   3.0607   3.0607   3.1459   3.1459   3.2712   3.2712
     3.3794   3.3794   3.4901   3.4901   3.6070   3.6070   3.8603   3.8603
     3.9239   3.9239   4.4651   4.4651   4.5715   4.5715   4.9276   4.9276
     5.0931   5.0931   5.1093   5.1093   5.2961   5.2961   5.6400   5.6400
     5.8075   5.8075   5.8483   5.8483   5.9654   5.9654   5.9897   5.9897
     6.3791   6.3791   6.4573   6.4573   6.6840   6.6840   6.7561   6.7561
     6.8635   6.8635   7.0188   7.0188   7.0825   7.0825   7.5888   7.5888
     7.6395   7.6395   7.7347   7.7347   7.7480   7.7480   8.1262   8.1262
    10.3478  10.3478  11.3403  11.3403  11.4189  11.4189  11.6613  11.6613
    11.8711  11.8711  12.7072  12.7072  12.7555  12.7555  12.8037  12.8037
    13.0061  13.0061  13.3364  13.3364  13.4433  13.4433  14.0914  14.0914
    14.5063  14.5063  15.1934  15.1934  15.8330  15.8330  16.1908  16.1908
    16.8333  16.8333  17.8042  17.8042  17.8441  17.8441

          k = 0.1667 0.1579 0.1667 ( 62272 PWs)   bands (ev):

   -65.9476 -65.9473 -65.9468 -65.9468 -65.9464 -65.9464 -65.9459 -65.9455
   -30.4175 -30.4144 -30.4144 -30.4114 -30.3652 -30.3623 -30.3623 -30.3594
   -30.2810 -30.2792 -30.2755 -30.2754 -30.2741 -30.2730 -30.2690 -30.2690
   -30.1925 -30.1925 -30.1897 -30.1885 -30.1859 -30.1858 -30.1826 -30.1815
   -20.1044 -20.1042 -20.1042 -20.1040 -20.0998 -20.0995 -20.0995 -20.0992
   -20.0915 -20.0912 -20.0912 -20.0910 -20.0903 -20.0900 -20.0899 -20.0898
   -20.0898 -20.0897 -20.0896 -20.0895 -20.0884 -20.0882 -20.0882 -20.0881
   -20.0875 -20.0873 -20.0873 -20.0871 -20.0864 -20.0863 -20.0863 -20.0861
   -20.0701 -20.0700 -20.0698 -20.0698 -20.0697 -20.0697 -20.0695 -20.0694
   -20.0227 -20.0227 -20.0224 -20.0224 -20.0214 -20.0214 -20.0211 -20.0211
   -20.0177 -20.0177 -20.0175 -20.0175 -20.0165 -20.0164 -20.0161 -20.0161
    -9.7688  -9.4919  -9.3801  -9.3799  -9.0917  -9.0914  -9.0171  -8.8842
    -8.8729  -8.7862  -8.7512  -8.7510  -7.9444  -7.8947  -7.8947  -7.8552
    -7.8099  -7.8077  -7.7851  -7.7802  -7.7060  -7.6886  -7.6606  -7.6431
     1.5744   1.5750   1.6165   1.6166   1.6656   1.6692   1.6755   1.8460
     1.9168   1.9172   1.9966   2.2100   2.6573   2.7347   2.7691   2.7772
     2.8924   2.9194   4.0340   4.0558   4.1670   4.1705   4.5247   4.5250
     4.6249   4.6287   4.7168   4.7198   4.7659   4.7932   4.8648   5.2400
     5.2649   5.2869   5.2953   5.4132   5.4323   5.6208   5.6290   5.6560
     5.7808   5.7925   5.7956   5.8395   5.8395   5.8749   6.3722   6.4143
     6.4392   6.5492   6.5909   6.6835   6.7209   6.7722   6.8082   6.8143
     6.8362   6.8645   6.9169   6.9245   6.9933   7.0047   7.0196   7.1511
     7.3753   7.4293   7.8842   7.8843   8.0052   8.0452   8.0518   8.0532
    10.0060  10.0586  10.4856  10.5020  10.5126  10.5784  12.2880  12.3273
    12.3765  12.3779  12.3971  12.4042  12.5476  12.5583  13.0421  13.0478
    13.1504  13.2280  13.2860  13.4593  13.9754  13.9837  14.0030  14.0632
    14.4800  14.8890  14.8901  15.2108  15.6853  15.6983  15.9021  16.4216
    16.4237  16.8280  17.0899  17.0912  17.5792  17.6416

          k = 0.1667 0.1579 0.3333 ( 62283 PWs)   bands (ev):

   -65.9475 -65.9471 -65.9469 -65.9466 -65.9466 -65.9462 -65.9461 -65.9457
   -30.4170 -30.4152 -30.4139 -30.4121 -30.3647 -30.3630 -30.3618 -30.3601
   -30.2792 -30.2765 -30.2728 -30.2701 -30.2612 -30.2572 -30.2551 -30.2506
   -30.2110 -30.2072 -30.2047 -30.2007 -30.1917 -30.1893 -30.1852 -30.1829
   -20.1044 -20.1043 -20.1042 -20.1040 -20.0998 -20.0996 -20.0995 -20.0993
   -20.0914 -20.0912 -20.0908 -20.0907 -20.0902 -20.0900 -20.0900 -20.0899
   -20.0898 -20.0897 -20.0893 -20.0891 -20.0883 -20.0882 -20.0879 -20.0879
   -20.0878 -20.0878 -20.0873 -20.0872 -20.0868 -20.0868 -20.0863 -20.0862
   -20.0700 -20.0699 -20.0699 -20.0698 -20.0697 -20.0696 -20.0695 -20.0695
   -20.0224 -20.0222 -20.0217 -20.0217 -20.0214 -20.0213 -20.0204 -20.0201
   -20.0188 -20.0186 -20.0176 -20.0174 -20.0173 -20.0171 -20.0167 -20.0164
    -9.6497  -9.4319  -9.3535  -9.2376  -9.1378  -9.0471  -8.8385  -8.8088
    -8.7642  -8.7407  -8.7033  -8.6333  -8.1196  -8.1035  -8.0579  -8.0094
    -7.9096  -7.8954  -7.8744  -7.8445  -7.7802  -7.7560  -7.7063  -7.6840
     1.6225   1.6375   1.6866   1.7079   1.7994   1.8042   1.8874   1.9177
     2.3561   2.3994   2.5359   2.6276   2.7966   2.8791   2.9350   3.0155
     3.0248   3.1533   3.8655   3.8959   3.9572   3.9942   4.1641   4.2201
     4.2856   4.4047   4.5814   4.6293   4.6866   4.7505   4.7865   4.8186
     4.9396   4.9852   5.0268   5.1784   5.2621   5.3052   5.3450   5.6222
     5.6705   5.6818   5.7706   5.8342   5.8478   5.8582   6.2248   6.2792
     6.4115   6.5380   6.5758   6.6551   6.7118   6.7276   6.7555   6.8121
     6.8821   6.9151   6.9394   6.9770   7.1728   7.2018   7.2232   7.3039
     7.3640   7.4067   7.8301   7.8416   7.9090   7.9327   8.0505   8.0535
    10.4662  10.5037  10.6472  10.7000  11.0701  11.1698  12.0016  12.0432
    12.1852  12.4965  12.5303  12.5414  12.5689  12.6418  12.7785  12.8283
    13.0082  13.1286  13.1673  13.3793  13.6458  13.6730  13.9931  14.0207
    14.6948  14.8664  15.2367  15.4957  15.7981  15.9276  16.0993  16.3286
    16.4980  17.2065  17.2522  17.4753  17.5941  17.7615

          k = 0.1667 0.1579-0.5000 ( 62310 PWs)   bands (ev):

   -65.9472 -65.9472 -65.9468 -65.9468 -65.9463 -65.9463 -65.9460 -65.9460
   -30.4161 -30.4161 -30.4131 -30.4131 -30.3639 -30.3639 -30.3611 -30.3611
   -30.2778 -30.2778 -30.2714 -30.2714 -30.2362 -30.2362 -30.2322 -30.2322
   -30.2299 -30.2299 -30.2256 -30.2256 -30.1905 -30.1905 -30.1841 -30.1841
   -20.1044 -20.1044 -20.1041 -20.1041 -20.0997 -20.0997 -20.0994 -20.0994
   -20.0913 -20.0913 -20.0904 -20.0904 -20.0903 -20.0903 -20.0900 -20.0900
   -20.0898 -20.0898 -20.0886 -20.0886 -20.0884 -20.0884 -20.0882 -20.0882
   -20.0874 -20.0874 -20.0874 -20.0874 -20.0872 -20.0872 -20.0863 -20.0863
   -20.0699 -20.0699 -20.0698 -20.0698 -20.0696 -20.0696 -20.0696 -20.0696
   -20.0221 -20.0221 -20.0218 -20.0218 -20.0203 -20.0203 -20.0201 -20.0201
   -20.0190 -20.0190 -20.0187 -20.0187 -20.0171 -20.0171 -20.0168 -20.0168
    -9.5235  -9.5235  -9.2220  -9.2220  -9.1131  -9.1131  -8.7826  -8.7826
    -8.4877  -8.4877  -8.4753  -8.4753  -8.4256  -8.4256  -8.3643  -8.3642
    -7.9068  -7.9068  -7.8643  -7.8643  -7.7431  -7.7431  -7.7199  -7.7199
     1.6311   1.6311   1.7072   1.7072   1.8095   1.8095   1.9184   1.9184
     2.8213   2.8213   3.0801   3.0801   3.1654   3.1654   3.2879   3.2879
     3.3825   3.3825   3.4941   3.4941   3.5971   3.5971   3.8610   3.8610
     3.9709   3.9709   4.3045   4.3045   4.5810   4.5810   4.7001   4.7001
     4.9697   4.9697   5.0841   5.0841   5.1592   5.1592   5.4608   5.4608
     5.7069   5.7069   5.7878   5.7878   5.8965   5.8965   5.9695   5.9695
     6.5046   6.5046   6.6296   6.6296   6.6742   6.6742   6.8042   6.8042
     6.9320   6.9320   6.9876   6.9876   7.1023   7.1023   7.5867   7.5867
     7.6330   7.6330   7.7051   7.7051   7.7216   7.7216   8.0546   8.0546
    10.5053  10.5053  11.3478  11.3478  11.4175  11.4175  11.7276  11.7276
    11.9303  11.9303  12.5758  12.5758  12.7368  12.7368  12.7928  12.7928
    12.9883  12.9883  13.2333  13.2333  13.3838  13.3838  14.0023  14.0023
    14.8151  14.8151  15.5663  15.5663  15.9544  15.9544  16.1688  16.1688
    16.8619  16.8619  17.6127  17.6127  17.8731  17.8731

          k = 0.1667 0.3157 0.1667 ( 62251 PWs)   bands (ev):

   -65.9476 -65.9474 -65.9467 -65.9467 -65.9465 -65.9465 -65.9458 -65.9456
   -30.4065 -30.4034 -30.4034 -30.4004 -30.3763 -30.3733 -30.3733 -30.3705
   -30.2805 -30.2794 -30.2753 -30.2753 -30.2741 -30.2734 -30.2692 -30.2692
   -30.1923 -30.1923 -30.1893 -30.1887 -30.1860 -30.1859 -30.1825 -30.1818
   -20.1035 -20.1032 -20.1032 -20.1030 -20.1008 -20.1005 -20.1005 -20.1003
   -20.0914 -20.0911 -20.0911 -20.0910 -20.0903 -20.0901 -20.0900 -20.0898
   -20.0898 -20.0896 -20.0896 -20.0896 -20.0883 -20.0882 -20.0882 -20.0882
   -20.0873 -20.0872 -20.0872 -20.0869 -20.0866 -20.0865 -20.0865 -20.0863
   -20.0701 -20.0700 -20.0698 -20.0698 -20.0697 -20.0697 -20.0695 -20.0694
   -20.0227 -20.0227 -20.0224 -20.0224 -20.0214 -20.0214 -20.0211 -20.0211
   -20.0177 -20.0177 -20.0175 -20.0175 -20.0165 -20.0164 -20.0161 -20.0161
    -9.6863  -9.5301  -9.2760  -9.2757  -9.1197  -9.1193  -8.8818  -8.8755
    -8.8070  -8.6541  -8.6420  -8.6419  -8.1866  -8.1412  -8.1412  -8.1245
    -7.8082  -7.8045  -7.7899  -7.7856  -7.7024  -7.6916  -7.6572  -7.6470
     1.5747   1.5749   1.6557   1.6560   1.6703   1.6705   1.9283   1.9924
     2.4001   2.5229   2.5238   2.6729   2.6759   2.7379   2.9929   3.0041
     3.1117   3.1173   3.7100   3.7111   3.7282   3.7787   4.1524   4.4755
     4.4759   4.5581   4.5616   4.6495   4.6503   4.7592   4.7672   4.8545
     4.9122   4.9171   5.1583   5.1862   5.4255   5.4443   5.4447   5.4729
     5.6653   5.6834   5.8279   5.8281   5.8715   5.8730   6.4415   6.4463
     6.4651   6.5456   6.5753   6.6670   6.8161   6.8208   6.8984   6.9026
     6.9613   6.9639   7.0153   7.0470   7.1166   7.1181   7.1304   7.1843
     7.3926   7.4283   7.8194   7.8200   7.8311   7.8600   7.8876   7.8991
    10.0316  10.0541  10.8895  10.9345  10.9463  10.9690  11.9502  11.9963
    12.0836  12.0935  12.3944  12.3957  12.4355  12.4356  13.0455  13.0785
    13.2720  13.3021  13.3449  13.5029  13.7437  13.7501  13.7670  13.8557
    15.1037  15.5201  15.5243  15.6902  15.6943  15.7884  16.2508  16.3011
    16.3031  16.8926  17.3821  17.4218  17.4360  17.7343

          k = 0.1667 0.3157 0.3333 ( 62276 PWs)   bands (ev):

   -65.9474 -65.9472 -65.9469 -65.9467 -65.9465 -65.9463 -65.9460 -65.9458
   -30.4060 -30.4042 -30.4029 -30.4012 -30.3758 -30.3740 -30.3729 -30.3712
   -30.2790 -30.2763 -30.2730 -30.2704 -30.2611 -30.2570 -30.2553 -30.2508
   -30.2109 -30.2071 -30.2049 -30.2008 -30.1915 -30.1891 -30.1854 -30.1831
   -20.1035 -20.1033 -20.1032 -20.1031 -20.1008 -20.1006 -20.1005 -20.1003
   -20.0913 -20.0912 -20.0908 -20.0907 -20.0902 -20.0900 -20.0899 -20.0899
   -20.0898 -20.0897 -20.0893 -20.0891 -20.0883 -20.0883 -20.0879 -20.0879
   -20.0877 -20.0877 -20.0871 -20.0871 -20.0870 -20.0869 -20.0865 -20.0864
   -20.0700 -20.0700 -20.0698 -20.0698 -20.0697 -20.0697 -20.0695 -20.0695
   -20.0224 -20.0222 -20.0217 -20.0217 -20.0214 -20.0213 -20.0204 -20.0201
   -20.0188 -20.0186 -20.0176 -20.0174 -20.0173 -20.0171 -20.0167 -20.0164
    -9.5582  -9.3916  -9.3292  -9.1681  -9.0926  -8.8707  -8.8396  -8.7692
    -8.7439  -8.6552  -8.6183  -8.5648  -8.2268  -8.1964  -8.1379  -8.1309
    -8.0994  -8.0518  -8.0034  -7.9636  -7.7776  -7.7600  -7.7037  -7.6868
     1.6719   1.6875   1.6952   1.7097   2.2569   2.3388   2.3514   2.4197
     2.5194   2.5420   2.5618   2.7636   2.9502   3.0123   3.0222   3.1036
     3.2445   3.3371   3.6929   3.7035   3.7758   3.8148   3.9621   4.0343
     4.1332   4.3271   4.4240   4.4423   4.5165   4.5934   4.6567   4.7037
     4.7823   4.8092   4.8718   4.8911   4.9761   5.0530   5.1893   5.1907
     5.3583   5.3899   5.4781   5.6357   5.8574   5.8837   6.2611   6.2811
     6.5883   6.6536   6.6806   6.7683   6.8507   6.8745   6.9573   6.9877
     7.0340   7.0635   7.0779   7.1060   7.1976   7.2165   7.2372   7.3198
     7.3447   7.3951   7.7482   7.7519   7.8146   7.8334   7.8400   7.8774
    10.6251  10.6665  10.9386  10.9502  11.3845  11.4371  11.9477  12.0018
    12.0195  12.1594  12.2734  12.3081  12.5576  12.6465  12.7414  12.7860
    12.9725  13.1502  13.2068  13.4137  13.4286  13.4624  13.7583  13.8032
    15.3433  15.4979  15.8829  15.9832  16.0421  16.1503  16.2224  16.6942
    16.7713  16.8387  17.1180  17.5974  17.6440  17.7199

          k = 0.1667 0.3157-0.5000 ( 62288 PWs)   bands (ev):

   -65.9471 -65.9471 -65.9469 -65.9469 -65.9462 -65.9462 -65.9460 -65.9460
   -30.4051 -30.4051 -30.4021 -30.4021 -30.3750 -30.3750 -30.3721 -30.3721
   -30.2776 -30.2776 -30.2716 -30.2716 -30.2361 -30.2361 -30.2320 -30.2320
   -30.2301 -30.2301 -30.2258 -30.2258 -30.1904 -30.1904 -30.1842 -30.1842
   -20.1034 -20.1034 -20.1031 -20.1031 -20.1007 -20.1007 -20.1004 -20.1004
   -20.0912 -20.0912 -20.0904 -20.0904 -20.0903 -20.0903 -20.0899 -20.0899
   -20.0898 -20.0898 -20.0886 -20.0886 -20.0884 -20.0884 -20.0881 -20.0881
   -20.0875 -20.0875 -20.0875 -20.0875 -20.0871 -20.0871 -20.0865 -20.0865
   -20.0699 -20.0699 -20.0699 -20.0699 -20.0696 -20.0696 -20.0696 -20.0696
   -20.0221 -20.0221 -20.0218 -20.0218 -20.0203 -20.0203 -20.0201 -20.0201
   -20.0190 -20.0190 -20.0187 -20.0187 -20.0171 -20.0171 -20.0168 -20.0168
    -9.4242  -9.4242  -9.2565  -9.2565  -8.9209  -8.9209  -8.6824  -8.6824
    -8.5192  -8.5192  -8.4894  -8.4894  -8.4234  -8.4234  -8.3459  -8.3459
    -8.1317  -8.1317  -8.0970  -8.0970  -7.7405  -7.7405  -7.7231  -7.7231
     1.6915   1.6915   1.7085   1.7085   2.4024   2.4024   2.5206   2.5206
     3.0175   3.0175   3.1383   3.1383   3.1718   3.1718   3.3492   3.3492
     3.3896   3.3896   3.5126   3.5126   3.5545   3.5545   3.7366   3.7366
     4.1021   4.1021   4.1299   4.1299   4.1722   4.1722   4.4018   4.4018
     4.7658   4.7658   4.8346   4.8346   5.0142   5.0142   5.0869   5.0870
     5.2015   5.2015   5.5466   5.5466   5.9632   5.9632   5.9748   5.9748
     6.7091   6.7091   6.8130   6.8130   6.8804   6.8804   6.9158   6.9158
     7.0486   7.0486   7.0952   7.0952   7.2072   7.2072   7.5535   7.5535
     7.5887   7.5887   7.6287   7.6287   7.6625   7.6625   7.8472   7.8472
    10.9220  10.9220  11.3643  11.3643  11.4148  11.4148  11.8410  11.8410
    12.1125  12.1125  12.2724  12.2724  12.6343  12.6343  12.7018  12.7018
    12.8977  12.8977  13.0277  13.0277  13.3731  13.3731  13.7747  13.7747
    15.4464  15.4464  16.0748  16.0748  16.3444  16.3444  16.5137  16.5137
    16.9891  16.9891  17.2630  17.2630  17.8517  17.8517

          k = 0.1667-0.4736 0.1667 ( 62246 PWs)   bands (ev):

   -65.9475 -65.9475 -65.9466 -65.9466 -65.9466 -65.9466 -65.9457 -65.9457
   -30.3914 -30.3914 -30.3887 -30.3886 -30.3881 -30.3881 -30.3855 -30.3855
   -30.2799 -30.2799 -30.2752 -30.2752 -30.2738 -30.2738 -30.2693 -30.2693
   -30.1923 -30.1923 -30.1890 -30.1890 -30.1861 -30.1860 -30.1822 -30.1822
   -20.1022 -20.1021 -20.1019 -20.1019 -20.1019 -20.1019 -20.1016 -20.1016
   -20.0912 -20.0912 -20.0911 -20.0910 -20.0902 -20.0902 -20.0899 -20.0899
   -20.0897 -20.0897 -20.0896 -20.0896 -20.0883 -20.0883 -20.0882 -20.0882
   -20.0871 -20.0871 -20.0870 -20.0870 -20.0866 -20.0866 -20.0865 -20.0865
   -20.0701 -20.0701 -20.0698 -20.0698 -20.0698 -20.0698 -20.0695 -20.0695
   -20.0227 -20.0227 -20.0224 -20.0224 -20.0214 -20.0214 -20.0211 -20.0211
   -20.0177 -20.0177 -20.0175 -20.0175 -20.0165 -20.0164 -20.0161 -20.0161
    -9.5969  -9.5969  -9.1851  -9.1851  -9.1710  -9.1710  -8.8786  -8.8786
    -8.5033  -8.5033  -8.4288  -8.4288  -8.4260  -8.4260  -8.4228  -8.4228
    -7.8042  -7.8042  -7.7903  -7.7903  -7.6970  -7.6970  -7.6522  -7.6522
     1.5747   1.5747   1.6605   1.6605   1.6712   1.6712   1.9798   1.9798
     2.6964   2.6964   3.1925   3.1925   3.2501   3.2501   3.2865   3.2865
     3.3201   3.3201   3.4092   3.4093   3.5405   3.5405   3.5715   3.5715
     3.7481   3.7481   4.5739   4.5739   4.6265   4.6265   4.9561   4.9561
     5.0269   5.0269   5.1312   5.1312   5.1841   5.1841   5.4928   5.4928
     5.5319   5.5319   5.8325   5.8325   5.8644   5.8644   6.5017   6.5017
     6.5437   6.5437   6.5677   6.5677   6.8223   6.8223   6.9314   6.9314
     6.9567   6.9567   7.1155   7.1155   7.3423   7.3423   7.4709   7.4709
     7.4874   7.4875   7.5091   7.5091   7.5754   7.5754   7.8879   7.8879
    10.0461  10.0461  11.4284  11.4284  11.4823  11.4823  11.5198  11.5198
    11.5388  11.5388  12.3980  12.3980  12.4284  12.4285  13.0711  13.0711
    13.4729  13.4730  13.4864  13.4864  13.5132  13.5132  13.6494  13.6494
    15.6634  15.6634  15.6948  15.6949  16.0242  16.0242  16.0459  16.0460
    16.6888  16.6888  17.8489  17.8489  17.8767  17.8768

          k = 0.1667-0.4736 0.3333 ( 62248 PWs)   bands (ev):

   -65.9473 -65.9473 -65.9468 -65.9468 -65.9464 -65.9464 -65.9459 -65.9459
   -30.3910 -30.3908 -30.3894 -30.3889 -30.3881 -30.3877 -30.3862 -30.3862
   -30.2788 -30.2762 -30.2731 -30.2705 -30.2610 -30.2569 -30.2555 -30.2509
   -30.2108 -30.2070 -30.2050 -30.2009 -30.1914 -30.1891 -30.1854 -30.1832
   -20.1021 -20.1021 -20.1020 -20.1019 -20.1019 -20.1018 -20.1017 -20.1017
   -20.0912 -20.0911 -20.0908 -20.0907 -20.0902 -20.0900 -20.0899 -20.0899
   -20.0898 -20.0897 -20.0893 -20.0891 -20.0883 -20.0882 -20.0880 -20.0879
   -20.0876 -20.0876 -20.0871 -20.0871 -20.0870 -20.0869 -20.0866 -20.0866
   -20.0700 -20.0700 -20.0698 -20.0698 -20.0697 -20.0697 -20.0695 -20.0695
   -20.0224 -20.0222 -20.0217 -20.0217 -20.0215 -20.0213 -20.0204 -20.0201
   -20.0188 -20.0186 -20.0176 -20.0174 -20.0173 -20.0171 -20.0167 -20.0164
    -9.4636  -9.4587  -9.2365  -9.2234  -8.9549  -8.9424  -8.7546  -8.7509
    -8.5380  -8.5367  -8.4481  -8.4457  -8.4135  -8.4125  -8.3962  -8.3937
    -8.0967  -8.0838  -7.9982  -7.9861  -7.7755  -7.7624  -7.7018  -7.6888
     1.6774   1.6882   1.6993   1.7106   2.3351   2.3446   2.5114   2.5203
     2.9639   2.9689   3.1942   3.2142   3.2584   3.2635   3.2697   3.2932
     3.3176   3.3406   3.4681   3.5032   3.5305   3.5682   3.7029   3.7159
     3.8005   3.8132   3.9651   4.0337   4.4837   4.5312   4.6621   4.6686
     4.7209   4.7690   4.8245   4.8461   5.0147   5.0568   5.0722   5.0926
     5.1839   5.2329   5.4021   5.4674   5.8613   5.8768   6.2750   6.2792
     6.6782   6.6878   6.7221   6.7427   6.8873   6.9040   7.0741   7.1331
     7.1511   7.1835   7.1988   7.2330   7.2434   7.2471   7.4446   7.4647
     7.4735   7.4924   7.5019   7.5186   7.5334   7.5629   7.8428   7.8451
    10.6532  10.6602  11.4566  11.4753  11.4981  11.5120  11.8353  11.8501
    11.8618  11.8814  12.0181  12.0705  12.5588  12.6164  12.8406  12.8669
    13.0063  13.0378  13.2074  13.2931  13.4890  13.5174  13.5472  13.6067
    15.7359  15.7675  15.9600  15.9857  16.2657  16.3024  16.7238  16.7615
    16.8929  16.8970  17.3539  17.4093  17.8202  17.8974

          k = 0.1667-0.4736-0.5000 ( 62240 PWs)   bands (ev):

   -65.9470 -65.9470 -65.9470 -65.9470 -65.9461 -65.9461 -65.9461 -65.9461
   -30.3902 -30.3902 -30.3899 -30.3899 -30.3872 -30.3872 -30.3870 -30.3870
   -30.2775 -30.2775 -30.2718 -30.2718 -30.2360 -30.2360 -30.2320 -30.2320
   -30.2302 -30.2302 -30.2259 -30.2259 -30.1903 -30.1903 -30.1843 -30.1843
   -20.1021 -20.1021 -20.1020 -20.1020 -20.1018 -20.1018 -20.1018 -20.1018
   -20.0912 -20.0912 -20.0905 -20.0905 -20.0902 -20.0902 -20.0899 -20.0899
   -20.0898 -20.0898 -20.0886 -20.0886 -20.0884 -20.0884 -20.0881 -20.0881
   -20.0876 -20.0876 -20.0875 -20.0875 -20.0870 -20.0870 -20.0866 -20.0866
   -20.0699 -20.0699 -20.0699 -20.0699 -20.0696 -20.0696 -20.0696 -20.0696
   -20.0221 -20.0221 -20.0218 -20.0218 -20.0203 -20.0203 -20.0201 -20.0201
   -20.0190 -20.0190 -20.0187 -20.0187 -20.0171 -20.0171 -20.0168 -20.0168
    -9.3287  -9.3287  -9.3183  -9.3183  -8.6793  -8.6793  -8.6701  -8.6700
    -8.5438  -8.5438  -8.5360  -8.5360  -8.3627  -8.3627  -8.3496  -8.3496
    -8.2882  -8.2882  -8.2754  -8.2754  -7.7385  -7.7385  -7.7253  -7.7253
     1.6974   1.6974   1.7094   1.7094   3.0573   3.0573   3.0966   3.0966
     3.1849   3.1849   3.2070   3.2070   3.2533   3.2533   3.3188   3.3188
     3.3540   3.3540   3.4575   3.4575   3.5495   3.5495   3.5864   3.5864
     3.6522   3.6523   3.7449   3.7449   4.3304   4.3305   4.3487   4.3487
     4.4232   4.4232   4.4573   4.4573   4.9245   4.9245   5.0913   5.0913
     5.1959   5.1959   5.3433   5.3433   5.9685   5.9685   5.9783   5.9783
     6.7865   6.7865   6.8257   6.8257   6.9252   6.9252   6.9620   6.9620
     7.2984   7.2984   7.3294   7.3294   7.3800   7.3800   7.4293   7.4293
     7.4741   7.4741   7.5226   7.5226   7.6491   7.6491   7.6720   7.6720
    11.3278  11.3278  11.3694  11.3694  11.4890  11.4891  11.5608  11.5608
    12.3443  12.3443  12.3806  12.3806  12.3987  12.3987  12.4309  12.4309
    12.8736  12.8736  12.9463  12.9463  13.5049  13.5050  13.5544  13.5544
    15.8554  15.8555  15.8868  15.8868  16.8729  16.8729  16.8993  16.8993
    17.4065  17.4065  17.4400  17.4400  17.5344  17.5344

          k = 0.3333 0.0000 0.3333 ( 62352 PWs)   bands (ev):

   -65.9473 -65.9469 -65.9468 -65.9468 -65.9464 -65.9464 -65.9463 -65.9459
   -30.4205 -30.4187 -30.4187 -30.4169 -30.3602 -30.3585 -30.3585 -30.3568
   -30.2620 -30.2603 -30.2582 -30.2580 -30.2547 -30.2535 -30.2513 -30.2512
   -30.2104 -30.2103 -30.2091 -30.2078 -30.2034 -30.2031 -30.2018 -30.2005
   -20.1047 -20.1046 -20.1046 -20.1045 -20.0994 -20.0992 -20.0992 -20.0990
   -20.0912 -20.0909 -20.0909 -20.0906 -20.0902 -20.0902 -20.0901 -20.0898
   -20.0895 -20.0893 -20.0893 -20.0889 -20.0882 -20.0881 -20.0879 -20.0879
   -20.0878 -20.0878 -20.0877 -20.0875 -20.0869 -20.0867 -20.0867 -20.0865
   -20.0699 -20.0699 -20.0698 -20.0698 -20.0697 -20.0697 -20.0696 -20.0695
   -20.0215 -20.0215 -20.0212 -20.0211 -20.0207 -20.0207 -20.0204 -20.0203
   -20.0185 -20.0185 -20.0184 -20.0184 -20.0178 -20.0177 -20.0175 -20.0175
    -9.5617  -9.3435  -9.3429  -9.1592  -9.1537  -8.8798  -8.8781  -8.7365
    -8.6726  -8.6701  -8.6638  -8.6497  -8.1480  -8.0967  -8.0897  -8.0778
    -8.0762  -8.0658  -7.9614  -7.9414  -7.8087  -7.7848  -7.7848  -7.7604
     1.5277   1.5667   1.5670   1.6043   2.2718   2.2796   2.3727   2.3774
     2.4080   2.4109   2.6024   2.7041   2.9535   2.9621   3.0011   3.0629
     3.2978   3.3380   3.8353   3.8565   3.9756   3.9783   4.1721   4.1767
     4.2034   4.2145   4.3102   4.3709   4.4937   4.5085   4.5719   4.6106
     4.9125   4.9624   4.9832   5.0078   5.1035   5.1131   5.2201   5.4491
     5.4521   5.5903   5.5950   5.6603   5.8761   5.8878   5.8881   6.0583
     6.4607   6.4646   6.4846   6.4857   6.5451   6.5861   6.5935   6.6451
     7.0127   7.2221   7.2321   7.2809   7.2841   7.3838   7.4084   7.4177
     7.4802   7.5261   7.7895   7.8027   7.9249   7.9916   8.0023   8.0445
    10.8360  10.9409  10.9686  10.9749  11.1025  11.3054  12.1651  12.1693
    12.2189  12.2237  12.2795  12.3683  12.6153  12.6196  12.8673  12.9083
    12.9152  12.9237  13.0644  13.1523  13.6617  13.7348  13.7356  13.8381
    14.5706  14.8420  14.8436  15.2985  15.7469  16.4363  16.4930  16.7156
    16.7324  17.2738  17.2888  17.7481  17.7720  17.8406

          k = 0.3333 0.0000-0.5000 ( 62280 PWs)   bands (ev):

   -65.9470 -65.9470 -65.9466 -65.9466 -65.9465 -65.9465 -65.9461 -65.9461
   -30.4196 -30.4196 -30.4178 -30.4178 -30.3594 -30.3594 -30.3577 -30.3577
   -30.2596 -30.2596 -30.2530 -30.2530 -30.2353 -30.2353 -30.2332 -30.2332
   -30.2290 -30.2290 -30.2264 -30.2264 -30.2089 -30.2089 -30.2024 -30.2024
   -20.1047 -20.1047 -20.1045 -20.1045 -20.0993 -20.0993 -20.0991 -20.0991
   -20.0910 -20.0910 -20.0905 -20.0905 -20.0904 -20.0904 -20.0900 -20.0900
   -20.0894 -20.0894 -20.0887 -20.0887 -20.0884 -20.0884 -20.0879 -20.0879
   -20.0877 -20.0877 -20.0874 -20.0874 -20.0873 -20.0873 -20.0867 -20.0867
   -20.0699 -20.0699 -20.0698 -20.0698 -20.0697 -20.0697 -20.0696 -20.0696
   -20.0211 -20.0211 -20.0208 -20.0208 -20.0199 -20.0199 -20.0198 -20.0198
   -20.0193 -20.0193 -20.0190 -20.0190 -20.0181 -20.0181 -20.0179 -20.0179
    -9.4321  -9.4321  -9.2229  -9.2229  -8.9797  -8.9797  -8.6971  -8.6971
    -8.5318  -8.5318  -8.4642  -8.4642  -8.3990  -8.3989  -8.3678  -8.3678
    -8.0437  -8.0437  -8.0294  -8.0294  -7.7975  -7.7975  -7.7731  -7.7731
     1.5463   1.5463   1.5857   1.5857   2.3929   2.3929   2.4194   2.4194
     2.9608   2.9608   3.0871   3.0871   3.1247   3.1247   3.3034   3.3034
     3.4144   3.4144   3.6590   3.6590   3.8097   3.8097   3.9204   3.9204
     3.9438   3.9438   4.0856   4.0857   4.2617   4.2617   4.4473   4.4474
     4.7719   4.7719   4.9543   4.9543   5.1328   5.1328   5.1881   5.1881
     5.3063   5.3063   5.5443   5.5443   5.9098   5.9098   6.0105   6.0105
     6.4188   6.4188   6.4273   6.4273   6.4734   6.4734   6.6060   6.6060
     7.1938   7.1938   7.3771   7.3771   7.4591   7.4591   7.6109   7.6109
     7.6522   7.6522   7.7408   7.7408   7.7732   7.7732   8.0103   8.0103
    10.9619  10.9619  11.5489  11.5489  11.6448  11.6448  11.7214  11.7214
    11.9533  11.9533  12.3526  12.3526  12.5271  12.5271  12.7531  12.7531
    12.9314  12.9314  13.2887  13.2887  13.3287  13.3287  13.7489  13.7489
    14.7447  14.7447  15.1188  15.1188  16.2187  16.2188  16.8176  16.8176
    17.2110  17.2110  17.4745  17.4745  17.8704  17.8704

          k = 0.3333 0.1579 0.3333 ( 62307 PWs)   bands (ev):

   -65.9473 -65.9469 -65.9468 -65.9468 -65.9464 -65.9464 -65.9463 -65.9459
   -30.4165 -30.4147 -30.4146 -30.4129 -30.3643 -30.3626 -30.3626 -30.3609
   -30.2618 -30.2603 -30.2582 -30.2580 -30.2547 -30.2537 -30.2513 -30.2513
   -30.2103 -30.2102 -30.2090 -30.2079 -30.2035 -30.2032 -30.2018 -30.2007
   -20.1044 -20.1042 -20.1042 -20.1041 -20.0997 -20.0996 -20.0996 -20.0994
   -20.0911 -20.0909 -20.0908 -20.0907 -20.0902 -20.0901 -20.0901 -20.0899
   -20.0895 -20.0893 -20.0892 -20.0889 -20.0881 -20.0881 -20.0879 -20.0878
   -20.0878 -20.0877 -20.0877 -20.0875 -20.0869 -20.0868 -20.0868 -20.0866
   -20.0699 -20.0699 -20.0698 -20.0698 -20.0697 -20.0697 -20.0696 -20.0695
   -20.0215 -20.0215 -20.0212 -20.0211 -20.0207 -20.0207 -20.0203 -20.0203
   -20.0185 -20.0185 -20.0184 -20.0184 -20.0178 -20.0177 -20.0175 -20.0175
    -9.5172  -9.2875  -9.2869  -9.1719  -9.0811  -8.8897  -8.8880  -8.7056
[...]
    12.0005  12.0005  12.3759  12.3759  12.5208  12.5208  12.7482  12.7482
    12.8212  12.8212  13.1709  13.1709  13.2115  13.2115  13.6444  13.6444
    15.1097  15.1097  15.5007  15.5007  16.3059  16.3059  16.8238  16.8238
    17.2085  17.2085  17.4714  17.4714  17.7364  17.7364

          k = 0.3333 0.3157 0.3333 ( 62298 PWs)   bands (ev):

   -65.9472 -65.9470 -65.9467 -65.9467 -65.9465 -65.9465 -65.9462 -65.9460
   -30.4055 -30.4037 -30.4037 -30.4019 -30.3753 -30.3736 -30.3736 -30.3719
   -30.2613 -30.2604 -30.2580 -30.2579 -30.2547 -30.2540 -30.2515 -30.2515
   -30.2100 -30.2100 -30.2088 -30.2081 -30.2036 -30.2034 -30.2017 -30.2010
   -20.1034 -20.1033 -20.1033 -20.1031 -20.1007 -20.1006 -20.1006 -20.1004
   -20.0910 -20.0908 -20.0908 -20.0907 -20.0902 -20.0901 -20.0901 -20.0899
   -20.0894 -20.0893 -20.0892 -20.0890 -20.0881 -20.0880 -20.0880 -20.0878
   -20.0878 -20.0877 -20.0876 -20.0874 -20.0871 -20.0869 -20.0869 -20.0868
   -20.0699 -20.0699 -20.0698 -20.0697 -20.0697 -20.0697 -20.0696 -20.0695
   -20.0215 -20.0215 -20.0212 -20.0211 -20.0207 -20.0207 -20.0203 -20.0203
   -20.0185 -20.0185 -20.0184 -20.0184 -20.0178 -20.0177 -20.0175 -20.0175
    -9.4081  -9.2136  -9.1477  -9.1468  -8.9252  -8.9234  -8.8769  -8.6625
    -8.6530  -8.5998  -8.5798  -8.5786  -8.2969  -8.1755  -8.1749  -8.1345
    -8.0851  -8.0709  -8.0698  -8.0324  -8.0311  -8.0017  -7.9550  -7.9460
     2.2595   2.2632   2.2821   2.2854   2.3326   2.3675   2.3698   2.4207
     2.5676   2.5708   2.6066   2.8031   3.2161   3.2457   3.2559   3.3117
     3.3315   3.3772   3.6981   3.7412   3.7630   3.8338   4.1019   4.1310
     4.1423   4.2253   4.2259   4.3144   4.3604   4.4104   4.4167   4.5181
     4.5581   4.5913   4.5969   4.6816   4.7859   4.8873   4.9249   4.9485
     4.9880   4.9904   5.1670   5.2887   5.3322   5.3390   5.6150   5.6156
     6.8339   6.8397   6.8475   6.9105   6.9715   7.0289   7.0394   7.0698
     7.1113   7.2014   7.2112   7.2872   7.2907   7.3516   7.3968   7.3970
     7.4826   7.4851   7.6936   7.7539   7.7697   7.7791   7.8095   7.8537
    10.9942  11.0636  11.3515  11.3916  11.4011  11.5661  12.1365  12.1379
    12.1661  12.2020  12.2088  12.3095  12.4535  12.4618  12.6898  12.7655
    12.8132  12.8242  12.8690  13.1607  13.3026  13.3595  13.3603  13.5195
    15.7669  16.0066  16.0095  16.1943  16.4538  16.4755  16.6705  16.8972
    16.9008  16.9285  17.1965  17.2117  17.7146  17.7782

          k = 0.3333 0.3157-0.5000 ( 62270 PWs)   bands (ev):

   -65.9469 -65.9469 -65.9467 -65.9467 -65.9464 -65.9464 -65.9462 -65.9462
   -30.4046 -30.4046 -30.4029 -30.4029 -30.3745 -30.3745 -30.3728 -30.3728
   -30.2593 -30.2593 -30.2533 -30.2533 -30.2351 -30.2351 -30.2330 -30.2330
   -30.2293 -30.2293 -30.2267 -30.2267 -30.2087 -30.2087 -30.2027 -30.2027
   -20.1034 -20.1034 -20.1032 -20.1032 -20.1007 -20.1007 -20.1005 -20.1005
   -20.0909 -20.0909 -20.0904 -20.0904 -20.0903 -20.0903 -20.0900 -20.0900
   -20.0893 -20.0893 -20.0885 -20.0885 -20.0884 -20.0884 -20.0879 -20.0879
   -20.0877 -20.0877 -20.0875 -20.0875 -20.0875 -20.0875 -20.0869 -20.0869
   -20.0698 -20.0698 -20.0698 -20.0698 -20.0696 -20.0696 -20.0696 -20.0696
   -20.0211 -20.0211 -20.0208 -20.0208 -20.0199 -20.0199 -20.0198 -20.0198
   -20.0193 -20.0193 -20.0190 -20.0190 -20.0181 -20.0181 -20.0179 -20.0179
    -9.2516  -9.2516  -9.0323  -9.0323  -8.9685  -8.9685  -8.6105  -8.6105
    -8.5756  -8.5756  -8.4577  -8.4576  -8.3954  -8.3954  -8.3542  -8.3542
    -8.1309  -8.1309  -8.1157  -8.1157  -8.0334  -8.0334  -8.0031  -8.0031
     2.2907   2.2907   2.3828   2.3828   2.4176   2.4176   2.5584   2.5584
     3.1167   3.1167   3.1743   3.1743   3.2481   3.2481   3.3489   3.3489
     3.4269   3.4269   3.6627   3.6627   3.7808   3.7808   3.8779   3.8779
     4.0828   4.0828   4.1349   4.1349   4.1776   4.1776   4.2889   4.2889
     4.3779   4.3779   4.5184   4.5184   4.6623   4.6623   4.8771   4.8771
     5.0020   5.0020   5.0656   5.0656   5.1496   5.1496   5.3328   5.3328
     6.8725   6.8725   6.9288   6.9288   6.9939   6.9939   7.0589   7.0589
     7.2017   7.2017   7.3444   7.3444   7.4540   7.4540   7.5409   7.5409
     7.5936   7.5936   7.6659   7.6659   7.6898   7.6898   7.8002   7.8002
    11.3444  11.3444  11.6053  11.6053  11.6896  11.6896  11.9440  11.9440
    12.1599  12.1599  12.4082  12.4082  12.4534  12.4534  12.4963  12.4963
    12.8035  12.8035  12.8955  12.8955  12.9814  12.9814  13.3904  13.3904
    15.9506  15.9506  16.4371  16.4371  16.5782  16.5783  16.8033  16.8033
    17.2144  17.2144  17.3313  17.3313  17.6185  17.6186

          k = 0.3333-0.4736 0.3333 ( 62280 PWs)   bands (ev):

   -65.9471 -65.9471 -65.9466 -65.9466 -65.9466 -65.9466 -65.9461 -65.9461
   -30.3904 -30.3904 -30.3888 -30.3888 -30.3885 -30.3885 -30.3869 -30.3869
   -30.2608 -30.2608 -30.2579 -30.2579 -30.2544 -30.2544 -30.2516 -30.2516
   -30.2099 -30.2099 -30.2084 -30.2084 -30.2035 -30.2035 -30.2014 -30.2014
   -20.1021 -20.1021 -20.1019 -20.1019 -20.1019 -20.1019 -20.1018 -20.1018
   -20.0908 -20.0908 -20.0907 -20.0907 -20.0902 -20.0902 -20.0900 -20.0900
   -20.0893 -20.0893 -20.0892 -20.0892 -20.0880 -20.0880 -20.0880 -20.0880
   -20.0876 -20.0876 -20.0876 -20.0875 -20.0870 -20.0870 -20.0870 -20.0870
   -20.0699 -20.0699 -20.0697 -20.0697 -20.0697 -20.0697 -20.0696 -20.0695
   -20.0215 -20.0215 -20.0212 -20.0211 -20.0207 -20.0207 -20.0203 -20.0203
   -20.0185 -20.0185 -20.0184 -20.0184 -20.0178 -20.0177 -20.0175 -20.0175
    -9.2929  -9.2929  -9.0113  -9.0113  -9.0001  -9.0001  -8.6632  -8.6632
    -8.5768  -8.5768  -8.4146  -8.4146  -8.4104  -8.4104  -8.3990  -8.3990
    -8.0730  -8.0730  -8.0580  -8.0580  -8.0560  -8.0560  -7.9508  -7.9508
     2.2742   2.2742   2.3542   2.3542   2.3649   2.3649   2.5797   2.5797
     3.1854   3.1854   3.2244   3.2245   3.2668   3.2668   3.2909   3.2909
     3.3940   3.3940   3.5910   3.5910   3.6693   3.6693   3.7088   3.7088
     3.8303   3.8303   4.1437   4.1437   4.2747   4.2747   4.4556   4.4556
     4.5639   4.5639   4.6644   4.6644   4.7512   4.7513   4.8133   4.8133
     4.9113   4.9113   5.0460   5.0460   5.0648   5.0648   5.6110   5.6110
     6.9479   6.9479   7.0758   7.0758   7.1172   7.1172   7.1845   7.1845
     7.2686   7.2686   7.2990   7.2990   7.3204   7.3204   7.4342   7.4343
     7.4774   7.4774   7.5451   7.5451   7.5930   7.5930   7.8104   7.8104
    11.0470  11.0470  11.7615  11.7615  11.8124  11.8124  11.8552  11.8552
    11.9506  11.9506  12.1983  12.1983  12.3121  12.3121  12.7269  12.7269
    12.9874  12.9874  13.0306  13.0306  13.0829  13.0829  13.3093  13.3093
    16.3841  16.3842  16.4709  16.4709  16.6644  16.6644  16.7219  16.7219
    17.0111  17.0111  17.4456  17.4456  17.5375  17.5375

          k = 0.3333-0.4736-0.5000 ( 62212 PWs)   bands (ev):

   -65.9468 -65.9468 -65.9468 -65.9468 -65.9463 -65.9463 -65.9463 -65.9463
   -30.3897 -30.3897 -30.3895 -30.3895 -30.3879 -30.3879 -30.3878 -30.3878
   -30.2592 -30.2592 -30.2535 -30.2534 -30.2350 -30.2350 -30.2329 -30.2329
   -30.2294 -30.2294 -30.2268 -30.2268 -30.2086 -30.2086 -30.2027 -30.2027
   -20.1020 -20.1020 -20.1020 -20.1020 -20.1019 -20.1019 -20.1019 -20.1019
   -20.0908 -20.0908 -20.0904 -20.0904 -20.0903 -20.0903 -20.0901 -20.0901
   -20.0892 -20.0892 -20.0885 -20.0885 -20.0884 -20.0884 -20.0879 -20.0879
   -20.0877 -20.0877 -20.0875 -20.0875 -20.0874 -20.0874 -20.0870 -20.0870
   -20.0698 -20.0698 -20.0698 -20.0698 -20.0696 -20.0696 -20.0696 -20.0696
   -20.0211 -20.0211 -20.0208 -20.0208 -20.0199 -20.0199 -20.0198 -20.0198
   -20.0193 -20.0193 -20.0190 -20.0190 -20.0181 -20.0181 -20.0179 -20.0179
    -9.1212  -9.1212  -9.1137  -9.1137  -8.7403  -8.7403  -8.7321  -8.7321
    -8.4824  -8.4824  -8.4752  -8.4752  -8.3561  -8.3561  -8.3451  -8.3450
    -8.2923  -8.2923  -8.2811  -8.2811  -8.0315  -8.0315  -8.0194  -8.0194
     2.3737   2.3737   2.3850   2.3850   3.0654   3.0654   3.0904   3.0904
     3.1783   3.1783   3.1952   3.1952   3.3094   3.3094   3.3388   3.3388
     3.4399   3.4399   3.4743   3.4743   3.6938   3.6938   3.7139   3.7139
     3.8558   3.8558   3.9024   3.9024   4.3009   4.3009   4.3237   4.3237
     4.3754   4.3754   4.4284   4.4284   4.5010   4.5010   4.6257   4.6257
     4.6950   4.6950   4.8514   4.8514   5.1571   5.1571   5.1709   5.1709
     7.0467   7.0467   7.0897   7.0897   7.2256   7.2256   7.2435   7.2435
     7.3022   7.3022   7.3448   7.3448   7.3683   7.3683   7.4328   7.4328
     7.5268   7.5268   7.5888   7.5888   7.6764   7.6764   7.6956   7.6956
    11.5591  11.5591  11.6001  11.6001  11.8410  11.8410  11.9257  11.9257
    12.2930  12.2930  12.3439  12.3439  12.4143  12.4143  12.4388  12.4388
    12.6102  12.6102  12.7217  12.7217  13.0724  13.0724  13.1550  13.1550
    16.5527  16.5527  16.6139  16.6139  17.0497  17.0498  17.0620  17.0620
    17.3693  17.3693  17.4507  17.4507  17.5030  17.5031

          k =-0.5000 0.0000-0.5000 ( 62340 PWs)   bands (ev):

   -65.9468 -65.9468 -65.9468 -65.9468 -65.9464 -65.9464 -65.9464 -65.9464
   -30.4188 -30.4188 -30.4188 -30.4188 -30.3587 -30.3587 -30.3586 -30.3586
   -30.2360 -30.2360 -30.2357 -30.2357 -30.2341 -30.2341 -30.2337 -30.2337
   -30.2281 -30.2281 -30.2276 -30.2276 -30.2266 -30.2266 -30.2262 -30.2262
   -20.1046 -20.1046 -20.1046 -20.1046 -20.0992 -20.0992 -20.0992 -20.0992
   -20.0907 -20.0907 -20.0906 -20.0906 -20.0902 -20.0902 -20.0902 -20.0902
   -20.0889 -20.0889 -20.0888 -20.0888 -20.0882 -20.0882 -20.0882 -20.0882
   -20.0876 -20.0876 -20.0876 -20.0876 -20.0872 -20.0871 -20.0871 -20.0871
   -20.0698 -20.0697 -20.0697 -20.0697 -20.0697 -20.0697 -20.0697 -20.0697
   -20.0198 -20.0198 -20.0198 -20.0198 -20.0198 -20.0198 -20.0198 -20.0198
   -20.0192 -20.0192 -20.0192 -20.0192 -20.0192 -20.0192 -20.0192 -20.0192
    -9.3033  -9.3033  -9.3027  -9.3027  -8.6923  -8.6923  -8.6873  -8.6873
    -8.5167  -8.5167  -8.5099  -8.5099  -8.3235  -8.3235  -8.3180  -8.3180
    -8.3021  -8.3021  -8.2949  -8.2949  -7.7859  -7.7859  -7.7859  -7.7859
     1.5655   1.5655   1.5659   1.5659   3.0154   3.0154   3.0182   3.0182
     3.1606   3.1606   3.1627   3.1627   3.2237   3.2237   3.2321   3.2321
     3.4313   3.4313   3.4330   3.4330   3.8311   3.8311   3.8637   3.8637
     3.8829   3.8829   3.9197   3.9197   4.2902   4.2902   4.2935   4.2935
     4.3865   4.3865   4.3943   4.3943   4.9542   4.9542   4.9572   4.9572
     5.4041   5.4041   5.4076   5.4076   5.9962   5.9962   5.9967   5.9967
     6.3976   6.3976   6.3994   6.3994   6.4526   6.4526   6.4572   6.4572
     7.5133   7.5133   7.5177   7.5177   7.5865   7.5865   7.5955   7.5955
     7.6782   7.6782   7.6800   7.6800   7.8503   7.8503   7.8601   7.8601
    11.6395  11.6395  11.6567  11.6567  11.7094  11.7094  11.7235  11.7235
    12.0992  12.0992  12.1036  12.1036  12.2880  12.2880  12.2904  12.2904
    13.2037  13.2037  13.2121  13.2121  13.3750  13.3750  13.3826  13.3826
    14.9743  14.9743  14.9751  14.9751  16.6748  16.6748  16.6852  16.6852
    17.8609  17.8609  17.8611  17.8611  17.9413  17.9413

          k =-0.5000 0.1579-0.5000 ( 62356 PWs)   bands (ev):

   -65.9468 -65.9468 -65.9468 -65.9468 -65.9464 -65.9464 -65.9464 -65.9464
   -30.4148 -30.4148 -30.4148 -30.4148 -30.3627 -30.3627 -30.3627 -30.3627
   -30.2358 -30.2358 -30.2355 -30.2355 -30.2342 -30.2342 -30.2338 -30.2338
   -30.2281 -30.2281 -30.2276 -30.2276 -30.2268 -30.2268 -30.2264 -30.2264
   -20.1043 -20.1043 -20.1043 -20.1043 -20.0996 -20.0996 -20.0996 -20.0996
   -20.0906 -20.0906 -20.0906 -20.0906 -20.0902 -20.0902 -20.0902 -20.0902
   -20.0889 -20.0889 -20.0888 -20.0888 -20.0882 -20.0882 -20.0882 -20.0882
   -20.0876 -20.0876 -20.0876 -20.0876 -20.0872 -20.0872 -20.0872 -20.0872
   -20.0698 -20.0697 -20.0697 -20.0697 -20.0697 -20.0697 -20.0697 -20.0697
   -20.0198 -20.0198 -20.0198 -20.0198 -20.0198 -20.0198 -20.0198 -20.0198
   -20.0192 -20.0192 -20.0192 -20.0192 -20.0192 -20.0192 -20.0192 -20.0192
    -9.2406  -9.2406  -9.2398  -9.2398  -8.7061  -8.7061  -8.7013  -8.7013
    -8.5044  -8.5044  -8.4975  -8.4975  -8.3228  -8.3228  -8.3175  -8.3175
    -8.3029  -8.3029  -8.2955  -8.2955  -7.8795  -7.8795  -7.8794  -7.8794
     1.7966   1.7966   1.7971   1.7971   3.0349   3.0349   3.0386   3.0386
     3.1838   3.1838   3.1874   3.1874   3.2309   3.2309   3.2424   3.2424
     3.4219   3.4219   3.4240   3.4240   3.8709   3.8709   3.8998   3.8998
     3.9282   3.9282   3.9616   3.9616   4.2745   4.2745   4.2777   4.2777
     4.3869   4.3869   4.3948   4.3948   4.7350   4.7350   4.7375   4.7375
     5.1632   5.1632   5.1655   5.1655   5.7363   5.7363   5.7367   5.7367
     6.5921   6.5921   6.5976   6.5976   6.6356   6.6356   6.6391   6.6391
     7.4980   7.4980   7.5019   7.5019   7.5761   7.5761   7.5855   7.5855
     7.6678   7.6678   7.6684   7.6684   7.8187   7.8187   7.8261   7.8261
    11.6956  11.6956  11.7109  11.7109  11.7704  11.7705  11.7832  11.7832
    12.1021  12.1021  12.1063  12.1063  12.3087  12.3087  12.3108  12.3108
    13.0771  13.0771  13.0848  13.0848  13.2573  13.2573  13.2640  13.2640
    15.3580  15.3580  15.3588  15.3588  16.7413  16.7413  16.7510  16.7510
    17.7156  17.7156  17.7229  17.7229  17.9899  17.9899

          k =-0.5000 0.3157-0.5000 ( 62272 PWs)   bands (ev):

   -65.9467 -65.9467 -65.9467 -65.9467 -65.9465 -65.9465 -65.9465 -65.9465
   -30.4038 -30.4038 -30.4038 -30.4038 -30.3737 -30.3737 -30.3737 -30.3737
   -30.2353 -30.2353 -30.2351 -30.2351 -30.2343 -30.2343 -30.2341 -30.2341
   -30.2278 -30.2278 -30.2276 -30.2276 -30.2271 -30.2271 -30.2268 -30.2268
   -20.1033 -20.1033 -20.1033 -20.1033 -20.1006 -20.1006 -20.1006 -20.1006
   -20.0905 -20.0905 -20.0905 -20.0905 -20.0903 -20.0903 -20.0903 -20.0903
   -20.0887 -20.0887 -20.0886 -20.0886 -20.0883 -20.0883 -20.0882 -20.0882
   -20.0876 -20.0876 -20.0876 -20.0876 -20.0874 -20.0874 -20.0873 -20.0873
   -20.0697 -20.0697 -20.0697 -20.0697 -20.0697 -20.0697 -20.0697 -20.0697
   -20.0198 -20.0198 -20.0198 -20.0198 -20.0198 -20.0198 -20.0198 -20.0198
   -20.0192 -20.0192 -20.0192 -20.0192 -20.0192 -20.0192 -20.0192 -20.0192
    -9.0744  -9.0744  -9.0732  -9.0732  -8.7578  -8.7578  -8.7538  -8.7538
    -8.4586  -8.4586  -8.4513  -8.4513  -8.3219  -8.3219  -8.3180  -8.3180
    -8.3044  -8.3044  -8.2962  -8.2962  -8.1023  -8.1023  -8.1014  -8.1014
     2.4143   2.4143   2.4148   2.4148   3.0790   3.0790   3.0850   3.0850
     3.1864   3.1864   3.1870   3.1870   3.3086   3.3086   3.3221   3.3221
     3.3848   3.3848   3.3900   3.3900   3.9963   3.9963   4.0283   4.0283
     4.0293   4.0293   4.0500   4.0500   4.1152   4.1152   4.1298   4.1298
     4.3879   4.3879   4.4023   4.4023   4.4184   4.4184   4.4224   4.4224
     4.7541   4.7541   4.7543   4.7543   5.0566   5.0566   5.0580   5.0580
     6.9263   6.9263   6.9340   6.9340   7.0304   7.0304   7.0370   7.0370
     7.4261   7.4261   7.4282   7.4282   7.5302   7.5302   7.5390   7.5390
     7.6517   7.6518   7.6520   7.6520   7.7328   7.7328   7.7371   7.7371
    11.8354  11.8354  11.8419  11.8419  11.9152  11.9152  11.9208  11.9208
    12.1405  12.1405  12.1432  12.1432  12.3935  12.3935  12.3953  12.3953
    12.7617  12.7617  12.7679  12.7679  12.9623  12.9623  12.9667  12.9667
    16.3016  16.3016  16.3022  16.3022  16.9279  16.9279  16.9349  16.9349
    17.4589  17.4589  17.4716  17.4716  17.9929  17.9938

          k =-0.5000-0.4736-0.5000 ( 62272 PWs)   bands (ev):

   -65.9466 -65.9466 -65.9466 -65.9466 -65.9466 -65.9466 -65.9466 -65.9466
   -30.3889 -30.3889 -30.3888 -30.3888 -30.3888 -30.3888 -30.3887 -30.3887
   -30.2348 -30.2348 -30.2347 -30.2347 -30.2347 -30.2347 -30.2346 -30.2346
   -30.2274 -30.2274 -30.2274 -30.2274 -30.2274 -30.2274 -30.2273 -30.2273
   -20.1020 -20.1020 -20.1020 -20.1020 -20.1020 -20.1020 -20.1019 -20.1019
   -20.0904 -20.0904 -20.0904 -20.0904 -20.0904 -20.0904 -20.0904 -20.0904
   -20.0885 -20.0885 -20.0884 -20.0884 -20.0884 -20.0884 -20.0884 -20.0884
   -20.0875 -20.0875 -20.0875 -20.0875 -20.0875 -20.0875 -20.0875 -20.0875
   -20.0697 -20.0697 -20.0697 -20.0697 -20.0697 -20.0697 -20.0697 -20.0697
   -20.0198 -20.0198 -20.0198 -20.0198 -20.0198 -20.0198 -20.0198 -20.0198
   -20.0192 -20.0192 -20.0192 -20.0192 -20.0192 -20.0192 -20.0192 -20.0192
    -8.8861  -8.8861  -8.8789  -8.8789  -8.8789  -8.8789  -8.8766  -8.8766
    -8.3665  -8.3664  -8.3493  -8.3493  -8.3492  -8.3492  -8.3463  -8.3462
    -8.2906  -8.2906  -8.2906  -8.2906  -8.2831  -8.2831  -8.2787  -8.2787
     3.0635   3.0635   3.0702   3.0702   3.0702   3.0702   3.0799   3.0799
     3.2260   3.2260   3.2314   3.2314   3.2314   3.2314   3.2422   3.2423
     3.4622   3.4622   3.5100   3.5100   3.5101   3.5101   3.5432   3.5432
     4.2101   4.2101   4.2171   4.2171   4.2189   4.2190   4.2190   4.2190
     4.4126   4.4126   4.4126   4.4126   4.4234   4.4234   4.4272   4.4272
     4.5040   4.5041   4.5217   4.5217   4.5217   4.5217   4.5219   4.5219
     7.1726   7.1727   7.2235   7.2235   7.2235   7.2235   7.2840   7.2840
     7.3634   7.3634   7.3732   7.3732   7.3732   7.3732   7.3782   7.3782
     7.6542   7.6542   7.6640   7.6640   7.6640   7.6640   7.6787   7.6787
    11.9440  11.9440  11.9471  11.9471  11.9471  11.9471  11.9526  11.9526
    12.3250  12.3250  12.3688  12.3688  12.3688  12.3688  12.4240  12.4240
    12.6156  12.6156  12.6404  12.6404  12.6404  12.6404  12.6572  12.6572
    17.1346  17.1346  17.1606  17.1606  17.1606  17.1607  17.1888  17.1889
    17.4375  17.4375  17.4375  17.4375  17.4396  17.4396

     the Fermi energy is    10.0692 ev

!    total energy              =   -6260.39170125 Ry
     Harris-Foulkes estimate   =   -6260.39170125 Ry
     estimated scf accuracy    <          3.3E-09 Ry

     The total energy is the sum of the following terms:

     one-electron contribution =   -4724.43112476 Ry
     hartree contribution      =    2601.89299369 Ry
     xc contribution           =    -966.77846952 Ry
     ewald contribution        =   -3171.07508227 Ry
     smearing contrib. (-TS)   =      -0.00001839 Ry

     convergence has been achieved in  13 iterations

     Writing output data file Landau_3.save
 
     init_run     :     24.54s CPU     25.67s WALL (       1 calls)
     electrons    :   1006.12s CPU   1024.72s WALL (       1 calls)

     Called by init_run:
     wfcinit      :     22.64s CPU     23.63s WALL (       1 calls)
     potinit      :      0.68s CPU      0.71s WALL (       1 calls)

     Called by electrons:
     c_bands      :    874.17s CPU    891.04s WALL (      13 calls)
     sum_band     :    123.08s CPU    123.54s WALL (      13 calls)
     v_of_rho     :      2.08s CPU      2.12s WALL (      14 calls)
     mix_rho      :      5.04s CPU      5.68s WALL (      13 calls)

     Called by c_bands:
     init_us_2    :     11.25s CPU     11.78s WALL (      27 calls)
     cegterg      :    750.72s CPU    767.35s WALL (      13 calls)

     Called by sum_band:

     Called by *egterg:
     h_psi        :    594.63s CPU    597.34s WALL (      61 calls)
     g_psi        :      2.33s CPU      2.34s WALL (      47 calls)
     cdiaghg      :      8.58s CPU      8.64s WALL (      60 calls)

     Called by h_psi:
     h_psi:pot    :    589.31s CPU    591.87s WALL (      61 calls)
     h_psi:calbec :     67.30s CPU     69.18s WALL (      61 calls)
     vloc_psi     :    450.63s CPU    451.13s WALL (      61 calls)
     add_vuspsi   :     71.38s CPU     71.56s WALL (      61 calls)

     General routines
     calbec       :     67.30s CPU     69.18s WALL (      61 calls)
     fft          :      1.30s CPU      1.31s WALL (      56 calls)
     fftw         :    433.98s CPU    434.18s WALL (   17016 calls)
 
     Parallel routines
 
     PWSCF        : 17m11.73s CPU    17m36.46s WALL

 
   This run was terminated on:   0:21:21  26Mar2020            

=------------------------------------------------------------------------------=
   JOB DONE.
=------------------------------------------------------------------------------=
