
     Program PWSCF v.6.4.1 starts on 22Nov2019 at 14:20: 2 

     This program is part of the open-source Quantum ESPRESSO suite
     for quantum simulation of materials; please cite
         "P. Giannozzi et al., J. Phys.:Condens. Matter 21 395502 (2009);
         "P. Giannozzi et al., J. Phys.:Condens. Matter 29 465901 (2017);
          URL http://www.quantum-espresso.org", 
     in publications or presentations arising from this work. More details at
     http://www.quantum-espresso.org/quote

     Parallel version (MPI), running on    40 processors

     MPI processes distributed on     4 nodes
     K-points division:     npool     =      40
     Reading input from scf.in

     Current dimensions of program PWSCF are:
     Max number of different atomic species (ntypx) = 10
     Max number of k-points (npk) =  40000
     Max angular momentum in pseudopotentials (lmaxx) =  3

     Subspace diagonalization in iterative solution of the eigenvalue problem:
     a serial algorithm will be used

     Message from routine setup:
     using ibrav=0 with symmetry is DISCOURAGED, use correct ibrav instead
 
     G-vector sticks info
     --------------------
     sticks:   dense  smooth     PW     G-vecs:    dense   smooth      PW
     Sum        7665    7665   2061               501125   501125   69519
 


     bravais-lattice index     =            0
     lattice parameter (alat)  =      14.0927  a.u.
     unit-cell volume          =    2822.6042 (a.u.)^3
     number of atoms/cell      =           32
     number of atomic types    =            2
     number of electrons       =       369.00
     number of Kohn-Sham states=          222
     kinetic-energy cutoff     =     120.0000  Ry
     charge density cutoff     =     480.0000  Ry
     convergence threshold     =      1.0E-08
     mixing beta               =       0.7000
     number of iterations used =            8  plain     mixing
     Exchange-correlation      = SLA PW NOGX NOGC ( 1  4  0  0 0 0)

     celldm(1)=  14.092728  celldm(2)=   0.000000  celldm(3)=   0.000000
     celldm(4)=   0.000000  celldm(5)=   0.000000  celldm(6)=   0.000000

     crystal axes: (cart. coord. in units of alat)
               a(1) = (   1.000000   0.000000   0.000000 )  
               a(2) = (   0.000000   1.012182   0.000000 )  
               a(3) = (   0.000000   0.000000   0.996337 )  

     reciprocal axes: (cart. coord. in units 2 pi/alat)
               b(1) = (  1.000000  0.000000  0.000000 )  
               b(2) = (  0.000000  0.987964  0.000000 )  
               b(3) = (  0.000000  0.000000  1.003677 )  


     PseudoPot. # 1 for W  read from file:
     /cluster/scratch/mnoe/QE/pps/W_ONCV_LDA-4.0.upf
     MD5 check sum: ba0307d5d4cd419d6f1d13dc49d7c13a
     Pseudo is Norm-conserving + core correction, Zval = 28.0
     Generated using ONCVPSP code by D. R. Hamann
     Using radial grid of 1380 points,  8 beta functions with: 
                l(1) =   0
                l(2) =   0
                l(3) =   1
                l(4) =   1
                l(5) =   2
                l(6) =   2
                l(7) =   3
                l(8) =   3

     PseudoPot. # 2 for O  read from file:
     /cluster/scratch/mnoe/QE/pps/O_ONCV_LDA-3.0.upf
     MD5 check sum: b55cdb4f45ae2203d24ad12cf8d61a31
     Pseudo is Norm-conserving + core correction, Zval =  6.0
     Generated using ONCVPSP code by D. R. Hamann
     Using radial grid of  926 points,  5 beta functions with: 
                l(1) =   0
                l(2) =   0
                l(3) =   1
                l(4) =   1
                l(5) =   2

     atomic species   valence    mass     pseudopotential
        W             28.00   183.84000     W ( 1.00)
        O              6.00    15.99940     O ( 1.00)

      8 Sym. Ops., with inversion, found ( 6 have fractional translation)



   Cartesian axes

     site n.     atom                  positions (alat units)
         1           W   tau(   1) = (   0.2352000   0.2962933   0.0139288  )
         2           W   tau(   2) = (   0.7648000   0.7158890   0.9824078  )
         3           W   tau(   3) = (   0.2648000   0.2097979   0.5120970  )
         4           W   tau(   4) = (   0.7352000   0.8023844   0.4842395  )
         5           W   tau(   5) = (   0.7648000   0.2962933   0.4842395  )
         6           W   tau(   6) = (   0.2352000   0.7158890   0.5120970  )
         7           W   tau(   7) = (   0.7352000   0.2097979   0.9824078  )
         8           W   tau(   8) = (   0.2648000   0.8023844   0.0139288  )
         9           O   tau(   9) = (   0.2227000   0.0292351   0.0043341  )
        10           O   tau(  10) = (   0.7773000   0.9829473   0.9920025  )
        11           O   tau(  11) = (   0.2773000   0.4768561   0.5025023  )
        12           O   tau(  12) = (   0.7227000   0.5353262   0.4938342  )
        13           O   tau(  13) = (   0.7773000   0.0292351   0.4938342  )
        14           O   tau(  14) = (   0.2227000   0.9829473   0.5025023  )
        15           O   tau(  15) = (   0.7227000   0.4768561   0.9920025  )
        16           O   tau(  16) = (   0.2773000   0.5353262   0.0043341  )
        17           O   tau(  17) = (   0.5040500   0.2246943   0.5038570  )
        18           O   tau(  18) = (   0.4959500   0.7874880   0.4924796  )
        19           O   tau(  19) = (   0.9959500   0.2813968   1.0020252  )
        20           O   tau(  20) = (   0.0040500   0.7307855  -0.0056887  )
        21           O   tau(  21) = (   0.4959500   0.2246943  -0.0056887  )
        22           O   tau(  22) = (   0.5040500   0.7874880   1.0020252  )
        23           O   tau(  23) = (   0.0040500   0.2813968   0.4924796  )
        24           O   tau(  24) = (   0.9959500   0.7307855   0.5038570  )
        25           O   tau(  25) = (   0.7557097   0.2468510   0.7411349  )
        26           O   tau(  26) = (   0.2442904   0.7653313   0.2552016  )
        27           O   tau(  27) = (   0.7442904   0.2592401   0.2429666  )
        28           O   tau(  28) = (   0.2557097   0.7529422   0.7533699  )
        29           O   tau(  29) = (   0.2442904   0.2468510   0.7533699  )
        30           O   tau(  30) = (   0.7557097   0.7653313   0.2429666  )
        31           O   tau(  31) = (   0.2557097   0.2592401   0.2552016  )
        32           O   tau(  32) = (   0.7442904   0.7529422   0.7411349  )

     number of k points=    64  gaussian smearing, width (Ry)=  0.0007
                       cart. coord. in units 2pi/alat
        k(    1) = (   0.0000000   0.0000000   0.0000000), wk =   0.0092593
        k(    2) = (   0.0000000   0.0000000   0.1672795), wk =   0.0185185
        k(    3) = (   0.0000000   0.0000000   0.3345590), wk =   0.0185185
        k(    4) = (   0.0000000   0.0000000  -0.5018385), wk =   0.0092593
        k(    5) = (   0.0000000   0.1646607   0.0000000), wk =   0.0185185
        k(    6) = (   0.0000000   0.1646607   0.1672795), wk =   0.0370370
        k(    7) = (   0.0000000   0.1646607   0.3345590), wk =   0.0370370
        k(    8) = (   0.0000000   0.1646607  -0.5018385), wk =   0.0185185
        k(    9) = (   0.0000000   0.3293214   0.0000000), wk =   0.0185185
        k(   10) = (   0.0000000   0.3293214   0.1672795), wk =   0.0370370
        k(   11) = (   0.0000000   0.3293214   0.3345590), wk =   0.0370370
        k(   12) = (   0.0000000   0.3293214  -0.5018385), wk =   0.0185185
        k(   13) = (   0.0000000  -0.4939822   0.0000000), wk =   0.0092593
        k(   14) = (   0.0000000  -0.4939822   0.1672795), wk =   0.0185185
        k(   15) = (   0.0000000  -0.4939822   0.3345590), wk =   0.0185185
        k(   16) = (   0.0000000  -0.4939822  -0.5018385), wk =   0.0092593
        k(   17) = (   0.1666667   0.0000000   0.0000000), wk =   0.0185185
        k(   18) = (   0.1666667   0.0000000   0.1672795), wk =   0.0370370
        k(   19) = (   0.1666667   0.0000000   0.3345590), wk =   0.0370370
        k(   20) = (   0.1666667   0.0000000  -0.5018385), wk =   0.0185185
        k(   21) = (   0.1666667   0.1646607   0.0000000), wk =   0.0370370
        k(   22) = (   0.1666667   0.1646607   0.1672795), wk =   0.0740741
        k(   23) = (   0.1666667   0.1646607   0.3345590), wk =   0.0740741
        k(   24) = (   0.1666667   0.1646607  -0.5018385), wk =   0.0370370
        k(   25) = (   0.1666667   0.3293214   0.0000000), wk =   0.0370370
        k(   26) = (   0.1666667   0.3293214   0.1672795), wk =   0.0740741
        k(   27) = (   0.1666667   0.3293214   0.3345590), wk =   0.0740741
        k(   28) = (   0.1666667   0.3293214  -0.5018385), wk =   0.0370370
        k(   29) = (   0.1666667  -0.4939822   0.0000000), wk =   0.0185185
        k(   30) = (   0.1666667  -0.4939822   0.1672795), wk =   0.0370370
        k(   31) = (   0.1666667  -0.4939822   0.3345590), wk =   0.0370370
        k(   32) = (   0.1666667  -0.4939822  -0.5018385), wk =   0.0185185
        k(   33) = (   0.3333333   0.0000000   0.0000000), wk =   0.0185185
        k(   34) = (   0.3333333   0.0000000   0.1672795), wk =   0.0370370
        k(   35) = (   0.3333333   0.0000000   0.3345590), wk =   0.0370370
        k(   36) = (   0.3333333   0.0000000  -0.5018385), wk =   0.0185185
        k(   37) = (   0.3333333   0.1646607   0.0000000), wk =   0.0370370
        k(   38) = (   0.3333333   0.1646607   0.1672795), wk =   0.0740741
        k(   39) = (   0.3333333   0.1646607   0.3345590), wk =   0.0740741
        k(   40) = (   0.3333333   0.1646607  -0.5018385), wk =   0.0370370
        k(   41) = (   0.3333333   0.3293214   0.0000000), wk =   0.0370370
        k(   42) = (   0.3333333   0.3293214   0.1672795), wk =   0.0740741
        k(   43) = (   0.3333333   0.3293214   0.3345590), wk =   0.0740741
        k(   44) = (   0.3333333   0.3293214  -0.5018385), wk =   0.0370370
        k(   45) = (   0.3333333  -0.4939822   0.0000000), wk =   0.0185185
        k(   46) = (   0.3333333  -0.4939822   0.1672795), wk =   0.0370370
        k(   47) = (   0.3333333  -0.4939822   0.3345590), wk =   0.0370370
        k(   48) = (   0.3333333  -0.4939822  -0.5018385), wk =   0.0185185
        k(   49) = (  -0.5000000   0.0000000   0.0000000), wk =   0.0092593
        k(   50) = (  -0.5000000   0.0000000   0.1672795), wk =   0.0185185
        k(   51) = (  -0.5000000   0.0000000   0.3345590), wk =   0.0185185
        k(   52) = (  -0.5000000   0.0000000  -0.5018385), wk =   0.0092593
        k(   53) = (  -0.5000000   0.1646607   0.0000000), wk =   0.0185185
        k(   54) = (  -0.5000000   0.1646607   0.1672795), wk =   0.0370370
        k(   55) = (  -0.5000000   0.1646607   0.3345590), wk =   0.0370370
        k(   56) = (  -0.5000000   0.1646607  -0.5018385), wk =   0.0185185
        k(   57) = (  -0.5000000   0.3293214   0.0000000), wk =   0.0185185
        k(   58) = (  -0.5000000   0.3293214   0.1672795), wk =   0.0370370
        k(   59) = (  -0.5000000   0.3293214   0.3345590), wk =   0.0370370
        k(   60) = (  -0.5000000   0.3293214  -0.5018385), wk =   0.0185185
        k(   61) = (  -0.5000000  -0.4939822   0.0000000), wk =   0.0092593
        k(   62) = (  -0.5000000  -0.4939822   0.1672795), wk =   0.0185185
        k(   63) = (  -0.5000000  -0.4939822   0.3345590), wk =   0.0185185
        k(   64) = (  -0.5000000  -0.4939822  -0.5018385), wk =   0.0092593

     Dense  grid:   501125 G-vectors     FFT dimensions: ( 100, 100, 100)

     Estimated max dynamical RAM per process >       3.15 GB

     Estimated total dynamical RAM >     126.06 GB

     Initial potential from superposition of free atoms

     starting charge  367.99656, renormalised to  369.00000
     Starting wfcs are  232 randomized atomic wfcs

     total cpu time spent up to now is       47.7 secs

     Self-consistent Calculation

     iteration #  1     ecut=   120.00 Ry     beta= 0.70
     Davidson diagonalization with overlap
     ethr =  1.00E-02,  avg # of iterations =  5.5

     total cpu time spent up to now is      207.8 secs

     total energy              =   -6252.79559666 Ry
     Harris-Foulkes estimate   =   -6264.00660793 Ry
     estimated scf accuracy    <      14.06459938 Ry

     iteration #  2     ecut=   120.00 Ry     beta= 0.70
     Davidson diagonalization with overlap
     ethr =  3.81E-03,  avg # of iterations =  3.8

     total cpu time spent up to now is      365.9 secs

     total energy              =   -6249.65375286 Ry
     Harris-Foulkes estimate   =   -6270.20673318 Ry
     estimated scf accuracy    <      54.65459425 Ry

     iteration #  3     ecut=   120.00 Ry     beta= 0.70
     Davidson diagonalization with overlap
     ethr =  3.81E-03,  avg # of iterations =  3.4

     total cpu time spent up to now is      512.5 secs

     total energy              =   -6260.27753514 Ry
     Harris-Foulkes estimate   =   -6260.53906567 Ry
     estimated scf accuracy    <       0.90554193 Ry

     iteration #  4     ecut=   120.00 Ry     beta= 0.70
     Davidson diagonalization with overlap
     ethr =  2.45E-04,  avg # of iterations =  3.5

     total cpu time spent up to now is      634.1 secs

     total energy              =   -6260.24840158 Ry
     Harris-Foulkes estimate   =   -6260.33508387 Ry
     estimated scf accuracy    <       0.24007249 Ry

     iteration #  5     ecut=   120.00 Ry     beta= 0.70
     Davidson diagonalization with overlap
     ethr =  6.51E-05,  avg # of iterations =  4.9

     total cpu time spent up to now is      771.0 secs

     total energy              =   -6260.26590896 Ry
     Harris-Foulkes estimate   =   -6260.28980393 Ry
     estimated scf accuracy    <       0.05453916 Ry

     iteration #  6     ecut=   120.00 Ry     beta= 0.70
     Davidson diagonalization with overlap
     ethr =  1.48E-05,  avg # of iterations =  5.8

     total cpu time spent up to now is      911.6 secs

     total energy              =   -6260.27689422 Ry
     Harris-Foulkes estimate   =   -6260.28036903 Ry
     estimated scf accuracy    <       0.00895714 Ry

     iteration #  7     ecut=   120.00 Ry     beta= 0.70
     Davidson diagonalization with overlap
     ethr =  2.43E-06,  avg # of iterations =  5.4

     total cpu time spent up to now is     1043.4 secs

     total energy              =   -6260.27812676 Ry
     Harris-Foulkes estimate   =   -6260.27821980 Ry
     estimated scf accuracy    <       0.00014513 Ry

     iteration #  8     ecut=   120.00 Ry     beta= 0.70
     Davidson diagonalization with overlap
     ethr =  3.93E-08,  avg # of iterations =  3.3

     total cpu time spent up to now is     1205.8 secs

     total energy              =   -6260.27820276 Ry
     Harris-Foulkes estimate   =   -6260.27822801 Ry
     estimated scf accuracy    <       0.00010058 Ry

     iteration #  9     ecut=   120.00 Ry     beta= 0.70
     Davidson diagonalization with overlap
     ethr =  2.73E-08,  avg # of iterations =  1.0

     total cpu time spent up to now is     1315.5 secs

     total energy              =   -6260.27819861 Ry
     Harris-Foulkes estimate   =   -6260.27820859 Ry
     estimated scf accuracy    <       0.00002711 Ry

     iteration # 10     ecut=   120.00 Ry     beta= 0.70
     Davidson diagonalization with overlap
     ethr =  7.35E-09,  avg # of iterations =  2.9

     total cpu time spent up to now is     1434.6 secs

     total energy              =   -6260.27820265 Ry
     Harris-Foulkes estimate   =   -6260.27820321 Ry
     estimated scf accuracy    <       0.00000141 Ry

     iteration # 11     ecut=   120.00 Ry     beta= 0.70
     Davidson diagonalization with overlap
     ethr =  3.82E-10,  avg # of iterations =  2.8

     total cpu time spent up to now is     1577.0 secs

     total energy              =   -6260.27820294 Ry
     Harris-Foulkes estimate   =   -6260.27820304 Ry
     estimated scf accuracy    <       0.00000025 Ry

     iteration # 12     ecut=   120.00 Ry     beta= 0.70
     Davidson diagonalization with overlap
     ethr =  6.66E-11,  avg # of iterations =  1.4

     total cpu time spent up to now is     1688.3 secs

     total energy              =   -6260.27820293 Ry
     Harris-Foulkes estimate   =   -6260.27820295 Ry
     estimated scf accuracy    <       0.00000005 Ry

     iteration # 13     ecut=   120.00 Ry     beta= 0.70
     Davidson diagonalization with overlap
     ethr =  1.23E-11,  avg # of iterations =  3.0

     total cpu time spent up to now is     1834.3 secs

     End of self-consistent calculation

          k = 0.0000 0.0000 0.0000 ( 62697 PWs)   bands (ev):

   -66.0334 -66.0327 -66.0327 -66.0327 -66.0321 -66.0321 -66.0321 -66.0315
   -30.4490 -30.4442 -30.4387 -30.4337 -30.4087 -30.4051 -30.3967 -30.3864
   -30.3849 -30.3843 -30.3807 -30.3675 -30.3669 -30.3649 -30.3470 -30.3401
   -30.3197 -30.3146 -30.3065 -30.2987 -30.2965 -30.2919 -30.2909 -30.2851
   -20.1813 -20.1812 -20.1807 -20.1807 -20.1805 -20.1803 -20.1798 -20.1797
   -20.1748 -20.1744 -20.1743 -20.1740 -20.1739 -20.1737 -20.1735 -20.1733
   -20.1716 -20.1711 -20.1710 -20.1705 -20.1664 -20.1660 -20.1658 -20.1653
   -20.1587 -20.1586 -20.1578 -20.1576 -20.1565 -20.1565 -20.1555 -20.1555
   -20.1518 -20.1517 -20.1516 -20.1516 -20.1493 -20.1492 -20.1472 -20.1471
   -20.1466 -20.1465 -20.1440 -20.1438 -20.1438 -20.1437 -20.1428 -20.1427
   -20.1354 -20.1352 -20.1349 -20.1347 -20.1342 -20.1341 -20.1336 -20.1335
   -10.0096  -9.6247  -9.6149  -9.5793  -9.2157  -9.1950  -9.1849  -8.9104
    -8.8748  -8.8099  -8.8091  -8.8046  -7.9488  -7.8652  -7.8566  -7.7932
    -7.7915  -7.7879  -7.7642  -7.7495  -7.6627  -7.6363  -7.6087  -7.5900
     1.2785   1.2904   1.2938   1.3228   1.3398   1.3713   1.4225   1.4517
     1.4760   1.5387   1.5747   1.6623   2.4090   2.4527   2.4714   2.5294
     2.5314   2.6612   4.0477   4.1518   4.2339   4.3742   4.5994   4.6404
     4.6762   4.6971   4.7183   4.7974   4.8696   4.9106   5.2245   5.5252
     5.5294   5.5353   5.6182   5.6752   5.6909   5.7889   5.8099   5.8596
     5.8602   5.9061   5.9523   6.0249   6.0253   6.0334   6.0858   6.1229
     6.2390   6.4106   6.4333   6.4484   6.4511   6.7140   6.7454   6.7485
     6.7937   6.8028   7.0159   7.0240   7.0782   7.0792   7.1067   7.1175
     7.1876   7.1886   8.1315   8.1829   8.2983   8.3225   8.4220   8.4459
     9.5053   9.5112   9.7524   9.8725   9.8975  10.0331  12.5135  12.5537
    12.6229  12.6475  12.7140  12.7861  12.7980  12.8112  12.8690  12.8728
    13.1474  13.2243  13.2538  13.4044  13.9179  13.9642  14.0547  14.1338
    14.1919  14.2372  14.5236  14.6766  14.8898  14.8919  15.3742  15.5410
    15.8652  16.3664  16.8878  16.9860  16.9979  17.2119

          k = 0.0000 0.0000 0.1673 ( 62631 PWs)   bands (ev):

   -66.0333 -66.0328 -66.0327 -66.0327 -66.0322 -66.0321 -66.0320 -66.0315
   -30.4487 -30.4446 -30.4383 -30.4341 -30.4087 -30.4054 -30.3950 -30.3853
   -30.3814 -30.3797 -30.3766 -30.3668 -30.3652 -30.3629 -30.3477 -30.3390
   -30.3227 -30.3181 -30.3061 -30.3015 -30.2983 -30.2967 -30.2933 -30.2873
   -20.1813 -20.1812 -20.1808 -20.1807 -20.1805 -20.1803 -20.1799 -20.1797
   -20.1748 -20.1744 -20.1743 -20.1740 -20.1739 -20.1737 -20.1734 -20.1733
   -20.1715 -20.1712 -20.1709 -20.1706 -20.1664 -20.1660 -20.1657 -20.1653
   -20.1586 -20.1584 -20.1576 -20.1575 -20.1567 -20.1567 -20.1557 -20.1557
   -20.1518 -20.1517 -20.1517 -20.1517 -20.1491 -20.1491 -20.1474 -20.1472
   -20.1465 -20.1464 -20.1442 -20.1439 -20.1437 -20.1437 -20.1428 -20.1428
   -20.1353 -20.1351 -20.1349 -20.1346 -20.1343 -20.1342 -20.1337 -20.1336
    -9.9701  -9.6394  -9.5632  -9.5298  -9.2047  -9.1961  -9.1345  -8.8804
    -8.8413  -8.8110  -8.7951  -8.7736  -7.9761  -7.9163  -7.8787  -7.8688
    -7.8655  -7.8493  -7.8256  -7.7965  -7.6725  -7.6399  -7.6223  -7.5933
     1.2794   1.3322   1.3573   1.3935   1.4096   1.4161   1.4729   1.5339
     1.6092   1.6540   1.7284   1.8003   2.4124   2.4694   2.5376   2.6034
     2.6235   2.7410   4.0253   4.1168   4.2223   4.3206   4.3645   4.4258
     4.5630   4.6142   4.7050   4.7075   4.7342   4.8136   5.2317   5.4275
     5.4964   5.5445   5.5512   5.6110   5.6317   5.6631   5.7563   5.7814
     5.8032   5.8772   5.8856   6.0024   6.0163   6.0465   6.1384   6.1829
     6.2275   6.4038   6.5622   6.6327   6.6536   6.6753   6.7329   6.7958
     6.8202   6.8524   6.8924   6.8995   6.9448   6.9523   6.9919   7.0747
     7.1085   7.1126   8.1362   8.1756   8.2320   8.2590   8.3570   8.3847
     9.8203   9.8254   9.8872  10.0266  10.0794  10.1790  12.5803  12.6083
    12.6215  12.6450  12.7091  12.7107  12.7690  12.7806  12.8020  12.8113
    12.9755  13.0412  13.2645  13.4029  13.8113  13.8523  14.0084  14.0554
    14.3480  14.5007  14.6912  14.7662  14.8899  14.9399  15.5212  15.7853
    15.8335  16.5528  16.7132  17.0251  17.0759  17.2445

          k = 0.0000 0.0000 0.3346 ( 62643 PWs)   bands (ev):

   -66.0332 -66.0329 -66.0326 -66.0325 -66.0323 -66.0322 -66.0319 -66.0316
   -30.4478 -30.4454 -30.4374 -30.4349 -30.4082 -30.4062 -30.3917 -30.3867
   -30.3704 -30.3678 -30.3662 -30.3660 -30.3619 -30.3508 -30.3502 -30.3346
   -30.3328 -30.3292 -30.3151 -30.3093 -30.3047 -30.2982 -30.2970 -30.2915
   -20.1812 -20.1811 -20.1809 -20.1808 -20.1804 -20.1802 -20.1800 -20.1798
   -20.1747 -20.1745 -20.1742 -20.1741 -20.1738 -20.1737 -20.1734 -20.1733
   -20.1714 -20.1712 -20.1708 -20.1706 -20.1663 -20.1661 -20.1656 -20.1654
   -20.1582 -20.1580 -20.1572 -20.1571 -20.1571 -20.1570 -20.1561 -20.1560
   -20.1518 -20.1518 -20.1517 -20.1517 -20.1488 -20.1487 -20.1478 -20.1477
   -20.1460 -20.1458 -20.1446 -20.1444 -20.1436 -20.1435 -20.1430 -20.1430
   -20.1351 -20.1349 -20.1346 -20.1345 -20.1344 -20.1343 -20.1339 -20.1338
    -9.8730  -9.6854  -9.4381  -9.4138  -9.2373  -9.2342  -8.9037  -8.8399
    -8.8165  -8.7218  -8.6938  -8.6634  -8.2047  -8.1701  -8.1617  -8.1356
    -7.8958  -7.8781  -7.8275  -7.8052  -7.6723  -7.6495  -7.6234  -7.6023
     1.2863   1.3155   1.3746   1.4017   1.4447   1.4659   1.4883   1.5234
     2.2316   2.2687   2.3462   2.3749   2.4189   2.4909   2.7608   2.8078
     2.8746   2.9691   3.7519   3.8028   3.9209   4.0364   4.0394   4.0794
     4.2522   4.2688   4.5922   4.6988   4.7590   4.7722   4.9331   5.0950
     5.1990   5.2513   5.3886   5.4049   5.4466   5.6166   5.7131   5.7359
     5.7803   5.8715   5.9308   6.0379   6.0996   6.1045   6.2023   6.2178
     6.2643   6.2759   6.3808   6.4540   6.5254   6.5861   6.5979   6.6707
     6.7914   6.8073   6.8591   6.8869   7.1064   7.1092   7.2099   7.2174
     7.3134   7.3521   8.0250   8.0557   8.1454   8.1547   8.1643   8.1895
     9.9231  10.0011  10.5290  10.5346  10.8188  10.8501  12.0883  12.1098
    12.4166  12.4641  12.7304  12.7470  12.7768  12.8127  12.8152  12.8275
    12.9062  12.9661  13.2594  13.3998  13.4970  13.5569  13.6580  13.7071
    14.8267  14.8831  15.0269  15.0569  15.0627  15.3629  15.4552  15.7243
    16.1513  16.7926  17.0023  17.1679  17.3379  17.3532

          k = 0.0000 0.0000-0.5018 ( 62604 PWs)   bands (ev):

   -66.0330 -66.0330 -66.0324 -66.0324 -66.0324 -66.0324 -66.0318 -66.0318
   -30.4466 -30.4466 -30.4361 -30.4361 -30.4073 -30.4073 -30.3888 -30.3888
   -30.3673 -30.3673 -30.3560 -30.3559 -30.3496 -30.3496 -30.3459 -30.3459
   -30.3333 -30.3333 -30.3243 -30.3243 -30.3022 -30.3022 -30.2949 -30.2949
   -20.1810 -20.1810 -20.1809 -20.1809 -20.1802 -20.1802 -20.1800 -20.1800
   -20.1746 -20.1746 -20.1742 -20.1742 -20.1738 -20.1738 -20.1734 -20.1734
   -20.1713 -20.1713 -20.1707 -20.1707 -20.1662 -20.1662 -20.1655 -20.1655
   -20.1576 -20.1576 -20.1575 -20.1575 -20.1567 -20.1567 -20.1565 -20.1565
   -20.1518 -20.1517 -20.1517 -20.1517 -20.1484 -20.1484 -20.1482 -20.1482
   -20.1453 -20.1453 -20.1451 -20.1451 -20.1433 -20.1433 -20.1433 -20.1433
   -20.1348 -20.1348 -20.1346 -20.1346 -20.1343 -20.1343 -20.1341 -20.1341
    -9.7661  -9.7660  -9.3129  -9.3129  -9.3040  -9.3040  -8.8252  -8.8252
    -8.5655  -8.5655  -8.4843  -8.4843  -8.4660  -8.4660  -8.4408  -8.4408
    -7.8897  -7.8897  -7.8169  -7.8169  -7.6619  -7.6619  -7.6139  -7.6139
     1.2987   1.2987   1.3871   1.3871   1.4577   1.4577   1.5105   1.5105
     2.4240   2.4240   2.8654   2.8654   2.9289   2.9289   3.0802   3.0802
     3.1695   3.1695   3.2646   3.2646   3.5547   3.5547   3.9330   3.9330
     3.9425   3.9425   4.2497   4.2497   4.7084   4.7084   5.1175   5.1175
     5.2189   5.2189   5.3258   5.3258   5.3596   5.3596   5.7504   5.7504
     5.8751   5.8751   6.0489   6.0489   6.0803   6.0803   6.1489   6.1489
     6.2421   6.2421   6.3387   6.3387   6.4609   6.4609   6.5405   6.5405
     6.7984   6.7984   6.8208   6.8208   7.1077   7.1077   7.6716   7.6716
     7.6995   7.6995   7.8002   7.8002   7.8399   7.8400   8.1543   8.1543
     9.9654   9.9654  11.3380  11.3380  11.3546  11.3546  11.6580  11.6580
    11.6757  11.6758  12.7601  12.7601  12.8108  12.8108  13.0536  13.0536
    13.1223  13.1223  13.2377  13.2377  13.2974  13.2974  13.4085  13.4085
    14.8681  14.8681  15.3181  15.3181  15.4872  15.4872  15.5690  15.5690
    16.2416  16.2416  17.4452  17.4452  17.6996  17.6996

          k = 0.0000 0.1647 0.0000 ( 62654 PWs)   bands (ev):

   -66.0333 -66.0327 -66.0327 -66.0327 -66.0321 -66.0321 -66.0321 -66.0315
   -30.4479 -30.4432 -30.4392 -30.4342 -30.4046 -30.4010 -30.3943 -30.3863
   -30.3841 -30.3810 -30.3804 -30.3689 -30.3661 -30.3650 -30.3458 -30.3388
   -30.3230 -30.3171 -30.3116 -30.3030 -30.2966 -30.2926 -30.2919 -30.2868
   -20.1812 -20.1811 -20.1806 -20.1806 -20.1806 -20.1804 -20.1799 -20.1797
   -20.1747 -20.1744 -20.1742 -20.1739 -20.1739 -20.1737 -20.1735 -20.1733
   -20.1716 -20.1711 -20.1710 -20.1706 -20.1664 -20.1659 -20.1658 -20.1654
   -20.1587 -20.1586 -20.1578 -20.1576 -20.1565 -20.1565 -20.1555 -20.1555
   -20.1515 -20.1515 -20.1513 -20.1513 -20.1493 -20.1493 -20.1475 -20.1473
   -20.1466 -20.1465 -20.1441 -20.1441 -20.1440 -20.1437 -20.1429 -20.1429
   -20.1354 -20.1351 -20.1350 -20.1347 -20.1342 -20.1341 -20.1337 -20.1335
    -9.9675  -9.5968  -9.5752  -9.5653  -9.2272  -9.2077  -9.1007  -8.9080
    -8.8772  -8.7727  -8.7662  -8.7648  -7.9747  -7.8814  -7.8585  -7.8172
    -7.8156  -7.7962  -7.7867  -7.7474  -7.7352  -7.7248  -7.7142  -7.6761
     1.2872   1.2929   1.3633   1.3718   1.4323   1.4461   1.4746   1.5731
     1.6312   1.6596   1.7123   1.8025   2.4818   2.5093   2.5456   2.5672
     2.6134   2.6580   3.8735   3.9792   3.9852   4.1105   4.5961   4.6385
     4.6450   4.6556   4.7060   4.8355   4.9370   4.9657   5.1111   5.2799
     5.3889   5.5967   5.5972   5.6451   5.6469   5.6791   5.6874   5.6958
     5.8211   5.9611   5.9618   5.9636   6.0222   6.0483   6.1802   6.2357
     6.2759   6.3891   6.4168   6.4737   6.6119   6.6719   6.7196   6.7216
     6.8106   6.8290   6.9624   6.9707   7.0126   7.0148   7.0818   7.1040
     7.1489   7.1516   8.0953   8.1393   8.2995   8.3204   8.3307   8.3602
     9.5119   9.5311   9.9647  10.0787  10.1274  10.2625  12.3944  12.4651
    12.5611  12.6300  12.6356  12.6482  12.6647  12.8398  12.8690  12.8742
    13.1704  13.2760  13.2873  13.4569  13.8882  13.9665  14.0796  14.0906
    14.1527  14.4303  14.5081  14.8215  14.9362  14.9402  15.3528  15.5127
    16.0994  16.2661  17.0638  17.0935  17.2184  17.2303

          k = 0.0000 0.1647 0.1673 ( 62671 PWs)   bands (ev):

   -66.0333 -66.0327 -66.0327 -66.0326 -66.0322 -66.0321 -66.0321 -66.0316
   -30.4476 -30.4435 -30.4388 -30.4345 -30.4045 -30.4012 -30.3922 -30.3814
   -30.3810 -30.3795 -30.3768 -30.3682 -30.3664 -30.3613 -30.3466 -30.3377
   -30.3255 -30.3202 -30.3111 -30.3025 -30.3016 -30.2967 -30.2955 -30.2894
   -20.1812 -20.1811 -20.1807 -20.1806 -20.1805 -20.1803 -20.1799 -20.1798
   -20.1747 -20.1744 -20.1742 -20.1740 -20.1739 -20.1737 -20.1735 -20.1734
   -20.1715 -20.1711 -20.1710 -20.1706 -20.1664 -20.1660 -20.1658 -20.1654
   -20.1585 -20.1584 -20.1576 -20.1575 -20.1567 -20.1566 -20.1557 -20.1557
   -20.1515 -20.1515 -20.1513 -20.1513 -20.1492 -20.1491 -20.1476 -20.1475
   -20.1464 -20.1463 -20.1441 -20.1441 -20.1440 -20.1439 -20.1430 -20.1429
   -20.1353 -20.1351 -20.1349 -20.1347 -20.1343 -20.1342 -20.1337 -20.1336
    -9.9268  -9.5890  -9.5474  -9.5105  -9.2180  -9.1458  -9.1121  -8.8765
    -8.8437  -8.7744  -8.7527  -8.7397  -8.0037  -7.9143  -7.9039  -7.8781
    -7.8638  -7.8549  -7.8277  -7.7994  -7.7605  -7.7377  -7.7264  -7.7068
     1.3655   1.3917   1.4258   1.4714   1.5246   1.5381   1.6097   1.6438
     1.7004   1.7273   1.7323   1.8775   2.4873   2.5433   2.5914   2.6552
     2.6935   2.7356   3.8740   3.9662   4.0013   4.0848   4.3590   4.4211
     4.5998   4.6301   4.6689   4.7094   4.7155   4.8398   5.1223   5.2425
     5.3507   5.4351   5.5243   5.5536   5.5726   5.6170   5.6182   5.6889
     5.7434   5.9018   5.9128   5.9589   6.0026   6.0447   6.2030   6.2182
     6.2971   6.5248   6.5515   6.5903   6.6054   6.6778   6.7003   6.8122
     6.8292   6.8586   6.8723   6.9292   6.9429   6.9710   6.9870   7.0032
     7.0718   7.1108   8.1009   8.1326   8.2343   8.2585   8.2773   8.3063
     9.8220   9.8371  10.1416  10.2424  10.2558  10.3280  12.4673  12.5335
    12.6151  12.6260  12.6333  12.6352  12.6565  12.7081  12.7352  12.8393
    13.0047  13.0683  13.3131  13.4567  13.7796  13.8470  13.9260  13.9595
    14.4481  14.6852  14.6906  14.8645  14.9579  15.0447  15.4893  15.7659
    16.2338  16.2637  16.8869  17.1341  17.2181  17.2981

          k = 0.0000 0.1647 0.3346 ( 62653 PWs)   bands (ev):

   -66.0332 -66.0328 -66.0326 -66.0325 -66.0323 -66.0322 -66.0320 -66.0317
   -30.4467 -30.4443 -30.4379 -30.4354 -30.4041 -30.4020 -30.3881 -30.3824
   -30.3710 -30.3679 -30.3672 -30.3662 -30.3627 -30.3501 -30.3493 -30.3343
   -30.3335 -30.3304 -30.3151 -30.3095 -30.3092 -30.3016 -30.3011 -30.2946
   -20.1811 -20.1810 -20.1808 -20.1807 -20.1804 -20.1802 -20.1801 -20.1799
   -20.1746 -20.1745 -20.1742 -20.1740 -20.1739 -20.1738 -20.1735 -20.1734
   -20.1714 -20.1712 -20.1709 -20.1707 -20.1663 -20.1660 -20.1657 -20.1655
   -20.1581 -20.1580 -20.1572 -20.1571 -20.1570 -20.1570 -20.1561 -20.1560
   -20.1515 -20.1515 -20.1514 -20.1514 -20.1489 -20.1488 -20.1480 -20.1479
   -20.1459 -20.1458 -20.1446 -20.1444 -20.1438 -20.1438 -20.1433 -20.1432
   -20.1350 -20.1349 -20.1347 -20.1345 -20.1344 -20.1343 -20.1340 -20.1338
    -9.8266  -9.6351  -9.4312  -9.3742  -9.2516  -9.1516  -8.9155  -8.8170
    -8.7806  -8.7247  -8.6735  -8.6410  -8.2206  -8.1716  -8.1666  -8.1319
    -7.9051  -7.8910  -7.8306  -7.8082  -7.7661  -7.7494  -7.7339  -7.7194
     1.3938   1.4159   1.4426   1.4642   1.5977   1.6095   1.6771   1.6967
     2.2369   2.2774   2.3460   2.3878   2.4945   2.5563   2.8117   2.8826
     2.9138   2.9622   3.7312   3.7478   3.9112   3.9286   4.0148   4.0702
     4.1129   4.2079   4.5797   4.6105   4.7569   4.7713   4.8819   5.0590
     5.0634   5.0734   5.1442   5.1925   5.4499   5.4725   5.5302   5.7274
     5.8180   5.8715   5.9371   5.9553   5.9840   6.0106   6.0690   6.0722
     6.3818   6.4773   6.4802   6.5526   6.6037   6.6647   6.6673   6.6833
     6.7046   6.7946   6.9437   6.9718   6.9802   7.0172   7.2110   7.2452
     7.3326   7.3543   8.0303   8.0440   8.1024   8.1106   8.1320   8.1346
    10.1615  10.2329  10.5326  10.5410  10.9126  10.9468  12.0935  12.1087
    12.4442  12.4830  12.6515  12.6746  12.6892  12.7407  12.7740  12.7894
    12.8435  12.8804  13.3124  13.4507  13.4622  13.5473  13.5576  13.6039
    14.8505  14.8943  15.0456  15.1564  15.3740  15.4257  15.5086  16.1193
    16.3021  16.7541  16.7690  17.1117  17.4066  17.5444

          k = 0.0000 0.1647-0.5018 ( 62608 PWs)   bands (ev):

   -66.0330 -66.0330 -66.0324 -66.0324 -66.0324 -66.0324 -66.0318 -66.0318
   -30.4455 -30.4455 -30.4366 -30.4366 -30.4031 -30.4031 -30.3848 -30.3848
   -30.3684 -30.3684 -30.3555 -30.3555 -30.3501 -30.3501 -30.3466 -30.3466
   -30.3330 -30.3330 -30.3238 -30.3238 -30.3065 -30.3065 -30.2986 -30.2986
   -20.1810 -20.1810 -20.1809 -20.1809 -20.1802 -20.1802 -20.1801 -20.1801
   -20.1746 -20.1746 -20.1741 -20.1741 -20.1738 -20.1738 -20.1734 -20.1734
   -20.1713 -20.1713 -20.1708 -20.1708 -20.1661 -20.1661 -20.1656 -20.1656
   -20.1576 -20.1576 -20.1575 -20.1575 -20.1566 -20.1566 -20.1565 -20.1565
   -20.1515 -20.1515 -20.1514 -20.1514 -20.1485 -20.1485 -20.1484 -20.1484
   -20.1453 -20.1453 -20.1451 -20.1451 -20.1436 -20.1436 -20.1435 -20.1435
   -20.1347 -20.1347 -20.1346 -20.1346 -20.1343 -20.1343 -20.1341 -20.1341
    -9.7169  -9.7169  -9.3199  -9.3199  -9.2364  -9.2364  -8.7918  -8.7918
    -8.5784  -8.5784  -8.4893  -8.4893  -8.4586  -8.4585  -8.4314  -8.4313
    -7.9022  -7.9022  -7.8200  -7.8200  -7.7576  -7.7576  -7.7296  -7.7296
     1.4050   1.4050   1.4558   1.4558   1.6083   1.6083   1.6883   1.6883
     2.4973   2.4973   2.8950   2.8950   2.9643   2.9643   3.0696   3.0696
     3.1612   3.1612   3.2859   3.2859   3.5375   3.5375   3.9770   3.9770
     3.9881   3.9881   4.0558   4.0558   4.6098   4.6098   4.9456   4.9457
     5.0425   5.0425   5.2620   5.2621   5.2682   5.2683   5.6371   5.6371
     5.8419   5.8420   5.8878   5.8878   6.0057   6.0057   6.0523   6.0523
     6.3267   6.3267   6.5220   6.5220   6.5643   6.5643   6.6967   6.6967
     6.7292   6.7292   6.9174   6.9174   6.9829   6.9829   7.6831   7.6831
     7.6930   7.6931   7.7835   7.7835   7.8122   7.8122   8.1199   8.1199
    10.2007  10.2007  11.3386  11.3386  11.3555  11.3555  11.7185  11.7185
    11.7283  11.7283  12.6510  12.6510  12.7986  12.7986  13.0721  13.0721
    13.0725  13.0725  13.0977  13.0977  13.1971  13.1971  13.4487  13.4487
    14.8866  14.8866  15.2942  15.2942  15.7089  15.7089  15.8625  15.8625
    16.3704  16.3704  17.2363  17.2363  17.7162  17.7163

          k = 0.0000 0.3293 0.0000 ( 62722 PWs)   bands (ev):

   -66.0332 -66.0329 -66.0326 -66.0326 -66.0322 -66.0322 -66.0320 -66.0316
   -30.4454 -30.4406 -30.4406 -30.4357 -30.3941 -30.3907 -30.3893 -30.3863
   -30.3834 -30.3816 -30.3734 -30.3702 -30.3681 -30.3573 -30.3420 -30.3343
   -30.3338 -30.3252 -30.3246 -30.3137 -30.2968 -30.2953 -30.2920 -30.2898
   -20.1811 -20.1809 -20.1807 -20.1805 -20.1805 -20.1804 -20.1800 -20.1799
   -20.1746 -20.1742 -20.1741 -20.1741 -20.1739 -20.1738 -20.1737 -20.1735
   -20.1714 -20.1711 -20.1710 -20.1707 -20.1663 -20.1659 -20.1658 -20.1655
   -20.1587 -20.1586 -20.1577 -20.1577 -20.1565 -20.1565 -20.1555 -20.1555
   -20.1509 -20.1508 -20.1504 -20.1504 -20.1496 -20.1495 -20.1482 -20.1480
   -20.1463 -20.1462 -20.1449 -20.1449 -20.1439 -20.1436 -20.1433 -20.1432
   -20.1353 -20.1351 -20.1351 -20.1349 -20.1341 -20.1340 -20.1338 -20.1337
    -9.8625  -9.6511  -9.4573  -9.4468  -9.2654  -9.2489  -8.9028  -8.8839
    -8.8610  -8.6458  -8.6356  -8.6207  -8.1689  -8.0840  -8.0662  -8.0282
    -7.8657  -7.8641  -7.8163  -7.8042  -7.7828  -7.7639  -7.7415  -7.7188
     1.2875   1.2907   1.3727   1.3727   1.4602   1.4713   1.5444   1.5688
     2.2310   2.3120   2.3855   2.4431   2.5616   2.5931   2.7480   2.7573
     2.8355   2.8791   3.4717   3.5031   3.5976   3.6330   4.1182   4.4329
     4.4917   4.6007   4.6498   4.6603   4.7165   4.7743   5.1255   5.1337
     5.1363   5.1462   5.4797   5.5356   5.5926   5.6332   5.6631   5.7315
     5.8572   5.9028   5.9377   5.9722   6.0169   6.0189   6.0960   6.1412
     6.2700   6.2922   6.3587   6.5224   6.6208   6.6387   6.7569   6.8625
     6.8776   6.9417   7.0085   7.0118   7.0850   7.0868   7.1318   7.1677
     7.1924   7.2137   7.9326   7.9596   8.0609   8.1007   8.3039   8.3153
     9.5262   9.5438  10.5295  10.6021  10.7415  10.8261  11.9303  11.9775
    12.1608  12.1723  12.5760  12.6090  12.7899  12.8699  12.8733  12.9738
    13.1536  13.3640  13.3647  13.4197  13.7430  13.8468  13.9630  14.0023
    14.3980  14.4939  14.7616  14.8089  15.0968  15.2745  15.4287  15.5745
    15.6445  17.0178  17.2422  17.2874  17.7248  17.7583

          k = 0.0000 0.3293 0.1673 ( 62708 PWs)   bands (ev):

   -66.0331 -66.0328 -66.0326 -66.0325 -66.0323 -66.0322 -66.0320 -66.0317
   -30.4451 -30.4409 -30.4402 -30.4360 -30.3941 -30.3907 -30.3861 -30.3816
   -30.3789 -30.3773 -30.3728 -30.3705 -30.3686 -30.3549 -30.3430 -30.3353
   -30.3333 -30.3268 -30.3245 -30.3131 -30.3017 -30.2993 -30.2966 -30.2934
   -20.1810 -20.1809 -20.1806 -20.1805 -20.1805 -20.1804 -20.1801 -20.1799
   -20.1745 -20.1743 -20.1741 -20.1741 -20.1739 -20.1738 -20.1737 -20.1735
   -20.1714 -20.1711 -20.1710 -20.1707 -20.1662 -20.1659 -20.1658 -20.1655
   -20.1585 -20.1585 -20.1576 -20.1575 -20.1566 -20.1566 -20.1557 -20.1557
   -20.1508 -20.1508 -20.1505 -20.1505 -20.1495 -20.1494 -20.1483 -20.1482
   -20.1461 -20.1461 -20.1448 -20.1448 -20.1440 -20.1438 -20.1434 -20.1433
   -20.1352 -20.1350 -20.1350 -20.1348 -20.1342 -20.1341 -20.1339 -20.1338
    -9.8186  -9.6023  -9.4674  -9.3847  -9.2612  -9.1839  -8.8776  -8.8653
    -8.8503  -8.6484  -8.6197  -8.6135  -8.1856  -8.0983  -8.0669  -8.0324
    -7.9085  -7.8714  -7.8597  -7.8543  -7.8321  -7.8209  -7.8121  -7.8072
     1.3791   1.3877   1.4564   1.4677   1.6029   1.6101   1.6942   1.7241
     2.2381   2.3096   2.3837   2.4485   2.6367   2.6532   2.7503   2.7737
     2.9181   2.9559   3.4998   3.5478   3.5931   3.6287   4.1054   4.3686
     4.3759   4.4751   4.4888   4.6347   4.6871   4.7920   4.8553   4.8659
     5.1296   5.1714   5.3656   5.4186   5.4430   5.4806   5.6249   5.6406
     5.6918   5.8464   5.8791   5.8914   5.9047   5.9627   6.0141   6.0374
     6.4029   6.4914   6.5587   6.5763   6.6752   6.7678   6.8309   6.8418
     6.8772   6.9086   6.9143   6.9763   7.0042   7.0274   7.1182   7.1978
     7.2053   7.2417   7.9379   7.9532   8.0333   8.0645   8.2416   8.2544
     9.8320   9.8458  10.7150  10.7500  10.7779  10.8207  12.0174  12.0615
    12.1608  12.1754  12.6267  12.6416  12.6625  12.6799  12.8448  12.9722
    13.0896  13.1722  13.3001  13.4058  13.6022  13.6795  13.8349  13.8693
    14.6801  14.6910  14.8034  15.0095  15.2395  15.3927  15.6929  15.7316
    15.7470  17.1156  17.1925  17.2963  17.3480  17.7834

          k = 0.0000 0.3293 0.3346 ( 62686 PWs)   bands (ev):

   -66.0330 -66.0327 -66.0327 -66.0324 -66.0324 -66.0321 -66.0321 -66.0318
   -30.4442 -30.4418 -30.4393 -30.4368 -30.3935 -30.3915 -30.3793 -30.3739
   -30.3713 -30.3705 -30.3682 -30.3662 -30.3648 -30.3468 -30.3461 -30.3407
   -30.3345 -30.3298 -30.3221 -30.3148 -30.3112 -30.3086 -30.3085 -30.3012
   -20.1809 -20.1808 -20.1806 -20.1805 -20.1805 -20.1804 -20.1802 -20.1800
   -20.1745 -20.1743 -20.1740 -20.1740 -20.1739 -20.1739 -20.1736 -20.1735
   -20.1713 -20.1711 -20.1710 -20.1708 -20.1661 -20.1659 -20.1658 -20.1656
   -20.1581 -20.1581 -20.1572 -20.1571 -20.1570 -20.1570 -20.1560 -20.1560
   -20.1508 -20.1508 -20.1506 -20.1506 -20.1493 -20.1492 -20.1486 -20.1485
   -20.1457 -20.1456 -20.1445 -20.1445 -20.1445 -20.1443 -20.1437 -20.1436
   -20.1350 -20.1348 -20.1348 -20.1346 -20.1344 -20.1343 -20.1341 -20.1340
    -9.7111  -9.5126  -9.4859  -9.2978  -9.2144  -8.9574  -8.9196  -8.7741
    -8.7332  -8.6593  -8.5768  -8.5556  -8.3140  -8.2271  -8.1550  -8.1197
    -8.0714  -8.0450  -8.0077  -7.9739  -7.8514  -7.8389  -7.8270  -7.8162
     1.4247   1.4378   1.4477   1.4602   2.1169   2.1878   2.2396   2.2550
     2.3400   2.3659   2.4255   2.5442   2.7039   2.7571   2.8640   2.9493
     3.1196   3.1330   3.5053   3.5654   3.6050   3.6287   3.8742   3.8840
     4.0905   4.2969   4.3591   4.3910   4.4361   4.6011   4.6305   4.8199
     4.8804   4.9512   5.0468   5.0698   5.1656   5.2004   5.3715   5.3723
     5.4077   5.5433   5.7445   5.8630   5.9438   5.9921   6.0379   6.0625
     6.5036   6.5113   6.5283   6.5746   6.5956   6.6563   6.7448   6.7697
     6.9134   7.0798   7.0944   7.1293   7.1898   7.2017   7.2560   7.3083
     7.3561   7.3746   7.9223   7.9249   7.9419   7.9489   8.0476   8.0749
    10.5156  10.5361  10.7833  10.8050  11.2196  11.2590  12.0828  12.0968
    12.1533  12.2054  12.3040  12.3192  12.6129  12.6539  12.8066  12.8205
    12.9104  12.9678  13.2121  13.2639  13.3111  13.3933  13.5272  13.5311
    14.8894  15.0118  15.0202  15.3368  15.4022  16.0012  16.1145  16.2303
    16.6648  16.6697  17.0818  17.4140  17.4540  17.4576

          k = 0.0000 0.3293-0.5018 ( 62686 PWs)   bands (ev):

   -66.0329 -66.0329 -66.0326 -66.0326 -66.0323 -66.0323 -66.0319 -66.0319
   -30.4430 -30.4430 -30.4380 -30.4380 -30.3925 -30.3925 -30.3738 -30.3738
   -30.3723 -30.3723 -30.3540 -30.3540 -30.3526 -30.3526 -30.3487 -30.3487
   -30.3317 -30.3317 -30.3217 -30.3217 -30.3172 -30.3172 -30.3076 -30.3076
   -20.1808 -20.1808 -20.1807 -20.1807 -20.1804 -20.1804 -20.1802 -20.1802
   -20.1744 -20.1744 -20.1740 -20.1740 -20.1740 -20.1740 -20.1736 -20.1736
   -20.1712 -20.1712 -20.1709 -20.1709 -20.1660 -20.1660 -20.1657 -20.1657
   -20.1576 -20.1576 -20.1575 -20.1575 -20.1566 -20.1566 -20.1565 -20.1565
   -20.1507 -20.1507 -20.1507 -20.1507 -20.1489 -20.1489 -20.1489 -20.1488
   -20.1451 -20.1451 -20.1449 -20.1449 -20.1441 -20.1441 -20.1441 -20.1441
   -20.1347 -20.1347 -20.1345 -20.1345 -20.1344 -20.1344 -20.1343 -20.1343
    -9.5957  -9.5957  -9.3710  -9.3710  -9.0293  -9.0293  -8.6886  -8.6886
    -8.6310  -8.6310  -8.5077  -8.5076  -8.4275  -8.4275  -8.3940  -8.3939
    -8.0681  -8.0681  -8.0155  -8.0155  -7.8395  -7.8395  -7.8281  -7.8281
     1.4380   1.4380   1.4513   1.4513   2.2317   2.2317   2.3558   2.3558
     2.6974   2.6974   2.9804   2.9804   3.0344   3.0345   3.0595   3.0596
     3.1399   3.1399   3.3412   3.3412   3.4780   3.4780   3.6550   3.6550
     4.1046   4.1046   4.1262   4.1262   4.1582   4.1582   4.3681   4.3682
     4.9464   4.9464   5.0732   5.0732   5.1626   5.1626   5.2031   5.2031
     5.3365   5.3365   5.8063   5.8063   6.0014   6.0014   6.0418   6.0418
     6.4359   6.4359   6.4992   6.4992   6.5639   6.5639   6.7590   6.7590
     7.0524   7.0524   7.1599   7.1599   7.2186   7.2186   7.6638   7.6639
     7.6791   7.6791   7.7053   7.7053   7.7373   7.7373   7.9674   7.9674
    10.7755  10.7755  11.3378  11.3378  11.3609  11.3609  11.8936  11.8936
    11.9243  11.9243  12.2254  12.2254  12.7128  12.7129  12.7393  12.7393
    12.9443  12.9443  13.0913  13.0913  13.1577  13.1577  13.3943  13.3943
    14.9720  14.9720  15.2214  15.2214  16.0634  16.0634  16.7148  16.7148
    16.8342  16.8342  16.8400  16.8400  17.7672  17.8434

          k = 0.0000-0.4940 0.0000 ( 62658 PWs)   bands (ev):

   -66.0330 -66.0330 -66.0324 -66.0324 -66.0324 -66.0324 -66.0318 -66.0318
   -30.4428 -30.4427 -30.4379 -30.4379 -30.3870 -30.3870 -30.3827 -30.3827
   -30.3820 -30.3820 -30.3784 -30.3784 -30.3507 -30.3507 -30.3426 -30.3426
   -30.3346 -30.3346 -30.3257 -30.3256 -30.2966 -30.2966 -30.2915 -30.2915
   -20.1809 -20.1808 -20.1807 -20.1807 -20.1802 -20.1802 -20.1801 -20.1801
   -20.1743 -20.1743 -20.1741 -20.1741 -20.1739 -20.1739 -20.1737 -20.1736
   -20.1713 -20.1713 -20.1708 -20.1708 -20.1661 -20.1661 -20.1657 -20.1656
   -20.1586 -20.1586 -20.1577 -20.1577 -20.1565 -20.1565 -20.1555 -20.1555
   -20.1501 -20.1501 -20.1500 -20.1500 -20.1493 -20.1492 -20.1492 -20.1492
   -20.1457 -20.1457 -20.1457 -20.1457 -20.1437 -20.1437 -20.1435 -20.1434
   -20.1352 -20.1352 -20.1350 -20.1350 -20.1340 -20.1340 -20.1339 -20.1338
    -9.7437  -9.7437  -9.3406  -9.3406  -9.3277  -9.3277  -8.8930  -8.8930
    -8.5182  -8.5181  -8.4020  -8.4019  -8.3886  -8.3886  -8.3667  -8.3667
    -7.8704  -7.8704  -7.8138  -7.8138  -7.7757  -7.7757  -7.7325  -7.7325
     1.2887   1.2887   1.3734   1.3735   1.4671   1.4671   1.5617   1.5617
     2.5737   2.5737   2.9279   2.9279   2.9821   2.9821   3.0259   3.0259
     3.0949   3.0949   3.2882   3.2882   3.5222   3.5222   3.5310   3.5310
     3.6936   3.6936   4.6172   4.6172   4.6821   4.6821   5.3000   5.3000
     5.3737   5.3737   5.3840   5.3840   5.3988   5.3988   5.7383   5.7383
     5.8502   5.8502   5.9278   5.9278   6.0035   6.0035   6.0257   6.0257
     6.3290   6.3290   6.3601   6.3601   6.6012   6.6012   6.7349   6.7349
     6.9338   6.9338   7.0085   7.0085   7.0903   7.0903   7.5993   7.5993
     7.6026   7.6026   7.6429   7.6429   7.6895   7.6895   8.3094   8.3094
     9.5393   9.5393  11.2455  11.2455  11.2745  11.2745  11.4837  11.4837
    11.5489  11.5489  12.5914  12.5914  12.8716  12.8716  12.9848  12.9849
    13.1874  13.1874  13.5219  13.5219  13.5825  13.5826  13.9721  13.9721
    14.4958  14.4958  15.0490  15.0490  15.1048  15.1048  15.2883  15.2883
    16.4454  16.4454  17.6111  17.6111  17.8767  17.8771

          k = 0.0000-0.4940 0.1673 ( 62690 PWs)   bands (ev):

   -66.0330 -66.0330 -66.0325 -66.0324 -66.0324 -66.0324 -66.0318 -66.0318
   -30.4424 -30.4424 -30.4382 -30.4382 -30.3837 -30.3837 -30.3809 -30.3809
   -30.3788 -30.3788 -30.3779 -30.3779 -30.3515 -30.3515 -30.3413 -30.3413
   -30.3359 -30.3359 -30.3249 -30.3249 -30.3013 -30.3013 -30.2958 -30.2958
   -20.1808 -20.1808 -20.1807 -20.1807 -20.1803 -20.1803 -20.1802 -20.1802
   -20.1743 -20.1743 -20.1741 -20.1741 -20.1739 -20.1739 -20.1737 -20.1737
   -20.1712 -20.1712 -20.1709 -20.1708 -20.1661 -20.1661 -20.1657 -20.1657
   -20.1585 -20.1585 -20.1575 -20.1575 -20.1566 -20.1566 -20.1556 -20.1556
   -20.1501 -20.1500 -20.1500 -20.1500 -20.1493 -20.1493 -20.1493 -20.1493
   -20.1456 -20.1456 -20.1456 -20.1456 -20.1438 -20.1438 -20.1436 -20.1436
   -20.1351 -20.1351 -20.1349 -20.1349 -20.1341 -20.1340 -20.1339 -20.1339
    -9.6966  -9.6966  -9.3438  -9.3438  -9.2612  -9.2612  -8.8594  -8.8594
    -8.5313  -8.5313  -8.4082  -8.4082  -8.3824  -8.3824  -8.3644  -8.3644
    -7.8983  -7.8983  -7.8563  -7.8563  -7.8325  -7.8325  -7.8163  -7.8163
     1.3835   1.3835   1.4634   1.4634   1.6092   1.6092   1.7169   1.7169
     2.6541   2.6541   2.9345   2.9345   2.9821   2.9821   3.0385   3.0385
     3.1522   3.1522   3.2767   3.2767   3.5163   3.5163   3.5687   3.5687
     3.7131   3.7131   4.3926   4.3926   4.6600   4.6600   5.1216   5.1216
     5.1545   5.1545   5.3158   5.3158   5.4203   5.4203   5.5689   5.5689
     5.6942   5.6942   5.7283   5.7283   5.9480   5.9480   6.0200   6.0200
     6.4635   6.4635   6.5601   6.5601   6.6142   6.6142   6.8512   6.8512
     6.9146   6.9146   6.9558   6.9558   7.0598   7.0598   7.5866   7.5867
     7.6117   7.6117   7.6473   7.6473   7.6772   7.6772   8.2481   8.2481
     9.8421   9.8421  11.3422  11.3422  11.3850  11.3850  11.4921  11.4921
    11.5733  11.5733  12.6360  12.6360  12.6713  12.6714  13.0315  13.0315
    13.1855  13.1855  13.3516  13.3516  13.4027  13.4027  13.8427  13.8427
    14.6923  14.6923  15.1907  15.1907  15.2340  15.2340  15.5341  15.5342
    16.5503  16.5503  17.5727  17.5727  17.6546  17.6546

          k = 0.0000-0.4940 0.3346 ( 62692 PWs)   bands (ev):

   -66.0329 -66.0329 -66.0326 -66.0326 -66.0323 -66.0322 -66.0319 -66.0319
   -30.4415 -30.4415 -30.4391 -30.4391 -30.3817 -30.3817 -30.3796 -30.3796
   -30.3712 -30.3712 -30.3661 -30.3661 -30.3544 -30.3544 -30.3409 -30.3409
   -30.3369 -30.3369 -30.3222 -30.3222 -30.3132 -30.3132 -30.3063 -30.3063
   -20.1807 -20.1807 -20.1806 -20.1806 -20.1804 -20.1804 -20.1803 -20.1803
   -20.1743 -20.1743 -20.1741 -20.1741 -20.1738 -20.1738 -20.1737 -20.1737
   -20.1711 -20.1711 -20.1709 -20.1709 -20.1660 -20.1660 -20.1658 -20.1657
   -20.1581 -20.1581 -20.1571 -20.1571 -20.1570 -20.1570 -20.1560 -20.1560
   -20.1499 -20.1499 -20.1499 -20.1499 -20.1495 -20.1495 -20.1495 -20.1495
   -20.1452 -20.1452 -20.1452 -20.1452 -20.1442 -20.1442 -20.1440 -20.1440
   -20.1349 -20.1349 -20.1347 -20.1347 -20.1343 -20.1343 -20.1341 -20.1341
    -9.5826  -9.5826  -9.3851  -9.3851  -9.0520  -9.0520  -8.7479  -8.7479
    -8.5936  -8.5936  -8.4384  -8.4384  -8.3595  -8.3595  -8.3520  -8.3520
    -8.1267  -8.1267  -8.0891  -8.0891  -7.8491  -7.8491  -7.8259  -7.8259
     1.4323   1.4323   1.4553   1.4553   2.2284   2.2285   2.3198   2.3198
     2.8587   2.8587   2.9364   2.9364   3.0221   3.0221   3.0706   3.0706
     3.2530   3.2530   3.2701   3.2701   3.4857   3.4857   3.6414   3.6414
     3.7527   3.7528   3.8858   3.8858   4.5476   4.5476   4.6766   4.6766
     4.8386   4.8386   4.9731   4.9731   5.0775   5.0775   5.2797   5.2797
     5.4594   5.4594   5.6335   5.6335   5.9809   5.9809   6.0624   6.0624
     6.5246   6.5246   6.5528   6.5528   6.6221   6.6221   6.6462   6.6462
     7.1292   7.1292   7.2718   7.2718   7.3100   7.3100   7.5613   7.5613
     7.6132   7.6132   7.6334   7.6334   7.6450   7.6450   8.0576   8.0576
    10.5329  10.5329  11.4618  11.4618  11.4899  11.4899  11.7400  11.7400
    11.7999  11.7999  12.1225  12.1225  12.8094  12.8094  12.8651  12.8651
    12.9062  12.9062  13.1457  13.1457  13.1795  13.1795  13.5170  13.5170
    14.9554  14.9554  15.1932  15.1932  15.7557  15.7557  16.4550  16.4550
    16.8999  16.8999  17.0611  17.0611  17.7215  17.7215

          k = 0.0000-0.4940-0.5018 ( 62688 PWs)   bands (ev):

   -66.0327 -66.0327 -66.0327 -66.0327 -66.0321 -66.0321 -66.0321 -66.0321
   -30.4403 -30.4403 -30.4403 -30.4403 -30.3806 -30.3806 -30.3806 -30.3806
   -30.3606 -30.3606 -30.3606 -30.3606 -30.3515 -30.3515 -30.3515 -30.3515
   -30.3272 -30.3272 -30.3272 -30.3272 -30.3165 -30.3165 -30.3165 -30.3165
   -20.1806 -20.1806 -20.1806 -20.1806 -20.1804 -20.1804 -20.1804 -20.1804
   -20.1742 -20.1742 -20.1742 -20.1742 -20.1738 -20.1738 -20.1738 -20.1738
   -20.1710 -20.1710 -20.1710 -20.1710 -20.1659 -20.1659 -20.1659 -20.1658
   -20.1575 -20.1575 -20.1575 -20.1575 -20.1566 -20.1566 -20.1566 -20.1566
   -20.1498 -20.1497 -20.1497 -20.1497 -20.1497 -20.1497 -20.1497 -20.1497
   -20.1447 -20.1447 -20.1447 -20.1447 -20.1446 -20.1446 -20.1446 -20.1446
   -20.1346 -20.1346 -20.1346 -20.1346 -20.1344 -20.1344 -20.1344 -20.1344
    -9.4648  -9.4648  -9.4648  -9.4648  -8.7802  -8.7802  -8.7802  -8.7802
    -8.5619  -8.5619  -8.5619  -8.5619  -8.3118  -8.3118  -8.3118  -8.3118
    -8.2808  -8.2808  -8.2808  -8.2808  -7.8380  -7.8380  -7.8380  -7.8380
     1.4459   1.4459   1.4459   1.4459   2.8236   2.8236   2.8236   2.8236
     2.9380   2.9380   2.9381   2.9381   3.1796   3.1796   3.1796   3.1796
     3.2486   3.2486   3.2486   3.2486   3.4562   3.4562   3.4562   3.4562
     3.6239   3.6239   3.6239   3.6239   4.4421   4.4421   4.4422   4.4422
     4.4939   4.4939   4.4939   4.4939   5.1731   5.1731   5.1731   5.1731
     5.5201   5.5201   5.5201   5.5201   6.0376   6.0376   6.0376   6.0376
     6.4765   6.4765   6.4765   6.4765   6.6054   6.6054   6.6054   6.6054
     7.4803   7.4803   7.4803   7.4803   7.5042   7.5042   7.5042   7.5042
     7.5191   7.5191   7.5192   7.5192   7.7759   7.7759   7.7759   7.7759
    11.3103  11.3103  11.3103  11.3103  11.5258  11.5258  11.5258  11.5258
    12.2774  12.2774  12.2774  12.2774  12.3224  12.3224  12.3224  12.3224
    13.0765  13.0765  13.0765  13.0765  13.2148  13.2148  13.2148  13.2148
    15.1035  15.1035  15.1035  15.1035  16.4349  16.4349  16.4349  16.4349
    17.4985  17.4985  17.4985  17.4987  17.5857  17.5857

          k = 0.1667 0.0000 0.0000 ( 62661 PWs)   bands (ev):

   -66.0333 -66.0328 -66.0327 -66.0327 -66.0322 -66.0321 -66.0320 -66.0315
   -30.4450 -30.4404 -30.4341 -30.4292 -30.4100 -30.4065 -30.3959 -30.3860
   -30.3852 -30.3836 -30.3819 -30.3713 -30.3695 -30.3660 -30.3507 -30.3432
   -30.3195 -30.3151 -30.3061 -30.2995 -30.2962 -30.2922 -30.2906 -30.2856
   -20.1813 -20.1812 -20.1808 -20.1807 -20.1805 -20.1803 -20.1798 -20.1797
   -20.1748 -20.1744 -20.1743 -20.1740 -20.1739 -20.1737 -20.1735 -20.1733
   -20.1712 -20.1708 -20.1706 -20.1702 -20.1668 -20.1663 -20.1661 -20.1657
   -20.1586 -20.1585 -20.1578 -20.1577 -20.1565 -20.1564 -20.1556 -20.1556
   -20.1518 -20.1517 -20.1516 -20.1516 -20.1492 -20.1492 -20.1472 -20.1471
   -20.1466 -20.1466 -20.1440 -20.1438 -20.1438 -20.1437 -20.1428 -20.1427
   -20.1354 -20.1352 -20.1349 -20.1347 -20.1342 -20.1341 -20.1336 -20.1335
    -9.9706  -9.6307  -9.5756  -9.5329  -9.2259  -9.1973  -9.1178  -8.8823
    -8.8424  -8.8071  -8.7960  -8.7791  -8.0256  -7.9582  -7.9532  -7.9135
    -7.7977  -7.7925  -7.7679  -7.7528  -7.6606  -7.6390  -7.6127  -7.5942
     1.2865   1.3176   1.3385   1.3612   1.3705   1.3718   1.4172   1.4486
     1.6965   1.7236   1.7832   1.8344   2.4583   2.4956   2.5265   2.5534
     2.6068   2.7416   4.0313   4.0850   4.2454   4.2805   4.3564   4.4006
     4.4576   4.4642   4.7129   4.7669   4.9014   4.9326   5.1666   5.3461
     5.4736   5.5558   5.5833   5.6422   5.6561   5.7200   5.7224   5.8028
     5.8708   5.9212   5.9858   6.0164   6.0243   6.0365   6.1586   6.2126
     6.2304   6.4341   6.4621   6.4679   6.5288   6.6481   6.7010   6.7172
     6.7434   6.7995   6.9336   6.9563   6.9692   7.0314   7.0399   7.0999
     7.1844   7.2080   8.0947   8.1402   8.2242   8.2522   8.4232   8.4439
     9.7007   9.7600   9.7873   9.9668  10.1589  10.2854  12.3810  12.3869
    12.5723  12.6384  12.6461  12.7095  12.8407  12.8650  12.9124  12.9164
    13.2044  13.2550  13.3613  13.5114  13.8511  13.8769  14.0830  14.1229
    14.1895  14.2329  14.5979  14.7607  14.9300  14.9433  15.3536  15.8314
    15.8519  16.5322  16.6066  17.0745  17.1309  17.2611

          k = 0.1667 0.0000 0.1673 ( 62661 PWs)   bands (ev):

   -66.0333 -66.0327 -66.0327 -66.0326 -66.0322 -66.0321 -66.0321 -66.0316
   -30.4447 -30.4407 -30.4337 -30.4295 -30.4100 -30.4068 -30.3941 -30.3840
   -30.3811 -30.3810 -30.3779 -30.3703 -30.3697 -30.3621 -30.3514 -30.3418
   -30.3224 -30.3185 -30.3057 -30.3013 -30.2991 -30.2971 -30.2930 -30.2879
   -20.1813 -20.1812 -20.1808 -20.1807 -20.1805 -20.1803 -20.1799 -20.1797
   -20.1748 -20.1744 -20.1743 -20.1740 -20.1739 -20.1737 -20.1735 -20.1734
   -20.1711 -20.1708 -20.1705 -20.1702 -20.1667 -20.1663 -20.1661 -20.1657
   -20.1585 -20.1584 -20.1577 -20.1575 -20.1566 -20.1566 -20.1557 -20.1557
   -20.1518 -20.1517 -20.1517 -20.1517 -20.1491 -20.1491 -20.1474 -20.1472
   -20.1464 -20.1464 -20.1441 -20.1439 -20.1437 -20.1437 -20.1428 -20.1428
   -20.1353 -20.1351 -20.1348 -20.1346 -20.1343 -20.1342 -20.1337 -20.1336
    -9.9298  -9.5899  -9.5791  -9.4799  -9.2093  -9.1442  -9.1276  -8.8478
    -8.8138  -8.7872  -8.7802  -8.7759  -8.0366  -7.9684  -7.9555  -7.9294
    -7.8918  -7.8876  -7.8574  -7.8516  -7.6724  -7.6425  -7.6264  -7.5976
     1.3049   1.3518   1.3630   1.4100   1.5254   1.5287   1.6089   1.6509
     1.7003   1.7255   1.8386   1.9005   2.4984   2.5317   2.5633   2.6056
     2.6950   2.8224   4.0095   4.0518   4.2222   4.2250   4.4204   4.4251
     4.4521   4.4678   4.4793   4.5333   4.6232   4.6571   5.1639   5.3150
     5.3896   5.4560   5.5148   5.5253   5.6226   5.6872   5.7574   5.7597
     5.7810   5.8158   5.8693   5.9167   6.0383   6.0903   6.1504   6.2020
     6.2621   6.4871   6.5749   6.6190   6.6498   6.6813   6.6879   6.7039
     6.7282   6.7456   6.8319   6.9076   6.9381   7.0139   7.0686   7.0769
     7.0880   7.1255   8.0992   8.1333   8.1691   8.1953   8.3601   8.3833
     9.9892  10.0407  10.0738  10.1624  10.2384  10.2792  12.4440  12.4446
    12.5848  12.6567  12.7012  12.7120  12.7275  12.7482  12.8360  12.8660
    13.0078  13.0517  13.3995  13.5114  13.7226  13.7431  14.0040  14.0504
    14.3853  14.4943  14.7981  14.8408  14.9487  15.0229  15.7567  15.8083
    15.8334  16.6808  16.7182  16.8280  17.1600  17.3028

          k = 0.1667 0.0000 0.3346 ( 62683 PWs)   bands (ev):

   -66.0332 -66.0328 -66.0326 -66.0325 -66.0323 -66.0322 -66.0320 -66.0317
   -30.4438 -30.4415 -30.4328 -30.4303 -30.4095 -30.4076 -30.3906 -30.3854
   -30.3741 -30.3707 -30.3679 -30.3676 -30.3629 -30.3537 -30.3504 -30.3368
   -30.3325 -30.3294 -30.3149 -30.3099 -30.3043 -30.2979 -30.2978 -30.2922
   -20.1812 -20.1811 -20.1809 -20.1808 -20.1804 -20.1802 -20.1800 -20.1799
   -20.1747 -20.1745 -20.1743 -20.1741 -20.1738 -20.1737 -20.1735 -20.1734
   -20.1710 -20.1708 -20.1705 -20.1702 -20.1666 -20.1664 -20.1660 -20.1658
   -20.1581 -20.1580 -20.1573 -20.1571 -20.1570 -20.1569 -20.1562 -20.1561
   -20.1518 -20.1517 -20.1517 -20.1517 -20.1488 -20.1487 -20.1478 -20.1477
   -20.1460 -20.1458 -20.1446 -20.1444 -20.1436 -20.1435 -20.1430 -20.1430
   -20.1351 -20.1349 -20.1346 -20.1345 -20.1344 -20.1344 -20.1339 -20.1338
    -9.8292  -9.6363  -9.4543  -9.3527  -9.2483  -9.1611  -8.9142  -8.8059
    -8.7875  -8.7033  -8.6908  -8.6658  -8.2191  -8.1692  -8.1627  -8.1424
    -7.9804  -7.9645  -7.9306  -7.9071  -7.6737  -7.6519  -7.6277  -7.6066
     1.3149   1.3455   1.3678   1.3954   1.6748   1.6770   1.7024   1.7186
     2.2418   2.2705   2.3486   2.3780   2.5032   2.5607   2.7707   2.8075
     2.9521   3.0525   3.7645   3.7984   3.9889   4.0215   4.0712   4.1007
     4.1752   4.2447   4.4592   4.4898   4.5585   4.6938   4.7642   4.8622
     5.1257   5.2139   5.2284   5.3275   5.3847   5.4497   5.6463   5.7621
     5.8267   5.8401   5.8772   5.8987   5.9159   5.9762   6.0975   6.2043
     6.3350   6.3988   6.4439   6.5231   6.5282   6.6293   6.6417   6.6939
     6.7447   6.8796   6.9476   6.9855   7.0006   7.0519   7.2246   7.2475
     7.3391   7.3691   7.9883   8.0103   8.1088   8.1156   8.1619   8.1952
    10.1878  10.2579  10.6493  10.6657  10.8256  10.8644  12.1475  12.1609
    12.4319  12.4642  12.6231  12.6447  12.6559  12.6816  12.8592  12.8662
    12.9078  12.9531  13.3068  13.3729  13.5183  13.5236  13.6587  13.6987
    14.8138  14.8981  15.0392  15.1499  15.2966  15.4619  15.6966  15.7790
    16.2502  16.7679  17.0492  17.1026  17.2011  17.4589

          k = 0.1667 0.0000-0.5018 ( 62598 PWs)   bands (ev):

   -66.0330 -66.0330 -66.0325 -66.0325 -66.0323 -66.0323 -66.0318 -66.0318
   -30.4427 -30.4427 -30.4315 -30.4315 -30.4086 -30.4086 -30.3876 -30.3876
   -30.3719 -30.3718 -30.3588 -30.3588 -30.3494 -30.3494 -30.3462 -30.3462
   -30.3330 -30.3330 -30.3255 -30.3255 -30.3018 -30.3018 -30.2956 -30.2956
   -20.1811 -20.1811 -20.1810 -20.1810 -20.1802 -20.1802 -20.1800 -20.1800
   -20.1746 -20.1746 -20.1742 -20.1742 -20.1738 -20.1738 -20.1734 -20.1734
   -20.1709 -20.1709 -20.1703 -20.1703 -20.1665 -20.1665 -20.1659 -20.1659
   -20.1575 -20.1575 -20.1574 -20.1574 -20.1567 -20.1567 -20.1566 -20.1566
   -20.1517 -20.1517 -20.1517 -20.1517 -20.1484 -20.1484 -20.1482 -20.1482
   -20.1453 -20.1453 -20.1451 -20.1451 -20.1433 -20.1433 -20.1433 -20.1433
   -20.1348 -20.1348 -20.1346 -20.1346 -20.1343 -20.1343 -20.1341 -20.1341
    -9.7188  -9.7188  -9.3284  -9.3284  -9.2319  -9.2319  -8.7948  -8.7948
    -8.5771  -8.5771  -8.4776  -8.4776  -8.4631  -8.4631  -8.4439  -8.4439
    -7.9765  -7.9765  -7.9216  -7.9216  -7.6640  -7.6640  -7.6182  -7.6182
     1.3281   1.3281   1.3804   1.3804   1.6887   1.6887   1.7126   1.7126
     2.5046   2.5046   2.8667   2.8667   2.9161   2.9162   3.0897   3.0897
     3.1539   3.1539   3.3642   3.3643   3.6246   3.6246   3.9234   3.9234
     3.9525   3.9525   4.2042   4.2042   4.4614   4.4614   4.9403   4.9403
     5.0959   5.0959   5.1296   5.1297   5.2801   5.2801   5.6820   5.6820
     5.8287   5.8287   5.8704   5.8704   5.9690   5.9690   6.1491   6.1491
     6.2733   6.2733   6.4581   6.4581   6.5093   6.5093   6.6739   6.6739
     6.7933   6.7933   6.9368   6.9368   7.0393   7.0393   7.6687   7.6687
     7.6804   7.6804   7.8147   7.8147   7.8329   7.8329   8.1187   8.1187
    10.2257  10.2257  11.4135  11.4135  11.4388  11.4388  11.6675  11.6675
    11.6789  11.6789  12.6656  12.6656  12.8594  12.8594  12.9408  12.9408
    12.9857  12.9857  13.2426  13.2426  13.2853  13.2853  13.5089  13.5089
    14.8803  14.8803  15.4708  15.4708  15.5941  15.5941  15.6748  15.6748
    16.3566  16.3566  17.3721  17.3721  17.6631  17.6650

          k = 0.1667 0.1647 0.0000 ( 62661 PWs)   bands (ev):

   -66.0333 -66.0327 -66.0327 -66.0326 -66.0322 -66.0321 -66.0321 -66.0316
   -30.4438 -30.4392 -30.4345 -30.4297 -30.4060 -30.4025 -30.3937 -30.3860
   -30.3850 -30.3821 -30.3793 -30.3726 -30.3706 -30.3641 -30.3494 -30.3417
   -30.3227 -30.3176 -30.3112 -30.3038 -30.2963 -30.2923 -30.2923 -30.2873
   -20.1812 -20.1811 -20.1807 -20.1806 -20.1806 -20.1804 -20.1799 -20.1798
   -20.1747 -20.1744 -20.1743 -20.1740 -20.1740 -20.1738 -20.1736 -20.1734
   -20.1711 -20.1707 -20.1706 -20.1702 -20.1667 -20.1663 -20.1661 -20.1657
   -20.1586 -20.1585 -20.1578 -20.1577 -20.1565 -20.1564 -20.1556 -20.1556
   -20.1515 -20.1515 -20.1513 -20.1513 -20.1493 -20.1492 -20.1474 -20.1473
   -20.1466 -20.1465 -20.1441 -20.1441 -20.1439 -20.1437 -20.1429 -20.1429
   -20.1353 -20.1352 -20.1350 -20.1348 -20.1342 -20.1341 -20.1336 -20.1335
    -9.9275  -9.5822  -9.5517  -9.5198  -9.2373  -9.1319  -9.1125  -8.8785
    -8.8448  -8.7697  -8.7534  -8.7459  -8.0372  -7.9618  -7.9599  -7.9258
    -7.8325  -7.8183  -7.7901  -7.7508  -7.7482  -7.7214  -7.7154  -7.6790
     1.3338   1.3381   1.3627   1.3713   1.5231   1.5716   1.6444   1.6526
     1.7096   1.7718   1.7957   1.8934   2.5387   2.5675   2.6097   2.6140
     2.6342   2.7399   3.8681   3.9153   4.0262   4.1238   4.2936   4.3732
     4.4729   4.5158   4.7125   4.7662   4.9667   4.9692   4.9853   5.2495
     5.3231   5.3852   5.4090   5.5470   5.5740   5.6568   5.6592   5.7766
     5.7818   5.9379   5.9826   6.0129   6.0206   6.0996   6.2391   6.2615
     6.2837   6.3436   6.4427   6.4643   6.5866   6.6668   6.6936   6.7302
     6.7651   6.8784   6.9412   6.9444   6.9556   6.9671   7.0515   7.0664
     7.1459   7.1794   8.0637   8.1024   8.2263   8.2480   8.3333   8.3591
     9.7697   9.7884   9.9735  10.1005  10.3642  10.4769  12.3309  12.3879
    12.4676  12.5278  12.6152  12.6766  12.6918  12.7489  12.9121  12.9166
    13.2312  13.2793  13.3967  13.5167  13.8374  13.8650  14.0481  14.0897
    14.1935  14.4336  14.5930  14.9014  15.0164  15.0227  15.3345  15.8207
    16.2283  16.2484  16.7982  17.1459  17.2944  17.3324

          k = 0.1667 0.1647 0.1673 ( 62660 PWs)   bands (ev):

   -66.0332 -66.0327 -66.0327 -66.0327 -66.0322 -66.0321 -66.0321 -66.0316
   -30.4435 -30.4395 -30.4342 -30.4300 -30.4060 -30.4028 -30.3915 -30.3811
   -30.3808 -30.3798 -30.3780 -30.3715 -30.3708 -30.3606 -30.3502 -30.3405
   -30.3252 -30.3207 -30.3107 -30.3034 -30.3013 -30.2971 -30.2952 -30.2900
   -20.1812 -20.1811 -20.1807 -20.1807 -20.1805 -20.1803 -20.1799 -20.1798
   -20.1747 -20.1744 -20.1743 -20.1740 -20.1739 -20.1738 -20.1736 -20.1734
   -20.1711 -20.1707 -20.1706 -20.1702 -20.1667 -20.1663 -20.1661 -20.1657
   -20.1585 -20.1584 -20.1577 -20.1575 -20.1566 -20.1566 -20.1557 -20.1557
   -20.1515 -20.1515 -20.1513 -20.1513 -20.1492 -20.1491 -20.1476 -20.1475
   -20.1464 -20.1463 -20.1441 -20.1441 -20.1440 -20.1439 -20.1430 -20.1429
   -20.1353 -20.1351 -20.1349 -20.1347 -20.1343 -20.1342 -20.1337 -20.1336
    -9.8851  -9.5371  -9.5258  -9.4970  -9.1569  -9.1416  -9.1240  -8.8454
    -8.8154  -8.7488  -8.7448  -8.7413  -8.0531  -7.9704  -7.9631  -7.9408
    -7.9033  -7.8904  -7.8632  -7.8554  -7.7643  -7.7456  -7.7298  -7.7095
     1.5039   1.5161   1.5253   1.5481   1.5761   1.6111   1.6419   1.7064
     1.7214   1.7838   1.8394   1.9501   2.5738   2.6128   2.6342   2.6853
     2.7132   2.8179   3.8677   3.9071   4.0317   4.0784   4.3833   4.4069
     4.4439   4.4587   4.5026   4.5354   4.6670   4.7107   4.9822   5.2169
     5.2881   5.3592   5.3616   5.4068   5.5343   5.5706   5.5742   5.6267
     5.6430   5.7943   5.9765   6.0063   6.0309   6.0794   6.2004   6.2065
     6.3353   6.4671   6.5022   6.5390   6.6007   6.6805   6.7129   6.7487
     6.8109   6.8277   6.8647   6.9307   6.9866   7.0104   7.0158   7.0736
     7.1100   7.1470   8.0686   8.0958   8.1710   8.1928   8.2799   8.3057
    10.0281  10.0396  10.2431  10.3266  10.3968  10.4711  12.4012  12.4450
    12.5354  12.5779  12.6242  12.6800  12.6898  12.6998  12.7354  12.7564
    13.0347  13.0747  13.4289  13.5219  13.7091  13.7328  13.9111  13.9459
    14.4969  14.7057  14.8151  14.9639  15.0382  15.1145  15.7386  15.8062
    16.1984  16.3816  16.8885  16.9726  17.2195  17.3700

          k = 0.1667 0.1647 0.3346 ( 62651 PWs)   bands (ev):

   -66.0331 -66.0328 -66.0326 -66.0325 -66.0323 -66.0322 -66.0320 -66.0317
   -30.4426 -30.4403 -30.4332 -30.4308 -30.4055 -30.4036 -30.3872 -30.3813
   -30.3748 -30.3717 -30.3678 -30.3676 -30.3635 -30.3527 -30.3496 -30.3358
   -30.3340 -30.3307 -30.3148 -30.3098 -30.3091 -30.3020 -30.3013 -30.2953
   -20.1811 -20.1810 -20.1808 -20.1808 -20.1804 -20.1802 -20.1801 -20.1799
   -20.1746 -20.1745 -20.1742 -20.1741 -20.1739 -20.1738 -20.1735 -20.1734
   -20.1710 -20.1708 -20.1705 -20.1703 -20.1666 -20.1664 -20.1660 -20.1658
   -20.1581 -20.1580 -20.1573 -20.1571 -20.1570 -20.1569 -20.1561 -20.1561
   -20.1515 -20.1515 -20.1514 -20.1514 -20.1489 -20.1488 -20.1480 -20.1479
   -20.1459 -20.1458 -20.1446 -20.1444 -20.1438 -20.1438 -20.1433 -20.1432
   -20.1350 -20.1349 -20.1346 -20.1345 -20.1345 -20.1343 -20.1340 -20.1338
    -9.7809  -9.5828  -9.3910  -9.3699  -9.1771  -9.1644  -8.9265  -8.7841
    -8.7553  -8.7057  -8.6711  -8.6434  -8.2367  -8.1721  -8.1654  -8.1386
    -7.9809  -7.9679  -7.9362  -7.9128  -7.7744  -7.7564  -7.7396  -7.7216
     1.5272   1.5502   1.6021   1.6257   1.6797   1.7000   1.7305   1.7726
     2.2443   2.2792   2.3471   2.3899   2.5795   2.6319   2.8403   2.8824
     2.9707   3.0460   3.7269   3.7414   3.9692   3.9801   4.0189   4.0659
     4.1270   4.1992   4.4573   4.5091   4.5357   4.6673   4.7685   4.8409
     4.9414   5.0143   5.1221   5.1320   5.2183   5.2965   5.4975   5.5908
     5.6180   5.8043   5.8343   5.8744   5.9059   6.0063   6.0337   6.0457
     6.3415   6.4759   6.5427   6.5717   6.6578   6.6754   6.7061   6.7632
     6.8212   6.8916   6.9867   6.9959   7.0017   7.0772   7.2188   7.2607
     7.3426   7.3708   7.9913   8.0002   8.0775   8.0839   8.1072   8.1429
    10.3794  10.4496  10.6587  10.6732  10.9205  10.9554  12.1504  12.1609
    12.4593  12.4881  12.6097  12.6328  12.6889  12.6968  12.7206  12.7340
    12.7588  12.8150  13.3232  13.3677  13.5166  13.5336  13.5413  13.5811
    14.9070  14.9746  15.2590  15.2886  15.3754  15.5554  15.7546  16.0907
    16.3842  16.7412  16.8065  17.1611  17.2283  17.4396

          k = 0.1667 0.1647-0.5018 ( 62624 PWs)   bands (ev):

   -66.0330 -66.0330 -66.0324 -66.0324 -66.0324 -66.0324 -66.0319 -66.0319
   -30.4415 -30.4415 -30.4320 -30.4320 -30.4046 -30.4046 -30.3837 -30.3837
   -30.3728 -30.3728 -30.3581 -30.3581 -30.3499 -30.3499 -30.3468 -30.3468
   -30.3327 -30.3327 -30.3250 -30.3250 -30.3062 -30.3062 -30.2994 -30.2994
   -20.1810 -20.1810 -20.1809 -20.1809 -20.1803 -20.1802 -20.1801 -20.1801
   -20.1746 -20.1746 -20.1742 -20.1742 -20.1738 -20.1738 -20.1735 -20.1735
   -20.1709 -20.1709 -20.1704 -20.1704 -20.1665 -20.1665 -20.1659 -20.1659
   -20.1575 -20.1575 -20.1574 -20.1574 -20.1567 -20.1567 -20.1566 -20.1566
   -20.1515 -20.1515 -20.1514 -20.1514 -20.1485 -20.1485 -20.1484 -20.1484
   -20.1452 -20.1452 -20.1451 -20.1451 -20.1436 -20.1435 -20.1435 -20.1435
   -20.1347 -20.1347 -20.1346 -20.1346 -20.1343 -20.1343 -20.1342 -20.1342
    -9.6670  -9.6670  -9.2547  -9.2547  -9.2457  -9.2457  -8.7640  -8.7640
    -8.5907  -8.5907  -8.4823  -8.4823  -8.4556  -8.4556  -8.4345  -8.4345
    -7.9789  -7.9789  -7.9280  -7.9280  -7.7669  -7.7669  -7.7325  -7.7325
     1.5379   1.5379   1.6148   1.6148   1.6950   1.6950   1.7626   1.7626
     2.5777   2.5777   2.8968   2.8968   2.9503   2.9503   3.0805   3.0806
     3.1486   3.1486   3.3818   3.3818   3.6089   3.6090   3.9714   3.9714
     3.9916   3.9916   4.0483   4.0483   4.4668   4.4668   4.8428   4.8428
     4.9175   4.9175   5.0293   5.0293   5.0851   5.0851   5.5984   5.5984
     5.6621   5.6621   5.7172   5.7172   5.8910   5.8910   6.0204   6.0204
     6.4701   6.4701   6.5351   6.5351   6.6947   6.6948   6.7269   6.7269
     6.7868   6.7868   6.9835   6.9835   7.0254   7.0254   7.6734   7.6734
     7.6746   7.6746   7.7920   7.7920   7.8059   7.8059   8.0887   8.0887
    10.4191  10.4191  11.4155  11.4155  11.4376  11.4376  11.7253  11.7253
    11.7342  11.7342  12.6870  12.6870  12.7258  12.7258  12.9375  12.9375
    12.9801  12.9801  13.0997  13.0997  13.1525  13.1525  13.5208  13.5208
    14.9646  14.9646  15.5756  15.5756  15.8010  15.8011  15.8473  15.8473
    16.4595  16.4595  17.2415  17.2415  17.6061  17.6061

          k = 0.1667 0.3293 0.0000 ( 62662 PWs)   bands (ev):

   -66.0331 -66.0328 -66.0326 -66.0325 -66.0323 -66.0322 -66.0320 -66.0317
   -30.4411 -30.4366 -30.4358 -30.4311 -30.3960 -30.3925 -30.3893 -30.3860
   -30.3844 -30.3826 -30.3767 -30.3742 -30.3672 -30.3565 -30.3451 -30.3369
   -30.3334 -30.3257 -30.3246 -30.3149 -30.2965 -30.2950 -30.2924 -30.2903
   -20.1811 -20.1810 -20.1807 -20.1805 -20.1805 -20.1804 -20.1800 -20.1799
   -20.1746 -20.1743 -20.1742 -20.1741 -20.1739 -20.1738 -20.1737 -20.1735
   -20.1710 -20.1708 -20.1706 -20.1703 -20.1666 -20.1663 -20.1661 -20.1658
   -20.1586 -20.1585 -20.1578 -20.1577 -20.1564 -20.1564 -20.1556 -20.1556
   -20.1508 -20.1508 -20.1504 -20.1504 -20.1496 -20.1495 -20.1481 -20.1480
   -20.1463 -20.1463 -20.1449 -20.1449 -20.1438 -20.1436 -20.1433 -20.1432
   -20.1353 -20.1351 -20.1351 -20.1349 -20.1341 -20.1340 -20.1338 -20.1337
    -9.8199  -9.6055  -9.4661  -9.3896  -9.2757  -9.1736  -8.8815  -8.8645
    -8.8516  -8.6419  -8.6276  -8.6143  -8.1862  -8.0874  -8.0854  -8.0452
    -7.9506  -7.9466  -7.9072  -7.8910  -7.7843  -7.7617  -7.7449  -7.7219
     1.3360   1.3375   1.3720   1.3722   1.6733   1.6847   1.7396   1.7713
     2.2404   2.3088   2.3710   2.4321   2.6332   2.6722   2.8326   2.8417
     2.8502   2.8794   3.4705   3.4835   3.6443   3.6754   4.1018   4.3066
     4.3230   4.4190   4.5036   4.6929   4.7634   4.7920   4.8630   4.8764
     5.1224   5.1610   5.2928   5.3853   5.4092   5.5118   5.5920   5.6839
     5.7166   5.7321   5.7570   5.9994   6.0638   6.0980   6.1239   6.1665
     6.3005   6.3799   6.4224   6.5497   6.7204   6.7358   6.8310   6.8617
     6.9210   6.9234   6.9493   6.9675   6.9692   7.0223   7.1708   7.1843
     7.2139   7.2669   7.9151   7.9384   8.0680   8.0921   8.2322   8.2486
     9.7999   9.8088  10.5341  10.6012  10.8952  10.9714  11.9254  11.9746
    12.2269  12.2379  12.4061  12.4368  12.7639  12.8766  12.9123  12.9161
    13.2545  13.3547  13.3678  13.3969  13.7386  13.8232  13.8830  13.9186
    14.4435  14.5849  14.8186  14.9053  15.2633  15.2823  15.7133  15.7261
    15.7301  17.0968  17.1926  17.2588  17.3477  17.7727

          k = 0.1667 0.3293 0.1673 ( 62672 PWs)   bands (ev):

   -66.0331 -66.0328 -66.0326 -66.0326 -66.0322 -66.0322 -66.0320 -66.0317
   -30.4408 -30.4368 -30.4355 -30.4314 -30.3960 -30.3928 -30.3858 -30.3815
   -30.3805 -30.3784 -30.3753 -30.3744 -30.3678 -30.3542 -30.3460 -30.3358
   -30.3349 -30.3277 -30.3239 -30.3143 -30.3014 -30.2990 -30.2970 -30.2939
   -20.1810 -20.1809 -20.1807 -20.1805 -20.1805 -20.1804 -20.1801 -20.1800
   -20.1745 -20.1743 -20.1742 -20.1741 -20.1739 -20.1739 -20.1737 -20.1735
   -20.1710 -20.1707 -20.1706 -20.1703 -20.1666 -20.1662 -20.1662 -20.1658
   -20.1584 -20.1584 -20.1576 -20.1576 -20.1566 -20.1566 -20.1557 -20.1557
   -20.1508 -20.1508 -20.1505 -20.1504 -20.1495 -20.1494 -20.1483 -20.1482
   -20.1461 -20.1461 -20.1448 -20.1448 -20.1440 -20.1438 -20.1434 -20.1433
   -20.1352 -20.1350 -20.1350 -20.1348 -20.1342 -20.1341 -20.1339 -20.1338
    -9.7737  -9.5531  -9.4076  -9.3970  -9.1970  -9.1836  -8.8889  -8.8381
    -8.8216  -8.6334  -8.6222  -8.6077  -8.2050  -8.1014  -8.0846  -8.0483
    -7.9552  -7.9477  -7.9138  -7.8950  -7.8836  -7.8553  -7.8480  -7.8184
     1.5196   1.5237   1.6010   1.6077   1.6762   1.6906   1.7870   1.8295
     2.2466   2.3088   2.3669   2.4323   2.7131   2.7374   2.8404   2.8633
     2.9207   2.9544   3.4982   3.5182   3.6490   3.6673   4.0904   4.3449
     4.3781   4.4099   4.4432   4.4906   4.5123   4.7742   4.8009   4.8813
     4.8982   4.9127   5.2542   5.3321   5.3515   5.4291   5.4487   5.4713
     5.6136   5.6447   5.7170   5.7649   5.8586   5.8935   6.0927   6.0996
     6.4754   6.5496   6.6123   6.6778   6.7050   6.7207   6.8044   6.8748
     6.8990   6.9208   6.9953   7.0055   7.0338   7.0685   7.1619   7.1966
     7.2383   7.2753   7.9193   7.9320   8.0374   8.0565   8.1774   8.1953
    10.0457  10.0558  10.7161  10.7739  10.9092  10.9664  12.0124  12.0572
    12.2287  12.2411  12.4626  12.4898  12.6965  12.7086  12.8107  12.8804
    13.1336  13.1759  13.3253  13.3884  13.5947  13.6680  13.7310  13.7781
    14.7572  14.8244  14.9536  15.1413  15.3082  15.6458  15.7246  15.8085
    15.8537  17.1577  17.1832  17.2933  17.3375  17.4098

          k = 0.1667 0.3293 0.3346 ( 62659 PWs)   bands (ev):

   -66.0330 -66.0327 -66.0327 -66.0325 -66.0324 -66.0321 -66.0321 -66.0318
   -30.4399 -30.4375 -30.4347 -30.4323 -30.3955 -30.3935 -30.3789 -30.3776
   -30.3753 -30.3697 -30.3682 -30.3675 -30.3651 -30.3491 -30.3460 -30.3404
   -30.3351 -30.3319 -30.3216 -30.3145 -30.3124 -30.3092 -30.3082 -30.3020
   -20.1809 -20.1808 -20.1807 -20.1806 -20.1805 -20.1804 -20.1802 -20.1801
   -20.1745 -20.1743 -20.1741 -20.1741 -20.1739 -20.1739 -20.1737 -20.1736
   -20.1709 -20.1707 -20.1706 -20.1704 -20.1665 -20.1662 -20.1661 -20.1659
   -20.1580 -20.1580 -20.1572 -20.1572 -20.1569 -20.1569 -20.1561 -20.1561
   -20.1508 -20.1508 -20.1506 -20.1506 -20.1493 -20.1492 -20.1486 -20.1485
   -20.1457 -20.1456 -20.1445 -20.1445 -20.1445 -20.1443 -20.1437 -20.1436
   -20.1350 -20.1348 -20.1347 -20.1346 -20.1344 -20.1343 -20.1341 -20.1340
    -9.6603  -9.4519  -9.4260  -9.2311  -9.2227  -8.9701  -8.9347  -8.7474
    -8.7147  -8.6418  -8.5737  -8.5582  -8.3339  -8.2252  -8.1537  -8.1260
    -8.0818  -8.0551  -8.0157  -7.9855  -7.9385  -7.9210  -7.9118  -7.9016
     1.6485   1.6608   1.6724   1.6860   2.1223   2.1808   2.2427   2.2607
     2.3384   2.3511   2.4211   2.5286   2.7936   2.8459   2.9421   3.0346
     3.1190   3.1364   3.5060   3.5341   3.6466   3.6715   3.9527   3.9569
     4.0813   4.2890   4.3343   4.3667   4.4288   4.5244   4.5564   4.7572
     4.7947   4.8290   4.8802   4.9111   5.0013   5.0571   5.1784   5.2278
     5.3672   5.4486   5.4830   5.6339   5.6789   5.7768   5.8734   5.8832
     6.5616   6.6287   6.6631   6.6990   6.7973   6.8605   6.8658   6.8859
     6.9704   7.0868   7.1167   7.1602   7.1955   7.2095   7.2824   7.3117
     7.3689   7.3826   7.8978   7.9221   7.9314   7.9369   8.0048   8.0408
    10.6429  10.6677  10.9281  10.9485  11.2287  11.2622  12.1333  12.1479
    12.2091  12.2699  12.3112  12.3210  12.6168  12.6280  12.6668  12.6920
    12.8511  12.8767  13.2032  13.2539  13.3241  13.3780  13.4029  13.4405
    15.0739  15.2084  15.2735  15.4736  15.6589  15.9930  16.1399  16.2995
    16.6473  16.7329  17.0493  17.4171  17.4462  17.4681

          k = 0.1667 0.3293-0.5018 ( 62648 PWs)   bands (ev):

   -66.0328 -66.0328 -66.0325 -66.0325 -66.0323 -66.0323 -66.0320 -66.0320
   -30.4387 -30.4387 -30.4335 -30.4335 -30.3945 -30.3945 -30.3763 -30.3763
   -30.3730 -30.3730 -30.3560 -30.3560 -30.3523 -30.3523 -30.3490 -30.3490
   -30.3313 -30.3313 -30.3230 -30.3230 -30.3168 -30.3168 -30.3086 -30.3086
   -20.1808 -20.1808 -20.1807 -20.1807 -20.1804 -20.1804 -20.1802 -20.1802
   -20.1744 -20.1744 -20.1741 -20.1741 -20.1739 -20.1739 -20.1736 -20.1736
   -20.1708 -20.1708 -20.1705 -20.1705 -20.1663 -20.1663 -20.1660 -20.1660
   -20.1575 -20.1575 -20.1575 -20.1574 -20.1567 -20.1567 -20.1566 -20.1566
   -20.1507 -20.1507 -20.1507 -20.1507 -20.1489 -20.1489 -20.1488 -20.1488
   -20.1451 -20.1451 -20.1449 -20.1449 -20.1441 -20.1441 -20.1441 -20.1441
   -20.1347 -20.1347 -20.1345 -20.1345 -20.1344 -20.1344 -20.1343 -20.1343
    -9.5384  -9.5383  -9.3011  -9.3011  -9.0462  -9.0462  -8.6689  -8.6689
    -8.6446  -8.6446  -8.4993  -8.4992  -8.4250  -8.4249  -8.3967  -8.3967
    -8.0741  -8.0741  -8.0312  -8.0312  -7.9277  -7.9277  -7.9116  -7.9116
     1.6635   1.6635   1.6804   1.6804   2.2384   2.2384   2.3348   2.3348
     2.7746   2.7746   2.9825   2.9825   3.0257   3.0257   3.0675   3.0675
     3.1407   3.1407   3.4210   3.4210   3.5530   3.5530   3.6927   3.6927
     4.0911   4.0911   4.1333   4.1333   4.1504   4.1504   4.3715   4.3715
     4.7826   4.7826   4.9416   4.9416   4.9991   4.9991   5.0516   5.0516
     5.1623   5.1623   5.5511   5.5511   5.7008   5.7008   5.7889   5.7889
     6.6537   6.6537   6.6853   6.6853   6.7575   6.7576   6.8857   6.8857
     7.0852   7.0852   7.1634   7.1634   7.2468   7.2468   7.6436   7.6437
     7.6726   7.6726   7.7096   7.7096   7.7263   7.7263   7.9493   7.9493
    10.9181  10.9181  11.4170  11.4170  11.4420  11.4420  11.9047  11.9047
    11.9308  11.9308  12.2816  12.2816  12.7044  12.7044  12.7403  12.7403
    12.8595  12.8595  12.9668  12.9668  13.0232  13.0232  13.3903  13.3903
    15.1714  15.1714  15.5039  15.5039  16.1589  16.1589  16.6990  16.6990
    16.8684  16.8684  16.8890  16.8890  17.6436  17.6456

          k = 0.1667-0.4940 0.0000 ( 62714 PWs)   bands (ev):

   -66.0330 -66.0330 -66.0325 -66.0324 -66.0324 -66.0324 -66.0318 -66.0318
   -30.4383 -30.4383 -30.4334 -30.4334 -30.3867 -30.3867 -30.3853 -30.3853
   -30.3830 -30.3830 -30.3815 -30.3815 -30.3501 -30.3501 -30.3419 -30.3419
   -30.3366 -30.3366 -30.3275 -30.3275 -30.2963 -30.2963 -30.2920 -30.2919
   -20.1809 -20.1809 -20.1807 -20.1807 -20.1802 -20.1802 -20.1802 -20.1801
   -20.1744 -20.1743 -20.1741 -20.1741 -20.1739 -20.1739 -20.1737 -20.1737
   -20.1709 -20.1709 -20.1704 -20.1704 -20.1664 -20.1664 -20.1660 -20.1660
   -20.1586 -20.1586 -20.1577 -20.1577 -20.1564 -20.1564 -20.1556 -20.1556
   -20.1501 -20.1501 -20.1500 -20.1500 -20.1493 -20.1492 -20.1492 -20.1492
   -20.1457 -20.1457 -20.1457 -20.1457 -20.1436 -20.1436 -20.1435 -20.1435
   -20.1352 -20.1352 -20.1350 -20.1350 -20.1340 -20.1340 -20.1339 -20.1339
    -9.6988  -9.6988  -9.3509  -9.3509  -9.2580  -9.2580  -8.8612  -8.8612
    -8.5322  -8.5322  -8.4013  -8.4013  -8.3922  -8.3922  -8.3639  -8.3639
    -7.9606  -7.9606  -7.9115  -7.9115  -7.7752  -7.7752  -7.7357  -7.7357
     1.3366   1.3366   1.3729   1.3729   1.6825   1.6825   1.7640   1.7640
     2.6509   2.6509   2.9268   2.9268   3.0002   3.0002   3.0129   3.0129
     3.1589   3.1589   3.2925   3.2926   3.5226   3.5226   3.5618   3.5618
     3.7076   3.7076   4.3263   4.3263   4.7334   4.7334   5.0558   5.0558
     5.1352   5.1352   5.3528   5.3528   5.4403   5.4403   5.4727   5.4727
     5.6273   5.6273   5.8239   5.8240   6.0388   6.0388   6.1228   6.1228
     6.4144   6.4144   6.4754   6.4754   6.6916   6.6916   6.8399   6.8399
     6.9213   6.9213   6.9633   6.9633   7.0287   7.0287   7.5997   7.5997
     7.6077   7.6077   7.6546   7.6546   7.6878   7.6878   8.2396   8.2396
     9.8096   9.8096  11.2484  11.2484  11.2790  11.2790  11.5710  11.5710
    11.6432  11.6432  12.4178  12.4178  12.9133  12.9133  12.9959  12.9960
    13.1257  13.1257  13.5190  13.5190  13.5795  13.5795  13.8790  13.8790
    14.5671  14.5671  15.1065  15.1065  15.2048  15.2048  15.5501  15.5501
    16.5269  16.5269  17.5421  17.5421  17.7140  17.7141

          k = 0.1667-0.4940 0.1673 ( 62732 PWs)   bands (ev):

   -66.0329 -66.0329 -66.0324 -66.0324 -66.0324 -66.0324 -66.0319 -66.0319
   -30.4379 -30.4379 -30.4337 -30.4337 -30.3856 -30.3854 -30.3826 -30.3821
   -30.3817 -30.3810 -30.3786 -30.3785 -30.3510 -30.3510 -30.3407 -30.3407
   -30.3378 -30.3378 -30.3267 -30.3267 -30.3010 -30.3009 -30.2963 -30.2963
   -20.1808 -20.1808 -20.1807 -20.1807 -20.1803 -20.1803 -20.1802 -20.1802
   -20.1743 -20.1743 -20.1741 -20.1741 -20.1739 -20.1739 -20.1737 -20.1737
   -20.1708 -20.1708 -20.1705 -20.1705 -20.1664 -20.1664 -20.1660 -20.1660
   -20.1584 -20.1584 -20.1576 -20.1576 -20.1566 -20.1566 -20.1557 -20.1557
   -20.1501 -20.1500 -20.1500 -20.1500 -20.1493 -20.1493 -20.1493 -20.1493
   -20.1456 -20.1456 -20.1456 -20.1456 -20.1438 -20.1438 -20.1436 -20.1436
   -20.1351 -20.1351 -20.1349 -20.1349 -20.1340 -20.1340 -20.1339 -20.1339
    -9.6487  -9.6487  -9.2798  -9.2780  -9.2684  -9.2665  -8.8306  -8.8305
    -8.5464  -8.5464  -8.4031  -8.4023  -8.3904  -8.3902  -8.3615  -8.3609
    -7.9621  -7.9614  -7.9181  -7.9171  -7.8770  -7.8731  -7.8407  -7.8371
     1.5215   1.5217   1.6067   1.6076   1.6862   1.6866   1.8202   1.8207
[...]
    13.0855  13.0855  13.0855  13.0855  13.2120  13.2120  13.2120  13.2120
    15.6234  15.6234  15.6234  15.6234  16.4861  16.4861  16.4861  16.4861
    17.3365  17.3365  17.3367  17.3369  17.4237  17.4237

          k =-0.5000 0.3293 0.0000 ( 62656 PWs)   bands (ev):

   -66.0329 -66.0329 -66.0326 -66.0326 -66.0323 -66.0323 -66.0319 -66.0319
   -30.4151 -30.4151 -30.4113 -30.4113 -30.4066 -30.4066 -30.4020 -30.4020
   -30.3867 -30.3867 -30.3838 -30.3838 -30.3595 -30.3595 -30.3493 -30.3493
   -30.3304 -30.3304 -30.3208 -30.3208 -30.2946 -30.2946 -30.2929 -30.2929
   -20.1811 -20.1811 -20.1807 -20.1807 -20.1805 -20.1805 -20.1800 -20.1800
   -20.1744 -20.1744 -20.1741 -20.1741 -20.1740 -20.1740 -20.1738 -20.1738
   -20.1687 -20.1687 -20.1684 -20.1684 -20.1683 -20.1683 -20.1680 -20.1680
   -20.1582 -20.1582 -20.1581 -20.1581 -20.1560 -20.1560 -20.1560 -20.1560
   -20.1508 -20.1508 -20.1504 -20.1504 -20.1495 -20.1495 -20.1481 -20.1481
   -20.1463 -20.1463 -20.1449 -20.1449 -20.1437 -20.1437 -20.1433 -20.1433
   -20.1352 -20.1352 -20.1350 -20.1350 -20.1341 -20.1341 -20.1337 -20.1337
    -9.5988  -9.5988  -9.3850  -9.3850  -9.0427  -9.0427  -8.6980  -8.6980
    -8.6345  -8.6345  -8.5265  -8.5265  -8.4571  -8.4571  -8.4227  -8.4227
    -8.0693  -8.0693  -8.0186  -8.0186  -7.7660  -7.7660  -7.7422  -7.7422
     1.3656   1.3656   1.3707   1.3707   2.2364   2.2364   2.3405   2.3405
     2.8299   2.8299   2.9351   2.9352   3.0127   3.0127   3.1173   3.1173
     3.1338   3.1338   3.3607   3.3607   3.4216   3.4216   3.5388   3.5388
     4.0316   4.0316   4.0573   4.0573   4.2415   4.2415   4.4480   4.4480
     4.9211   4.9211   5.0400   5.0400   5.0917   5.0917   5.2384   5.2384
     5.3683   5.3683   5.8785   5.8785   6.0956   6.0956   6.1821   6.1821
     6.4592   6.4592   6.5198   6.5198   6.5861   6.5861   6.8265   6.8265
     7.0215   7.0215   7.1010   7.1010   7.1818   7.1818   7.6314   7.6314
     7.6534   7.6534   7.6888   7.6888   7.6931   7.6931   8.0946   8.0946
    10.5348  10.5348  11.1937  11.1937  11.2378  11.2378  11.8563  11.8563
    11.9239  11.9239  12.0369  12.0369  12.7758  12.7758  12.8363  12.8363
    13.2301  13.2301  13.3143  13.3143  13.4096  13.4096  13.8382  13.8382
    14.7001  14.7001  15.0710  15.0710  16.0898  16.0898  16.5643  16.5643
    16.6513  16.6513  16.8799  16.8799  17.6844  17.6844

          k =-0.5000 0.3293 0.1673 ( 62634 PWs)   bands (ev):

   -66.0328 -66.0328 -66.0325 -66.0325 -66.0323 -66.0323 -66.0320 -66.0320
   -30.4148 -30.4148 -30.4115 -30.4115 -30.4062 -30.4062 -30.4023 -30.4023
   -30.3830 -30.3830 -30.3792 -30.3792 -30.3602 -30.3602 -30.3475 -30.3475
   -30.3321 -30.3321 -30.3201 -30.3201 -30.2994 -30.2994 -30.2968 -30.2968
   -20.1810 -20.1810 -20.1806 -20.1806 -20.1805 -20.1805 -20.1801 -20.1801
   -20.1744 -20.1744 -20.1742 -20.1742 -20.1740 -20.1740 -20.1738 -20.1738
   -20.1687 -20.1687 -20.1684 -20.1684 -20.1683 -20.1683 -20.1680 -20.1680
   -20.1580 -20.1580 -20.1580 -20.1580 -20.1561 -20.1561 -20.1561 -20.1561
   -20.1508 -20.1508 -20.1504 -20.1504 -20.1494 -20.1494 -20.1482 -20.1482
   -20.1461 -20.1461 -20.1448 -20.1448 -20.1439 -20.1439 -20.1434 -20.1434
   -20.1351 -20.1351 -20.1349 -20.1349 -20.1341 -20.1341 -20.1338 -20.1338
    -9.5396  -9.5396  -9.3118  -9.3118  -9.0581  -9.0581  -8.6826  -8.6826
    -8.6407  -8.6407  -8.5171  -8.5171  -8.4549  -8.4548  -8.4249  -8.4249
    -8.0777  -8.0777  -8.0220  -8.0220  -7.8717  -7.8717  -7.8383  -7.8383
     1.6004   1.6004   1.6112   1.6112   2.2432   2.2432   2.3317   2.3317
     2.8903   2.8903   2.9464   2.9464   3.0015   3.0015   3.1167   3.1167
     3.1405   3.1405   3.4364   3.4364   3.4941   3.4941   3.5875   3.5875
     4.0273   4.0273   4.0626   4.0626   4.2318   4.2318   4.4508   4.4508
     4.8249   4.8249   4.8926   4.8926   4.9908   4.9908   5.0506   5.0506
     5.1276   5.1276   5.5935   5.5935   5.7396   5.7396   5.9133   5.9133
     6.6824   6.6824   6.7755   6.7755   6.8105   6.8105   6.9129   6.9129
     7.0288   7.0289   7.1095   7.1095   7.2132   7.2132   7.6170   7.6170
     7.6464   7.6465   7.6863   7.6863   7.6928   7.6928   8.0613   8.0613
    10.7147  10.7147  11.2917  11.2917  11.3351  11.3351  11.8707  11.8707
    11.9417  11.9417  12.0976  12.0976  12.7718  12.7718  12.8353  12.8353
    13.0631  13.0631  13.1352  13.1352  13.2242  13.2242  13.6780  13.6780
    15.0484  15.0484  15.4543  15.4543  16.1902  16.1902  16.5744  16.5744
    16.6741  16.6741  16.9261  16.9261  17.5609  17.5609

          k =-0.5000 0.3293 0.3346 ( 62632 PWs)   bands (ev):

   -66.0327 -66.0327 -66.0324 -66.0324 -66.0324 -66.0324 -66.0321 -66.0321
   -30.4141 -30.4141 -30.4122 -30.4122 -30.4052 -30.4052 -30.4030 -30.4030
   -30.3745 -30.3745 -30.3668 -30.3668 -30.3624 -30.3624 -30.3412 -30.3412
   -30.3382 -30.3382 -30.3180 -30.3180 -30.3123 -30.3123 -30.3057 -30.3057
   -20.1810 -20.1810 -20.1807 -20.1807 -20.1805 -20.1805 -20.1802 -20.1802
   -20.1744 -20.1744 -20.1743 -20.1743 -20.1739 -20.1739 -20.1738 -20.1738
   -20.1686 -20.1686 -20.1684 -20.1684 -20.1682 -20.1682 -20.1681 -20.1681
   -20.1576 -20.1576 -20.1576 -20.1576 -20.1565 -20.1565 -20.1565 -20.1565
   -20.1508 -20.1508 -20.1506 -20.1506 -20.1492 -20.1492 -20.1485 -20.1485
   -20.1456 -20.1456 -20.1445 -20.1445 -20.1444 -20.1444 -20.1437 -20.1437
   -20.1349 -20.1349 -20.1347 -20.1347 -20.1343 -20.1343 -20.1340 -20.1340
    -9.3890  -9.3890  -9.1218  -9.1218  -9.1030  -9.1030  -8.7161  -8.7161
    -8.5815  -8.5815  -8.4831  -8.4831  -8.4483  -8.4483  -8.4294  -8.4294
    -8.1799  -8.1799  -8.1268  -8.1268  -8.0264  -8.0263  -7.9850  -7.9850
     2.1250   2.1250   2.2373   2.2373   2.2682   2.2682   2.4033   2.4033
     2.9287   2.9287   2.9604   2.9604   3.0764   3.0764   3.1199   3.1199
     3.1751   3.1751   3.5224   3.5224   3.7006   3.7006   3.7573   3.7573
     4.0015   4.0015   4.0887   4.0887   4.1941   4.1941   4.3383   4.3383
     4.4109   4.4109   4.5563   4.5563   4.6818   4.6818   4.8940   4.8940
     4.9339   4.9339   4.9812   4.9812   5.1316   5.1316   5.4389   5.4389
     6.9178   6.9178   6.9986   6.9986   7.0082   7.0082   7.1034   7.1034
     7.1755   7.1755   7.2425   7.2425   7.3524   7.3524   7.5666   7.5666
     7.6146   7.6146   7.6741   7.6741   7.7071   7.7071   7.9529   7.9529
    11.2028  11.2028  11.5822  11.5822  11.6324  11.6324  11.8862  11.8862
    11.9686  11.9686  12.3266  12.3266  12.5486  12.5486  12.6703  12.6703
    12.7148  12.7148  12.8472  12.8472  12.8599  12.8599  13.2671  13.2671
    15.8327  15.8327  16.3477  16.3477  16.4590  16.4590  16.6029  16.6029
    16.8019  16.8020  17.0382  17.0382  17.2118  17.2118

          k =-0.5000 0.3293-0.5018 ( 62576 PWs)   bands (ev):

   -66.0326 -66.0326 -66.0326 -66.0326 -66.0322 -66.0322 -66.0322 -66.0322
   -30.4131 -30.4131 -30.4131 -30.4131 -30.4041 -30.4041 -30.4041 -30.4041
   -30.3669 -30.3669 -30.3669 -30.3669 -30.3509 -30.3509 -30.3509 -30.3509
   -30.3284 -30.3284 -30.3284 -30.3284 -30.3136 -30.3136 -30.3136 -30.3136
   -20.1808 -20.1808 -20.1808 -20.1808 -20.1804 -20.1803 -20.1803 -20.1803
   -20.1743 -20.1743 -20.1743 -20.1743 -20.1739 -20.1739 -20.1739 -20.1739
   -20.1685 -20.1685 -20.1685 -20.1685 -20.1682 -20.1681 -20.1681 -20.1681
   -20.1571 -20.1571 -20.1571 -20.1571 -20.1570 -20.1570 -20.1570 -20.1570
   -20.1507 -20.1507 -20.1507 -20.1507 -20.1489 -20.1489 -20.1489 -20.1489
   -20.1450 -20.1450 -20.1450 -20.1450 -20.1441 -20.1441 -20.1441 -20.1441
   -20.1346 -20.1346 -20.1346 -20.1346 -20.1344 -20.1344 -20.1343 -20.1343
    -9.2234  -9.2234  -9.2234  -9.2234  -8.8689  -8.8689  -8.8689  -8.8689
    -8.4533  -8.4533  -8.4533  -8.4533  -8.3976  -8.3976  -8.3976  -8.3976
    -8.3703  -8.3703  -8.3703  -8.3703  -8.0182  -8.0182  -8.0182  -8.0182
     2.2444   2.2444   2.2444   2.2444   2.8459   2.8459   2.8459   2.8459
     2.9740   2.9740   2.9740   2.9740   3.0709   3.0709   3.0709   3.0709
     3.2586   3.2586   3.2586   3.2586   3.9257   3.9257   3.9257   3.9257
     4.0241   4.0241   4.0241   4.0241   4.1624   4.1624   4.1624   4.1624
     4.2622   4.2622   4.2622   4.2622   4.4474   4.4474   4.4474   4.4475
     4.7894   4.7894   4.7894   4.7894   5.1748   5.1748   5.1748   5.1748
     6.9937   6.9937   6.9937   6.9937   7.0844   7.0844   7.0845   7.0845
     7.3743   7.3743   7.3743   7.3743   7.5226   7.5226   7.5226   7.5226
     7.6180   7.6180   7.6180   7.6180   7.7797   7.7797   7.7798   7.7798
    11.7726  11.7726  11.7726  11.7726  11.9698  11.9698  11.9698  11.9698
    12.0943  12.0943  12.0943  12.0943  12.2019  12.2019  12.2019  12.2019
    12.7347  12.7347  12.7347  12.7347  12.8698  12.8698  12.8698  12.8698
    16.3978  16.3978  16.3978  16.3978  16.7458  16.7458  16.7458  16.7458
    17.1919  17.1919  17.1919  17.1919  17.4236  17.4236

          k =-0.5000-0.4940 0.0000 ( 62656 PWs)   bands (ev):

   -66.0327 -66.0327 -66.0327 -66.0327 -66.0321 -66.0321 -66.0321 -66.0321
   -30.4108 -30.4108 -30.4095 -30.4095 -30.4063 -30.4063 -30.4048 -30.4048
   -30.3848 -30.3848 -30.3848 -30.3848 -30.3462 -30.3462 -30.3445 -30.3445
   -30.3374 -30.3374 -30.3356 -30.3356 -30.2944 -30.2944 -30.2942 -30.2942
   -20.1809 -20.1809 -20.1808 -20.1808 -20.1803 -20.1803 -20.1802 -20.1802
   -20.1743 -20.1743 -20.1741 -20.1741 -20.1740 -20.1740 -20.1739 -20.1739
   -20.1687 -20.1687 -20.1685 -20.1685 -20.1682 -20.1682 -20.1681 -20.1681
   -20.1581 -20.1581 -20.1581 -20.1581 -20.1560 -20.1560 -20.1560 -20.1560
   -20.1501 -20.1501 -20.1500 -20.1500 -20.1492 -20.1492 -20.1492 -20.1492
   -20.1457 -20.1457 -20.1457 -20.1457 -20.1436 -20.1436 -20.1435 -20.1435
   -20.1351 -20.1351 -20.1351 -20.1351 -20.1339 -20.1339 -20.1339 -20.1339
    -9.4807  -9.4807  -9.4660  -9.4660  -8.8245  -8.8245  -8.7617  -8.7617
    -8.5969  -8.5969  -8.5492  -8.5492  -8.3645  -8.3644  -8.3341  -8.3340
    -8.2863  -8.2863  -8.2638  -8.2638  -7.7570  -7.7570  -7.7561  -7.7561
     1.3664   1.3664   1.3712   1.3712   2.8690   2.8690   2.9058   2.9058
     2.9087   2.9087   2.9530   2.9530   3.0984   3.0984   3.2226   3.2226
     3.2290   3.2290   3.3376   3.3376   3.3746   3.3746   3.4546   3.4546
     3.4834   3.4834   3.7524   3.7524   4.3202   4.3202   4.4074   4.4074
     4.4376   4.4376   4.4910   4.4910   5.1726   5.1726   5.2236   5.2236
     5.4857   5.4857   5.6634   5.6634   6.1082   6.1082   6.1253   6.1253
     6.5251   6.5251   6.5604   6.5604   6.6405   6.6405   6.6836   6.6836
     7.2401   7.2401   7.2857   7.2857   7.5245   7.5245   7.5271   7.5271
     7.6168   7.6168   7.6459   7.6459   7.7501   7.7501   7.7915   7.7915
    11.0660  11.0660  11.1743  11.1743  11.2958  11.2958  11.4301  11.4301
    12.1452  12.1452  12.3024  12.3024  12.4172  12.4172  12.4803  12.4803
    13.2355  13.2355  13.3174  13.3174  13.5690  13.5690  13.6032  13.6032
    14.9259  14.9259  14.9567  14.9567  16.3317  16.3317  16.5394  16.5394
    17.2784  17.2784  17.3040  17.3040  17.4214  17.4214

          k =-0.5000-0.4940 0.1673 ( 62652 PWs)   bands (ev):

   -66.0327 -66.0327 -66.0327 -66.0327 -66.0321 -66.0321 -66.0321 -66.0321
   -30.4104 -30.4104 -30.4091 -30.4091 -30.4066 -30.4066 -30.4051 -30.4051
   -30.3806 -30.3806 -30.3804 -30.3804 -30.3471 -30.3471 -30.3455 -30.3455
   -30.3363 -30.3363 -30.3345 -30.3345 -30.2990 -30.2990 -30.2988 -30.2988
   -20.1809 -20.1808 -20.1808 -20.1808 -20.1803 -20.1803 -20.1803 -20.1803
   -20.1743 -20.1743 -20.1742 -20.1742 -20.1740 -20.1740 -20.1739 -20.1739
   -20.1686 -20.1686 -20.1685 -20.1685 -20.1682 -20.1682 -20.1681 -20.1681
   -20.1580 -20.1580 -20.1580 -20.1580 -20.1561 -20.1561 -20.1561 -20.1561
   -20.1500 -20.1500 -20.1500 -20.1500 -20.1493 -20.1493 -20.1492 -20.1492
   -20.1456 -20.1456 -20.1456 -20.1456 -20.1437 -20.1437 -20.1437 -20.1437
   -20.1350 -20.1350 -20.1350 -20.1350 -20.1340 -20.1340 -20.1340 -20.1340
    -9.4135  -9.4135  -9.3969  -9.3969  -8.8402  -8.8402  -8.7790  -8.7790
    -8.5817  -8.5817  -8.5359  -8.5359  -8.3628  -8.3628  -8.3361  -8.3361
    -8.2844  -8.2844  -8.2668  -8.2668  -7.8612  -7.8612  -7.8599  -7.8599
     1.6054   1.6054   1.6111   1.6111   2.8734   2.8734   2.9093   2.9093
     2.9173   2.9174   2.9522   2.9522   3.1057   3.1057   3.2014   3.2014
     3.2839   3.2839   3.3869   3.3869   3.4169   3.4170   3.4841   3.4841
     3.5426   3.5426   3.7874   3.7874   4.3231   4.3231   4.4015   4.4015
     4.4423   4.4423   4.4792   4.4792   4.9459   4.9460   4.9760   4.9760
     5.2121   5.2121   5.3683   5.3683   5.7655   5.7655   5.7749   5.7749
     6.7591   6.7591   6.7837   6.7837   6.8388   6.8388   6.9136   6.9136
     7.2382   7.2382   7.2992   7.2992   7.5103   7.5103   7.5294   7.5295
     7.6139   7.6139   7.6471   7.6471   7.7319   7.7319   7.7809   7.7809
    11.1755  11.1755  11.2834  11.2834  11.3987  11.3987  11.5349  11.5349
    12.1582  12.1582  12.3015  12.3015  12.4232  12.4232  12.4751  12.4751
    13.0694  13.0694  13.1385  13.1385  13.3877  13.3877  13.4268  13.4268
    15.3130  15.3130  15.3203  15.3203  16.4185  16.4185  16.6162  16.6162
    17.2487  17.2487  17.2957  17.2957  17.4208  17.4208

          k =-0.5000-0.4940 0.3346 ( 62660 PWs)   bands (ev):

   -66.0326 -66.0326 -66.0326 -66.0326 -66.0323 -66.0323 -66.0322 -66.0322
   -30.4096 -30.4096 -30.4082 -30.4082 -30.4074 -30.4074 -30.4059 -30.4059
   -30.3697 -30.3697 -30.3692 -30.3692 -30.3505 -30.3505 -30.3490 -30.3490
   -30.3324 -30.3324 -30.3310 -30.3310 -30.3107 -30.3107 -30.3103 -30.3103
   -20.1808 -20.1808 -20.1807 -20.1807 -20.1804 -20.1804 -20.1804 -20.1804
   -20.1743 -20.1743 -20.1742 -20.1742 -20.1740 -20.1740 -20.1739 -20.1739
   -20.1685 -20.1685 -20.1684 -20.1684 -20.1683 -20.1682 -20.1681 -20.1681
   -20.1576 -20.1576 -20.1576 -20.1576 -20.1565 -20.1565 -20.1565 -20.1565
   -20.1499 -20.1499 -20.1499 -20.1498 -20.1495 -20.1495 -20.1494 -20.1494
   -20.1452 -20.1452 -20.1452 -20.1452 -20.1441 -20.1441 -20.1441 -20.1441
   -20.1348 -20.1348 -20.1348 -20.1348 -20.1342 -20.1342 -20.1342 -20.1342
    -9.2367  -9.2367  -9.2129  -9.2128  -8.8983  -8.8983  -8.8438  -8.8438
    -8.5257  -8.5257  -8.4880  -8.4880  -8.3610  -8.3610  -8.3395  -8.3395
    -8.2871  -8.2871  -8.2717  -8.2717  -8.1037  -8.1037  -8.1010  -8.1010
     2.2223   2.2223   2.2360   2.2360   2.8672   2.8672   2.9165   2.9165
     2.9400   2.9400   2.9582   2.9582   3.1419   3.1419   3.1956   3.1957
     3.3273   3.3273   3.4221   3.4221   3.5211   3.5211   3.5470   3.5470
     3.7718   3.7718   3.9266   3.9266   4.3218   4.3218   4.3843   4.3843
     4.4027   4.4027   4.4483   4.4483   4.5527   4.5527   4.5588   4.5588
     4.7275   4.7276   4.8888   4.8888   5.0270   5.0270   5.0475   5.0475
     7.0752   7.0752   7.0980   7.0980   7.1187   7.1187   7.2024   7.2024
     7.2777   7.2777   7.3564   7.3564   7.4671   7.4671   7.5404   7.5404
     7.5973   7.5973   7.6465   7.6465   7.6936   7.6937   7.7437   7.7437
    11.4977  11.4977  11.5908  11.5908  11.7245  11.7245  11.8486  11.8486
    12.1636  12.1636  12.3015  12.3015  12.4177  12.4177  12.4552  12.4552
    12.6808  12.6808  12.6930  12.6930  12.9195  12.9195  12.9658  12.9658
    16.1586  16.1586  16.2413  16.2413  16.6845  16.6845  16.8357  16.8357
    17.1359  17.1359  17.1915  17.1915  17.4603  17.4603

          k =-0.5000-0.4940-0.5018 ( 62592 PWs)   bands (ev):

   -66.0324 -66.0324 -66.0324 -66.0324 -66.0324 -66.0324 -66.0324 -66.0324
   -30.4085 -30.4085 -30.4085 -30.4085 -30.4070 -30.4070 -30.4070 -30.4070
   -30.3579 -30.3579 -30.3579 -30.3579 -30.3568 -30.3568 -30.3568 -30.3568
   -30.3240 -30.3240 -30.3240 -30.3240 -30.3228 -30.3228 -30.3228 -30.3228
   -20.1807 -20.1807 -20.1807 -20.1807 -20.1805 -20.1805 -20.1805 -20.1805
   -20.1743 -20.1742 -20.1742 -20.1742 -20.1740 -20.1739 -20.1739 -20.1739
   -20.1685 -20.1685 -20.1685 -20.1684 -20.1682 -20.1682 -20.1682 -20.1682
   -20.1571 -20.1571 -20.1571 -20.1571 -20.1570 -20.1570 -20.1569 -20.1569
   -20.1497 -20.1497 -20.1497 -20.1497 -20.1497 -20.1496 -20.1496 -20.1496
   -20.1447 -20.1447 -20.1447 -20.1447 -20.1447 -20.1446 -20.1446 -20.1446
   -20.1345 -20.1345 -20.1345 -20.1345 -20.1345 -20.1345 -20.1345 -20.1345
    -9.0329  -9.0329  -9.0329  -9.0329  -8.9921  -8.9921  -8.9921  -8.9921
    -8.4068  -8.4068  -8.4067  -8.4067  -8.3836  -8.3836  -8.3836  -8.3836
    -8.3045  -8.3045  -8.3045  -8.3045  -8.2513  -8.2513  -8.2513  -8.2513
     2.7487   2.7487   2.7487   2.7487   2.8640   2.8640   2.8640   2.8640
     3.0274   3.0274   3.0274   3.0274   3.2041   3.2041   3.2041   3.2041
     3.3025   3.3025   3.3026   3.3026   3.4587   3.4587   3.4587   3.4587
     4.1565   4.1565   4.1565   4.1565   4.2436   4.2436   4.2436   4.2436
     4.3304   4.3304   4.3304   4.3304   4.3938   4.3938   4.3938   4.3938
     4.5319   4.5319   4.5319   4.5319   4.6277   4.6277   4.6277   4.6277
     7.1757   7.1757   7.1757   7.1757   7.2826   7.2827   7.2827   7.2827
     7.3923   7.3923   7.3923   7.3923   7.4898   7.4898   7.4899   7.4899
     7.6084   7.6084   7.6084   7.6084   7.6934   7.6934   7.6934   7.6934
    11.9181  11.9181  11.9181  11.9181  12.0588  12.0588  12.0588  12.0588
    12.2483  12.2483  12.2483  12.2483  12.3146  12.3146  12.3146  12.3146
    12.4407  12.4407  12.4407  12.4407  12.5248  12.5248  12.5248  12.5248
    16.7371  16.7371  16.7371  16.7371  16.9492  16.9492  16.9492  16.9493
    17.3828  17.3828  17.3828  17.3828  17.4409  17.4409

     the Fermi energy is    10.0268 ev

!    total energy              =   -6260.27820294 Ry
     Harris-Foulkes estimate   =   -6260.27820294 Ry
     estimated scf accuracy    <          1.3E-09 Ry

     The total energy is the sum of the following terms:

     one-electron contribution =   -4746.82583671 Ry
     hartree contribution      =    2612.16829582 Ry
     xc contribution           =    -966.80244837 Ry
     ewald contribution        =   -3158.81818897 Ry
     smearing contrib. (-TS)   =      -0.00002470 Ry

     convergence has been achieved in  13 iterations

     Writing output data file Landau_32.save/
 
     init_run     :     45.54s CPU     47.44s WALL (       1 calls)
     electrons    :   1758.83s CPU   1786.64s WALL (       1 calls)

     Called by init_run:
     wfcinit      :     42.05s CPU     43.79s WALL (       1 calls)
     potinit      :      1.40s CPU      1.45s WALL (       1 calls)
     hinit0       :      1.86s CPU      1.91s WALL (       1 calls)

     Called by electrons:
     c_bands      :   1538.71s CPU   1564.46s WALL (      13 calls)
     sum_band     :    212.32s CPU    213.49s WALL (      13 calls)
     v_of_rho     :      2.11s CPU      2.19s WALL (      14 calls)
     mix_rho      :      4.69s CPU      5.37s WALL (      13 calls)

     Called by c_bands:
     init_us_2    :     19.31s CPU     19.95s WALL (      54 calls)
     cegterg      :   1382.28s CPU   1406.56s WALL (      26 calls)

     Called by sum_band:

     Called by *egterg:
     h_psi        :   1076.46s CPU   1088.36s WALL (     116 calls)
     g_psi        :      4.56s CPU      4.56s WALL (      88 calls)
     cdiaghg      :     16.65s CPU     16.72s WALL (     114 calls)

     Called by h_psi:
     h_psi:pot    :   1072.80s CPU   1077.31s WALL (     116 calls)
     h_psi:calbec :    133.96s CPU    136.72s WALL (     116 calls)
     vloc_psi     :    799.71s CPU    800.82s WALL (     116 calls)
     add_vuspsi   :    139.13s CPU    139.77s WALL (     116 calls)

     General routines
     calbec       :    133.96s CPU    136.72s WALL (     116 calls)
     fft          :      0.87s CPU      0.87s WALL (      42 calls)
     ffts         :      0.27s CPU      0.27s WALL (      13 calls)
     fftw         :    778.26s CPU    778.84s WALL (   34156 calls)
 
     Parallel routines
 
     PWSCF        :  30m 8.10s CPU  30m41.51s WALL

 
   This run was terminated on:  14:50:44  22Nov2019            

=------------------------------------------------------------------------------=
   JOB DONE.
=------------------------------------------------------------------------------=
