
     Program PWSCF v.6.2 (svn rev. 14038) starts on 10Sep2019 at 18:44: 8 

     This program is part of the open-source Quantum ESPRESSO suite
     for quantum simulation of materials; please cite
         "P. Giannozzi et al., J. Phys.:Condens. Matter 21 395502 (2009);
         "P. Giannozzi et al., J. Phys.:Condens. Matter 29 465901 (2017);
          URL http://www.quantum-espresso.org", 
     in publications or presentations arising from this work. More details at
     http://www.quantum-espresso.org/quote

     Parallel version (MPI), running on    40 processors

     MPI processes distributed on     3 nodes
     K-points division:     npool     =      40
     Reading input from scf.in

     Current dimensions of program PWSCF are:
     Max number of different atomic species (ntypx) = 10
     Max number of k-points (npk) =  40000
     Max angular momentum in pseudopotentials (lmaxx) =  3

     Subspace diagonalization in iterative solution of the eigenvalue problem:
     a serial algorithm will be used

 
     G-vector sticks info
     --------------------
     sticks:   dense  smooth     PW     G-vecs:    dense   smooth      PW
     Sum        7721    7721   2073               496901   496901   68897
 


     bravais-lattice index     =            0
     lattice parameter (alat)  =      13.8456  a.u.
     unit-cell volume          =    2797.5589 (a.u.)^3
     number of atoms/cell      =           32
     number of atomic types    =            2
     number of electrons       =       368.15
     number of Kohn-Sham states=          221
     kinetic-energy cutoff     =     120.0000  Ry
     charge density cutoff     =     480.0000  Ry
     convergence threshold     =      1.0E-08
     mixing beta               =       0.7000
     number of iterations used =            8  plain     mixing
     Exchange-correlation      = SLA PW NOGX NOGC ( 1  4  0  0 0 0)

     celldm(1)=  13.845577  celldm(2)=   0.000000  celldm(3)=   0.000000
     celldm(4)=   0.000000  celldm(5)=   0.000000  celldm(6)=   0.000000

     crystal axes: (cart. coord. in units of alat)
               a(1) = (   1.000000   0.000000   0.000000 )  
               a(2) = (   0.000000   1.054013   0.000000 )  
               a(3) = (   0.000000   0.000000   1.000000 )  

     reciprocal axes: (cart. coord. in units 2 pi/alat)
               b(1) = (  1.000000  0.000000  0.000000 )  
               b(2) = (  0.000000  0.948755  0.000000 )  
               b(3) = (  0.000000  0.000000  1.000000 )  


     PseudoPot. # 1 for W  read from file:
     /cluster/scratch/mnoe/QE/pps/W_ONCV_LDA-4.0.upf
     MD5 check sum: ba0307d5d4cd419d6f1d13dc49d7c13a
     Pseudo is Norm-conserving + core correction, Zval = 28.0
     Generated using ONCVPSP code by D. R. Hamann
     Using radial grid of 1380 points,  8 beta functions with: 
                l(1) =   0
                l(2) =   0
                l(3) =   1
                l(4) =   1
                l(5) =   2
                l(6) =   2
                l(7) =   3
                l(8) =   3

     PseudoPot. # 2 for O  read from file:
     /cluster/scratch/mnoe/QE/pps/O_ONCV_LDA-3.0.upf
     MD5 check sum: ca1549d10c4e927e51167f6fca52ae32
     Pseudo is Norm-conserving + core correction, Zval =  6.0
     Generated using ONCVPSP code by D. R. Hamann
     Using radial grid of  926 points,  5 beta functions with: 
                l(1) =   0
                l(2) =   0
                l(3) =   1
                l(4) =   1
                l(5) =   2

     atomic species   valence    mass     pseudopotential
        W             28.00   183.84000     W ( 1.00)
        O              6.00    15.99940     O ( 1.00)

      8 Sym. Ops. (no inversion) found ( 4 have fractional translation)



   Cartesian axes

     site n.     atom                  positions (alat units)
         1           W   tau(   1) = (   0.2607900   0.2970842   0.2503100  )
         2           W   tau(   2) = (  -0.2503100   0.7569291  -0.7392100  )
         3           W   tau(   3) = (   0.2392100   0.2299225   0.7503100  )
         4           W   tau(   4) = (   0.7503100   0.8240908   0.7607900  )
         5           W   tau(   5) = (   0.7392100   0.2970842   0.7496900  )
         6           W   tau(   6) = (   0.2503100   0.7569291   0.7392100  )
         7           W   tau(   7) = (  -0.2392100   0.2299225  -0.7503100  )
         8           W   tau(   8) = (   0.2496900   0.8240908   0.2392100  )
         9           O   tau(   9) = (   0.2618700   0.0087694   0.2586100  )
        10           O   tau(  10) = (  -0.2586100   1.0452439  -0.7381300  )
        11           O   tau(  11) = (   0.2381300   0.5182372   0.7586100  )
        12           O   tau(  12) = (   0.7586100   0.5357760   0.7618700  )
        13           O   tau(  13) = (   0.7381300   0.0087694   0.7413900  )
        14           O   tau(  14) = (   0.2586100   1.0452439   0.7381300  )
        15           O   tau(  15) = (  -0.2381300   0.5182372  -0.7586100  )
        16           O   tau(  16) = (   0.2413900   0.5357760   0.2381300  )
        17           O   tau(  17) = (   0.4961800   0.2769841   0.6995400  )
        18           O   tau(  18) = (   0.4992200   0.7818565   0.8004600  )
        19           O   tau(  19) = (  -0.9961800   0.2500225   1.1995400  )
        20           O   tau(  20) = (   0.0007801   0.7991634   0.3004600  )
        21           O   tau(  21) = (   0.5038200   0.2769841   0.3004600  )
        22           O   tau(  22) = (   0.5007800   0.7818565   1.1995400  )
        23           O   tau(  23) = (  -0.0038199   0.2500225   0.8004600  )
        24           O   tau(  24) = (  -1.0007801   0.7991634   0.6995400  )
        25           O   tau(  25) = (   0.6995400   0.2548498   2.0007800  )
        26           O   tau(  26) = (   0.3004600   0.7770291   0.4961800  )
        27           O   tau(  27) = (   0.8004600   0.2721568   0.5007801  )
        28           O   tau(  28) = (   0.1995400   0.8039908   1.9961800  )
        29           O   tau(  29) = (   0.3004600   0.2548498   0.9992199  )
        30           O   tau(  30) = (   0.6995400   0.7770291   0.5038200  )
        31           O   tau(  31) = (   0.1995400   0.2721568   0.4992199  )
        32           O   tau(  32) = (   0.8004600   0.8039908   1.0038199  )

     number of k points=    40  gaussian smearing, width (Ry)=  0.0007
                       cart. coord. in units 2pi/alat
        k(    1) = (   0.0000000   0.0000000   0.0000000), wk =   0.0092593
        k(    2) = (   0.0000000   0.0000000   0.1666667), wk =   0.0370370
        k(    3) = (   0.0000000   0.0000000   0.3333333), wk =   0.0370370
        k(    4) = (   0.0000000   0.0000000  -0.5000000), wk =   0.0185185
        k(    5) = (   0.0000000   0.1581258   0.0000000), wk =   0.0185185
        k(    6) = (   0.0000000   0.1581258   0.1666667), wk =   0.0740741
        k(    7) = (   0.0000000   0.1581258   0.3333333), wk =   0.0740741
        k(    8) = (   0.0000000   0.1581258  -0.5000000), wk =   0.0370370
        k(    9) = (   0.0000000   0.3162515   0.0000000), wk =   0.0185185
        k(   10) = (   0.0000000   0.3162515   0.1666667), wk =   0.0740741
        k(   11) = (   0.0000000   0.3162515   0.3333333), wk =   0.0740741
        k(   12) = (   0.0000000   0.3162515  -0.5000000), wk =   0.0370370
        k(   13) = (   0.0000000  -0.4743773   0.0000000), wk =   0.0092593
        k(   14) = (   0.0000000  -0.4743773   0.1666667), wk =   0.0370370
        k(   15) = (   0.0000000  -0.4743773   0.3333333), wk =   0.0370370
        k(   16) = (   0.0000000  -0.4743773  -0.5000000), wk =   0.0185185
        k(   17) = (   0.1666667   0.0000000   0.1666667), wk =   0.0370370
        k(   18) = (   0.1666667   0.0000000   0.3333333), wk =   0.0740741
        k(   19) = (   0.1666667   0.0000000  -0.5000000), wk =   0.0370370
        k(   20) = (   0.1666667   0.1581258   0.1666667), wk =   0.0740741
        k(   21) = (   0.1666667   0.1581258   0.3333333), wk =   0.1481481
        k(   22) = (   0.1666667   0.1581258  -0.5000000), wk =   0.0740741
        k(   23) = (   0.1666667   0.3162515   0.1666667), wk =   0.0740741
        k(   24) = (   0.1666667   0.3162515   0.3333333), wk =   0.1481481
        k(   25) = (   0.1666667   0.3162515  -0.5000000), wk =   0.0740741
        k(   26) = (   0.1666667  -0.4743773   0.1666667), wk =   0.0370370
        k(   27) = (   0.1666667  -0.4743773   0.3333333), wk =   0.0740741
        k(   28) = (   0.1666667  -0.4743773  -0.5000000), wk =   0.0370370
        k(   29) = (   0.3333333   0.0000000   0.3333333), wk =   0.0370370
        k(   30) = (   0.3333333   0.0000000  -0.5000000), wk =   0.0370370
        k(   31) = (   0.3333333   0.1581258   0.3333333), wk =   0.0740741
        k(   32) = (   0.3333333   0.1581258  -0.5000000), wk =   0.0740741
        k(   33) = (   0.3333333   0.3162515   0.3333333), wk =   0.0740741
        k(   34) = (   0.3333333   0.3162515  -0.5000000), wk =   0.0740741
        k(   35) = (   0.3333333  -0.4743773   0.3333333), wk =   0.0370370
        k(   36) = (   0.3333333  -0.4743773  -0.5000000), wk =   0.0370370
        k(   37) = (  -0.5000000   0.0000000  -0.5000000), wk =   0.0092593
        k(   38) = (  -0.5000000   0.1581258  -0.5000000), wk =   0.0185185
        k(   39) = (  -0.5000000   0.3162515  -0.5000000), wk =   0.0185185
        k(   40) = (  -0.5000000  -0.4743773  -0.5000000), wk =   0.0092593

     Dense  grid:   496901 G-vectors     FFT dimensions: ( 100, 108, 100)

     Estimated max dynamical RAM per process >       2.71 GB

     Estimated total dynamical RAM >     108.41 GB

     Initial potential from superposition of free atoms

     starting charge  367.99656, renormalised to  368.15000
     Starting wfc are  232 randomized atomic wfcs

     total cpu time spent up to now is       25.8 secs

     Self-consistent Calculation

     iteration #  1     ecut=   120.00 Ry     beta= 0.70
     Davidson diagonalization with overlap
     ethr =  1.00E-02,  avg # of iterations =  5.0

     total cpu time spent up to now is      115.9 secs

     total energy              =   -6253.86366409 Ry
     Harris-Foulkes estimate   =   -6264.49641810 Ry
     estimated scf accuracy    <      13.44718317 Ry

     iteration #  2     ecut=   120.00 Ry     beta= 0.70
     Davidson diagonalization with overlap
     ethr =  3.65E-03,  avg # of iterations =  3.5

     total cpu time spent up to now is      205.5 secs

     total energy              =   -6250.73046450 Ry
     Harris-Foulkes estimate   =   -6270.66861778 Ry
     estimated scf accuracy    <      53.48300225 Ry

     iteration #  3     ecut=   120.00 Ry     beta= 0.70
     Davidson diagonalization with overlap
     ethr =  3.65E-03,  avg # of iterations =  3.4

     total cpu time spent up to now is      288.9 secs

     total energy              =   -6260.98485022 Ry
     Harris-Foulkes estimate   =   -6261.27340813 Ry
     estimated scf accuracy    <       0.94360965 Ry

     iteration #  4     ecut=   120.00 Ry     beta= 0.70
     Davidson diagonalization with overlap
     ethr =  2.56E-04,  avg # of iterations =  2.9

     total cpu time spent up to now is      356.6 secs

     total energy              =   -6260.99216130 Ry
     Harris-Foulkes estimate   =   -6261.06243124 Ry
     estimated scf accuracy    <       0.23409216 Ry

     iteration #  5     ecut=   120.00 Ry     beta= 0.70
     Davidson diagonalization with overlap
     ethr =  6.36E-05,  avg # of iterations =  5.2

     total cpu time spent up to now is      429.5 secs

     total energy              =   -6260.98896325 Ry
     Harris-Foulkes estimate   =   -6261.02243898 Ry
     estimated scf accuracy    <       0.07335815 Ry

     iteration #  6     ecut=   120.00 Ry     beta= 0.70
     Davidson diagonalization with overlap
     ethr =  1.99E-05,  avg # of iterations =  5.2

     total cpu time spent up to now is      509.2 secs

     total energy              =   -6261.00521690 Ry
     Harris-Foulkes estimate   =   -6261.00737529 Ry
     estimated scf accuracy    <       0.00579699 Ry

     iteration #  7     ecut=   120.00 Ry     beta= 0.70
     Davidson diagonalization with overlap
     ethr =  1.57E-06,  avg # of iterations =  5.4

     total cpu time spent up to now is      583.2 secs

     total energy              =   -6261.00594440 Ry
     Harris-Foulkes estimate   =   -6261.00602933 Ry
     estimated scf accuracy    <       0.00016892 Ry

     iteration #  8     ecut=   120.00 Ry     beta= 0.70
     Davidson diagonalization with overlap
     ethr =  4.59E-08,  avg # of iterations =  3.1

     total cpu time spent up to now is      671.4 secs

     total energy              =   -6261.00600652 Ry
     Harris-Foulkes estimate   =   -6261.00601148 Ry
     estimated scf accuracy    <       0.00002202 Ry

     iteration #  9     ecut=   120.00 Ry     beta= 0.70
     Davidson diagonalization with overlap
     ethr =  5.98E-09,  avg # of iterations =  2.0

     total cpu time spent up to now is      739.5 secs

     total energy              =   -6261.00600387 Ry
     Harris-Foulkes estimate   =   -6261.00600823 Ry
     estimated scf accuracy    <       0.00001114 Ry

     iteration # 10     ecut=   120.00 Ry     beta= 0.70
     Davidson diagonalization with overlap
     ethr =  3.03E-09,  avg # of iterations =  2.0

     total cpu time spent up to now is      805.6 secs

     total energy              =   -6261.00600562 Ry
     Harris-Foulkes estimate   =   -6261.00600575 Ry
     estimated scf accuracy    <       0.00000030 Ry

     iteration # 11     ecut=   120.00 Ry     beta= 0.70
     Davidson diagonalization with overlap
     ethr =  8.08E-11,  avg # of iterations =  3.0

     total cpu time spent up to now is      889.3 secs

     total energy              =   -6261.00600570 Ry
     Harris-Foulkes estimate   =   -6261.00600574 Ry
     estimated scf accuracy    <       0.00000012 Ry

     iteration # 12     ecut=   120.00 Ry     beta= 0.70
     Davidson diagonalization with overlap
     ethr =  3.22E-11,  avg # of iterations =  1.9

     total cpu time spent up to now is      953.9 secs

     total energy              =   -6261.00600569 Ry
     Harris-Foulkes estimate   =   -6261.00600571 Ry
     estimated scf accuracy    <       0.00000003 Ry

     iteration # 13     ecut=   120.00 Ry     beta= 0.70
     Davidson diagonalization with overlap
     ethr =  7.19E-12,  avg # of iterations =  2.8

     total cpu time spent up to now is     1034.9 secs

     End of self-consistent calculation

          k = 0.0000 0.0000 0.0000 ( 62119 PWs)   bands (ev):

   -66.0859 -66.0854 -66.0848 -66.0848 -66.0844 -66.0844 -66.0838 -66.0834
   -30.4958 -30.4902 -30.4902 -30.4849 -30.4584 -30.4473 -30.4473 -30.4427
   -30.4264 -30.4213 -30.4213 -30.4205 -30.4186 -30.4170 -30.4136 -30.4136
   -30.3446 -30.3446 -30.3431 -30.3403 -30.3211 -30.3210 -30.3168 -30.3156
   -20.2422 -20.2421 -20.2420 -20.2420 -20.2419 -20.2419 -20.2418 -20.2418
   -20.2284 -20.2281 -20.2281 -20.2278 -20.2239 -20.2234 -20.2234 -20.2230
   -20.2224 -20.2221 -20.2221 -20.2220 -20.2216 -20.2215 -20.2215 -20.2213
   -20.2193 -20.2187 -20.2187 -20.2184 -20.2175 -20.2174 -20.2174 -20.2168
   -20.2115 -20.2110 -20.2101 -20.2101 -20.2089 -20.2089 -20.2073 -20.2069
   -20.2063 -20.2063 -20.2037 -20.2037 -20.2032 -20.2030 -20.2028 -20.2028
   -20.2000 -20.2000 -20.1988 -20.1988 -20.1975 -20.1975 -20.1966 -20.1965
    -9.9009  -9.6150  -9.4581  -9.4581  -9.1759  -9.1759  -9.0259  -8.9828
    -8.9713  -8.8247  -8.7939  -8.7939  -7.8284  -7.7538  -7.7463  -7.7463
    -7.7417  -7.7046  -7.6926  -7.6876  -7.6017  -7.6017  -7.5476  -7.5476
     1.2726   1.2755   1.3416   1.3416   1.3849   1.3849   1.4351   1.6822
     1.6871   1.6871   1.7111   1.9251   2.4376   2.5170   2.6072   2.6370
     2.7728   2.7728   4.1873   4.1873   4.4243   4.4267   4.8140   4.8731
     4.8731   4.8837   4.9028   4.9028   5.0992   5.0992   5.1733   5.4855
     5.4862   5.5538   5.5538   5.5955   5.5955   5.6802   5.6802   5.8690
     5.8690   5.9119   5.9182   5.9454   6.0111   6.0357   6.0510   6.1562
     6.1607   6.2964   6.3058   6.6005   6.6005   6.8625   6.8625   6.8715
     6.8897   6.8940   7.0291   7.0594   7.1097   7.1097   7.3734   7.3734
     7.4745   7.4745   7.8100   7.8252   8.1037   8.1037   8.1475   8.1916
     9.4157   9.4189  10.0809  10.0907  10.1188  10.1188  12.2967  12.2967
    12.3396  12.3396  12.4474  12.4475  12.5730  12.6294  12.7818  12.8776
    13.2509  13.3529  13.4272  13.4272  13.7818  14.0867  14.0867  14.1805
    14.3150  14.5349  14.5349  14.9544  15.4778  15.4887  15.5480  16.0870
    16.0870  16.8398  17.0791  17.0791  17.5416

          k = 0.0000 0.0000 0.1667 ( 62080 PWs)   bands (ev):

   -66.0858 -66.0854 -66.0849 -66.0848 -66.0845 -66.0844 -66.0839 -66.0835
   -30.4954 -30.4906 -30.4899 -30.4853 -30.4563 -30.4477 -30.4436 -30.4392
   -30.4269 -30.4218 -30.4194 -30.4184 -30.4165 -30.4139 -30.4122 -30.4070
   -30.3511 -30.3483 -30.3443 -30.3420 -30.3275 -30.3226 -30.3208 -30.3166
   -20.2422 -20.2421 -20.2420 -20.2420 -20.2419 -20.2419 -20.2418 -20.2418
   -20.2284 -20.2281 -20.2281 -20.2278 -20.2239 -20.2235 -20.2234 -20.2230
   -20.2224 -20.2221 -20.2221 -20.2220 -20.2217 -20.2215 -20.2215 -20.2213
   -20.2192 -20.2187 -20.2185 -20.2183 -20.2175 -20.2174 -20.2174 -20.2169
   -20.2113 -20.2108 -20.2102 -20.2099 -20.2090 -20.2087 -20.2074 -20.2071
   -20.2061 -20.2060 -20.2039 -20.2035 -20.2030 -20.2029 -20.2028 -20.2025
   -20.2004 -20.1999 -20.1992 -20.1989 -20.1979 -20.1974 -20.1970 -20.1966
    -9.8543  -9.5616  -9.4754  -9.3974  -9.1908  -9.0883  -9.0348  -8.9447
    -8.9306  -8.8121  -8.7987  -8.7631  -7.8911  -7.8240  -7.8070  -7.7608
    -7.7503  -7.7362  -7.7101  -7.6911  -7.6882  -7.6749  -7.6112  -7.5573
     1.3389   1.3442   1.3732   1.3901   1.4996   1.5298   1.6279   1.6747
     1.6808   1.7647   1.8809   2.0453   2.5241   2.6080   2.6287   2.7133
     2.7641   2.8618   4.1208   4.1836   4.4100   4.4155   4.4467   4.5139
     4.6866   4.8437   4.8506   4.9269   4.9379   5.0872   5.1526   5.3421
     5.4308   5.4719   5.5430   5.5736   5.6213   5.6694   5.6831   5.6979
     5.7678   5.8118   5.8570   5.9581   6.0365   6.0984   6.1353   6.1564
     6.3330   6.3864   6.5285   6.5847   6.7325   6.7572   6.8200   6.8334
     6.8832   6.9122   6.9857   7.0190   7.0814   7.1096   7.1936   7.2077
     7.2380   7.3172   7.8297   7.8344   8.0639   8.1191   8.1197   8.1806
     9.7390   9.7660  10.0917  10.1161  10.3363  10.3958  12.2273  12.2791
    12.3475  12.3764  12.3911  12.4881  12.5966  12.7005  12.8255  12.9032
    13.1204  13.2860  13.3466  13.4288  13.8540  14.0101  14.0851  14.0969
    14.3048  14.5293  14.6067  15.0644  15.5082  15.5129  15.5324  16.0584
    16.3862  16.8276  17.0056  17.2633  17.6069

          k = 0.0000 0.0000 0.3333 ( 62098 PWs)   bands (ev):

   -66.0856 -66.0852 -66.0851 -66.0847 -66.0846 -66.0842 -66.0841 -66.0837
   -30.4943 -30.4916 -30.4889 -30.4863 -30.4530 -30.4488 -30.4362 -30.4310
   -30.4283 -30.4232 -30.4176 -30.4149 -30.4096 -30.4076 -30.3947 -30.3894
   -30.3683 -30.3651 -30.3480 -30.3434 -30.3434 -30.3372 -30.3199 -30.3176
   -20.2421 -20.2421 -20.2421 -20.2420 -20.2420 -20.2419 -20.2419 -20.2418
   -20.2284 -20.2282 -20.2281 -20.2279 -20.2238 -20.2236 -20.2234 -20.2231
   -20.2223 -20.2222 -20.2221 -20.2219 -20.2218 -20.2217 -20.2215 -20.2214
   -20.2191 -20.2188 -20.2183 -20.2181 -20.2177 -20.2176 -20.2172 -20.2170
   -20.2110 -20.2104 -20.2103 -20.2093 -20.2093 -20.2083 -20.2078 -20.2074
   -20.2055 -20.2052 -20.2042 -20.2033 -20.2031 -20.2025 -20.2020 -20.2015
   -20.2014 -20.2002 -20.1997 -20.1992 -20.1991 -20.1983 -20.1972 -20.1968
    -9.7411  -9.5283  -9.4367  -9.2560  -9.2362  -9.0652  -8.8682  -8.8382
    -8.8118  -8.7901  -8.7251  -8.6434  -8.1825  -8.1261  -8.0687  -8.0131
    -7.7885  -7.7612  -7.7252  -7.7099  -7.7007  -7.6592  -7.6375  -7.5840
     1.3510   1.3628   1.4041   1.4258   1.6203   1.6260   1.6589   1.6688
     2.3008   2.3497   2.5119   2.5962   2.6550   2.7528   2.7749   2.8731
     2.9523   3.0982   3.7933   3.8822   3.9007   3.9924   4.2155   4.3254
     4.3748   4.5689   4.5757   4.8062   4.8083   4.8647   5.0038   5.0871
     5.1972   5.2420   5.3129   5.3945   5.5109   5.5288   5.6815   5.7298
     5.7663   5.8101   5.8414   6.0156   6.0608   6.1935   6.2234   6.3058
     6.4043   6.4343   6.5422   6.5637   6.5919   6.6225   6.6789   6.8048
     6.8580   6.8819   6.8892   7.0377   7.0618   7.0952   7.1150   7.1783
     7.3619   7.3977   7.7773   7.7953   7.9397   7.9945   8.1541   8.1758
    10.0753  10.1074  10.4297  10.5242  10.9287  11.0532  11.8661  11.9435
    12.1284  12.4845  12.5210  12.5492  12.6181  12.6687  12.7618  12.9064
    12.9477  13.1313  13.2198  13.4420  13.7111  13.7458  14.0602  14.0811
    14.3836  14.5111  14.8802  15.3412  15.4004  15.6490  15.9055  15.9697
    16.3085  17.2103  17.4059  17.5355  17.8210

          k = 0.0000 0.0000-0.5000 ( 62096 PWs)   bands (ev):

   -66.0854 -66.0853 -66.0849 -66.0849 -66.0843 -66.0843 -66.0839 -66.0839
   -30.4929 -30.4929 -30.4876 -30.4876 -30.4506 -30.4505 -30.4310 -30.4310
   -30.4257 -30.4257 -30.4162 -30.4162 -30.3908 -30.3908 -30.3877 -30.3877
   -30.3706 -30.3706 -30.3657 -30.3657 -30.3419 -30.3419 -30.3188 -30.3188
   -20.2421 -20.2421 -20.2420 -20.2420 -20.2419 -20.2419 -20.2418 -20.2418
   -20.2283 -20.2283 -20.2280 -20.2280 -20.2237 -20.2237 -20.2233 -20.2233
   -20.2223 -20.2222 -20.2219 -20.2219 -20.2218 -20.2218 -20.2214 -20.2214
   -20.2189 -20.2189 -20.2179 -20.2179 -20.2178 -20.2178 -20.2171 -20.2171
   -20.2106 -20.2106 -20.2098 -20.2098 -20.2085 -20.2085 -20.2078 -20.2078
   -20.2048 -20.2048 -20.2041 -20.2041 -20.2024 -20.2024 -20.2015 -20.2015
   -20.2007 -20.2007 -20.2000 -20.2000 -20.1994 -20.1994 -20.1970 -20.1970
    -9.6192  -9.6192  -9.3165  -9.3165  -9.1318  -9.1318  -8.8317  -8.8316
    -8.5270  -8.5270  -8.4742  -8.4742  -8.4667  -8.4667  -8.3801  -8.3800
    -7.7760  -7.7760  -7.7134  -7.7134  -7.6737  -7.6737  -7.6211  -7.6211
     1.3591   1.3591   1.4210   1.4210   1.6431   1.6431   1.6557   1.6557
     2.6879   2.6879   3.0126   3.0127   3.1481   3.1481   3.1884   3.1884
     3.3157   3.3157   3.3770   3.3770   3.5391   3.5391   3.8283   3.8283
     3.9254   3.9254   4.5018   4.5018   4.7571   4.7572   4.9818   4.9818
     5.2848   5.2848   5.3798   5.3798   5.4143   5.4143   5.7243   5.7243
     5.8048   5.8048   5.9959   5.9959   6.1775   6.1776   6.3035   6.3035
     6.3283   6.3283   6.4787   6.4788   6.5266   6.5266   6.5956   6.5956
     6.8269   6.8270   6.8754   6.8754   7.0904   7.0904   7.5219   7.5219
     7.5773   7.5773   7.7181   7.7181   7.7524   7.7524   8.1712   8.1712
    10.0936  10.0936  11.2033  11.2033  11.3000  11.3000  11.6021  11.6021
    11.8304  11.8304  12.6300  12.6300  12.7091  12.7091  12.8454  12.8454
    12.9663  12.9663  13.3246  13.3246  13.5095  13.5095  14.0759  14.0759
    14.4713  14.4713  15.1899  15.1899  15.7449  15.7450  15.8539  15.8539
    16.6604  16.6604  17.8959  17.8960  18.1887

          k = 0.0000 0.1581 0.0000 ( 62067 PWs)   bands (ev):

   -66.0858 -66.0855 -66.0848 -66.0848 -66.0844 -66.0844 -66.0838 -66.0834
   -30.4923 -30.4865 -30.4865 -30.4810 -30.4596 -30.4482 -30.4482 -30.4421
   -30.4303 -30.4235 -30.4235 -30.4211 -30.4192 -30.4187 -30.4141 -30.4141
   -30.3447 -30.3447 -30.3429 -30.3406 -30.3211 -30.3211 -30.3168 -30.3157
   -20.2422 -20.2421 -20.2420 -20.2420 -20.2419 -20.2419 -20.2418 -20.2418
   -20.2281 -20.2278 -20.2278 -20.2274 -20.2241 -20.2237 -20.2237 -20.2232
   -20.2223 -20.2221 -20.2221 -20.2221 -20.2216 -20.2216 -20.2216 -20.2214
   -20.2193 -20.2187 -20.2187 -20.2185 -20.2175 -20.2174 -20.2174 -20.2169
   -20.2115 -20.2110 -20.2101 -20.2101 -20.2089 -20.2089 -20.2073 -20.2070
   -20.2063 -20.2063 -20.2037 -20.2037 -20.2032 -20.2031 -20.2028 -20.2028
   -20.2000 -20.2000 -20.1988 -20.1988 -20.1975 -20.1975 -20.1966 -20.1965
    -9.8719  -9.6267  -9.4222  -9.4222  -9.1827  -9.1826  -8.9819  -8.9717
    -8.9519  -8.7785  -8.7554  -8.7554  -7.9087  -7.8442  -7.8442  -7.7948
    -7.7556  -7.7538  -7.7047  -7.6940  -7.6033  -7.6033  -7.5482  -7.5482
     1.2730   1.2752   1.3476   1.3476   1.3888   1.3888   1.5626   1.7104
     1.8622   1.9167   1.9167   2.0942   2.4429   2.5115   2.6789   2.7111
     2.8420   2.8420   4.0568   4.0569   4.1557   4.1562   4.7603   4.8691
     4.8691   4.8963   4.8963   4.9462   5.0443   5.0443   5.0536   5.3500
     5.3500   5.5266   5.5266   5.6304   5.6770   5.6865   5.6865   5.7219
     5.8460   5.8460   5.9336   5.9337   5.9812   6.0517   6.0660   6.1509
     6.1596   6.2952   6.2958   6.6253   6.6253   6.8141   6.8914   6.8914
     6.9200   6.9251   6.9519   7.0275   7.0405   7.0405   7.3785   7.3785
     7.4774   7.4774   7.8139   7.8241   8.0670   8.0670   8.0794   8.1109
     9.4191   9.4198  10.2789  10.2816  10.2854  10.2854  12.2283  12.2283
    12.3189  12.3189  12.4178  12.4322  12.4322  12.4658  12.7929  12.8767
    13.2855  13.3780  13.4257  13.4257  13.9529  14.0451  14.0451  14.0863
    14.3665  14.7544  14.7544  15.1199  15.4774  15.4854  15.9487  16.0551
    16.0551  16.5547  17.2134  17.2134  17.5788

          k = 0.0000 0.1581 0.1667 ( 62076 PWs)   bands (ev):

   -66.0858 -66.0854 -66.0849 -66.0847 -66.0845 -66.0844 -66.0839 -66.0835
   -30.4918 -30.4869 -30.4861 -30.4814 -30.4575 -30.4487 -30.4450 -30.4388
   -30.4308 -30.4240 -30.4209 -30.4194 -30.4185 -30.4144 -30.4125 -30.4073
   -30.3511 -30.3482 -30.3444 -30.3421 -30.3275 -30.3226 -30.3208 -30.3166
   -20.2422 -20.2421 -20.2420 -20.2420 -20.2419 -20.2419 -20.2418 -20.2418
   -20.2281 -20.2278 -20.2277 -20.2275 -20.2241 -20.2237 -20.2237 -20.2232
   -20.2223 -20.2221 -20.2221 -20.2221 -20.2217 -20.2216 -20.2216 -20.2214
   -20.2192 -20.2187 -20.2185 -20.2184 -20.2175 -20.2175 -20.2174 -20.2169
   -20.2113 -20.2108 -20.2102 -20.2099 -20.2090 -20.2087 -20.2074 -20.2071
   -20.2061 -20.2060 -20.2039 -20.2035 -20.2030 -20.2029 -20.2028 -20.2025
   -20.2004 -20.1999 -20.1992 -20.1989 -20.1979 -20.1974 -20.1970 -20.1966
    -9.8242  -9.5732  -9.4396  -9.3569  -9.1978  -9.0951  -8.9608  -8.9432
    -8.9306  -8.7680  -8.7601  -8.7291  -7.9214  -7.8725  -7.8492  -7.8450
    -7.8088  -7.8033  -7.7460  -7.7260  -7.6888  -7.6730  -7.6130  -7.5579
     1.3454   1.3517   1.3760   1.3947   1.5813   1.6339   1.6588   1.8701
     1.8799   1.9128   1.9388   2.1559   2.5305   2.6021   2.7010   2.7881
     2.8339   2.9306   4.0221   4.0658   4.1502   4.1937   4.4399   4.5104
     4.6902   4.7715   4.8542   4.9158   4.9280   5.0165   5.0539   5.2909
     5.3026   5.3799   5.4060   5.5399   5.6166   5.6258   5.6749   5.7354
     5.7854   5.8081   5.8738   5.9015   5.9104   6.1027   6.1462   6.1670
     6.2917   6.3753   6.5068   6.6127   6.7538   6.8016   6.8444   6.8486
     6.8889   6.9300   6.9845   7.0031   7.0440   7.0718   7.1953   7.2125
     7.2408   7.3214   7.8308   7.8342   8.0294   8.0545   8.0692   8.1033
     9.7453   9.7714  10.2806  10.2865  10.4993  10.5342  12.1942  12.2447
    12.3029  12.3461  12.3553  12.4380  12.4483  12.5670  12.8416  12.9019
    13.1489  13.2954  13.3583  13.4251  13.9045  13.9416  14.0435  14.0454
    14.4326  14.7485  14.8758  15.2147  15.5085  15.5312  15.9110  16.0301
    16.3524  16.7106  16.9566  17.3744  17.6417

          k = 0.0000 0.1581 0.3333 ( 62142 PWs)   bands (ev):

   -66.0856 -66.0852 -66.0851 -66.0847 -66.0846 -66.0842 -66.0841 -66.0837
   -30.4907 -30.4879 -30.4851 -30.4824 -30.4542 -30.4498 -30.4388 -30.4322
   -30.4317 -30.4253 -30.4181 -30.4154 -30.4107 -30.4086 -30.3948 -30.3896
   -30.3684 -30.3652 -30.3481 -30.3435 -30.3434 -30.3372 -30.3200 -30.3176
   -20.2421 -20.2421 -20.2421 -20.2420 -20.2420 -20.2419 -20.2419 -20.2418
   -20.2280 -20.2279 -20.2277 -20.2275 -20.2240 -20.2238 -20.2236 -20.2234
   -20.2223 -20.2222 -20.2221 -20.2220 -20.2218 -20.2218 -20.2215 -20.2215
   -20.2190 -20.2188 -20.2183 -20.2182 -20.2177 -20.2176 -20.2173 -20.2170
   -20.2109 -20.2104 -20.2103 -20.2094 -20.2093 -20.2083 -20.2078 -20.2074
   -20.2055 -20.2052 -20.2042 -20.2033 -20.2031 -20.2025 -20.2020 -20.2015
   -20.2014 -20.2002 -20.1997 -20.1992 -20.1991 -20.1983 -20.1972 -20.1968
    -9.7084  -9.4928  -9.4477  -9.2440  -9.2014  -8.9919  -8.8540  -8.8402
    -8.7900  -8.7732  -8.7026  -8.6236  -8.1847  -8.1285  -8.0778  -8.0176
    -7.8743  -7.8534  -7.8239  -7.7977  -7.7146  -7.6599  -7.6398  -7.5846
     1.3634   1.3834   1.4101   1.4337   1.8004   1.8255   1.9016   1.9105
     2.3015   2.3600   2.5146   2.6131   2.7269   2.7852   2.8134   2.8725
     3.0282   3.1597   3.7936   3.8816   3.8905   3.9414   4.1696   4.1941
     4.2712   4.4136   4.5832   4.7468   4.7581   4.8561   4.8822   4.9505
     5.0896   5.1941   5.2194   5.2669   5.4352   5.4745   5.5396   5.6713
     5.7437   5.7907   5.8473   5.8912   5.9929   6.1499   6.2117   6.2917
     6.3886   6.5358   6.5685   6.6242   6.6688   6.7060   6.7501   6.8269
     6.8585   6.8890   6.9509   6.9959   7.0429   7.0679   7.1229   7.1736
     7.3595   7.3944   7.7798   7.7928   7.9110   7.9446   8.0877   8.1016
    10.2595  10.2828  10.4402  10.5315  11.0418  11.1420  11.8664  11.9429
    12.1029  12.4431  12.4860  12.5259  12.5739  12.5921  12.7029  12.8364
    12.9056  13.1243  13.2330  13.4291  13.6169  13.6640  14.0402  14.0416
    14.6054  14.7308  15.2110  15.4617  15.6474  15.7925  15.9263  15.9513
    16.4348  17.1661  17.1900  17.4618  17.8241

          k = 0.0000 0.1581-0.5000 ( 62072 PWs)   bands (ev):

   -66.0853 -66.0853 -66.0850 -66.0849 -66.0843 -66.0843 -66.0840 -66.0839
   -30.4892 -30.4892 -30.4837 -30.4837 -30.4516 -30.4516 -30.4346 -30.4345
   -30.4275 -30.4275 -30.4167 -30.4167 -30.3911 -30.3911 -30.3880 -30.3880
   -30.3707 -30.3707 -30.3657 -30.3657 -30.3419 -30.3419 -30.3188 -30.3188
   -20.2421 -20.2421 -20.2420 -20.2420 -20.2419 -20.2419 -20.2418 -20.2418
   -20.2280 -20.2280 -20.2276 -20.2276 -20.2239 -20.2239 -20.2235 -20.2235
   -20.2223 -20.2222 -20.2220 -20.2220 -20.2219 -20.2219 -20.2215 -20.2215
   -20.2189 -20.2189 -20.2179 -20.2179 -20.2179 -20.2179 -20.2172 -20.2172
   -20.2106 -20.2106 -20.2099 -20.2098 -20.2085 -20.2085 -20.2078 -20.2078
   -20.2048 -20.2048 -20.2041 -20.2041 -20.2024 -20.2024 -20.2015 -20.2014
   -20.2007 -20.2007 -20.2000 -20.2000 -20.1994 -20.1994 -20.1970 -20.1970
    -9.5845  -9.5845  -9.3259  -9.3259  -9.0630  -9.0630  -8.7957  -8.7957
    -8.5280  -8.5280  -8.4794  -8.4794  -8.4661  -8.4660  -8.3751  -8.3750
    -7.8669  -7.8669  -7.8129  -7.8129  -7.6769  -7.6769  -7.6218  -7.6218
     1.3777   1.3777   1.4282   1.4282   1.8264   1.8264   1.9126   1.9126
     2.7569   2.7569   3.0281   3.0281   3.1423   3.1423   3.2268   3.2268
     3.3236   3.3236   3.3770   3.3770   3.5312   3.5313   3.8306   3.8306
     3.9750   3.9750   4.3023   4.3023   4.6682   4.6682   4.8100   4.8100
     5.1306   5.1306   5.3519   5.3519   5.3764   5.3765   5.5535   5.5535
     5.7541   5.7541   5.8710   5.8710   6.1776   6.1776   6.3212   6.3212
     6.3852   6.3852   6.5055   6.5055   6.5768   6.5769   6.7165   6.7165
     6.8864   6.8864   6.8992   6.8992   7.0219   7.0219   7.5307   7.5307
     7.5704   7.5704   7.6993   7.6993   7.7276   7.7276   8.0992   8.0992
    10.2782  10.2783  11.2095  11.2095  11.2989  11.2989  11.6665  11.6665
    11.8894  11.8894  12.5062  12.5062  12.6870  12.6870  12.8455  12.8455
    12.9143  12.9143  13.2224  13.2224  13.4688  13.4688  14.0389  14.0389
    14.6950  14.6950  15.5461  15.5461  15.8022  15.8022  15.9253  15.9253
    16.7009  16.7009  17.6992  17.6993  18.1674

          k = 0.0000 0.3163 0.0000 ( 62067 PWs)   bands (ev):

   -66.0857 -66.0855 -66.0847 -66.0847 -66.0845 -66.0845 -66.0837 -66.0835
   -30.4831 -30.4768 -30.4768 -30.4703 -30.4638 -30.4524 -30.4524 -30.4410
   -30.4398 -30.4286 -30.4286 -30.4277 -30.4198 -30.4190 -30.4146 -30.4146
   -30.3448 -30.3447 -30.3425 -30.3411 -30.3211 -30.3211 -30.3166 -30.3159
   -20.2422 -20.2421 -20.2420 -20.2420 -20.2419 -20.2419 -20.2418 -20.2418
   -20.2272 -20.2268 -20.2268 -20.2265 -20.2248 -20.2244 -20.2244 -20.2240
   -20.2223 -20.2222 -20.2222 -20.2221 -20.2217 -20.2217 -20.2216 -20.2215
   -20.2192 -20.2187 -20.2187 -20.2187 -20.2176 -20.2175 -20.2174 -20.2171
   -20.2114 -20.2111 -20.2101 -20.2101 -20.2089 -20.2089 -20.2072 -20.2070
   -20.2063 -20.2063 -20.2037 -20.2037 -20.2032 -20.2031 -20.2028 -20.2028
   -20.2000 -20.2000 -20.1988 -20.1988 -20.1975 -20.1975 -20.1966 -20.1965
    -9.8011  -9.6624  -9.3425  -9.3425  -9.2040  -9.2040  -8.9796  -8.9734
    -8.7431  -8.6342  -8.6251  -8.6251  -8.1442  -8.0945  -8.0945  -8.0671
    -7.7590  -7.7545  -7.7040  -7.6975  -7.6037  -7.6037  -7.5495  -7.5495
     1.2733   1.2745   1.3511   1.3511   1.3921   1.3921   1.6724   1.7075
     2.4146   2.4571   2.4966   2.5628   2.5628   2.7298   2.8886   2.9381
     3.0475   3.0475   3.6791   3.6907   3.7205   3.7205   4.1879   4.5238
     4.5238   4.7960   4.8739   4.8739   4.9084   4.9084   5.1153   5.1153
     5.1154   5.1314   5.4398   5.4398   5.6317   5.6354   5.7347   5.7347
     5.9027   5.9027   5.9139   5.9185   6.0589   6.0651   6.0998   6.1586
     6.1795   6.2703   6.2711   6.5588   6.6805   6.6805   6.9073   6.9073
     6.9439   7.0101   7.1306   7.1341   7.1598   7.1598   7.3863   7.3863
     7.4836   7.4836   7.8058   7.8155   7.8726   7.8810   7.9029   7.9029
     9.4216   9.4226  10.7345  10.7345  10.7692  10.7891  11.8720  11.8720
    11.9921  12.0311  12.3315  12.3315  12.4312  12.4313  12.8189  12.8688
    13.3959  13.4629  13.4775  13.4775  13.8365  13.8547  13.8547  13.8639
    14.8588  15.2793  15.2793  15.4746  15.4783  15.7228  15.9466  15.9466
    16.0100  16.9344  17.3016  17.6748  17.6748

          k = 0.0000 0.3163 0.1667 ( 62093 PWs)   bands (ev):

   -66.0857 -66.0855 -66.0848 -66.0847 -66.0846 -66.0845 -66.0838 -66.0836
   -30.4824 -30.4771 -30.4761 -30.4707 -30.4620 -30.4528 -30.4506 -30.4414
   -30.4372 -30.4290 -30.4259 -30.4242 -30.4188 -30.4150 -30.4128 -30.4078
   -30.3512 -30.3482 -30.3444 -30.3424 -30.3275 -30.3226 -30.3208 -30.3167
   -20.2422 -20.2421 -20.2420 -20.2420 -20.2419 -20.2419 -20.2418 -20.2418
   -20.2272 -20.2269 -20.2268 -20.2265 -20.2248 -20.2244 -20.2244 -20.2240
   -20.2223 -20.2222 -20.2222 -20.2221 -20.2218 -20.2217 -20.2217 -20.2216
   -20.2191 -20.2187 -20.2186 -20.2185 -20.2176 -20.2175 -20.2174 -20.2171
   -20.2112 -20.2109 -20.2102 -20.2099 -20.2091 -20.2088 -20.2073 -20.2072
   -20.2061 -20.2060 -20.2039 -20.2036 -20.2030 -20.2029 -20.2029 -20.2025
   -20.2004 -20.1999 -20.1992 -20.1989 -20.1979 -20.1974 -20.1970 -20.1966
    -9.7510  -9.6091  -9.3597  -9.2662  -9.2200  -9.1174  -8.9405  -8.9318
    -8.7517  -8.6301  -8.6277  -8.6097  -8.1449  -8.1032  -8.0915  -8.0739
    -7.8740  -7.8188  -7.7479  -7.7303  -7.6901  -7.6743  -7.6134  -7.5592
     1.3474   1.3559   1.3771   1.3984   1.6009   1.6425   1.8266   1.8799
     2.4183   2.5388   2.5449   2.5668   2.5872   2.7196   2.9162   3.0142
     3.0447   3.1410   3.6834   3.7057   3.7297   3.7714   4.1756   4.4534
     4.4683   4.5388   4.5707   4.7939   4.8185   4.9021   4.9470   4.9600
     5.1124   5.1307   5.2359   5.3631   5.4598   5.5197   5.6389   5.6668
     5.7259   5.8025   5.8233   5.8820   6.0534   6.0916   6.1593   6.1865
     6.3033   6.3803   6.4880   6.6185   6.6734   6.8873   6.8970   6.9788
     6.9981   7.0167   7.1013   7.1217   7.1368   7.1457   7.2099   7.2330
     7.2715   7.3399   7.8096   7.8219   7.8622   7.8767   7.8836   7.8940
     9.7549   9.7754  10.7382  10.7757  10.9138  10.9459  11.8677  11.9619
    12.0121  12.0889  12.2476  12.3371  12.3879  12.4833  12.8745  12.9013
    13.2504  13.3429  13.4313  13.4739  13.7026  13.7400  13.8512  13.8548
    14.9867  15.2700  15.4459  15.5280  15.5342  15.7885  15.9202  16.1710
    16.2375  16.8973  17.3447  17.3955  17.7809

          k = 0.0000 0.3163 0.3333 ( 62109 PWs)   bands (ev):

   -66.0855 -66.0853 -66.0850 -66.0848 -66.0845 -66.0843 -66.0840 -66.0838
   -30.4811 -30.4781 -30.4747 -30.4717 -30.4588 -30.4541 -30.4473 -30.4426
   -30.4336 -30.4300 -30.4194 -30.4160 -30.4126 -30.4103 -30.3949 -30.3898
   -30.3686 -30.3653 -30.3482 -30.3436 -30.3435 -30.3372 -30.3200 -30.3177
   -20.2421 -20.2421 -20.2421 -20.2420 -20.2420 -20.2419 -20.2419 -20.2418
   -20.2271 -20.2269 -20.2268 -20.2266 -20.2247 -20.2245 -20.2243 -20.2241
   -20.2223 -20.2222 -20.2222 -20.2221 -20.2219 -20.2218 -20.2217 -20.2216
   -20.2189 -20.2187 -20.2184 -20.2182 -20.2178 -20.2176 -20.2174 -20.2172
   -20.2109 -20.2105 -20.2103 -20.2094 -20.2093 -20.2083 -20.2078 -20.2074
   -20.2055 -20.2052 -20.2042 -20.2033 -20.2031 -20.2025 -20.2020 -20.2015
   -20.2014 -20.2002 -20.1997 -20.1992 -20.1991 -20.1983 -20.1972 -20.1968
    -9.6301  -9.4822  -9.4122  -9.2688  -9.0698  -8.8732  -8.8188  -8.7898
    -8.7841  -8.6459  -8.5980  -8.5448  -8.2174  -8.1889  -8.1391  -8.0977
    -8.0842  -8.0500  -8.0218  -7.9591  -7.7157  -7.6614  -7.6403  -7.5859
     1.3693   1.3912   1.4149   1.4393   2.2229   2.2993   2.3361   2.4455
     2.5054   2.5610   2.5745   2.7789   2.8226   2.8462   2.9442   3.0243
     3.2559   3.3461   3.6624   3.6797   3.7650   3.8267   3.8849   3.9019
     4.1475   4.3355   4.4464   4.4838   4.5145   4.6149   4.6389   4.8120
     4.8739   4.8927   5.0477   5.1215   5.2176   5.2537   5.2826   5.4172
     5.4310   5.6284   5.6939   5.8419   6.1511   6.1894   6.2129   6.3249
     6.4648   6.5595   6.6293   6.7091   6.7501   6.8219   6.8499   6.8914
     6.9667   7.0108   7.0812   7.0916   7.1207   7.1703   7.1964   7.2436
     7.3479   7.3903   7.7479   7.7848   7.7880   7.8072   7.8771   7.8907
    10.4555  10.4922  10.7501  10.7868  11.3499  11.4133  11.8207  11.8994
    11.9575  12.0413  12.2527  12.2903  12.5656  12.6391  12.6824  12.7139
    12.8912  13.1128  13.2261  13.3922  13.4695  13.5335  13.8421  13.8492
    15.1370  15.2424  15.5747  15.8384  15.9956  16.0033  16.0136  16.6812
    16.7680  16.8620  17.0278  17.5710  17.6421

          k = 0.0000 0.3163-0.5000 ( 62160 PWs)   bands (ev):

   -66.0852 -66.0852 -66.0850 -66.0850 -66.0842 -66.0842 -66.0840 -66.0840
   -30.4795 -30.4795 -30.4731 -30.4731 -30.4561 -30.4560 -30.4446 -30.4446
   -30.4316 -30.4315 -30.4174 -30.4174 -30.3918 -30.3917 -30.3885 -30.3884
   -30.3708 -30.3707 -30.3659 -30.3659 -30.3420 -30.3420 -30.3189 -30.3188
   -20.2421 -20.2421 -20.2420 -20.2420 -20.2419 -20.2419 -20.2418 -20.2418
   -20.2270 -20.2270 -20.2267 -20.2267 -20.2247 -20.2246 -20.2243 -20.2242
   -20.2223 -20.2222 -20.2221 -20.2221 -20.2220 -20.2220 -20.2216 -20.2216
   -20.2188 -20.2188 -20.2181 -20.2181 -20.2179 -20.2179 -20.2173 -20.2173
   -20.2106 -20.2106 -20.2099 -20.2099 -20.2085 -20.2085 -20.2079 -20.2078
   -20.2048 -20.2048 -20.2041 -20.2041 -20.2024 -20.2024 -20.2015 -20.2015
   -20.2007 -20.2007 -20.2000 -20.2000 -20.1994 -20.1994 -20.1970 -20.1970
    -9.5036  -9.5036  -9.3554  -9.3554  -8.8756  -8.8756  -8.6875  -8.6874
    -8.5356  -8.5356  -8.5128  -8.5127  -8.4480  -8.4479  -8.3532  -8.3531
    -8.0963  -8.0963  -8.0536  -8.0536  -7.6777  -7.6777  -7.6232  -7.6232
     1.3857   1.3857   1.4341   1.4341   2.4163   2.4163   2.5562   2.5562
     2.9562   2.9562   3.0714   3.0715   3.1224   3.1224   3.2916   3.2916
     3.3460   3.3460   3.3965   3.3965   3.5040   3.5041   3.6953   3.6954
     4.0927   4.0927   4.1255   4.1255   4.2167   4.2167   4.4119   4.4119
     4.8684   4.8684   4.9765   4.9765   5.1816   5.1817   5.3356   5.3356
     5.4764   5.4765   5.7687   5.7688   6.2788   6.2788   6.3321   6.3322
     6.5048   6.5048   6.5742   6.5742   6.5956   6.5956   6.8043   6.8043
     7.0880   7.0880   7.1039   7.1039   7.1348   7.1348   7.5372   7.5372
     7.5522   7.5522   7.6211   7.6211   7.6491   7.6491   7.8839   7.8839
    10.7524  10.7524  11.2233  11.2233  11.2971  11.2971  11.7579  11.7579
    12.0710  12.0710  12.2158  12.2159  12.5879  12.5880  12.7003  12.7003
    12.8590  12.8590  13.0150  13.0150  13.4728  13.4728  13.8425  13.8425
    15.1979  15.1979  15.7160  15.7160  16.3524  16.3524  16.5004  16.5004
    16.8559  16.8559  17.3258  17.3258  17.9615

          k = 0.0000-0.4744 0.0000 ( 62026 PWs)   bands (ev):

   -66.0856 -66.0856 -66.0846 -66.0846 -66.0846 -66.0846 -66.0836 -66.0836
   -30.4721 -30.4721 -30.4676 -30.4676 -30.4589 -30.4588 -30.4557 -30.4556
   -30.4351 -30.4351 -30.4312 -30.4312 -30.4194 -30.4194 -30.4148 -30.4148
   -30.3448 -30.3448 -30.3418 -30.3418 -30.3211 -30.3211 -30.3163 -30.3163
   -20.2422 -20.2421 -20.2420 -20.2420 -20.2419 -20.2419 -20.2418 -20.2418
   -20.2259 -20.2259 -20.2257 -20.2257 -20.2255 -20.2254 -20.2252 -20.2252
   -20.2223 -20.2223 -20.2222 -20.2222 -20.2217 -20.2217 -20.2216 -20.2216
   -20.2190 -20.2190 -20.2187 -20.2186 -20.2176 -20.2176 -20.2172 -20.2172
   -20.2112 -20.2112 -20.2101 -20.2101 -20.2090 -20.2089 -20.2071 -20.2071
   -20.2063 -20.2063 -20.2037 -20.2037 -20.2031 -20.2031 -20.2028 -20.2028
   -20.2000 -20.2000 -20.1988 -20.1988 -20.1975 -20.1975 -20.1966 -20.1966
    -9.7230  -9.7230  -9.2889  -9.2889  -9.2290  -9.2290  -8.9764  -8.9764
    -8.4460  -8.4460  -8.3918  -8.3917  -8.3873  -8.3873  -8.3870  -8.3869
    -7.7567  -7.7567  -7.7015  -7.7015  -7.6034  -7.6034  -7.5501  -7.5501
     1.2738   1.2738   1.3518   1.3518   1.3929   1.3929   1.6992   1.6993
     2.4766   2.4766   3.1275   3.1275   3.2310   3.2310   3.2663   3.2663
     3.3651   3.3651   3.3706   3.3706   3.5076   3.5076   3.6211   3.6211
     3.7407   3.7407   4.8810   4.8810   4.8916   4.8916   5.2693   5.2693
     5.2926   5.2926   5.3609   5.3609   5.3707   5.3707   5.7900   5.7900
     5.8060   5.8060   5.9786   5.9786   6.0766   6.0766   6.1638   6.1638
     6.2220   6.2220   6.3322   6.3322   6.7373   6.7373   6.8243   6.8243
     6.9786   6.9786   7.3765   7.3765   7.4456   7.4456   7.4861   7.4861
     7.5310   7.5310   7.5876   7.5876   7.6028   7.6028   7.8252   7.8252
     9.4231   9.4231  11.2914  11.2914  11.3524  11.3524  11.3762  11.3762
    11.4462  11.4462  12.3362  12.3362  12.4332  12.4333  12.8484  12.8485
    13.5797  13.5797  13.6275  13.6275  13.6342  13.6342  13.6408  13.6408
    15.4078  15.4078  15.4946  15.4946  15.6726  15.6726  15.7493  15.7493
    16.5990  16.5990  18.0686  18.0686  18.1216

          k = 0.0000-0.4744 0.1667 ( 62074 PWs)   bands (ev):

   -66.0856 -66.0856 -66.0847 -66.0847 -66.0846 -66.0846 -66.0837 -66.0837
   -30.4718 -30.4701 -30.4679 -30.4660 -30.4593 -30.4589 -30.4561 -30.4559
   -30.4351 -30.4316 -30.4303 -30.4262 -30.4189 -30.4152 -30.4129 -30.4079
   -30.3512 -30.3481 -30.3445 -30.3425 -30.3276 -30.3226 -30.3208 -30.3167
   -20.2421 -20.2421 -20.2420 -20.2420 -20.2419 -20.2419 -20.2418 -20.2418
   -20.2259 -20.2259 -20.2257 -20.2257 -20.2255 -20.2254 -20.2252 -20.2252
   -20.2223 -20.2223 -20.2222 -20.2222 -20.2218 -20.2217 -20.2217 -20.2216
   -20.2190 -20.2188 -20.2187 -20.2185 -20.2177 -20.2176 -20.2173 -20.2172
   -20.2111 -20.2110 -20.2102 -20.2099 -20.2091 -20.2088 -20.2073 -20.2072
   -20.2061 -20.2060 -20.2039 -20.2035 -20.2030 -20.2029 -20.2029 -20.2025
   -20.2004 -20.1999 -20.1992 -20.1989 -20.1979 -20.1974 -20.1970 -20.1966
    -9.6740  -9.6672  -9.3051  -9.2461  -9.2040  -9.1454  -8.9387  -8.9330
    -8.4519  -8.4519  -8.3992  -8.3944  -8.3875  -8.3861  -8.3833  -8.3797
    -7.8747  -7.8200  -7.7477  -7.7306  -7.6907  -7.6750  -7.6132  -7.5598
     1.3477   1.3567   1.3772   1.3993   1.6032   1.6444   1.8535   1.8794
     2.5659   2.5667   3.1271   3.1400   3.2355   3.2652   3.2725   3.2772
     3.3463   3.3691   3.3765   3.4254   3.5027   3.5696   3.6154   3.6595
     3.7670   3.7711   4.4892   4.4956   4.8789   4.9088   5.0395   5.0802
     5.1803   5.1839   5.2478   5.2633   5.3708   5.3864   5.5262   5.5583
     5.7611   5.7710   5.8033   5.8181   6.0738   6.1491   6.1513   6.1971
     6.3732   6.4212   6.4492   6.5010   6.7251   6.8122   6.9126   6.9936
     7.0330   7.0491   7.1799   7.1915   7.2276   7.2799   7.4756   7.4947
     7.5251   7.5378   7.5449   7.5667   7.5800   7.5943   7.8390   7.8408
     9.7588   9.7761  11.2956  11.3538  11.3699  11.3987  11.4586  11.4773
    11.4972  11.5641  12.2496  12.3366  12.3893  12.4811  12.8966  12.8999
    13.4134  13.4321  13.4804  13.5139  13.6135  13.6242  13.6281  13.6592
    15.4078  15.4765  15.6132  15.6539  15.6722  15.7369  15.9427  16.0069
    16.6578  16.6607  17.9268  17.9567  18.0967

          k = 0.0000-0.4744 0.3333 ( 62124 PWs)   bands (ev):

   -66.0854 -66.0854 -66.0849 -66.0849 -66.0844 -66.0844 -66.0839 -66.0839
   -30.4710 -30.4688 -30.4663 -30.4627 -30.4608 -30.4586 -30.4575 -30.4567
   -30.4347 -30.4324 -30.4202 -30.4162 -30.4132 -30.4110 -30.3950 -30.3899
   -30.3687 -30.3654 -30.3482 -30.3437 -30.3435 -30.3372 -30.3200 -30.3177
   -20.2421 -20.2421 -20.2421 -20.2420 -20.2420 -20.2419 -20.2419 -20.2418
   -20.2259 -20.2259 -20.2258 -20.2256 -20.2256 -20.2254 -20.2254 -20.2253
   -20.2223 -20.2222 -20.2222 -20.2221 -20.2220 -20.2218 -20.2217 -20.2216
   -20.2189 -20.2187 -20.2185 -20.2182 -20.2179 -20.2175 -20.2175 -20.2173
   -20.2108 -20.2105 -20.2103 -20.2094 -20.2092 -20.2084 -20.2077 -20.2075
   -20.2055 -20.2052 -20.2042 -20.2033 -20.2031 -20.2025 -20.2020 -20.2015
   -20.2014 -20.2002 -20.1997 -20.1992 -20.1991 -20.1983 -20.1972 -20.1968
    -9.5577  -9.5323  -9.3542  -9.2991  -8.9685  -8.9149  -8.8101  -8.7900
    -8.4899  -8.4849  -8.4253  -8.4222  -8.3794  -8.3791  -8.3615  -8.3531
    -8.1536  -8.1041  -8.0336  -7.9842  -7.7154  -7.6621  -7.6401  -7.5866
     1.3704   1.3923   1.4161   1.4404   2.2715   2.3082   2.4738   2.5095
     2.8244   2.8256   3.1261   3.1593   3.2441   3.2811   3.2825   3.3088
     3.3429   3.3583   3.4263   3.4785   3.5086   3.5940   3.7432   3.7706
     3.8259   3.8384   3.8720   3.8924   4.5087   4.5132   4.6818   4.7032
     4.7906   4.8264   4.9091   4.9356   5.2445   5.2875   5.3034   5.3082
     5.4154   5.4466   5.6905   5.6967   6.2020   6.2079   6.2105   6.3469
     6.5485   6.5508   6.6165   6.7119   6.7687   6.7790   6.8347   6.9302
     7.0430   7.0880   7.1936   7.2079   7.2411   7.2544   7.4514   7.5001
     7.5063   7.5234   7.5468   7.5508   7.5603   7.5780   7.7966   7.7980
    10.4644  10.5002  11.3069  11.3475  11.3720  11.4138  11.7949  11.8341
    11.8355  11.8914  11.8929  11.9578  12.5631  12.6379  12.7519  12.7656
    12.9537  12.9772  13.2074  13.2500  13.6116  13.6119  13.6191  13.6421
    15.4205  15.4989  15.5931  15.6715  16.2250  16.2828  16.6567  16.6995
    16.8533  16.8680  17.4447  17.4501  17.9184

          k = 0.0000-0.4744-0.5000 ( 62152 PWs)   bands (ev):

   -66.0852 -66.0851 -66.0851 -66.0851 -66.0841 -66.0841 -66.0841 -66.0841
   -30.4699 -30.4699 -30.4631 -30.4631 -30.4597 -30.4597 -30.4577 -30.4577
   -30.4336 -30.4336 -30.4177 -30.4176 -30.3920 -30.3920 -30.3887 -30.3887
   -30.3708 -30.3708 -30.3659 -30.3659 -30.3420 -30.3420 -30.3189 -30.3189
   -20.2421 -20.2421 -20.2420 -20.2420 -20.2419 -20.2419 -20.2418 -20.2418
   -20.2259 -20.2258 -20.2258 -20.2257 -20.2255 -20.2255 -20.2254 -20.2254
   -20.2223 -20.2222 -20.2221 -20.2221 -20.2220 -20.2220 -20.2217 -20.2217
   -20.2188 -20.2188 -20.2182 -20.2182 -20.2178 -20.2178 -20.2174 -20.2174
   -20.2105 -20.2105 -20.2099 -20.2099 -20.2085 -20.2084 -20.2079 -20.2079
   -20.2048 -20.2048 -20.2041 -20.2041 -20.2024 -20.2024 -20.2015 -20.2015
   -20.2007 -20.2007 -20.2000 -20.2000 -20.1994 -20.1994 -20.1970 -20.1970
    -9.4391  -9.4391  -9.3941  -9.3941  -8.6649  -8.6648  -8.6276  -8.6276
    -8.5794  -8.5794  -8.5537  -8.5537  -8.3538  -8.3538  -8.3261  -8.3260
    -8.2889  -8.2889  -8.2548  -8.2547  -7.6775  -7.6774  -7.6239  -7.6239
     1.3870   1.3870   1.4354   1.4354   2.9877   2.9877   3.0602   3.0602
     3.1713   3.1714   3.1970   3.1970   3.2248   3.2248   3.2519   3.2519
     3.3659   3.3659   3.3870   3.3870   3.4792   3.4792   3.5408   3.5408
     3.6077   3.6077   3.7752   3.7753   4.3359   4.3359   4.3783   4.3783
     4.4355   4.4355   4.5016   4.5016   5.2638   5.2638   5.2886   5.2886
     5.5360   5.5360   5.5775   5.5775   6.3197   6.3197   6.3283   6.3283
     6.5400   6.5401   6.5973   6.5973   6.6525   6.6526   6.7227   6.7227
     7.3057   7.3057   7.3448   7.3449   7.3506   7.3506   7.4789   7.4789
     7.4918   7.4918   7.5564   7.5564   7.6098   7.6098   7.6346   7.6346
    11.1969  11.1969  11.2451  11.2451  11.3775  11.3775  11.4217  11.4218
    12.2823  12.2823  12.3292  12.3292  12.3721  12.3721  12.4166  12.4166
    12.8691  12.8691  12.9246  12.9246  13.6073  13.6073  13.6243  13.6243
    15.5023  15.5023  15.5840  15.5840  16.8938  16.8939  16.9616  16.9616
    17.3209  17.3210  17.3773  17.3774  17.4737

          k = 0.1667 0.0000 0.1667 ( 62078 PWs)   bands (ev):

   -66.0857 -66.0853 -66.0848 -66.0848 -66.0844 -66.0844 -66.0840 -66.0836
   -30.4950 -30.4903 -30.4902 -30.4857 -30.4536 -30.4441 -30.4437 -30.4361
   -30.4273 -30.4196 -30.4188 -30.4162 -30.4122 -30.4117 -30.4076 -30.4067
   -30.3509 -30.3507 -30.3498 -30.3470 -30.3273 -30.3272 -30.3236 -30.3224
   -20.2422 -20.2421 -20.2420 -20.2420 -20.2419 -20.2419 -20.2418 -20.2418
   -20.2284 -20.2281 -20.2281 -20.2278 -20.2239 -20.2235 -20.2235 -20.2230
   -20.2223 -20.2221 -20.2221 -20.2220 -20.2217 -20.2215 -20.2215 -20.2213
   -20.2192 -20.2186 -20.2186 -20.2182 -20.2176 -20.2174 -20.2174 -20.2169
   -20.2111 -20.2106 -20.2100 -20.2099 -20.2089 -20.2088 -20.2075 -20.2072
   -20.2058 -20.2058 -20.2037 -20.2036 -20.2028 -20.2027 -20.2026 -20.2026
   -20.2003 -20.2003 -20.1993 -20.1993 -20.1979 -20.1979 -20.1972 -20.1970
    -9.8056  -9.5033  -9.4150  -9.4142  -9.1041  -9.1027  -9.0441  -8.9057
    -8.8951  -8.8022  -8.7686  -8.7677  -7.8950  -7.8649  -7.8197  -7.8082
    -7.7955  -7.7725  -7.7579  -7.7220  -7.7190  -7.6949  -7.6832  -7.6705
     1.4900   1.5182   1.5250   1.5316   1.5403   1.6329   1.6349   1.6673
     1.7656   1.7658   1.9668   2.1221   2.6131   2.7033   2.7034   2.7346
     2.8385   2.8717   4.1185   4.1211   4.3764   4.3780   4.5165   4.5224
     4.5649   4.5825   4.6844   4.7410   4.8061   4.8793   5.1317   5.2920
     5.3160   5.3705   5.4126   5.5454   5.5651   5.6577   5.6690   5.7419
     5.7479   5.7776   5.7910   5.7928   5.8482   6.0602   6.3415   6.3752
     6.4214   6.5339   6.5878   6.6966   6.7200   6.7336   6.7378   6.7686
     6.7940   6.8951   6.9097   6.9150   6.9536   7.0202   7.0384   7.1494
     7.3275   7.3877   7.8331   7.8332   8.0626   8.1081   8.1095   8.1527
     9.9561  10.0192  10.3281  10.3352  10.3685  10.4542  12.2788  12.2790
    12.3205  12.3323  12.4135  12.4453  12.6590  12.7139  12.8514  12.9322
    13.0684  13.1990  13.2516  13.3881  13.8873  13.9698  14.0367  14.0432
    14.2870  14.5988  14.5988  15.1847  15.4796  15.5850  15.5906  16.3477
    16.3570  16.9852  16.9990  17.1520  17.6541

          k = 0.1667 0.0000 0.3333 ( 62087 PWs)   bands (ev):

   -66.0855 -66.0851 -66.0850 -66.0847 -66.0846 -66.0842 -66.0842 -66.0837
   -30.4939 -30.4912 -30.4892 -30.4866 -30.4494 -30.4449 -30.4364 -30.4288
   -30.4280 -30.4204 -30.4121 -30.4109 -30.4079 -30.4062 -30.3944 -30.3897
   -30.3679 -30.3656 -30.3513 -30.3497 -30.3442 -30.3395 -30.3264 -30.3240
   -20.2421 -20.2421 -20.2420 -20.2420 -20.2419 -20.2419 -20.2419 -20.2418
   -20.2284 -20.2282 -20.2281 -20.2279 -20.2238 -20.2236 -20.2234 -20.2232
   -20.2223 -20.2222 -20.2221 -20.2219 -20.2218 -20.2217 -20.2215 -20.2214
   -20.2190 -20.2186 -20.2183 -20.2180 -20.2177 -20.2176 -20.2173 -20.2170
   -20.2108 -20.2102 -20.2101 -20.2093 -20.2092 -20.2084 -20.2079 -20.2075
   -20.2052 -20.2049 -20.2040 -20.2031 -20.2030 -20.2024 -20.2020 -20.2016
   -20.2013 -20.2003 -20.2001 -20.1995 -20.1991 -20.1983 -20.1977 -20.1972
    -9.6871  -9.4676  -9.3656  -9.2720  -9.1497  -9.0758  -8.8566  -8.8285
    -8.7819  -8.7685  -8.7180  -8.6508  -8.1721  -8.1152  -8.0825  -8.0292
    -7.8462  -7.7935  -7.7772  -7.7682  -7.7301  -7.7287  -7.7063  -7.7028
     1.4998   1.5150   1.6150   1.6470   1.6519   1.6650   1.7385   1.7711
     2.3073   2.3573   2.4938   2.5829   2.7403   2.8283   2.8859   2.9573
     2.9899   3.1047   3.8316   3.9035   3.9622   3.9697   4.2047   4.3450
     4.3575   4.5253   4.5525   4.5888   4.6641   4.7827   4.8197   4.9501
     5.0738   5.1025   5.1638   5.2461   5.3232   5.4487   5.6077   5.6944
     5.7392   5.7877   5.8159   5.8629   5.8927   6.0578   6.1630   6.2002
     6.4432   6.5083   6.5431   6.5968   6.6303   6.7115   6.7132   6.7433
     6.8170   6.9103   6.9164   6.9406   7.1440   7.1824   7.1882   7.2825
     7.3765   7.4186   7.7852   7.7981   7.9582   7.9968   8.1223   8.1367
    10.3239  10.3319  10.5870  10.6604  10.9390  11.0743  11.9233  11.9926
    12.1716  12.4288  12.4815  12.5319  12.6026  12.6867  12.8152  12.8867
    12.9324  13.0681  13.1333  13.3308  13.6967  13.7131  13.9827  14.0101
    14.4021  14.5728  14.8678  15.3719  15.4858  15.8286  15.9837  16.2500
    16.4563  17.1753  17.4583  17.5073  17.6060

          k = 0.1667 0.0000-0.5000 ( 62142 PWs)   bands (ev):

   -66.0853 -66.0853 -66.0849 -66.0848 -66.0844 -66.0844 -66.0840 -66.0840
   -30.4925 -30.4925 -30.4879 -30.4879 -30.4467 -30.4467 -30.4314 -30.4314
   -30.4228 -30.4228 -30.4104 -30.4104 -30.3902 -30.3902 -30.3881 -30.3881
   -30.3705 -30.3705 -30.3661 -30.3661 -30.3480 -30.3479 -30.3253 -30.3253
   -20.2421 -20.2421 -20.2420 -20.2420 -20.2419 -20.2419 -20.2418 -20.2418
   -20.2283 -20.2283 -20.2280 -20.2280 -20.2237 -20.2237 -20.2233 -20.2233
   -20.2222 -20.2222 -20.2220 -20.2220 -20.2218 -20.2218 -20.2215 -20.2215
   -20.2188 -20.2188 -20.2180 -20.2180 -20.2178 -20.2178 -20.2172 -20.2171
   -20.2104 -20.2104 -20.2097 -20.2097 -20.2086 -20.2086 -20.2079 -20.2079
   -20.2045 -20.2045 -20.2038 -20.2038 -20.2023 -20.2023 -20.2015 -20.2015
   -20.2006 -20.2006 -20.2002 -20.2002 -20.1996 -20.1996 -20.1975 -20.1974
    -9.5605  -9.5605  -9.2341  -9.2341  -9.1448  -9.1447  -8.8013  -8.8013
    -8.5295  -8.5295  -8.4876  -8.4875  -8.4514  -8.4513  -8.3821  -8.3821
    -7.8157  -7.8157  -7.7612  -7.7612  -7.7354  -7.7354  -7.7166  -7.7166
     1.5057   1.5057   1.6339   1.6339   1.6670   1.6670   1.7747   1.7747
     2.7665   2.7665   3.0287   3.0288   3.1169   3.1170   3.2357   3.2357
     3.3347   3.3347   3.4486   3.4486   3.5888   3.5888   3.8476   3.8476
     3.9177   3.9178   4.4643   4.4643   4.5769   4.5769   4.9364   4.9364
     5.0689   5.0689   5.1065   5.1065   5.3159   5.3159   5.6754   5.6754
     5.8139   5.8139   5.8447   5.8447   5.9185   5.9185   6.0364   6.0364
     6.3936   6.3936   6.4934   6.4934   6.7092   6.7093   6.7469   6.7469
     6.8640   6.8640   7.0006   7.0006   7.0565   7.0565   7.5599   7.5599
     7.5999   7.6000   7.7326   7.7326   7.7592   7.7592   8.1334   8.1334
    10.3437  10.3438  11.2815  11.2816  11.3752  11.3753  11.6231  11.6231
    11.8446  11.8446  12.6452  12.6452  12.6995  12.6995  12.7583  12.7583
    12.9517  12.9517  13.3059  13.3059  13.4116  13.4116  13.9934  13.9935
    14.5171  14.5171  15.1693  15.1693  15.9054  15.9054  16.0935  16.0935
    16.7513  16.7514  17.8882  17.8893  17.9642

          k = 0.1667 0.1581 0.1667 ( 62087 PWs)   bands (ev):

   -66.0857 -66.0853 -66.0848 -66.0848 -66.0845 -66.0844 -66.0839 -66.0836
   -30.4913 -30.4865 -30.4864 -30.4817 -30.4551 -30.4455 -30.4452 -30.4356
   -30.4312 -30.4215 -30.4208 -30.4184 -30.4126 -30.4118 -30.4079 -30.4072
   -30.3509 -30.3508 -30.3497 -30.3473 -30.3273 -30.3272 -30.3236 -30.3225
   -20.2422 -20.2421 -20.2420 -20.2420 -20.2419 -20.2419 -20.2418 -20.2418
   -20.2281 -20.2278 -20.2278 -20.2275 -20.2241 -20.2237 -20.2237 -20.2233
   -20.2223 -20.2221 -20.2221 -20.2221 -20.2217 -20.2216 -20.2216 -20.2214
   -20.2191 -20.2186 -20.2186 -20.2183 -20.2175 -20.2175 -20.2175 -20.2170
   -20.2111 -20.2107 -20.2100 -20.2099 -20.2089 -20.2089 -20.2075 -20.2072
   -20.2058 -20.2058 -20.2037 -20.2036 -20.2028 -20.2027 -20.2026 -20.2026
   -20.2003 -20.2003 -20.1993 -20.1993 -20.1979 -20.1979 -20.1971 -20.1970
    -9.7741  -9.5151  -9.3748  -9.3739  -9.1113  -9.1098  -8.9703  -8.9048
    -8.8948  -8.7592  -8.7343  -8.7336  -7.9283  -7.8737  -7.8659  -7.8510
    -7.8370  -7.8145  -7.8045  -7.7973  -7.7482  -7.7311  -7.6822  -7.6719
     1.5270   1.5306   1.5845   1.5854   1.6401   1.6403   1.6815   1.8709
     1.9334   1.9360   1.9673   2.2068   2.6211   2.6979   2.7767   2.8097
     2.9113   2.9366   4.0261   4.0379   4.1733   4.1835   4.4914   4.4964
     4.5654   4.5824   4.6707   4.7469   4.7828   4.8234   4.9540   5.2289
     5.2510   5.3168   5.3374   5.4164   5.4198   5.6069   5.6077   5.6706
     5.7744   5.7881   5.8132   5.8381   5.8498   5.9084   6.3295   6.3515
     6.4283   6.4569   6.5750   6.6882   6.7347   6.7529   6.8164   6.8183
     6.8478   6.8745   6.9300   6.9417   6.9948   7.0112   7.0447   7.1553
     7.3323   7.3858   7.8330   7.8333   8.0157   8.0468   8.0597   8.0782
     9.9754  10.0229  10.4794  10.4914  10.5221  10.5875  12.2507  12.2680
    12.2851  12.2996  12.3743  12.3880  12.5203  12.5655  12.8714  12.9289
    13.0941  13.2083  13.2501  13.3871  13.8907  13.8911  13.9431  13.9831
    14.5089  14.8670  14.8713  15.3198  15.5873  15.5883  15.8808  16.3183
    16.3234  16.8366  17.1022  17.1049  17.6938

          k = 0.1667 0.1581 0.3333 ( 62114 PWs)   bands (ev):

   -66.0855 -66.0851 -66.0850 -66.0846 -66.0846 -66.0843 -66.0841 -66.0838
   -30.4902 -30.4875 -30.4854 -30.4827 -30.4511 -30.4465 -30.4392 -30.4326
   -30.4284 -30.4222 -30.4132 -30.4111 -30.4088 -30.4069 -30.3945 -30.3899
   -30.3680 -30.3656 -30.3514 -30.3498 -30.3442 -30.3395 -30.3264 -30.3241
   -20.2421 -20.2421 -20.2420 -20.2420 -20.2419 -20.2419 -20.2419 -20.2418
   -20.2280 -20.2279 -20.2277 -20.2276 -20.2240 -20.2238 -20.2236 -20.2234
   -20.2223 -20.2222 -20.2221 -20.2220 -20.2218 -20.2218 -20.2216 -20.2215
   -20.2189 -20.2186 -20.2183 -20.2181 -20.2177 -20.2176 -20.2174 -20.2171
   -20.2107 -20.2102 -20.2101 -20.2093 -20.2092 -20.2084 -20.2079 -20.2075
   -20.2052 -20.2049 -20.2040 -20.2031 -20.2030 -20.2024 -20.2020 -20.2016
   -20.2013 -20.2003 -20.2001 -20.1995 -20.1991 -20.1983 -20.1977 -20.1972
    -9.6522  -9.4281  -9.3769  -9.2180  -9.1577  -9.0027  -8.8635  -8.8107
    -8.7675  -8.7473  -8.6972  -8.6305  -8.1744  -8.1179  -8.0926  -8.0329
    -7.8795  -7.8596  -7.8354  -7.8196  -7.8043  -7.7756  -7.7548  -7.7048
     1.5923   1.6089   1.6550   1.6739   1.8173   1.8269   1.9013   1.9334
     2.3081   2.3675   2.4960   2.5979   2.8135   2.8787   2.9162   2.9834
     3.0362   3.1622   3.8296   3.9016   3.9242   3.9582   4.1705   4.2195
     4.2853   4.4225   4.5240   4.6088   4.6722   4.7227   4.7989   4.8429
     4.9525   4.9766   5.0277   5.1832   5.2625   5.2944   5.3853   5.6429
     5.6679   5.6984   5.7972   5.8248   5.8678   5.8898   6.1496   6.1979
     6.4220   6.5511   6.5789   6.6703   6.7204   6.7480   6.7633   6.8277
     6.8857   6.9074   6.9557   6.9897   7.1390   7.1777   7.1890   7.2856
     7.3717   7.4159   7.7866   7.7947   7.9178   7.9468   8.0604   8.0677
    10.4479  10.4833  10.6193  10.6770  11.0512  11.1600  11.9235  11.9914
    12.1545  12.4175  12.4692  12.5242  12.5512  12.5830  12.7411  12.8121
    12.8946  13.0665  13.1237  13.3222  13.5971  13.6202  13.9168  13.9407
    14.6933  14.8476  15.2037  15.5824  15.7794  15.8297  15.9962  16.2274
    16.5602  17.1402  17.2496  17.5170  17.5624

          k = 0.1667 0.1581-0.5000 ( 62118 PWs)   bands (ev):

   -66.0853 -66.0852 -66.0849 -66.0849 -66.0844 -66.0844 -66.0840 -66.0840
   -30.4888 -30.4888 -30.4841 -30.4840 -30.4483 -30.4483 -30.4350 -30.4350
   -30.4242 -30.4242 -30.4107 -30.4107 -30.3905 -30.3905 -30.3883 -30.3883
   -30.3706 -30.3706 -30.3661 -30.3661 -30.3480 -30.3480 -30.3253 -30.3253
   -20.2421 -20.2421 -20.2420 -20.2420 -20.2419 -20.2419 -20.2418 -20.2418
   -20.2280 -20.2279 -20.2277 -20.2277 -20.2239 -20.2239 -20.2235 -20.2235
   -20.2222 -20.2222 -20.2220 -20.2220 -20.2219 -20.2219 -20.2216 -20.2216
   -20.2188 -20.2187 -20.2179 -20.2179 -20.2179 -20.2179 -20.2172 -20.2172
   -20.2104 -20.2104 -20.2097 -20.2097 -20.2086 -20.2086 -20.2079 -20.2079
   -20.2045 -20.2045 -20.2038 -20.2038 -20.2023 -20.2023 -20.2015 -20.2015
   -20.2006 -20.2006 -20.2002 -20.2002 -20.1996 -20.1996 -20.1975 -20.1974
    -9.5225  -9.5225  -9.2438  -9.2438  -9.0765  -9.0764  -8.7683  -8.7683
    -8.5307  -8.5307  -8.4931  -8.4931  -8.4497  -8.4497  -8.3776  -8.3776
    -7.8707  -7.8707  -7.8224  -7.8224  -7.7894  -7.7894  -7.7399  -7.7399
     1.6034   1.6034   1.6743   1.6744   1.8352   1.8352   1.9318   1.9318
     2.8346   2.8346   3.0461   3.0461   3.1279   3.1279   3.2546   3.2546
     3.3380   3.3380   3.4562   3.4562   3.5821   3.5822   3.8517   3.8517
     3.9671   3.9671   4.3093   4.3094   4.5712   4.5712   4.7372   4.7372
     4.9706   4.9706   5.0691   5.0691   5.1634   5.1634   5.4958   5.4958
     5.7352   5.7352   5.7870   5.7870   5.9008   5.9008   5.9171   5.9171
     6.5143   6.5143   6.6477   6.6477   6.6946   6.6946   6.8112   6.8112
     6.9375   6.9375   6.9708   6.9708   7.0835   7.0835   7.5610   7.5610
     7.5935   7.5935   7.7092   7.7092   7.7334   7.7334   8.0664   8.0664
    10.4985  10.4985  11.2890  11.2890  11.3751  11.3751  11.6892  11.6892
    11.9028  11.9028  12.5665  12.5665  12.6475  12.6475  12.7352  12.7352
    12.9339  12.9339  13.1990  13.1990  13.3462  13.3462  13.9228  13.9229
    14.8010  14.8011  15.5370  15.5371  16.0042  16.0042  16.0966  16.0966
    16.7836  16.7836  17.7127  17.7127  17.9748

          k = 0.1667 0.3163 0.1667 ( 62070 PWs)   bands (ev):

   -66.0856 -66.0854 -66.0847 -66.0847 -66.0845 -66.0845 -66.0839 -66.0837
   -30.4818 -30.4765 -30.4765 -30.4710 -30.4603 -30.4511 -30.4509 -30.4418
   -30.4339 -30.4255 -30.4248 -30.4238 -30.4127 -30.4121 -30.4082 -30.4079
   -30.3509 -30.3509 -30.3493 -30.3479 -30.3273 -30.3273 -30.3234 -30.3227
   -20.2421 -20.2421 -20.2420 -20.2420 -20.2419 -20.2419 -20.2418 -20.2418
   -20.2271 -20.2269 -20.2268 -20.2266 -20.2248 -20.2244 -20.2244 -20.2241
   -20.2223 -20.2222 -20.2222 -20.2221 -20.2218 -20.2218 -20.2217 -20.2216
   -20.2190 -20.2186 -20.2186 -20.2185 -20.2176 -20.2176 -20.2175 -20.2171
   -20.2110 -20.2108 -20.2099 -20.2099 -20.2089 -20.2089 -20.2075 -20.2073
   -20.2058 -20.2058 -20.2037 -20.2036 -20.2028 -20.2027 -20.2026 -20.2026
   -20.2003 -20.2003 -20.1993 -20.1993 -20.1979 -20.1979 -20.1971 -20.1970
    -9.6976  -9.5515  -9.2842  -9.2831  -9.1343  -9.1329  -8.9024  -8.8964
    -8.7608  -8.6219  -8.6148  -8.6142  -8.1472  -8.0999  -8.0998  -8.0802
    -7.8652  -7.8631  -7.8110  -7.8056  -7.7499  -7.7413  -7.6812  -7.6749
     1.5285   1.5298   1.6060   1.6065   1.6494   1.6498   1.9024   1.9618
     2.4212   2.5404   2.5442   2.6398   2.6632   2.7263   2.9972   3.0426
     3.1317   3.1386   3.7152   3.7158   3.7405   3.7944   4.1650   4.4796
     4.4819   4.5162   4.5258   4.6139   4.6211   4.7903   4.8111   4.8895
     4.9402   4.9586   5.1750   5.1898   5.4140   5.4380   5.4537   5.4768
     5.6746   5.6942   5.7813   5.7855   5.8434   5.8544   6.3465   6.3783
     6.4660   6.4898   6.5563   6.6734   6.8014   6.8133   6.8829   6.8961
     6.9787   6.9842   7.0410   7.0591   7.1368   7.1376   7.1649   7.1979
     7.3599   7.3891   7.8077   7.8209   7.8488   7.8636   7.8689   7.8921
    10.0018  10.0231  10.8830  10.9173  10.9410  10.9842  11.9384  11.9793
    12.0655  12.1022  12.3032  12.3085  12.3927  12.3937  12.9118  12.9258
    13.2084  13.2615  13.3026  13.4224  13.6703  13.6838  13.7205  13.7904
    15.1337  15.4490  15.4690  15.5835  15.6004  15.8548  16.2070  16.2078
    16.2992  16.8627  17.3962  17.4645  17.4886

          k = 0.1667 0.3163 0.3333 ( 62103 PWs)   bands (ev):

   -66.0854 -66.0852 -66.0849 -66.0847 -66.0846 -66.0843 -66.0841 -66.0838
   -30.4804 -30.4775 -30.4751 -30.4720 -30.4569 -30.4522 -30.4477 -30.4430
   -30.4292 -30.4258 -30.4158 -30.4113 -30.4103 -30.4078 -30.3946 -30.3901
   -30.3683 -30.3657 -30.3516 -30.3499 -30.3443 -30.3395 -30.3265 -30.3241
   -20.2421 -20.2421 -20.2420 -20.2420 -20.2420 -20.2419 -20.2419 -20.2418
   -20.2271 -20.2269 -20.2268 -20.2266 -20.2247 -20.2245 -20.2244 -20.2242
   -20.2223 -20.2222 -20.2222 -20.2221 -20.2219 -20.2218 -20.2217 -20.2217
   -20.2188 -20.2186 -20.2183 -20.2182 -20.2177 -20.2176 -20.2175 -20.2172
   -20.2107 -20.2103 -20.2101 -20.2093 -20.2092 -20.2085 -20.2079 -20.2076
   -20.2052 -20.2049 -20.2040 -20.2031 -20.2030 -20.2024 -20.2020 -20.2016
   -20.2013 -20.2003 -20.2001 -20.1995 -20.1991 -20.1983 -20.1977 -20.1972
    -9.5682  -9.4129  -9.3375  -9.1837  -9.0876  -8.8900  -8.7991  -8.7868
    -8.7639  -8.6295  -8.5933  -8.5504  -8.2167  -8.1932  -8.1320  -8.0975
    -8.0891  -8.0477  -8.0304  -7.9665  -7.8333  -7.7801  -7.7596  -7.7067
     1.6204   1.6392   1.6646   1.6849   2.2282   2.3058   2.3276   2.4422
     2.4895   2.5522   2.5655   2.7555   2.9128   2.9778   3.0382   3.1204
     3.2605   3.3443   3.6888   3.7085   3.7674   3.8319   3.9297   4.0074
     4.1403   4.3412   4.4436   4.4730   4.4934   4.5834   4.6061   4.7094
     4.7944   4.8446   4.8788   4.9220   4.9832   5.0427   5.1880   5.2010
     5.3703   5.3866   5.4954   5.6513   5.8077   5.8565   6.1787   6.1990
     6.5802   6.6532   6.6692   6.7735   6.8454   6.8882   6.9592   7.0122
     7.0442   7.0633   7.0858   7.1180   7.1786   7.2059   7.2382   7.3051
     7.3617   7.4129   7.7516   7.7724   7.7935   7.8088   7.8570   7.8799
    10.5809  10.6246  10.9290  10.9513  11.3623  11.4278  11.8962  11.9481
    12.0013  12.1411  12.2526  12.2822  12.4835  12.5905  12.6821  12.7236
    12.8894  13.0631  13.1572  13.3502  13.3676  13.4199  13.6968  13.7348
    15.3270  15.4430  15.7663  15.9984  16.0304  16.0772  16.1411  16.7333
    16.7478  16.9012  17.0422  17.5985  17.6987

          k = 0.1667 0.3163-0.5000 ( 62128 PWs)   bands (ev):

   -66.0852 -66.0852 -66.0850 -66.0850 -66.0843 -66.0843 -66.0841 -66.0841
   -30.4789 -30.4788 -30.4735 -30.4735 -30.4542 -30.4542 -30.4450 -30.4450
   -30.4272 -30.4272 -30.4112 -30.4112 -30.3911 -30.3911 -30.3888 -30.3888
   -30.3707 -30.3706 -30.3663 -30.3663 -30.3481 -30.3481 -30.3254 -30.3253
   -20.2421 -20.2421 -20.2420 -20.2420 -20.2419 -20.2419 -20.2419 -20.2418
   -20.2270 -20.2270 -20.2267 -20.2267 -20.2246 -20.2246 -20.2243 -20.2243
   -20.2222 -20.2222 -20.2221 -20.2221 -20.2220 -20.2220 -20.2217 -20.2217
   -20.2187 -20.2187 -20.2180 -20.2180 -20.2179 -20.2179 -20.2174 -20.2173
   -20.2103 -20.2103 -20.2097 -20.2097 -20.2085 -20.2085 -20.2080 -20.2080
   -20.2045 -20.2045 -20.2038 -20.2038 -20.2023 -20.2023 -20.2015 -20.2015
   -20.2006 -20.2006 -20.2002 -20.2002 -20.1996 -20.1996 -20.1975 -20.1975
    -9.4332  -9.4332  -9.2749  -9.2749  -8.8910  -8.8909  -8.6677  -8.6677
    -8.5440  -8.5440  -8.5144  -8.5143  -8.4360  -8.4360  -8.3571  -8.3570
    -8.0935  -8.0935  -8.0592  -8.0592  -7.7969  -7.7969  -7.7430  -7.7430
     1.6380   1.6380   1.6856   1.6856   2.4198   2.4198   2.5376   2.5376
     3.0170   3.0170   3.1020   3.1020   3.1344   3.1344   3.3047   3.3047
     3.3486   3.3486   3.4819   3.4819   3.5561   3.5561   3.7415   3.7415
     4.0867   4.0867   4.1311   4.1311   4.2112   4.2112   4.4188   4.4188
     4.7855   4.7855   4.8635   4.8635   5.0424   5.0424   5.0890   5.0891
     5.1892   5.1893   5.5649   5.5649   5.9086   5.9086   5.9283   5.9283
     6.6958   6.6958   6.8199   6.8200   6.8677   6.8677   6.9126   6.9126
     7.0631   7.0631   7.1176   7.1176   7.2107   7.2107   7.5507   7.5507
     7.5721   7.5721   7.6280   7.6280   7.6589   7.6590   7.8656   7.8656
    10.9088  10.9089  11.3050  11.3050  11.3774  11.3774  11.8140  11.8140
    12.0830  12.0830  12.2547  12.2547  12.5722  12.5722  12.6600  12.6600
    12.8327  12.8327  12.9738  12.9738  13.3187  13.3187  13.7069  13.7069
    15.4004  15.4004  15.9713  15.9713  16.4115  16.4115  16.5014  16.5014
    16.9105  16.9105  17.3623  17.3623  17.9022

          k = 0.1667-0.4744 0.1667 ( 62084 PWs)   bands (ev):

   -66.0855 -66.0855 -66.0846 -66.0846 -66.0846 -66.0846 -66.0838 -66.0838
   -30.4699 -30.4699 -30.4663 -30.4663 -30.4593 -30.4593 -30.4564 -30.4564
   -30.4303 -30.4303 -30.4265 -30.4265 -30.4124 -30.4124 -30.4082 -30.4082
   -30.3509 -30.3509 -30.3487 -30.3487 -30.3273 -30.3273 -30.3231 -30.3231
   -20.2421 -20.2421 -20.2420 -20.2420 -20.2419 -20.2419 -20.2418 -20.2418
   -20.2259 -20.2259 -20.2257 -20.2257 -20.2255 -20.2255 -20.2253 -20.2253
   -20.2223 -20.2223 -20.2222 -20.2222 -20.2218 -20.2218 -20.2217 -20.2217
   -20.2188 -20.2188 -20.2185 -20.2185 -20.2176 -20.2176 -20.2173 -20.2173
   -20.2109 -20.2109 -20.2099 -20.2099 -20.2089 -20.2089 -20.2074 -20.2074
   -20.2058 -20.2058 -20.2037 -20.2036 -20.2028 -20.2028 -20.2026 -20.2026
   -20.2003 -20.2003 -20.1993 -20.1993 -20.1979 -20.1979 -20.1971 -20.1971
    -9.6144  -9.6144  -9.2206  -9.2206  -9.1629  -9.1629  -8.8992  -8.8992
    -8.4594  -8.4593  -8.3940  -8.3940  -8.3874  -8.3873  -8.3815  -8.3815
    -7.8649  -7.8649  -7.8094  -7.8094  -7.7462  -7.7462  -7.6785  -7.6785
     1.5290   1.5290   1.6088   1.6088   1.6516   1.6516   1.9497   1.9497
     2.6592   2.6592   3.1425   3.1426   3.2602   3.2602   3.2809   3.2810
     3.3519   3.3519   3.4418   3.4418   3.5666   3.5666   3.6554   3.6554
     3.7897   3.7897   4.5236   4.5236   4.5756   4.5757   4.9850   4.9851
     5.0545   5.0545   5.1610   5.1610   5.2127   5.2128   5.4817   5.4817
     5.5215   5.5215   5.7872   5.7872   5.8230   5.8230   6.3817   6.3817
     6.5320   6.5320   6.5799   6.5799   6.8148   6.8148   6.9124   6.9124
     6.9887   6.9887   7.1159   7.1159   7.3099   7.3099   7.4807   7.4807
     7.5260   7.5260   7.5432   7.5432   7.5969   7.5969   7.8405   7.8405
    10.0166  10.0166  11.4087  11.4087  11.4710  11.4710  11.5052  11.5052
    11.5647  11.5647  12.3033  12.3033  12.3873  12.3873  12.9321  12.9321
    13.4020  13.4020  13.4233  13.4233  13.4547  13.4547  13.5993  13.5994
    15.5668  15.5668  15.7253  15.7253  15.9258  15.9258  15.9910  15.9910
    16.7146  16.7146  17.9341  17.9343  17.9769

          k = 0.1667-0.4744 0.3333 ( 62104 PWs)   bands (ev):

   -66.0853 -66.0853 -66.0848 -66.0848 -66.0844 -66.0844 -66.0840 -66.0839
   -30.4692 -30.4672 -30.4662 -30.4630 -30.4607 -30.4590 -30.4577 -30.4572
   -30.4297 -30.4274 -30.4171 -30.4117 -30.4107 -30.4080 -30.3947 -30.3902
   -30.3683 -30.3658 -30.3517 -30.3499 -30.3444 -30.3395 -30.3265 -30.3241
   -20.2421 -20.2421 -20.2420 -20.2420 -20.2420 -20.2419 -20.2419 -20.2418
   -20.2259 -20.2259 -20.2258 -20.2257 -20.2256 -20.2255 -20.2254 -20.2253
   -20.2223 -20.2222 -20.2222 -20.2221 -20.2219 -20.2218 -20.2218 -20.2217
   -20.2187 -20.2186 -20.2185 -20.2182 -20.2178 -20.2175 -20.2175 -20.2174
   -20.2106 -20.2104 -20.2101 -20.2093 -20.2092 -20.2085 -20.2078 -20.2076
   -20.2052 -20.2049 -20.2040 -20.2031 -20.2030 -20.2024 -20.2020 -20.2016
   -20.2013 -20.2003 -20.2001 -20.1995 -20.1991 -20.1983 -20.1977 -20.1972
    -9.4881  -9.4684  -9.2710  -9.2176  -8.9860  -8.9338  -8.7822  -8.7666
    -8.5013  -8.4964  -8.4177  -8.4127  -8.3785  -8.3760  -8.3651  -8.3583
    -8.1440  -8.0939  -8.0431  -7.9962  -7.8335  -7.7812  -7.7597  -7.7074
     1.6234   1.6417   1.6668   1.6868   2.2780   2.3160   2.4591   2.4935
     2.9260   2.9297   3.1434   3.1694   3.2558   3.2813   3.2869   3.3021
     3.3469   3.3617   3.4821   3.5303   3.5620   3.6368   3.7315   3.7609
     3.8286   3.8387   3.9394   4.0057   4.4696   4.5132   4.6564   4.6694
     4.7168   4.7576   4.8355   4.8711   5.0121   5.0492   5.0715   5.1239
     5.1964   5.2596   5.3834   5.4634   5.8108   5.8340   6.1870   6.2000
     6.6523   6.6763   6.7131   6.7622   6.8720   6.9319   7.0449   7.1051
     7.1182   7.1774   7.1932   7.2384   7.2573   7.2620   7.4531   7.4957
     7.5018   7.5131   7.5324   7.5512   7.5730   7.5920   7.7998   7.8028
    10.6031  10.6275  11.4271  11.4617  11.4913  11.5271  11.7976  11.8336
    11.8504  11.8800  11.9566  12.0277  12.4762  12.5591  12.7574  12.7824
    12.9586  12.9919  13.1371  13.2113  13.4294  13.4558  13.4924  13.5457
    15.6478  15.7184  15.8575  15.9261  16.2691  16.3300  16.6372  16.6888
    16.8937  16.9043  17.4701  17.5126  17.8523

          k = 0.1667-0.4744-0.5000 ( 62080 PWs)   bands (ev):

   -66.0851 -66.0851 -66.0851 -66.0851 -66.0842 -66.0842 -66.0842 -66.0842
   -30.4682 -30.4682 -30.4630 -30.4630 -30.4600 -30.4600 -30.4582 -30.4581
   -30.4287 -30.4286 -30.4114 -30.4114 -30.3914 -30.3914 -30.3890 -30.3890
   -30.3707 -30.3707 -30.3663 -30.3663 -30.3481 -30.3481 -30.3254 -30.3254
   -20.2421 -20.2421 -20.2420 -20.2420 -20.2419 -20.2419 -20.2419 -20.2418
   -20.2258 -20.2258 -20.2258 -20.2257 -20.2255 -20.2255 -20.2254 -20.2254
   -20.2222 -20.2222 -20.2221 -20.2221 -20.2220 -20.2220 -20.2217 -20.2217
   -20.2187 -20.2186 -20.2181 -20.2181 -20.2178 -20.2178 -20.2174 -20.2174
   -20.2103 -20.2103 -20.2098 -20.2097 -20.2085 -20.2085 -20.2080 -20.2080
   -20.2045 -20.2045 -20.2038 -20.2038 -20.2023 -20.2023 -20.2015 -20.2015
   -20.2006 -20.2006 -20.2002 -20.2002 -20.1996 -20.1996 -20.1975 -20.1975
    -9.3602  -9.3601  -9.3183  -9.3183  -8.6854  -8.6854  -8.6493  -8.6493
    -8.5596  -8.5596  -8.5352  -8.5352  -8.3509  -8.3509  -8.3235  -8.3235
    -8.2914  -8.2913  -8.2573  -8.2573  -7.7971  -7.7970  -7.7439  -7.7439
     1.6414   1.6414   1.6881   1.6881   2.9953   2.9953   3.0640   3.0640
     3.1635   3.1635   3.1851   3.1851   3.2450   3.2450   3.3049   3.3049
     3.3636   3.3636   3.4658   3.4658   3.5205   3.5205   3.5981   3.5981
     3.6436   3.6436   3.8023   3.8023   4.3388   4.3388   4.3742   4.3742
     4.4298   4.4298   4.4935   4.4935   4.9259   4.9259   5.1057   5.1057
     5.1892   5.1892   5.3544   5.3544   5.9084   5.9084   5.9273   5.9273
     6.7612   6.7612   6.8354   6.8354   6.9007   6.9007   6.9494   6.9494
     7.3037   7.3037   7.3317   7.3317   7.3918   7.3918   7.4681   7.4681
     7.4954   7.4954   7.5597   7.5597   7.6222   7.6223   7.6546   7.6546
    11.2675  11.2675  11.3183  11.3183  11.4879  11.4879  11.5589  11.5589
    12.2832  12.2832  12.3341  12.3341  12.3728  12.3728  12.4235  12.4235
    12.7970  12.7970  12.8762  12.8762  13.4431  13.4431  13.4902  13.4902
    15.7603  15.7604  15.8339  15.8339  16.9476  16.9476  17.0107  17.0107
    17.3329  17.3329  17.3880  17.3880  17.4690

          k = 0.3333 0.0000 0.3333 ( 62132 PWs)   bands (ev):

   -66.0853 -66.0849 -66.0848 -66.0848 -66.0844 -66.0844 -66.0843 -66.0839
   -30.4928 -30.4903 -30.4902 -30.4876 -30.4434 -30.4378 -30.4373 -30.4301
   -30.4185 -30.4104 -30.4094 -30.4064 -30.3942 -30.3936 -30.3905 -30.3898
   -30.3688 -30.3667 -30.3665 -30.3648 -30.3442 -30.3438 -30.3422 -30.3409
   -20.2421 -20.2420 -20.2420 -20.2420 -20.2419 -20.2419 -20.2419 -20.2418
   -20.2283 -20.2282 -20.2282 -20.2280 -20.2238 -20.2235 -20.2235 -20.2233
   -20.2223 -20.2221 -20.2221 -20.2219 -20.2219 -20.2217 -20.2217 -20.2215
   -20.2187 -20.2184 -20.2183 -20.2179 -20.2178 -20.2174 -20.2174 -20.2171
   -20.2103 -20.2098 -20.2095 -20.2095 -20.2088 -20.2087 -20.2082 -20.2078
   -20.2044 -20.2044 -20.2033 -20.2033 -20.2021 -20.2021 -20.2018 -20.2016
   -20.2011 -20.2011 -20.2005 -20.2004 -20.1989 -20.1989 -20.1985 -20.1984
    -9.5555  -9.3244  -9.3219  -9.1858  -9.1116  -8.9087  -8.9018  -8.7305
    -8.6905  -8.6723  -8.6708  -8.6625  -8.1921  -8.1443  -8.1379  -8.1180
    -8.0916  -8.0795  -7.9919  -7.9699  -7.7638  -7.7386  -7.7386  -7.7137
     1.5558   1.5942   1.5953   1.6328   2.2203   2.2257   2.3187   2.3310
     2.3734   2.3798   2.5686   2.6729   2.9524   2.9860   3.0204   3.0620
     3.2664   3.2951   3.8064   3.8385   3.9590   3.9705   4.1369   4.1721
     4.1737   4.1942   4.2982   4.3859   4.4548   4.4857   4.5790   4.5842
     4.8447   4.9218   4.9993   5.0415   5.0800   5.1109   5.2267   5.4692
     5.4822   5.5473   5.5510   5.6810   5.9269   5.9396   5.9398   6.1007
     6.5011   6.5026   6.5285   6.5328   6.5608   6.5860   6.6082   6.6534
     7.0309   7.1973   7.2182   7.2401   7.2683   7.3406   7.3992   7.4065
     7.4481   7.5290   7.7495   7.7578   7.9317   7.9844   8.0270   8.0492
    10.7863  10.9021  10.9523  10.9714  11.0750  11.2852  12.0930  12.1028
    12.1498  12.1596  12.2240  12.3285  12.5548  12.5704  12.8007  12.8744
    12.8847  12.9325  13.0543  13.1101  13.6071  13.6816  13.6865  13.7839
    14.5651  14.8207  14.8269  15.2775  15.8718  16.3193  16.3502  16.7469
    16.8193  17.1455  17.2164  17.7656  17.7874

          k = 0.3333 0.0000-0.5000 ( 62136 PWs)   bands (ev):

   -66.0851 -66.0851 -66.0847 -66.0847 -66.0846 -66.0846 -66.0842 -66.0842
   -30.4915 -30.4915 -30.4889 -30.4889 -30.4396 -30.4396 -30.4327 -30.4327
   -30.4118 -30.4118 -30.3960 -30.3960 -30.3893 -30.3893 -30.3861 -30.3861
   -30.3726 -30.3726 -30.3671 -30.3671 -30.3618 -30.3618 -30.3429 -30.3429
   -20.2421 -20.2420 -20.2420 -20.2420 -20.2420 -20.2420 -20.2419 -20.2419
   -20.2283 -20.2282 -20.2281 -20.2281 -20.2237 -20.2237 -20.2234 -20.2234
   -20.2222 -20.2222 -20.2220 -20.2220 -20.2218 -20.2218 -20.2216 -20.2216
   -20.2185 -20.2185 -20.2181 -20.2180 -20.2177 -20.2177 -20.2173 -20.2173
   -20.2098 -20.2098 -20.2093 -20.2092 -20.2088 -20.2088 -20.2083 -20.2083
   -20.2038 -20.2037 -20.2032 -20.2031 -20.2022 -20.2022 -20.2013 -20.2013
   -20.2012 -20.2012 -20.2004 -20.2004 -20.1999 -20.1999 -20.1987 -20.1987
    -9.4180  -9.4180  -9.1883  -9.1883  -9.0067  -9.0067  -8.6956  -8.6956
    -8.5668  -8.5668  -8.4851  -8.4850  -8.4311  -8.4311  -8.3819  -8.3819
    -8.0939  -8.0939  -8.0448  -8.0448  -7.7518  -7.7518  -7.7267  -7.7266
     1.5747   1.5747   1.6147   1.6147   2.3378   2.3378   2.3845   2.3845
     2.9552   2.9553   3.0664   3.0664   3.1033   3.1033   3.2642   3.2642
     3.3703   3.3703   3.6256   3.6256   3.7804   3.7804   3.9021   3.9022
     3.9235   3.9235   4.0964   4.0964   4.2542   4.2542   4.4260   4.4260
     4.7510   4.7510   4.9693   4.9693   5.0926   5.0926   5.1752   5.1752
     5.3200   5.3201   5.5680   5.5680   5.9609   5.9609   6.0600   6.0600
     6.4439   6.4439   6.4668   6.4669   6.5212   6.5212   6.6134   6.6134
     7.2005   7.2006   7.3395   7.3395   7.4227   7.4227   7.5856   7.5856
     7.6140   7.6140   7.7388   7.7388   7.7785   7.7786   8.0185   8.0185
    10.9369  10.9369  11.4989  11.4989  11.6030  11.6030  11.6730  11.6730
    11.9238  11.9238  12.2868  12.2868  12.4591  12.4591  12.7029  12.7029
    12.9212  12.9212  13.2626  13.2627  13.3043  13.3043  13.6972  13.6972
    14.7302  14.7302  15.0976  15.0977  16.3250  16.3250  16.7415  16.7415
    17.0822  17.0822  17.5285  17.5286  17.9776

          k = 0.3333 0.1581 0.3333 ( 62099 PWs)   bands (ev):

   -66.0853 -66.0850 -66.0848 -66.0848 -66.0845 -66.0844 -66.0843 -66.0839
   -30.4891 -30.4864 -30.4863 -30.4837 -30.4458 -30.4405 -30.4401 -30.4339
   -30.4181 -30.4112 -30.4103 -30.4079 -30.3942 -30.3936 -30.3906 -30.3901
   -30.3686 -30.3668 -30.3667 -30.3652 -30.3442 -30.3439 -30.3421 -30.3410
   -20.2421 -20.2420 -20.2420 -20.2420 -20.2419 -20.2419 -20.2419 -20.2418
   -20.2280 -20.2278 -20.2278 -20.2277 -20.2240 -20.2238 -20.2237 -20.2235
   -20.2223 -20.2221 -20.2221 -20.2220 -20.2219 -20.2218 -20.2217 -20.2216
   -20.2187 -20.2183 -20.2183 -20.2180 -20.2178 -20.2175 -20.2175 -20.2172
   -20.2102 -20.2098 -20.2095 -20.2095 -20.2088 -20.2088 -20.2082 -20.2079
   -20.2044 -20.2044 -20.2033 -20.2033 -20.2021 -20.2021 -20.2018 -20.2016
   -20.2011 -20.2011 -20.2005 -20.2004 -20.1989 -20.1989 -20.1985 -20.1984
    -9.5143  -9.2724  -9.2695  -9.1978  -9.0398  -8.9173  -8.9105  -8.7017
    -8.6886  -8.6638  -8.6497  -8.6443  -8.2072  -8.1438  -8.1414  -8.1180
    -8.0932  -8.0820  -7.9919  -7.9713  -7.8565  -7.8321  -7.8320  -7.8065
     1.7792   1.8146   1.8155   1.8583   2.2211   2.2258   2.3192   2.3324
     2.3836   2.3884   2.5707   2.6830   3.0239   3.0601   3.0956   3.1064
[...]
    11.0383  11.0383  11.5194  11.5194  11.6169  11.6169  11.7298  11.7298
    11.9708  11.9708  12.3104  12.3105  12.4534  12.4534  12.7080  12.7080
    12.7999  12.7999  13.1442  13.1442  13.1871  13.1871  13.5963  13.5963
    15.0859  15.0859  15.4749  15.4749  16.4085  16.4085  16.7418  16.7418
    17.0872  17.0872  17.5396  17.5397  17.8416

          k = 0.3333 0.3163 0.3333 ( 62085 PWs)   bands (ev):

   -66.0852 -66.0850 -66.0847 -66.0847 -66.0845 -66.0845 -66.0842 -66.0840
   -30.4790 -30.4761 -30.4760 -30.4730 -30.4535 -30.4490 -30.4487 -30.4442
   -30.4170 -30.4129 -30.4118 -30.4109 -30.3942 -30.3938 -30.3908 -30.3906
   -30.3680 -30.3670 -30.3669 -30.3661 -30.3442 -30.3440 -30.3419 -30.3413
   -20.2421 -20.2420 -20.2420 -20.2420 -20.2419 -20.2419 -20.2419 -20.2419
   -20.2271 -20.2269 -20.2269 -20.2267 -20.2247 -20.2245 -20.2245 -20.2243
   -20.2222 -20.2222 -20.2221 -20.2221 -20.2219 -20.2219 -20.2219 -20.2218
   -20.2186 -20.2183 -20.2183 -20.2182 -20.2177 -20.2176 -20.2176 -20.2174
   -20.2102 -20.2099 -20.2095 -20.2095 -20.2088 -20.2088 -20.2081 -20.2079
   -20.2044 -20.2044 -20.2033 -20.2033 -20.2021 -20.2021 -20.2018 -20.2017
   -20.2011 -20.2011 -20.2005 -20.2004 -20.1989 -20.1989 -20.1985 -20.1984
    -9.4144  -9.2370  -9.1464  -9.1425  -8.9480  -8.9410  -8.8385  -8.6860
    -8.6773  -8.5742  -8.5669  -8.5624  -8.2975  -8.1773  -8.1720  -8.1240
    -8.1100  -8.0978  -8.0791  -8.0321  -8.0246  -8.0031  -7.9738  -7.9717
     2.2077   2.2114   2.2449   2.2587   2.3189   2.3268   2.3419   2.4481
     2.5575   2.5759   2.5815   2.7892   3.1829   3.2345   3.2590   3.3058
     3.3298   3.3742   3.6972   3.7041   3.7750   3.8573   4.0646   4.0960
     4.1316   4.1996   4.2037   4.3212   4.3679   4.4275   4.4367   4.5225
     4.5531   4.6072   4.6291   4.6952   4.7814   4.8738   4.9057   4.9441
     4.9655   4.9940   5.1869   5.2989   5.3501   5.3741   5.5656   5.5698
     6.8273   6.8505   6.8723   6.9269   6.9887   7.0336   7.0613   7.0800
     7.1340   7.1935   7.2291   7.2623   7.2821   7.3220   7.3875   7.3876
     7.4584   7.4965   7.7156   7.7278   7.7701   7.7918   7.7976   7.8544
    10.9463  11.0175  11.3213  11.3680  11.3945  11.5542  12.0667  12.0893
    12.1172  12.1583  12.1615  12.2820  12.4187  12.4529  12.6273  12.6798
    12.7700  12.7773  12.8361  13.1070  13.2450  13.3150  13.3214  13.4702
    15.7457  15.9441  15.9573  16.2743  16.3368  16.3609  16.6302  16.8544
    16.8779  16.9834  17.2235  17.2641  17.7240

          k = 0.3333 0.3163-0.5000 ( 62108 PWs)   bands (ev):

   -66.0850 -66.0850 -66.0848 -66.0848 -66.0845 -66.0845 -66.0843 -66.0843
   -30.4774 -30.4774 -30.4745 -30.4744 -30.4508 -30.4508 -30.4461 -30.4461
   -30.4133 -30.4132 -30.3969 -30.3968 -30.3899 -30.3899 -30.3868 -30.3867
   -30.3730 -30.3730 -30.3673 -30.3673 -30.3620 -30.3620 -30.3430 -30.3430
   -20.2420 -20.2420 -20.2420 -20.2420 -20.2420 -20.2419 -20.2419 -20.2419
   -20.2270 -20.2270 -20.2268 -20.2268 -20.2246 -20.2246 -20.2244 -20.2244
   -20.2222 -20.2222 -20.2221 -20.2220 -20.2220 -20.2220 -20.2218 -20.2218
   -20.2184 -20.2184 -20.2180 -20.2179 -20.2179 -20.2179 -20.2175 -20.2175
   -20.2098 -20.2097 -20.2093 -20.2093 -20.2087 -20.2087 -20.2084 -20.2084
   -20.2038 -20.2037 -20.2032 -20.2031 -20.2022 -20.2022 -20.2013 -20.2013
   -20.2012 -20.2012 -20.2004 -20.2004 -20.1999 -20.1999 -20.1987 -20.1987
    -9.2528  -9.2528  -9.0547  -9.0547  -8.9437  -8.9437  -8.6233  -8.6233
    -8.5758  -8.5758  -8.4816  -8.4816  -8.4136  -8.4136  -8.3653  -8.3653
    -8.1229  -8.1229  -8.0867  -8.0867  -8.0568  -8.0568  -8.0039  -8.0039
     2.2605   2.2605   2.3409   2.3409   2.4366   2.4366   2.5553   2.5553
     3.0758   3.0758   3.1327   3.1328   3.2317   3.2317   3.3130   3.3130
     3.4055   3.4055   3.6535   3.6535   3.7583   3.7583   3.8545   3.8545
     4.0552   4.0552   4.1461   4.1461   4.1931   4.1931   4.3029   4.3029
     4.3858   4.3858   4.5266   4.5266   4.6746   4.6746   4.9009   4.9009
     5.0026   5.0026   5.0714   5.0714   5.1214   5.1214   5.3498   5.3498
     6.8816   6.8816   6.9479   6.9479   7.0123   7.0123   7.0768   7.0768
     7.2280   7.2280   7.3213   7.3213   7.4228   7.4228   7.5493   7.5493
     7.5837   7.5837   7.6475   7.6476   7.6800   7.6800   7.8143   7.8143
    11.3089  11.3089  11.5536  11.5536  11.6506  11.6506  11.9022  11.9022
    12.1289  12.1289  12.3535  12.3535  12.4104  12.4104  12.4544  12.4544
    12.7585  12.7585  12.8669  12.8669  12.9479  12.9479  13.3443  13.3443
    15.9047  15.9047  16.3911  16.3911  16.6539  16.6540  16.7404  16.7404
    17.1190  17.1190  17.4239  17.4239  17.7080

          k = 0.3333-0.4744 0.3333 ( 62064 PWs)   bands (ev):

   -66.0851 -66.0851 -66.0846 -66.0846 -66.0846 -66.0846 -66.0841 -66.0841
   -30.4657 -30.4657 -30.4637 -30.4637 -30.4604 -30.4604 -30.4585 -30.4585
   -30.4151 -30.4151 -30.4124 -30.4123 -30.3940 -30.3940 -30.3908 -30.3908
   -30.3672 -30.3672 -30.3670 -30.3670 -30.3441 -30.3441 -30.3416 -30.3416
   -20.2421 -20.2421 -20.2420 -20.2420 -20.2419 -20.2419 -20.2419 -20.2419
   -20.2258 -20.2258 -20.2257 -20.2257 -20.2256 -20.2256 -20.2255 -20.2254
   -20.2222 -20.2222 -20.2221 -20.2221 -20.2219 -20.2219 -20.2219 -20.2218
   -20.2184 -20.2184 -20.2183 -20.2182 -20.2177 -20.2177 -20.2176 -20.2175
   -20.2100 -20.2100 -20.2095 -20.2094 -20.2088 -20.2088 -20.2080 -20.2080
   -20.2044 -20.2044 -20.2033 -20.2033 -20.2021 -20.2021 -20.2017 -20.2017
   -20.2011 -20.2011 -20.2005 -20.2004 -20.1989 -20.1989 -20.1985 -20.1984
    -9.3098  -9.3098  -9.0414  -9.0414  -8.9946  -8.9946  -8.6853  -8.6853
    -8.5474  -8.5474  -8.3907  -8.3907  -8.3799  -8.3799  -8.3628  -8.3627
    -8.1208  -8.1208  -8.0828  -8.0828  -8.0667  -8.0667  -7.9780  -7.9780
     2.2185   2.2186   2.2964   2.2964   2.3374   2.3374   2.5465   2.5465
     3.1558   3.1558   3.1858   3.1858   3.2810   3.2810   3.3135   3.3135
     3.3793   3.3793   3.6039   3.6039   3.7062   3.7062   3.7413   3.7413
     3.8463   3.8463   4.1180   4.1180   4.2397   4.2397   4.4606   4.4606
     4.5779   4.5779   4.6830   4.6831   4.7624   4.7624   4.8189   4.8189
     4.9276   4.9276   5.0231   5.0231   5.0461   5.0461   5.5595   5.5595
     6.9453   6.9453   7.0680   7.0680   7.1160   7.1160   7.1819   7.1819
     7.2577   7.2577   7.2937   7.2937   7.3327   7.3327   7.4663   7.4664
     7.4946   7.4946   7.5604   7.5604   7.6077   7.6077   7.7707   7.7707
    11.0011  11.0011  11.7262  11.7262  11.7763  11.7763  11.8525  11.8525
    11.9431  11.9431  12.1432  12.1432  12.2602  12.2602  12.6493  12.6493
    12.9253  12.9253  12.9948  12.9948  13.0396  13.0396  13.2579  13.2579
    16.3068  16.3068  16.4467  16.4467  16.5907  16.5908  16.6581  16.6581
    17.0271  17.0271  17.5500  17.5501  17.6284

          k = 0.3333-0.4744-0.5000 ( 62024 PWs)   bands (ev):

   -66.0849 -66.0849 -66.0849 -66.0849 -66.0844 -66.0844 -66.0844 -66.0844
   -30.4648 -30.4648 -30.4626 -30.4626 -30.4608 -30.4608 -30.4595 -30.4595
   -30.4137 -30.4137 -30.3971 -30.3971 -30.3901 -30.3901 -30.3869 -30.3869
   -30.3731 -30.3731 -30.3674 -30.3674 -30.3620 -30.3620 -30.3431 -30.3430
   -20.2420 -20.2420 -20.2420 -20.2420 -20.2419 -20.2419 -20.2419 -20.2419
   -20.2258 -20.2258 -20.2257 -20.2257 -20.2256 -20.2256 -20.2255 -20.2255
   -20.2222 -20.2222 -20.2221 -20.2221 -20.2220 -20.2220 -20.2219 -20.2219
   -20.2183 -20.2183 -20.2180 -20.2180 -20.2179 -20.2179 -20.2176 -20.2176
   -20.2097 -20.2097 -20.2094 -20.2094 -20.2087 -20.2087 -20.2084 -20.2084
   -20.2038 -20.2037 -20.2032 -20.2031 -20.2022 -20.2022 -20.2013 -20.2013
   -20.2012 -20.2012 -20.2004 -20.2004 -20.1999 -20.1999 -20.1987 -20.1987
    -9.1470  -9.1469  -9.1171  -9.1171  -8.7485  -8.7485  -8.7191  -8.7190
    -8.4977  -8.4977  -8.4800  -8.4800  -8.3438  -8.3437  -8.3205  -8.3205
    -8.2954  -8.2954  -8.2635  -8.2635  -8.0791  -8.0791  -8.0310  -8.0310
     2.3124   2.3124   2.3533   2.3533   3.0106   3.0106   3.0579   3.0579
     3.1568   3.1568   3.1854   3.1854   3.2942   3.2942   3.3248   3.3248
     3.4393   3.4393   3.4858   3.4858   3.6650   3.6650   3.7335   3.7335
     3.8333   3.8334   3.9242   3.9242   4.2824   4.2824   4.3283   4.3283
     4.3979   4.3979   4.4511   4.4512   4.5284   4.5284   4.6293   4.6293
     4.7142   4.7143   4.8738   4.8739   5.1169   5.1169   5.1410   5.1410
     7.0273   7.0273   7.1133   7.1133   7.2136   7.2136   7.2307   7.2307
     7.3186   7.3186   7.3525   7.3525   7.4157   7.4158   7.4541   7.4541
     7.5224   7.5224   7.5936   7.5936   7.6440   7.6440   7.6795   7.6795
    11.5048  11.5048  11.5458  11.5458  11.8240  11.8240  11.9050  11.9050
    12.2390  12.2390  12.2885  12.2885  12.3774  12.3774  12.4201  12.4201
    12.5696  12.5696  12.6724  12.6724  13.0303  13.0303  13.1069  13.1069
    16.4848  16.4849  16.5486  16.5486  17.0958  17.0958  17.1453  17.1454
    17.3399  17.3400  17.4015  17.4019  17.4633

          k =-0.5000 0.0000-0.5000 ( 62212 PWs)   bands (ev):

   -66.0849 -66.0848 -66.0848 -66.0848 -66.0844 -66.0844 -66.0844 -66.0844
   -30.4903 -30.4903 -30.4901 -30.4901 -30.4353 -30.4353 -30.4349 -30.4349
   -30.3941 -30.3941 -30.3940 -30.3940 -30.3883 -30.3883 -30.3873 -30.3873
   -30.3677 -30.3677 -30.3667 -30.3667 -30.3663 -30.3663 -30.3658 -30.3658
   -20.2420 -20.2420 -20.2420 -20.2420 -20.2419 -20.2419 -20.2419 -20.2419
   -20.2282 -20.2282 -20.2282 -20.2282 -20.2236 -20.2236 -20.2235 -20.2235
   -20.2221 -20.2221 -20.2221 -20.2221 -20.2217 -20.2217 -20.2217 -20.2217
   -20.2182 -20.2182 -20.2182 -20.2182 -20.2175 -20.2175 -20.2175 -20.2175
   -20.2092 -20.2092 -20.2092 -20.2092 -20.2088 -20.2088 -20.2087 -20.2087
   -20.2026 -20.2026 -20.2026 -20.2026 -20.2025 -20.2025 -20.2025 -20.2025
   -20.2003 -20.2003 -20.2002 -20.2002 -20.2001 -20.2001 -20.2000 -20.2000
    -9.2781  -9.2781  -9.2749  -9.2748  -8.7315  -8.7315  -8.7115  -8.7114
    -8.5420  -8.5420  -8.5147  -8.5147  -8.3585  -8.3585  -8.3380  -8.3379
    -8.3364  -8.3364  -8.3083  -8.3083  -7.7399  -7.7399  -7.7397  -7.7397
     1.5942   1.5942   1.5960   1.5960   2.9653   2.9653   2.9760   2.9760
     3.1248   3.1248   3.1344   3.1344   3.1796   3.1796   3.2127   3.2127
     3.4003   3.4003   3.4050   3.4050   3.7787   3.7787   3.8416   3.8416
     3.8709   3.8709   3.9518   3.9519   4.2554   4.2554   4.2700   4.2701
     4.3510   4.3510   4.3812   4.3812   4.9683   4.9683   4.9814   4.9814
     5.4124   5.4124   5.4272   5.4272   6.0471   6.0471   6.0477   6.0477
     6.4386   6.4386   6.4434   6.4434   6.4730   6.4730   6.4888   6.4888
     7.4978   7.4978   7.5063   7.5063   7.5345   7.5346   7.5678   7.5678
     7.6591   7.6591   7.6737   7.6737   7.8378   7.8378   7.8789   7.8789
    11.5595  11.5595  11.5975  11.5975  11.6882  11.6882  11.7153  11.7153
    12.0327  12.0327  12.0502  12.0502  12.2427  12.2427  12.2521  12.2521
    13.1672  13.1672  13.1994  13.1994  13.3384  13.3384  13.3678  13.3678
    14.9542  14.9542  14.9574  14.9574  16.7652  16.7652  16.8109  16.8109
    17.7021  17.7021  17.7110  17.7110  17.8594

          k =-0.5000 0.1581-0.5000 ( 62116 PWs)   bands (ev):

   -66.0848 -66.0848 -66.0848 -66.0848 -66.0845 -66.0845 -66.0844 -66.0844
   -30.4864 -30.4864 -30.4863 -30.4863 -30.4387 -30.4387 -30.4383 -30.4383
   -30.3938 -30.3938 -30.3937 -30.3937 -30.3889 -30.3889 -30.3881 -30.3881
   -30.3676 -30.3676 -30.3667 -30.3667 -30.3663 -30.3663 -30.3659 -30.3659
   -20.2420 -20.2420 -20.2420 -20.2420 -20.2419 -20.2419 -20.2419 -20.2419
   -20.2279 -20.2278 -20.2278 -20.2278 -20.2238 -20.2238 -20.2238 -20.2238
   -20.2221 -20.2221 -20.2221 -20.2221 -20.2218 -20.2218 -20.2218 -20.2218
   -20.2182 -20.2182 -20.2182 -20.2182 -20.2176 -20.2176 -20.2176 -20.2175
   -20.2092 -20.2092 -20.2092 -20.2092 -20.2088 -20.2088 -20.2088 -20.2088
   -20.2026 -20.2026 -20.2026 -20.2026 -20.2025 -20.2025 -20.2025 -20.2025
   -20.2003 -20.2003 -20.2002 -20.2002 -20.2001 -20.2001 -20.2001 -20.2001
    -9.2182  -9.2182  -9.2145  -9.2144  -8.7438  -8.7438  -8.7245  -8.7245
    -8.5273  -8.5273  -8.4997  -8.4996  -8.3574  -8.3574  -8.3389  -8.3389
    -8.3362  -8.3362  -8.3084  -8.3084  -7.8347  -7.8347  -7.8343  -7.8343
     1.8230   1.8230   1.8248   1.8248   2.9817   2.9817   2.9949   2.9949
     3.1298   3.1298   3.1350   3.1350   3.2057   3.2057   3.2385   3.2386
     3.3923   3.3924   3.3977   3.3977   3.8222   3.8222   3.8816   3.8816
     3.9176   3.9176   3.9956   3.9956   4.2403   4.2403   4.2541   4.2541
     4.3521   4.3521   4.3822   4.3822   4.7523   4.7523   4.7639   4.7639
     5.1778   5.1778   5.1879   5.1879   5.7810   5.7810   5.7819   5.7819
     6.6109   6.6109   6.6312   6.6312   6.6663   6.6663   6.6789   6.6789
     7.4908   7.4908   7.4999   7.4999   7.5266   7.5266   7.5623   7.5623
     7.6467   7.6467   7.6553   7.6553   7.8118   7.8118   7.8433   7.8433
    11.6161  11.6161  11.6516  11.6516  11.7449  11.7449  11.7722  11.7722
    12.0366  12.0366  12.0531  12.0531  12.2657  12.2657  12.2735  12.2736
    13.0409  13.0409  13.0702  13.0702  13.2229  13.2229  13.2489  13.2489
    15.3325  15.3325  15.3359  15.3359  16.8295  16.8295  16.8721  16.8721
    17.6482  17.6482  17.6718  17.6718  17.8635

          k =-0.5000 0.3163-0.5000 ( 62080 PWs)   bands (ev):

   -66.0847 -66.0847 -66.0847 -66.0847 -66.0845 -66.0845 -66.0845 -66.0845
   -30.4759 -30.4759 -30.4758 -30.4758 -30.4482 -30.4482 -30.4479 -30.4479
   -30.3931 -30.3931 -30.3930 -30.3930 -30.3904 -30.3904 -30.3898 -30.3898
   -30.3673 -30.3673 -30.3668 -30.3668 -30.3665 -30.3665 -30.3664 -30.3664
   -20.2420 -20.2420 -20.2420 -20.2420 -20.2420 -20.2420 -20.2419 -20.2419
   -20.2269 -20.2269 -20.2269 -20.2269 -20.2245 -20.2245 -20.2245 -20.2245
   -20.2221 -20.2221 -20.2221 -20.2221 -20.2220 -20.2220 -20.2220 -20.2220
   -20.2181 -20.2181 -20.2181 -20.2181 -20.2177 -20.2177 -20.2177 -20.2177
   -20.2091 -20.2091 -20.2091 -20.2091 -20.2089 -20.2089 -20.2089 -20.2089
   -20.2026 -20.2026 -20.2026 -20.2026 -20.2025 -20.2025 -20.2025 -20.2025
   -20.2003 -20.2003 -20.2002 -20.2002 -20.2002 -20.2002 -20.2001 -20.2001
    -9.0635  -9.0635  -9.0573  -9.0573  -8.7884  -8.7884  -8.7721  -8.7721
    -8.4735  -8.4735  -8.4437  -8.4437  -8.3548  -8.3548  -8.3407  -8.3406
    -8.3376  -8.3376  -8.3065  -8.3064  -8.0640  -8.0640  -8.0617  -8.0617
     2.4302   2.4302   2.4318   2.4318   3.0176   3.0176   3.0367   3.0367
     3.1266   3.1266   3.1288   3.1288   3.2775   3.2775   3.3181   3.3181
     3.3609   3.3610   3.3726   3.3726   3.9493   3.9493   4.0068   4.0068
     4.0208   4.0208   4.0459   4.0459   4.1236   4.1236   4.1722   4.1722
     4.3535   4.3535   4.3928   4.3928   4.4233   4.4233   4.4299   4.4299
     4.7739   4.7739   4.7747   4.7747   5.0966   5.0966   5.1012   5.1012
     6.9348   6.9348   6.9641   6.9641   7.0423   7.0424   7.0677   7.0677
     7.4450   7.4450   7.4534   7.4535   7.4946   7.4946   7.5320   7.5320
     7.6200   7.6200   7.6216   7.6217   7.7280   7.7280   7.7459   7.7459
    11.7642  11.7642  11.7816  11.7816  11.8754  11.8754  11.8913  11.8913
    12.0837  12.0837  12.0952  12.0952  12.3574  12.3574  12.3626  12.3626
    12.7262  12.7262  12.7500  12.7500  12.9313  12.9313  12.9486  12.9486
    16.2600  16.2600  16.2632  16.2632  17.0096  17.0096  17.0397  17.0397
    17.4746  17.4746  17.5306  17.5306  17.8743

          k =-0.5000-0.4744-0.5000 ( 62048 PWs)   bands (ev):

   -66.0847 -66.0846 -66.0846 -66.0846 -66.0846 -66.0846 -66.0846 -66.0846
   -30.4623 -30.4623 -30.4616 -30.4616 -30.4616 -30.4616 -30.4614 -30.4614
   -30.3920 -30.3920 -30.3920 -30.3919 -30.3919 -30.3919 -30.3912 -30.3912
   -30.3670 -30.3670 -30.3668 -30.3668 -30.3667 -30.3667 -30.3667 -30.3667
   -20.2420 -20.2420 -20.2420 -20.2420 -20.2420 -20.2420 -20.2420 -20.2419
   -20.2257 -20.2257 -20.2257 -20.2257 -20.2257 -20.2257 -20.2256 -20.2256
   -20.2221 -20.2221 -20.2221 -20.2221 -20.2221 -20.2221 -20.2221 -20.2220
   -20.2180 -20.2180 -20.2179 -20.2179 -20.2179 -20.2179 -20.2179 -20.2179
   -20.2090 -20.2090 -20.2090 -20.2090 -20.2090 -20.2090 -20.2090 -20.2090
   -20.2026 -20.2026 -20.2026 -20.2026 -20.2025 -20.2025 -20.2025 -20.2025
   -20.2002 -20.2002 -20.2002 -20.2002 -20.2001 -20.2001 -20.2001 -20.2001
    -8.9036  -8.9035  -8.8823  -8.8823  -8.8819  -8.8819  -8.8819  -8.8818
    -8.3866  -8.3866  -8.3562  -8.3562  -8.3562  -8.3561  -8.3532  -8.3532
    -8.2936  -8.2936  -8.2935  -8.2935  -8.2771  -8.2771  -8.2590  -8.2590
     3.0057   3.0057   3.0094   3.0094   3.0094   3.0094   3.0262   3.0262
     3.2220   3.2220   3.2273   3.2273   3.2274   3.2274   3.2516   3.2516
     3.3938   3.3938   3.5074   3.5074   3.5074   3.5074   3.5655   3.5655
     4.1824   4.1824   4.2035   4.2035   4.2083   4.2083   4.2083   4.2083
     4.4157   4.4157   4.4157   4.4157   4.4340   4.4340   4.4515   4.4515
     4.5232   4.5232   4.5435   4.5436   4.5520   4.5520   4.5520   4.5520
     7.1388   7.1388   7.2288   7.2288   7.2289   7.2289   7.3429   7.3429
     7.3913   7.3914   7.3934   7.3934   7.3934   7.3934   7.3965   7.3965
     7.6158   7.6158   7.6375   7.6375   7.6375   7.6375   7.6745   7.6745
    11.8878  11.8878  11.8883  11.8883  11.8883  11.8884  11.8982  11.8982
    12.2579  12.2579  12.3281  12.3281  12.3281  12.3281  12.4425  12.4425
    12.5606  12.5607  12.6163  12.6163  12.6163  12.6163  12.6413  12.6413
    17.1550  17.1550  17.1878  17.1878  17.1878  17.1878  17.2161  17.2162
    17.4015  17.4015  17.4015  17.4015  17.4544

     the Fermi energy is     9.7400 ev

!    total energy              =   -6261.00600570 Ry
     Harris-Foulkes estimate   =   -6261.00600570 Ry
     estimated scf accuracy    <          9.9E-10 Ry

     The total energy is the sum of the following terms:

     one-electron contribution =   -4708.23091687 Ry
     hartree contribution      =    2591.91627925 Ry
     xc contribution           =    -965.83197136 Ry
     ewald contribution        =   -3178.85937560 Ry
     smearing contrib. (-TS)   =      -0.00002112 Ry

     convergence has been achieved in  13 iterations

     Writing output data file Landau_12.save
 
     init_run     :     20.16s CPU     21.16s WALL (       1 calls)
     electrons    :    994.14s CPU   1009.18s WALL (       1 calls)

     Called by init_run:
     wfcinit      :     18.32s CPU     19.17s WALL (       1 calls)
     potinit      :      0.68s CPU      0.72s WALL (       1 calls)

     Called by electrons:
     c_bands      :    867.64s CPU    881.48s WALL (      13 calls)
     sum_band     :    117.40s CPU    117.89s WALL (      13 calls)
     v_of_rho     :      1.86s CPU      1.89s WALL (      14 calls)
     mix_rho      :      3.41s CPU      3.93s WALL (      13 calls)

     Called by c_bands:
     init_us_2    :      7.26s CPU      7.77s WALL (      27 calls)
     cegterg      :    602.50s CPU    616.14s WALL (      13 calls)

     Called by sum_band:

     Called by *egterg:
     h_psi        :    474.80s CPU    476.77s WALL (      64 calls)
     g_psi        :      1.94s CPU      1.94s WALL (      50 calls)
     cdiaghg      :      7.75s CPU      7.77s WALL (      63 calls)

     Called by h_psi:
     h_psi:pot    :    470.66s CPU    472.54s WALL (      64 calls)
     h_psi:calbec :     53.71s CPU     55.01s WALL (      64 calls)
     vloc_psi     :    359.32s CPU    359.69s WALL (      64 calls)
     add_vuspsi   :     57.62s CPU     57.84s WALL (      64 calls)

     General routines
     calbec       :     53.71s CPU     55.01s WALL (      64 calls)
     fft          :      1.14s CPU      1.15s WALL (      56 calls)
     fftw         :    361.26s CPU    361.44s WALL (   16975 calls)
 
     Parallel routines
 
     PWSCF        : 16m59.17s CPU    17m32.71s WALL

 
   This run was terminated on:  19: 1:41  10Sep2019            

=------------------------------------------------------------------------------=
   JOB DONE.
=------------------------------------------------------------------------------=
