
     Program PWSCF v.6.2 (svn rev. 14038) starts on 25Mar2020 at 19:14:34 

     This program is part of the open-source Quantum ESPRESSO suite
     for quantum simulation of materials; please cite
         "P. Giannozzi et al., J. Phys.:Condens. Matter 21 395502 (2009);
         "P. Giannozzi et al., J. Phys.:Condens. Matter 29 465901 (2017);
          URL http://www.quantum-espresso.org", 
     in publications or presentations arising from this work. More details at
     http://www.quantum-espresso.org/quote

     Parallel version (MPI), running on    40 processors

     MPI processes distributed on     9 nodes
     K-points division:     npool     =      40
     Reading input from scf.in

     Current dimensions of program PWSCF are:
     Max number of different atomic species (ntypx) = 10
     Max number of k-points (npk) =  40000
     Max angular momentum in pseudopotentials (lmaxx) =  3

     Subspace diagonalization in iterative solution of the eigenvalue problem:
     a serial algorithm will be used

     Found symmetry operation: I + ( -0.5000  0.0000 -0.5000)
     This is a supercell, fractional translations are disabled
 
     G-vector sticks info
     --------------------
     sticks:   dense  smooth     PW     G-vecs:    dense   smooth      PW
     Sum        7747    7747   2077               498127   498127   69057
 


     bravais-lattice index     =            0
     lattice parameter (alat)  =      13.8397  a.u.
     unit-cell volume          =    2804.9817 (a.u.)^3
     number of atoms/cell      =           32
     number of atomic types    =            2
     number of electrons       =       368.60
     number of Kohn-Sham states=          221
     kinetic-energy cutoff     =     120.0000  Ry
     charge density cutoff     =     480.0000  Ry
     convergence threshold     =      1.0E-08
     mixing beta               =       0.7000
     number of iterations used =            8  plain     mixing
     Exchange-correlation      = SLA PW NOGX NOGC ( 1  4  0  0 0 0)

     celldm(1)=  13.839685  celldm(2)=   0.000000  celldm(3)=   0.000000
     celldm(4)=   0.000000  celldm(5)=   0.000000  celldm(6)=   0.000000

     crystal axes: (cart. coord. in units of alat)
               a(1) = (   1.000000   0.000000   0.000000 )  
               a(2) = (   0.000000   1.058160   0.000000 )  
               a(3) = (   0.000000   0.000000   1.000000 )  

     reciprocal axes: (cart. coord. in units 2 pi/alat)
               b(1) = (  1.000000  0.000000  0.000000 )  
               b(2) = (  0.000000  0.945037  0.000000 )  
               b(3) = (  0.000000  0.000000  1.000000 )  


     PseudoPot. # 1 for W  read from file:
     /cluster/scratch/mnoe/QE/pps/W_ONCV_LDA-4.0.upf
     MD5 check sum: ba0307d5d4cd419d6f1d13dc49d7c13a
     Pseudo is Norm-conserving + core correction, Zval = 28.0
     Generated using ONCVPSP code by D. R. Hamann
     Using radial grid of 1380 points,  8 beta functions with: 
                l(1) =   0
                l(2) =   0
                l(3) =   1
                l(4) =   1
                l(5) =   2
                l(6) =   2
                l(7) =   3
                l(8) =   3

     PseudoPot. # 2 for O  read from file:
     /cluster/scratch/mnoe/QE/pps/O_ONCV_LDA-3.0.upf
     MD5 check sum: a1bd6164e7280c17a38c229939bfbd54
     Pseudo is Norm-conserving + core correction, Zval =  6.0
     Generated using ONCVPSP code by D. R. Hamann
     Using radial grid of  926 points,  5 beta functions with: 
                l(1) =   0
                l(2) =   0
                l(3) =   1
                l(4) =   1
                l(5) =   2

     atomic species   valence    mass     pseudopotential
        W             28.00   183.84000     W ( 1.00)
        O              6.00    15.99940     O ( 1.00)

      2 Sym. Ops., with inversion, found



   Cartesian axes

     site n.     atom                  positions (alat units)
         1           W   tau(   1) = (   0.2500000   0.2982530   0.0000000  )
         2           W   tau(   2) = (   0.7500000   0.7599071   0.0000000  )
         3           W   tau(   3) = (   0.2500000   0.2308271   0.5000000  )
         4           W   tau(   4) = (   0.7500000   0.8273330   0.5000000  )
         5           W   tau(   5) = (   0.7500000   0.2982530   0.5000000  )
         6           W   tau(   6) = (   0.2500000   0.7599071   0.5000000  )
         7           W   tau(   7) = (   0.7500000   0.2308271   0.0000000  )
         8           W   tau(   8) = (   0.2500000   0.8273330   0.0000000  )
         9           O   tau(   9) = (   0.2500000   0.0088039   0.0000000  )
        10           O   tau(  10) = (   0.7500000   1.0493562   0.0000000  )
        11           O   tau(  11) = (   0.2500000   0.5202761   0.5000000  )
        12           O   tau(  12) = (   0.7500000   0.5378839   0.5000000  )
        13           O   tau(  13) = (   0.7500000   0.0088039   0.5000000  )
        14           O   tau(  14) = (   0.2500000   1.0493562   0.5000000  )
        15           O   tau(  15) = (   0.7500000   0.5202761   0.0000000  )
        16           O   tau(  16) = (   0.2500000   0.5378839   0.0000000  )
        17           O   tau(  17) = (   0.5000000   0.2645400   0.4495400  )
        18           O   tau(  18) = (   0.5000000   0.7936200   0.5504600  )
        19           O   tau(  19) = (   0.0000000   0.2645400   0.9495400  )
        20           O   tau(  20) = (   0.0000000   0.7936200   0.0504600  )
        21           O   tau(  21) = (   0.5000000   0.2645400   0.0504600  )
        22           O   tau(  22) = (   0.5000000   0.7936200   0.9495400  )
        23           O   tau(  23) = (   0.0000000   0.2645400   0.5504600  )
        24           O   tau(  24) = (   0.0000000   0.7936200   0.4495400  )
        25           O   tau(  25) = (   0.6995400   0.2645400   0.7500000  )
        26           O   tau(  26) = (   0.3004600   0.7936200   0.2500000  )
        27           O   tau(  27) = (   0.8004600   0.2645400   0.2500000  )
        28           O   tau(  28) = (   0.1995400   0.7936200   0.7500000  )
        29           O   tau(  29) = (   0.3004600   0.2645400   0.7500000  )
        30           O   tau(  30) = (   0.6995400   0.7936200   0.2500000  )
        31           O   tau(  31) = (   0.1995400   0.2645400   0.2500000  )
        32           O   tau(  32) = (   0.8004600   0.7936200   0.7500000  )

     number of k points=   112  gaussian smearing, width (Ry)=  0.0007

     Number of k-points >= 100: set verbosity='high' to print them.

     Dense  grid:   498127 G-vectors     FFT dimensions: ( 100, 108, 100)

     Estimated max dynamical RAM per process >       3.33 GB

     Estimated total dynamical RAM >     133.28 GB

     Initial potential from superposition of free atoms

     starting charge  367.99656, renormalised to  368.60000
     Starting wfc are  232 randomized atomic wfcs

     total cpu time spent up to now is       62.1 secs

     Self-consistent Calculation

     iteration #  1     ecut=   120.00 Ry     beta= 0.70
     Davidson diagonalization with overlap
     ethr =  1.00E-02,  avg # of iterations =  5.2

     total cpu time spent up to now is      279.6 secs

     total energy              =   -6253.44197894 Ry
     Harris-Foulkes estimate   =   -6264.26722934 Ry
     estimated scf accuracy    <      13.63656753 Ry

     iteration #  2     ecut=   120.00 Ry     beta= 0.70
     Davidson diagonalization with overlap
     ethr =  3.70E-03,  avg # of iterations =  3.5

     total cpu time spent up to now is      494.3 secs

     total energy              =   -6250.40157245 Ry
     Harris-Foulkes estimate   =   -6270.30022486 Ry
     estimated scf accuracy    <      52.94957481 Ry

     iteration #  3     ecut=   120.00 Ry     beta= 0.70
     Davidson diagonalization with overlap
     ethr =  3.70E-03,  avg # of iterations =  3.2

     total cpu time spent up to now is      694.2 secs

     total energy              =   -6260.67341955 Ry
     Harris-Foulkes estimate   =   -6260.94454715 Ry
     estimated scf accuracy    <       0.90831243 Ry

     iteration #  4     ecut=   120.00 Ry     beta= 0.70
     Davidson diagonalization with overlap
     ethr =  2.46E-04,  avg # of iterations =  3.2

     total cpu time spent up to now is      852.6 secs

     total energy              =   -6260.66816812 Ry
     Harris-Foulkes estimate   =   -6260.74093995 Ry
     estimated scf accuracy    <       0.22791384 Ry

     iteration #  5     ecut=   120.00 Ry     beta= 0.70
     Davidson diagonalization with overlap
     ethr =  6.18E-05,  avg # of iterations =  4.9

     total cpu time spent up to now is     1027.0 secs

     total energy              =   -6260.67046611 Ry
     Harris-Foulkes estimate   =   -6260.70080010 Ry
     estimated scf accuracy    <       0.06753577 Ry

     iteration #  6     ecut=   120.00 Ry     beta= 0.70
     Davidson diagonalization with overlap
     ethr =  1.83E-05,  avg # of iterations =  5.1

     total cpu time spent up to now is     1217.7 secs

     total energy              =   -6260.68502049 Ry
     Harris-Foulkes estimate   =   -6260.68766626 Ry
     estimated scf accuracy    <       0.00679670 Ry

     iteration #  7     ecut=   120.00 Ry     beta= 0.70
     Davidson diagonalization with overlap
     ethr =  1.84E-06,  avg # of iterations =  4.4

     total cpu time spent up to now is     1391.7 secs

     total energy              =   -6260.68598316 Ry
     Harris-Foulkes estimate   =   -6260.68604633 Ry
     estimated scf accuracy    <       0.00011045 Ry

     iteration #  8     ecut=   120.00 Ry     beta= 0.70
     Davidson diagonalization with overlap
     ethr =  3.00E-08,  avg # of iterations =  3.3

     total cpu time spent up to now is     1609.8 secs

     total energy              =   -6260.68603740 Ry
     Harris-Foulkes estimate   =   -6260.68605237 Ry
     estimated scf accuracy    <       0.00006464 Ry

     iteration #  9     ecut=   120.00 Ry     beta= 0.70
     Davidson diagonalization with overlap
     ethr =  1.75E-08,  avg # of iterations =  2.0

     total cpu time spent up to now is     1764.5 secs

     total energy              =   -6260.68603884 Ry
     Harris-Foulkes estimate   =   -6260.68604590 Ry
     estimated scf accuracy    <       0.00003528 Ry

     iteration # 10     ecut=   120.00 Ry     beta= 0.70
     Davidson diagonalization with overlap
     ethr =  9.57E-09,  avg # of iterations =  1.3

     total cpu time spent up to now is     1919.8 secs

     total energy              =   -6260.68603551 Ry
     Harris-Foulkes estimate   =   -6260.68604097 Ry
     estimated scf accuracy    <       0.00001269 Ry

     iteration # 11     ecut=   120.00 Ry     beta= 0.70
     Davidson diagonalization with overlap
     ethr =  3.44E-09,  avg # of iterations =  3.0

     total cpu time spent up to now is     2082.4 secs

     total energy              =   -6260.68603814 Ry
     Harris-Foulkes estimate   =   -6260.68603836 Ry
     estimated scf accuracy    <       0.00000074 Ry

     iteration # 12     ecut=   120.00 Ry     beta= 0.70
     Davidson diagonalization with overlap
     ethr =  2.00E-10,  avg # of iterations =  2.3

     total cpu time spent up to now is     2264.7 secs

     total energy              =   -6260.68603824 Ry
     Harris-Foulkes estimate   =   -6260.68603830 Ry
     estimated scf accuracy    <       0.00000018 Ry

     iteration # 13     ecut=   120.00 Ry     beta= 0.70
     Davidson diagonalization with overlap
     ethr =  4.85E-11,  avg # of iterations =  1.2

     total cpu time spent up to now is     2413.6 secs

     total energy              =   -6260.68603822 Ry
     Harris-Foulkes estimate   =   -6260.68603825 Ry
     estimated scf accuracy    <       0.00000005 Ry

     iteration # 14     ecut=   120.00 Ry     beta= 0.70
     Davidson diagonalization with overlap
     ethr =  1.42E-11,  avg # of iterations =  2.9

     total cpu time spent up to now is     2617.8 secs

     total energy              =   -6260.68603823 Ry
     Harris-Foulkes estimate   =   -6260.68603824 Ry
     estimated scf accuracy    <       0.00000002 Ry

     iteration # 15     ecut=   120.00 Ry     beta= 0.70
     Davidson diagonalization with overlap
     ethr =  4.81E-12,  avg # of iterations =  2.3

     total cpu time spent up to now is     2781.8 secs

     End of self-consistent calculation

     Number of k-points >= 100: set verbosity='high' to print the bands.

     the Fermi energy is     9.9214 ev

!    total energy              =   -6260.68603823 Ry
     Harris-Foulkes estimate   =   -6260.68603824 Ry
     estimated scf accuracy    <          1.7E-09 Ry

     The total energy is the sum of the following terms:

     one-electron contribution =   -4723.18198369 Ry
     hartree contribution      =    2600.10901848 Ry
     xc contribution           =    -966.33193298 Ry
     ewald contribution        =   -3171.28112790 Ry
     smearing contrib. (-TS)   =      -0.00001215 Ry

     convergence has been achieved in  15 iterations

     Writing output data file Landau_0.save
 
     init_run     :     54.95s CPU     57.03s WALL (       1 calls)
     electrons    :   2667.44s CPU   2719.98s WALL (       1 calls)

     Called by init_run:
     wfcinit      :     53.11s CPU     55.04s WALL (       1 calls)
     potinit      :      0.66s CPU      0.69s WALL (       1 calls)

     Called by electrons:
     c_bands      :   2359.68s CPU   2409.59s WALL (      15 calls)
     sum_band     :    300.00s CPU    301.66s WALL (      15 calls)
     v_of_rho     :      1.97s CPU      1.99s WALL (      16 calls)
     mix_rho      :      3.01s CPU      3.59s WALL (      15 calls)

     Called by c_bands:
     init_us_2    :     18.13s CPU     19.00s WALL (      93 calls)
     cegterg      :   1978.09s CPU   2025.38s WALL (      45 calls)

     Called by sum_band:

     Called by *egterg:
     h_psi        :   1520.79s CPU   1526.78s WALL (     193 calls)
     g_psi        :      6.58s CPU      6.59s WALL (     145 calls)
     cdiaghg      :     24.06s CPU     24.12s WALL (     190 calls)

     Called by h_psi:
     h_psi:pot    :   1511.18s CPU   1516.62s WALL (     193 calls)
     h_psi:calbec :    195.58s CPU    199.31s WALL (     193 calls)
     vloc_psi     :   1109.41s CPU   1110.60s WALL (     193 calls)
     add_vuspsi   :    206.18s CPU    206.71s WALL (     193 calls)

     General routines
     calbec       :    195.58s CPU    199.31s WALL (     193 calls)
     fft          :      1.23s CPU      1.26s WALL (      64 calls)
     fftw         :   1148.03s CPU   1148.59s WALL (   57833 calls)
 
     Parallel routines
 
     PWSCF        : 46m 6.01s CPU    47m 8.15s WALL

 
   This run was terminated on:  20: 1:42  25Mar2020            

=------------------------------------------------------------------------------=
   JOB DONE.
=------------------------------------------------------------------------------=
