
     Program PWSCF v.6.2 (svn rev. 14038) starts on 26Mar2020 at  1:41:51 

     This program is part of the open-source Quantum ESPRESSO suite
     for quantum simulation of materials; please cite
         "P. Giannozzi et al., J. Phys.:Condens. Matter 21 395502 (2009);
         "P. Giannozzi et al., J. Phys.:Condens. Matter 29 465901 (2017);
          URL http://www.quantum-espresso.org", 
     in publications or presentations arising from this work. More details at
     http://www.quantum-espresso.org/quote

     Parallel version (MPI), running on    40 processors

     MPI processes distributed on     9 nodes
     K-points division:     npool     =      40
     Reading input from rscf.in

     Current dimensions of program PWSCF are:
     Max number of different atomic species (ntypx) = 10
     Max number of k-points (npk) =  40000
     Max angular momentum in pseudopotentials (lmaxx) =  3

     Subspace diagonalization in iterative solution of the eigenvalue problem:
     a serial algorithm will be used

 
     G-vector sticks info
     --------------------
     sticks:   dense  smooth     PW     G-vecs:    dense   smooth      PW
     Sum        7747    7747   2077               498127   498127   69057
 


     bravais-lattice index     =            0
     lattice parameter (alat)  =      13.8397  a.u.
     unit-cell volume          =    2804.9816 (a.u.)^3
     number of atoms/cell      =           32
     number of atomic types    =            2
     number of electrons       =       368.00
     number of Kohn-Sham states=          221
     kinetic-energy cutoff     =     120.0000  Ry
     charge density cutoff     =     480.0000  Ry
     convergence threshold     =      1.0E-08
     mixing beta               =       0.7000
     number of iterations used =            8  plain     mixing
     Exchange-correlation      = SLA PW NOGX NOGC ( 1  4  0  0 0 0)
     nstep                     =           50


     celldm(1)=  13.839685  celldm(2)=   0.000000  celldm(3)=   0.000000
     celldm(4)=   0.000000  celldm(5)=   0.000000  celldm(6)=   0.000000

     crystal axes: (cart. coord. in units of alat)
               a(1) = (   1.000000   0.000000   0.000000 )  
               a(2) = (   0.000000   1.058160   0.000000 )  
               a(3) = (   0.000000   0.000000   1.000000 )  

     reciprocal axes: (cart. coord. in units 2 pi/alat)
               b(1) = (  1.000000  0.000000  0.000000 )  
               b(2) = (  0.000000  0.945037  0.000000 )  
               b(3) = (  0.000000  0.000000  1.000000 )  


     PseudoPot. # 1 for W  read from file:
     /cluster/scratch/mnoe/QE/pps/W_ONCV_LDA-4.0.upf
     MD5 check sum: ba0307d5d4cd419d6f1d13dc49d7c13a
     Pseudo is Norm-conserving + core correction, Zval = 28.0
     Generated using ONCVPSP code by D. R. Hamann
     Using radial grid of 1380 points,  8 beta functions with: 
                l(1) =   0
                l(2) =   0
                l(3) =   1
                l(4) =   1
                l(5) =   2
                l(6) =   2
                l(7) =   3
                l(8) =   3

     PseudoPot. # 2 for O  read from file:
     /cluster/scratch/mnoe/QE/pps/O_ONCV_LDA-3.0.upf
     MD5 check sum: a1bd6164e7280c17a38c229939bfbd54
     Pseudo is Norm-conserving + core correction, Zval =  6.0
     Generated using ONCVPSP code by D. R. Hamann
     Using radial grid of  926 points,  5 beta functions with: 
                l(1) =   0
                l(2) =   0
                l(3) =   1
                l(4) =   1
                l(5) =   2

     atomic species   valence    mass     pseudopotential
        W             28.00   183.84000     W ( 1.00)
        O              6.00    15.99940     O ( 1.00)

      8 Sym. Ops. (no inversion) found ( 7 have fractional translation)



   Cartesian axes

     site n.     atom                  positions (alat units)
         1           W   tau(   1) = (   0.2176622   0.2942310  -0.0009260  )
         2           W   tau(   2) = (   0.7509260   0.7639291  -0.0323377  )
         3           W   tau(   3) = (   0.2823378   0.2348491   0.4990740  )
         4           W   tau(   4) = (   0.7490740   0.8233110   0.4676622  )
         5           W   tau(   5) = (   0.7823377   0.2942310   0.5009260  )
         6           W   tau(   6) = (   0.2490740   0.7639291   0.5323378  )
         7           W   tau(   7) = (   0.7176623   0.2348491   0.0009260  )
         8           W   tau(   8) = (   0.2509260   0.8233110   0.0323377  )
         9           O   tau(   9) = (   0.2144347   0.0077082  -0.0258018  )
        10           O   tau(  10) = (   0.7758018  -0.0077082  -0.0355652  )
        11           O   tau(  11) = (   0.2855652   0.5213719   0.4741981  )
        12           O   tau(  12) = (   0.7241981   0.5367882   0.4644348  )
        13           O   tau(  13) = (   0.7855652   0.0077082   0.5258019  )
        14           O   tau(  14) = (   0.2241981  -0.0077082   0.5355652  )
        15           O   tau(  15) = (   0.7144348   0.5213719   0.0258018  )
        16           O   tau(  16) = (   0.2758019   0.5367882   0.0355652  )
        17           O   tau(  17) = (   0.5114445   0.2239668   0.4588342  )
        18           O   tau(  18) = (   0.5023464   0.8196574   0.5411659  )
        19           O   tau(  19) = (  -0.0114445   0.3051132   0.9588342  )
        20           O   tau(  20) = (  -0.0023464   0.7675829   0.0411658  )
        21           O   tau(  21) = (   0.4885555   0.2239668   0.0411658  )
        22           O   tau(  22) = (   0.4976536   0.8196574   0.9588342  )
        23           O   tau(  23) = (   0.0114445   0.3051132   0.5411659  )
        24           O   tau(  24) = (   0.0023464   0.7675829   0.4588342  )
        25           O   tau(  25) = (   0.7088342   0.2905773   0.7476536  )
        26           O   tau(  26) = (   0.2911658   0.8341934   0.2614445  )
        27           O   tau(  27) = (   0.7911659   0.2385027   0.2476536  )
        28           O   tau(  28) = (   0.2088342   0.7530469   0.7614445  )
        29           O   tau(  29) = (   0.2911658   0.2905773   0.7523464  )
        30           O   tau(  30) = (   0.7088342   0.8341934   0.2385555  )
        31           O   tau(  31) = (   0.2088342   0.2385027   0.2523464  )
        32           O   tau(  32) = (   0.7911659   0.7530469   0.7385555  )

     number of k points=    40  gaussian smearing, width (Ry)=  0.0007
                       cart. coord. in units 2pi/alat
        k(    1) = (   0.0000000   0.0000000   0.0000000), wk =   0.0092593
        k(    2) = (   0.0000000   0.0000000   0.1666667), wk =   0.0370370
        k(    3) = (   0.0000000   0.0000000   0.3333333), wk =   0.0370370
        k(    4) = (   0.0000000   0.0000000  -0.5000000), wk =   0.0185185
        k(    5) = (   0.0000000   0.1575061   0.0000000), wk =   0.0185185
        k(    6) = (   0.0000000   0.1575061   0.1666667), wk =   0.0740741
        k(    7) = (   0.0000000   0.1575061   0.3333333), wk =   0.0740741
        k(    8) = (   0.0000000   0.1575061  -0.5000000), wk =   0.0370370
        k(    9) = (   0.0000000   0.3150122   0.0000000), wk =   0.0185185
        k(   10) = (   0.0000000   0.3150122   0.1666667), wk =   0.0740741
        k(   11) = (   0.0000000   0.3150122   0.3333333), wk =   0.0740741
        k(   12) = (   0.0000000   0.3150122  -0.5000000), wk =   0.0370370
        k(   13) = (   0.0000000  -0.4725183   0.0000000), wk =   0.0092593
        k(   14) = (   0.0000000  -0.4725183   0.1666667), wk =   0.0370370
        k(   15) = (   0.0000000  -0.4725183   0.3333333), wk =   0.0370370
        k(   16) = (   0.0000000  -0.4725183  -0.5000000), wk =   0.0185185
        k(   17) = (   0.1666667   0.0000000   0.1666667), wk =   0.0370370
        k(   18) = (   0.1666667   0.0000000   0.3333333), wk =   0.0740741
        k(   19) = (   0.1666667   0.0000000  -0.5000000), wk =   0.0370370
        k(   20) = (   0.1666667   0.1575061   0.1666667), wk =   0.0740741
        k(   21) = (   0.1666667   0.1575061   0.3333333), wk =   0.1481481
        k(   22) = (   0.1666667   0.1575061  -0.5000000), wk =   0.0740741
        k(   23) = (   0.1666667   0.3150122   0.1666667), wk =   0.0740741
        k(   24) = (   0.1666667   0.3150122   0.3333333), wk =   0.1481481
        k(   25) = (   0.1666667   0.3150122  -0.5000000), wk =   0.0740741
        k(   26) = (   0.1666667  -0.4725183   0.1666667), wk =   0.0370370
        k(   27) = (   0.1666667  -0.4725183   0.3333333), wk =   0.0740741
        k(   28) = (   0.1666667  -0.4725183  -0.5000000), wk =   0.0370370
        k(   29) = (   0.3333333   0.0000000   0.3333333), wk =   0.0370370
        k(   30) = (   0.3333333   0.0000000  -0.5000000), wk =   0.0370370
        k(   31) = (   0.3333333   0.1575061   0.3333333), wk =   0.0740741
        k(   32) = (   0.3333333   0.1575061  -0.5000000), wk =   0.0740741
        k(   33) = (   0.3333333   0.3150122   0.3333333), wk =   0.0740741
        k(   34) = (   0.3333333   0.3150122  -0.5000000), wk =   0.0740741
        k(   35) = (   0.3333333  -0.4725183   0.3333333), wk =   0.0370370
        k(   36) = (   0.3333333  -0.4725183  -0.5000000), wk =   0.0370370
        k(   37) = (  -0.5000000   0.0000000  -0.5000000), wk =   0.0092593
        k(   38) = (  -0.5000000   0.1575061  -0.5000000), wk =   0.0185185
        k(   39) = (  -0.5000000   0.3150122  -0.5000000), wk =   0.0185185
        k(   40) = (  -0.5000000  -0.4725183  -0.5000000), wk =   0.0092593

     Dense  grid:   498127 G-vectors     FFT dimensions: ( 100, 108, 100)

     Estimated max dynamical RAM per process >       2.74 GB

     Estimated total dynamical RAM >     109.40 GB

     Initial potential from superposition of free atoms

     starting charge  367.99656, renormalised to  368.00000
     Starting wfc are  232 randomized atomic wfcs

     total cpu time spent up to now is       31.2 secs

     Self-consistent Calculation

     iteration #  1     ecut=   120.00 Ry     beta= 0.70
     Davidson diagonalization with overlap
     ethr =  1.00E-02,  avg # of iterations =  4.6

     total cpu time spent up to now is       83.8 secs

     total energy              =   -6253.78991460 Ry
     Harris-Foulkes estimate   =   -6264.43834308 Ry
     estimated scf accuracy    <      13.47401074 Ry

     iteration #  2     ecut=   120.00 Ry     beta= 0.70
     Davidson diagonalization with overlap
     ethr =  3.66E-03,  avg # of iterations =  3.4

     total cpu time spent up to now is      133.0 secs

     total energy              =   -6249.80546264 Ry
     Harris-Foulkes estimate   =   -6271.10577337 Ry
     estimated scf accuracy    <      58.73765255 Ry

     iteration #  3     ecut=   120.00 Ry     beta= 0.70
     Davidson diagonalization with overlap
     ethr =  3.66E-03,  avg # of iterations =  3.2

     total cpu time spent up to now is      180.6 secs

     total energy              =   -6260.91056495 Ry
     Harris-Foulkes estimate   =   -6261.41119277 Ry
     estimated scf accuracy    <       1.59318721 Ry

     iteration #  4     ecut=   120.00 Ry     beta= 0.70
     Davidson diagonalization with overlap
     ethr =  4.33E-04,  avg # of iterations =  2.4

     total cpu time spent up to now is      220.7 secs

     total energy              =   -6260.98083773 Ry
     Harris-Foulkes estimate   =   -6261.08757862 Ry
     estimated scf accuracy    <       0.38546431 Ry

     iteration #  5     ecut=   120.00 Ry     beta= 0.70
     Davidson diagonalization with overlap
     ethr =  1.05E-04,  avg # of iterations =  4.6

     total cpu time spent up to now is      260.3 secs

     total energy              =   -6260.95368744 Ry
     Harris-Foulkes estimate   =   -6261.01007647 Ry
     estimated scf accuracy    <       0.12243227 Ry

     iteration #  6     ecut=   120.00 Ry     beta= 0.70
     Davidson diagonalization with overlap
     ethr =  3.33E-05,  avg # of iterations =  5.4

     total cpu time spent up to now is      304.8 secs

     total energy              =   -6260.98209344 Ry
     Harris-Foulkes estimate   =   -6260.98437798 Ry
     estimated scf accuracy    <       0.00714674 Ry

     iteration #  7     ecut=   120.00 Ry     beta= 0.70
     Davidson diagonalization with overlap
     ethr =  1.94E-06,  avg # of iterations =  3.8

     total cpu time spent up to now is      346.9 secs

     total energy              =   -6260.98272260 Ry
     Harris-Foulkes estimate   =   -6260.98292146 Ry
     estimated scf accuracy    <       0.00057048 Ry

     iteration #  8     ecut=   120.00 Ry     beta= 0.70
     Davidson diagonalization with overlap
     ethr =  1.55E-07,  avg # of iterations =  3.0

     total cpu time spent up to now is      389.7 secs

     total energy              =   -6260.98278797 Ry
     Harris-Foulkes estimate   =   -6260.98283219 Ry
     estimated scf accuracy    <       0.00010170 Ry

     iteration #  9     ecut=   120.00 Ry     beta= 0.70
     Davidson diagonalization with overlap
     ethr =  2.76E-08,  avg # of iterations =  2.7

     total cpu time spent up to now is      431.9 secs

     total energy              =   -6260.98280985 Ry
     Harris-Foulkes estimate   =   -6260.98281362 Ry
     estimated scf accuracy    <       0.00000918 Ry

     iteration # 10     ecut=   120.00 Ry     beta= 0.70
     Davidson diagonalization with overlap
     ethr =  2.50E-09,  avg # of iterations =  2.0

     total cpu time spent up to now is      474.1 secs

     total energy              =   -6260.98281109 Ry
     Harris-Foulkes estimate   =   -6260.98281174 Ry
     estimated scf accuracy    <       0.00000157 Ry

     iteration # 11     ecut=   120.00 Ry     beta= 0.70
     Davidson diagonalization with overlap
     ethr =  4.27E-10,  avg # of iterations =  2.0

     total cpu time spent up to now is      514.0 secs

     total energy              =   -6260.98281133 Ry
     Harris-Foulkes estimate   =   -6260.98281133 Ry
     estimated scf accuracy    <       0.00000003 Ry

     iteration # 12     ecut=   120.00 Ry     beta= 0.70
     Davidson diagonalization with overlap
     ethr =  7.65E-12,  avg # of iterations =  3.2

     total cpu time spent up to now is      568.0 secs

     End of self-consistent calculation

          k = 0.0000 0.0000 0.0000 ( 62239 PWs)   bands (ev):

   -66.1771 -66.1767 -66.1762 -66.1762 -66.1757 -66.1757 -66.1752 -66.1748
   -30.7461 -30.7457 -30.7419 -30.7419 -30.6467 -30.6467 -30.6429 -30.6427
   -30.4898 -30.4891 -30.4818 -30.4818 -30.4016 -30.4016 -30.3990 -30.3941
   -30.3937 -30.3870 -30.3870 -30.3798 -30.3422 -30.3386 -30.3386 -30.3350
   -20.3362 -20.3361 -20.3360 -20.3360 -20.3355 -20.3355 -20.3353 -20.3352
   -20.3253 -20.3252 -20.3250 -20.3250 -20.3210 -20.3209 -20.3209 -20.3209
   -20.3208 -20.3207 -20.3207 -20.3206 -20.3181 -20.3181 -20.3180 -20.3179
   -20.3046 -20.3046 -20.3044 -20.3044 -20.3031 -20.3031 -20.3027 -20.3025
   -20.3013 -20.3010 -20.3010 -20.3007 -20.2976 -20.2967 -20.2967 -20.2967
   -20.2963 -20.2962 -20.2956 -20.2956 -20.2926 -20.2926 -20.2919 -20.2918
   -20.2898 -20.2897 -20.2892 -20.2892 -20.2859 -20.2859 -20.2853 -20.2852
   -10.0511  -9.8792  -9.6779  -9.6778  -9.2204  -9.2204  -9.0551  -9.0526
    -8.4906  -8.4440  -8.4275  -8.4274  -8.1770  -8.1297  -8.0366  -8.0366
    -7.7655  -7.7550  -7.6586  -7.6586  -7.5203  -7.4412  -7.4412  -7.3693
     1.0445   1.0581   1.1394   1.1394   1.4305   1.4305   1.5793   1.5930
     2.1238   2.1686   2.2255   2.2255   2.2329   2.3009   2.6229   2.8513
     2.8752   2.8752   4.2007   4.2007   4.3123   4.3412   4.3412   4.3675
     4.5667   4.5667   4.8144   4.9148   5.0732   5.2455   5.2621   5.2621
     5.2948   5.4338   5.4338   5.5686   5.5686   5.6748   5.7151   5.7151
     5.7401   5.7634   5.8837   5.9499   5.9805   5.9805   5.9971   6.1261
     6.2918   6.4624   6.5570   6.6302   6.6531   6.6531   6.6996   6.6996
     6.8648   7.0200   7.0200   7.1288   7.1517   7.1517   7.3007   7.3471
     7.4015   7.4015   7.6932   7.7401   7.9695   8.0464   8.0464   8.1826
     9.8608   9.9767  10.0626  10.0626  10.1306  10.1833  12.1612  12.1612
    12.2645  12.2985  12.3127  12.3127  12.5970  12.6470  12.8724  12.8724
    13.0657  13.1406  13.1465  13.1465  13.5172  13.5172  13.7266  13.9862
    14.2960  14.4777  14.4777  14.8839  15.0068  15.3182  15.5929  15.8784
    15.8784  16.6240  16.8332  16.8332  17.5215

          k = 0.0000 0.0000 0.1667 ( 62262 PWs)   bands (ev):

   -66.1771 -66.1767 -66.1762 -66.1761 -66.1758 -66.1757 -66.1752 -66.1748
   -30.7456 -30.7422 -30.7393 -30.7353 -30.6534 -30.6496 -30.6464 -30.6431
   -30.4890 -30.4835 -30.4824 -30.4760 -30.4069 -30.4025 -30.4013 -30.3960
   -30.3938 -30.3880 -30.3866 -30.3808 -30.3420 -30.3388 -30.3384 -30.3352
   -20.3362 -20.3361 -20.3360 -20.3359 -20.3355 -20.3355 -20.3353 -20.3352
   -20.3252 -20.3250 -20.3249 -20.3247 -20.3211 -20.3210 -20.3209 -20.3209
   -20.3208 -20.3207 -20.3206 -20.3205 -20.3185 -20.3183 -20.3181 -20.3179
   -20.3046 -20.3045 -20.3044 -20.3043 -20.3032 -20.3031 -20.3028 -20.3026
   -20.3013 -20.3010 -20.3010 -20.3008 -20.2975 -20.2968 -20.2967 -20.2964
   -20.2963 -20.2960 -20.2956 -20.2952 -20.2928 -20.2925 -20.2921 -20.2919
   -20.2897 -20.2895 -20.2892 -20.2890 -20.2863 -20.2859 -20.2856 -20.2853
   -10.0016  -9.8248  -9.6910  -9.5920  -9.2408  -9.1407  -9.0337  -8.9993
    -8.5169  -8.4417  -8.4380  -8.4193  -8.2614  -8.1554  -8.1390  -8.0434
    -7.8720  -7.7742  -7.7530  -7.6652  -7.5155  -7.4466  -7.4372  -7.3742
     1.0746   1.1325   1.2515   1.3714   1.4334   1.6518   1.6709   1.8003
     2.1666   2.2111   2.2162   2.2286   2.3173   2.3184   2.6662   2.8650
     2.9078   2.9663   4.0011   4.1058   4.1651   4.2524   4.3459   4.3794
     4.4171   4.5724   4.6585   4.8074   5.0222   5.1210   5.1663   5.2216
     5.2692   5.3907   5.4264   5.4526   5.4900   5.5305   5.6040   5.6581
     5.7180   5.7746   5.8080   5.9273   5.9439   5.9794   6.0513   6.2375
     6.2867   6.4772   6.5113   6.6049   6.6410   6.7280   6.7649   6.8061
     6.8869   7.0093   7.0204   7.0244   7.0768   7.1903   7.2371   7.3195
     7.3327   7.3495   7.6877   7.7201   7.9703   8.0348   8.0647   8.1792
     9.9680  10.0616  10.1484  10.2308  10.3526  10.4615  12.1186  12.2014
    12.2293  12.3164  12.3360  12.3842  12.5844  12.6752  12.8270  12.8911
    12.9232  13.1106  13.1696  13.2407  13.4153  13.5273  13.7406  13.9194
    14.2767  14.4677  14.4799  14.9530  14.9793  15.3555  15.6599  15.8242
    16.1260  16.6673  16.7617  17.0382  17.5887

          k = 0.0000 0.0000 0.3333 ( 62268 PWs)   bands (ev):

   -66.1769 -66.1765 -66.1764 -66.1760 -66.1759 -66.1755 -66.1754 -66.1750
   -30.7450 -30.7429 -30.7213 -30.7174 -30.6717 -30.6679 -30.6457 -30.6438
   -30.4877 -30.4839 -30.4671 -30.4602 -30.4226 -30.4171 -30.4004 -30.3978
   -30.3928 -30.3898 -30.3856 -30.3825 -30.3413 -30.3394 -30.3377 -30.3359
   -20.3362 -20.3360 -20.3359 -20.3357 -20.3356 -20.3354 -20.3354 -20.3353
   -20.3252 -20.3251 -20.3239 -20.3237 -20.3216 -20.3215 -20.3210 -20.3210
   -20.3207 -20.3207 -20.3204 -20.3203 -20.3192 -20.3191 -20.3181 -20.3180
   -20.3046 -20.3044 -20.3042 -20.3040 -20.3035 -20.3031 -20.3030 -20.3027
   -20.3012 -20.3010 -20.3009 -20.3008 -20.2972 -20.2968 -20.2967 -20.2964
   -20.2963 -20.2958 -20.2952 -20.2944 -20.2933 -20.2926 -20.2924 -20.2921
   -20.2896 -20.2893 -20.2890 -20.2884 -20.2871 -20.2864 -20.2858 -20.2854
    -9.8959  -9.7309  -9.6646  -9.3498  -9.3111  -8.9642  -8.9174  -8.8325
    -8.6649  -8.5548  -8.4281  -8.4182  -8.3932  -8.3908  -8.1538  -8.1333
    -8.0617  -8.0353  -7.7341  -7.6834  -7.5017  -7.4615  -7.4247  -7.3879
     1.0975   1.1192   1.4298   1.4407   1.9706   2.0508   2.1626   2.2005
     2.2318   2.3356   2.3779   2.4584   2.5258   2.5643   2.7321   2.8447
     3.1201   3.1938   3.4509   3.6377   3.9016   3.9976   4.1730   4.2091
     4.3371   4.3719   4.4658   4.4866   4.7200   4.7792   4.9086   4.9323
     5.1188   5.1822   5.2097   5.2821   5.3014   5.4219   5.5355   5.7267
     5.7848   5.7920   5.8921   5.9174   5.9240   5.9738   6.1858   6.2424
     6.2893   6.3282   6.4689   6.6044   6.6612   6.7707   6.7709   6.7908
     6.9384   6.9672   7.0490   7.0796   7.0864   7.1433   7.3065   7.3178
     7.4086   7.4891   7.6121   7.6209   7.9304   7.9689   8.0954   8.1541
    10.0177  10.0549  10.6465  10.8092  10.8586  11.1331  11.8795  11.9412
    12.1443  12.3065  12.4003  12.4522  12.5595  12.5828  12.6280  12.7869
    12.9512  13.0772  13.1529  13.2565  13.2822  13.5652  13.6702  13.7738
    14.2959  14.4361  14.5700  14.8938  15.0831  15.6390  15.7099  15.9223
    16.3361  16.8558  17.2238  17.3333  17.6200

          k = 0.0000 0.0000-0.5000 ( 62264 PWs)   bands (ev):

   -66.1767 -66.1767 -66.1762 -66.1762 -66.1757 -66.1757 -66.1753 -66.1752
   -30.7440 -30.7440 -30.6965 -30.6965 -30.6927 -30.6927 -30.6448 -30.6448
   -30.4859 -30.4859 -30.4448 -30.4448 -30.4385 -30.4385 -30.3992 -30.3992
   -30.3914 -30.3914 -30.3841 -30.3841 -30.3403 -30.3403 -30.3367 -30.3367
   -20.3361 -20.3361 -20.3358 -20.3358 -20.3356 -20.3356 -20.3354 -20.3354
   -20.3251 -20.3251 -20.3227 -20.3227 -20.3225 -20.3225 -20.3210 -20.3210
   -20.3207 -20.3207 -20.3200 -20.3199 -20.3198 -20.3198 -20.3180 -20.3180
   -20.3045 -20.3045 -20.3039 -20.3039 -20.3036 -20.3035 -20.3028 -20.3028
   -20.3011 -20.3011 -20.3009 -20.3009 -20.2970 -20.2970 -20.2966 -20.2966
   -20.2961 -20.2961 -20.2942 -20.2942 -20.2934 -20.2934 -20.2922 -20.2922
   -20.2894 -20.2894 -20.2881 -20.2881 -20.2875 -20.2875 -20.2856 -20.2856
    -9.7992  -9.7992  -9.4577  -9.4577  -9.0023  -9.0023  -8.8037  -8.8037
    -8.6239  -8.6239  -8.5827  -8.5827  -8.3622  -8.3622  -8.3111  -8.3111
    -8.0842  -8.0842  -7.7085  -7.7085  -7.4818  -7.4818  -7.4065  -7.4065
     1.1083   1.1083   1.4466   1.4466   2.1562   2.1562   2.1818   2.1818
     2.7465   2.7465   2.7820   2.7820   2.8877   2.8877   3.0496   3.0496
     3.2190   3.2190   3.2375   3.2375   3.5312   3.5313   3.7811   3.7811
     3.8251   3.8251   4.3900   4.3900   4.8018   4.8018   4.9373   4.9373
     4.9603   4.9603   5.1799   5.1799   5.3082   5.3082   5.6708   5.6708
     5.7922   5.7922   5.9006   5.9006   5.9582   5.9582   6.2620   6.2620
     6.3016   6.3016   6.4927   6.4927   6.5845   6.5845   6.8606   6.8606
     6.9357   6.9357   7.0026   7.0027   7.2988   7.2988   7.3847   7.3847
     7.4086   7.4086   7.7456   7.7456   7.7990   7.7990   8.1205   8.1205
    10.0398  10.0398  11.2998  11.2998  11.4490  11.4490  11.5332  11.5332
    11.8855  11.8855  12.4269  12.4269  12.4990  12.4990  12.8430  12.8430
    12.9767  12.9767  13.0789  13.0789  13.4420  13.4420  13.6484  13.6484
    14.3771  14.3771  14.7464  14.7464  15.3346  15.3346  16.0402  16.0402
    16.6139  16.6139  17.7485  17.7486  17.9461

          k = 0.0000 0.1575 0.0000 ( 62231 PWs)   bands (ev):

   -66.1771 -66.1768 -66.1762 -66.1761 -66.1758 -66.1757 -66.1751 -66.1748
   -30.7460 -30.7457 -30.7419 -30.7419 -30.6467 -30.6467 -30.6429 -30.6428
   -30.4898 -30.4892 -30.4818 -30.4818 -30.4009 -30.4009 -30.3979 -30.3938
   -30.3907 -30.3843 -30.3843 -30.3776 -30.3457 -30.3421 -30.3420 -30.3384
   -20.3362 -20.3361 -20.3360 -20.3360 -20.3355 -20.3355 -20.3353 -20.3352
   -20.3253 -20.3252 -20.3250 -20.3250 -20.3210 -20.3209 -20.3209 -20.3209
   -20.3208 -20.3207 -20.3207 -20.3206 -20.3181 -20.3181 -20.3180 -20.3179
   -20.3046 -20.3046 -20.3044 -20.3044 -20.3031 -20.3031 -20.3027 -20.3025
   -20.3010 -20.3007 -20.3007 -20.3005 -20.2977 -20.2970 -20.2970 -20.2967
   -20.2966 -20.2963 -20.2956 -20.2956 -20.2926 -20.2926 -20.2919 -20.2918
   -20.2898 -20.2897 -20.2892 -20.2892 -20.2859 -20.2859 -20.2853 -20.2852
   -10.0367  -9.8883  -9.6729  -9.6729  -9.2180  -9.2180  -9.0545  -9.0519
    -8.4342  -8.3914  -8.3767  -8.3767  -8.1762  -8.1279  -8.0362  -8.0362
    -7.7650  -7.7565  -7.6591  -7.6591  -7.5957  -7.5216  -7.5216  -7.4555
     1.0449   1.0564   1.1390   1.1390   1.4298   1.4298   1.5866   1.5937
     2.1311   2.2200   2.3241   2.4085   2.4085   2.5101   2.6857   2.9450
     2.9522   2.9522   4.0912   4.0912   4.1208   4.1682   4.3296   4.3296
     4.5554   4.5554   4.6940   4.9704   5.1013   5.2614   5.2615   5.2736
     5.2764   5.3594   5.3594   5.5225   5.5226   5.6306   5.6306   5.6941
     5.7513   5.7543   5.8017   5.9453   5.9869   5.9869   6.0090   6.1292
     6.2040   6.4298   6.5188   6.6835   6.6835   6.7057   6.7576   6.7576
     6.9249   6.9249   6.9314   6.9691   7.1688   7.1688   7.2822   7.2927
     7.3503   7.3503   7.6935   7.7326   7.9557   8.0382   8.0382   8.1188
     9.9242  10.0023  10.2164  10.2164  10.2700  10.3091  12.0892  12.0892
    12.1607  12.2446  12.3171  12.3171  12.5335  12.6168  12.8542  12.8542
    13.0421  13.1576  13.1576  13.2698  13.5228  13.5228  13.7739  13.9478
    14.3861  14.6229  14.6229  14.9248  15.3047  15.3683  15.6101  15.8701
    15.8701  16.4625  16.9038  16.9038  17.3933

          k = 0.0000 0.1575 0.1667 ( 62237 PWs)   bands (ev):

   -66.1771 -66.1767 -66.1762 -66.1761 -66.1758 -66.1757 -66.1752 -66.1749
   -30.7456 -30.7422 -30.7393 -30.7353 -30.6534 -30.6496 -30.6464 -30.6431
   -30.4890 -30.4835 -30.4824 -30.4760 -30.4065 -30.4018 -30.4006 -30.3957
   -30.3903 -30.3851 -30.3839 -30.3785 -30.3455 -30.3423 -30.3418 -30.3386
   -20.3362 -20.3361 -20.3360 -20.3359 -20.3355 -20.3355 -20.3353 -20.3352
   -20.3252 -20.3250 -20.3249 -20.3247 -20.3211 -20.3210 -20.3209 -20.3209
   -20.3208 -20.3207 -20.3206 -20.3205 -20.3185 -20.3183 -20.3181 -20.3179
   -20.3046 -20.3045 -20.3044 -20.3043 -20.3032 -20.3030 -20.3028 -20.3025
   -20.3010 -20.3007 -20.3007 -20.3005 -20.2976 -20.2970 -20.2970 -20.2966
   -20.2965 -20.2961 -20.2957 -20.2953 -20.2928 -20.2925 -20.2921 -20.2919
   -20.2897 -20.2895 -20.2892 -20.2890 -20.2863 -20.2859 -20.2856 -20.2853
    -9.9874  -9.8335  -9.6859  -9.5868  -9.2386  -9.1378  -9.0333  -8.9984
    -8.4615  -8.3938  -8.3883  -8.3695  -8.2570  -8.1553  -8.1355  -8.0430
    -7.8727  -7.7754  -7.7536  -7.6657  -7.5911  -7.5258  -7.5178  -7.4588
     1.0741   1.1320   1.2512   1.3715   1.4328   1.6594   1.6712   1.8066
     2.2183   2.2996   2.3345   2.3927   2.4135   2.5102   2.7335   2.9391
     3.0028   3.0412   3.9749   4.0544   4.0968   4.1416   4.1992   4.2271
     4.3870   4.5476   4.6087   4.8159   5.0185   5.1038   5.1430   5.2264
     5.2791   5.3466   5.4085   5.4217   5.4818   5.5079   5.5209   5.5894
     5.6074   5.7463   5.7875   5.8672   5.9488   5.9700   6.0207   6.1483
     6.2955   6.4512   6.5144   6.5867   6.7035   6.7427   6.8103   6.8533
     6.8996   6.9308   6.9716   7.0417   7.0847   7.0888   7.2806   7.2857
     7.2956   7.3283   7.6869   7.7151   7.9603   8.0256   8.0455   8.1189
    10.0872  10.1879  10.2227  10.3513  10.4325  10.5502  12.0587  12.1350
    12.1897  12.2330  12.3200  12.3775  12.5661  12.6107  12.8103  12.8531
    12.9203  13.1103  13.1789  13.3130  13.4055  13.5320  13.7745  13.8957
    14.3912  14.6156  14.6648  14.9783  15.3233  15.3784  15.6757  15.8264
    16.1094  16.5945  16.7367  17.0877  17.4484

          k = 0.0000 0.1575 0.3333 ( 62284 PWs)   bands (ev):

   -66.1769 -66.1765 -66.1764 -66.1760 -66.1759 -66.1755 -66.1754 -66.1750
   -30.7450 -30.7429 -30.7213 -30.7174 -30.6717 -30.6679 -30.6457 -30.6438
   -30.4877 -30.4839 -30.4671 -30.4602 -30.4224 -30.4169 -30.3997 -30.3972
   -30.3894 -30.3865 -30.3829 -30.3800 -30.3447 -30.3429 -30.3411 -30.3392
   -20.3362 -20.3360 -20.3360 -20.3357 -20.3356 -20.3354 -20.3354 -20.3353
   -20.3252 -20.3251 -20.3239 -20.3237 -20.3216 -20.3215 -20.3210 -20.3210
   -20.3207 -20.3207 -20.3204 -20.3203 -20.3192 -20.3191 -20.3181 -20.3180
   -20.3045 -20.3044 -20.3042 -20.3040 -20.3035 -20.3031 -20.3030 -20.3027
   -20.3009 -20.3008 -20.3007 -20.3005 -20.2974 -20.2971 -20.2970 -20.2967
   -20.2963 -20.2959 -20.2953 -20.2944 -20.2934 -20.2926 -20.2924 -20.2921
   -20.2896 -20.2893 -20.2890 -20.2884 -20.2871 -20.2864 -20.2858 -20.2854
    -9.8848  -9.7251  -9.6693  -9.3431  -9.3094  -8.9636  -8.9127  -8.8301
    -8.6366  -8.5395  -8.3909  -8.3813  -8.3648  -8.3441  -8.1498  -8.1303
    -8.0608  -8.0345  -7.7347  -7.6838  -7.5777  -7.5392  -7.5058  -7.4706
     1.0970   1.1188   1.4297   1.4403   1.9964   2.1321   2.2722   2.3406
     2.3670   2.4144   2.4477   2.4688   2.5579   2.5960   2.8071   2.9187
     3.2041   3.2574   3.4529   3.6343   3.8766   3.9605   4.1651   4.1868
     4.2518   4.2952   4.3901   4.4372   4.6532   4.7354   4.8376   4.8440
     5.0696   5.1893   5.2134   5.2615   5.3001   5.3483   5.5121   5.5528
     5.7463   5.7801   5.8214   5.8324   5.8634   5.9506   6.0594   6.1398
     6.2616   6.3682   6.5099   6.6578   6.7131   6.7505   6.8096   6.8453
     6.8816   6.9440   7.0471   7.0827   7.1177   7.1527   7.2735   7.2918
     7.4315   7.5179   7.6110   7.6208   7.9346   7.9644   8.0609   8.1005
    10.1830  10.2126  10.6871  10.8648  10.9174  11.1689  11.8748  11.9533
    12.1593  12.2321  12.3066  12.4631  12.5004  12.5344  12.6399  12.6925
    12.9153  13.0549  13.1329  13.2497  13.2652  13.5671  13.6682  13.7747
    14.4625  14.5910  14.8284  15.0698  15.2795  15.6736  15.7251  15.9457
    16.3620  16.8258  17.0511  17.4041  17.6087

          k = 0.0000 0.1575-0.5000 ( 62234 PWs)   bands (ev):

   -66.1766 -66.1766 -66.1763 -66.1763 -66.1756 -66.1756 -66.1753 -66.1753
   -30.7440 -30.7440 -30.6965 -30.6965 -30.6927 -30.6927 -30.6448 -30.6448
   -30.4859 -30.4859 -30.4447 -30.4447 -30.4385 -30.4385 -30.3985 -30.3985
   -30.3880 -30.3880 -30.3816 -30.3816 -30.3438 -30.3438 -30.3401 -30.3401
   -20.3361 -20.3361 -20.3358 -20.3358 -20.3356 -20.3356 -20.3354 -20.3354
   -20.3251 -20.3251 -20.3227 -20.3227 -20.3225 -20.3225 -20.3210 -20.3210
   -20.3207 -20.3207 -20.3200 -20.3199 -20.3198 -20.3198 -20.3180 -20.3180
   -20.3045 -20.3045 -20.3039 -20.3039 -20.3035 -20.3035 -20.3028 -20.3028
   -20.3008 -20.3008 -20.3006 -20.3006 -20.2973 -20.2973 -20.2968 -20.2968
   -20.2961 -20.2961 -20.2943 -20.2942 -20.2934 -20.2934 -20.2923 -20.2922
   -20.2894 -20.2894 -20.2881 -20.2881 -20.2875 -20.2875 -20.2856 -20.2856
    -9.7915  -9.7915  -9.4580  -9.4580  -8.9917  -8.9916  -8.8025  -8.8025
    -8.6082  -8.6082  -8.5685  -8.5685  -8.3283  -8.3282  -8.2803  -8.2803
    -8.0835  -8.0835  -7.7090  -7.7090  -7.5584  -7.5584  -7.4882  -7.4882
     1.1079   1.1079   1.4465   1.4465   2.3053   2.3053   2.3823   2.3823
     2.7721   2.7721   2.8214   2.8214   2.8887   2.8887   3.0562   3.0562
     3.2208   3.2208   3.2550   3.2550   3.5601   3.5601   3.8023   3.8023
     3.8788   3.8788   4.2355   4.2355   4.6668   4.6668   4.8338   4.8339
     4.9470   4.9470   5.1733   5.1733   5.2939   5.2939   5.6159   5.6159
     5.6801   5.6801   5.8292   5.8292   5.9228   5.9228   6.0958   6.0958
     6.3116   6.3116   6.5593   6.5593   6.6532   6.6532   6.8262   6.8262
     7.0038   7.0038   7.0208   7.0208   7.2583   7.2583   7.3853   7.3853
     7.4089   7.4089   7.7609   7.7609   7.8120   7.8120   8.0759   8.0759
    10.2041  10.2041  11.3230  11.3230  11.4849  11.4850  11.5684  11.5684
    11.9015  11.9015  12.3146  12.3146  12.4955  12.4955  12.7764  12.7764
    12.9505  12.9505  13.0199  13.0199  13.4434  13.4434  13.6477  13.6477
    14.5442  14.5442  15.0339  15.0339  15.4080  15.4080  16.0481  16.0481
    16.6458  16.6458  17.6472  17.6473  17.8509

          k = 0.0000 0.3150 0.0000 ( 62175 PWs)   bands (ev):

   -66.1770 -66.1768 -66.1761 -66.1761 -66.1758 -66.1758 -66.1751 -66.1749
   -30.7460 -30.7458 -30.7419 -30.7419 -30.6467 -30.6467 -30.6429 -30.6428
   -30.4897 -30.4893 -30.4818 -30.4818 -30.3999 -30.3999 -30.3958 -30.3940
   -30.3812 -30.3761 -30.3760 -30.3706 -30.3553 -30.3514 -30.3513 -30.3474
   -20.3362 -20.3362 -20.3360 -20.3360 -20.3355 -20.3355 -20.3353 -20.3352
   -20.3252 -20.3252 -20.3250 -20.3250 -20.3210 -20.3209 -20.3209 -20.3208
   -20.3208 -20.3207 -20.3207 -20.3206 -20.3181 -20.3181 -20.3180 -20.3179
   -20.3046 -20.3046 -20.3044 -20.3044 -20.3031 -20.3030 -20.3026 -20.3025
   -20.3003 -20.2999 -20.2999 -20.2997 -20.2983 -20.2978 -20.2977 -20.2974
   -20.2967 -20.2966 -20.2956 -20.2956 -20.2926 -20.2926 -20.2919 -20.2918
   -20.2897 -20.2897 -20.2892 -20.2892 -20.2859 -20.2859 -20.2853 -20.2852
    -9.9997  -9.9147  -9.6635  -9.6635  -9.2134  -9.2134  -9.0531  -9.0512
    -8.2958  -8.2295  -8.2295  -8.2281  -8.1759  -8.1122  -8.0345  -8.0345
    -7.7946  -7.7633  -7.7542  -7.7293  -7.7293  -7.6783  -7.6581  -7.6581
     1.0462   1.0526   1.1382   1.1382   1.4289   1.4289   1.5946   1.5954
     2.1505   2.2025   2.7121   2.8258   2.8258   2.8551   3.0036   3.2414
     3.2414   3.3064   3.7753   3.7885   3.8211   3.8211   4.2649   4.3209
     4.3209   4.5282   4.5282   4.7905   4.7905   4.9801   5.0483   5.1660
     5.3294   5.3294   5.3341   5.3507   5.4460   5.4460   5.6229   5.6229
     5.6895   5.7585   5.8248   5.9038   6.0531   6.0531   6.0808   6.1267
     6.3187   6.3525   6.4057   6.6502   6.6502   6.7019   6.7555   6.7555
     6.8730   6.8730   6.9125   7.0345   7.2212   7.2212   7.2702   7.2812
     7.3678   7.3678   7.6856   7.7243   7.8757   7.9383   7.9452   7.9452
     9.9896  10.0116  10.6175  10.6289  10.6289  10.7772  11.8066  11.8066
    11.8076  12.0330  12.3292  12.3292  12.4328  12.6159  12.8543  12.8543
    13.0307  13.1888  13.1888  13.2833  13.4266  13.4266  13.8018  13.8710
    14.8745  15.0241  15.0241  15.1643  15.2629  15.6505  15.8362  15.8362
    16.0988  16.2576  16.8331  17.1746  17.1746

          k = 0.0000 0.3150 0.1667 ( 62260 PWs)   bands (ev):

   -66.1770 -66.1768 -66.1761 -66.1760 -66.1759 -66.1758 -66.1751 -66.1749
   -30.7456 -30.7422 -30.7393 -30.7353 -30.6534 -30.6496 -30.6464 -30.6431
   -30.4890 -30.4835 -30.4824 -30.4760 -30.4059 -30.4008 -30.3996 -30.3952
   -30.3809 -30.3765 -30.3757 -30.3711 -30.3550 -30.3516 -30.3511 -30.3476
   -20.3362 -20.3361 -20.3360 -20.3359 -20.3355 -20.3355 -20.3353 -20.3352
   -20.3252 -20.3250 -20.3249 -20.3247 -20.3211 -20.3210 -20.3209 -20.3209
   -20.3208 -20.3207 -20.3207 -20.3206 -20.3185 -20.3183 -20.3181 -20.3180
   -20.3046 -20.3045 -20.3044 -20.3043 -20.3032 -20.3030 -20.3027 -20.3026
   -20.3002 -20.3000 -20.2999 -20.2997 -20.2982 -20.2978 -20.2978 -20.2974
   -20.2966 -20.2963 -20.2957 -20.2953 -20.2928 -20.2926 -20.2921 -20.2919
   -20.2897 -20.2895 -20.2892 -20.2890 -20.2862 -20.2859 -20.2856 -20.2853
    -9.9521  -9.8577  -9.6759  -9.5766  -9.2342  -9.1322  -9.0324  -8.9968
    -8.3376  -8.2715  -8.2446  -8.2234  -8.2150  -8.1496  -8.1134  -8.0416
    -7.8771  -7.7963  -7.7766  -7.7513  -7.7287  -7.7218  -7.6700  -7.6645
     1.0730   1.1311   1.2505   1.3713   1.4320   1.6667   1.6724   1.8138
     2.2377   2.2897   2.7217   2.7886   2.8442   2.9263   2.9948   3.2185
     3.3060   3.3524   3.7666   3.7917   3.8362   3.8831   4.0766   4.1124
     4.2618   4.3731   4.5059   4.6850   4.7943   4.9616   5.0214   5.1085
     5.1348   5.1817   5.3144   5.3505   5.3874   5.4303   5.4747   5.5049
     5.5545   5.6233   5.7434   5.8187   5.8353   5.9620   6.0678   6.1314
     6.3525   6.4548   6.4976   6.5179   6.6642   6.7465   6.7652   6.8558
     6.8766   7.0146   7.0185   7.0768   7.0947   7.1449   7.2844   7.2997
     7.3751   7.3952   7.6776   7.7092   7.8813   7.9362   7.9384   7.9543
    10.2046  10.2593  10.6298  10.6698  10.7739  10.9035  11.7971  11.8323
    11.8831  12.0782  12.2732  12.3876  12.4750  12.6524  12.7822  12.8544
    12.9019  13.0907  13.2065  13.2789  13.2916  13.4356  13.7702  13.8437
    14.9223  15.0199  15.1154  15.2219  15.3300  15.7479  15.8084  16.0431
    16.2253  16.2500  16.8802  16.9813  17.3065

          k = 0.0000 0.3150 0.3333 ( 62269 PWs)   bands (ev):

   -66.1768 -66.1766 -66.1763 -66.1761 -66.1758 -66.1756 -66.1753 -66.1751
   -30.7450 -30.7429 -30.7213 -30.7174 -30.6717 -30.6679 -30.6457 -30.6438
   -30.4877 -30.4839 -30.4671 -30.4601 -30.4222 -30.4166 -30.3987 -30.3962
   -30.3800 -30.3775 -30.3748 -30.3722 -30.3542 -30.3522 -30.3503 -30.3483
   -20.3362 -20.3360 -20.3360 -20.3357 -20.3356 -20.3354 -20.3354 -20.3353
   -20.3252 -20.3251 -20.3239 -20.3237 -20.3216 -20.3215 -20.3210 -20.3209
   -20.3207 -20.3207 -20.3204 -20.3203 -20.3192 -20.3191 -20.3181 -20.3180
   -20.3045 -20.3044 -20.3042 -20.3040 -20.3035 -20.3031 -20.3029 -20.3027
   -20.3002 -20.3000 -20.2999 -20.2998 -20.2981 -20.2979 -20.2977 -20.2975
   -20.2965 -20.2960 -20.2954 -20.2945 -20.2934 -20.2926 -20.2924 -20.2921
   -20.2896 -20.2893 -20.2890 -20.2884 -20.2871 -20.2864 -20.2858 -20.2854
    -9.8610  -9.7142  -9.6800  -9.3306  -9.3060  -8.9625  -8.9037  -8.8260
    -8.5958  -8.5107  -8.3068  -8.2832  -8.2305  -8.2052  -8.1255  -8.1104
    -8.0552  -8.0279  -7.7745  -7.7385  -7.7328  -7.7137  -7.6822  -7.6802
     1.0960   1.1179   1.4293   1.4399   2.0148   2.2081   2.2964   2.4221
     2.4845   2.5353   2.7530   2.7676   2.8876   2.9375   3.0653   3.1783
     3.4210   3.4604   3.4965   3.6237   3.7695   3.7919   3.9182   3.9924
     4.0958   4.2214   4.3057   4.4026   4.5373   4.6454   4.6658   4.7673
     4.8418   4.9565   5.0756   5.1471   5.2337   5.2633   5.3374   5.3814
     5.4321   5.5066   5.5722   5.7404   5.8143   5.9002   6.0733   6.1201
     6.2741   6.4322   6.5652   6.6375   6.6749   6.7851   6.8223   6.8884
     6.9476   6.9806   7.0673   7.1496   7.2112   7.2316   7.2940   7.3107
     7.5313   7.5868   7.6039   7.6328   7.8866   7.9053   7.9345   7.9511
    10.5757  10.6231  10.7693  10.9358  11.1749  11.3405  11.7530  11.8848
    11.9733  12.0962  12.1755  12.3098  12.4374  12.5214  12.5677  12.7000
    12.8662  12.9108  13.0167  13.1351  13.2813  13.4743  13.6586  13.7182
    14.9565  15.0006  15.2618  15.4977  15.6788  15.8115  16.0334  16.1656
    16.4818  16.7061  16.7585  17.0751  17.5421

          k = 0.0000 0.3150-0.5000 ( 62306 PWs)   bands (ev):

   -66.1766 -66.1766 -66.1763 -66.1763 -66.1756 -66.1756 -66.1753 -66.1753
   -30.7440 -30.7440 -30.6965 -30.6965 -30.6927 -30.6927 -30.6448 -30.6448
   -30.4858 -30.4858 -30.4447 -30.4447 -30.4384 -30.4384 -30.3975 -30.3975
   -30.3788 -30.3788 -30.3736 -30.3736 -30.3532 -30.3532 -30.3493 -30.3493
   -20.3361 -20.3361 -20.3358 -20.3358 -20.3356 -20.3356 -20.3354 -20.3354
   -20.3251 -20.3251 -20.3227 -20.3227 -20.3225 -20.3225 -20.3210 -20.3210
   -20.3207 -20.3207 -20.3200 -20.3200 -20.3198 -20.3198 -20.3180 -20.3180
   -20.3045 -20.3045 -20.3038 -20.3038 -20.3035 -20.3035 -20.3028 -20.3028
   -20.3001 -20.3001 -20.2998 -20.2998 -20.2980 -20.2980 -20.2976 -20.2976
   -20.2962 -20.2962 -20.2943 -20.2943 -20.2935 -20.2934 -20.2923 -20.2923
   -20.2894 -20.2894 -20.2881 -20.2881 -20.2875 -20.2875 -20.2856 -20.2856
    -9.7763  -9.7763  -9.4588  -9.4587  -8.9730  -8.9730  -8.8003  -8.8003
    -8.5783  -8.5783  -8.5460  -8.5459  -8.2144  -8.2144  -8.1680  -8.1680
    -8.0799  -8.0799  -7.7561  -7.7561  -7.7089  -7.7089  -7.6952  -7.6952
     1.1070   1.1070   1.4463   1.4463   2.6608   2.6608   2.7810   2.7810
     2.8222   2.8222   2.8967   2.8967   3.0197   3.0197   3.1060   3.1060
     3.2265   3.2265   3.3417   3.3417   3.6005   3.6005   3.7875   3.7875
     3.9691   3.9692   4.0650   4.0651   4.3814   4.3814   4.5512   4.5512
     4.9170   4.9170   5.0571   5.0571   5.1542   5.1542   5.2927   5.2927
     5.3640   5.3640   5.6719   5.6719   5.8823   5.8823   6.0868   6.0868
     6.3437   6.3437   6.6140   6.6140   6.6561   6.6562   6.8148   6.8148
     7.1511   7.1511   7.1839   7.1839   7.2441   7.2441   7.3807   7.3807
     7.4275   7.4275   7.7849   7.7849   7.8136   7.8136   7.9352   7.9352
    10.6262  10.6262  11.3704  11.3704  11.5338  11.5338  11.7060  11.7060
    11.9677  11.9677  12.0051  12.0051  12.4729  12.4729  12.5573  12.5573
    12.7864  12.7864  12.9831  12.9831  13.4385  13.4385  13.5718  13.5718
    14.9738  14.9738  15.4678  15.4678  15.9357  15.9358  16.1384  16.1384
    16.7361  16.7361  17.3406  17.3408  17.4835

          k = 0.0000-0.4725 0.0000 ( 62212 PWs)   bands (ev):

   -66.1769 -66.1769 -66.1760 -66.1760 -66.1759 -66.1759 -66.1750 -66.1750
   -30.7459 -30.7459 -30.7419 -30.7419 -30.6467 -30.6467 -30.6429 -30.6429
   -30.4895 -30.4895 -30.4818 -30.4818 -30.3996 -30.3996 -30.3945 -30.3945
   -30.3683 -30.3683 -30.3645 -30.3645 -30.3633 -30.3633 -30.3593 -30.3593
   -20.3362 -20.3362 -20.3360 -20.3360 -20.3355 -20.3355 -20.3352 -20.3352
   -20.3252 -20.3252 -20.3250 -20.3250 -20.3210 -20.3209 -20.3208 -20.3208
   -20.3208 -20.3208 -20.3207 -20.3207 -20.3181 -20.3181 -20.3180 -20.3180
   -20.3046 -20.3046 -20.3044 -20.3044 -20.3030 -20.3030 -20.3025 -20.3025
   -20.2992 -20.2992 -20.2989 -20.2989 -20.2988 -20.2988 -20.2986 -20.2986
   -20.2967 -20.2967 -20.2957 -20.2957 -20.2926 -20.2926 -20.2919 -20.2919
   -20.2897 -20.2897 -20.2892 -20.2892 -20.2859 -20.2859 -20.2852 -20.2852
    -9.9545  -9.9545  -9.6589  -9.6589  -9.2112  -9.2112  -9.0516  -9.0516
    -8.1903  -8.1903  -8.0706  -8.0706  -8.0180  -8.0180  -8.0048  -8.0048
    -7.9573  -7.9573  -7.9451  -7.9451  -7.7601  -7.7601  -7.6591  -7.6591
     1.0488   1.0488   1.1378   1.1378   1.4285   1.4285   1.5965   1.5965
     2.1765   2.1765   2.9869   2.9869   3.0473   3.0473   3.5232   3.5232
     3.6221   3.6221   3.6381   3.6381   3.7859   3.7859   4.0511   4.0511
     4.1229   4.1229   4.3482   4.3482   4.5531   4.5531   5.1083   5.1083
     5.3672   5.3672   5.3886   5.3886   5.3944   5.3944   5.6280   5.6280
     5.7081   5.7081   5.8710   5.8710   6.1191   6.1191   6.1520   6.1520
     6.3248   6.3249   6.4636   6.4636   6.5963   6.5963   6.7619   6.7620
     6.7676   6.7676   6.9693   6.9693   7.2487   7.2487   7.4411   7.4411
     7.5619   7.5619   7.6780   7.6780   7.7795   7.7795   7.7944   7.7944
    10.0088  10.0088  10.9995  10.9995  11.0491  11.0491  11.4869  11.4869
    11.6119  11.6119  12.3393  12.3393  12.5197  12.5197  12.8719  12.8719
    13.1407  13.1407  13.2566  13.2566  13.2922  13.2922  13.8151  13.8151
    15.1628  15.1628  15.2692  15.2692  15.7062  15.7062  15.7970  15.7970
    16.0648  16.0648  17.2792  17.2792  17.5968

          k = 0.0000-0.4725 0.1667 ( 62246 PWs)   bands (ev):

   -66.1769 -66.1769 -66.1761 -66.1760 -66.1759 -66.1758 -66.1750 -66.1750
   -30.7457 -30.7422 -30.7393 -30.7353 -30.6534 -30.6496 -30.6464 -30.6431
   -30.4890 -30.4835 -30.4823 -30.4760 -30.4056 -30.4004 -30.3993 -30.3949
   -30.3680 -30.3680 -30.3647 -30.3642 -30.3636 -30.3630 -30.3598 -30.3596
   -20.3362 -20.3361 -20.3360 -20.3359 -20.3355 -20.3355 -20.3353 -20.3353
   -20.3252 -20.3250 -20.3249 -20.3247 -20.3211 -20.3210 -20.3209 -20.3208
   -20.3208 -20.3207 -20.3207 -20.3206 -20.3185 -20.3183 -20.3181 -20.3180
   -20.3046 -20.3045 -20.3044 -20.3043 -20.3032 -20.3030 -20.3027 -20.3026
   -20.2992 -20.2992 -20.2989 -20.2989 -20.2989 -20.2988 -20.2986 -20.2986
   -20.2967 -20.2963 -20.2957 -20.2953 -20.2928 -20.2926 -20.2921 -20.2919
   -20.2897 -20.2895 -20.2892 -20.2890 -20.2862 -20.2859 -20.2856 -20.2853
    -9.9229  -9.8815  -9.6711  -9.5718  -9.2320  -9.1295  -9.0320  -8.9961
    -8.2971  -8.1907  -8.1891  -8.0784  -8.0351  -8.0278  -8.0102  -8.0042
    -7.9878  -7.9713  -7.9425  -7.9248  -7.8536  -7.7585  -7.7531  -7.6656
     1.0725   1.1307   1.2501   1.3711   1.4317   1.6684   1.6731   1.8159
     2.2611   2.2665   2.9845   2.9897   3.0841   3.1119   3.5216   3.5291
     3.5737   3.6178   3.6259   3.7038   3.7763   3.8612   4.0029   4.0725
     4.0967   4.1245   4.1585   4.1775   4.3900   4.5355   5.0628   5.0952
     5.1101   5.1890   5.3166   5.3580   5.3722   5.4449   5.4493   5.5127
     5.5601   5.6171   5.7160   5.7357   5.8180   5.9317   6.1251   6.1660
     6.3664   6.4819   6.5032   6.5142   6.5866   6.6298   6.7566   6.7853
     6.8285   7.0413   7.0416   7.0749   7.1010   7.1727   7.4501   7.4523
     7.5665   7.5804   7.6698   7.6786   7.7792   7.7797   7.7891   7.8174
    10.2191  10.2797  11.0028  11.0502  11.1017  11.1724  11.4856  11.5767
    11.6145  11.7051  12.2795  12.3963  12.5717  12.5972  12.7417  12.8821
    12.9892  13.1148  13.1395  13.1853  13.2637  13.3117  13.7620  13.8134
    15.1211  15.2462  15.2879  15.4813  15.7777  15.7819  15.8495  15.9661
    16.1371  16.1524  17.2027  17.2469  17.4344

          k = 0.0000-0.4725 0.3333 ( 62268 PWs)   bands (ev):

   -66.1767 -66.1767 -66.1763 -66.1761 -66.1758 -66.1756 -66.1752 -66.1752
   -30.7450 -30.7429 -30.7213 -30.7174 -30.6717 -30.6679 -30.6457 -30.6438
   -30.4877 -30.4839 -30.4671 -30.4601 -30.4221 -30.4164 -30.3984 -30.3959
   -30.3673 -30.3671 -30.3653 -30.3646 -30.3633 -30.3623 -30.3608 -30.3603
   -20.3361 -20.3360 -20.3360 -20.3357 -20.3356 -20.3354 -20.3354 -20.3353
   -20.3252 -20.3251 -20.3239 -20.3237 -20.3216 -20.3215 -20.3210 -20.3209
   -20.3207 -20.3207 -20.3204 -20.3203 -20.3193 -20.3191 -20.3181 -20.3180
   -20.3045 -20.3044 -20.3042 -20.3040 -20.3034 -20.3031 -20.3029 -20.3027
   -20.2992 -20.2991 -20.2990 -20.2989 -20.2989 -20.2988 -20.2987 -20.2986
   -20.2965 -20.2960 -20.2954 -20.2945 -20.2934 -20.2926 -20.2924 -20.2921
   -20.2896 -20.2893 -20.2890 -20.2884 -20.2871 -20.2864 -20.2858 -20.2854
    -9.8480  -9.7095  -9.6859  -9.3247  -9.3043  -8.9620  -8.8994  -8.8242
    -8.5836  -8.4987  -8.2541  -8.2148  -8.0930  -8.0829  -8.0283  -8.0140
    -7.9932  -7.9931  -7.9518  -7.9472  -7.9206  -7.8914  -7.7341  -7.6836
     1.0955   1.1175   1.4292   1.4397   2.0182   2.2228   2.2986   2.4289
     2.5086   2.5126   2.9846   2.9874   3.1981   3.2672   3.3718   3.5029
     3.5052   3.5762   3.5776   3.6191   3.6809   3.7271   3.8562   3.9643
     4.0263   4.0526   4.1294   4.1689   4.3059   4.4388   4.5410   4.7026
     4.7324   4.7490   4.8843   5.0387   5.1678   5.2389   5.2676   5.3058
     5.3599   5.4182   5.5552   5.7061   5.8093   5.8926   6.1306   6.1748
     6.2771   6.4520   6.5820   6.6170   6.6627   6.6728   6.7367   6.9119
     6.9602   6.9971   7.0781   7.1978   7.2840   7.3357   7.4470   7.4674
     7.5853   7.6071   7.6522   7.6909   7.7782   7.7805   7.8130   7.8411
    10.7214  10.8538  11.0316  11.0718  11.4106  11.4825  11.4949  11.6703
    11.8409  11.9611  11.9892  12.2833  12.4909  12.5600  12.5869  12.6319
    12.8168  12.9084  12.9382  13.0063  13.3016  13.3835  13.6688  13.6696
    15.0827  15.2046  15.5419  15.7399  16.0438  16.1504  16.2245  16.3558
    16.4062  16.5428  16.9070  17.1070  17.2183

          k = 0.0000-0.4725-0.5000 ( 62284 PWs)   bands (ev):

   -66.1765 -66.1765 -66.1764 -66.1764 -66.1755 -66.1755 -66.1754 -66.1754
   -30.7440 -30.7440 -30.6965 -30.6965 -30.6927 -30.6927 -30.6448 -30.6448
   -30.4858 -30.4858 -30.4446 -30.4446 -30.4383 -30.4383 -30.3971 -30.3971
   -30.3663 -30.3663 -30.3658 -30.3658 -30.3621 -30.3621 -30.3612 -30.3612
   -20.3361 -20.3361 -20.3358 -20.3358 -20.3356 -20.3355 -20.3354 -20.3354
   -20.3251 -20.3251 -20.3227 -20.3227 -20.3225 -20.3225 -20.3210 -20.3210
   -20.3207 -20.3207 -20.3200 -20.3200 -20.3199 -20.3198 -20.3180 -20.3180
   -20.3045 -20.3045 -20.3038 -20.3038 -20.3035 -20.3035 -20.3028 -20.3028
   -20.2991 -20.2991 -20.2990 -20.2990 -20.2988 -20.2988 -20.2987 -20.2987
   -20.2963 -20.2963 -20.2943 -20.2943 -20.2935 -20.2934 -20.2923 -20.2923
   -20.2894 -20.2894 -20.2881 -20.2881 -20.2875 -20.2875 -20.2856 -20.2856
    -9.7688  -9.7688  -9.4592  -9.4591  -8.9650  -8.9649  -8.7994  -8.7993
    -8.5653  -8.5652  -8.5372  -8.5372  -8.1078  -8.1078  -8.0216  -8.0215
    -7.9928  -7.9928  -7.9561  -7.9561  -7.9163  -7.9163  -7.7087  -7.7086
     1.1066   1.1066   1.4462   1.4462   2.7726   2.7726   2.8212   2.8212
     2.8851   2.8851   3.0471   3.0472   3.1727   3.1727   3.2267   3.2267
     3.3838   3.3838   3.5395   3.5395   3.5739   3.5739   3.6149   3.6149
     3.8578   3.8578   4.1119   4.1119   4.3836   4.3836   4.4637   4.4637
     4.6090   4.6090   4.6973   4.6973   4.9784   4.9784   5.1913   5.1913
     5.3857   5.3857   5.6551   5.6551   5.8773   5.8773   6.1382   6.1382
     6.3546   6.3546   6.6081   6.6081   6.6646   6.6646   6.7140   6.7141
     7.2366   7.2366   7.2811   7.2812   7.3223   7.3223   7.3864   7.3864
     7.5033   7.5033   7.7538   7.7538   7.8064   7.8064   7.8178   7.8178
    10.9800  10.9800  11.4095  11.4095  11.4412  11.4412  11.7214  11.7214
    11.9370  11.9370  12.0810  12.0810  12.3116  12.3116  12.3937  12.3937
    12.7652  12.7652  12.9420  12.9420  13.4301  13.4301  13.5216  13.5216
    15.1326  15.1326  15.6712  15.6712  16.4528  16.4528  16.6825  16.6827
    16.7441  16.7442  16.9505  16.9508  17.0218

          k = 0.1667 0.0000 0.1667 ( 62234 PWs)   bands (ev):

   -66.1770 -66.1766 -66.1762 -66.1762 -66.1757 -66.1757 -66.1753 -66.1749
   -30.7392 -30.7389 -30.7356 -30.7356 -30.6531 -30.6531 -30.6499 -30.6497
   -30.4834 -30.4827 -30.4766 -30.4766 -30.4067 -30.4064 -30.4038 -30.4003
   -30.3934 -30.3877 -30.3876 -30.3819 -30.3417 -30.3386 -30.3386 -30.3355
   -20.3362 -20.3361 -20.3359 -20.3359 -20.3355 -20.3355 -20.3354 -20.3352
   -20.3249 -20.3248 -20.3247 -20.3247 -20.3212 -20.3211 -20.3210 -20.3210
   -20.3207 -20.3207 -20.3207 -20.3205 -20.3185 -20.3184 -20.3183 -20.3182
   -20.3045 -20.3045 -20.3043 -20.3043 -20.3032 -20.3032 -20.3028 -20.3027
   -20.3013 -20.3010 -20.3009 -20.3008 -20.2973 -20.2969 -20.2967 -20.2963
   -20.2961 -20.2959 -20.2954 -20.2953 -20.2927 -20.2927 -20.2922 -20.2920
   -20.2895 -20.2895 -20.2890 -20.2890 -20.2862 -20.2862 -20.2857 -20.2856
    -9.9453  -9.7725  -9.6066  -9.6041  -9.1631  -9.1604  -8.9819  -8.9817
    -8.5429  -8.4345  -8.4327  -8.4308  -8.2768  -8.2272  -8.1679  -8.1474
    -7.8697  -7.8603  -7.7874  -7.7723  -7.5108  -7.4429  -7.4422  -7.3793
     1.2995   1.3170   1.3684   1.3733   1.6714   1.6752   1.7977   1.8451
     2.1633   2.2139   2.2247   2.3029   2.3265   2.4150   2.7226   2.9279
     2.9645   2.9702   3.9607   4.0461   4.1270   4.2015   4.2557   4.3071
     4.3939   4.4185   4.5665   4.7711   4.9161   4.9424   5.0503   5.0657
     5.2234   5.2996   5.3594   5.3972   5.4057   5.4959   5.5154   5.5905
     5.6034   5.6855   5.7340   5.8672   5.9376   5.9923   6.1163   6.2800
     6.3186   6.5189   6.5435   6.5943   6.7518   6.7559   6.7750   6.8318
     6.9308   6.9627   6.9645   7.0599   7.0910   7.1783   7.2335   7.2616
     7.2720   7.3172   7.6775   7.7006   7.9691   8.0432   8.0638   8.1746
    10.1418  10.1601  10.3102  10.3181  10.5536  10.6069  12.1503  12.1626
    12.2755  12.2901  12.3724  12.3932  12.5761  12.6981  12.8303  12.8550
    12.9311  12.9841  13.2253  13.2789  13.3949  13.4441  13.7367  13.8438
    14.2551  14.4578  14.4787  14.9533  15.0539  15.3892  15.7569  16.0544
    16.0822  16.8204  16.8636  16.9285  17.6481

          k = 0.1667 0.0000 0.3333 ( 62265 PWs)   bands (ev):

   -66.1768 -66.1764 -66.1763 -66.1760 -66.1759 -66.1756 -66.1755 -66.1751
   -30.7384 -30.7364 -30.7210 -30.7176 -30.6714 -30.6681 -30.6524 -30.6505
   -30.4818 -30.4781 -30.4667 -30.4607 -30.4222 -30.4175 -30.4056 -30.4030
   -30.3924 -30.3894 -30.3867 -30.3837 -30.3410 -30.3392 -30.3379 -30.3361
   -20.3361 -20.3360 -20.3359 -20.3358 -20.3356 -20.3355 -20.3354 -20.3353
   -20.3248 -20.3247 -20.3239 -20.3238 -20.3216 -20.3215 -20.3211 -20.3211
   -20.3207 -20.3207 -20.3204 -20.3203 -20.3192 -20.3191 -20.3184 -20.3183
   -20.3045 -20.3043 -20.3042 -20.3040 -20.3035 -20.3031 -20.3031 -20.3028
   -20.3012 -20.3011 -20.3009 -20.3008 -20.2972 -20.2969 -20.2967 -20.2964
   -20.2959 -20.2955 -20.2952 -20.2945 -20.2933 -20.2927 -20.2926 -20.2922
   -20.2894 -20.2891 -20.2889 -20.2884 -20.2870 -20.2865 -20.2861 -20.2857
    -9.8238  -9.6463  -9.6141  -9.3639  -9.2359  -8.9447  -8.9182  -8.8208
    -8.6835  -8.5446  -8.4264  -8.4153  -8.4115  -8.3976  -8.2341  -8.1755
    -8.1336  -8.0480  -7.8461  -7.7963  -7.4971  -7.4573  -7.4300  -7.3930
     1.3457   1.3662   1.6431   1.6827   1.9690   2.0500   2.1569   2.2036
     2.2316   2.3279   2.3661   2.5094   2.5717   2.6810   2.8084   2.9300
     3.1403   3.1887   3.4916   3.6994   3.8567   4.0087   4.1113   4.1861
     4.3250   4.3293   4.4414   4.4809   4.5487   4.6594   4.7480   4.7931
     4.9249   5.0009   5.0701   5.1296   5.1668   5.3770   5.4082   5.5033
     5.5929   5.6353   5.7033   5.7998   6.0212   6.0625   6.1983   6.2829
     6.3641   6.4756   6.5646   6.7105   6.7273   6.7753   6.7929   6.8572
     6.9609   7.0012   7.0279   7.0962   7.1192   7.1463   7.2334   7.2598
     7.4207   7.4863   7.6017   7.6150   7.9305   7.9813   8.0858   8.1462
    10.2365  10.2510  10.7259  10.8248  11.0022  11.2128  11.9164  11.9834
    12.1728  12.2793  12.4045  12.4284  12.5798  12.5897  12.6460  12.8040
    12.9139  13.0193  13.1523  13.2423  13.2980  13.4333  13.6445  13.6664
    14.2792  14.4314  14.5566  14.8710  15.2584  15.7631  15.8779  16.0471
    16.5363  16.7845  17.2666  17.3942  17.4485

          k = 0.1667 0.0000-0.5000 ( 62322 PWs)   bands (ev):

   -66.1766 -66.1766 -66.1762 -66.1762 -66.1757 -66.1757 -66.1753 -66.1753
   -30.7374 -30.7374 -30.6963 -30.6963 -30.6930 -30.6930 -30.6515 -30.6515
   -30.4800 -30.4800 -30.4444 -30.4444 -30.4390 -30.4390 -30.4044 -30.4044
   -30.3911 -30.3911 -30.3853 -30.3853 -30.3401 -30.3401 -30.3370 -30.3370
   -20.3360 -20.3360 -20.3358 -20.3358 -20.3356 -20.3356 -20.3354 -20.3354
   -20.3248 -20.3248 -20.3227 -20.3227 -20.3225 -20.3225 -20.3211 -20.3211
   -20.3207 -20.3207 -20.3200 -20.3200 -20.3198 -20.3198 -20.3184 -20.3183
   -20.3044 -20.3044 -20.3039 -20.3039 -20.3036 -20.3036 -20.3030 -20.3030
   -20.3011 -20.3011 -20.3009 -20.3009 -20.2970 -20.2970 -20.2966 -20.2966
   -20.2958 -20.2957 -20.2942 -20.2942 -20.2935 -20.2935 -20.2924 -20.2924
   -20.2892 -20.2892 -20.2881 -20.2880 -20.2875 -20.2875 -20.2859 -20.2859
    -9.7177  -9.7177  -9.3954  -9.3954  -9.0178  -9.0178  -8.7779  -8.7779
    -8.6535  -8.6535  -8.5728  -8.5728  -8.3575  -8.3575  -8.3184  -8.3184
    -8.1843  -8.1843  -7.8209  -7.8209  -7.4774  -7.4774  -7.4117  -7.4116
     1.3574   1.3574   1.6836   1.6836   2.1486   2.1486   2.1858   2.1858
     2.7971   2.7971   2.8434   2.8434   2.9172   2.9172   3.0658   3.0658
     3.2197   3.2198   3.2810   3.2810   3.5567   3.5567   3.7830   3.7830
     3.8259   3.8259   4.3938   4.3938   4.6282   4.6282   4.7480   4.7480
     4.7789   4.7789   5.0156   5.0156   5.1913   5.1913   5.4265   5.4265
     5.6166   5.6166   5.7343   5.7343   6.0574   6.0574   6.2775   6.2775
     6.4346   6.4346   6.6022   6.6022   6.7194   6.7194   6.8664   6.8664
     6.9308   6.9308   7.0726   7.0726   7.2082   7.2082   7.3852   7.3852
     7.4227   7.4227   7.7505   7.7505   7.8058   7.8058   8.1099   8.1099
    10.2556  10.2556  11.3515  11.3515  11.4716  11.4716  11.6061  11.6061
    11.9411  11.9411  12.3893  12.3893  12.5160  12.5160  12.8395  12.8396
    12.9927  12.9927  13.0647  13.0647  13.3412  13.3412  13.5586  13.5586
    14.3658  14.3659  14.7284  14.7284  15.5440  15.5440  16.2180  16.2180
    16.6829  16.6829  17.6543  17.6543  17.9371

          k = 0.1667 0.1575 0.1667 ( 62255 PWs)   bands (ev):

   -66.1770 -66.1766 -66.1761 -66.1761 -66.1758 -66.1758 -66.1753 -66.1749
   -30.7392 -30.7389 -30.7356 -30.7356 -30.6531 -30.6531 -30.6499 -30.6497
   -30.4833 -30.4828 -30.4766 -30.4766 -30.4062 -30.4060 -30.4030 -30.4003
   -30.3900 -30.3848 -30.3847 -30.3794 -30.3452 -30.3420 -30.3420 -30.3388
   -20.3362 -20.3361 -20.3359 -20.3359 -20.3355 -20.3355 -20.3353 -20.3353
   -20.3249 -20.3248 -20.3247 -20.3247 -20.3212 -20.3211 -20.3210 -20.3210
   -20.3207 -20.3207 -20.3207 -20.3205 -20.3185 -20.3185 -20.3183 -20.3183
   -20.3045 -20.3045 -20.3043 -20.3043 -20.3032 -20.3031 -20.3028 -20.3027
   -20.3010 -20.3008 -20.3007 -20.3005 -20.2975 -20.2971 -20.2970 -20.2966
   -20.2962 -20.2961 -20.2954 -20.2953 -20.2927 -20.2927 -20.2922 -20.2920
   -20.2895 -20.2895 -20.2890 -20.2890 -20.2862 -20.2862 -20.2857 -20.2856
    -9.9305  -9.7815  -9.6009  -9.5988  -9.1602  -9.1578  -8.9812  -8.9809
    -8.4888  -8.3882  -8.3861  -8.3818  -8.2738  -8.2223  -8.1681  -8.1426
    -7.8696  -7.8619  -7.7894  -7.7725  -7.5865  -7.5225  -7.5216  -7.4624
     1.3009   1.3157   1.3692   1.3732   1.6715   1.6747   1.8179   1.8455
     2.3093   2.3219   2.3911   2.3941   2.4107   2.5165   2.7913   3.0112
     3.0350   3.0584   3.9348   4.0020   4.1117   4.1288   4.2116   4.2149
     4.2723   4.2775   4.5349   4.7851   4.8865   4.9801   5.0353   5.0518
     5.1621   5.2840   5.3342   5.3840   5.3927   5.4478   5.4902   5.5381
     5.5383   5.5838   5.6709   5.8186   5.8971   5.9391   6.0236   6.1631
     6.3721   6.4933   6.5496   6.5936   6.7213   6.8006   6.8339   6.8685
     6.9336   6.9469   6.9815   7.0439   7.0499   7.1126   7.2398   7.2847
     7.2974   7.3238   7.6769   7.6980   7.9624   8.0247   8.0438   8.1170
    10.2450  10.2718  10.4342  10.4439  10.5830  10.6682  12.0992  12.1125
    12.2107  12.2741  12.3220  12.3813  12.5911  12.6048  12.7986  12.8157
    12.9183  12.9851  13.1967  13.3421  13.3943  13.4271  13.7706  13.8172
    14.3996  14.6521  14.6615  15.0568  15.3523  15.3789  15.7750  16.0520
    16.0721  16.7016  16.9087  16.9290  17.4980

          k = 0.1667 0.1575 0.3333 ( 62260 PWs)   bands (ev):

   -66.1768 -66.1765 -66.1763 -66.1760 -66.1759 -66.1756 -66.1754 -66.1751
   -30.7384 -30.7364 -30.7210 -30.7177 -30.6714 -30.6681 -30.6524 -30.6505
   -30.4818 -30.4781 -30.4667 -30.4607 -30.4221 -30.4173 -30.4052 -30.4026
   -30.3890 -30.3862 -30.3838 -30.3809 -30.3445 -30.3426 -30.3413 -30.3394
   -20.3361 -20.3360 -20.3359 -20.3358 -20.3356 -20.3355 -20.3354 -20.3353
   -20.3248 -20.3247 -20.3239 -20.3238 -20.3216 -20.3215 -20.3211 -20.3211
   -20.3207 -20.3207 -20.3204 -20.3203 -20.3192 -20.3191 -20.3184 -20.3183
   -20.3045 -20.3043 -20.3042 -20.3040 -20.3035 -20.3031 -20.3031 -20.3028
   -20.3009 -20.3008 -20.3007 -20.3006 -20.2974 -20.2971 -20.2970 -20.2967
   -20.2960 -20.2956 -20.2952 -20.2945 -20.2933 -20.2927 -20.2926 -20.2922
   -20.2894 -20.2891 -20.2889 -20.2884 -20.2870 -20.2865 -20.2861 -20.2857
    -9.8112  -9.6403  -9.6196  -9.3569  -9.2337  -8.9396  -8.9179  -8.8185
    -8.6523  -8.5319  -8.4054  -8.3851  -8.3654  -8.3555  -8.2262  -8.1723
    -8.1300  -8.0472  -7.8469  -7.7972  -7.5734  -7.5353  -7.5099  -7.4744
     1.3463   1.3668   1.6428   1.6828   1.9965   2.1302   2.2768   2.3368
     2.3608   2.3989   2.4435   2.5631   2.5797   2.6905   2.8805   3.0052
     3.2222   3.2526   3.4937   3.6949   3.8405   3.9713   4.1349   4.1738
     4.2408   4.2838   4.3538   4.4087   4.5252   4.6149   4.7301   4.7846
     4.8946   4.9467   5.0190   5.0870   5.1333   5.2700   5.3736   5.4969
     5.5216   5.5796   5.6253   5.7152   5.8962   5.9389   6.0406   6.1271
     6.3899   6.5135   6.6092   6.7331   6.7519   6.7979   6.8517   6.8984
     6.9352   6.9745   7.0545   7.1047   7.1163   7.1626   7.2606   7.2874
     7.4429   7.5165   7.6023   7.6171   7.9354   7.9694   8.0539   8.0958
    10.3720  10.3820  10.7840  10.9208  11.0142  11.2391  11.9173  11.9985
    12.1817  12.2502  12.3124  12.4172  12.5380  12.5596  12.6104  12.7121
    12.8611  13.0034  13.1001  13.2023  13.3124  13.4129  13.6483  13.6581
    14.4778  14.6296  14.8235  15.1430  15.3607  15.7724  15.9021  16.0683
    16.5500  16.7674  17.1033  17.4364  17.4677

          k = 0.1667 0.1575-0.5000 ( 62292 PWs)   bands (ev):

   -66.1766 -66.1766 -66.1762 -66.1762 -66.1757 -66.1757 -66.1753 -66.1753
   -30.7374 -30.7374 -30.6963 -30.6963 -30.6930 -30.6930 -30.6515 -30.6515
   -30.4800 -30.4800 -30.4444 -30.4443 -30.4389 -30.4389 -30.4040 -30.4040
   -30.3877 -30.3877 -30.3824 -30.3824 -30.3435 -30.3435 -30.3403 -30.3403
   -20.3360 -20.3360 -20.3358 -20.3358 -20.3356 -20.3356 -20.3354 -20.3354
   -20.3248 -20.3248 -20.3227 -20.3227 -20.3225 -20.3225 -20.3211 -20.3211
   -20.3207 -20.3206 -20.3200 -20.3200 -20.3198 -20.3198 -20.3184 -20.3183
   -20.3044 -20.3044 -20.3038 -20.3038 -20.3036 -20.3036 -20.3029 -20.3029
   -20.3009 -20.3008 -20.3006 -20.3006 -20.2972 -20.2972 -20.2968 -20.2968
   -20.2958 -20.2958 -20.2942 -20.2942 -20.2935 -20.2935 -20.2924 -20.2924
   -20.2892 -20.2892 -20.2880 -20.2880 -20.2875 -20.2875 -20.2859 -20.2859
    -9.7092  -9.7092  -9.3960  -9.3960  -9.0063  -9.0063  -8.7767  -8.7767
    -8.6404  -8.6403  -8.5584  -8.5583  -8.3238  -8.3238  -8.2882  -8.2882
    -8.1826  -8.1826  -7.8218  -7.8218  -7.5543  -7.5543  -7.4921  -7.4921
     1.3581   1.3582   1.6840   1.6840   2.3066   2.3066   2.3734   2.3734
     2.8171   2.8172   2.8709   2.8709   2.9292   2.9293   3.0774   3.0774
     3.2258   3.2258   3.2964   3.2964   3.5868   3.5868   3.8091   3.8091
     3.8728   3.8728   4.2608   4.2608   4.5859   4.5859   4.6899   4.6899
     4.7552   4.7552   4.9467   4.9468   5.0989   5.0989   5.4205   5.4205
     5.5769   5.5769   5.6090   5.6090   5.9148   5.9148   6.0781   6.0781
     6.4848   6.4848   6.6553   6.6553   6.7707   6.7707   6.8745   6.8745
     6.9961   6.9961   7.0627   7.0627   7.2367   7.2367   7.3868   7.3868
     7.4258   7.4258   7.7655   7.7655   7.8144   7.8144   8.0689   8.0689
    10.3924  10.3924  11.3809  11.3809  11.5245  11.5245  11.6216  11.6216
    11.9537  11.9537  12.3447  12.3447  12.4543  12.4543  12.7798  12.7798
    12.9463  12.9463  12.9936  12.9936  13.3378  13.3378  13.5533  13.5533
    14.5728  14.5728  15.0332  15.0332  15.5938  15.5938  16.2224  16.2224
    16.7098  16.7098  17.5957  17.5957  17.8414

          k = 0.1667 0.3150 0.1667 ( 62249 PWs)   bands (ev):

   -66.1769 -66.1767 -66.1761 -66.1761 -66.1758 -66.1758 -66.1752 -66.1750
   -30.7392 -30.7390 -30.7356 -30.7356 -30.6531 -30.6531 -30.6499 -30.6498
   -30.4832 -30.4829 -30.4766 -30.4765 -30.4056 -30.4055 -30.4016 -30.4004
   -30.3806 -30.3762 -30.3761 -30.3716 -30.3547 -30.3513 -30.3513 -30.3479
   -20.3361 -20.3361 -20.3359 -20.3359 -20.3355 -20.3355 -20.3353 -20.3353
   -20.3249 -20.3248 -20.3247 -20.3247 -20.3212 -20.3211 -20.3210 -20.3210
   -20.3207 -20.3207 -20.3207 -20.3205 -20.3185 -20.3185 -20.3183 -20.3183
   -20.3045 -20.3045 -20.3043 -20.3043 -20.3031 -20.3031 -20.3028 -20.3027
   -20.3002 -20.3000 -20.2999 -20.2997 -20.2982 -20.2978 -20.2978 -20.2975
   -20.2963 -20.2962 -20.2954 -20.2954 -20.2928 -20.2927 -20.2921 -20.2921
   -20.2895 -20.2895 -20.2890 -20.2890 -20.2862 -20.2862 -20.2856 -20.2856
    -9.8928  -9.8076  -9.5898  -9.5886  -9.1543  -9.1529  -8.9801  -8.9793
    -8.3633  -8.2974  -8.2650  -8.2374  -8.2291  -8.1825  -8.1634  -8.1140
    -7.8715  -7.8708  -7.8093  -7.7739  -7.7736  -7.7219  -7.7198  -7.6659
     1.3039   1.3120   1.3703   1.3724   1.6718   1.6736   1.8389   1.8464
     2.3289   2.3787   2.7321   2.7908   2.8406   2.9741   2.9909   3.2830
     3.2881   3.3937   3.7681   3.8130   3.8595   3.8919   4.0826   4.1254
     4.1915   4.2000   4.2585   4.6765   4.7096   4.9242   4.9472   5.0369
     5.0721   5.1409   5.1572   5.1782   5.3101   5.3463   5.3832   5.4247
     5.5095   5.5158   5.6130   5.6315   5.7861   5.8472   5.8842   6.0178
     6.4405   6.4846   6.5732   6.6131   6.6854   6.7256   6.8771   6.8862
     7.0022   7.0299   7.0354   7.0670   7.1288   7.1342   7.3015   7.3277
     7.3907   7.4079   7.6688   7.6940   7.8848   7.9259   7.9481   7.9547
    10.4130  10.4176  10.7560  10.7815  10.8042  10.9756  11.8404  11.8787
    11.8924  12.1123  12.3277  12.3444  12.4984  12.6736  12.7778  12.8087
    12.8529  12.9876  13.1501  13.2685  13.2997  13.3089  13.7589  13.7708
    14.9996  15.1128  15.1511  15.2969  15.3519  15.8667  15.9962  16.0244
    16.2228  16.3470  16.9286  17.0961  17.1222

          k = 0.1667 0.3150 0.3333 ( 62265 PWs)   bands (ev):

   -66.1767 -66.1765 -66.1762 -66.1760 -66.1759 -66.1757 -66.1754 -66.1752
   -30.7384 -30.7364 -30.7210 -30.7177 -30.6714 -30.6681 -30.6525 -30.6505
   -30.4817 -30.4780 -30.4667 -30.4606 -30.4219 -30.4170 -30.4046 -30.4020
   -30.3797 -30.3772 -30.3753 -30.3727 -30.3540 -30.3520 -30.3505 -30.3486
   -20.3361 -20.3360 -20.3360 -20.3358 -20.3356 -20.3355 -20.3354 -20.3353
   -20.3248 -20.3247 -20.3239 -20.3238 -20.3216 -20.3215 -20.3211 -20.3211
   -20.3207 -20.3206 -20.3204 -20.3203 -20.3192 -20.3191 -20.3184 -20.3183
   -20.3044 -20.3043 -20.3042 -20.3040 -20.3034 -20.3031 -20.3030 -20.3028
   -20.3002 -20.3000 -20.2999 -20.2998 -20.2981 -20.2979 -20.2977 -20.2976
   -20.2961 -20.2956 -20.2953 -20.2945 -20.2933 -20.2927 -20.2926 -20.2923
   -20.2894 -20.2891 -20.2889 -20.2884 -20.2870 -20.2865 -20.2861 -20.2857
    -9.7834  -9.6377  -9.6245  -9.3437  -9.2295  -8.9296  -8.9177  -8.8146
    -8.6025  -8.5079  -8.3629  -8.2785  -8.2461  -8.2260  -8.1801  -8.1492
    -8.1039  -8.0404  -7.8527  -7.8052  -7.7650  -7.7315  -7.7104  -7.6769
     1.3467   1.3673   1.6422   1.6828   2.0161   2.2019   2.3025   2.4071
     2.5922   2.6259   2.7636   2.7842   2.8752   2.9461   3.1011   3.2492
     3.4224   3.4779   3.5302   3.6805   3.7706   3.8378   3.9385   4.0023
     4.0733   4.1947   4.2484   4.3503   4.4663   4.5512   4.6228   4.7229
     4.7975   4.8720   4.9076   4.9751   5.0575   5.1161   5.1682   5.2203
     5.3461   5.4136   5.4603   5.5264   5.6073   5.6466   5.8689   5.9250
     6.4268   6.5728   6.6789   6.7490   6.7913   6.8699   6.9161   6.9454
     6.9858   7.0748   7.0845   7.1697   7.2036   7.2518   7.3249   7.3617
     7.5297   7.5776   7.6049   7.6304   7.8864   7.9003   7.9412   7.9515
    10.7012  10.7416  10.9169  11.0621  11.1886  11.3787  11.8187  11.9256
    12.0387  12.1004  12.2067  12.3236  12.4408  12.5005  12.5842  12.6855
    12.8208  12.8647  12.9697  13.0638  13.2537  13.3186  13.6006  13.6226
    15.0906  15.1407  15.3577  15.5367  15.7581  15.9367  16.1303  16.1807
    16.5826  16.6989  16.8202  17.1255  17.4631

          k = 0.1667 0.3150-0.5000 ( 62264 PWs)   bands (ev):

   -66.1765 -66.1765 -66.1763 -66.1763 -66.1756 -66.1756 -66.1754 -66.1754
   -30.7374 -30.7374 -30.6963 -30.6963 -30.6930 -30.6930 -30.6515 -30.6515
   -30.4799 -30.4799 -30.4443 -30.4443 -30.4388 -30.4388 -30.4033 -30.4033
   -30.3785 -30.3785 -30.3740 -30.3740 -30.3529 -30.3529 -30.3495 -30.3495
   -20.3360 -20.3360 -20.3358 -20.3358 -20.3356 -20.3356 -20.3354 -20.3354
   -20.3248 -20.3248 -20.3227 -20.3227 -20.3225 -20.3225 -20.3211 -20.3211
   -20.3206 -20.3206 -20.3200 -20.3200 -20.3198 -20.3198 -20.3184 -20.3184
   -20.3044 -20.3044 -20.3038 -20.3038 -20.3036 -20.3035 -20.3029 -20.3029
   -20.3001 -20.3001 -20.2999 -20.2998 -20.2980 -20.2980 -20.2977 -20.2976
   -20.2959 -20.2959 -20.2942 -20.2942 -20.2935 -20.2935 -20.2925 -20.2924
   -20.2892 -20.2892 -20.2880 -20.2880 -20.2875 -20.2875 -20.2859 -20.2859
    -9.6924  -9.6924  -9.3972  -9.3972  -8.9860  -8.9859  -8.7747  -8.7747
    -8.6144  -8.6144  -8.5351  -8.5351  -8.2208  -8.2208  -8.1894  -8.1894
    -8.1564  -8.1564  -7.8285  -7.8285  -7.7483  -7.7483  -7.6935  -7.6935
     1.3587   1.3587   1.6841   1.6841   2.6728   2.6728   2.7937   2.7937
     2.8447   2.8447   2.9173   2.9173   3.0352   3.0352   3.1474   3.1474
     3.2465   3.2465   3.3803   3.3804   3.6283   3.6283   3.8198   3.8199
     3.9650   3.9650   4.0838   4.0838   4.3693   4.3693   4.5154   4.5154
     4.7232   4.7233   4.8100   4.8100   5.0484   5.0484   5.1673   5.1673
     5.2561   5.2561   5.4117   5.4117   5.6224   5.6224   5.8922   5.8922
     6.5260   6.5261   6.7253   6.7253   6.7944   6.7944   6.9646   6.9646
     7.1444   7.1444   7.2094   7.2094   7.2784   7.2784   7.3844   7.3844
     7.4486   7.4486   7.7828   7.7828   7.8129   7.8130   7.9382   7.9382
    10.7602  10.7602  11.4484  11.4484  11.6059  11.6059  11.7305  11.7305
    11.9977  11.9977  12.0574  12.0574  12.4591  12.4591  12.5609  12.5609
    12.7587  12.7587  12.9226  12.9226  13.3213  13.3213  13.4691  13.4691
    15.1245  15.1245  15.5963  15.5963  15.9499  15.9499  16.2740  16.2740
    16.7884  16.7884  17.3587  17.3589  17.4787

          k = 0.1667-0.4725 0.1667 ( 62220 PWs)   bands (ev):

   -66.1768 -66.1768 -66.1760 -66.1760 -66.1759 -66.1759 -66.1751 -66.1751
   -30.7391 -30.7391 -30.7356 -30.7356 -30.6532 -30.6532 -30.6498 -30.6498
   -30.4830 -30.4830 -30.4765 -30.4765 -30.4053 -30.4053 -30.4008 -30.4008
   -30.3677 -30.3677 -30.3644 -30.3644 -30.3634 -30.3634 -30.3600 -30.3600
   -20.3361 -20.3361 -20.3359 -20.3359 -20.3355 -20.3355 -20.3353 -20.3353
   -20.3249 -20.3249 -20.3247 -20.3247 -20.3211 -20.3211 -20.3210 -20.3210
   -20.3207 -20.3207 -20.3206 -20.3206 -20.3185 -20.3185 -20.3183 -20.3183
   -20.3045 -20.3045 -20.3043 -20.3043 -20.3031 -20.3031 -20.3027 -20.3027
   -20.2992 -20.2992 -20.2989 -20.2989 -20.2988 -20.2988 -20.2986 -20.2986
   -20.2963 -20.2963 -20.2954 -20.2954 -20.2928 -20.2928 -20.2921 -20.2921
   -20.2895 -20.2895 -20.2890 -20.2890 -20.2862 -20.2862 -20.2856 -20.2856
    -9.8473  -9.8473  -9.5841  -9.5841  -9.1510  -9.1510  -8.9791  -8.9791
    -8.2963  -8.2963  -8.1964  -8.1964  -8.0450  -8.0449  -8.0164  -8.0164
    -7.9858  -7.9858  -7.9321  -7.9321  -7.8470  -7.8470  -7.7646  -7.7645
     1.3076   1.3076   1.3713   1.3713   1.6725   1.6725   1.8457   1.8457
     2.3542   2.3542   3.0054   3.0054   3.1280   3.1280   3.5230   3.5230
     3.5654   3.5654   3.7062   3.7062   3.8465   3.8465   4.0410   4.0410
     4.1031   4.1031   4.1694   4.1694   4.2445   4.2446   4.9876   4.9876
     5.0899   5.0899   5.1825   5.1825   5.2913   5.2913   5.4165   5.4165
     5.5083   5.5083   5.6048   5.6048   5.7324   5.7324   5.8798   5.8798
     6.4673   6.4673   6.6439   6.6439   6.6700   6.6701   6.8377   6.8377
     7.0278   7.0278   7.0702   7.0702   7.1580   7.1580   7.4605   7.4606
     7.5822   7.5822   7.6676   7.6676   7.7808   7.7808   7.8115   7.8115
    10.4471  10.4471  11.1059  11.1059  11.1743  11.1743  11.5760  11.5760
    11.7070  11.7070  12.3433  12.3433  12.6231  12.6231  12.7704  12.7704
    12.9706  12.9706  13.1390  13.1390  13.2051  13.2051  13.7476  13.7476
    15.2603  15.2603  15.4797  15.4797  15.8979  15.8979  15.9545  15.9545
    16.2265  16.2265  17.1904  17.1904  17.4531

          k = 0.1667-0.4725 0.3333 ( 62252 PWs)   bands (ev):

   -66.1766 -66.1766 -66.1762 -66.1761 -66.1758 -66.1757 -66.1753 -66.1753
   -30.7384 -30.7364 -30.7210 -30.7177 -30.6714 -30.6681 -30.6525 -30.6505
   -30.4817 -30.4780 -30.4666 -30.4606 -30.4218 -30.4168 -30.4044 -30.4018
   -30.3669 -30.3668 -30.3650 -30.3643 -30.3635 -30.3626 -30.3610 -30.3607
   -20.3361 -20.3360 -20.3360 -20.3358 -20.3356 -20.3355 -20.3354 -20.3354
   -20.3248 -20.3247 -20.3239 -20.3238 -20.3216 -20.3215 -20.3211 -20.3211
   -20.3207 -20.3206 -20.3204 -20.3203 -20.3192 -20.3191 -20.3184 -20.3183
   -20.3044 -20.3043 -20.3042 -20.3040 -20.3034 -20.3031 -20.3030 -20.3028
   -20.2991 -20.2991 -20.2990 -20.2989 -20.2989 -20.2988 -20.2987 -20.2986
   -20.2961 -20.2956 -20.2953 -20.2945 -20.2933 -20.2927 -20.2926 -20.2923
   -20.2894 -20.2891 -20.2889 -20.2884 -20.2870 -20.2865 -20.2861 -20.2857
    -9.7673  -9.6460  -9.6197  -9.3375  -9.2275  -8.9243  -8.9182  -8.8130
    -8.5862  -8.4973  -8.3364  -8.2139  -8.2086  -8.1012  -8.0398  -8.0335
    -8.0088  -7.9896  -7.9582  -7.9546  -7.9228  -7.8918  -7.8281  -7.7814
     1.3466   1.3674   1.6419   1.6827   2.0197   2.2156   2.3048   2.4146
     2.6100   2.6182   3.0180   3.0251   3.2148   3.2560   3.3939   3.4796
     3.5161   3.5630   3.5717   3.6785   3.7558   3.8282   3.8528   3.9880
     4.0208   4.0454   4.1053   4.1569   4.2726   4.3307   4.5061   4.5683
     4.6919   4.7428   4.8561   4.8980   4.9696   5.0626   5.1339   5.1924
     5.2176   5.2406   5.3457   5.4745   5.5920   5.6366   5.7722   5.8398
     6.4327   6.5855   6.7032   6.7591   6.8155   6.8707   6.9057   6.9791
     7.0086   7.0631   7.0972   7.2443   7.2873   7.3298   7.4611   7.4931
     7.5831   7.6029   7.6599   7.6844   7.7852   7.7997   7.8139   7.8365
    10.8587  10.9558  11.1233  11.2139  11.4238  11.4933  11.5952  11.7337
    11.8521  11.9560  12.0715  12.3085  12.4951  12.5176  12.6017  12.6909
    12.8028  12.8092  12.8817  12.9324  13.1750  13.2686  13.5711  13.6100
    15.2844  15.4442  15.6467  15.8901  16.0852  16.1774  16.2428  16.3854
    16.4564  16.5969  16.9497  17.0899  17.1976

          k = 0.1667-0.4725-0.5000 ( 62232 PWs)   bands (ev):

   -66.1764 -66.1764 -66.1763 -66.1763 -66.1756 -66.1756 -66.1755 -66.1755
   -30.7374 -30.7374 -30.6963 -30.6963 -30.6930 -30.6930 -30.6515 -30.6515
   -30.4799 -30.4799 -30.4442 -30.4442 -30.4388 -30.4388 -30.4031 -30.4031
   -30.3660 -30.3660 -30.3655 -30.3655 -30.3623 -30.3623 -30.3616 -30.3616
   -20.3360 -20.3360 -20.3358 -20.3358 -20.3356 -20.3356 -20.3354 -20.3354
   -20.3248 -20.3248 -20.3227 -20.3227 -20.3225 -20.3225 -20.3211 -20.3211
   -20.3206 -20.3206 -20.3200 -20.3200 -20.3198 -20.3198 -20.3184 -20.3184
   -20.3044 -20.3044 -20.3038 -20.3038 -20.3035 -20.3035 -20.3029 -20.3029
   -20.2991 -20.2991 -20.2990 -20.2990 -20.2988 -20.2988 -20.2987 -20.2987
   -20.2959 -20.2959 -20.2943 -20.2942 -20.2935 -20.2935 -20.2925 -20.2925
   -20.2892 -20.2892 -20.2880 -20.2880 -20.2875 -20.2875 -20.2859 -20.2859
    -9.6840  -9.6840  -9.3979  -9.3979  -8.9771  -8.9771  -8.7739  -8.7739
    -8.6024  -8.6024  -8.5262  -8.5262  -8.1953  -8.1953  -8.0399  -8.0399
    -7.9977  -7.9977  -7.9653  -7.9653  -7.9151  -7.9151  -7.8046  -7.8046
     1.3588   1.3588   1.6840   1.6841   2.8029   2.8029   2.8488   2.8488
     2.9100   2.9100   3.0640   3.0640   3.2044   3.2044   3.2264   3.2264
     3.3992   3.3993   3.5256   3.5256   3.5660   3.5660   3.7266   3.7266
     3.8781   3.8781   4.1232   4.1232   4.3589   4.3589   4.4473   4.4473
     4.5993   4.5994   4.6446   4.6446   4.7939   4.7939   4.9027   4.9027
     5.1767   5.1767   5.3815   5.3815   5.6170   5.6170   5.8042   5.8042
     6.5332   6.5332   6.7439   6.7439   6.7987   6.7987   6.9779   6.9779
     7.2434   7.2435   7.2950   7.2950   7.3307   7.3307   7.3931   7.3931
     7.5244   7.5244   7.7657   7.7657   7.8052   7.8053   7.8178   7.8178
    11.0793  11.0793  11.4707  11.4707  11.5578  11.5578  11.7873  11.7873
    11.9350  11.9350  12.1129  12.1129  12.3235  12.3235  12.3928  12.3928
    12.7577  12.7577  12.8352  12.8352  13.3011  13.3011  13.4230  13.4230
    15.3712  15.3712  15.8264  15.8264  16.4860  16.4860  16.7200  16.7200
    16.7704  16.7704  16.9642  16.9642  17.0211

          k = 0.3333 0.0000 0.3333 ( 62316 PWs)   bands (ev):

   -66.1767 -66.1762 -66.1762 -66.1762 -66.1758 -66.1757 -66.1757 -66.1753
   -30.7205 -30.7202 -30.7184 -30.7184 -30.6708 -30.6707 -30.6689 -30.6687
   -30.4657 -30.4653 -30.4621 -30.4620 -30.4215 -30.4211 -30.4190 -30.4178
   -30.3915 -30.3886 -30.3884 -30.3855 -30.3403 -30.3385 -30.3384 -30.3367
   -20.3360 -20.3359 -20.3358 -20.3358 -20.3356 -20.3356 -20.3355 -20.3354
   -20.3239 -20.3239 -20.3238 -20.3238 -20.3217 -20.3216 -20.3216 -20.3216
   -20.3205 -20.3204 -20.3204 -20.3202 -20.3192 -20.3192 -20.3191 -20.3191
   -20.3042 -20.3041 -20.3041 -20.3040 -20.3034 -20.3034 -20.3033 -20.3031
   -20.3012 -20.3011 -20.3009 -20.3009 -20.2970 -20.2969 -20.2967 -20.2965
   -20.2951 -20.2951 -20.2947 -20.2946 -20.2932 -20.2932 -20.2929 -20.2927
   -20.2889 -20.2888 -20.2885 -20.2885 -20.2869 -20.2869 -20.2867 -20.2865
    -9.6470  -9.4714  -9.4144  -9.4018  -9.0416  -9.0242  -8.8072  -8.7741
    -8.7599  -8.5764  -8.4858  -8.4791  -8.4146  -8.3980  -8.3900  -8.3372
    -8.1211  -8.1117  -8.0945  -8.0438  -7.4837  -7.4456  -7.4434  -7.4069
     1.9253   1.9590   1.9673   2.0046   2.1454   2.1726   2.2199   2.2410
     2.3473   2.3680   2.4475   2.5968   2.8342   2.9439   2.9596   3.1198
     3.2154   3.2478   3.4972   3.6189   3.8560   3.8985   4.0127   4.0137
     4.0784   4.1517   4.2573   4.2662   4.3804   4.4134   4.4679   4.5074
     4.5381   4.6712   4.8602   4.9163   4.9774   5.0057   5.0562   5.1271
     5.1592   5.3848   5.5346   5.6562   6.1572   6.1616   6.2426   6.2862
     6.5496   6.5918   6.6912   6.7209   6.7929   6.8086   6.8304   6.9361
     6.9857   7.0569   7.1090   7.1220   7.1685   7.2445   7.3263   7.3796
     7.4606   7.5287   7.5468   7.5798   7.9029   7.9724   8.0455   8.1047
    10.6670  10.6992  10.8985  10.9178  11.4257  11.5267  11.9383  11.9706
    12.0912  12.1299  12.3470  12.3486  12.5696  12.6862  12.6990  12.7251
    12.7798  12.8880  13.0360  13.1852  13.2151  13.3350  13.3738  13.5125
    14.3133  14.4902  14.5260  14.7964  15.7479  16.0707  16.4072  16.4694
    16.6358  17.0574  17.1872  17.4190  17.5389

          k = 0.3333 0.0000-0.5000 ( 62288 PWs)   bands (ev):

   -66.1764 -66.1764 -66.1760 -66.1760 -66.1759 -66.1759 -66.1755 -66.1755
   -30.7194 -30.7194 -30.6956 -30.6956 -30.6937 -30.6937 -30.6698 -30.6698
   -30.4638 -30.4638 -30.4433 -30.4433 -30.4402 -30.4402 -30.4199 -30.4198
   -30.3901 -30.3901 -30.3871 -30.3871 -30.3394 -30.3394 -30.3376 -30.3376
   -20.3359 -20.3359 -20.3357 -20.3357 -20.3356 -20.3356 -20.3355 -20.3355
   -20.3239 -20.3239 -20.3228 -20.3228 -20.3225 -20.3225 -20.3216 -20.3216
   -20.3204 -20.3204 -20.3200 -20.3200 -20.3198 -20.3198 -20.3191 -20.3191
   -20.3041 -20.3041 -20.3038 -20.3038 -20.3036 -20.3036 -20.3033 -20.3033
   -20.3011 -20.3011 -20.3009 -20.3009 -20.2969 -20.2969 -20.2966 -20.2966
   -20.2949 -20.2949 -20.2941 -20.2941 -20.2937 -20.2937 -20.2930 -20.2930
   -20.2887 -20.2887 -20.2879 -20.2879 -20.2876 -20.2876 -20.2867 -20.2867
    -9.4938  -9.4938  -9.2384  -9.2384  -9.0707  -9.0707  -8.7863  -8.7863
    -8.6789  -8.6789  -8.5467  -8.5467  -8.4009  -8.4009  -8.3448  -8.3447
    -8.3231  -8.3231  -8.0897  -8.0897  -7.4643  -7.4643  -7.4258  -7.4258
     1.9671   1.9671   2.1355   2.1355   2.2242   2.2242   2.3234   2.3234
     2.8770   2.8770   2.9541   2.9542   3.0054   3.0054   3.1192   3.1192
     3.2654   3.2654   3.4152   3.4152   3.6343   3.6343   3.7465   3.7466
     3.8720   3.8720   4.0675   4.0675   4.2139   4.2139   4.2921   4.2922
     4.5240   4.5240   4.7361   4.7361   4.9499   4.9499   5.0034   5.0034
     5.1839   5.1839   5.5333   5.5333   6.1926   6.1926   6.2866   6.2866
     6.6465   6.6465   6.6594   6.6594   6.7928   6.7928   6.8864   6.8864
     7.0472   7.0472   7.1510   7.1510   7.3195   7.3195   7.4113   7.4113
     7.4436   7.4436   7.7554   7.7554   7.8076   7.8076   8.0510   8.0510
    10.7790  10.7790  11.4329  11.4329  11.4852  11.4852  11.8998  11.8998
    12.0785  12.0785  12.1307  12.1307  12.6116  12.6116  12.7263  12.7263
    12.8975  12.8975  13.0286  13.0286  13.0851  13.0851  13.3692  13.3692
    14.4175  14.4175  14.6662  14.6662  16.1544  16.1544  16.6964  16.6964
    16.9644  16.9644  17.3625  17.3625  17.9143

          k = 0.3333 0.1575 0.3333 ( 62283 PWs)   bands (ev):

   -66.1766 -66.1763 -66.1761 -66.1761 -66.1758 -66.1758 -66.1756 -66.1753
   -30.7205 -30.7202 -30.7184 -30.7184 -30.6708 -30.6707 -30.6689 -30.6687
   -30.4657 -30.4653 -30.4621 -30.4620 -30.4213 -30.4210 -30.4187 -30.4178
   -30.3881 -30.3854 -30.3852 -30.3824 -30.3438 -30.3419 -30.3419 -30.3400
   -20.3360 -20.3359 -20.3358 -20.3358 -20.3356 -20.3356 -20.3355 -20.3354
   -20.3239 -20.3239 -20.3238 -20.3238 -20.3217 -20.3216 -20.3216 -20.3216
   -20.3205 -20.3204 -20.3204 -20.3203 -20.3192 -20.3192 -20.3191 -20.3191
   -20.3042 -20.3041 -20.3040 -20.3040 -20.3034 -20.3033 -20.3032 -20.3031
   -20.3009 -20.3008 -20.3007 -20.3006 -20.2973 -20.2971 -20.2969 -20.2968
   -20.2952 -20.2951 -20.2947 -20.2946 -20.2932 -20.2932 -20.2929 -20.2927
   -20.2889 -20.2888 -20.2885 -20.2885 -20.2869 -20.2869 -20.2866 -20.2865
    -9.6310  -9.4802  -9.4051  -9.3941  -9.0372  -9.0218  -8.7942  -8.7741
    -8.7366  -8.5789  -8.4806  -8.4763  -8.3766  -8.3612  -8.3473  -8.3104
    -8.1179  -8.1106  -8.0946  -8.0405  -7.5604  -7.5243  -7.5214  -7.4868
     1.9534   1.9925   1.9926   2.0114   2.2646   2.2878   2.2999   2.3366
     2.4172   2.4486   2.4517   2.6345   2.8431   2.9456   3.0231   3.1983
     3.2648   3.3238   3.5009   3.6175   3.8504   3.8912   4.0110   4.0254
     4.0823   4.1704   4.2307   4.2557   4.3128   4.4149   4.4724   4.4912
     4.5342   4.6517   4.7891   4.8690   4.8922   4.9030   4.9512   5.0856
     5.1106   5.2611   5.3685   5.5464   5.9190   5.9785   6.0171   6.0872
[...]
   -20.0630 -20.0630 -20.0626 -20.0626 -20.0625 -20.0624 -20.0620 -20.0620
   -20.0609 -20.0609 -20.0607 -20.0607 -20.0577 -20.0577 -20.0574 -20.0574
   -20.0531 -20.0531 -20.0521 -20.0521 -20.0519 -20.0519 -20.0509 -20.0509
   -20.0450 -20.0450 -20.0447 -20.0447 -20.0444 -20.0444 -20.0440 -20.0440
    -9.1598  -9.1598  -8.9022  -8.9021  -8.8458  -8.8458  -8.5274  -8.5273
    -8.4433  -8.4433  -8.2760  -8.2760  -8.2350  -8.2350  -8.0841  -8.0841
    -7.9953  -7.9953  -7.8837  -7.8837  -7.8617  -7.8617  -7.7204  -7.7204
     2.3533   2.3533   2.5298   2.5298   2.5810   2.5810   2.7454   2.7454
     3.1832   3.1832   3.2881   3.2881   3.3457   3.3457   3.4524   3.4524
     3.5958   3.5958   3.7406   3.7406   3.8772   3.8772   3.9698   3.9698
     4.1780   4.1780   4.2845   4.2845   4.3292   4.3292   4.4606   4.4606
     4.6193   4.6193   4.7807   4.7807   4.8265   4.8266   5.0351   5.0351
     5.1265   5.1265   5.2074   5.2074   5.3501   5.3501   5.6136   5.6136
     6.9733   6.9733   7.1319   7.1320   7.1591   7.1591   7.2521   7.2521
     7.3529   7.3529   7.4313   7.4313   7.5443   7.5443   7.6917   7.6917
     7.7156   7.7156   7.8381   7.8381   7.8631   7.8631   8.0323   8.0323
    11.3875  11.3875  11.8066  11.8066  11.9463  11.9463  12.0782  12.0782
    12.2902  12.2902  12.4324  12.4324  12.6205  12.6205  12.8065  12.8065
    12.9309  12.9309  13.0538  13.0538  13.1495  13.1495  13.4215  13.4215
    16.0637  16.0637  16.3985  16.3985  16.7425  16.7425  16.8719  16.8719
    17.0950  17.0950  17.5104  17.5104  17.8564

          k = 0.3294-0.4898 0.3294 ( 61502 PWs)   bands (ev):

   -65.9409 -65.9409 -65.9405 -65.9405 -65.9405 -65.9405 -65.9401 -65.9401
   -30.4255 -30.4255 -30.4236 -30.4236 -30.3835 -30.3835 -30.3816 -30.3816
   -30.2498 -30.2498 -30.2484 -30.2484 -30.2470 -30.2470 -30.2456 -30.2456
   -30.1921 -30.1921 -30.1891 -30.1891 -30.1530 -30.1530 -30.1504 -30.1504
   -20.0995 -20.0995 -20.0993 -20.0993 -20.0992 -20.0992 -20.0990 -20.0990
   -20.0870 -20.0870 -20.0870 -20.0870 -20.0863 -20.0863 -20.0862 -20.0862
   -20.0751 -20.0751 -20.0750 -20.0750 -20.0730 -20.0730 -20.0728 -20.0728
   -20.0630 -20.0630 -20.0629 -20.0629 -20.0620 -20.0620 -20.0619 -20.0619
   -20.0594 -20.0594 -20.0593 -20.0593 -20.0591 -20.0591 -20.0590 -20.0590
   -20.0532 -20.0532 -20.0530 -20.0530 -20.0510 -20.0510 -20.0508 -20.0508
   -20.0451 -20.0451 -20.0448 -20.0448 -20.0442 -20.0442 -20.0439 -20.0439
    -9.1809  -9.1809  -9.0170  -9.0170  -8.7160  -8.7160  -8.4441  -8.4441
    -8.4003  -8.4003  -8.2404  -8.2404  -8.1812  -8.1812  -8.1522  -8.1522
    -8.0994  -8.0994  -8.0500  -8.0500  -7.7502  -7.7502  -7.7046  -7.7046
     2.3760   2.3760   2.4014   2.4014   2.6851   2.6851   2.7916   2.7916
     3.0878   3.0878   3.2030   3.2030   3.3447   3.3448   3.4067   3.4067
     3.4680   3.4680   3.8594   3.8594   4.0394   4.0394   4.0660   4.0660
     4.0999   4.0999   4.2742   4.2742   4.3597   4.3597   4.4753   4.4753
     4.7062   4.7062   4.7872   4.7872   4.8811   4.8812   5.0538   5.0538
     5.1351   5.1351   5.1900   5.1900   5.2966   5.2966   5.4857   5.4857
     6.9857   6.9857   7.1215   7.1215   7.2130   7.2130   7.3086   7.3086
     7.3882   7.3882   7.4508   7.4508   7.5289   7.5289   7.6277   7.6277
     7.6944   7.6944   7.8401   7.8401   7.9192   7.9192   7.9506   7.9506
    11.4373  11.4373  11.7456  11.7456  11.8732  11.8732  12.1849  12.1849
    12.3022  12.3022  12.4601  12.4601  12.6035  12.6035  12.7074  12.7074
    12.8898  12.8898  13.0248  13.0248  13.1035  13.1035  13.4511  13.4511
    15.9542  15.9542  16.3370  16.3370  16.7400  16.7400  16.8707  16.8707
    17.2079  17.2079  17.7095  17.7096  17.8524

          k = 0.3294-0.4898-0.4941 ( 61460 PWs)   bands (ev):

   -65.9407 -65.9407 -65.9407 -65.9407 -65.9403 -65.9403 -65.9403 -65.9403
   -30.4245 -30.4245 -30.4045 -30.4045 -30.4026 -30.4026 -30.3825 -30.3825
   -30.2492 -30.2492 -30.2484 -30.2484 -30.2471 -30.2471 -30.2464 -30.2464
   -30.1906 -30.1906 -30.1725 -30.1725 -30.1697 -30.1697 -30.1517 -30.1517
   -20.0994 -20.0994 -20.0993 -20.0993 -20.0991 -20.0991 -20.0991 -20.0991
   -20.0870 -20.0870 -20.0867 -20.0866 -20.0866 -20.0866 -20.0862 -20.0862
   -20.0751 -20.0751 -20.0741 -20.0741 -20.0739 -20.0739 -20.0729 -20.0729
   -20.0630 -20.0630 -20.0625 -20.0625 -20.0624 -20.0624 -20.0620 -20.0620
   -20.0594 -20.0594 -20.0593 -20.0593 -20.0591 -20.0591 -20.0590 -20.0590
   -20.0531 -20.0531 -20.0521 -20.0521 -20.0519 -20.0519 -20.0509 -20.0509
   -20.0450 -20.0450 -20.0447 -20.0447 -20.0444 -20.0444 -20.0440 -20.0440
    -9.0874  -9.0874  -8.9199  -8.9199  -8.7098  -8.7097  -8.5415  -8.5415
    -8.3346  -8.3346  -8.2619  -8.2618  -8.1921  -8.1921  -8.1635  -8.1634
    -8.0779  -8.0779  -8.0293  -8.0293  -7.9582  -7.9582  -7.7271  -7.7271
     2.4033   2.4033   2.6798   2.6798   3.0079   3.0079   3.1364   3.1364
     3.2388   3.2388   3.3026   3.3026   3.3535   3.3536   3.3883   3.3883
     3.6062   3.6062   3.6548   3.6548   3.7844   3.7844   4.0683   4.0683
     4.1162   4.1162   4.2112   4.2112   4.3183   4.3183   4.4982   4.4982
     4.6078   4.6078   4.6444   4.6444   4.7160   4.7160   4.7577   4.7578
     4.8979   4.8979   5.0454   5.0454   5.2395   5.2395   5.2736   5.2736
     7.0418   7.0418   7.2393   7.2394   7.2891   7.2891   7.3170   7.3170
     7.4211   7.4211   7.5176   7.5176   7.5911   7.5912   7.6704   7.6704
     7.7179   7.7179   7.8383   7.8383   7.8667   7.8667   7.9364   7.9364
    11.6724  11.6724  11.9185  11.9185  12.0475  12.0475  12.2083  12.2083
    12.2569  12.2569  12.4574  12.4574  12.5862  12.5862  12.6396  12.6396
    12.7350  12.7350  12.8395  12.8395  13.1419  13.1419  13.2194  13.2194
    16.1923  16.1923  16.5656  16.5656  17.1089  17.1089  17.2255  17.2256
    17.4259  17.4259  17.5666  17.5672  17.6509

          k =-0.4941 0.0000-0.4941 ( 61492 PWs)   bands (ev):

   -65.9409 -65.9409 -65.9409 -65.9409 -65.9401 -65.9401 -65.9401 -65.9401
   -30.4053 -30.4053 -30.4048 -30.4048 -30.4026 -30.4025 -30.4022 -30.4022
   -30.2877 -30.2877 -30.2875 -30.2875 -30.2077 -30.2077 -30.2072 -30.2072
   -30.1721 -30.1721 -30.1717 -30.1716 -30.1705 -30.1705 -30.1701 -30.1700
   -20.0993 -20.0993 -20.0993 -20.0993 -20.0992 -20.0991 -20.0991 -20.0991
   -20.0868 -20.0868 -20.0867 -20.0867 -20.0865 -20.0865 -20.0865 -20.0865
   -20.0740 -20.0740 -20.0740 -20.0740 -20.0740 -20.0740 -20.0738 -20.0738
   -20.0631 -20.0630 -20.0628 -20.0628 -20.0626 -20.0626 -20.0626 -20.0625
   -20.0621 -20.0621 -20.0618 -20.0618 -20.0559 -20.0559 -20.0558 -20.0558
   -20.0523 -20.0522 -20.0521 -20.0521 -20.0518 -20.0518 -20.0518 -20.0517
   -20.0448 -20.0448 -20.0448 -20.0447 -20.0443 -20.0443 -20.0442 -20.0442
    -9.1963  -9.1963  -9.1811  -9.1811  -8.6675  -8.6675  -8.6134  -8.6134
    -8.4973  -8.4973  -8.4359  -8.4359  -8.1016  -8.1016  -8.0519  -8.0519
    -8.0357  -8.0357  -7.9811  -7.9811  -7.5141  -7.5141  -7.5123  -7.5123
     1.7245   1.7245   1.7385   1.7385   3.0722   3.0722   3.0929   3.0929
     3.2150   3.2150   3.2186   3.2186   3.4274   3.4274   3.5218   3.5218
     3.5728   3.5728   3.6013   3.6013   3.6954   3.6954   3.7751   3.7751
     3.8350   3.8350   4.0462   4.0462   4.4141   4.4141   4.4575   4.4575
     4.5250   4.5250   4.6681   4.6681   5.2534   5.2534   5.2895   5.2895
     5.6133   5.6134   5.6746   5.6747   6.3466   6.3466   6.3663   6.3663
     6.6086   6.6086   6.6613   6.6613   6.6925   6.6925   6.7033   6.7033
     7.5150   7.5150   7.5339   7.5339   7.5771   7.5771   7.6647   7.6647
     7.7319   7.7319   7.8053   7.8053   7.8185   7.8186   8.0639   8.0640
    11.4342  11.4342  11.6256  11.6256  11.6457  11.6457  11.8171  11.8171
    12.4433  12.4434  12.4941  12.4942  12.5726  12.5726  12.6339  12.6339
    13.2715  13.2715  13.3967  13.3967  13.5178  13.5179  13.6273  13.6273
    15.4977  15.4977  15.5579  15.5579  16.7134  16.7134  17.1109  17.1110
    17.2697  17.2697  17.3370  17.3370  17.5588

          k =-0.4941 0.1633-0.4941 ( 61496 PWs)   bands (ev):

   -65.9408 -65.9408 -65.9408 -65.9408 -65.9402 -65.9402 -65.9402 -65.9402
   -30.4051 -30.4051 -30.4046 -30.4045 -30.4027 -30.4027 -30.4023 -30.4023
   -30.2824 -30.2824 -30.2822 -30.2822 -30.2131 -30.2131 -30.2127 -30.2127
   -30.1720 -30.1720 -30.1716 -30.1716 -30.1706 -30.1706 -30.1702 -30.1702
   -20.0993 -20.0993 -20.0993 -20.0993 -20.0992 -20.0992 -20.0992 -20.0991
   -20.0868 -20.0868 -20.0867 -20.0867 -20.0866 -20.0865 -20.0865 -20.0865
   -20.0740 -20.0740 -20.0740 -20.0740 -20.0740 -20.0740 -20.0739 -20.0739
   -20.0628 -20.0628 -20.0626 -20.0626 -20.0626 -20.0626 -20.0625 -20.0625
   -20.0619 -20.0619 -20.0617 -20.0616 -20.0564 -20.0564 -20.0563 -20.0563
   -20.0522 -20.0522 -20.0521 -20.0521 -20.0518 -20.0518 -20.0518 -20.0518
   -20.0448 -20.0448 -20.0447 -20.0447 -20.0443 -20.0443 -20.0443 -20.0443
    -9.1338  -9.1338  -9.1161  -9.1161  -8.6787  -8.6787  -8.6255  -8.6254
    -8.4787  -8.4787  -8.4193  -8.4193  -8.1029  -8.1029  -8.0523  -8.0523
    -8.0386  -8.0386  -7.9815  -7.9815  -7.6181  -7.6181  -7.6152  -7.6152
     1.9462   1.9463   1.9604   1.9604   3.0825   3.0825   3.1127   3.1127
     3.2158   3.2158   3.2221   3.2221   3.4405   3.4405   3.5586   3.5586
     3.5767   3.5767   3.6034   3.6034   3.7478   3.7478   3.8109   3.8109
     3.8858   3.8858   4.0971   4.0971   4.3975   4.3976   4.4523   4.4523
     4.5129   4.5129   4.6644   4.6644   5.0144   5.0144   5.0417   5.0417
     5.3711   5.3711   5.4033   5.4033   6.0776   6.0777   6.0802   6.0802
     6.7791   6.7791   6.8451   6.8451   6.8954   6.8954   6.9209   6.9209
     7.5159   7.5159   7.5388   7.5388   7.5847   7.5847   7.6744   7.6745
     7.7383   7.7383   7.8211   7.8211   7.8236   7.8236   8.0458   8.0458
    11.5088  11.5088  11.6844  11.6844  11.7192  11.7192  11.8880  11.8880
    12.4502  12.4502  12.4896  12.4896  12.5776  12.5776  12.6353  12.6353
    13.1320  13.1320  13.2549  13.2549  13.4198  13.4198  13.5283  13.5284
    15.7994  15.7994  15.8498  15.8498  16.7685  16.7685  17.1214  17.1215
    17.2419  17.2419  17.3514  17.3514  17.5851

          k =-0.4941 0.3266-0.4941 ( 61456 PWs)   bands (ev):

   -65.9407 -65.9407 -65.9407 -65.9407 -65.9403 -65.9403 -65.9403 -65.9403
   -30.4046 -30.4045 -30.4040 -30.4040 -30.4030 -30.4030 -30.4027 -30.4027
   -30.2679 -30.2679 -30.2677 -30.2677 -30.2278 -30.2278 -30.2275 -30.2275
   -30.1716 -30.1716 -30.1715 -30.1715 -30.1709 -30.1708 -30.1706 -30.1706
   -20.0993 -20.0993 -20.0993 -20.0993 -20.0992 -20.0992 -20.0992 -20.0992
   -20.0867 -20.0867 -20.0867 -20.0866 -20.0866 -20.0866 -20.0865 -20.0865
   -20.0740 -20.0740 -20.0740 -20.0740 -20.0740 -20.0740 -20.0739 -20.0739
   -20.0626 -20.0626 -20.0626 -20.0626 -20.0625 -20.0625 -20.0624 -20.0624
   -20.0609 -20.0609 -20.0607 -20.0607 -20.0576 -20.0576 -20.0575 -20.0575
   -20.0521 -20.0521 -20.0521 -20.0520 -20.0519 -20.0519 -20.0519 -20.0518
   -20.0447 -20.0447 -20.0447 -20.0446 -20.0445 -20.0444 -20.0444 -20.0444
    -8.9776  -8.9776  -8.9496  -8.9495  -8.7169  -8.7169  -8.6691  -8.6691
    -8.4101  -8.4101  -8.3567  -8.3567  -8.1156  -8.1156  -8.0623  -8.0623
    -8.0512  -8.0512  -7.9818  -7.9818  -7.8623  -7.8623  -7.8482  -7.8482
     2.5193   2.5193   2.5318   2.5318   3.0992   3.0992   3.1429   3.1429
     3.2250   3.2250   3.2278   3.2278   3.4812   3.4812   3.5611   3.5611
     3.5957   3.5957   3.6228   3.6228   3.8645   3.8645   3.8666   3.8666
     4.0905   4.0905   4.1874   4.1874   4.3706   4.3706   4.4202   4.4202
     4.4339   4.4339   4.6515   4.6515   4.6738   4.6738   4.6917   4.6917
     4.9465   4.9465   4.9532   4.9532   5.3837   5.3837   5.4079   5.4079
     7.0626   7.0626   7.1650   7.1650   7.1720   7.1720   7.2758   7.2758
     7.5117   7.5117   7.5460   7.5460   7.5765   7.5765   7.6778   7.6778
     7.7764   7.7764   7.8250   7.8251   7.8374   7.8374   7.9819   7.9820
    11.7492  11.7492  11.8452  11.8452  11.9606  11.9606  12.0870  12.0870
    12.4561  12.4562  12.4611  12.4611  12.5935  12.5935  12.6430  12.6430
    12.8098  12.8098  12.9206  12.9206  13.1215  13.1215  13.2092  13.2092
    16.5588  16.5589  16.5814  16.5814  16.9520  16.9521  17.1492  17.1492
    17.1542  17.1542  17.3852  17.3852  17.6603

          k =-0.4941-0.4898-0.4941 ( 61448 PWs)   bands (ev):

   -65.9405 -65.9405 -65.9405 -65.9405 -65.9405 -65.9405 -65.9405 -65.9405
   -30.4042 -30.4042 -30.4033 -30.4033 -30.4033 -30.4033 -30.4033 -30.4033
   -30.2480 -30.2480 -30.2480 -30.2480 -30.2480 -30.2480 -30.2474 -30.2474
   -30.1713 -30.1713 -30.1712 -30.1712 -30.1712 -30.1712 -30.1709 -30.1709
   -20.0993 -20.0993 -20.0992 -20.0992 -20.0992 -20.0992 -20.0992 -20.0992
   -20.0867 -20.0867 -20.0866 -20.0866 -20.0866 -20.0866 -20.0866 -20.0866
   -20.0740 -20.0740 -20.0740 -20.0740 -20.0740 -20.0740 -20.0739 -20.0739
   -20.0625 -20.0625 -20.0625 -20.0625 -20.0625 -20.0625 -20.0624 -20.0624
   -20.0593 -20.0593 -20.0592 -20.0592 -20.0592 -20.0592 -20.0591 -20.0591
   -20.0520 -20.0520 -20.0520 -20.0520 -20.0520 -20.0520 -20.0519 -20.0519
   -20.0446 -20.0446 -20.0446 -20.0446 -20.0446 -20.0446 -20.0445 -20.0445
    -8.8451  -8.8451  -8.7799  -8.7799  -8.7723  -8.7723  -8.7723  -8.7723
    -8.3018  -8.3018  -8.2171  -8.2170  -8.2170  -8.2170  -8.1644  -8.1644
    -8.0300  -8.0300  -8.0300  -8.0300  -7.9792  -7.9792  -7.9607  -7.9607
     3.0477   3.0477   3.0477   3.0477   3.0665   3.0665   3.0988   3.0988
     3.2197   3.2197   3.3742   3.3742   3.3743   3.3743   3.5095   3.5095
     3.6014   3.6014   3.6942   3.6942   3.7020   3.7020   3.7020   3.7020
     4.2991   4.2991   4.3061   4.3061   4.3970   4.3970   4.3970   4.3970
     4.5680   4.5680   4.5739   4.5739   4.5739   4.5739   4.6769   4.6769
     4.7190   4.7190   4.8188   4.8188   4.8188   4.8188   4.8231   4.8231
     7.1833   7.1833   7.2964   7.2964   7.2964   7.2964   7.4460   7.4460
     7.5274   7.5274   7.5274   7.5274   7.5621   7.5621   7.6644   7.6644
     7.8306   7.8306   7.8306   7.8306   7.8539   7.8540   7.8861   7.8861
    12.0260  12.0260  12.0762  12.0762  12.0762  12.0762  12.1567  12.1567
    12.4722  12.4722  12.4722  12.4722  12.4832  12.4832  12.6338  12.6338
    12.6885  12.6885  12.8314  12.8314  12.8314  12.8314  12.8837  12.8837
    16.9971  16.9972  16.9972  16.9972  17.1197  17.1197  17.1878  17.1878
    17.6026  17.6026  17.6217  17.6217  17.6217

     the Fermi energy is     9.2077 ev

!    total energy              =   -6261.06370202 Ry
     Harris-Foulkes estimate   =   -6261.06370202 Ry
     estimated scf accuracy    <          5.8E-11 Ry

     The total energy is the sum of the following terms:

     one-electron contribution =   -4649.14489179 Ry
     hartree contribution      =    2564.21306762 Ry
     xc contribution           =    -965.62542630 Ry
     ewald contribution        =   -3210.50645155 Ry
     smearing contrib. (-TS)   =      -0.00000000 Ry

     convergence has been achieved in  14 iterations

     Forces acting on atoms (cartesian axes, Ry/au):

     atom    1 type  1   force =     0.07160424   -0.01582055    0.00782202
     atom    2 type  1   force =    -0.00782202    0.01582055    0.07160424
     atom    3 type  1   force =    -0.07160424    0.01582055    0.00782202
     atom    4 type  1   force =     0.00782202   -0.01582055    0.07160424
     atom    5 type  1   force =    -0.07160424   -0.01582055   -0.00782202
     atom    6 type  1   force =     0.00782202    0.01582055   -0.07160424
     atom    7 type  1   force =     0.07160424    0.01582055   -0.00782202
     atom    8 type  1   force =    -0.00782202   -0.01582055   -0.07160424
     atom    9 type  2   force =    -0.00180187    0.00173181    0.00561884
     atom   10 type  2   force =    -0.00561884   -0.00173181   -0.00180187
     atom   11 type  2   force =     0.00180187   -0.00173181    0.00561884
     atom   12 type  2   force =     0.00561884    0.00173181   -0.00180187
     atom   13 type  2   force =     0.00180187    0.00173181   -0.00561884
     atom   14 type  2   force =     0.00561884   -0.00173181    0.00180187
     atom   15 type  2   force =    -0.00180187   -0.00173181   -0.00561884
     atom   16 type  2   force =    -0.00561884    0.00173181    0.00180187
     atom   17 type  2   force =     0.04601090   -0.00517785   -0.00313521
     atom   18 type  2   force =     0.00082148   -0.00461697   -0.00277994
     atom   19 type  2   force =    -0.04601090    0.00517785   -0.00313521
     atom   20 type  2   force =    -0.00082148    0.00461697   -0.00277994
     atom   21 type  2   force =    -0.04601090   -0.00517785    0.00313521
     atom   22 type  2   force =    -0.00082148   -0.00461697    0.00277994
     atom   23 type  2   force =     0.04601090    0.00517785    0.00313521
     atom   24 type  2   force =     0.00082148    0.00461697    0.00277994
     atom   25 type  2   force =     0.00277994   -0.00461697   -0.00082148
     atom   26 type  2   force =     0.00313521    0.00517785    0.04601090
     atom   27 type  2   force =    -0.00277994    0.00461697   -0.00082148
     atom   28 type  2   force =    -0.00313521   -0.00517785    0.04601090
     atom   29 type  2   force =    -0.00277994   -0.00461697    0.00082148
     atom   30 type  2   force =    -0.00313521    0.00517785   -0.04601090
     atom   31 type  2   force =     0.00277994    0.00461697    0.00082148
     atom   32 type  2   force =     0.00313521   -0.00517785   -0.04601090

     Total force =     0.000000     Total SCF correction =     0.000000


     Computing stress (Cartesian axis) and pressure

          total   stress  (Ry/bohr**3)                   (kbar)     P=    0.20
   0.00000328   0.00000000   0.00000000          0.48      0.00      0.00
   0.00000000  -0.00000244   0.00000000          0.00     -0.36      0.00
   0.00000000   0.00000000   0.00000328          0.00      0.00      0.48


     Writing output data file Landau_18.save
 
     init_run     :     44.39s CPU     46.38s WALL (       2 calls)
     electrons    :   4162.59s CPU   4292.83s WALL (       7 calls)
     update_pot   :    109.23s CPU    109.67s WALL (       5 calls)
     forces       :    119.54s CPU    122.45s WALL (       7 calls)
     stress       :    706.82s CPU    721.34s WALL (       7 calls)

     Called by init_run:
     wfcinit      :     26.63s CPU     28.28s WALL (       2 calls)
     potinit      :      7.35s CPU      7.44s WALL (       2 calls)

     Called by electrons:
     c_bands      :   3629.52s CPU   3751.91s WALL (      97 calls)
     sum_band     :    490.73s CPU    493.48s WALL (      97 calls)
     v_of_rho     :      9.13s CPU      9.26s WALL (     102 calls)
     mix_rho      :     15.97s CPU     18.70s WALL (      97 calls)

     Called by c_bands:
     init_us_2    :     29.84s CPU     32.54s WALL (     196 calls)
     cegterg      :   3200.81s CPU   3320.38s WALL (      97 calls)

     Called by sum_band:

     Called by *egterg:
     h_psi        :   2515.54s CPU   2529.23s WALL (     388 calls)
     g_psi        :      5.95s CPU      5.97s WALL (     289 calls)
     cdiaghg      :     44.12s CPU     44.33s WALL (     379 calls)

     Called by h_psi:
     h_psi:pot    :   2497.82s CPU   2510.96s WALL (     388 calls)
     h_psi:calbec :    243.06s CPU    248.46s WALL (     388 calls)
     vloc_psi     :   1989.02s CPU   1995.55s WALL (     388 calls)
     add_vuspsi   :    265.73s CPU    266.95s WALL (     388 calls)

     General routines
     calbec       :    277.54s CPU    283.63s WALL (     423 calls)
     fft          :      7.45s CPU      7.47s WALL (     466 calls)
     fftw         :   2040.19s CPU   2046.05s WALL (  126609 calls)
 
     Parallel routines
 
     PWSCF        :     1h25m CPU        1h28m WALL

 
   This run was terminated on:   3:10:16  26Mar2020            

=------------------------------------------------------------------------------=
   JOB DONE.
=------------------------------------------------------------------------------=
