
     Program PWSCF v.6.2 (svn rev. 14038) starts on 20Mar2020 at  0: 0:21 

     This program is part of the open-source Quantum ESPRESSO suite
     for quantum simulation of materials; please cite
         "P. Giannozzi et al., J. Phys.:Condens. Matter 21 395502 (2009);
         "P. Giannozzi et al., J. Phys.:Condens. Matter 29 465901 (2017);
          URL http://www.quantum-espresso.org", 
     in publications or presentations arising from this work. More details at
     http://www.quantum-espresso.org/quote

     Parallel version (MPI), running on    40 processors

     MPI processes distributed on     3 nodes
     K-points division:     npool     =      40
     Reading input from rscf.in

     Current dimensions of program PWSCF are:
     Max number of different atomic species (ntypx) = 10
     Max number of k-points (npk) =  40000
     Max angular momentum in pseudopotentials (lmaxx) =  3

     Subspace diagonalization in iterative solution of the eigenvalue problem:
     a serial algorithm will be used

 
     G-vector sticks info
     --------------------
     sticks:   dense  smooth     PW     G-vecs:    dense   smooth      PW
     Sum        7747    7747   2077               498127   498127   69057
 


     bravais-lattice index     =            0
     lattice parameter (alat)  =      13.8397  a.u.
     unit-cell volume          =    2804.9816 (a.u.)^3
     number of atoms/cell      =           32
     number of atomic types    =            2
     number of electrons       =       368.00
     number of Kohn-Sham states=          221
     kinetic-energy cutoff     =     120.0000  Ry
     charge density cutoff     =     480.0000  Ry
     convergence threshold     =      1.0E-08
     mixing beta               =       0.7000
     number of iterations used =            8  plain     mixing
     Exchange-correlation      = SLA PW NOGX NOGC ( 1  4  0  0 0 0)
     nstep                     =           50


     celldm(1)=  13.839685  celldm(2)=   0.000000  celldm(3)=   0.000000
     celldm(4)=   0.000000  celldm(5)=   0.000000  celldm(6)=   0.000000

     crystal axes: (cart. coord. in units of alat)
               a(1) = (   1.000000   0.000000   0.000000 )  
               a(2) = (   0.000000   1.058160   0.000000 )  
               a(3) = (   0.000000   0.000000   1.000000 )  

     reciprocal axes: (cart. coord. in units 2 pi/alat)
               b(1) = (  1.000000  0.000000  0.000000 )  
               b(2) = (  0.000000  0.945037  0.000000 )  
               b(3) = (  0.000000  0.000000  1.000000 )  


     PseudoPot. # 1 for W  read from file:
     /cluster/scratch/mnoe/QE/pps/W_ONCV_LDA-4.0.upf
     MD5 check sum: ba0307d5d4cd419d6f1d13dc49d7c13a
     Pseudo is Norm-conserving + core correction, Zval = 28.0
     Generated using ONCVPSP code by D. R. Hamann
     Using radial grid of 1380 points,  8 beta functions with: 
                l(1) =   0
                l(2) =   0
                l(3) =   1
                l(4) =   1
                l(5) =   2
                l(6) =   2
                l(7) =   3
                l(8) =   3

     PseudoPot. # 2 for O  read from file:
     /cluster/scratch/mnoe/QE/pps/O_ONCV_LDA-3.0.upf
     MD5 check sum: a1bd6164e7280c17a38c229939bfbd54
     Pseudo is Norm-conserving + core correction, Zval =  6.0
     Generated using ONCVPSP code by D. R. Hamann
     Using radial grid of  926 points,  5 beta functions with: 
                l(1) =   0
                l(2) =   0
                l(3) =   1
                l(4) =   1
                l(5) =   2

     atomic species   valence    mass     pseudopotential
        W             28.00   183.84000     W ( 1.00)
        O              6.00    15.99940     O ( 1.00)

      8 Sym. Ops., with inversion, found ( 6 have fractional translation)



   Cartesian axes

     site n.     atom                  positions (alat units)
         1           W   tau(   1) = (   0.2451492   0.2895265   0.0045807  )
         2           W   tau(   2) = (   0.7548507   0.7686336  -0.0045807  )
         3           W   tau(   3) = (   0.2548508   0.2395536   0.5045807  )
         4           W   tau(   4) = (   0.7451492   0.8186066   0.4954193  )
         5           W   tau(   5) = (   0.7548507   0.2895265   0.4954193  )
         6           W   tau(   6) = (   0.2451492   0.7686336   0.5045807  )
         7           W   tau(   7) = (   0.7451492   0.2395536  -0.0045807  )
         8           W   tau(   8) = (   0.2548508   0.8186066   0.0045807  )
         9           O   tau(   9) = (   0.2410510   0.0064265   0.0014238  )
        10           O   tau(  10) = (   0.7589489  -0.0064266  -0.0014238  )
        11           O   tau(  11) = (   0.2589490   0.5226535   0.5014238  )
        12           O   tau(  12) = (   0.7410510   0.5355066   0.4985762  )
        13           O   tau(  13) = (   0.7589489   0.0064265   0.4985762  )
        14           O   tau(  14) = (   0.2410510  -0.0064266   0.5014238  )
        15           O   tau(  15) = (   0.7410510   0.5226535  -0.0014238  )
        16           O   tau(  16) = (   0.2589490   0.5355066   0.0014238  )
        17           O   tau(  17) = (   0.5013267   0.2548264   0.4697052  )
        18           O   tau(  18) = (   0.4986733   0.8033337   0.5302948  )
        19           O   tau(  19) = (  -0.0013268   0.2742536   0.9697053  )
        20           O   tau(  20) = (   0.0013267   0.7839065   0.0302947  )
        21           O   tau(  21) = (   0.4986733   0.2548264   0.0302947  )
        22           O   tau(  22) = (   0.5013267   0.8033337   0.9697053  )
        23           O   tau(  23) = (   0.0013267   0.2742536   0.5302948  )
        24           O   tau(  24) = (  -0.0013268   0.7839065   0.4697052  )
        25           O   tau(  25) = (   0.7197052   0.2624203   0.7479889  )
        26           O   tau(  26) = (   0.2802947   0.7957398   0.2520111  )
        27           O   tau(  27) = (   0.7802949   0.2666598   0.2479889  )
        28           O   tau(  28) = (   0.2197052   0.7915004   0.7520110  )
        29           O   tau(  29) = (   0.2802947   0.2624203   0.7520110  )
        30           O   tau(  30) = (   0.7197052   0.7957398   0.2479889  )
        31           O   tau(  31) = (   0.2197052   0.2666598   0.2520111  )
        32           O   tau(  32) = (   0.7802949   0.7915004   0.7479889  )

     number of k points=    64  gaussian smearing, width (Ry)=  0.0007
                       cart. coord. in units 2pi/alat
        k(    1) = (   0.0000000   0.0000000   0.0000000), wk =   0.0092593
        k(    2) = (   0.0000000   0.0000000   0.1666667), wk =   0.0185185
        k(    3) = (   0.0000000   0.0000000   0.3333333), wk =   0.0185185
        k(    4) = (   0.0000000   0.0000000  -0.5000000), wk =   0.0092593
        k(    5) = (   0.0000000   0.1575061   0.0000000), wk =   0.0185185
        k(    6) = (   0.0000000   0.1575061   0.1666667), wk =   0.0370370
        k(    7) = (   0.0000000   0.1575061   0.3333333), wk =   0.0370370
        k(    8) = (   0.0000000   0.1575061  -0.5000000), wk =   0.0185185
        k(    9) = (   0.0000000   0.3150122   0.0000000), wk =   0.0185185
        k(   10) = (   0.0000000   0.3150122   0.1666667), wk =   0.0370370
        k(   11) = (   0.0000000   0.3150122   0.3333333), wk =   0.0370370
        k(   12) = (   0.0000000   0.3150122  -0.5000000), wk =   0.0185185
        k(   13) = (   0.0000000  -0.4725183   0.0000000), wk =   0.0092593
        k(   14) = (   0.0000000  -0.4725183   0.1666667), wk =   0.0185185
        k(   15) = (   0.0000000  -0.4725183   0.3333333), wk =   0.0185185
        k(   16) = (   0.0000000  -0.4725183  -0.5000000), wk =   0.0092593
        k(   17) = (   0.1666667   0.0000000   0.1666667), wk =   0.0370370
        k(   18) = (   0.1666667   0.0000000   0.3333333), wk =   0.0370370
        k(   19) = (   0.1666667   0.0000000  -0.5000000), wk =   0.0185185
        k(   20) = (   0.1666667   0.1575061   0.1666667), wk =   0.0740741
        k(   21) = (   0.1666667   0.1575061   0.3333333), wk =   0.0740741
        k(   22) = (   0.1666667   0.1575061  -0.5000000), wk =   0.0370370
        k(   23) = (   0.1666667   0.3150122   0.1666667), wk =   0.0740741
        k(   24) = (   0.1666667   0.3150122   0.3333333), wk =   0.0740741
        k(   25) = (   0.1666667   0.3150122  -0.5000000), wk =   0.0370370
        k(   26) = (   0.1666667  -0.4725183   0.1666667), wk =   0.0370370
        k(   27) = (   0.1666667  -0.4725183   0.3333333), wk =   0.0370370
        k(   28) = (   0.1666667  -0.4725183  -0.5000000), wk =   0.0185185
        k(   29) = (   0.3333333   0.0000000   0.3333333), wk =   0.0370370
        k(   30) = (   0.3333333   0.0000000  -0.5000000), wk =   0.0185185
        k(   31) = (   0.3333333   0.1575061   0.3333333), wk =   0.0740741
        k(   32) = (   0.3333333   0.1575061  -0.5000000), wk =   0.0370370
        k(   33) = (   0.3333333   0.3150122   0.3333333), wk =   0.0740741
        k(   34) = (   0.3333333   0.3150122  -0.5000000), wk =   0.0370370
        k(   35) = (   0.3333333  -0.4725183   0.3333333), wk =   0.0370370
        k(   36) = (   0.3333333  -0.4725183  -0.5000000), wk =   0.0185185
        k(   37) = (  -0.5000000   0.0000000  -0.5000000), wk =   0.0092593
        k(   38) = (  -0.5000000   0.1575061  -0.5000000), wk =   0.0185185
        k(   39) = (  -0.5000000   0.3150122  -0.5000000), wk =   0.0185185
        k(   40) = (  -0.5000000  -0.4725183  -0.5000000), wk =   0.0092593
        k(   41) = (   0.1666667   0.0000000   0.0000000), wk =   0.0185185
        k(   42) = (   0.3333333   0.0000000   0.0000000), wk =   0.0185185
        k(   43) = (  -0.5000000   0.0000000   0.0000000), wk =   0.0092593
        k(   44) = (   0.1666667  -0.1575061   0.0000000), wk =   0.0370370
        k(   45) = (   0.3333333  -0.1575061   0.0000000), wk =   0.0370370
        k(   46) = (  -0.5000000  -0.1575061   0.0000000), wk =   0.0185185
        k(   47) = (   0.1666667  -0.3150122   0.0000000), wk =   0.0370370
        k(   48) = (   0.3333333  -0.3150122   0.0000000), wk =   0.0370370
        k(   49) = (  -0.5000000  -0.3150122   0.0000000), wk =   0.0185185
        k(   50) = (   0.1666667   0.4725183   0.0000000), wk =   0.0185185
        k(   51) = (   0.3333333   0.4725183   0.0000000), wk =   0.0185185
        k(   52) = (  -0.5000000   0.4725183   0.0000000), wk =   0.0092593
        k(   53) = (   0.3333333   0.0000000   0.1666667), wk =   0.0370370
        k(   54) = (  -0.5000000   0.0000000   0.1666667), wk =   0.0185185
        k(   55) = (   0.3333333  -0.1575061   0.1666667), wk =   0.0740741
        k(   56) = (  -0.5000000  -0.1575061   0.1666667), wk =   0.0370370
        k(   57) = (   0.3333333  -0.3150122   0.1666667), wk =   0.0740741
        k(   58) = (  -0.5000000  -0.3150122   0.1666667), wk =   0.0370370
        k(   59) = (   0.3333333   0.4725183   0.1666667), wk =   0.0370370
        k(   60) = (  -0.5000000   0.4725183   0.1666667), wk =   0.0185185
        k(   61) = (  -0.5000000   0.0000000   0.3333333), wk =   0.0185185
        k(   62) = (  -0.5000000  -0.1575061   0.3333333), wk =   0.0370370
        k(   63) = (  -0.5000000  -0.3150122   0.3333333), wk =   0.0370370
        k(   64) = (  -0.5000000   0.4725183   0.3333333), wk =   0.0185185

     Dense  grid:   498127 G-vectors     FFT dimensions: ( 100, 108, 100)

     Estimated max dynamical RAM per process >       3.15 GB

     Estimated total dynamical RAM >     125.81 GB

     Initial potential from superposition of free atoms

     starting charge  367.99656, renormalised to  368.00000
     Starting wfc are  232 randomized atomic wfcs

     total cpu time spent up to now is       47.3 secs

     Self-consistent Calculation

     iteration #  1     ecut=   120.00 Ry     beta= 0.70
     Davidson diagonalization with overlap
     ethr =  1.00E-02,  avg # of iterations =  5.1

     total cpu time spent up to now is      168.4 secs

     total energy              =   -6254.04760656 Ry
     Harris-Foulkes estimate   =   -6264.55872399 Ry
     estimated scf accuracy    <      13.33915666 Ry

     iteration #  2     ecut=   120.00 Ry     beta= 0.70
     Davidson diagonalization with overlap
     ethr =  3.62E-03,  avg # of iterations =  3.6

     total cpu time spent up to now is      285.5 secs

     total energy              =   -6251.18858178 Ry
     Harris-Foulkes estimate   =   -6270.34852413 Ry
     estimated scf accuracy    <      50.90788171 Ry

     iteration #  3     ecut=   120.00 Ry     beta= 0.70
     Davidson diagonalization with overlap
     ethr =  3.62E-03,  avg # of iterations =  3.6

     total cpu time spent up to now is      394.9 secs

     total energy              =   -6261.00221631 Ry
     Harris-Foulkes estimate   =   -6261.38179594 Ry
     estimated scf accuracy    <       1.19768509 Ry

     iteration #  4     ecut=   120.00 Ry     beta= 0.70
     Davidson diagonalization with overlap
     ethr =  3.25E-04,  avg # of iterations =  3.6

     total cpu time spent up to now is      489.8 secs

     total energy              =   -6261.04421104 Ry
     Harris-Foulkes estimate   =   -6261.13039980 Ry
     estimated scf accuracy    <       0.29652090 Ry

     iteration #  5     ecut=   120.00 Ry     beta= 0.70
     Davidson diagonalization with overlap
     ethr =  8.06E-05,  avg # of iterations =  4.4

     total cpu time spent up to now is      586.7 secs

     total energy              =   -6261.03060167 Ry
     Harris-Foulkes estimate   =   -6261.07198287 Ry
     estimated scf accuracy    <       0.08930583 Ry

     iteration #  6     ecut=   120.00 Ry     beta= 0.70
     Davidson diagonalization with overlap
     ethr =  2.43E-05,  avg # of iterations =  5.7

     total cpu time spent up to now is      693.4 secs

     total energy              =   -6261.05097897 Ry
     Harris-Foulkes estimate   =   -6261.05262438 Ry
     estimated scf accuracy    <       0.00488894 Ry

     iteration #  7     ecut=   120.00 Ry     beta= 0.70
     Davidson diagonalization with overlap
     ethr =  1.33E-06,  avg # of iterations =  5.6

     total cpu time spent up to now is      798.0 secs

     total energy              =   -6261.05144456 Ry
     Harris-Foulkes estimate   =   -6261.05156693 Ry
     estimated scf accuracy    <       0.00031792 Ry

     iteration #  8     ecut=   120.00 Ry     beta= 0.70
     Davidson diagonalization with overlap
     ethr =  8.64E-08,  avg # of iterations =  3.2

     total cpu time spent up to now is      898.8 secs

     total energy              =   -6261.05150101 Ry
     Harris-Foulkes estimate   =   -6261.05151411 Ry
     estimated scf accuracy    <       0.00002634 Ry

     iteration #  9     ecut=   120.00 Ry     beta= 0.70
     Davidson diagonalization with overlap
     ethr =  7.16E-09,  avg # of iterations =  3.0

     total cpu time spent up to now is      999.4 secs

     total energy              =   -6261.05150827 Ry
     Harris-Foulkes estimate   =   -6261.05151032 Ry
     estimated scf accuracy    <       0.00000737 Ry

     iteration # 10     ecut=   120.00 Ry     beta= 0.70
     Davidson diagonalization with overlap
     ethr =  2.00E-09,  avg # of iterations =  2.0

     total cpu time spent up to now is     1086.3 secs

     total energy              =   -6261.05150810 Ry
     Harris-Foulkes estimate   =   -6261.05150901 Ry
     estimated scf accuracy    <       0.00000202 Ry

     iteration # 11     ecut=   120.00 Ry     beta= 0.70
     Davidson diagonalization with overlap
     ethr =  5.48E-10,  avg # of iterations =  2.6

     total cpu time spent up to now is     1182.6 secs

     total energy              =   -6261.05150850 Ry
     Harris-Foulkes estimate   =   -6261.05150851 Ry
     estimated scf accuracy    <       0.00000003 Ry

     iteration # 12     ecut=   120.00 Ry     beta= 0.70
     Davidson diagonalization with overlap
     ethr =  6.84E-12,  avg # of iterations =  3.0

     total cpu time spent up to now is     1291.7 secs

     total energy              =   -6261.05150851 Ry
     Harris-Foulkes estimate   =   -6261.05150851 Ry
     estimated scf accuracy    <       0.00000001 Ry

     iteration # 13     ecut=   120.00 Ry     beta= 0.70
     Davidson diagonalization with overlap
     ethr =  2.92E-12,  avg # of iterations =  2.0

     total cpu time spent up to now is     1396.1 secs

     End of self-consistent calculation

          k = 0.0000 0.0000 0.0000 ( 62239 PWs)   bands (ev):

   -66.1554 -66.1550 -66.1544 -66.1543 -66.1540 -66.1540 -66.1534 -66.1530
   -30.5850 -30.5833 -30.5810 -30.5793 -30.5787 -30.5767 -30.5756 -30.5736
   -30.4737 -30.4736 -30.4735 -30.4717 -30.4693 -30.4689 -30.4687 -30.4672
   -30.4651 -30.4643 -30.4638 -30.4583 -30.4130 -30.4086 -30.4085 -30.4041
   -20.3031 -20.3030 -20.3029 -20.3029 -20.3029 -20.3028 -20.3028 -20.3027
   -20.2795 -20.2791 -20.2787 -20.2780 -20.2780 -20.2778 -20.2778 -20.2774
   -20.2773 -20.2773 -20.2772 -20.2767 -20.2765 -20.2762 -20.2761 -20.2760
   -20.2758 -20.2758 -20.2756 -20.2749 -20.2731 -20.2727 -20.2725 -20.2719
   -20.2715 -20.2714 -20.2703 -20.2702 -20.2702 -20.2702 -20.2686 -20.2686
   -20.2674 -20.2671 -20.2668 -20.2667 -20.2667 -20.2665 -20.2653 -20.2652
   -20.2613 -20.2610 -20.2609 -20.2607 -20.2599 -20.2597 -20.2594 -20.2592
   -10.1136  -9.9312  -9.7043  -9.6960  -9.5724  -9.5608  -9.3389  -9.3226
    -8.8807  -8.7989  -8.7987  -8.7902  -7.8047  -7.8010  -7.7711  -7.7697
    -7.7146  -7.7132  -7.6888  -7.6849  -7.6528  -7.5937  -7.5923  -7.5396
     0.7182   0.7226   0.8956   0.8976   0.9115   0.9151   1.1580   1.2336
     1.7144   1.7311   1.7349   1.8158   2.1162   2.1975   2.5408   2.5417
     2.6703   2.6716   4.1122   4.1315   4.1605   4.1831   4.4182   4.4238
     4.4572   4.4626   4.9351   5.0648   5.0810   5.0838   5.1022   5.4188
     5.4258   5.5317   5.5563   5.5654   5.5705   5.5725   5.5915   5.6933
     5.8904   5.8955   6.0010   6.0107   6.0879   6.0896   6.1195   6.1462
     6.1478   6.2815   6.3303   6.3821   6.3865   6.6841   6.8852   7.0438
     7.0503   7.0690   7.0717   7.0905   7.0991   7.1092   7.1516   7.1524
     7.1603   7.1615   8.0447   8.0522   8.1657   8.1842   8.2125   8.2302
     9.0950   9.1174   9.6009   9.6055   9.6421   9.6442  12.2862  12.3097
    12.3961  12.4097  12.6598  12.6610  12.6985  12.7033  13.1702  13.2451
    13.3235  13.3465  13.6909  13.7531  13.8683  14.0742  14.2020  14.2213
    14.2734  14.3406  14.4619  14.8883  15.4101  15.4693  15.4800  16.4023
    16.4065  17.1634  17.3066  17.4240  17.4329

          k = 0.0000 0.0000 0.1667 ( 62262 PWs)   bands (ev):

   -66.1553 -66.1549 -66.1544 -66.1543 -66.1540 -66.1539 -66.1534 -66.1530
   -30.5825 -30.5799 -30.5771 -30.5768 -30.5743 -30.5740 -30.5714 -30.5684
   -30.4813 -30.4802 -30.4761 -30.4754 -30.4732 -30.4713 -30.4689 -30.4684
   -30.4649 -30.4647 -30.4643 -30.4592 -30.4126 -30.4086 -30.4082 -30.4043
   -20.3030 -20.3030 -20.3029 -20.3029 -20.3029 -20.3028 -20.3028 -20.3027
   -20.2795 -20.2791 -20.2787 -20.2781 -20.2779 -20.2777 -20.2777 -20.2774
   -20.2773 -20.2773 -20.2772 -20.2766 -20.2766 -20.2763 -20.2761 -20.2761
   -20.2758 -20.2757 -20.2756 -20.2749 -20.2730 -20.2727 -20.2725 -20.2720
   -20.2715 -20.2713 -20.2704 -20.2703 -20.2698 -20.2697 -20.2681 -20.2681
   -20.2672 -20.2670 -20.2668 -20.2666 -20.2666 -20.2665 -20.2654 -20.2654
   -20.2619 -20.2616 -20.2608 -20.2606 -20.2605 -20.2603 -20.2595 -20.2593
   -10.0591  -9.8739  -9.7079  -9.6119  -9.5698  -9.4716  -9.2933  -9.2760
    -8.8910  -8.8044  -8.7885  -8.7842  -7.9499  -7.9305  -7.8685  -7.8549
    -7.7948  -7.7638  -7.7205  -7.6905  -7.6479  -7.5977  -7.5891  -7.5432
     0.8297   0.8325   0.9131   0.9173   1.1812   1.1974   1.3102   1.4276
     1.7093   1.7277   1.7470   1.8601   2.2063   2.2875   2.5497   2.6335
     2.6616   2.7604   4.0503   4.1189   4.1261   4.1357   4.1686   4.2045
     4.5054   4.5289   4.6830   4.7243   4.9132   5.0841   5.0963   5.2172
     5.2885   5.3902   5.4608   5.5189   5.5604   5.5893   5.6617   5.7051
     5.7661   5.9154   5.9434   6.0670   6.0757   6.0950   6.1269   6.1543
     6.3116   6.3201   6.3941   6.5046   6.6762   6.7498   6.8327   6.8713
     6.8957   6.9116   6.9409   6.9694   6.9699   7.0549   7.0558   7.0708
     7.0862   7.1051   8.0042   8.0043   8.1413   8.1835   8.1875   8.2139
     9.4894   9.5011   9.6032   9.6468   9.9315   9.9619  12.2957  12.3603
    12.4097  12.4665  12.5141  12.5358  12.7153  12.7566  13.0224  13.1027
    13.1762  13.3230  13.7001  13.7349  13.9807  14.0298  14.0728  14.0755
    14.2788  14.4573  14.4852  15.0202  15.3800  15.5731  15.6108  16.3824
    16.7929  17.0382  17.2568  17.4848  17.5636

          k = 0.0000 0.0000 0.3333 ( 62268 PWs)   bands (ev):

   -66.1551 -66.1547 -66.1546 -66.1542 -66.1541 -66.1537 -66.1536 -66.1532
   -30.5813 -30.5782 -30.5782 -30.5751 -30.5574 -30.5546 -30.5516 -30.5488
   -30.5020 -30.5001 -30.4966 -30.4949 -30.4722 -30.4701 -30.4695 -30.4679
   -30.4666 -30.4653 -30.4636 -30.4605 -30.4117 -30.4093 -30.4073 -30.4050
   -20.3030 -20.3029 -20.3029 -20.3029 -20.3029 -20.3028 -20.3028 -20.3028
   -20.2794 -20.2792 -20.2786 -20.2782 -20.2777 -20.2776 -20.2774 -20.2774
   -20.2773 -20.2772 -20.2771 -20.2768 -20.2765 -20.2764 -20.2763 -20.2760
   -20.2759 -20.2757 -20.2755 -20.2750 -20.2729 -20.2726 -20.2726 -20.2721
   -20.2713 -20.2712 -20.2707 -20.2706 -20.2687 -20.2685 -20.2671 -20.2670
   -20.2670 -20.2669 -20.2667 -20.2666 -20.2658 -20.2658 -20.2658 -20.2657
   -20.2634 -20.2632 -20.2620 -20.2619 -20.2605 -20.2604 -20.2598 -20.2596
    -9.9344  -9.7516  -9.7461  -9.5983  -9.3609  -9.1834  -9.1396  -9.1014
    -8.9329  -8.8267  -8.7599  -8.7455  -8.3157  -8.3072  -8.2630  -8.2395
    -7.7800  -7.7484  -7.7365  -7.7061  -7.6375  -7.6085  -7.5795  -7.5530
     0.9071   0.9120   0.9169   0.9227   1.6225   1.6397   1.6985   1.7125
     1.9966   2.0877   2.1615   2.2864   2.4705   2.5478   2.5758   2.6397
     2.8893   2.9983   3.4613   3.5374   3.9001   3.9681   4.1386   4.1489
     4.1666   4.2847   4.4706   4.6413   4.6977   4.7798   4.8338   4.8388
     4.9010   5.0429   5.1178   5.2690   5.2969   5.3481   5.6354   5.8185
     5.9238   5.9582   5.9962   6.0452   6.1250   6.1302   6.1825   6.2043
     6.2894   6.3240   6.4023   6.4319   6.4780   6.5926   6.6473   6.7805
     6.7880   6.9568   6.9941   7.0134   7.0486   7.0613   7.0803   7.0974
     7.2472   7.3061   7.8265   7.8429   7.9971   8.0305   8.2104   8.2163
     9.6094   9.6259  10.3048  10.3296  10.6830  10.7042  11.9927  12.0168
    12.1777  12.4121  12.4242  12.5916  12.6077  12.6842  12.8891  12.9443
    13.1569  13.3278  13.4703  13.5204  13.6226  13.7305  14.0655  14.0697
    14.3478  14.4423  14.8121  15.2832  15.3398  15.8751  16.2036  16.3037
    16.4105  17.5198  17.7109  17.7376  17.7702

          k = 0.0000 0.0000-0.5000 ( 62264 PWs)   bands (ev):

   -66.1549 -66.1549 -66.1545 -66.1545 -66.1539 -66.1538 -66.1535 -66.1535
   -30.5798 -30.5797 -30.5766 -30.5766 -30.5299 -30.5298 -30.5274 -30.5274
   -30.5242 -30.5242 -30.5219 -30.5219 -30.4708 -30.4708 -30.4685 -30.4684
   -30.4666 -30.4666 -30.4621 -30.4621 -30.4104 -30.4104 -30.4061 -30.4061
   -20.3030 -20.3030 -20.3029 -20.3029 -20.3029 -20.3029 -20.3028 -20.3028
   -20.2793 -20.2793 -20.2784 -20.2784 -20.2775 -20.2775 -20.2774 -20.2774
   -20.2772 -20.2771 -20.2768 -20.2768 -20.2768 -20.2768 -20.2760 -20.2760
   -20.2758 -20.2758 -20.2752 -20.2752 -20.2728 -20.2727 -20.2724 -20.2724
   -20.2710 -20.2710 -20.2709 -20.2709 -20.2677 -20.2677 -20.2675 -20.2675
   -20.2663 -20.2663 -20.2663 -20.2663 -20.2652 -20.2652 -20.2652 -20.2651
   -20.2641 -20.2640 -20.2640 -20.2640 -20.2602 -20.2601 -20.2600 -20.2600
    -9.8189  -9.8189  -9.6538  -9.6538  -9.0714  -9.0714  -8.9151  -8.9151
    -8.7597  -8.7597  -8.7499  -8.7498  -8.6504  -8.6504  -8.5964  -8.5964
    -7.7583  -7.7583  -7.7272  -7.7272  -7.6231  -7.6231  -7.5663  -7.5663
     0.9190   0.9190   0.9258   0.9258   1.6854   1.6854   1.6913   1.6913
     2.6001   2.6001   2.8594   2.8594   2.9416   2.9417   3.0229   3.0229
     3.0873   3.0873   3.1112   3.1112   3.2760   3.2760   3.6710   3.6711
     3.7600   3.7600   4.2085   4.2085   4.7127   4.7127   4.8726   4.8726
     5.0343   5.0343   5.0669   5.0669   5.1674   5.1674   5.7791   5.7791
     5.9959   5.9959   6.0646   6.0647   6.0885   6.0885   6.2288   6.2288
     6.2330   6.2330   6.2570   6.2570   6.3974   6.3974   6.6433   6.6433
     6.8473   6.8473   7.0520   7.0520   7.0895   7.0895   7.4805   7.4805
     7.5063   7.5063   7.7068   7.7068   7.7385   7.7385   8.2171   8.2171
     9.6178   9.6178  11.1985  11.1985  11.2283  11.2283  11.5337  11.5337
    11.5951  11.5951  12.4320  12.4320  12.9516  12.9516  13.0415  13.0415
    13.1858  13.1858  13.2578  13.2578  13.3935  13.3935  14.0677  14.0677
    14.4113  14.4113  15.1007  15.1007  15.8147  15.8147  16.1466  16.1466
    17.0533  17.0533  17.9049  17.9283  17.9283

          k = 0.0000 0.1575 0.0000 ( 62231 PWs)   bands (ev):

   -66.1553 -66.1550 -66.1544 -66.1543 -66.1540 -66.1540 -66.1533 -66.1530
   -30.5848 -30.5832 -30.5811 -30.5795 -30.5785 -30.5765 -30.5758 -30.5738
   -30.4735 -30.4729 -30.4727 -30.4695 -30.4685 -30.4681 -30.4676 -30.4671
   -30.4639 -30.4619 -30.4613 -30.4556 -30.4169 -30.4125 -30.4124 -30.4080
   -20.3030 -20.3030 -20.3029 -20.3029 -20.3029 -20.3028 -20.3028 -20.3027
   -20.2793 -20.2789 -20.2785 -20.2779 -20.2778 -20.2777 -20.2775 -20.2775
   -20.2773 -20.2772 -20.2770 -20.2768 -20.2765 -20.2761 -20.2761 -20.2760
   -20.2759 -20.2758 -20.2756 -20.2749 -20.2734 -20.2730 -20.2728 -20.2723
   -20.2715 -20.2714 -20.2703 -20.2702 -20.2702 -20.2702 -20.2686 -20.2686
   -20.2674 -20.2672 -20.2668 -20.2667 -20.2667 -20.2665 -20.2653 -20.2652
   -20.2613 -20.2610 -20.2609 -20.2607 -20.2599 -20.2598 -20.2593 -20.2592
   -10.0962  -9.9395  -9.6892  -9.6805  -9.5775  -9.5660  -9.3378  -9.3237
    -8.8068  -8.7388  -8.7385  -8.7318  -7.8076  -7.7991  -7.7741  -7.7717
    -7.7460  -7.7218  -7.7114  -7.7055  -7.6883  -7.6867  -7.6809  -7.6483
     0.7185   0.7223   0.8976   0.8980   0.9139   0.9154   1.1868   1.2334
     1.9111   1.9705   1.9749   2.0718   2.1217   2.1919   2.6117   2.6117
     2.7378   2.7401   3.9541   3.9581   3.9740   3.9775   4.4209   4.4249
     4.4537   4.4593   4.7690   5.0983   5.1056   5.1247   5.1399   5.2884
     5.2978   5.3985   5.4057   5.5954   5.5966   5.6880   5.7039   5.7341
     5.7589   5.8663   5.8689   5.9988   6.0064   6.1248   6.1262   6.1643
     6.2353   6.3067   6.3821   6.3892   6.4020   6.7022   6.8519   6.8763
     6.9025   6.9100   6.9998   7.0048   7.0667   7.0680   7.1528   7.1569
     7.1606   7.1669   8.0465   8.0520   8.1209   8.1358   8.1395   8.1520
     9.0980   9.1167   9.8296   9.8330   9.8814   9.8847  12.1339  12.1581
    12.2317  12.2450  12.6724  12.6743  12.6986  12.7033  13.2060  13.2807
    13.3470  13.3694  13.6849  13.7548  14.0582  14.0609  14.1037  14.1264
    14.3921  14.6563  14.6964  14.9943  15.4696  15.4786  15.8277  16.3623
    16.3658  16.8879  17.2382  17.5342  17.5441

          k = 0.0000 0.1575 0.1667 ( 62237 PWs)   bands (ev):

   -66.1553 -66.1549 -66.1544 -66.1543 -66.1541 -66.1539 -66.1534 -66.1531
   -30.5823 -30.5800 -30.5769 -30.5767 -30.5744 -30.5742 -30.5712 -30.5686
   -30.4812 -30.4800 -30.4760 -30.4750 -30.4724 -30.4691 -30.4679 -30.4672
   -30.4644 -30.4617 -30.4614 -30.4562 -30.4166 -30.4126 -30.4121 -30.4082
   -20.3030 -20.3030 -20.3029 -20.3029 -20.3029 -20.3028 -20.3028 -20.3027
   -20.2793 -20.2789 -20.2784 -20.2778 -20.2778 -20.2776 -20.2775 -20.2774
   -20.2773 -20.2772 -20.2770 -20.2766 -20.2766 -20.2762 -20.2761 -20.2761
   -20.2758 -20.2758 -20.2757 -20.2750 -20.2734 -20.2730 -20.2729 -20.2723
   -20.2715 -20.2713 -20.2704 -20.2703 -20.2698 -20.2697 -20.2681 -20.2681
   -20.2672 -20.2670 -20.2668 -20.2666 -20.2666 -20.2665 -20.2654 -20.2654
   -20.2618 -20.2616 -20.2608 -20.2606 -20.2605 -20.2604 -20.2595 -20.2593
   -10.0411  -9.8822  -9.6922  -9.5951  -9.5751  -9.4768  -9.2921  -9.2771
    -8.8171  -8.7449  -8.7298  -8.7265  -7.9479  -7.9349  -7.8667  -7.8621
    -7.7954  -7.7658  -7.7421  -7.7264  -7.6924  -7.6920  -7.6914  -7.6487
     0.8300   0.8328   0.9158   0.9176   1.1895   1.1977   1.3588   1.4274
     1.9121   1.9662   1.9779   2.0870   2.2118   2.2819   2.6194   2.7068
     2.7294   2.8302   3.9477   3.9668   3.9880   4.0120   4.0912   4.1237
     4.4983   4.5242   4.7066   4.7469   4.7825   5.1034   5.1258   5.1718
     5.2485   5.2935   5.3223   5.3766   5.5361   5.5478   5.7069   5.7538
     5.7879   5.8744   5.9020   5.9876   6.0743   6.1119   6.1317   6.1568
     6.2771   6.3225   6.3712   6.4926   6.6932   6.7450   6.8206   6.8417
     6.8664   6.8974   6.9025   6.9080   6.9331   6.9592   7.0393   7.0471
     7.0776   7.0778   8.0043   8.0062   8.0950   8.1114   8.1286   8.1412
     9.4953   9.5040   9.8386   9.8835  10.1072  10.1500  12.1516  12.2126
    12.2442  12.3075  12.5191  12.5360  12.7283  12.7547  13.0614  13.1269
    13.2128  13.3452  13.7125  13.7227  13.9279  13.9904  14.0597  14.0790
    14.4657  14.6913  14.8271  15.1198  15.5723  15.6139  15.7986  16.3422
    16.7497  17.0215  17.1305  17.3272  17.6801

          k = 0.0000 0.1575 0.3333 ( 62284 PWs)   bands (ev):

   -66.1551 -66.1548 -66.1546 -66.1543 -66.1541 -66.1537 -66.1536 -66.1532
   -30.5811 -30.5784 -30.5780 -30.5753 -30.5572 -30.5548 -30.5514 -30.5490
   -30.5018 -30.5001 -30.4964 -30.4949 -30.4715 -30.4688 -30.4681 -30.4662
   -30.4655 -30.4629 -30.4603 -30.4573 -30.4156 -30.4132 -30.4112 -30.4089
   -20.3030 -20.3029 -20.3029 -20.3029 -20.3029 -20.3028 -20.3028 -20.3028
   -20.2792 -20.2790 -20.2783 -20.2779 -20.2775 -20.2775 -20.2775 -20.2774
   -20.2772 -20.2772 -20.2770 -20.2768 -20.2765 -20.2763 -20.2763 -20.2760
   -20.2759 -20.2757 -20.2755 -20.2751 -20.2733 -20.2730 -20.2729 -20.2725
   -20.2713 -20.2712 -20.2707 -20.2706 -20.2687 -20.2685 -20.2671 -20.2670
   -20.2670 -20.2670 -20.2667 -20.2666 -20.2658 -20.2658 -20.2658 -20.2658
   -20.2633 -20.2632 -20.2620 -20.2619 -20.2605 -20.2604 -20.2597 -20.2596
    -9.9158  -9.7594  -9.7296  -9.6041  -9.3362  -9.1886  -9.1352  -9.1032
    -8.8614  -8.7704  -8.7061  -8.6947  -8.3197  -8.3031  -8.2687  -8.2352
    -7.7819  -7.7504  -7.7409  -7.7325  -7.7080  -7.7026  -7.6831  -7.6577
     0.9101   0.9123   0.9201   0.9229   1.8086   1.8178   1.9232   1.9579
     1.9965   2.1422   2.1609   2.3393   2.4760   2.5439   2.6413   2.7092
     2.9647   3.0663   3.4628   3.5334   3.8726   3.9120   3.9756   4.0499
     4.1786   4.2132   4.4864   4.6282   4.6426   4.6710   4.6775   4.8347
     4.8385   4.9996   5.1164   5.1905   5.2491   5.3709   5.3787   5.7700
     5.8104   5.9061   5.9251   6.0430   6.0531   6.1278   6.1449   6.1678
     6.2514   6.3336   6.4135   6.4780   6.5144   6.6380   6.7324   6.8198
     6.8754   6.8791   6.9005   6.9574   7.0147   7.0153   7.0386   7.1421
     7.2484   7.3071   7.8349   7.8401   7.9596   7.9763   8.1404   8.1442
     9.8432   9.8685  10.3103  10.3329  10.7935  10.8162  11.9901  12.0162
    12.1033  12.2495  12.4610  12.4694  12.5444  12.5748  12.9048  12.9335
    13.1851  13.3438  13.4030  13.5194  13.5438  13.6905  14.0567  14.0686
    14.5982  14.6811  15.1929  15.4255  15.7061  15.8630  16.2327  16.2669
    16.5033  17.3672  17.5758  17.7087  17.7998

          k = 0.0000 0.1575-0.5000 ( 62234 PWs)   bands (ev):

   -66.1549 -66.1548 -66.1545 -66.1545 -66.1538 -66.1538 -66.1535 -66.1535
   -30.5795 -30.5795 -30.5768 -30.5768 -30.5297 -30.5297 -30.5276 -30.5275
   -30.5241 -30.5240 -30.5220 -30.5220 -30.4701 -30.4701 -30.4668 -30.4668
   -30.4646 -30.4646 -30.4588 -30.4588 -30.4144 -30.4144 -30.4100 -30.4100
   -20.3030 -20.3030 -20.3029 -20.3029 -20.3029 -20.3028 -20.3028 -20.3028
   -20.2791 -20.2791 -20.2781 -20.2781 -20.2774 -20.2774 -20.2774 -20.2773
   -20.2771 -20.2771 -20.2768 -20.2768 -20.2768 -20.2767 -20.2760 -20.2760
   -20.2759 -20.2759 -20.2753 -20.2753 -20.2731 -20.2731 -20.2728 -20.2727
   -20.2710 -20.2710 -20.2709 -20.2709 -20.2677 -20.2677 -20.2675 -20.2675
   -20.2663 -20.2663 -20.2663 -20.2663 -20.2652 -20.2652 -20.2652 -20.2651
   -20.2641 -20.2640 -20.2640 -20.2640 -20.2601 -20.2601 -20.2600 -20.2600
    -9.8011  -9.8011  -9.6604  -9.6604  -9.0205  -9.0205  -8.8851  -8.8851
    -8.7634  -8.7634  -8.7546  -8.7546  -8.6215  -8.6214  -8.5716  -8.5716
    -7.7613  -7.7613  -7.7292  -7.7292  -7.7178  -7.7178  -7.6704  -7.6704
     0.9226   0.9226   0.9261   0.9261   1.8902   1.8902   1.9512   1.9512
     2.6662   2.6662   2.8659   2.8659   2.9376   2.9376   3.0330   3.0330
     3.0849   3.0849   3.1454   3.1454   3.2697   3.2697   3.7006   3.7006
     3.8175   3.8175   4.0466   4.0466   4.5311   4.5311   4.7326   4.7326
     5.0184   5.0184   5.0466   5.0466   5.1816   5.1816   5.5152   5.5152
     5.8526   5.8526   6.0307   6.0307   6.1358   6.1358   6.1863   6.1863
     6.2666   6.2666   6.2953   6.2953   6.3931   6.3931   6.8163   6.8163
     6.8993   6.8993   6.9428   6.9428   7.0025   7.0025   7.5016   7.5016
     7.5045   7.5045   7.6870   7.6870   7.7110   7.7110   8.1450   8.1450
     9.8578   9.8578  11.2018  11.2018  11.2285  11.2285  11.6008  11.6008
    11.6591  11.6591  12.2760  12.2760  12.8679  12.8679  12.9347  12.9347
    13.2040  13.2041  13.2242  13.2242  13.3943  13.3943  14.0578  14.0578
    14.6571  14.6571  15.5007  15.5007  15.9144  15.9144  16.1183  16.1183
    17.1049  17.1049  17.7161  17.7161  17.9339

          k = 0.0000 0.3150 0.0000 ( 62175 PWs)   bands (ev):

   -66.1553 -66.1551 -66.1543 -66.1542 -66.1541 -66.1541 -66.1533 -66.1531
   -30.5843 -30.5832 -30.5811 -30.5800 -30.5779 -30.5763 -30.5759 -30.5743
   -30.4731 -30.4723 -30.4717 -30.4700 -30.4681 -30.4673 -30.4662 -30.4644
   -30.4571 -30.4519 -30.4516 -30.4466 -30.4277 -30.4232 -30.4230 -30.4185
   -20.3030 -20.3030 -20.3029 -20.3029 -20.3029 -20.3028 -20.3028 -20.3027
   -20.2788 -20.2783 -20.2780 -20.2780 -20.2777 -20.2775 -20.2775 -20.2771
   -20.2770 -20.2768 -20.2766 -20.2764 -20.2763 -20.2762 -20.2761 -20.2760
   -20.2759 -20.2756 -20.2756 -20.2751 -20.2744 -20.2740 -20.2738 -20.2733
   -20.2715 -20.2714 -20.2703 -20.2702 -20.2702 -20.2702 -20.2686 -20.2686
   -20.2673 -20.2672 -20.2668 -20.2667 -20.2666 -20.2666 -20.2653 -20.2653
   -20.2612 -20.2611 -20.2609 -20.2608 -20.2599 -20.2598 -20.2593 -20.2593
   -10.0533  -9.9645  -9.6547  -9.6451  -9.5930  -9.5819  -9.3348  -9.3267
    -8.5997  -8.5599  -8.5590  -8.5566  -8.0082  -7.9633  -7.9611  -7.9267
    -7.7940  -7.7927  -7.7776  -7.7771  -7.7067  -7.7048  -7.6934  -7.6917
     0.7192   0.7214   0.8988   0.8997   0.9161   0.9165   1.2168   1.2324
     2.1360   2.1768   2.5012   2.6253   2.6364   2.7516   2.8166   2.8390
     2.9341   2.9461   3.5416   3.5610   3.6068   3.6277   4.2018   4.4282
     4.4313   4.4380   4.4455   4.5646   4.5730   4.8602   5.1931   5.1980
     5.2920   5.2969   5.3574   5.3579   5.6811   5.6837   5.7247   5.7360
     5.8512   5.8789   5.8827   5.9876   5.9921   6.1186   6.1335   6.1484
     6.1507   6.2981   6.3328   6.3807   6.4102   6.4397   6.6721   6.6849
     6.7407   6.8426   7.1414   7.1415   7.1566   7.1606   7.1981   7.2036
     7.2117   7.2120   7.9146   7.9225   7.9301   7.9378   8.0517   8.0521
     9.1034   9.1138  10.3888  10.4028  10.4540  10.4640  11.6986  11.7219
    11.7793  11.7929  12.6896  12.6908  12.6989  12.7024  13.3157  13.3938
    13.4413  13.4643  13.6398  13.7555  13.8673  13.8754  13.8983  13.9188
    15.1722  15.3359  15.3438  15.4108  15.4706  15.4762  16.2208  16.2254
    16.2878  16.8678  17.1946  17.9186  17.9304

          k = 0.0000 0.3150 0.1667 ( 62260 PWs)   bands (ev):

   -66.1552 -66.1550 -66.1543 -66.1542 -66.1541 -66.1540 -66.1533 -66.1531
   -30.5817 -30.5804 -30.5763 -30.5763 -30.5750 -30.5748 -30.5706 -30.5691
   -30.4808 -30.4799 -30.4756 -30.4748 -30.4713 -30.4696 -30.4667 -30.4650
   -30.4567 -30.4518 -30.4515 -30.4468 -30.4274 -30.4232 -30.4228 -30.4187
   -20.3030 -20.3030 -20.3029 -20.3029 -20.3029 -20.3028 -20.3028 -20.3028
   -20.2787 -20.2784 -20.2779 -20.2779 -20.2776 -20.2775 -20.2774 -20.2771
   -20.2770 -20.2768 -20.2765 -20.2764 -20.2764 -20.2762 -20.2761 -20.2760
   -20.2759 -20.2756 -20.2756 -20.2751 -20.2744 -20.2740 -20.2738 -20.2733
   -20.2714 -20.2714 -20.2704 -20.2703 -20.2698 -20.2697 -20.2681 -20.2681
   -20.2672 -20.2671 -20.2668 -20.2667 -20.2666 -20.2666 -20.2654 -20.2654
   -20.2618 -20.2617 -20.2608 -20.2607 -20.2605 -20.2604 -20.2594 -20.2594
    -9.9971  -9.9072  -9.6561  -9.5915  -9.5574  -9.4926  -9.2889  -9.2802
    -8.6093  -8.5675  -8.5542  -8.5534  -8.0131  -7.9943  -7.9600  -7.9481
    -7.9422  -7.9036  -7.8614  -7.8320  -7.7853  -7.7713  -7.7106  -7.6975
     0.8307   0.8327   0.9184   0.9185   1.1970   1.1985   1.4049   1.4260
     2.2260   2.2666   2.5024   2.5986   2.6336   2.7423   2.8232   2.9264
     2.9414   3.0506   3.5602   3.5970   3.6202   3.6633   4.0909   4.1108
     4.1921   4.4988   4.4996   4.5418   4.5903   4.8282   4.8621   4.9542
     5.1091   5.2022   5.2995   5.3011   5.3840   5.4370   5.6359   5.7016
     5.7861   5.8136   5.8851   6.0057   6.0193   6.0565   6.1140   6.1512
     6.1684   6.3180   6.3846   6.4021   6.5265   6.6673   6.7394   6.8659
     6.8723   6.9013   6.9178   6.9296   6.9651   6.9716   7.1945   7.1945
     7.2064   7.2266   7.8965   7.9089   7.9145   7.9208   8.0092   8.0164
     9.4999   9.5056  10.4090  10.4613  10.5802  10.6398  11.7234  11.7914
    11.7931  11.8715  12.5271  12.5351  12.7445  12.7532  13.1828  13.2250
    13.3237  13.4378  13.6251  13.6731  13.6860  13.8526  13.8635  13.9242
    15.2606  15.3387  15.4956  15.5681  15.5791  15.6458  16.2033  16.4311
    16.5952  16.8368  17.2941  17.4218  17.5317

          k = 0.0000 0.3150 0.3333 ( 62269 PWs)   bands (ev):

   -66.1550 -66.1548 -66.1545 -66.1543 -66.1540 -66.1538 -66.1535 -66.1533
   -30.5805 -30.5790 -30.5774 -30.5759 -30.5566 -30.5552 -30.5508 -30.5495
   -30.5014 -30.5004 -30.4960 -30.4951 -30.4704 -30.4687 -30.4677 -30.4660
   -30.4556 -30.4527 -30.4504 -30.4477 -30.4264 -30.4239 -30.4218 -30.4194
   -20.3030 -20.3030 -20.3029 -20.3029 -20.3029 -20.3028 -20.3028 -20.3028
   -20.2786 -20.2784 -20.2778 -20.2777 -20.2775 -20.2773 -20.2773 -20.2772
   -20.2770 -20.2767 -20.2767 -20.2766 -20.2764 -20.2763 -20.2761 -20.2760
   -20.2758 -20.2757 -20.2756 -20.2752 -20.2742 -20.2739 -20.2739 -20.2735
   -20.2713 -20.2712 -20.2707 -20.2706 -20.2686 -20.2686 -20.2671 -20.2670
   -20.2670 -20.2670 -20.2667 -20.2666 -20.2658 -20.2658 -20.2658 -20.2658
   -20.2633 -20.2632 -20.2620 -20.2620 -20.2605 -20.2604 -20.2597 -20.2597
    -9.8710  -9.7830  -9.6913  -9.6217  -9.2833  -9.2052  -9.1257  -9.1082
    -8.6637  -8.6072  -8.5426  -8.5332  -8.3360  -8.2944  -8.2862  -8.2184
    -7.9876  -7.9626  -7.9441  -7.9165  -7.7697  -7.7558  -7.7265  -7.7131
     0.9129   0.9129   0.9234   0.9236   1.9702   1.9956   2.0913   2.1577
     2.4880   2.5073   2.5290   2.5838   2.6322   2.7589   2.8411   2.9076
     3.1988   3.2762   3.4453   3.5221   3.5981   3.6238   3.7040   3.7418
     4.1448   4.2399   4.3682   4.4175   4.4446   4.5449   4.5580   4.6405
     4.6837   4.8215   4.8682   4.9267   5.1637   5.2279   5.2823   5.3008
     5.4316   5.5026   5.7996   6.0163   6.0709   6.1555   6.1833   6.1863
     6.3419   6.3532   6.4865   6.5050   6.5468   6.6316   6.6388   6.6537
     6.8255   6.9377   7.0640   7.0827   7.1308   7.1999   7.2250   7.2353
     7.2877   7.3157   7.8074   7.8089   7.8113   7.8515   7.9247   7.9505
    10.2919  10.3173  10.4369  10.4670  11.1116  11.1496  11.7233  11.7886
    12.0123  12.0144  12.0911  12.1595  12.6132  12.6527  12.9217  12.9244
    13.1523  13.1731  13.3762  13.4347  13.5467  13.6618  13.8557  13.8825
    15.3049  15.3334  15.7738  15.8150  16.0887  16.1410  16.3728  16.7299
    16.8035  16.8418  17.4928  17.6786  17.7820

          k = 0.0000 0.3150-0.5000 ( 62306 PWs)   bands (ev):

   -66.1548 -66.1548 -66.1546 -66.1546 -66.1538 -66.1538 -66.1536 -66.1536
   -30.5790 -30.5790 -30.5774 -30.5774 -30.5292 -30.5292 -30.5280 -30.5279
   -30.5236 -30.5236 -30.5224 -30.5224 -30.4690 -30.4690 -30.4673 -30.4673
   -30.4541 -30.4541 -30.4490 -30.4490 -30.4251 -30.4251 -30.4206 -30.4206
   -20.3030 -20.3030 -20.3029 -20.3029 -20.3029 -20.3028 -20.3028 -20.3028
   -20.2785 -20.2785 -20.2776 -20.2776 -20.2775 -20.2775 -20.2770 -20.2770
   -20.2769 -20.2768 -20.2768 -20.2768 -20.2765 -20.2765 -20.2759 -20.2759
   -20.2759 -20.2758 -20.2754 -20.2754 -20.2741 -20.2741 -20.2737 -20.2737
   -20.2710 -20.2710 -20.2709 -20.2709 -20.2677 -20.2677 -20.2676 -20.2676
   -20.2663 -20.2663 -20.2663 -20.2663 -20.2652 -20.2652 -20.2652 -20.2652
   -20.2641 -20.2640 -20.2640 -20.2640 -20.2601 -20.2601 -20.2600 -20.2600
    -9.7591  -9.7591  -9.6806  -9.6806  -8.9072  -8.9072  -8.8272  -8.8272
    -8.7783  -8.7783  -8.7681  -8.7681  -8.5040  -8.5040  -8.4697  -8.4697
    -7.9762  -7.9762  -7.9330  -7.9330  -7.7481  -7.7481  -7.7345  -7.7344
     0.9262   0.9262   0.9267   0.9267   2.4844   2.4844   2.5951   2.5951
     2.8440   2.8440   2.8857   2.8858   2.9364   2.9364   3.0660   3.0660
     3.0797   3.0797   3.2355   3.2355   3.2465   3.2465   3.5826   3.5826
     3.9418   3.9418   4.0133   4.0133   4.0729   4.0729   4.3132   4.3132
     4.8594   4.8594   4.9808   4.9808   5.0087   5.0087   5.1166   5.1166
     5.3614   5.3614   5.8879   5.8879   6.2467   6.2467   6.2514   6.2514
     6.3095   6.3095   6.3541   6.3541   6.4057   6.4057   6.6327   6.6328
     7.0899   7.0899   7.1443   7.1444   7.1836   7.1836   7.4847   7.4847
     7.5408   7.5408   7.6054   7.6054   7.6218   7.6218   7.9336   7.9336
    10.4312  10.4312  11.2058  11.2058  11.2297  11.2297  11.6757  11.6757
    11.8615  11.8615  11.9761  11.9761  12.5765  12.5766  12.6282  12.6282
    13.2097  13.2097  13.2189  13.2190  13.4580  13.4580  13.8608  13.8608
    15.3220  15.3220  16.0189  16.0189  16.2226  16.2226  16.5084  16.5085
    17.2865  17.2865  17.3025  17.3025  18.0157

          k = 0.0000-0.4725 0.0000 ( 62212 PWs)   bands (ev):

   -66.1552 -66.1552 -66.1542 -66.1542 -66.1542 -66.1541 -66.1532 -66.1532
   -30.5837 -30.5836 -30.5807 -30.5807 -30.5771 -30.5771 -30.5751 -30.5751
   -30.4726 -30.4726 -30.4708 -30.4708 -30.4677 -30.4677 -30.4652 -30.4652
   -30.4425 -30.4425 -30.4377 -30.4376 -30.4375 -30.4375 -30.4328 -30.4328
   -20.3030 -20.3030 -20.3029 -20.3029 -20.3029 -20.3028 -20.3028 -20.3028
   -20.2783 -20.2783 -20.2778 -20.2778 -20.2777 -20.2777 -20.2773 -20.2772
   -20.2764 -20.2764 -20.2762 -20.2762 -20.2761 -20.2761 -20.2757 -20.2757
   -20.2754 -20.2754 -20.2754 -20.2753 -20.2751 -20.2751 -20.2746 -20.2746
   -20.2715 -20.2714 -20.2703 -20.2702 -20.2702 -20.2702 -20.2686 -20.2686
   -20.2673 -20.2673 -20.2668 -20.2667 -20.2666 -20.2666 -20.2653 -20.2653
   -20.2612 -20.2612 -20.2608 -20.2608 -20.2598 -20.2598 -20.2593 -20.2593
   -10.0044 -10.0044  -9.6194  -9.6194  -9.6089  -9.6089  -9.3308  -9.3308
    -8.3138  -8.3137  -8.2818  -8.2817  -8.2802  -8.2801  -8.2672  -8.2671
    -7.7889  -7.7889  -7.7823  -7.7823  -7.7002  -7.7002  -7.6985  -7.6985
     0.7203   0.7203   0.8997   0.8997   0.9168   0.9168   1.2286   1.2286
     2.1563   2.1563   3.1200   3.1200   3.1407   3.1407   3.2229   3.2230
     3.2320   3.2321   3.3667   3.3668   3.5880   3.5881   3.5895   3.5895
     3.7782   3.7782   4.4385   4.4385   4.4420   4.4420   5.2916   5.2916
     5.2983   5.2983   5.5218   5.5218   5.5293   5.5293   5.8674   5.8674
     5.8723   5.8723   5.9374   5.9374   5.9691   5.9691   6.0679   6.0679
     6.2029   6.2029   6.2306   6.2306   6.5000   6.5000   6.5079   6.5079
     6.7899   6.7899   7.1535   7.1535   7.1621   7.1621   7.5715   7.5716
     7.5754   7.5754   7.5862   7.5862   7.5904   7.5905   8.0518   8.0518
     9.1090   9.1090  11.0699  11.0699  11.0906  11.0907  11.1363  11.1363
    11.1606  11.1606  12.6974  12.6974  12.6990  12.6990  13.4842  13.4842
    13.5989  13.5989  13.6252  13.6252  13.6499  13.6499  13.8086  13.8086
    15.4721  15.4721  15.7119  15.7120  15.9074  15.9074  15.9148  15.9148
    16.3799  16.3799  17.8012  17.8012  18.1236

          k = 0.0000-0.4725 0.1667 ( 62246 PWs)   bands (ev):

   -66.1551 -66.1551 -66.1542 -66.1542 -66.1541 -66.1541 -66.1532 -66.1532
   -30.5810 -30.5810 -30.5757 -30.5756 -30.5755 -30.5755 -30.5699 -30.5699
   -30.4803 -30.4802 -30.4751 -30.4751 -30.4704 -30.4704 -30.4658 -30.4658
   -30.4421 -30.4421 -30.4377 -30.4376 -30.4373 -30.4373 -30.4330 -30.4329
   -20.3030 -20.3030 -20.3029 -20.3029 -20.3029 -20.3029 -20.3028 -20.3028
   -20.2783 -20.2782 -20.2779 -20.2778 -20.2776 -20.2776 -20.2772 -20.2772
   -20.2765 -20.2765 -20.2763 -20.2763 -20.2762 -20.2762 -20.2756 -20.2755
   -20.2755 -20.2755 -20.2753 -20.2753 -20.2751 -20.2750 -20.2746 -20.2746
   -20.2714 -20.2714 -20.2704 -20.2704 -20.2697 -20.2697 -20.2681 -20.2681
   -20.2672 -20.2671 -20.2667 -20.2667 -20.2666 -20.2666 -20.2654 -20.2654
   -20.2617 -20.2617 -20.2607 -20.2607 -20.2604 -20.2604 -20.2594 -20.2594
    -9.9475  -9.9475  -9.6191  -9.6191  -9.5198  -9.5198  -9.2845  -9.2845
    -8.3169  -8.3168  -8.2925  -8.2924  -8.2770  -8.2770  -8.2742  -8.2741
    -7.9331  -7.9331  -7.8530  -7.8530  -7.7786  -7.7786  -7.7043  -7.7042
     0.8318   0.8318   0.9190   0.9190   1.1989   1.1989   1.4210   1.4210
     2.2462   2.2462   3.1335   3.1336   3.1707   3.1707   3.2286   3.2286
     3.2819   3.2819   3.3631   3.3631   3.5831   3.5831   3.6213   3.6213
     3.7968   3.7968   4.1035   4.1035   4.5077   4.5077   4.9978   4.9978
     5.2049   5.2049   5.2713   5.2713   5.5062   5.5062   5.5340   5.5340
     5.7882   5.7882   5.8373   5.8373   6.0076   6.0076   6.1753   6.1753
     6.2732   6.2732   6.3204   6.3204   6.4963   6.4963   6.8119   6.8120
     6.8963   6.8964   6.9331   6.9331   6.9782   6.9782   7.5616   7.5617
     7.5743   7.5743   7.5804   7.5804   7.5821   7.5821   8.0109   8.0109
     9.5036   9.5036  11.0948  11.0948  11.1494  11.1494  11.2018  11.2018
    11.2685  11.2685  12.5324  12.5324  12.7514  12.7515  13.3880  13.3881
    13.4072  13.4072  13.5262  13.5262  13.6212  13.6212  13.8343  13.8343
    15.5437  15.5437  15.8862  15.8862  15.9014  15.9015  16.2388  16.2388
    16.4730  16.4731  17.8320  17.8325  17.8476

          k = 0.0000-0.4725 0.3333 ( 62268 PWs)   bands (ev):

   -66.1549 -66.1549 -66.1544 -66.1544 -66.1539 -66.1539 -66.1534 -66.1534
   -30.5797 -30.5797 -30.5767 -30.5766 -30.5559 -30.5559 -30.5502 -30.5501
   -30.5009 -30.5008 -30.4955 -30.4955 -30.4694 -30.4694 -30.4668 -30.4668
   -30.4411 -30.4410 -30.4384 -30.4384 -30.4363 -30.4362 -30.4337 -30.4337
   -20.3030 -20.3030 -20.3029 -20.3029 -20.3029 -20.3029 -20.3028 -20.3028
   -20.2781 -20.2781 -20.2779 -20.2779 -20.2774 -20.2773 -20.2771 -20.2771
   -20.2767 -20.2767 -20.2765 -20.2765 -20.2761 -20.2761 -20.2758 -20.2757
   -20.2753 -20.2753 -20.2752 -20.2751 -20.2751 -20.2750 -20.2748 -20.2747
   -20.2712 -20.2712 -20.2706 -20.2706 -20.2686 -20.2686 -20.2671 -20.2670
   -20.2670 -20.2670 -20.2667 -20.2666 -20.2658 -20.2658 -20.2658 -20.2658
   -20.2633 -20.2633 -20.2620 -20.2620 -20.2605 -20.2604 -20.2597 -20.2597
    -9.8218  -9.8218  -9.6516  -9.6516  -9.2359  -9.2359  -9.1160  -9.1160
    -8.4155  -8.4155  -8.4038  -8.4038  -8.2830  -8.2829  -8.2664  -8.2663
    -8.2066  -8.2066  -8.1527  -8.1527  -7.7630  -7.7630  -7.7200  -7.7200
     0.9134   0.9134   0.9241   0.9241   1.9917   1.9917   2.1458   2.1458
     2.5092   2.5092   3.1390   3.1391   3.2007   3.2007   3.2677   3.2677
     3.3387   3.3388   3.4095   3.4095   3.5191   3.5191   3.5624   3.5624
     3.7307   3.7307   3.8310   3.8310   4.4001   4.4001   4.5424   4.5424
     4.6984   4.6984   4.8153   4.8153   4.9917   4.9917   5.2130   5.2130
     5.5681   5.5682   5.7373   5.7373   6.1276   6.1276   6.2155   6.2155
     6.3932   6.3932   6.4576   6.4576   6.5176   6.5176   6.6266   6.6266
     6.9075   6.9075   7.1924   7.1924   7.2187   7.2187   7.5277   7.5277
     7.5383   7.5384   7.5555   7.5555   7.5987   7.5987   7.8618   7.8618
    10.3182  10.3182  11.1088  11.1088  11.1376  11.1376  11.5894  11.5894
    11.6504  11.6504  12.0140  12.0140  12.8543  12.8543  12.8830  12.8830
    12.9341  12.9341  13.4829  13.4829  13.6130  13.6130  13.7065  13.7065
    15.6804  15.6804  15.8661  15.8661  16.3505  16.3505  16.9193  16.9193
    16.9943  16.9943  17.2827  17.2828  17.9813

          k = 0.0000-0.4725-0.5000 ( 62284 PWs)   bands (ev):

   -66.1547 -66.1547 -66.1547 -66.1547 -66.1537 -66.1537 -66.1537 -66.1536
   -30.5782 -30.5782 -30.5782 -30.5782 -30.5286 -30.5286 -30.5286 -30.5285
   -30.5230 -30.5230 -30.5230 -30.5230 -30.4681 -30.4681 -30.4681 -30.4681
   -30.4397 -30.4397 -30.4397 -30.4396 -30.4349 -30.4349 -30.4349 -30.4349
   -20.3030 -20.3029 -20.3029 -20.3029 -20.3028 -20.3028 -20.3028 -20.3028
   -20.2780 -20.2780 -20.2780 -20.2780 -20.2770 -20.2770 -20.2770 -20.2770
   -20.2768 -20.2768 -20.2768 -20.2768 -20.2760 -20.2760 -20.2760 -20.2760
   -20.2752 -20.2751 -20.2751 -20.2751 -20.2750 -20.2749 -20.2749 -20.2749
   -20.2710 -20.2710 -20.2710 -20.2709 -20.2676 -20.2676 -20.2676 -20.2676
   -20.2663 -20.2663 -20.2663 -20.2663 -20.2652 -20.2652 -20.2652 -20.2652
   -20.2641 -20.2640 -20.2640 -20.2640 -20.2601 -20.2601 -20.2601 -20.2601
    -9.7146  -9.7146  -9.7146  -9.7146  -8.8192  -8.8192  -8.8192  -8.8192
    -8.7889  -8.7889  -8.7888  -8.7888  -8.2704  -8.2704  -8.2703  -8.2703
    -8.2400  -8.2400  -8.2399  -8.2399  -7.7415  -7.7415  -7.7415  -7.7415
     0.9271   0.9271   0.9271   0.9271   2.8879   2.8879   2.8879   2.8879
     3.0054   3.0054   3.0054   3.0054   3.1360   3.1360   3.1360   3.1360
     3.2218   3.2218   3.2218   3.2218   3.4097   3.4097   3.4097   3.4097
     3.6250   3.6250   3.6251   3.6251   4.2723   4.2723   4.2723   4.2723
     4.3702   4.3702   4.3702   4.3702   5.0172   5.0172   5.0173   5.0173
     5.6224   5.6224   5.6224   5.6224   6.2750   6.2750   6.2750   6.2750
     6.3461   6.3462   6.3462   6.3462   6.4598   6.4598   6.4599   6.4599
     7.3396   7.3396   7.3396   7.3397   7.4297   7.4297   7.4297   7.4297
     7.4740   7.4740   7.4740   7.4740   7.6605   7.6605   7.6605   7.6605
    11.0857  11.0857  11.0857  11.0858  11.2554  11.2554  11.2554  11.2554
    12.1899  12.1899  12.1899  12.1899  12.2379  12.2379  12.2379  12.2379
    13.2176  13.2176  13.2176  13.2176  13.6244  13.6244  13.6244  13.6244
    15.7970  15.7970  15.7970  15.7970  16.7806  16.7806  16.7806  16.7806
    17.6428  17.6428  17.6429  17.6430  17.7727

          k = 0.1667 0.0000 0.1667 ( 62234 PWs)   bands (ev):

   -66.1552 -66.1548 -66.1544 -66.1543 -66.1540 -66.1540 -66.1535 -66.1531
   -30.5774 -30.5757 -30.5734 -30.5723 -30.5712 -30.5698 -30.5688 -30.5668
   -30.4810 -30.4800 -30.4800 -30.4771 -30.4767 -30.4757 -30.4750 -30.4727
   -30.4709 -30.4647 -30.4646 -30.4597 -30.4123 -30.4084 -30.4083 -30.4045
   -20.3030 -20.3030 -20.3029 -20.3029 -20.3029 -20.3028 -20.3028 -20.3027
   -20.2795 -20.2791 -20.2788 -20.2782 -20.2778 -20.2777 -20.2777 -20.2775
   -20.2773 -20.2771 -20.2770 -20.2766 -20.2765 -20.2764 -20.2761 -20.2761
   -20.2758 -20.2757 -20.2757 -20.2750 -20.2730 -20.2727 -20.2725 -20.2720
   -20.2710 -20.2709 -20.2701 -20.2700 -20.2696 -20.2696 -20.2682 -20.2682
   -20.2674 -20.2672 -20.2670 -20.2668 -20.2664 -20.2663 -20.2652 -20.2651
   -20.2618 -20.2615 -20.2613 -20.2612 -20.2606 -20.2604 -20.2600 -20.2599
   -10.0007  -9.8111  -9.6242  -9.6165  -9.4807  -9.4696  -9.2518  -9.2351
    -8.9018  -8.7941  -8.7933  -8.7781  -7.9471  -7.9446  -7.9225  -7.9208
    -7.8914  -7.8838  -7.8541  -7.8283  -7.6438  -7.5946  -7.5931  -7.5470
     1.0187   1.0252   1.1826   1.1954   1.2001   1.2151   1.3740   1.5389
     1.7041   1.7405   1.7449   1.9049   2.2985   2.3803   2.6406   2.6419
     2.7412   2.7623   4.0653   4.0894   4.0995   4.1580   4.1998   4.2013
     4.2556   4.2698   4.6255   4.6966   4.7144   4.7840   4.9538   5.1393
     5.2051   5.2369   5.2921   5.4784   5.4957   5.5705   5.5747   5.7077
     5.7104   5.8602   5.8675   6.0579   6.1351   6.1495   6.2226   6.3354
     6.3455   6.4623   6.4677   6.5439   6.5490   6.6658   6.6813   6.7182
     6.8939   6.9127   6.9344   6.9460   6.9499   6.9808   6.9940   6.9981
     7.0504   7.1156   7.9680   7.9691   8.1380   8.1686   8.1693   8.1846
     9.7563   9.7836   9.8892   9.9490   9.9587  10.0072  12.3346  12.3766
    12.4629  12.4728  12.5668  12.5711  12.5955  12.6023  12.9838  13.0244
    13.0925  13.1130  13.6800  13.7292  13.9354  13.9785  14.0298  14.0854
    14.2033  14.4772  14.5184  15.1670  15.3497  15.7464  15.7556  16.7652
    16.7657  17.2094  17.2126  17.3404  17.6127

          k = 0.1667 0.0000 0.3333 ( 62265 PWs)   bands (ev):

   -66.1551 -66.1547 -66.1546 -66.1542 -66.1542 -66.1538 -66.1537 -66.1533
   -30.5741 -30.5711 -30.5710 -30.5680 -30.5569 -30.5542 -30.5519 -30.5492
   -30.5016 -30.4997 -30.4970 -30.4953 -30.4790 -30.4768 -30.4755 -30.4737
   -30.4697 -30.4662 -30.4638 -30.4610 -30.4113 -30.4090 -30.4075 -30.4052
   -20.3030 -20.3029 -20.3029 -20.3029 -20.3029 -20.3028 -20.3028 -20.3028
   -20.2794 -20.2791 -20.2787 -20.2783 -20.2777 -20.2775 -20.2775 -20.2773
   -20.2772 -20.2771 -20.2770 -20.2768 -20.2766 -20.2764 -20.2762 -20.2760
   -20.2758 -20.2758 -20.2755 -20.2751 -20.2729 -20.2726 -20.2726 -20.2722
   -20.2709 -20.2708 -20.2703 -20.2702 -20.2686 -20.2685 -20.2673 -20.2671
   -20.2670 -20.2669 -20.2668 -20.2667 -20.2657 -20.2657 -20.2655 -20.2655
   -20.2633 -20.2631 -20.2621 -20.2620 -20.2610 -20.2609 -20.2603 -20.2602
    -9.8625  -9.6694  -9.6564  -9.4988  -9.3745  -9.1928  -9.1103  -9.0800
    -8.9451  -8.8140  -8.7549  -8.7500  -8.3102  -8.3020  -8.2741  -8.2462
    -7.9273  -7.9052  -7.8847  -7.8631  -7.6336  -7.6052  -7.5835  -7.5569
     1.1851   1.1935   1.2039   1.2209   1.6265   1.6341   1.6927   1.7304
     1.9994   2.0888   2.1587   2.2886   2.5762   2.6488   2.6725   2.7281
     2.8942   2.9927   3.5274   3.6169   3.9119   3.9508   4.1241   4.1283
     4.1820   4.2964   4.4132   4.4209   4.4974   4.6478   4.6615   4.7440
     4.8407   4.8731   4.8880   5.0745   5.0769   5.2761   5.5583   5.5932
     5.7224   5.9048   5.9153   5.9854   6.0219   6.0440   6.1384   6.1742
     6.4002   6.4637   6.5251   6.5617   6.6270   6.6530   6.7777   6.8202
     6.8296   6.8605   6.9304   6.9402   6.9718   7.0527   7.0635   7.1102
     7.2481   7.3286   7.8193   7.8237   8.0057   8.0319   8.1695   8.1721
     9.9204   9.9439  10.4533  10.4898  10.6872  10.7228  12.0572  12.0809
    12.2220  12.4284  12.4853  12.5549  12.6492  12.6680  12.7449  12.8123
    12.9844  13.1134  13.4143  13.4928  13.6086  13.6619  13.9690  13.9951
    14.3351  14.4924  14.7961  15.2549  15.5097  16.1725  16.3599  16.5700
    16.6835  17.5785  17.5956  17.7484  17.7517

          k = 0.1667 0.0000-0.5000 ( 62322 PWs)   bands (ev):

   -66.1548 -66.1548 -66.1544 -66.1544 -66.1539 -66.1539 -66.1535 -66.1535
   -30.5725 -30.5725 -30.5695 -30.5695 -30.5295 -30.5295 -30.5271 -30.5270
   -30.5246 -30.5246 -30.5223 -30.5223 -30.4777 -30.4777 -30.4747 -30.4747
   -30.4680 -30.4680 -30.4625 -30.4625 -30.4101 -30.4101 -30.4063 -30.4063
   -20.3030 -20.3030 -20.3029 -20.3029 -20.3029 -20.3029 -20.3028 -20.3028
   -20.2793 -20.2793 -20.2785 -20.2785 -20.2776 -20.2776 -20.2772 -20.2772
   -20.2771 -20.2771 -20.2769 -20.2769 -20.2768 -20.2768 -20.2760 -20.2760
   -20.2759 -20.2759 -20.2753 -20.2753 -20.2728 -20.2727 -20.2724 -20.2724
   -20.2707 -20.2706 -20.2705 -20.2705 -20.2678 -20.2678 -20.2676 -20.2676
   -20.2661 -20.2661 -20.2661 -20.2661 -20.2652 -20.2652 -20.2651 -20.2651
   -20.2641 -20.2641 -20.2641 -20.2641 -20.2607 -20.2607 -20.2605 -20.2605
    -9.7346  -9.7346  -9.5579  -9.5579  -9.0862  -9.0862  -8.8967  -8.8967
    -8.7633  -8.7633  -8.7482  -8.7482  -8.6460  -8.6460  -8.5995  -8.5995
    -7.9064  -7.9064  -7.8843  -7.8843  -7.6195  -7.6195  -7.5702  -7.5702
     1.2005   1.2005   1.2241   1.2241   1.6793   1.6793   1.7079   1.7079
     2.6863   2.6863   2.9029   2.9029   2.9611   2.9611   3.0365   3.0365
     3.0831   3.0832   3.1809   3.1809   3.3119   3.3119   3.6827   3.6827
     3.7521   3.7521   4.2102   4.2102   4.6075   4.6075   4.7141   4.7141
     4.7630   4.7630   4.8060   4.8060   5.0300   5.0300   5.6684   5.6684
     5.7008   5.7008   5.7891   5.7891   6.0872   6.0872   6.1792   6.1792
     6.3609   6.3609   6.5901   6.5901   6.6233   6.6233   6.7017   6.7017
     6.8904   6.8904   6.9151   6.9151   6.9877   6.9877   7.5094   7.5094
     7.5157   7.5157   7.7110   7.7110   7.7426   7.7426   8.1737   8.1737
     9.9343   9.9343  11.2865  11.2865  11.3199  11.3199  11.5444  11.5444
    11.6072  11.6072  12.4968  12.4968  12.8442  12.8442  13.0029  13.0029
    13.1030  13.1030  13.1825  13.1825  13.2473  13.2474  13.9785  13.9786
    14.4385  14.4385  15.0768  15.0768  15.9834  15.9834  16.5065  16.5065
    17.2134  17.2134  17.9068  17.9069  17.9294

          k = 0.1667 0.1575 0.1667 ( 62255 PWs)   bands (ev):

   -66.1552 -66.1549 -66.1544 -66.1543 -66.1540 -66.1540 -66.1535 -66.1531
   -30.5772 -30.5756 -30.5735 -30.5723 -30.5712 -30.5696 -30.5690 -30.5670
   -30.4809 -30.4798 -30.4796 -30.4771 -30.4765 -30.4755 -30.4747 -30.4725
   -30.4670 -30.4614 -30.4613 -30.4565 -30.4162 -30.4123 -30.4122 -30.4084
   -20.3030 -20.3030 -20.3029 -20.3029 -20.3029 -20.3028 -20.3028 -20.3028
   -20.2792 -20.2788 -20.2785 -20.2779 -20.2778 -20.2776 -20.2776 -20.2774
   -20.2772 -20.2771 -20.2768 -20.2766 -20.2765 -20.2763 -20.2761 -20.2761
   -20.2758 -20.2758 -20.2757 -20.2750 -20.2734 -20.2731 -20.2728 -20.2724
   -20.2710 -20.2709 -20.2701 -20.2700 -20.2696 -20.2696 -20.2682 -20.2682
   -20.2674 -20.2672 -20.2670 -20.2668 -20.2664 -20.2663 -20.2652 -20.2651
   -20.2618 -20.2616 -20.2613 -20.2612 -20.2606 -20.2604 -20.2600 -20.2599
    -9.9820  -9.8195  -9.6071  -9.5991  -9.4860  -9.4750  -9.2507  -9.2363
    -8.8281  -8.7359  -8.7354  -8.7212  -7.9469  -7.9427  -7.9262  -7.9251
    -7.8926  -7.8896  -7.8526  -7.8302  -7.7402  -7.6952  -7.6939  -7.6500
     1.0191   1.0247   1.1913   1.2000   1.2054   1.2155   1.4435   1.5386
     1.9119   1.9697   1.9740   2.1030   2.3039   2.3754   2.7137   2.7140
     2.8134   2.8293   3.9564   3.9653   3.9881   4.0256   4.1753   4.1831
     4.1990   4.2018   4.6455   4.6847   4.7707   4.8100   4.8387   5.0980
     5.1732   5.2361   5.2460   5.2716   5.3128   5.5404   5.5440   5.7009
     5.7153   5.7822   5.9784   5.9856   6.0335   6.1648   6.2366   6.3259
     6.3346   6.3486   6.4241   6.4955   6.5416   6.6809   6.6969   6.7299
     6.7523   6.8827   6.8890   6.9493   6.9587   7.0022   7.0360   7.0388
     7.0619   7.1289   7.9674   7.9693   8.0807   8.1022   8.1107   8.1136
     9.7757   9.7828  10.0751  10.1301  10.1499  10.1768  12.1934  12.2389
    12.3066  12.3167  12.5705  12.5751  12.5919  12.5982  13.0245  13.0638
    13.1134  13.1319  13.6676  13.7184  13.8957  13.9194  13.9308  14.0094
    14.5266  14.8196  14.8334  15.2635  15.7463  15.7542  15.7712  16.7224
    16.7250  17.1215  17.2851  17.2863  17.4092

          k = 0.1667 0.1575 0.3333 ( 62260 PWs)   bands (ev):

   -66.1550 -66.1547 -66.1545 -66.1542 -66.1542 -66.1538 -66.1536 -66.1533
   -30.5739 -30.5712 -30.5708 -30.5682 -30.5567 -30.5543 -30.5517 -30.5494
   -30.5015 -30.4998 -30.4968 -30.4953 -30.4786 -30.4765 -30.4755 -30.4736
   -30.4658 -30.4626 -30.4604 -30.4576 -30.4153 -30.4129 -30.4114 -30.4091
   -20.3030 -20.3029 -20.3029 -20.3029 -20.3029 -20.3028 -20.3028 -20.3028
   -20.2791 -20.2789 -20.2784 -20.2780 -20.2775 -20.2775 -20.2775 -20.2772
   -20.2772 -20.2770 -20.2769 -20.2768 -20.2765 -20.2764 -20.2762 -20.2761
   -20.2758 -20.2758 -20.2756 -20.2752 -20.2733 -20.2730 -20.2729 -20.2725
   -20.2709 -20.2708 -20.2703 -20.2702 -20.2686 -20.2685 -20.2673 -20.2671
   -20.2670 -20.2669 -20.2668 -20.2667 -20.2657 -20.2657 -20.2655 -20.2655
   -20.2633 -20.2631 -20.2621 -20.2620 -20.2610 -20.2609 -20.2603 -20.2602
    -9.8425  -9.6775  -9.6380  -9.5047  -9.3494  -9.1982  -9.1071  -9.0815
    -8.8740  -8.7594  -8.7015  -8.6997  -8.3142  -8.2980  -8.2803  -8.2416
    -7.9256  -7.9096  -7.8832  -7.8674  -7.7314  -7.7047  -7.6848  -7.6591
     1.1930   1.1974   1.2111   1.2212   1.8075   1.8158   1.9170   1.9627
     1.9994   2.1414   2.1583   2.3370   2.5814   2.6533   2.7348   2.7996
     2.9686   3.0605   3.5275   3.6131   3.8810   3.9148   3.9897   4.0720
     4.1807   4.2169   4.3751   4.4073   4.4992   4.6302   4.6373   4.7345
     4.7639   4.7783   4.8117   5.0345   5.0756   5.0934   5.3227   5.5699
     5.7125   5.7396   5.8021   5.9115   5.9617   6.0100   6.0926   6.1532
     6.2808   6.4755   6.5190   6.6552   6.6736   6.7052   6.7234   6.7459
     6.8589   6.9089   6.9394   6.9878   7.0157   7.0520   7.1039   7.1324
     7.2480   7.3287   7.8203   7.8221   7.9593   7.9774   8.1040   8.1070
    10.1024  10.1355  10.4635  10.4968  10.8009  10.8257  12.0544  12.0785
    12.1638  12.3278  12.4475  12.4738  12.5378  12.5953  12.7479  12.7926
    13.0247  13.1187  13.3716  13.4950  13.4999  13.5943  13.9063  13.9301
    14.6791  14.8131  15.1798  15.5763  15.6930  16.1648  16.3746  16.6408
    16.6540  17.4163  17.6306  17.6388  17.6954

          k = 0.1667 0.1575-0.5000 ( 62292 PWs)   bands (ev):

   -66.1548 -66.1548 -66.1544 -66.1544 -66.1539 -66.1539 -66.1536 -66.1536
   -30.5723 -30.5723 -30.5697 -30.5697 -30.5293 -30.5293 -30.5272 -30.5272
   -30.5244 -30.5244 -30.5224 -30.5224 -30.4773 -30.4773 -30.4748 -30.4748
   -30.4642 -30.4642 -30.4591 -30.4590 -30.4140 -30.4140 -30.4102 -30.4101
   -20.3030 -20.3030 -20.3029 -20.3029 -20.3029 -20.3029 -20.3028 -20.3028
   -20.2790 -20.2790 -20.2782 -20.2782 -20.2775 -20.2775 -20.2771 -20.2771
   -20.2771 -20.2771 -20.2768 -20.2768 -20.2767 -20.2767 -20.2760 -20.2760
   -20.2759 -20.2759 -20.2753 -20.2753 -20.2731 -20.2731 -20.2728 -20.2728
   -20.2707 -20.2706 -20.2706 -20.2705 -20.2678 -20.2678 -20.2676 -20.2676
   -20.2661 -20.2661 -20.2661 -20.2661 -20.2652 -20.2652 -20.2651 -20.2651
   -20.2641 -20.2641 -20.2641 -20.2641 -20.2607 -20.2606 -20.2606 -20.2605
    -9.7149  -9.7149  -9.5647  -9.5647  -9.0357  -9.0357  -8.8689  -8.8689
    -8.7682  -8.7682  -8.7510  -8.7510  -8.6175  -8.6175  -8.5748  -8.5748
    -7.9050  -7.9050  -7.8885  -7.8885  -7.7182  -7.7182  -7.6720  -7.6720
     1.2120   1.2120   1.2242   1.2243   1.8914   1.8914   1.9498   1.9498
     2.7521   2.7521   2.9111   2.9111   2.9642   2.9642   3.0448   3.0448
     3.0857   3.0857   3.2055   3.2055   3.3063   3.3063   3.7142   3.7142
     3.8097   3.8098   4.0688   4.0688   4.5108   4.5109   4.6389   4.6389
     4.7290   4.7290   4.7939   4.7939   4.8931   4.8931   5.4623   5.4623
     5.6554   5.6554   5.7816   5.7816   5.8652   5.8652   6.1256   6.1256
     6.4482   6.4482   6.6154   6.6154   6.6478   6.6479   6.7681   6.7681
     6.8194   6.8194   6.9730   6.9730   7.0466   7.0466   7.5073   7.5074
     7.5196   7.5196   7.6863   7.6863   7.7152   7.7152   8.1074   8.1074
    10.1236  10.1237  11.2902  11.2902  11.3219  11.3219  11.6119  11.6119
    11.6704  11.6704  12.3421  12.3421  12.8118  12.8118  12.9167  12.9167
    13.0814  13.0814  13.1289  13.1289  13.2268  13.2268  13.9113  13.9113
    14.7701  14.7701  15.4804  15.4804  16.0704  16.0704  16.4790  16.4790
    17.2494  17.2494  17.7400  17.7402  17.9328

          k = 0.1667 0.3150 0.1667 ( 62249 PWs)   bands (ev):

   -66.1551 -66.1549 -66.1543 -66.1542 -66.1541 -66.1541 -66.1534 -66.1532
   -30.5767 -30.5756 -30.5735 -30.5726 -30.5709 -30.5695 -30.5691 -30.5675
   -30.4804 -30.4796 -30.4788 -30.4774 -30.4761 -30.4754 -30.4739 -30.4726
   -30.4563 -30.4516 -30.4514 -30.4469 -30.4270 -30.4230 -30.4229 -30.4189
   -20.3030 -20.3030 -20.3029 -20.3029 -20.3029 -20.3028 -20.3028 -20.3028
   -20.2787 -20.2783 -20.2780 -20.2779 -20.2776 -20.2775 -20.2774 -20.2772
   -20.2770 -20.2767 -20.2764 -20.2764 -20.2763 -20.2762 -20.2761 -20.2760
   -20.2759 -20.2757 -20.2756 -20.2752 -20.2743 -20.2740 -20.2738 -20.2734
   -20.2710 -20.2710 -20.2701 -20.2700 -20.2696 -20.2696 -20.2682 -20.2682
   -20.2673 -20.2672 -20.2669 -20.2669 -20.2664 -20.2663 -20.2652 -20.2652
   -20.2617 -20.2616 -20.2613 -20.2612 -20.2605 -20.2605 -20.2600 -20.2599
    -9.9365  -9.8447  -9.5686  -9.5596  -9.5022  -9.4915  -9.2477  -9.2393
    -8.6202  -8.5615  -8.5609  -8.5510  -8.0238  -7.9917  -7.9908  -7.9652
    -7.9371  -7.9310  -7.9014  -7.8980  -7.8797  -7.8464  -7.8373  -7.8339
     1.0202   1.0234   1.1992   1.2009   1.2140   1.2162   1.5089   1.5367
     2.3182   2.3572   2.5035   2.5973   2.6045   2.7212   2.9376   2.9463
     3.0259   3.0514   3.5916   3.6124   3.6404   3.6949   4.1601   4.1633
     4.1702   4.1864   4.1987   4.5506   4.5572   4.7736   4.8470   4.9226
     4.9571   4.9652   5.0553   5.1220   5.2812   5.3723   5.4384   5.4405
     5.7287   5.7315   5.7952   5.8017   5.9282   5.9313   6.2321   6.2500
     6.3406   6.3633   6.3805   6.5105   6.5351   6.6773   6.7278   6.7416
     6.8734   6.8793   6.9638   6.9847   7.0240   7.0268   7.1844   7.2094
     7.2204   7.2278   7.8858   7.8896   7.8986   7.9061   7.9728   7.9874
     9.7850   9.7870  10.5594  10.6109  10.6444  10.6527  11.7792  11.8278
    11.8730  11.8811  12.5747  12.5802  12.5928  12.5974  13.1485  13.1850
    13.2080  13.2255  13.5924  13.6104  13.6605  13.6841  13.8047  13.8561
    15.4274  15.5648  15.5783  15.5875  15.7526  15.7543  16.5393  16.5708
    16.5757  16.8070  17.3682  17.5172  17.5225

          k = 0.1667 0.3150 0.3333 ( 62265 PWs)   bands (ev):

   -66.1550 -66.1548 -66.1545 -66.1543 -66.1541 -66.1539 -66.1536 -66.1534
   -30.5733 -30.5718 -30.5702 -30.5687 -30.5562 -30.5548 -30.5512 -30.5498
   -30.5010 -30.5000 -30.4964 -30.4954 -30.4778 -30.4765 -30.4751 -30.4738
   -30.4552 -30.4523 -30.4505 -30.4478 -30.4260 -30.4236 -30.4220 -30.4196
   -20.3030 -20.3030 -20.3029 -20.3029 -20.3029 -20.3028 -20.3028 -20.3028
   -20.2786 -20.2783 -20.2778 -20.2777 -20.2775 -20.2773 -20.2773 -20.2772
   -20.2770 -20.2767 -20.2767 -20.2765 -20.2764 -20.2763 -20.2761 -20.2761
   -20.2758 -20.2757 -20.2757 -20.2753 -20.2742 -20.2739 -20.2739 -20.2735
   -20.2709 -20.2708 -20.2703 -20.2703 -20.2686 -20.2685 -20.2673 -20.2672
   -20.2670 -20.2669 -20.2668 -20.2667 -20.2658 -20.2657 -20.2655 -20.2655
   -20.2633 -20.2632 -20.2621 -20.2621 -20.2610 -20.2609 -20.2602 -20.2602
    -9.7946  -9.7019  -9.5961  -9.5227  -9.2956  -9.2153  -9.1000  -9.0858
    -8.6776  -8.5994  -8.5399  -8.5388  -8.3306  -8.3077  -8.2813  -8.2238
    -7.9875  -7.9818  -7.9520  -7.9359  -7.9160  -7.8856  -7.8735  -7.8484
     1.1989   1.1991   1.2197   1.2219   1.9728   1.9984   2.0886   2.1557
     2.5051   2.5826   2.5953   2.6035   2.6112   2.7545   2.9514   3.0172
     3.1984   3.2705   3.5021   3.6011   3.6370   3.6506   3.7310   3.7720
     4.1364   4.2363   4.3321   4.3591   4.3880   4.4270   4.5021   4.5434
     4.5681   4.7622   4.7947   4.8368   4.9431   4.9661   4.9985   5.1522
     5.2921   5.3951   5.4676   5.7005   5.7445   5.9259   5.9967   6.0328
     6.3999   6.4990   6.5760   6.7065   6.7370   6.7691   6.8439   6.8672
     6.9204   6.9927   7.0625   7.0844   7.1305   7.2123   7.2248   7.2533
     7.2921   7.3296   7.7890   7.8009   7.8105   7.8337   7.9012   7.9302
    10.4459  10.4709  10.6249  10.6497  11.1222  11.1528  11.8099  11.8677
    12.0606  12.0950  12.1018  12.1613  12.6152  12.6515  12.7526  12.7882
    13.1092  13.1667  13.1906  13.2603  13.4793  13.5255  13.6852  13.7339
    15.5241  15.5645  15.8814  16.0815  16.1300  16.4442  16.5219  16.7026
    16.8994  16.9083  17.4896  17.6820  17.7623

          k = 0.1667 0.3150-0.5000 ( 62264 PWs)   bands (ev):

   -66.1547 -66.1547 -66.1545 -66.1545 -66.1538 -66.1538 -66.1536 -66.1536
   -30.5718 -30.5717 -30.5702 -30.5702 -30.5288 -30.5288 -30.5276 -30.5276
   -30.5240 -30.5240 -30.5228 -30.5228 -30.4765 -30.4765 -30.4751 -30.4751
   -30.4537 -30.4537 -30.4491 -30.4491 -30.4247 -30.4247 -30.4207 -30.4207
   -20.3030 -20.3029 -20.3029 -20.3029 -20.3029 -20.3028 -20.3028 -20.3028
   -20.2785 -20.2784 -20.2776 -20.2776 -20.2775 -20.2775 -20.2770 -20.2770
   -20.2768 -20.2768 -20.2768 -20.2768 -20.2765 -20.2765 -20.2760 -20.2760
   -20.2758 -20.2758 -20.2754 -20.2754 -20.2740 -20.2740 -20.2737 -20.2737
   -20.2706 -20.2706 -20.2706 -20.2706 -20.2678 -20.2678 -20.2677 -20.2677
   -20.2661 -20.2661 -20.2661 -20.2661 -20.2652 -20.2652 -20.2652 -20.2651
   -20.2641 -20.2641 -20.2641 -20.2641 -20.2606 -20.2606 -20.2606 -20.2606
    -9.6690  -9.6690  -9.5856  -9.5856  -8.9226  -8.9226  -8.8185  -8.8185
    -8.7832  -8.7832  -8.7596  -8.7596  -8.5004  -8.5004  -8.4741  -8.4741
    -7.9804  -7.9804  -7.9527  -7.9527  -7.8958  -7.8958  -7.8664  -7.8664
     1.2218   1.2218   1.2247   1.2247   2.4859   2.4859   2.5720   2.5720
     2.9015   2.9015   2.9403   2.9403   2.9949   2.9949   3.0718   3.0718
     3.1009   3.1009   3.2769   3.2769   3.2858   3.2858   3.6299   3.6299
     3.9483   3.9483   4.0057   4.0057   4.0702   4.0702   4.3194   4.3194
     4.6689   4.6689   4.7295   4.7295   4.8929   4.8929   4.9931   4.9931
     5.0729   5.0729   5.5350   5.5350   5.8020   5.8020   5.9364   5.9365
     6.5704   6.5704   6.6717   6.6717   6.6956   6.6956   6.8025   6.8025
     7.0823   7.0823   7.1446   7.1446   7.2210   7.2210   7.4900   7.4900
     7.5416   7.5416   7.6017   7.6017   7.6271   7.6271   7.9107   7.9107
    10.6110  10.6110  11.2947  11.2947  11.3253  11.3253  11.7375  11.7375
    11.8723  11.8723  12.0032  12.0033  12.5754  12.5754  12.6224  12.6224
    13.0394  13.0394  13.1167  13.1168  13.2734  13.2734  13.6903  13.6903
    15.5510  15.5510  16.3242  16.3242  16.3764  16.3764  16.4949  16.4949
    17.3336  17.3337  17.4003  17.4003  17.9451

          k = 0.1667-0.4725 0.1667 ( 62220 PWs)   bands (ev):

   -66.1550 -66.1550 -66.1542 -66.1542 -66.1542 -66.1541 -66.1533 -66.1533
   -30.5760 -30.5760 -30.5731 -30.5731 -30.5702 -30.5702 -30.5683 -30.5683
   -30.4800 -30.4799 -30.4781 -30.4780 -30.4757 -30.4757 -30.4731 -30.4731
   -30.4417 -30.4417 -30.4374 -30.4374 -30.4373 -30.4373 -30.4331 -30.4331
   -20.3030 -20.3030 -20.3029 -20.3029 -20.3029 -20.3029 -20.3028 -20.3028
   -20.2782 -20.2782 -20.2778 -20.2778 -20.2777 -20.2776 -20.2772 -20.2771
   -20.2766 -20.2766 -20.2763 -20.2763 -20.2762 -20.2762 -20.2756 -20.2756
   -20.2755 -20.2755 -20.2753 -20.2753 -20.2750 -20.2750 -20.2746 -20.2746
   -20.2710 -20.2710 -20.2701 -20.2700 -20.2696 -20.2696 -20.2682 -20.2682
   -20.2673 -20.2673 -20.2669 -20.2669 -20.2664 -20.2663 -20.2652 -20.2652
   -20.2617 -20.2617 -20.2613 -20.2613 -20.2605 -20.2605 -20.2599 -20.2599
    -9.8856  -9.8856  -9.5302  -9.5301  -9.5202  -9.5202  -9.2435  -9.2435
    -8.3241  -8.3240  -8.2894  -8.2890  -8.2876  -8.2875  -8.2780  -8.2777
    -7.9297  -7.9292  -7.9231  -7.9231  -7.8715  -7.8714  -7.8408  -7.8408
     1.0216   1.0218   1.2011   1.2013   1.2162   1.2165   1.5301   1.5303
     2.3379   2.3381   3.1647   3.1654   3.1786   3.1846   3.2452   3.2468
     3.3186   3.3189   3.3627   3.3637   3.6143   3.6153   3.6154   3.6196
     3.8111   3.8115   4.1646   4.1702   4.1839   4.1879   4.9334   4.9397
     5.0423   5.0462   5.1958   5.2060   5.2136   5.2214   5.4313   5.4365
     5.5263   5.5286   5.7658   5.7772   5.7840   5.7918   6.2753   6.2787
     6.3488   6.3584   6.5116   6.5172   6.5295   6.5314   6.8014   6.8054
     6.8068   6.8132   6.9984   6.9999   7.0508   7.0518   7.5543   7.5556
     7.5655   7.5677   7.5702   7.5749   7.5817   7.5829   7.9758   7.9758
     9.7872   9.7878  11.1785  11.1863  11.2280  11.2403  11.2612  11.2675
    11.2860  11.2867  12.5760  12.5817  12.5940  12.5978  13.3370  13.3384
    13.3862  13.3999  13.4130  13.4140  13.4206  13.4304  13.7931  13.7931
    15.7476  15.7487  15.9847  15.9866  16.2201  16.2255  16.2293  16.2337
    16.5390  16.5401  17.8482  17.8524  17.8637

          k = 0.1667-0.4725 0.3333 ( 62252 PWs)   bands (ev):

   -66.1549 -66.1548 -66.1544 -66.1543 -66.1540 -66.1540 -66.1535 -66.1535
   -30.5726 -30.5725 -30.5695 -30.5695 -30.5555 -30.5555 -30.5505 -30.5505
   -30.5005 -30.5005 -30.4959 -30.4959 -30.4771 -30.4771 -30.4744 -30.4744
   -30.4407 -30.4407 -30.4380 -30.4380 -30.4364 -30.4364 -30.4338 -30.4338
   -20.3030 -20.3030 -20.3029 -20.3029 -20.3029 -20.3029 -20.3028 -20.3028
   -20.2781 -20.2780 -20.2778 -20.2778 -20.2774 -20.2774 -20.2770 -20.2770
   -20.2767 -20.2767 -20.2765 -20.2765 -20.2762 -20.2762 -20.2758 -20.2758
   -20.2753 -20.2753 -20.2752 -20.2751 -20.2750 -20.2750 -20.2748 -20.2748
   -20.2709 -20.2709 -20.2703 -20.2703 -20.2686 -20.2686 -20.2672 -20.2672
   -20.2669 -20.2669 -20.2667 -20.2667 -20.2658 -20.2657 -20.2655 -20.2655
   -20.2632 -20.2632 -20.2621 -20.2621 -20.2610 -20.2610 -20.2602 -20.2602
    -9.7425  -9.7425  -9.5537  -9.5537  -9.2471  -9.2469  -9.0923  -9.0923
    -8.4312  -8.4306  -8.3995  -8.3979  -8.2822  -8.2806  -8.2753  -8.2742
    -8.2036  -8.2029  -8.1574  -8.1564  -7.9095  -7.9091  -7.8681  -7.8679
     1.1997   1.2000   1.2218   1.2224   1.9942   1.9948   2.1442   2.1446
     2.6106   2.6115   3.1728   3.1831   3.2290   3.2298   3.2583   3.2824
     3.3426   3.3437   3.4266   3.4421   3.5565   3.5705   3.5999   3.6345
     3.7403   3.7420   3.8365   3.8440   4.3451   4.3469   4.4161   4.4291
     4.5631   4.5973   4.7944   4.8023   4.9172   4.9442   4.9606   4.9970
     5.2119   5.2414   5.3315   5.4117   5.7780   5.7913   5.9956   6.0110
     6.4732   6.4733   6.6668   6.6892   6.7704   6.7823   6.8598   6.8739
     6.9291   6.9738   7.1833   7.1894   7.2337   7.2456   7.5188   7.5259
     7.5305   7.5428   7.5534   7.5537   7.5826   7.5975   7.8404   7.8467
    10.4737  10.4739  11.2258  11.2339  11.2596  11.2637  11.5982  11.6028
    11.6393  11.6506  12.0664  12.0975  12.7316  12.7871  12.8598  12.8721
    12.8825  12.9067  13.2879  13.3542  13.4133  13.4237  13.5562  13.6185
    15.9936  16.0044  16.1902  16.1961  16.4302  16.4453  16.9272  16.9316
    16.9876  16.9959  17.3272  17.3420  17.8813

          k = 0.1667-0.4725-0.5000 ( 62232 PWs)   bands (ev):

   -66.1546 -66.1546 -66.1546 -66.1546 -66.1537 -66.1537 -66.1537 -66.1537
   -30.5710 -30.5710 -30.5710 -30.5710 -30.5282 -30.5282 -30.5282 -30.5282
   -30.5234 -30.5233 -30.5233 -30.5233 -30.4758 -30.4757 -30.4757 -30.4757
   -30.4393 -30.4393 -30.4393 -30.4393 -30.4351 -30.4351 -30.4350 -30.4350
   -20.3030 -20.3029 -20.3029 -20.3029 -20.3029 -20.3028 -20.3028 -20.3028
   -20.2779 -20.2779 -20.2779 -20.2779 -20.2770 -20.2770 -20.2770 -20.2770
   -20.2768 -20.2768 -20.2768 -20.2767 -20.2760 -20.2760 -20.2760 -20.2760
   -20.2752 -20.2751 -20.2751 -20.2751 -20.2750 -20.2749 -20.2749 -20.2749
   -20.2706 -20.2706 -20.2706 -20.2706 -20.2677 -20.2677 -20.2677 -20.2677
   -20.2661 -20.2661 -20.2661 -20.2661 -20.2652 -20.2652 -20.2652 -20.2652
   -20.2641 -20.2641 -20.2641 -20.2641 -20.2606 -20.2606 -20.2606 -20.2606
    -9.6213  -9.6213  -9.6213  -9.6213  -8.8349  -8.8349  -8.8339  -8.8339
    -8.7763  -8.7763  -8.7751  -8.7751  -8.2693  -8.2693  -8.2676  -8.2675
    -8.2480  -8.2480  -8.2460  -8.2460  -7.8890  -7.8890  -7.8886  -7.8886
     1.2243   1.2243   1.2248   1.2248   2.9183   2.9183   2.9192   2.9192
     3.0080   3.0080   3.0332   3.0333   3.1331   3.1331   3.1702   3.1702
     3.2827   3.2827   3.2912   3.2912   3.4136   3.4136   3.4181   3.4181
     3.6457   3.6457   3.6573   3.6573   4.2694   4.2694   4.2747   4.2747
     4.3560   4.3561   4.3660   4.3660   4.6975   4.6975   4.7621   4.7621
     5.2203   5.2203   5.2914   5.2914   5.8207   5.8207   5.8368   5.8368
     6.6329   6.6329   6.6543   6.6543   6.7553   6.7553   6.7699   6.7699
     7.3215   7.3215   7.3788   7.3788   7.4177   7.4178   7.4280   7.4280
     7.4636   7.4636   7.4953   7.4953   7.6432   7.6432   7.6654   7.6654
    11.1723  11.1723  11.2161  11.2161  11.3314  11.3314  11.3926  11.3926
    12.1915  12.1915  12.2018  12.2019  12.2287  12.2287  12.2411  12.2411
    13.0450  13.0450  13.1163  13.1163  13.4106  13.4106  13.4701  13.4701
    16.1255  16.1255  16.1351  16.1351  16.8448  16.8448  16.8496  16.8497
    17.6144  17.6145  17.6446  17.6446  17.7687

          k = 0.3333 0.0000 0.3333 ( 62316 PWs)   bands (ev):

   -66.1549 -66.1545 -66.1544 -66.1543 -66.1540 -66.1540 -66.1539 -66.1535
   -30.5564 -30.5548 -30.5535 -30.5528 -30.5509 -30.5505 -30.5502 -30.5481
   -30.5009 -30.4993 -30.4992 -30.4978 -30.4972 -30.4959 -30.4955 -30.4936
   -30.4685 -30.4652 -30.4652 -30.4622 -30.4104 -30.4081 -30.4081 -30.4058
   -20.3030 -20.3029 -20.3029 -20.3029 -20.3029 -20.3029 -20.3028 -20.3028
   -20.2793 -20.2790 -20.2788 -20.2785 -20.2776 -20.2775 -20.2774 -20.2773
   -20.2772 -20.2768 -20.2768 -20.2766 -20.2766 -20.2764 -20.2762 -20.2762
   -20.2759 -20.2757 -20.2757 -20.2753 -20.2729 -20.2727 -20.2725 -20.2723
   -20.2700 -20.2698 -20.2695 -20.2694 -20.2687 -20.2685 -20.2678 -20.2676
   -20.2669 -20.2669 -20.2669 -20.2668 -20.2653 -20.2653 -20.2647 -20.2647
   -20.2631 -20.2630 -20.2625 -20.2624 -20.2622 -20.2621 -20.2616 -20.2616
    -9.6868  -9.4681  -9.4201  -9.4149  -9.2245  -9.2149  -9.0029  -9.0006
    -8.9781  -8.7660  -8.7634  -8.7355  -8.3747  -8.3010  -8.2941  -8.2890
    -8.2835  -8.2807  -8.2058  -8.1829  -7.6233  -7.5952  -7.5943  -7.5672
     1.5976   1.6229   1.6237   1.6807   1.8332   1.8409   2.0051   2.0157
     2.0892   2.0979   2.2907   2.4238   2.8687   2.9012   2.9058   2.9359
     2.9661   3.0176   3.6823   3.6982   3.8152   3.8406   3.8644   3.8917
     4.0958   4.1115   4.1164   4.2135   4.2602   4.2605   4.3916   4.4057
     4.6426   4.7457   4.7664   4.8303   4.8419   4.8453   4.9365   5.2455
     5.2781   5.3350   5.3499   5.7156   6.1433   6.1450   6.1933   6.2045
     6.5089   6.5488   6.5555   6.6377   6.6996   6.7256   6.7473   6.7481
     6.9757   7.0646   7.0663   7.0899   7.1541   7.1570   7.2147   7.2410
     7.2482   7.4538   7.7226   7.7328   7.9608   8.0271   8.0366   8.0749
    10.5969  10.6704  10.6779  10.7103  10.9552  11.0231  12.2195  12.2344
    12.2661  12.3021  12.3099  12.3181  12.4699  12.4789  12.7062  12.7193
    12.7521  12.8221  13.1103  13.1879  13.5286  13.5954  13.6070  13.7012
    14.4831  14.7440  14.7465  15.1651  15.9162  16.8709  16.8998  16.9539
    16.9647  17.6950  17.7004  17.7361  17.9006

          k = 0.3333 0.0000-0.5000 ( 62288 PWs)   bands (ev):

   -66.1546 -66.1546 -66.1542 -66.1542 -66.1541 -66.1541 -66.1537 -66.1537
   -30.5527 -30.5527 -30.5499 -30.5499 -30.5284 -30.5284 -30.5260 -30.5260
   -30.5257 -30.5256 -30.5233 -30.5233 -30.4977 -30.4976 -30.4952 -30.4952
   -30.4669 -30.4669 -30.4638 -30.4637 -30.4092 -30.4092 -30.4069 -30.4069
   -20.3030 -20.3029 -20.3029 -20.3029 -20.3029 -20.3029 -20.3028 -20.3028
   -20.2791 -20.2791 -20.2787 -20.2787 -20.2775 -20.2774 -20.2771 -20.2771
   -20.2770 -20.2770 -20.2769 -20.2769 -20.2766 -20.2766 -20.2761 -20.2761
   -20.2758 -20.2758 -20.2754 -20.2754 -20.2727 -20.2727 -20.2725 -20.2725
   -20.2698 -20.2698 -20.2696 -20.2696 -20.2682 -20.2682 -20.2679 -20.2679
   -20.2655 -20.2655 -20.2655 -20.2655 -20.2651 -20.2651 -20.2650 -20.2650
   -20.2642 -20.2642 -20.2642 -20.2642 -20.2620 -20.2620 -20.2619 -20.2619
    -9.5137  -9.5136  -9.2911  -9.2911  -9.1401  -9.1401  -8.8307  -8.8307
    -8.7948  -8.7948  -8.7191  -8.7191  -8.6354  -8.6354  -8.6078  -8.6078
    -8.2632  -8.2632  -8.2601  -8.2601  -7.6094  -7.6093  -7.5808  -7.5808
     1.6143   1.6143   1.6664   1.6664   2.0113   2.0113   2.0759   2.0759
     2.9008   2.9008   2.9593   2.9593   2.9863   2.9863   3.0763   3.0763
     3.0964   3.0964   3.3991   3.3991   3.4869   3.4869   3.7122   3.7122
     3.7281   3.7281   3.9342   3.9342   4.0955   4.0956   4.1650   4.1650
     4.4699   4.4699   4.7362   4.7362   4.8481   4.8481   4.9055   4.9055
[...]
   -20.6811 -20.6811 -20.6809 -20.6809 -20.6793 -20.6793 -20.6787 -20.6787
   -20.6756 -20.6756 -20.6755 -20.6755 -20.6741 -20.6741 -20.6738 -20.6738
   -20.6736 -20.6736 -20.6735 -20.6735 -20.6713 -20.6713 -20.6712 -20.6712
   -20.6707 -20.6707 -20.6706 -20.6706 -20.6681 -20.6681 -20.6677 -20.6677
    -9.7881  -9.7881  -9.6329  -9.6329  -9.3015  -9.3015  -9.0850  -9.0850
    -8.9111  -8.9111  -8.8577  -8.8576  -8.8076  -8.8076  -8.7734  -8.7733
    -8.4530  -8.4530  -8.4271  -8.4271  -8.1156  -8.1156  -8.0992  -8.0992
     1.1798   1.1798   1.1901   1.1901   1.9829   1.9829   2.0759   2.0759
     2.7033   2.7033   2.8189   2.8190   2.8468   2.8468   2.9442   2.9442
     2.9678   2.9678   3.1505   3.1505   3.1687   3.1688   3.4431   3.4431
     3.6336   3.6336   3.6711   3.6711   3.8418   3.8419   4.0487   4.0487
     4.3649   4.3649   4.4896   4.4896   4.5927   4.5927   4.6533   4.6533
     4.7404   4.7404   5.1692   5.1693   5.5355   5.5355   5.6232   5.6232
     6.3582   6.3582   6.4435   6.4435   6.5159   6.5159   6.5513   6.5513
     6.7511   6.7511   6.7995   6.7995   6.9126   6.9126   7.2424   7.2424
     7.2743   7.2743   7.3114   7.3115   7.3514   7.3515   7.6019   7.6019
    10.2678  10.2678  10.8595  10.8595  10.8864  10.8864  11.3542  11.3542
    11.4435  11.4435  11.6918  11.6918  12.2431  12.2431  12.2729  12.2729
    12.5163  12.5163  12.5846  12.5846  12.7252  12.7252  13.2382  13.2382
    15.0729  15.0729  15.5765  15.5765  16.0467  16.0467  16.3205  16.3205
    16.6890  16.6890  16.9879  16.9880  17.5486

          k = 0.3279 0.4788 0.1639 ( 63512 PWs)   bands (ev):

   -66.5394 -66.5394 -66.5391 -66.5390 -66.5388 -66.5388 -66.5384 -66.5384
   -30.8739 -30.8738 -30.8717 -30.8715 -30.8684 -30.8683 -30.8658 -30.8657
   -30.8647 -30.8647 -30.8628 -30.8627 -30.8502 -30.8502 -30.8470 -30.8470
   -30.8078 -30.8078 -30.8042 -30.8042 -30.7910 -30.7910 -30.7888 -30.7888
   -20.7092 -20.7092 -20.7092 -20.7091 -20.7091 -20.7091 -20.7090 -20.7090
   -20.6835 -20.6835 -20.6832 -20.6832 -20.6827 -20.6826 -20.6824 -20.6824
   -20.6817 -20.6816 -20.6814 -20.6814 -20.6811 -20.6811 -20.6810 -20.6809
   -20.6808 -20.6808 -20.6807 -20.6807 -20.6803 -20.6803 -20.6802 -20.6801
   -20.6758 -20.6758 -20.6753 -20.6753 -20.6748 -20.6748 -20.6744 -20.6743
   -20.6733 -20.6733 -20.6732 -20.6731 -20.6724 -20.6724 -20.6719 -20.6719
   -20.6697 -20.6697 -20.6691 -20.6690 -20.6681 -20.6680 -20.6678 -20.6677
    -9.8094  -9.8094  -9.6220  -9.6219  -9.3468  -9.3467  -9.1409  -9.1409
    -8.8900  -8.8897  -8.8145  -8.8141  -8.7766  -8.7761  -8.7702  -8.7702
    -8.4484  -8.4482  -8.4043  -8.4039  -8.1261  -8.1260  -8.0889  -8.0888
     1.1778   1.1792   1.1827   1.1839   1.9011   1.9017   2.0190   2.0202
     2.6649   2.6659   2.8711   2.8733   2.9214   2.9234   2.9520   2.9641
     2.9918   2.9998   3.1454   3.1576   3.1859   3.2118   3.3668   3.3703
     3.4311   3.4391   3.5926   3.6318   4.0348   4.0498   4.1907   4.2089
     4.2918   4.3481   4.4872   4.4996   4.5586   4.6265   4.6490   4.6586
     4.7580   4.7952   5.0567   5.1040   5.4807   5.4924   5.7843   5.7923
     6.3351   6.3361   6.3850   6.3959   6.5206   6.5218   6.6878   6.6920
     6.7677   6.7827   6.8579   6.8748   6.9496   6.9529   7.1874   7.1988
     7.2084   7.2217   7.2450   7.2514   7.2706   7.2869   7.6197   7.6245
    10.0881  10.0904  10.9225  10.9331  10.9482  10.9543  11.2874  11.2961
    11.3156  11.3284  11.5769  11.6132  12.2073  12.2529  12.3993  12.4042
    12.4332  12.4428  12.7824  12.8954  12.8979  12.9284  12.9583  13.0519
    15.2306  15.2385  15.5235  15.5322  15.9810  15.9907  16.4398  16.4596
    16.6447  16.6484  17.0340  17.0672  17.5352

          k =-0.4919 0.4788 0.1639 ( 63468 PWs)   bands (ev):

   -66.5392 -66.5392 -66.5392 -66.5392 -66.5386 -66.5386 -66.5386 -66.5386
   -30.8726 -30.8726 -30.8724 -30.8724 -30.8664 -30.8664 -30.8659 -30.8659
   -30.8642 -30.8642 -30.8639 -30.8639 -30.8298 -30.8298 -30.8293 -30.8293
   -30.8262 -30.8262 -30.8257 -30.8257 -30.7899 -30.7899 -30.7899 -30.7899
   -20.7092 -20.7092 -20.7092 -20.7092 -20.7091 -20.7090 -20.7090 -20.7090
   -20.6834 -20.6834 -20.6834 -20.6834 -20.6825 -20.6825 -20.6825 -20.6825
   -20.6813 -20.6813 -20.6813 -20.6813 -20.6811 -20.6811 -20.6811 -20.6811
   -20.6809 -20.6809 -20.6808 -20.6808 -20.6803 -20.6803 -20.6802 -20.6802
   -20.6755 -20.6755 -20.6755 -20.6755 -20.6739 -20.6739 -20.6739 -20.6739
   -20.6736 -20.6736 -20.6736 -20.6736 -20.6713 -20.6713 -20.6712 -20.6712
   -20.6706 -20.6706 -20.6706 -20.6706 -20.6679 -20.6679 -20.6679 -20.6679
    -9.6933  -9.6933  -9.6914  -9.6913  -9.0493  -9.0492  -9.0403  -9.0403
    -8.9197  -8.9197  -8.9118  -8.9118  -8.7274  -8.7274  -8.7138  -8.7137
    -8.6890  -8.6890  -8.6760  -8.6760  -8.1078  -8.1078  -8.1076  -8.1076
     1.1880   1.1880   1.1901   1.1901   2.7132   2.7132   2.7754   2.7755
     2.8180   2.8180   2.8427   2.8427   2.9319   2.9319   2.9500   2.9500
     3.0168   3.0168   3.1019   3.1019   3.1538   3.1538   3.1989   3.1989
     3.2368   3.2368   3.3785   3.3785   3.9139   3.9139   3.9596   3.9597
     3.9854   3.9854   4.0402   4.0402   4.4914   4.4914   4.5700   4.5700
     4.8440   4.8440   4.9229   4.9229   5.5487   5.5487   5.5614   5.5614
     6.4350   6.4350   6.4825   6.4825   6.5070   6.5070   6.5471   6.5471
     7.0340   7.0341   7.0456   7.0457   7.0964   7.0964   7.1389   7.1389
     7.1565   7.1565   7.2224   7.2224   7.3796   7.3796   7.4050   7.4050
    10.8092  10.8092  10.8482  10.8482  10.9567  10.9567  11.0108  11.0108
    11.7870  11.7870  11.8206  11.8206  11.8541  11.8541  11.8772  11.8772
    12.5070  12.5070  12.5711  12.5711  12.9083  12.9083  12.9606  12.9606
    15.4176  15.4176  15.4278  15.4278  16.5319  16.5319  16.5626  16.5626
    17.2587  17.2587  17.2996  17.2996  17.3687

          k =-0.4919 0.0000 0.3278 ( 63484 PWs)   bands (ev):

   -66.5393 -66.5393 -66.5390 -66.5390 -66.5389 -66.5389 -66.5385 -66.5385
   -30.9027 -30.9027 -30.9005 -30.9005 -30.8545 -30.8545 -30.8491 -30.8491
   -30.8377 -30.8377 -30.8374 -30.8374 -30.8292 -30.8292 -30.8287 -30.8287
   -30.8229 -30.8229 -30.8223 -30.8223 -30.8066 -30.8066 -30.8045 -30.8045
   -20.7092 -20.7092 -20.7091 -20.7091 -20.7091 -20.7091 -20.7090 -20.7090
   -20.6844 -20.6844 -20.6842 -20.6842 -20.6830 -20.6830 -20.6828 -20.6828
   -20.6825 -20.6825 -20.6822 -20.6822 -20.6817 -20.6817 -20.6815 -20.6815
   -20.6809 -20.6809 -20.6807 -20.6807 -20.6777 -20.6777 -20.6773 -20.6773
   -20.6749 -20.6749 -20.6747 -20.6747 -20.6742 -20.6742 -20.6739 -20.6739
   -20.6729 -20.6729 -20.6727 -20.6727 -20.6712 -20.6712 -20.6711 -20.6711
   -20.6709 -20.6709 -20.6706 -20.6706 -20.6694 -20.6694 -20.6688 -20.6688
    -9.8065  -9.8065  -9.6205  -9.6205  -9.3561  -9.3561  -9.1156  -9.1156
    -8.9085  -8.9084  -8.8397  -8.8397  -8.8083  -8.8082  -8.7959  -8.7958
    -8.4359  -8.4359  -8.4206  -8.4206  -8.0602  -8.0602  -8.0376  -8.0376
     1.0437   1.0437   1.0688   1.0688   1.9183   1.9183   1.9669   1.9669
     2.6312   2.6312   2.7675   2.7675   2.7944   2.7945   2.9044   2.9045
     2.9665   2.9665   3.3002   3.3002   3.3852   3.3852   3.4355   3.4355
     3.5259   3.5259   3.6612   3.6612   3.8160   3.8160   4.0661   4.0661
     4.3897   4.3897   4.6200   4.6200   4.6871   4.6872   4.7119   4.7119
     4.9542   4.9543   5.2949   5.2949   5.7425   5.7425   5.7997   5.7997
     6.1139   6.1140   6.1367   6.1367   6.2580   6.2580   6.2973   6.2973
     6.8122   6.8122   6.9491   6.9492   7.0184   7.0184   7.2820   7.2820
     7.2923   7.2923   7.3600   7.3600   7.4218   7.4218   7.7082   7.7082
    10.2589  10.2589  11.0222  11.0222  11.0497  11.0497  11.1899  11.1900
    11.2627  11.2627  11.8462  11.8462  12.1505  12.1505  12.2114  12.2114
    12.4795  12.4795  12.8273  12.8273  12.8507  12.8507  13.2695  13.2695
    14.4913  14.4913  14.8733  14.8733  15.9453  15.9454  16.5179  16.5179
    16.8392  16.8392  17.0499  17.0499  17.6421

          k =-0.4919-0.1596 0.3278 ( 63484 PWs)   bands (ev):

   -66.5393 -66.5393 -66.5389 -66.5389 -66.5389 -66.5389 -66.5385 -66.5385
   -30.8982 -30.8982 -30.8960 -30.8960 -30.8547 -30.8547 -30.8493 -30.8493
   -30.8406 -30.8405 -30.8401 -30.8401 -30.8295 -30.8295 -30.8286 -30.8286
   -30.8241 -30.8241 -30.8239 -30.8239 -30.8067 -30.8067 -30.8048 -30.8048
   -20.7092 -20.7092 -20.7091 -20.7091 -20.7091 -20.7091 -20.7090 -20.7090
   -20.6841 -20.6841 -20.6838 -20.6838 -20.6829 -20.6829 -20.6828 -20.6828
   -20.6823 -20.6823 -20.6823 -20.6823 -20.6816 -20.6816 -20.6815 -20.6815
   -20.6809 -20.6809 -20.6808 -20.6808 -20.6781 -20.6781 -20.6777 -20.6777
   -20.6749 -20.6749 -20.6747 -20.6747 -20.6742 -20.6742 -20.6739 -20.6739
   -20.6729 -20.6729 -20.6728 -20.6728 -20.6712 -20.6712 -20.6711 -20.6711
   -20.6709 -20.6709 -20.6706 -20.6706 -20.6694 -20.6694 -20.6689 -20.6689
    -9.7496  -9.7496  -9.5456  -9.5456  -9.3662  -9.3662  -9.0915  -9.0915
    -8.9181  -8.9181  -8.8350  -8.8350  -8.8053  -8.8053  -8.7957  -8.7956
    -8.4338  -8.4338  -8.4260  -8.4260  -8.1706  -8.1706  -8.1481  -8.1481
     1.2914   1.2914   1.3199   1.3199   1.9182   1.9182   1.9741   1.9741
     2.7009   2.7009   2.7862   2.7862   2.8209   2.8209   2.9094   2.9095
     2.9672   2.9672   3.3303   3.3303   3.4001   3.4001   3.4709   3.4709
     3.5308   3.5308   3.7085   3.7085   3.7934   3.7935   4.0760   4.0760
     4.2529   4.2530   4.4007   4.4008   4.6232   4.6232   4.6722   4.6722
     4.7064   4.7064   5.0322   5.0323   5.4455   5.4455   5.5788   5.5788
     6.2744   6.2744   6.3116   6.3116   6.3808   6.3808   6.5079   6.5079
     6.8208   6.8208   6.9432   6.9433   7.0273   7.0273   7.2727   7.2727
     7.2874   7.2874   7.3478   7.3479   7.4026   7.4026   7.6602   7.6602
    10.3803  10.3803  11.0618  11.0618  11.1102  11.1102  11.2154  11.2154
    11.2986  11.2986  11.8883  11.8883  12.1501  12.1501  12.2159  12.2159
    12.3207  12.3207  12.6870  12.6870  12.7078  12.7078  13.1424  13.1424
    14.8795  14.8796  15.2801  15.2801  16.0275  16.0276  16.5160  16.5160
    16.8507  16.8507  17.0808  17.0808  17.4666

          k =-0.4919-0.3192 0.3278 ( 63480 PWs)   bands (ev):

   -66.5392 -66.5392 -66.5390 -66.5390 -66.5388 -66.5388 -66.5386 -66.5386
   -30.8860 -30.8860 -30.8837 -30.8837 -30.8572 -30.8572 -30.8510 -30.8510
   -30.8497 -30.8497 -30.8474 -30.8474 -30.8295 -30.8295 -30.8283 -30.8283
   -30.8265 -30.8265 -30.8256 -30.8256 -30.8065 -30.8065 -30.8053 -30.8053
   -20.7092 -20.7092 -20.7091 -20.7091 -20.7091 -20.7091 -20.7091 -20.7090
   -20.6835 -20.6835 -20.6832 -20.6832 -20.6829 -20.6829 -20.6824 -20.6824
   -20.6822 -20.6822 -20.6817 -20.6817 -20.6815 -20.6815 -20.6813 -20.6813
   -20.6811 -20.6810 -20.6809 -20.6809 -20.6792 -20.6792 -20.6789 -20.6789
   -20.6749 -20.6749 -20.6748 -20.6748 -20.6742 -20.6742 -20.6740 -20.6740
   -20.6729 -20.6729 -20.6728 -20.6728 -20.6712 -20.6712 -20.6711 -20.6711
   -20.6709 -20.6709 -20.6707 -20.6707 -20.6693 -20.6693 -20.6690 -20.6690
    -9.6116  -9.6115  -9.4013  -9.4013  -9.3415  -9.3415  -9.0049  -9.0049
    -8.9583  -8.9582  -8.8294  -8.8293  -8.7922  -8.7921  -8.7816  -8.7816
    -8.4826  -8.4825  -8.4401  -8.4401  -8.4268  -8.4268  -8.3704  -8.3704
     1.8236   1.8236   1.9170   1.9170   1.9883   1.9883   2.1284   2.1284
     2.8139   2.8139   2.8458   2.8458   2.8848   2.8848   2.9410   2.9410
     3.0078   3.0079   3.3669   3.3669   3.4058   3.4058   3.5054   3.5054
     3.6250   3.6250   3.6933   3.6933   3.8299   3.8299   3.8683   3.8683
     3.9805   3.9805   4.1484   4.1484   4.2208   4.2208   4.4962   4.4962
     4.5704   4.5704   4.6609   4.6610   4.6812   4.6812   5.0140   5.0140
     6.6087   6.6087   6.6627   6.6627   6.7236   6.7236   6.7604   6.7604
     6.8473   6.8473   6.9310   6.9311   7.0694   7.0694   7.2179   7.2179
     7.2548   7.2548   7.3279   7.3280   7.3450   7.3451   7.5189   7.5189
    10.7297  10.7297  11.1148  11.1148  11.1720  11.1720  11.3980  11.3981
    11.4834  11.4834  11.8750  11.8750  12.0142  12.0142  12.1242  12.1242
    12.2541  12.2541  12.3520  12.3520  12.3620  12.3620  12.8307  12.8307
    15.7480  15.7480  16.2569  16.2569  16.2878  16.2879  16.4883  16.4883
    16.9128  16.9128  17.0780  17.0781  17.2217

          k =-0.4919 0.4788 0.3278 ( 63520 PWs)   bands (ev):

   -66.5391 -66.5391 -66.5391 -66.5391 -66.5387 -66.5387 -66.5387 -66.5387
   -30.8700 -30.8700 -30.8696 -30.8696 -30.8673 -30.8673 -30.8668 -30.8668
   -30.8501 -30.8501 -30.8500 -30.8500 -30.8290 -30.8290 -30.8285 -30.8285
   -30.8270 -30.8270 -30.8265 -30.8265 -30.8060 -30.8060 -30.8060 -30.8060
   -20.7092 -20.7092 -20.7091 -20.7091 -20.7091 -20.7091 -20.7091 -20.7091
   -20.6832 -20.6832 -20.6832 -20.6832 -20.6827 -20.6827 -20.6827 -20.6827
   -20.6813 -20.6813 -20.6813 -20.6813 -20.6812 -20.6812 -20.6811 -20.6811
   -20.6808 -20.6808 -20.6807 -20.6807 -20.6804 -20.6804 -20.6804 -20.6804
   -20.6748 -20.6748 -20.6748 -20.6748 -20.6741 -20.6741 -20.6741 -20.6741
   -20.6729 -20.6729 -20.6729 -20.6729 -20.6712 -20.6712 -20.6711 -20.6711
   -20.6708 -20.6708 -20.6708 -20.6708 -20.6692 -20.6692 -20.6692 -20.6692
    -9.4796  -9.4796  -9.4766  -9.4766  -9.0994  -9.0994  -9.0910  -9.0910
    -8.8689  -8.8689  -8.8613  -8.8613  -8.7212  -8.7212  -8.7097  -8.7096
    -8.6928  -8.6927  -8.6826  -8.6825  -8.4166  -8.4166  -8.4161  -8.4161
     1.9080   1.9080   1.9122   1.9122   2.7231   2.7232   2.7572   2.7573
     2.8142   2.8142   2.8311   2.8311   2.9461   2.9461   2.9890   2.9890
     3.0758   3.0758   3.0988   3.0988   3.3331   3.3331   3.3722   3.3722
     3.4510   3.4510   3.5202   3.5202   3.8951   3.8951   3.9083   3.9083
     3.9558   3.9558   3.9987   3.9988   4.0731   4.0731   4.1197   4.1197
     4.3384   4.3384   4.4196   4.4196   4.7117   4.7117   4.7229   4.7229
     6.7415   6.7415   6.7922   6.7923   6.8547   6.8548   6.8589   6.8589
     7.0085   7.0085   7.0543   7.0543   7.0858   7.0858   7.1226   7.1226
     7.1931   7.1931   7.2495   7.2496   7.3543   7.3544   7.3827   7.3827
    11.0791  11.0791  11.1232  11.1232  11.2807  11.2807  11.3543  11.3543
    11.7791  11.7791  11.8196  11.8196  11.8480  11.8480  11.8799  11.8799
    12.1138  12.1138  12.2356  12.2356  12.4428  12.4428  12.5253  12.5253
    16.2941  16.2941  16.3296  16.3296  16.7354  16.7354  16.7507  16.7507
    17.1752  17.1752  17.2800  17.2800  17.3546

     the Fermi energy is     8.6194 ev

!    total energy              =   -6261.09918043 Ry
     Harris-Foulkes estimate   =   -6261.09918043 Ry
     estimated scf accuracy    <          2.1E-11 Ry

     The total energy is the sum of the following terms:

     one-electron contribution =   -4807.12046388 Ry
     hartree contribution      =    2635.67552695 Ry
     xc contribution           =    -965.67322738 Ry
     ewald contribution        =   -3123.98101611 Ry
     smearing contrib. (-TS)   =      -0.00000000 Ry

     convergence has been achieved in  15 iterations

     Forces acting on atoms (cartesian axes, Ry/au):

     atom    1 type  1   force =    -0.00495540    0.01609356    0.00427653
     atom    2 type  1   force =     0.00495540   -0.01609356   -0.00427653
     atom    3 type  1   force =     0.00495540   -0.01609356    0.00427653
     atom    4 type  1   force =    -0.00495540    0.01609356   -0.00427653
     atom    5 type  1   force =     0.00495540    0.01609356   -0.00427653
     atom    6 type  1   force =    -0.00495540   -0.01609356    0.00427653
     atom    7 type  1   force =    -0.00495540   -0.01609356   -0.00427653
     atom    8 type  1   force =     0.00495540    0.01609356    0.00427653
     atom    9 type  2   force =    -0.00008358   -0.00853097   -0.00034405
     atom   10 type  2   force =     0.00008358    0.00853097    0.00034405
     atom   11 type  2   force =     0.00008358    0.00853097   -0.00034405
     atom   12 type  2   force =    -0.00008358   -0.00853097    0.00034405
     atom   13 type  2   force =     0.00008358   -0.00853097    0.00034405
     atom   14 type  2   force =    -0.00008358    0.00853097   -0.00034405
     atom   15 type  2   force =    -0.00008358    0.00853097    0.00034405
     atom   16 type  2   force =     0.00008358   -0.00853097   -0.00034405
     atom   17 type  2   force =    -0.00274543   -0.00048264   -0.00129978
     atom   18 type  2   force =     0.00274543    0.00048264    0.00129978
     atom   19 type  2   force =     0.00274543    0.00048264   -0.00129978
     atom   20 type  2   force =    -0.00274543   -0.00048264    0.00129978
     atom   21 type  2   force =     0.00274543   -0.00048264    0.00129978
     atom   22 type  2   force =    -0.00274543    0.00048264   -0.00129978
     atom   23 type  2   force =    -0.00274543    0.00048264    0.00129978
     atom   24 type  2   force =     0.00274543   -0.00048264   -0.00129978
     atom   25 type  2   force =    -0.00168859    0.00060516    0.00337211
     atom   26 type  2   force =     0.00168859   -0.00060516   -0.00337211
     atom   27 type  2   force =     0.00168859   -0.00060516    0.00337211
     atom   28 type  2   force =    -0.00168859    0.00060516   -0.00337211
     atom   29 type  2   force =     0.00168859    0.00060516   -0.00337211
     atom   30 type  2   force =    -0.00168859   -0.00060516    0.00337211
     atom   31 type  2   force =    -0.00168859   -0.00060516   -0.00337211
     atom   32 type  2   force =     0.00168859    0.00060516    0.00337211

     Total force =     0.000000     Total SCF correction =     0.000000


     Computing stress (Cartesian axis) and pressure

          total   stress  (Ry/bohr**3)                   (kbar)     P=    0.93
   0.00000906   0.00000000   0.00000000          1.33      0.00      0.00
   0.00000000   0.00000067   0.00000000          0.00      0.10      0.00
   0.00000000   0.00000000   0.00000926          0.00      0.00      1.36


     Writing output data file Landau_21.save
 
     init_run     :     71.60s CPU     74.92s WALL (       2 calls)
     electrons    :   9652.68s CPU   9911.27s WALL (       7 calls)
     update_pot   :    102.10s CPU    102.57s WALL (       5 calls)
     forces       :    161.28s CPU    164.32s WALL (       7 calls)
     stress       :   1709.01s CPU   1730.66s WALL (       7 calls)

     Called by init_run:
     wfcinit      :     53.68s CPU     56.68s WALL (       2 calls)
     potinit      :      7.90s CPU      7.97s WALL (       2 calls)

     Called by electrons:
     c_bands      :   8426.66s CPU   8670.72s WALL (      94 calls)
     sum_band     :   1168.15s CPU   1177.07s WALL (      94 calls)
     v_of_rho     :      8.99s CPU      9.18s WALL (      99 calls)
     mix_rho      :     17.62s CPU     21.79s WALL (      94 calls)

     Called by c_bands:
     init_us_2    :     71.60s CPU     76.47s WALL (     408 calls)
     cegterg      :   6430.50s CPU   6658.96s WALL (     188 calls)

     Called by sum_band:

     Called by *egterg:
     h_psi        :   5090.82s CPU   5123.43s WALL (     782 calls)
     g_psi        :     12.55s CPU     12.62s WALL (     590 calls)
     cdiaghg      :     85.38s CPU     85.74s WALL (     764 calls)

     Called by h_psi:
     h_psi:pot    :   5051.04s CPU   5082.43s WALL (     782 calls)
     h_psi:calbec :    470.52s CPU    484.43s WALL (     782 calls)
     vloc_psi     :   4051.12s CPU   4065.47s WALL (     782 calls)
     add_vuspsi   :    529.39s CPU    532.51s WALL (     782 calls)

     General routines
     calbec       :    538.77s CPU    552.94s WALL (     852 calls)
     fft          :      7.38s CPU      7.41s WALL (     454 calls)
     fftw         :   4092.60s CPU   4104.70s WALL (  245046 calls)
 
     Parallel routines
 
     PWSCF        :     3h15m CPU        3h20m WALL

 
   This run was terminated on:   3:20:24  20Mar2020            

=------------------------------------------------------------------------------=
   JOB DONE.
=------------------------------------------------------------------------------=
