
     Program PWSCF v.6.2 (svn rev. 14038) starts on 21Mar2020 at  2:28:29 

     This program is part of the open-source Quantum ESPRESSO suite
     for quantum simulation of materials; please cite
         "P. Giannozzi et al., J. Phys.:Condens. Matter 21 395502 (2009);
         "P. Giannozzi et al., J. Phys.:Condens. Matter 29 465901 (2017);
          URL http://www.quantum-espresso.org", 
     in publications or presentations arising from this work. More details at
     http://www.quantum-espresso.org/quote

     Parallel version (MPI), running on    40 processors

     MPI processes distributed on     4 nodes
     K-points division:     npool     =      40
     Reading input from scf.in

     Current dimensions of program PWSCF are:
     Max number of different atomic species (ntypx) = 10
     Max number of k-points (npk) =  40000
     Max angular momentum in pseudopotentials (lmaxx) =  3

     Subspace diagonalization in iterative solution of the eigenvalue problem:
     a serial algorithm will be used

 
     G-vector sticks info
     --------------------
     sticks:   dense  smooth     PW     G-vecs:    dense   smooth      PW
     Sum        7729    7729   2071               503097   503097   69705
 


     bravais-lattice index     =            0
     lattice parameter (alat)  =      13.9826  a.u.
     unit-cell volume          =    2833.1899 (a.u.)^3
     number of atoms/cell      =           32
     number of atomic types    =            2
     number of electrons       =       368.60
     number of Kohn-Sham states=          221
     kinetic-energy cutoff     =     120.0000  Ry
     charge density cutoff     =     480.0000  Ry
     convergence threshold     =      1.0E-08
     mixing beta               =       0.7000
     number of iterations used =            8  plain     mixing
     Exchange-correlation      = SLA PW NOGX NOGC ( 1  4  0  0 0 0)

     celldm(1)=  13.982583  celldm(2)=   0.000000  celldm(3)=   0.000000
     celldm(4)=   0.000000  celldm(5)=   0.000000  celldm(6)=   0.000000

     crystal axes: (cart. coord. in units of alat)
               a(1) = (   1.000000   0.000000   0.000000 )  
               a(2) = (   0.000000   1.034610   0.000000 )  
               a(3) = (   0.000000   0.000000   1.001698 )  

     reciprocal axes: (cart. coord. in units 2 pi/alat)
               b(1) = (  1.000000  0.000000  0.000000 )  
               b(2) = (  0.000000  0.966547  0.000000 )  
               b(3) = (  0.000000  0.000000  0.998305 )  


     PseudoPot. # 1 for W  read from file:
     /cluster/scratch/mnoe/QE/pps/W_ONCV_LDA-4.0.upf
     MD5 check sum: ba0307d5d4cd419d6f1d13dc49d7c13a
     Pseudo is Norm-conserving + core correction, Zval = 28.0
     Generated using ONCVPSP code by D. R. Hamann
     Using radial grid of 1380 points,  8 beta functions with: 
                l(1) =   0
                l(2) =   0
                l(3) =   1
                l(4) =   1
                l(5) =   2
                l(6) =   2
                l(7) =   3
                l(8) =   3

     PseudoPot. # 2 for O  read from file:
     /cluster/scratch/mnoe/QE/pps/O_ONCV_LDA-3.0.upf
     MD5 check sum: a1bd6164e7280c17a38c229939bfbd54
     Pseudo is Norm-conserving + core correction, Zval =  6.0
     Generated using ONCVPSP code by D. R. Hamann
     Using radial grid of  926 points,  5 beta functions with: 
                l(1) =   0
                l(2) =   0
                l(3) =   1
                l(4) =   1
                l(5) =   2

     atomic species   valence    mass     pseudopotential
        W             28.00   183.84000     W ( 1.00)
        O              6.00    15.99940     O ( 1.00)

      8 Sym. Ops., with inversion, found ( 6 have fractional translation)



   Cartesian axes

     site n.     atom                  positions (alat units)
         1           W   tau(   1) = (   0.2407500   0.2864915   0.0087548  )
         2           W   tau(   2) = (   0.7592500   0.7481189   0.9929428  )
         3           W   tau(   3) = (   0.2592500   0.2308137   0.5096037  )
         4           W   tau(   4) = (   0.7407500   0.8037967   0.4920940  )
         5           W   tau(   5) = (   0.7592500   0.2864915   0.4920940  )
         6           W   tau(   6) = (   0.2407500   0.7481189   0.5096037  )
         7           W   tau(   7) = (   0.7407500   0.2308137   0.9929428  )
         8           W   tau(   8) = (   0.2592500   0.8037967   0.0087548  )
         9           O   tau(   9) = (   0.2329400   0.0072121   0.0027246  )
        10           O   tau(  10) = (   0.7670599   1.0273983   0.9989730  )
        11           O   tau(  11) = (   0.2670600   0.5100931   0.5035734  )
        12           O   tau(  12) = (   0.7329400   0.5245173   0.4981242  )
        13           O   tau(  13) = (   0.7670599   0.0072121   0.4981242  )
        14           O   tau(  14) = (   0.2329400   1.0273983   0.5035734  )
        15           O   tau(  15) = (   0.7329400   0.5100931   0.9989730  )
        16           O   tau(  16) = (   0.2670600   0.5245173   0.0027246  )
        17           O   tau(  17) = (   0.5025300   0.2405469   0.4624333  )
        18           O   tau(  18) = (   0.4974700   0.7940634   0.5392644  )
        19           O   tau(  19) = (   0.9974700   0.2767582   0.9632821  )
        20           O   tau(  20) = (   0.0025300   0.7578521   0.0384155  )
        21           O   tau(  21) = (   0.4974700   0.2405469   0.0384155  )
        22           O   tau(  22) = (   0.5025300   0.7940634   0.9632821  )
        23           O   tau(  23) = (   0.0025300   0.2767582   0.5392644  )
        24           O   tau(  24) = (   0.9974700   0.7578521   0.4624333  )
        25           O   tau(  25) = (   0.7116495   0.2547004   0.7474266  )
        26           O   tau(  26) = (   0.2883504   0.7799100   0.2542710  )
        27           O   tau(  27) = (   0.7883505   0.2626048   0.2465779  )
        28           O   tau(  28) = (   0.2116496   0.7720056   0.7551198  )
        29           O   tau(  29) = (   0.2883504   0.2547004   0.7551198  )
        30           O   tau(  30) = (   0.7116495   0.7799100   0.2465779  )
        31           O   tau(  31) = (   0.2116496   0.2626048   0.2542710  )
        32           O   tau(  32) = (   0.7883505   0.7720056   0.7474266  )

     number of k points=    64  gaussian smearing, width (Ry)=  0.0007
                       cart. coord. in units 2pi/alat
        k(    1) = (   0.0000000   0.0000000   0.0000000), wk =   0.0092593
        k(    2) = (   0.0000000   0.0000000   0.1663842), wk =   0.0185185
        k(    3) = (   0.0000000   0.0000000   0.3327684), wk =   0.0185185
        k(    4) = (   0.0000000   0.0000000  -0.4991526), wk =   0.0092593
        k(    5) = (   0.0000000   0.1610912   0.0000000), wk =   0.0185185
        k(    6) = (   0.0000000   0.1610912   0.1663842), wk =   0.0370370
        k(    7) = (   0.0000000   0.1610912   0.3327684), wk =   0.0370370
        k(    8) = (   0.0000000   0.1610912  -0.4991526), wk =   0.0185185
        k(    9) = (   0.0000000   0.3221825   0.0000000), wk =   0.0185185
        k(   10) = (   0.0000000   0.3221825   0.1663842), wk =   0.0370370
        k(   11) = (   0.0000000   0.3221825   0.3327684), wk =   0.0370370
        k(   12) = (   0.0000000   0.3221825  -0.4991526), wk =   0.0185185
        k(   13) = (   0.0000000  -0.4832737   0.0000000), wk =   0.0092593
        k(   14) = (   0.0000000  -0.4832737   0.1663842), wk =   0.0185185
        k(   15) = (   0.0000000  -0.4832737   0.3327684), wk =   0.0185185
        k(   16) = (   0.0000000  -0.4832737  -0.4991526), wk =   0.0092593
        k(   17) = (   0.1666667   0.0000000   0.0000000), wk =   0.0185185
        k(   18) = (   0.1666667   0.0000000   0.1663842), wk =   0.0370370
        k(   19) = (   0.1666667   0.0000000   0.3327684), wk =   0.0370370
        k(   20) = (   0.1666667   0.0000000  -0.4991526), wk =   0.0185185
        k(   21) = (   0.1666667   0.1610912   0.0000000), wk =   0.0370370
        k(   22) = (   0.1666667   0.1610912   0.1663842), wk =   0.0740741
        k(   23) = (   0.1666667   0.1610912   0.3327684), wk =   0.0740741
        k(   24) = (   0.1666667   0.1610912  -0.4991526), wk =   0.0370370
        k(   25) = (   0.1666667   0.3221825   0.0000000), wk =   0.0370370
        k(   26) = (   0.1666667   0.3221825   0.1663842), wk =   0.0740741
        k(   27) = (   0.1666667   0.3221825   0.3327684), wk =   0.0740741
        k(   28) = (   0.1666667   0.3221825  -0.4991526), wk =   0.0370370
        k(   29) = (   0.1666667  -0.4832737   0.0000000), wk =   0.0185185
        k(   30) = (   0.1666667  -0.4832737   0.1663842), wk =   0.0370370
        k(   31) = (   0.1666667  -0.4832737   0.3327684), wk =   0.0370370
        k(   32) = (   0.1666667  -0.4832737  -0.4991526), wk =   0.0185185
        k(   33) = (   0.3333333   0.0000000   0.0000000), wk =   0.0185185
        k(   34) = (   0.3333333   0.0000000   0.1663842), wk =   0.0370370
        k(   35) = (   0.3333333   0.0000000   0.3327684), wk =   0.0370370
        k(   36) = (   0.3333333   0.0000000  -0.4991526), wk =   0.0185185
        k(   37) = (   0.3333333   0.1610912   0.0000000), wk =   0.0370370
        k(   38) = (   0.3333333   0.1610912   0.1663842), wk =   0.0740741
        k(   39) = (   0.3333333   0.1610912   0.3327684), wk =   0.0740741
        k(   40) = (   0.3333333   0.1610912  -0.4991526), wk =   0.0370370
        k(   41) = (   0.3333333   0.3221825   0.0000000), wk =   0.0370370
        k(   42) = (   0.3333333   0.3221825   0.1663842), wk =   0.0740741
        k(   43) = (   0.3333333   0.3221825   0.3327684), wk =   0.0740741
        k(   44) = (   0.3333333   0.3221825  -0.4991526), wk =   0.0370370
        k(   45) = (   0.3333333  -0.4832737   0.0000000), wk =   0.0185185
        k(   46) = (   0.3333333  -0.4832737   0.1663842), wk =   0.0370370
        k(   47) = (   0.3333333  -0.4832737   0.3327684), wk =   0.0370370
        k(   48) = (   0.3333333  -0.4832737  -0.4991526), wk =   0.0185185
        k(   49) = (  -0.5000000   0.0000000   0.0000000), wk =   0.0092593
        k(   50) = (  -0.5000000   0.0000000   0.1663842), wk =   0.0185185
        k(   51) = (  -0.5000000   0.0000000   0.3327684), wk =   0.0185185
        k(   52) = (  -0.5000000   0.0000000  -0.4991526), wk =   0.0092593
        k(   53) = (  -0.5000000   0.1610912   0.0000000), wk =   0.0185185
        k(   54) = (  -0.5000000   0.1610912   0.1663842), wk =   0.0370370
        k(   55) = (  -0.5000000   0.1610912   0.3327684), wk =   0.0370370
        k(   56) = (  -0.5000000   0.1610912  -0.4991526), wk =   0.0185185
        k(   57) = (  -0.5000000   0.3221825   0.0000000), wk =   0.0185185
        k(   58) = (  -0.5000000   0.3221825   0.1663842), wk =   0.0370370
        k(   59) = (  -0.5000000   0.3221825   0.3327684), wk =   0.0370370
        k(   60) = (  -0.5000000   0.3221825  -0.4991526), wk =   0.0185185
        k(   61) = (  -0.5000000  -0.4832737   0.0000000), wk =   0.0092593
        k(   62) = (  -0.5000000  -0.4832737   0.1663842), wk =   0.0185185
        k(   63) = (  -0.5000000  -0.4832737   0.3327684), wk =   0.0185185
        k(   64) = (  -0.5000000  -0.4832737  -0.4991526), wk =   0.0092593

     Dense  grid:   503097 G-vectors     FFT dimensions: ( 100, 108, 100)

     Estimated max dynamical RAM per process >       3.16 GB

     Estimated total dynamical RAM >     126.30 GB

     Initial potential from superposition of free atoms

     starting charge  367.99656, renormalised to  368.60000
     Starting wfc are  232 randomized atomic wfcs

     total cpu time spent up to now is       52.1 secs

     Self-consistent Calculation

     iteration #  1     ecut=   120.00 Ry     beta= 0.70
     Davidson diagonalization with overlap
     ethr =  1.00E-02,  avg # of iterations =  5.2

     total cpu time spent up to now is      233.4 secs

     total energy              =   -6253.43609372 Ry
     Harris-Foulkes estimate   =   -6264.29168168 Ry
     estimated scf accuracy    <      13.67501126 Ry

     iteration #  2     ecut=   120.00 Ry     beta= 0.70
     Davidson diagonalization with overlap
     ethr =  3.71E-03,  avg # of iterations =  3.6

     total cpu time spent up to now is      413.5 secs

     total energy              =   -6250.40260512 Ry
     Harris-Foulkes estimate   =   -6270.31033546 Ry
     estimated scf accuracy    <      52.93313112 Ry

     iteration #  3     ecut=   120.00 Ry     beta= 0.70
     Davidson diagonalization with overlap
     ethr =  3.71E-03,  avg # of iterations =  3.6

     total cpu time spent up to now is      578.0 secs

     total energy              =   -6260.68452128 Ry
     Harris-Foulkes estimate   =   -6260.95031278 Ry
     estimated scf accuracy    <       0.89520706 Ry

     iteration #  4     ecut=   120.00 Ry     beta= 0.70
     Davidson diagonalization with overlap
     ethr =  2.43E-04,  avg # of iterations =  3.2

     total cpu time spent up to now is      714.0 secs

     total energy              =   -6260.66086924 Ry
     Harris-Foulkes estimate   =   -6260.74381983 Ry
     estimated scf accuracy    <       0.22217862 Ry

     iteration #  5     ecut=   120.00 Ry     beta= 0.70
     Davidson diagonalization with overlap
     ethr =  6.03E-05,  avg # of iterations =  5.2

     total cpu time spent up to now is      863.8 secs

     total energy              =   -6260.68080808 Ry
     Harris-Foulkes estimate   =   -6260.70297487 Ry
     estimated scf accuracy    <       0.05307779 Ry

     iteration #  6     ecut=   120.00 Ry     beta= 0.70
     Davidson diagonalization with overlap
     ethr =  1.44E-05,  avg # of iterations =  6.2

     total cpu time spent up to now is     1019.5 secs

     total energy              =   -6260.69072613 Ry
     Harris-Foulkes estimate   =   -6260.69396197 Ry
     estimated scf accuracy    <       0.00843159 Ry

     iteration #  7     ecut=   120.00 Ry     beta= 0.70
     Davidson diagonalization with overlap
     ethr =  2.29E-06,  avg # of iterations =  5.6

     total cpu time spent up to now is     1163.1 secs

     total energy              =   -6260.69185000 Ry
     Harris-Foulkes estimate   =   -6260.69193280 Ry
     estimated scf accuracy    <       0.00013801 Ry

     iteration #  8     ecut=   120.00 Ry     beta= 0.70
     Davidson diagonalization with overlap
     ethr =  3.74E-08,  avg # of iterations =  3.6

     total cpu time spent up to now is     1348.7 secs

     total energy              =   -6260.69192395 Ry
     Harris-Foulkes estimate   =   -6260.69194032 Ry
     estimated scf accuracy    <       0.00007516 Ry

     iteration #  9     ecut=   120.00 Ry     beta= 0.70
     Davidson diagonalization with overlap
     ethr =  2.04E-08,  avg # of iterations =  1.0

     total cpu time spent up to now is     1473.1 secs

     total energy              =   -6260.69191944 Ry
     Harris-Foulkes estimate   =   -6260.69192815 Ry
     estimated scf accuracy    <       0.00002994 Ry

     iteration # 10     ecut=   120.00 Ry     beta= 0.70
     Davidson diagonalization with overlap
     ethr =  8.12E-09,  avg # of iterations =  2.0

     total cpu time spent up to now is     1603.0 secs

     total energy              =   -6260.69192043 Ry
     Harris-Foulkes estimate   =   -6260.69192259 Ry
     estimated scf accuracy    <       0.00000501 Ry

     iteration # 11     ecut=   120.00 Ry     beta= 0.70
     Davidson diagonalization with overlap
     ethr =  1.36E-09,  avg # of iterations =  3.0

     total cpu time spent up to now is     1745.9 secs

     total energy              =   -6260.69192156 Ry
     Harris-Foulkes estimate   =   -6260.69192166 Ry
     estimated scf accuracy    <       0.00000024 Ry

     iteration # 12     ecut=   120.00 Ry     beta= 0.70
     Davidson diagonalization with overlap
     ethr =  6.48E-11,  avg # of iterations =  2.0

     total cpu time spent up to now is     1893.3 secs

     total energy              =   -6260.69192156 Ry
     Harris-Foulkes estimate   =   -6260.69192159 Ry
     estimated scf accuracy    <       0.00000005 Ry

     iteration # 13     ecut=   120.00 Ry     beta= 0.70
     Davidson diagonalization with overlap
     ethr =  1.36E-11,  avg # of iterations =  2.9

     total cpu time spent up to now is     2057.2 secs

     End of self-consistent calculation

          k = 0.0000 0.0000 0.0000 ( 62935 PWs)   bands (ev):

   -66.2132 -66.2127 -66.2124 -66.2123 -66.2119 -66.2118 -66.2115 -66.2110
   -30.6353 -30.6306 -30.6298 -30.6252 -30.5788 -30.5712 -30.5705 -30.5611
   -30.5595 -30.5591 -30.5509 -30.5481 -30.5480 -30.5469 -30.5363 -30.5343
   -30.4660 -30.4648 -30.4638 -30.4627 -30.4598 -30.4555 -30.4535 -30.4499
   -20.3664 -20.3663 -20.3660 -20.3659 -20.3656 -20.3655 -20.3652 -20.3651
   -20.3599 -20.3597 -20.3595 -20.3592 -20.3562 -20.3558 -20.3554 -20.3546
   -20.3541 -20.3537 -20.3535 -20.3531 -20.3527 -20.3516 -20.3513 -20.3512
   -20.3510 -20.3508 -20.3505 -20.3500 -20.3495 -20.3489 -20.3487 -20.3484
   -20.3414 -20.3411 -20.3409 -20.3407 -20.3399 -20.3395 -20.3394 -20.3391
   -20.3178 -20.3178 -20.3162 -20.3162 -20.3149 -20.3149 -20.3139 -20.3139
   -20.3119 -20.3119 -20.3109 -20.3109 -20.3098 -20.3098 -20.3083 -20.3083
   -10.0558  -9.7437  -9.6647  -9.6642  -9.3673  -9.3515  -9.2834  -9.1343
    -9.1145  -9.0599  -9.0319  -9.0275  -7.9719  -7.9087  -7.8978  -7.8692
    -7.8583  -7.8471  -7.8302  -7.8277  -7.7680  -7.7611  -7.7368  -7.7328
     1.0750   1.0815   1.1340   1.1491   1.1721   1.1732   1.2065   1.3646
     1.4171   1.4419   1.4511   1.6695   2.3571   2.4293   2.4459   2.4544
     2.5586   2.5829   4.1022   4.1419   4.2899   4.3595   4.5879   4.6089
     4.6302   4.6534   4.6548   4.6582   4.8099   4.8187   5.0334   5.2915
     5.3436   5.3607   5.4002   5.4413   5.4608   5.4888   5.5251   5.6661
     5.6717   5.7079   5.7576   5.8078   5.8690   5.9817   5.9966   6.0071
     6.0168   6.2154   6.2231   6.3240   6.3277   6.6688   6.7300   6.7826
     6.7873   6.8240   6.8707   6.9143   6.9230   6.9557   7.1322   7.1438
     7.1663   7.1736   7.8717   7.8865   7.9284   7.9900   7.9967   8.0543
     9.2194   9.2469   9.6803   9.6949   9.6993   9.7075  12.2080  12.2589
    12.3623  12.3641  12.3708  12.3964  12.4511  12.4891  12.6728  12.8906
    13.0735  13.1166  13.1356  13.2823  13.6679  13.7691  13.9984  14.0098
    14.2688  14.3292  14.5244  14.6823  15.1083  15.1279  15.5058  15.8542
    15.9061  16.7874  16.9295  16.9819  17.1085

          k = 0.0000 0.0000 0.1664 ( 62875 PWs)   bands (ev):

   -66.2131 -66.2126 -66.2124 -66.2123 -66.2119 -66.2118 -66.2115 -66.2110
   -30.6350 -30.6309 -30.6295 -30.6256 -30.5776 -30.5715 -30.5685 -30.5595
   -30.5569 -30.5563 -30.5483 -30.5459 -30.5439 -30.5428 -30.5368 -30.5327
   -30.4723 -30.4701 -30.4700 -30.4676 -30.4596 -30.4552 -30.4548 -30.4507
   -20.3664 -20.3663 -20.3660 -20.3659 -20.3655 -20.3655 -20.3652 -20.3651
   -20.3599 -20.3597 -20.3594 -20.3592 -20.3562 -20.3557 -20.3554 -20.3547
   -20.3540 -20.3535 -20.3533 -20.3530 -20.3528 -20.3515 -20.3514 -20.3514
   -20.3512 -20.3508 -20.3504 -20.3501 -20.3495 -20.3489 -20.3487 -20.3484
   -20.3414 -20.3411 -20.3409 -20.3407 -20.3399 -20.3395 -20.3394 -20.3391
   -20.3175 -20.3175 -20.3159 -20.3159 -20.3148 -20.3147 -20.3141 -20.3141
   -20.3122 -20.3122 -20.3112 -20.3112 -20.3097 -20.3097 -20.3084 -20.3084
   -10.0122  -9.6906  -9.6786  -9.6081  -9.3625  -9.2913  -9.2784  -9.0985
    -9.0750  -9.0449  -9.0307  -8.9972  -7.9929  -7.9913  -7.9476  -7.9122
    -7.8992  -7.8985  -7.8589  -7.8502  -7.8481  -7.8209  -7.7674  -7.7390
     1.1411   1.1483   1.1713   1.2095   1.2598   1.2683   1.3603   1.4356
     1.4391   1.5491   1.6231   1.7932   2.4382   2.4422   2.5308   2.5404
     2.5506   2.6670   4.0387   4.1067   4.2420   4.3208   4.3249   4.3439
     4.4258   4.5796   4.6081   4.6889   4.6959   4.8216   5.0242   5.1330
     5.2163   5.3043   5.3522   5.4261   5.4574   5.4937   5.5114   5.5382
     5.5857   5.7126   5.7271   5.7966   5.8791   5.8990   6.0096   6.0653
     6.1553   6.3169   6.3503   6.4062   6.5946   6.6105   6.6415   6.7001
     6.7210   6.8175   6.8188   6.8297   6.8992   6.9561   6.9582   6.9594
     6.9992   7.0315   7.8503   7.8565   7.9496   7.9503   7.9918   8.0053
     9.5351   9.5701   9.6794   9.7247   9.9686   9.9991  12.1785  12.2413
    12.2649  12.3049  12.4138  12.4258  12.4903  12.5390  12.7020  12.7290
    12.9088  13.0799  13.1948  13.2942  13.7398  13.7685  13.8558  13.8833
    14.3073  14.4810  14.5208  14.7941  15.1688  15.2129  15.4743  15.8789
    16.1990  16.6755  16.9620  17.1180  17.1969

          k = 0.0000 0.0000 0.3328 ( 62895 PWs)   bands (ev):

   -66.2130 -66.2126 -66.2125 -66.2121 -66.2121 -66.2117 -66.2116 -66.2112
   -30.6342 -30.6318 -30.6288 -30.6264 -30.5756 -30.5725 -30.5651 -30.5606
   -30.5528 -30.5493 -30.5474 -30.5382 -30.5315 -30.5298 -30.5280 -30.5253
   -30.4887 -30.4869 -30.4857 -30.4834 -30.4588 -30.4563 -30.4544 -30.4520
   -20.3663 -20.3662 -20.3661 -20.3660 -20.3655 -20.3654 -20.3653 -20.3652
   -20.3599 -20.3597 -20.3594 -20.3593 -20.3560 -20.3556 -20.3555 -20.3549
   -20.3536 -20.3530 -20.3530 -20.3529 -20.3526 -20.3519 -20.3518 -20.3517
   -20.3512 -20.3506 -20.3504 -20.3504 -20.3494 -20.3490 -20.3486 -20.3485
   -20.3413 -20.3410 -20.3410 -20.3408 -20.3398 -20.3395 -20.3394 -20.3392
   -20.3166 -20.3166 -20.3150 -20.3150 -20.3146 -20.3145 -20.3144 -20.3143
   -20.3131 -20.3131 -20.3122 -20.3122 -20.3095 -20.3095 -20.3087 -20.3087
    -9.9081  -9.7222  -9.5701  -9.4819  -9.3969  -9.3180  -9.0653  -9.0393
    -9.0251  -8.9317  -8.9142  -8.8647  -8.2944  -8.2878  -8.2291  -8.2203
    -7.9454  -7.9218  -7.8804  -7.8586  -7.8318  -7.8036  -7.7846  -7.7562
     1.1472   1.1477   1.2176   1.2256   1.3270   1.3508   1.3926   1.4334
     2.1442   2.1988   2.2873   2.3741   2.4600   2.5359   2.6876   2.7680
     2.7938   2.8988   3.6360   3.7352   3.7567   3.9212   3.9400   4.1921
     4.2978   4.4217   4.4308   4.5505   4.5720   4.6615   4.8039   4.9576
     4.9703   4.9796   5.0268   5.2344   5.2478   5.3653   5.5824   5.5905
     5.6541   5.6713   5.7659   5.7673   5.9133   6.0389   6.0942   6.1443
     6.1668   6.2668   6.2817   6.3940   6.3974   6.4417   6.4523   6.6718
     6.6931   6.8042   6.8148   6.8310   6.9220   6.9575   6.9634   7.0358
     7.1273   7.1742   7.7171   7.7386   7.8033   7.8511   7.9792   7.9928
     9.6677   9.6767  10.2742  10.3277  10.6196  10.6777  11.7716  11.8175
    12.0204  12.2203  12.4216  12.4961  12.5694  12.5719  12.6165  12.7056
    12.7717  13.1023  13.1135  13.1545  13.5159  13.5621  13.7683  13.7881
    14.4192  14.5090  14.8431  15.0884  15.3713  15.3900  15.7064  15.7929
    16.1058  17.1165  17.2448  17.5206  17.6981

          k = 0.0000 0.0000-0.4992 ( 62884 PWs)   bands (ev):

   -66.2128 -66.2128 -66.2123 -66.2123 -66.2119 -66.2119 -66.2114 -66.2114
   -30.6330 -30.6330 -30.6276 -30.6276 -30.5739 -30.5739 -30.5625 -30.5624
   -30.5508 -30.5508 -30.5411 -30.5410 -30.5101 -30.5101 -30.5095 -30.5095
   -30.5070 -30.5069 -30.5057 -30.5057 -30.4576 -30.4576 -30.4533 -30.4533
   -20.3662 -20.3662 -20.3661 -20.3661 -20.3654 -20.3654 -20.3653 -20.3653
   -20.3598 -20.3598 -20.3594 -20.3593 -20.3558 -20.3558 -20.3552 -20.3552
   -20.3533 -20.3533 -20.3524 -20.3524 -20.3524 -20.3524 -20.3522 -20.3522
   -20.3509 -20.3508 -20.3505 -20.3505 -20.3492 -20.3492 -20.3485 -20.3485
   -20.3411 -20.3411 -20.3409 -20.3409 -20.3397 -20.3396 -20.3393 -20.3393
   -20.3155 -20.3155 -20.3155 -20.3155 -20.3141 -20.3141 -20.3141 -20.3140
   -20.3135 -20.3135 -20.3134 -20.3134 -20.3091 -20.3091 -20.3091 -20.3091
    -9.7998  -9.7998  -9.4625  -9.4624  -9.3753  -9.3753  -9.0513  -9.0513
    -8.6584  -8.6584  -8.6419  -8.6418  -8.6418  -8.6418  -8.5888  -8.5887
    -7.9346  -7.9346  -7.8699  -7.8699  -7.8082  -7.8082  -7.7798  -7.7798
     1.1472   1.1472   1.2268   1.2268   1.3405   1.3405   1.4245   1.4245
     2.4884   2.4884   2.9333   2.9333   3.0075   3.0075   3.0660   3.0660
     3.1699   3.1699   3.1725   3.1725   3.3812   3.3812   3.6325   3.6325
     3.6705   3.6705   4.3862   4.3862   4.5112   4.5112   4.8547   4.8547
     5.0721   5.0722   5.1260   5.1260   5.1855   5.1855   5.6323   5.6323
     5.6861   5.6861   5.8561   5.8561   5.9392   5.9392   6.1002   6.1002
     6.1458   6.1458   6.2153   6.2153   6.3646   6.3646   6.4466   6.4466
     6.6911   6.6912   6.8091   6.8091   6.9431   6.9431   7.4087   7.4087
     7.4634   7.4634   7.5296   7.5296   7.5734   7.5734   7.9908   7.9908
     9.6732   9.6732  11.0708  11.0708  11.1286  11.1286  11.3801  11.3801
    11.4818  11.4818  12.5186  12.5186  12.6062  12.6062  12.8339  12.8339
    12.8497  12.8497  13.1273  13.1273  13.2413  13.2413  13.7743  13.7743
    14.4831  14.4831  15.1702  15.1702  15.5413  15.5413  15.6331  15.6331
    16.5265  16.5265  17.7240  17.7240  17.8032

          k = 0.0000 0.1611 0.0000 ( 62923 PWs)   bands (ev):

   -66.2131 -66.2127 -66.2123 -66.2123 -66.2119 -66.2118 -66.2115 -66.2110
   -30.6311 -30.6263 -30.6254 -30.6208 -30.5816 -30.5745 -30.5733 -30.5636
   -30.5610 -30.5596 -30.5510 -30.5484 -30.5477 -30.5475 -30.5378 -30.5361
   -30.4659 -30.4646 -30.4640 -30.4628 -30.4596 -30.4559 -30.4534 -30.4502
   -20.3663 -20.3662 -20.3659 -20.3658 -20.3656 -20.3655 -20.3652 -20.3651
   -20.3597 -20.3594 -20.3592 -20.3589 -20.3564 -20.3559 -20.3556 -20.3549
   -20.3541 -20.3537 -20.3536 -20.3533 -20.3526 -20.3516 -20.3512 -20.3512
   -20.3511 -20.3509 -20.3506 -20.3500 -20.3495 -20.3489 -20.3488 -20.3485
   -20.3414 -20.3412 -20.3409 -20.3407 -20.3399 -20.3396 -20.3394 -20.3391
   -20.3178 -20.3178 -20.3162 -20.3162 -20.3149 -20.3149 -20.3139 -20.3139
   -20.3119 -20.3119 -20.3109 -20.3109 -20.3098 -20.3098 -20.3083 -20.3083
   -10.0224  -9.7555  -9.6229  -9.6217  -9.3747  -9.3595  -9.2044  -9.1329
    -9.1158  -9.0128  -8.9930  -8.9897  -8.0693  -8.0157  -8.0066  -7.9640
    -7.8674  -7.8635  -7.8325  -7.8299  -7.7661  -7.7617  -7.7401  -7.7350
     1.0753   1.0809   1.1586   1.1725   1.1827   1.2066   1.3051   1.4508
     1.5776   1.6414   1.6605   1.8242   2.3638   2.4456   2.5067   2.5232
     2.6309   2.6584   3.9483   3.9977   4.0108   4.0674   4.5555   4.6000
     4.6356   4.6359   4.6595   4.7163   4.7739   4.7759   4.8984   5.1552
     5.1834   5.2969   5.3040   5.4871   5.5185   5.5369   5.5723   5.6090
     5.6164   5.6334   5.7554   5.8643   5.8955   5.9813   5.9877   6.0018
     6.0234   6.1904   6.2273   6.3468   6.3730   6.6873   6.7008   6.7162
     6.7580   6.8174   6.8200   6.8466   6.8622   6.8763   7.1376   7.1434
     7.1722   7.1730   7.8669   7.8847   7.8969   7.9360   7.9534   7.9784
     9.2271   9.2472   9.8906   9.8981   9.9201   9.9240  12.0860  12.1701
    12.2779  12.3168  12.3428  12.3637  12.3761  12.3873  12.7066  12.9159
    13.0740  13.1143  13.1368  13.2928  13.7588  13.7710  13.8915  13.9042
    14.3869  14.5923  14.6962  14.8511  15.1078  15.1240  15.8269  15.8735
    15.9150  16.4725  17.0791  17.1314  17.1770

          k = 0.0000 0.1611 0.1664 ( 62913 PWs)   bands (ev):

   -66.2131 -66.2127 -66.2124 -66.2122 -66.2119 -66.2118 -66.2115 -66.2111
   -30.6308 -30.6266 -30.6252 -30.6211 -30.5806 -30.5748 -30.5718 -30.5639
   -30.5568 -30.5563 -30.5479 -30.5459 -30.5438 -30.5438 -30.5383 -30.5344
   -30.4722 -30.4703 -30.4699 -30.4678 -30.4593 -30.4556 -30.4546 -30.4510
   -20.3663 -20.3662 -20.3659 -20.3658 -20.3656 -20.3655 -20.3652 -20.3652
   -20.3597 -20.3594 -20.3592 -20.3589 -20.3563 -20.3558 -20.3557 -20.3550
   -20.3539 -20.3535 -20.3534 -20.3532 -20.3527 -20.3515 -20.3514 -20.3514
   -20.3513 -20.3509 -20.3505 -20.3502 -20.3494 -20.3489 -20.3488 -20.3485
   -20.3413 -20.3411 -20.3409 -20.3407 -20.3399 -20.3395 -20.3394 -20.3392
   -20.3175 -20.3175 -20.3159 -20.3159 -20.3148 -20.3147 -20.3141 -20.3141
   -20.3122 -20.3122 -20.3112 -20.3112 -20.3097 -20.3097 -20.3084 -20.3084
    -9.9774  -9.7024  -9.6359  -9.5616  -9.3706  -9.2859  -9.2123  -9.0953
    -9.0763  -9.0010  -8.9928  -8.9633  -8.0723  -8.0261  -8.0082  -7.9893
    -7.9726  -7.9525  -7.8967  -7.8681  -7.8493  -7.8232  -7.7680  -7.7413
     1.1663   1.1714   1.1843   1.2096   1.3762   1.4087   1.4359   1.5815
     1.6227   1.6575   1.6850   1.8956   2.4496   2.5114   2.5346   2.6094
     2.6240   2.7422   3.9513   3.9654   4.0531   4.0586   4.2665   4.3201
     4.4741   4.5248   4.5399   4.6869   4.6897   4.7851   4.8919   5.0591
     5.1237   5.2127   5.2435   5.2963   5.3695   5.4828   5.5300   5.5716
     5.6641   5.6725   5.7155   5.8191   5.8409   5.9436   5.9981   6.0707
     6.0996   6.2999   6.3560   6.3928   6.5840   6.6282   6.6804   6.6832
     6.7267   6.8087   6.8158   6.8411   6.8463   6.8641   6.9531   6.9614
     7.0128   7.0320   7.8464   7.8561   7.9054   7.9083   7.9357   7.9363
     9.5632   9.5755   9.8998   9.9318  10.1319  10.1656  12.1326  12.1511
    12.2449  12.2469  12.3190  12.3287  12.4251  12.4534  12.7385  12.7652
    12.8960  13.0770  13.1899  13.2956  13.7448  13.7586  13.7802  13.7967
    14.4733  14.6837  14.7805  14.9458  15.1671  15.2146  15.8464  15.8834
    16.1703  16.6265  16.8063  17.2386  17.2669

          k = 0.0000 0.1611 0.3328 ( 62885 PWs)   bands (ev):

   -66.2129 -66.2125 -66.2125 -66.2121 -66.2121 -66.2117 -66.2116 -66.2112
   -30.6299 -30.6275 -30.6244 -30.6220 -30.5788 -30.5757 -30.5690 -30.5650
   -30.5524 -30.5489 -30.5477 -30.5396 -30.5316 -30.5302 -30.5282 -30.5262
   -30.4886 -30.4870 -30.4856 -30.4836 -30.4585 -30.4561 -30.4548 -30.4523
   -20.3662 -20.3661 -20.3660 -20.3659 -20.3655 -20.3654 -20.3653 -20.3652
   -20.3596 -20.3595 -20.3591 -20.3590 -20.3562 -20.3558 -20.3556 -20.3552
   -20.3536 -20.3531 -20.3530 -20.3529 -20.3528 -20.3519 -20.3518 -20.3518
   -20.3513 -20.3508 -20.3505 -20.3505 -20.3493 -20.3490 -20.3487 -20.3485
   -20.3412 -20.3410 -20.3410 -20.3408 -20.3398 -20.3395 -20.3394 -20.3392
   -20.3166 -20.3166 -20.3150 -20.3150 -20.3146 -20.3145 -20.3144 -20.3143
   -20.3131 -20.3131 -20.3122 -20.3122 -20.3095 -20.3095 -20.3087 -20.3087
    -9.8698  -9.6798  -9.5816  -9.4205  -9.4057  -9.2396  -9.0352  -9.0330
    -9.0016  -8.9337  -8.9005  -8.8458  -8.2954  -8.2921  -8.2432  -8.2179
    -8.0429  -8.0227  -7.9895  -7.9660  -7.8336  -7.8060  -7.7855  -7.7585
     1.1890   1.1978   1.2177   1.2256   1.5470   1.5556   1.6203   1.6530
     2.1436   2.2066   2.2879   2.3894   2.5345   2.6050   2.6976   2.7890
     2.8485   2.9692   3.6426   3.7497   3.7560   3.8631   3.9980   4.0611
     4.0785   4.2215   4.4364   4.4941   4.5461   4.6311   4.6674   4.8271
     4.8314   4.9739   4.9889   5.0169   5.2135   5.2746   5.3867   5.5427
     5.6073   5.6887   5.6950   5.8010   5.8300   5.9969   6.0585   6.1110
     6.1767   6.3251   6.3858   6.3933   6.4378   6.5429   6.6342   6.6579
     6.7295   6.7398   6.8076   6.8153   6.8529   6.8873   7.0134   7.0276
     7.1278   7.1749   7.7202   7.7353   7.7698   7.8008   7.9223   7.9344
     9.8936   9.9033  10.2840  10.3335  10.7319  10.7785  11.7734  11.8164
    12.0174  12.2641  12.3272  12.3557  12.4837  12.5038  12.5892  12.6625
    12.7430  13.0969  13.1096  13.1254  13.3971  13.4773  13.7587  13.7885
    14.6078  14.6770  15.1921  15.2249  15.3790  15.7351  15.7624  15.7830
    16.2345  17.0670  17.0823  17.3136  17.4971

          k = 0.0000 0.1611-0.4992 ( 62824 PWs)   bands (ev):

   -66.2127 -66.2127 -66.2123 -66.2123 -66.2119 -66.2119 -66.2114 -66.2114
   -30.6287 -30.6287 -30.6232 -30.6232 -30.5771 -30.5771 -30.5667 -30.5667
   -30.5504 -30.5504 -30.5422 -30.5422 -30.5103 -30.5103 -30.5096 -30.5096
   -30.5071 -30.5071 -30.5059 -30.5059 -30.4574 -30.4573 -30.4536 -30.4536
   -20.3661 -20.3661 -20.3660 -20.3660 -20.3654 -20.3654 -20.3653 -20.3653
   -20.3596 -20.3595 -20.3591 -20.3591 -20.3560 -20.3560 -20.3554 -20.3554
   -20.3532 -20.3532 -20.3525 -20.3524 -20.3524 -20.3524 -20.3523 -20.3523
   -20.3509 -20.3509 -20.3506 -20.3506 -20.3492 -20.3492 -20.3486 -20.3486
   -20.3411 -20.3411 -20.3409 -20.3409 -20.3396 -20.3396 -20.3393 -20.3393
   -20.3155 -20.3155 -20.3155 -20.3155 -20.3141 -20.3141 -20.3141 -20.3140
   -20.3135 -20.3135 -20.3134 -20.3134 -20.3091 -20.3091 -20.3091 -20.3091
    -9.7587  -9.7587  -9.4725  -9.4725  -9.3009  -9.3009  -9.0145  -9.0145
    -8.6650  -8.6649  -8.6481  -8.6481  -8.6375  -8.6375  -8.5827  -8.5826
    -8.0353  -8.0353  -7.9795  -7.9795  -7.8095  -7.8095  -7.7822  -7.7822
     1.1956   1.1956   1.2268   1.2268   1.5610   1.5610   1.6467   1.6467
     2.5604   2.5604   2.9493   2.9493   3.0451   3.0451   3.0595   3.0595
     3.1685   3.1685   3.1912   3.1912   3.3724   3.3724   3.6526   3.6527
     3.7222   3.7222   4.1506   4.1506   4.4300   4.4300   4.6635   4.6635
     4.8984   4.8984   5.0981   5.0981   5.1851   5.1851   5.3934   5.3934
     5.6141   5.6141   5.7646   5.7646   5.9619   5.9619   6.1381   6.1381
     6.1990   6.1990   6.2614   6.2615   6.4313   6.4313   6.5633   6.5633
     6.7570   6.7570   6.7789   6.7789   6.8422   6.8422   7.4214   7.4214
     7.4588   7.4588   7.5106   7.5106   7.5490   7.5490   7.9314   7.9314
     9.9027   9.9028  11.0777  11.0777  11.1285  11.1285  11.4513  11.4513
    11.5446  11.5447  12.3537  12.3537  12.6056  12.6056  12.7753  12.7753
    12.8461  12.8461  13.0115  13.0115  13.1953  13.1953  13.7651  13.7651
    14.6570  14.6570  15.5446  15.5447  15.6090  15.6091  15.6896  15.6897
    16.5863  16.5863  17.5043  17.5043  17.8255

          k = 0.0000 0.3222 0.0000 ( 62954 PWs)   bands (ev):

   -66.2131 -66.2128 -66.2122 -66.2122 -66.2120 -66.2119 -66.2114 -66.2111
   -30.6196 -30.6146 -30.6136 -30.6087 -30.5905 -30.5843 -30.5827 -30.5757
   -30.5608 -30.5599 -30.5513 -30.5506 -30.5464 -30.5462 -30.5410 -30.5401
   -30.4656 -30.4644 -30.4642 -30.4631 -30.4589 -30.4567 -30.4528 -30.4510
   -20.3661 -20.3660 -20.3657 -20.3657 -20.3656 -20.3656 -20.3653 -20.3652
   -20.3589 -20.3586 -20.3584 -20.3581 -20.3570 -20.3564 -20.3564 -20.3557
   -20.3540 -20.3538 -20.3538 -20.3536 -20.3523 -20.3516 -20.3514 -20.3512
   -20.3512 -20.3511 -20.3507 -20.3502 -20.3494 -20.3490 -20.3489 -20.3487
   -20.3413 -20.3412 -20.3408 -20.3407 -20.3398 -20.3396 -20.3393 -20.3392
   -20.3178 -20.3178 -20.3162 -20.3162 -20.3149 -20.3149 -20.3139 -20.3139
   -20.3119 -20.3119 -20.3109 -20.3109 -20.3098 -20.3098 -20.3083 -20.3083
    -9.9420  -9.7921  -9.5305  -9.5251  -9.3992  -9.3857  -9.1292  -9.1194
    -8.9807  -8.8632  -8.8580  -8.8563  -8.3302  -8.2888  -8.2815  -8.2596
    -7.8630  -7.8625  -7.8370  -7.8354  -7.7609  -7.7574  -7.7463  -7.7412
     1.0761   1.0793   1.1720   1.1735   1.2021   1.2069   1.4160   1.4490
     2.1848   2.3014   2.3271   2.3803   2.4281   2.4579   2.7260   2.7626
     2.8407   2.8887   3.5165   3.5584   3.5736   3.6204   4.0234   4.3251
     4.3680   4.6003   4.6070   4.6354   4.6400   4.6720   4.8600   4.8953
     4.8997   4.9367   5.1949   5.2174   5.4347   5.4360   5.5741   5.5959
     5.8134   5.8319   5.8320   5.8401   5.8650   5.9714   5.9751   6.0287
     6.0412   6.1156   6.1834   6.3876   6.4152   6.4416   6.6689   6.6955
     6.7407   6.8467   6.9897   6.9938   7.0048   7.0060   7.1433   7.1469
     7.1738   7.1801   7.7145   7.7377   7.7446   7.7682   7.8884   7.8886
     9.2363   9.2461  10.4037  10.4506  10.4652  10.4939  11.6806  11.7658
    11.8070  11.8497  12.3505  12.3642  12.3871  12.3903  12.8015  12.9625
    13.1423  13.1697  13.1850  13.3278  13.5803  13.6406  13.6508  13.6546
    14.8239  15.1073  15.1174  15.1194  15.1552  15.5064  15.7315  15.7656
    15.9102  16.9280  17.1192  17.5863  17.6332

          k = 0.0000 0.3222 0.1664 ( 62956 PWs)   bands (ev):

   -66.2130 -66.2128 -66.2123 -66.2121 -66.2120 -66.2119 -66.2114 -66.2112
   -30.6192 -30.6149 -30.6133 -30.6091 -30.5898 -30.5846 -30.5819 -30.5760
   -30.5566 -30.5562 -30.5466 -30.5459 -30.5453 -30.5432 -30.5414 -30.5381
   -30.4719 -30.4707 -30.4695 -30.4682 -30.4586 -30.4564 -30.4539 -30.4519
   -20.3660 -20.3660 -20.3657 -20.3657 -20.3656 -20.3656 -20.3653 -20.3652
   -20.3589 -20.3587 -20.3584 -20.3581 -20.3569 -20.3565 -20.3564 -20.3558
   -20.3538 -20.3536 -20.3536 -20.3535 -20.3524 -20.3516 -20.3515 -20.3514
   -20.3513 -20.3511 -20.3507 -20.3504 -20.3493 -20.3489 -20.3489 -20.3487
   -20.3413 -20.3412 -20.3409 -20.3408 -20.3398 -20.3396 -20.3394 -20.3392
   -20.3175 -20.3175 -20.3159 -20.3159 -20.3148 -20.3147 -20.3141 -20.3141
   -20.3122 -20.3122 -20.3112 -20.3112 -20.3097 -20.3097 -20.3084 -20.3084
    -9.8936  -9.7394  -9.5390  -9.4564  -9.3974  -9.3111  -9.0903  -9.0800
    -8.9886  -8.8609  -8.8561  -8.8402  -8.3307  -8.2954  -8.2791  -8.2656
    -7.9838  -7.9678  -7.8917  -7.8772  -7.8455  -7.8296  -7.7638  -7.7475
     1.1719   1.1725   1.2047   1.2098   1.4288   1.4365   1.5772   1.6206
     2.1884   2.2953   2.3240   2.4486   2.4766   2.5141   2.7327   2.8342
     2.8530   2.9746   3.5549   3.5751   3.6107   3.6139   4.0103   4.2717
     4.2980   4.3304   4.3784   4.5653   4.6125   4.6628   4.7063   4.7121
     4.8794   4.9463   5.0058   5.1697   5.2173   5.3056   5.4418   5.5569
     5.5971   5.6454   5.7276   5.8146   5.9429   5.9829   6.0045   6.0212
     6.1207   6.3111   6.3343   6.4187   6.4476   6.6583   6.6743   6.7811
     6.8048   6.8518   6.9130   6.9365   6.9502   6.9525   6.9942   7.0432
     7.0648   7.0691   7.7168   7.7178   7.7312   7.7359   7.8614   7.8667
     9.5765   9.5808  10.4549  10.4947  10.5775  10.6366  11.7634  11.7664
    11.8492  11.8873  12.2336  12.2431  12.4360  12.4389  12.8408  12.8698
    12.9629  13.1413  13.1681  13.2811  13.4793  13.5612  13.5785  13.6596
    14.9194  15.1365  15.1613  15.2460  15.3780  15.5758  15.7392  16.0594
    16.0767  16.8935  17.1970  17.2059  17.4468

          k = 0.0000 0.3222 0.3328 ( 62885 PWs)   bands (ev):

   -66.2128 -66.2126 -66.2124 -66.2122 -66.2120 -66.2117 -66.2116 -66.2113
   -30.6183 -30.6158 -30.6124 -30.6100 -30.5884 -30.5855 -30.5802 -30.5770
   -30.5515 -30.5488 -30.5476 -30.5427 -30.5317 -30.5310 -30.5285 -30.5279
   -30.4884 -30.4875 -30.4852 -30.4841 -30.4578 -30.4556 -30.4553 -30.4532
   -20.3660 -20.3659 -20.3658 -20.3657 -20.3656 -20.3655 -20.3654 -20.3653
   -20.3589 -20.3587 -20.3584 -20.3582 -20.3568 -20.3566 -20.3563 -20.3559
   -20.3535 -20.3531 -20.3531 -20.3531 -20.3526 -20.3520 -20.3519 -20.3518
   -20.3513 -20.3510 -20.3507 -20.3506 -20.3492 -20.3490 -20.3489 -20.3487
   -20.3412 -20.3411 -20.3409 -20.3408 -20.3397 -20.3395 -20.3394 -20.3393
   -20.3166 -20.3166 -20.3150 -20.3150 -20.3146 -20.3145 -20.3144 -20.3143
   -20.3131 -20.3131 -20.3122 -20.3122 -20.3095 -20.3095 -20.3087 -20.3087
    -9.7785  -9.6179  -9.5826  -9.4346  -9.2700  -9.0614  -9.0182  -8.9770
    -8.9397  -8.8717  -8.8162  -8.7680  -8.3796  -8.3577  -8.2888  -8.2854
    -8.2707  -8.2186  -8.2108  -8.1526  -7.8295  -7.8126  -7.7813  -7.7648
     1.2118   1.2177   1.2206   1.2256   2.0368   2.1081   2.1412   2.2034
     2.2847   2.3245   2.3599   2.5612   2.7206   2.7410   2.7609   2.8330
     3.0904   3.1857   3.5466   3.5806   3.6124   3.6954   3.7400   3.7449
     3.9919   4.0948   4.1919   4.2372   4.3008   4.4473   4.4910   4.6129
     4.6394   4.7059   4.8450   4.9104   4.9843   5.0317   5.1113   5.1610
     5.2532   5.4546   5.5063   5.7493   6.0234   6.0591   6.0828   6.1390
     6.2742   6.3674   6.4298   6.4750   6.5163   6.6392   6.6470   6.6677
     6.7931   6.8812   6.9221   6.9391   6.9594   7.0229   7.0702   7.0839
     7.1470   7.1834   7.6237   7.6308   7.6854   7.7310   7.7418   7.7830
    10.2785  10.2983  10.4665  10.5174  11.0529  11.1024  11.7152  11.8115
    11.8165  11.8792  12.0360  12.1326  12.4088  12.4603  12.5893  12.6011
    12.8173  12.9566  13.0985  13.1174  13.1532  13.3773  13.5763  13.6214
    15.0048  15.1155  15.3386  15.6627  15.7263  15.9479  15.9735  16.5441
    16.6357  16.7748  16.9519  17.4714  17.5542

          k = 0.0000 0.3222-0.4992 ( 62832 PWs)   bands (ev):

   -66.2127 -66.2126 -66.2124 -66.2124 -66.2118 -66.2118 -66.2115 -66.2115
   -30.6171 -30.6171 -30.6112 -30.6112 -30.5869 -30.5869 -30.5785 -30.5785
   -30.5492 -30.5492 -30.5448 -30.5447 -30.5105 -30.5105 -30.5100 -30.5100
   -30.5071 -30.5071 -30.5063 -30.5063 -30.4566 -30.4566 -30.4545 -30.4545
   -20.3659 -20.3659 -20.3658 -20.3658 -20.3655 -20.3655 -20.3654 -20.3654
   -20.3588 -20.3588 -20.3583 -20.3583 -20.3567 -20.3567 -20.3561 -20.3561
   -20.3530 -20.3530 -20.3525 -20.3525 -20.3525 -20.3525 -20.3525 -20.3524
   -20.3510 -20.3510 -20.3509 -20.3508 -20.3491 -20.3491 -20.3488 -20.3488
   -20.3411 -20.3411 -20.3410 -20.3409 -20.3396 -20.3396 -20.3394 -20.3394
   -20.3155 -20.3155 -20.3155 -20.3155 -20.3141 -20.3141 -20.3141 -20.3140
   -20.3135 -20.3135 -20.3134 -20.3134 -20.3091 -20.3091 -20.3091 -20.3091
    -9.6623  -9.6623  -9.5052  -9.5052  -9.0963  -9.0963  -8.8953  -8.8953
    -8.7003  -8.7003  -8.6679  -8.6679  -8.6195  -8.6194  -8.5587  -8.5587
    -8.2867  -8.2867  -8.2441  -8.2441  -7.8054  -7.8054  -7.7886  -7.7886
     1.2205   1.2205   1.2268   1.2268   2.1890   2.1890   2.3097   2.3098
     2.7646   2.7646   2.9944   2.9944   3.0396   3.0396   3.1078   3.1078
     3.1540   3.1540   3.2687   3.2687   3.3379   3.3380   3.5809   3.5809
     3.8687   3.8687   3.9233   3.9233   3.9520   3.9520   4.1931   4.1931
     4.7023   4.7023   4.8103   4.8103   4.9573   4.9573   5.0732   5.0732
     5.2604   5.2604   5.6193   5.6193   6.1156   6.1156   6.1603   6.1603
     6.3327   6.3327   6.3563   6.3563   6.4183   6.4183   6.6064   6.6064
     6.9338   6.9338   6.9478   6.9478   6.9999   6.9999   7.4102   7.4102
     7.4316   7.4316   7.4406   7.4406   7.4949   7.4949   7.7425   7.7425
    10.4657  10.4657  11.0893  11.0893  11.1302  11.1302  11.6180  11.6180
    11.7488  11.7488  11.9552  11.9552  12.4581  12.4581  12.5099  12.5099
    12.8419  12.8419  12.8531  12.8532  13.1997  13.1997  13.5852  13.5852
    15.0706  15.0707  15.5283  15.5284  16.1231  16.1231  16.4980  16.4980
    16.8237  16.8237  17.0898  17.0898  17.8792

          k = 0.0000-0.4833 0.0000 ( 62918 PWs)   bands (ev):

   -66.2129 -66.2129 -66.2121 -66.2121 -66.2121 -66.2121 -66.2112 -66.2112
   -30.6044 -30.6044 -30.5990 -30.5990 -30.5977 -30.5977 -30.5922 -30.5922
   -30.5604 -30.5604 -30.5514 -30.5514 -30.5441 -30.5441 -30.5439 -30.5439
   -30.4650 -30.4650 -30.4636 -30.4636 -30.4578 -30.4578 -30.4520 -30.4520
   -20.3658 -20.3658 -20.3658 -20.3658 -20.3654 -20.3654 -20.3654 -20.3654
   -20.3579 -20.3579 -20.3575 -20.3575 -20.3574 -20.3574 -20.3569 -20.3569
   -20.3539 -20.3539 -20.3538 -20.3538 -20.3519 -20.3519 -20.3514 -20.3514
   -20.3511 -20.3511 -20.3505 -20.3505 -20.3492 -20.3492 -20.3488 -20.3488
   -20.3413 -20.3413 -20.3408 -20.3408 -20.3397 -20.3397 -20.3393 -20.3393
   -20.3178 -20.3178 -20.3162 -20.3162 -20.3149 -20.3149 -20.3139 -20.3139
   -20.3119 -20.3119 -20.3109 -20.3109 -20.3098 -20.3098 -20.3083 -20.3083
    -9.8561  -9.8561  -9.4483  -9.4483  -9.4381  -9.4381  -9.1243  -9.1243
    -8.6592  -8.6592  -8.6078  -8.6078  -8.6031  -8.6031  -8.6030  -8.6030
    -7.8600  -7.8600  -7.8395  -7.8395  -7.7538  -7.7538  -7.7495  -7.7495
     1.0776   1.0776   1.1741   1.1741   1.2064   1.2064   1.4421   1.4421
     2.4039   2.4039   2.9575   2.9576   3.0790   3.0790   3.0869   3.0869
     3.1048   3.1048   3.1849   3.1849   3.3822   3.3822   3.4185   3.4185
     3.5362   3.5362   4.6141   4.6141   4.6503   4.6503   5.0252   5.0252
     5.0830   5.0830   5.1507   5.1507   5.1828   5.1828   5.6674   5.6674
     5.6922   5.6922   5.8958   5.8958   5.9613   5.9613   6.0099   6.0099
     6.0812   6.0812   6.1527   6.1527   6.5225   6.5225   6.5491   6.5491
     6.7959   6.7959   7.1417   7.1417   7.1695   7.1695   7.3793   7.3793
     7.3917   7.3917   7.4123   7.4123   7.4282   7.4282   7.8868   7.8868
     9.2425   9.2425  11.0626  11.0626  11.1330  11.1330  11.1373  11.1373
    11.2142  11.2142  12.3601  12.3601  12.3926  12.3926  12.9179  12.9179
    13.3164  13.3164  13.3272  13.3272  13.3779  13.3779  13.4854  13.4854
    15.1064  15.1064  15.3411  15.3411  15.5206  15.5206  15.5459  15.5459
    16.4153  16.4153  17.7023  17.9716  17.9728

          k = 0.0000-0.4833 0.1664 ( 62928 PWs)   bands (ev):

   -66.2129 -66.2129 -66.2122 -66.2122 -66.2120 -66.2120 -66.2113 -66.2113
   -30.6040 -30.6040 -30.5993 -30.5993 -30.5972 -30.5972 -30.5925 -30.5925
   -30.5563 -30.5563 -30.5460 -30.5459 -30.5444 -30.5444 -30.5414 -30.5414
   -30.4713 -30.4713 -30.4689 -30.4689 -30.4575 -30.4575 -30.4529 -30.4529
   -20.3658 -20.3658 -20.3657 -20.3657 -20.3655 -20.3655 -20.3654 -20.3654
   -20.3579 -20.3579 -20.3576 -20.3576 -20.3573 -20.3573 -20.3570 -20.3570
   -20.3537 -20.3537 -20.3536 -20.3536 -20.3520 -20.3520 -20.3514 -20.3514
   -20.3513 -20.3513 -20.3506 -20.3506 -20.3491 -20.3491 -20.3488 -20.3488
   -20.3412 -20.3412 -20.3408 -20.3408 -20.3397 -20.3397 -20.3393 -20.3393
   -20.3175 -20.3175 -20.3159 -20.3159 -20.3148 -20.3148 -20.3141 -20.3141
   -20.3122 -20.3122 -20.3112 -20.3112 -20.3097 -20.3097 -20.3084 -20.3084
    -9.8047  -9.8047  -9.4509  -9.4509  -9.3640  -9.3639  -9.0850  -9.0850
    -8.6649  -8.6649  -8.6125  -8.6125  -8.6020  -8.6020  -8.5965  -8.5965
    -7.9763  -7.9763  -7.8847  -7.8847  -7.8380  -7.8380  -7.7559  -7.7559
     1.1725   1.1725   1.2093   1.2093   1.4360   1.4360   1.6123   1.6123
     2.4900   2.4900   2.9725   2.9725   3.0533   3.0533   3.1033   3.1033
     3.1559   3.1559   3.1896   3.1896   3.3890   3.3890   3.4526   3.4526
     3.5697   3.5698   4.2911   4.2911   4.6731   4.6731   4.8124   4.8124
     4.9354   4.9354   5.0492   5.0492   5.1860   5.1860   5.3840   5.3840
     5.6551   5.6551   5.6691   5.6691   6.0011   6.0011   6.0255   6.0255
     6.2336   6.2336   6.3244   6.3244   6.5175   6.5175   6.7354   6.7354
     6.8604   6.8604   6.9416   6.9416   6.9968   6.9968   7.3763   7.3763
     7.3899   7.3899   7.4053   7.4053   7.4162   7.4162   7.8618   7.8618
     9.5809   9.5809  11.1349  11.1349  11.1769  11.1769  11.2005  11.2005
    11.2710  11.2710  12.2388  12.2388  12.4407  12.4407  12.9464  12.9464
    13.1455  13.1455  13.2116  13.2116  13.3252  13.3252  13.5049  13.5049
    15.1368  15.1368  15.5091  15.5091  15.5419  15.5419  15.8365  15.8365
    16.4888  16.4888  17.6600  17.6605  17.7409

          k = 0.0000-0.4833 0.3328 ( 62858 PWs)   bands (ev):

   -66.2127 -66.2127 -66.2123 -66.2123 -66.2119 -66.2119 -66.2114 -66.2114
   -30.6029 -30.6029 -30.6002 -30.6002 -30.5962 -30.5961 -30.5935 -30.5935
   -30.5502 -30.5502 -30.5455 -30.5455 -30.5316 -30.5316 -30.5285 -30.5285
   -30.4880 -30.4880 -30.4847 -30.4847 -30.4567 -30.4567 -30.4543 -30.4543
   -20.3657 -20.3657 -20.3657 -20.3657 -20.3655 -20.3655 -20.3655 -20.3655
   -20.3578 -20.3578 -20.3576 -20.3576 -20.3573 -20.3573 -20.3571 -20.3571
   -20.3533 -20.3533 -20.3531 -20.3531 -20.3523 -20.3523 -20.3518 -20.3518
   -20.3512 -20.3512 -20.3508 -20.3507 -20.3491 -20.3491 -20.3489 -20.3489
   -20.3411 -20.3411 -20.3409 -20.3409 -20.3396 -20.3396 -20.3394 -20.3394
   -20.3166 -20.3166 -20.3150 -20.3150 -20.3146 -20.3145 -20.3143 -20.3143
   -20.3131 -20.3131 -20.3122 -20.3122 -20.3095 -20.3095 -20.3087 -20.3087
    -9.6843  -9.6843  -9.4916  -9.4916  -9.1308  -9.1308  -8.9511  -8.9511
    -8.6971  -8.6971  -8.6321  -8.6321  -8.5921  -8.5921  -8.5709  -8.5709
    -8.2724  -8.2724  -8.1969  -8.1969  -7.8213  -7.8213  -7.7733  -7.7733
     1.2169   1.2169   1.2249   1.2249   2.1318   2.1318   2.2649   2.2649
     2.7382   2.7382   2.9938   2.9938   3.0481   3.0481   3.1188   3.1188
     3.1500   3.1500   3.2822   3.2822   3.3695   3.3695   3.5855   3.5855
     3.6572   3.6572   3.7306   3.7306   4.2802   4.2802   4.4304   4.4304
     4.6631   4.6631   4.7349   4.7349   5.0231   5.0231   5.0593   5.0593
     5.2371   5.2371   5.5576   5.5576   6.0629   6.0629   6.1366   6.1366
     6.3645   6.3645   6.4414   6.4414   6.5204   6.5204   6.6707   6.6707
     6.9233   6.9233   7.0428   7.0429   7.0689   7.0689   7.3425   7.3425
     7.3602   7.3602   7.3966   7.3966   7.4191   7.4191   7.7477   7.7477
    10.3032  10.3032  11.1460  11.1460  11.1864  11.1864  11.5373  11.5373
    11.6066  11.6066  11.8161  11.8161  12.5879  12.5879  12.6514  12.6514
    12.6991  12.6991  13.0429  13.0429  13.3242  13.3242  13.4319  13.4319
    15.2361  15.2361  15.4652  15.4652  16.0892  16.0892  16.6328  16.6328
    16.7698  16.7698  17.1571  17.1571  17.8238

          k = 0.0000-0.4833-0.4992 ( 62892 PWs)   bands (ev):

   -66.2125 -66.2125 -66.2125 -66.2125 -66.2117 -66.2117 -66.2116 -66.2116
   -30.6015 -30.6015 -30.6015 -30.6015 -30.5948 -30.5948 -30.5948 -30.5948
   -30.5473 -30.5473 -30.5473 -30.5473 -30.5104 -30.5104 -30.5104 -30.5103
   -30.5068 -30.5068 -30.5068 -30.5068 -30.4556 -30.4556 -30.4556 -30.4556
   -20.3657 -20.3657 -20.3656 -20.3656 -20.3656 -20.3656 -20.3656 -20.3656
   -20.3578 -20.3578 -20.3577 -20.3577 -20.3572 -20.3572 -20.3572 -20.3572
   -20.3528 -20.3528 -20.3527 -20.3527 -20.3525 -20.3525 -20.3525 -20.3525
   -20.3510 -20.3510 -20.3510 -20.3510 -20.3490 -20.3490 -20.3490 -20.3489
   -20.3410 -20.3410 -20.3410 -20.3410 -20.3395 -20.3395 -20.3395 -20.3395
   -20.3155 -20.3155 -20.3155 -20.3155 -20.3141 -20.3141 -20.3141 -20.3141
   -20.3135 -20.3135 -20.3134 -20.3134 -20.3091 -20.3091 -20.3091 -20.3091
    -9.5676  -9.5676  -9.5676  -9.5676  -8.8408  -8.8408  -8.8408  -8.8408
    -8.7307  -8.7307  -8.7306  -8.7306  -8.5354  -8.5354  -8.5354  -8.5354
    -8.4783  -8.4783  -8.4783  -8.4783  -7.7973  -7.7972  -7.7972  -7.7972
     1.2258   1.2258   1.2258   1.2258   2.8979   2.8979   2.8979   2.8979
     3.0113   3.0113   3.0113   3.0113   3.1003   3.1003   3.1003   3.1003
     3.1673   3.1673   3.1673   3.1673   3.3628   3.3628   3.3628   3.3628
     3.4854   3.4854   3.4854   3.4854   4.1498   4.1498   4.1498   4.1498
     4.2441   4.2441   4.2441   4.2441   5.0252   5.0252   5.0252   5.0252
     5.3807   5.3807   5.3807   5.3808   6.1598   6.1598   6.1598   6.1598
     6.3836   6.3836   6.3836   6.3836   6.4713   6.4713   6.4713   6.4713
     7.1932   7.1932   7.1932   7.1932   7.2514   7.2514   7.2514   7.2514
     7.3492   7.3492   7.3492   7.3492   7.5250   7.5250   7.5250   7.5250
    11.0499  11.0499  11.0499  11.0499  11.2275  11.2275  11.2275  11.2275
    12.0745  12.0745  12.0745  12.0745  12.1248  12.1248  12.1248  12.1248
    12.8401  12.8401  12.8401  12.8401  13.3461  13.3461  13.3461  13.3461
    15.3649  15.3649  15.3649  15.3649  16.6551  16.6551  16.6551  16.6551
    17.3861  17.3863  17.3863  17.3863  17.5106

          k = 0.1667 0.0000 0.0000 ( 62917 PWs)   bands (ev):

   -66.2131 -66.2126 -66.2124 -66.2123 -66.2119 -66.2118 -66.2115 -66.2111
   -30.6349 -30.6302 -30.6302 -30.6256 -30.5776 -30.5708 -30.5695 -30.5596
   -30.5591 -30.5577 -30.5513 -30.5474 -30.5435 -30.5420 -30.5318 -30.5308
   -30.4673 -30.4658 -30.4657 -30.4652 -30.4635 -30.4615 -30.4569 -30.4546
   -20.3664 -20.3663 -20.3660 -20.3659 -20.3656 -20.3655 -20.3652 -20.3651
   -20.3599 -20.3596 -20.3595 -20.3592 -20.3562 -20.3558 -20.3553 -20.3547
   -20.3541 -20.3537 -20.3535 -20.3532 -20.3525 -20.3515 -20.3513 -20.3511
   -20.3510 -20.3507 -20.3504 -20.3499 -20.3496 -20.3490 -20.3488 -20.3486
   -20.3413 -20.3410 -20.3408 -20.3406 -20.3400 -20.3396 -20.3395 -20.3392
   -20.3177 -20.3177 -20.3163 -20.3163 -20.3146 -20.3146 -20.3136 -20.3136
   -20.3117 -20.3117 -20.3111 -20.3110 -20.3102 -20.3101 -20.3087 -20.3087
   -10.0128  -9.6930  -9.6785  -9.6098  -9.3782  -9.2919  -9.2630  -9.1040
    -9.0728  -9.0385  -9.0354  -8.9915  -8.0102  -7.9596  -7.9397  -7.9239
    -7.9017  -7.8707  -7.8644  -7.8573  -7.8506  -7.8253  -7.7746  -7.7432
     1.1306   1.1340   1.1497   1.1752   1.2563   1.2718   1.3606   1.4145
     1.4653   1.5792   1.6446   1.8060   2.4360   2.4572   2.5142   2.5416
     2.5738   2.6468   4.0215   4.1353   4.2246   4.2910   4.3229   4.3814
     4.4034   4.5686   4.6517   4.6619   4.6963   4.8043   4.9991   5.1994
     5.2468   5.2664   5.3905   5.4229   5.4397   5.4777   5.5287   5.5374
     5.5935   5.7130   5.7621   5.7648   5.8940   5.9069   5.9957   6.0486
     6.2142   6.3105   6.3354   6.3625   6.5817   6.6418   6.6668   6.6735
     6.7555   6.7804   6.7898   6.8655   6.8885   6.9122   6.9763   6.9832
     6.9933   7.0046   7.8510   7.8529   7.8979   7.9481   8.0173   8.0547
     9.5631   9.5726   9.6978   9.6991   9.9667   9.9876  12.1572  12.2389
    12.2785  12.3193  12.3961  12.4202  12.4557  12.5695  12.5994  12.8641
    12.9266  13.1193  13.2267  13.2282  13.6613  13.7379  13.9957  14.0079
    14.2321  14.3261  14.5787  14.7989  15.1671  15.1917  15.4710  15.8282
    16.2428  16.6396  16.9563  17.1721  17.1966

          k = 0.1667 0.0000 0.1664 ( 62925 PWs)   bands (ev):

   -66.2131 -66.2126 -66.2124 -66.2123 -66.2119 -66.2118 -66.2116 -66.2111
   -30.6346 -30.6306 -30.6299 -30.6259 -30.5763 -30.5698 -30.5689 -30.5600
   -30.5548 -30.5531 -30.5456 -30.5433 -30.5422 -30.5414 -30.5323 -30.5295
   -30.4723 -30.4709 -30.4703 -30.4687 -30.4655 -30.4612 -30.4597 -30.4560
   -20.3664 -20.3663 -20.3660 -20.3659 -20.3655 -20.3655 -20.3652 -20.3651
   -20.3599 -20.3597 -20.3595 -20.3592 -20.3561 -20.3557 -20.3554 -20.3548
   -20.3539 -20.3535 -20.3534 -20.3530 -20.3526 -20.3515 -20.3515 -20.3513
   -20.3512 -20.3507 -20.3503 -20.3500 -20.3496 -20.3490 -20.3488 -20.3486
   -20.3412 -20.3410 -20.3408 -20.3406 -20.3400 -20.3396 -20.3395 -20.3392
   -20.3174 -20.3174 -20.3160 -20.3160 -20.3145 -20.3145 -20.3138 -20.3137
   -20.3121 -20.3121 -20.3114 -20.3114 -20.3101 -20.3101 -20.3088 -20.3088
    -9.9672  -9.6345  -9.6236  -9.6224  -9.3001  -9.2894  -9.2741  -9.0597
    -9.0387  -9.0341  -9.0007  -8.9949  -8.0168  -7.9864  -7.9561  -7.9544
    -7.9393  -7.9354  -7.9035  -7.8989  -7.8795  -7.8662  -7.8537  -7.8468
     1.2315   1.2641   1.2660   1.3372   1.3440   1.3561   1.4391   1.4689
     1.5510   1.5806   1.7226   1.8832   2.5211   2.5232   2.5395   2.6295
     2.6337   2.6685   4.0175   4.0482   4.2356   4.2415   4.3511   4.3640
     4.3848   4.3894   4.4513   4.4605   4.5673   4.6253   4.9874   5.0871
     5.1641   5.1735   5.2237   5.3935   5.4081   5.4229   5.4644   5.5994
     5.6032   5.6224   5.6339   5.7202   5.7771   5.9132   6.1033   6.2444
     6.2631   6.3985   6.4616   6.5306   6.5432   6.5886   6.6110   6.6503
     6.6513   6.6716   6.6882   6.7339   6.7830   6.8427   6.8466   6.9244
     7.0722   7.1013   7.8322   7.8324   7.9105   7.9497   7.9748   8.0057
     9.7748   9.8101   9.9286   9.9737   9.9856  10.0712  12.2058  12.2373
    12.2792  12.2943  12.3248  12.3582  12.5270  12.5617  12.6161  12.7380
    12.8900  12.9407  13.2315  13.2668  13.6957  13.7256  13.8536  13.8857
    14.2874  14.4758  14.5739  14.9218  15.2821  15.2925  15.4418  16.1681
    16.2120  16.8019  16.8297  17.1046  17.2844

          k = 0.1667 0.0000 0.3328 ( 62887 PWs)   bands (ev):

   -66.2129 -66.2125 -66.2124 -66.2122 -66.2120 -66.2118 -66.2117 -66.2113
   -30.6338 -30.6314 -30.6291 -30.6268 -30.5741 -30.5708 -30.5655 -30.5611
   -30.5472 -30.5444 -30.5432 -30.5340 -30.5307 -30.5299 -30.5281 -30.5236
   -30.4885 -30.4867 -30.4861 -30.4839 -30.4649 -30.4623 -30.4604 -30.4578
   -20.3663 -20.3662 -20.3661 -20.3660 -20.3655 -20.3654 -20.3653 -20.3652
   -20.3598 -20.3597 -20.3594 -20.3593 -20.3560 -20.3555 -20.3555 -20.3550
   -20.3536 -20.3531 -20.3531 -20.3527 -20.3526 -20.3519 -20.3518 -20.3517
   -20.3511 -20.3506 -20.3503 -20.3503 -20.3495 -20.3492 -20.3487 -20.3486
   -20.3411 -20.3409 -20.3409 -20.3407 -20.3399 -20.3396 -20.3395 -20.3393
   -20.3165 -20.3165 -20.3151 -20.3151 -20.3144 -20.3144 -20.3140 -20.3140
   -20.3130 -20.3129 -20.3123 -20.3123 -20.3098 -20.3098 -20.3091 -20.3091
    -9.8584  -9.6672  -9.4992  -9.4954  -9.3276  -9.3094  -9.0367  -9.0284
    -9.0042  -8.9100  -8.9062  -8.8695  -8.2880  -8.2822  -8.2418  -8.2300
    -7.9777  -7.9479  -7.9257  -7.9206  -7.8847  -7.8822  -7.8786  -7.8622
     1.2436   1.2577   1.3215   1.3462   1.4777   1.4811   1.5478   1.5841
     2.1484   2.2027   2.2826   2.3746   2.5437   2.6145   2.7641   2.7885
     2.8922   2.9051   3.6675   3.7606   3.8230   3.8901   3.9374   4.2109
     4.2359   4.3385   4.3589   4.4192   4.4399   4.6127   4.6275   4.7428
     4.8507   4.9260   4.9421   5.0834   5.1010   5.2523   5.4593   5.5011
     5.6314   5.6636   5.6920   5.7567   5.7795   5.8778   5.9655   5.9959
     6.2955   6.3114   6.3793   6.4166   6.4241   6.5517   6.5850   6.6336
     6.6374   6.7529   6.7595   6.7762   6.9396   6.9798   7.0573   7.0652
     7.1417   7.1959   7.7191   7.7321   7.8127   7.8510   7.9435   7.9505
     9.9396   9.9453  10.4099  10.4741  10.6248  10.7034  11.8325  11.8760
    12.0471  12.2266  12.3410  12.4310  12.4895  12.5597  12.6388  12.6621
    12.7503  12.9511  13.0737  13.1406  13.5010  13.5236  13.7219  13.7443
    14.4306  14.5577  14.8312  15.2348  15.3424  15.6159  15.7974  16.1211
    16.2444  17.0847  17.2361  17.3542  17.4703

          k = 0.1667 0.0000-0.4992 ( 62882 PWs)   bands (ev):

   -66.2127 -66.2127 -66.2122 -66.2122 -66.2120 -66.2119 -66.2115 -66.2115
   -30.6326 -30.6326 -30.6280 -30.6280 -30.5722 -30.5722 -30.5629 -30.5629
   -30.5448 -30.5448 -30.5368 -30.5368 -30.5099 -30.5099 -30.5092 -30.5091
   -30.5070 -30.5070 -30.5060 -30.5060 -30.4637 -30.4637 -30.4592 -30.4592
   -20.3662 -20.3662 -20.3661 -20.3661 -20.3654 -20.3654 -20.3653 -20.3653
   -20.3598 -20.3598 -20.3594 -20.3594 -20.3558 -20.3557 -20.3552 -20.3552
   -20.3532 -20.3532 -20.3525 -20.3525 -20.3524 -20.3524 -20.3522 -20.3521
   -20.3508 -20.3508 -20.3504 -20.3504 -20.3493 -20.3493 -20.3487 -20.3487
   -20.3410 -20.3410 -20.3408 -20.3408 -20.3397 -20.3397 -20.3394 -20.3394
   -20.3154 -20.3153 -20.3153 -20.3153 -20.3140 -20.3140 -20.3140 -20.3139
   -20.3134 -20.3134 -20.3134 -20.3134 -20.3095 -20.3094 -20.3094 -20.3094
    -9.7462  -9.7462  -9.3867  -9.3867  -9.3790  -9.3790  -9.0164  -9.0164
    -8.6711  -8.6710  -8.6463  -8.6463  -8.6248  -8.6248  -8.5906  -8.5905
    -7.9611  -7.9611  -7.9152  -7.9151  -7.8923  -7.8923  -7.8735  -7.8735
     1.2495   1.2495   1.3354   1.3354   1.4884   1.4884   1.5840   1.5840
     2.5687   2.5687   2.9412   2.9412   2.9886   2.9886   3.0937   3.0938
     3.1528   3.1528   3.2729   3.2729   3.4399   3.4399   3.6500   3.6500
     3.6669   3.6669   4.2884   4.2884   4.3816   4.3816   4.8053   4.8053
     4.8734   4.8734   4.9028   4.9028   5.0755   5.0756   5.5714   5.5714
     5.5913   5.5913   5.7119   5.7119   5.7712   5.7712   5.9069   5.9069
     6.2061   6.2061   6.3328   6.3328   6.4780   6.4780   6.6385   6.6386
     6.7118   6.7118   6.8125   6.8125   6.8694   6.8694   7.4409   7.4409
     7.4779   7.4779   7.5400   7.5400   7.5748   7.5748   7.9499   7.9499
     9.9476   9.9476  11.1509  11.1509  11.2126  11.2126  11.3919  11.3919
    11.4969  11.4969  12.4787  12.4788  12.5804  12.5804  12.7333  12.7333
    12.8347  12.8347  13.1088  13.1089  13.1617  13.1617  13.7268  13.7269
    14.5190  14.5190  15.1484  15.1484  15.6853  15.6853  15.9282  15.9282
    16.6315  16.6315  17.6532  17.6533  17.7683

          k = 0.1667 0.1611 0.0000 ( 62904 PWs)   bands (ev):

   -66.2131 -66.2127 -66.2123 -66.2123 -66.2119 -66.2118 -66.2115 -66.2111
   -30.6307 -30.6259 -30.6258 -30.6212 -30.5805 -30.5737 -30.5730 -30.5640
   -30.5592 -30.5578 -30.5514 -30.5488 -30.5431 -30.5416 -30.5331 -30.5324
   -30.4671 -30.4658 -30.4656 -30.4650 -30.4637 -30.4618 -30.4569 -30.4549
   -20.3663 -20.3662 -20.3659 -20.3658 -20.3656 -20.3655 -20.3652 -20.3651
   -20.3596 -20.3594 -20.3592 -20.3589 -20.3564 -20.3559 -20.3556 -20.3550
   -20.3540 -20.3537 -20.3536 -20.3533 -20.3524 -20.3515 -20.3513 -20.3511
   -20.3511 -20.3508 -20.3505 -20.3500 -20.3496 -20.3490 -20.3489 -20.3487
   -20.3413 -20.3410 -20.3408 -20.3406 -20.3400 -20.3397 -20.3395 -20.3392
   -20.3177 -20.3177 -20.3163 -20.3163 -20.3146 -20.3146 -20.3136 -20.3136
   -20.3117 -20.3117 -20.3111 -20.3110 -20.3102 -20.3101 -20.3087 -20.3087
    -9.9780  -9.7047  -9.6372  -9.5619  -9.3858  -9.2711  -9.2129  -9.0979
    -9.0743  -8.9974  -8.9965  -8.9588  -8.0746  -8.0225  -8.0125  -7.9757
    -7.9717  -7.9486  -7.8894  -7.8638  -7.8566  -7.8284  -7.7727  -7.7465
     1.1495   1.1499   1.1610   1.1756   1.3901   1.4147   1.4645   1.5842
     1.6304   1.6526   1.7079   1.9027   2.4469   2.5308   2.5315   2.5944
     2.6503   2.7185   3.9125   3.9772   4.0409   4.1067   4.2577   4.3207
     4.4233   4.4929   4.6393   4.6777   4.7299   4.7750   4.8058   5.1301
     5.1302   5.1816   5.2425   5.3183   5.3728   5.4617   5.5108   5.6189
     5.6361   5.6693   5.7547   5.8106   5.8596   5.9370   6.0024   6.0438
     6.1330   6.3210   6.3366   6.3396   6.5843   6.6299   6.6390   6.7032
     6.7224   6.7857   6.8131   6.8505   6.8632   6.8787   6.9804   6.9856
     6.9952   7.0083   7.8439   7.8469   7.8725   7.9023   7.9602   7.9785
     9.5733   9.5757   9.8931   9.9089  10.1567  10.1594  12.0606  12.2337
    12.2433  12.2631  12.2854  12.3470  12.3943  12.4515  12.6413  12.8533
    12.9539  13.1137  13.2253  13.2290  13.6768  13.6866  13.8896  13.9020
    14.4434  14.5925  14.8105  14.9507  15.1712  15.1901  15.7904  15.8908
    16.2088  16.6203  16.7783  17.2604  17.2873

          k = 0.1667 0.1611 0.1664 ( 62907 PWs)   bands (ev):

   -66.2130 -66.2126 -66.2123 -66.2123 -66.2119 -66.2118 -66.2116 -66.2111
   -30.6303 -30.6262 -30.6255 -30.6215 -30.5794 -30.5733 -30.5721 -30.5644
   -30.5547 -30.5532 -30.5457 -30.5442 -30.5419 -30.5411 -30.5335 -30.5311
   -30.4722 -30.4708 -30.4704 -30.4689 -30.4653 -30.4616 -30.4596 -30.4564
   -20.3663 -20.3662 -20.3659 -20.3658 -20.3656 -20.3655 -20.3652 -20.3652
   -20.3596 -20.3594 -20.3592 -20.3590 -20.3563 -20.3559 -20.3557 -20.3550
   -20.3539 -20.3535 -20.3534 -20.3532 -20.3525 -20.3515 -20.3514 -20.3513
   -20.3512 -20.3508 -20.3504 -20.3501 -20.3496 -20.3490 -20.3489 -20.3487
   -20.3412 -20.3410 -20.3408 -20.3406 -20.3399 -20.3396 -20.3395 -20.3393
   -20.3174 -20.3174 -20.3160 -20.3160 -20.3145 -20.3145 -20.3138 -20.3137
   -20.3121 -20.3121 -20.3114 -20.3114 -20.3101 -20.3101 -20.3088 -20.3088
    -9.9306  -9.6464  -9.5763  -9.5756  -9.2972  -9.2824  -9.2211  -9.0576
    -9.0400  -8.9907  -8.9668  -8.9621  -8.0790  -8.0262  -8.0192  -7.9844
    -7.9831  -7.9689  -7.9469  -7.9430  -7.9149  -7.8854  -7.8758  -7.8514
     1.3340   1.3422   1.3777   1.3918   1.4246   1.4396   1.4692   1.5830
     1.6829   1.7066   1.7234   1.9600   2.5336   2.5970   2.6161   2.6246
     2.7093   2.7396   3.9280   3.9559   4.0542   4.0842   4.2982   4.3257
     4.3678   4.3904   4.4371   4.4764   4.4931   4.5761   4.7970   5.0124
     5.0782   5.1312   5.1871   5.2271   5.2612   5.3698   5.3735   5.5101
     5.6192   5.6377   5.7331   5.7613   5.7680   5.8423   6.1207   6.2223
     6.2291   6.3088   6.4261   6.5084   6.5585   6.5767   6.6016   6.6273
     6.6593   6.7261   6.7539   6.7798   6.8325   6.8376   6.8641   6.9312
     7.0749   7.1024   7.8257   7.8311   7.8688   7.9005   7.9220   7.9356
     9.8062   9.8245  10.1012  10.1348  10.1664  10.2219  12.1208  12.1984
    12.2723  12.2866  12.2943  12.3016  12.3807  12.4059  12.6588  12.7762
    12.8666  12.9191  13.2281  13.2608  13.6621  13.6861  13.7440  13.7902
    14.5405  14.7672  14.8129  15.0558  15.2848  15.2904  15.8488  16.1417
    16.1797  16.7441  16.9164  16.9401  17.3367

          k = 0.1667 0.1611 0.3328 ( 62888 PWs)   bands (ev):

   -66.2129 -66.2125 -66.2124 -66.2121 -66.2120 -66.2117 -66.2117 -66.2113
   -30.6295 -30.6271 -30.6247 -30.6224 -30.5774 -30.5743 -30.5694 -30.5654
   -30.5469 -30.5444 -30.5428 -30.5351 -30.5309 -30.5303 -30.5282 -30.5247
   -30.4885 -30.4868 -30.4860 -30.4840 -30.4646 -30.4620 -30.4608 -30.4582
   -20.3662 -20.3661 -20.3660 -20.3659 -20.3655 -20.3654 -20.3653 -20.3652
   -20.3596 -20.3595 -20.3592 -20.3590 -20.3562 -20.3558 -20.3557 -20.3552
   -20.3535 -20.3531 -20.3531 -20.3528 -20.3527 -20.3519 -20.3519 -20.3518
   -20.3511 -20.3507 -20.3504 -20.3504 -20.3495 -20.3492 -20.3488 -20.3487
   -20.3411 -20.3409 -20.3409 -20.3407 -20.3398 -20.3396 -20.3395 -20.3393
   -20.3165 -20.3165 -20.3151 -20.3151 -20.3144 -20.3144 -20.3140 -20.3140
   -20.3130 -20.3129 -20.3123 -20.3123 -20.3098 -20.3098 -20.3091 -20.3091
    -9.8174  -9.6202  -9.5110  -9.4344  -9.3184  -9.2494  -9.0449  -8.9985
    -8.9711  -8.9117  -8.8948  -8.8503  -8.2903  -8.2858  -8.2562  -8.2275
    -8.0438  -8.0258  -7.9972  -7.9725  -7.9513  -7.9255  -7.9042  -7.8802
     1.3916   1.4006   1.4759   1.4794   1.5514   1.5684   1.6473   1.7046
     2.1479   2.2104   2.2829   2.3884   2.6194   2.6860   2.7923   2.8571
     2.8875   2.9690   3.6770   3.7819   3.8119   3.8438   3.9938   4.0583
     4.1187   4.2370   4.3218   4.4027   4.4260   4.5546   4.5886   4.6881
     4.7027   4.7775   4.8081   5.0029   5.0134   5.1202   5.2405   5.4228
     5.5274   5.5667   5.6547   5.7172   5.7855   5.7907   5.9365   5.9853
     6.2251   6.3716   6.4329   6.5052   6.5522   6.5761   6.5871   6.6406
     6.6831   6.7630   6.8045   6.8456   6.9326   6.9926   7.0571   7.0675
     7.1430   7.1956   7.7181   7.7279   7.7718   7.7989   7.8908   7.8983
    10.1161  10.1343  10.4290  10.4837  10.7377  10.7956  11.8339  11.8745
    12.0538  12.2700  12.3053  12.3925  12.4325  12.4453  12.5413  12.6198
    12.6794  12.9021  13.0575  13.1419  13.3823  13.4178  13.6781  13.6936
    14.7016  14.7981  15.1837  15.3461  15.6091  15.7485  15.8192  16.0925
    16.3518  17.0535  17.1212  17.3011  17.4115

          k = 0.1667 0.1611-0.4992 ( 62876 PWs)   bands (ev):

   -66.2127 -66.2127 -66.2123 -66.2122 -66.2119 -66.2119 -66.2115 -66.2115
   -30.6283 -30.6283 -30.6236 -30.6236 -30.5757 -30.5757 -30.5671 -30.5671
   -30.5445 -30.5445 -30.5377 -30.5377 -30.5100 -30.5100 -30.5093 -30.5093
   -30.5071 -30.5071 -30.5062 -30.5062 -30.4635 -30.4634 -30.4596 -30.4596
   -20.3661 -20.3661 -20.3660 -20.3660 -20.3654 -20.3654 -20.3653 -20.3653
   -20.3595 -20.3595 -20.3591 -20.3591 -20.3560 -20.3560 -20.3555 -20.3554
   -20.3531 -20.3531 -20.3525 -20.3525 -20.3524 -20.3524 -20.3523 -20.3523
   -20.3508 -20.3508 -20.3505 -20.3505 -20.3493 -20.3493 -20.3487 -20.3487
   -20.3410 -20.3410 -20.3408 -20.3408 -20.3397 -20.3397 -20.3394 -20.3394
   -20.3154 -20.3153 -20.3153 -20.3153 -20.3140 -20.3140 -20.3140 -20.3139
   -20.3134 -20.3134 -20.3134 -20.3134 -20.3095 -20.3094 -20.3094 -20.3094
    -9.7012  -9.7012  -9.3895  -9.3895  -9.3126  -9.3126  -8.9833  -8.9833
    -8.6784  -8.6784  -8.6483  -8.6483  -8.6235  -8.6235  -8.5852  -8.5851
    -8.0370  -8.0370  -7.9873  -7.9872  -7.9287  -7.9287  -7.9025  -7.9025
     1.3961   1.3961   1.4865   1.4865   1.5661   1.5661   1.6974   1.6974
     2.6409   2.6410   2.9585   2.9586   3.0180   3.0180   3.0950   3.0951
     3.1549   3.1549   3.2890   3.2890   3.4325   3.4325   3.6722   3.6722
     3.7158   3.7158   4.1608   4.1608   4.3136   4.3136   4.6018   4.6019
     4.7702   4.7702   4.8639   4.8639   4.9260   4.9260   5.3525   5.3525
     5.5547   5.5547   5.6019   5.6019   5.7457   5.7457   5.8210   5.8210
     6.3401   6.3401   6.4966   6.4966   6.5130   6.5130   6.6022   6.6022
     6.7652   6.7652   6.8044   6.8044   6.9105   6.9105   7.4400   7.4400
     7.4729   7.4729   7.5189   7.5189   7.5508   7.5508   7.8958   7.8958
    10.1355  10.1355  11.1592  11.1592  11.2144  11.2144  11.4628  11.4629
    11.5577  11.5577  12.4071  12.4071  12.5029  12.5029  12.7088  12.7088
    12.8180  12.8180  12.9872  12.9873  13.0802  13.0802  13.6764  13.6764
    14.7705  14.7706  15.5320  15.5320  15.8007  15.8007  15.9094  15.9094
    16.6783  16.6783  17.5137  17.5137  17.7165

          k = 0.1667 0.3222 0.0000 ( 62955 PWs)   bands (ev):

   -66.2130 -66.2127 -66.2123 -66.2122 -66.2120 -66.2119 -66.2114 -66.2112
   -30.6191 -30.6142 -30.6139 -30.6091 -30.5896 -30.5834 -30.5829 -30.5761
   -30.5592 -30.5583 -30.5517 -30.5510 -30.5418 -30.5404 -30.5358 -30.5357
   -30.4666 -30.4659 -30.4653 -30.4645 -30.4641 -30.4626 -30.4567 -30.4556
   -20.3661 -20.3660 -20.3657 -20.3656 -20.3656 -20.3656 -20.3653 -20.3652
   -20.3589 -20.3586 -20.3585 -20.3581 -20.3569 -20.3564 -20.3564 -20.3558
   -20.3540 -20.3538 -20.3538 -20.3537 -20.3522 -20.3516 -20.3512 -20.3512
   -20.3512 -20.3510 -20.3506 -20.3502 -20.3495 -20.3491 -20.3490 -20.3488
   -20.3412 -20.3411 -20.3407 -20.3406 -20.3399 -20.3397 -20.3394 -20.3393
   -20.3177 -20.3177 -20.3163 -20.3163 -20.3146 -20.3146 -20.3136 -20.3136
   -20.3117 -20.3117 -20.3111 -20.3110 -20.3102 -20.3101 -20.3087 -20.3087
    -9.8946  -9.7415  -9.5445  -9.4523  -9.4109  -9.2981  -9.0903  -9.0782
    -8.9891  -8.8611  -8.8551  -8.8393  -8.3303  -8.2898  -8.2845  -8.2663
    -7.9767  -7.9594  -7.8880  -7.8718  -7.8510  -7.8348  -7.7675  -7.7528
     1.1512   1.1536   1.1750   1.1767   1.4533   1.4646   1.5951   1.6408
     2.1886   2.2944   2.3217   2.4512   2.4669   2.5136   2.7708   2.8198
     2.8835   2.9318   3.5137   3.5468   3.6264   3.6722   4.0100   4.2629
     4.2887   4.3548   4.3941   4.5813   4.5835   4.6446   4.7163   4.7246
     4.8612   4.9028   5.0347   5.1690   5.2173   5.3339   5.4416   5.5378
     5.6096   5.6494   5.7309   5.8095   5.9664   5.9871   6.0092   6.0345
     6.0878   6.2607   6.3243   6.4079   6.4707   6.6695   6.6818   6.7682
     6.8201   6.8505   6.9147   6.9415   6.9453   6.9564   7.0226   7.0349
     7.0552   7.0726   7.6916   7.7105   7.7476   7.7625   7.8642   7.8679
     9.5808   9.5821  10.4084  10.4535  10.6318  10.6538  11.6780  11.7995
    11.8570  11.9250  12.2569  12.2615  12.4024  12.4194  12.7613  12.8893
    13.0489  13.1803  13.2256  13.2258  13.4831  13.5094  13.6394  13.6485
    14.9445  15.1172  15.1443  15.1974  15.3932  15.5725  15.7067  16.0597
    16.0937  16.8922  17.1401  17.2515  17.7342

          k = 0.1667 0.3222 0.1664 ( 62916 PWs)   bands (ev):

   -66.2129 -66.2127 -66.2122 -66.2122 -66.2120 -66.2119 -66.2115 -66.2112
   -30.6187 -30.6145 -30.6136 -30.6094 -30.5889 -30.5836 -30.5822 -30.5764
   -30.5545 -30.5536 -30.5460 -30.5457 -30.5408 -30.5400 -30.5360 -30.5344
   -30.4719 -30.4708 -30.4704 -30.4693 -30.4646 -30.4624 -30.4590 -30.4572
   -20.3660 -20.3660 -20.3657 -20.3657 -20.3656 -20.3656 -20.3653 -20.3653
   -20.3589 -20.3586 -20.3585 -20.3582 -20.3569 -20.3564 -20.3564 -20.3558
   -20.3538 -20.3536 -20.3536 -20.3535 -20.3522 -20.3516 -20.3514 -20.3514
   -20.3512 -20.3510 -20.3506 -20.3503 -20.3495 -20.3491 -20.3490 -20.3488
   -20.3412 -20.3411 -20.3408 -20.3407 -20.3399 -20.3397 -20.3395 -20.3393
   -20.3174 -20.3174 -20.3160 -20.3160 -20.3145 -20.3145 -20.3138 -20.3138
   -20.3121 -20.3121 -20.3114 -20.3114 -20.3101 -20.3101 -20.3088 -20.3088
    -9.8429  -9.6838  -9.4708  -9.4663  -9.3231  -9.3101  -9.0537  -9.0438
    -8.9973  -8.8491  -8.8443  -8.8424  -8.3323  -8.2919  -8.2862  -8.2717
    -7.9801  -7.9766  -7.9543  -7.9517  -7.9134  -7.8974  -7.8725  -7.8577
     1.3364   1.3405   1.4315   1.4391   1.4577   1.4689   1.6587   1.7186
     2.1916   2.2933   2.3144   2.4482   2.5549   2.6057   2.8276   2.8603
     2.9262   2.9681   3.5498   3.5876   3.6298   3.6744   3.9985   4.2899
     4.3150   4.3252   4.3463   4.3867   4.4343   4.5633   4.6063   4.6632
     4.6886   4.7230   4.9509   4.9922   5.2189   5.2237   5.2505   5.3003
     5.5817   5.5899   5.6269   5.6357   5.7459   5.7495   6.1748   6.2056
     6.2578   6.3429   6.4146   6.5094   6.5866   6.6213   6.6513   6.6818
     6.7709   6.7898   6.8785   6.8881   6.9641   6.9834   7.0099   7.0294
     7.1099   7.1210   7.6912   7.7013   7.7194   7.7385   7.8401   7.8476
     9.8294   9.8326  10.5694  10.5986  10.6566  10.6763  11.7590  11.8406
    11.8961  11.9231  12.2815  12.2998  12.3051  12.3228  12.7832  12.8772
    12.9185  12.9775  13.2071  13.2298  13.4222  13.4747  13.5172  13.5767
    15.1081  15.2513  15.2855  15.3675  15.4017  15.6325  16.0389  16.0696
    16.1858  16.8600  17.2088  17.2783  17.3254

          k = 0.1667 0.3222 0.3328 ( 62896 PWs)   bands (ev):

   -66.2128 -66.2125 -66.2124 -66.2121 -66.2120 -66.2118 -66.2116 -66.2114
   -30.6178 -30.6154 -30.6127 -30.6103 -30.5874 -30.5845 -30.5806 -30.5774
   -30.5463 -30.5448 -30.5418 -30.5376 -30.5310 -30.5308 -30.5284 -30.5268
   -30.4882 -30.4873 -30.4857 -30.4845 -30.4639 -30.4617 -30.4613 -30.4591
   -20.3660 -20.3659 -20.3658 -20.3657 -20.3656 -20.3655 -20.3654 -20.3653
   -20.3589 -20.3587 -20.3584 -20.3582 -20.3568 -20.3565 -20.3563 -20.3560
   -20.3534 -20.3532 -20.3531 -20.3531 -20.3525 -20.3520 -20.3519 -20.3518
   -20.3511 -20.3509 -20.3506 -20.3505 -20.3494 -20.3491 -20.3490 -20.3488
   -20.3411 -20.3410 -20.3408 -20.3407 -20.3398 -20.3396 -20.3395 -20.3394
   -20.3165 -20.3165 -20.3151 -20.3151 -20.3144 -20.3144 -20.3140 -20.3140
   -20.3130 -20.3129 -20.3123 -20.3123 -20.3098 -20.3098 -20.3091 -20.3091
    -9.7194  -9.5487  -9.5111  -9.3484  -9.2847  -9.0742  -9.0283  -8.9453
    -8.9167  -8.8528  -8.8125  -8.7718  -8.3901  -8.3539  -8.2883  -8.2802
    -8.2752  -8.2206  -8.2141  -8.1574  -7.9510  -7.9343  -7.9035  -7.8875
     1.4634   1.4712   1.4777   1.4813   2.0401   2.1004   2.1454   2.2034
     2.2798   2.3128   2.3623   2.5443   2.8098   2.8348   2.8723   2.9230
     3.0955   3.1812   3.5749   3.6019   3.6210   3.7093   3.7826   3.8429
     3.9825   4.1008   4.1814   4.2446   4.2876   4.4197   4.4400   4.5538
     4.5568   4.6425   4.6613   4.7137   4.7612   4.8184   4.9446   5.0826
     5.1900   5.2194   5.2706   5.5287   5.6560   5.7524   5.9692   5.9860
     6.4060   6.4602   6.5155   6.6110   6.6406   6.6748   6.8098   6.8208
     6.8629   6.9015   6.9240   6.9466   7.0011   7.0700   7.0739   7.1145
     7.1717   7.1962   7.6182   7.6274   7.6727   7.7113   7.7345   7.7689
    10.4177  10.4359  10.6380  10.6781  11.0618  11.1101  11.7872  11.8462
    11.8830  11.9729  12.0394  12.1293  12.4080  12.4454  12.4774  12.5042
    12.7754  12.9002  12.9419  13.0965  13.1449  13.2351  13.4640  13.4933
    15.2394  15.3439  15.5854  15.8062  15.9153  15.9689  16.0365  16.6048
    16.6887  16.7469  16.9462  17.4326  17.5417

          k = 0.1667 0.3222-0.4992 ( 62898 PWs)   bands (ev):

   -66.2126 -66.2126 -66.2123 -66.2123 -66.2118 -66.2118 -66.2116 -66.2116
   -30.6166 -30.6166 -30.6115 -30.6115 -30.5859 -30.5859 -30.5789 -30.5789
   -30.5434 -30.5434 -30.5397 -30.5397 -30.5102 -30.5101 -30.5097 -30.5096
   -30.5073 -30.5073 -30.5066 -30.5066 -30.4627 -30.4627 -30.4605 -30.4605
   -20.3659 -20.3659 -20.3658 -20.3658 -20.3655 -20.3655 -20.3654 -20.3654
   -20.3588 -20.3588 -20.3583 -20.3583 -20.3567 -20.3567 -20.3562 -20.3561
   -20.3530 -20.3529 -20.3526 -20.3526 -20.3525 -20.3525 -20.3524 -20.3524
   -20.3509 -20.3509 -20.3507 -20.3507 -20.3492 -20.3492 -20.3489 -20.3489
   -20.3410 -20.3409 -20.3409 -20.3408 -20.3397 -20.3397 -20.3395 -20.3395
   -20.3154 -20.3153 -20.3153 -20.3153 -20.3140 -20.3140 -20.3140 -20.3139
   -20.3134 -20.3134 -20.3134 -20.3134 -20.3095 -20.3094 -20.3094 -20.3094
    -9.5949  -9.5948  -9.4236  -9.4236  -9.1092  -9.1092  -8.8732  -8.8732
    -8.7154  -8.7153  -8.6599  -8.6599  -8.6110  -8.6110  -8.5624  -8.5624
    -8.2838  -8.2838  -8.2493  -8.2493  -7.9275  -7.9275  -7.9111  -7.9111
     1.4748   1.4748   1.4874   1.4874   2.1918   2.1918   2.2978   2.2978
     2.8428   2.8428   3.0067   3.0067   3.0433   3.0434   3.1200   3.1200
     3.1584   3.1584   3.3437   3.3437   3.4014   3.4014   3.6255   3.6255
     3.8704   3.8704   3.9205   3.9205   3.9480   3.9480   4.2052   4.2053
     4.5899   4.5899   4.7127   4.7127   4.8366   4.8366   4.8558   4.8558
     4.9785   4.9785   5.3707   5.3707   5.7386   5.7386   5.7931   5.7931
     6.5160   6.5161   6.6218   6.6218   6.6796   6.6796   6.7121   6.7121
     6.9145   6.9145   6.9557   6.9557   7.0616   7.0616   7.4049   7.4049
     7.4343   7.4343   7.4593   7.4593   7.5048   7.5048   7.7216   7.7216
    10.6226  10.6226  11.1724  11.1724  11.2203  11.2203  11.6499  11.6499
    11.7600  11.7600  12.0021  12.0021  12.4345  12.4345  12.5005  12.5005
    12.7347  12.7347  12.8034  12.8034  13.0476  13.0476  13.4579  13.4579
    15.3091  15.3091  15.8256  15.8256  16.1957  16.1957  16.4830  16.4830
    16.8712  16.8712  17.1325  17.1325  17.7136

          k = 0.1667-0.4833 0.0000 ( 62932 PWs)   bands (ev):

   -66.2129 -66.2129 -66.2121 -66.2121 -66.2120 -66.2120 -66.2113 -66.2113
   -30.6038 -30.6038 -30.5984 -30.5984 -30.5980 -30.5980 -30.5926 -30.5926
   -30.5589 -30.5588 -30.5518 -30.5518 -30.5397 -30.5397 -30.5380 -30.5380
   -30.4661 -30.4661 -30.4647 -30.4647 -30.4636 -30.4636 -30.4563 -30.4563
   -20.3658 -20.3658 -20.3658 -20.3658 -20.3654 -20.3654 -20.3654 -20.3654
   -20.3579 -20.3579 -20.3575 -20.3575 -20.3574 -20.3574 -20.3570 -20.3570
   -20.3539 -20.3539 -20.3538 -20.3538 -20.3518 -20.3518 -20.3513 -20.3513
   -20.3512 -20.3511 -20.3504 -20.3504 -20.3493 -20.3493 -20.3490 -20.3490
   -20.3412 -20.3412 -20.3407 -20.3407 -20.3398 -20.3398 -20.3394 -20.3394
   -20.3177 -20.3177 -20.3163 -20.3163 -20.3146 -20.3146 -20.3136 -20.3136
   -20.3117 -20.3117 -20.3110 -20.3110 -20.3102 -20.3102 -20.3087 -20.3087
    -9.8063  -9.8063  -9.4612  -9.4612  -9.3544  -9.3544  -9.0838  -9.0838
    -8.6656  -8.6656  -8.6124  -8.6124  -8.6005  -8.6005  -8.5972  -8.5972
    -7.9687  -7.9687  -7.8804  -7.8804  -7.8430  -7.8430  -7.7603  -7.7603
     1.1527   1.1527   1.1773   1.1773   1.4631   1.4631   1.6320   1.6320
     2.4893   2.4893   2.9614   2.9615   3.0537   3.0537   3.0973   3.0973
     3.1738   3.1738   3.1919   3.1919   3.3921   3.3922   3.4547   3.4547
     3.5649   3.5649   4.3067   4.3067   4.6122   4.6122   4.8594   4.8594
     4.9474   4.9474   5.0337   5.0337   5.1718   5.1718   5.4059   5.4059
     5.6431   5.6431   5.6713   5.6713   6.0026   6.0026   6.0277   6.0277
     6.2429   6.2429   6.2917   6.2917   6.5342   6.5342   6.7300   6.7300
     6.8684   6.8684   6.9670   6.9670   6.9751   6.9751   7.3695   7.3695
     7.3987   7.3988   7.4017   7.4017   7.4262   7.4262   7.8642   7.8642
     9.5835   9.5835  11.0671  11.0671  11.1262  11.1262  11.2570  11.2570
    11.3205  11.3205  12.2624  12.2624  12.4126  12.4126  12.9096  12.9096
    13.1573  13.1573  13.3013  13.3013  13.3695  13.3695  13.4247  13.4247
    15.1481  15.1481  15.4930  15.4930  15.5140  15.5140  15.8420  15.8420
    16.4874  16.4874  17.6695  17.6696  17.7403

          k = 0.1667-0.4833 0.1664 ( 62908 PWs)   bands (ev):

   -66.2128 -66.2128 -66.2121 -66.2121 -66.2121 -66.2121 -66.2114 -66.2114
   -30.6034 -30.6034 -30.5987 -30.5987 -30.5976 -30.5976 -30.5929 -30.5929
   -30.5540 -30.5540 -30.5462 -30.5462 -30.5391 -30.5391 -30.5373 -30.5373
   -30.4714 -30.4713 -30.4699 -30.4698 -30.4635 -30.4635 -30.4582 -30.4582
   -20.3658 -20.3658 -20.3657 -20.3657 -20.3655 -20.3655 -20.3654 -20.3654
   -20.3579 -20.3579 -20.3575 -20.3575 -20.3574 -20.3574 -20.3570 -20.3570
   -20.3537 -20.3537 -20.3536 -20.3536 -20.3519 -20.3519 -20.3514 -20.3514
   -20.3512 -20.3512 -20.3505 -20.3505 -20.3493 -20.3493 -20.3490 -20.3490
   -20.3411 -20.3411 -20.3407 -20.3407 -20.3398 -20.3398 -20.3394 -20.3394
   -20.3174 -20.3174 -20.3160 -20.3160 -20.3145 -20.3145 -20.3138 -20.3138
   -20.3121 -20.3121 -20.3114 -20.3114 -20.3101 -20.3101 -20.3088 -20.3088
    -9.7506  -9.7506  -9.3773  -9.3771  -9.3675  -9.3675  -9.0487  -9.0486
    -8.6727  -8.6725  -8.6086  -8.6079  -8.6032  -8.6026  -8.5951  -8.5945
    -7.9765  -7.9759  -7.9562  -7.9562  -7.9063  -7.9060  -7.8653  -7.8653
     1.3376   1.3389   1.4382   1.4394   1.4670   1.4678   1.7071   1.7079
     2.5766   2.5774   2.9759   2.9777   3.0456   3.0619   3.1004   3.1117
     3.1669   3.1771   3.2235   3.2495   3.4211   3.4355   3.4587   3.4653
     3.5874   3.5914   4.3214   4.3506   4.3510   4.3854   4.7449   4.7754
     4.8322   4.8466   4.9132   4.9479   4.9527   4.9847   5.3372   5.3457
     5.3909   5.3927   5.6355   5.6625   5.6707   5.6870   6.2110   6.2113
[...]
    11.3801  11.3801  11.3801  11.3801  11.4986  11.4986  11.4986  11.4986
    11.9399  11.9399  11.9399  11.9399  12.0402  12.0402  12.0402  12.0402
    12.8625  12.8625  12.8625  12.8625  13.0357  13.0357  13.0357  13.0357
    15.3277  15.3277  15.3277  15.3277  16.6243  16.6243  16.6243  16.6243
    17.5755  17.5755  17.5755  17.5755  17.7703

          k =-0.5000 0.3222 0.0000 ( 62856 PWs)   bands (ev):

   -66.2126 -66.2126 -66.2124 -66.2124 -66.2118 -66.2118 -66.2115 -66.2115
   -30.6164 -30.6164 -30.6115 -30.6115 -30.5857 -30.5857 -30.5789 -30.5789
   -30.5542 -30.5542 -30.5539 -30.5539 -30.5048 -30.5048 -30.5025 -30.5025
   -30.5006 -30.5006 -30.4989 -30.4989 -30.4631 -30.4631 -30.4621 -30.4621
   -20.3660 -20.3660 -20.3656 -20.3656 -20.3656 -20.3656 -20.3653 -20.3653
   -20.3587 -20.3587 -20.3584 -20.3584 -20.3567 -20.3567 -20.3561 -20.3561
   -20.3538 -20.3538 -20.3538 -20.3538 -20.3516 -20.3516 -20.3513 -20.3513
   -20.3503 -20.3503 -20.3501 -20.3501 -20.3497 -20.3497 -20.3497 -20.3497
   -20.3405 -20.3405 -20.3404 -20.3404 -20.3400 -20.3400 -20.3399 -20.3399
   -20.3170 -20.3170 -20.3170 -20.3170 -20.3127 -20.3127 -20.3127 -20.3127
   -20.3118 -20.3118 -20.3118 -20.3118 -20.3106 -20.3106 -20.3106 -20.3106
    -9.6677  -9.6677  -9.5169  -9.5169  -9.0994  -9.0994  -8.8998  -8.8998
    -8.6907  -8.6907  -8.6613  -8.6613  -8.6068  -8.6068  -8.5512  -8.5512
    -8.2809  -8.2809  -8.2450  -8.2450  -7.8100  -7.8100  -7.7947  -7.7947
     1.1905   1.1905   1.1950   1.1950   2.1873   2.1873   2.3018   2.3018
     2.8096   2.8096   2.9598   2.9598   3.0189   3.0189   3.1243   3.1243
     3.1589   3.1589   3.3015   3.3016   3.3525   3.3525   3.5625   3.5625
     3.8339   3.8339   3.8731   3.8731   4.0631   4.0631   4.2444   4.2444
     4.6951   4.6951   4.7482   4.7482   4.9550   4.9550   5.0827   5.0827
     5.2623   5.2623   5.6193   5.6193   6.1230   6.1231   6.1476   6.1476
     6.3186   6.3186   6.3677   6.3677   6.4248   6.4248   6.6222   6.6222
     6.9198   6.9198   6.9555   6.9555   6.9929   6.9929   7.3972   7.3972
     7.4138   7.4138   7.4770   7.4770   7.5088   7.5088   7.7646   7.7646
    10.4296  10.4296  11.0949  11.0949  11.1299  11.1299  11.5344  11.5344
    11.7611  11.7611  11.9682  11.9682  12.5168  12.5168  12.5297  12.5297
    12.8444  12.8444  12.9101  12.9101  13.1743  13.1743  13.6350  13.6350
    15.0505  15.0505  15.4898  15.4898  16.1192  16.1192  16.4813  16.4813
    16.7447  16.7447  17.1059  17.1059  17.8465

          k =-0.5000 0.3222 0.1664 ( 62880 PWs)   bands (ev):

   -66.2126 -66.2126 -66.2123 -66.2123 -66.2119 -66.2119 -66.2116 -66.2116
   -30.6160 -30.6160 -30.6118 -30.6118 -30.5850 -30.5850 -30.5793 -30.5793
   -30.5485 -30.5485 -30.5483 -30.5483 -30.5045 -30.5045 -30.5027 -30.5027
   -30.5005 -30.5005 -30.4994 -30.4994 -30.4689 -30.4689 -30.4680 -30.4680
   -20.3660 -20.3660 -20.3657 -20.3657 -20.3656 -20.3656 -20.3653 -20.3653
   -20.3587 -20.3587 -20.3584 -20.3584 -20.3566 -20.3566 -20.3561 -20.3561
   -20.3537 -20.3537 -20.3536 -20.3536 -20.3517 -20.3517 -20.3515 -20.3515
   -20.3503 -20.3503 -20.3501 -20.3501 -20.3497 -20.3497 -20.3497 -20.3497
   -20.3405 -20.3405 -20.3403 -20.3403 -20.3401 -20.3401 -20.3400 -20.3400
   -20.3167 -20.3167 -20.3167 -20.3167 -20.3128 -20.3128 -20.3128 -20.3128
   -20.3120 -20.3120 -20.3120 -20.3119 -20.3108 -20.3108 -20.3108 -20.3108
    -9.5994  -9.5994  -9.4345  -9.4345  -9.1117  -9.1117  -8.8785  -8.8785
    -8.7061  -8.7061  -8.6530  -8.6529  -8.5992  -8.5992  -8.5547  -8.5547
    -8.2784  -8.2784  -8.2496  -8.2496  -7.9336  -7.9336  -7.9181  -7.9181
     1.4486   1.4486   1.4584   1.4584   2.1910   2.1910   2.2923   2.2923
     2.8858   2.8858   2.9763   2.9763   3.0202   3.0202   3.1363   3.1364
     3.1719   3.1719   3.3724   3.3724   3.4061   3.4061   3.6085   3.6085
     3.8285   3.8285   3.8830   3.8830   4.0589   4.0589   4.2451   4.2451
     4.5664   4.5665   4.6804   4.6804   4.8431   4.8431   4.8563   4.8563
     4.9811   4.9811   5.3695   5.3695   5.7308   5.7308   5.7853   5.7853
     6.5183   6.5183   6.6370   6.6370   6.6900   6.6900   6.7160   6.7160
     6.8992   6.8992   6.9606   6.9606   7.0509   7.0509   7.3935   7.3935
     7.4202   7.4202   7.4857   7.4857   7.5138   7.5138   7.7387   7.7387
    10.5956  10.5956  11.1716  11.1716  11.2179  11.2179  11.5782  11.5782
    11.7738  11.7738  12.0085  12.0085  12.5027  12.5027  12.5150  12.5150
    12.7507  12.7507  12.8417  12.8417  13.0138  13.0138  13.4849  13.4849
    15.3086  15.3086  15.7973  15.7973  16.1905  16.1905  16.4729  16.4729
    16.8002  16.8002  17.1486  17.1486  17.6877

          k =-0.5000 0.3222 0.3328 ( 62862 PWs)   bands (ev):

   -66.2124 -66.2124 -66.2122 -66.2122 -66.2120 -66.2120 -66.2118 -66.2118
   -30.6151 -30.6151 -30.6127 -30.6127 -30.5833 -30.5833 -30.5802 -30.5802
   -30.5333 -30.5333 -30.5324 -30.5324 -30.5040 -30.5040 -30.5038 -30.5038
   -30.5012 -30.5012 -30.4996 -30.4996 -30.4840 -30.4840 -30.4837 -30.4837
   -20.3659 -20.3659 -20.3657 -20.3657 -20.3656 -20.3655 -20.3654 -20.3654
   -20.3586 -20.3586 -20.3585 -20.3585 -20.3566 -20.3566 -20.3563 -20.3563
   -20.3532 -20.3532 -20.3532 -20.3532 -20.3521 -20.3520 -20.3519 -20.3519
   -20.3503 -20.3503 -20.3501 -20.3501 -20.3497 -20.3497 -20.3497 -20.3497
   -20.3404 -20.3404 -20.3403 -20.3403 -20.3401 -20.3401 -20.3400 -20.3400
   -20.3158 -20.3158 -20.3158 -20.3158 -20.3133 -20.3133 -20.3133 -20.3133
   -20.3120 -20.3120 -20.3120 -20.3120 -20.3112 -20.3112 -20.3112 -20.3112
    -9.4276  -9.4276  -9.2086  -9.2086  -9.1547  -9.1547  -8.8003  -8.8003
    -8.7594  -8.7594  -8.6256  -8.6256  -8.5801  -8.5801  -8.5620  -8.5620
    -8.2953  -8.2953  -8.2644  -8.2644  -8.2316  -8.2316  -8.1853  -8.1853
     2.0580   2.0580   2.1602   2.1602   2.2026   2.2026   2.3486   2.3486
     2.9764   2.9764   3.0165   3.0165   3.0834   3.0834   3.1510   3.1510
     3.2167   3.2167   3.5517   3.5517   3.5971   3.5971   3.6998   3.6998
     3.8058   3.8059   3.9201   3.9201   4.0441   4.0441   4.0697   4.0697
     4.1963   4.1963   4.3648   4.3648   4.4599   4.4599   4.6931   4.6931
     4.7850   4.7850   4.8823   4.8823   4.9088   4.9088   5.1985   5.1985
     6.7417   6.7417   6.8027   6.8027   6.8692   6.8692   6.9071   6.9071
     7.0283   7.0283   7.1270   7.1270   7.2263   7.2263   7.3773   7.3773
     7.4216   7.4216   7.4972   7.4973   7.5099   7.5099   7.6630   7.6630
    11.0448  11.0448  11.4030  11.4030  11.4891  11.4891  11.6532  11.6532
    11.8287  11.8287  12.1671  12.1671  12.2652  12.2652  12.3630  12.3630
    12.5613  12.5613  12.6481  12.6481  12.6665  12.6665  13.0977  13.0977
    15.9145  15.9145  16.3750  16.3750  16.4289  16.4289  16.6468  16.6468
    17.0222  17.0222  17.2260  17.2260  17.4032

          k =-0.5000 0.3222-0.4992 ( 62868 PWs)   bands (ev):

   -66.2122 -66.2122 -66.2122 -66.2122 -66.2120 -66.2120 -66.2120 -66.2119
   -30.6139 -30.6139 -30.6139 -30.6139 -30.5817 -30.5817 -30.5817 -30.5816
   -30.5140 -30.5140 -30.5140 -30.5140 -30.5118 -30.5118 -30.5118 -30.5117
   -30.4994 -30.4994 -30.4994 -30.4994 -30.4961 -30.4961 -30.4961 -30.4961
   -20.3659 -20.3658 -20.3658 -20.3658 -20.3655 -20.3655 -20.3654 -20.3654
   -20.3586 -20.3586 -20.3586 -20.3585 -20.3564 -20.3564 -20.3564 -20.3564
   -20.3528 -20.3528 -20.3528 -20.3527 -20.3524 -20.3524 -20.3524 -20.3524
   -20.3502 -20.3502 -20.3502 -20.3501 -20.3497 -20.3497 -20.3497 -20.3497
   -20.3403 -20.3403 -20.3403 -20.3403 -20.3401 -20.3401 -20.3401 -20.3401
   -20.3146 -20.3146 -20.3146 -20.3146 -20.3145 -20.3145 -20.3145 -20.3145
   -20.3117 -20.3117 -20.3117 -20.3117 -20.3116 -20.3116 -20.3116 -20.3115
    -9.2537  -9.2537  -9.2537  -9.2537  -8.9274  -8.9274  -8.9274  -8.9274
    -8.6424  -8.6424  -8.6424  -8.6424  -8.5167  -8.5166  -8.5166  -8.5166
    -8.4981  -8.4981  -8.4981  -8.4981  -8.2522  -8.2522  -8.2522  -8.2522
     2.1985   2.1985   2.1985   2.1985   2.9154   2.9154   2.9154   2.9154
     3.0061   3.0061   3.0061   3.0061   3.1173   3.1174   3.1174   3.1174
     3.2364   3.2364   3.2364   3.2365   3.7471   3.7471   3.7471   3.7471
     3.8510   3.8510   3.8510   3.8510   3.9448   3.9448   3.9448   3.9448
     4.1632   4.1632   4.1632   4.1632   4.2465   4.2465   4.2465   4.2465
     4.5637   4.5637   4.5637   4.5637   4.9183   4.9183   4.9183   4.9183
     6.8143   6.8143   6.8143   6.8143   6.9001   6.9001   6.9001   6.9001
     7.2709   7.2709   7.2709   7.2709   7.3344   7.3344   7.3344   7.3344
     7.4361   7.4361   7.4361   7.4361   7.5611   7.5611   7.5611   7.5611
    11.5847  11.5847  11.5847  11.5847  11.6773  11.6773  11.6773  11.6773
    11.9528  11.9528  11.9528  11.9528  12.0842  12.0843  12.0843  12.0843
    12.5129  12.5129  12.5130  12.5130  12.6987  12.6987  12.6987  12.6987
    16.2800  16.2800  16.2800  16.2800  16.8008  16.8008  16.8008  16.8008
    17.3488  17.3488  17.3488  17.3488  17.7707

          k =-0.5000-0.4833 0.0000 ( 62844 PWs)   bands (ev):

   -66.2125 -66.2125 -66.2125 -66.2125 -66.2117 -66.2117 -66.2117 -66.2117
   -30.6008 -30.6008 -30.6004 -30.6004 -30.5954 -30.5954 -30.5949 -30.5949
   -30.5545 -30.5545 -30.5544 -30.5544 -30.5038 -30.5038 -30.5032 -30.5032
   -30.5004 -30.5004 -30.4998 -30.4998 -30.4626 -30.4626 -30.4626 -30.4626
   -20.3658 -20.3658 -20.3658 -20.3658 -20.3654 -20.3654 -20.3654 -20.3654
   -20.3577 -20.3577 -20.3576 -20.3576 -20.3573 -20.3573 -20.3572 -20.3572
   -20.3539 -20.3539 -20.3538 -20.3538 -20.3514 -20.3514 -20.3514 -20.3514
   -20.3503 -20.3503 -20.3502 -20.3502 -20.3498 -20.3498 -20.3498 -20.3498
   -20.3405 -20.3405 -20.3405 -20.3405 -20.3400 -20.3400 -20.3400 -20.3400
   -20.3170 -20.3170 -20.3170 -20.3170 -20.3127 -20.3127 -20.3127 -20.3127
   -20.3118 -20.3118 -20.3118 -20.3118 -20.3106 -20.3106 -20.3106 -20.3106
    -9.5785  -9.5785  -9.5746  -9.5746  -8.8483  -8.8483  -8.8312  -8.8312
    -8.7358  -8.7358  -8.7216  -8.7216  -8.5415  -8.5415  -8.5118  -8.5118
    -8.4868  -8.4868  -8.4590  -8.4590  -7.8025  -7.8025  -7.8024  -7.8024
     1.1925   1.1925   1.1963   1.1963   2.8483   2.8483   2.9423   2.9423
     2.9817   2.9817   3.0011   3.0011   3.0932   3.0932   3.1233   3.1233
     3.1982   3.1982   3.2532   3.2532   3.3126   3.3126   3.3619   3.3619
     3.3891   3.3891   3.6458   3.6458   4.1000   4.1000   4.1790   4.1790
     4.1836   4.1836   4.2786   4.2787   5.0033   5.0033   5.0400   5.0401
     5.3499   5.3499   5.4057   5.4057   6.1444   6.1444   6.1499   6.1499
     6.3997   6.3997   6.4141   6.4141   6.4487   6.4487   6.4911   6.4911
     7.1617   7.1617   7.1706   7.1706   7.2126   7.2126   7.3169   7.3169
     7.3415   7.3415   7.4156   7.4156   7.5263   7.5263   7.5264   7.5264
    11.0366  11.0367  11.0696  11.0696  11.1401  11.1401  11.1763  11.1763
    12.0514  12.0514  12.0925  12.0925  12.1787  12.1787  12.1871  12.1871
    12.8593  12.8593  12.8692  12.8692  13.3434  13.3434  13.3789  13.3789
    15.3447  15.3447  15.3492  15.3492  16.6025  16.6025  16.6698  16.6698
    17.3383  17.3383  17.3817  17.3818  17.4761

          k =-0.5000-0.4833 0.1664 ( 62924 PWs)   bands (ev):

   -66.2124 -66.2124 -66.2124 -66.2124 -66.2117 -66.2117 -66.2117 -66.2117
   -30.6004 -30.6004 -30.5999 -30.5999 -30.5957 -30.5957 -30.5952 -30.5952
   -30.5487 -30.5487 -30.5486 -30.5486 -30.5035 -30.5035 -30.5029 -30.5029
   -30.5008 -30.5008 -30.5002 -30.5002 -30.4686 -30.4686 -30.4685 -30.4685
   -20.3658 -20.3658 -20.3658 -20.3658 -20.3654 -20.3654 -20.3654 -20.3654
   -20.3577 -20.3577 -20.3576 -20.3576 -20.3573 -20.3573 -20.3572 -20.3572
   -20.3537 -20.3537 -20.3537 -20.3537 -20.3516 -20.3516 -20.3516 -20.3515
   -20.3503 -20.3502 -20.3502 -20.3502 -20.3498 -20.3498 -20.3498 -20.3498
   -20.3404 -20.3404 -20.3404 -20.3404 -20.3400 -20.3400 -20.3400 -20.3400
   -20.3167 -20.3167 -20.3167 -20.3167 -20.3128 -20.3128 -20.3128 -20.3128
   -20.3120 -20.3120 -20.3120 -20.3119 -20.3108 -20.3108 -20.3108 -20.3108
    -9.5010  -9.5010  -9.4965  -9.4965  -8.8635  -8.8635  -8.8463  -8.8463
    -8.7215  -8.7214  -8.7066  -8.7066  -8.5389  -8.5388  -8.5109  -8.5109
    -8.4875  -8.4875  -8.4616  -8.4616  -7.9262  -7.9262  -7.9261  -7.9261
     1.4548   1.4548   1.4595   1.4595   2.8579   2.8580   2.9546   2.9546
     2.9740   2.9740   3.0084   3.0084   3.0999   3.0999   3.1206   3.1207
     3.2347   3.2347   3.3069   3.3069   3.3743   3.3743   3.4105   3.4105
     3.4353   3.4353   3.6733   3.6733   4.1053   4.1053   4.1645   4.1645
     4.1890   4.1890   4.2699   4.2699   4.7188   4.7188   4.8309   4.8309
     5.0354   5.0354   5.1416   5.1416   5.7358   5.7358   5.7529   5.7529
     6.5923   6.5923   6.6538   6.6538   6.6988   6.6988   6.7389   6.7389
     7.1474   7.1474   7.1739   7.1739   7.2433   7.2433   7.3046   7.3046
     7.3359   7.3359   7.4190   7.4190   7.5104   7.5104   7.5442   7.5442
    11.1158  11.1158  11.1755  11.1755  11.2206  11.2206  11.3056  11.3056
    12.0581  12.0581  12.0930  12.0930  12.1791  12.1791  12.1900  12.1900
    12.7339  12.7339  12.8079  12.8079  13.1697  13.1697  13.2317  13.2317
    15.6420  15.6420  15.6591  15.6591  16.6695  16.6695  16.7314  16.7314
    17.3331  17.3332  17.3887  17.3889  17.4725

          k =-0.5000-0.4833 0.3328 ( 62868 PWs)   bands (ev):

   -66.2123 -66.2123 -66.2123 -66.2123 -66.2119 -66.2119 -66.2119 -66.2119
   -30.5993 -30.5993 -30.5988 -30.5988 -30.5966 -30.5966 -30.5961 -30.5961
   -30.5330 -30.5330 -30.5329 -30.5329 -30.5037 -30.5037 -30.5033 -30.5033
   -30.5013 -30.5013 -30.5006 -30.5006 -30.4841 -30.4841 -30.4839 -30.4839
   -20.3657 -20.3657 -20.3657 -20.3657 -20.3655 -20.3655 -20.3655 -20.3655
   -20.3576 -20.3576 -20.3575 -20.3575 -20.3574 -20.3574 -20.3573 -20.3573
   -20.3532 -20.3532 -20.3532 -20.3532 -20.3520 -20.3520 -20.3520 -20.3520
   -20.3502 -20.3502 -20.3502 -20.3501 -20.3498 -20.3498 -20.3498 -20.3498
   -20.3404 -20.3403 -20.3403 -20.3403 -20.3401 -20.3401 -20.3401 -20.3401
   -20.3158 -20.3158 -20.3158 -20.3158 -20.3133 -20.3133 -20.3133 -20.3133
   -20.3120 -20.3120 -20.3120 -20.3120 -20.3112 -20.3112 -20.3112 -20.3112
    -9.2942  -9.2942  -9.2873  -9.2873  -8.9184  -8.9183  -8.9017  -8.9017
    -8.6674  -8.6674  -8.6530  -8.6530  -8.5319  -8.5319  -8.5120  -8.5120
    -8.4859  -8.4859  -8.4687  -8.4687  -8.2226  -8.2226  -8.2216  -8.2216
     2.1472   2.1472   2.1572   2.1572   2.8801   2.8801   2.9315   2.9315
     2.9952   2.9952   3.0212   3.0212   3.1098   3.1098   3.1280   3.1280
     3.3033   3.3033   3.3415   3.3415   3.4994   3.4994   3.5490   3.5490
     3.6729   3.6729   3.7886   3.7886   4.0982   4.0982   4.1063   4.1063
     4.1538   4.1539   4.2153   4.2153   4.3112   4.3112   4.3871   4.3871
     4.5421   4.5421   4.6485   4.6486   4.9254   4.9255   4.9451   4.9451
     6.8655   6.8655   6.9559   6.9559   7.0287   7.0287   7.0410   7.0410
     7.1400   7.1400   7.2004   7.2004   7.2691   7.2691   7.2754   7.2754
     7.3540   7.3540   7.4355   7.4355   7.4955   7.4955   7.5405   7.5405
    11.3782  11.3782  11.4331  11.4331  11.5379  11.5379  11.6449  11.6449
    12.0529  12.0529  12.1034  12.1034  12.1437  12.1437  12.2119  12.2119
    12.3769  12.3769  12.5232  12.5232  12.7341  12.7341  12.8254  12.8254
    16.4265  16.4265  16.4827  16.4827  16.8735  16.8735  16.9082  16.9083
    17.2665  17.2666  17.3820  17.3820  17.4616

          k =-0.5000-0.4833-0.4992 ( 62880 PWs)   bands (ev):

   -66.2121 -66.2121 -66.2121 -66.2121 -66.2121 -66.2121 -66.2121 -66.2121
   -30.5979 -30.5979 -30.5979 -30.5979 -30.5974 -30.5974 -30.5974 -30.5974
   -30.5138 -30.5138 -30.5138 -30.5138 -30.5119 -30.5119 -30.5119 -30.5119
   -30.4989 -30.4989 -30.4989 -30.4989 -30.4970 -30.4970 -30.4969 -30.4969
   -20.3656 -20.3656 -20.3656 -20.3656 -20.3656 -20.3656 -20.3656 -20.3656
   -20.3575 -20.3575 -20.3575 -20.3575 -20.3574 -20.3574 -20.3574 -20.3574
   -20.3527 -20.3527 -20.3527 -20.3527 -20.3525 -20.3525 -20.3524 -20.3524
   -20.3502 -20.3501 -20.3501 -20.3501 -20.3498 -20.3498 -20.3498 -20.3498
   -20.3403 -20.3403 -20.3402 -20.3402 -20.3402 -20.3402 -20.3402 -20.3402
   -20.3146 -20.3146 -20.3146 -20.3146 -20.3145 -20.3145 -20.3145 -20.3145
   -20.3117 -20.3117 -20.3117 -20.3117 -20.3116 -20.3116 -20.3116 -20.3115
    -9.0574  -9.0573  -9.0573  -9.0573  -9.0439  -9.0439  -9.0439  -9.0439
    -8.5405  -8.5405  -8.5405  -8.5405  -8.5148  -8.5148  -8.5148  -8.5148
    -8.4927  -8.4927  -8.4927  -8.4927  -8.4761  -8.4761  -8.4761  -8.4761
     2.8457   2.8457   2.8457   2.8457   2.9195   2.9195   2.9195   2.9195
     3.0239   3.0239   3.0239   3.0240   3.1171   3.1171   3.1171   3.1171
     3.2467   3.2467   3.2467   3.2467   3.3864   3.3864   3.3864   3.3864
     4.0196   4.0196   4.0196   4.0196   4.0432   4.0432   4.0432   4.0432
     4.1714   4.1714   4.1714   4.1714   4.2155   4.2155   4.2155   4.2155
     4.2925   4.2925   4.2925   4.2925   4.3549   4.3549   4.3550   4.3550
     7.0167   7.0167   7.0167   7.0167   7.1456   7.1456   7.1456   7.1456
     7.2038   7.2038   7.2038   7.2038   7.2446   7.2446   7.2446   7.2446
     7.4448   7.4448   7.4449   7.4449   7.4927   7.4927   7.4927   7.4927
    11.7666  11.7666  11.7666  11.7666  11.7978  11.7978  11.7978  11.7978
    12.0192  12.0192  12.0192  12.0192  12.1537  12.1537  12.1537  12.1537
    12.2878  12.2878  12.2878  12.2878  12.3639  12.3639  12.3639  12.3639
    16.9997  16.9997  16.9997  16.9997  17.0773  17.0773  17.0773  17.0773
    17.4025  17.4025  17.4026  17.4026  17.4351

     the Fermi energy is     9.6758 ev

!    total energy              =   -6260.69192157 Ry
     Harris-Foulkes estimate   =   -6260.69192157 Ry
     estimated scf accuracy    <          2.0E-09 Ry

     The total energy is the sum of the following terms:

     one-electron contribution =   -4762.91857611 Ry
     hartree contribution      =    2617.68606048 Ry
     xc contribution           =    -966.32902979 Ry
     ewald contribution        =   -3149.13036155 Ry
     smearing contrib. (-TS)   =      -0.00001459 Ry

     convergence has been achieved in  13 iterations

     Writing output data file Landau_10.save
 
     init_run     :     44.26s CPU     46.32s WALL (       1 calls)
     electrons    :   1964.05s CPU   2005.12s WALL (       1 calls)

     Called by init_run:
     wfcinit      :     41.32s CPU     43.22s WALL (       1 calls)
     potinit      :      1.15s CPU      1.19s WALL (       1 calls)

     Called by electrons:
     c_bands      :   1757.80s CPU   1796.52s WALL (      13 calls)
     sum_band     :    197.27s CPU    198.74s WALL (      13 calls)
     v_of_rho     :      1.39s CPU      1.42s WALL (      14 calls)
     mix_rho      :      2.05s CPU      2.71s WALL (      13 calls)

     Called by c_bands:
     init_us_2    :      7.47s CPU      8.23s WALL (      54 calls)
     cegterg      :   1397.31s CPU   1433.37s WALL (      26 calls)

     Called by sum_band:

     Called by *egterg:
     h_psi        :   1020.23s CPU   1028.50s WALL (     123 calls)
     g_psi        :      1.49s CPU      1.49s WALL (      95 calls)
     cdiaghg      :     20.01s CPU     20.10s WALL (     121 calls)

     Called by h_psi:
     h_psi:pot    :   1016.37s CPU   1024.34s WALL (     123 calls)
     h_psi:calbec :    168.06s CPU    172.51s WALL (     123 calls)
     vloc_psi     :    675.84s CPU    678.12s WALL (     123 calls)
     add_vuspsi   :    172.46s CPU    173.71s WALL (     123 calls)

     General routines
     calbec       :    168.06s CPU    172.51s WALL (     123 calls)
     fft          :      1.20s CPU      1.20s WALL (      56 calls)
     fftw         :    731.50s CPU    733.51s WALL (   33860 calls)
 
     Parallel routines
 
     PWSCF        : 33m35.83s CPU    34m20.43s WALL

 
   This run was terminated on:   3: 2:49  21Mar2020            

=------------------------------------------------------------------------------=
   JOB DONE.
=------------------------------------------------------------------------------=
