
     Program PWSCF v.6.4.1 starts on 21Nov2019 at 23:25:50 

     This program is part of the open-source Quantum ESPRESSO suite
     for quantum simulation of materials; please cite
         "P. Giannozzi et al., J. Phys.:Condens. Matter 21 395502 (2009);
         "P. Giannozzi et al., J. Phys.:Condens. Matter 29 465901 (2017);
          URL http://www.quantum-espresso.org", 
     in publications or presentations arising from this work. More details at
     http://www.quantum-espresso.org/quote

     Parallel version (MPI), running on    40 processors

     MPI processes distributed on     4 nodes
     K-points division:     npool     =      40
     Reading input from scf.in

     Current dimensions of program PWSCF are:
     Max number of different atomic species (ntypx) = 10
     Max number of k-points (npk) =  40000
     Max angular momentum in pseudopotentials (lmaxx) =  3

     Subspace diagonalization in iterative solution of the eigenvalue problem:
     a serial algorithm will be used

     Message from routine setup:
     using ibrav=0 with symmetry is DISCOURAGED, use correct ibrav instead
 
     G-vector sticks info
     --------------------
     sticks:   dense  smooth     PW     G-vecs:    dense   smooth      PW
     Sum        7727    7727   2061               504607   504607   70003
 


     bravais-lattice index     =            0
     lattice parameter (alat)  =      14.0601  a.u.
     unit-cell volume          =    2841.6683 (a.u.)^3
     number of atoms/cell      =           32
     number of atomic types    =            2
     number of electrons       =       368.05
     number of Kohn-Sham states=          221
     kinetic-energy cutoff     =     120.0000  Ry
     charge density cutoff     =     480.0000  Ry
     convergence threshold     =      1.0E-08
     mixing beta               =       0.7000
     number of iterations used =            8  plain     mixing
     Exchange-correlation      = SLA PW NOGX NOGC ( 1  4  0  0 0 0)

     celldm(1)=  14.060057  celldm(2)=   0.000000  celldm(3)=   0.000000
     celldm(4)=   0.000000  celldm(5)=   0.000000  celldm(6)=   0.000000

     crystal axes: (cart. coord. in units of alat)
               a(1) = (   1.000000   0.000000   0.000000 )  
               a(2) = (   0.000000   1.023006   0.000000 )  
               a(3) = (   0.000000   0.000000   0.999388 )  

     reciprocal axes: (cart. coord. in units 2 pi/alat)
               b(1) = (  1.000000  0.000000  0.000000 )  
               b(2) = (  0.000000  0.977511  0.000000 )  
               b(3) = (  0.000000  0.000000  1.000613 )  


     PseudoPot. # 1 for W  read from file:
     /cluster/scratch/mnoe/QE/pps/W_ONCV_LDA-4.0.upf
     MD5 check sum: ba0307d5d4cd419d6f1d13dc49d7c13a
     Pseudo is Norm-conserving + core correction, Zval = 28.0
     Generated using ONCVPSP code by D. R. Hamann
     Using radial grid of 1380 points,  8 beta functions with: 
                l(1) =   0
                l(2) =   0
                l(3) =   1
                l(4) =   1
                l(5) =   2
                l(6) =   2
                l(7) =   3
                l(8) =   3

     PseudoPot. # 2 for O  read from file:
     /cluster/scratch/mnoe/QE/pps/O_ONCV_LDA-3.0.upf
     MD5 check sum: b55cdb4f45ae2203d24ad12cf8d61a31
     Pseudo is Norm-conserving + core correction, Zval =  6.0
     Generated using ONCVPSP code by D. R. Hamann
     Using radial grid of  926 points,  5 beta functions with: 
                l(1) =   0
                l(2) =   0
                l(3) =   1
                l(4) =   1
                l(5) =   2

     atomic species   valence    mass     pseudopotential
        W             28.00   183.84000     W ( 1.00)
        O              6.00    15.99940     O ( 1.00)

      8 Sym. Ops., with inversion, found ( 6 have fractional translation)



   Cartesian axes

     site n.     atom                  positions (alat units)
         1           W   tau(   1) = (   0.2393600   0.2963350   0.0100438  )
         2           W   tau(   2) = (   0.7606400   0.7266710   0.9893437  )
         3           W   tau(   3) = (   0.2606400   0.2151680   0.5097376  )
         4           W   tau(   4) = (   0.7393600   0.8078379   0.4896500  )
         5           W   tau(   5) = (   0.7606400   0.2963350   0.4896500  )
         6           W   tau(   6) = (   0.2393600   0.7266710   0.5097376  )
         7           W   tau(   7) = (   0.7393600   0.2151680   0.9893437  )
         8           W   tau(   8) = (   0.2606400   0.8078379   0.0100438  )
         9           O   tau(   9) = (   0.2303800   0.0236312   0.0031181  )
        10           O   tau(  10) = (   0.7696200   0.9993748   0.9962695  )
        11           O   tau(  11) = (   0.2696200   0.4878717   0.5028119  )
        12           O   tau(  12) = (   0.7303800   0.5351342   0.4965757  )
        13           O   tau(  13) = (   0.7696200   0.0236312   0.4965757  )
        14           O   tau(  14) = (   0.2303800   0.9993748   0.5028119  )
        15           O   tau(  15) = (   0.7303800   0.4878717   0.9962695  )
        16           O   tau(  16) = (   0.2696200   0.5351342   0.0031181  )
        17           O   tau(  17) = (   0.5029100   0.2351584   0.4896119  )
        18           O   tau(  18) = (   0.4970900   0.7878476   0.5097757  )
        19           O   tau(  19) = (   0.9970900   0.2763446   0.9893057  )
        20           O   tau(  20) = (   0.0029100   0.7466614   0.0100819  )
        21           O   tau(  21) = (   0.4970900   0.2351584   0.0100819  )
        22           O   tau(  22) = (   0.5029100   0.7878476   0.9893057  )
        23           O   tau(  23) = (   0.0029100   0.2763446   0.5097757  )
        24           O   tau(  24) = (   0.9970900   0.7466614   0.4896119  )
        25           O   tau(  25) = (   0.7399120   0.2512503   0.7451334  )
        26           O   tau(  26) = (   0.2600881   0.7717558   0.2542542  )
        27           O   tau(  27) = (   0.7600881   0.2602527   0.2454396  )
        28           O   tau(  28) = (   0.2399119   0.7627532   0.7539480  )
        29           O   tau(  29) = (   0.2600881   0.2512503   0.7539480  )
        30           O   tau(  30) = (   0.7399120   0.7717558   0.2454396  )
        31           O   tau(  31) = (   0.2399119   0.2602527   0.2542542  )
        32           O   tau(  32) = (   0.7600881   0.7627532   0.7451334  )

     number of k points=    64  gaussian smearing, width (Ry)=  0.0007
                       cart. coord. in units 2pi/alat
        k(    1) = (   0.0000000   0.0000000   0.0000000), wk =   0.0092593
        k(    2) = (   0.0000000   0.0000000   0.1667688), wk =   0.0185185
        k(    3) = (   0.0000000   0.0000000   0.3335376), wk =   0.0185185
        k(    4) = (   0.0000000   0.0000000  -0.5003064), wk =   0.0092593
        k(    5) = (   0.0000000   0.1629186   0.0000000), wk =   0.0185185
        k(    6) = (   0.0000000   0.1629186   0.1667688), wk =   0.0370370
        k(    7) = (   0.0000000   0.1629186   0.3335376), wk =   0.0370370
        k(    8) = (   0.0000000   0.1629186  -0.5003064), wk =   0.0185185
        k(    9) = (   0.0000000   0.3258371   0.0000000), wk =   0.0185185
        k(   10) = (   0.0000000   0.3258371   0.1667688), wk =   0.0370370
        k(   11) = (   0.0000000   0.3258371   0.3335376), wk =   0.0370370
        k(   12) = (   0.0000000   0.3258371  -0.5003064), wk =   0.0185185
        k(   13) = (   0.0000000  -0.4887557   0.0000000), wk =   0.0092593
        k(   14) = (   0.0000000  -0.4887557   0.1667688), wk =   0.0185185
        k(   15) = (   0.0000000  -0.4887557   0.3335376), wk =   0.0185185
        k(   16) = (   0.0000000  -0.4887557  -0.5003064), wk =   0.0092593
        k(   17) = (   0.1666667   0.0000000   0.0000000), wk =   0.0185185
        k(   18) = (   0.1666667   0.0000000   0.1667688), wk =   0.0370370
        k(   19) = (   0.1666667   0.0000000   0.3335376), wk =   0.0370370
        k(   20) = (   0.1666667   0.0000000  -0.5003064), wk =   0.0185185
        k(   21) = (   0.1666667   0.1629186   0.0000000), wk =   0.0370370
        k(   22) = (   0.1666667   0.1629186   0.1667688), wk =   0.0740741
        k(   23) = (   0.1666667   0.1629186   0.3335376), wk =   0.0740741
        k(   24) = (   0.1666667   0.1629186  -0.5003064), wk =   0.0370370
        k(   25) = (   0.1666667   0.3258371   0.0000000), wk =   0.0370370
        k(   26) = (   0.1666667   0.3258371   0.1667688), wk =   0.0740741
        k(   27) = (   0.1666667   0.3258371   0.3335376), wk =   0.0740741
        k(   28) = (   0.1666667   0.3258371  -0.5003064), wk =   0.0370370
        k(   29) = (   0.1666667  -0.4887557   0.0000000), wk =   0.0185185
        k(   30) = (   0.1666667  -0.4887557   0.1667688), wk =   0.0370370
        k(   31) = (   0.1666667  -0.4887557   0.3335376), wk =   0.0370370
        k(   32) = (   0.1666667  -0.4887557  -0.5003064), wk =   0.0185185
        k(   33) = (   0.3333333   0.0000000   0.0000000), wk =   0.0185185
        k(   34) = (   0.3333333   0.0000000   0.1667688), wk =   0.0370370
        k(   35) = (   0.3333333   0.0000000   0.3335376), wk =   0.0370370
        k(   36) = (   0.3333333   0.0000000  -0.5003064), wk =   0.0185185
        k(   37) = (   0.3333333   0.1629186   0.0000000), wk =   0.0370370
        k(   38) = (   0.3333333   0.1629186   0.1667688), wk =   0.0740741
        k(   39) = (   0.3333333   0.1629186   0.3335376), wk =   0.0740741
        k(   40) = (   0.3333333   0.1629186  -0.5003064), wk =   0.0370370
        k(   41) = (   0.3333333   0.3258371   0.0000000), wk =   0.0370370
        k(   42) = (   0.3333333   0.3258371   0.1667688), wk =   0.0740741
        k(   43) = (   0.3333333   0.3258371   0.3335376), wk =   0.0740741
        k(   44) = (   0.3333333   0.3258371  -0.5003064), wk =   0.0370370
        k(   45) = (   0.3333333  -0.4887557   0.0000000), wk =   0.0185185
        k(   46) = (   0.3333333  -0.4887557   0.1667688), wk =   0.0370370
        k(   47) = (   0.3333333  -0.4887557   0.3335376), wk =   0.0370370
        k(   48) = (   0.3333333  -0.4887557  -0.5003064), wk =   0.0185185
        k(   49) = (  -0.5000000   0.0000000   0.0000000), wk =   0.0092593
        k(   50) = (  -0.5000000   0.0000000   0.1667688), wk =   0.0185185
        k(   51) = (  -0.5000000   0.0000000   0.3335376), wk =   0.0185185
        k(   52) = (  -0.5000000   0.0000000  -0.5003064), wk =   0.0092593
        k(   53) = (  -0.5000000   0.1629186   0.0000000), wk =   0.0185185
        k(   54) = (  -0.5000000   0.1629186   0.1667688), wk =   0.0370370
        k(   55) = (  -0.5000000   0.1629186   0.3335376), wk =   0.0370370
        k(   56) = (  -0.5000000   0.1629186  -0.5003064), wk =   0.0185185
        k(   57) = (  -0.5000000   0.3258371   0.0000000), wk =   0.0185185
        k(   58) = (  -0.5000000   0.3258371   0.1667688), wk =   0.0370370
        k(   59) = (  -0.5000000   0.3258371   0.3335376), wk =   0.0370370
        k(   60) = (  -0.5000000   0.3258371  -0.5003064), wk =   0.0185185
        k(   61) = (  -0.5000000  -0.4887557   0.0000000), wk =   0.0092593
        k(   62) = (  -0.5000000  -0.4887557   0.1667688), wk =   0.0185185
        k(   63) = (  -0.5000000  -0.4887557   0.3335376), wk =   0.0185185
        k(   64) = (  -0.5000000  -0.4887557  -0.5003064), wk =   0.0092593

     Dense  grid:   504607 G-vectors     FFT dimensions: ( 100, 108, 100)

     Estimated max dynamical RAM per process >       3.17 GB

     Estimated total dynamical RAM >     126.66 GB

     Initial potential from superposition of free atoms

     starting charge  367.99656, renormalised to  368.05000
     Starting wfcs are  232 randomized atomic wfcs

     total cpu time spent up to now is       49.5 secs

     Self-consistent Calculation

     iteration #  1     ecut=   120.00 Ry     beta= 0.70
     Davidson diagonalization with overlap
     ethr =  1.00E-02,  avg # of iterations =  5.2

     total cpu time spent up to now is      219.0 secs

     total energy              =   -6253.75977658 Ry
     Harris-Foulkes estimate   =   -6264.55463424 Ry
     estimated scf accuracy    <      13.65643133 Ry

     iteration #  2     ecut=   120.00 Ry     beta= 0.70
     Davidson diagonalization with overlap
     ethr =  3.71E-03,  avg # of iterations =  3.6

     total cpu time spent up to now is      386.0 secs

     total energy              =   -6250.56369907 Ry
     Harris-Foulkes estimate   =   -6270.98905007 Ry
     estimated scf accuracy    <      55.02126959 Ry

     iteration #  3     ecut=   120.00 Ry     beta= 0.70
     Davidson diagonalization with overlap
     ethr =  3.71E-03,  avg # of iterations =  3.5

     total cpu time spent up to now is      541.0 secs

     total energy              =   -6261.00184607 Ry
     Harris-Foulkes estimate   =   -6261.28389940 Ry
     estimated scf accuracy    <       0.93564966 Ry

     iteration #  4     ecut=   120.00 Ry     beta= 0.70
     Davidson diagonalization with overlap
     ethr =  2.54E-04,  avg # of iterations =  3.3

     total cpu time spent up to now is      669.3 secs

     total energy              =   -6260.99379927 Ry
     Harris-Foulkes estimate   =   -6261.06864155 Ry
     estimated scf accuracy    <       0.22657190 Ry

     iteration #  5     ecut=   120.00 Ry     beta= 0.70
     Davidson diagonalization with overlap
     ethr =  6.16E-05,  avg # of iterations =  4.6

     total cpu time spent up to now is      806.4 secs

     total energy              =   -6261.00121546 Ry
     Harris-Foulkes estimate   =   -6261.02953597 Ry
     estimated scf accuracy    <       0.06388341 Ry

     iteration #  6     ecut=   120.00 Ry     beta= 0.70
     Davidson diagonalization with overlap
     ethr =  1.74E-05,  avg # of iterations =  6.2

     total cpu time spent up to now is      951.7 secs

     total energy              =   -6261.01471744 Ry
     Harris-Foulkes estimate   =   -6261.01744916 Ry
     estimated scf accuracy    <       0.00715822 Ry

     iteration #  7     ecut=   120.00 Ry     beta= 0.70
     Davidson diagonalization with overlap
     ethr =  1.94E-06,  avg # of iterations =  6.1

     total cpu time spent up to now is     1089.7 secs

     total energy              =   -6261.01568625 Ry
     Harris-Foulkes estimate   =   -6261.01576645 Ry
     estimated scf accuracy    <       0.00014670 Ry

     iteration #  8     ecut=   120.00 Ry     beta= 0.70
     Davidson diagonalization with overlap
     ethr =  3.99E-08,  avg # of iterations =  3.4

     total cpu time spent up to now is     1261.6 secs

     total energy              =   -6261.01574631 Ry
     Harris-Foulkes estimate   =   -6261.01575910 Ry
     estimated scf accuracy    <       0.00005042 Ry

     iteration #  9     ecut=   120.00 Ry     beta= 0.70
     Davidson diagonalization with overlap
     ethr =  1.37E-08,  avg # of iterations =  2.0

     total cpu time spent up to now is     1388.8 secs

     total energy              =   -6261.01574795 Ry
     Harris-Foulkes estimate   =   -6261.01575388 Ry
     estimated scf accuracy    <       0.00002878 Ry

     iteration # 10     ecut=   120.00 Ry     beta= 0.70
     Davidson diagonalization with overlap
     ethr =  7.82E-09,  avg # of iterations =  1.4

     total cpu time spent up to now is     1506.9 secs

     total energy              =   -6261.01574495 Ry
     Harris-Foulkes estimate   =   -6261.01574950 Ry
     estimated scf accuracy    <       0.00001060 Ry

     iteration # 11     ecut=   120.00 Ry     beta= 0.70
     Davidson diagonalization with overlap
     ethr =  2.88E-09,  avg # of iterations =  2.8

     total cpu time spent up to now is     1632.6 secs

     total energy              =   -6261.01574718 Ry
     Harris-Foulkes estimate   =   -6261.01574724 Ry
     estimated scf accuracy    <       0.00000017 Ry

     iteration # 12     ecut=   120.00 Ry     beta= 0.70
     Davidson diagonalization with overlap
     ethr =  4.63E-11,  avg # of iterations =  2.0

     total cpu time spent up to now is     1785.2 secs

     total energy              =   -6261.01574721 Ry
     Harris-Foulkes estimate   =   -6261.01574723 Ry
     estimated scf accuracy    <       0.00000004 Ry

     iteration # 13     ecut=   120.00 Ry     beta= 0.70
     Davidson diagonalization with overlap
     ethr =  1.19E-11,  avg # of iterations =  2.5

     total cpu time spent up to now is     1929.8 secs

     End of self-consistent calculation

          k = 0.0000 0.0000 0.0000 ( 63023 PWs)   bands (ev):

   -66.3649 -66.3644 -66.3643 -66.3643 -66.3637 -66.3637 -66.3636 -66.3631
   -30.7330 -30.7285 -30.7249 -30.7191 -30.7165 -30.7153 -30.7131 -30.7101
   -30.7081 -30.7006 -30.7002 -30.6937 -30.6521 -30.6487 -30.6417 -30.6403
   -30.6401 -30.6350 -30.6321 -30.6259 -30.6218 -30.6209 -30.6202 -30.6131
   -20.5335 -20.5335 -20.5330 -20.5330 -20.5323 -20.5323 -20.5320 -20.5319
   -20.5215 -20.5214 -20.5205 -20.5204 -20.5194 -20.5193 -20.5186 -20.5185
   -20.5110 -20.5109 -20.5099 -20.5098 -20.5092 -20.5090 -20.5081 -20.5079
   -20.5025 -20.5022 -20.5018 -20.5013 -20.4993 -20.4988 -20.4984 -20.4975
   -20.4965 -20.4964 -20.4962 -20.4958 -20.4919 -20.4914 -20.4913 -20.4907
   -20.4900 -20.4900 -20.4897 -20.4895 -20.4891 -20.4891 -20.4886 -20.4884
   -20.4825 -20.4824 -20.4822 -20.4822 -20.4813 -20.4812 -20.4809 -20.4808
   -10.1527  -9.7734  -9.7720  -9.7704  -9.4186  -9.4033  -9.3382  -9.1318
    -9.1035  -9.0132  -9.0118  -9.0110  -8.0429  -7.9708  -7.9647  -7.9447
    -7.9414  -7.9153  -7.9063  -7.9029  -7.8770  -7.8431  -7.8281  -7.8084
     1.0027   1.0029   1.0751   1.0827   1.1038   1.1125   1.1675   1.2722
     1.2748   1.3100   1.3269   1.4580   2.3017   2.3153   2.3648   2.3652
     2.3935   2.4764   3.9311   3.9858   4.1053   4.1855   4.4512   4.4763
     4.5028   4.5254   4.5775   4.6705   4.6831   4.6940   5.0033   5.3829
     5.3910   5.4015   5.4159   5.4707   5.4854   5.5489   5.6190   5.6958
     5.7416   5.7640   5.7834   5.7903   5.8027   5.8244   5.9898   6.0229
     6.0547   6.2156   6.2828   6.2923   6.3052   6.5306   6.5529   6.5881
     6.5937   6.6343   6.9479   6.9535   6.9562   6.9646   6.9803   6.9867
     6.9887   6.9917   8.0312   8.0575   8.1617   8.1698   8.1811   8.1833
     9.0519   9.0699   9.5393   9.5730   9.6668   9.7162  12.3082  12.3822
    12.3898  12.4155  12.4214  12.4728  12.4775  12.5076  12.7140  12.9111
    13.0486  13.0997  13.2457  13.4119  13.5508  13.6888  13.9267  13.9397
    14.0047  14.0066  14.2998  14.4483  14.4781  14.5791  15.2516  15.3442
    15.5195  16.2911  16.7689  16.8325  16.9547

          k = 0.0000 0.0000 0.1668 ( 63023 PWs)   bands (ev):

   -66.3649 -66.3643 -66.3643 -66.3642 -66.3638 -66.3637 -66.3637 -66.3631
   -30.7328 -30.7288 -30.7242 -30.7194 -30.7150 -30.7128 -30.7084 -30.7083
   -30.7050 -30.7010 -30.6961 -30.6906 -30.6518 -30.6493 -30.6450 -30.6417
   -30.6398 -30.6393 -30.6317 -30.6310 -30.6244 -30.6228 -30.6214 -30.6146
   -20.5334 -20.5334 -20.5330 -20.5330 -20.5324 -20.5324 -20.5320 -20.5320
   -20.5214 -20.5213 -20.5206 -20.5205 -20.5194 -20.5192 -20.5187 -20.5185
   -20.5109 -20.5108 -20.5098 -20.5097 -20.5093 -20.5092 -20.5082 -20.5080
   -20.5025 -20.5022 -20.5018 -20.5014 -20.4992 -20.4988 -20.4984 -20.4976
   -20.4965 -20.4964 -20.4962 -20.4958 -20.4919 -20.4914 -20.4912 -20.4906
   -20.4902 -20.4901 -20.4897 -20.4894 -20.4892 -20.4890 -20.4887 -20.4885
   -20.4824 -20.4824 -20.4821 -20.4821 -20.4814 -20.4812 -20.4810 -20.4809
   -10.1120  -9.7870  -9.7220  -9.7155  -9.4122  -9.3484  -9.3347  -9.0987
    -9.0680  -9.0130  -8.9988  -8.9826  -8.0892  -8.0744  -8.0356  -8.0256
    -7.9856  -7.9683  -7.9481  -7.9063  -7.8844  -7.8466  -7.8449  -7.8116
     1.0556   1.0970   1.0990   1.1491   1.1667   1.1826   1.2647   1.3044
     1.3627   1.4271   1.4933   1.5911   2.3054   2.3613   2.3992   2.4482
     2.4750   2.5574   3.9052   3.9461   4.0974   4.1405   4.2014   4.2303
     4.3804   4.4248   4.5587   4.5592   4.5842   4.6865   5.0085   5.2105
     5.3248   5.3524   5.4282   5.4469   5.4649   5.4913   5.5322   5.5325
     5.6188   5.6893   5.7596   5.8061   5.8103   5.9316   5.9919   6.0605
     6.1117   6.2852   6.3864   6.4192   6.4397   6.4648   6.5515   6.5917
     6.6397   6.7351   6.7490   6.7784   6.8166   6.8286   6.8628   6.8695
     6.9636   6.9725   8.0338   8.0558   8.0940   8.1067   8.1157   8.1303
     9.3951   9.4105   9.5855   9.7147   9.8653   9.9627  12.2573  12.2834
    12.3772  12.4421  12.4486  12.4669  12.4739  12.4746  12.7492  12.8331
    12.8733  12.9134  13.2986  13.4095  13.5519  13.5984  13.7956  13.8558
    14.1601  14.1887  14.4464  14.4635  14.5593  14.6889  15.3255  15.4858
    15.6677  16.4757  16.5756  16.9290  17.0432

          k = 0.0000 0.0000 0.3335 ( 63071 PWs)   bands (ev):

   -66.3648 -66.3644 -66.3642 -66.3641 -66.3639 -66.3638 -66.3636 -66.3632
   -30.7320 -30.7297 -30.7229 -30.7203 -30.7129 -30.7095 -30.7080 -30.7023
   -30.6946 -30.6909 -30.6839 -30.6798 -30.6574 -30.6536 -30.6510 -30.6492
   -30.6482 -30.6443 -30.6387 -30.6327 -30.6306 -30.6262 -30.6205 -30.6170
   -20.5332 -20.5332 -20.5328 -20.5328 -20.5326 -20.5326 -20.5322 -20.5322
   -20.5212 -20.5211 -20.5207 -20.5206 -20.5192 -20.5191 -20.5188 -20.5187
   -20.5106 -20.5105 -20.5097 -20.5095 -20.5094 -20.5093 -20.5085 -20.5083
   -20.5024 -20.5023 -20.5017 -20.5015 -20.4992 -20.4989 -20.4982 -20.4977
   -20.4965 -20.4965 -20.4961 -20.4959 -20.4916 -20.4912 -20.4908 -20.4907
   -20.4905 -20.4902 -20.4896 -20.4894 -20.4891 -20.4891 -20.4890 -20.4886
   -20.4822 -20.4821 -20.4819 -20.4819 -20.4816 -20.4814 -20.4813 -20.4812
   -10.0132  -9.8301  -9.6073  -9.5843  -9.4421  -9.3833  -9.0960  -9.0468
    -9.0189  -8.9396  -8.9029  -8.8710  -8.3647  -8.3506  -8.3393  -8.3146
    -8.0016  -7.9782  -7.9405  -7.9156  -7.8801  -7.8560  -7.8424  -7.8203
     1.0661   1.0877   1.1507   1.1649   1.2147   1.2480   1.2490   1.2922
     2.0311   2.0526   2.1343   2.1665   2.3134   2.3620   2.6231   2.6619
     2.7080   2.7936   3.5757   3.6596   3.7131   3.8429   3.8892   3.9314
     4.0794   4.0957   4.4190   4.5740   4.5750   4.6163   4.7954   4.8860
     4.9856   5.0248   5.1560   5.2441   5.2954   5.4087   5.5794   5.5932
     5.6335   5.6688   5.8108   5.8378   5.8526   5.9966   6.0389   6.0969
     6.1042   6.1431   6.2605   6.2824   6.2868   6.3759   6.3882   6.5675
     6.5824   6.6057   6.6972   6.7416   6.9632   6.9725   7.0226   7.0443
     7.1416   7.1817   7.8751   7.9059   7.9262   7.9516   8.0411   8.0519
     9.6162   9.6788  10.1438  10.1588  10.6043  10.6591  11.7238  11.7484
    12.2333  12.2898  12.4732  12.4869  12.5828  12.6108  12.6143  12.6785
    12.7876  12.9321  13.2383  13.2956  13.3836  13.4021  13.4413  13.4834
    14.3800  14.4398  14.7103  14.8464  15.0011  15.1742  15.2614  15.3719
    16.0391  16.6952  16.8927  17.0877  17.3018

          k = 0.0000 0.0000-0.5003 ( 63048 PWs)   bands (ev):

   -66.3646 -66.3646 -66.3640 -66.3640 -66.3639 -66.3639 -66.3634 -66.3634
   -30.7308 -30.7308 -30.7215 -30.7215 -30.7110 -30.7110 -30.7046 -30.7046
   -30.6756 -30.6756 -30.6718 -30.6718 -30.6661 -30.6661 -30.6623 -30.6623
   -30.6499 -30.6499 -30.6368 -30.6368 -30.6288 -30.6288 -30.6190 -30.6190
   -20.5329 -20.5329 -20.5329 -20.5329 -20.5325 -20.5325 -20.5325 -20.5325
   -20.5210 -20.5210 -20.5209 -20.5209 -20.5190 -20.5190 -20.5189 -20.5189
   -20.5101 -20.5101 -20.5100 -20.5100 -20.5090 -20.5090 -20.5088 -20.5088
   -20.5023 -20.5023 -20.5016 -20.5016 -20.4990 -20.4990 -20.4980 -20.4980
   -20.4965 -20.4965 -20.4961 -20.4960 -20.4912 -20.4912 -20.4909 -20.4909
   -20.4902 -20.4902 -20.4896 -20.4896 -20.4892 -20.4892 -20.4888 -20.4888
   -20.4819 -20.4819 -20.4817 -20.4817 -20.4817 -20.4817 -20.4816 -20.4816
    -9.9074  -9.9074  -9.5033  -9.5033  -9.4582  -9.4581  -9.0285  -9.0284
    -8.7443  -8.7443  -8.6845  -8.6845  -8.6648  -8.6648  -8.6380  -8.6380
    -7.9911  -7.9911  -7.9282  -7.9282  -7.8685  -7.8685  -7.8318  -7.8318
     1.0758   1.0758   1.1617   1.1617   1.2308   1.2308   1.2770   1.2770
     2.3221   2.3221   2.7042   2.7042   2.7677   2.7677   2.9333   2.9333
     2.9883   2.9884   3.0896   3.0896   3.3051   3.3051   3.7227   3.7227
     3.7607   3.7607   4.0831   4.0831   4.5743   4.5743   4.9414   4.9414
     5.0297   5.0298   5.1425   5.1426   5.1684   5.1684   5.6378   5.6378
     5.7264   5.7264   5.8244   5.8244   5.9204   5.9204   5.9695   5.9695
     6.0818   6.0818   6.2098   6.2098   6.2140   6.2140   6.4109   6.4109
     6.5879   6.5879   6.6690   6.6690   6.9692   6.9692   7.5054   7.5054
     7.5401   7.5401   7.6033   7.6033   7.6264   7.6264   8.0466   8.0466
     9.6519   9.6519  10.9694  10.9694  10.9916  10.9916  11.4572  11.4572
    11.4954  11.4954  12.4748  12.4748  12.7648  12.7648  12.8971  12.8971
    12.9240  12.9240  13.0324  13.0324  13.0783  13.0783  13.3892  13.3892
    14.4240  14.4240  15.1218  15.1218  15.1340  15.1340  15.4754  15.4754
    16.1063  16.1063  17.4418  17.4418  17.6521

          k = 0.0000 0.1629 0.0000 ( 63118 PWs)   bands (ev):

   -66.3649 -66.3644 -66.3642 -66.3642 -66.3638 -66.3637 -66.3636 -66.3631
   -30.7318 -30.7272 -30.7252 -30.7195 -30.7155 -30.7130 -30.7127 -30.7099
   -30.7035 -30.6985 -30.6968 -30.6910 -30.6542 -30.6512 -30.6445 -30.6401
   -30.6397 -30.6368 -30.6356 -30.6260 -30.6247 -30.6227 -30.6202 -30.6148
   -20.5335 -20.5335 -20.5330 -20.5330 -20.5323 -20.5323 -20.5320 -20.5319
   -20.5215 -20.5214 -20.5205 -20.5204 -20.5194 -20.5193 -20.5186 -20.5185
   -20.5110 -20.5109 -20.5099 -20.5098 -20.5092 -20.5091 -20.5080 -20.5079
   -20.5025 -20.5021 -20.5018 -20.5014 -20.4992 -20.4986 -20.4985 -20.4976
   -20.4961 -20.4960 -20.4958 -20.4955 -20.4919 -20.4915 -20.4914 -20.4907
   -20.4904 -20.4904 -20.4902 -20.4899 -20.4891 -20.4891 -20.4886 -20.4885
   -20.4825 -20.4825 -20.4822 -20.4822 -20.4813 -20.4812 -20.4810 -20.4809
   -10.1144  -9.7871  -9.7283  -9.7253  -9.4284  -9.4139  -9.2564  -9.1299
    -9.1054  -8.9740  -8.9724  -8.9660  -8.0937  -8.0136  -7.9924  -7.9708
    -7.9611  -7.9452  -7.9292  -7.9170  -7.9063  -7.9052  -7.9044  -7.8670
     1.0024   1.0027   1.1048   1.1128   1.1431   1.1670   1.2175   1.3261
     1.4607   1.5068   1.5313   1.6411   2.3524   2.3717   2.4148   2.4368
     2.4698   2.4739   3.7552   3.8152   3.8549   3.9262   4.4534   4.4665
     4.4949   4.5183   4.5189   4.7043   4.7490   4.7500   4.8869   5.1057
     5.1576   5.4059   5.4306   5.4826   5.4833   5.4842   5.5161   5.5347
     5.7294   5.8071   5.8164   5.8588   5.8615   5.8728   5.9718   6.0240
     6.0510   6.1672   6.2241   6.3295   6.3830   6.5323   6.5650   6.5980
     6.6407   6.6744   6.8050   6.8477   6.9108   6.9534   6.9559   6.9585
     6.9727   6.9797   7.9727   7.9984   8.0759   8.0992   8.1678   8.1802
     9.0571   9.0746   9.7579   9.8208   9.8716   9.9434  12.1537  12.2106
    12.2825  12.2986  12.3916  12.4075  12.4753  12.4793  12.7488  12.9391
    13.0724  13.1277  13.3195  13.4851  13.6328  13.6844  13.8538  13.9075
    14.0692  14.1672  14.2813  14.4324  14.5098  14.7918  15.2261  15.3137
    15.9309  16.0294  16.9646  17.0334  17.1623

          k = 0.0000 0.1629 0.1668 ( 63097 PWs)   bands (ev):

   -66.3648 -66.3644 -66.3643 -66.3642 -66.3638 -66.3637 -66.3636 -66.3632
   -30.7315 -30.7276 -30.7245 -30.7198 -30.7128 -30.7105 -30.7082 -30.7048
   -30.7039 -30.6974 -30.6949 -30.6884 -30.6540 -30.6519 -30.6472 -30.6416
   -30.6396 -30.6393 -30.6364 -30.6311 -30.6252 -30.6244 -30.6243 -30.6166
   -20.5334 -20.5334 -20.5330 -20.5330 -20.5324 -20.5324 -20.5320 -20.5320
   -20.5214 -20.5213 -20.5206 -20.5205 -20.5194 -20.5193 -20.5187 -20.5186
   -20.5109 -20.5108 -20.5098 -20.5097 -20.5093 -20.5092 -20.5082 -20.5080
   -20.5024 -20.5021 -20.5018 -20.5014 -20.4991 -20.4987 -20.4984 -20.4976
   -20.4961 -20.4960 -20.4958 -20.4955 -20.4919 -20.4915 -20.4912 -20.4906
   -20.4906 -20.4905 -20.4900 -20.4897 -20.4892 -20.4891 -20.4887 -20.4885
   -20.4824 -20.4824 -20.4821 -20.4821 -20.4814 -20.4812 -20.4811 -20.4810
   -10.0725  -9.7412  -9.7372  -9.6670  -9.4231  -9.3446  -9.2667  -9.0959
    -9.0699  -8.9748  -8.9552  -8.9475  -8.1262  -8.0724  -8.0626  -8.0238
    -8.0153  -7.9936  -7.9536  -7.9504  -7.9455  -7.9205  -7.9086  -7.9079
     1.0858   1.0964   1.1410   1.1662   1.3072   1.3164   1.3628   1.4763
     1.4926   1.5258   1.5477   1.6979   2.3781   2.4328   2.4350   2.5018
     2.5492   2.5524   3.7525   3.8014   3.8736   3.9033   4.1810   4.2256
     4.4312   4.4868   4.5071   4.5462   4.5610   4.7120   4.9002   5.0694
     5.1292   5.2174   5.3063   5.3797   5.3804   5.4394   5.4507   5.5039
     5.6167   5.7784   5.7862   5.8428   5.8582   5.9105   5.9902   6.0017
     6.0933   6.3579   6.3593   6.3741   6.4247   6.5295   6.5560   6.6399
     6.6505   6.7271   6.7710   6.7792   6.8195   6.8435   6.8454   6.8519
     6.8743   6.9237   7.9758   7.9935   8.0277   8.0485   8.1000   8.1161
     9.3994   9.4129   9.8325   9.9393  10.0359  10.1288  12.2218  12.2374
    12.2821  12.2923  12.2981  12.3249  12.4450  12.4585  12.7851  12.8656
    12.9040  12.9395  13.3575  13.4856  13.5880  13.5939  13.7093  13.7544
    14.2614  14.4115  14.4551  14.5298  14.5376  14.8898  15.2941  15.6415
    15.8967  16.1967  16.7478  17.0855  17.1278

          k = 0.0000 0.1629 0.3335 ( 63077 PWs)   bands (ev):

   -66.3647 -66.3644 -66.3642 -66.3641 -66.3639 -66.3637 -66.3636 -66.3633
   -30.7307 -30.7284 -30.7232 -30.7206 -30.7090 -30.7057 -30.7047 -30.6988
   -30.6946 -30.6908 -30.6835 -30.6788 -30.6585 -30.6550 -30.6531 -30.6493
   -30.6491 -30.6443 -30.6383 -30.6352 -30.6324 -30.6298 -30.6233 -30.6195
   -20.5332 -20.5332 -20.5328 -20.5328 -20.5326 -20.5326 -20.5322 -20.5322
   -20.5212 -20.5211 -20.5207 -20.5206 -20.5192 -20.5191 -20.5188 -20.5187
   -20.5106 -20.5105 -20.5096 -20.5095 -20.5094 -20.5093 -20.5085 -20.5084
   -20.5024 -20.5022 -20.5017 -20.5015 -20.4990 -20.4988 -20.4982 -20.4978
   -20.4961 -20.4961 -20.4958 -20.4956 -20.4917 -20.4914 -20.4910 -20.4908
   -20.4908 -20.4902 -20.4898 -20.4896 -20.4894 -20.4892 -20.4891 -20.4887
   -20.4822 -20.4821 -20.4819 -20.4819 -20.4816 -20.4814 -20.4814 -20.4812
    -9.9707  -9.7843  -9.6221  -9.5234  -9.4538  -9.3029  -9.1063  -9.0251
    -8.9815  -8.9421  -8.8812  -8.8485  -8.3773  -8.3494  -8.3477  -8.3115
    -8.0399  -8.0217  -7.9563  -7.9451  -7.9429  -7.9327  -7.9179  -7.9171
     1.1229   1.1368   1.1500   1.1643   1.4181   1.4422   1.5108   1.5228
     2.0311   2.0622   2.1333   2.1818   2.3867   2.4311   2.6647   2.7279
     2.7556   2.7874   3.5724   3.5903   3.7063   3.7821   3.8229   3.8906
     3.9606   4.0300   4.4236   4.4852   4.5777   4.6138   4.7455   4.8451
     4.8483   4.8763   4.9600   4.9694   5.2791   5.2867   5.3057   5.5432
     5.6588   5.7053   5.7890   5.8220   5.8467   5.8667   5.9002   6.0180
     6.2337   6.2430   6.2969   6.3541   6.3718   6.4942   6.5122   6.5464
     6.5705   6.5929   6.7591   6.8161   6.8528   6.8594   7.0373   7.0616
     7.1410   7.1863   7.8667   7.8775   7.8954   7.9003   7.9827   8.0001
     9.8493   9.9056  10.1450  10.1687  10.7070  10.7654  11.7258  11.7474
    12.2350  12.3039  12.3302  12.3607  12.4579  12.5057  12.6119  12.6168
    12.8234  12.9467  13.2428  13.2658  13.3516  13.3708  13.4597  13.4814
    14.4280  14.4839  14.8342  15.0436  15.1545  15.2317  15.2612  15.7787
    16.1950  16.6616  16.7080  16.9844  17.3540

          k = 0.0000 0.1629-0.5003 ( 63036 PWs)   bands (ev):

   -66.3646 -66.3646 -66.3641 -66.3641 -66.3639 -66.3639 -66.3634 -66.3634
   -30.7296 -30.7296 -30.7219 -30.7219 -30.7067 -30.7067 -30.7012 -30.7012
   -30.6758 -30.6758 -30.6720 -30.6720 -30.6661 -30.6661 -30.6621 -30.6620
   -30.6519 -30.6519 -30.6364 -30.6364 -30.6332 -30.6332 -30.6217 -30.6217
   -20.5329 -20.5329 -20.5329 -20.5329 -20.5325 -20.5325 -20.5325 -20.5325
   -20.5210 -20.5210 -20.5209 -20.5209 -20.5190 -20.5190 -20.5189 -20.5189
   -20.5101 -20.5101 -20.5100 -20.5100 -20.5089 -20.5089 -20.5088 -20.5088
   -20.5023 -20.5023 -20.5016 -20.5016 -20.4989 -20.4989 -20.4980 -20.4980
   -20.4961 -20.4961 -20.4957 -20.4957 -20.4914 -20.4914 -20.4912 -20.4912
   -20.4902 -20.4902 -20.4896 -20.4896 -20.4895 -20.4895 -20.4890 -20.4890
   -20.4819 -20.4819 -20.4817 -20.4817 -20.4817 -20.4817 -20.4816 -20.4816
    -9.8624  -9.8624  -9.5166  -9.5166  -9.3835  -9.3835  -8.9940  -8.9940
    -8.7555  -8.7555  -8.6891  -8.6891  -8.6581  -8.6581  -8.6292  -8.6292
    -8.0336  -8.0336  -7.9478  -7.9478  -7.9306  -7.9306  -7.9290  -7.9290
     1.1316   1.1316   1.1610   1.1610   1.4377   1.4377   1.5188   1.5188
     2.3933   2.3933   2.7323   2.7323   2.8014   2.8014   2.9228   2.9228
     2.9802   2.9802   3.1046   3.1047   3.2924   3.2925   3.7454   3.7454
     3.8111   3.8111   3.9051   3.9051   4.4730   4.4730   4.7775   4.7775
     4.8450   4.8450   5.0854   5.0854   5.0930   5.0930   5.4077   5.4077
     5.6348   5.6348   5.8115   5.8115   5.8641   5.8641   5.9511   5.9511
     6.1271   6.1271   6.3116   6.3116   6.4023   6.4023   6.5000   6.5000
     6.5487   6.5488   6.7506   6.7506   6.8518   6.8518   7.5191   7.5191
     7.5338   7.5338   7.5784   7.5784   7.5963   7.5963   7.9893   7.9893
     9.8846   9.8846  10.9704  10.9704  10.9923  10.9923  11.5197  11.5197
    11.5606  11.5606  12.3063  12.3063  12.7689  12.7689  12.8307  12.8307
    12.8978  12.8978  12.9270  12.9270  13.0323  13.0323  13.4681  13.4681
    14.4682  14.4682  15.0977  15.0977  15.5134  15.5134  15.6401  15.6401
    16.1976  16.1976  17.2197  17.2197  17.6731

          k = 0.0000 0.3258 0.0000 ( 63100 PWs)   bands (ev):

   -66.3648 -66.3645 -66.3641 -66.3641 -66.3639 -66.3638 -66.3635 -66.3632
   -30.7294 -30.7260 -30.7247 -30.7206 -30.7138 -30.7129 -30.7094 -30.7094
   -30.6913 -30.6902 -30.6858 -30.6817 -30.6620 -30.6601 -30.6542 -30.6495
   -30.6394 -30.6383 -30.6370 -30.6307 -30.6263 -30.6254 -30.6201 -30.6178
   -20.5335 -20.5335 -20.5330 -20.5330 -20.5323 -20.5323 -20.5319 -20.5319
   -20.5214 -20.5214 -20.5205 -20.5204 -20.5194 -20.5193 -20.5186 -20.5185
   -20.5110 -20.5110 -20.5099 -20.5099 -20.5092 -20.5091 -20.5080 -20.5079
   -20.5023 -20.5019 -20.5019 -20.5015 -20.4989 -20.4986 -20.4983 -20.4977
   -20.4950 -20.4949 -20.4948 -20.4945 -20.4922 -20.4921 -20.4916 -20.4916
   -20.4914 -20.4911 -20.4907 -20.4905 -20.4891 -20.4891 -20.4885 -20.4885
   -20.4825 -20.4825 -20.4822 -20.4822 -20.4813 -20.4811 -20.4811 -20.4810
   -10.0199  -9.8341  -9.6240  -9.6192  -9.4608  -9.4484  -9.1248  -9.1106
    -9.0244  -8.8408  -8.8391  -8.8205  -8.3380  -8.2725  -8.2647  -8.2319
    -7.9789  -7.9723  -7.9446  -7.9329  -7.9243  -7.9112  -7.8994  -7.8835
     1.0020   1.0022   1.1132   1.1136   1.1596   1.1659   1.3017   1.3235
     2.0650   2.1804   2.2171   2.3235   2.3884   2.4331   2.6098   2.6446
     2.6568   2.7075   3.3591   3.3794   3.4329   3.4548   3.9510   4.2619
     4.3009   4.4600   4.4722   4.4998   4.5156   4.5749   4.9137   4.9285
     4.9383   4.9580   5.2896   5.3022   5.4750   5.4834   5.5073   5.5173
     5.7825   5.7841   5.8095   5.8212   5.8358   5.8727   5.9418   5.9592
     6.0448   6.1301   6.1359   6.3870   6.4450   6.4693   6.6508   6.7203
     6.7293   6.8281   6.9113   6.9138   6.9570   6.9621   6.9665   6.9746
     6.9828   6.9925   7.7647   7.7866   7.8152   7.8431   8.1701   8.1774
     9.0665   9.0776  10.3213  10.4085  10.4208  10.5043  11.6893  11.7440
    11.8160  11.8380  12.3949  12.4017  12.4736  12.4787  12.8553  13.0441
    13.1300  13.2312  13.2854  13.4349  13.6031  13.6744  13.7237  13.7303
    14.2620  14.2805  14.4629  14.6089  14.7613  15.1372  15.2171  15.4514
    15.4994  16.8974  16.9437  17.5761  17.6511

          k = 0.0000 0.3258 0.1668 ( 63129 PWs)   bands (ev):

   -66.3647 -66.3645 -66.3642 -66.3641 -66.3639 -66.3638 -66.3635 -66.3633
   -30.7291 -30.7254 -30.7250 -30.7209 -30.7098 -30.7081 -30.7056 -30.7043
   -30.6916 -30.6887 -30.6863 -30.6802 -30.6616 -30.6607 -30.6557 -30.6491
   -30.6412 -30.6401 -30.6379 -30.6312 -30.6304 -30.6291 -30.6241 -30.6204
   -20.5334 -20.5334 -20.5330 -20.5330 -20.5324 -20.5324 -20.5320 -20.5320
   -20.5214 -20.5213 -20.5206 -20.5205 -20.5193 -20.5193 -20.5186 -20.5186
   -20.5109 -20.5108 -20.5098 -20.5097 -20.5093 -20.5092 -20.5081 -20.5080
   -20.5023 -20.5020 -20.5019 -20.5015 -20.4989 -20.4985 -20.4983 -20.4978
   -20.4950 -20.4949 -20.4948 -20.4946 -20.4922 -20.4921 -20.4917 -20.4916
   -20.4912 -20.4909 -20.4906 -20.4903 -20.4892 -20.4892 -20.4887 -20.4886
   -20.4825 -20.4824 -20.4822 -20.4821 -20.4814 -20.4812 -20.4812 -20.4810
    -9.9749  -9.7846  -9.6333  -9.5531  -9.4587  -9.3777  -9.0898  -9.0751
    -9.0352  -8.8440  -8.8237  -8.8138  -8.3493  -8.2837  -8.2640  -8.2366
    -8.0665  -8.0418  -8.0185  -7.9961  -7.9698  -7.9566  -7.9275  -7.9147
     1.0918   1.0951   1.1584   1.1650   1.3561   1.3629   1.4611   1.4899
     2.0701   2.1726   2.2134   2.3195   2.4662   2.5077   2.6145   2.6450
     2.7449   2.7888   3.3816   3.4260   3.4280   3.4508   3.9403   4.1799
     4.2045   4.2717   4.3028   4.5061   4.5451   4.5933   4.6470   4.6823
     4.9231   4.9811   5.1232   5.2357   5.2568   5.2813   5.4665   5.4697
     5.5243   5.6086   5.6744   5.7709   5.8245   5.8273   5.9308   6.0098
     6.1857   6.3082   6.3813   6.4005   6.5150   6.6514   6.6811   6.7279
     6.7411   6.7647   6.7982   6.8284   6.8566   6.8725   6.9268   6.9529
     7.0054   7.0228   7.7691   7.7793   7.7882   7.8106   8.1040   8.1134
     9.4066   9.4147  10.4285  10.5000  10.5104  10.5901  11.7775  11.8168
    11.8326  11.8376  12.2796  12.2846  12.4479  12.4534  12.8940  12.9676
    13.0142  13.0425  13.2972  13.4339  13.4429  13.4973  13.6300  13.6309
    14.4436  14.4590  14.6250  14.7296  14.9743  15.1944  15.5404  15.5498
    15.6625  16.9052  16.9867  17.1879  17.3179

          k = 0.0000 0.3258 0.3335 ( 63109 PWs)   bands (ev):

   -66.3646 -66.3643 -66.3643 -66.3640 -66.3640 -66.3637 -66.3637 -66.3634
   -30.7282 -30.7258 -30.7242 -30.7217 -30.7009 -30.6980 -30.6947 -30.6928
   -30.6908 -30.6883 -30.6812 -30.6743 -30.6640 -30.6617 -30.6601 -30.6501
   -30.6495 -30.6472 -30.6441 -30.6376 -30.6368 -30.6312 -30.6293 -30.6247
   -20.5332 -20.5332 -20.5328 -20.5328 -20.5326 -20.5326 -20.5322 -20.5322
   -20.5212 -20.5211 -20.5207 -20.5207 -20.5192 -20.5191 -20.5188 -20.5187
   -20.5105 -20.5105 -20.5096 -20.5095 -20.5094 -20.5093 -20.5085 -20.5084
   -20.5022 -20.5020 -20.5018 -20.5016 -20.4988 -20.4984 -20.4983 -20.4979
   -20.4950 -20.4949 -20.4949 -20.4947 -20.4922 -20.4921 -20.4919 -20.4918
   -20.4908 -20.4904 -20.4901 -20.4899 -20.4896 -20.4895 -20.4891 -20.4889
   -20.4822 -20.4822 -20.4820 -20.4819 -20.4816 -20.4814 -20.4814 -20.4813
    -9.8662  -9.6751  -9.6689  -9.4921  -9.3730  -9.1427  -9.0761  -8.9859
    -8.9496  -8.8555  -8.7800  -8.7613  -8.4673  -8.4050  -8.3383  -8.3011
    -8.2662  -8.2493  -8.2090  -8.1780  -7.9631  -7.9493  -7.9372  -7.9241
     1.1410   1.1481   1.1557   1.1629   1.9312   1.9944   2.0279   2.0887
     2.1271   2.2095   2.2325   2.3805   2.5929   2.6321   2.7013   2.7784
     2.9497   2.9698   3.3705   3.4014   3.4469   3.4725   3.6739   3.6860
     3.9255   4.1255   4.1848   4.2139   4.2608   4.4215   4.4787   4.6153
     4.7206   4.7291   4.8335   4.8584   4.9399   5.0119   5.1454   5.1928
     5.2058   5.3627   5.5725   5.7311   5.8636   5.8675   5.9946   6.0394
     6.3105   6.3208   6.3505   6.4191   6.4590   6.5611   6.6116   6.6450
     6.7266   6.8859   6.8946   6.9433   6.9515   7.0102   7.0506   7.1206
     7.1659   7.1825   7.6900   7.7006   7.7518   7.7785   7.8984   7.9241
    10.1316  10.1463  10.4525  10.4929  11.0225  11.0861  11.7094  11.7430
    11.8277  11.8627  12.0583  12.1025  12.4452  12.4724  12.6120  12.6134
    12.9132  13.0166  13.0368  13.0950  13.2219  13.3292  13.4198  13.4526
    14.5798  14.7114  14.7956  15.1374  15.3654  15.7367  15.8575  16.1826
    16.5448  16.5948  16.7699  17.2913  17.3325

          k = 0.0000 0.3258-0.5003 ( 63054 PWs)   bands (ev):

   -66.3645 -66.3645 -66.3642 -66.3642 -66.3638 -66.3638 -66.3635 -66.3635
   -30.7270 -30.7270 -30.7230 -30.7230 -30.6954 -30.6954 -30.6917 -30.6917
   -30.6772 -30.6772 -30.6733 -30.6733 -30.6659 -30.6659 -30.6608 -30.6607
   -30.6581 -30.6581 -30.6441 -30.6441 -30.6350 -30.6350 -30.6275 -30.6275
   -20.5329 -20.5329 -20.5329 -20.5329 -20.5325 -20.5325 -20.5325 -20.5325
   -20.5209 -20.5209 -20.5209 -20.5209 -20.5190 -20.5190 -20.5189 -20.5189
   -20.5101 -20.5101 -20.5100 -20.5100 -20.5089 -20.5089 -20.5089 -20.5089
   -20.5021 -20.5021 -20.5017 -20.5017 -20.4986 -20.4986 -20.4981 -20.4981
   -20.4950 -20.4950 -20.4948 -20.4948 -20.4921 -20.4921 -20.4920 -20.4920
   -20.4902 -20.4902 -20.4899 -20.4899 -20.4896 -20.4896 -20.4894 -20.4894
   -20.4819 -20.4819 -20.4818 -20.4818 -20.4817 -20.4817 -20.4816 -20.4816
    -9.7533  -9.7533  -9.5594  -9.5594  -9.1815  -9.1815  -8.8873  -8.8873
    -8.8018  -8.8018  -8.7061  -8.7061  -8.6291  -8.6291  -8.5941  -8.5941
    -8.2645  -8.2644  -8.2216  -8.2216  -7.9503  -7.9503  -7.9369  -7.9369
     1.1516   1.1516   1.1593   1.1593   2.0733   2.0733   2.2005   2.2005
     2.5911   2.5911   2.8140   2.8140   2.8884   2.8884   2.8901   2.8901
     2.9562   2.9562   3.1477   3.1477   3.2516   3.2516   3.4583   3.4583
     3.9325   3.9325   3.9352   3.9352   3.9797   3.9797   4.1938   4.1939
     4.7599   4.7599   4.8757   4.8757   4.9335   4.9335   5.0247   5.0248
     5.1541   5.1541   5.6494   5.6494   5.9321   5.9321   5.9545   5.9545
     6.2803   6.2803   6.3556   6.3556   6.3966   6.3966   6.6291   6.6291
     6.8568   6.8568   6.9340   6.9340   7.0156   7.0156   7.4767   7.4768
     7.4907   7.4907   7.5030   7.5030   7.5537   7.5537   7.7972   7.7972
    10.4527  10.4527  10.9703  10.9703  10.9980  10.9980  11.7041  11.7041
    11.7627  11.7627  11.8727  11.8727  12.4901  12.4901  12.5402  12.5402
    12.8620  12.8620  12.8960  12.8960  13.0786  13.0786  13.4257  13.4257
    14.6624  14.6624  15.0201  15.0201  16.0288  16.0288  16.4167  16.4167
    16.5851  16.5851  16.8070  16.8070  17.7324

          k = 0.0000-0.4888 0.0000 ( 63242 PWs)   bands (ev):

   -66.3646 -66.3646 -66.3640 -66.3640 -66.3640 -66.3640 -66.3634 -66.3634
   -30.7274 -30.7274 -30.7223 -30.7223 -30.7130 -30.7130 -30.7089 -30.7089
   -30.6756 -30.6756 -30.6750 -30.6750 -30.6699 -30.6698 -30.6663 -30.6663
   -30.6384 -30.6384 -30.6355 -30.6355 -30.6264 -30.6264 -30.6196 -30.6196
   -20.5335 -20.5335 -20.5330 -20.5330 -20.5323 -20.5323 -20.5320 -20.5319
   -20.5214 -20.5214 -20.5205 -20.5205 -20.5194 -20.5194 -20.5186 -20.5185
   -20.5110 -20.5110 -20.5099 -20.5099 -20.5091 -20.5091 -20.5080 -20.5080
   -20.5021 -20.5021 -20.5017 -20.5017 -20.4987 -20.4987 -20.4979 -20.4979
   -20.4934 -20.4934 -20.4934 -20.4934 -20.4932 -20.4932 -20.4931 -20.4931
   -20.4914 -20.4914 -20.4907 -20.4907 -20.4891 -20.4891 -20.4885 -20.4885
   -20.4825 -20.4825 -20.4822 -20.4822 -20.4812 -20.4812 -20.4811 -20.4811
    -9.9148  -9.9148  -9.5243  -9.5243  -9.5154  -9.5154  -9.1177  -9.1177
    -8.6885  -8.6885  -8.5928  -8.5928  -8.5882  -8.5882  -8.5664  -8.5664
    -7.9767  -7.9767  -7.9402  -7.9402  -7.9190  -7.9190  -7.8922  -7.8922
     1.0019   1.0019   1.1142   1.1142   1.1640   1.1640   1.3179   1.3179
     2.4074   2.4074   2.8208   2.8208   2.8991   2.8991   2.9143   2.9143
     2.9630   2.9630   3.1033   3.1033   3.3027   3.3027   3.3141   3.3141
     3.4715   3.4715   4.4757   4.4757   4.4883   4.4883   5.1074   5.1074
     5.1549   5.1550   5.2045   5.2045   5.2250   5.2250   5.5894   5.5894
     5.6248   5.6248   5.8101   5.8101   5.8483   5.8483   5.9505   5.9505
     6.1241   6.1241   6.1893   6.1893   6.4941   6.4941   6.5642   6.5642
     6.8019   6.8019   6.9505   6.9505   6.9690   6.9690   7.3969   7.3969
     7.4040   7.4040   7.4156   7.4156   7.4364   7.4364   8.1737   8.1737
     9.0743   9.0743  11.0250  11.0250  11.0718  11.0718  11.1466  11.1466
    11.2151  11.2151  12.3985  12.3985  12.4765  12.4765  13.0224  13.0224
    13.2302  13.2302  13.3875  13.3875  13.4221  13.4221  13.7221  13.7221
    14.2672  14.2672  14.9355  14.9355  14.9479  14.9479  15.0376  15.0376
    16.2747  16.2747  17.5935  17.5935  17.8425

          k = 0.0000-0.4888 0.1668 ( 63124 PWs)   bands (ev):

   -66.3646 -66.3646 -66.3640 -66.3640 -66.3639 -66.3639 -66.3634 -66.3634
   -30.7269 -30.7269 -30.7226 -30.7226 -30.7083 -30.7083 -30.7042 -30.7041
   -30.6755 -30.6755 -30.6750 -30.6750 -30.6706 -30.6706 -30.6656 -30.6656
   -30.6406 -30.6406 -30.6352 -30.6352 -30.6309 -30.6309 -30.6230 -30.6230
   -20.5334 -20.5334 -20.5330 -20.5330 -20.5324 -20.5324 -20.5320 -20.5320
   -20.5213 -20.5213 -20.5205 -20.5205 -20.5193 -20.5193 -20.5186 -20.5186
   -20.5109 -20.5109 -20.5097 -20.5097 -20.5092 -20.5092 -20.5081 -20.5081
   -20.5021 -20.5021 -20.5017 -20.5017 -20.4987 -20.4987 -20.4980 -20.4980
   -20.4935 -20.4935 -20.4934 -20.4934 -20.4933 -20.4933 -20.4932 -20.4931
   -20.4912 -20.4912 -20.4905 -20.4905 -20.4892 -20.4892 -20.4887 -20.4887
   -20.4824 -20.4824 -20.4822 -20.4822 -20.4813 -20.4813 -20.4811 -20.4811
    -9.8668  -9.8668  -9.5275  -9.5275  -9.4446  -9.4446  -9.0823  -9.0823
    -8.6994  -8.6994  -8.5989  -8.5989  -8.5821  -8.5821  -8.5645  -8.5645
    -8.0574  -8.0574  -8.0102  -8.0102  -7.9643  -7.9643  -7.9224  -7.9224
     1.0936   1.0936   1.1629   1.1629   1.3618   1.3618   1.4833   1.4833
     2.4887   2.4887   2.8299   2.8299   2.8874   2.8874   2.9248   2.9248
     3.0210   3.0210   3.0916   3.0916   3.3044   3.3044   3.3507   3.3507
     3.4931   3.4931   4.1974   4.1974   4.5300   4.5300   4.8977   4.8977
     4.9760   4.9760   5.1193   5.1193   5.2392   5.2393   5.3497   5.3497
     5.5159   5.5159   5.5688   5.5688   5.8325   5.8325   5.9881   5.9881
     6.3018   6.3018   6.3633   6.3633   6.4984   6.4984   6.7420   6.7420
     6.7655   6.7655   6.8013   6.8013   6.9102   6.9102   7.3890   7.3890
     7.4082   7.4082   7.4120   7.4121   7.4293   7.4294   8.1089   8.1090
     9.4123   9.4123  11.1232  11.1232  11.1472  11.1472  11.1808  11.1808
    11.2549  11.2549  12.2818  12.2818  12.4509  12.4509  13.0471  13.0472
    13.2021  13.2021  13.2230  13.2230  13.2476  13.2476  13.6249  13.6249
    14.4433  14.4433  15.0098  15.0098  15.1074  15.1074  15.3492  15.3492
    16.3667  16.3667  17.5376  17.5376  17.6291

          k = 0.0000-0.4888 0.3335 ( 63100 PWs)   bands (ev):

   -66.3645 -66.3645 -66.3642 -66.3642 -66.3638 -66.3638 -66.3635 -66.3635
   -30.7259 -30.7259 -30.7235 -30.7235 -30.6961 -30.6961 -30.6920 -30.6920
   -30.6772 -30.6772 -30.6741 -30.6741 -30.6720 -30.6719 -30.6628 -30.6628
   -30.6498 -30.6498 -30.6426 -30.6426 -30.6341 -30.6341 -30.6289 -30.6289
   -20.5332 -20.5332 -20.5328 -20.5328 -20.5326 -20.5326 -20.5322 -20.5322
   -20.5212 -20.5212 -20.5207 -20.5207 -20.5192 -20.5192 -20.5188 -20.5187
   -20.5105 -20.5105 -20.5096 -20.5096 -20.5094 -20.5094 -20.5084 -20.5084
   -20.5020 -20.5020 -20.5018 -20.5018 -20.4985 -20.4985 -20.4981 -20.4981
   -20.4935 -20.4935 -20.4935 -20.4935 -20.4934 -20.4934 -20.4933 -20.4933
   -20.4907 -20.4907 -20.4901 -20.4901 -20.4896 -20.4896 -20.4890 -20.4890
   -20.4822 -20.4822 -20.4820 -20.4819 -20.4815 -20.4815 -20.4814 -20.4814
    -9.7526  -9.7526  -9.5653  -9.5652  -9.2255  -9.2255  -8.9626  -8.9626
    -8.7539  -8.7539  -8.6273  -8.6273  -8.5596  -8.5595  -8.5544  -8.5543
    -8.3159  -8.3159  -8.2762  -8.2762  -7.9576  -7.9576  -7.9320  -7.9320
     1.1456   1.1456   1.1606   1.1606   2.0162   2.0162   2.1087   2.1087
     2.7132   2.7132   2.8338   2.8338   2.8974   2.8974   2.9494   2.9494
     3.0690   3.0690   3.1219   3.1219   3.2807   3.2807   3.4397   3.4397
     3.5314   3.5314   3.6773   3.6773   4.3851   4.3851   4.4860   4.4860
     4.6601   4.6601   4.7569   4.7569   4.8647   4.8647   5.0925   5.0925
     5.2738   5.2738   5.4789   5.4789   5.8709   5.8709   6.0359   6.0359
     6.3467   6.3467   6.4108   6.4108   6.4931   6.4931   6.5469   6.5469
     6.9486   6.9486   7.0642   7.0642   7.1179   7.1179   7.3619   7.3619
     7.3739   7.3739   7.4015   7.4015   7.4438   7.4438   7.9090   7.9090
    10.1446  10.1446  11.1531  11.1531  11.1734  11.1734  11.5225  11.5225
    11.5786  11.5786  11.7550  11.7550  12.6128  12.6128  12.6931  12.6931
    12.7245  12.7245  13.1173  13.1174  13.2223  13.2223  13.3549  13.3549
    14.7177  14.7177  14.9655  14.9655  15.7065  15.7065  16.2790  16.2790
    16.6820  16.6820  17.0157  17.0157  17.6971

          k = 0.0000-0.4888-0.5003 ( 63088 PWs)   bands (ev):

   -66.3643 -66.3643 -66.3643 -66.3643 -66.3637 -66.3637 -66.3637 -66.3637
   -30.7247 -30.7247 -30.7247 -30.7247 -30.6829 -30.6829 -30.6829 -30.6829
   -30.6800 -30.6800 -30.6800 -30.6800 -30.6642 -30.6642 -30.6642 -30.6642
   -30.6555 -30.6555 -30.6555 -30.6555 -30.6322 -30.6322 -30.6322 -30.6322
   -20.5329 -20.5329 -20.5329 -20.5329 -20.5325 -20.5325 -20.5325 -20.5325
   -20.5209 -20.5209 -20.5209 -20.5209 -20.5190 -20.5190 -20.5190 -20.5189
   -20.5100 -20.5100 -20.5100 -20.5100 -20.5089 -20.5089 -20.5089 -20.5089
   -20.5019 -20.5019 -20.5019 -20.5019 -20.4983 -20.4983 -20.4983 -20.4983
   -20.4935 -20.4935 -20.4935 -20.4935 -20.4934 -20.4934 -20.4934 -20.4934
   -20.4901 -20.4901 -20.4901 -20.4901 -20.4895 -20.4895 -20.4895 -20.4895
   -20.4819 -20.4819 -20.4819 -20.4819 -20.4817 -20.4817 -20.4817 -20.4817
    -9.6391  -9.6391  -9.6391  -9.6391  -8.9400  -8.9400  -8.9400  -8.9400
    -8.7582  -8.7582  -8.7581  -8.7581  -8.5143  -8.5143  -8.5143  -8.5142
    -8.4843  -8.4843  -8.4843  -8.4843  -7.9449  -7.9449  -7.9449  -7.9449
     1.1567   1.1567   1.1567   1.1567   2.7069   2.7069   2.7069   2.7069
     2.8097   2.8097   2.8097   2.8097   2.9993   2.9993   2.9993   2.9993
     3.0812   3.0812   3.0812   3.0812   3.2564   3.2564   3.2564   3.2564
     3.3796   3.3796   3.3796   3.3797   4.2389   4.2389   4.2389   4.2389
     4.3061   4.3061   4.3061   4.3062   4.9903   4.9903   4.9903   4.9903
     5.3468   5.3468   5.3468   5.3468   5.9549   5.9549   5.9549   5.9549
     6.3421   6.3421   6.3421   6.3421   6.4722   6.4722   6.4722   6.4722
     7.2590   7.2590   7.2590   7.2591   7.2864   7.2864   7.2864   7.2864
     7.3258   7.3258   7.3258   7.3258   7.6013   7.6013   7.6013   7.6013
    10.9481  10.9482  10.9482  10.9482  11.2010  11.2010  11.2010  11.2010
    12.0737  12.0737  12.0737  12.0737  12.1309  12.1309  12.1309  12.1309
    12.8860  12.8860  12.8860  12.8860  13.2342  13.2342  13.2342  13.2342
    14.8757  14.8757  14.8757  14.8757  16.4055  16.4055  16.4055  16.4055
    17.2851  17.2854  17.2855  17.2856  17.3486

          k = 0.1667 0.0000 0.0000 ( 63017 PWs)   bands (ev):

   -66.3649 -66.3643 -66.3643 -66.3642 -66.3638 -66.3637 -66.3637 -66.3631
   -30.7294 -30.7253 -30.7206 -30.7162 -30.7156 -30.7138 -30.7120 -30.7105
   -30.7086 -30.7008 -30.6984 -30.6920 -30.6560 -30.6529 -30.6450 -30.6445
   -30.6414 -30.6361 -30.6317 -30.6256 -30.6233 -30.6209 -30.6206 -30.6142
   -20.5335 -20.5335 -20.5331 -20.5331 -20.5323 -20.5323 -20.5320 -20.5320
   -20.5213 -20.5212 -20.5204 -20.5203 -20.5196 -20.5194 -20.5187 -20.5186
   -20.5110 -20.5109 -20.5100 -20.5099 -20.5091 -20.5090 -20.5081 -20.5080
   -20.5023 -20.5020 -20.5016 -20.5011 -20.4995 -20.4990 -20.4987 -20.4978
   -20.4964 -20.4963 -20.4962 -20.4958 -20.4919 -20.4914 -20.4913 -20.4908
   -20.4899 -20.4899 -20.4897 -20.4895 -20.4890 -20.4890 -20.4886 -20.4885
   -20.4825 -20.4824 -20.4822 -20.4822 -20.4813 -20.4812 -20.4809 -20.4808
   -10.1125  -9.7845  -9.7266  -9.7177  -9.4275  -9.3491  -9.3211  -9.1013
    -9.0674  -9.0155  -8.9967  -8.9804  -8.1249  -8.0740  -8.0637  -8.0371
    -7.9550  -7.9499  -7.9190  -7.9099  -7.8762  -7.8512  -7.8319  -7.8121
     1.0472   1.0667   1.0795   1.1126   1.1374   1.1874   1.2653   1.2692
     1.4111   1.4657   1.5241   1.6082   2.3247   2.3871   2.3885   2.4244
     2.4617   2.5587   3.9168   3.9330   4.1032   4.1283   4.1714   4.2130
     4.3506   4.3663   4.5637   4.5802   4.7026   4.7044   4.9599   5.1951
     5.3399   5.3642   5.4051   5.4356   5.4588   5.4969   5.5535   5.5902
     5.5920   5.7541   5.7802   5.8050   5.8240   5.9332   5.9684   6.1032
     6.1674   6.2865   6.3208   6.3557   6.4483   6.4745   6.4749   6.5301
     6.5511   6.6888   6.8125   6.8231   6.8248   6.8344   6.8901   6.9107
     6.9913   7.0012   7.9873   8.0064   8.0983   8.1149   8.1660   8.1815
     9.3742   9.3887   9.5490   9.6657   9.8994   9.9961  12.1888  12.1924
    12.3358  12.3806  12.4768  12.5069  12.5564  12.5626  12.6162  12.7397
    13.0631  13.0985  13.3995  13.4663  13.5061  13.6355  13.9359  13.9387
    13.9528  14.0036  14.3515  14.5374  14.5623  14.6868  15.2303  15.4864
    15.7130  16.4658  16.5181  16.9903  17.0431

          k = 0.1667 0.0000 0.1668 ( 63081 PWs)   bands (ev):

   -66.3648 -66.3643 -66.3643 -66.3643 -66.3637 -66.3637 -66.3637 -66.3632
   -30.7292 -30.7256 -30.7195 -30.7154 -30.7149 -30.7115 -30.7090 -30.7077
   -30.7053 -30.6988 -30.6966 -30.6893 -30.6558 -30.6532 -30.6460 -30.6448
   -30.6442 -30.6404 -30.6313 -30.6307 -30.6255 -30.6229 -30.6224 -30.6157
   -20.5334 -20.5334 -20.5330 -20.5330 -20.5324 -20.5324 -20.5321 -20.5320
   -20.5213 -20.5212 -20.5204 -20.5203 -20.5195 -20.5194 -20.5188 -20.5187
   -20.5108 -20.5107 -20.5099 -20.5098 -20.5093 -20.5091 -20.5082 -20.5081
   -20.5023 -20.5020 -20.5016 -20.5012 -20.4995 -20.4991 -20.4986 -20.4979
   -20.4965 -20.4964 -20.4962 -20.4958 -20.4918 -20.4914 -20.4912 -20.4907
   -20.4902 -20.4901 -20.4896 -20.4894 -20.4892 -20.4890 -20.4887 -20.4885
   -20.4824 -20.4823 -20.4821 -20.4821 -20.4814 -20.4812 -20.4810 -20.4809
   -10.0701  -9.7337  -9.7298  -9.6697  -9.3599  -9.3435  -9.3302  -9.0647
    -9.0367  -8.9894  -8.9845  -8.9822  -8.1378  -8.0874  -8.0709  -8.0616
    -8.0572  -8.0462  -8.0168  -7.9952  -7.8879  -7.8545  -7.8486  -7.8153
     1.1164   1.1727   1.1782   1.2502   1.2517   1.2575   1.3630   1.4095
     1.4284   1.4659   1.5958   1.6845   2.3902   2.4064   2.4411   2.4662
     2.5320   2.6407   3.8897   3.8969   4.0591   4.0833   4.2567   4.2602
     4.3061   4.3138   4.3407   4.3892   4.4100   4.4865   4.9584   5.1587
     5.1793   5.2732   5.3372   5.3626   5.4556   5.4849   5.5204   5.5617
     5.5620   5.6211   5.6284   5.7466   5.8020   5.9687   6.0649   6.1105
     6.1895   6.3940   6.4247   6.4362   6.4472   6.4666   6.4736   6.5002
     6.5805   6.5888   6.6321   6.7448   6.7998   6.8551   6.8831   6.9152
     6.9471   6.9587   7.9895   8.0013   8.0437   8.0567   8.1095   8.1285
     9.6418   9.6497   9.8434   9.8975   9.9933   9.9964  12.2448  12.2458
    12.3130  12.3326  12.3937  12.4508  12.5330  12.5398  12.6395  12.7515
    12.8531  12.8790  13.4184  13.4257  13.4609  13.5608  13.8046  13.8539
    14.1162  14.1835  14.4309  14.6858  14.6877  14.7995  15.4502  15.6501
    15.6950  16.6087  16.6510  16.7134  17.2535

          k = 0.1667 0.0000 0.3335 ( 63104 PWs)   bands (ev):

   -66.3647 -66.3644 -66.3642 -66.3641 -66.3638 -66.3638 -66.3636 -66.3633
   -30.7285 -30.7263 -30.7180 -30.7157 -30.7133 -30.7100 -30.7062 -30.7002
   -30.6942 -30.6912 -30.6843 -30.6793 -30.6575 -30.6552 -30.6539 -30.6522
   -30.6514 -30.6442 -30.6432 -30.6354 -30.6302 -30.6259 -30.6220 -30.6184
   -20.5332 -20.5332 -20.5328 -20.5328 -20.5326 -20.5326 -20.5323 -20.5323
   -20.5211 -20.5210 -20.5206 -20.5205 -20.5193 -20.5192 -20.5189 -20.5188
   -20.5105 -20.5104 -20.5096 -20.5095 -20.5094 -20.5094 -20.5086 -20.5084
   -20.5022 -20.5020 -20.5015 -20.5012 -20.4994 -20.4991 -20.4985 -20.4981
   -20.4965 -20.4964 -20.4961 -20.4959 -20.4916 -20.4913 -20.4908 -20.4907
   -20.4905 -20.4902 -20.4896 -20.4894 -20.4892 -20.4890 -20.4890 -20.4886
   -20.4822 -20.4821 -20.4819 -20.4819 -20.4816 -20.4814 -20.4813 -20.4812
    -9.9670  -9.7775  -9.5988  -9.5421  -9.3955  -9.3609  -9.1055  -9.0100
    -8.9885  -8.9204  -8.9002  -8.8733  -8.3736  -8.3481  -8.3413  -8.3209
    -8.0947  -8.0736  -8.0557  -8.0322  -7.8858  -7.8635  -7.8462  -7.8240
     1.1296   1.1610   1.2069   1.2406   1.3939   1.4087   1.4247   1.4617
     2.0345   2.0534   2.1370   2.1722   2.3966   2.4387   2.6322   2.6640
     2.7842   2.8806   3.5927   3.6545   3.7832   3.8405   3.9227   3.9504
     4.0149   4.0640   4.3318   4.3488   4.4042   4.5366   4.5774   4.6481
     4.9339   4.9982   5.0491   5.1189   5.2408   5.2548   5.4888   5.5644
     5.5894   5.6749   5.7181   5.7305   5.7813   5.8184   5.8539   5.9815
     6.1923   6.2772   6.2957   6.3284   6.3530   6.4482   6.4670   6.4983
     6.5752   6.7651   6.7776   6.8034   6.8406   6.8913   7.0547   7.0905
     7.1397   7.2118   7.8484   7.8660   7.9272   7.9420   7.9977   8.0167
     9.9078   9.9656  10.2894  10.3019  10.6105  10.6637  11.7880  11.8066
    12.2497  12.2837  12.4175  12.4348  12.5317  12.5405  12.5757  12.6670
    12.6708  12.7997  13.1322  13.1443  13.4363  13.4785  13.4809  13.5229
    14.3514  14.4471  14.7012  15.1096  15.1428  15.3089  15.3430  15.6373
    16.1504  16.6756  17.0079  17.0291  17.1315

          k = 0.1667 0.0000-0.5003 ( 63030 PWs)   bands (ev):

   -66.3645 -66.3645 -66.3640 -66.3640 -66.3640 -66.3640 -66.3634 -66.3634
   -30.7274 -30.7274 -30.7168 -30.7168 -30.7115 -30.7115 -30.7024 -30.7024
   -30.6753 -30.6753 -30.6721 -30.6721 -30.6667 -30.6667 -30.6622 -30.6622
   -30.6541 -30.6541 -30.6411 -30.6411 -30.6285 -30.6285 -30.6205 -30.6205
   -20.5329 -20.5329 -20.5329 -20.5329 -20.5325 -20.5325 -20.5325 -20.5325
   -20.5208 -20.5208 -20.5207 -20.5207 -20.5191 -20.5191 -20.5190 -20.5190
   -20.5100 -20.5100 -20.5099 -20.5099 -20.5090 -20.5090 -20.5089 -20.5089
   -20.5021 -20.5021 -20.5014 -20.5014 -20.4993 -20.4993 -20.4983 -20.4983
   -20.4965 -20.4965 -20.4961 -20.4961 -20.4912 -20.4912 -20.4910 -20.4910
   -20.4902 -20.4901 -20.4897 -20.4897 -20.4891 -20.4891 -20.4888 -20.4888
   -20.4819 -20.4819 -20.4817 -20.4817 -20.4817 -20.4817 -20.4816 -20.4816
    -9.8570  -9.8570  -9.4717  -9.4717  -9.4263  -9.4263  -8.9965  -8.9965
    -8.7547  -8.7547  -8.6778  -8.6778  -8.6611  -8.6610  -8.6413  -8.6413
    -8.0854  -8.0854  -8.0457  -8.0457  -7.8753  -7.8753  -7.8356  -7.8356
     1.1432   1.1432   1.2231   1.2231   1.4100   1.4100   1.4542   1.4542
     2.4016   2.4016   2.7037   2.7038   2.7577   2.7577   2.9333   2.9333
     2.9719   2.9719   3.1980   3.1980   3.3820   3.3820   3.7334   3.7334
     3.7520   3.7520   4.0380   4.0380   4.3376   4.3376   4.7965   4.7965
     4.8851   4.8851   4.9365   4.9365   5.1161   5.1161   5.5408   5.5408
     5.6382   5.6382   5.6809   5.6809   5.7803   5.7803   5.9050   5.9050
     6.1387   6.1387   6.2026   6.2026   6.4329   6.4329   6.4600   6.4600
     6.6745   6.6745   6.8039   6.8039   6.8353   6.8353   7.5167   7.5167
     7.5264   7.5264   7.6059   7.6059   7.6280   7.6280   8.0042   8.0042
     9.9417   9.9417  11.0575  11.0575  11.0775  11.0775  11.4643  11.4643
    11.4986  11.4986  12.5330  12.5330  12.6186  12.6186  12.7269  12.7269
    12.8107  12.8107  13.0186  13.0186  13.0529  13.0529  13.5020  13.5020
    14.4239  14.4239  15.1143  15.1143  15.4654  15.4654  15.5855  15.5855
    16.2410  16.2410  17.3859  17.3859  17.5894

          k = 0.1667 0.1629 0.0000 ( 63109 PWs)   bands (ev):

   -66.3648 -66.3644 -66.3643 -66.3642 -66.3638 -66.3637 -66.3636 -66.3632
   -30.7278 -30.7237 -30.7207 -30.7157 -30.7140 -30.7130 -30.7120 -30.7102
   -30.7041 -30.6991 -30.6951 -30.6894 -30.6578 -30.6548 -30.6448 -30.6441
   -30.6441 -30.6372 -30.6364 -30.6265 -30.6257 -30.6224 -30.6209 -30.6159
   -20.5335 -20.5335 -20.5331 -20.5331 -20.5323 -20.5323 -20.5320 -20.5320
   -20.5213 -20.5212 -20.5204 -20.5203 -20.5196 -20.5195 -20.5187 -20.5186
   -20.5110 -20.5109 -20.5100 -20.5099 -20.5091 -20.5090 -20.5081 -20.5080
   -20.5023 -20.5019 -20.5016 -20.5012 -20.4994 -20.4989 -20.4987 -20.4979
   -20.4961 -20.4959 -20.4958 -20.4955 -20.4919 -20.4915 -20.4913 -20.4908
   -20.4904 -20.4903 -20.4901 -20.4899 -20.4890 -20.4890 -20.4886 -20.4885
   -20.4825 -20.4824 -20.4822 -20.4822 -20.4813 -20.4812 -20.4810 -20.4809
   -10.0730  -9.7412  -9.7386  -9.6698  -9.4376  -9.3320  -9.2673  -9.0977
    -9.0693  -8.9765  -8.9538  -8.9461  -8.1440  -8.0865  -8.0696  -8.0567
    -7.9924  -7.9917  -7.9537  -7.9509  -7.9266  -7.9140  -7.9081  -7.8701
     1.0644   1.0665   1.1044   1.1130   1.3176   1.3332   1.4058   1.4876
     1.4921   1.5316   1.5755   1.7045   2.3974   2.4491   2.4531   2.4682
     2.5229   2.5580   3.7499   3.7745   3.8726   3.9416   4.1453   4.2065
     4.3696   4.4003   4.5430   4.5800   4.7518   4.7656   4.7704   5.0983
     5.1127   5.2217   5.2310   5.3722   5.4070   5.4177   5.4493   5.5712
     5.6376   5.7636   5.8270   5.8516   5.8969   5.9160   5.9754   6.0941
     6.1047   6.2456   6.2893   6.3164   6.4381   6.5252   6.5681   6.5823
     6.5946   6.7327   6.7590   6.8092   6.8288   6.8296   6.8893   6.8986
     6.9199   6.9611   7.9350   7.9554   8.0783   8.0883   8.0983   8.1212
     9.3892   9.3893   9.7674   9.8631  10.0933  10.1827  12.1260  12.1840
    12.2186  12.2384  12.3528  12.3612  12.5239  12.5307  12.6567  12.7674
    13.0914  13.1273  13.4206  13.4628  13.5665  13.6375  13.8542  13.9065
    14.0501  14.1704  14.3809  14.5592  14.6422  14.8840  15.2070  15.6799
    15.8952  16.1881  16.6991  17.1577  17.2331

          k = 0.1667 0.1629 0.1668 ( 63088 PWs)   bands (ev):

   -66.3648 -66.3643 -66.3642 -66.3642 -66.3638 -66.3637 -66.3637 -66.3632
   -30.7276 -30.7240 -30.7197 -30.7153 -30.7124 -30.7102 -30.7076 -30.7051
   -30.7044 -30.6958 -30.6953 -30.6872 -30.6576 -30.6551 -30.6470 -30.6458
   -30.6438 -30.6411 -30.6360 -30.6308 -30.6262 -30.6254 -30.6249 -30.6179
   -20.5334 -20.5334 -20.5330 -20.5330 -20.5324 -20.5324 -20.5321 -20.5320
   -20.5212 -20.5212 -20.5204 -20.5204 -20.5195 -20.5194 -20.5188 -20.5187
   -20.5108 -20.5107 -20.5099 -20.5098 -20.5092 -20.5091 -20.5082 -20.5081
   -20.5022 -20.5019 -20.5016 -20.5012 -20.4994 -20.4989 -20.4987 -20.4979
   -20.4961 -20.4960 -20.4958 -20.4955 -20.4919 -20.4915 -20.4912 -20.4907
   -20.4905 -20.4904 -20.4900 -20.4898 -20.4892 -20.4891 -20.4887 -20.4886
   -20.4824 -20.4824 -20.4821 -20.4821 -20.4814 -20.4812 -20.4811 -20.4810
   -10.0291  -9.6885  -9.6809  -9.6808  -9.3541  -9.3413  -9.2779  -9.0627
    -9.0384  -8.9504  -8.9483  -8.9455  -8.1633  -8.0904  -8.0852  -8.0714
    -8.0655  -8.0540  -8.0160  -8.0033  -7.9727  -7.9499  -7.9448  -7.9213
     1.2465   1.2484   1.3059   1.3279   1.3355   1.3646   1.4076   1.4870
     1.5407   1.5717   1.5977   1.7577   2.4633   2.4808   2.5042   2.5383
     2.5576   2.6366   3.7450   3.7629   3.8817   3.9041   4.2326   4.2565
     4.2721   4.2856   4.3803   4.3982   4.4662   4.5357   4.7679   5.0647
     5.0823   5.1708   5.1868   5.2035   5.2962   5.4070   5.4172   5.4276
     5.4670   5.5815   5.8100   5.8378   5.8775   5.9217   6.0354   6.0518
     6.2313   6.2929   6.2966   6.4032   6.4382   6.5195   6.5497   6.5789
     6.6282   6.6623   6.6908   6.7718   6.8142   6.8274   6.8727   6.9006
     6.9427   6.9846   7.9375   7.9496   8.0301   8.0357   8.0433   8.0679
     9.6482   9.6512  10.0260  10.0750  10.1638  10.1796  12.1946  12.2395
    12.2749  12.2891  12.3103  12.3314  12.3742  12.3903  12.6803  12.7733
    12.8835  12.9079  13.4065  13.4269  13.5138  13.5627  13.7081  13.7522
    14.2649  14.4375  14.5555  14.6832  14.7103  14.9809  15.6191  15.6632
    15.8639  16.3226  16.8068  16.8511  17.1881

          k = 0.1667 0.1629 0.3335 ( 63085 PWs)   bands (ev):

   -66.3647 -66.3644 -66.3642 -66.3641 -66.3639 -66.3638 -66.3636 -66.3633
   -30.7268 -30.7247 -30.7184 -30.7160 -30.7093 -30.7056 -30.7039 -30.6970
   -30.6942 -30.6911 -30.6840 -30.6783 -30.6588 -30.6569 -30.6555 -30.6523
   -30.6514 -30.6442 -30.6427 -30.6352 -30.6348 -30.6295 -30.6251 -30.6211
   -20.5332 -20.5332 -20.5328 -20.5328 -20.5326 -20.5326 -20.5323 -20.5323
   -20.5211 -20.5210 -20.5206 -20.5205 -20.5193 -20.5192 -20.5189 -20.5188
   -20.5105 -20.5104 -20.5096 -20.5095 -20.5094 -20.5094 -20.5086 -20.5084
   -20.5022 -20.5020 -20.5015 -20.5013 -20.4993 -20.4990 -20.4985 -20.4981
   -20.4961 -20.4960 -20.4958 -20.4956 -20.4917 -20.4914 -20.4910 -20.4909
   -20.4907 -20.4902 -20.4898 -20.4896 -20.4894 -20.4892 -20.4891 -20.4887
   -20.4822 -20.4821 -20.4820 -20.4819 -20.4816 -20.4814 -20.4813 -20.4812
    -9.9222  -9.7280  -9.5574  -9.5378  -9.3729  -9.3152  -9.1162  -8.9899
    -8.9551  -8.9224  -8.8790  -8.8507  -8.3888  -8.3499  -8.3451  -8.3176
    -8.1003  -8.0856  -8.0609  -8.0422  -7.9774  -7.9590  -7.9537  -7.9336
     1.3124   1.3235   1.3875   1.4023   1.4470   1.4563   1.5244   1.5633
     2.0339   2.0629   2.1356   2.1866   2.4704   2.5102   2.6996   2.7327
     2.8018   2.8748   3.5708   3.5885   3.7754   3.8059   3.8440   3.9093
     3.9626   4.0186   4.3264   4.3810   4.4003   4.5270   4.5669   4.6239
     4.7388   4.7977   4.9099   4.9604   5.0549   5.1171   5.2598   5.4418
     5.4548   5.6078   5.6368   5.7556   5.7734   5.8048   5.8473   5.8684
     6.1476   6.3438   6.3622   6.4158   6.4565   6.5389   6.5486   6.5669
     6.6181   6.7764   6.8074   6.8116   6.8272   6.9308   7.0495   7.0965
     7.1397   7.2104   7.8479   7.8557   7.8725   7.8840   7.9459   7.9686
    10.0883  10.1477  10.2908  10.3176  10.7141  10.7687  11.7891  11.8056
    12.2674  12.3213  12.3618  12.3963  12.4210  12.4245  12.4739  12.5244
    12.7084  12.7877  13.1292  13.1440  13.3271  13.3627  13.5016  13.5273
    14.4986  14.5849  15.0354  15.1348  15.2585  15.3529  15.6095  15.7499
    16.2856  16.6433  16.7620  17.0790  17.1482

          k = 0.1667 0.1629-0.5003 ( 63030 PWs)   bands (ev):

   -66.3645 -66.3645 -66.3640 -66.3640 -66.3640 -66.3639 -66.3635 -66.3635
   -30.7258 -30.7258 -30.7171 -30.7171 -30.7072 -30.7072 -30.6995 -30.6995
   -30.6756 -30.6756 -30.6723 -30.6723 -30.6667 -30.6667 -30.6620 -30.6620
   -30.6557 -30.6557 -30.6406 -30.6406 -30.6328 -30.6328 -30.6235 -30.6235
   -20.5329 -20.5329 -20.5329 -20.5329 -20.5325 -20.5325 -20.5325 -20.5325
   -20.5208 -20.5208 -20.5207 -20.5207 -20.5191 -20.5191 -20.5190 -20.5190
   -20.5100 -20.5100 -20.5099 -20.5099 -20.5090 -20.5090 -20.5089 -20.5089
   -20.5021 -20.5021 -20.5014 -20.5014 -20.4991 -20.4991 -20.4983 -20.4983
   -20.4961 -20.4961 -20.4957 -20.4957 -20.4914 -20.4914 -20.4912 -20.4912
   -20.4901 -20.4901 -20.4897 -20.4897 -20.4894 -20.4894 -20.4890 -20.4890
   -20.4819 -20.4819 -20.4817 -20.4817 -20.4817 -20.4817 -20.4816 -20.4816
    -9.8089  -9.8089  -9.4401  -9.4401  -9.3973  -9.3973  -8.9649  -8.9649
    -8.7665  -8.7665  -8.6820  -8.6820  -8.6546  -8.6546  -8.6324  -8.6324
    -8.0943  -8.0943  -8.0543  -8.0543  -7.9692  -7.9692  -7.9447  -7.9447
     1.3181   1.3181   1.4022   1.4022   1.4570   1.4570   1.5545   1.5545
     2.4726   2.4726   2.7322   2.7322   2.7911   2.7911   2.9231   2.9231
     2.9660   2.9660   3.2100   3.2101   3.3711   3.3711   3.7551   3.7551
     3.8026   3.8026   3.8963   3.8963   4.3458   4.3458   4.6600   4.6600
     4.7526   4.7526   4.8449   4.8449   4.8996   4.8996   5.3880   5.3880
     5.5176   5.5176   5.5595   5.5595   5.6710   5.6710   5.8553   5.8553
     6.2831   6.2831   6.3951   6.3951   6.4935   6.4935   6.5289   6.5289
     6.6677   6.6677   6.8073   6.8073   6.8683   6.8683   7.5174   7.5174
     7.5229   7.5229   7.5784   7.5784   7.5991   7.5991   7.9527   7.9527
    10.1291  10.1291  11.0582  11.0582  11.0778  11.0778  11.5258  11.5258
    11.5643  11.5643  12.3689  12.3689  12.6327  12.6327  12.7192  12.7192
    12.8057  12.8057  12.8976  12.8976  12.9354  12.9354  13.5147  13.5147
    14.5638  14.5638  15.4423  15.4423  15.4975  15.4975  15.7306  15.7306
    16.3119  16.3119  17.2346  17.2347  17.5471

          k = 0.1667 0.3258 0.0000 ( 63135 PWs)   bands (ev):

   -66.3647 -66.3645 -66.3642 -66.3641 -66.3639 -66.3638 -66.3635 -66.3633
   -30.7249 -30.7218 -30.7201 -30.7159 -30.7135 -30.7121 -30.7097 -30.7097
   -30.6920 -30.6910 -30.6847 -30.6806 -30.6645 -30.6622 -30.6538 -30.6491
   -30.6438 -30.6427 -30.6398 -30.6336 -30.6260 -30.6251 -30.6210 -30.6189
   -20.5335 -20.5335 -20.5331 -20.5331 -20.5323 -20.5323 -20.5320 -20.5320
   -20.5213 -20.5212 -20.5204 -20.5203 -20.5195 -20.5195 -20.5187 -20.5186
   -20.5109 -20.5109 -20.5100 -20.5099 -20.5091 -20.5090 -20.5081 -20.5080
   -20.5021 -20.5018 -20.5017 -20.5013 -20.4992 -20.4988 -20.4985 -20.4980
   -20.4949 -20.4948 -20.4948 -20.4945 -20.4922 -20.4921 -20.4916 -20.4916
   -20.4913 -20.4910 -20.4907 -20.4905 -20.4891 -20.4890 -20.4886 -20.4885
   -20.4825 -20.4825 -20.4822 -20.4822 -20.4813 -20.4811 -20.4811 -20.4810
    -9.9758  -9.7867  -9.6360  -9.5523  -9.4707  -9.3674  -9.0908  -9.0748
    -9.0355  -8.8433  -8.8247  -8.8136  -8.3490  -8.2779  -8.2711  -8.2397
    -8.0823  -8.0688  -8.0344  -8.0178  -7.9475  -7.9305  -7.9031  -7.8869
     1.0666   1.0667   1.1132   1.1137   1.3942   1.4063   1.4844   1.5166
     2.0707   2.1719   2.2081   2.3128   2.4616   2.5127   2.6595   2.6947
     2.7154   2.7329   3.3566   3.3599   3.4783   3.4955   3.9395   4.1619
     4.1686   4.2697   4.3144   4.5095   4.5548   4.5948   4.6695   4.7052
     4.9113   4.9601   5.1037   5.2260   5.2452   5.2961   5.4554   5.4777
     5.5374   5.5809   5.6256   5.8246   5.8399   5.9138   5.9901   6.0627
     6.1402   6.2339   6.2822   6.4095   6.5394   6.6089   6.6942   6.7360
     6.7682   6.7877   6.8190   6.8201   6.8362   6.8753   6.9160   6.9750
     7.0097   7.0499   7.7426   7.7615   7.8205   7.8362   8.1021   8.1127
     9.3944   9.3992  10.3278  10.3987  10.6021  10.6690  11.6881  11.7396
    11.8982  11.9160  12.2017  12.2125  12.5222  12.5276  12.7795  12.8763
    13.1704  13.2289  13.2851  13.3323  13.5960  13.6015  13.6505  13.6828
    14.3231  14.3899  14.6121  14.6606  15.0121  15.1224  15.5301  15.5755
    15.6564  16.9008  16.9797  17.1721  17.3204

          k = 0.1667 0.3258 0.1668 ( 63118 PWs)   bands (ev):

   -66.3647 -66.3644 -66.3641 -66.3641 -66.3639 -66.3638 -66.3636 -66.3633
   -30.7246 -30.7212 -30.7201 -30.7162 -30.7095 -30.7076 -30.7059 -30.7047
   -30.6923 -30.6895 -30.6853 -30.6792 -30.6641 -30.6627 -30.6553 -30.6486
   -30.6451 -30.6428 -30.6420 -30.6332 -30.6309 -30.6289 -30.6252 -30.6219
   -20.5334 -20.5334 -20.5330 -20.5330 -20.5324 -20.5324 -20.5321 -20.5320
   -20.5212 -20.5212 -20.5204 -20.5204 -20.5195 -20.5194 -20.5188 -20.5187
   -20.5108 -20.5108 -20.5098 -20.5098 -20.5092 -20.5091 -20.5082 -20.5081
   -20.5021 -20.5018 -20.5017 -20.5013 -20.4991 -20.4988 -20.4986 -20.4981
   -20.4950 -20.4949 -20.4948 -20.4946 -20.4922 -20.4921 -20.4917 -20.4916
   -20.4912 -20.4908 -20.4906 -20.4903 -20.4892 -20.4892 -20.4887 -20.4887
   -20.4824 -20.4824 -20.4822 -20.4822 -20.4813 -20.4812 -20.4812 -20.4810
    -9.9280  -9.7330  -9.5683  -9.5641  -9.3882  -9.3774  -9.0582  -9.0464
    -9.0434  -8.8285  -8.8266  -8.8076  -8.3629  -8.2826  -8.2762  -8.2433
    -8.0808  -8.0799  -8.0519  -8.0461  -8.0347  -8.0218  -8.0076  -7.9912
     1.2474   1.2487   1.3551   1.3614   1.3966   1.4084   1.5484   1.5895
     2.0753   2.1698   2.1990   2.3039   2.5442   2.5910   2.7087   2.7311
     2.7478   2.7877   3.3770   3.3922   3.4846   3.4914   3.9300   4.2029
     4.2300   4.2457   4.2752   4.2863   4.3319   4.5759   4.6036   4.6765
     4.7152   4.7276   5.0632   5.0994   5.2044   5.2244   5.2732   5.2925
     5.4624   5.4778   5.5591   5.5968   5.6434   5.6784   6.0615   6.0750
     6.3211   6.3642   6.4018   6.5188   6.5383   6.5980   6.6222   6.6894
     6.7549   6.7756   6.8557   6.8679   6.8830   6.9248   6.9365   6.9718
     7.0332   7.0701   7.7446   7.7540   7.7914   7.8077   8.0445   8.0561
     9.6524   9.6573  10.5087  10.5605  10.6362  10.6656  11.7742  11.8237
    11.9052  11.9153  12.2515  12.2666  12.3330  12.3387  12.8043  12.8800
    12.9876  13.0163  13.2830  13.3284  13.4372  13.4793  13.5169  13.5443
    14.6331  14.6413  14.7220  14.9404  15.0222  15.5236  15.5586  15.6150
    15.7874  16.8660  17.0574  17.2193  17.2411

          k = 0.1667 0.3258 0.3335 ( 63086 PWs)   bands (ev):

   -66.3646 -66.3643 -66.3643 -66.3640 -66.3640 -66.3637 -66.3637 -66.3634
   -30.7237 -30.7215 -30.7193 -30.7170 -30.7007 -30.6979 -30.6945 -30.6934
   -30.6911 -30.6873 -30.6820 -30.6736 -30.6650 -30.6633 -30.6611 -30.6522
   -30.6516 -30.6469 -30.6440 -30.6411 -30.6373 -30.6341 -30.6321 -30.6270
   -20.5332 -20.5332 -20.5328 -20.5328 -20.5326 -20.5326 -20.5323 -20.5323
   -20.5210 -20.5210 -20.5206 -20.5205 -20.5193 -20.5193 -20.5189 -20.5188
   -20.5105 -20.5104 -20.5095 -20.5095 -20.5094 -20.5094 -20.5085 -20.5085
   -20.5020 -20.5018 -20.5016 -20.5014 -20.4990 -20.4987 -20.4986 -20.4982
   -20.4950 -20.4949 -20.4948 -20.4947 -20.4922 -20.4921 -20.4919 -20.4918
   -20.4907 -20.4904 -20.4902 -20.4899 -20.4896 -20.4895 -20.4891 -20.4890
   -20.4822 -20.4821 -20.4820 -20.4819 -20.4816 -20.4814 -20.4814 -20.4813
    -9.8121  -9.6102  -9.6043  -9.4123  -9.3876  -9.1538  -9.0892  -8.9579
    -8.9297  -8.8381  -8.7766  -8.7639  -8.4846  -8.4018  -8.3357  -8.3068
    -8.2725  -8.2527  -8.2099  -8.1832  -8.0689  -8.0523  -8.0420  -8.0276
     1.3778   1.3860   1.3964   1.4070   1.9340   1.9888   2.0299   2.0916
     2.1290   2.1929   2.2301   2.3650   2.6816   2.7198   2.7866   2.8663
     2.9490   2.9698   3.3664   3.3895   3.4706   3.5069   3.7531   3.7734
     3.9188   4.1244   4.1769   4.1945   4.2524   4.3799   4.3973   4.5479
     4.5854   4.6421   4.6726   4.7384   4.7717   4.8181   4.9955   5.0746
     5.1475   5.2239   5.3142   5.4939   5.5232   5.6357   5.7854   5.7937
     6.3903   6.4925   6.5209   6.5901   6.6564   6.6776   6.7087   6.7708
     6.7916   6.8922   6.9085   6.9523   6.9796   7.0318   7.0862   7.1208
     7.1754   7.2011   7.6876   7.6935   7.7324   7.7583   7.8618   7.8886
    10.2737  10.2884  10.6201  10.6555  11.0309  11.0872  11.7716  11.7985
    11.9013  11.9409  12.0613  12.1038  12.4096  12.4362  12.4579  12.4928
    12.8242  12.8744  13.0126  13.0677  13.1332  13.1734  13.3549  13.3866
    14.8287  14.9597  15.1101  15.4157  15.5306  15.7307  15.8966  16.2489
    16.5221  16.6627  16.7420  17.3137  17.3725

          k = 0.1667 0.3258-0.5003 ( 63056 PWs)   bands (ev):

   -66.3644 -66.3644 -66.3641 -66.3641 -66.3639 -66.3639 -66.3636 -66.3636
   -30.7226 -30.7226 -30.7181 -30.7181 -30.6958 -30.6958 -30.6909 -30.6909
   -30.6770 -30.6770 -30.6736 -30.6736 -30.6667 -30.6667 -30.6609 -30.6609
   -30.6605 -30.6605 -30.6437 -30.6437 -30.6390 -30.6390 -30.6302 -30.6302
   -20.5329 -20.5329 -20.5329 -20.5329 -20.5325 -20.5325 -20.5325 -20.5325
   -20.5208 -20.5208 -20.5208 -20.5208 -20.5191 -20.5191 -20.5191 -20.5191
   -20.5100 -20.5100 -20.5099 -20.5099 -20.5090 -20.5090 -20.5089 -20.5089
   -20.5019 -20.5019 -20.5015 -20.5015 -20.4989 -20.4989 -20.4984 -20.4984
   -20.4950 -20.4950 -20.4948 -20.4948 -20.4921 -20.4921 -20.4920 -20.4920
   -20.4901 -20.4901 -20.4899 -20.4899 -20.4896 -20.4896 -20.4894 -20.4894
   -20.4819 -20.4819 -20.4818 -20.4818 -20.4817 -20.4817 -20.4816 -20.4816
    -9.6916  -9.6916  -9.4844  -9.4844  -9.1964  -9.1964  -8.8659  -8.8659
    -8.8147  -8.8147  -8.6974  -8.6974  -8.6263  -8.6263  -8.5968  -8.5968
    -8.2662  -8.2662  -8.2292  -8.2292  -8.0569  -8.0569  -8.0395  -8.0395
     1.3920   1.3920   1.4049   1.4049   2.0776   2.0776   2.1812   2.1812
     2.6658   2.6658   2.8148   2.8148   2.8792   2.8792   2.8927   2.8928
     2.9526   2.9526   3.2378   3.2378   3.3348   3.3348   3.4954   3.4954
     3.9242   3.9242   3.9415   3.9415   3.9720   3.9720   4.2004   4.2004
     4.6220   4.6220   4.7585   4.7585   4.7941   4.7941   4.8587   4.8587
     4.9388   4.9388   5.3910   5.3910   5.5741   5.5741   5.6558   5.6558
     6.5047   6.5047   6.5716   6.5716   6.6394   6.6394   6.7137   6.7137
     6.8709   6.8710   6.9400   6.9400   7.0567   7.0567   7.4682   7.4683
     7.4800   7.4800   7.5099   7.5099   7.5459   7.5459   7.7761   7.7761
    10.6149  10.6149  11.0574  11.0574  11.0854  11.0854  11.7183  11.7183
    11.7685  11.7685  11.9370  11.9370  12.4823  12.4823  12.5364  12.5364
    12.7037  12.7037  12.7561  12.7561  12.9354  12.9354  13.3648  13.3648
    14.9185  14.9185  15.3634  15.3634  16.1169  16.1169  16.4033  16.4033
    16.6295  16.6295  16.8604  16.8604  17.5790

          k = 0.1667-0.4888 0.0000 ( 63128 PWs)   bands (ev):

   -66.3646 -66.3646 -66.3640 -66.3640 -66.3640 -66.3640 -66.3634 -66.3634
   -30.7228 -30.7228 -30.7176 -30.7176 -30.7125 -30.7125 -30.7092 -30.7092
   -30.6771 -30.6771 -30.6760 -30.6760 -30.6692 -30.6692 -30.6656 -30.6656
   -30.6424 -30.6424 -30.6393 -30.6393 -30.6261 -30.6260 -30.6205 -30.6205
   -20.5335 -20.5335 -20.5331 -20.5331 -20.5323 -20.5323 -20.5320 -20.5320
   -20.5213 -20.5213 -20.5203 -20.5203 -20.5195 -20.5195 -20.5187 -20.5187
   -20.5109 -20.5109 -20.5100 -20.5099 -20.5091 -20.5090 -20.5080 -20.5080
   -20.5019 -20.5019 -20.5015 -20.5015 -20.4990 -20.4990 -20.4982 -20.4982
   -20.4934 -20.4934 -20.4934 -20.4934 -20.4932 -20.4932 -20.4931 -20.4931
   -20.4914 -20.4914 -20.4907 -20.4907 -20.4890 -20.4890 -20.4886 -20.4886
   -20.4825 -20.4825 -20.4823 -20.4822 -20.4812 -20.4812 -20.4811 -20.4811
    -9.8683  -9.8683  -9.5354  -9.5354  -9.4385  -9.4385  -9.0825  -9.0825
    -8.6999  -8.6999  -8.5961  -8.5961  -8.5861  -8.5861  -8.5637  -8.5637
    -8.0794  -8.0794  -8.0308  -8.0308  -7.9397  -7.9397  -7.8958  -7.8958
     1.0667   1.0667   1.1143   1.1143   1.4031   1.4031   1.5089   1.5089
     2.4874   2.4874   2.8219   2.8219   2.8953   2.8953   2.9142   2.9142
     3.0213   3.0213   3.1066   3.1066   3.3008   3.3008   3.3551   3.3551
     3.4899   3.4899   4.1796   4.1796   4.5401   4.5401   4.8886   4.8886
     4.9689   4.9689   5.1260   5.1260   5.2480   5.2480   5.3247   5.3247
     5.4899   5.4899   5.5968   5.5968   5.8614   5.8614   6.0472   6.0472
     6.2696   6.2696   6.3093   6.3093   6.5440   6.5440   6.7015   6.7015
     6.7864   6.7864   6.8237   6.8237   6.8987   6.8987   7.3864   7.3864
     7.4046   7.4046   7.4264   7.4264   7.4372   7.4372   8.1074   8.1074
     9.3991   9.3991  11.0293  11.0293  11.0725  11.0725  11.2575  11.2575
    11.3211  11.3211  12.2067  12.2067  12.5250  12.5250  12.9734  12.9734
    13.1072  13.1072  13.3877  13.3877  13.4163  13.4163  13.6138  13.6138
    14.3842  14.3842  14.9418  14.9418  15.0975  15.0975  15.3656  15.3656
    16.3587  16.3587  17.5321  17.5322  17.6447

          k = 0.1667-0.4888 0.1668 ( 63132 PWs)   bands (ev):

   -66.3646 -66.3645 -66.3640 -66.3640 -66.3640 -66.3640 -66.3634 -66.3634
   -30.7222 -30.7222 -30.7179 -30.7179 -30.7080 -30.7080 -30.7045 -30.7044
   -30.6768 -30.6767 -30.6762 -30.6761 -30.6701 -30.6700 -30.6649 -30.6649
   -30.6441 -30.6441 -30.6391 -30.6390 -30.6307 -30.6306 -30.6244 -30.6243
   -20.5334 -20.5334 -20.5330 -20.5330 -20.5324 -20.5324 -20.5321 -20.5320
   -20.5212 -20.5212 -20.5204 -20.5204 -20.5194 -20.5194 -20.5187 -20.5187
   -20.5108 -20.5108 -20.5098 -20.5098 -20.5092 -20.5092 -20.5082 -20.5082
   -20.5019 -20.5019 -20.5015 -20.5015 -20.4989 -20.4989 -20.4983 -20.4983
   -20.4935 -20.4935 -20.4934 -20.4934 -20.4933 -20.4932 -20.4931 -20.4931
   -20.4912 -20.4912 -20.4906 -20.4906 -20.4892 -20.4892 -20.4887 -20.4887
   -20.4824 -20.4824 -20.4822 -20.4822 -20.4813 -20.4813 -20.4811 -20.4811
    -9.8167  -9.8167  -9.4575  -9.4569  -9.4499  -9.4494  -9.0505  -9.0505
    -8.7119  -8.7117  -8.5924  -8.5922  -8.5895  -8.5894  -8.5614  -8.5613
    -8.0823  -8.0820  -8.0531  -8.0489  -8.0395  -8.0340  -8.0021  -8.0003
     1.2475   1.2483   1.3601   1.3614   1.4052   1.4053   1.5804   1.5807
     2.5672   2.5705   2.8287   2.8370   2.8945   2.8962   2.9239   2.9248
     3.0608   3.0641   3.1010   3.1024   3.3319   3.3458   3.3499   3.3606
     3.5067   3.5071   4.2376   4.2448   4.2623   4.2730   4.8283   4.8750
     4.8916   4.9214   4.9692   4.9953   5.0088   5.0163   5.2859   5.3020
[...]
    11.8015  11.8015  11.8015  11.8015  11.8665  11.8665  11.8665  11.8665
    12.8493  12.8493  12.8493  12.8493  12.9803  12.9803  12.9803  12.9803
    15.2775  15.2775  15.2775  15.2775  16.4526  16.4526  16.4526  16.4526
    17.3397  17.3398  17.3399  17.3400  17.3924

          k =-0.5000 0.3258 0.0000 ( 63042 PWs)   bands (ev):

   -66.3645 -66.3644 -66.3642 -66.3642 -66.3638 -66.3638 -66.3635 -66.3635
   -30.7119 -30.7119 -30.7117 -30.7117 -30.7015 -30.7015 -30.6999 -30.6999
   -30.6885 -30.6885 -30.6859 -30.6858 -30.6707 -30.6707 -30.6674 -30.6674
   -30.6502 -30.6502 -30.6445 -30.6445 -30.6240 -30.6240 -30.6227 -30.6227
   -20.5333 -20.5333 -20.5333 -20.5333 -20.5321 -20.5321 -20.5321 -20.5321
   -20.5204 -20.5204 -20.5203 -20.5203 -20.5195 -20.5195 -20.5195 -20.5195
   -20.5105 -20.5105 -20.5104 -20.5104 -20.5086 -20.5086 -20.5085 -20.5085
   -20.5008 -20.5007 -20.5004 -20.5004 -20.5002 -20.5002 -20.4998 -20.4998
   -20.4948 -20.4948 -20.4947 -20.4946 -20.4921 -20.4921 -20.4916 -20.4916
   -20.4910 -20.4910 -20.4907 -20.4907 -20.4888 -20.4888 -20.4888 -20.4887
   -20.4824 -20.4824 -20.4823 -20.4823 -20.4812 -20.4812 -20.4810 -20.4810
    -9.7571  -9.7571  -9.5700  -9.5700  -9.1871  -9.1871  -8.8938  -8.8938
    -8.7989  -8.7989  -8.7096  -8.7096  -8.6338  -8.6338  -8.6003  -8.6003
    -8.2612  -8.2612  -8.2227  -8.2227  -7.9260  -7.9260  -7.9092  -7.9092
     1.1095   1.1095   1.1142   1.1142   2.0726   2.0726   2.1952   2.1952
     2.6617   2.6617   2.7740   2.7740   2.8769   2.8769   2.9098   2.9098
     2.9797   2.9798   3.1908   3.1908   3.2053   3.2053   3.4048   3.4048
     3.8870   3.8870   3.9038   3.9038   4.0503   4.0503   4.2446   4.2446
     4.7362   4.7362   4.8326   4.8326   4.9179   4.9179   5.0476   5.0476
     5.1662   5.1662   5.6775   5.6775   5.9671   5.9671   5.9889   5.9889
     6.2914   6.2914   6.3622   6.3622   6.4142   6.4142   6.6690   6.6690
     6.8370   6.8370   6.9098   6.9098   6.9965   6.9965   7.4576   7.4576
     7.4764   7.4764   7.5207   7.5207   7.5491   7.5491   7.8457   7.8457
    10.3463  10.3463  10.9247  10.9247  10.9415  10.9415  11.6325  11.6325
    11.7359  11.7359  11.8485  11.8485  12.5422  12.5422  12.5911  12.5911
    12.9439  12.9439  12.9627  12.9627  13.2316  13.2316  13.6665  13.6665
    14.5180  14.5180  14.9355  14.9355  16.0312  16.0312  16.3589  16.3589
    16.4961  16.4961  16.8165  16.8165  17.6606

          k =-0.5000 0.3258 0.1668 ( 63074 PWs)   bands (ev):

   -66.3644 -66.3644 -66.3641 -66.3641 -66.3639 -66.3639 -66.3636 -66.3636
   -30.7083 -30.7083 -30.7069 -30.7069 -30.7003 -30.7003 -30.6997 -30.6997
   -30.6883 -30.6883 -30.6860 -30.6860 -30.6713 -30.6713 -30.6668 -30.6667
   -30.6521 -30.6520 -30.6440 -30.6440 -30.6289 -30.6289 -30.6265 -30.6265
   -20.5332 -20.5332 -20.5332 -20.5332 -20.5322 -20.5322 -20.5322 -20.5322
   -20.5203 -20.5203 -20.5203 -20.5203 -20.5196 -20.5196 -20.5195 -20.5195
   -20.5103 -20.5103 -20.5103 -20.5103 -20.5087 -20.5087 -20.5086 -20.5086
   -20.5007 -20.5007 -20.5004 -20.5004 -20.5002 -20.5002 -20.4998 -20.4998
   -20.4949 -20.4948 -20.4947 -20.4947 -20.4921 -20.4921 -20.4917 -20.4917
   -20.4909 -20.4909 -20.4905 -20.4905 -20.4890 -20.4890 -20.4889 -20.4889
   -20.4823 -20.4823 -20.4823 -20.4823 -20.4813 -20.4813 -20.4811 -20.4811
    -9.6942  -9.6942  -9.4934  -9.4934  -9.2013  -9.2013  -8.8731  -8.8730
    -8.8107  -8.8107  -8.7008  -8.7008  -8.6312  -8.6312  -8.6028  -8.6028
    -8.2647  -8.2647  -8.2270  -8.2270  -8.0384  -8.0384  -8.0162  -8.0162
     1.3553   1.3553   1.3648   1.3648   2.0775   2.0775   2.1808   2.1808
     2.7281   2.7281   2.7866   2.7866   2.8595   2.8595   2.9154   2.9154
     2.9748   2.9748   3.2678   3.2678   3.2976   3.2976   3.4436   3.4437
     3.8812   3.8812   3.9102   3.9102   4.0432   4.0432   4.2481   4.2481
     4.6221   4.6221   4.7077   4.7077   4.8164   4.8164   4.8706   4.8706
     4.9163   4.9164   5.4077   5.4077   5.5828   5.5828   5.6910   5.6910
     6.5209   6.5209   6.6169   6.6169   6.6670   6.6670   6.7310   6.7310
     6.8373   6.8373   6.9115   6.9115   7.0393   7.0393   7.4509   7.4509
     7.4720   7.4720   7.5195   7.5195   7.5404   7.5404   7.8170   7.8170
    10.5277  10.5277  11.0139  11.0139  11.0358  11.0358  11.6695  11.6695
    11.7493  11.7493  11.8935  11.8935  12.5366  12.5366  12.5874  12.5874
    12.7757  12.7757  12.8169  12.8169  13.0321  13.0321  13.4962  13.4962
    14.8651  14.8651  15.3301  15.3301  16.1216  16.1216  16.3585  16.3585
    16.5381  16.5382  16.8696  16.8697  17.5313

          k =-0.5000 0.3258 0.3335 ( 63052 PWs)   bands (ev):

   -66.3643 -66.3643 -66.3640 -66.3640 -66.3640 -66.3640 -66.3637 -66.3637
   -30.7040 -30.7040 -30.7011 -30.7011 -30.6936 -30.6936 -30.6917 -30.6917
   -30.6874 -30.6874 -30.6861 -30.6861 -30.6735 -30.6735 -30.6641 -30.6641
   -30.6595 -30.6595 -30.6427 -30.6427 -30.6416 -30.6416 -30.6343 -30.6343
   -20.5330 -20.5330 -20.5330 -20.5330 -20.5324 -20.5324 -20.5324 -20.5324
   -20.5202 -20.5202 -20.5201 -20.5201 -20.5197 -20.5197 -20.5197 -20.5197
   -20.5100 -20.5100 -20.5099 -20.5099 -20.5090 -20.5090 -20.5090 -20.5090
   -20.5006 -20.5006 -20.5004 -20.5004 -20.5002 -20.5002 -20.4999 -20.4999
   -20.4949 -20.4949 -20.4948 -20.4948 -20.4922 -20.4921 -20.4918 -20.4918
   -20.4904 -20.4904 -20.4901 -20.4901 -20.4893 -20.4893 -20.4892 -20.4892
   -20.4821 -20.4821 -20.4820 -20.4820 -20.4815 -20.4815 -20.4813 -20.4813
    -9.5342  -9.5341  -9.2854  -9.2854  -9.2507  -9.2506  -8.8703  -8.8702
    -8.7864  -8.7864  -8.6681  -8.6681  -8.6237  -8.6237  -8.6092  -8.6092
    -8.3544  -8.3544  -8.3098  -8.3098  -8.2328  -8.2328  -8.1910  -8.1910
     1.9402   1.9402   2.0278   2.0279   2.0948   2.0948   2.2113   2.2113
     2.7665   2.7665   2.8190   2.8190   2.9148   2.9148   2.9368   2.9368
     2.9838   2.9838   3.3779   3.3779   3.5327   3.5327   3.5768   3.5768
     3.8549   3.8549   3.9336   3.9337   4.0157   4.0157   4.1584   4.1584
     4.1842   4.1842   4.3745   4.3745   4.4717   4.4717   4.7214   4.7214
     4.7511   4.7511   4.7929   4.7929   4.9240   4.9240   5.2102   5.2102
     6.7441   6.7441   6.8040   6.8040   6.8346   6.8346   6.9002   6.9003
     7.0283   7.0283   7.0705   7.0705   7.1913   7.1913   7.4138   7.4138
     7.4501   7.4501   7.5055   7.5055   7.5327   7.5327   7.7268   7.7268
    11.0176  11.0176  11.2888  11.2888  11.3290  11.3290  11.7054  11.7054
    11.7799  11.7799  12.0999  12.0999  12.3160  12.3160  12.3352  12.3352
    12.5049  12.5049  12.6072  12.6072  12.6157  12.6157  13.0709  13.0709
    15.6348  15.6348  16.2284  16.2284  16.3442  16.3442  16.4015  16.4015
    16.7452  16.7452  17.0030  17.0030  17.1425

          k =-0.5000 0.3258-0.5003 ( 63020 PWs)   bands (ev):

   -66.3641 -66.3641 -66.3641 -66.3641 -66.3639 -66.3639 -66.3639 -66.3638
   -30.7022 -30.7022 -30.7022 -30.7022 -30.6878 -30.6878 -30.6878 -30.6877
   -30.6794 -30.6793 -30.6793 -30.6793 -30.6747 -30.6747 -30.6746 -30.6746
   -30.6561 -30.6561 -30.6561 -30.6561 -30.6398 -30.6398 -30.6398 -30.6398
   -20.5328 -20.5327 -20.5327 -20.5327 -20.5327 -20.5327 -20.5327 -20.5327
   -20.5200 -20.5200 -20.5200 -20.5199 -20.5199 -20.5199 -20.5199 -20.5199
   -20.5095 -20.5095 -20.5095 -20.5095 -20.5094 -20.5094 -20.5094 -20.5094
   -20.5005 -20.5005 -20.5005 -20.5005 -20.5001 -20.5001 -20.5001 -20.5001
   -20.4949 -20.4949 -20.4948 -20.4948 -20.4921 -20.4920 -20.4920 -20.4920
   -20.4899 -20.4899 -20.4899 -20.4899 -20.4896 -20.4896 -20.4896 -20.4896
   -20.4818 -20.4818 -20.4818 -20.4818 -20.4817 -20.4817 -20.4817 -20.4817
    -9.3616  -9.3616  -9.3616  -9.3616  -9.0259  -9.0259  -9.0259  -9.0259
    -8.6389  -8.6389  -8.6389  -8.6389  -8.5823  -8.5823  -8.5822  -8.5822
    -8.5644  -8.5644  -8.5644  -8.5644  -8.2242  -8.2242  -8.2242  -8.2242
     2.0870   2.0870   2.0870   2.0871   2.6864   2.6864   2.6864   2.6864
     2.8105   2.8105   2.8105   2.8105   2.8869   2.8869   2.8869   2.8869
     3.0517   3.0517   3.0517   3.0517   3.7837   3.7837   3.7837   3.7837
     3.8600   3.8600   3.8600   3.8600   3.9814   3.9814   3.9814   3.9814
     4.0723   4.0723   4.0723   4.0723   4.2213   4.2213   4.2213   4.2213
     4.6048   4.6048   4.6048   4.6048   4.9591   4.9591   4.9591   4.9591
     6.8173   6.8173   6.8173   6.8173   6.8718   6.8718   6.8718   6.8718
     7.2624   7.2624   7.2624   7.2624   7.3540   7.3540   7.3540   7.3540
     7.4180   7.4180   7.4180   7.4180   7.5948   7.5948   7.5948   7.5948
    11.5626  11.5626  11.5626  11.5626  11.7191  11.7191  11.7191  11.7191
    11.8535  11.8535  11.8535  11.8535  11.9336  11.9336  11.9336  11.9336
    12.5070  12.5070  12.5070  12.5070  12.6457  12.6457  12.6457  12.6457
    16.1610  16.1610  16.1610  16.1610  16.6792  16.6792  16.6792  16.6792
    17.1460  17.1460  17.1460  17.1460  17.3975

          k =-0.5000-0.4888 0.0000 ( 63068 PWs)   bands (ev):

   -66.3643 -66.3643 -66.3643 -66.3643 -66.3637 -66.3637 -66.3637 -66.3637
   -30.7113 -30.7113 -30.7113 -30.7113 -30.6949 -30.6949 -30.6931 -30.6931
   -30.6913 -30.6913 -30.6892 -30.6892 -30.6631 -30.6631 -30.6612 -30.6612
   -30.6590 -30.6590 -30.6569 -30.6569 -30.6240 -30.6240 -30.6238 -30.6238
   -20.5333 -20.5333 -20.5333 -20.5333 -20.5321 -20.5321 -20.5321 -20.5321
   -20.5204 -20.5204 -20.5204 -20.5204 -20.5195 -20.5195 -20.5195 -20.5195
   -20.5104 -20.5104 -20.5104 -20.5104 -20.5086 -20.5085 -20.5085 -20.5085
   -20.5006 -20.5006 -20.5005 -20.5005 -20.5001 -20.5001 -20.4999 -20.4999
   -20.4934 -20.4934 -20.4933 -20.4933 -20.4931 -20.4931 -20.4931 -20.4931
   -20.4911 -20.4911 -20.4909 -20.4909 -20.4888 -20.4888 -20.4888 -20.4888
   -20.4824 -20.4824 -20.4823 -20.4823 -20.4811 -20.4811 -20.4811 -20.4811
    -9.6507  -9.6507  -9.6422  -9.6422  -8.9638  -8.9638  -8.9229  -8.9229
    -8.7776  -8.7776  -8.7456  -8.7456  -8.5414  -8.5414  -8.5132  -8.5131
    -8.4882  -8.4882  -8.4632  -8.4632  -7.9186  -7.9186  -7.9182  -7.9182
     1.1104   1.1104   1.1149   1.1149   2.7096   2.7096   2.7684   2.7684
     2.8092   2.8092   2.8099   2.8099   2.9524   2.9524   3.0128   3.0128
     3.0523   3.0523   3.1749   3.1749   3.2144   3.2144   3.2360   3.2360
     3.2718   3.2718   3.5228   3.5228   4.1696   4.1696   4.2397   4.2397
     4.2551   4.2551   4.3239   4.3239   4.9815   4.9815   5.0246   5.0246
     5.3061   5.3061   5.4170   5.4171   5.9725   5.9725   5.9807   5.9807
     6.3620   6.3620   6.3819   6.3819   6.4812   6.4812   6.5212   6.5212
     7.1069   7.1069   7.1566   7.1566   7.2985   7.2985   7.3176   7.3176
     7.3897   7.3897   7.4353   7.4353   7.5823   7.5823   7.6071   7.6071
    10.8429  10.8429  10.9246  10.9246  11.0530  11.0530  11.1487  11.1487
    11.9685  11.9685  12.0864  12.0864  12.2091  12.2091  12.2491  12.2491
    12.9409  12.9409  12.9606  12.9606  13.4116  13.4116  13.4244  13.4244
    14.7812  14.7812  14.8034  14.8034  16.3212  16.3213  16.4703  16.4704
    17.1659  17.1659  17.2299  17.2300  17.2905

          k =-0.5000-0.4888 0.1668 ( 63088 PWs)   bands (ev):

   -66.3643 -66.3643 -66.3643 -66.3643 -66.3637 -66.3637 -66.3637 -66.3637
   -30.7066 -30.7066 -30.7065 -30.7065 -30.6946 -30.6946 -30.6928 -30.6928
   -30.6914 -30.6914 -30.6894 -30.6894 -30.6641 -30.6641 -30.6622 -30.6622
   -30.6584 -30.6584 -30.6563 -30.6563 -30.6286 -30.6286 -30.6284 -30.6284
   -20.5332 -20.5332 -20.5332 -20.5332 -20.5322 -20.5322 -20.5322 -20.5322
   -20.5203 -20.5203 -20.5203 -20.5203 -20.5196 -20.5196 -20.5195 -20.5195
   -20.5103 -20.5103 -20.5103 -20.5103 -20.5087 -20.5087 -20.5087 -20.5087
   -20.5006 -20.5006 -20.5005 -20.5005 -20.5001 -20.5001 -20.4999 -20.4999
   -20.4935 -20.4935 -20.4934 -20.4934 -20.4932 -20.4932 -20.4931 -20.4931
   -20.4909 -20.4909 -20.4908 -20.4908 -20.4890 -20.4890 -20.4889 -20.4889
   -20.4823 -20.4823 -20.4823 -20.4823 -20.4812 -20.4812 -20.4812 -20.4812
    -9.5795  -9.5795  -9.5698  -9.5698  -8.9785  -8.9785  -8.9385  -8.9385
    -8.7638  -8.7638  -8.7325  -8.7325  -8.5394  -8.5394  -8.5156  -8.5156
    -8.4859  -8.4859  -8.4661  -8.4661  -8.0301  -8.0301  -8.0295  -8.0295
     1.3597   1.3597   1.3650   1.3650   2.7178   2.7178   2.7733   2.7733
     2.7936   2.7936   2.8068   2.8068   2.9592   2.9592   3.0055   3.0055
     3.1134   3.1134   3.2002   3.2002   3.2536   3.2536   3.2949   3.2949
     3.3338   3.3338   3.5560   3.5560   4.1733   4.1734   4.2312   4.2312
     4.2580   4.2580   4.3142   4.3142   4.7390   4.7390   4.7951   4.7951
     5.0374   5.0374   5.1352   5.1352   5.6000   5.6000   5.6042   5.6042
     6.6053   6.6053   6.6366   6.6366   6.6818   6.6818   6.7210   6.7210
     7.1035   7.1035   7.1640   7.1640   7.2958   7.2958   7.3183   7.3183
     7.3817   7.3817   7.4387   7.4387   7.5629   7.5629   7.6004   7.6004
    10.9439  10.9439  11.0157  11.0157  11.1709  11.1709  11.2608  11.2608
    11.9781  11.9781  12.0867  12.0867  12.2133  12.2133  12.2444  12.2444
    12.7709  12.7709  12.8079  12.8079  13.2193  13.2193  13.2419  13.2419
    15.1700  15.1700  15.1845  15.1845  16.4052  16.4052  16.5470  16.5470
    17.1575  17.1575  17.2236  17.2236  17.2825

          k =-0.5000-0.4888 0.3335 ( 63072 PWs)   bands (ev):

   -66.3642 -66.3642 -66.3642 -66.3641 -66.3638 -66.3638 -66.3638 -66.3638
   -30.6961 -30.6961 -30.6950 -30.6950 -30.6934 -30.6934 -30.6914 -30.6914
   -30.6900 -30.6900 -30.6895 -30.6895 -30.6679 -30.6678 -30.6662 -30.6662
   -30.6563 -30.6563 -30.6544 -30.6543 -30.6401 -30.6401 -30.6395 -30.6395
   -20.5330 -20.5330 -20.5330 -20.5330 -20.5324 -20.5324 -20.5324 -20.5324
   -20.5202 -20.5202 -20.5201 -20.5201 -20.5197 -20.5197 -20.5197 -20.5197
   -20.5099 -20.5099 -20.5099 -20.5099 -20.5090 -20.5090 -20.5090 -20.5090
   -20.5005 -20.5005 -20.5004 -20.5004 -20.5002 -20.5001 -20.5000 -20.5000
   -20.4935 -20.4935 -20.4934 -20.4934 -20.4933 -20.4933 -20.4932 -20.4932
   -20.4905 -20.4905 -20.4903 -20.4903 -20.4894 -20.4893 -20.4892 -20.4892
   -20.4821 -20.4821 -20.4820 -20.4820 -20.4814 -20.4814 -20.4814 -20.4814
    -9.3906  -9.3906  -9.3762  -9.3762  -9.0347  -9.0347  -8.9987  -8.9986
    -8.7115  -8.7115  -8.6842  -8.6842  -8.5348  -8.5348  -8.5224  -8.5224
    -8.4807  -8.4806  -8.4754  -8.4754  -8.2920  -8.2920  -8.2903  -8.2903
     2.0106   2.0106   2.0220   2.0220   2.7373   2.7373   2.7640   2.7640
     2.7796   2.7796   2.8005   2.8006   2.9825   2.9825   3.0158   3.0159
     3.1457   3.1457   3.2346   3.2346   3.3594   3.3594   3.3729   3.3729
     3.5841   3.5841   3.6962   3.6962   4.1688   4.1688   4.1921   4.1921
     4.2346   4.2346   4.2571   4.2571   4.3503   4.3503   4.3985   4.3985
     4.5574   4.5574   4.6631   4.6631   4.8365   4.8365   4.8443   4.8443
     6.8973   6.8973   6.9639   6.9639   6.9881   6.9881   7.0209   7.0209
     7.1064   7.1064   7.1911   7.1911   7.2661   7.2661   7.3494   7.3494
     7.3628   7.3628   7.4492   7.4492   7.5205   7.5205   7.5669   7.5669
    11.2517  11.2517  11.2927  11.2927  11.5165  11.5165  11.5937  11.5937
    11.9782  11.9782  12.0916  12.0916  12.1833  12.1833  12.2326  12.2326
    12.3444  12.3444  12.4415  12.4415  12.7372  12.7372  12.7688  12.7688
    16.0709  16.0709  16.1197  16.1197  16.6565  16.6565  16.7681  16.7681
    17.0883  17.0883  17.1141  17.1141  17.3046

          k =-0.5000-0.4888-0.5003 ( 63016 PWs)   bands (ev):

   -66.3640 -66.3640 -66.3640 -66.3640 -66.3640 -66.3640 -66.3640 -66.3640
   -30.6937 -30.6937 -30.6937 -30.6937 -30.6916 -30.6916 -30.6916 -30.6915
   -30.6776 -30.6776 -30.6776 -30.6776 -30.6766 -30.6766 -30.6766 -30.6766
   -30.6510 -30.6510 -30.6510 -30.6510 -30.6496 -30.6495 -30.6495 -30.6495
   -20.5328 -20.5327 -20.5327 -20.5327 -20.5327 -20.5327 -20.5327 -20.5327
   -20.5200 -20.5199 -20.5199 -20.5199 -20.5199 -20.5199 -20.5199 -20.5199
   -20.5095 -20.5095 -20.5095 -20.5095 -20.5094 -20.5094 -20.5094 -20.5094
   -20.5004 -20.5004 -20.5004 -20.5004 -20.5002 -20.5001 -20.5001 -20.5001
   -20.4935 -20.4935 -20.4935 -20.4935 -20.4933 -20.4933 -20.4933 -20.4933
   -20.4899 -20.4899 -20.4899 -20.4899 -20.4898 -20.4897 -20.4897 -20.4897
   -20.4818 -20.4818 -20.4817 -20.4817 -20.4817 -20.4817 -20.4817 -20.4817
    -9.1721  -9.1721  -9.1721  -9.1721  -9.1462  -9.1462  -9.1462  -9.1462
    -8.5861  -8.5861  -8.5861  -8.5861  -8.5701  -8.5701  -8.5701  -8.5701
    -8.5005  -8.5005  -8.5005  -8.5005  -8.4600  -8.4600  -8.4599  -8.4599
     2.6208   2.6208   2.6208   2.6208   2.7451   2.7451   2.7451   2.7451
     2.8073   2.8073   2.8073   2.8073   2.9817   2.9817   2.9817   2.9817
     3.1359   3.1359   3.1359   3.1359   3.2771   3.2771   3.2771   3.2771
     3.9782   3.9782   3.9782   3.9782   4.0385   4.0385   4.0385   4.0385
     4.1694   4.1694   4.1694   4.1694   4.2183   4.2183   4.2183   4.2183
     4.3358   4.3358   4.3359   4.3359   4.4089   4.4089   4.4089   4.4089
     7.0205   7.0205   7.0206   7.0206   7.1491   7.1491   7.1491   7.1491
     7.1934   7.1934   7.1934   7.1934   7.2709   7.2709   7.2709   7.2709
     7.4363   7.4363   7.4363   7.4363   7.5056   7.5056   7.5056   7.5056
    11.6684  11.6684  11.6684  11.6684  11.7566  11.7566  11.7566  11.7566
    12.0077  12.0077  12.0077  12.0077  12.1399  12.1399  12.1399  12.1399
    12.2051  12.2051  12.2051  12.2051  12.3121  12.3121  12.3121  12.3121
    16.7359  16.7359  16.7359  16.7359  16.8636  16.8636  16.8636  16.8636
    17.3061  17.3061  17.3062  17.3062  17.3970

     the Fermi energy is     9.0682 ev

!    total energy              =   -6261.01574721 Ry
     Harris-Foulkes estimate   =   -6261.01574721 Ry
     estimated scf accuracy    <          2.1E-09 Ry

     The total energy is the sum of the following terms:

     one-electron contribution =   -4775.23545399 Ry
     hartree contribution      =    2621.93581298 Ry
     xc contribution           =    -965.76613392 Ry
     ewald contribution        =   -3141.94995866 Ry
     smearing contrib. (-TS)   =      -0.00001362 Ry

     convergence has been achieved in  13 iterations

     Writing output data file Landau_23.save/
 
     init_run     :     42.42s CPU     44.09s WALL (       1 calls)
     electrons    :   1857.09s CPU   1880.72s WALL (       1 calls)

     Called by init_run:
     wfcinit      :     38.68s CPU     40.21s WALL (       1 calls)
     potinit      :      1.63s CPU      1.68s WALL (       1 calls)
     hinit0       :      1.84s CPU      1.89s WALL (       1 calls)

     Called by electrons:
     c_bands      :   1620.39s CPU   1641.94s WALL (      13 calls)
     sum_band     :    227.19s CPU    228.25s WALL (      13 calls)
     v_of_rho     :      1.87s CPU      1.93s WALL (      14 calls)
     mix_rho      :      2.86s CPU      3.40s WALL (      13 calls)

     Called by c_bands:
     init_us_2    :     10.40s CPU     10.87s WALL (      54 calls)
     cegterg      :   1238.75s CPU   1259.13s WALL (      26 calls)

     Called by sum_band:

     Called by *egterg:
     h_psi        :    949.70s CPU    959.23s WALL (     134 calls)
     g_psi        :      4.07s CPU      4.08s WALL (     106 calls)
     cdiaghg      :     17.86s CPU     17.91s WALL (     132 calls)

     Called by h_psi:
     h_psi:pot    :    946.71s CPU    950.11s WALL (     134 calls)
     h_psi:calbec :    121.57s CPU    124.04s WALL (     134 calls)
     vloc_psi     :    695.87s CPU    696.41s WALL (     134 calls)
     add_vuspsi   :    129.26s CPU    129.65s WALL (     134 calls)

     General routines
     calbec       :    121.57s CPU    124.04s WALL (     134 calls)
     fft          :      0.82s CPU      0.83s WALL (      42 calls)
     ffts         :      0.26s CPU      0.26s WALL (      13 calls)
     fftw         :    700.53s CPU    700.85s WALL (   33964 calls)
 
     Parallel routines
 
     PWSCF        :  31m51.83s CPU  32m20.49s WALL

 
   This run was terminated on:  23:58:11  21Nov2019            

=------------------------------------------------------------------------------=
   JOB DONE.
=------------------------------------------------------------------------------=
