
     Program PWSCF v.6.2 (svn rev. 14038) starts on  7Mar2020 at 20:18:14 

     This program is part of the open-source Quantum ESPRESSO suite
     for quantum simulation of materials; please cite
         "P. Giannozzi et al., J. Phys.:Condens. Matter 21 395502 (2009);
         "P. Giannozzi et al., J. Phys.:Condens. Matter 29 465901 (2017);
          URL http://www.quantum-espresso.org", 
     in publications or presentations arising from this work. More details at
     http://www.quantum-espresso.org/quote

     Parallel version (MPI), running on    40 processors

     MPI processes distributed on     5 nodes
     K-points division:     npool     =      40
     Reading input from rscf.in

     Current dimensions of program PWSCF are:
     Max number of different atomic species (ntypx) = 10
     Max number of k-points (npk) =  40000
     Max angular momentum in pseudopotentials (lmaxx) =  3

     Subspace diagonalization in iterative solution of the eigenvalue problem:
     a serial algorithm will be used

 
     G-vector sticks info
     --------------------
     sticks:   dense  smooth     PW     G-vecs:    dense   smooth      PW
     Sum        7747    7747   2077               498127   498127   69057
 


     bravais-lattice index     =            0
     lattice parameter (alat)  =      13.8397  a.u.
     unit-cell volume          =    2804.9816 (a.u.)^3
     number of atoms/cell      =           32
     number of atomic types    =            2
     number of electrons       =       368.00
     number of Kohn-Sham states=          221
     kinetic-energy cutoff     =     120.0000  Ry
     charge density cutoff     =     480.0000  Ry
     convergence threshold     =      1.0E-08
     mixing beta               =       0.7000
     number of iterations used =            8  plain     mixing
     Exchange-correlation      = SLA PW NOGX NOGC ( 1  4  0  0 0 0)
     nstep                     =           50


     celldm(1)=  13.839685  celldm(2)=   0.000000  celldm(3)=   0.000000
     celldm(4)=   0.000000  celldm(5)=   0.000000  celldm(6)=   0.000000

     crystal axes: (cart. coord. in units of alat)
               a(1) = (   1.000000   0.000000   0.000000 )  
               a(2) = (   0.000000   1.058160   0.000000 )  
               a(3) = (   0.000000   0.000000   1.000000 )  

     reciprocal axes: (cart. coord. in units 2 pi/alat)
               b(1) = (  1.000000  0.000000  0.000000 )  
               b(2) = (  0.000000  0.945037  0.000000 )  
               b(3) = (  0.000000  0.000000  1.000000 )  


     PseudoPot. # 1 for W  read from file:
     /cluster/scratch/mnoe/QE/pps/W_ONCV_LDA-4.0.upf
     MD5 check sum: ba0307d5d4cd419d6f1d13dc49d7c13a
     Pseudo is Norm-conserving + core correction, Zval = 28.0
     Generated using ONCVPSP code by D. R. Hamann
     Using radial grid of 1380 points,  8 beta functions with: 
                l(1) =   0
                l(2) =   0
                l(3) =   1
                l(4) =   1
                l(5) =   2
                l(6) =   2
                l(7) =   3
                l(8) =   3

     PseudoPot. # 2 for O  read from file:
     /cluster/scratch/mnoe/QE/pps/O_ONCV_LDA-3.0.upf
     MD5 check sum: a1bd6164e7280c17a38c229939bfbd54
     Pseudo is Norm-conserving + core correction, Zval =  6.0
     Generated using ONCVPSP code by D. R. Hamann
     Using radial grid of  926 points,  5 beta functions with: 
                l(1) =   0
                l(2) =   0
                l(3) =   1
                l(4) =   1
                l(5) =   2

     atomic species   valence    mass     pseudopotential
        W             28.00   183.84000     W ( 1.00)
        O              6.00    15.99940     O ( 1.00)

      8 Sym. Ops. (no inversion) found ( 7 have fractional translation)



   Cartesian axes

     site n.     atom                  positions (alat units)
         1           W   tau(   1) = (   0.2513000   0.2965112  -0.9986300  )
         2           W   tau(   2) = (   0.7486300   0.7616489  -0.9987000  )
         3           W   tau(   3) = (   0.2487000   0.2325689  -0.4986300  )
         4           W   tau(   4) = (   0.7513700   0.8255912  -0.4987000  )
         5           W   tau(   5) = (   0.7487000   0.2965112  -0.5013700  )
         6           W   tau(   6) = (   0.2513700   0.7616489  -0.5013000  )
         7           W   tau(   7) = (   0.7512999   0.2325689  -1.0013700  )
         8           W   tau(   8) = (   0.2486300   0.8255912  -1.0013000  )
         9           O   tau(   9) = (   0.2527700   0.0083342  -0.9972400  )
        10           O   tau(  10) = (   0.7472400   1.0498259  -0.9972300  )
        11           O   tau(  11) = (   0.2472300   0.5207459  -0.4972400  )
        12           O   tau(  12) = (   0.7527600   0.5374142  -0.4972300  )
        13           O   tau(  13) = (   0.7472300   0.0083342  -0.5027600  )
        14           O   tau(  14) = (   0.2527600   1.0498259  -0.5027700  )
        15           O   tau(  15) = (   0.7527700   0.5207459  -1.0027600  )
        16           O   tau(  16) = (   0.2472400   0.5374142  -1.0027700  )
        17           O   tau(  17) = (   0.4994199   0.2680425  -0.5465160  )
        18           O   tau(  18) = (   0.5003800   0.7911440  -0.4534840  )
        19           O   tau(  19) = (   0.0005800   0.2610375  -1.0465160  )
        20           O   tau(  20) = (   0.9996200   0.7960961  -0.9534840  )
        21           O   tau(  21) = (   0.5005800   0.2680425  -0.9534840  )
        22           O   tau(  22) = (   0.4996200   0.7911440  -1.0465160  )
        23           O   tau(  23) = (   0.9994200   0.2610375  -0.4534840  )
        24           O   tau(  24) = (   0.0003800   0.7960961  -0.5465160  )
        25           O   tau(  25) = (   0.7034840   0.2620639  -0.2503800  )
        26           O   tau(  26) = (   0.2965160   0.7901176  -0.7505800  )
        27           O   tau(  27) = (   0.7965160   0.2670161  -0.7503800  )
        28           O   tau(  28) = (   0.2034840   0.7971225  -0.2505800  )
        29           O   tau(  29) = (   0.2965160   0.2620639  -1.2496200  )
        30           O   tau(  30) = (   0.7034840   0.7901176  -0.7494199  )
        31           O   tau(  31) = (   0.2034840   0.2670161  -0.7496200  )
        32           O   tau(  32) = (   0.7965160   0.7971225  -1.2494200  )

     number of k points=    40  gaussian smearing, width (Ry)=  0.0007
                       cart. coord. in units 2pi/alat
        k(    1) = (   0.0000000   0.0000000   0.0000000), wk =   0.0092593
        k(    2) = (   0.0000000   0.0000000   0.1666667), wk =   0.0370370
        k(    3) = (   0.0000000   0.0000000   0.3333333), wk =   0.0370370
        k(    4) = (   0.0000000   0.0000000  -0.5000000), wk =   0.0185185
        k(    5) = (   0.0000000   0.1575061   0.0000000), wk =   0.0185185
        k(    6) = (   0.0000000   0.1575061   0.1666667), wk =   0.0740741
        k(    7) = (   0.0000000   0.1575061   0.3333333), wk =   0.0740741
        k(    8) = (   0.0000000   0.1575061  -0.5000000), wk =   0.0370370
        k(    9) = (   0.0000000   0.3150122   0.0000000), wk =   0.0185185
        k(   10) = (   0.0000000   0.3150122   0.1666667), wk =   0.0740741
        k(   11) = (   0.0000000   0.3150122   0.3333333), wk =   0.0740741
        k(   12) = (   0.0000000   0.3150122  -0.5000000), wk =   0.0370370
        k(   13) = (   0.0000000  -0.4725183   0.0000000), wk =   0.0092593
        k(   14) = (   0.0000000  -0.4725183   0.1666667), wk =   0.0370370
        k(   15) = (   0.0000000  -0.4725183   0.3333333), wk =   0.0370370
        k(   16) = (   0.0000000  -0.4725183  -0.5000000), wk =   0.0185185
        k(   17) = (   0.1666667   0.0000000   0.1666667), wk =   0.0370370
        k(   18) = (   0.1666667   0.0000000   0.3333333), wk =   0.0740741
        k(   19) = (   0.1666667   0.0000000  -0.5000000), wk =   0.0370370
        k(   20) = (   0.1666667   0.1575061   0.1666667), wk =   0.0740741
        k(   21) = (   0.1666667   0.1575061   0.3333333), wk =   0.1481481
        k(   22) = (   0.1666667   0.1575061  -0.5000000), wk =   0.0740741
        k(   23) = (   0.1666667   0.3150122   0.1666667), wk =   0.0740741
        k(   24) = (   0.1666667   0.3150122   0.3333333), wk =   0.1481481
        k(   25) = (   0.1666667   0.3150122  -0.5000000), wk =   0.0740741
        k(   26) = (   0.1666667  -0.4725183   0.1666667), wk =   0.0370370
        k(   27) = (   0.1666667  -0.4725183   0.3333333), wk =   0.0740741
        k(   28) = (   0.1666667  -0.4725183  -0.5000000), wk =   0.0370370
        k(   29) = (   0.3333333   0.0000000   0.3333333), wk =   0.0370370
        k(   30) = (   0.3333333   0.0000000  -0.5000000), wk =   0.0370370
        k(   31) = (   0.3333333   0.1575061   0.3333333), wk =   0.0740741
        k(   32) = (   0.3333333   0.1575061  -0.5000000), wk =   0.0740741
        k(   33) = (   0.3333333   0.3150122   0.3333333), wk =   0.0740741
        k(   34) = (   0.3333333   0.3150122  -0.5000000), wk =   0.0740741
        k(   35) = (   0.3333333  -0.4725183   0.3333333), wk =   0.0370370
        k(   36) = (   0.3333333  -0.4725183  -0.5000000), wk =   0.0370370
        k(   37) = (  -0.5000000   0.0000000  -0.5000000), wk =   0.0092593
        k(   38) = (  -0.5000000   0.1575061  -0.5000000), wk =   0.0185185
        k(   39) = (  -0.5000000   0.3150122  -0.5000000), wk =   0.0185185
        k(   40) = (  -0.5000000  -0.4725183  -0.5000000), wk =   0.0092593

     Dense  grid:   498127 G-vectors     FFT dimensions: ( 100, 108, 100)

     Estimated max dynamical RAM per process >       2.74 GB

     Estimated total dynamical RAM >     109.40 GB

     Initial potential from superposition of free atoms

     starting charge  367.99656, renormalised to  368.00000
     Starting wfc are  232 randomized atomic wfcs

     total cpu time spent up to now is       42.1 secs

     Self-consistent Calculation

     iteration #  1     ecut=   120.00 Ry     beta= 0.70
     Davidson diagonalization with overlap
     ethr =  1.00E-02,  avg # of iterations =  5.0

     total cpu time spent up to now is      131.9 secs

     total energy              =   -6254.00744235 Ry
     Harris-Foulkes estimate   =   -6264.58886430 Ry
     estimated scf accuracy    <      13.40489503 Ry

     iteration #  2     ecut=   120.00 Ry     beta= 0.70
     Davidson diagonalization with overlap
     ethr =  3.64E-03,  avg # of iterations =  3.4

     total cpu time spent up to now is      218.3 secs

     total energy              =   -6250.90860680 Ry
     Harris-Foulkes estimate   =   -6270.72346309 Ry
     estimated scf accuracy    <      53.14871407 Ry

     iteration #  3     ecut=   120.00 Ry     beta= 0.70
     Davidson diagonalization with overlap
     ethr =  3.64E-03,  avg # of iterations =  3.5

     total cpu time spent up to now is      299.9 secs

     total energy              =   -6261.08033550 Ry
     Harris-Foulkes estimate   =   -6261.38568272 Ry
     estimated scf accuracy    <       0.99161840 Ry

     iteration #  4     ecut=   120.00 Ry     beta= 0.70
     Davidson diagonalization with overlap
     ethr =  2.69E-04,  avg # of iterations =  3.2

     total cpu time spent up to now is      366.6 secs

     total energy              =   -6261.09517774 Ry
     Harris-Foulkes estimate   =   -6261.16753864 Ry
     estimated scf accuracy    <       0.24864420 Ry

     iteration #  5     ecut=   120.00 Ry     beta= 0.70
     Davidson diagonalization with overlap
     ethr =  6.76E-05,  avg # of iterations =  4.3

     total cpu time spent up to now is      436.3 secs

     total energy              =   -6261.08829543 Ry
     Harris-Foulkes estimate   =   -6261.12425394 Ry
     estimated scf accuracy    <       0.07849392 Ry

     iteration #  6     ecut=   120.00 Ry     beta= 0.70
     Davidson diagonalization with overlap
     ethr =  2.13E-05,  avg # of iterations =  5.5

     total cpu time spent up to now is      512.6 secs

     total energy              =   -6261.10581482 Ry
     Harris-Foulkes estimate   =   -6261.10776011 Ry
     estimated scf accuracy    <       0.00533042 Ry

     iteration #  7     ecut=   120.00 Ry     beta= 0.70
     Davidson diagonalization with overlap
     ethr =  1.45E-06,  avg # of iterations =  5.4

     total cpu time spent up to now is      587.4 secs

     total energy              =   -6261.10645400 Ry
     Harris-Foulkes estimate   =   -6261.10654186 Ry
     estimated scf accuracy    <       0.00018756 Ry

     iteration #  8     ecut=   120.00 Ry     beta= 0.70
     Davidson diagonalization with overlap
     ethr =  5.10E-08,  avg # of iterations =  3.0

     total cpu time spent up to now is      670.9 secs

     total energy              =   -6261.10651429 Ry
     Harris-Foulkes estimate   =   -6261.10651755 Ry
     estimated scf accuracy    <       0.00001409 Ry

     iteration #  9     ecut=   120.00 Ry     beta= 0.70
     Davidson diagonalization with overlap
     ethr =  3.83E-09,  avg # of iterations =  2.0

     total cpu time spent up to now is      741.8 secs

     total energy              =   -6261.10651270 Ry
     Harris-Foulkes estimate   =   -6261.10651594 Ry
     estimated scf accuracy    <       0.00000932 Ry

     iteration # 10     ecut=   120.00 Ry     beta= 0.70
     Davidson diagonalization with overlap
     ethr =  2.53E-09,  avg # of iterations =  2.0

     total cpu time spent up to now is      805.5 secs

     total energy              =   -6261.10651354 Ry
     Harris-Foulkes estimate   =   -6261.10651385 Ry
     estimated scf accuracy    <       0.00000071 Ry

     iteration # 11     ecut=   120.00 Ry     beta= 0.70
     Davidson diagonalization with overlap
     ethr =  1.93E-10,  avg # of iterations =  3.0

     total cpu time spent up to now is      887.1 secs

     total energy              =   -6261.10651372 Ry
     Harris-Foulkes estimate   =   -6261.10651377 Ry
     estimated scf accuracy    <       0.00000013 Ry

     iteration # 12     ecut=   120.00 Ry     beta= 0.70
     Davidson diagonalization with overlap
     ethr =  3.46E-11,  avg # of iterations =  2.3

     total cpu time spent up to now is      958.5 secs

     total energy              =   -6261.10651372 Ry
     Harris-Foulkes estimate   =   -6261.10651373 Ry
     estimated scf accuracy    <       0.00000002 Ry

     iteration # 13     ecut=   120.00 Ry     beta= 0.70
     Davidson diagonalization with overlap
     ethr =  5.87E-12,  avg # of iterations =  2.9

     total cpu time spent up to now is     1041.9 secs

     End of self-consistent calculation

          k = 0.0000 0.0000 0.0000 ( 62239 PWs)   bands (ev):

   -66.1722 -66.1718 -66.1712 -66.1712 -66.1708 -66.1708 -66.1702 -66.1698
   -30.5490 -30.5451 -30.5451 -30.5414 -30.5347 -30.5340 -30.5316 -30.5314
   -30.5289 -30.5289 -30.5261 -30.5261 -30.4890 -30.4862 -30.4862 -30.4835
   -30.4315 -30.4315 -30.4288 -30.4288 -30.4270 -30.4269 -30.4243 -30.4242
   -20.3301 -20.3300 -20.3300 -20.3300 -20.3299 -20.3299 -20.3299 -20.3298
   -20.3109 -20.3105 -20.3105 -20.3102 -20.3065 -20.3064 -20.3061 -20.3061
   -20.3059 -20.3059 -20.3055 -20.3055 -20.3052 -20.3050 -20.3050 -20.3049
   -20.3048 -20.3048 -20.3047 -20.3047 -20.3041 -20.3041 -20.3041 -20.3038
   -20.2984 -20.2983 -20.2979 -20.2979 -20.2978 -20.2976 -20.2974 -20.2974
   -20.2960 -20.2959 -20.2957 -20.2957 -20.2955 -20.2955 -20.2953 -20.2951
   -20.2899 -20.2899 -20.2893 -20.2893 -20.2892 -20.2892 -20.2887 -20.2887
    -9.9832  -9.7329  -9.5418  -9.5418  -9.3181  -9.3181  -9.1190  -9.1060
    -9.0338  -8.8650  -8.8550  -8.8550  -7.8158  -7.7866  -7.7850  -7.7611
    -7.7600  -7.7540  -7.7540  -7.7014  -7.6489  -7.6489  -7.6270  -7.6270
     1.0766   1.0769   1.1857   1.1857   1.1977   1.1977   1.3423   1.5441
     1.6451   1.6451   1.6500   1.8158   2.3276   2.4027   2.5704   2.5709
     2.7141   2.7141   4.1354   4.1354   4.3107   4.3117   4.7468   4.7468
     4.7774   4.7774   4.8805   4.8874   5.0380   5.0380   5.0522   5.4847
     5.4857   5.5021   5.5021   5.5415   5.5415   5.5732   5.5732   5.8708
     5.8708   5.8837   5.8847   5.8885   5.9927   6.0337   6.0377   6.1046
     6.1049   6.2624   6.2639   6.5105   6.5105   6.8391   6.8492   6.8492
     6.8811   6.8812   6.9926   7.0345   7.0770   7.0770   7.3380   7.3380
     7.3692   7.3692   7.8405   7.8544   8.0880   8.0880   8.1595   8.1615
     9.1940   9.1947   9.9088   9.9117   9.9327   9.9327  12.2806  12.2806
    12.3106  12.3106  12.3757  12.3757  12.4695  12.4697  13.0011  13.0206
    13.2320  13.2515  13.3917  13.3917  13.8036  14.1513  14.1513  14.1604
    14.1713  14.3569  14.3569  14.8963  15.4378  15.4477  15.4492  16.1232
    16.1232  16.9155  17.1307  17.1307  17.4946

          k = 0.0000 0.0000 0.1667 ( 62262 PWs)   bands (ev):

   -66.1722 -66.1718 -66.1713 -66.1712 -66.1709 -66.1708 -66.1703 -66.1699
   -30.5491 -30.5454 -30.5454 -30.5417 -30.5340 -30.5311 -30.5293 -30.5279
   -30.5264 -30.5243 -30.5224 -30.5189 -30.4884 -30.4867 -30.4857 -30.4840
   -30.4382 -30.4356 -30.4336 -30.4312 -30.4310 -30.4285 -30.4272 -30.4245
   -20.3301 -20.3300 -20.3300 -20.3300 -20.3299 -20.3299 -20.3299 -20.3298
   -20.3109 -20.3106 -20.3105 -20.3103 -20.3064 -20.3063 -20.3061 -20.3060
   -20.3059 -20.3058 -20.3055 -20.3054 -20.3051 -20.3051 -20.3050 -20.3049
   -20.3049 -20.3048 -20.3047 -20.3047 -20.3042 -20.3041 -20.3041 -20.3038
   -20.2983 -20.2980 -20.2979 -20.2977 -20.2976 -20.2974 -20.2974 -20.2972
   -20.2958 -20.2956 -20.2956 -20.2956 -20.2954 -20.2954 -20.2953 -20.2952
   -20.2903 -20.2898 -20.2898 -20.2897 -20.2893 -20.2893 -20.2892 -20.2887
    -9.9343  -9.6785  -9.5579  -9.4714  -9.3312  -9.2259  -9.0780  -9.0629
    -9.0427  -8.8593  -8.8552  -8.8310  -7.9141  -7.8972  -7.8203  -7.7855
    -7.7755  -7.7597  -7.7578  -7.7520  -7.7475  -7.7049  -7.6577  -7.6358
     1.1653   1.1712   1.1890   1.2033   1.4112   1.4224   1.4648   1.6371
     1.6425   1.6877   1.7211   1.9199   2.4162   2.4940   2.5797   2.6602
     2.7055   2.8017   4.0827   4.1389   4.2971   4.3102   4.3349   4.3950
     4.6743   4.7590   4.8213   4.8361   4.8773   5.0279   5.0313   5.2802
     5.3223   5.4514   5.4850   5.5272   5.5896   5.6125   5.6252   5.6279
     5.7187   5.8324   5.8634   5.9197   6.0061   6.0849   6.0993   6.1041
     6.2791   6.3954   6.4753   6.5000   6.7137   6.7490   6.8067   6.8168
     6.8345   6.8735   6.9632   6.9891   7.0206   7.0861   7.0981   7.1035
     7.1557   7.2138   7.8449   7.8485   8.0478   8.1085   8.1169   8.1613
     9.5559   9.5826   9.9109   9.9309  10.1834  10.2217  12.2229  12.2560
    12.2683  12.3508  12.3660  12.3956  12.4718  12.5716  12.9830  13.0053
    13.0844  13.2358  13.3003  13.3913  13.9134  14.0276  14.0280  14.1498
    14.1660  14.3513  14.4722  15.0123  15.4139  15.4816  15.5121  16.0959
    16.4489  16.8519  17.0871  17.3294  17.5457

          k = 0.0000 0.0000 0.3333 ( 62268 PWs)   bands (ev):

   -66.1720 -66.1716 -66.1715 -66.1711 -66.1710 -66.1706 -66.1705 -66.1701
   -30.5487 -30.5464 -30.5450 -30.5427 -30.5330 -30.5303 -30.5301 -30.5274
   -30.5105 -30.5066 -30.5045 -30.5002 -30.4881 -30.4861 -30.4856 -30.4839
   -30.4562 -30.4542 -30.4517 -30.4494 -30.4303 -30.4280 -30.4276 -30.4254
   -20.3301 -20.3300 -20.3300 -20.3300 -20.3299 -20.3299 -20.3299 -20.3298
   -20.3108 -20.3107 -20.3105 -20.3104 -20.3064 -20.3062 -20.3060 -20.3058
   -20.3057 -20.3056 -20.3056 -20.3053 -20.3052 -20.3051 -20.3051 -20.3049
   -20.3049 -20.3049 -20.3048 -20.3047 -20.3044 -20.3043 -20.3040 -20.3039
   -20.2982 -20.2980 -20.2977 -20.2975 -20.2971 -20.2970 -20.2969 -20.2967
   -20.2961 -20.2959 -20.2957 -20.2957 -20.2946 -20.2946 -20.2944 -20.2942
   -20.2916 -20.2911 -20.2910 -20.2906 -20.2897 -20.2893 -20.2892 -20.2889
    -9.8171  -9.6077  -9.5553  -9.3712  -9.3014  -9.0741  -8.9687  -8.9623
    -8.9089  -8.8721  -8.7993  -8.7325  -8.2288  -8.2268  -8.1358  -8.1179
    -7.7947  -7.7680  -7.7506  -7.7388  -7.7270  -7.7143  -7.6821  -7.6598
     1.1976   1.2088   1.2177   1.2342   1.5591   1.5871   1.6206   1.6264
     2.1801   2.2222   2.3830   2.4646   2.6040   2.6742   2.6898   2.7613
     2.9038   3.0323   3.6912   3.7734   3.8492   3.9450   4.1764   4.2296
     4.2535   4.4550   4.5269   4.7678   4.8288   4.8425   4.8955   4.9671
     5.0968   5.1205   5.1614   5.3508   5.4219   5.4470   5.6539   5.7037
     5.7732   5.7922   5.8322   5.9781   6.0321   6.1485   6.2418   6.2760
     6.2891   6.4086   6.4673   6.5451   6.5760   6.5818   6.6352   6.7176
     6.8057   6.8663   6.8722   6.9696   6.9983   7.0445   7.0801   7.0884
     7.3067   7.3453   7.7575   7.7787   7.9235   7.9764   8.1446   8.1626
     9.9125   9.9259  10.3021  10.3607  10.8216  10.9121  11.8246  11.8638
    12.0821  12.4745  12.4849  12.5093  12.5322  12.5895  12.6795  12.8378
    12.9914  13.1385  13.1776  13.3961  13.6677  13.6856  14.1130  14.1457
    14.2055  14.3333  14.7880  15.3052  15.3056  15.6534  15.9354  16.0113
    16.3006  17.3221  17.4515  17.6333  17.6895

          k = 0.0000 0.0000-0.5000 ( 62264 PWs)   bands (ev):

   -66.1717 -66.1717 -66.1713 -66.1713 -66.1707 -66.1707 -66.1703 -66.1703
   -30.5476 -30.5476 -30.5440 -30.5440 -30.5317 -30.5317 -30.5288 -30.5288
   -30.4917 -30.4917 -30.4913 -30.4913 -30.4794 -30.4794 -30.4776 -30.4776
   -30.4745 -30.4745 -30.4741 -30.4741 -30.4292 -30.4292 -30.4265 -30.4265
   -20.3300 -20.3300 -20.3300 -20.3299 -20.3299 -20.3299 -20.3299 -20.3299
   -20.3108 -20.3108 -20.3105 -20.3105 -20.3063 -20.3063 -20.3057 -20.3057
   -20.3056 -20.3056 -20.3054 -20.3054 -20.3053 -20.3053 -20.3051 -20.3051
   -20.3048 -20.3048 -20.3046 -20.3046 -20.3046 -20.3045 -20.3040 -20.3039
   -20.2981 -20.2981 -20.2976 -20.2976 -20.2966 -20.2966 -20.2964 -20.2964
   -20.2963 -20.2963 -20.2962 -20.2962 -20.2932 -20.2932 -20.2929 -20.2929
   -20.2927 -20.2927 -20.2924 -20.2924 -20.2895 -20.2895 -20.2890 -20.2890
    -9.6952  -9.6952  -9.4431  -9.4431  -9.1492  -9.1492  -8.8972  -8.8972
    -8.6117  -8.6117  -8.5764  -8.5764  -8.5715  -8.5715  -8.4868  -8.4868
    -7.7818  -7.7818  -7.7274  -7.7274  -7.7154  -7.7154  -7.6931  -7.6931
     1.2073   1.2073   1.2336   1.2336   1.6011   1.6011   1.6099   1.6099
     2.6353   2.6353   2.9432   2.9432   3.0686   3.0686   3.1278   3.1278
     3.2058   3.2058   3.2713   3.2713   3.3982   3.3982   3.7438   3.7438
     3.8693   3.8693   4.3781   4.3781   4.7800   4.7800   4.8660   4.8660
     5.2292   5.2292   5.2708   5.2708   5.2779   5.2779   5.7524   5.7524
     5.7554   5.7554   5.9713   5.9713   6.1529   6.1529   6.2370   6.2370
     6.2989   6.2989   6.4101   6.4101   6.4873   6.4873   6.5030   6.5030
     6.7874   6.7874   6.8637   6.8637   7.0627   7.0627   7.4718   7.4718
     7.5301   7.5301   7.6922   7.6923   7.7161   7.7161   8.1601   8.1601
     9.9188   9.9188  11.1209  11.1209  11.1802  11.1802  11.5444  11.5444
    11.7308  11.7308  12.5152  12.5152  12.7389  12.7389  12.8212  12.8212
    12.9334  12.9334  13.2385  13.2385  13.4412  13.4413  14.1391  14.1391
    14.2935  14.2935  15.1005  15.1005  15.7461  15.7461  15.8621  15.8621
    16.7157  16.7157  17.8726  17.8726  18.1047

          k = 0.0000 0.1575 0.0000 ( 62231 PWs)   bands (ev):

   -66.1722 -66.1719 -66.1712 -66.1712 -66.1709 -66.1709 -66.1702 -66.1698
   -30.5453 -30.5413 -30.5413 -30.5375 -30.5344 -30.5336 -30.5318 -30.5316
   -30.5286 -30.5286 -30.5263 -30.5263 -30.4930 -30.4902 -30.4902 -30.4874
   -30.4313 -30.4313 -30.4289 -30.4289 -30.4268 -30.4267 -30.4245 -30.4243
   -20.3301 -20.3300 -20.3300 -20.3300 -20.3299 -20.3299 -20.3299 -20.3298
   -20.3105 -20.3102 -20.3102 -20.3099 -20.3065 -20.3063 -20.3060 -20.3060
   -20.3060 -20.3059 -20.3056 -20.3056 -20.3055 -20.3053 -20.3053 -20.3051
   -20.3048 -20.3048 -20.3048 -20.3046 -20.3041 -20.3041 -20.3041 -20.3038
   -20.2984 -20.2982 -20.2978 -20.2978 -20.2978 -20.2977 -20.2974 -20.2974
   -20.2960 -20.2959 -20.2957 -20.2957 -20.2955 -20.2955 -20.2952 -20.2952
   -20.2898 -20.2898 -20.2893 -20.2893 -20.2892 -20.2891 -20.2888 -20.2887
    -9.9580  -9.7433  -9.5126  -9.5126  -9.3248  -9.3248  -9.1181  -9.1069
    -8.9601  -8.8150  -8.8093  -8.8093  -7.9098  -7.8546  -7.8546  -7.8084
    -7.7854  -7.7848  -7.7629  -7.7618  -7.6476  -7.6476  -7.6285  -7.6285
     1.0766   1.0769   1.1910   1.1910   1.1977   1.1977   1.4361   1.5435
     1.8264   1.8821   1.8821   2.0278   2.3325   2.3975   2.6414   2.6419
     2.7813   2.7813   3.9977   3.9977   4.0630   4.0637   4.7491   4.7491
     4.7726   4.7726   4.8063   4.9482   4.9568   5.0101   5.0101   5.2849
     5.2849   5.4457   5.4457   5.6060   5.6060   5.6474   5.6653   5.6666
     5.8201   5.8209   5.9280   5.9461   5.9461   6.0353   6.0388   6.1098
     6.1109   6.2548   6.2557   6.5329   6.5329   6.8393   6.8501   6.8672
     6.8672   6.9052   6.9055   6.9823   6.9823   6.9828   7.3449   7.3449
     7.3690   7.3690   7.8453   7.8539   8.0473   8.0473   8.0791   8.0803
     9.1940   9.1947  10.1129  10.1129  10.1162  10.1187  12.1514  12.1514
    12.3133  12.3135  12.3253  12.3253  12.3746  12.3746  13.0040  13.0202
    13.2679  13.2847  13.4022  13.4022  14.0373  14.0633  14.0722  14.0722
    14.1882  14.6310  14.6310  15.0473  15.4382  15.4479  15.8537  16.0880
    16.0880  16.6024  17.2589  17.2589  17.5263

          k = 0.0000 0.1575 0.1667 ( 62237 PWs)   bands (ev):

   -66.1721 -66.1718 -66.1713 -66.1711 -66.1709 -66.1708 -66.1703 -66.1699
   -30.5453 -30.5417 -30.5416 -30.5379 -30.5337 -30.5314 -30.5290 -30.5277
   -30.5267 -30.5244 -30.5222 -30.5190 -30.4924 -30.4906 -30.4896 -30.4879
   -30.4380 -30.4358 -30.4335 -30.4312 -30.4310 -30.4286 -30.4270 -30.4247
   -20.3301 -20.3300 -20.3300 -20.3300 -20.3299 -20.3299 -20.3299 -20.3298
   -20.3105 -20.3102 -20.3102 -20.3099 -20.3064 -20.3062 -20.3061 -20.3060
   -20.3059 -20.3059 -20.3056 -20.3056 -20.3053 -20.3053 -20.3052 -20.3051
   -20.3049 -20.3048 -20.3048 -20.3046 -20.3042 -20.3042 -20.3041 -20.3039
   -20.2983 -20.2980 -20.2979 -20.2978 -20.2976 -20.2974 -20.2974 -20.2972
   -20.2958 -20.2956 -20.2956 -20.2956 -20.2954 -20.2954 -20.2953 -20.2952
   -20.2903 -20.2898 -20.2898 -20.2896 -20.2893 -20.2893 -20.2892 -20.2888
    -9.9081  -9.6889  -9.5286  -9.4383  -9.3381  -9.2326  -9.0767  -9.0638
    -8.9691  -8.8137  -8.8066  -8.7893  -7.9173  -7.9100  -7.9055  -7.8548
    -7.8415  -7.8218  -7.7828  -7.7746  -7.7566  -7.7537  -7.6565  -7.6373
     1.1686   1.1712   1.1954   1.2033   1.4400   1.4645   1.5578   1.7203
     1.8332   1.8749   1.8961   2.0704   2.4216   2.4884   2.6504   2.7332
     2.7731   2.8693   3.9710   4.0172   4.0512   4.1001   4.3360   4.3929
     4.7165   4.7251   4.7999   4.8141   4.8274   4.9460   5.0156   5.2439
     5.2444   5.2866   5.2978   5.4617   5.5681   5.5724   5.6547   5.7178
     5.7207   5.7951   5.8672   5.8776   5.9236   6.0959   6.1031   6.1295
     6.2039   6.3881   6.4468   6.5226   6.7241   6.8034   6.8130   6.8222
     6.8332   6.9103   6.9466   6.9488   6.9943   6.9974   7.0983   7.1032
     7.1727   7.2148   7.8475   7.8487   8.0087   8.0416   8.0525   8.0808
     9.5609   9.5812  10.1144  10.1176  10.3554  10.3688  12.1352  12.2317
    12.2330  12.2662  12.3159  12.3393  12.3762  12.4738  12.9874  13.0289
    13.1011  13.2691  13.3075  13.4000  13.9083  13.9394  14.0538  14.0701
    14.2936  14.6266  14.7780  15.1507  15.4811  15.5128  15.8207  16.0614
    16.4112  16.7577  16.9715  17.4378  17.5948

          k = 0.0000 0.1575 0.3333 ( 62284 PWs)   bands (ev):

   -66.1720 -66.1716 -66.1715 -66.1711 -66.1709 -66.1706 -66.1704 -66.1701
   -30.5449 -30.5426 -30.5413 -30.5389 -30.5327 -30.5304 -30.5300 -30.5277
   -30.5106 -30.5070 -30.5045 -30.5003 -30.4919 -30.4895 -30.4893 -30.4875
   -30.4562 -30.4543 -30.4516 -30.4496 -30.4302 -30.4279 -30.4278 -30.4255
   -20.3300 -20.3300 -20.3300 -20.3300 -20.3299 -20.3299 -20.3299 -20.3299
   -20.3105 -20.3103 -20.3102 -20.3100 -20.3063 -20.3061 -20.3060 -20.3059
   -20.3057 -20.3057 -20.3057 -20.3055 -20.3054 -20.3053 -20.3051 -20.3051
   -20.3050 -20.3050 -20.3047 -20.3047 -20.3045 -20.3043 -20.3041 -20.3040
   -20.2982 -20.2980 -20.2978 -20.2975 -20.2971 -20.2970 -20.2969 -20.2967
   -20.2961 -20.2959 -20.2957 -20.2957 -20.2946 -20.2946 -20.2944 -20.2942
   -20.2916 -20.2912 -20.2910 -20.2906 -20.2897 -20.2893 -20.2892 -20.2889
    -9.7889  -9.5782  -9.5652  -9.3787  -9.2536  -9.0014  -8.9699  -8.9563
    -8.9105  -8.8276  -8.7631  -8.7052  -8.2341  -8.2246  -8.1468  -8.1156
    -7.8880  -7.8642  -7.8393  -7.8138  -7.7491  -7.7286  -7.6809  -7.6614
     1.2071   1.2177   1.2218   1.2341   1.7616   1.7850   1.8632   1.8715
     2.1789   2.2397   2.3835   2.4883   2.6733   2.6824   2.7387   2.7726
     2.9782   3.0948   3.6906   3.7687   3.8377   3.8941   4.0618   4.1018
     4.2360   4.3194   4.5442   4.7318   4.7400   4.7852   4.7984   4.8849
     5.0449   5.0750   5.0927   5.1628   5.3638   5.3870   5.4587   5.6490
     5.7146   5.7759   5.8475   5.9047   5.9620   6.1174   6.1768   6.2375
     6.3131   6.4879   6.5391   6.5639   6.6248   6.6742   6.7002   6.7723
     6.8214   6.8359   6.9150   6.9408   6.9820   7.0143   7.0565   7.0772
     7.3009   7.3406   7.7623   7.7770   7.8897   7.9181   8.0724   8.0831
    10.1125  10.1169  10.3105  10.3620  10.9380  11.0061  11.8263  11.8617
    12.0372  12.3266  12.4662  12.4791  12.5215  12.5562  12.6347  12.7381
    12.9785  13.1446  13.1972  13.3971  13.5739  13.5960  14.0562  14.0661
    14.4915  14.6118  15.1405  15.4196  15.6430  15.7166  15.9556  15.9795
    16.4205  17.2161  17.2756  17.5042  17.8321

          k = 0.0000 0.1575-0.5000 ( 62234 PWs)   bands (ev):

   -66.1717 -66.1717 -66.1714 -66.1714 -66.1707 -66.1707 -66.1704 -66.1703
   -30.5438 -30.5438 -30.5402 -30.5401 -30.5314 -30.5314 -30.5290 -30.5290
   -30.4948 -30.4948 -30.4937 -30.4937 -30.4796 -30.4796 -30.4787 -30.4787
   -30.4751 -30.4751 -30.4745 -30.4745 -30.4290 -30.4290 -30.4267 -30.4267
   -20.3300 -20.3300 -20.3300 -20.3300 -20.3299 -20.3299 -20.3299 -20.3299
   -20.3104 -20.3104 -20.3101 -20.3101 -20.3062 -20.3062 -20.3058 -20.3058
   -20.3056 -20.3056 -20.3055 -20.3055 -20.3054 -20.3054 -20.3053 -20.3053
   -20.3048 -20.3048 -20.3047 -20.3047 -20.3046 -20.3046 -20.3040 -20.3040
   -20.2981 -20.2981 -20.2977 -20.2976 -20.2966 -20.2966 -20.2964 -20.2964
   -20.2963 -20.2963 -20.2962 -20.2962 -20.2932 -20.2932 -20.2929 -20.2929
   -20.2927 -20.2927 -20.2925 -20.2925 -20.2895 -20.2895 -20.2891 -20.2890
    -9.6658  -9.6658  -9.4517  -9.4517  -9.0827  -9.0827  -8.8587  -8.8587
    -8.6150  -8.6150  -8.5803  -8.5803  -8.5672  -8.5672  -8.4783  -8.4783
    -7.8772  -7.8772  -7.8274  -7.8274  -7.7147  -7.7147  -7.6947  -7.6947
     1.2201   1.2201   1.2335   1.2335   1.7944   1.7944   1.8743   1.8743
     2.7025   2.7025   2.9579   2.9579   3.0615   3.0615   3.1677   3.1677
     3.2138   3.2138   3.2689   3.2689   3.3884   3.3884   3.7500   3.7500
     3.9204   3.9204   4.1992   4.1992   4.6328   4.6328   4.7514   4.7514
     5.0847   5.0847   5.2495   5.2495   5.2590   5.2590   5.4913   5.4913
     5.7301   5.7301   5.8797   5.8797   6.1510   6.1510   6.2911   6.2911
     6.3125   6.3125   6.4327   6.4327   6.4769   6.4769   6.6890   6.6891
     6.8591   6.8591   6.8716   6.8716   6.9644   6.9644   7.4847   7.4847
     7.5244   7.5244   7.6681   7.6681   7.6857   7.6857   8.0825   8.0825
    10.1167  10.1167  11.1259  11.1259  11.1781  11.1782  11.6094  11.6095
    11.7927  11.7927  12.3806  12.3806  12.7094  12.7094  12.8326  12.8326
    12.8682  12.8682  13.1446  13.1446  13.4167  13.4167  14.0608  14.0608
    14.5792  14.5792  15.4772  15.4772  15.8374  15.8374  15.8783  15.8783
    16.7577  16.7577  17.6753  17.6753  18.1221

          k = 0.0000 0.3150 0.0000 ( 62175 PWs)   bands (ev):

   -66.1721 -66.1719 -66.1711 -66.1711 -66.1709 -66.1709 -66.1701 -66.1699
   -30.5368 -30.5339 -30.5325 -30.5322 -30.5316 -30.5316 -30.5307 -30.5270
   -30.5270 -30.5270 -30.5269 -30.5269 -30.5038 -30.5009 -30.5009 -30.4980
   -30.4308 -30.4308 -30.4294 -30.4294 -30.4263 -30.4262 -30.4250 -30.4248
   -20.3301 -20.3300 -20.3300 -20.3300 -20.3299 -20.3299 -20.3299 -20.3298
   -20.3095 -20.3092 -20.3092 -20.3089 -20.3068 -20.3065 -20.3065 -20.3063
   -20.3062 -20.3061 -20.3060 -20.3059 -20.3059 -20.3058 -20.3056 -20.3056
   -20.3047 -20.3047 -20.3046 -20.3044 -20.3043 -20.3043 -20.3042 -20.3040
   -20.2983 -20.2981 -20.2979 -20.2978 -20.2978 -20.2978 -20.2975 -20.2975
   -20.2960 -20.2960 -20.2957 -20.2957 -20.2955 -20.2955 -20.2952 -20.2952
   -20.2897 -20.2897 -20.2894 -20.2894 -20.2891 -20.2890 -20.2888 -20.2888
    -9.8965  -9.7752  -9.4474  -9.4474  -9.3462  -9.3462  -9.1157  -9.1093
    -8.7523  -8.6619  -8.6619  -8.6619  -8.1536  -8.1089  -8.1089  -8.0810
    -7.7810  -7.7800  -7.7678  -7.7667  -7.6437  -7.6437  -7.6326  -7.6326
     1.0766   1.0768   1.1956   1.1956   1.1977   1.1977   1.5127   1.5410
     2.3459   2.3834   2.3992   2.5439   2.5439   2.7035   2.8500   2.8507
     2.9776   2.9776   3.6112   3.6121   3.6591   3.6591   4.1549   4.4799
     4.4799   4.7556   4.7556   4.7659   4.7822   4.7822   5.0799   5.0799
     5.1168   5.1183   5.3711   5.3711   5.6298   5.6301   5.6610   5.6610
     5.8922   5.8943   5.8955   5.8955   6.0277   6.0297   6.0437   6.1291
     6.1309   6.2157   6.2159   6.5027   6.5962   6.5962   6.8245   6.8245
     6.8792   6.9557   7.1106   7.1109   7.1164   7.1164   7.3531   7.3531
     7.3720   7.3720   7.8376   7.8426   7.8535   7.8545   7.8700   7.8700
     9.1941   9.1946  10.5876  10.5876  10.6348  10.6366  11.7646  11.7646
    11.8827  11.8834  12.3493  12.3493  12.3715  12.3715  13.0100  13.0185
    13.3805  13.3918  13.4706  13.4706  13.8271  13.8317  13.8598  13.8598
    14.8416  15.2266  15.2266  15.4395  15.4449  15.6121  15.9678  15.9678
    16.0366  16.8609  17.2315  17.7018  17.7018

          k = 0.0000 0.3150 0.1667 ( 62260 PWs)   bands (ev):

   -66.1721 -66.1719 -66.1712 -66.1711 -66.1710 -66.1709 -66.1702 -66.1700
   -30.5363 -30.5324 -30.5321 -30.5320 -30.5320 -30.5275 -30.5274 -30.5273
   -30.5269 -30.5243 -30.5213 -30.5192 -30.5029 -30.5013 -30.5002 -30.4985
   -30.4376 -30.4363 -30.4330 -30.4317 -30.4305 -30.4291 -30.4266 -30.4252
   -20.3301 -20.3300 -20.3300 -20.3300 -20.3299 -20.3299 -20.3299 -20.3298
   -20.3095 -20.3092 -20.3092 -20.3089 -20.3068 -20.3065 -20.3065 -20.3063
   -20.3061 -20.3061 -20.3060 -20.3059 -20.3058 -20.3057 -20.3056 -20.3054
   -20.3048 -20.3047 -20.3047 -20.3045 -20.3044 -20.3043 -20.3043 -20.3041
   -20.2982 -20.2980 -20.2978 -20.2978 -20.2976 -20.2975 -20.2975 -20.2973
   -20.2958 -20.2956 -20.2956 -20.2956 -20.2954 -20.2954 -20.2953 -20.2952
   -20.2902 -20.2899 -20.2897 -20.2896 -20.2894 -20.2893 -20.2891 -20.2889
    -9.8446  -9.7209  -9.4630  -9.3645  -9.3600  -9.2546  -9.0737  -9.0664
    -8.7610  -8.6672  -8.6567  -8.6505  -8.1540  -8.1191  -8.1060  -8.0887
    -7.9073  -7.8927  -7.7791  -7.7709  -7.7663  -7.7582  -7.6525  -7.6414
     1.1706   1.1712   1.2008   1.2032   1.4577   1.4640   1.6797   1.7174
     2.4008   2.4356   2.4740   2.5180   2.5443   2.6886   2.8580   2.9564
     2.9701   3.0753   3.6125   3.6502   3.6586   3.7014   4.1465   4.3550
     4.3659   4.4901   4.4988   4.7683   4.7902   4.8137   4.8367   4.8996
     5.0740   5.1214   5.1592   5.2837   5.4279   5.4405   5.6112   5.6307
     5.6866   5.7545   5.7919   5.8774   6.0488   6.0845   6.1013   6.1214
     6.2241   6.3970   6.4013   6.5716   6.5867   6.8134   6.8527   6.9078
     6.9503   6.9591   7.0684   7.0886   7.0933   7.0981   7.1107   7.1251
     7.2206   7.2315   7.8170   7.8325   7.8396   7.8481   7.8566   7.8681
     9.5689   9.5785  10.5928  10.6349  10.7747  10.8078  11.7640  11.8616
    11.8840  11.9648  12.2465  12.2630  12.4001  12.4286  13.0064  13.0467
    13.1993  13.3566  13.3778  13.4662  13.6721  13.7248  13.8284  13.8565
    14.9717  15.2202  15.4385  15.4792  15.5192  15.6846  15.9438  16.1977
    16.2804  16.8248  17.2998  17.3625  17.8233

          k = 0.0000 0.3150 0.3333 ( 62269 PWs)   bands (ev):

   -66.1719 -66.1717 -66.1714 -66.1712 -66.1709 -66.1707 -66.1704 -66.1702
   -30.5355 -30.5330 -30.5312 -30.5311 -30.5310 -30.5284 -30.5283 -30.5283
   -30.5117 -30.5099 -30.5046 -30.5025 -30.5009 -30.4997 -30.4968 -30.4963
   -30.4559 -30.4548 -30.4513 -30.4501 -30.4297 -30.4283 -30.4274 -30.4260
   -20.3300 -20.3300 -20.3300 -20.3299 -20.3299 -20.3299 -20.3299 -20.3299
   -20.3095 -20.3093 -20.3092 -20.3090 -20.3068 -20.3066 -20.3065 -20.3063
   -20.3062 -20.3060 -20.3059 -20.3058 -20.3056 -20.3055 -20.3054 -20.3052
   -20.3050 -20.3049 -20.3046 -20.3046 -20.3046 -20.3045 -20.3042 -20.3041
   -20.2981 -20.2979 -20.2979 -20.2976 -20.2971 -20.2970 -20.2970 -20.2968
   -20.2961 -20.2959 -20.2957 -20.2957 -20.2946 -20.2945 -20.2944 -20.2942
   -20.2915 -20.2912 -20.2909 -20.2907 -20.2896 -20.2893 -20.2892 -20.2890
    -9.7214  -9.5960  -9.5112  -9.4024  -9.1437  -8.9940  -8.9371  -8.9153
    -8.7959  -8.6860  -8.6343  -8.6025  -8.2667  -8.2314  -8.2162  -8.1172
    -8.1094  -8.1001  -8.0768  -8.0199  -7.7449  -7.7330  -7.6769  -7.6656
     1.2144   1.2176   1.2304   1.2339   2.1217   2.1748   2.2490   2.3796
     2.4109   2.5172   2.5453   2.6903   2.7367   2.7488   2.8786   2.9545
     3.2041   3.2853   3.5848   3.6222   3.7172   3.7273   3.7705   3.7847
     4.1203   4.2934   4.3960   4.4098   4.5067   4.5475   4.6022   4.7422
     4.7675   4.8471   4.9854   5.0924   5.1052   5.1846   5.2110   5.3425
     5.3742   5.5462   5.6858   5.8367   6.1340   6.1690   6.1878   6.2383
     6.3932   6.5523   6.6029   6.6059   6.6621   6.7790   6.7832   6.7932
     6.8808   6.9495   7.0228   7.0536   7.0736   7.1316   7.1628   7.1906
     7.2760   7.3301   7.7380   7.7485   7.7637   7.7718   7.8509   7.8655
    10.3260  10.3440  10.6111  10.6303  11.2536  11.2876  11.7548  11.8239
    11.8557  11.9171  12.1582  12.2068  12.5628  12.6195  12.6440  12.6805
    12.9215  13.1514  13.1729  13.3779  13.4577  13.4714  13.8330  13.8508
    15.1113  15.1999  15.5988  15.8706  15.9100  15.9567  16.0499  16.7007
    16.7051  16.8117  17.1106  17.5406  17.6951

          k = 0.0000 0.3150-0.5000 ( 62306 PWs)   bands (ev):

   -66.1716 -66.1716 -66.1714 -66.1714 -66.1706 -66.1706 -66.1704 -66.1704
   -30.5343 -30.5343 -30.5300 -30.5300 -30.5296 -30.5296 -30.5296 -30.5296
   -30.5044 -30.5044 -30.5022 -30.5022 -30.4802 -30.4802 -30.4799 -30.4799
   -30.4758 -30.4758 -30.4751 -30.4751 -30.4285 -30.4285 -30.4272 -30.4272
   -20.3300 -20.3300 -20.3300 -20.3300 -20.3299 -20.3299 -20.3299 -20.3299
   -20.3094 -20.3094 -20.3091 -20.3091 -20.3067 -20.3067 -20.3064 -20.3064
   -20.3061 -20.3061 -20.3057 -20.3057 -20.3054 -20.3054 -20.3052 -20.3052
   -20.3050 -20.3050 -20.3048 -20.3048 -20.3046 -20.3046 -20.3042 -20.3042
   -20.2980 -20.2980 -20.2977 -20.2977 -20.2966 -20.2966 -20.2964 -20.2964
   -20.2963 -20.2963 -20.2962 -20.2962 -20.2931 -20.2931 -20.2929 -20.2929
   -20.2927 -20.2927 -20.2925 -20.2925 -20.2894 -20.2894 -20.2891 -20.2891
    -9.5972  -9.5972  -9.4788  -9.4788  -8.9056  -8.9056  -8.7523  -8.7523
    -8.6268  -8.6267  -8.6115  -8.6115  -8.5266  -8.5266  -8.4427  -8.4427
    -8.1140  -8.1140  -8.0750  -8.0750  -7.7106  -7.7106  -7.6990  -7.6990
     1.2294   1.2294   1.2333   1.2333   2.3966   2.3966   2.5274   2.5274
     2.8956   2.8956   3.0009   3.0010   3.0395   3.0395   3.2154   3.2154
     3.2619   3.2619   3.2886   3.2886   3.3514   3.3514   3.6136   3.6136
     4.0445   4.0445   4.0945   4.0946   4.1139   4.1139   4.3576   4.3576
     4.8157   4.8157   4.9333   4.9333   5.1567   5.1567   5.2282   5.2282
     5.3662   5.3662   5.7593   5.7593   6.2652   6.2652   6.3093   6.3093
     6.4259   6.4259   6.4772   6.4772   6.5037   6.5037   6.7427   6.7428
     7.0487   7.0487   7.0645   7.0645   7.1040   7.1040   7.5018   7.5018
     7.5086   7.5087   7.5725   7.5725   7.5950   7.5950   7.8584   7.8584
    10.6150  10.6150  11.1380  11.1380  11.1729  11.1729  11.6757  11.6757
    11.9820  11.9820  12.1113  12.1113  12.5655  12.5655  12.6288  12.6288
    12.8556  12.8556  12.9718  12.9718  13.4512  13.4512  13.8424  13.8424
    15.1645  15.1645  15.7498  15.7499  16.2840  16.2840  16.4431  16.4431
    16.9239  16.9239  17.2918  17.2918  18.0003

          k = 0.0000-0.4725 0.0000 ( 62212 PWs)   bands (ev):

   -66.1720 -66.1720 -66.1710 -66.1710 -66.1710 -66.1710 -66.1700 -66.1700
   -30.5337 -30.5337 -30.5330 -30.5330 -30.5282 -30.5282 -30.5277 -30.5277
   -30.5183 -30.5183 -30.5154 -30.5154 -30.5152 -30.5152 -30.5125 -30.5125
   -30.4303 -30.4303 -30.4300 -30.4300 -30.4257 -30.4257 -30.4254 -30.4254
   -20.3300 -20.3300 -20.3299 -20.3299 -20.3299 -20.3299 -20.3299 -20.3299
   -20.3082 -20.3082 -20.3078 -20.3078 -20.3078 -20.3078 -20.3075 -20.3075
   -20.3062 -20.3062 -20.3060 -20.3060 -20.3057 -20.3057 -20.3057 -20.3057
   -20.3045 -20.3045 -20.3045 -20.3045 -20.3044 -20.3044 -20.3042 -20.3042
   -20.2981 -20.2981 -20.2980 -20.2980 -20.2977 -20.2977 -20.2976 -20.2976
   -20.2960 -20.2960 -20.2957 -20.2957 -20.2955 -20.2955 -20.2952 -20.2952
   -20.2896 -20.2896 -20.2896 -20.2895 -20.2890 -20.2890 -20.2889 -20.2889
    -9.8284  -9.8284  -9.3866  -9.3866  -9.3862  -9.3862  -9.1125  -9.1125
    -8.4572  -8.4572  -8.4113  -8.4113  -8.4113  -8.4113  -8.4054  -8.4053
    -7.7745  -7.7745  -7.7734  -7.7733  -7.6386  -7.6386  -7.6378  -7.6378
     1.0767   1.0767   1.1972   1.1972   1.1973   1.1973   1.5341   1.5341
     2.3645   2.3645   3.1774   3.1774   3.1835   3.1835   3.2639   3.2639
     3.2815   3.2815   3.2828   3.2828   3.4850   3.4850   3.4861   3.4861
     3.6892   3.6892   4.7646   4.7646   4.7660   4.7660   5.2359   5.2359
     5.2378   5.2378   5.3645   5.3645   5.3654   5.3654   5.7494   5.7494
     5.7495   5.7495   5.9930   5.9930   5.9961   5.9961   6.1620   6.1620
     6.1663   6.1663   6.2362   6.2362   6.6940   6.6940   6.6951   6.6951
     6.9179   6.9179   7.3476   7.3476   7.3495   7.3495   7.4850   7.4850
     7.4859   7.4859   7.5427   7.5427   7.5428   7.5428   7.8511   7.8511
     9.1943   9.1943  11.1952  11.1952  11.1960  11.1960  11.2775  11.2775
    11.2795  11.2795  12.3615  12.3615  12.3666  12.3666  13.0152  13.0152
    13.5747  13.5747  13.5813  13.5813  13.6306  13.6306  13.6320  13.6320
    15.4410  15.4410  15.4436  15.4436  15.7073  15.7073  15.7089  15.7089
    16.5009  16.5009  17.9631  18.1078  18.1078

          k = 0.0000-0.4725 0.1667 ( 62246 PWs)   bands (ev):

   -66.1720 -66.1720 -66.1711 -66.1711 -66.1710 -66.1710 -66.1701 -66.1701
   -30.5332 -30.5328 -30.5285 -30.5281 -30.5279 -30.5275 -30.5239 -30.5234
   -30.5159 -30.5158 -30.5156 -30.5155 -30.5139 -30.5136 -30.5129 -30.5129
   -30.4371 -30.4368 -30.4325 -30.4322 -30.4300 -30.4297 -30.4260 -30.4258
   -20.3300 -20.3300 -20.3299 -20.3299 -20.3299 -20.3299 -20.3299 -20.3299
   -20.3082 -20.3082 -20.3079 -20.3079 -20.3079 -20.3078 -20.3075 -20.3075
   -20.3062 -20.3061 -20.3059 -20.3059 -20.3058 -20.3057 -20.3056 -20.3056
   -20.3046 -20.3046 -20.3045 -20.3045 -20.3045 -20.3045 -20.3043 -20.3043
   -20.2981 -20.2980 -20.2977 -20.2977 -20.2977 -20.2976 -20.2975 -20.2973
   -20.2958 -20.2956 -20.2956 -20.2956 -20.2954 -20.2953 -20.2953 -20.2952
   -20.2901 -20.2900 -20.2896 -20.2895 -20.2895 -20.2894 -20.2890 -20.2889
    -9.7749  -9.7749  -9.4012  -9.4008  -9.2973  -9.2969  -9.0700  -9.0699
    -8.4625  -8.4625  -8.4183  -8.4183  -8.4065  -8.4064  -8.4056  -8.4055
    -7.9012  -7.9005  -7.7737  -7.7732  -7.7645  -7.7639  -7.6474  -7.6466
     1.1711   1.1711   1.2027   1.2028   1.4625   1.4625   1.7086   1.7087
     2.4547   2.4547   3.1830   3.1849   3.2024   3.2049   3.2632   3.2636
     3.2753   3.2761   3.3237   3.3250   3.4817   3.4829   3.5332   3.5339
     3.7138   3.7139   4.3737   4.3743   4.8168   4.8206   4.9798   4.9834
     5.1508   5.1508   5.2151   5.2167   5.3749   5.3752   5.4792   5.4794
     5.7208   5.7208   5.7625   5.7625   6.0965   6.0974   6.1183   6.1184
     6.3716   6.3718   6.3956   6.3958   6.6843   6.6854   6.8900   6.8913
     6.9862   6.9865   7.0992   7.1005   7.1644   7.1661   7.4710   7.4718
     7.4915   7.4921   7.5163   7.5165   7.5322   7.5324   7.8506   7.8506
     9.5744   9.5749  11.2002  11.2010  11.2714  11.2716  11.3264  11.3264
    11.4024  11.4034  12.2541  12.2582  12.4136  12.4184  13.0335  13.0345
    13.3930  13.3941  13.4981  13.4994  13.5842  13.5855  13.6270  13.6284
    15.4326  15.4344  15.6565  15.6574  15.6911  15.6931  15.9892  15.9898
    16.5661  16.5662  17.8955  17.8960  18.0667

          k = 0.0000-0.4725 0.3333 ( 62268 PWs)   bands (ev):

   -66.1718 -66.1718 -66.1713 -66.1713 -66.1708 -66.1708 -66.1703 -66.1703
   -30.5322 -30.5318 -30.5295 -30.5291 -30.5204 -30.5201 -30.5186 -30.5185
   -30.5169 -30.5167 -30.5140 -30.5140 -30.5039 -30.5038 -30.5000 -30.4999
   -30.4555 -30.4553 -30.4509 -30.4506 -30.4291 -30.4289 -30.4269 -30.4266
   -20.3300 -20.3300 -20.3300 -20.3300 -20.3299 -20.3299 -20.3299 -20.3299
   -20.3082 -20.3081 -20.3080 -20.3080 -20.3078 -20.3078 -20.3076 -20.3076
   -20.3060 -20.3060 -20.3058 -20.3058 -20.3056 -20.3056 -20.3054 -20.3053
   -20.3049 -20.3048 -20.3047 -20.3047 -20.3044 -20.3044 -20.3043 -20.3043
   -20.2980 -20.2980 -20.2978 -20.2977 -20.2970 -20.2970 -20.2970 -20.2968
   -20.2961 -20.2959 -20.2957 -20.2957 -20.2946 -20.2945 -20.2944 -20.2942
   -20.2914 -20.2913 -20.2909 -20.2908 -20.2895 -20.2894 -20.2892 -20.2891
    -9.6496  -9.6495  -9.4465  -9.4461  -9.0472  -9.0467  -8.9238  -8.9235
    -8.5028  -8.5027  -8.4542  -8.4541  -8.4016  -8.4016  -8.3871  -8.3871
    -8.1972  -8.1966  -8.0914  -8.0909  -7.7394  -7.7386  -7.6717  -7.6709
     1.2168   1.2169   1.2331   1.2331   2.1661   2.1663   2.3615   2.3618
     2.7176   2.7177   3.1921   3.1942   3.2306   3.2338   3.2509   3.2562
     3.2594   3.2655   3.4048   3.4072   3.4668   3.4693   3.6812   3.6814
     3.7545   3.7557   3.7657   3.7659   4.4701   4.4709   4.6260   4.6270
     4.7821   4.7865   4.8215   4.8265   5.1471   5.1473   5.2603   5.2607
     5.4120   5.4120   5.6413   5.6415   6.1717   6.1717   6.2344   6.2361
     6.5024   6.5029   6.6297   6.6354   6.6552   6.6572   6.8042   6.8052
     6.9691   6.9701   7.1830   7.1837   7.1901   7.1907   7.4459   7.4471
     7.4766   7.4769   7.5096   7.5100   7.5118   7.5122   7.7796   7.7797
    10.3386  10.3397  11.2150  11.2160  11.2529  11.2532  11.7102  11.7103
    11.7570  11.7582  11.8483  11.8504  12.5838  12.5877  12.7832  12.7846
    12.9113  12.9118  13.2295  13.2300  13.5936  13.5954  13.6203  13.6219
    15.4671  15.4687  15.6399  15.6413  16.2718  16.2725  16.7143  16.7152
    16.7997  16.7998  17.3742  17.3748  17.9021

          k = 0.0000-0.4725-0.5000 ( 62284 PWs)   bands (ev):

   -66.1715 -66.1715 -66.1715 -66.1715 -66.1705 -66.1705 -66.1705 -66.1705
   -30.5309 -30.5309 -30.5304 -30.5304 -30.5184 -30.5184 -30.5181 -30.5181
   -30.5158 -30.5158 -30.5156 -30.5156 -30.4805 -30.4805 -30.4802 -30.4802
   -30.4758 -30.4758 -30.4755 -30.4755 -30.4280 -30.4280 -30.4277 -30.4277
   -20.3300 -20.3300 -20.3300 -20.3300 -20.3299 -20.3299 -20.3299 -20.3299
   -20.3081 -20.3081 -20.3081 -20.3081 -20.3078 -20.3078 -20.3078 -20.3078
   -20.3059 -20.3059 -20.3059 -20.3059 -20.3052 -20.3052 -20.3052 -20.3052
   -20.3050 -20.3050 -20.3050 -20.3050 -20.3044 -20.3044 -20.3044 -20.3044
   -20.2979 -20.2979 -20.2978 -20.2978 -20.2966 -20.2965 -20.2964 -20.2964
   -20.2963 -20.2963 -20.2962 -20.2962 -20.2931 -20.2931 -20.2930 -20.2930
   -20.2927 -20.2927 -20.2926 -20.2926 -20.2893 -20.2893 -20.2892 -20.2892
    -9.5281  -9.5281  -9.5274  -9.5274  -8.7112  -8.7112  -8.7068  -8.7067
    -8.6603  -8.6603  -8.6573  -8.6573  -8.3774  -8.3774  -8.3708  -8.3708
    -8.3296  -8.3296  -8.3230  -8.3230  -7.7053  -7.7053  -7.7045  -7.7045
     1.2321   1.2321   1.2326   1.2326   2.9729   2.9729   2.9865   2.9865
     3.1187   3.1187   3.1278   3.1278   3.2009   3.2009   3.2090   3.2090
     3.2551   3.2551   3.2645   3.2645   3.4045   3.4045   3.4368   3.4368
     3.5814   3.5814   3.6344   3.6344   4.2885   4.2885   4.3071   4.3071
     4.3999   4.3999   4.4177   4.4177   5.1990   5.1990   5.2067   5.2067
     5.5002   5.5002   5.5101   5.5101   6.3043   6.3043   6.3051   6.3051
     6.4739   6.4739   6.4770   6.4770   6.6047   6.6047   6.6129   6.6129
     7.2894   7.2894   7.3029   7.3029   7.3601   7.3601   7.3993   7.3994
     7.4506   7.4506   7.4721   7.4721   7.5874   7.5874   7.5896   7.5896
    11.1268  11.1268  11.1385  11.1385  11.2505  11.2505  11.2629  11.2629
    12.2548  12.2548  12.2749  12.2749  12.2863  12.2863  12.3000  12.3000
    12.8867  12.8867  12.8897  12.8897  13.6077  13.6077  13.6099  13.6099
    15.5561  15.5561  15.5577  15.5577  16.8727  16.8727  16.8794  16.8794
    17.3753  17.3753  17.3883  17.3884  17.4991

          k = 0.1667 0.0000 0.1667 ( 62234 PWs)   bands (ev):

   -66.1721 -66.1717 -66.1712 -66.1712 -66.1708 -66.1708 -66.1703 -66.1700
   -30.5492 -30.5457 -30.5457 -30.5421 -30.5278 -30.5274 -30.5243 -30.5238
   -30.5230 -30.5223 -30.5197 -30.5188 -30.4879 -30.4862 -30.4862 -30.4844
   -30.4381 -30.4377 -30.4354 -30.4352 -30.4339 -30.4339 -30.4314 -30.4312
   -20.3301 -20.3300 -20.3300 -20.3300 -20.3299 -20.3299 -20.3299 -20.3298
   -20.3109 -20.3106 -20.3106 -20.3103 -20.3064 -20.3062 -20.3060 -20.3060
   -20.3058 -20.3058 -20.3055 -20.3054 -20.3051 -20.3050 -20.3050 -20.3049
   -20.3049 -20.3049 -20.3048 -20.3047 -20.3042 -20.3042 -20.3041 -20.3039
   -20.2981 -20.2979 -20.2978 -20.2977 -20.2974 -20.2974 -20.2972 -20.2968
   -20.2955 -20.2955 -20.2955 -20.2954 -20.2954 -20.2954 -20.2953 -20.2953
   -20.2904 -20.2902 -20.2899 -20.2898 -20.2897 -20.2897 -20.2893 -20.2892
    -9.8826  -9.6185  -9.4877  -9.4877  -9.2392  -9.2392  -9.0524  -9.0386
    -9.0249  -8.8468  -8.8353  -8.8353  -7.9072  -7.9051  -7.8870  -7.8861
    -7.8368  -7.8142  -7.7740  -7.7732  -7.7522  -7.7507  -7.7503  -7.7082
     1.3460   1.3467   1.4108   1.4110   1.4336   1.4707   1.4707   1.6348
     1.6838   1.6839   1.8126   1.9946   2.5076   2.5893   2.6683   2.6688
     2.7805   2.8078   4.0796   4.0949   4.2650   4.2653   4.4402   4.4403
     4.4625   4.4631   4.6784   4.6819   4.7162   4.8035   5.0123   5.2215
     5.2610   5.2977   5.3455   5.5005   5.5006   5.6080   5.6091   5.7077
     5.7085   5.7426   5.7433   5.8054   5.8674   6.0147   6.3138   6.4287
     6.4362   6.4977   6.5028   6.6315   6.6620   6.6991   6.7282   6.7451
     6.7460   6.8157   6.8177   6.8390   6.8935   6.9813   6.9826   7.0831
     7.2477   7.3030   7.8398   7.8405   8.0527   8.0926   8.1169   8.1189
     9.7950   9.8547  10.1787  10.1834  10.1880  10.2748  12.2753  12.2756
    12.3013  12.3029  12.3106  12.3491  12.5589  12.5591  13.0010  13.0025
    13.0254  13.1229  13.1730  13.3674  13.9646  13.9871  14.0074  14.0610
    14.0809  14.4637  14.4645  15.1388  15.3811  15.5792  15.5935  16.4166
    16.4166  17.0267  17.0267  17.2266  17.5940

          k = 0.1667 0.0000 0.3333 ( 62265 PWs)   bands (ev):

   -66.1719 -66.1715 -66.1714 -66.1710 -66.1710 -66.1706 -66.1705 -66.1701
   -30.5488 -30.5466 -30.5454 -30.5430 -30.5266 -30.5242 -30.5226 -30.5202
   -30.5102 -30.5066 -30.5043 -30.5005 -30.4876 -30.4860 -30.4857 -30.4843
   -30.4560 -30.4539 -30.4520 -30.4498 -30.4370 -30.4348 -30.4344 -30.4321
   -20.3300 -20.3300 -20.3300 -20.3300 -20.3299 -20.3299 -20.3299 -20.3299
   -20.3108 -20.3107 -20.3106 -20.3104 -20.3062 -20.3061 -20.3059 -20.3058
   -20.3057 -20.3056 -20.3055 -20.3053 -20.3052 -20.3051 -20.3051 -20.3050
   -20.3049 -20.3049 -20.3048 -20.3048 -20.3044 -20.3043 -20.3041 -20.3040
   -20.2980 -20.2978 -20.2976 -20.2974 -20.2971 -20.2969 -20.2966 -20.2964
   -20.2959 -20.2958 -20.2958 -20.2956 -20.2946 -20.2945 -20.2943 -20.2942
   -20.2916 -20.2911 -20.2910 -20.2906 -20.2902 -20.2898 -20.2896 -20.2894
    -9.7581  -9.5383  -9.4804  -9.3173  -9.2801  -9.0849  -8.9770  -8.9319
    -8.8860  -8.8477  -8.7951  -8.7379  -8.2191  -8.2176  -8.1511  -8.1288
    -7.8794  -7.8637  -7.8126  -7.8078  -7.7760  -7.7607  -7.7428  -7.7176
     1.4101   1.4107   1.4856   1.4938   1.5776   1.6134   1.6181   1.6772
     2.1863   2.2283   2.3693   2.4562   2.6909   2.7619   2.7938   2.8740
     2.9093   3.0331   3.7455   3.8442   3.8601   3.9240   4.1635   4.2318
     4.2598   4.4423   4.5141   4.5623   4.6311   4.6520   4.7135   4.8677
     4.9539   5.0120   5.0507   5.1681   5.2500   5.3632   5.5603   5.6430
     5.7360   5.7458   5.8003   5.8721   5.8730   6.0144   6.1185   6.1516
     6.4185   6.4570   6.5322   6.5654   6.6036   6.6293   6.7038   6.7141
     6.7823   6.8554   6.8619   6.8730   7.0983   7.1197   7.1243   7.1859
     7.3137   7.3705   7.7656   7.7791   7.9410   7.9787   8.1088   8.1201
    10.1762  10.1885  10.4535  10.5050  10.8287  10.9304  11.8812  11.9172
    12.1321  12.4279  12.4473  12.4982  12.5423  12.5562  12.7292  12.8145
    12.9627  13.0173  13.0834  13.2730  13.6436  13.6623  13.9989  14.0222
    14.2519  14.4372  14.7736  15.2757  15.4551  15.8668  16.0399  16.3221
    16.4499  17.2936  17.4861  17.5726  17.6679

          k = 0.1667 0.0000-0.5000 ( 62322 PWs)   bands (ev):

   -66.1717 -66.1717 -66.1713 -66.1713 -66.1708 -66.1708 -66.1704 -66.1704
   -30.5478 -30.5478 -30.5443 -30.5443 -30.5253 -30.5253 -30.5215 -30.5215
   -30.4914 -30.4914 -30.4913 -30.4913 -30.4791 -30.4791 -30.4777 -30.4777
   -30.4747 -30.4747 -30.4744 -30.4744 -30.4359 -30.4359 -30.4333 -30.4333
   -20.3300 -20.3300 -20.3300 -20.3299 -20.3299 -20.3299 -20.3299 -20.3299
   -20.3108 -20.3108 -20.3105 -20.3105 -20.3062 -20.3061 -20.3057 -20.3057
   -20.3055 -20.3055 -20.3054 -20.3054 -20.3053 -20.3053 -20.3051 -20.3051
   -20.3049 -20.3049 -20.3046 -20.3046 -20.3046 -20.3046 -20.3040 -20.3040
   -20.2979 -20.2979 -20.2975 -20.2975 -20.2964 -20.2964 -20.2964 -20.2964
   -20.2961 -20.2961 -20.2960 -20.2960 -20.2932 -20.2932 -20.2929 -20.2929
   -20.2927 -20.2927 -20.2925 -20.2925 -20.2900 -20.2900 -20.2895 -20.2895
    -9.6291  -9.6291  -9.3561  -9.3561  -9.1624  -9.1624  -8.8701  -8.8701
    -8.6044  -8.6044  -8.6030  -8.6030  -8.5511  -8.5511  -8.4898  -8.4898
    -7.8461  -7.8461  -7.8324  -7.8323  -7.7722  -7.7722  -7.7303  -7.7303
     1.4106   1.4106   1.5017   1.5017   1.6008   1.6008   1.6668   1.6668
     2.7162   2.7162   2.9593   2.9593   3.0431   3.0431   3.1626   3.1626
     3.2323   3.2323   3.3490   3.3490   3.4478   3.4478   3.7588   3.7588
     3.8618   3.8619   4.3551   4.3551   4.5652   4.5652   4.8368   4.8368
     4.9781   4.9781   4.9891   4.9891   5.2088   5.2088   5.6552   5.6552
     5.7555   5.7555   5.8245   5.8245   5.8720   5.8720   6.0113   6.0113
     6.3545   6.3545   6.4727   6.4727   6.6938   6.6938   6.7232   6.7232
     6.7832   6.7833   6.9437   6.9437   6.9967   6.9967   7.5166   7.5167
     7.5524   7.5524   7.7024   7.7024   7.7225   7.7225   8.1193   8.1194
    10.1908  10.1908  11.1992  11.1992  11.2599  11.2599  11.5655  11.5655
    11.7423  11.7423  12.5817  12.5817  12.6859  12.6859  12.7092  12.7092
    12.9129  12.9129  13.2133  13.2133  13.3243  13.3243  14.0074  14.0074
    14.3787  14.3787  15.0774  15.0774  15.8999  15.8999  16.1478  16.1478
    16.8268  16.8269  17.8925  17.8926  17.9225

          k = 0.1667 0.1575 0.1667 ( 62255 PWs)   bands (ev):

   -66.1721 -66.1717 -66.1712 -66.1712 -66.1709 -66.1709 -66.1703 -66.1700
   -30.5454 -30.5420 -30.5420 -30.5382 -30.5276 -30.5272 -30.5244 -30.5239
   -30.5228 -30.5221 -30.5199 -30.5189 -30.4918 -30.4900 -30.4900 -30.4883
   -30.4379 -30.4376 -30.4356 -30.4354 -30.4338 -30.4337 -30.4316 -30.4314
   -20.3301 -20.3300 -20.3300 -20.3300 -20.3299 -20.3299 -20.3299 -20.3298
   -20.3105 -20.3102 -20.3102 -20.3099 -20.3063 -20.3062 -20.3060 -20.3060
   -20.3060 -20.3059 -20.3057 -20.3055 -20.3053 -20.3053 -20.3052 -20.3052
   -20.3049 -20.3049 -20.3049 -20.3047 -20.3042 -20.3042 -20.3042 -20.3039
   -20.2981 -20.2979 -20.2978 -20.2977 -20.2974 -20.2974 -20.2972 -20.2969
   -20.2955 -20.2955 -20.2955 -20.2954 -20.2954 -20.2954 -20.2953 -20.2953
   -20.2903 -20.2902 -20.2899 -20.2897 -20.2897 -20.2897 -20.2893 -20.2892
    -9.8551  -9.6291  -9.4546  -9.4545  -9.2461  -9.2461  -9.0377  -9.0265
    -8.9781  -8.7991  -8.7937  -8.7936  -7.9201  -7.9067  -7.9045  -7.8983
    -7.8960  -7.8405  -7.8398  -7.8378  -7.8111  -7.7720  -7.7697  -7.7525
     1.3461   1.3466   1.4437   1.4439   1.4702   1.4705   1.5955   1.8117
     1.8340   1.8901   1.8901   2.1107   2.5137   2.5841   2.7409   2.7415
     2.8516   2.8725   3.9741   4.0056   4.0778   4.0784   4.4092   4.4093
     4.4657   4.4661   4.6837   4.7139   4.7317   4.7777   4.7995   5.1825
     5.1983   5.2531   5.2532   5.3212   5.3335   5.5703   5.5713   5.6545
     5.7229   5.7243   5.8198   5.8247   5.8254   5.9144   6.3309   6.3531
     6.3603   6.4891   6.4904   6.6341   6.6343   6.7102   6.7576   6.7908
     6.7920   6.8408   6.8553   6.8562   6.9447   6.9616   6.9634   7.0894
     7.2512   7.3023   7.8405   7.8411   7.9990   8.0386   8.0423   8.0434
     9.8103   9.8521  10.3328  10.3552  10.3590  10.4145  12.1936  12.2348
    12.2784  12.2815  12.2855  12.2894  12.4256  12.4257  12.9931  13.0327
    13.0668  13.1293  13.1838  13.3746  13.8938  13.9018  13.9076  13.9748
    14.3963  14.7721  14.7721  15.2645  15.5800  15.5926  15.7896  16.3807
    16.3808  16.8826  17.1254  17.1258  17.6286

          k = 0.1667 0.1575 0.3333 ( 62260 PWs)   bands (ev):

   -66.1719 -66.1716 -66.1714 -66.1710 -66.1710 -66.1707 -66.1705 -66.1702
   -30.5451 -30.5429 -30.5416 -30.5392 -30.5264 -30.5241 -30.5226 -30.5204
   -30.5103 -30.5070 -30.5043 -30.5006 -30.4913 -30.4897 -30.4891 -30.4879
   -30.4559 -30.4540 -30.4519 -30.4500 -30.4369 -30.4347 -30.4345 -30.4323
   -20.3300 -20.3300 -20.3300 -20.3300 -20.3299 -20.3299 -20.3299 -20.3299
   -20.3105 -20.3103 -20.3102 -20.3100 -20.3062 -20.3060 -20.3059 -20.3059
   -20.3058 -20.3057 -20.3056 -20.3054 -20.3053 -20.3053 -20.3051 -20.3051
   -20.3050 -20.3050 -20.3048 -20.3048 -20.3045 -20.3044 -20.3042 -20.3040
   -20.2980 -20.2978 -20.2977 -20.2975 -20.2971 -20.2969 -20.2966 -20.2964
   -20.2959 -20.2958 -20.2958 -20.2956 -20.2946 -20.2945 -20.2943 -20.2942
   -20.2916 -20.2912 -20.2910 -20.2907 -20.2901 -20.2898 -20.2897 -20.2894
    -9.7277  -9.5053  -9.4906  -9.2879  -9.2697  -9.0124  -8.9842  -8.9226
    -8.8871  -8.8067  -8.7587  -8.7104  -8.2243  -8.2155  -8.1628  -8.1264
    -7.8890  -7.8857  -7.8755  -7.8517  -7.8284  -7.8265  -7.8096  -7.7829
     1.4537   1.4659   1.4855   1.4937   1.7708   1.7834   1.8551   1.8839
     2.1852   2.2454   2.3698   2.4775   2.7623   2.7862   2.8422   2.8749
     2.9828   3.0935   3.7420   3.8358   3.8507   3.8856   4.0639   4.1391
     4.2345   4.3293   4.5259   4.5648   4.6246   4.6691   4.7018   4.7363
     4.8643   4.8775   4.9070   5.1407   5.1655   5.1998   5.3143   5.6105
     5.6316   5.6828   5.7362   5.8054   5.8669   5.8845   6.1056   6.1488
     6.3522   6.5162   6.5230   6.6447   6.7047   6.7068   6.7356   6.7477
     6.8326   6.8658   6.8993   6.9389   7.0913   7.1122   7.1178   7.1961
     7.3058   7.3654   7.7671   7.7765   7.8953   7.9205   8.0420   8.0459
    10.3136  10.3575  10.4729  10.5168  10.9444  11.0220  11.8821  11.9141
    12.0982  12.4022  12.4094  12.4471  12.4609  12.5455  12.6687  12.6995
    12.9584  13.0475  13.0670  13.2792  13.5391  13.5668  13.9053  13.9324
    14.5957  14.7513  15.1294  15.5415  15.7011  15.8613  16.0516  16.2899
    16.5511  17.2511  17.2760  17.5394  17.6149

          k = 0.1667 0.1575-0.5000 ( 62292 PWs)   bands (ev):

   -66.1716 -66.1716 -66.1713 -66.1713 -66.1708 -66.1708 -66.1704 -66.1704
   -30.5441 -30.5441 -30.5405 -30.5405 -30.5252 -30.5252 -30.5216 -30.5216
   -30.4944 -30.4944 -30.4939 -30.4939 -30.4793 -30.4793 -30.4786 -30.4786
   -30.4753 -30.4753 -30.4748 -30.4748 -30.4357 -30.4357 -30.4335 -30.4335
   -20.3300 -20.3300 -20.3300 -20.3299 -20.3299 -20.3299 -20.3299 -20.3299
   -20.3104 -20.3104 -20.3101 -20.3101 -20.3061 -20.3061 -20.3059 -20.3059
   -20.3056 -20.3056 -20.3055 -20.3055 -20.3054 -20.3054 -20.3053 -20.3053
   -20.3048 -20.3048 -20.3048 -20.3048 -20.3047 -20.3046 -20.3041 -20.3041
   -20.2979 -20.2979 -20.2975 -20.2975 -20.2964 -20.2964 -20.2964 -20.2964
   -20.2961 -20.2961 -20.2960 -20.2960 -20.2932 -20.2932 -20.2929 -20.2929
   -20.2927 -20.2927 -20.2925 -20.2925 -20.2900 -20.2900 -20.2895 -20.2895
    -9.5967  -9.5967  -9.3649  -9.3649  -9.0965  -9.0965  -8.8343  -8.8343
    -8.6070  -8.6070  -8.6061  -8.6061  -8.5480  -8.5480  -8.4815  -8.4815
    -7.8812  -7.8812  -7.8470  -7.8470  -7.8407  -7.8407  -7.8078  -7.8078
     1.4656   1.4656   1.5016   1.5016   1.8005   1.8005   1.8800   1.8800
     2.7830   2.7830   2.9759   2.9759   3.0507   3.0507   3.1817   3.1817
     3.2366   3.2366   3.3556   3.3556   3.4398   3.4398   3.7672   3.7672
     3.9130   3.9130   4.2074   4.2074   4.5831   4.5831   4.6340   4.6340
     4.9004   4.9004   4.9559   4.9559   5.0512   5.0512   5.4401   5.4401
     5.7097   5.7097   5.7426   5.7426   5.8521   5.8521   5.8933   5.8933
     6.4714   6.4715   6.6244   6.6244   6.6585   6.6585   6.7657   6.7657
     6.8805   6.8805   6.9026   6.9026   7.0297   7.0297   7.5182   7.5182
     7.5469   7.5469   7.6735   7.6735   7.6916   7.6917   8.0472   8.0472
    10.3544  10.3544  11.2047  11.2047  11.2590  11.2590  11.6324  11.6324
    11.8038  11.8038  12.4452  12.4452  12.6630  12.6630  12.7042  12.7042
    12.8910  12.8910  13.1113  13.1113  13.2720  13.2720  13.9149  13.9149
    14.7046  14.7046  15.4593  15.4593  16.0108  16.0108  16.1259  16.1259
    16.8587  16.8587  17.6959  17.6959  17.9493

          k = 0.1667 0.3150 0.1667 ( 62249 PWs)   bands (ev):

   -66.1720 -66.1718 -66.1711 -66.1711 -66.1709 -66.1709 -66.1702 -66.1701
   -30.5358 -30.5326 -30.5325 -30.5278 -30.5272 -30.5265 -30.5247 -30.5238
   -30.5218 -30.5211 -30.5205 -30.5186 -30.5021 -30.5006 -30.5005 -30.4989
   -30.4374 -30.4372 -30.4360 -30.4359 -30.4333 -30.4333 -30.4320 -30.4319
   -20.3300 -20.3300 -20.3300 -20.3300 -20.3299 -20.3299 -20.3299 -20.3299
   -20.3095 -20.3092 -20.3092 -20.3090 -20.3068 -20.3065 -20.3065 -20.3062
   -20.3062 -20.3060 -20.3059 -20.3058 -20.3058 -20.3056 -20.3055 -20.3054
   -20.3048 -20.3047 -20.3047 -20.3045 -20.3044 -20.3044 -20.3043 -20.3041
   -20.2980 -20.2978 -20.2978 -20.2977 -20.2975 -20.2975 -20.2971 -20.2969
   -20.2955 -20.2955 -20.2955 -20.2954 -20.2954 -20.2954 -20.2953 -20.2953
   -20.2903 -20.2901 -20.2900 -20.2898 -20.2896 -20.2896 -20.2894 -20.2893
    -9.7888  -9.6615  -9.3805  -9.3804  -9.2687  -9.2686  -9.0353  -9.0287
    -8.7702  -8.6555  -8.6555  -8.6516  -8.1564  -8.1159  -8.1159  -8.0959
    -7.8987  -7.8979  -7.8839  -7.8829  -7.8075  -7.7926  -7.7669  -7.7564
     1.3461   1.3464   1.4630   1.4633   1.4697   1.4700   1.7603   1.8084
     2.4018   2.5191   2.5192   2.5290   2.5620   2.6795   2.9623   2.9631
     3.0630   3.0742   3.6562   3.6573   3.6689   3.7172   4.1390   4.4085
     4.4088   4.4271   4.4283   4.5285   4.5294   4.7582   4.7582   4.8591
     4.9008   4.9029   5.1003   5.1330   5.3320   5.3753   5.4262   5.4264
     5.6519   5.6750   5.7313   5.7322   5.8176   5.8179   6.3650   6.3677
     6.4133   6.4730   6.4774   6.6105   6.6618   6.7013   6.8417   6.8420
     6.9078   6.9081   6.9934   6.9970   7.0928   7.1113   7.1141   7.1303
     7.2776   7.3104   7.8147   7.8158   7.8211   7.8302   7.8432   7.8698
     9.8301   9.8475  10.7489  10.8034  10.8094  10.8165  11.8374  11.8844
    11.9625  11.9631  12.2949  12.2950  12.3266  12.3266  13.0041  13.0627
    13.1909  13.2053  13.2531  13.4222  13.6639  13.6642  13.6710  13.7669
    15.1244  15.4343  15.4348  15.5829  15.5900  15.7575  16.2548  16.2550
    16.3208  16.7905  17.3617  17.4534  17.4552

          k = 0.1667 0.3150 0.3333 ( 62265 PWs)   bands (ev):

   -66.1718 -66.1716 -66.1713 -66.1711 -66.1709 -66.1707 -66.1704 -66.1702
   -30.5353 -30.5332 -30.5315 -30.5287 -30.5259 -30.5242 -30.5219 -30.5206
   -30.5115 -30.5095 -30.5044 -30.5017 -30.5011 -30.5001 -30.4967 -30.4966
   -30.4556 -30.4545 -30.4516 -30.4504 -30.4364 -30.4351 -30.4341 -30.4328
   -20.3300 -20.3300 -20.3300 -20.3299 -20.3299 -20.3299 -20.3299 -20.3299
   -20.3095 -20.3093 -20.3092 -20.3090 -20.3068 -20.3066 -20.3065 -20.3063
   -20.3061 -20.3059 -20.3058 -20.3057 -20.3055 -20.3055 -20.3054 -20.3052
   -20.3050 -20.3049 -20.3047 -20.3046 -20.3046 -20.3045 -20.3043 -20.3042
   -20.2979 -20.2977 -20.2977 -20.2975 -20.2971 -20.2970 -20.2966 -20.2964
   -20.2959 -20.2958 -20.2958 -20.2956 -20.2946 -20.2945 -20.2944 -20.2942
   -20.2915 -20.2912 -20.2910 -20.2907 -20.2900 -20.2898 -20.2897 -20.2895
    -9.6553  -9.5225  -9.4302  -9.3123  -9.1605  -9.0091  -8.9083  -8.8924
    -8.8062  -8.6729  -8.6299  -8.6073  -8.2574  -8.2474  -8.2080  -8.1204
    -8.1145  -8.1068  -8.0752  -8.0249  -7.8730  -7.8593  -7.8063  -7.7943
     1.4772   1.4848   1.4876   1.4933   2.1268   2.1812   2.2389   2.3666
     2.4093   2.5155   2.5264   2.6910   2.8068   2.8738   2.9788   3.0546
     3.2057   3.2820   3.6256   3.6446   3.7114   3.7328   3.8199   3.9004
     4.1149   4.2967   4.3884   4.4122   4.4918   4.5391   4.5641   4.5970
     4.6438   4.7898   4.8176   4.8837   4.8956   4.9520   5.1125   5.1463
     5.3067   5.3338   5.4590   5.6251   5.7548   5.8231   6.1352   6.1498
     6.5001   6.5887   6.6154   6.7431   6.7936   6.8142   6.9174   6.9640
     6.9949   7.0200   7.0411   7.0561   7.1177   7.1520   7.1878   7.2514
     7.2837   7.3517   7.7365   7.7407   7.7603   7.7751   7.8274   7.8535
    10.4539  10.4859  10.7985  10.8057  11.2633  11.3007  11.8435  11.8765
    11.8888  12.0273  12.1614  12.1986  12.4578  12.5360  12.6552  12.6892
    12.9113  13.0721  13.1165  13.3181  13.3349  13.3554  13.6708  13.7145
    15.3128  15.4163  15.8298  15.9518  15.9863  16.1108  16.1780  16.6725
    16.7653  16.8762  17.1087  17.5769  17.7033

          k = 0.1667 0.3150-0.5000 ( 62264 PWs)   bands (ev):

   -66.1716 -66.1716 -66.1714 -66.1714 -66.1707 -66.1707 -66.1705 -66.1705
   -30.5343 -30.5342 -30.5301 -30.5301 -30.5248 -30.5248 -30.5215 -30.5215
   -30.5036 -30.5036 -30.5025 -30.5025 -30.4799 -30.4799 -30.4796 -30.4796
   -30.4761 -30.4760 -30.4754 -30.4754 -30.4353 -30.4353 -30.4340 -30.4340
   -20.3300 -20.3300 -20.3300 -20.3300 -20.3299 -20.3299 -20.3299 -20.3299
   -20.3094 -20.3094 -20.3092 -20.3092 -20.3068 -20.3067 -20.3065 -20.3064
   -20.3060 -20.3059 -20.3056 -20.3056 -20.3054 -20.3054 -20.3052 -20.3052
   -20.3050 -20.3050 -20.3048 -20.3048 -20.3047 -20.3046 -20.3043 -20.3043
   -20.2978 -20.2978 -20.2976 -20.2976 -20.2964 -20.2964 -20.2964 -20.2963
   -20.2962 -20.2962 -20.2960 -20.2960 -20.2931 -20.2931 -20.2929 -20.2929
   -20.2927 -20.2927 -20.2925 -20.2925 -20.2899 -20.2899 -20.2896 -20.2896
    -9.5210  -9.5210  -9.3931  -9.3931  -8.9214  -8.9214  -8.7353  -8.7353
    -8.6286  -8.6286  -8.6152  -8.6152  -8.5176  -8.5176  -8.4464  -8.4464
    -8.1119  -8.1119  -8.0814  -8.0814  -7.8395  -7.8395  -7.8267  -7.8267
     1.4927   1.4927   1.5010   1.5010   2.3985   2.3985   2.5068   2.5068
     2.9604   2.9604   3.0355   3.0356   3.0497   3.0497   3.2252   3.2252
     3.2575   3.2575   3.3857   3.3857   3.4083   3.4083   3.6559   3.6559
     4.0493   4.0493   4.0893   4.0893   4.1110   4.1110   4.3646   4.3646
     4.7336   4.7336   4.8024   4.8024   4.9784   4.9784   5.0110   5.0110
     5.0844   5.0844   5.5288   5.5288   5.8536   5.8536   5.8801   5.8801
     6.6502   6.6502   6.7744   6.7744   6.8076   6.8076   6.8384   6.8384
     7.0217   7.0217   7.0721   7.0721   7.1719   7.1719   7.5135   7.5135
     7.5297   7.5297   7.5773   7.5773   7.6041   7.6041   7.8376   7.8377
    10.7836  10.7836  11.2169  11.2169  11.2582  11.2582  11.7401  11.7401
    11.9920  11.9920  12.1451  12.1451  12.5497  12.5497  12.6029  12.6029
    12.7962  12.7962  12.9148  12.9148  13.2794  13.2794  13.6878  13.6878
    15.3801  15.3801  16.0394  16.0394  16.3482  16.3482  16.4434  16.4434
    16.9899  16.9899  17.3340  17.3340  17.9046

          k = 0.1667-0.4725 0.1667 ( 62220 PWs)   bands (ev):

   -66.1719 -66.1719 -66.1710 -66.1710 -66.1710 -66.1710 -66.1702 -66.1702
   -30.5281 -30.5281 -30.5270 -30.5270 -30.5250 -30.5250 -30.5217 -30.5217
   -30.5146 -30.5146 -30.5142 -30.5142 -30.5138 -30.5138 -30.5133 -30.5133
   -30.4368 -30.4368 -30.4365 -30.4365 -30.4328 -30.4328 -30.4325 -30.4325
   -20.3300 -20.3300 -20.3299 -20.3299 -20.3299 -20.3299 -20.3299 -20.3299
   -20.3082 -20.3082 -20.3079 -20.3079 -20.3079 -20.3079 -20.3076 -20.3076
   -20.3060 -20.3060 -20.3058 -20.3058 -20.3057 -20.3057 -20.3056 -20.3056
   -20.3046 -20.3046 -20.3045 -20.3045 -20.3045 -20.3045 -20.3043 -20.3043
   -20.2979 -20.2979 -20.2977 -20.2977 -20.2976 -20.2976 -20.2971 -20.2971
   -20.2955 -20.2955 -20.2955 -20.2955 -20.2954 -20.2954 -20.2953 -20.2953
   -20.2901 -20.2901 -20.2899 -20.2899 -20.2895 -20.2895 -20.2894 -20.2894
    -9.7167  -9.7167  -9.3124  -9.3124  -9.3119  -9.3119  -9.0320  -9.0320
    -8.4697  -8.4697  -8.4130  -8.4130  -8.4126  -8.4126  -8.4053  -8.4053
    -7.8922  -7.8922  -7.8911  -7.8911  -7.8010  -7.8010  -7.7617  -7.7617
     1.3462   1.3462   1.4680   1.4680   1.4686   1.4686   1.7979   1.7979
     2.5481   2.5481   3.2014   3.2014   3.2102   3.2102   3.2627   3.2628
     3.2818   3.2818   3.3605   3.3605   3.5274   3.5274   3.5334   3.5334
     3.7330   3.7330   4.4216   4.4217   4.4624   4.4624   4.9346   4.9346
     5.0160   5.0160   5.1341   5.1341   5.1749   5.1749   5.4213   5.4213
     5.4659   5.4659   5.7428   5.7428   5.7731   5.7731   6.4277   6.4278
     6.4498   6.4499   6.5254   6.5254   6.6689   6.6689   6.8782   6.8782
     6.8900   6.8900   7.0610   7.0610   7.2365   7.2365   7.4732   7.4732
     7.4826   7.4827   7.4956   7.4956   7.5391   7.5391   7.8443   7.8443
     9.8411   9.8411  11.3038  11.3038  11.3580  11.3580  11.3949  11.3949
    11.3981  11.3981  12.2991  12.2991  12.3202  12.3202  13.0405  13.0405
    13.3919  13.3919  13.4060  13.4060  13.4232  13.4232  13.5589  13.5589
    15.5854  15.5854  15.7401  15.7401  15.9694  15.9694  15.9791  15.9791
    16.6244  16.6244  17.9095  17.9235  17.9254

          k = 0.1667-0.4725 0.3333 ( 62252 PWs)   bands (ev):

   -66.1717 -66.1717 -66.1712 -66.1712 -66.1708 -66.1708 -66.1703 -66.1703
   -30.5270 -30.5266 -30.5252 -30.5249 -30.5190 -30.5188 -30.5176 -30.5175
   -30.5151 -30.5149 -30.5144 -30.5144 -30.5037 -30.5036 -30.5003 -30.5001
   -30.4552 -30.4550 -30.4512 -30.4509 -30.4359 -30.4356 -30.4336 -30.4334
   -20.3300 -20.3300 -20.3300 -20.3300 -20.3299 -20.3299 -20.3299 -20.3299
   -20.3082 -20.3082 -20.3080 -20.3080 -20.3079 -20.3079 -20.3077 -20.3077
   -20.3059 -20.3059 -20.3057 -20.3057 -20.3056 -20.3055 -20.3054 -20.3053
   -20.3048 -20.3048 -20.3047 -20.3047 -20.3045 -20.3045 -20.3044 -20.3044
   -20.2978 -20.2978 -20.2977 -20.2976 -20.2970 -20.2970 -20.2966 -20.2965
   -20.2958 -20.2958 -20.2958 -20.2956 -20.2946 -20.2945 -20.2944 -20.2942
   -20.2914 -20.2913 -20.2909 -20.2908 -20.2899 -20.2899 -20.2897 -20.2896
    -9.5788  -9.5787  -9.3591  -9.3587  -9.0634  -9.0629  -8.8984  -8.8983
    -8.5152  -8.5146  -8.4475  -8.4459  -8.3996  -8.3986  -8.3930  -8.3929
    -8.1891  -8.1883  -8.1001  -8.0993  -7.8672  -7.8664  -7.8010  -7.8002
     1.4827   1.4834   1.4915   1.4924   2.1723   2.1729   2.3496   2.3508
     2.8205   2.8234   3.2078   3.2114   3.2292   3.2373   3.2515   3.2575
     3.2735   3.2951   3.4204   3.4602   3.4984   3.5291   3.6594   3.6668
     3.7665   3.7794   3.8235   3.8845   4.4427   4.4869   4.5657   4.5734
     4.6454   4.7006   4.7535   4.7868   4.9729   4.9764   4.9896   5.0695
     5.1570   5.2099   5.3157   5.4035   5.7645   5.7821   6.1438   6.1488
     6.5803   6.5857   6.6880   6.7038   6.8354   6.8434   6.9906   7.0453
     7.0597   7.0723   7.1677   7.1883   7.2083   7.2147   7.4425   7.4509
     7.4650   7.4779   7.4893   7.5006   7.5135   7.5298   7.7810   7.7814
    10.4763  10.4794  11.3337  11.3491  11.3689  11.3798  11.7148  11.7287
    11.7376  11.7561  11.8920  11.9408  12.4593  12.5118  12.7712  12.8024
    12.9084  12.9378  13.1145  13.2070  13.4038  13.4310  13.4551  13.5155
    15.7113  15.7289  15.9166  15.9318  16.3111  16.3376  16.6917  16.7154
    16.8306  16.8353  17.4040  17.4376  17.8731

          k = 0.1667-0.4725-0.5000 ( 62232 PWs)   bands (ev):

   -66.1715 -66.1715 -66.1715 -66.1715 -66.1706 -66.1706 -66.1706 -66.1706
   -30.5260 -30.5260 -30.5256 -30.5256 -30.5164 -30.5164 -30.5162 -30.5162
   -30.5160 -30.5160 -30.5159 -30.5158 -30.4802 -30.4802 -30.4799 -30.4799
   -30.4761 -30.4761 -30.4758 -30.4758 -30.4348 -30.4348 -30.4345 -30.4345
   -20.3300 -20.3300 -20.3300 -20.3300 -20.3299 -20.3299 -20.3299 -20.3299
   -20.3081 -20.3081 -20.3081 -20.3081 -20.3078 -20.3078 -20.3078 -20.3078
   -20.3058 -20.3058 -20.3058 -20.3057 -20.3052 -20.3052 -20.3052 -20.3052
   -20.3050 -20.3050 -20.3050 -20.3050 -20.3045 -20.3045 -20.3045 -20.3045
   -20.2977 -20.2977 -20.2977 -20.2977 -20.2964 -20.2964 -20.2963 -20.2963
   -20.2962 -20.2962 -20.2960 -20.2960 -20.2931 -20.2931 -20.2930 -20.2930
   -20.2927 -20.2927 -20.2926 -20.2926 -20.2898 -20.2898 -20.2897 -20.2897
    -9.4457  -9.4457  -9.4448  -9.4448  -8.7331  -8.7331  -8.7286  -8.7286
    -8.6417  -8.6417  -8.6370  -8.6369  -8.3751  -8.3751  -8.3671  -8.3671
    -8.3335  -8.3335  -8.3259  -8.3259  -7.8340  -7.8340  -7.8332  -7.8332
     1.4984   1.4984   1.4997   1.4997   2.9770   2.9770   2.9905   2.9905
     3.1099   3.1099   3.1445   3.1445   3.2074   3.2074   3.2275   3.2275
     3.2832   3.2832   3.3746   3.3746   3.4320   3.4320   3.4784   3.4784
     3.6126   3.6126   3.6631   3.6631   4.2890   4.2890   4.3086   4.3086
     4.3915   4.3915   4.4101   4.4101   4.8457   4.8457   5.0015   5.0015
     5.1464   5.1464   5.2914   5.2914   5.8557   5.8557   5.8685   5.8685
     6.7308   6.7308   6.7625   6.7625   6.8361   6.8361   6.8695   6.8695
     7.2783   7.2783   7.3207   7.3207   7.3622   7.3622   7.4031   7.4031
     7.4477   7.4477   7.4857   7.4857   7.5835   7.5835   7.6129   7.6129
    11.1858  11.1858  11.2232  11.2232  11.3570  11.3570  11.4206  11.4207
    12.2484  12.2484  12.2782  12.2782  12.2910  12.2910  12.3088  12.3088
    12.7756  12.7756  12.8447  12.8447  13.4197  13.4197  13.4661  13.4661
    15.8267  15.8267  15.8453  15.8453  16.9295  16.9295  16.9413  16.9414
    17.3833  17.3834  17.4043  17.4043  17.4854

          k = 0.3333 0.0000 0.3333 ( 62316 PWs)   bands (ev):

   -66.1717 -66.1713 -66.1712 -66.1712 -66.1708 -66.1708 -66.1707 -66.1703
   -30.5485 -30.5463 -30.5463 -30.5440 -30.5095 -30.5095 -30.5090 -30.5051
   -30.5039 -30.5035 -30.5021 -30.5006 -30.4874 -30.4857 -30.4856 -30.4839
   -30.4561 -30.4544 -30.4537 -30.4529 -30.4526 -30.4523 -30.4507 -30.4503
   -20.3300 -20.3300 -20.3300 -20.3300 -20.3299 -20.3299 -20.3299 -20.3299
   -20.3108 -20.3106 -20.3106 -20.3105 -20.3060 -20.3059 -20.3058 -20.3058
   -20.3057 -20.3055 -20.3054 -20.3052 -20.3052 -20.3052 -20.3051 -20.3051
   -20.3050 -20.3049 -20.3049 -20.3048 -20.3044 -20.3044 -20.3043 -20.3041
   -20.2977 -20.2975 -20.2973 -20.2972 -20.2970 -20.2970 -20.2962 -20.2961
   -20.2957 -20.2953 -20.2949 -20.2948 -20.2946 -20.2945 -20.2940 -20.2938
   -20.2918 -20.2914 -20.2912 -20.2912 -20.2910 -20.2908 -20.2907 -20.2906
    -9.6140  -9.3684  -9.3683  -9.2929  -9.1220  -9.0218  -9.0217  -8.8111
    -8.7958  -8.7776  -8.7520  -8.7518  -8.2605  -8.2036  -8.1980  -8.1972
    -8.1873  -8.1868  -8.0836  -8.0642  -7.7785  -7.7526  -7.7526  -7.7271
     1.5182   1.5574   1.5575   1.6000   2.0739   2.0792   2.2013   2.2022
     2.2422   2.2434   2.4568   2.5595   2.9230   2.9241   2.9600   2.9970
     3.1560   3.1840   3.8038   3.8049   3.8557   3.8579   4.0647   4.0651
     4.1388   4.1397   4.1977   4.2959   4.3779   4.3827   4.4555   4.4850
     4.8227   4.8356   4.8677   4.9293   5.0094   5.0102   5.1261   5.4076
     5.4086   5.4481   5.4523   5.6570   5.9276   5.9277   5.9368   6.0655
     6.4878   6.5022   6.5051   6.5279   6.5281   6.5517   6.5519   6.6352
     6.9883   7.1732   7.1735   7.1843   7.1853   7.2765   7.3296   7.3303
     7.3644   7.4878   7.7222   7.7270   7.9098   7.9843   7.9861   8.0279
    10.7097  10.8075  10.8361  10.8380  10.9291  11.1370  12.0534  12.0547
    12.1040  12.1055  12.2084  12.2803  12.5144  12.5144  12.7778  12.7885
    12.7888  12.8001  12.9311  13.0265  13.5589  13.6276  13.6292  13.7269
    14.4544  14.7256  14.7256  15.1810  15.8418  16.4192  16.4663  16.8044
    16.8054  17.2798  17.2801  17.8344  17.9294

          k = 0.3333 0.0000-0.5000 ( 62288 PWs)   bands (ev):

   -66.1715 -66.1715 -66.1711 -66.1711 -66.1710 -66.1710 -66.1706 -66.1706
   -30.5475 -30.5475 -30.5452 -30.5452 -30.5084 -30.5084 -30.5026 -30.5026
   -30.4919 -30.4919 -30.4897 -30.4897 -30.4784 -30.4784 -30.4777 -30.4777
   -30.4753 -30.4753 -30.4748 -30.4748 -30.4539 -30.4539 -30.4517 -30.4517
   -20.3300 -20.3300 -20.3300 -20.3300 -20.3299 -20.3299 -20.3299 -20.3299
   -20.3107 -20.3107 -20.3106 -20.3106 -20.3059 -20.3059 -20.3056 -20.3056
   -20.3055 -20.3055 -20.3054 -20.3054 -20.3053 -20.3053 -20.3051 -20.3051
   -20.3050 -20.3050 -20.3046 -20.3046 -20.3046 -20.3046 -20.3042 -20.3042
   -20.2974 -20.2974 -20.2973 -20.2972 -20.2966 -20.2966 -20.2966 -20.2966
   -20.2951 -20.2951 -20.2948 -20.2948 -20.2933 -20.2933 -20.2929 -20.2929
   -20.2928 -20.2928 -20.2925 -20.2925 -20.2912 -20.2912 -20.2908 -20.2908
    -9.4663  -9.4663  -9.2076  -9.2076  -9.1152  -9.1152  -8.7712  -8.7712
    -8.6543  -8.6543  -8.5828  -8.5828  -8.5279  -8.5279  -8.4944  -8.4944
    -8.1576  -8.1576  -8.1525  -8.1525  -7.7658  -7.7658  -7.7400  -7.7400
     1.5380   1.5380   1.5813   1.5813   2.2141   2.2141   2.2447   2.2448
     2.9121   2.9121   2.9941   2.9941   3.0274   3.0274   3.1787   3.1787
     3.2713   3.2713   3.5589   3.5590   3.6635   3.6636   3.8057   3.8057
     3.8471   3.8471   4.0350   4.0350   4.1660   4.1661   4.3153   4.3153
     4.6533   4.6533   4.8744   4.8744   4.9943   4.9943   5.0644   5.0644
     5.2291   5.2291   5.5164   5.5164   5.9575   5.9575   6.0390   6.0390
     6.4187   6.4187   6.4410   6.4410   6.5140   6.5140   6.5832   6.5832
     7.1624   7.1624   7.2702   7.2702   7.3611   7.3611   7.5458   7.5458
     7.5598   7.5598   7.6953   7.6953   7.7484   7.7485   7.9964   7.9964
    10.8322  10.8322  11.4243  11.4243  11.5034  11.5034  11.6151  11.6151
    11.8117  11.8117  12.2669  12.2670  12.4211  12.4211  12.6336  12.6336
    12.8003  12.8003  13.1676  13.1676  13.2052  13.2052  13.6414  13.6414
    14.6276  14.6277  15.0025  15.0025  16.3108  16.3108  16.8522  16.8523
    17.2162  17.2163  17.5233  17.5233  17.9499

          k = 0.3333 0.1575 0.3333 ( 62283 PWs)   bands (ev):

   -66.1717 -66.1714 -66.1712 -66.1712 -66.1709 -66.1709 -66.1707 -66.1704
   -30.5447 -30.5425 -30.5425 -30.5402 -30.5097 -30.5096 -30.5095 -30.5050
   -30.5040 -30.5035 -30.5024 -30.5007 -30.4911 -30.4891 -30.4890 -30.4872
   -30.4559 -30.4544 -30.4538 -30.4531 -30.4526 -30.4524 -30.4509 -30.4505
   -20.3300 -20.3300 -20.3300 -20.3300 -20.3299 -20.3299 -20.3299 -20.3299
   -20.3105 -20.3103 -20.3103 -20.3101 -20.3060 -20.3059 -20.3058 -20.3058
   -20.3058 -20.3057 -20.3056 -20.3054 -20.3052 -20.3052 -20.3052 -20.3051
   -20.3050 -20.3050 -20.3049 -20.3049 -20.3045 -20.3044 -20.3044 -20.3042
   -20.2977 -20.2975 -20.2972 -20.2972 -20.2971 -20.2970 -20.2962 -20.2961
   -20.2957 -20.2954 -20.2948 -20.2948 -20.2946 -20.2945 -20.2940 -20.2939
   -20.2918 -20.2914 -20.2912 -20.2912 -20.2910 -20.2908 -20.2908 -20.2906
    -9.5777  -9.3224  -9.3223  -9.3037  -9.0511  -9.0299  -9.0297  -8.8102
    -8.7964  -8.7387  -8.7238  -8.7236  -8.2748  -8.2016  -8.2004  -8.1979
    -8.1877  -8.1875  -8.0824  -8.0655  -7.8730  -7.8482  -7.8481  -7.8226
     1.7436   1.7758   1.7758   1.8252   2.0741   2.0789   2.2005   2.2013
[...]
   -20.3979 -20.3979 -20.3978 -20.3978 -20.3978 -20.3978 -20.3974 -20.3974
   -20.3900 -20.3900 -20.3899 -20.3899 -20.3894 -20.3894 -20.3894 -20.3894
   -20.3877 -20.3876 -20.3874 -20.3874 -20.3859 -20.3859 -20.3856 -20.3856
   -20.3855 -20.3855 -20.3853 -20.3853 -20.3839 -20.3839 -20.3836 -20.3836
    -9.3729  -9.3729  -9.1782  -9.1782  -9.0713  -9.0713  -8.7470  -8.7470
    -8.7112  -8.7112  -8.6072  -8.6071  -8.5474  -8.5474  -8.5089  -8.5089
    -8.2460  -8.2459  -8.2071  -8.2071  -8.1863  -8.1863  -8.1354  -8.1353
     2.1149   2.1149   2.1893   2.1893   2.2923   2.2923   2.4146   2.4146
     2.9775   2.9775   3.0239   3.0239   3.1086   3.1086   3.1824   3.1824
     3.2682   3.2682   3.5405   3.5405   3.6278   3.6279   3.7164   3.7164
     3.9713   3.9713   4.0071   4.0071   4.0499   4.0499   4.1577   4.1577
     4.2443   4.2443   4.3787   4.3787   4.5216   4.5216   4.7585   4.7585
     4.8749   4.8749   4.9183   4.9183   4.9682   4.9682   5.2171   5.2171
     6.7943   6.7943   6.8506   6.8506   6.9083   6.9083   6.9688   6.9688
     7.1017   7.1017   7.1996   7.1996   7.3208   7.3208   7.4384   7.4384
     7.4756   7.4756   7.5393   7.5393   7.5688   7.5688   7.7092   7.7092
    11.1326  11.1326  11.3649  11.3649  11.4447  11.4447  11.7519  11.7519
    11.9309  11.9309  12.2023  12.2023  12.2535  12.2535  12.2881  12.2881
    12.5877  12.5878  12.6853  12.6853  12.7617  12.7617  13.1868  13.1868
    15.8049  15.8049  16.3056  16.3057  16.5570  16.5571  16.6496  16.6496
    17.0607  17.0607  17.3104  17.3104  17.5710

          k = 0.3321-0.4739 0.3321 ( 62536 PWs)   bands (ev):

   -66.2600 -66.2600 -66.2596 -66.2596 -66.2596 -66.2596 -66.2591 -66.2591
   -30.6180 -30.6180 -30.6161 -30.6160 -30.6160 -30.6160 -30.6140 -30.6140
   -30.5759 -30.5759 -30.5755 -30.5755 -30.5736 -30.5736 -30.5725 -30.5725
   -30.5274 -30.5274 -30.5270 -30.5270 -30.5250 -30.5250 -30.5247 -30.5247
   -20.4228 -20.4228 -20.4228 -20.4228 -20.4228 -20.4228 -20.4228 -20.4228
   -20.4009 -20.4009 -20.4008 -20.4008 -20.4008 -20.4008 -20.4006 -20.4006
   -20.3986 -20.3986 -20.3984 -20.3984 -20.3984 -20.3984 -20.3983 -20.3983
   -20.3978 -20.3978 -20.3977 -20.3977 -20.3977 -20.3977 -20.3975 -20.3975
   -20.3902 -20.3902 -20.3898 -20.3898 -20.3897 -20.3897 -20.3890 -20.3890
   -20.3880 -20.3880 -20.3874 -20.3874 -20.3873 -20.3873 -20.3867 -20.3867
   -20.3842 -20.3842 -20.3837 -20.3837 -20.3837 -20.3837 -20.3836 -20.3836
    -9.4270  -9.4269  -9.1473  -9.1473  -9.1468  -9.1468  -8.8214  -8.8214
    -8.6747  -8.6747  -8.5200  -8.5200  -8.5186  -8.5186  -8.4982  -8.4982
    -8.2127  -8.2127  -8.2110  -8.2110  -8.2063  -8.2063  -8.1123  -8.1123
     2.0637   2.0637   2.1646   2.1646   2.1666   2.1666   2.3961   2.3961
     3.0689   3.0689   3.1436   3.1436   3.1638   3.1638   3.1762   3.1762
     3.2728   3.2728   3.4671   3.4671   3.5364   3.5364   3.5839   3.5839
     3.7037   3.7038   3.9980   3.9980   4.1181   4.1181   4.3294   4.3294
     4.4190   4.4190   4.5383   4.5383   4.6101   4.6101   4.6789   4.6789
     4.7801   4.7801   4.8915   4.8915   4.9052   4.9052   5.4248   5.4248
     6.8626   6.8626   6.9690   6.9690   7.0052   7.0052   7.0777   7.0777
     7.1438   7.1438   7.1817   7.1817   7.2096   7.2096   7.3481   7.3481
     7.3954   7.3954   7.4478   7.4478   7.4738   7.4738   7.6895   7.6895
    10.7916  10.7916  11.5707  11.5707  11.6090  11.6090  11.6568  11.6568
    11.7398  11.7398  11.9657  11.9657  12.0764  12.0764  12.5372  12.5372
    12.7920  12.7920  12.8210  12.8210  12.8720  12.8720  13.0762  13.0762
    16.2457  16.2457  16.3599  16.3599  16.5152  16.5152  16.5550  16.5550
    16.9210  16.9210  17.4282  17.4282  17.5036

          k = 0.3321-0.4739-0.4981 ( 62512 PWs)   bands (ev):

   -66.2598 -66.2598 -66.2598 -66.2598 -66.2593 -66.2593 -66.2593 -66.2593
   -30.6171 -30.6171 -30.6170 -30.6170 -30.6152 -30.6151 -30.6150 -30.6150
   -30.5745 -30.5745 -30.5743 -30.5743 -30.5515 -30.5515 -30.5512 -30.5512
   -30.5492 -30.5492 -30.5489 -30.5489 -30.5262 -30.5262 -30.5259 -30.5259
   -20.4228 -20.4228 -20.4228 -20.4228 -20.4228 -20.4228 -20.4228 -20.4228
   -20.4009 -20.4009 -20.4009 -20.4009 -20.4007 -20.4007 -20.4007 -20.4007
   -20.3985 -20.3985 -20.3984 -20.3984 -20.3981 -20.3981 -20.3981 -20.3981
   -20.3980 -20.3980 -20.3979 -20.3979 -20.3976 -20.3976 -20.3976 -20.3976
   -20.3900 -20.3900 -20.3900 -20.3900 -20.3894 -20.3894 -20.3894 -20.3894
   -20.3876 -20.3876 -20.3875 -20.3875 -20.3858 -20.3858 -20.3857 -20.3857
   -20.3854 -20.3854 -20.3854 -20.3854 -20.3838 -20.3838 -20.3837 -20.3837
    -9.2535  -9.2535  -9.2523  -9.2523  -8.8568  -8.8568  -8.8534  -8.8534
    -8.6243  -8.6243  -8.6201  -8.6201  -8.4656  -8.4656  -8.4587  -8.4587
    -8.4224  -8.4224  -8.4166  -8.4166  -8.1801  -8.1801  -8.1789  -8.1789
     2.1797   2.1797   2.1825   2.1825   2.9351   2.9351   2.9450   2.9451
     3.0495   3.0495   3.0596   3.0596   3.1987   3.1988   3.2250   3.2251
     3.2934   3.2934   3.3223   3.3223   3.5710   3.5710   3.5839   3.5839
     3.6944   3.6944   3.7375   3.7375   4.1726   4.1726   4.1998   4.1998
     4.2462   4.2462   4.3031   4.3031   4.3708   4.3708   4.4682   4.4682
     4.5748   4.5749   4.7190   4.7190   4.9817   4.9817   4.9959   4.9959
     6.9677   6.9678   6.9939   6.9939   7.1143   7.1143   7.1168   7.1168
     7.2149   7.2149   7.2509   7.2509   7.2698   7.2698   7.3393   7.3393
     7.4138   7.4138   7.4733   7.4733   7.5478   7.5478   7.5695   7.5695
    11.3301  11.3301  11.3641  11.3641  11.6398  11.6398  11.7088  11.7088
    12.0941  12.0941  12.1455  12.1455  12.2112  12.2112  12.2271  12.2271
    12.3861  12.3861  12.4933  12.4933  12.8578  12.8578  12.9350  12.9350
    16.4254  16.4254  16.4689  16.4689  17.0122  17.0122  17.0191  17.0191
    17.2857  17.2858  17.3440  17.3445  17.3718

          k =-0.4981 0.0000-0.4981 ( 62708 PWs)   bands (ev):

   -66.2598 -66.2598 -66.2598 -66.2598 -66.2594 -66.2594 -66.2593 -66.2593
   -30.6459 -30.6459 -30.6459 -30.6459 -30.5869 -30.5869 -30.5869 -30.5869
   -30.5524 -30.5524 -30.5522 -30.5522 -30.5512 -30.5512 -30.5504 -30.5504
   -30.5491 -30.5491 -30.5485 -30.5485 -30.5483 -30.5483 -30.5480 -30.5480
   -20.4228 -20.4228 -20.4228 -20.4228 -20.4228 -20.4228 -20.4228 -20.4228
   -20.4036 -20.4036 -20.4036 -20.4036 -20.3985 -20.3985 -20.3985 -20.3985
   -20.3983 -20.3983 -20.3983 -20.3983 -20.3982 -20.3982 -20.3981 -20.3981
   -20.3979 -20.3979 -20.3976 -20.3976 -20.3974 -20.3974 -20.3973 -20.3973
   -20.3898 -20.3898 -20.3897 -20.3897 -20.3897 -20.3897 -20.3896 -20.3896
   -20.3864 -20.3864 -20.3864 -20.3864 -20.3859 -20.3859 -20.3858 -20.3858
   -20.3853 -20.3853 -20.3853 -20.3853 -20.3849 -20.3849 -20.3849 -20.3849
    -9.4051  -9.4051  -9.4050  -9.4050  -8.8384  -8.8383  -8.8380  -8.8380
    -8.6546  -8.6546  -8.6542  -8.6542  -8.4856  -8.4856  -8.4852  -8.4852
    -8.4637  -8.4637  -8.4633  -8.4633  -7.8567  -7.8567  -7.8567  -7.8566
     1.4290   1.4290   1.4290   1.4290   2.8704   2.8705   2.8723   2.8723
     3.0166   3.0166   3.0219   3.0219   3.0465   3.0466   3.0529   3.0529
     3.2519   3.2519   3.2545   3.2545   3.7246   3.7246   3.7313   3.7313
     3.7404   3.7404   3.7461   3.7461   4.1177   4.1177   4.1184   4.1184
     4.2091   4.2091   4.2093   4.2093   4.8387   4.8387   4.8397   4.8397
     5.2919   5.2920   5.2933   5.2933   5.9335   5.9335   5.9338   5.9338
     6.3199   6.3199   6.3200   6.3200   6.3819   6.3819   6.3822   6.3822
     7.4103   7.4103   7.4107   7.4107   7.4443   7.4443   7.4465   7.4465
     7.5409   7.5409   7.5410   7.5410   7.7556   7.7557   7.7574   7.7574
    11.4582  11.4582  11.4602  11.4602  11.4820  11.4820  11.4828  11.4828
    11.8671  11.8671  11.8674  11.8674  12.0292  12.0292  12.0294  12.0294
    13.0243  13.0243  13.0245  13.0245  13.1851  13.1851  13.1856  13.1856
    14.8191  14.8191  14.8191  14.8191  16.6736  16.6736  16.6749  16.6749
    17.6958  17.6958  17.6963  17.6963  17.8281

          k =-0.4981 0.1580-0.4981 ( 62572 PWs)   bands (ev):

   -66.2597 -66.2597 -66.2597 -66.2597 -66.2594 -66.2594 -66.2594 -66.2594
   -30.6420 -30.6420 -30.6419 -30.6419 -30.5907 -30.5907 -30.5907 -30.5907
   -30.5522 -30.5522 -30.5520 -30.5520 -30.5512 -30.5512 -30.5504 -30.5504
   -30.5493 -30.5493 -30.5486 -30.5486 -30.5485 -30.5485 -30.5482 -30.5482
   -20.4228 -20.4228 -20.4228 -20.4228 -20.4228 -20.4228 -20.4228 -20.4228
   -20.4032 -20.4032 -20.4032 -20.4032 -20.3986 -20.3985 -20.3985 -20.3985
   -20.3984 -20.3984 -20.3984 -20.3984 -20.3982 -20.3982 -20.3982 -20.3982
   -20.3979 -20.3979 -20.3977 -20.3977 -20.3976 -20.3976 -20.3974 -20.3974
   -20.3898 -20.3898 -20.3897 -20.3897 -20.3897 -20.3897 -20.3896 -20.3896
   -20.3864 -20.3864 -20.3863 -20.3863 -20.3859 -20.3859 -20.3859 -20.3859
   -20.3853 -20.3853 -20.3853 -20.3853 -20.3849 -20.3849 -20.3849 -20.3849
    -9.3432  -9.3432  -9.3431  -9.3431  -8.8507  -8.8507  -8.8503  -8.8503
    -8.6402  -8.6402  -8.6398  -8.6398  -8.4848  -8.4848  -8.4843  -8.4843
    -8.4644  -8.4644  -8.4640  -8.4640  -7.9546  -7.9546  -7.9546  -7.9545
     1.6647   1.6647   1.6647   1.6648   2.8872   2.8872   2.8892   2.8892
     3.0223   3.0223   3.0265   3.0265   3.0724   3.0724   3.0779   3.0779
     3.2433   3.2433   3.2459   3.2459   3.7658   3.7658   3.7707   3.7708
     3.7889   3.7889   3.7933   3.7933   4.1091   4.1091   4.1094   4.1094
     4.2100   4.2100   4.2102   4.2102   4.6181   4.6181   4.6191   4.6191
     5.0511   5.0511   5.0522   5.0522   5.6533   5.6533   5.6536   5.6536
     6.5269   6.5269   6.5278   6.5278   6.5551   6.5551   6.5555   6.5555
     7.3991   7.3991   7.3994   7.3994   7.4354   7.4354   7.4377   7.4377
     7.5274   7.5274   7.5277   7.5277   7.7225   7.7225   7.7237   7.7237
    11.5137  11.5137  11.5143  11.5143  11.5436  11.5436  11.5442  11.5442
    11.8731  11.8731  11.8733  11.8733  12.0509  12.0509  12.0509  12.0510
    12.8949  12.8949  12.8951  12.8951  13.0628  13.0628  13.0632  13.0632
    15.2104  15.2104  15.2104  15.2104  16.7388  16.7388  16.7399  16.7399
    17.6272  17.6272  17.6285  17.6285  17.8310

          k =-0.4981 0.3159-0.4981 ( 62564 PWs)   bands (ev):

   -66.2597 -66.2597 -66.2597 -66.2596 -66.2595 -66.2595 -66.2595 -66.2594
   -30.6311 -30.6310 -30.6310 -30.6310 -30.6014 -30.6014 -30.6014 -30.6014
   -30.5517 -30.5517 -30.5515 -30.5515 -30.5512 -30.5512 -30.5503 -30.5503
   -30.5498 -30.5498 -30.5490 -30.5490 -30.5489 -30.5489 -30.5487 -30.5487
   -20.4228 -20.4228 -20.4228 -20.4228 -20.4228 -20.4228 -20.4228 -20.4228
   -20.4022 -20.4022 -20.4022 -20.4022 -20.3994 -20.3994 -20.3994 -20.3994
   -20.3983 -20.3983 -20.3983 -20.3983 -20.3981 -20.3981 -20.3981 -20.3981
   -20.3980 -20.3980 -20.3979 -20.3979 -20.3977 -20.3977 -20.3976 -20.3976
   -20.3897 -20.3897 -20.3897 -20.3897 -20.3897 -20.3897 -20.3897 -20.3897
   -20.3863 -20.3863 -20.3862 -20.3862 -20.3860 -20.3860 -20.3860 -20.3860
   -20.3852 -20.3852 -20.3852 -20.3852 -20.3850 -20.3850 -20.3850 -20.3850
    -9.1823  -9.1823  -9.1822  -9.1821  -8.8961  -8.8961  -8.8958  -8.8958
    -8.5859  -8.5859  -8.5855  -8.5855  -8.4831  -8.4831  -8.4827  -8.4827
    -8.4650  -8.4650  -8.4646  -8.4646  -8.1911  -8.1911  -8.1911  -8.1911
     2.2943   2.2943   2.2943   2.2943   2.9254   2.9254   2.9277   2.9277
     3.0122   3.0122   3.0140   3.0140   3.1601   3.1601   3.1648   3.1649
     3.2097   3.2097   3.2116   3.2116   3.8956   3.8956   3.9038   3.9038
     3.9067   3.9067   3.9172   3.9172   3.9932   3.9932   3.9961   3.9961
     4.2198   4.2198   4.2224   4.2224   4.2476   4.2476   4.2515   4.2515
     4.6352   4.6352   4.6361   4.6361   4.9503   4.9503   4.9507   4.9507
     6.8581   6.8581   6.8593   6.8593   6.9456   6.9456   6.9462   6.9462
     7.3343   7.3343   7.3350   7.3350   7.4000   7.4000   7.4019   7.4019
     7.5098   7.5098   7.5105   7.5105   7.6276   7.6276   7.6284   7.6284
    11.6404  11.6404  11.6407  11.6407  11.6874  11.6874  11.6890  11.6890
    11.9252  11.9252  11.9256  11.9256  12.1446  12.1446  12.1452  12.1452
    12.5701  12.5701  12.5706  12.5706  12.7542  12.7542  12.7546  12.7546
    16.1685  16.1685  16.1688  16.1688  16.9215  16.9215  16.9218  16.9218
    17.4222  17.4223  17.4251  17.4251  17.8418

          k =-0.4981-0.4739-0.4981 ( 62472 PWs)   bands (ev):

   -66.2596 -66.2596 -66.2596 -66.2596 -66.2596 -66.2595 -66.2595 -66.2595
   -30.6163 -30.6163 -30.6162 -30.6162 -30.6162 -30.6162 -30.6161 -30.6161
   -30.5513 -30.5513 -30.5513 -30.5513 -30.5507 -30.5507 -30.5507 -30.5507
   -30.5498 -30.5498 -30.5496 -30.5495 -30.5491 -30.5491 -30.5491 -30.5491
   -20.4228 -20.4228 -20.4228 -20.4228 -20.4228 -20.4228 -20.4228 -20.4228
   -20.4008 -20.4008 -20.4008 -20.4008 -20.4008 -20.4008 -20.4008 -20.4008
   -20.3982 -20.3982 -20.3982 -20.3982 -20.3981 -20.3981 -20.3981 -20.3981
   -20.3979 -20.3979 -20.3979 -20.3979 -20.3979 -20.3978 -20.3978 -20.3978
   -20.3897 -20.3897 -20.3897 -20.3897 -20.3897 -20.3897 -20.3897 -20.3897
   -20.3862 -20.3862 -20.3862 -20.3862 -20.3861 -20.3861 -20.3861 -20.3861
   -20.3851 -20.3851 -20.3851 -20.3851 -20.3851 -20.3851 -20.3851 -20.3851
    -9.0065  -9.0065  -9.0040  -9.0040  -9.0039  -9.0039  -9.0019  -9.0018
    -8.4931  -8.4931  -8.4913  -8.4913  -8.4913  -8.4913  -8.4893  -8.4893
    -8.4262  -8.4262  -8.4220  -8.4220  -8.4220  -8.4220  -8.4176  -8.4175
     2.9339   2.9339   2.9339   2.9339   2.9350   2.9350   2.9405   2.9405
     3.0586   3.0586   3.0633   3.0633   3.0650   3.0650   3.0650   3.0650
     3.3505   3.3505   3.3726   3.3726   3.3726   3.3726   3.3927   3.3927
     4.0704   4.0704   4.0781   4.0781   4.0781   4.0781   4.0864   4.0864
     4.2795   4.2795   4.2819   4.2819   4.2819   4.2819   4.2833   4.2833
     4.3647   4.3647   4.3723   4.3724   4.3724   4.3724   4.3807   4.3807
     7.1185   7.1185   7.1426   7.1426   7.1426   7.1426   7.1696   7.1696
     7.2643   7.2643   7.2694   7.2694   7.2694   7.2694   7.2733   7.2733
     7.5277   7.5277   7.5333   7.5333   7.5333   7.5334   7.5408   7.5408
    11.7281  11.7281  11.7291  11.7291  11.7291  11.7291  11.7292  11.7292
    12.1540  12.1540  12.1706  12.1706  12.1706  12.1706  12.1876  12.1876
    12.3993  12.3993  12.4084  12.4084  12.4084  12.4084  12.4170  12.4170
    17.1121  17.1121  17.1271  17.1271  17.1271  17.1271  17.1379  17.1379
    17.3363  17.3363  17.3363  17.3363  17.3378

     the Fermi energy is     9.0195 ev

!    total energy              =   -6261.10884648 Ry
     Harris-Foulkes estimate   =   -6261.10884648 Ry
     estimated scf accuracy    <          1.4E-11 Ry

     The total energy is the sum of the following terms:

     one-electron contribution =   -4741.14206676 Ry
     hartree contribution      =    2606.19486698 Ry
     xc contribution           =    -965.66927064 Ry
     ewald contribution        =   -3160.49237606 Ry
     smearing contrib. (-TS)   =      -0.00000000 Ry

     convergence has been achieved in  15 iterations

     Forces acting on atoms (cartesian axes, Ry/au):

     atom    1 type  1   force =     0.00079093    0.00418862    0.00055698
     atom    2 type  1   force =    -0.00055698   -0.00418862    0.00079093
     atom    3 type  1   force =    -0.00079093   -0.00418862    0.00055698
     atom    4 type  1   force =     0.00055698    0.00418862    0.00079093
     atom    5 type  1   force =    -0.00079093    0.00418862   -0.00055698
     atom    6 type  1   force =     0.00055698   -0.00418862   -0.00079093
     atom    7 type  1   force =     0.00079093   -0.00418862   -0.00055698
     atom    8 type  1   force =    -0.00055698    0.00418862   -0.00079093
     atom    9 type  2   force =    -0.00000315   -0.00211024    0.00012896
     atom   10 type  2   force =    -0.00012896    0.00211024   -0.00000315
     atom   11 type  2   force =     0.00000315    0.00211024    0.00012896
     atom   12 type  2   force =     0.00012896   -0.00211024   -0.00000315
     atom   13 type  2   force =     0.00000315   -0.00211024   -0.00012896
     atom   14 type  2   force =     0.00012896    0.00211024    0.00000315
     atom   15 type  2   force =    -0.00000315    0.00211024   -0.00012896
     atom   16 type  2   force =    -0.00012896   -0.00211024    0.00000315
     atom   17 type  2   force =     0.00047664    0.00009676   -0.00066736
     atom   18 type  2   force =    -0.00029998    0.00001705    0.00074067
     atom   19 type  2   force =    -0.00047664   -0.00009676   -0.00066736
     atom   20 type  2   force =     0.00029998   -0.00001705    0.00074067
     atom   21 type  2   force =    -0.00047664    0.00009676    0.00066736
     atom   22 type  2   force =     0.00029998    0.00001705   -0.00074067
     atom   23 type  2   force =     0.00047664   -0.00009676    0.00066736
     atom   24 type  2   force =    -0.00029998   -0.00001705   -0.00074067
     atom   25 type  2   force =    -0.00074067    0.00001705    0.00029998
     atom   26 type  2   force =     0.00066736   -0.00009676    0.00047664
     atom   27 type  2   force =     0.00074067   -0.00001705    0.00029998
     atom   28 type  2   force =    -0.00066736    0.00009676    0.00047664
     atom   29 type  2   force =     0.00074067    0.00001705   -0.00029998
     atom   30 type  2   force =    -0.00066736   -0.00009676   -0.00047664
     atom   31 type  2   force =    -0.00074067   -0.00001705   -0.00029998
     atom   32 type  2   force =     0.00066736    0.00009676   -0.00047664

     Total force =     0.000000     Total SCF correction =     0.000000


     Computing stress (Cartesian axis) and pressure

          total   stress  (Ry/bohr**3)                   (kbar)     P=    0.12
   0.00000124   0.00000000   0.00000000          0.18      0.00      0.00
   0.00000000  -0.00000006   0.00000000          0.00     -0.01      0.00
   0.00000000   0.00000000   0.00000124          0.00      0.00      0.18


     Writing output data file Landau_3.save
 
     init_run     :     63.28s CPU     65.44s WALL (       2 calls)
     electrons    :   6763.37s CPU   6908.09s WALL (       6 calls)
     update_pot   :     94.92s CPU     95.31s WALL (       4 calls)
     forces       :    148.42s CPU    150.96s WALL (       6 calls)
     stress       :    919.64s CPU    933.78s WALL (       6 calls)

     Called by init_run:
     wfcinit      :     44.26s CPU     46.11s WALL (       2 calls)
     potinit      :      7.92s CPU      7.99s WALL (       2 calls)

     Called by electrons:
     c_bands      :   6002.57s CPU   6136.32s WALL (      91 calls)
     sum_band     :    696.72s CPU    702.27s WALL (      91 calls)
     v_of_rho     :      9.96s CPU     10.15s WALL (      95 calls)
     mix_rho      :     18.18s CPU     22.21s WALL (      91 calls)

     Called by c_bands:
     init_us_2    :     31.29s CPU     33.96s WALL (     184 calls)
     cegterg      :   5074.16s CPU   5204.58s WALL (      91 calls)

     Called by sum_band:

     Called by *egterg:
     h_psi        :   3671.99s CPU   3697.80s WALL (     332 calls)
     g_psi        :      6.13s CPU      6.17s WALL (     239 calls)
     cdiaghg      :     53.28s CPU     53.54s WALL (     324 calls)

     Called by h_psi:
     h_psi:pot    :   3655.06s CPU   3680.40s WALL (     332 calls)
     h_psi:calbec :    572.18s CPU    585.74s WALL (     332 calls)
     vloc_psi     :   2491.88s CPU   2499.88s WALL (     332 calls)
     add_vuspsi   :    591.00s CPU    594.77s WALL (     332 calls)

     General routines
     calbec       :    649.63s CPU    664.42s WALL (     362 calls)
     fft          :      9.76s CPU      9.80s WALL (     430 calls)
     fftw         :   2634.02s CPU   2641.27s WALL (  115865 calls)
 
     Parallel routines
 
     PWSCF        :     2h13m CPU        2h16m WALL

 
   This run was terminated on:  22:34:16   7Mar2020            

=------------------------------------------------------------------------------=
   JOB DONE.
=------------------------------------------------------------------------------=
