
     Program PWSCF v.6.2 (svn rev. 14038) starts on 17Sep2019 at 12:36: 8 

     This program is part of the open-source Quantum ESPRESSO suite
     for quantum simulation of materials; please cite
         "P. Giannozzi et al., J. Phys.:Condens. Matter 21 395502 (2009);
         "P. Giannozzi et al., J. Phys.:Condens. Matter 29 465901 (2017);
          URL http://www.quantum-espresso.org", 
     in publications or presentations arising from this work. More details at
     http://www.quantum-espresso.org/quote

     Parallel version (MPI), running on    40 processors

     MPI processes distributed on     3 nodes
     K-points division:     npool     =      40
     Reading input from scf.in

     Current dimensions of program PWSCF are:
     Max number of different atomic species (ntypx) = 10
     Max number of k-points (npk) =  40000
     Max angular momentum in pseudopotentials (lmaxx) =  3

     Subspace diagonalization in iterative solution of the eigenvalue problem:
     a serial algorithm will be used

 
     G-vector sticks info
     --------------------
     sticks:   dense  smooth     PW     G-vecs:    dense   smooth      PW
     Sum        7583    7583   2029               489747   489747   67955
 


     bravais-lattice index     =            0
     lattice parameter (alat)  =      13.8835  a.u.
     unit-cell volume          =    2758.0255 (a.u.)^3
     number of atoms/cell      =           32
     number of atomic types    =            2
     number of electrons       =       368.52
     number of Kohn-Sham states=          221
     kinetic-energy cutoff     =     120.0000  Ry
     charge density cutoff     =     480.0000  Ry
     convergence threshold     =      1.0E-08
     mixing beta               =       0.7000
     number of iterations used =            8  plain     mixing
     Exchange-correlation      = SLA PW NOGX NOGC ( 1  4  0  0 0 0)

     celldm(1)=  13.883470  celldm(2)=   0.000000  celldm(3)=   0.000000
     celldm(4)=   0.000000  celldm(5)=   0.000000  celldm(6)=   0.000000

     crystal axes: (cart. coord. in units of alat)
               a(1) = (   1.000000   0.000000   0.000000 )  
               a(2) = (   0.000000   1.030633   0.000000 )  
               a(3) = (   0.000000   0.000000   1.000000 )  

     reciprocal axes: (cart. coord. in units 2 pi/alat)
               b(1) = (  1.000000  0.000000  0.000000 )  
               b(2) = (  0.000000  0.970277  0.000000 )  
               b(3) = (  0.000000  0.000000  1.000000 )  


     PseudoPot. # 1 for W  read from file:
     /cluster/scratch/mnoe/QE/pps/W_ONCV_LDA-4.0.upf
     MD5 check sum: ba0307d5d4cd419d6f1d13dc49d7c13a
     Pseudo is Norm-conserving + core correction, Zval = 28.0
     Generated using ONCVPSP code by D. R. Hamann
     Using radial grid of 1380 points,  8 beta functions with: 
                l(1) =   0
                l(2) =   0
                l(3) =   1
                l(4) =   1
                l(5) =   2
                l(6) =   2
                l(7) =   3
                l(8) =   3

     PseudoPot. # 2 for O  read from file:
     /cluster/scratch/mnoe/QE/pps/O_ONCV_LDA-3.0.upf
     MD5 check sum: ca1549d10c4e927e51167f6fca52ae32
     Pseudo is Norm-conserving + core correction, Zval =  6.0
     Generated using ONCVPSP code by D. R. Hamann
     Using radial grid of  926 points,  5 beta functions with: 
                l(1) =   0
                l(2) =   0
                l(3) =   1
                l(4) =   1
                l(5) =   2

     atomic species   valence    mass     pseudopotential
        W             28.00   183.84000     W ( 1.00)
        O              6.00    15.99940     O ( 1.00)

      8 Sym. Ops. (no inversion) found ( 4 have fractional translation)



   Cartesian axes

     site n.     atom                  positions (alat units)
         1           W   tau(   1) = (   0.2778800   0.2904943   0.2508000  )
         2           W   tau(   2) = (  -0.2508000   0.7401390  -0.7221200  )
         3           W   tau(   3) = (   0.2221200   0.2248224   0.7508000  )
         4           W   tau(   4) = (   0.7508000   0.8058109   0.7778800  )
         5           W   tau(   5) = (   0.7221200   0.2904943   0.7492000  )
         6           W   tau(   6) = (   0.2508000   0.7401390   0.7221200  )
         7           W   tau(   7) = (  -0.2221200   0.2248224  -0.7508000  )
         8           W   tau(   8) = (   0.2492000   0.8058109   0.2221200  )
         9           O   tau(   9) = (   0.2806600   0.0085749   0.2722400  )
        10           O   tau(  10) = (  -0.2722399   1.0220585  -0.7193400  )
        11           O   tau(  11) = (   0.2193400   0.5067418   0.7722400  )
        12           O   tau(  12) = (   0.7722400   0.5238915   0.7806600  )
        13           O   tau(  13) = (   0.7193400   0.0085749   0.7277600  )
        14           O   tau(  14) = (   0.2722400   1.0220585   0.7193400  )
        15           O   tau(  15) = (  -0.2193400   0.5067418  -0.7722399  )
        16           O   tau(  16) = (   0.2277600   0.5238915   0.2193400  )
        17           O   tau(  17) = (   0.4901399   0.2917207   0.6995400  )
        18           O   tau(  18) = (   0.4979800   0.7511152   0.8004600  )
        19           O   tau(  19) = (  -0.9901400   0.2235959   1.1995400  )
        20           O   tau(  20) = (   0.0020199   0.7948347   0.3004600  )
        21           O   tau(  21) = (   0.5098601   0.2917207   0.3004600  )
        22           O   tau(  22) = (   0.5020200   0.7511152   1.1995400  )
        23           O   tau(  23) = (  -0.0098601   0.2235959   0.8004600  )
        24           O   tau(  24) = (  -1.0020200   0.7948347   0.6995400  )
        25           O   tau(  25) = (   0.6995400   0.2357986   2.0020200  )
        26           O   tau(  26) = (   0.3004600   0.7389125   0.4901400  )
        27           O   tau(  27) = (   0.8004600   0.2795181   0.5020199  )
        28           O   tau(  28) = (   0.1995400   0.8070373   1.9901400  )
        29           O   tau(  29) = (   0.3004600   0.2357986   0.9979801  )
        30           O   tau(  30) = (   0.6995400   0.7389125   0.5098600  )
        31           O   tau(  31) = (   0.1995400   0.2795181   0.4979800  )
        32           O   tau(  32) = (   0.8004600   0.8070373   1.0098601  )

     number of k points=    40  gaussian smearing, width (Ry)=  0.0007
                       cart. coord. in units 2pi/alat
        k(    1) = (   0.0000000   0.0000000   0.0000000), wk =   0.0092593
        k(    2) = (   0.0000000   0.0000000   0.1666667), wk =   0.0370370
        k(    3) = (   0.0000000   0.0000000   0.3333333), wk =   0.0370370
        k(    4) = (   0.0000000   0.0000000  -0.5000000), wk =   0.0185185
        k(    5) = (   0.0000000   0.1617129   0.0000000), wk =   0.0185185
        k(    6) = (   0.0000000   0.1617129   0.1666667), wk =   0.0740741
        k(    7) = (   0.0000000   0.1617129   0.3333333), wk =   0.0740741
        k(    8) = (   0.0000000   0.1617129  -0.5000000), wk =   0.0370370
        k(    9) = (   0.0000000   0.3234257   0.0000000), wk =   0.0185185
        k(   10) = (   0.0000000   0.3234257   0.1666667), wk =   0.0740741
        k(   11) = (   0.0000000   0.3234257   0.3333333), wk =   0.0740741
        k(   12) = (   0.0000000   0.3234257  -0.5000000), wk =   0.0370370
        k(   13) = (   0.0000000  -0.4851386   0.0000000), wk =   0.0092593
        k(   14) = (   0.0000000  -0.4851386   0.1666667), wk =   0.0370370
        k(   15) = (   0.0000000  -0.4851386   0.3333333), wk =   0.0370370
        k(   16) = (   0.0000000  -0.4851386  -0.5000000), wk =   0.0185185
        k(   17) = (   0.1666667   0.0000000   0.1666667), wk =   0.0370370
        k(   18) = (   0.1666667   0.0000000   0.3333333), wk =   0.0740741
        k(   19) = (   0.1666667   0.0000000  -0.5000000), wk =   0.0370370
        k(   20) = (   0.1666667   0.1617129   0.1666667), wk =   0.0740741
        k(   21) = (   0.1666667   0.1617129   0.3333333), wk =   0.1481481
        k(   22) = (   0.1666667   0.1617129  -0.5000000), wk =   0.0740741
        k(   23) = (   0.1666667   0.3234257   0.1666667), wk =   0.0740741
        k(   24) = (   0.1666667   0.3234257   0.3333333), wk =   0.1481481
        k(   25) = (   0.1666667   0.3234257  -0.5000000), wk =   0.0740741
        k(   26) = (   0.1666667  -0.4851386   0.1666667), wk =   0.0370370
        k(   27) = (   0.1666667  -0.4851386   0.3333333), wk =   0.0740741
        k(   28) = (   0.1666667  -0.4851386  -0.5000000), wk =   0.0370370
        k(   29) = (   0.3333333   0.0000000   0.3333333), wk =   0.0370370
        k(   30) = (   0.3333333   0.0000000  -0.5000000), wk =   0.0370370
        k(   31) = (   0.3333333   0.1617129   0.3333333), wk =   0.0740741
        k(   32) = (   0.3333333   0.1617129  -0.5000000), wk =   0.0740741
        k(   33) = (   0.3333333   0.3234257   0.3333333), wk =   0.0740741
        k(   34) = (   0.3333333   0.3234257  -0.5000000), wk =   0.0740741
        k(   35) = (   0.3333333  -0.4851386   0.3333333), wk =   0.0370370
        k(   36) = (   0.3333333  -0.4851386  -0.5000000), wk =   0.0370370
        k(   37) = (  -0.5000000   0.0000000  -0.5000000), wk =   0.0092593
        k(   38) = (  -0.5000000   0.1617129  -0.5000000), wk =   0.0185185
        k(   39) = (  -0.5000000   0.3234257  -0.5000000), wk =   0.0185185
        k(   40) = (  -0.5000000  -0.4851386  -0.5000000), wk =   0.0092593

     Dense  grid:   489747 G-vectors     FFT dimensions: ( 100, 100, 100)

     Estimated max dynamical RAM per process >       2.67 GB

     Estimated total dynamical RAM >     106.73 GB

     Initial potential from superposition of free atoms

     starting charge  367.99656, renormalised to  368.52000
     Starting wfc are  232 randomized atomic wfcs

     total cpu time spent up to now is       24.9 secs

     Self-consistent Calculation

     iteration #  1     ecut=   120.00 Ry     beta= 0.70
     Davidson diagonalization with overlap
     ethr =  1.00E-02,  avg # of iterations =  5.0

     total cpu time spent up to now is      110.4 secs

     total energy              =   -6253.50827112 Ry
     Harris-Foulkes estimate   =   -6264.20617507 Ry
     estimated scf accuracy    <      13.49016172 Ry

     iteration #  2     ecut=   120.00 Ry     beta= 0.70
     Davidson diagonalization with overlap
     ethr =  3.66E-03,  avg # of iterations =  3.7

     total cpu time spent up to now is      193.6 secs

     total energy              =   -6250.37463064 Ry
     Harris-Foulkes estimate   =   -6270.23611613 Ry
     estimated scf accuracy    <      53.03739475 Ry

     iteration #  3     ecut=   120.00 Ry     beta= 0.70
     Davidson diagonalization with overlap
     ethr =  3.66E-03,  avg # of iterations =  3.4

     total cpu time spent up to now is      273.4 secs

     total energy              =   -6260.66822543 Ry
     Harris-Foulkes estimate   =   -6260.93926588 Ry
     estimated scf accuracy    <       0.89159436 Ry

     iteration #  4     ecut=   120.00 Ry     beta= 0.70
     Davidson diagonalization with overlap
     ethr =  2.42E-04,  avg # of iterations =  2.8

     total cpu time spent up to now is      339.6 secs

     total energy              =   -6260.66567774 Ry
     Harris-Foulkes estimate   =   -6260.73630035 Ry
     estimated scf accuracy    <       0.22202425 Ry

     iteration #  5     ecut=   120.00 Ry     beta= 0.70
     Davidson diagonalization with overlap
     ethr =  6.02E-05,  avg # of iterations =  5.4

     total cpu time spent up to now is      410.5 secs

     total energy              =   -6260.66715868 Ry
     Harris-Foulkes estimate   =   -6260.69852304 Ry
     estimated scf accuracy    <       0.06913691 Ry

     iteration #  6     ecut=   120.00 Ry     beta= 0.70
     Davidson diagonalization with overlap
     ethr =  1.88E-05,  avg # of iterations =  5.2

     total cpu time spent up to now is      484.6 secs

     total energy              =   -6260.68247472 Ry
     Harris-Foulkes estimate   =   -6260.68490877 Ry
     estimated scf accuracy    <       0.00655818 Ry

     iteration #  7     ecut=   120.00 Ry     beta= 0.70
     Davidson diagonalization with overlap
     ethr =  1.78E-06,  avg # of iterations =  4.4

     total cpu time spent up to now is      552.4 secs

     total energy              =   -6260.68324485 Ry
     Harris-Foulkes estimate   =   -6260.68337016 Ry
     estimated scf accuracy    <       0.00023306 Ry

     iteration #  8     ecut=   120.00 Ry     beta= 0.70
     Davidson diagonalization with overlap
     ethr =  6.32E-08,  avg # of iterations =  3.0

     total cpu time spent up to now is      636.5 secs

     total energy              =   -6260.68332682 Ry
     Harris-Foulkes estimate   =   -6260.68334285 Ry
     estimated scf accuracy    <       0.00005364 Ry

     iteration #  9     ecut=   120.00 Ry     beta= 0.70
     Davidson diagonalization with overlap
     ethr =  1.46E-08,  avg # of iterations =  2.1

     total cpu time spent up to now is      702.7 secs

     total energy              =   -6260.68332990 Ry
     Harris-Foulkes estimate   =   -6260.68333482 Ry
     estimated scf accuracy    <       0.00002012 Ry

     iteration # 10     ecut=   120.00 Ry     beta= 0.70
     Davidson diagonalization with overlap
     ethr =  5.46E-09,  avg # of iterations =  1.0

     total cpu time spent up to now is      763.7 secs

     total energy              =   -6260.68332901 Ry
     Harris-Foulkes estimate   =   -6260.68333151 Ry
     estimated scf accuracy    <       0.00000598 Ry

     iteration # 11     ecut=   120.00 Ry     beta= 0.70
     Davidson diagonalization with overlap
     ethr =  1.62E-09,  avg # of iterations =  2.9

     total cpu time spent up to now is      829.4 secs

     total energy              =   -6260.68333022 Ry
     Harris-Foulkes estimate   =   -6260.68333025 Ry
     estimated scf accuracy    <       0.00000007 Ry

     iteration # 12     ecut=   120.00 Ry     beta= 0.70
     Davidson diagonalization with overlap
     ethr =  2.00E-11,  avg # of iterations =  3.0

     total cpu time spent up to now is      916.9 secs

     total energy              =   -6260.68333025 Ry
     Harris-Foulkes estimate   =   -6260.68333026 Ry
     estimated scf accuracy    <       0.00000001 Ry

     iteration # 13     ecut=   120.00 Ry     beta= 0.70
     Davidson diagonalization with overlap
     ethr =  3.45E-12,  avg # of iterations =  2.0

     total cpu time spent up to now is      991.3 secs

     End of self-consistent calculation

          k = 0.0000 0.0000 0.0000 ( 61317 PWs)   bands (ev):

   -65.7400 -65.7393 -65.7390 -65.7390 -65.7384 -65.7384 -65.7381 -65.7375
   -30.2354 -30.2270 -30.2263 -30.2263 -30.1694 -30.1627 -30.1627 -30.1410
   -30.1210 -30.1015 -30.1015 -30.0830 -30.0540 -30.0464 -30.0464 -30.0379
   -30.0312 -30.0293 -30.0195 -30.0195 -29.9431 -29.9431 -29.9382 -29.9366
   -19.8833 -19.8831 -19.8831 -19.8831 -19.8823 -19.8823 -19.8823 -19.8821
   -19.8740 -19.8736 -19.8736 -19.8731 -19.8728 -19.8722 -19.8722 -19.8718
   -19.8665 -19.8665 -19.8665 -19.8665 -19.8649 -19.8649 -19.8649 -19.8646
   -19.8637 -19.8629 -19.8629 -19.8623 -19.8596 -19.8587 -19.8587 -19.8580
   -19.8547 -19.8542 -19.8537 -19.8537 -19.8524 -19.8524 -19.8516 -19.8508
   -19.8424 -19.8423 -19.8410 -19.8410 -19.8395 -19.8395 -19.8386 -19.8385
   -19.8376 -19.8374 -19.8366 -19.8366 -19.8332 -19.8332 -19.8322 -19.8320
    -9.6681  -9.3381  -9.2402  -9.2402  -8.8279  -8.8279  -8.7785  -8.6553
    -8.5817  -8.4851  -8.4656  -8.4656  -7.7487  -7.6809  -7.5729  -7.5729
    -7.4981  -7.4291  -7.4291  -7.3945  -7.3858  -7.3688  -7.2362  -7.2362
     1.6287   1.6696   1.6839   1.6839   1.8194   1.8715   1.8715   1.9220
     2.0227   2.0227   2.1280   2.3102   2.6651   2.7503   2.7932   2.9273
     2.9904   2.9904   4.4655   4.4655   4.7994   4.8046   4.8147   4.9802
     4.9802   5.0838   5.0843   5.0843   5.4164   5.4165   5.5583   5.6356
     5.6568   5.7501   5.7501   5.8176   5.9416   5.9416   6.0504   6.0636
     6.0667   6.0667   6.1087   6.1467   6.1467   6.2222   6.2663   6.3776
     6.4570   6.7046   6.7046   6.7094   6.7657   6.7824   7.1410   7.1410
     7.1428   7.2141   7.2182   7.2917   7.2917   7.3847   7.3847   7.4108
     7.7488   7.7488   7.9615   8.0006   8.1907   8.2664   8.2664   8.4220
    10.1616  10.2490  10.5340  10.5370  10.5370  10.5769  12.5133  12.5133
    12.5948  12.6391  12.6392  12.8828  12.9321  13.0747  13.0747  13.2518
    13.3950  13.5759  13.5759  13.6216  13.9933  14.0797  14.0797  14.3362
    14.9424  15.1281  15.1281  15.1822  15.6899  15.8650  16.0165  16.2330
    16.2330  16.9804  17.2308  17.2308  17.8729

          k = 0.0000 0.0000 0.1667 ( 61237 PWs)   bands (ev):

   -65.7399 -65.7393 -65.7391 -65.7390 -65.7385 -65.7383 -65.7381 -65.7375
   -30.2333 -30.2267 -30.2234 -30.2210 -30.1711 -30.1661 -30.1620 -30.1436
   -30.1203 -30.1036 -30.1007 -30.0850 -30.0538 -30.0471 -30.0460 -30.0388
   -30.0299 -30.0240 -30.0205 -30.0142 -29.9489 -29.9432 -29.9427 -29.9377
   -19.8833 -19.8831 -19.8831 -19.8830 -19.8823 -19.8823 -19.8823 -19.8821
   -19.8740 -19.8736 -19.8735 -19.8731 -19.8728 -19.8723 -19.8722 -19.8719
   -19.8665 -19.8665 -19.8663 -19.8663 -19.8650 -19.8649 -19.8649 -19.8645
   -19.8638 -19.8631 -19.8629 -19.8624 -19.8596 -19.8587 -19.8586 -19.8580
   -19.8546 -19.8541 -19.8538 -19.8535 -19.8525 -19.8523 -19.8517 -19.8509
   -19.8423 -19.8422 -19.8411 -19.8409 -19.8397 -19.8395 -19.8388 -19.8387
   -19.8375 -19.8372 -19.8366 -19.8363 -19.8335 -19.8331 -19.8325 -19.8322
    -9.6241  -9.2868  -9.2581  -9.1801  -8.8450  -8.7895  -8.7651  -8.6343
    -8.5491  -8.4731  -8.4553  -8.4229  -7.8196  -7.7010  -7.6717  -7.5808
    -7.5015  -7.4863  -7.4378  -7.4349  -7.3987  -7.3667  -7.3462  -7.2451
     1.6594   1.6796   1.8227   1.8399   1.8572   1.8704   1.9181   1.9944
     2.0237   2.1967   2.2642   2.4420   2.7405   2.7981   2.8819   2.9807
     2.9832   3.0816   4.3592   4.4561   4.5762   4.7025   4.7309   4.7916
     4.8263   5.0348   5.0527   5.0639   5.1551   5.3917   5.5392   5.5656
     5.6791   5.7059   5.7738   5.7969   5.8663   5.8974   5.9621   6.0400
     6.0559   6.0964   6.0994   6.1021   6.1336   6.1822   6.2964   6.3848
     6.4483   6.6780   6.7396   6.7972   6.8430   6.9915   7.0401   7.0520
     7.0939   7.1508   7.1753   7.2136   7.3267   7.3459   7.3749   7.4321
     7.5888   7.6368   7.9836   8.0161   8.1798   8.2350   8.2801   8.4116
    10.3464  10.4471  10.5335  10.6159  10.7524  10.8415  12.4732  12.5316
    12.5500  12.6799  12.6959  12.9069  12.9621  13.0085  13.1000  13.2912
    13.3517  13.5203  13.5879  13.6118  13.9659  14.0817  14.0893  14.2674
    14.9462  15.1212  15.1798  15.2628  15.7104  15.9054  15.9765  16.1957
    16.4653  17.0276  17.1303  17.3935  17.9394

          k = 0.0000 0.0000 0.3333 ( 61182 PWs)   bands (ev):

   -65.7397 -65.7393 -65.7391 -65.7388 -65.7386 -65.7383 -65.7382 -65.7377
   -30.2310 -30.2277 -30.2106 -30.2073 -30.1777 -30.1760 -30.1600 -30.1501
   -30.1180 -30.1085 -30.0984 -30.0896 -30.0528 -30.0489 -30.0448 -30.0408
   -30.0282 -30.0230 -30.0079 -29.9996 -29.9647 -29.9584 -29.9418 -29.9389
   -19.8832 -19.8831 -19.8829 -19.8828 -19.8825 -19.8824 -19.8823 -19.8822
   -19.8739 -19.8737 -19.8734 -19.8730 -19.8729 -19.8725 -19.8721 -19.8720
   -19.8666 -19.8665 -19.8659 -19.8658 -19.8651 -19.8651 -19.8648 -19.8644
   -19.8641 -19.8635 -19.8629 -19.8626 -19.8594 -19.8589 -19.8585 -19.8582
   -19.8544 -19.8540 -19.8537 -19.8530 -19.8528 -19.8521 -19.8520 -19.8512
   -19.8420 -19.8417 -19.8414 -19.8405 -19.8403 -19.8394 -19.8393 -19.8389
   -19.8373 -19.8368 -19.8365 -19.8355 -19.8343 -19.8333 -19.8329 -19.8324
    -9.5174  -9.3118  -9.1542  -9.0365  -8.9000  -8.8261  -8.5933  -8.5771
    -8.4940  -8.4715  -8.3202  -8.2727  -8.0628  -7.9516  -7.7538  -7.7179
    -7.6022  -7.5980  -7.4886  -7.4503  -7.4379  -7.4101  -7.3399  -7.2697
     1.6687   1.6726   1.8684   1.8693   1.8988   1.9110   2.0127   2.0296
     2.5745   2.7506   2.8168   2.8348   2.9627   2.9982   3.0010   3.1338
     3.1905   3.3258   3.9799   4.0787   4.1948   4.2557   4.3310   4.6295
     4.7472   4.7557   4.9208   4.9234   4.9763   5.0672   5.2972   5.3558
     5.4960   5.5470   5.6291   5.7313   5.7410   5.7894   5.9146   5.9982
     6.0122   6.1022   6.1386   6.1653   6.2381   6.2915   6.3379   6.4477
     6.4872   6.5694   6.6838   6.7734   6.8217   6.8628   6.9627   6.9811
     7.0901   7.1869   7.2012   7.2647   7.3431   7.3933   7.3994   7.4803
     7.6009   7.6669   7.9455   7.9902   8.1120   8.1325   8.3143   8.3785
    10.4601  10.5200  10.9537  11.1444  11.2429  11.4674  12.1775  12.2716
    12.4729  12.6510  12.7151  12.8744  12.8770  13.0425  13.1713  13.2070
    13.4293  13.4338  13.4855  13.6393  13.8827  13.9971  14.0908  14.1668
    15.0074  15.1010  15.3676  15.4685  15.8506  15.9969  16.0609  16.1153
    16.6173  17.1574  17.5674  17.6154  17.8927

          k = 0.0000 0.0000-0.5000 ( 61148 PWs)   bands (ev):

   -65.7395 -65.7395 -65.7389 -65.7389 -65.7386 -65.7385 -65.7379 -65.7379
   -30.2292 -30.2292 -30.1929 -30.1928 -30.1903 -30.1902 -30.1562 -30.1562
   -30.1140 -30.1139 -30.0945 -30.0945 -30.0511 -30.0510 -30.0430 -30.0430
   -30.0258 -30.0258 -29.9863 -29.9862 -29.9791 -29.9791 -29.9404 -29.9404
   -19.8832 -19.8832 -19.8827 -19.8827 -19.8826 -19.8826 -19.8822 -19.8822
   -19.8738 -19.8738 -19.8732 -19.8732 -19.8727 -19.8727 -19.8721 -19.8721
   -19.8666 -19.8665 -19.8654 -19.8654 -19.8653 -19.8653 -19.8646 -19.8645
   -19.8640 -19.8640 -19.8628 -19.8627 -19.8592 -19.8592 -19.8584 -19.8584
   -19.8542 -19.8542 -19.8532 -19.8532 -19.8525 -19.8525 -19.8516 -19.8516
   -19.8417 -19.8417 -19.8410 -19.8410 -19.8400 -19.8399 -19.8392 -19.8392
   -19.8370 -19.8370 -19.8354 -19.8354 -19.8344 -19.8344 -19.8327 -19.8327
    -9.4013  -9.4013  -9.0046  -9.0046  -8.9028  -8.9027  -8.5263  -8.5263
    -8.3447  -8.3447  -8.2763  -8.2763  -8.0648  -8.0647  -7.9976  -7.9975
    -7.6295  -7.6295  -7.4706  -7.4706  -7.4251  -7.4251  -7.3043  -7.3042
     1.6696   1.6696   1.8703   1.8704   1.9059   1.9059   2.0360   2.0360
     2.8844   2.8844   3.2527   3.2527   3.3785   3.3785   3.4554   3.4554
     3.5491   3.5491   3.6434   3.6434   3.8632   3.8632   4.0608   4.0609
     4.1766   4.1766   4.8553   4.8554   4.9094   4.9094   5.3435   5.3436
     5.5115   5.5115   5.6210   5.6210   5.7279   5.7279   5.9564   5.9565
     6.1302   6.1302   6.1561   6.1561   6.2509   6.2509   6.4018   6.4018
     6.5550   6.5550   6.6353   6.6353   6.7835   6.7835   6.9171   6.9171
     7.1394   7.1394   7.1969   7.1969   7.2996   7.2997   7.7485   7.7485
     7.7933   7.7933   7.9064   7.9064   7.9571   7.9571   8.3441   8.3441
    10.4952  10.4952  11.5987  11.5987  11.8063  11.8063  11.8549  11.8549
    12.1736  12.1737  12.7767  12.7767  13.0870  13.0870  13.2078  13.2078
    13.3011  13.3011  13.6662  13.6662  13.7811  13.7811  14.1160  14.1161
    15.0667  15.0668  15.6303  15.6303  15.7822  15.7822  16.2777  16.2777
    16.8174  16.8174  18.0205  18.0206  18.3504

          k = 0.0000 0.1617 0.0000 ( 61218 PWs)   bands (ev):

   -65.7399 -65.7394 -65.7390 -65.7390 -65.7384 -65.7384 -65.7380 -65.7375
   -30.2346 -30.2274 -30.2260 -30.2260 -30.1666 -30.1614 -30.1614 -30.1422
   -30.1168 -30.0992 -30.0992 -30.0809 -30.0587 -30.0503 -30.0503 -30.0418
   -30.0311 -30.0294 -30.0196 -30.0196 -29.9431 -29.9431 -29.9381 -29.9367
   -19.8833 -19.8831 -19.8831 -19.8831 -19.8823 -19.8823 -19.8822 -19.8821
   -19.8739 -19.8735 -19.8735 -19.8731 -19.8727 -19.8722 -19.8722 -19.8719
   -19.8665 -19.8665 -19.8665 -19.8665 -19.8649 -19.8648 -19.8648 -19.8643
   -19.8638 -19.8628 -19.8628 -19.8621 -19.8600 -19.8590 -19.8590 -19.8583
   -19.8547 -19.8543 -19.8537 -19.8537 -19.8524 -19.8524 -19.8516 -19.8508
   -19.8424 -19.8423 -19.8410 -19.8410 -19.8395 -19.8395 -19.8386 -19.8385
   -19.8376 -19.8375 -19.8366 -19.8366 -19.8332 -19.8332 -19.8322 -19.8320
    -9.6351  -9.3518  -9.2072  -9.2072  -8.8189  -8.8189  -8.7021  -8.6325
    -8.5812  -8.4628  -8.4388  -8.4387  -7.7661  -7.6818  -7.6105  -7.6105
    -7.5759  -7.5050  -7.4934  -7.4934  -7.3851  -7.3704  -7.2366  -7.2366
     1.6405   1.6663   1.6908   1.6908   1.9103   1.9103   1.9496   2.1178
     2.1280   2.2017   2.2017   2.4216   2.6790   2.7849   2.8195   3.0186
     3.0701   3.0701   4.3403   4.3403   4.4778   4.4963   4.7840   4.9622
     4.9622   5.0847   5.0847   5.1609   5.3159   5.3159   5.4671   5.6603
     5.6603   5.6989   5.7823   5.8262   5.8262   5.8383   5.8969   6.0278
     6.0499   6.0499   6.1188   6.1764   6.1764   6.1934   6.3560   6.3688
     6.3937   6.6609   6.7347   6.7811   6.7811   6.7940   7.1245   7.1245
     7.1386   7.2236   7.2560   7.2980   7.2981   7.3236   7.3613   7.3613
     7.7526   7.7526   7.9610   7.9967   8.1777   8.2510   8.2511   8.3517
    10.1987  10.2524  10.6932  10.6932  10.7018  10.7399  12.5034  12.5034
    12.5997  12.6074  12.6074  12.7652  12.9031  13.0575  13.0575  13.0968
    13.4069  13.5330  13.5330  13.6495  14.0574  14.0574  14.0639  14.2576
    15.0064  15.2543  15.2543  15.3588  15.6745  15.8463  16.2267  16.2267
    16.3977  16.7689  17.3655  17.3655  17.8883

          k = 0.0000 0.1617 0.1667 ( 61183 PWs)   bands (ev):

   -65.7399 -65.7393 -65.7390 -65.7389 -65.7385 -65.7384 -65.7381 -65.7376
   -30.2326 -30.2263 -30.2237 -30.2207 -30.1685 -30.1649 -30.1608 -30.1447
   -30.1161 -30.1010 -30.0984 -30.0828 -30.0584 -30.0511 -30.0500 -30.0427
   -30.0298 -30.0240 -30.0206 -30.0143 -29.9489 -29.9431 -29.9427 -29.9377
   -19.8833 -19.8831 -19.8831 -19.8830 -19.8823 -19.8823 -19.8823 -19.8821
   -19.8739 -19.8736 -19.8735 -19.8731 -19.8727 -19.8723 -19.8722 -19.8719
   -19.8665 -19.8665 -19.8663 -19.8663 -19.8649 -19.8648 -19.8648 -19.8642
   -19.8639 -19.8629 -19.8628 -19.8622 -19.8599 -19.8591 -19.8590 -19.8584
   -19.8546 -19.8542 -19.8538 -19.8535 -19.8525 -19.8523 -19.8517 -19.8509
   -19.8423 -19.8422 -19.8411 -19.8409 -19.8397 -19.8395 -19.8388 -19.8387
   -19.8375 -19.8372 -19.8366 -19.8363 -19.8335 -19.8331 -19.8325 -19.8322
    -9.5902  -9.3003  -9.2248  -9.1424  -8.8372  -8.7556  -8.7129  -8.6086
    -8.5479  -8.4455  -8.4380  -8.4016  -7.8264  -7.7106  -7.6822  -7.6172
    -7.5801  -7.5404  -7.5083  -7.5031  -7.4755  -7.3673  -7.3448  -7.2455
     1.6712   1.6874   1.8343   1.8950   1.9166   1.9941   2.0857   2.1266
     2.2020   2.2589   2.2810   2.5052   2.7625   2.8624   2.8735   3.0570
     3.0780   3.1591   4.2813   4.3408   4.4734   4.5138   4.6210   4.6868
     4.7598   4.9876   5.0275   5.0587   5.1211   5.3183   5.4320   5.4961
     5.5947   5.7010   5.7305   5.7870   5.8266   5.8500   5.9116   5.9343
     5.9764   6.0582   6.0810   6.1397   6.1664   6.1783   6.2633   6.3597
     6.4876   6.6688   6.7639   6.8032   6.8611   6.9820   7.0594   7.0690
     7.1079   7.1796   7.1912   7.2445   7.2976   7.3443   7.3703   7.4146
     7.5833   7.6457   7.9803   8.0131   8.1710   8.2211   8.2551   8.3448
    10.4164  10.4730  10.6910  10.7501  10.8775  10.9661  12.4765  12.4885
    12.5658  12.6589  12.6865  12.8034  12.9210  13.0079  13.0658  13.1529
    13.3227  13.4873  13.5411  13.6226  13.9626  14.0579  14.0888  14.2040
    15.0498  15.2479  15.3399  15.4209  15.6990  15.8956  16.1795  16.3741
    16.4566  16.9147  17.1569  17.4990  17.9478

          k = 0.0000 0.1617 0.3333 ( 61249 PWs)   bands (ev):

   -65.7397 -65.7392 -65.7391 -65.7387 -65.7387 -65.7383 -65.7382 -65.7377
   -30.2305 -30.2273 -30.2106 -30.2067 -30.1761 -30.1748 -30.1590 -30.1506
   -30.1140 -30.1054 -30.0960 -30.0873 -30.0574 -30.0532 -30.0488 -30.0447
   -30.0282 -30.0231 -30.0079 -29.9996 -29.9647 -29.9584 -29.9418 -29.9389
   -19.8832 -19.8831 -19.8829 -19.8828 -19.8825 -19.8824 -19.8823 -19.8822
   -19.8738 -19.8736 -19.8733 -19.8730 -19.8729 -19.8725 -19.8722 -19.8720
   -19.8666 -19.8665 -19.8659 -19.8658 -19.8650 -19.8650 -19.8647 -19.8642
   -19.8641 -19.8633 -19.8627 -19.8624 -19.8598 -19.8593 -19.8589 -19.8585
   -19.8544 -19.8539 -19.8538 -19.8530 -19.8528 -19.8521 -19.8520 -19.8513
   -19.8420 -19.8417 -19.8414 -19.8405 -19.8403 -19.8394 -19.8393 -19.8389
   -19.8373 -19.8368 -19.8365 -19.8355 -19.8343 -19.8333 -19.8329 -19.8324
    -9.4821  -9.2779  -9.1650  -8.9838  -8.8963  -8.7510  -8.5854  -8.5432
    -8.4732  -8.4617  -8.3155  -8.2649  -8.0637  -7.9544  -7.7604  -7.7319
    -7.6288  -7.6083  -7.5683  -7.5387  -7.5181  -7.5071  -7.3404  -7.2702
     1.6830   1.6836   1.9256   1.9452   2.0794   2.1014   2.1760   2.2000
     2.5773   2.7599   2.8184   2.9123   2.9823   3.0208   3.0505   3.1285
     3.2799   3.3936   3.9833   4.0920   4.1777   4.2163   4.3460   4.5459
     4.5676   4.7114   4.7304   4.8175   4.9589   5.0220   5.1682   5.3210
     5.3233   5.4362   5.5152   5.6877   5.7118   5.7743   5.7979   5.9476
     5.9816   6.0177   6.0371   6.1493   6.1662   6.2427   6.3330   6.3604
     6.5783   6.6346   6.6801   6.8354   6.9037   6.9556   6.9930   7.0691
     7.1011   7.1667   7.2047   7.2619   7.3289   7.3997   7.4104   7.4976
     7.6049   7.6797   7.9413   7.9900   8.1127   8.1238   8.2738   8.3191
    10.6275  10.6821  10.9823  11.1742  11.3405  11.5322  12.1816  12.2924
    12.4923  12.6532  12.7218  12.8446  12.8669  12.9359  13.1120  13.1217
    13.3161  13.3997  13.4767  13.5841  13.8032  13.9351  14.0682  14.1469
    15.1457  15.2268  15.5301  15.6611  15.9724  16.0776  16.1370  16.2847
    16.7070  17.1405  17.3739  17.6556  17.9237

          k = 0.0000 0.1617-0.5000 ( 61194 PWs)   bands (ev):

   -65.7395 -65.7394 -65.7389 -65.7389 -65.7385 -65.7385 -65.7380 -65.7380
   -30.2288 -30.2288 -30.1925 -30.1924 -30.1892 -30.1892 -30.1558 -30.1558
   -30.1103 -30.1102 -30.0922 -30.0922 -30.0555 -30.0555 -30.0469 -30.0469
   -30.0259 -30.0258 -29.9863 -29.9863 -29.9792 -29.9791 -29.9404 -29.9404
   -19.8832 -19.8832 -19.8827 -19.8827 -19.8826 -19.8826 -19.8823 -19.8822
   -19.8737 -19.8737 -19.8731 -19.8731 -19.8727 -19.8727 -19.8721 -19.8721
   -19.8666 -19.8665 -19.8654 -19.8653 -19.8653 -19.8653 -19.8645 -19.8645
   -19.8638 -19.8637 -19.8626 -19.8626 -19.8596 -19.8595 -19.8587 -19.8587
   -19.8542 -19.8542 -19.8533 -19.8532 -19.8525 -19.8524 -19.8517 -19.8517
   -19.8417 -19.8417 -19.8410 -19.8410 -19.8400 -19.8399 -19.8392 -19.8392
   -19.8370 -19.8370 -19.8354 -19.8354 -19.8344 -19.8344 -19.8327 -19.8327
    -9.3663  -9.3663  -9.0085  -9.0084  -8.8334  -8.8334  -8.4935  -8.4935
    -8.3437  -8.3437  -8.2767  -8.2767  -8.0655  -8.0655  -7.9999  -7.9998
    -7.6507  -7.6507  -7.5451  -7.5451  -7.5262  -7.5262  -7.3047  -7.3047
     1.6830   1.6830   1.9402   1.9402   2.0984   2.0985   2.2007   2.2008
     2.9597   2.9597   3.2638   3.2638   3.3735   3.3735   3.5009   3.5009
     3.5516   3.5517   3.6479   3.6479   3.8778   3.8779   4.0972   4.0972
     4.1849   4.1849   4.6112   4.6113   4.8515   4.8516   5.1149   5.1149
     5.4143   5.4143   5.5800   5.5800   5.6757   5.6757   5.8674   5.8674
     5.9792   5.9792   6.1501   6.1501   6.1971   6.1972   6.3340   6.3340
     6.6009   6.6009   6.7606   6.7606   6.8750   6.8750   6.9993   6.9993
     7.1464   7.1465   7.1708   7.1708   7.3186   7.3186   7.7478   7.7479
     7.7907   7.7908   7.9153   7.9153   7.9602   7.9602   8.2936   8.2936
    10.6654  10.6654  11.6166  11.6166  11.8285  11.8285  11.9140  11.9140
    12.2099  12.2099  12.7771  12.7771  12.9760  12.9761  13.1797  13.1797
    13.2632  13.2632  13.5512  13.5512  13.7204  13.7204  14.0930  14.0931
    15.1942  15.1942  15.7650  15.7650  16.0519  16.0519  16.3337  16.3337
    16.8555  16.8555  17.9242  17.9242  18.2237

          k = 0.0000 0.3234 0.0000 ( 61226 PWs)   bands (ev):

   -65.7398 -65.7395 -65.7389 -65.7389 -65.7386 -65.7385 -65.7379 -65.7376
   -30.2327 -30.2286 -30.2254 -30.2253 -30.1598 -30.1588 -30.1588 -30.1458
   -30.1050 -30.0924 -30.0924 -30.0744 -30.0714 -30.0603 -30.0603 -30.0517
   -30.0307 -30.0298 -30.0198 -30.0197 -29.9431 -29.9431 -29.9378 -29.9370
   -19.8833 -19.8832 -19.8831 -19.8831 -19.8823 -19.8823 -19.8822 -19.8821
   -19.8737 -19.8734 -19.8734 -19.8732 -19.8724 -19.8722 -19.8722 -19.8720
   -19.8665 -19.8665 -19.8665 -19.8665 -19.8646 -19.8646 -19.8646 -19.8640
   -19.8634 -19.8623 -19.8622 -19.8615 -19.8609 -19.8599 -19.8599 -19.8593
   -19.8546 -19.8544 -19.8536 -19.8536 -19.8525 -19.8525 -19.8514 -19.8510
   -19.8424 -19.8423 -19.8410 -19.8410 -19.8395 -19.8395 -19.8386 -19.8386
   -19.8376 -19.8375 -19.8366 -19.8366 -19.8332 -19.8332 -19.8322 -19.8321
    -9.5542  -9.3936  -9.1429  -9.1429  -8.7962  -8.7962  -8.5967  -8.5806
    -8.4873  -8.3571  -8.3352  -8.3351  -7.9103  -7.8284  -7.8284  -7.7866
    -7.6840  -7.6713  -7.5300  -7.5300  -7.3828  -7.3744  -7.2374  -7.2374
     1.6479   1.6594   1.6938   1.6938   1.9240   1.9240   2.0885   2.1268
     2.6208   2.7031   2.7629   2.7664   2.7664   2.9453   3.0231   3.3200
     3.3200   3.3232   3.9620   4.0007   4.0007   4.0160   4.3871   4.8065
     4.8065   4.9739   4.9739   5.0803   5.1044   5.1044   5.3254   5.4254
     5.4379   5.4379   5.6922   5.7453   5.7454   5.8037   5.8457   6.0057
     6.0701   6.0701   6.0738   6.1569   6.1569   6.2767   6.3359   6.3668
     6.5383   6.6019   6.6572   6.8028   6.8028   6.8150   7.2011   7.2227
     7.2227   7.2287   7.2924   7.2924   7.3743   7.3799   7.4413   7.4413
     7.7644   7.7644   7.9412   7.9835   8.0875   8.1434   8.1434   8.1521
    10.2407  10.2564  11.1089  11.1230  11.1230  11.2523  12.2968  12.2968
    12.3550  12.5169  12.5665  12.5665  12.8050  12.8927  13.0377  13.0377
    13.4691  13.5273  13.5273  13.6693  13.8960  13.8960  14.0240  14.0868
    15.2246  15.5505  15.5506  15.6295  15.7995  16.0598  16.2024  16.2024
    16.3331  17.2994  17.5858  17.8297  17.8297

          k = 0.0000 0.3234 0.1667 ( 61233 PWs)   bands (ev):

   -65.7398 -65.7394 -65.7389 -65.7388 -65.7386 -65.7385 -65.7380 -65.7377
   -30.2310 -30.2257 -30.2244 -30.2200 -30.1628 -30.1619 -30.1583 -30.1481
   -30.1044 -30.0935 -30.0916 -30.0761 -30.0710 -30.0615 -30.0600 -30.0527
   -30.0297 -30.0241 -30.0208 -30.0144 -29.9489 -29.9431 -29.9427 -29.9378
   -19.8832 -19.8831 -19.8831 -19.8830 -19.8823 -19.8823 -19.8823 -19.8822
   -19.8737 -19.8734 -19.8733 -19.8732 -19.8725 -19.8723 -19.8722 -19.8720
   -19.8666 -19.8665 -19.8663 -19.8663 -19.8647 -19.8646 -19.8646 -19.8641
   -19.8634 -19.8624 -19.8622 -19.8615 -19.8609 -19.8600 -19.8599 -19.8593
   -19.8545 -19.8543 -19.8537 -19.8534 -19.8526 -19.8524 -19.8515 -19.8511
   -19.8423 -19.8422 -19.8411 -19.8409 -19.8397 -19.8395 -19.8388 -19.8387
   -19.8375 -19.8372 -19.8366 -19.8363 -19.8335 -19.8332 -19.8324 -19.8322
    -9.5075  -9.3415  -9.1595  -9.0678  -8.8177  -8.7291  -8.5683  -8.5420
    -8.4979  -8.3459  -8.3408  -8.3134  -7.9196  -7.8400  -7.8298  -7.7964
    -7.7656  -7.6683  -7.6340  -7.5391  -7.4810  -7.3683  -7.3452  -7.2463
     1.6750   1.6908   1.8331   1.9131   1.9302   2.1461   2.1721   2.3138
     2.6321   2.7485   2.7644   2.8015   2.8511   2.9392   3.0753   3.3008
     3.3813   3.3990   3.9749   3.9860   4.0131   4.0897   4.3547   4.6483
     4.6690   4.7996   4.8475   4.9604   5.0402   5.0998   5.1876   5.2284
     5.3973   5.4202   5.4960   5.6324   5.6863   5.7969   5.8658   5.9465
     5.9802   6.0063   6.0354   6.0428   6.1596   6.1709   6.2567   6.3511
     6.6110   6.6505   6.7484   6.8138   6.9037   6.9828   7.1087   7.2036
     7.2055   7.2731   7.2970   7.3094   7.3917   7.4021   7.4324   7.4660
     7.6026   7.6665   7.9537   7.9994   8.0898   8.1247   8.1369   8.1539
    10.4681  10.5183  11.1227  11.1551  11.2629  11.3741  12.2802  12.3561
    12.3943  12.5003  12.5759  12.6431  12.8455  12.9240  12.9907  13.0736
    13.3316  13.4711  13.5308  13.6188  13.7885  13.8963  13.9725  14.0732
    15.3002  15.5341  15.6567  15.7051  15.8760  16.1139  16.1759  16.4202
    16.4884  17.2651  17.5562  17.6613  17.9134

          k = 0.0000 0.3234 0.3333 ( 61234 PWs)   bands (ev):

   -65.7396 -65.7393 -65.7391 -65.7388 -65.7386 -65.7383 -65.7382 -65.7378
   -30.2295 -30.2267 -30.2105 -30.2056 -30.1743 -30.1707 -30.1570 -30.1522
   -30.1027 -30.0964 -30.0892 -30.0803 -30.0698 -30.0644 -30.0589 -30.0549
   -30.0282 -30.0232 -30.0080 -29.9997 -29.9647 -29.9584 -29.9418 -29.9389
   -19.8832 -19.8831 -19.8829 -19.8828 -19.8825 -19.8824 -19.8823 -19.8822
   -19.8736 -19.8734 -19.8732 -19.8731 -19.8726 -19.8725 -19.8722 -19.8721
   -19.8666 -19.8665 -19.8659 -19.8658 -19.8649 -19.8648 -19.8646 -19.8643
   -19.8632 -19.8626 -19.8621 -19.8617 -19.8607 -19.8602 -19.8598 -19.8595
   -19.8544 -19.8539 -19.8538 -19.8529 -19.8529 -19.8522 -19.8519 -19.8514
   -19.8420 -19.8417 -19.8414 -19.8405 -19.8403 -19.8394 -19.8393 -19.8389
   -19.8373 -19.8368 -19.8365 -19.8355 -19.8343 -19.8333 -19.8329 -19.8324
    -9.4002  -9.2116  -9.1949  -8.8876  -8.8682  -8.5621  -8.5331  -8.4809
    -8.4429  -8.3562  -8.2802  -8.2249  -8.0742  -7.9827  -7.8733  -7.8496
    -7.8065  -7.7784  -7.7202  -7.6605  -7.5846  -7.5633  -7.3413  -7.2709
     1.6875   1.6894   1.9444   1.9622   2.4822   2.5745   2.6254   2.7212
     2.7907   2.8303   2.8698   3.0279   3.0476   3.1002   3.1764   3.2853
     3.5469   3.5815   3.9226   3.9720   4.0115   4.1016   4.1538   4.2538
     4.3326   4.5195   4.5779   4.7382   4.7911   4.8682   4.9274   4.9710
     5.1600   5.2460   5.3188   5.4015   5.4473   5.5598   5.6165   5.6676
     5.7669   5.8744   5.9245   6.0233   6.1754   6.2544   6.3314   6.3695
     6.7023   6.7340   6.7656   6.8450   6.9556   7.0963   7.1530   7.1761
     7.2449   7.2778   7.3196   7.3576   7.3722   7.4275   7.4600   7.5395
     7.6602   7.7173   7.9168   7.9853   8.0512   8.0642   8.1295   8.1420
    10.9583  11.0538  11.1382  11.2861  11.6374  11.7788  12.1621  12.2783
    12.4342  12.5103  12.6005  12.6874  12.7990  12.8572  12.9166  13.0796
    13.1743  13.2573  13.4623  13.5458  13.5665  13.8295  13.9042  14.0124
    15.3585  15.4858  15.8152  16.0536  16.1829  16.3060  16.3612  16.9199
    17.0462  17.1456  17.1722  17.8053  17.8138

          k = 0.0000 0.3234-0.5000 ( 61274 PWs)   bands (ev):

   -65.7394 -65.7393 -65.7390 -65.7390 -65.7384 -65.7384 -65.7381 -65.7381
   -30.2281 -30.2280 -30.1917 -30.1917 -30.1870 -30.1870 -30.1550 -30.1550
   -30.0998 -30.0998 -30.0852 -30.0852 -30.0675 -30.0674 -30.0572 -30.0571
   -30.0259 -30.0259 -29.9863 -29.9863 -29.9792 -29.9791 -29.9404 -29.9404
   -19.8832 -19.8831 -19.8827 -19.8827 -19.8826 -19.8826 -19.8823 -19.8822
   -19.8735 -19.8735 -19.8729 -19.8729 -19.8728 -19.8728 -19.8722 -19.8721
   -19.8666 -19.8666 -19.8653 -19.8653 -19.8652 -19.8652 -19.8645 -19.8645
   -19.8630 -19.8629 -19.8620 -19.8619 -19.8605 -19.8605 -19.8597 -19.8596
   -19.8542 -19.8541 -19.8533 -19.8533 -19.8524 -19.8523 -19.8518 -19.8518
   -19.8417 -19.8417 -19.8410 -19.8410 -19.8400 -19.8399 -19.8392 -19.8392
   -19.8370 -19.8370 -19.8354 -19.8354 -19.8344 -19.8344 -19.8327 -19.8327
    -9.2914  -9.2914  -9.0193  -9.0193  -8.6508  -8.6508  -8.3906  -8.3906
    -8.3351  -8.3351  -8.2784  -8.2784  -8.0700  -8.0699  -8.0146  -8.0146
    -7.8258  -7.8258  -7.7653  -7.7653  -7.5963  -7.5963  -7.3055  -7.3055
     1.6887   1.6887   1.9617   1.9617   2.6291   2.6291   2.7865   2.7866
     3.1730   3.1730   3.2954   3.2954   3.3605   3.3605   3.5488   3.5488
     3.5945   3.5945   3.6637   3.6638   3.9080   3.9081   4.0283   4.0283
     4.2096   4.2096   4.3478   4.3479   4.5657   4.5657   4.6812   4.6812
     5.1875   5.1875   5.2813   5.2813   5.4593   5.4593   5.5784   5.5785
     5.7235   5.7236   6.0028   6.0028   6.2655   6.2655   6.3255   6.3255
     6.7211   6.7212   6.8479   6.8479   6.9632   6.9632   7.0840   7.0840
     7.3309   7.3309   7.3523   7.3524   7.3850   7.3850   7.7335   7.7336
     7.7916   7.7916   7.9098   7.9098   7.9453   7.9453   8.1301   8.1301
    11.1096  11.1096  11.6564  11.6564  11.8583  11.8583  12.0914  12.0914
    12.3484  12.3484  12.5472  12.5472  12.8709  12.8710  12.9781  12.9782
    13.1859  13.1860  13.3266  13.3266  13.6622  13.6622  13.9348  13.9349
    15.4141  15.4141  15.9527  15.9527  16.6419  16.6419  16.8477  16.8477
    16.9908  16.9909  17.6436  17.6437  18.0492

          k = 0.0000-0.4851 0.0000 ( 61266 PWs)   bands (ev):

   -65.7397 -65.7397 -65.7388 -65.7388 -65.7387 -65.7386 -65.7378 -65.7378
   -30.2304 -30.2304 -30.2251 -30.2250 -30.1575 -30.1575 -30.1520 -30.1520
   -30.0884 -30.0884 -30.0861 -30.0861 -30.0682 -30.0682 -30.0639 -30.0639
   -30.0302 -30.0302 -30.0198 -30.0198 -29.9431 -29.9431 -29.9374 -29.9374
   -19.8832 -19.8832 -19.8831 -19.8831 -19.8823 -19.8823 -19.8822 -19.8822
   -19.8735 -19.8734 -19.8733 -19.8733 -19.8722 -19.8722 -19.8722 -19.8722
   -19.8665 -19.8665 -19.8665 -19.8665 -19.8645 -19.8645 -19.8643 -19.8643
   -19.8622 -19.8622 -19.8616 -19.8616 -19.8607 -19.8607 -19.8604 -19.8604
   -19.8545 -19.8545 -19.8536 -19.8536 -19.8525 -19.8525 -19.8512 -19.8512
   -19.8424 -19.8424 -19.8410 -19.8410 -19.8395 -19.8395 -19.8386 -19.8386
   -19.8375 -19.8375 -19.8366 -19.8366 -19.8332 -19.8332 -19.8321 -19.8321
    -9.4640  -9.4640  -9.1128  -9.1128  -8.7827  -8.7827  -8.5829  -8.5828
    -8.1907  -8.1907  -8.1351  -8.1351  -8.1193  -8.1192  -8.0994  -8.0994
    -7.6851  -7.6851  -7.5338  -7.5338  -7.3790  -7.3790  -7.2377  -7.2377
     1.6529   1.6529   1.6940   1.6940   1.9261   1.9261   2.1197   2.1197
     2.7322   2.7322   3.1447   3.1447   3.2216   3.2216   3.6005   3.6005
     3.6702   3.6702   3.6765   3.6765   3.8132   3.8132   4.1023   4.1023
     4.1169   4.1169   4.9668   4.9668   5.0685   5.0685   5.5321   5.5321
     5.5644   5.5644   5.5992   5.5992   5.6342   5.6342   5.9034   5.9034
     6.0900   6.0900   6.1026   6.1026   6.2099   6.2099   6.3507   6.3507
     6.5643   6.5643   6.7083   6.7083   6.7843   6.7843   7.2000   7.2000
     7.2126   7.2126   7.2981   7.2981   7.6233   7.6233   7.6625   7.6625
     7.8166   7.8166   7.8575   7.8575   7.9617   7.9617   8.0220   8.0220
    10.2552  10.2552  11.5465  11.5465  11.6193  11.6194  11.9376  11.9376
    12.0536  12.0537  12.5701  12.5701  12.8271  12.8271  13.0380  13.0380
    13.6016  13.6016  13.6485  13.6485  13.6859  13.6859  13.9673  13.9673
    15.5019  15.5019  15.7035  15.7035  15.9533  15.9533  16.1794  16.1794
    16.8901  16.8901  18.2932  18.2932  18.4894

          k = 0.0000-0.4851 0.1667 ( 61206 PWs)   bands (ev):

   -65.7396 -65.7396 -65.7388 -65.7387 -65.7387 -65.7386 -65.7378 -65.7378
   -30.2301 -30.2254 -30.2250 -30.2196 -30.1616 -30.1572 -30.1561 -30.1524
   -30.0884 -30.0875 -30.0864 -30.0852 -30.0701 -30.0680 -30.0662 -30.0642
   -30.0297 -30.0242 -30.0208 -30.0145 -29.9489 -29.9430 -29.9427 -29.9378
   -19.8832 -19.8831 -19.8831 -19.8830 -19.8824 -19.8823 -19.8822 -19.8822
   -19.8734 -19.8734 -19.8733 -19.8732 -19.8723 -19.8723 -19.8722 -19.8722
   -19.8666 -19.8665 -19.8664 -19.8663 -19.8646 -19.8645 -19.8644 -19.8643
   -19.8622 -19.8621 -19.8617 -19.8615 -19.8608 -19.8607 -19.8605 -19.8605
   -19.8545 -19.8543 -19.8537 -19.8534 -19.8526 -19.8524 -19.8513 -19.8513
   -19.8423 -19.8422 -19.8411 -19.8409 -19.8397 -19.8395 -19.8388 -19.8387
   -19.8375 -19.8372 -19.8366 -19.8363 -19.8335 -19.8332 -19.8324 -19.8322
    -9.4291  -9.3989  -9.1286  -9.0328  -8.8059  -8.7118  -8.5593  -8.5361
    -8.1980  -8.1980  -8.1454  -8.1292  -8.1246  -8.1131  -8.1029  -8.0880
    -7.7839  -7.6763  -7.6435  -7.5429  -7.4816  -7.3689  -7.3455  -7.2466
     1.6750   1.6911   1.8321   1.9153   1.9319   2.1513   2.1951   2.3269
     2.8157   2.8219   3.1437   3.1476   3.2505   3.2739   3.5777   3.5946
     3.6047   3.6752   3.6833   3.7511   3.8481   3.8939   4.0809   4.1304
     4.1369   4.1547   4.6681   4.6855   4.9700   4.9987   5.3230   5.3425
     5.4241   5.4251   5.5241   5.5602   5.5633   5.6769   5.8105   5.8978
     5.9357   6.0062   6.0251   6.0474   6.0999   6.1717   6.2706   6.3473
     6.6358   6.6620   6.7193   6.7964   6.8909   6.9681   7.1201   7.1817
     7.2356   7.3084   7.3138   7.3682   7.5198   7.5743   7.6329   7.6347
     7.7458   7.7760   7.8667   7.8783   7.9503   7.9561   8.0348   8.0436
    10.4780  10.5322  11.5479  11.6177  11.6480  11.7389  11.9362  12.0303
    12.0545  12.1473  12.5172  12.6266  12.8930  12.9207  12.9343  13.0690
    13.4576  13.5250  13.5674  13.5781  13.6500  13.6875  13.8973  13.9844
    15.4706  15.6322  15.6796  15.8821  16.0525  16.0928  16.1901  16.3829
    16.9377  16.9503  18.0851  18.2325  18.3078

          k = 0.0000-0.4851 0.3333 ( 61246 PWs)   bands (ev):

   -65.7394 -65.7394 -65.7390 -65.7389 -65.7385 -65.7384 -65.7380 -65.7380
   -30.2290 -30.2264 -30.2104 -30.2051 -30.1735 -30.1681 -30.1560 -30.1533
   -30.0883 -30.0870 -30.0847 -30.0824 -30.0749 -30.0718 -30.0672 -30.0650
   -30.0282 -30.0232 -30.0081 -29.9997 -29.9647 -29.9584 -29.9418 -29.9390
   -19.8832 -19.8831 -19.8830 -19.8828 -19.8825 -19.8824 -19.8823 -19.8822
   -19.8734 -19.8734 -19.8732 -19.8731 -19.8726 -19.8725 -19.8722 -19.8722
   -19.8666 -19.8665 -19.8659 -19.8658 -19.8649 -19.8647 -19.8645 -19.8644
   -19.8621 -19.8619 -19.8618 -19.8614 -19.8612 -19.8608 -19.8607 -19.8605
   -19.8543 -19.8539 -19.8539 -19.8529 -19.8529 -19.8522 -19.8517 -19.8516
   -19.8420 -19.8417 -19.8414 -19.8405 -19.8403 -19.8394 -19.8393 -19.8389
   -19.8373 -19.8368 -19.8365 -19.8355 -19.8343 -19.8333 -19.8329 -19.8324
    -9.3443  -9.2290  -9.1745  -8.8819  -8.8092  -8.5252  -8.4792  -8.3990
    -8.2619  -8.2271  -8.1704  -8.1407  -8.1147  -8.1117  -8.0992  -8.0484
    -7.9937  -7.8869  -7.7345  -7.6747  -7.5874  -7.5677  -7.3418  -7.2713
     1.6879   1.6898   1.9471   1.9639   2.5240   2.7210   2.7285   2.9126
     3.0535   3.0676   3.1527   3.1651   3.3412   3.3917   3.4901   3.5868
     3.6051   3.6548   3.7072   3.7401   3.9304   4.0324   4.0825   4.1305
     4.1391   4.2006   4.2210   4.2336   4.6328   4.7103   4.8544   4.9532
     4.9853   5.1252   5.2195   5.2473   5.4435   5.5588   5.5648   5.6115
     5.6476   5.8157   5.9107   5.9220   6.1669   6.2820   6.3343   6.3772
     6.7251   6.7553   6.7582   6.8485   6.9406   7.1254   7.1296   7.2569
     7.3021   7.3356   7.3618   7.4590   7.5063   7.5610   7.6203   7.6603
     7.7561   7.7990   7.8547   7.9023   7.9319   7.9459   8.0153   8.0220
    11.0054  11.1390  11.5522  11.6228  11.9265  11.9326  12.0264  12.1201
    12.2571  12.2930  12.3980  12.5388  12.7975  12.8717  12.9514  13.0541
    13.1626  13.2359  13.2951  13.4498  13.6636  13.7012  13.8060  13.9038
    15.4354  15.5983  15.8595  16.0862  16.3366  16.6706  16.6818  16.9740
    17.0840  17.1424  17.6986  17.7531  18.0908

          k = 0.0000-0.4851-0.5000 ( 61260 PWs)   bands (ev):

   -65.7392 -65.7392 -65.7392 -65.7391 -65.7383 -65.7382 -65.7382 -65.7382
   -30.2277 -30.2277 -30.1914 -30.1913 -30.1860 -30.1859 -30.1546 -30.1545
   -30.0878 -30.0877 -30.0803 -30.0803 -30.0778 -30.0778 -30.0661 -30.0661
   -30.0259 -30.0259 -29.9864 -29.9863 -29.9792 -29.9792 -29.9404 -29.9404
   -19.8832 -19.8831 -19.8827 -19.8827 -19.8826 -19.8826 -19.8823 -19.8822
   -19.8734 -19.8734 -19.8729 -19.8729 -19.8728 -19.8728 -19.8722 -19.8722
   -19.8666 -19.8666 -19.8653 -19.8653 -19.8652 -19.8652 -19.8645 -19.8644
   -19.8620 -19.8619 -19.8616 -19.8616 -19.8611 -19.8611 -19.8606 -19.8606
   -19.8541 -19.8541 -19.8534 -19.8533 -19.8523 -19.8522 -19.8519 -19.8519
   -19.8417 -19.8417 -19.8410 -19.8410 -19.8400 -19.8399 -19.8392 -19.8392
   -19.8370 -19.8370 -19.8354 -19.8354 -19.8344 -19.8344 -19.8327 -19.8327
    -9.2506  -9.2505  -9.0275  -9.0275  -8.5046  -8.5045  -8.3295  -8.3295
    -8.3104  -8.3104  -8.2289  -8.2289  -8.1016  -8.1016  -8.0604  -8.0604
    -7.9866  -7.9865  -7.8992  -7.8992  -7.6007  -7.6007  -7.3060  -7.3059
     1.6892   1.6892   1.9645   1.9645   3.0580   3.0581   3.2862   3.2862
     3.3328   3.3328   3.3671   3.3672   3.4350   3.4350   3.5486   3.5486
     3.5937   3.5937   3.6980   3.6980   3.7694   3.7694   3.8374   3.8374
     4.0518   4.0518   4.1973   4.1973   4.5832   4.5832   4.6601   4.6601
     4.7097   4.7098   4.8115   4.8115   5.4938   5.4938   5.5733   5.5733
     5.6948   5.6949   5.8968   5.8969   6.3063   6.3063   6.3108   6.3108
     6.7350   6.7350   6.8504   6.8505   6.9922   6.9922   7.0760   7.0760
     7.4500   7.4500   7.4938   7.4938   7.6173   7.6173   7.6941   7.6941
     7.8036   7.8036   7.8764   7.8765   7.9161   7.9161   7.9637   7.9637
    11.4707  11.4707  11.7598  11.7598  11.8004  11.8004  12.0674  12.0674
    12.4358  12.4358  12.5422  12.5422  12.7178  12.7178  12.8072  12.8072
    13.0543  13.0544  13.3016  13.3016  13.7159  13.7159  13.7637  13.7637
    15.4953  15.4954  15.9907  15.9908  17.0263  17.0264  17.2837  17.2837
    17.4237  17.4237  17.5881  17.5881  17.7263

          k = 0.1667 0.0000 0.1667 ( 61202 PWs)   bands (ev):

   -65.7398 -65.7392 -65.7390 -65.7390 -65.7384 -65.7384 -65.7382 -65.7376
   -30.2300 -30.2218 -30.2215 -30.2206 -30.1726 -30.1654 -30.1654 -30.1463
   -30.1195 -30.1028 -30.1027 -30.0869 -30.0535 -30.0469 -30.0467 -30.0396
   -30.0245 -30.0227 -30.0152 -30.0151 -29.9485 -29.9485 -29.9443 -29.9427
   -19.8832 -19.8830 -19.8830 -19.8830 -19.8823 -19.8823 -19.8823 -19.8822
   -19.8740 -19.8736 -19.8736 -19.8730 -19.8729 -19.8722 -19.8722 -19.8719
   -19.8664 -19.8663 -19.8663 -19.8663 -19.8650 -19.8649 -19.8649 -19.8645
   -19.8639 -19.8631 -19.8631 -19.8625 -19.8595 -19.8587 -19.8587 -19.8581
   -19.8545 -19.8540 -19.8536 -19.8536 -19.8524 -19.8524 -19.8519 -19.8510
   -19.8422 -19.8420 -19.8410 -19.8410 -19.8397 -19.8397 -19.8389 -19.8388
   -19.8373 -19.8371 -19.8363 -19.8363 -19.8335 -19.8334 -19.8326 -19.8324
    -9.5780  -9.2339  -9.1997  -9.1963  -8.8014  -8.7839  -8.7781  -8.6165
    -8.5109  -8.4361  -8.4341  -8.4258  -7.8307  -7.7779  -7.6824  -7.6799
    -7.5059  -7.4867  -7.4712  -7.4409  -7.4406  -7.4030  -7.3568  -7.3492
     1.7857   1.8301   1.8301   1.9139   1.9150   1.9465   1.9929   1.9950
     2.2022   2.2062   2.3652   2.5070   2.8124   2.8655   2.9751   3.0172
     3.0627   3.0922   4.3288   4.3832   4.5698   4.5779   4.7035   4.7225
     4.7912   4.8374   4.8754   4.9951   5.1153   5.1901   5.4580   5.4887
     5.5721   5.6798   5.6799   5.7941   5.8204   5.8332   5.9309   5.9648
     6.0209   6.0573   6.0578   6.0855   6.1128   6.2070   6.2293   6.4316
     6.4999   6.7687   6.7720   6.8366   6.9303   6.9390   7.0456   7.0468
     7.0734   7.0817   7.1395   7.2048   7.2495   7.3075   7.3900   7.4334
     7.5833   7.5908   7.9921   8.0132   8.1700   8.2316   8.2749   8.3983
    10.5335  10.5407  10.7247  10.7616  10.8793  10.9462  12.5035  12.5272
    12.5735  12.5922  12.7476  12.8991  13.0003  13.0318  13.0564  13.3133
    13.3520  13.4723  13.5897  13.6001  13.9594  14.0118  14.1282  14.1902
    14.9563  15.1712  15.1738  15.3559  15.7353  15.9471  15.9749  16.4036
    16.4291  17.1490  17.1931  17.2927  17.9963

          k = 0.1667 0.0000 0.3333 ( 61212 PWs)   bands (ev):

   -65.7397 -65.7392 -65.7390 -65.7388 -65.7386 -65.7384 -65.7382 -65.7378
   -30.2261 -30.2225 -30.2098 -30.2076 -30.1785 -30.1756 -30.1634 -30.1531
   -30.1173 -30.1078 -30.1005 -30.0916 -30.0526 -30.0487 -30.0457 -30.0416
   -30.0222 -30.0174 -30.0074 -30.0003 -29.9643 -29.9589 -29.9475 -29.9446
   -19.8832 -19.8831 -19.8829 -19.8828 -19.8825 -19.8824 -19.8823 -19.8822
   -19.8739 -19.8736 -19.8734 -19.8730 -19.8729 -19.8724 -19.8722 -19.8720
   -19.8664 -19.8663 -19.8659 -19.8658 -19.8651 -19.8651 -19.8649 -19.8643
   -19.8642 -19.8635 -19.8630 -19.8627 -19.8594 -19.8589 -19.8586 -19.8582
   -19.8543 -19.8538 -19.8536 -19.8531 -19.8527 -19.8521 -19.8521 -19.8513
   -19.8419 -19.8416 -19.8412 -19.8406 -19.8402 -19.8396 -19.8394 -19.8391
   -19.8370 -19.8365 -19.8364 -19.8356 -19.8343 -19.8334 -19.8332 -19.8327
    -9.4659  -9.2527  -9.0958  -9.0538  -8.8412  -8.8323  -8.6055  -8.5625
    -8.4574  -8.4318  -8.3094  -8.2861  -8.0540  -7.9596  -7.8004  -7.7407
    -7.7108  -7.6123  -7.4946  -7.4681  -7.4429  -7.4363  -7.4144  -7.3752
     1.8068   1.8194   1.8918   1.9060   1.9944   1.9997   2.1894   2.2223
     2.5784   2.7534   2.8066   2.9100   2.9607   3.0441   3.1170   3.2077
     3.2492   3.3332   4.0026   4.1002   4.2142   4.2580   4.3154   4.5726
     4.6710   4.7294   4.7818   4.8470   4.9307   4.9978   5.1165   5.1955
     5.3836   5.4204   5.4896   5.5202   5.6060   5.7549   5.8275   5.9316
     5.9846   5.9998   6.0638   6.0988   6.1598   6.1809   6.2557   6.4388
     6.5817   6.7099   6.7401   6.7888   6.8335   6.8694   7.0115   7.0374
     7.0736   7.1324   7.2149   7.2628   7.3645   7.4189   7.4516   7.5419
     7.6111   7.6746   7.9574   7.9792   8.1088   8.1467   8.2937   8.3581
    10.6716  10.6973  11.0776  11.2106  11.3121  11.5212  12.2371  12.3015
    12.4891  12.6293  12.7048  12.8017  12.8918  13.0801  13.1234  13.2470
    13.4157  13.4222  13.4793  13.6058  13.8858  13.9137  14.0687  14.1056
    15.0348  15.1516  15.3719  15.5880  15.8406  16.0467  16.2133  16.2524
    16.7798  17.0855  17.6222  17.6317  17.7442

          k = 0.1667 0.0000-0.5000 ( 61220 PWs)   bands (ev):

   -65.7394 -65.7394 -65.7388 -65.7388 -65.7386 -65.7386 -65.7380 -65.7380
   -30.2241 -30.2240 -30.1924 -30.1923 -30.1906 -30.1906 -30.1596 -30.1595
   -30.1132 -30.1132 -30.0966 -30.0966 -30.0508 -30.0508 -30.0438 -30.0438
   -30.0200 -30.0200 -29.9859 -29.9858 -29.9797 -29.9797 -29.9461 -29.9461
   -19.8831 -19.8831 -19.8827 -19.8827 -19.8826 -19.8826 -19.8823 -19.8823
   -19.8738 -19.8737 -19.8732 -19.8732 -19.8727 -19.8727 -19.8721 -19.8721
   -19.8664 -19.8663 -19.8654 -19.8654 -19.8653 -19.8653 -19.8646 -19.8646
   -19.8640 -19.8640 -19.8629 -19.8629 -19.8592 -19.8591 -19.8584 -19.8584
   -19.8540 -19.8540 -19.8531 -19.8531 -19.8526 -19.8526 -19.8517 -19.8517
   -19.8416 -19.8415 -19.8410 -19.8409 -19.8400 -19.8400 -19.8394 -19.8393
   -19.8368 -19.8367 -19.8354 -19.8353 -19.8345 -19.8345 -19.8330 -19.8330
    -9.3446  -9.3446  -8.9408  -8.9407  -8.9171  -8.9171  -8.4989  -8.4989
    -8.3495  -8.3494  -8.2616  -8.2616  -8.0708  -8.0707  -8.0042  -8.0041
    -7.7156  -7.7156  -7.4808  -7.4807  -7.4299  -7.4299  -7.4071  -7.4071
     1.8110   1.8111   1.8998   1.8998   2.0019   2.0019   2.2292   2.2292
     2.9582   2.9582   3.2742   3.2743   3.3742   3.3743   3.4853   3.4853
     3.5764   3.5765   3.6814   3.6815   3.8997   3.8998   4.0516   4.0517
     4.1998   4.1998   4.6935   4.6935   4.8622   4.8622   5.2381   5.2381
     5.2928   5.2928   5.4288   5.4289   5.6252   5.6252   5.9003   5.9003
     5.9598   5.9598   6.0254   6.0254   6.1825   6.1825   6.3811   6.3811
     6.5968   6.5969   6.7544   6.7544   6.7761   6.7762   7.0242   7.0242
     7.1552   7.1552   7.2478   7.2478   7.3241   7.3241   7.7653   7.7654
     7.8052   7.8052   7.9156   7.9156   7.9673   7.9673   8.3196   8.3196
    10.7017  10.7017  11.6701  11.6701  11.8416  11.8416  11.8979  11.8979
    12.2133  12.2133  12.7329  12.7329  13.0719  13.0719  13.1965  13.1965
    13.3205  13.3205  13.6610  13.6610  13.7078  13.7078  14.0662  14.0662
    15.1114  15.1114  15.6408  15.6408  15.9120  15.9120  16.4353  16.4353
    16.8768  16.8768  17.9260  17.9260  18.2896

          k = 0.1667 0.1617 0.1667 ( 61214 PWs)   bands (ev):

   -65.7398 -65.7393 -65.7390 -65.7390 -65.7384 -65.7384 -65.7382 -65.7376
   -30.2291 -30.2217 -30.2211 -30.2207 -30.1701 -30.1643 -30.1643 -30.1474
   -30.1154 -30.1003 -30.1002 -30.0846 -30.0582 -30.0509 -30.0507 -30.0436
   -30.0244 -30.0229 -30.0153 -30.0152 -29.9485 -29.9485 -29.9442 -29.9428
   -19.8832 -19.8831 -19.8830 -19.8830 -19.8823 -19.8823 -19.8823 -19.8822
   -19.8739 -19.8735 -19.8735 -19.8731 -19.8728 -19.8723 -19.8723 -19.8719
   -19.8664 -19.8663 -19.8663 -19.8663 -19.8649 -19.8648 -19.8648 -19.8642
   -19.8640 -19.8629 -19.8629 -19.8623 -19.8599 -19.8591 -19.8590 -19.8585
   -19.8545 -19.8540 -19.8536 -19.8536 -19.8525 -19.8524 -19.8518 -19.8511
   -19.8422 -19.8421 -19.8410 -19.8410 -19.8397 -19.8397 -19.8389 -19.8388
   -19.8373 -19.8371 -19.8363 -19.8363 -19.8335 -19.8335 -19.8326 -19.8324
    -9.5427  -9.2474  -9.1619  -9.1585  -8.7764  -8.7698  -8.7243  -8.5886
    -8.5107  -8.4193  -8.4118  -8.4056  -7.8385  -7.7793  -7.6946  -7.6878
    -7.5930  -7.5482  -7.5456  -7.5095  -7.4734  -7.4613  -7.3544  -7.3499
     1.8609   1.8909   1.8947   1.9145   2.0445   2.0889   2.0928   2.1303
     2.2629   2.2694   2.3654   2.5584   2.8482   2.9198   2.9667   3.1068
     3.1473   3.1639   4.2676   4.3007   4.4873   4.4969   4.5876   4.6669
     4.7223   4.7861   4.7890   5.0148   5.0445   5.0852   5.3892   5.4251
     5.4262   5.6514   5.6516   5.7101   5.7765   5.7868   5.7951   5.8748
     5.9721   6.0219   6.0360   6.1320   6.1356   6.1990   6.2155   6.2853
     6.5935   6.7412   6.7622   6.8888   6.9322   6.9537   7.0463   7.0476
     7.1106   7.1180   7.1954   7.2311   7.2814   7.3121   7.4164   7.4268
     7.5825   7.5890   7.9883   8.0117   8.1641   8.2108   8.2485   8.3343
    10.6068  10.6083  10.8739  10.8829  10.9532  11.0512  12.4978  12.5142
    12.5761  12.5798  12.7483  12.8277  12.9363  13.0154  13.0590  13.1675
    13.2966  13.4041  13.5703  13.5864  13.9590  13.9613  14.1156  14.1242
    15.1050  15.3314  15.3447  15.4881  15.7245  15.9726  16.2992  16.4230
    16.4366  17.0337  17.2889  17.2939  17.9981

          k = 0.1667 0.1617 0.3333 ( 61206 PWs)   bands (ev):

   -65.7396 -65.7392 -65.7391 -65.7388 -65.7386 -65.7383 -65.7383 -65.7378
   -30.2255 -30.2221 -30.2098 -30.2071 -30.1765 -30.1748 -30.1626 -30.1538
   -30.1133 -30.1047 -30.0979 -30.0892 -30.0571 -30.0529 -30.0497 -30.0456
   -30.0222 -30.0175 -30.0075 -30.0003 -29.9643 -29.9589 -29.9475 -29.9446
   -19.8832 -19.8831 -19.8829 -19.8828 -19.8825 -19.8824 -19.8823 -19.8822
   -19.8738 -19.8736 -19.8733 -19.8729 -19.8729 -19.8725 -19.8722 -19.8721
   -19.8664 -19.8663 -19.8659 -19.8658 -19.8651 -19.8650 -19.8648 -19.8642
   -19.8640 -19.8633 -19.8628 -19.8625 -19.8597 -19.8593 -19.8589 -19.8586
   -19.8543 -19.8538 -19.8537 -19.8531 -19.8527 -19.8522 -19.8521 -19.8514
   -19.8419 -19.8416 -19.8412 -19.8406 -19.8402 -19.8396 -19.8394 -19.8391
   -19.8370 -19.8365 -19.8364 -19.8356 -19.8343 -19.8334 -19.8332 -19.8327
    -9.4281  -9.2146  -9.1074  -9.0014  -8.8311  -8.7638  -8.5987  -8.5299
    -8.4360  -8.4269  -8.3049  -8.2773  -8.0552  -7.9625  -7.8078  -7.7471
    -7.7155  -7.6237  -7.5827  -7.5521  -7.5395  -7.5127  -7.4420  -7.3749
     1.8908   1.8996   2.0823   2.0898   2.1057   2.1205   2.2256   2.2736
     2.5815   2.7615   2.8080   2.9591   2.9948   3.1007   3.1547   3.2373
     3.3015   3.3957   4.0059   4.1150   4.1821   4.2450   4.3320   4.5246
     4.5924   4.6506   4.7129   4.7638   4.8315   4.9382   5.0794   5.1033
     5.2648   5.3059   5.3612   5.4168   5.5666   5.6091   5.7371   5.7856
     5.9222   5.9486   6.0338   6.0515   6.0938   6.1679   6.2033   6.2617
     6.6492   6.7116   6.8418   6.8629   6.8963   6.9647   7.0447   7.0926
     7.1282   7.1406   7.2471   7.3137   7.3660   7.4245   7.4570   7.5457
     7.6211   7.6872   7.9540   7.9801   8.1105   8.1292   8.2562   8.3015
    10.8130  10.8302  11.1256  11.2815  11.3674  11.5752  12.2433  12.3259
    12.5088  12.6386  12.7059  12.8114  12.8835  12.9624  13.0829  13.1508
    13.2989  13.3587  13.4366  13.5725  13.8041  13.8397  14.0262  14.0746
    15.2303  15.3247  15.5892  15.7063  16.0354  16.1838  16.2405  16.3314
    16.8429  17.0834  17.4377  17.7036  17.7283

          k = 0.1667 0.1617-0.5000 ( 61216 PWs)   bands (ev):

   -65.7394 -65.7394 -65.7389 -65.7388 -65.7386 -65.7386 -65.7380 -65.7380
   -30.2236 -30.2236 -30.1919 -30.1919 -30.1896 -30.1896 -30.1594 -30.1593
   -30.1096 -30.1095 -30.0941 -30.0940 -30.0553 -30.0553 -30.0479 -30.0479
   -30.0201 -30.0200 -29.9859 -29.9859 -29.9798 -29.9797 -29.9461 -29.9461
   -19.8831 -19.8831 -19.8827 -19.8827 -19.8826 -19.8826 -19.8823 -19.8823
   -19.8737 -19.8736 -19.8731 -19.8731 -19.8727 -19.8727 -19.8722 -19.8721
   -19.8664 -19.8664 -19.8654 -19.8653 -19.8653 -19.8653 -19.8646 -19.8646
   -19.8637 -19.8637 -19.8627 -19.8627 -19.8595 -19.8595 -19.8588 -19.8588
   -19.8540 -19.8540 -19.8532 -19.8532 -19.8526 -19.8525 -19.8518 -19.8518
   -19.8416 -19.8415 -19.8410 -19.8409 -19.8400 -19.8400 -19.8394 -19.8393
   -19.8368 -19.8367 -19.8354 -19.8353 -19.8345 -19.8345 -19.8330 -19.8330
    -9.3060  -9.3060  -8.9448  -8.9448  -8.8490  -8.8490  -8.4687  -8.4686
    -8.3489  -8.3489  -8.2622  -8.2622  -8.0711  -8.0711  -8.0065  -8.0064
    -7.7206  -7.7206  -7.5704  -7.5704  -7.5310  -7.5310  -7.4079  -7.4079
     1.8948   1.8949   2.0972   2.0973   2.1109   2.1109   2.2772   2.2772
     3.0313   3.0313   3.2868   3.2869   3.3797   3.3798   3.5141   3.5141
     3.5834   3.5834   3.6922   3.6923   3.9131   3.9131   4.0899   4.0900
     4.2046   4.2046   4.6193   4.6193   4.7278   4.7278   5.0682   5.0682
     5.2105   5.2105   5.3606   5.3606   5.4529   5.4530   5.8055   5.8055
     5.8970   5.8970   5.9773   5.9773   6.0860   6.0860   6.2254   6.2254
     6.7003   6.7003   6.8514   6.8514   6.9287   6.9287   7.0468   7.0468
     7.1751   7.1752   7.2503   7.2503   7.3678   7.3678   7.7652   7.7652
     7.8025   7.8025   7.9234   7.9235   7.9656   7.9656   8.2727   8.2727
    10.8472  10.8472  11.6935  11.6935  11.8910  11.8910  11.9299  11.9299
    12.2453  12.2453  12.7505  12.7505  12.9894  12.9894  13.1279  13.1279
    13.2897  13.2897  13.5412  13.5412  13.6334  13.6334  14.0266  14.0266
    15.2945  15.2945  15.8629  15.8629  16.0864  16.0864  16.4724  16.4724
    16.9097  16.9098  17.8762  17.8762  18.1812

          k = 0.1667 0.3234 0.1667 ( 61242 PWs)   bands (ev):

   -65.7397 -65.7394 -65.7389 -65.7389 -65.7386 -65.7385 -65.7380 -65.7377
   -30.2270 -30.2227 -30.2203 -30.2203 -30.1638 -30.1622 -30.1621 -30.1508
   -30.1038 -30.0928 -30.0927 -30.0777 -30.0707 -30.0613 -30.0611 -30.0538
   -30.0241 -30.0232 -30.0154 -30.0153 -29.9485 -29.9485 -29.9439 -29.9431
   -19.8832 -19.8831 -19.8830 -19.8830 -19.8824 -19.8823 -19.8823 -19.8822
   -19.8736 -19.8733 -19.8733 -19.8732 -19.8725 -19.8723 -19.8723 -19.8721
   -19.8664 -19.8664 -19.8663 -19.8663 -19.8647 -19.8647 -19.8647 -19.8641
   -19.8633 -19.8623 -19.8623 -19.8616 -19.8608 -19.8600 -19.8599 -19.8594
   -19.8544 -19.8541 -19.8535 -19.8535 -19.8525 -19.8525 -19.8516 -19.8512
   -19.8421 -19.8421 -19.8410 -19.8410 -19.8397 -19.8397 -19.8389 -19.8389
   -19.8372 -19.8371 -19.8363 -19.8363 -19.8335 -19.8335 -19.8326 -19.8325
    -9.4565  -9.2895  -9.0861  -9.0833  -8.7529  -8.7480  -8.5374  -8.5108
    -8.5088  -8.3351  -8.3216  -8.3170  -7.9275  -7.8415  -7.8402  -7.8067
    -7.7717  -7.7433  -7.6481  -7.6378  -7.4747  -7.4671  -7.3539  -7.3514
     1.8861   1.8991   1.9153   1.9178   2.1526   2.1539   2.2933   2.3624
     2.6419   2.7469   2.7671   2.8842   2.9112   2.9665   3.1312   3.3725
     3.3867   3.4340   3.9902   4.0007   4.0330   4.1184   4.3299   4.6272
     4.6801   4.7185   4.7275   4.8254   4.8797   5.0815   5.1057   5.1829
     5.2057   5.2682   5.4175   5.4527   5.6091   5.6765   5.7597   5.7730
     5.9526   5.9529   5.9923   5.9941   6.0568   6.1232   6.1980   6.2282
     6.6888   6.7812   6.7960   6.9143   6.9907   7.0133   7.0775   7.1274
     7.2738   7.2914   7.3064   7.3311   7.4069   7.4145   7.4492   7.4707
     7.6042   7.6156   7.9596   8.0015   8.0873   8.1075   8.1358   8.1490
    10.6842  10.6909  11.2387  11.2678  11.2843  11.4385  12.3316  12.3625
    12.4227  12.5403  12.5763  12.6611  12.8710  12.9394  13.0191  13.0517
    13.2916  13.3545  13.5237  13.5682  13.7661  13.7880  13.9660  14.0089
    15.4096  15.6692  15.6802  15.7447  15.9373  16.1713  16.3891  16.4020
    16.6075  17.2332  17.5921  17.6620  17.7543

          k = 0.1667 0.3234 0.3333 ( 61226 PWs)   bands (ev):

   -65.7395 -65.7392 -65.7390 -65.7387 -65.7387 -65.7384 -65.7382 -65.7379
   -30.2242 -30.2213 -30.2100 -30.2060 -30.1738 -30.1713 -30.1609 -30.1558
   -30.1021 -30.0956 -30.0903 -30.0817 -30.0695 -30.0641 -30.0602 -30.0561
   -30.0223 -30.0176 -30.0076 -30.0004 -29.9643 -29.9589 -29.9475 -29.9446
   -19.8831 -19.8831 -19.8829 -19.8828 -19.8825 -19.8824 -19.8823 -19.8823
   -19.8735 -19.8734 -19.8732 -19.8730 -19.8727 -19.8725 -19.8723 -19.8722
   -19.8664 -19.8664 -19.8659 -19.8658 -19.8649 -19.8649 -19.8646 -19.8644
   -19.8632 -19.8626 -19.8622 -19.8618 -19.8607 -19.8602 -19.8599 -19.8595
   -19.8542 -19.8538 -19.8537 -19.8530 -19.8528 -19.8523 -19.8520 -19.8515
   -19.8419 -19.8416 -19.8412 -19.8406 -19.8402 -19.8396 -19.8394 -19.8391
   -19.8370 -19.8365 -19.8364 -19.8356 -19.8343 -19.8334 -19.8333 -19.8327
    -9.3387  -9.1475  -9.1321  -8.8862  -8.8212  -8.5795  -8.5485  -8.4553
    -8.4174  -8.3360  -8.2713  -8.2338  -8.0695  -7.9902  -7.8844  -7.8492
    -7.8147  -7.7897  -7.7334  -7.7125  -7.6670  -7.5960  -7.4441  -7.3757
     1.9146   1.9286   2.1579   2.1812   2.4864   2.5723   2.6347   2.7147
     2.7800   2.8245   2.8615   3.0190   3.1390   3.2119   3.2467   3.3687
     3.5586   3.5882   3.9357   4.0161   4.0372   4.0931   4.2125   4.2782
     4.3383   4.5174   4.5772   4.6614   4.7773   4.8413   4.8695   4.9471
     5.0539   5.1432   5.1767   5.2600   5.2717   5.3541   5.4524   5.5212
     5.6247   5.6889   5.7272   5.9218   6.0079   6.0793   6.1462   6.1658
     6.7988   6.8217   6.9289   6.9631   7.0473   7.1722   7.2062   7.2266
     7.2887   7.3176   7.3378   7.3926   7.4133   7.4515   7.5210   7.5557
     7.6683   7.7219   7.9292   7.9793   8.0469   8.0583   8.1233   8.1334
    11.0876  11.1479  11.3059  11.4129  11.6500  11.8033  12.2322  12.3248
    12.4801  12.5330  12.6126  12.6840  12.8049  12.8776  12.9207  13.0438
    13.1517  13.2332  13.3443  13.5076  13.5871  13.6852  13.8628  13.9200
    15.5338  15.6799  15.9172  16.1475  16.2524  16.3732  16.4294  16.9623
    17.0311  17.1287  17.2394  17.7882  17.8780

          k = 0.1667 0.3234-0.5000 ( 61214 PWs)   bands (ev):

   -65.7393 -65.7393 -65.7390 -65.7389 -65.7385 -65.7384 -65.7382 -65.7381
   -30.2227 -30.2227 -30.1913 -30.1912 -30.1874 -30.1874 -30.1589 -30.1589
   -30.0992 -30.0991 -30.0865 -30.0865 -30.0672 -30.0672 -30.0584 -30.0584
   -30.0201 -30.0201 -29.9859 -29.9859 -29.9798 -29.9797 -29.9461 -29.9461
   -19.8831 -19.8831 -19.8827 -19.8827 -19.8826 -19.8826 -19.8823 -19.8823
   -19.8735 -19.8734 -19.8729 -19.8729 -19.8728 -19.8728 -19.8722 -19.8722
   -19.8664 -19.8664 -19.8654 -19.8653 -19.8653 -19.8652 -19.8646 -19.8645
   -19.8629 -19.8629 -19.8620 -19.8620 -19.8605 -19.8604 -19.8597 -19.8597
   -19.8540 -19.8539 -19.8533 -19.8532 -19.8524 -19.8524 -19.8519 -19.8519
   -19.8416 -19.8415 -19.8410 -19.8409 -19.8400 -19.8400 -19.8394 -19.8393
   -19.8368 -19.8367 -19.8354 -19.8353 -19.8345 -19.8345 -19.8330 -19.8330
    -9.2216  -9.2216  -8.9588  -8.9588  -8.6680  -8.6680  -8.3725  -8.3725
    -8.3429  -8.3428  -8.2650  -8.2650  -8.0730  -8.0730  -8.0207  -8.0206
    -7.8247  -7.8247  -7.7721  -7.7720  -7.6876  -7.6876  -7.4092  -7.4092
     1.9230   1.9230   2.1842   2.1843   2.6384   2.6384   2.7725   2.7725
     3.2209   3.2209   3.3278   3.3278   3.3778   3.3778   3.5665   3.5665
     3.6149   3.6149   3.7223   3.7223   3.9373   3.9373   4.0624   4.0624
     4.2122   4.2122   4.3626   4.3626   4.5495   4.5495   4.6811   4.6811
     5.0569   5.0569   5.1771   5.1771   5.3195   5.3196   5.3788   5.3788
     5.4698   5.4698   5.7911   5.7911   6.0408   6.0408   6.0981   6.0981
     6.8309   6.8309   7.0395   7.0396   7.1015   7.1016   7.1792   7.1792
     7.3265   7.3265   7.3710   7.3711   7.4602   7.4602   7.7522   7.7523
     7.8004   7.8004   7.9092   7.9092   7.9469   7.9469   8.1209   8.1210
    11.2391  11.2392  11.7451  11.7451  11.9266  11.9266  12.1145  12.1145
    12.3729  12.3729  12.5903  12.5903  12.8491  12.8491  12.9777  12.9777
    13.1702  13.1703  13.2805  13.2806  13.5593  13.5593  13.8435  13.8435
    15.6148  15.6149  16.1108  16.1108  16.7002  16.7002  16.8531  16.8531
    17.0254  17.0254  17.6619  17.6619  18.0175

          k = 0.1667-0.4851 0.1667 ( 61226 PWs)   bands (ev):

   -65.7395 -65.7395 -65.7388 -65.7388 -65.7387 -65.7386 -65.7379 -65.7379
   -30.2246 -30.2246 -30.2200 -30.2200 -30.1612 -30.1612 -30.1564 -30.1564
   -30.0875 -30.0875 -30.0854 -30.0854 -30.0700 -30.0699 -30.0665 -30.0665
   -30.0237 -30.0237 -30.0154 -30.0154 -29.9485 -29.9485 -29.9435 -29.9435
   -19.8831 -19.8831 -19.8830 -19.8830 -19.8824 -19.8823 -19.8822 -19.8822
   -19.8734 -19.8734 -19.8733 -19.8732 -19.8723 -19.8723 -19.8723 -19.8722
   -19.8664 -19.8664 -19.8663 -19.8663 -19.8646 -19.8646 -19.8644 -19.8644
   -19.8621 -19.8621 -19.8616 -19.8616 -19.8608 -19.8608 -19.8606 -19.8606
   -19.8543 -19.8543 -19.8535 -19.8535 -19.8525 -19.8525 -19.8514 -19.8514
   -19.8421 -19.8421 -19.8410 -19.8410 -19.8397 -19.8397 -19.8389 -19.8389
   -19.8372 -19.8372 -19.8363 -19.8363 -19.8335 -19.8335 -19.8325 -19.8325
    -9.3618  -9.3617  -9.0488  -9.0488  -8.7356  -8.7356  -8.5150  -8.5150
    -8.2077  -8.2077  -8.1398  -8.1398  -8.1156  -8.1156  -8.0919  -8.0919
    -7.7750  -7.7750  -7.6528  -7.6528  -7.4716  -7.4715  -7.3530  -7.3530
     1.8932   1.8932   1.9179   1.9179   2.1585   2.1585   2.3511   2.3511
     2.9081   2.9082   3.1570   3.1570   3.2908   3.2908   3.5788   3.5788
     3.5964   3.5964   3.7970   3.7970   3.9023   3.9023   4.1107   4.1107
     4.1681   4.1681   4.6601   4.6601   4.7628   4.7628   5.2428   5.2429
     5.3061   5.3061   5.3928   5.3928   5.4780   5.4781   5.7766   5.7767
     5.8269   5.8269   5.9834   5.9834   6.0389   6.0389   6.2112   6.2112
     6.7465   6.7465   6.8739   6.8739   6.9946   6.9946   7.1298   7.1298
     7.3467   7.3467   7.3648   7.3648   7.5094   7.5094   7.6312   7.6312
     7.7544   7.7544   7.8819   7.8819   7.9491   7.9491   8.0414   8.0414
    10.7063  10.7063  11.6503  11.6503  11.7358  11.7358  12.0300  12.0300
    12.1481  12.1481  12.5784  12.5784  12.9383  12.9383  13.0022  13.0022
    13.4359  13.4359  13.5254  13.5254  13.5726  13.5726  13.9078  13.9078
    15.6101  15.6101  15.8993  15.8993  16.1786  16.1786  16.3707  16.3707
    16.9949  16.9950  18.0950  18.0950  18.2349

          k = 0.1667-0.4851 0.3333 ( 61240 PWs)   bands (ev):

   -65.7394 -65.7393 -65.7389 -65.7388 -65.7386 -65.7385 -65.7381 -65.7381
   -30.2236 -30.2210 -30.2101 -30.2054 -30.1731 -30.1684 -30.1601 -30.1574
   -30.0874 -30.0861 -30.0847 -30.0826 -30.0748 -30.0721 -30.0693 -30.0673
   -30.0223 -30.0176 -30.0076 -30.0004 -29.9643 -29.9589 -29.9475 -29.9446
   -19.8831 -19.8831 -19.8830 -19.8828 -19.8825 -19.8824 -19.8823 -19.8823
   -19.8734 -19.8733 -19.8732 -19.8731 -19.8726 -19.8725 -19.8723 -19.8723
   -19.8664 -19.8664 -19.8659 -19.8658 -19.8649 -19.8647 -19.8646 -19.8645
   -19.8620 -19.8619 -19.8617 -19.8614 -19.8612 -19.8609 -19.8608 -19.8606
   -19.8541 -19.8538 -19.8537 -19.8530 -19.8528 -19.8523 -19.8518 -19.8517
   -19.8419 -19.8416 -19.8412 -19.8406 -19.8402 -19.8396 -19.8394 -19.8391
   -19.8370 -19.8365 -19.8364 -19.8356 -19.8343 -19.8334 -19.8333 -19.8327
    -9.2719  -9.1841  -9.0956  -8.8283  -8.8123  -8.5505  -8.4438  -8.3842
    -8.2750  -8.2423  -8.1636  -8.1260  -8.1193  -8.1066  -8.0968  -8.0532
    -7.9865  -7.8939  -7.7590  -7.7231  -7.6835  -7.5993  -7.4448  -7.3761
     1.9168   1.9310   2.1620   2.1853   2.5281   2.7080   2.7390   2.8931
     3.1475   3.1511   3.1841   3.1873   3.3710   3.3981   3.4945   3.5644
     3.5882   3.6037   3.8039   3.8514   3.9653   4.0630   4.0847   4.1358
     4.1541   4.2008   4.2503   4.3006   4.6085   4.6375   4.8534   4.8902
     4.9590   5.0378   5.1390   5.2229   5.2456   5.3184   5.3503   5.4086
     5.4615   5.5489   5.6643   5.7653   5.9940   6.0318   6.1408   6.1590
     6.8288   6.8516   6.9599   6.9815   7.0696   7.2464   7.2810   7.2989
     7.3372   7.3936   7.4142   7.4742   7.5245   7.5517   7.6246   7.6742
     7.7549   7.7955   7.8648   7.9054   7.9381   7.9479   8.0119   8.0177
    11.1480  11.2406  11.6528  11.7430  11.9429  11.9918  12.0795  12.1709
    12.3078  12.3210  12.4026  12.5776  12.7609  12.9052  12.9749  13.0671
    13.0789  13.2253  13.2893  13.3444  13.5436  13.5869  13.7684  13.8076
    15.6218  15.8367  15.9650  16.2740  16.4234  16.6642  16.7110  16.9569
    17.1336  17.1763  17.7353  17.7978  18.0202

          k = 0.1667-0.4851-0.5000 ( 61200 PWs)   bands (ev):

   -65.7392 -65.7391 -65.7391 -65.7391 -65.7383 -65.7383 -65.7383 -65.7383
   -30.2223 -30.2223 -30.1910 -30.1909 -30.1863 -30.1863 -30.1587 -30.1586
   -30.0868 -30.0868 -30.0803 -30.0803 -30.0780 -30.0780 -30.0683 -30.0683
   -30.0201 -30.0201 -29.9859 -29.9859 -29.9798 -29.9797 -29.9462 -29.9461
   -19.8831 -19.8831 -19.8827 -19.8827 -19.8826 -19.8826 -19.8823 -19.8823
   -19.8733 -19.8733 -19.8729 -19.8729 -19.8728 -19.8728 -19.8723 -19.8723
   -19.8664 -19.8664 -19.8654 -19.8653 -19.8652 -19.8652 -19.8646 -19.8645
   -19.8619 -19.8619 -19.8616 -19.8615 -19.8612 -19.8611 -19.8607 -19.8607
   -19.8539 -19.8539 -19.8533 -19.8533 -19.8523 -19.8523 -19.8520 -19.8520
   -19.8416 -19.8415 -19.8410 -19.8410 -19.8400 -19.8400 -19.8394 -19.8394
   -19.8368 -19.8367 -19.8354 -19.8354 -19.8345 -19.8345 -19.8330 -19.8330
    -9.1738  -9.1738  -8.9702  -8.9701  -8.5219  -8.5219  -8.3462  -8.3462
    -8.2947  -8.2947  -8.2169  -8.2169  -8.0967  -8.0967  -8.0632  -8.0632
    -7.9853  -7.9852  -7.9030  -7.9030  -7.6972  -7.6972  -7.4097  -7.4096
     1.9256   1.9256   2.1899   2.1899   3.0806   3.0806   3.2842   3.2843
     3.3564   3.3564   3.3742   3.3743   3.4262   3.4262   3.5346   3.5347
     3.6684   3.6685   3.7138   3.7138   3.7978   3.7978   3.9289   3.9290
     4.0765   4.0765   4.2185   4.2185   4.5764   4.5765   4.6393   4.6393
     4.7183   4.7183   4.7987   4.7987   5.1879   5.1879   5.3454   5.3454
     5.4432   5.4432   5.6456   5.6456   6.0314   6.0314   6.0651   6.0651
     6.8566   6.8566   7.0793   7.0793   7.1302   7.1302   7.2435   7.2435
     7.4645   7.4645   7.5098   7.5098   7.6309   7.6309   7.7134   7.7134
     7.7950   7.7950   7.8808   7.8808   7.9243   7.9243   7.9645   7.9645
    11.5639  11.5640  11.8276  11.8276  11.9022  11.9022  12.1462  12.1462
    12.4365  12.4365  12.5633  12.5633  12.7294  12.7295  12.8059  12.8059
    13.0480  13.0480  13.2102  13.2102  13.6149  13.6149  13.6592  13.6592
    15.7228  15.7229  16.1712  16.1712  17.0701  17.0701  17.2976  17.2976
    17.4502  17.4502  17.5951  17.5951  17.7222

          k = 0.3333 0.0000 0.3333 ( 61196 PWs)   bands (ev):

   -65.7395 -65.7390 -65.7390 -65.7389 -65.7385 -65.7384 -65.7384 -65.7379
   -30.2158 -30.2092 -30.2089 -30.2045 -30.1824 -30.1738 -30.1736 -30.1614
   -30.1150 -30.1057 -30.1054 -30.0965 -30.0516 -30.0479 -30.0474 -30.0437
   -30.0071 -30.0054 -30.0023 -30.0020 -29.9633 -29.9632 -29.9610 -29.9593
   -19.8830 -19.8829 -19.8829 -19.8828 -19.8825 -19.8825 -19.8824 -19.8823
   -19.8737 -19.8735 -19.8735 -19.8731 -19.8728 -19.8724 -19.8724 -19.8722
   -19.8660 -19.8659 -19.8659 -19.8658 -19.8652 -19.8650 -19.8650 -19.8644
   -19.8642 -19.8634 -19.8634 -19.8630 -19.8592 -19.8588 -19.8588 -19.8584
   -19.8539 -19.8534 -19.8533 -19.8533 -19.8525 -19.8524 -19.8524 -19.8516
   -19.8415 -19.8414 -19.8408 -19.8408 -19.8401 -19.8401 -19.8396 -19.8395
   -19.8363 -19.8362 -19.8358 -19.8357 -19.8341 -19.8341 -19.8336 -19.8335
    -9.3400  -9.1153  -9.1028  -8.9389  -8.8818  -8.6644  -8.6381  -8.5167
    -8.3439  -8.3214  -8.3120  -8.2558  -8.0691  -8.0159  -7.9812  -7.9573
    -7.7212  -7.7052  -7.6629  -7.6260  -7.4828  -7.4544  -7.4537  -7.4259
     1.8554   1.8733   1.8832   1.8968   2.5343   2.5449   2.5920   2.5941
     2.8010   2.8092   2.9183   3.0232   3.0745   3.2337   3.2692   3.3023
     3.4885   3.5288   3.9472   4.0813   4.1254   4.1443   4.2787   4.3813
     4.4142   4.4788   4.5698   4.6262   4.7419   4.7987   4.9067   4.9281
     5.0019   5.1396   5.3194   5.3565   5.4017   5.4458   5.4892   5.6575
     5.6799   5.7870   5.8397   5.9577   6.2228   6.2630   6.2709   6.4462
     6.6576   6.7349   6.7528   6.7740   6.8055   6.8427   6.8488   6.8811
     7.2676   7.3362   7.4261   7.4405   7.5045   7.5726   7.6103   7.6249
     7.6787   7.7381   7.9364   7.9365   8.0683   8.1274   8.2420   8.2954
    11.0716  11.1318  11.3031  11.3169  11.6751  11.7999  12.3093  12.3184
    12.4002  12.4584  12.6115  12.6216  12.8924  12.8926  13.1948  13.2086
    13.2864  13.4315  13.4812  13.4899  13.7838  13.8699  13.9157  14.0160
    15.1512  15.3476  15.3488  15.7597  15.9919  16.3195  16.5733  16.6991
    16.9549  17.1943  17.4210  17.7783  17.7822

          k = 0.3333 0.0000-0.5000 ( 61224 PWs)   bands (ev):

   -65.7393 -65.7392 -65.7388 -65.7388 -65.7386 -65.7386 -65.7382 -65.7381
   -30.2110 -30.2109 -30.1930 -30.1929 -30.1895 -30.1895 -30.1695 -30.1695
   -30.1110 -30.1109 -30.1017 -30.1016 -30.0499 -30.0499 -30.0459 -30.0459
   -30.0044 -30.0043 -29.9847 -29.9847 -29.9813 -29.9812 -29.9617 -29.9617
   -19.8830 -19.8829 -19.8827 -19.8827 -19.8826 -19.8826 -19.8824 -19.8824
   -19.8736 -19.8736 -19.8733 -19.8733 -19.8726 -19.8726 -19.8723 -19.8723
   -19.8659 -19.8659 -19.8654 -19.8654 -19.8653 -19.8653 -19.8648 -19.8648
   -19.8639 -19.8639 -19.8633 -19.8632 -19.8590 -19.8590 -19.8586 -19.8586
   -19.8536 -19.8536 -19.8529 -19.8529 -19.8528 -19.8528 -19.8520 -19.8520
   -19.8412 -19.8411 -19.8408 -19.8408 -19.8402 -19.8402 -19.8399 -19.8398
   -19.8360 -19.8360 -19.8352 -19.8352 -19.8347 -19.8347 -19.8338 -19.8338
    -9.2062  -9.2061  -8.9679  -8.9679  -8.7594  -8.7594  -8.4301  -8.4301
    -8.3708  -8.3708  -8.1912  -8.1912  -8.1416  -8.1415  -8.0193  -8.0192
    -7.8874  -7.8873  -7.6775  -7.6775  -7.4698  -7.4698  -7.4412  -7.4411
     1.8654   1.8654   1.8895   1.8896   2.5944   2.5944   2.8018   2.8018
     3.1335   3.1335   3.3200   3.3201   3.4005   3.4006   3.5307   3.5308
     3.6136   3.6136   3.8061   3.8061   3.9775   3.9775   4.0560   4.0560
     4.2692   4.2692   4.3174   4.3174   4.5429   4.5429   4.7500   4.7500
     5.0045   5.0045   5.2297   5.2297   5.3835   5.3835   5.4475   5.4476
     5.6298   5.6299   5.8679   5.8679   6.2769   6.2770   6.4046   6.4046
     6.6460   6.6460   6.7284   6.7284   6.7815   6.7815   6.8353   6.8353
     7.4096   7.4096   7.5084   7.5085   7.5923   7.5923   7.7795   7.7796
     7.8208   7.8208   7.9234   7.9234   7.9698   7.9698   8.2381   8.2381
    11.2003  11.2004  11.8048  11.8048  11.8558  11.8558  12.1411  12.1411
    12.3641  12.3641  12.4411  12.4411  12.8878  12.8878  13.1306  13.1306
    13.2981  13.2982  13.5950  13.5950  13.6509  13.6510  13.9262  13.9262
    15.2768  15.2768  15.5922  15.5922  16.4028  16.4028  16.8852  16.8852
    17.1127  17.1127  17.6253  17.6253  18.1665

          k = 0.3333 0.1617 0.3333 ( 61218 PWs)   bands (ev):

   -65.7395 -65.7390 -65.7390 -65.7389 -65.7385 -65.7385 -65.7384 -65.7380
   -30.2147 -30.2085 -30.2082 -30.2050 -30.1803 -30.1733 -30.1732 -30.1622
   -30.1111 -30.1026 -30.1023 -30.0937 -30.0561 -30.0521 -30.0517 -30.0478
   -30.0070 -30.0055 -30.0023 -30.0021 -29.9633 -29.9632 -29.9609 -29.9594
   -19.8830 -19.8829 -19.8829 -19.8828 -19.8825 -19.8825 -19.8825 -19.8823
   -19.8737 -19.8734 -19.8734 -19.8730 -19.8728 -19.8724 -19.8724 -19.8722
   -19.8660 -19.8659 -19.8659 -19.8658 -19.8652 -19.8650 -19.8649 -19.8645
   -19.8639 -19.8632 -19.8632 -19.8627 -19.8596 -19.8592 -19.8591 -19.8588
   -19.8539 -19.8534 -19.8533 -19.8533 -19.8525 -19.8524 -19.8524 -19.8517
   -19.8415 -19.8414 -19.8408 -19.8408 -19.8401 -19.8401 -19.8396 -19.8395
   -19.8363 -19.8362 -19.8358 -19.8357 -19.8341 -19.8341 -19.8336 -19.8335
    -9.2961  -9.0647  -9.0505  -8.9519  -8.8087  -8.6631  -8.6354  -8.4869
    -8.3340  -8.3104  -8.3080  -8.2517  -8.0766  -8.0142  -7.9837  -7.9564
    -7.7265  -7.7110  -7.6761  -7.6270  -7.5739  -7.5478  -7.5467  -7.5180
     2.0540   2.0837   2.0921   2.1248   2.5340   2.5487   2.5894   2.6017
     2.8035   2.8128   2.9213   3.0214   3.1526   3.3154   3.3213   3.3848
[...]
    11.3002  11.3002  11.8474  11.8474  11.9283  11.9283  12.1455  12.1455
    12.3806  12.3806  12.4866  12.4866  12.8752  12.8752  13.1106  13.1106
    13.1810  13.1810  13.4668  13.4669  13.5381  13.5381  13.8440  13.8440
    15.5622  15.5623  15.9094  15.9095  16.4671  16.4672  16.8934  16.8934
    17.1262  17.1262  17.6419  17.6419  18.1180

          k = 0.3333 0.3234 0.3333 ( 61237 PWs)   bands (ev):

   -65.7393 -65.7390 -65.7389 -65.7389 -65.7386 -65.7385 -65.7384 -65.7381
   -30.2120 -30.2074 -30.2070 -30.2062 -30.1752 -30.1724 -30.1724 -30.1649
   -30.1002 -30.0936 -30.0933 -30.0854 -30.0683 -30.0633 -30.0629 -30.0587
   -30.0067 -30.0059 -30.0023 -30.0022 -29.9633 -29.9633 -29.9606 -29.9597
   -19.8830 -19.8829 -19.8829 -19.8829 -19.8825 -19.8825 -19.8825 -19.8824
   -19.8734 -19.8732 -19.8732 -19.8729 -19.8728 -19.8725 -19.8725 -19.8723
   -19.8660 -19.8659 -19.8659 -19.8658 -19.8650 -19.8649 -19.8649 -19.8646
   -19.8630 -19.8625 -19.8625 -19.8620 -19.8605 -19.8601 -19.8601 -19.8597
   -19.8538 -19.8535 -19.8532 -19.8532 -19.8526 -19.8525 -19.8522 -19.8518
   -19.8415 -19.8414 -19.8408 -19.8408 -19.8401 -19.8401 -19.8396 -19.8396
   -19.8363 -19.8362 -19.8358 -19.8357 -19.8341 -19.8341 -19.8336 -19.8335
    -9.1890  -8.9983  -8.9457  -8.9338  -8.6620  -8.6304  -8.5990  -8.4006
    -8.3212  -8.2721  -8.2516  -8.2240  -8.1226  -8.0106  -7.9964  -7.9547
    -7.8385  -7.8221  -7.8071  -7.7759  -7.6860  -7.6860  -7.6286  -7.6208
     2.4570   2.4867   2.5006   2.5457   2.6426   2.6736   2.6848   2.7304
     2.8569   2.8874   2.9237   3.0643   3.3366   3.4155   3.4870   3.5542
     3.5932   3.6694   3.9146   4.0092   4.0684   4.1649   4.1901   4.2987
     4.3372   4.4436   4.4720   4.5173   4.5797   4.6256   4.7069   4.7766
     4.8518   4.8817   4.9966   5.0491   5.0887   5.1182   5.1339   5.1945
     5.2868   5.3586   5.4633   5.5314   5.6436   5.7191   5.7199   5.7721
     6.9665   7.0053   7.0989   7.1357   7.2124   7.2478   7.2928   7.3135
     7.3671   7.3905   7.4848   7.4992   7.5202   7.5872   7.6413   7.6521
     7.7168   7.7632   7.9153   7.9474   8.0174   8.0247   8.1026   8.1054
    11.3957  11.4499  11.6371  11.7004  11.7609  11.9669  12.3849  12.4087
    12.4678  12.5469  12.5734  12.6600  12.7665  12.8705  12.8896  12.9375
    13.0295  13.0475  13.1941  13.3646  13.4589  13.5654  13.5892  13.7520
    16.0313  16.1436  16.2022  16.3103  16.3866  16.6997  16.8046  16.9406
    17.0535  17.2242  17.4408  17.5521  17.9324

          k = 0.3333 0.3234-0.5000 ( 61234 PWs)   bands (ev):

   -65.7391 -65.7391 -65.7388 -65.7388 -65.7386 -65.7386 -65.7383 -65.7383
   -30.2085 -30.2085 -30.1900 -30.1900 -30.1885 -30.1885 -30.1703 -30.1703
   -30.0971 -30.0971 -30.0898 -30.0898 -30.0662 -30.0661 -30.0613 -30.0613
   -30.0044 -30.0044 -29.9848 -29.9848 -29.9813 -29.9812 -29.9618 -29.9618
   -19.8829 -19.8829 -19.8827 -19.8827 -19.8826 -19.8826 -19.8825 -19.8824
   -19.8733 -19.8733 -19.8730 -19.8730 -19.8728 -19.8727 -19.8724 -19.8724
   -19.8659 -19.8659 -19.8654 -19.8653 -19.8653 -19.8653 -19.8648 -19.8648
   -19.8628 -19.8628 -19.8623 -19.8623 -19.8603 -19.8603 -19.8599 -19.8599
   -19.8535 -19.8535 -19.8530 -19.8530 -19.8527 -19.8527 -19.8522 -19.8522
   -19.8412 -19.8411 -19.8408 -19.8408 -19.8402 -19.8402 -19.8399 -19.8398
   -19.8360 -19.8360 -19.8352 -19.8352 -19.8347 -19.8347 -19.8338 -19.8338
    -9.0410  -9.0410  -8.7976  -8.7976  -8.7234  -8.7233  -8.3988  -8.3988
    -8.3213  -8.3213  -8.1933  -8.1932  -8.1205  -8.1204  -8.0266  -8.0266
    -7.8954  -7.8953  -7.8046  -7.8046  -7.7796  -7.7796  -7.6553  -7.6553
     2.5008   2.5008   2.6549   2.6549   2.7068   2.7068   2.8530   2.8531
     3.2826   3.2826   3.3884   3.3884   3.4452   3.4452   3.5927   3.5927
     3.7040   3.7041   3.8717   3.8717   4.0275   4.0275   4.1112   4.1112
     4.2367   4.2367   4.3951   4.3951   4.4328   4.4328   4.5840   4.5841
     4.7037   4.7037   4.8721   4.8722   4.9518   4.9518   5.1758   5.1758
     5.2419   5.2419   5.3298   5.3298   5.4375   5.4375   5.6793   5.6793
     7.0272   7.0273   7.1910   7.1910   7.2183   7.2183   7.3265   7.3265
     7.4709   7.4709   7.5251   7.5251   7.6332   7.6332   7.7768   7.7768
     7.8120   7.8120   7.9115   7.9115   7.9380   7.9380   8.0854   8.0854
    11.5843  11.5843  11.9545  11.9545  12.1248  12.1249  12.1746  12.1746
    12.4572  12.4572  12.6126  12.6127  12.7438  12.7438  12.8785  12.8785
    13.0777  13.0777  13.2000  13.2000  13.2854  13.2854  13.5990  13.5990
    16.1847  16.1847  16.5387  16.5387  16.7948  16.7948  16.9844  16.9844
    17.1825  17.1825  17.6341  17.6341  17.9451

          k = 0.3333-0.4851 0.3333 ( 61272 PWs)   bands (ev):

   -65.7392 -65.7392 -65.7387 -65.7387 -65.7387 -65.7387 -65.7382 -65.7382
   -30.2091 -30.2091 -30.2064 -30.2063 -30.1721 -30.1721 -30.1693 -30.1693
   -30.0846 -30.0846 -30.0832 -30.0832 -30.0745 -30.0744 -30.0727 -30.0727
   -30.0063 -30.0063 -30.0023 -30.0022 -29.9633 -29.9633 -29.9602 -29.9602
   -19.8829 -19.8829 -19.8829 -19.8829 -19.8825 -19.8825 -19.8824 -19.8824
   -19.8732 -19.8732 -19.8731 -19.8731 -19.8726 -19.8725 -19.8725 -19.8725
   -19.8659 -19.8659 -19.8659 -19.8659 -19.8649 -19.8649 -19.8648 -19.8648
   -19.8618 -19.8618 -19.8615 -19.8615 -19.8611 -19.8611 -19.8609 -19.8609
   -19.8537 -19.8537 -19.8532 -19.8532 -19.8526 -19.8526 -19.8520 -19.8520
   -19.8414 -19.8414 -19.8408 -19.8408 -19.8401 -19.8401 -19.8396 -19.8396
   -19.8362 -19.8362 -19.8358 -19.8358 -19.8341 -19.8341 -19.8336 -19.8336
    -9.0760  -9.0760  -8.8759  -8.8759  -8.6394  -8.6394  -8.3514  -8.3514
    -8.3055  -8.3055  -8.1386  -8.1386  -8.0909  -8.0909  -8.0697  -8.0697
    -7.9687  -7.9687  -7.9083  -7.9083  -7.6970  -7.6970  -7.6297  -7.6297
     2.5122   2.5123   2.5481   2.5481   2.7626   2.7627   2.8988   2.8988
     3.2230   3.2230   3.3282   3.3282   3.4728   3.4729   3.5398   3.5398
     3.5843   3.5843   3.9369   3.9369   4.0952   4.0952   4.1291   4.1291
     4.1635   4.1635   4.3556   4.3556   4.4794   4.4794   4.6414   4.6414
     4.8626   4.8626   4.9125   4.9125   5.0324   5.0325   5.1365   5.1365
     5.2447   5.2447   5.2924   5.2924   5.3721   5.3721   5.6862   5.6862
     7.0588   7.0588   7.2118   7.2118   7.3454   7.3454   7.3967   7.3967
     7.4933   7.4934   7.5176   7.5176   7.5837   7.5837   7.7081   7.7081
     7.7859   7.7859   7.8798   7.8798   7.9432   7.9432   7.9956   7.9956
    11.5246  11.5246  11.9457  11.9457  12.0541  12.0541  12.3025  12.3026
    12.3989  12.3989  12.5527  12.5527  12.7102  12.7102  12.8890  12.8890
    13.0528  13.0528  13.2142  13.2142  13.2890  13.2890  13.5860  13.5860
    16.2139  16.2139  16.5307  16.5307  16.7958  16.7958  16.9405  16.9405
    17.2846  17.2846  17.7901  17.7902  17.8940

          k = 0.3333-0.4851-0.5000 ( 61232 PWs)   bands (ev):

   -65.7390 -65.7390 -65.7389 -65.7389 -65.7385 -65.7385 -65.7385 -65.7384
   -30.2077 -30.2077 -30.1899 -30.1899 -30.1872 -30.1872 -30.1706 -30.1706
   -30.0841 -30.0841 -30.0801 -30.0801 -30.0787 -30.0786 -30.0736 -30.0736
   -30.0044 -30.0044 -29.9848 -29.9848 -29.9813 -29.9813 -29.9618 -29.9618
   -19.8829 -19.8829 -19.8827 -19.8827 -19.8826 -19.8826 -19.8825 -19.8824
   -19.8732 -19.8731 -19.8729 -19.8729 -19.8728 -19.8728 -19.8725 -19.8725
   -19.8659 -19.8659 -19.8654 -19.8653 -19.8653 -19.8653 -19.8649 -19.8648
   -19.8617 -19.8617 -19.8615 -19.8615 -19.8613 -19.8612 -19.8610 -19.8610
   -19.8534 -19.8534 -19.8531 -19.8531 -19.8526 -19.8525 -19.8523 -19.8523
   -19.8412 -19.8411 -19.8408 -19.8408 -19.8402 -19.8402 -19.8399 -19.8398
   -19.8360 -19.8360 -19.8352 -19.8352 -19.8347 -19.8347 -19.8338 -19.8338
    -8.9622  -8.9622  -8.8274  -8.8274  -8.5742  -8.5741  -8.4423  -8.4423
    -8.2334  -8.2334  -8.1682  -8.1682  -8.0859  -8.0859  -8.0662  -8.0662
    -7.9848  -7.9847  -7.9415  -7.9415  -7.8709  -7.8708  -7.6629  -7.6629
     2.5503   2.5503   2.7679   2.7679   3.1336   3.1336   3.2541   3.2541
     3.3717   3.3717   3.4203   3.4204   3.4558   3.4558   3.5321   3.5321
     3.7402   3.7402   3.7717   3.7718   3.9086   3.9086   4.1172   4.1172
     4.1794   4.1794   4.2967   4.2967   4.4304   4.4304   4.5888   4.5888
     4.7196   4.7196   4.7470   4.7470   4.8329   4.8329   4.8918   4.8918
     5.0203   5.0203   5.1860   5.1860   5.3553   5.3553   5.3910   5.3910
     7.1160   7.1160   7.3264   7.3265   7.3740   7.3741   7.4360   7.4360
     7.5281   7.5281   7.5721   7.5721   7.6987   7.6987   7.7354   7.7354
     7.8091   7.8091   7.8779   7.8779   7.9133   7.9133   7.9764   7.9764
    11.8347  11.8347  12.0094  12.0094  12.1867  12.1867  12.3357  12.3357
    12.4441  12.4441  12.6226  12.6226  12.7081  12.7081  12.7726  12.7726
    12.8892  12.8892  12.9833  12.9833  13.3142  13.3142  13.3822  13.3822
    16.4162  16.4162  16.7169  16.7169  17.1900  17.1900  17.3255  17.3255
    17.5081  17.5082  17.6123  17.6125  17.7133

          k =-0.5000 0.0000-0.5000 ( 61148 PWs)   bands (ev):

   -65.7391 -65.7390 -65.7390 -65.7390 -65.7384 -65.7384 -65.7384 -65.7384
   -30.1983 -30.1983 -30.1976 -30.1976 -30.1830 -30.1829 -30.1823 -30.1823
   -30.1072 -30.1071 -30.1068 -30.1068 -30.0484 -30.0484 -30.0479 -30.0478
   -29.9840 -29.9840 -29.9838 -29.9838 -29.9824 -29.9824 -29.9820 -29.9820
   -19.8828 -19.8827 -19.8827 -19.8827 -19.8826 -19.8826 -19.8826 -19.8826
   -19.8735 -19.8735 -19.8734 -19.8734 -19.8726 -19.8725 -19.8724 -19.8724
   -19.8656 -19.8655 -19.8655 -19.8655 -19.8651 -19.8651 -19.8651 -19.8650
   -19.8637 -19.8636 -19.8636 -19.8636 -19.8589 -19.8588 -19.8588 -19.8588
   -19.8532 -19.8532 -19.8532 -19.8531 -19.8526 -19.8525 -19.8524 -19.8524
   -19.8407 -19.8407 -19.8406 -19.8406 -19.8404 -19.8404 -19.8403 -19.8403
   -19.8351 -19.8351 -19.8349 -19.8349 -19.8349 -19.8349 -19.8348 -19.8347
    -9.0718  -9.0718  -9.0545  -9.0545  -8.5487  -8.5487  -8.4735  -8.4734
    -8.3649  -8.3649  -8.2803  -8.2803  -8.0467  -8.0466  -8.0072  -8.0071
    -7.9595  -7.9595  -7.9104  -7.9104  -7.4576  -7.4576  -7.4560  -7.4560
     1.8712   1.8713   1.8848   1.8848   3.1617   3.1618   3.1885   3.1885
     3.3390   3.3390   3.3418   3.3418   3.5162   3.5162   3.5982   3.5983
     3.7133   3.7133   3.7361   3.7361   3.8507   3.8507   3.9856   3.9857
     4.0047   4.0047   4.2357   4.2357   4.5062   4.5062   4.5821   4.5821
     4.6131   4.6131   4.7569   4.7569   5.3055   5.3056   5.3572   5.3572
     5.6846   5.6847   5.7514   5.7514   6.3780   6.3780   6.3880   6.3880
     6.6439   6.6439   6.7202   6.7202   6.7243   6.7244   6.7406   6.7406
     7.6327   7.6327   7.6484   7.6485   7.6663   7.6663   7.7916   7.7916
     7.8607   7.8608   7.9283   7.9284   7.9368   7.9368   8.1586   8.1586
    11.6636  11.6637  11.8084  11.8084  11.9040  11.9040  12.0415  12.0415
    12.5043  12.5043  12.5542  12.5542  12.6880  12.6880  12.7452  12.7452
    13.4147  13.4148  13.5480  13.5480  13.6619  13.6619  13.7825  13.7826
    15.4587  15.4587  15.4773  15.4773  16.8343  16.8343  17.1848  17.1848
    17.4925  17.4925  17.5514  17.5514  17.7181

          k =-0.5000 0.1617-0.5000 ( 61272 PWs)   bands (ev):

   -65.7390 -65.7390 -65.7390 -65.7390 -65.7385 -65.7384 -65.7384 -65.7384
   -30.1968 -30.1967 -30.1961 -30.1961 -30.1836 -30.1836 -30.1830 -30.1830
   -30.1038 -30.1037 -30.1034 -30.1034 -30.0527 -30.0527 -30.0522 -30.0522
   -29.9839 -29.9839 -29.9837 -29.9837 -29.9825 -29.9825 -29.9822 -29.9822
   -19.8828 -19.8827 -19.8827 -19.8827 -19.8826 -19.8826 -19.8826 -19.8826
   -19.8734 -19.8734 -19.8733 -19.8733 -19.8726 -19.8726 -19.8725 -19.8725
   -19.8656 -19.8655 -19.8655 -19.8655 -19.8652 -19.8651 -19.8651 -19.8651
   -19.8634 -19.8633 -19.8633 -19.8633 -19.8592 -19.8592 -19.8592 -19.8592
   -19.8532 -19.8532 -19.8531 -19.8531 -19.8526 -19.8526 -19.8524 -19.8524
   -19.8407 -19.8407 -19.8406 -19.8406 -19.8404 -19.8404 -19.8403 -19.8403
   -19.8351 -19.8351 -19.8350 -19.8349 -19.8349 -19.8349 -19.8348 -19.8347
    -9.0123  -9.0123  -8.9922  -8.9922  -8.5603  -8.5603  -8.4872  -8.4871
    -8.3476  -8.3476  -8.2650  -8.2649  -8.0466  -8.0466  -8.0075  -8.0075
    -7.9623  -7.9623  -7.9105  -7.9105  -7.5543  -7.5543  -7.5513  -7.5513
     2.0886   2.0886   2.1025   2.1025   3.1755   3.1755   3.2091   3.2091
     3.3428   3.3428   3.3431   3.3431   3.5342   3.5343   3.6348   3.6348
     3.7116   3.7116   3.7326   3.7326   3.8990   3.8990   4.0226   4.0227
     4.0494   4.0494   4.2797   4.2797   4.4863   4.4864   4.5797   4.5797
     4.5910   4.5910   4.7545   4.7545   5.0790   5.0790   5.1247   5.1247
     5.4501   5.4502   5.4888   5.4888   6.1259   6.1260   6.1260   6.1260
     6.7991   6.7991   6.8807   6.8807   6.9282   6.9282   6.9723   6.9723
     7.6343   7.6344   7.6531   7.6532   7.6806   7.6806   7.7933   7.7933
     7.8626   7.8626   7.9245   7.9246   7.9374   7.9374   8.1286   8.1286
    11.7316  11.7316  11.8874  11.8874  11.9457  11.9457  12.1071  12.1071
    12.5060  12.5060  12.5456  12.5456  12.7018  12.7018  12.7530  12.7530
    13.2822  13.2822  13.4106  13.4106  13.5568  13.5568  13.6696  13.6696
    15.7856  15.7857  15.7980  15.7980  16.8934  16.8934  17.2074  17.2074
    17.4577  17.4577  17.5660  17.5660  17.7349

          k =-0.5000 0.3234-0.5000 ( 61264 PWs)   bands (ev):

   -65.7389 -65.7389 -65.7388 -65.7388 -65.7386 -65.7385 -65.7385 -65.7385
   -30.1931 -30.1930 -30.1923 -30.1923 -30.1855 -30.1855 -30.1850 -30.1849
   -30.0940 -30.0940 -30.0937 -30.0936 -30.0644 -30.0644 -30.0639 -30.0639
   -29.9836 -29.9835 -29.9835 -29.9835 -29.9828 -29.9828 -29.9826 -29.9825
   -19.8828 -19.8827 -19.8827 -19.8827 -19.8827 -19.8826 -19.8826 -19.8826
   -19.8732 -19.8731 -19.8731 -19.8730 -19.8727 -19.8727 -19.8726 -19.8726
   -19.8655 -19.8654 -19.8654 -19.8654 -19.8653 -19.8652 -19.8652 -19.8652
   -19.8626 -19.8625 -19.8625 -19.8625 -19.8602 -19.8601 -19.8601 -19.8601
   -19.8531 -19.8530 -19.8530 -19.8530 -19.8527 -19.8527 -19.8526 -19.8526
   -19.8407 -19.8407 -19.8407 -19.8406 -19.8404 -19.8404 -19.8404 -19.8403
   -19.8351 -19.8351 -19.8350 -19.8350 -19.8349 -19.8349 -19.8348 -19.8348
    -8.8622  -8.8622  -8.8303  -8.8303  -8.6006  -8.6006  -8.5367  -8.5367
    -8.2852  -8.2852  -8.2090  -8.2090  -8.0502  -8.0502  -8.0062  -8.0061
    -7.9829  -7.9829  -7.9096  -7.9095  -7.7847  -7.7847  -7.7683  -7.7683
     2.6527   2.6527   2.6658   2.6658   3.2014   3.2014   3.2440   3.2440
     3.3517   3.3517   3.3525   3.3525   3.5808   3.5808   3.6908   3.6909
     3.7112   3.7112   3.7186   3.7186   4.0156   4.0156   4.0654   4.0654
     4.2247   4.2247   4.2837   4.2837   4.4711   4.4712   4.5012   4.5012
     4.5628   4.5629   4.7437   4.7437   4.7623   4.7623   4.8097   4.8097
     5.0472   5.0472   5.0535   5.0536   5.4458   5.4459   5.4730   5.4731
     7.0956   7.0956   7.2116   7.2116   7.2355   7.2355   7.3440   7.3440
     7.6274   7.6275   7.6596   7.6596   7.6839   7.6839   7.7918   7.7918
     7.8640   7.8640   7.8910   7.8910   7.9232   7.9233   8.0417   8.0418
    11.9448  11.9448  12.0891  12.0891  12.0965  12.0965  12.2751  12.2751
    12.5039  12.5039  12.5194  12.5194  12.7503  12.7503  12.7868  12.7868
    12.9680  12.9681  13.0851  13.0851  13.2680  13.2680  13.3540  13.3540
    16.5901  16.5902  16.5914  16.5914  17.0713  17.0713  17.2598  17.2599
    17.3490  17.3490  17.5958  17.5958  17.7967

          k =-0.5000-0.4851-0.5000 ( 61200 PWs)   bands (ev):

   -65.7388 -65.7388 -65.7387 -65.7387 -65.7387 -65.7387 -65.7387 -65.7387
   -30.1896 -30.1896 -30.1882 -30.1882 -30.1882 -30.1882 -30.1881 -30.1881
   -30.0799 -30.0799 -30.0797 -30.0797 -30.0797 -30.0796 -30.0786 -30.0786
   -29.9832 -29.9832 -29.9832 -29.9832 -29.9831 -29.9831 -29.9829 -29.9829
   -19.8827 -19.8827 -19.8827 -19.8827 -19.8827 -19.8826 -19.8826 -19.8826
   -19.8730 -19.8729 -19.8728 -19.8728 -19.8728 -19.8728 -19.8728 -19.8728
   -19.8654 -19.8654 -19.8653 -19.8653 -19.8653 -19.8653 -19.8653 -19.8653
   -19.8615 -19.8615 -19.8614 -19.8614 -19.8614 -19.8614 -19.8613 -19.8613
   -19.8529 -19.8529 -19.8529 -19.8529 -19.8528 -19.8528 -19.8528 -19.8528
   -19.8407 -19.8407 -19.8407 -19.8406 -19.8404 -19.8404 -19.8404 -19.8404
   -19.8350 -19.8350 -19.8350 -19.8350 -19.8349 -19.8349 -19.8348 -19.8348
    -8.7301  -8.7301  -8.6680  -8.6680  -8.6499  -8.6499  -8.6499  -8.6499
    -8.1904  -8.1904  -8.0982  -8.0982  -8.0981  -8.0981  -8.0649  -8.0649
    -7.9762  -7.9762  -7.9761  -7.9761  -7.9029  -7.9029  -7.8837  -7.8837
     3.1636   3.1636   3.1637   3.1637   3.1680   3.1680   3.2173   3.2173
     3.3776   3.3776   3.5149   3.5149   3.5150   3.5150   3.6208   3.6209
     3.6974   3.6974   3.8156   3.8157   3.8157   3.8157   3.8250   3.8250
     4.3870   4.3870   4.4051   4.4051   4.4892   4.4892   4.4892   4.4892
     4.6826   4.6826   4.6826   4.6826   4.6943   4.6943   4.7900   4.7901
     4.8364   4.8364   4.9103   4.9103   4.9183   4.9183   4.9183   4.9183
     7.2303   7.2304   7.3773   7.3773   7.3773   7.3774   7.5445   7.5445
     7.6350   7.6350   7.6350   7.6350   7.6782   7.6783   7.7727   7.7727
     7.8676   7.8676   7.8829   7.8829   7.8829   7.8829   7.9649   7.9649
    12.1933  12.1933  12.2409  12.2409  12.2409  12.2409  12.2716  12.2716
    12.5804  12.5804  12.5804  12.5804  12.5892  12.5892  12.8163  12.8164
    12.8639  12.8639  13.0012  13.0012  13.0012  13.0012  13.0318  13.0318
    17.1547  17.1547  17.1547  17.1547  17.2433  17.2433  17.3198  17.3198
    17.6387  17.6387  17.6387  17.6387  17.6495

     the Fermi energy is    10.5060 ev

!    total energy              =   -6260.68333025 Ry
     Harris-Foulkes estimate   =   -6260.68333025 Ry
     estimated scf accuracy    <          6.4E-10 Ry

     The total energy is the sum of the following terms:

     one-electron contribution =   -4633.74641589 Ry
     hartree contribution      =    2559.11950560 Ry
     xc contribution           =    -966.21100387 Ry
     ewald contribution        =   -3219.84540924 Ry
     smearing contrib. (-TS)   =      -0.00000684 Ry

     convergence has been achieved in  13 iterations

     Writing output data file Landau_31.save
 
     init_run     :     19.14s CPU     20.10s WALL (       1 calls)
     electrons    :    951.96s CPU    966.51s WALL (       1 calls)

     Called by init_run:
     wfcinit      :     17.34s CPU     18.16s WALL (       1 calls)
     potinit      :      0.70s CPU      0.73s WALL (       1 calls)

     Called by electrons:
     c_bands      :    830.91s CPU    844.23s WALL (      13 calls)
     sum_band     :    111.09s CPU    111.70s WALL (      13 calls)
     v_of_rho     :      1.71s CPU      1.73s WALL (      14 calls)
     mix_rho      :      2.73s CPU      3.18s WALL (      13 calls)

     Called by c_bands:
     init_us_2    :      5.35s CPU      5.84s WALL (      27 calls)
     cegterg      :    564.35s CPU    577.47s WALL (      13 calls)

     Called by sum_band:

     Called by *egterg:
     h_psi        :    436.33s CPU    438.15s WALL (      52 calls)
     g_psi        :      1.92s CPU      1.92s WALL (      38 calls)
     cdiaghg      :      6.33s CPU      6.35s WALL (      51 calls)

     Called by h_psi:
     h_psi:pot    :    432.61s CPU    434.25s WALL (      52 calls)
     h_psi:calbec :     54.38s CPU     55.46s WALL (      52 calls)
     vloc_psi     :    320.39s CPU    320.71s WALL (      52 calls)
     add_vuspsi   :     57.85s CPU     58.09s WALL (      52 calls)

     General routines
     calbec       :     54.38s CPU     55.46s WALL (      52 calls)
     fft          :      0.99s CPU      1.01s WALL (      56 calls)
     fftw         :    315.02s CPU    315.13s WALL (   17121 calls)
 
     Parallel routines
 
     PWSCF        : 16m21.53s CPU    16m38.03s WALL

 
   This run was terminated on:  12:52:46  17Sep2019            

=------------------------------------------------------------------------------=
   JOB DONE.
=------------------------------------------------------------------------------=
