
     Program PWSCF v.6.2 (svn rev. 14038) starts on 17Sep2019 at 12:36: 9 

     This program is part of the open-source Quantum ESPRESSO suite
     for quantum simulation of materials; please cite
         "P. Giannozzi et al., J. Phys.:Condens. Matter 21 395502 (2009);
         "P. Giannozzi et al., J. Phys.:Condens. Matter 29 465901 (2017);
          URL http://www.quantum-espresso.org", 
     in publications or presentations arising from this work. More details at
     http://www.quantum-espresso.org/quote

     Parallel version (MPI), running on    40 processors

     MPI processes distributed on     3 nodes
     K-points division:     npool     =      40
     Reading input from scf.in

     Current dimensions of program PWSCF are:
     Max number of different atomic species (ntypx) = 10
     Max number of k-points (npk) =  40000
     Max angular momentum in pseudopotentials (lmaxx) =  3

     Subspace diagonalization in iterative solution of the eigenvalue problem:
     a serial algorithm will be used

 
     G-vector sticks info
     --------------------
     sticks:   dense  smooth     PW     G-vecs:    dense   smooth      PW
     Sum        7515    7515   2013               485827   485827   67483
 


     bravais-lattice index     =            0
     lattice parameter (alat)  =      13.9065  a.u.
     unit-cell volume          =    2735.6412 (a.u.)^3
     number of atoms/cell      =           32
     number of atomic types    =            2
     number of electrons       =       368.52
     number of Kohn-Sham states=          221
     kinetic-energy cutoff     =     120.0000  Ry
     charge density cutoff     =     480.0000  Ry
     convergence threshold     =      1.0E-08
     mixing beta               =       0.7000
     number of iterations used =            8  plain     mixing
     Exchange-correlation      = SLA PW NOGX NOGC ( 1  4  0  0 0 0)

     celldm(1)=  13.906459  celldm(2)=   0.000000  celldm(3)=   0.000000
     celldm(4)=   0.000000  celldm(5)=   0.000000  celldm(6)=   0.000000

     crystal axes: (cart. coord. in units of alat)
               a(1) = (   1.000000   0.000000   0.000000 )  
               a(2) = (   0.000000   1.017207   0.000000 )  
               a(3) = (   0.000000   0.000000   1.000000 )  

     reciprocal axes: (cart. coord. in units 2 pi/alat)
               b(1) = (  1.000000  0.000000  0.000000 )  
               b(2) = (  0.000000  0.983084  0.000000 )  
               b(3) = (  0.000000  0.000000  1.000000 )  


     PseudoPot. # 1 for W  read from file:
     /cluster/scratch/mnoe/QE/pps/W_ONCV_LDA-4.0.upf
     MD5 check sum: ba0307d5d4cd419d6f1d13dc49d7c13a
     Pseudo is Norm-conserving + core correction, Zval = 28.0
     Generated using ONCVPSP code by D. R. Hamann
     Using radial grid of 1380 points,  8 beta functions with: 
                l(1) =   0
                l(2) =   0
                l(3) =   1
                l(4) =   1
                l(5) =   2
                l(6) =   2
                l(7) =   3
                l(8) =   3

     PseudoPot. # 2 for O  read from file:
     /cluster/scratch/mnoe/QE/pps/O_ONCV_LDA-3.0.upf
     MD5 check sum: ca1549d10c4e927e51167f6fca52ae32
     Pseudo is Norm-conserving + core correction, Zval =  6.0
     Generated using ONCVPSP code by D. R. Hamann
     Using radial grid of  926 points,  5 beta functions with: 
                l(1) =   0
                l(2) =   0
                l(3) =   1
                l(4) =   1
                l(5) =   2

     atomic species   valence    mass     pseudopotential
        W             28.00   183.84000     W ( 1.00)
        O              6.00    15.99940     O ( 1.00)

      8 Sym. Ops. (no inversion) found ( 4 have fractional translation)



   Cartesian axes

     site n.     atom                  positions (alat units)
         1           W   tau(   1) = (   0.2841700   0.2867100   0.2509700  )
         2           W   tau(   2) = (  -0.2509700   0.7304972  -0.7158300  )
         3           W   tau(   3) = (   0.2158300   0.2218936   0.7509700  )
         4           W   tau(   4) = (   0.7509700   0.7953136   0.7841700  )
         5           W   tau(   5) = (   0.7158300   0.2867100   0.7490300  )
         6           W   tau(   6) = (   0.2509700   0.7304972   0.7158300  )
         7           W   tau(   7) = (  -0.2158300   0.2218936  -0.7509700  )
         8           W   tau(   8) = (   0.2490300   0.7953136   0.2158300  )
         9           O   tau(   9) = (   0.2875800   0.0084632   0.2772600  )
        10           O   tau(  10) = (  -0.2772600   1.0087441  -0.7124200  )
        11           O   tau(  11) = (   0.2124200   0.5001404   0.7772600  )
        12           O   tau(  12) = (   0.7772600   0.5170667   0.7875800  )
        13           O   tau(  13) = (   0.7124200   0.0084632   0.7227400  )
        14           O   tau(  14) = (   0.2772600   1.0087441   0.7124200  )
        15           O   tau(  15) = (  -0.2124200   0.5001404  -0.7772600  )
        16           O   tau(  16) = (   0.2227400   0.5170667   0.2124200  )
        17           O   tau(  17) = (   0.4879100   0.2955190   0.6995400  )
        18           O   tau(  18) = (   0.4975100   0.7364579   0.8004600  )
        19           O   tau(  19) = (  -0.9879099   0.2130846   1.1995400  )
        20           O   tau(  20) = (   0.0024899   0.7893528   0.3004600  )
        21           O   tau(  21) = (   0.5120900   0.2955190   0.3004600  )
        22           O   tau(  22) = (   0.5024900   0.7364579   1.1995400  )
        23           O   tau(  23) = (  -0.0120901   0.2130846   0.8004600  )
        24           O   tau(  24) = (  -1.0024900   0.7893528   0.6995400  )
        25           O   tau(  25) = (   0.6995400   0.2278544   2.0024899  )
        26           O   tau(  26) = (   0.3004600   0.7216882   0.4879100  )
        27           O   tau(  27) = (   0.8004600   0.2807492   0.5024900  )
        28           O   tau(  28) = (   0.1995400   0.8041226   1.9879100  )
        29           O   tau(  29) = (   0.3004600   0.2278544   0.9975101  )
        30           O   tau(  30) = (   0.6995400   0.7216882   0.5120900  )
        31           O   tau(  31) = (   0.1995400   0.2807492   0.4975100  )
        32           O   tau(  32) = (   0.8004600   0.8041226   1.0120901  )

     number of k points=    40  gaussian smearing, width (Ry)=  0.0007
                       cart. coord. in units 2pi/alat
        k(    1) = (   0.0000000   0.0000000   0.0000000), wk =   0.0092593
        k(    2) = (   0.0000000   0.0000000   0.1666667), wk =   0.0370370
        k(    3) = (   0.0000000   0.0000000   0.3333333), wk =   0.0370370
        k(    4) = (   0.0000000   0.0000000  -0.5000000), wk =   0.0185185
        k(    5) = (   0.0000000   0.1638473   0.0000000), wk =   0.0185185
        k(    6) = (   0.0000000   0.1638473   0.1666667), wk =   0.0740741
        k(    7) = (   0.0000000   0.1638473   0.3333333), wk =   0.0740741
        k(    8) = (   0.0000000   0.1638473  -0.5000000), wk =   0.0370370
        k(    9) = (   0.0000000   0.3276946   0.0000000), wk =   0.0185185
        k(   10) = (   0.0000000   0.3276946   0.1666667), wk =   0.0740741
        k(   11) = (   0.0000000   0.3276946   0.3333333), wk =   0.0740741
        k(   12) = (   0.0000000   0.3276946  -0.5000000), wk =   0.0370370
        k(   13) = (   0.0000000  -0.4915419   0.0000000), wk =   0.0092593
        k(   14) = (   0.0000000  -0.4915419   0.1666667), wk =   0.0370370
        k(   15) = (   0.0000000  -0.4915419   0.3333333), wk =   0.0370370
        k(   16) = (   0.0000000  -0.4915419  -0.5000000), wk =   0.0185185
        k(   17) = (   0.1666667   0.0000000   0.1666667), wk =   0.0370370
        k(   18) = (   0.1666667   0.0000000   0.3333333), wk =   0.0740741
        k(   19) = (   0.1666667   0.0000000  -0.5000000), wk =   0.0370370
        k(   20) = (   0.1666667   0.1638473   0.1666667), wk =   0.0740741
        k(   21) = (   0.1666667   0.1638473   0.3333333), wk =   0.1481481
        k(   22) = (   0.1666667   0.1638473  -0.5000000), wk =   0.0740741
        k(   23) = (   0.1666667   0.3276946   0.1666667), wk =   0.0740741
        k(   24) = (   0.1666667   0.3276946   0.3333333), wk =   0.1481481
        k(   25) = (   0.1666667   0.3276946  -0.5000000), wk =   0.0740741
        k(   26) = (   0.1666667  -0.4915419   0.1666667), wk =   0.0370370
        k(   27) = (   0.1666667  -0.4915419   0.3333333), wk =   0.0740741
        k(   28) = (   0.1666667  -0.4915419  -0.5000000), wk =   0.0370370
        k(   29) = (   0.3333333   0.0000000   0.3333333), wk =   0.0370370
        k(   30) = (   0.3333333   0.0000000  -0.5000000), wk =   0.0370370
        k(   31) = (   0.3333333   0.1638473   0.3333333), wk =   0.0740741
        k(   32) = (   0.3333333   0.1638473  -0.5000000), wk =   0.0740741
        k(   33) = (   0.3333333   0.3276946   0.3333333), wk =   0.0740741
        k(   34) = (   0.3333333   0.3276946  -0.5000000), wk =   0.0740741
        k(   35) = (   0.3333333  -0.4915419   0.3333333), wk =   0.0370370
        k(   36) = (   0.3333333  -0.4915419  -0.5000000), wk =   0.0370370
        k(   37) = (  -0.5000000   0.0000000  -0.5000000), wk =   0.0092593
        k(   38) = (  -0.5000000   0.1638473  -0.5000000), wk =   0.0185185
        k(   39) = (  -0.5000000   0.3276946  -0.5000000), wk =   0.0185185
        k(   40) = (  -0.5000000  -0.4915419  -0.5000000), wk =   0.0092593

     Dense  grid:   485827 G-vectors     FFT dimensions: ( 100, 100, 100)

     Estimated max dynamical RAM per process >       2.65 GB

     Estimated total dynamical RAM >     105.91 GB

     Initial potential from superposition of free atoms

     starting charge  367.99656, renormalised to  368.52000
     Starting wfc are  232 randomized atomic wfcs

     total cpu time spent up to now is       24.6 secs

     Self-consistent Calculation

     iteration #  1     ecut=   120.00 Ry     beta= 0.70
     Davidson diagonalization with overlap
     ethr =  1.00E-02,  avg # of iterations =  4.5

     total cpu time spent up to now is      108.1 secs

     total energy              =   -6253.46297085 Ry
     Harris-Foulkes estimate   =   -6264.14984845 Ry
     estimated scf accuracy    <      13.47717286 Ry

     iteration #  2     ecut=   120.00 Ry     beta= 0.70
     Davidson diagonalization with overlap
     ethr =  3.66E-03,  avg # of iterations =  3.4

     total cpu time spent up to now is      189.3 secs

     total energy              =   -6250.22000950 Ry
     Harris-Foulkes estimate   =   -6270.22027682 Ry
     estimated scf accuracy    <      53.56985133 Ry

     iteration #  3     ecut=   120.00 Ry     beta= 0.70
     Davidson diagonalization with overlap
     ethr =  3.66E-03,  avg # of iterations =  3.1

     total cpu time spent up to now is      267.5 secs

     total energy              =   -6260.62014083 Ry
     Harris-Foulkes estimate   =   -6260.89204511 Ry
     estimated scf accuracy    <       0.89518988 Ry

     iteration #  4     ecut=   120.00 Ry     beta= 0.70
     Davidson diagonalization with overlap
     ethr =  2.43E-04,  avg # of iterations =  2.2

     total cpu time spent up to now is      329.6 secs

     total energy              =   -6260.61482941 Ry
     Harris-Foulkes estimate   =   -6260.68695542 Ry
     estimated scf accuracy    <       0.22282188 Ry

     iteration #  5     ecut=   120.00 Ry     beta= 0.70
     Davidson diagonalization with overlap
     ethr =  6.05E-05,  avg # of iterations =  5.5

     total cpu time spent up to now is      399.2 secs

     total energy              =   -6260.61796471 Ry
     Harris-Foulkes estimate   =   -6260.64848004 Ry
     estimated scf accuracy    <       0.06658765 Ry

     iteration #  6     ecut=   120.00 Ry     beta= 0.70
     Davidson diagonalization with overlap
     ethr =  1.81E-05,  avg # of iterations =  4.6

     total cpu time spent up to now is      472.4 secs

     total energy              =   -6260.63291832 Ry
     Harris-Foulkes estimate   =   -6260.63549944 Ry
     estimated scf accuracy    <       0.00696963 Ry

     iteration #  7     ecut=   120.00 Ry     beta= 0.70
     Davidson diagonalization with overlap
     ethr =  1.89E-06,  avg # of iterations =  4.1

     total cpu time spent up to now is      541.0 secs

     total energy              =   -6260.63375349 Ry
     Harris-Foulkes estimate   =   -6260.63386914 Ry
     estimated scf accuracy    <       0.00021640 Ry

     iteration #  8     ecut=   120.00 Ry     beta= 0.70
     Davidson diagonalization with overlap
     ethr =  5.87E-08,  avg # of iterations =  3.0

     total cpu time spent up to now is      623.6 secs

     total energy              =   -6260.63383391 Ry
     Harris-Foulkes estimate   =   -6260.63384370 Ry
     estimated scf accuracy    <       0.00003521 Ry

     iteration #  9     ecut=   120.00 Ry     beta= 0.70
     Davidson diagonalization with overlap
     ethr =  9.55E-09,  avg # of iterations =  1.3

     total cpu time spent up to now is      684.2 secs

     total energy              =   -6260.63383313 Ry
     Harris-Foulkes estimate   =   -6260.63383649 Ry
     estimated scf accuracy    <       0.00000907 Ry

     iteration # 10     ecut=   120.00 Ry     beta= 0.70
     Davidson diagonalization with overlap
     ethr =  2.46E-09,  avg # of iterations =  3.0

     total cpu time spent up to now is      750.6 secs

     total energy              =   -6260.63383455 Ry
     Harris-Foulkes estimate   =   -6260.63383484 Ry
     estimated scf accuracy    <       0.00000073 Ry

     iteration # 11     ecut=   120.00 Ry     beta= 0.70
     Davidson diagonalization with overlap
     ethr =  1.98E-10,  avg # of iterations =  2.9

     total cpu time spent up to now is      826.0 secs

     total energy              =   -6260.63383470 Ry
     Harris-Foulkes estimate   =   -6260.63383475 Ry
     estimated scf accuracy    <       0.00000012 Ry

     iteration # 12     ecut=   120.00 Ry     beta= 0.70
     Davidson diagonalization with overlap
     ethr =  3.31E-11,  avg # of iterations =  2.0

     total cpu time spent up to now is      888.8 secs

     total energy              =   -6260.63383470 Ry
     Harris-Foulkes estimate   =   -6260.63383471 Ry
     estimated scf accuracy    <       0.00000001 Ry

     iteration # 13     ecut=   120.00 Ry     beta= 0.70
     Davidson diagonalization with overlap
     ethr =  3.24E-12,  avg # of iterations =  3.0

     total cpu time spent up to now is      971.7 secs

     End of self-consistent calculation

          k = 0.0000 0.0000 0.0000 ( 60773 PWs)   bands (ev):

   -65.6009 -65.6001 -65.6000 -65.6000 -65.5992 -65.5992 -65.5991 -65.5983
   -30.1522 -30.1488 -30.1460 -30.1460 -30.0672 -30.0672 -30.0664 -30.0589
   -29.9652 -29.9582 -29.9582 -29.9511 -29.8863 -29.8827 -29.8827 -29.8780
   -29.8716 -29.8700 -29.8617 -29.8617 -29.7899 -29.7899 -29.7852 -29.7834
   -19.7443 -19.7441 -19.7441 -19.7441 -19.7424 -19.7424 -19.7423 -19.7422
   -19.7339 -19.7339 -19.7339 -19.7339 -19.7322 -19.7322 -19.7320 -19.7320
   -19.7288 -19.7287 -19.7286 -19.7285 -19.7258 -19.7258 -19.7256 -19.7253
   -19.7118 -19.7114 -19.7114 -19.7110 -19.7092 -19.7089 -19.7087 -19.7087
   -19.7067 -19.7066 -19.7066 -19.7062 -19.7058 -19.7051 -19.7051 -19.7045
   -19.7023 -19.7021 -19.7021 -19.7021 -19.6993 -19.6990 -19.6990 -19.6985
   -19.6956 -19.6953 -19.6949 -19.6949 -19.6928 -19.6928 -19.6924 -19.6920
    -9.5526  -9.2044  -9.1319  -9.1319  -8.6556  -8.6556  -8.6330  -8.5136
    -8.3558  -8.2612  -8.2612  -8.2607  -7.7117  -7.6408  -7.5253  -7.5253
    -7.3548  -7.2825  -7.2825  -7.2280  -7.2207  -7.2021  -7.0756  -7.0756
     1.7848   1.8413   1.8580   1.8581   2.0363   2.0636   2.0790   2.0790
     2.2573   2.2573   2.3699   2.5360   2.7591   2.8417   2.9313   3.0854
     3.1041   3.1041   4.6108   4.6108   4.8385   5.0060   5.0075   5.0279
     5.0279   5.1567   5.1792   5.1792   5.5608   5.5798   5.5798   5.7409
     5.7584   5.8238   5.8478   5.8479   6.1040   6.1040   6.1355   6.1520
     6.1762   6.1762   6.1986   6.3168   6.3214   6.3214   6.4524   6.4852
     6.6392   6.7420   6.8068   6.8068   6.9680   7.0406   7.2309   7.2309
     7.2464   7.3891   7.4077   7.4091   7.4091   7.5570   7.5570   7.6132
     7.9065   7.9065   8.0422   8.1063   8.2386   8.3660   8.3660   8.5467
    10.4358  10.6063  10.7405  10.7405  10.7807  10.8506  12.5369  12.5798
    12.5798  12.7754  12.7754  12.8818  13.1007  13.3232  13.3233  13.4613
    13.5302  13.6671  13.6761  13.6761  14.1218  14.1218  14.1257  14.4140
    15.1629  15.3286  15.3313  15.3313  15.7173  16.1082  16.2763  16.3069
    16.3069  17.0538  17.3120  17.3120  18.0853

          k = 0.0000 0.0000 0.1667 ( 60761 PWs)   bands (ev):

   -65.6008 -65.6001 -65.6001 -65.5999 -65.5993 -65.5992 -65.5991 -65.5984
   -30.1507 -30.1463 -30.1443 -30.1404 -30.0727 -30.0700 -30.0669 -30.0611
   -29.9649 -29.9588 -29.9578 -29.9517 -29.8861 -29.8830 -29.8825 -29.8784
   -29.8703 -29.8650 -29.8624 -29.8566 -29.7953 -29.7897 -29.7896 -29.7846
   -19.7442 -19.7441 -19.7440 -19.7439 -19.7425 -19.7424 -19.7424 -19.7422
   -19.7339 -19.7339 -19.7338 -19.7337 -19.7323 -19.7322 -19.7321 -19.7320
   -19.7288 -19.7286 -19.7285 -19.7284 -19.7260 -19.7258 -19.7258 -19.7254
   -19.7118 -19.7115 -19.7114 -19.7111 -19.7091 -19.7088 -19.7087 -19.7086
   -19.7068 -19.7067 -19.7066 -19.7063 -19.7057 -19.7051 -19.7050 -19.7045
   -19.7022 -19.7021 -19.7019 -19.7018 -19.6994 -19.6992 -19.6990 -19.6986
   -19.6956 -19.6952 -19.6950 -19.6948 -19.6930 -19.6927 -19.6926 -19.6921
    -9.5096  -9.1547  -9.1499  -9.0710  -8.6739  -8.6455  -8.6061  -8.4975
    -8.3255  -8.2723  -8.2291  -8.2131  -7.7758  -7.6594  -7.6243  -7.5332
    -7.3549  -7.3162  -7.2880  -7.2786  -7.2327  -7.2009  -7.1771  -7.0841
     1.8140   1.8502   1.9860   2.0188   2.0616   2.0755   2.0771   2.1629
     2.2613   2.4449   2.4858   2.6700   2.8233   2.9016   3.0185   3.0941
     3.1371   3.1961   4.4799   4.6005   4.6418   4.7540   4.7978   4.9738
     5.0265   5.0957   5.1395   5.1799   5.3202   5.5393   5.6416   5.6715
     5.7317   5.8166   5.8659   5.8959   6.0071   6.0166   6.0673   6.0999
     6.1625   6.1696   6.2140   6.2376   6.2964   6.3037   6.4070   6.5397
     6.6338   6.7742   6.7837   6.8977   7.0306   7.1139   7.1561   7.2210
     7.2400   7.3060   7.3222   7.3975   7.4553   7.5462   7.5537   7.6294
     7.7724   7.8074   8.0703   8.1250   8.2345   8.3424   8.3807   8.5407
    10.5601  10.7366  10.7449  10.8645  10.9969  11.0952  12.5495  12.5665
    12.6104  12.7135  12.8307  12.9317  13.1297  13.2305  13.3436  13.4700
    13.5599  13.6193  13.6886  13.6929  14.0357  14.1267  14.1939  14.3489
    15.1668  15.3208  15.3745  15.4147  15.7343  16.1576  16.2045  16.2945
    16.4931  17.1372  17.1965  17.4611  18.1409

          k = 0.0000 0.0000 0.3333 ( 60754 PWs)   bands (ev):

   -65.6007 -65.6002 -65.5999 -65.5998 -65.5994 -65.5993 -65.5990 -65.5985
   -30.1495 -30.1472 -30.1292 -30.1250 -30.0876 -30.0837 -30.0660 -30.0632
   -29.9638 -29.9604 -29.9568 -29.9533 -29.8856 -29.8837 -29.8817 -29.8793
   -29.8688 -29.8642 -29.8502 -29.8426 -29.8100 -29.8039 -29.7886 -29.7858
   -19.7442 -19.7441 -19.7437 -19.7436 -19.7428 -19.7427 -19.7424 -19.7423
   -19.7339 -19.7339 -19.7335 -19.7334 -19.7326 -19.7324 -19.7322 -19.7321
   -19.7287 -19.7286 -19.7281 -19.7279 -19.7267 -19.7264 -19.7257 -19.7255
   -19.7117 -19.7115 -19.7113 -19.7111 -19.7090 -19.7088 -19.7085 -19.7082
   -19.7073 -19.7071 -19.7066 -19.7064 -19.7056 -19.7052 -19.7049 -19.7046
   -19.7022 -19.7021 -19.7012 -19.7012 -19.6997 -19.6996 -19.6989 -19.6987
   -19.6954 -19.6950 -19.6949 -19.6944 -19.6936 -19.6931 -19.6926 -19.6923
    -9.4056  -9.2039  -9.0198  -8.9210  -8.7347  -8.6870  -8.4678  -8.4466
    -8.3061  -8.2631  -8.0945  -8.0576  -7.9911  -7.8814  -7.6572  -7.5574
    -7.5538  -7.4317  -7.3399  -7.3031  -7.2769  -7.2454  -7.1751  -7.1076
     1.8223   1.8359   2.0579   2.0592   2.0671   2.0706   2.2567   2.2725
     2.7055   2.9105   2.9207   3.0089   3.0893   3.1100   3.2053   3.2640
     3.3305   3.4388   4.0679   4.1805   4.3284   4.3835   4.3847   4.7429
     4.8621   4.8936   5.0572   5.0690   5.1480   5.1803   5.4197   5.4656
     5.6816   5.6894   5.6952   5.8311   5.8910   5.9017   6.0055   6.1109
     6.1176   6.2284   6.2568   6.2870   6.2944   6.3742   6.4071   6.6172
     6.6259   6.6745   6.7869   6.9029   6.9524   7.0074   7.1322   7.1416
     7.2240   7.3625   7.3885   7.4586   7.5127   7.5576   7.5881   7.6550
     7.7596   7.8338   8.0373   8.1151   8.1888   8.2539   8.4190   8.5082
    10.6502  10.7205  11.1767  11.3566  11.4436  11.7084  12.2889  12.3640
    12.5728  12.6909  12.8024  12.9810  13.0038  13.2138  13.3772  13.3998
    13.5445  13.6059  13.6606  13.7612  13.9786  14.1152  14.1450  14.2581
    15.2086  15.2913  15.5143  15.6496  16.0297  16.0363  16.1899  16.3645
    16.7792  17.0918  17.6536  17.6721  17.9255

          k = 0.0000 0.0000-0.5000 ( 60712 PWs)   bands (ev):

   -65.6004 -65.6004 -65.5997 -65.5997 -65.5995 -65.5995 -65.5988 -65.5988
   -30.1483 -30.1483 -30.1083 -30.1083 -30.1042 -30.1042 -30.0647 -30.0647
   -29.9622 -29.9622 -29.9552 -29.9552 -29.8846 -29.8846 -29.8805 -29.8805
   -29.8666 -29.8666 -29.8301 -29.8301 -29.8233 -29.8233 -29.7872 -29.7872
   -19.7442 -19.7442 -19.7432 -19.7432 -19.7431 -19.7431 -19.7423 -19.7423
   -19.7339 -19.7339 -19.7330 -19.7330 -19.7329 -19.7329 -19.7322 -19.7322
   -19.7286 -19.7286 -19.7274 -19.7274 -19.7272 -19.7271 -19.7256 -19.7256
   -19.7116 -19.7116 -19.7112 -19.7112 -19.7089 -19.7089 -19.7079 -19.7079
   -19.7077 -19.7077 -19.7065 -19.7065 -19.7054 -19.7054 -19.7048 -19.7048
   -19.7022 -19.7022 -19.7004 -19.7004 -19.7004 -19.7003 -19.6989 -19.6988
   -19.6952 -19.6952 -19.6943 -19.6943 -19.6938 -19.6938 -19.6925 -19.6924
    -9.2923  -9.2923  -8.8548  -8.8548  -8.7738  -8.7738  -8.3680  -8.3680
    -8.2453  -8.2453  -8.1417  -8.1416  -7.8514  -7.8514  -7.8014  -7.8014
    -7.5716  -7.5716  -7.3230  -7.3230  -7.2622  -7.2622  -7.1407  -7.1407
     1.8266   1.8266   2.0598   2.0598   2.0697   2.0698   2.2825   2.2825
     2.9842   2.9842   3.3673   3.3673   3.4991   3.4991   3.5967   3.5967
     3.6580   3.6580   3.7823   3.7823   3.9885   3.9885   4.1396   4.1396
     4.3598   4.3598   4.9890   4.9890   5.0813   5.0813   5.5217   5.5217
     5.5985   5.5985   5.7228   5.7228   5.8527   5.8527   6.0730   6.0730
     6.1706   6.1707   6.2928   6.2928   6.3294   6.3294   6.5291   6.5291
     6.6915   6.6915   6.7767   6.7767   6.9418   6.9418   7.0770   7.0770
     7.3133   7.3133   7.3910   7.3910   7.4751   7.4751   7.8665   7.8665
     7.9391   7.9391   8.0277   8.0277   8.0866   8.0867   8.4602   8.4602
    10.6910  10.6910  11.7579  11.7579  11.9383  11.9383  12.0278  12.0278
    12.3865  12.3865  12.7866  12.7866  13.2333  13.2333  13.3688  13.3688
    13.4827  13.4827  13.8182  13.8182  13.9258  13.9258  14.1866  14.1866
    15.2499  15.2499  15.7635  15.7635  15.9570  15.9570  16.4534  16.4534
    16.9296  16.9296  17.9483  17.9483  18.3631

          k = 0.0000 0.1638 0.0000 ( 60765 PWs)   bands (ev):

   -65.6008 -65.6002 -65.5999 -65.5999 -65.5993 -65.5993 -65.5990 -65.5984
   -30.1519 -30.1489 -30.1460 -30.1459 -30.0670 -30.0670 -30.0657 -30.0593
   -29.9600 -29.9533 -29.9533 -29.9465 -29.8915 -29.8877 -29.8877 -29.8832
   -29.8715 -29.8701 -29.8619 -29.8619 -29.7899 -29.7899 -29.7851 -29.7835
   -19.7443 -19.7441 -19.7441 -19.7441 -19.7424 -19.7424 -19.7423 -19.7422
   -19.7339 -19.7339 -19.7339 -19.7339 -19.7322 -19.7322 -19.7320 -19.7320
   -19.7288 -19.7287 -19.7285 -19.7285 -19.7258 -19.7258 -19.7256 -19.7254
   -19.7114 -19.7111 -19.7110 -19.7106 -19.7092 -19.7089 -19.7087 -19.7087
   -19.7067 -19.7067 -19.7066 -19.7062 -19.7061 -19.7054 -19.7054 -19.7049
   -19.7023 -19.7021 -19.7021 -19.7021 -19.6992 -19.6990 -19.6990 -19.6985
   -19.6956 -19.6953 -19.6949 -19.6949 -19.6928 -19.6928 -19.6924 -19.6920
    -9.5183  -9.2191  -9.1012  -9.1012  -8.6362  -8.6362  -8.5555  -8.4807
    -8.3560  -8.2483  -8.2421  -8.2421  -7.7183  -7.6419  -7.5359  -7.5359
    -7.4430  -7.3741  -7.3741  -7.3399  -7.2200  -7.2039  -7.0761  -7.0761
     1.7987   1.8361   1.8646   1.8646   2.1651   2.1675   2.1675   2.2661
     2.3703   2.3771   2.3771   2.6215   2.7860   2.9018   2.9211   3.1879
     3.1897   3.1897   4.4928   4.4928   4.6251   4.6796   4.8592   5.0047
     5.0047   5.1864   5.1864   5.2487   5.4578   5.4578   5.5517   5.7581
     5.7684   5.7923   5.7923   5.8561   5.9790   5.9790   6.0208   6.1077
     6.1871   6.1871   6.2053   6.2807   6.2807   6.3311   6.4812   6.5101
     6.6098   6.7359   6.9245   6.9245   6.9659   6.9819   7.2203   7.2203
     7.2580   7.3966   7.3966   7.4041   7.4391   7.5266   7.5460   7.5460
     7.9042   7.9042   8.0410   8.0998   8.2459   8.3627   8.3627   8.4844
    10.5038  10.6162  10.8909  10.8909  10.9306  10.9811  12.5466  12.5809
    12.5809  12.7684  12.7684  12.8749  12.9737  13.2950  13.2950  13.3899
    13.4588  13.6221  13.6221  13.6982  14.1005  14.1005  14.1740  14.3428
    15.1933  15.4070  15.4070  15.5300  15.6964  16.0706  16.3195  16.3195
    16.6351  16.8814  17.4485  17.4485  18.0801

          k = 0.0000 0.1638 0.1667 ( 60733 PWs)   bands (ev):

   -65.6008 -65.6001 -65.6000 -65.5999 -65.5993 -65.5992 -65.5991 -65.5984
   -30.1505 -30.1463 -30.1444 -30.1403 -30.0725 -30.0694 -30.0667 -30.0613
   -29.9596 -29.9539 -29.9530 -29.9471 -29.8914 -29.8880 -29.8876 -29.8835
   -29.8704 -29.8651 -29.8626 -29.8567 -29.7953 -29.7897 -29.7896 -29.7846
   -19.7442 -19.7441 -19.7440 -19.7439 -19.7425 -19.7424 -19.7424 -19.7422
   -19.7339 -19.7339 -19.7338 -19.7337 -19.7323 -19.7322 -19.7321 -19.7320
   -19.7288 -19.7286 -19.7285 -19.7284 -19.7260 -19.7258 -19.7258 -19.7254
   -19.7114 -19.7111 -19.7110 -19.7107 -19.7091 -19.7088 -19.7087 -19.7086
   -19.7069 -19.7067 -19.7067 -19.7063 -19.7060 -19.7055 -19.7054 -19.7049
   -19.7023 -19.7021 -19.7019 -19.7019 -19.6993 -19.6992 -19.6990 -19.6986
   -19.6955 -19.6952 -19.6950 -19.6948 -19.6930 -19.6927 -19.6926 -19.6921
    -9.4746  -9.1692  -9.1187  -9.0361  -8.6563  -8.5869  -8.5674  -8.4636
    -8.3253  -8.2519  -8.2193  -8.1991  -7.7786  -7.6629  -7.6285  -7.5433
    -7.4443  -7.3890  -7.3813  -7.3446  -7.3041  -7.2015  -7.1756  -7.0845
     1.8248   1.8572   2.0195   2.0599   2.1714   2.1920   2.2753   2.2832
     2.3810   2.4733   2.5057   2.7140   2.8651   2.9514   3.0080   3.1779
     3.2406   3.2788   4.4171   4.4913   4.6045   4.6161   4.7556   4.7860
     4.8597   5.0346   5.1341   5.1631   5.2576   5.4573   5.5907   5.6028
     5.6872   5.7630   5.8295   5.9198   5.9280   5.9662   6.0009   6.0379
     6.0861   6.1364   6.1735   6.1913   6.2797   6.2936   6.4167   6.5042
     6.6797   6.7695   6.9018   6.9544   7.0316   7.0995   7.1551   7.2339
     7.2461   7.3068   7.3582   7.4204   7.4556   7.5170   7.5544   7.6140
     7.7577   7.8168   8.0662   8.1199   8.2465   8.3388   8.3689   8.4820
    10.6614  10.7824  10.8901  11.0111  11.0734  11.1969  12.5546  12.5661
    12.6242  12.7235  12.8220  12.9317  13.0072  13.2193  13.3063  13.4064
    13.4413  13.5708  13.6341  13.7020  14.0197  14.1043  14.1972  14.2950
    15.2221  15.3964  15.4981  15.5827  15.7193  16.1289  16.2748  16.5008
    16.6110  17.0212  17.2667  17.5684  18.1336

          k = 0.0000 0.1638 0.3333 ( 60754 PWs)   bands (ev):

   -65.6006 -65.6002 -65.6000 -65.5997 -65.5995 -65.5992 -65.5990 -65.5986
   -30.1494 -30.1471 -30.1292 -30.1249 -30.0875 -30.0834 -30.0658 -30.0632
   -29.9586 -29.9554 -29.9520 -29.9486 -29.8908 -29.8888 -29.8868 -29.8845
   -29.8688 -29.8644 -29.8503 -29.8426 -29.8100 -29.8039 -29.7886 -29.7858
   -19.7442 -19.7441 -19.7437 -19.7436 -19.7428 -19.7427 -19.7424 -19.7423
   -19.7339 -19.7339 -19.7335 -19.7334 -19.7326 -19.7324 -19.7322 -19.7321
   -19.7287 -19.7286 -19.7281 -19.7279 -19.7267 -19.7264 -19.7257 -19.7255
   -19.7114 -19.7112 -19.7110 -19.7107 -19.7090 -19.7088 -19.7084 -19.7082
   -19.7073 -19.7071 -19.7066 -19.7064 -19.7059 -19.7056 -19.7053 -19.7050
   -19.7022 -19.7022 -19.7012 -19.7012 -19.6997 -19.6997 -19.6990 -19.6988
   -19.6954 -19.6950 -19.6949 -19.6944 -19.6936 -19.6931 -19.6926 -19.6923
    -9.3699  -9.1717  -9.0306  -8.8717  -8.7238  -8.6114  -8.4522  -8.4114
    -8.2833  -8.2598  -8.0925  -8.0545  -7.9905  -7.8821  -7.6641  -7.5740
    -7.5500  -7.4493  -7.4248  -7.3927  -7.3759  -7.3413  -7.1756  -7.1081
     1.8337   1.8446   2.1771   2.1946   2.2357   2.2567   2.3491   2.3785
     2.7069   2.9241   3.0027   3.0112   3.1218   3.1482   3.2213   3.2572
     3.4302   3.5112   4.0724   4.1990   4.3112   4.3546   4.3952   4.7169
     4.7482   4.8057   4.8639   4.9212   5.0992   5.1108   5.3123   5.4103
     5.4938   5.5711   5.6514   5.7776   5.8572   5.8959   5.9406   6.0401
     6.0521   6.0781   6.1853   6.2132   6.2808   6.3057   6.4192   6.4749
     6.7287   6.7976   6.8048   6.9563   7.0336   7.1078   7.1737   7.2089
     7.2626   7.3094   7.3874   7.4527   7.5101   7.5688   7.5888   7.6705
     7.7645   7.8545   8.0339   8.1138   8.2100   8.2531   8.3910   8.4572
    10.8087  10.8753  11.2207  11.4369  11.4944  11.7543  12.3049  12.3952
    12.5988  12.7080  12.8161  12.9888  12.9929  13.0880  13.2732  13.3498
    13.4968  13.5478  13.5903  13.7013  13.9098  14.0579  14.1226  14.2416
    15.2742  15.3624  15.6630  15.8336  16.0206  16.1712  16.3719  16.5107
    16.8546  17.0985  17.4579  17.7663  17.9578

          k = 0.0000 0.1638-0.5000 ( 60716 PWs)   bands (ev):

   -65.6004 -65.6004 -65.5997 -65.5997 -65.5995 -65.5995 -65.5988 -65.5988
   -30.1483 -30.1482 -30.1083 -30.1082 -30.1040 -30.1040 -30.0645 -30.0645
   -29.9571 -29.9571 -29.9504 -29.9504 -29.8898 -29.8898 -29.8857 -29.8857
   -29.8667 -29.8667 -29.8301 -29.8301 -29.8233 -29.8233 -29.7872 -29.7872
   -19.7442 -19.7442 -19.7432 -19.7432 -19.7431 -19.7431 -19.7423 -19.7423
   -19.7339 -19.7339 -19.7330 -19.7330 -19.7329 -19.7329 -19.7322 -19.7321
   -19.7286 -19.7286 -19.7274 -19.7274 -19.7272 -19.7271 -19.7256 -19.7256
   -19.7113 -19.7113 -19.7109 -19.7109 -19.7089 -19.7089 -19.7079 -19.7079
   -19.7077 -19.7077 -19.7066 -19.7066 -19.7057 -19.7057 -19.7051 -19.7051
   -19.7022 -19.7022 -19.7004 -19.7004 -19.7004 -19.7004 -19.6989 -19.6989
   -19.6952 -19.6952 -19.6943 -19.6943 -19.6938 -19.6938 -19.6925 -19.6925
    -9.2581  -9.2581  -8.8556  -8.8556  -8.7058  -8.7057  -8.3364  -8.3364
    -8.2420  -8.2420  -8.1410  -8.1409  -7.8532  -7.8532  -7.8054  -7.8054
    -7.5766  -7.5766  -7.4133  -7.4133  -7.3640  -7.3640  -7.1412  -7.1412
     1.8372   1.8372   2.1895   2.1896   2.2527   2.2528   2.3830   2.3830
     3.0621   3.0621   3.3767   3.3767   3.4935   3.4935   3.6397   3.6397
     3.6690   3.6690   3.7871   3.7871   4.0125   4.0125   4.1746   4.1746
     4.3636   4.3636   4.7810   4.7810   4.9862   4.9862   5.2767   5.2767
     5.5380   5.5380   5.6819   5.6819   5.7830   5.7830   6.0233   6.0233
     6.0643   6.0643   6.1713   6.1713   6.3226   6.3226   6.4288   6.4288
     6.7408   6.7408   6.9283   6.9283   7.0300   7.0300   7.1641   7.1641
     7.3128   7.3128   7.3365   7.3365   7.5152   7.5152   7.8645   7.8645
     7.9346   7.9346   8.0500   8.0500   8.0997   8.0998   8.4198   8.4198
    10.8532  10.8532  11.7868  11.7868  11.9930  11.9930  12.0619  12.0619
    12.4094  12.4094  12.8074  12.8074  13.1409  13.1409  13.3271  13.3271
    13.4327  13.4327  13.7062  13.7062  13.8693  13.8693  14.1640  14.1640
    15.3132  15.3132  15.8670  15.8670  16.2414  16.2414  16.5240  16.5240
    16.9556  16.9556  17.9144  17.9144  18.2488

          k = 0.0000 0.3277 0.0000 ( 60741 PWs)   bands (ev):

   -65.6007 -65.6003 -65.5998 -65.5998 -65.5994 -65.5994 -65.5989 -65.5985
   -30.1512 -30.1495 -30.1459 -30.1459 -30.0666 -30.0666 -30.0640 -30.0603
   -29.9456 -29.9399 -29.9399 -29.9337 -29.9060 -29.9017 -29.9017 -29.8970
   -29.8714 -29.8705 -29.8621 -29.8621 -29.7899 -29.7899 -29.7847 -29.7839
   -19.7443 -19.7442 -19.7441 -19.7441 -19.7424 -19.7424 -19.7423 -19.7422
   -19.7339 -19.7339 -19.7339 -19.7339 -19.7322 -19.7322 -19.7320 -19.7320
   -19.7288 -19.7287 -19.7285 -19.7285 -19.7258 -19.7258 -19.7256 -19.7254
   -19.7105 -19.7100 -19.7100 -19.7095 -19.7093 -19.7087 -19.7087 -19.7087
   -19.7071 -19.7069 -19.7069 -19.7068 -19.7062 -19.7062 -19.7062 -19.7058
   -19.7023 -19.7022 -19.7022 -19.7022 -19.6991 -19.6990 -19.6990 -19.6987
   -19.6956 -19.6954 -19.6949 -19.6949 -19.6928 -19.6928 -19.6923 -19.6921
    -9.4337  -9.2640  -9.0428  -9.0427  -8.5865  -8.5865  -8.4087  -8.3579
    -8.3379  -8.1779  -8.1599  -8.1599  -7.7942  -7.6800  -7.6799  -7.6443
    -7.6254  -7.6046  -7.4845  -7.4845  -7.2176  -7.2083  -7.0769  -7.0769
     1.8092   1.8255   1.8668   1.8668   2.1964   2.1964   2.3274   2.3699
     2.7415   2.8201   2.8848   2.8848   2.8944   3.0779   3.0985   3.4617
     3.4617   3.5319   4.1195   4.1633   4.1633   4.1942   4.4923   4.9387
     4.9387   5.0347   5.0347   5.2184   5.2185   5.2375   5.3951   5.5530
     5.5887   5.5887   5.6707   5.7941   5.8761   5.8761   5.9033   6.1068
     6.1399   6.1973   6.1973   6.2654   6.2654   6.3466   6.4551   6.4736
     6.7487   6.7850   6.8843   6.9292   6.9292   7.0241   7.3210   7.3211
     7.3762   7.3909   7.4374   7.4374   7.5103   7.5320   7.5817   7.5817
     7.9123   7.9123   8.0270   8.0848   8.2063   8.2902   8.2902   8.3088
    10.5906  10.6220  11.2670  11.3027  11.3027  11.4775  12.4961  12.4961
    12.5417  12.5659  12.6926  12.6926  12.9242  13.0363  13.2432  13.2432
    13.4884  13.5952  13.5952  13.6993  13.9454  13.9454  14.1474  14.1940
    15.3224  15.5853  15.5853  15.6378  15.9932  16.2592  16.3432  16.3432
    16.5099  17.4737  17.7552  17.9119  17.9119

          k = 0.0000 0.3277 0.1667 ( 60702 PWs)   bands (ev):

   -65.6006 -65.6003 -65.5999 -65.5997 -65.5995 -65.5993 -65.5989 -65.5986
   -30.1502 -30.1462 -30.1445 -30.1402 -30.0721 -30.0682 -30.0663 -30.0619
   -29.9453 -29.9404 -29.9396 -29.9342 -29.9058 -29.9020 -29.9015 -29.8974
   -29.8704 -29.8653 -29.8628 -29.8569 -29.7953 -29.7896 -29.7896 -29.7847
   -19.7442 -19.7441 -19.7440 -19.7439 -19.7425 -19.7424 -19.7424 -19.7422
   -19.7339 -19.7339 -19.7338 -19.7337 -19.7323 -19.7322 -19.7321 -19.7320
   -19.7287 -19.7286 -19.7285 -19.7284 -19.7260 -19.7258 -19.7257 -19.7255
   -19.7105 -19.7101 -19.7100 -19.7096 -19.7092 -19.7087 -19.7086 -19.7086
   -19.7071 -19.7070 -19.7069 -19.7068 -19.7063 -19.7063 -19.7062 -19.7058
   -19.7023 -19.7022 -19.7020 -19.7019 -19.6992 -19.6992 -19.6990 -19.6988
   -19.6955 -19.6953 -19.6950 -19.6948 -19.6930 -19.6927 -19.6925 -19.6922
    -9.3887  -9.2130  -9.0591  -8.9691  -8.6119  -8.5306  -8.3859  -8.3503
    -8.3245  -8.1669  -8.1610  -8.1338  -7.8188  -7.7094  -7.6956  -7.6748
    -7.6387  -7.6086  -7.5614  -7.4929  -7.3072  -7.2029  -7.1760  -7.0854
     1.8283   1.8598   2.0233   2.0730   2.2018   2.3818   2.4016   2.5501
     2.7567   2.8686   2.8817   2.9227   2.9811   3.0725   3.1570   3.4420
     3.5326   3.5826   4.1358   4.1455   4.1755   4.2581   4.4559   4.7258
     4.7729   4.9231   4.9960   5.0054   5.1640   5.2568   5.3199   5.3656
     5.5232   5.5589   5.6109   5.6993   5.7956   5.8334   5.9879   6.0047
     6.1006   6.1044   6.1236   6.1533   6.1830   6.2733   6.3665   6.4569
     6.7940   6.8420   6.8995   6.9697   7.0637   7.1288   7.1617   7.3401
     7.4011   7.4332   7.4444   7.4799   7.5309   7.5541   7.5890   7.6289
     7.7721   7.8323   8.0468   8.1064   8.2114   8.2748   8.2869   8.3142
    10.7851  10.8414  11.2993  11.3347  11.4290  11.5875  12.4747  12.5343
    12.5755  12.6084  12.7001  12.7566  12.9944  13.0590  13.1742  13.2593
    13.3700  13.5364  13.6050  13.6827  13.8498  13.9488  14.0982  14.1922
    15.3634  15.5630  15.6653  15.7618  16.0572  16.3072  16.3218  16.5318
    16.6538  17.4409  17.6788  17.8125  17.9875

          k = 0.0000 0.3277 0.3333 ( 60719 PWs)   bands (ev):

   -65.6005 -65.6001 -65.6000 -65.5996 -65.5996 -65.5992 -65.5991 -65.5987
   -30.1493 -30.1470 -30.1292 -30.1248 -30.0872 -30.0829 -30.0654 -30.0631
   -29.9444 -29.9416 -29.9386 -29.9355 -29.9052 -29.9029 -29.9008 -29.8984
   -29.8689 -29.8646 -29.8504 -29.8427 -29.8101 -29.8039 -29.7886 -29.7858
   -19.7442 -19.7441 -19.7437 -19.7436 -19.7428 -19.7426 -19.7424 -19.7423
   -19.7339 -19.7339 -19.7335 -19.7334 -19.7326 -19.7324 -19.7322 -19.7321
   -19.7287 -19.7286 -19.7281 -19.7279 -19.7267 -19.7264 -19.7257 -19.7255
   -19.7104 -19.7102 -19.7099 -19.7097 -19.7091 -19.7088 -19.7084 -19.7083
   -19.7074 -19.7073 -19.7070 -19.7067 -19.7065 -19.7064 -19.7061 -19.7059
   -19.7022 -19.7022 -19.7013 -19.7012 -19.6997 -19.6996 -19.6990 -19.6989
   -19.6953 -19.6950 -19.6949 -19.6944 -19.6936 -19.6931 -19.6926 -19.6923
    -9.2878  -9.1093  -9.0609  -8.7697  -8.6969  -8.4111  -8.3810  -8.3209
    -8.2495  -8.1853  -8.0753  -8.0350  -7.9931  -7.8927  -7.7443  -7.7023
    -7.6461  -7.6239  -7.5888  -7.5403  -7.5085  -7.4121  -7.1767  -7.1090
     1.8379   1.8480   2.2150   2.2252   2.6090   2.6963   2.7674   2.8632
     2.9346   2.9925   3.0425   3.1488   3.1792   3.2261   3.3021   3.4198
     3.7025   3.7288   4.0476   4.1203   4.1398   4.2255   4.2932   4.4386
     4.4617   4.6102   4.6659   4.8546   4.9180   5.0245   5.0796   5.0994
     5.3060   5.4036   5.4311   5.5322   5.5899   5.7067   5.7349   5.7816
     5.9029   5.9492   6.0000   6.0983   6.2759   6.3014   6.3099   6.4493
     6.8598   6.9037   6.9310   6.9592   7.1086   7.2597   7.3029   7.3318
     7.4020   7.4325   7.4898   7.5168   7.5299   7.5898   7.6089   7.6888
     7.8373   7.9050   8.0188   8.1092   8.1951   8.2175   8.2821   8.3055
    11.1597  11.2621  11.3507  11.5410  11.7769  11.9652  12.3272  12.4429
    12.6008  12.6696  12.7308  12.8683  12.9202  12.9560  13.1363  13.1608
    13.3227  13.3590  13.5463  13.6512  13.6823  13.9618  13.9686  14.1263
    15.3712  15.4993  15.9061  16.1654  16.2865  16.4489  16.5338  17.0434
    17.0817  17.2883  17.3503  17.9079  17.9494

          k = 0.0000 0.3277-0.5000 ( 60696 PWs)   bands (ev):

   -65.6003 -65.6003 -65.5999 -65.5999 -65.5993 -65.5993 -65.5990 -65.5990
   -30.1481 -30.1481 -30.1081 -30.1081 -30.1038 -30.1038 -30.0642 -30.0642
   -29.9431 -29.9431 -29.9372 -29.9372 -29.9041 -29.9041 -29.8997 -29.8997
   -29.8668 -29.8668 -29.8302 -29.8302 -29.8233 -29.8233 -29.7872 -29.7872
   -19.7442 -19.7442 -19.7432 -19.7432 -19.7431 -19.7431 -19.7423 -19.7423
   -19.7339 -19.7339 -19.7330 -19.7330 -19.7329 -19.7329 -19.7322 -19.7321
   -19.7286 -19.7286 -19.7274 -19.7274 -19.7271 -19.7271 -19.7256 -19.7256
   -19.7103 -19.7103 -19.7098 -19.7098 -19.7089 -19.7089 -19.7079 -19.7079
   -19.7078 -19.7078 -19.7068 -19.7068 -19.7066 -19.7066 -19.7060 -19.7060
   -19.7022 -19.7022 -19.7004 -19.7004 -19.7003 -19.7003 -19.6989 -19.6989
   -19.6952 -19.6952 -19.6943 -19.6943 -19.6938 -19.6938 -19.6925 -19.6925
    -9.1864  -9.1864  -8.8588  -8.8588  -8.5337  -8.5337  -8.2339  -8.2339
    -8.2230  -8.2230  -8.1353  -8.1353  -7.8671  -7.8671  -7.8327  -7.8327
    -7.6694  -7.6694  -7.6012  -7.6011  -7.5386  -7.5386  -7.1422  -7.1422
     1.8413   1.8413   2.2306   2.2306   2.7507   2.7507   2.9200   2.9200
     3.2773   3.2773   3.4050   3.4050   3.4841   3.4841   3.6544   3.6544
     3.7633   3.7633   3.7945   3.7945   4.0628   4.0628   4.1691   4.1691
     4.3435   4.3435   4.4784   4.4784   4.7453   4.7453   4.8410   4.8410
     5.3517   5.3517   5.4348   5.4348   5.5927   5.5927   5.6765   5.6765
     5.8201   5.8201   6.0743   6.0743   6.2967   6.2967   6.3818   6.3818
     6.8792   6.8792   7.0097   7.0097   7.1499   7.1499   7.2602   7.2602
     7.4626   7.4626   7.5018   7.5018   7.5454   7.5454   7.8517   7.8517
     7.9329   7.9329   8.0805   8.0805   8.1120   8.1120   8.2864   8.2864
    11.2737  11.2737  11.8547  11.8547  12.0610  12.0610  12.2479  12.2479
    12.5071  12.5071  12.6968  12.6968  12.9758  12.9758  13.1397  13.1397
    13.3459  13.3459  13.4358  13.4358  13.8048  13.8048  14.0169  14.0169
    15.4139  15.4139  16.0873  16.0873  16.8004  16.8004  16.9805  16.9805
    17.0767  17.0767  17.7732  17.7732  18.0706

          k = 0.0000-0.4915 0.0000 ( 60690 PWs)   bands (ev):

   -65.6005 -65.6005 -65.5997 -65.5997 -65.5995 -65.5995 -65.5987 -65.5987
   -30.1503 -30.1503 -30.1458 -30.1458 -30.0664 -30.0664 -30.0620 -30.0619
   -29.9259 -29.9259 -29.9234 -29.9234 -29.9184 -29.9184 -29.9156 -29.9156
   -29.8709 -29.8709 -29.8622 -29.8622 -29.7899 -29.7899 -29.7843 -29.7843
   -19.7442 -19.7442 -19.7441 -19.7441 -19.7424 -19.7424 -19.7422 -19.7422
   -19.7339 -19.7339 -19.7339 -19.7339 -19.7322 -19.7322 -19.7320 -19.7320
   -19.7287 -19.7287 -19.7285 -19.7285 -19.7258 -19.7258 -19.7255 -19.7255
   -19.7096 -19.7096 -19.7091 -19.7091 -19.7088 -19.7088 -19.7083 -19.7083
   -19.7079 -19.7079 -19.7076 -19.7076 -19.7064 -19.7064 -19.7062 -19.7062
   -19.7023 -19.7023 -19.7022 -19.7022 -19.6991 -19.6990 -19.6989 -19.6989
   -19.6955 -19.6955 -19.6949 -19.6949 -19.6928 -19.6928 -19.6922 -19.6922
    -9.3388  -9.3388  -9.0160  -9.0160  -8.5569  -8.5569  -8.3682  -8.3682
    -8.0438  -8.0438  -7.9877  -7.9877  -7.9611  -7.9611  -7.9298  -7.9298
    -7.6436  -7.6436  -7.4945  -7.4945  -7.2134  -7.2134  -7.0774  -7.0774
     1.8162   1.8162   1.8667   1.8667   2.1998   2.1998   2.3629   2.3630
     2.8560   2.8560   3.2005   3.2005   3.2691   3.2691   3.7418   3.7419
     3.7972   3.7972   3.8537   3.8538   4.0197   4.0197   4.3183   4.3183
     4.3254   4.3255   5.0046   5.0046   5.1688   5.1688   5.5538   5.5538
     5.6813   5.6813   5.7118   5.7118   5.7647   5.7647   5.9602   5.9602
     6.2031   6.2031   6.2448   6.2448   6.2653   6.2653   6.4546   6.4546
     6.7549   6.7549   6.8775   6.8776   6.9463   6.9463   7.3420   7.3420
     7.3798   7.3798   7.4075   7.4075   7.7131   7.7131   7.7732   7.7732
     7.9489   7.9489   8.0147   8.0147   8.1567   8.1567   8.1660   8.1660
    10.6184  10.6184  11.6655  11.6655  11.7309  11.7309  12.2358  12.2358
    12.3431  12.3432  12.6841  12.6841  12.8682  12.8682  13.2431  13.2431
    13.6067  13.6067  13.6834  13.6834  13.7510  13.7510  14.1027  14.1027
    15.5168  15.5168  15.6724  15.6724  16.1735  16.1735  16.3537  16.3537
    17.0565  17.0566  18.3828  18.3828  18.5205

          k = 0.0000-0.4915 0.1667 ( 60700 PWs)   bands (ev):

   -65.6005 -65.6004 -65.5997 -65.5996 -65.5996 -65.5995 -65.5988 -65.5988
   -30.1500 -30.1461 -30.1446 -30.1402 -30.0719 -30.0675 -30.0661 -30.0622
   -29.9258 -29.9254 -29.9237 -29.9230 -29.9189 -29.9183 -29.9162 -29.9158
   -29.8704 -29.8654 -29.8629 -29.8570 -29.7953 -29.7896 -29.7895 -29.7847
   -19.7442 -19.7441 -19.7441 -19.7439 -19.7425 -19.7424 -19.7423 -19.7423
   -19.7339 -19.7339 -19.7338 -19.7337 -19.7323 -19.7322 -19.7321 -19.7320
   -19.7287 -19.7286 -19.7285 -19.7284 -19.7260 -19.7258 -19.7257 -19.7255
   -19.7096 -19.7095 -19.7091 -19.7090 -19.7088 -19.7087 -19.7083 -19.7082
   -19.7080 -19.7080 -19.7076 -19.7075 -19.7065 -19.7064 -19.7063 -19.7062
   -19.7023 -19.7022 -19.7020 -19.7019 -19.6992 -19.6991 -19.6990 -19.6989
   -19.6954 -19.6954 -19.6950 -19.6948 -19.6930 -19.6927 -19.6925 -19.6923
    -9.3087  -9.2716  -9.0316  -8.9385  -8.5852  -8.4936  -8.3499  -8.3239
    -8.0531  -8.0524  -7.9979  -7.9806  -7.9678  -7.9553  -7.9334  -7.9167
    -7.7292  -7.6347  -7.5925  -7.5029  -7.3077  -7.2035  -7.1763  -7.0859
     1.8279   1.8596   2.0221   2.0740   2.2051   2.4077   2.4097   2.5678
     2.9361   2.9455   3.1984   3.2005   3.3050   3.3286   3.7021   3.7331
     3.7451   3.7925   3.8626   3.9481   4.0396   4.1007   4.2932   4.3424
     4.3430   4.3612   4.7544   4.7634   5.0024   5.0915   5.4461   5.4497
     5.5190   5.5355   5.6172   5.6750   5.6889   5.8173   5.8893   5.9654
     6.0534   6.1039   6.1140   6.1315   6.1803   6.2520   6.3380   6.4545
     6.8006   6.8333   6.8557   6.9723   7.0572   7.1031   7.1698   7.3825
     7.3847   7.4327   7.4859   7.5742   7.6563   7.7214   7.7222   7.7393
     7.8647   7.8971   8.0254   8.0511   8.1474   8.1560   8.1771   8.1852
    10.8062  10.8642  11.6664  11.7343  11.7577  11.8557  12.2329  12.3130
    12.3456  12.4280  12.6469  12.7419  12.9385  12.9611  13.1312  13.2605
    13.4650  13.5948  13.5965  13.6499  13.6936  13.7561  14.0353  14.1239
    15.4755  15.6212  15.6510  15.8802  16.2359  16.2866  16.3832  16.5348
    17.1008  17.1150  18.1802  18.3523  18.4392

          k = 0.0000-0.4915 0.3333 ( 60674 PWs)   bands (ev):

   -65.6003 -65.6003 -65.5999 -65.5998 -65.5994 -65.5993 -65.5989 -65.5989
   -30.1492 -30.1470 -30.1291 -30.1247 -30.0871 -30.0827 -30.0652 -30.0630
   -29.9256 -29.9244 -29.9240 -29.9217 -29.9204 -29.9181 -29.9177 -29.9165
   -29.8690 -29.8646 -29.8504 -29.8428 -29.8101 -29.8039 -29.7886 -29.7858
   -19.7442 -19.7441 -19.7437 -19.7436 -19.7428 -19.7426 -19.7424 -19.7423
   -19.7339 -19.7339 -19.7335 -19.7334 -19.7326 -19.7324 -19.7322 -19.7321
   -19.7287 -19.7286 -19.7281 -19.7279 -19.7267 -19.7263 -19.7257 -19.7256
   -19.7095 -19.7093 -19.7092 -19.7089 -19.7088 -19.7086 -19.7083 -19.7083
   -19.7080 -19.7078 -19.7077 -19.7074 -19.7069 -19.7067 -19.7064 -19.7062
   -19.7022 -19.7022 -19.7013 -19.7012 -19.6997 -19.6996 -19.6990 -19.6989
   -19.6953 -19.6950 -19.6950 -19.6944 -19.6936 -19.6931 -19.6926 -19.6923
    -9.2343  -9.0957  -9.0718  -8.7213  -8.6805  -8.3335  -8.2894  -8.2041
    -8.1422  -8.0815  -8.0228  -7.9788  -7.9631  -7.9590  -7.9442  -7.8936
    -7.8606  -7.7849  -7.6161  -7.5411  -7.5258  -7.4161  -7.1772  -7.1094
     1.8378   1.8479   2.2192   2.2270   2.6446   2.8513   2.9312   3.1126
     3.1617   3.1834   3.2218   3.2251   3.4170   3.4753   3.5920   3.7000
     3.7391   3.7726   3.8922   3.9379   4.0913   4.2323   4.2514   4.2859
     4.3117   4.3833   4.4081   4.4343   4.7079   4.8348   4.9466   5.0783
     5.1006   5.2892   5.3587   5.3880   5.5529   5.6798   5.6904   5.7019
     5.8020   5.9375   5.9505   6.0009   6.2860   6.2893   6.3260   6.4564
     6.8778   6.8804   6.9233   6.9548   7.1247   7.2939   7.3193   7.3475
     7.4733   7.5010   7.5127   7.6276   7.6534   7.7205   7.7294   7.7457
     7.9161   7.9486   8.0021   8.0795   8.1319   8.1478   8.1729   8.1838
    11.2550  11.4019  11.6767  11.7582  12.0369  12.1762  12.2172  12.3511
    12.4422  12.5231  12.6329  12.7589  12.9090  12.9472  13.0368  13.0999
    13.3140  13.3738  13.3833  13.5037  13.7350  13.7799  13.9346  14.0408
    15.4149  15.5572  15.9334  16.2537  16.4320  16.6584  16.8500  17.0772
    17.2342  17.2968  17.8333  17.9341  18.1623

          k = 0.0000-0.4915-0.5000 ( 60748 PWs)   bands (ev):

   -65.6001 -65.6001 -65.6000 -65.6000 -65.5992 -65.5992 -65.5991 -65.5991
   -30.1481 -30.1481 -30.1081 -30.1080 -30.1037 -30.1037 -30.0641 -30.0641
   -29.9250 -29.9250 -29.9223 -29.9223 -29.9199 -29.9199 -29.9173 -29.9173
   -29.8669 -29.8669 -29.8302 -29.8302 -29.8234 -29.8233 -29.7872 -29.7872
   -19.7442 -19.7442 -19.7432 -19.7432 -19.7431 -19.7431 -19.7424 -19.7423
   -19.7339 -19.7339 -19.7330 -19.7330 -19.7329 -19.7329 -19.7322 -19.7321
   -19.7286 -19.7286 -19.7274 -19.7274 -19.7271 -19.7271 -19.7256 -19.7256
   -19.7094 -19.7094 -19.7091 -19.7091 -19.7085 -19.7085 -19.7085 -19.7085
   -19.7079 -19.7079 -19.7074 -19.7074 -19.7071 -19.7071 -19.7063 -19.7063
   -19.7022 -19.7022 -19.7004 -19.7004 -19.7003 -19.7003 -19.6990 -19.6989
   -19.6952 -19.6952 -19.6943 -19.6943 -19.6938 -19.6938 -19.6925 -19.6925
    -9.1490  -9.1490  -8.8612  -8.8612  -8.4192  -8.4191  -8.1764  -8.1764
    -8.1558  -8.1558  -8.0652  -8.0652  -7.9468  -7.9468  -7.9195  -7.9195
    -7.7905  -7.7905  -7.7089  -7.7089  -7.5502  -7.5502  -7.1426  -7.1426
     1.8413   1.8413   2.2345   2.2345   3.1166   3.1166   3.3856   3.3856
     3.4512   3.4512   3.4808   3.4808   3.5248   3.5248   3.6339   3.6339
     3.7578   3.7578   3.8269   3.8269   3.9282   3.9282   4.0155   4.0155
     4.2741   4.2741   4.3857   4.3857   4.7341   4.7342   4.8019   4.8019
     4.8881   4.8881   4.9828   4.9828   5.5937   5.5937   5.7046   5.7046
     5.7575   5.7575   5.9915   5.9915   6.3236   6.3236   6.3736   6.3736
     6.8779   6.8779   7.0046   7.0046   7.1690   7.1690   7.2837   7.2838
     7.5546   7.5546   7.6126   7.6126   7.7445   7.7445   7.8251   7.8251
     7.9335   7.9335   8.0767   8.0767   8.1086   8.1086   8.1574   8.1574
    11.5922  11.5922  11.9738  11.9738  12.0108  12.0108  12.3688  12.3688
    12.4988  12.4988  12.6580  12.6580  12.8880  12.8880  13.0143  13.0143
    13.1478  13.1478  13.3896  13.3896  13.8281  13.8281  13.8691  13.8691
    15.4547  15.4547  16.1408  16.1408  17.0963  17.0963  17.3908  17.3908
    17.4835  17.4835  17.7133  17.7133  17.8309

          k = 0.1667 0.0000 0.1667 ( 60696 PWs)   bands (ev):

   -65.6008 -65.6000 -65.6000 -65.6000 -65.5992 -65.5992 -65.5992 -65.5984
   -30.1463 -30.1428 -30.1407 -30.1406 -30.0726 -30.0723 -30.0717 -30.0649
   -29.9645 -29.9585 -29.9584 -29.9524 -29.8860 -29.8829 -29.8827 -29.8787
   -29.8654 -29.8639 -29.8574 -29.8572 -29.7950 -29.7949 -29.7909 -29.7891
   -19.7441 -19.7440 -19.7440 -19.7439 -19.7425 -19.7425 -19.7425 -19.7423
   -19.7338 -19.7338 -19.7338 -19.7337 -19.7323 -19.7323 -19.7322 -19.7321
   -19.7287 -19.7285 -19.7284 -19.7284 -19.7260 -19.7260 -19.7259 -19.7256
   -19.7118 -19.7114 -19.7114 -19.7111 -19.7090 -19.7087 -19.7086 -19.7086
   -19.7068 -19.7068 -19.7068 -19.7064 -19.7057 -19.7051 -19.7051 -19.7045
   -19.7021 -19.7019 -19.7018 -19.7017 -19.6994 -19.6992 -19.6992 -19.6987
   -19.6955 -19.6951 -19.6948 -19.6948 -19.6930 -19.6929 -19.6927 -19.6923
    -9.4644  -9.1051  -9.0909  -9.0870  -8.6589  -8.6262  -8.6194  -8.4830
    -8.2884  -8.2298  -8.2258  -8.2026  -7.7879  -7.7286  -7.6345  -7.6305
    -7.3560  -7.3178  -7.3041  -7.2806  -7.2773  -7.2375  -7.1880  -7.1798
     1.9461   1.9898   1.9942   2.0593   2.0880   2.1468   2.1613   2.1618
     2.4524   2.4602   2.5944   2.7266   2.8860   2.9746   3.1104   3.1537
     3.1969   3.2047   4.4394   4.5157   4.6162   4.6304   4.7660   4.8290
     4.8958   5.0214   5.0509   5.1304   5.2739   5.3535   5.5423   5.5668
     5.7543   5.7605   5.8376   5.8916   5.9007   5.9726   6.0244   6.0952
     6.0974   6.1372   6.1467   6.2012   6.2474   6.3038   6.3324   6.6264
     6.6276   6.7927   6.8731   6.9004   7.0765   7.0816   7.2023   7.2381
     7.2534   7.2549   7.3052   7.3648   7.4174   7.5045   7.5968   7.6184
     7.7536   7.7612   8.0828   8.1199   8.2284   8.3385   8.3827   8.5325
    10.7147  10.7673  10.9467  10.9511  11.1784  11.2140  12.5686  12.5880
    12.6049  12.6973  12.8216  12.9547  13.1595  13.2609  13.2693  13.4963
    13.5767  13.5955  13.6973  13.7032  14.0295  14.0654  14.2307  14.2706
    15.1850  15.3845  15.3848  15.4714  15.7499  16.1998  16.2270  16.4369
    16.4435  17.2417  17.2903  17.3648  18.1896

          k = 0.1667 0.0000 0.3333 ( 60756 PWs)   bands (ev):

   -65.6006 -65.6002 -65.5998 -65.5998 -65.5994 -65.5994 -65.5991 -65.5986
   -30.1439 -30.1415 -30.1288 -30.1253 -30.0873 -30.0841 -30.0714 -30.0685
   -29.9635 -29.9600 -29.9574 -29.9539 -29.8854 -29.8835 -29.8820 -29.8796
   -29.8633 -29.8590 -29.8497 -29.8432 -29.8097 -29.8044 -29.7940 -29.7910
   -19.7441 -19.7440 -19.7437 -19.7436 -19.7428 -19.7427 -19.7425 -19.7424
   -19.7338 -19.7338 -19.7335 -19.7334 -19.7326 -19.7325 -19.7323 -19.7322
   -19.7285 -19.7284 -19.7281 -19.7279 -19.7266 -19.7264 -19.7259 -19.7258
   -19.7117 -19.7115 -19.7114 -19.7112 -19.7089 -19.7087 -19.7084 -19.7082
   -19.7073 -19.7072 -19.7068 -19.7066 -19.7055 -19.7052 -19.7050 -19.7046
   -19.7020 -19.7019 -19.7012 -19.7012 -19.6997 -19.6996 -19.6991 -19.6989
   -19.6953 -19.6949 -19.6948 -19.6945 -19.6935 -19.6932 -19.6928 -19.6925
    -9.3546  -9.1444  -8.9681  -8.9389  -8.7028  -8.6796  -8.4806  -8.4352
    -8.2689  -8.2195  -8.0872  -8.0745  -7.9829  -7.8846  -7.7431  -7.6524
    -7.5474  -7.4394  -7.3407  -7.3102  -7.2821  -7.2663  -7.2501  -7.2048
     1.9707   1.9834   2.0526   2.0561   2.1610   2.1656   2.4253   2.4738
     2.7091   2.9090   2.9904   3.0104   3.1414   3.1658   3.2479   3.3523
     3.3819   3.4455   4.0880   4.1959   4.3373   4.3566   4.3944   4.6659
     4.7612   4.8611   4.9007   5.0102   5.0937   5.1575   5.2254   5.3398
     5.4684   5.5758   5.6637   5.7029   5.7405   5.8636   5.9239   6.0467
     6.0644   6.1089   6.1108   6.1512   6.3004   6.3293   6.4201   6.6259
     6.6896   6.7811   6.8494   6.9219   6.9696   7.0141   7.1655   7.2010
     7.2313   7.3105   7.3928   7.4598   7.5281   7.5923   7.6142   7.6953
     7.7737   7.8368   8.0549   8.0971   8.1832   8.2674   8.4073   8.4956
    10.8404  10.8757  11.2716  11.3762  11.5684  11.7745  12.3332  12.3881
    12.5946  12.6783  12.7610  12.9910  12.9989  13.2454  13.3289  13.4271
    13.5558  13.6055  13.6727  13.7433  13.9863  14.0076  14.1366  14.2098
    15.2652  15.3653  15.5779  15.6765  16.0481  16.0884  16.2587  16.4773
    16.9286  17.0118  17.6783  17.7215  17.8168

          k = 0.1667 0.0000-0.5000 ( 60788 PWs)   bands (ev):

   -65.6004 -65.6004 -65.5996 -65.5996 -65.5996 -65.5996 -65.5988 -65.5988
   -30.1427 -30.1427 -30.1080 -30.1080 -30.1045 -30.1045 -30.0701 -30.0701
   -29.9619 -29.9619 -29.9558 -29.9558 -29.8845 -29.8845 -29.8808 -29.8808
   -29.8612 -29.8612 -29.8297 -29.8297 -29.8238 -29.8238 -29.7925 -29.7925
   -19.7440 -19.7440 -19.7432 -19.7432 -19.7431 -19.7431 -19.7424 -19.7424
   -19.7338 -19.7338 -19.7331 -19.7330 -19.7329 -19.7329 -19.7323 -19.7323
   -19.7285 -19.7285 -19.7274 -19.7274 -19.7272 -19.7272 -19.7258 -19.7258
   -19.7116 -19.7116 -19.7113 -19.7113 -19.7088 -19.7088 -19.7079 -19.7079
   -19.7077 -19.7077 -19.7067 -19.7067 -19.7053 -19.7053 -19.7048 -19.7048
   -19.7019 -19.7019 -19.7004 -19.7004 -19.7004 -19.7003 -19.6990 -19.6990
   -19.6951 -19.6951 -19.6942 -19.6942 -19.6939 -19.6939 -19.6927 -19.6927
    -9.2357  -9.2357  -8.8025  -8.8025  -8.7878  -8.7878  -8.3500  -8.3500
    -8.2505  -8.2505  -8.1139  -8.1138  -7.8695  -7.8695  -7.8167  -7.8167
    -7.6354  -7.6353  -7.3265  -7.3265  -7.2674  -7.2674  -7.2356  -7.2356
     1.9746   1.9746   2.0556   2.0556   2.1665   2.1665   2.4789   2.4789
     3.0549   3.0549   3.3907   3.3908   3.5039   3.5040   3.6169   3.6169
     3.6923   3.6923   3.8081   3.8081   4.0219   4.0219   4.1269   4.1269
     4.3815   4.3815   4.7960   4.7960   5.0561   5.0561   5.3552   5.3552
     5.4108   5.4108   5.5962   5.5962   5.7741   5.7741   5.9373   5.9373
     6.0772   6.0772   6.1234   6.1234   6.3368   6.3368   6.5577   6.5577
     6.7276   6.7276   6.8577   6.8577   6.9234   6.9234   7.1765   7.1765
     7.3300   7.3300   7.4114   7.4114   7.5076   7.5076   7.8827   7.8828
     7.9439   7.9439   8.0314   8.0314   8.0991   8.0991   8.4447   8.4447
    10.8759  10.8759  11.8136  11.8136  11.9496  11.9496  12.1002  12.1002
    12.4356  12.4356  12.7491  12.7491  13.2138  13.2138  13.3788  13.3788
    13.5063  13.5063  13.8098  13.8098  13.8632  13.8632  14.1447  14.1448
    15.3280  15.3280  15.8439  15.8439  15.9764  15.9764  16.5713  16.5713
    16.9929  16.9929  17.8605  17.8605  18.3206

          k = 0.1667 0.1638 0.1667 ( 60730 PWs)   bands (ev):

   -65.6007 -65.6001 -65.5999 -65.5999 -65.5993 -65.5993 -65.5991 -65.5985
   -30.1460 -30.1430 -30.1406 -30.1406 -30.0723 -30.0721 -30.0711 -30.0652
   -29.9593 -29.9536 -29.9535 -29.9477 -29.8912 -29.8879 -29.8878 -29.8839
   -29.8654 -29.8640 -29.8575 -29.8573 -29.7950 -29.7949 -29.7907 -29.7892
   -19.7441 -19.7440 -19.7440 -19.7439 -19.7425 -19.7425 -19.7424 -19.7423
   -19.7338 -19.7338 -19.7338 -19.7337 -19.7323 -19.7323 -19.7322 -19.7321
   -19.7286 -19.7285 -19.7284 -19.7284 -19.7260 -19.7260 -19.7259 -19.7256
   -19.7114 -19.7111 -19.7110 -19.7107 -19.7090 -19.7087 -19.7086 -19.7086
   -19.7069 -19.7068 -19.7068 -19.7064 -19.7060 -19.7054 -19.7054 -19.7049
   -19.7021 -19.7019 -19.7019 -19.7018 -19.6994 -19.6992 -19.6992 -19.6987
   -19.6955 -19.6951 -19.6948 -19.6948 -19.6930 -19.6929 -19.6927 -19.6923
    -9.4280  -9.1193  -9.0560  -9.0518  -8.6098  -8.6014  -8.5801  -8.4486
    -8.2891  -8.2144  -8.2107  -8.1936  -7.7910  -7.7297  -7.6400  -7.6328
    -7.4480  -7.3951  -7.3950  -7.3486  -7.3011  -7.2876  -7.1851  -7.1805
     2.0089   2.0441   2.0520   2.0854   2.2394   2.2826   2.2849   2.2949
     2.4817   2.4919   2.5947   2.7641   2.9439   3.0124   3.1002   3.2451
     3.2804   3.2955   4.3940   4.4413   4.5662   4.5948   4.6999   4.8110
     4.8134   4.8828   4.8891   5.1511   5.1861   5.2288   5.5045   5.5085
     5.5840   5.7400   5.7994   5.8510   5.8647   5.9253   5.9387   6.0044
     6.0357   6.0996   6.1010   6.1696   6.2028   6.2874   6.3276   6.4858
     6.7568   6.8070   6.9337   7.0045   7.0736   7.0801   7.2045   7.2187
     7.2586   7.2767   7.3700   7.3980   7.4521   7.4873   7.6095   7.6224
     7.7521   7.7579   8.0788   8.1169   8.2437   8.3302   8.3673   8.4766
    10.8093  10.8649  11.0718  11.0892  11.2156  11.2956  12.5781  12.5796
    12.6338  12.7073  12.8267  12.9583  13.0392  13.2490  13.2526  13.4185
    13.4416  13.5066  13.6631  13.6952  14.0219  14.0236  14.2063  14.2345
    15.2742  15.4891  15.5006  15.6334  15.7362  16.2065  16.4236  16.4613
    16.6009  17.1371  17.3895  17.3926  18.1793

          k = 0.1667 0.1638 0.3333 ( 60743 PWs)   bands (ev):

   -65.6006 -65.6001 -65.5999 -65.5998 -65.5994 -65.5993 -65.5991 -65.5987
   -30.1438 -30.1415 -30.1288 -30.1252 -30.0872 -30.0838 -30.0712 -30.0685
   -29.9583 -29.9550 -29.9526 -29.9492 -29.8906 -29.8886 -29.8871 -29.8848
   -29.8634 -29.8591 -29.8498 -29.8432 -29.8097 -29.8044 -29.7940 -29.7911
   -19.7441 -19.7440 -19.7437 -19.7436 -19.7428 -19.7427 -19.7425 -19.7424
   -19.7338 -19.7338 -19.7335 -19.7334 -19.7326 -19.7325 -19.7323 -19.7322
   -19.7285 -19.7284 -19.7281 -19.7279 -19.7266 -19.7264 -19.7259 -19.7258
   -19.7113 -19.7111 -19.7110 -19.7108 -19.7089 -19.7087 -19.7084 -19.7082
   -19.7073 -19.7072 -19.7068 -19.7066 -19.7059 -19.7055 -19.7053 -19.7050
   -19.7020 -19.7019 -19.7012 -19.7012 -19.6997 -19.6996 -19.6991 -19.6989
   -19.6953 -19.6949 -19.6948 -19.6945 -19.6935 -19.6932 -19.6928 -19.6925
    -9.3164  -9.1083  -8.9797  -8.8900  -8.6707  -8.6256  -8.4663  -8.4008
    -8.2500  -8.2175  -8.0849  -8.0705  -7.9829  -7.8854  -7.7465  -7.6558
    -7.5529  -7.4627  -7.4242  -7.3994  -7.3804  -7.3474  -7.2691  -7.2044
     2.0366   2.0507   2.2415   2.2563   2.2872   2.3025   2.4386   2.4980
     2.7111   2.9193   3.0096   3.0738   3.1539   3.2123   3.2871   3.3679
     3.4559   3.5126   4.0924   4.2162   4.3073   4.3658   4.3904   4.6713
     4.7186   4.7832   4.8297   4.9044   4.9657   5.0580   5.1746   5.2502
     5.3898   5.4410   5.5203   5.5735   5.7213   5.7520   5.8341   5.9186
     6.0174   6.0511   6.0836   6.1123   6.1734   6.2469   6.3524   6.4573
     6.7941   6.8303   6.9669   7.0086   7.0491   7.1084   7.1976   7.2447
     7.2831   7.2965   7.4224   7.4837   7.5395   7.5968   7.6245   7.6968
     7.7858   7.8579   8.0531   8.0977   8.2052   8.2596   8.3808   8.4472
    10.9747  11.0071  11.3328  11.4856  11.5864  11.8109  12.3542  12.4222
    12.6168  12.7015  12.7851  12.9793  13.0128  13.1187  13.2680  13.3489
    13.4783  13.5283  13.5839  13.7021  13.9135  13.9487  14.1004  14.1856
    15.3835  15.4803  15.7091  15.8565  16.0502  16.2808  16.4551  16.5254
    16.9578  17.0570  17.5200  17.7922  17.8203

          k = 0.1667 0.1638-0.5000 ( 60730 PWs)   bands (ev):

   -65.6003 -65.6003 -65.5997 -65.5997 -65.5995 -65.5995 -65.5989 -65.5989
   -30.1426 -30.1426 -30.1079 -30.1079 -30.1043 -30.1043 -30.0700 -30.0700
   -29.9568 -29.9568 -29.9510 -29.9510 -29.8897 -29.8897 -29.8860 -29.8860
   -29.8613 -29.8613 -29.8297 -29.8297 -29.8238 -29.8238 -29.7926 -29.7925
   -19.7440 -19.7440 -19.7432 -19.7432 -19.7431 -19.7431 -19.7424 -19.7424
   -19.7338 -19.7338 -19.7331 -19.7330 -19.7329 -19.7329 -19.7323 -19.7323
   -19.7285 -19.7285 -19.7274 -19.7274 -19.7272 -19.7272 -19.7259 -19.7259
   -19.7112 -19.7112 -19.7109 -19.7109 -19.7088 -19.7088 -19.7079 -19.7079
   -19.7077 -19.7077 -19.7067 -19.7067 -19.7057 -19.7057 -19.7052 -19.7052
   -19.7019 -19.7019 -19.7004 -19.7004 -19.7004 -19.7003 -19.6990 -19.6990
   -19.6951 -19.6951 -19.6943 -19.6942 -19.6939 -19.6938 -19.6927 -19.6927
    -9.1980  -9.1980  -8.8022  -8.8022  -8.7226  -8.7226  -8.3209  -8.3209
    -8.2475  -8.2475  -8.1135  -8.1134  -7.8715  -7.8715  -7.8195  -7.8195
    -7.6369  -7.6369  -7.4197  -7.4197  -7.3695  -7.3695  -7.2360  -7.2360
     2.0419   2.0419   2.2578   2.2578   2.2944   2.2944   2.5029   2.5029
     3.1299   3.1299   3.4015   3.4015   3.5053   3.5053   3.6439   3.6439
     3.7136   3.7136   3.8177   3.8177   4.0425   4.0425   4.1619   4.1620
     4.3839   4.3839   4.7647   4.7648   4.8752   4.8752   5.2244   5.2244
     5.3329   5.3329   5.4844   5.4844   5.5948   5.5948   5.8965   5.8965
     5.9979   5.9979   6.0746   6.0746   6.1885   6.1885   6.4037   6.4037
     6.8289   6.8289   6.9876   6.9876   7.0816   7.0816   7.2112   7.2112
     7.3213   7.3213   7.4118   7.4118   7.5547   7.5547   7.8827   7.8827
     7.9412   7.9412   8.0552   8.0552   8.1051   8.1051   8.4071   8.4071
    11.0160  11.0160  11.8483  11.8483  12.0189  12.0189  12.1177  12.1178
    12.4551  12.4551  12.7812  12.7812  13.1454  13.1454  13.3021  13.3021
    13.4625  13.4625  13.6942  13.6942  13.7965  13.7965  14.1115  14.1115
    15.4422  15.4422  15.9466  15.9466  16.2543  16.2543  16.6212  16.6212
    17.0150  17.0150  17.8450  17.8451  18.2341

          k = 0.1667 0.3277 0.1667 ( 60713 PWs)   bands (ev):

   -65.6006 -65.6002 -65.5998 -65.5998 -65.5994 -65.5994 -65.5990 -65.5986
   -30.1453 -30.1435 -30.1405 -30.1405 -30.0718 -30.0718 -30.0696 -30.0662
   -29.9450 -29.9401 -29.9400 -29.9347 -29.9056 -29.9019 -29.9018 -29.8978
   -29.8653 -29.8644 -29.8576 -29.8575 -29.7950 -29.7950 -29.7904 -29.7895
   -19.7441 -19.7440 -19.7440 -19.7439 -19.7425 -19.7425 -19.7424 -19.7423
   -19.7338 -19.7338 -19.7337 -19.7337 -19.7323 -19.7323 -19.7321 -19.7321
   -19.7286 -19.7285 -19.7284 -19.7284 -19.7260 -19.7260 -19.7258 -19.7257
   -19.7104 -19.7100 -19.7100 -19.7096 -19.7091 -19.7086 -19.7086 -19.7086
   -19.7072 -19.7071 -19.7070 -19.7068 -19.7064 -19.7063 -19.7062 -19.7059
   -19.7021 -19.7019 -19.7019 -19.7019 -19.6992 -19.6992 -19.6992 -19.6989
   -19.6954 -19.6952 -19.6948 -19.6948 -19.6930 -19.6930 -19.6926 -19.6924
    -9.3388  -9.1640  -8.9872  -8.9842  -8.5586  -8.5524  -8.3672  -8.3600
    -8.2926  -8.1470  -8.1453  -8.1368  -7.8311  -7.7388  -7.7087  -7.6868
    -7.6592  -7.6387  -7.5802  -7.5584  -7.3013  -7.2930  -7.1845  -7.1821
     2.0379   2.0534   2.0754   2.0821   2.4077   2.4090   2.5138   2.5921
     2.7697   2.8664   2.8952   2.9999   3.0454   3.0993   3.2106   3.5123
     3.5164   3.6286   4.1531   4.1535   4.1914   4.2832   4.4305   4.6961
     4.7672   4.8155   4.8252   4.9530   5.0142   5.2374   5.2462   5.3424
     5.3443   5.4151   5.5192   5.5807   5.6851   5.7716   5.9040   5.9087
     6.0268   6.0488   6.0708   6.0948   6.1661   6.1698   6.2207   6.3405
     6.8457   6.9267   6.9422   7.0392   7.1278   7.1448   7.2540   7.2766
     7.4321   7.4557   7.4733   7.5097   7.5483   7.5650   7.6223   7.6412
     7.7683   7.7789   8.0596   8.1067   8.2097   8.2618   8.2872   8.3146
    10.9718  10.9872  11.4052  11.4444  11.4555  11.6557  12.5159  12.5340
    12.6040  12.6510  12.7076  12.7905  13.0440  13.0735  13.1986  13.2130
    13.3397  13.4167  13.5997  13.6645  13.8382  13.8591  14.0882  14.1403
    15.4448  15.6661  15.7333  15.7736  16.1195  16.3646  16.4913  16.5237
    16.7710  17.4102  17.7122  17.7689  17.8985

          k = 0.1667 0.3277 0.3333 ( 60720 PWs)   bands (ev):

   -65.6004 -65.6000 -65.6000 -65.5996 -65.5996 -65.5992 -65.5992 -65.5988
   -30.1436 -30.1413 -30.1288 -30.1251 -30.0869 -30.0833 -30.0709 -30.0685
   -29.9442 -29.9413 -29.9391 -29.9360 -29.9050 -29.9027 -29.9011 -29.8988
   -29.8635 -29.8593 -29.8499 -29.8433 -29.8097 -29.8043 -29.7940 -29.7911
   -19.7441 -19.7440 -19.7437 -19.7436 -19.7428 -19.7427 -19.7425 -19.7424
   -19.7338 -19.7338 -19.7335 -19.7334 -19.7326 -19.7325 -19.7323 -19.7322
   -19.7285 -19.7284 -19.7281 -19.7279 -19.7266 -19.7264 -19.7260 -19.7258
   -19.7104 -19.7101 -19.7099 -19.7097 -19.7090 -19.7087 -19.7083 -19.7083
   -19.7074 -19.7074 -19.7070 -19.7068 -19.7066 -19.7064 -19.7062 -19.7060
   -19.7020 -19.7019 -19.7013 -19.7012 -19.6997 -19.6996 -19.6991 -19.6990
   -19.6952 -19.6949 -19.6949 -19.6945 -19.6936 -19.6931 -19.6928 -19.6926
    -9.2265  -9.0391  -9.0128  -8.7873  -8.6412  -8.4288  -8.4002  -8.3055
    -8.2164  -8.1640  -8.0668  -8.0467  -7.9889  -7.8958  -7.7807  -7.7110
    -7.6639  -7.6463  -7.6288  -7.5864  -7.5200  -7.4175  -7.2711  -7.2052
     2.0581   2.0761   2.4037   2.4303   2.6141   2.6988   2.7797   2.8543
     2.9247   2.9842   3.0434   3.1774   3.2442   3.3237   3.3649   3.4952
     3.6897   3.7620   4.0586   4.1550   4.1659   4.2176   4.3456   4.4409
     4.4812   4.5974   4.6817   4.7613   4.9170   4.9824   5.0081   5.0741
     5.1741   5.2918   5.3167   5.4121   5.4375   5.4874   5.6010   5.6749
     5.7229   5.8207   5.8521   6.0077   6.0941   6.1437   6.1863   6.2413
     6.9338   6.9598   7.0668   7.1048   7.1866   7.3193   7.3356   7.3773
     7.4463   7.4706   7.5119   7.5376   7.5829   7.6127   7.6778   7.7015
     7.8420   7.9035   8.0408   8.0969   8.1883   8.2118   8.2811   8.3025
    11.2804  11.3421  11.5018  11.6600  11.7914  11.9977  12.3894  12.4823
    12.6454  12.6719  12.7613  12.8320  12.9583  12.9922  13.1097  13.1833
    13.2927  13.3297  13.4503  13.6166  13.7095  13.8067  13.9690  14.0495
    15.5267  15.6977  15.9603  16.2275  16.3633  16.4874  16.6314  17.0077
    17.1420  17.2925  17.3900  17.8888  17.9897

          k = 0.1667 0.3277-0.5000 ( 60710 PWs)   bands (ev):

   -65.6002 -65.6002 -65.5998 -65.5998 -65.5994 -65.5994 -65.5990 -65.5990
   -30.1425 -30.1425 -30.1078 -30.1078 -30.1041 -30.1041 -30.0697 -30.0697
   -29.9428 -29.9428 -29.9377 -29.9377 -29.9039 -29.9039 -29.9000 -29.9000
   -29.8614 -29.8614 -29.8298 -29.8298 -29.8239 -29.8239 -29.7926 -29.7926
   -19.7440 -19.7440 -19.7432 -19.7432 -19.7431 -19.7431 -19.7424 -19.7424
   -19.7338 -19.7338 -19.7331 -19.7330 -19.7329 -19.7329 -19.7323 -19.7323
   -19.7285 -19.7284 -19.7274 -19.7274 -19.7272 -19.7271 -19.7259 -19.7259
   -19.7102 -19.7102 -19.7098 -19.7098 -19.7088 -19.7088 -19.7079 -19.7079
   -19.7078 -19.7078 -19.7069 -19.7069 -19.7066 -19.7066 -19.7061 -19.7061
   -19.7019 -19.7019 -19.7004 -19.7004 -19.7004 -19.7003 -19.6991 -19.6991
   -19.6951 -19.6950 -19.6943 -19.6943 -19.6938 -19.6938 -19.6927 -19.6927
    -9.1174  -9.1174  -8.8088  -8.8087  -8.5516  -8.5516  -8.2366  -8.2366
    -8.2192  -8.2192  -8.1096  -8.1096  -7.8857  -7.8857  -7.8385  -7.8385
    -7.6762  -7.6762  -7.6191  -7.6191  -7.5874  -7.5874  -7.2372  -7.2372
     2.0662   2.0662   2.4370   2.4370   2.7625   2.7626   2.9086   2.9086
     3.3187   3.3187   3.4382   3.4382   3.5009   3.5009   3.6743   3.6743
     3.7882   3.7882   3.8427   3.8427   4.0807   4.0807   4.1850   4.1850
     4.3645   4.3645   4.4985   4.4985   4.7199   4.7199   4.8393   4.8393
     5.1950   5.1950   5.3177   5.3177   5.4528   5.4528   5.5282   5.5283
     5.6035   5.6035   5.8727   5.8727   6.1122   6.1122   6.2010   6.2010
     6.9594   6.9594   7.1802   7.1802   7.2509   7.2509   7.3359   7.3359
     7.4664   7.4664   7.5266   7.5266   7.6193   7.6193   7.8735   7.8735
     7.9363   7.9363   8.0795   8.0795   8.1098   8.1098   8.2832   8.2832
    11.3906  11.3906  11.9336  11.9336  12.1273  12.1273  12.2630  12.2630
    12.5401  12.5401  12.7374  12.7375  12.9577  12.9577  13.1501  13.1501
    13.3168  13.3168  13.4104  13.4104  13.7210  13.7210  13.9420  13.9420
    15.6084  15.6084  16.2103  16.2103  16.8349  16.8349  17.0049  17.0049
    17.1092  17.1092  17.7617  17.7617  18.0560

          k = 0.1667-0.4915 0.1667 ( 60708 PWs)   bands (ev):

   -65.6004 -65.6004 -65.5997 -65.5997 -65.5995 -65.5995 -65.5988 -65.5988
   -30.1443 -30.1443 -30.1405 -30.1405 -30.0716 -30.0716 -30.0678 -30.0678
   -29.9254 -29.9254 -29.9232 -29.9232 -29.9189 -29.9189 -29.9165 -29.9165
   -29.8649 -29.8649 -29.8576 -29.8576 -29.7950 -29.7950 -29.7900 -29.7900
   -19.7441 -19.7441 -19.7440 -19.7439 -19.7425 -19.7425 -19.7424 -19.7424
   -19.7338 -19.7338 -19.7337 -19.7337 -19.7323 -19.7323 -19.7321 -19.7321
   -19.7286 -19.7286 -19.7284 -19.7284 -19.7260 -19.7260 -19.7257 -19.7257
   -19.7095 -19.7095 -19.7090 -19.7090 -19.7088 -19.7088 -19.7083 -19.7082
   -19.7080 -19.7080 -19.7076 -19.7076 -19.7065 -19.7065 -19.7063 -19.7063
   -19.7020 -19.7020 -19.7019 -19.7019 -19.6992 -19.6992 -19.6991 -19.6991
   -19.6953 -19.6953 -19.6948 -19.6948 -19.6930 -19.6930 -19.6925 -19.6925
    -9.2400  -9.2400  -8.9542  -8.9542  -8.5227  -8.5227  -8.3074  -8.3074
    -8.0644  -8.0644  -7.9909  -7.9909  -7.9591  -7.9590  -7.9204  -7.9204
    -7.7205  -7.7205  -7.6004  -7.6004  -7.2978  -7.2978  -7.1837  -7.1837
     2.0465   2.0465   2.0794   2.0794   2.4165   2.4165   2.5806   2.5806
     3.0280   3.0280   3.2113   3.2113   3.3508   3.3508   3.7016   3.7016
     3.7336   3.7336   3.9768   3.9768   4.1042   4.1042   4.3191   4.3191
     4.3727   4.3727   4.7279   4.7279   4.8497   4.8497   5.3559   5.3559
     5.4262   5.4262   5.5020   5.5020   5.6070   5.6071   5.9197   5.9197
     5.9478   5.9478   6.0699   6.0699   6.1058   6.1058   6.2464   6.2465
     6.8827   6.8827   7.0049   7.0049   7.1324   7.1324   7.2908   7.2908
     7.5172   7.5172   7.5590   7.5590   7.6479   7.6479   7.7332   7.7332
     7.8720   7.8721   8.0508   8.0508   8.1469   8.1469   8.1859   8.1859
    11.0144  11.0144  11.7591  11.7591  11.8583  11.8583  12.3106  12.3106
    12.4292  12.4292  12.7097  12.7097  13.0113  13.0113  13.1631  13.1631
    13.4529  13.4529  13.6024  13.6025  13.6592  13.6592  14.0517  14.0517
    15.5955  15.5955  15.8614  15.8614  16.3792  16.3792  16.5259  16.5259
    17.1572  17.1572  18.1898  18.1898  18.3684

          k = 0.1667-0.4915 0.3333 ( 60736 PWs)   bands (ev):

   -65.6002 -65.6002 -65.5998 -65.5997 -65.5995 -65.5994 -65.5990 -65.5990
   -30.1435 -30.1413 -30.1288 -30.1250 -30.0868 -30.0830 -30.0708 -30.0685
   -29.9252 -29.9242 -29.9237 -29.9220 -29.9204 -29.9186 -29.9180 -29.9171
   -29.8635 -29.8593 -29.8500 -29.8434 -29.8097 -29.8043 -29.7940 -29.7911
   -19.7440 -19.7440 -19.7437 -19.7436 -19.7428 -19.7426 -19.7425 -19.7424
   -19.7338 -19.7338 -19.7335 -19.7334 -19.7326 -19.7325 -19.7323 -19.7322
   -19.7285 -19.7284 -19.7281 -19.7279 -19.7266 -19.7264 -19.7260 -19.7258
   -19.7094 -19.7093 -19.7091 -19.7089 -19.7088 -19.7087 -19.7083 -19.7083
   -19.7079 -19.7078 -19.7077 -19.7074 -19.7069 -19.7067 -19.7065 -19.7064
   -19.7020 -19.7019 -19.7013 -19.7012 -19.6997 -19.6996 -19.6992 -19.6991
   -19.6952 -19.6949 -19.6949 -19.6944 -19.6936 -19.6931 -19.6929 -19.6926
    -9.1622  -9.0554  -8.9984  -8.7380  -8.6217  -8.3638  -8.2548  -8.1930
    -8.1556  -8.1000  -8.0166  -7.9690  -7.9587  -7.9508  -7.9446  -7.8931
    -7.8603  -7.7911  -7.6979  -7.6221  -7.5309  -7.4214  -7.2717  -7.2057
     2.0598   2.0783   2.4073   2.4379   2.6487   2.8442   2.9431   3.0923
     3.2310   3.2418   3.2593   3.2809   3.4538   3.4888   3.5956   3.6762
     3.7164   3.7374   3.9843   4.0225   4.1427   4.2518   4.2662   4.2966
     4.3237   4.3995   4.4218   4.4657   4.6860   4.7476   4.9444   5.0102
     5.0790   5.1722   5.2922   5.3628   5.3725   5.4593   5.4903   5.5309
     5.6094   5.6782   5.7864   5.9004   6.0800   6.1045   6.1681   6.1719
     6.9470   6.9762   7.0995   7.1153   7.2175   7.3612   7.4224   7.4585
     7.5112   7.5457   7.5808   7.6316   7.6716   7.6960   7.7379   7.7790
     7.9118   7.9437   8.0284   8.0798   8.1339   8.1472   8.1681   8.1811
    11.3883  11.4931  11.7645  11.8863  12.0399  12.1708  12.3121  12.4165
    12.5069  12.5412  12.6372  12.7830  12.8900  12.9744  13.0612  13.1413
    13.2275  13.3451  13.3902  13.4026  13.6481  13.6806  13.9161  13.9517
    15.5793  15.7822  15.9838  16.4126  16.5107  16.6774  16.8837  17.0588
    17.2869  17.3315  17.8709  17.9687  18.1131

          k = 0.1667-0.4915-0.5000 ( 60736 PWs)   bands (ev):

   -65.6000 -65.6000 -65.6000 -65.5999 -65.5992 -65.5992 -65.5992 -65.5992
   -30.1424 -30.1424 -30.1078 -30.1077 -30.1039 -30.1039 -30.0696 -30.0696
   -29.9246 -29.9246 -29.9223 -29.9223 -29.9201 -29.9201 -29.9179 -29.9179
   -29.8615 -29.8615 -29.8298 -29.8298 -29.8239 -29.8239 -29.7926 -29.7926
   -19.7440 -19.7440 -19.7432 -19.7432 -19.7431 -19.7431 -19.7424 -19.7424
   -19.7338 -19.7338 -19.7331 -19.7330 -19.7329 -19.7329 -19.7323 -19.7322
   -19.7284 -19.7284 -19.7274 -19.7274 -19.7272 -19.7271 -19.7259 -19.7259
   -19.7093 -19.7093 -19.7090 -19.7090 -19.7085 -19.7085 -19.7085 -19.7085
   -19.7078 -19.7078 -19.7074 -19.7074 -19.7071 -19.7071 -19.7065 -19.7064
   -19.7019 -19.7019 -19.7004 -19.7004 -19.7003 -19.7003 -19.6991 -19.6991
   -19.6950 -19.6950 -19.6943 -19.6943 -19.6938 -19.6938 -19.6927 -19.6927
    -9.0740  -9.0740  -8.8139  -8.8139  -8.4353  -8.4353  -8.1906  -8.1906
    -8.1473  -8.1473  -8.0534  -8.0534  -7.9406  -7.9405  -7.9232  -7.9232
    -7.7905  -7.7904  -7.7244  -7.7244  -7.6195  -7.6194  -7.2378  -7.2378
     2.0683   2.0683   2.4449   2.4449   3.1430   3.1430   3.3887   3.3887
     3.4678   3.4678   3.4825   3.4825   3.5292   3.5292   3.6293   3.6293
     3.8022   3.8022   3.8560   3.8560   3.9479   3.9480   4.1056   4.1056
     4.2964   4.2964   4.4039   4.4039   4.7167   4.7167   4.7863   4.7863
     4.8924   4.8924   4.9694   4.9694   5.3156   5.3156   5.4541   5.4541
     5.5516   5.5517   5.7675   5.7675   6.1112   6.1112   6.1297   6.1297
     6.9726   6.9726   7.2088   7.2088   7.2911   7.2911   7.4087   7.4087
     7.5732   7.5732   7.6482   7.6482   7.7527   7.7527   7.8502   7.8503
     7.9244   7.9244   8.0834   8.0834   8.1112   8.1113   8.1562   8.1562
    11.6838  11.6838  12.0402  12.0402  12.1022  12.1022  12.4268  12.4268
    12.5004  12.5004  12.6941  12.6941  12.9052  12.9052  13.0087  13.0087
    13.1582  13.1582  13.2924  13.2924  13.7500  13.7500  13.7790  13.7790
    15.6643  15.6643  16.2882  16.2882  17.1377  17.1377  17.3687  17.3687
    17.5364  17.5364  17.7180  17.7181  17.8215

          k = 0.3333 0.0000 0.3333 ( 60710 PWs)   bands (ev):

   -65.6004 -65.6000 -65.6000 -65.5997 -65.5995 -65.5992 -65.5992 -65.5988
   -30.1302 -30.1267 -30.1262 -30.1258 -30.0875 -30.0863 -30.0861 -30.0813
   -29.9625 -29.9591 -29.9589 -29.9555 -29.8848 -29.8829 -29.8826 -29.8805
   -29.8494 -29.8477 -29.8449 -29.8445 -29.8087 -29.8085 -29.8064 -29.8046
   -19.7438 -19.7436 -19.7436 -19.7436 -19.7428 -19.7428 -19.7427 -19.7426
   -19.7335 -19.7335 -19.7335 -19.7334 -19.7326 -19.7326 -19.7325 -19.7325
   -19.7282 -19.7279 -19.7279 -19.7279 -19.7266 -19.7265 -19.7265 -19.7263
   -19.7116 -19.7114 -19.7114 -19.7112 -19.7086 -19.7083 -19.7083 -19.7082
   -19.7073 -19.7073 -19.7072 -19.7069 -19.7054 -19.7051 -19.7050 -19.7047
   -19.7015 -19.7013 -19.7012 -19.7010 -19.6999 -19.6996 -19.6995 -19.6992
   -19.6950 -19.6946 -19.6946 -19.6945 -19.6935 -19.6934 -19.6934 -19.6930
    -9.2295  -9.0051  -8.9881  -8.8232  -8.7498  -8.5432  -8.5129  -8.3962
    -8.1710  -8.1409  -8.1018  -8.0343  -8.0024  -7.9425  -7.8797  -7.8557
    -7.5300  -7.5113  -7.4799  -7.4373  -7.3261  -7.2954  -7.2936  -7.2628
     2.0275   2.0353   2.0509   2.0535   2.6742   2.6944   2.7190   2.7275
     3.0110   3.0262   3.1139   3.1457   3.2111   3.3592   3.3722   3.4617
     3.5969   3.6473   4.0325   4.1664   4.2036   4.2258   4.3510   4.5079
     4.5365   4.6011   4.7040   4.7270   4.8712   4.9632   5.0647   5.0734
     5.1232   5.2662   5.4595   5.5237   5.5607   5.6269   5.6583   5.7217
     5.7591   5.9258   6.0090   6.0863   6.3699   6.4310   6.4514   6.6305
     6.7651   6.8298   6.8900   6.9012   6.9362   7.0189   7.0344   7.0498
     7.4182   7.4582   7.5805   7.5813   7.6290   7.7026   7.7628   7.7645
     7.8469   7.8798   8.0494   8.0529   8.1422   8.2516   8.3742   8.4467
    11.2065  11.2428  11.4610  11.4754  11.9448  12.0499  12.3555  12.3631
    12.4908  12.5446  12.7579  12.7922  13.0964  13.1133  13.3406  13.3618
    13.4568  13.6118  13.6655  13.7066  13.8698  13.9686  14.0363  14.1407
    15.4173  15.5879  15.6081  15.9978  16.0244  16.2677  16.6546  16.8001
    16.8494  17.3360  17.4769  17.8410  17.8414

          k = 0.3333 0.0000-0.5000 ( 60716 PWs)   bands (ev):

   -65.6002 -65.6002 -65.5998 -65.5998 -65.5994 -65.5994 -65.5990 -65.5990
   -30.1274 -30.1274 -30.1071 -30.1071 -30.1053 -30.1053 -30.0850 -30.0850
   -29.9608 -29.9608 -29.9574 -29.9574 -29.8838 -29.8838 -29.8816 -29.8816
   -29.8467 -29.8467 -29.8285 -29.8285 -29.8252 -29.8252 -29.8071 -29.8070
   -19.7437 -19.7437 -19.7432 -19.7432 -19.7431 -19.7431 -19.7427 -19.7427
   -19.7335 -19.7335 -19.7331 -19.7331 -19.7329 -19.7329 -19.7326 -19.7326
   -19.7280 -19.7280 -19.7274 -19.7274 -19.7272 -19.7272 -19.7265 -19.7265
   -19.7115 -19.7115 -19.7113 -19.7113 -19.7084 -19.7084 -19.7078 -19.7078
   -19.7078 -19.7078 -19.7071 -19.7071 -19.7052 -19.7052 -19.7049 -19.7049
   -19.7013 -19.7013 -19.7005 -19.7004 -19.7003 -19.7003 -19.6994 -19.6994
   -19.6947 -19.6947 -19.6941 -19.6941 -19.6940 -19.6940 -19.6932 -19.6932
    -9.0956  -9.0956  -8.8451  -8.8451  -8.6437  -8.6437  -8.3163  -8.3163
    -8.2676  -8.2675  -8.0254  -8.0254  -8.0071  -8.0071  -7.8259  -7.8259
    -7.7132  -7.7132  -7.4866  -7.4866  -7.3119  -7.3119  -7.2798  -7.2798
     2.0318   2.0318   2.0532   2.0532   2.7213   2.7213   3.0063   3.0063
     3.2245   3.2245   3.4419   3.4420   3.5459   3.5460   3.6633   3.6633
     3.7404   3.7405   3.9028   3.9028   4.0639   4.0639   4.1431   4.1431
     4.3868   4.3868   4.4844   4.4844   4.6792   4.6792   4.9050   4.9050
     5.1371   5.1371   5.3333   5.3333   5.5677   5.5677   5.6009   5.6009
     5.7863   5.7863   6.0144   6.0144   6.4367   6.4367   6.5843   6.5843
     6.7800   6.7800   6.8696   6.8696   6.9166   6.9166   7.0190   7.0190
     7.5516   7.5516   7.6162   7.6162   7.7187   7.7187   7.9023   7.9023
     7.9553   7.9553   8.0266   8.0266   8.1085   8.1086   8.3849   8.3849
    11.3250  11.3250  11.9092  11.9092  11.9545  11.9545  12.3622  12.3622
    12.4939  12.4939  12.6033  12.6033  13.0676  13.0676  13.3284  13.3284
    13.4544  13.4544  13.7294  13.7295  13.8267  13.8267  14.0537  14.0537
    15.5378  15.5378  15.8549  15.8549  16.3709  16.3709  16.8955  16.8955
    17.2402  17.2402  17.6053  17.6053  18.1375

          k = 0.3333 0.1638 0.3333 ( 60701 PWs)   bands (ev):

   -65.6004 -65.5999 -65.5999 -65.5997 -65.5995 -65.5993 -65.5993 -65.5988
   -30.1299 -30.1267 -30.1261 -30.1258 -30.0870 -30.0862 -30.0859 -30.0816
   -29.9573 -29.9541 -29.9539 -29.9507 -29.8900 -29.8881 -29.8878 -29.8857
   -29.8493 -29.8478 -29.8449 -29.8446 -29.8087 -29.8085 -29.8063 -29.8048
   -19.7437 -19.7436 -19.7436 -19.7436 -19.7428 -19.7428 -19.7427 -19.7426
   -19.7335 -19.7335 -19.7334 -19.7334 -19.7326 -19.7326 -19.7325 -19.7325
   -19.7281 -19.7280 -19.7279 -19.7279 -19.7266 -19.7265 -19.7265 -19.7263
   -19.7113 -19.7111 -19.7111 -19.7109 -19.7086 -19.7083 -19.7083 -19.7082
   -19.7074 -19.7073 -19.7072 -19.7069 -19.7058 -19.7055 -19.7054 -19.7051
   -19.7015 -19.7013 -19.7012 -19.7010 -19.6999 -19.6996 -19.6996 -19.6992
   -19.6950 -19.6946 -19.6946 -19.6945 -19.6934 -19.6934 -19.6933 -19.6930
    -9.1854  -8.9570  -8.9383  -8.8364  -8.6766  -8.5363  -8.5042  -8.3641
    -8.1643  -8.1296  -8.1029  -8.0312  -8.0079  -7.9392  -7.8799  -7.8550
    -7.5376  -7.5198  -7.5007  -7.4384  -7.4146  -7.3879  -7.3853  -7.3528
     2.2102   2.2377   2.2508   2.2828   2.6725   2.7003   2.7223   2.7271
     3.0118   3.0296   3.1153   3.2046   3.2319   3.4193   3.4485   3.5500
[...]
    11.4230  11.4230  11.9548  11.9548  12.0327  12.0327  12.3681  12.3681
    12.5343  12.5343  12.6252  12.6252  13.0526  13.0526  13.2851  13.2851
    13.3587  13.3587  13.6042  13.6042  13.7250  13.7250  13.9828  13.9828
    15.7770  15.7770  16.1096  16.1096  16.4551  16.4551  16.9085  16.9085
    17.2457  17.2457  17.6258  17.6258  18.1200

          k = 0.3333 0.3277 0.3333 ( 60742 PWs)   bands (ev):

   -65.6002 -65.5999 -65.5998 -65.5998 -65.5994 -65.5994 -65.5993 -65.5990
   -30.1291 -30.1272 -30.1259 -30.1258 -30.0863 -30.0860 -30.0852 -30.0825
   -29.9433 -29.9405 -29.9402 -29.9373 -29.9043 -29.9022 -29.9019 -29.8998
   -29.8491 -29.8482 -29.8449 -29.8448 -29.8087 -29.8086 -29.8060 -29.8051
   -19.7437 -19.7436 -19.7436 -19.7436 -19.7428 -19.7428 -19.7427 -19.7426
   -19.7335 -19.7335 -19.7334 -19.7334 -19.7326 -19.7326 -19.7325 -19.7325
   -19.7281 -19.7280 -19.7279 -19.7279 -19.7266 -19.7266 -19.7265 -19.7263
   -19.7103 -19.7100 -19.7100 -19.7098 -19.7087 -19.7084 -19.7083 -19.7081
   -19.7076 -19.7074 -19.7073 -19.7069 -19.7067 -19.7064 -19.7063 -19.7061
   -19.7014 -19.7013 -19.7012 -19.7011 -19.6998 -19.6996 -19.6996 -19.6994
   -19.6949 -19.6947 -19.6945 -19.6945 -19.6935 -19.6934 -19.6933 -19.6931
    -9.0780  -8.8877  -8.8437  -8.8324  -8.5197  -8.4797  -8.4636  -8.2660
    -8.1374  -8.1031  -8.0808  -8.0351  -8.0125  -7.9288  -7.8832  -7.8521
    -7.6867  -7.6641  -7.6547  -7.6255  -7.4981  -7.4967  -7.4403  -7.4345
     2.5827   2.6195   2.6248   2.6764   2.8080   2.8232   2.8447   2.8678
     3.0389   3.0774   3.1197   3.2287   3.4163   3.5233   3.5972   3.6771
     3.6970   3.8568   4.0319   4.0921   4.1959   4.2857   4.3385   4.4097
     4.5045   4.5550   4.5815   4.6415   4.6912   4.7725   4.8361   4.8946
     4.9999   5.0027   5.1308   5.2074   5.2308   5.2836   5.3021   5.3581
     5.4457   5.5308   5.5886   5.6199   5.7334   5.8426   5.8591   5.9584
     7.0877   7.1211   7.2141   7.2700   7.3613   7.3838   7.4123   7.4505
     7.4999   7.5258   7.6312   7.6432   7.6597   7.7384   7.8008   7.8107
     7.8950   7.9272   8.0404   8.0688   8.1589   8.1844   8.2686   8.2845
    11.5692  11.5789  11.7674  11.8749  11.9922  12.1773  12.4784  12.5411
    12.6104  12.6900  12.7492  12.8090  12.9219  13.0147  13.0458  13.0896
    13.1808  13.2580  13.3704  13.4650  13.5977  13.7132  13.7332  13.9017
    16.0086  16.1885  16.2331  16.3197  16.4982  16.8210  16.9258  16.9278
    17.2184  17.3585  17.5504  17.6684  17.9873

          k = 0.3333 0.3277-0.5000 ( 60752 PWs)   bands (ev):

   -65.6000 -65.6000 -65.5996 -65.5996 -65.5996 -65.5996 -65.5992 -65.5992
   -30.1270 -30.1270 -30.1070 -30.1070 -30.1049 -30.1048 -30.0849 -30.0849
   -29.9419 -29.9419 -29.9389 -29.9389 -29.9033 -29.9033 -29.9010 -29.9010
   -29.8468 -29.8468 -29.8286 -29.8286 -29.8252 -29.8252 -29.8071 -29.8071
   -19.7437 -19.7436 -19.7432 -19.7432 -19.7431 -19.7431 -19.7427 -19.7427
   -19.7335 -19.7335 -19.7331 -19.7331 -19.7329 -19.7329 -19.7326 -19.7325
   -19.7280 -19.7280 -19.7274 -19.7274 -19.7272 -19.7272 -19.7265 -19.7265
   -19.7102 -19.7102 -19.7099 -19.7099 -19.7085 -19.7085 -19.7079 -19.7079
   -19.7078 -19.7078 -19.7072 -19.7072 -19.7066 -19.7066 -19.7062 -19.7062
   -19.7013 -19.7012 -19.7004 -19.7004 -19.7004 -19.7003 -19.6996 -19.6996
   -19.6947 -19.6947 -19.6942 -19.6942 -19.6939 -19.6939 -19.6933 -19.6933
    -8.9364  -8.9364  -8.6777  -8.6777  -8.6071  -8.6071  -8.2928  -8.2927
    -8.1959  -8.1959  -8.0214  -8.0213  -7.9886  -7.9886  -7.8347  -7.8346
    -7.7404  -7.7404  -7.6402  -7.6402  -7.6127  -7.6127  -7.4663  -7.4663
     2.6236   2.6236   2.8003   2.8003   2.8465   2.8466   3.0335   3.0335
     3.3797   3.3797   3.5050   3.5050   3.5715   3.5715   3.7101   3.7101
     3.8660   3.8661   3.9739   3.9739   4.1176   4.1176   4.2247   4.2247
     4.4122   4.4122   4.5271   4.5271   4.5818   4.5819   4.7274   4.7274
     4.8649   4.8649   5.0307   5.0307   5.1001   5.1001   5.2976   5.2976
     5.3779   5.3779   5.4573   5.4573   5.6106   5.6106   5.8598   5.8598
     7.1443   7.1443   7.3289   7.3289   7.3489   7.3489   7.4700   7.4700
     7.5933   7.5933   7.6423   7.6423   7.7886   7.7886   7.9053   7.9053
     7.9517   7.9517   8.0757   8.0757   8.0984   8.0984   8.2608   8.2608
    11.7027  11.7027  12.0877  12.0877  12.2475  12.2475  12.3944  12.3944
    12.6163  12.6163  12.7416  12.7417  12.9013  12.9013  13.0635  13.0635
    13.2255  13.2255  13.3684  13.3684  13.4773  13.4773  13.7452  13.7452
    16.2178  16.2178  16.5656  16.5656  16.8989  16.8989  17.0526  17.0526
    17.2928  17.2928  17.6585  17.6585  18.0369

          k = 0.3333-0.4915 0.3333 ( 60764 PWs)   bands (ev):

   -65.6001 -65.6001 -65.5997 -65.5996 -65.5996 -65.5996 -65.5992 -65.5991
   -30.1281 -30.1280 -30.1258 -30.1258 -30.0860 -30.0860 -30.0837 -30.0837
   -29.9239 -29.9239 -29.9225 -29.9225 -29.9201 -29.9201 -29.9187 -29.9187
   -29.8487 -29.8487 -29.8449 -29.8449 -29.8086 -29.8086 -29.8055 -29.8055
   -19.7437 -19.7437 -19.7436 -19.7436 -19.7428 -19.7428 -19.7427 -19.7427
   -19.7335 -19.7335 -19.7334 -19.7334 -19.7326 -19.7326 -19.7325 -19.7325
   -19.7281 -19.7280 -19.7279 -19.7279 -19.7266 -19.7266 -19.7264 -19.7264
   -19.7092 -19.7092 -19.7089 -19.7089 -19.7088 -19.7087 -19.7084 -19.7084
   -19.7078 -19.7077 -19.7075 -19.7075 -19.7069 -19.7069 -19.7068 -19.7068
   -19.7013 -19.7013 -19.7012 -19.7012 -19.6997 -19.6996 -19.6996 -19.6996
   -19.6948 -19.6948 -19.6945 -19.6945 -19.6935 -19.6935 -19.6932 -19.6932
    -8.9644  -8.9644  -8.7853  -8.7853  -8.4742  -8.4742  -8.2142  -8.2142
    -8.1484  -8.1483  -7.9894  -7.9894  -7.9364  -7.9364  -7.9025  -7.9025
    -7.8539  -7.8539  -7.8002  -7.8001  -7.5048  -7.5048  -7.4415  -7.4415
     2.6441   2.6441   2.6736   2.6736   2.9696   2.9696   3.0862   3.0862
     3.2955   3.2955   3.4171   3.4171   3.5750   3.5750   3.6470   3.6470
     3.7112   3.7112   4.0725   4.0725   4.2851   4.2851   4.3033   4.3033
     4.3406   4.3406   4.5081   4.5082   4.5991   4.5992   4.7448   4.7448
     4.9966   4.9966   5.0380   5.0380   5.1702   5.1702   5.3059   5.3059
     5.3753   5.3753   5.4555   5.4555   5.5561   5.5561   5.7348   5.7348
     7.1650   7.1650   7.3164   7.3165   7.4568   7.4568   7.5376   7.5376
     7.6231   7.6232   7.6615   7.6615   7.7328   7.7328   7.8543   7.8543
     7.9473   7.9473   8.0461   8.0461   8.1341   8.1341   8.1693   8.1693
    11.7304  11.7304  12.0318  12.0318  12.2167  12.2168  12.5057  12.5058
    12.6359  12.6359  12.7399  12.7399  12.8698  12.8698  12.9632  12.9632
    13.1654  13.1654  13.3480  13.3480  13.4324  13.4324  13.7490  13.7490
    16.1424  16.1424  16.4708  16.4708  16.9135  16.9135  17.0594  17.0594
    17.4412  17.4412  17.9133  17.9133  18.0413

          k = 0.3333-0.4915-0.5000 ( 60732 PWs)   bands (ev):

   -65.5999 -65.5999 -65.5998 -65.5998 -65.5994 -65.5994 -65.5994 -65.5994
   -30.1269 -30.1269 -30.1070 -30.1070 -30.1047 -30.1047 -30.0849 -30.0848
   -29.9234 -29.9234 -29.9221 -29.9221 -29.9207 -29.9207 -29.9194 -29.9194
   -29.8469 -29.8468 -29.8286 -29.8286 -29.8252 -29.8252 -29.8071 -29.8071
   -19.7436 -19.7436 -19.7432 -19.7432 -19.7431 -19.7431 -19.7427 -19.7427
   -19.7335 -19.7335 -19.7331 -19.7331 -19.7329 -19.7329 -19.7326 -19.7325
   -19.7280 -19.7280 -19.7274 -19.7274 -19.7272 -19.7272 -19.7265 -19.7265
   -19.7090 -19.7090 -19.7089 -19.7089 -19.7086 -19.7086 -19.7086 -19.7086
   -19.7077 -19.7077 -19.7074 -19.7074 -19.7072 -19.7072 -19.7068 -19.7068
   -19.7012 -19.7012 -19.7004 -19.7004 -19.7003 -19.7003 -19.6996 -19.6996
   -19.6947 -19.6947 -19.6942 -19.6942 -19.6939 -19.6939 -19.6933 -19.6933
    -8.8661  -8.8661  -8.6988  -8.6988  -8.4827  -8.4827  -8.3094  -8.3094
    -8.0979  -8.0978  -8.0067  -8.0067  -7.9433  -7.9433  -7.9101  -7.9101
    -7.8316  -7.8316  -7.7781  -7.7780  -7.6806  -7.6806  -7.4718  -7.4718
     2.6697   2.6697   2.9717   2.9717   3.2077   3.2077   3.3570   3.3570
     3.4621   3.4621   3.5374   3.5374   3.5944   3.5944   3.6243   3.6243
     3.8560   3.8560   3.9219   3.9220   4.0399   4.0399   4.3113   4.3113
     4.3534   4.3534   4.4631   4.4631   4.5448   4.5448   4.7431   4.7431
     4.8719   4.8719   4.9259   4.9259   4.9865   4.9866   5.0285   5.0285
     5.1728   5.1728   5.3313   5.3313   5.4872   5.4872   5.5242   5.5242
     7.2188   7.2188   7.4444   7.4444   7.4863   7.4863   7.5552   7.5552
     7.6440   7.6440   7.6983   7.6983   7.8418   7.8418   7.8859   7.8860
     7.9538   7.9538   8.0764   8.0764   8.1033   8.1033   8.1586   8.1586
    11.9458  11.9458  12.1841  12.1841  12.3448  12.3448  12.5134  12.5134
    12.5782  12.5782  12.7966  12.7966  12.8760  12.8760  12.9348  12.9348
    13.0633  13.0633  13.1163  13.1163  13.4791  13.4791  13.5410  13.5410
    16.3327  16.3327  16.7341  16.7341  17.2521  17.2521  17.3389  17.3389
    17.6184  17.6184  17.7395  17.7396  17.8090

          k =-0.5000 0.0000-0.5000 ( 60740 PWs)   bands (ev):

   -65.6000 -65.6000 -65.6000 -65.6000 -65.5992 -65.5992 -65.5992 -65.5992
   -30.1090 -30.1089 -30.1082 -30.1082 -30.1040 -30.1040 -30.1034 -30.1034
   -29.9594 -29.9594 -29.9591 -29.9591 -29.8830 -29.8830 -29.8825 -29.8825
   -29.8279 -29.8279 -29.8277 -29.8277 -29.8262 -29.8262 -29.8258 -29.8258
   -19.7433 -19.7433 -19.7432 -19.7432 -19.7431 -19.7431 -19.7430 -19.7430
   -19.7332 -19.7332 -19.7331 -19.7330 -19.7329 -19.7329 -19.7329 -19.7329
   -19.7275 -19.7275 -19.7273 -19.7273 -19.7273 -19.7272 -19.7270 -19.7270
   -19.7115 -19.7114 -19.7114 -19.7114 -19.7080 -19.7080 -19.7080 -19.7080
   -19.7077 -19.7076 -19.7076 -19.7076 -19.7051 -19.7051 -19.7050 -19.7050
   -19.7007 -19.7007 -19.7006 -19.7006 -19.7000 -19.7000 -19.7000 -19.7000
   -19.6943 -19.6943 -19.6942 -19.6942 -19.6938 -19.6938 -19.6938 -19.6938
    -8.9592  -8.9592  -8.9346  -8.9346  -8.4582  -8.4582  -8.3759  -8.3759
    -8.2657  -8.2657  -8.1765  -8.1765  -7.8556  -7.8556  -7.8048  -7.8048
    -7.7563  -7.7563  -7.6990  -7.6990  -7.2987  -7.2987  -7.2958  -7.2958
     2.0329   2.0329   2.0541   2.0541   3.2653   3.2653   3.2946   3.2946
     3.4362   3.4362   3.4479   3.4479   3.6822   3.6822   3.7874   3.7874
     3.8263   3.8263   3.8758   3.8758   3.9368   3.9368   4.0754   4.0754
     4.1035   4.1035   4.3668   4.3668   4.6250   4.6250   4.6865   4.6865
     4.7870   4.7870   4.9304   4.9304   5.5005   5.5005   5.5603   5.5603
     5.8277   5.8277   5.9053   5.9053   6.5389   6.5389   6.5662   6.5662
     6.7789   6.7789   6.8530   6.8531   6.9102   6.9102   6.9124   6.9124
     7.7123   7.7123   7.7387   7.7388   7.8004   7.8004   7.9240   7.9240
     7.9927   7.9927   8.0135   8.0135   8.0911   8.0911   8.3253   8.3253
    11.7213  11.7213  11.9170  11.9170  11.9722  11.9722  12.1740  12.1740
    12.7225  12.7225  12.7751  12.7751  12.8893  12.8893  12.9720  12.9720
    13.5310  13.5310  13.6802  13.6802  13.8365  13.8365  13.9670  13.9670
    15.7086  15.7087  15.7622  15.7622  16.8358  16.8358  17.2827  17.2827
    17.3625  17.3625  17.4573  17.4573  17.7564

          k =-0.5000 0.1638-0.5000 ( 60728 PWs)   bands (ev):

   -65.5999 -65.5999 -65.5999 -65.5999 -65.5993 -65.5993 -65.5993 -65.5993
   -30.1085 -30.1085 -30.1078 -30.1078 -30.1043 -30.1043 -30.1037 -30.1037
   -29.9544 -29.9544 -29.9541 -29.9541 -29.8882 -29.8882 -29.8878 -29.8878
   -29.8278 -29.8278 -29.8276 -29.8276 -29.8263 -29.8263 -29.8260 -29.8260
   -19.7433 -19.7433 -19.7432 -19.7432 -19.7431 -19.7431 -19.7431 -19.7430
   -19.7332 -19.7332 -19.7331 -19.7330 -19.7329 -19.7329 -19.7329 -19.7329
   -19.7275 -19.7275 -19.7273 -19.7273 -19.7273 -19.7273 -19.7271 -19.7271
   -19.7111 -19.7111 -19.7111 -19.7111 -19.7080 -19.7080 -19.7080 -19.7080
   -19.7076 -19.7076 -19.7076 -19.7076 -19.7055 -19.7055 -19.7054 -19.7054
   -19.7007 -19.7007 -19.7006 -19.7006 -19.7001 -19.7001 -19.7001 -19.7000
   -19.6943 -19.6943 -19.6942 -19.6942 -19.6939 -19.6939 -19.6938 -19.6938
    -8.9012  -8.9012  -8.8727  -8.8727  -8.4695  -8.4695  -8.3890  -8.3890
    -8.2456  -8.2456  -8.1595  -8.1595  -7.8573  -7.8573  -7.8049  -7.8049
    -7.7609  -7.7609  -7.6993  -7.6993  -7.3958  -7.3958  -7.3908  -7.3908
     2.2428   2.2428   2.2647   2.2647   3.2780   3.2780   3.3150   3.3150
     3.4423   3.4424   3.4468   3.4468   3.6946   3.6946   3.8290   3.8290
     3.8315   3.8315   3.8798   3.8798   3.9814   3.9814   4.1036   4.1036
     4.1510   4.1510   4.4129   4.4129   4.6100   4.6100   4.6830   4.6831
     4.7685   4.7686   4.9264   4.9265   5.2589   5.2589   5.3121   5.3121
     5.6002   5.6002   5.6394   5.6394   6.3054   6.3054   6.3085   6.3085
     6.9344   6.9344   7.0254   7.0254   7.0925   7.0925   7.1392   7.1392
     7.7179   7.7179   7.7449   7.7449   7.8185   7.8185   7.9265   7.9266
     7.9982   7.9982   8.0348   8.0348   8.0879   8.0879   8.3029   8.3029
    11.7912  11.7912  12.0058  12.0058  12.0075  12.0075  12.2434  12.2434
    12.7276  12.7276  12.7626  12.7626  12.9002  12.9002  12.9769  12.9769
    13.3976  13.3976  13.5470  13.5470  13.7409  13.7409  13.8674  13.8674
    15.9997  15.9997  16.0390  16.0390  16.8948  16.8948  17.2763  17.2763
    17.3333  17.3333  17.4783  17.4783  17.7903

          k =-0.5000 0.3277-0.5000 ( 60784 PWs)   bands (ev):

   -65.5998 -65.5998 -65.5998 -65.5998 -65.5994 -65.5994 -65.5994 -65.5994
   -30.1075 -30.1075 -30.1068 -30.1068 -30.1050 -30.1049 -30.1044 -30.1044
   -29.9407 -29.9406 -29.9404 -29.9404 -29.9024 -29.9024 -29.9020 -29.9020
   -29.8274 -29.8274 -29.8274 -29.8274 -29.8267 -29.8266 -29.8264 -29.8264
   -19.7432 -19.7432 -19.7432 -19.7432 -19.7431 -19.7431 -19.7431 -19.7431
   -19.7332 -19.7332 -19.7331 -19.7330 -19.7329 -19.7329 -19.7329 -19.7329
   -19.7274 -19.7274 -19.7273 -19.7273 -19.7273 -19.7272 -19.7271 -19.7271
   -19.7100 -19.7100 -19.7100 -19.7100 -19.7082 -19.7082 -19.7081 -19.7081
   -19.7076 -19.7076 -19.7075 -19.7075 -19.7065 -19.7065 -19.7064 -19.7064
   -19.7006 -19.7006 -19.7005 -19.7005 -19.7002 -19.7002 -19.7002 -19.7002
   -19.6942 -19.6942 -19.6941 -19.6941 -19.6940 -19.6940 -19.6939 -19.6939
    -8.7579  -8.7579  -8.7138  -8.7138  -8.5074  -8.5074  -8.4357  -8.4357
    -8.1741  -8.1741  -8.0975  -8.0975  -7.8714  -7.8714  -7.8028  -7.8028
    -7.7968  -7.7967  -7.6997  -7.6997  -7.6225  -7.6225  -7.5961  -7.5960
     2.7815   2.7815   2.8031   2.8031   3.3013   3.3013   3.3483   3.3483
     3.4522   3.4523   3.4537   3.4537   3.7382   3.7382   3.8152   3.8152
     3.8682   3.8682   3.9019   3.9019   4.0878   4.0878   4.1380   4.1380
     4.3503   4.3503   4.4328   4.4328   4.6480   4.6480   4.6626   4.6626
     4.6671   4.6671   4.9085   4.9086   4.9217   4.9217   4.9837   4.9837
     5.1923   5.1923   5.2116   5.2116   5.6353   5.6353   5.6746   5.6746
     7.2204   7.2204   7.3504   7.3504   7.3601   7.3601   7.4898   7.4899
     7.7193   7.7193   7.7556   7.7557   7.8305   7.8305   7.9255   7.9255
     8.0256   8.0257   8.0550   8.0550   8.0751   8.0752   8.2296   8.2296
    12.0141  12.0141  12.1528  12.1528  12.2282  12.2282  12.4248  12.4248
    12.7205  12.7205  12.7278  12.7278  12.9266  12.9266  12.9975  12.9975
    13.1011  13.1011  13.2400  13.2400  13.4551  13.4551  13.5574  13.5574
    16.7071  16.7071  16.7225  16.7225  17.1091  17.1091  17.2431  17.2431
    17.2758  17.2758  17.5224  17.5224  17.8751

          k =-0.5000-0.4915-0.5000 ( 60704 PWs)   bands (ev):

   -65.5996 -65.5996 -65.5996 -65.5996 -65.5996 -65.5996 -65.5996 -65.5996
   -30.1067 -30.1066 -30.1057 -30.1056 -30.1055 -30.1055 -30.1055 -30.1055
   -29.9218 -29.9217 -29.9217 -29.9216 -29.9216 -29.9216 -29.9209 -29.9209
   -29.8271 -29.8271 -29.8271 -29.8270 -29.8270 -29.8270 -29.8268 -29.8267
   -19.7432 -19.7432 -19.7432 -19.7432 -19.7432 -19.7431 -19.7431 -19.7431
   -19.7332 -19.7332 -19.7331 -19.7330 -19.7329 -19.7329 -19.7329 -19.7329
   -19.7274 -19.7274 -19.7273 -19.7273 -19.7272 -19.7272 -19.7272 -19.7271
   -19.7088 -19.7088 -19.7088 -19.7088 -19.7088 -19.7088 -19.7087 -19.7087
   -19.7074 -19.7074 -19.7073 -19.7073 -19.7073 -19.7072 -19.7072 -19.7072
   -19.7004 -19.7004 -19.7004 -19.7004 -19.7004 -19.7003 -19.7003 -19.7003
   -19.6941 -19.6941 -19.6941 -19.6941 -19.6941 -19.6940 -19.6940 -19.6939
    -8.6420  -8.6420  -8.5628  -8.5628  -8.5416  -8.5416  -8.5416  -8.5416
    -8.0716  -8.0715  -7.9667  -7.9667  -7.9666  -7.9666  -7.9097  -7.9096
    -7.7794  -7.7794  -7.7794  -7.7794  -7.6990  -7.6990  -7.6783  -7.6783
     3.2568   3.2568   3.2639   3.2639   3.2639   3.2639   3.3409   3.3409
     3.4335   3.4335   3.6150   3.6150   3.6150   3.6150   3.7956   3.7956
     3.8740   3.8741   3.9252   3.9252   3.9829   3.9829   3.9829   3.9829
     4.5158   4.5158   4.5271   4.5271   4.6446   4.6446   4.6446   4.6446
     4.8132   4.8132   4.8474   4.8474   4.8474   4.8474   4.9209   4.9209
     5.0281   5.0281   5.0956   5.0956   5.0956   5.0956   5.1175   5.1175
     7.3410   7.3410   7.4826   7.4826   7.4826   7.4826   7.6550   7.6550
     7.7400   7.7400   7.7400   7.7400   7.8312   7.8312   7.9150   7.9150
     8.0599   8.0599   8.0599   8.0599   8.0879   8.0879   8.1339   8.1339
    12.2667  12.2668  12.3449  12.3449  12.3449  12.3449  12.4182  12.4182
    12.7538  12.7538  12.7538  12.7538  12.8177  12.8177  12.9666  12.9666
    13.0420  13.0421  13.1925  13.1925  13.1925  13.1925  13.2331  13.2331
    17.0830  17.0830  17.0830  17.0830  17.2349  17.2349  17.2918  17.2918
    17.6929  17.6929  17.7773  17.7773  17.7773

     the Fermi energy is    10.7761 ev

!    total energy              =   -6260.63383470 Ry
     Harris-Foulkes estimate   =   -6260.63383471 Ry
     estimated scf accuracy    <          9.8E-10 Ry

     The total energy is the sum of the following terms:

     one-electron contribution =   -4591.41386046 Ry
     hartree contribution      =    2539.82562096 Ry
     xc contribution           =    -966.18565420 Ry
     ewald contribution        =   -3242.85991868 Ry
     smearing contrib. (-TS)   =      -0.00002232 Ry

     convergence has been achieved in  13 iterations

     Writing output data file Landau_38.save
 
     init_run     :     18.66s CPU     19.58s WALL (       1 calls)
     electrons    :    932.88s CPU    947.28s WALL (       1 calls)

     Called by init_run:
     wfcinit      :     16.84s CPU     17.63s WALL (       1 calls)
     potinit      :      0.71s CPU      0.74s WALL (       1 calls)

     Called by electrons:
     c_bands      :    809.95s CPU    823.06s WALL (      13 calls)
     sum_band     :    112.37s CPU    113.04s WALL (      13 calls)
     v_of_rho     :      1.66s CPU      1.68s WALL (      14 calls)
     mix_rho      :      2.63s CPU      3.07s WALL (      13 calls)

     Called by c_bands:
     init_us_2    :      5.42s CPU      5.97s WALL (      27 calls)
     cegterg      :    548.75s CPU    561.65s WALL (      13 calls)

     Called by sum_band:

     Called by *egterg:
     h_psi        :    423.56s CPU    425.46s WALL (      53 calls)
     g_psi        :      1.91s CPU      1.91s WALL (      39 calls)
     cdiaghg      :      6.39s CPU      6.44s WALL (      52 calls)

     Called by h_psi:
     h_psi:pot    :    420.07s CPU    421.86s WALL (      53 calls)
     h_psi:calbec :     53.36s CPU     54.53s WALL (      53 calls)
     vloc_psi     :    310.21s CPU    310.54s WALL (      53 calls)
     add_vuspsi   :     56.50s CPU     56.79s WALL (      53 calls)

     General routines
     calbec       :     53.36s CPU     54.53s WALL (      53 calls)
     fft          :      0.97s CPU      0.97s WALL (      56 calls)
     fftw         :    309.23s CPU    309.39s WALL (   17137 calls)
 
     Parallel routines
 
     PWSCF        : 15m59.87s CPU    16m15.76s WALL

 
   This run was terminated on:  12:52:25  17Sep2019            

=------------------------------------------------------------------------------=
   JOB DONE.
=------------------------------------------------------------------------------=
