
     Program PWSCF v.6.2 (svn rev. 14038) starts on 21Mar2020 at 16:21:51 

     This program is part of the open-source Quantum ESPRESSO suite
     for quantum simulation of materials; please cite
         "P. Giannozzi et al., J. Phys.:Condens. Matter 21 395502 (2009);
         "P. Giannozzi et al., J. Phys.:Condens. Matter 29 465901 (2017);
          URL http://www.quantum-espresso.org", 
     in publications or presentations arising from this work. More details at
     http://www.quantum-espresso.org/quote

     Parallel version (MPI), running on    40 processors

     MPI processes distributed on     7 nodes
     K-points division:     npool     =      40
     Reading input from scf.in

     Current dimensions of program PWSCF are:
     Max number of different atomic species (ntypx) = 10
     Max number of k-points (npk) =  40000
     Max angular momentum in pseudopotentials (lmaxx) =  3

     Subspace diagonalization in iterative solution of the eigenvalue problem:
     a serial algorithm will be used

     Found symmetry operation: I + (  0.5000  0.0000  0.5000)
     This is a supercell, fractional translations are disabled
 
     G-vector sticks info
     --------------------
     sticks:   dense  smooth     PW     G-vecs:    dense   smooth      PW
     Sum        7757    7757   2079               501861   501861   69589
 


     bravais-lattice index     =            0
     lattice parameter (alat)  =      13.9152  a.u.
     unit-cell volume          =    2824.8535 (a.u.)^3
     number of atoms/cell      =           32
     number of atomic types    =            2
     number of electrons       =       368.60
     number of Kohn-Sham states=          221
     kinetic-energy cutoff     =     120.0000  Ry
     charge density cutoff     =     480.0000  Ry
     convergence threshold     =      1.0E-08
     mixing beta               =       0.7000
     number of iterations used =            8  plain     mixing
     Exchange-correlation      = SLA PW NOGX NOGC ( 1  4  0  0 0 0)

     celldm(1)=  13.915156  celldm(2)=   0.000000  celldm(3)=   0.000000
     celldm(4)=   0.000000  celldm(5)=   0.000000  celldm(6)=   0.000000

     crystal axes: (cart. coord. in units of alat)
               a(1) = (   1.000000   0.000000   0.000000 )  
               a(2) = (   0.000000   1.048411   0.000000 )  
               a(3) = (   0.000000   0.000000   1.000000 )  

     reciprocal axes: (cart. coord. in units 2 pi/alat)
               b(1) = (  1.000000 -0.000000 -0.000000 )  
               b(2) = ( -0.000000  0.953824 -0.000000 )  
               b(3) = ( -0.000000 -0.000000  1.000000 )  


     PseudoPot. # 1 for W  read from file:
     /cluster/scratch/mnoe/QE/pps/W_ONCV_LDA-4.0.upf
     MD5 check sum: ba0307d5d4cd419d6f1d13dc49d7c13a
     Pseudo is Norm-conserving + core correction, Zval = 28.0
     Generated using ONCVPSP code by D. R. Hamann
     Using radial grid of 1380 points,  8 beta functions with: 
                l(1) =   0
                l(2) =   0
                l(3) =   1
                l(4) =   1
                l(5) =   2
                l(6) =   2
                l(7) =   3
                l(8) =   3

     PseudoPot. # 2 for O  read from file:
     /cluster/scratch/mnoe/QE/pps/O_ONCV_LDA-3.0.upf
     MD5 check sum: a1bd6164e7280c17a38c229939bfbd54
     Pseudo is Norm-conserving + core correction, Zval =  6.0
     Generated using ONCVPSP code by D. R. Hamann
     Using radial grid of  926 points,  5 beta functions with: 
                l(1) =   0
                l(2) =   0
                l(3) =   1
                l(4) =   1
                l(5) =   2

     atomic species   valence    mass     pseudopotential
        W             28.00   183.84000     W ( 1.00)
        O              6.00    15.99940     O ( 1.00)

      2 Sym. Ops., with inversion, found



   Cartesian axes

     site n.     atom                  positions (alat units)
         1           W   tau(   1) = (   0.2500000   0.2930017   0.0000000  )
         2           W   tau(   2) = (   0.7500001   0.7554097   0.0000001  )
         3           W   tau(   3) = (   0.2500000   0.2312040   0.5000000  )
         4           W   tau(   4) = (   0.7500001   0.8172075   0.5000000  )
         5           W   tau(   5) = (   0.7500000   0.2930018   0.5000000  )
         6           W   tau(   6) = (   0.2500001   0.7554097   0.5000000  )
         7           W   tau(   7) = (   0.7500000   0.2312040   0.0000000  )
         8           W   tau(   8) = (   0.2500001   0.8172074   0.0000001  )
         9           O   tau(   9) = (   0.2500000   0.0080408   0.0000000  )
        10           O   tau(  10) = (   0.7500001   1.0403706   0.0000001  )
        11           O   tau(  11) = (   0.2500001   0.5161650   0.5000000  )
        12           O   tau(  12) = (   0.7500000   0.5322465   0.5000000  )
        13           O   tau(  13) = (   0.7500000   0.0080409   0.5000000  )
        14           O   tau(  14) = (   0.2500001   1.0403706   0.5000000  )
        15           O   tau(  15) = (   0.7500000   0.5161650   0.0000000  )
        16           O   tau(  16) = (   0.2500001   0.5322464   0.0000000  )
        17           O   tau(  17) = (   0.5000000   0.2621029   0.4553789  )
        18           O   tau(  18) = (   0.5000001   0.7863086   0.5446211  )
        19           O   tau(  19) = (   0.0000000   0.2621029   0.9553789  )
        20           O   tau(  20) = (   0.0000001   0.7863085   0.0446212  )
        21           O   tau(  21) = (   0.5000000   0.2621029   0.0446211  )
        22           O   tau(  22) = (   0.5000001   0.7863086   0.9553789  )
        23           O   tau(  23) = (   0.0000000   0.2621029   0.5446211  )
        24           O   tau(  24) = (   0.0000001   0.7863085   0.4553789  )
        25           O   tau(  25) = (   0.7053789   0.2621030   0.7500000  )
        26           O   tau(  26) = (   0.2946212   0.7863085   0.2500000  )
        27           O   tau(  27) = (   0.7946212   0.2621029   0.2500000  )
        28           O   tau(  28) = (   0.2053790   0.7863086   0.7500000  )
        29           O   tau(  29) = (   0.2946211   0.2621029   0.7500000  )
        30           O   tau(  30) = (   0.7053790   0.7863086   0.2500000  )
        31           O   tau(  31) = (   0.2053789   0.2621029   0.2500000  )
        32           O   tau(  32) = (   0.7946212   0.7863086   0.7500000  )

     number of k points=   112  gaussian smearing, width (Ry)=  0.0007

     Number of k-points >= 100: set verbosity='high' to print them.

     Dense  grid:   501861 G-vectors     FFT dimensions: ( 100, 108, 100)

     Estimated max dynamical RAM per process >       3.35 GB

     Estimated total dynamical RAM >     134.20 GB

     Initial potential from superposition of free atoms

     starting charge  367.99656, renormalised to  368.60000
     Starting wfc are  232 randomized atomic wfcs

     total cpu time spent up to now is       74.1 secs

     Self-consistent Calculation

     iteration #  1     ecut=   120.00 Ry     beta= 0.70
     Davidson diagonalization with overlap
     ethr =  1.00E-02,  avg # of iterations =  5.2

     total cpu time spent up to now is      302.4 secs

     total energy              =   -6253.43373581 Ry
     Harris-Foulkes estimate   =   -6264.28978905 Ry
     estimated scf accuracy    <      13.67488850 Ry

     iteration #  2     ecut=   120.00 Ry     beta= 0.70
     Davidson diagonalization with overlap
     ethr =  3.71E-03,  avg # of iterations =  3.5

     total cpu time spent up to now is      529.4 secs

     total energy              =   -6250.41500378 Ry
     Harris-Foulkes estimate   =   -6270.32377442 Ry
     estimated scf accuracy    <      52.93425282 Ry

     iteration #  3     ecut=   120.00 Ry     beta= 0.70
     Davidson diagonalization with overlap
     ethr =  3.71E-03,  avg # of iterations =  3.4

     total cpu time spent up to now is      742.2 secs

     total energy              =   -6260.68257438 Ry
     Harris-Foulkes estimate   =   -6260.95006454 Ry
     estimated scf accuracy    <       0.90052689 Ry

     iteration #  4     ecut=   120.00 Ry     beta= 0.70
     Davidson diagonalization with overlap
     ethr =  2.44E-04,  avg # of iterations =  3.6

     total cpu time spent up to now is      913.4 secs

     total energy              =   -6260.66743833 Ry
     Harris-Foulkes estimate   =   -6260.74486824 Ry
     estimated scf accuracy    <       0.22372104 Ry

     iteration #  5     ecut=   120.00 Ry     beta= 0.70
     Davidson diagonalization with overlap
     ethr =  6.07E-05,  avg # of iterations =  5.1

     total cpu time spent up to now is     1105.6 secs

     total energy              =   -6260.67821494 Ry
     Harris-Foulkes estimate   =   -6260.70494075 Ry
     estimated scf accuracy    <       0.06193283 Ry

     iteration #  6     ecut=   120.00 Ry     beta= 0.70
     Davidson diagonalization with overlap
     ethr =  1.68E-05,  avg # of iterations =  4.7

     total cpu time spent up to now is     1296.6 secs

     total energy              =   -6260.69074807 Ry
     Harris-Foulkes estimate   =   -6260.69376929 Ry
     estimated scf accuracy    <       0.00776176 Ry

     iteration #  7     ecut=   120.00 Ry     beta= 0.70
     Davidson diagonalization with overlap
     ethr =  2.11E-06,  avg # of iterations =  5.2

     total cpu time spent up to now is     1479.3 secs

     total energy              =   -6260.69182702 Ry
     Harris-Foulkes estimate   =   -6260.69190363 Ry
     estimated scf accuracy    <       0.00013308 Ry

     iteration #  8     ecut=   120.00 Ry     beta= 0.70
     Davidson diagonalization with overlap
     ethr =  3.61E-08,  avg # of iterations =  3.1

     total cpu time spent up to now is     1712.3 secs

     total energy              =   -6260.69188740 Ry
     Harris-Foulkes estimate   =   -6260.69191433 Ry
     estimated scf accuracy    <       0.00011029 Ry

     iteration #  9     ecut=   120.00 Ry     beta= 0.70
     Davidson diagonalization with overlap
     ethr =  2.99E-08,  avg # of iterations =  2.0

     total cpu time spent up to now is     1880.4 secs

     total energy              =   -6260.69189342 Ry
     Harris-Foulkes estimate   =   -6260.69190271 Ry
     estimated scf accuracy    <       0.00004720 Ry

     iteration # 10     ecut=   120.00 Ry     beta= 0.70
     Davidson diagonalization with overlap
     ethr =  1.28E-08,  avg # of iterations =  1.5

     total cpu time spent up to now is     2042.9 secs

     total energy              =   -6260.69188824 Ry
     Harris-Foulkes estimate   =   -6260.69189637 Ry
     estimated scf accuracy    <       0.00001971 Ry

     iteration # 11     ecut=   120.00 Ry     beta= 0.70
     Davidson diagonalization with overlap
     ethr =  5.35E-09,  avg # of iterations =  2.8

     total cpu time spent up to now is     2216.9 secs

     total energy              =   -6260.69189182 Ry
     Harris-Foulkes estimate   =   -6260.69189235 Ry
     estimated scf accuracy    <       0.00000142 Ry

     iteration # 12     ecut=   120.00 Ry     beta= 0.70
     Davidson diagonalization with overlap
     ethr =  3.86E-10,  avg # of iterations =  2.4

     total cpu time spent up to now is     2420.7 secs

     total energy              =   -6260.69189211 Ry
     Harris-Foulkes estimate   =   -6260.69189220 Ry
     estimated scf accuracy    <       0.00000031 Ry

     iteration # 13     ecut=   120.00 Ry     beta= 0.70
     Davidson diagonalization with overlap
     ethr =  8.46E-11,  avg # of iterations =  2.2

     total cpu time spent up to now is     2591.3 secs

     total energy              =   -6260.69189210 Ry
     Harris-Foulkes estimate   =   -6260.69189215 Ry
     estimated scf accuracy    <       0.00000009 Ry

     iteration # 14     ecut=   120.00 Ry     beta= 0.70
     Davidson diagonalization with overlap
     ethr =  2.55E-11,  avg # of iterations =  2.1

     total cpu time spent up to now is     2801.2 secs

     End of self-consistent calculation

     Number of k-points >= 100: set verbosity='high' to print the bands.

     the Fermi energy is     9.7708 ev

!    total energy              =   -6260.69189212 Ry
     Harris-Foulkes estimate   =   -6260.69189212 Ry
     estimated scf accuracy    <          4.7E-09 Ry

     The total energy is the sum of the following terms:

     one-electron contribution =   -4753.14091343 Ry
     hartree contribution      =    2613.44916830 Ry
     xc contribution           =    -966.33173775 Ry
     ewald contribution        =   -3154.66839812 Ry
     smearing contrib. (-TS)   =      -0.00001111 Ry

     convergence has been achieved in  14 iterations

     Writing output data file Landau_3.save
 
     init_run     :     61.27s CPU     63.10s WALL (       1 calls)
     electrons    :   2681.57s CPU   2727.27s WALL (       1 calls)

     Called by init_run:
     wfcinit      :     50.48s CPU     52.17s WALL (       1 calls)
     potinit      :      4.59s CPU      4.62s WALL (       1 calls)

     Called by electrons:
     c_bands      :   2344.91s CPU   2388.36s WALL (      14 calls)
     sum_band     :    326.32s CPU    327.79s WALL (      14 calls)
     v_of_rho     :      1.86s CPU      1.88s WALL (      15 calls)
     mix_rho      :      2.81s CPU      3.34s WALL (      14 calls)

     Called by c_bands:
     init_us_2    :     17.11s CPU     17.87s WALL (      87 calls)
     cegterg      :   1760.43s CPU   1801.52s WALL (      42 calls)

     Called by sum_band:

     Called by *egterg:
     h_psi        :   1359.97s CPU   1364.58s WALL (     200 calls)
     g_psi        :      6.05s CPU      6.05s WALL (     155 calls)
     cdiaghg      :     23.84s CPU     23.87s WALL (     197 calls)

     Called by h_psi:
     h_psi:pot    :   1350.28s CPU   1354.54s WALL (     200 calls)
     h_psi:calbec :    169.32s CPU    172.40s WALL (     200 calls)
     vloc_psi     :   1000.81s CPU   1001.47s WALL (     200 calls)
     add_vuspsi   :    180.16s CPU    180.67s WALL (     200 calls)

     General routines
     calbec       :    169.32s CPU    172.40s WALL (     200 calls)
     fft          :      1.12s CPU      1.12s WALL (      60 calls)
     fftw         :   1035.49s CPU   1035.84s WALL (   54358 calls)
 
     Parallel routines
 
     PWSCF        : 45m54.75s CPU    46m50.14s WALL

 
   This run was terminated on:  17: 8:41  21Mar2020            

=------------------------------------------------------------------------------=
   JOB DONE.
=------------------------------------------------------------------------------=
