
     Program PWSCF v.6.4.1 starts on 21Nov2019 at 16: 6:10 

     This program is part of the open-source Quantum ESPRESSO suite
     for quantum simulation of materials; please cite
         "P. Giannozzi et al., J. Phys.:Condens. Matter 21 395502 (2009);
         "P. Giannozzi et al., J. Phys.:Condens. Matter 29 465901 (2017);
          URL http://www.quantum-espresso.org", 
     in publications or presentations arising from this work. More details at
     http://www.quantum-espresso.org/quote

     Parallel version (MPI), running on    40 processors

     MPI processes distributed on     4 nodes
     K-points division:     npool     =      40
     Reading input from scf.in

     Current dimensions of program PWSCF are:
     Max number of different atomic species (ntypx) = 10
     Max number of k-points (npk) =  40000
     Max angular momentum in pseudopotentials (lmaxx) =  3

     Subspace diagonalization in iterative solution of the eigenvalue problem:
     a serial algorithm will be used

     Message from routine setup:
     using ibrav=0 with symmetry is DISCOURAGED, use correct ibrav instead
 
     G-vector sticks info
     --------------------
     sticks:   dense  smooth     PW     G-vecs:    dense   smooth      PW
     Sum        3761    3761   1033               251469   251469   35949
 


     bravais-lattice index     =            0
     lattice parameter (alat)  =       9.9140  a.u.
     unit-cell volume          =    1416.1750 (a.u.)^3
     number of atoms/cell      =           16
     number of atomic types    =            2
     number of electrons       =       184.34
     number of Kohn-Sham states=          111
     kinetic-energy cutoff     =     120.0000  Ry
     charge density cutoff     =     480.0000  Ry
     convergence threshold     =      1.0E-08
     mixing beta               =       0.7000
     number of iterations used =            8  plain     mixing
     Exchange-correlation      = SLA PW NOGX NOGC ( 1  4  0  0 0 0)

     celldm(1)=   9.913994  celldm(2)=   0.000000  celldm(3)=   0.000000
     celldm(4)=   0.000000  celldm(5)=   0.000000  celldm(6)=   0.000000

     crystal axes: (cart. coord. in units of alat)
               a(1) = (   1.000000   0.000000   0.000000 )  
               a(2) = (   0.000000   1.000000   0.000000 )  
               a(3) = (   0.000000   0.000000   1.453353 )  

     reciprocal axes: (cart. coord. in units 2 pi/alat)
               b(1) = (  1.000000  0.000000  0.000000 )  
               b(2) = (  0.000000  1.000000  0.000000 )  
               b(3) = (  0.000000  0.000000  0.688064 )  


     PseudoPot. # 1 for W  read from file:
     /cluster/scratch/mnoe/QE/pps/W_ONCV_LDA-4.0.upf
     MD5 check sum: ba0307d5d4cd419d6f1d13dc49d7c13a
     Pseudo is Norm-conserving + core correction, Zval = 28.0
     Generated using ONCVPSP code by D. R. Hamann
     Using radial grid of 1380 points,  8 beta functions with: 
                l(1) =   0
                l(2) =   0
                l(3) =   1
                l(4) =   1
                l(5) =   2
                l(6) =   2
                l(7) =   3
                l(8) =   3

     PseudoPot. # 2 for O  read from file:
     /cluster/scratch/mnoe/QE/pps/O_ONCV_LDA-3.0.upf
     MD5 check sum: b55cdb4f45ae2203d24ad12cf8d61a31
     Pseudo is Norm-conserving + core correction, Zval =  6.0
     Generated using ONCVPSP code by D. R. Hamann
     Using radial grid of  926 points,  5 beta functions with: 
                l(1) =   0
                l(2) =   0
                l(3) =   1
                l(4) =   1
                l(5) =   2

     atomic species   valence    mass     pseudopotential
        W             28.00   183.84000     W ( 1.00)
        O              6.00    15.99940     O ( 1.00)

     16 Sym. Ops., with inversion, found (14 have fractional translation)



   Cartesian axes

     site n.     atom                  positions (alat units)
         1           W   tau(   1) = (   0.2500000   0.2500000   0.3007228  )
         2           W   tau(   2) = (   0.7500000   0.7500000   1.1526298  )
         3           W   tau(   3) = (   0.7500000   0.7500000   0.4259535  )
         4           W   tau(   4) = (   0.2500000   0.2500000   1.0273991  )
         5           O   tau(   5) = (   0.2500000   0.2500000   0.6837568  )
         6           O   tau(   6) = (   0.7500000   0.7500000   0.7695958  )
         7           O   tau(   7) = (   0.7500000   0.7500000   0.0429195  )
         8           O   tau(   8) = (   0.2500000   0.2500000   1.4104331  )
         9           O   tau(   9) = (   0.5073386   0.4926613   0.3633382  )
        10           O   tau(  10) = (   0.4926614   0.5073387   1.0900145  )
        11           O   tau(  11) = (  -0.0073386   1.0073387   0.3633382  )
        12           O   tau(  12) = (   1.0073386  -0.0073386   1.0900145  )
        13           O   tau(  13) = (   1.0073387   0.5073386   0.3633382  )
        14           O   tau(  14) = (  -0.0073386   0.4926614   1.0900145  )
        15           O   tau(  15) = (   0.4926613  -0.0073386   0.3633382  )
        16           O   tau(  16) = (   0.5073387   1.0073386   1.0900145  )

     number of k points=    40  gaussian smearing, width (Ry)=  0.0007
                       cart. coord. in units 2pi/alat
        k(    1) = (   0.0000000   0.0000000   0.0000000), wk =   0.0092593
        k(    2) = (   0.0000000   0.0000000   0.1146774), wk =   0.0185185
        k(    3) = (   0.0000000   0.0000000   0.2293548), wk =   0.0185185
        k(    4) = (   0.0000000   0.0000000  -0.3440321), wk =   0.0092593
        k(    5) = (   0.0000000   0.1666667   0.0000000), wk =   0.0370370
        k(    6) = (   0.0000000   0.1666667   0.1146774), wk =   0.0740741
        k(    7) = (   0.0000000   0.1666667   0.2293548), wk =   0.0740741
        k(    8) = (   0.0000000   0.1666667  -0.3440321), wk =   0.0370370
        k(    9) = (   0.0000000   0.3333333   0.0000000), wk =   0.0370370
        k(   10) = (   0.0000000   0.3333333   0.1146774), wk =   0.0740741
        k(   11) = (   0.0000000   0.3333333   0.2293548), wk =   0.0740741
        k(   12) = (   0.0000000   0.3333333  -0.3440321), wk =   0.0370370
        k(   13) = (   0.0000000  -0.5000000   0.0000000), wk =   0.0185185
        k(   14) = (   0.0000000  -0.5000000   0.1146774), wk =   0.0370370
        k(   15) = (   0.0000000  -0.5000000   0.2293548), wk =   0.0370370
        k(   16) = (   0.0000000  -0.5000000  -0.3440321), wk =   0.0185185
        k(   17) = (   0.1666667   0.1666667   0.0000000), wk =   0.0370370
        k(   18) = (   0.1666667   0.1666667   0.1146774), wk =   0.0740741
        k(   19) = (   0.1666667   0.1666667   0.2293548), wk =   0.0740741
        k(   20) = (   0.1666667   0.1666667  -0.3440321), wk =   0.0370370
        k(   21) = (   0.1666667   0.3333333   0.0000000), wk =   0.0740741
        k(   22) = (   0.1666667   0.3333333   0.1146774), wk =   0.1481481
        k(   23) = (   0.1666667   0.3333333   0.2293548), wk =   0.1481481
        k(   24) = (   0.1666667   0.3333333  -0.3440321), wk =   0.0740741
        k(   25) = (   0.1666667  -0.5000000   0.0000000), wk =   0.0370370
        k(   26) = (   0.1666667  -0.5000000   0.1146774), wk =   0.0740741
        k(   27) = (   0.1666667  -0.5000000   0.2293548), wk =   0.0740741
        k(   28) = (   0.1666667  -0.5000000  -0.3440321), wk =   0.0370370
        k(   29) = (   0.3333333   0.3333333   0.0000000), wk =   0.0370370
        k(   30) = (   0.3333333   0.3333333   0.1146774), wk =   0.0740741
        k(   31) = (   0.3333333   0.3333333   0.2293548), wk =   0.0740741
        k(   32) = (   0.3333333   0.3333333  -0.3440321), wk =   0.0370370
        k(   33) = (   0.3333333  -0.5000000   0.0000000), wk =   0.0370370
        k(   34) = (   0.3333333  -0.5000000   0.1146774), wk =   0.0740741
        k(   35) = (   0.3333333  -0.5000000   0.2293548), wk =   0.0740741
        k(   36) = (   0.3333333  -0.5000000  -0.3440321), wk =   0.0370370
        k(   37) = (  -0.5000000  -0.5000000   0.0000000), wk =   0.0092593
        k(   38) = (  -0.5000000  -0.5000000   0.1146774), wk =   0.0185185
        k(   39) = (  -0.5000000  -0.5000000   0.2293548), wk =   0.0185185
        k(   40) = (  -0.5000000  -0.5000000  -0.3440321), wk =   0.0092593

     Dense  grid:   251469 G-vectors     FFT dimensions: (  72,  72, 108)

     Estimated max dynamical RAM per process >     788.93 MB

     Estimated total dynamical RAM >      30.82 GB

     Initial potential from superposition of free atoms

     starting charge  183.99828, renormalised to  184.34000
     Starting wfcs are  116 randomized atomic wfcs

     total cpu time spent up to now is        6.0 secs

     Self-consistent Calculation

     iteration #  1     ecut=   120.00 Ry     beta= 0.70
     Davidson diagonalization with overlap
     ethr =  1.00E-02,  avg # of iterations =  4.7

     total cpu time spent up to now is       24.3 secs

     total energy              =   -3126.50647851 Ry
     Harris-Foulkes estimate   =   -3132.11538335 Ry
     estimated scf accuracy    <       7.05218750 Ry

     iteration #  2     ecut=   120.00 Ry     beta= 0.70
     Davidson diagonalization with overlap
     ethr =  3.83E-03,  avg # of iterations =  3.4

     total cpu time spent up to now is       41.8 secs

     total energy              =   -3124.91750225 Ry
     Harris-Foulkes estimate   =   -3135.37316626 Ry
     estimated scf accuracy    <      28.00037556 Ry

     iteration #  3     ecut=   120.00 Ry     beta= 0.70
     Davidson diagonalization with overlap
     ethr =  3.83E-03,  avg # of iterations =  3.3

     total cpu time spent up to now is       57.7 secs

     total energy              =   -3130.25762090 Ry
     Harris-Foulkes estimate   =   -3130.39380107 Ry
     estimated scf accuracy    <       0.47320296 Ry

     iteration #  4     ecut=   120.00 Ry     beta= 0.70
     Davidson diagonalization with overlap
     ethr =  2.57E-04,  avg # of iterations =  2.8

     total cpu time spent up to now is       71.6 secs

     total energy              =   -3130.24367335 Ry
     Harris-Foulkes estimate   =   -3130.28776884 Ry
     estimated scf accuracy    <       0.12339855 Ry

     iteration #  5     ecut=   120.00 Ry     beta= 0.70
     Davidson diagonalization with overlap
     ethr =  6.69E-05,  avg # of iterations =  3.8

     total cpu time spent up to now is       85.7 secs

     total energy              =   -3130.25197893 Ry
     Harris-Foulkes estimate   =   -3130.26460073 Ry
     estimated scf accuracy    <       0.02945222 Ry

     iteration #  6     ecut=   120.00 Ry     beta= 0.70
     Davidson diagonalization with overlap
     ethr =  1.60E-05,  avg # of iterations =  4.4

     total cpu time spent up to now is      101.0 secs

     total energy              =   -3130.25792029 Ry
     Harris-Foulkes estimate   =   -3130.25955463 Ry
     estimated scf accuracy    <       0.00442644 Ry

     iteration #  7     ecut=   120.00 Ry     beta= 0.70
     Davidson diagonalization with overlap
     ethr =  2.40E-06,  avg # of iterations =  3.6

     total cpu time spent up to now is      115.0 secs

     total energy              =   -3130.25845282 Ry
     Harris-Foulkes estimate   =   -3130.25852047 Ry
     estimated scf accuracy    <       0.00011740 Ry

     iteration #  8     ecut=   120.00 Ry     beta= 0.70
     Davidson diagonalization with overlap
     ethr =  6.37E-08,  avg # of iterations =  3.3

     total cpu time spent up to now is      133.3 secs

     total energy              =   -3130.25850376 Ry
     Harris-Foulkes estimate   =   -3130.25851219 Ry
     estimated scf accuracy    <       0.00003923 Ry

     iteration #  9     ecut=   120.00 Ry     beta= 0.70
     Davidson diagonalization with overlap
     ethr =  2.13E-08,  avg # of iterations =  1.0

     total cpu time spent up to now is      145.3 secs

     total energy              =   -3130.25849981 Ry
     Harris-Foulkes estimate   =   -3130.25850573 Ry
     estimated scf accuracy    <       0.00001552 Ry

     iteration # 10     ecut=   120.00 Ry     beta= 0.70
     Davidson diagonalization with overlap
     ethr =  8.42E-09,  avg # of iterations =  2.2

     total cpu time spent up to now is      158.5 secs

     total energy              =   -3130.25850237 Ry
     Harris-Foulkes estimate   =   -3130.25850245 Ry
     estimated scf accuracy    <       0.00000015 Ry

     iteration # 11     ecut=   120.00 Ry     beta= 0.70
     Davidson diagonalization with overlap
     ethr =  8.20E-11,  avg # of iterations =  2.9

     total cpu time spent up to now is      175.5 secs

     total energy              =   -3130.25850243 Ry
     Harris-Foulkes estimate   =   -3130.25850244 Ry
     estimated scf accuracy    <       0.00000002 Ry

     iteration # 12     ecut=   120.00 Ry     beta= 0.70
     Davidson diagonalization with overlap
     ethr =  1.33E-11,  avg # of iterations =  2.0

     total cpu time spent up to now is      190.6 secs

     End of self-consistent calculation

          k = 0.0000 0.0000 0.0000 ( 31479 PWs)   bands (ev):

   -66.2061 -66.2056 -66.2048 -66.2043 -30.5797 -30.5761 -30.5403 -30.5403
   -30.5359 -30.5359 -30.5051 -30.5028 -30.4613 -30.4613 -30.4579 -30.4579
   -20.3606 -20.3605 -20.3605 -20.3604 -20.3485 -20.3482 -20.3459 -20.3458
   -20.3456 -20.3455 -20.3426 -20.3426 -20.3423 -20.3423 -20.3414 -20.3412
   -20.3386 -20.3386 -20.3386 -20.3386 -20.3373 -20.3373 -20.3369 -20.3369
   -20.3353 -20.3353 -20.3347 -20.3347 -10.1083  -9.6806  -9.3236  -9.0256
    -9.0003  -8.9183  -7.8620  -7.7995  -7.7995  -7.7758  -7.7758  -7.7246
     1.0867   1.1008   1.1034   1.2804   1.4451   1.5102   2.3875   2.3875
     2.4689   2.5872   3.9599   3.9599   4.7606   4.7606   4.9613   5.5572
     5.5572   5.7721   5.7721   5.8879   5.8879   5.9275   5.9958   6.5500
     6.5500   6.8210   7.1148   7.1533   7.1533   7.1760   7.1760   7.2223
     8.3348   8.3348   8.3617   8.3719   8.9335   8.9345   9.4993   9.4993
    12.4519  12.4519  13.2961  13.2961  13.4793  13.7291  13.7449  14.1504
    14.1525  14.1905  14.1905  14.6424  15.5986  16.3560  17.0820

          k = 0.0000 0.0000 0.1147 ( 31466 PWs)   bands (ev):

   -66.2061 -66.2056 -66.2048 -66.2044 -30.5747 -30.5712 -30.5400 -30.5400
   -30.5362 -30.5362 -30.5102 -30.5078 -30.4611 -30.4611 -30.4581 -30.4581
   -20.3605 -20.3605 -20.3605 -20.3604 -20.3480 -20.3478 -20.3459 -20.3458
   -20.3456 -20.3455 -20.3425 -20.3425 -20.3423 -20.3423 -20.3419 -20.3417
   -20.3386 -20.3386 -20.3386 -20.3386 -20.3372 -20.3372 -20.3369 -20.3369
   -20.3354 -20.3354 -20.3348 -20.3348 -10.0658  -9.6974  -9.2394  -9.0239
    -9.0020  -8.8746  -7.9775  -7.8498  -7.7979  -7.7979  -7.7774  -7.7774
     1.1010   1.1032   1.2960   1.4442   1.4689   1.6519   2.4589   2.4589
     2.4766   2.5790   3.7851   3.7851   4.7167   4.8219   4.8219   5.5533
     5.5534   5.5877   5.5877   5.6009   5.9725   6.1347   6.1347   6.5436
     6.5436   6.8399   7.0180   7.0942   7.1529   7.1529   7.1684   7.1684
     8.2444   8.2444   8.3624   8.3713   8.9339   8.9348   9.7567   9.7567
    12.2768  12.2768  13.3275  13.3275  13.7302  13.7407  13.7439  14.0932
    14.0932  14.1508  14.1526  14.8902  16.0235  16.0410  17.1469

          k = 0.0000 0.0000 0.2294 ( 31466 PWs)   bands (ev):

   -66.2060 -66.2057 -66.2047 -66.2045 -30.5612 -30.5579 -30.5392 -30.5392
   -30.5370 -30.5370 -30.5239 -30.5213 -30.4605 -30.4605 -30.4588 -30.4588
   -20.3605 -20.3605 -20.3604 -20.3604 -20.3468 -20.3466 -20.3459 -20.3458
   -20.3456 -20.3455 -20.3432 -20.3430 -20.3425 -20.3425 -20.3423 -20.3423
   -20.3386 -20.3386 -20.3385 -20.3385 -20.3371 -20.3371 -20.3368 -20.3368
   -20.3353 -20.3353 -20.3350 -20.3350  -9.9600  -9.7499  -9.0193  -9.0066
    -9.0001  -8.7344  -8.2736  -8.1543  -7.7936  -7.7936  -7.7817  -7.7817
     1.1015   1.1028   1.4196   1.4413   2.0884   2.3780   2.4978   2.5570
     2.6678   2.6678   3.4000   3.4000   4.0134   4.6265   4.9984   4.9984
     5.4231   5.4231   5.6058   5.6058   5.9412   5.9412   6.1062   6.6412
     6.8920   6.9808   6.9808   7.0388   7.1522   7.1522   7.1650   7.1650
     7.9711   7.9711   8.3643   8.3694   8.9347   8.9352  10.3733  10.3733
    11.7935  11.7935  13.4301  13.4301  13.7332  13.7411  13.8619  13.8619
    14.1518  14.1529  14.2632  15.4564  15.5873  16.9776  17.0822

          k = 0.0000 0.0000-0.3440 ( 31450 PWs)   bands (ev):

   -66.2059 -66.2059 -66.2046 -66.2046 -30.5426 -30.5426 -30.5396 -30.5396
   -30.5381 -30.5381 -30.5381 -30.5381 -30.4596 -30.4596 -30.4596 -30.4596
   -20.3605 -20.3605 -20.3604 -20.3604 -20.3458 -20.3458 -20.3456 -20.3456
   -20.3450 -20.3450 -20.3448 -20.3448 -20.3424 -20.3424 -20.3424 -20.3424
   -20.3385 -20.3385 -20.3385 -20.3385 -20.3369 -20.3369 -20.3369 -20.3369
   -20.3352 -20.3352 -20.3352 -20.3352  -9.8411  -9.8411  -9.0130  -9.0130
    -8.6503  -8.6502  -8.4854  -8.4854  -7.7877  -7.7877  -7.7877  -7.7877
     1.1022   1.1022   1.4352   1.4352   2.5272   2.5272   2.9955   2.9955
     2.9955   2.9955   3.0409   3.0409   3.4530   3.4530   5.2367   5.2367
     5.2367   5.2367   5.7050   5.7050   5.7050   5.7050   6.3273   6.3273
     6.9645   6.9646   7.1511   7.1511   7.1512   7.1512   7.5336   7.5336
     7.5336   7.5336   8.3669   8.3669   8.9353   8.9353  11.1110  11.1110
    11.1110  11.1110  13.6145  13.6145  13.6145  13.6145  13.7372  13.7372
    14.1526  14.1526  14.8419  14.8419  16.4070  16.4070  17.5289

          k = 0.0000 0.1667 0.0000 ( 31453 PWs)   bands (ev):

   -66.2060 -66.2055 -66.2049 -66.2044 -30.5801 -30.5766 -30.5361 -30.5350
   -30.5308 -30.5302 -30.5040 -30.5038 -30.4667 -30.4660 -30.4632 -30.4630
   -20.3605 -20.3605 -20.3605 -20.3604 -20.3485 -20.3484 -20.3460 -20.3460
   -20.3459 -20.3458 -20.3427 -20.3419 -20.3419 -20.3417 -20.3416 -20.3407
   -20.3387 -20.3386 -20.3386 -20.3386 -20.3373 -20.3372 -20.3369 -20.3369
   -20.3355 -20.3355 -20.3349 -20.3349 -10.0282  -9.5776  -9.3450  -8.9579
    -8.9327  -8.8931  -7.9740  -7.9377  -7.9013  -7.8775  -7.8148  -7.7317
     1.1085   1.2623   1.3469   1.3531   1.7076   1.7537   2.4590   2.4684
     2.6405   2.7560   3.9146   3.9557   4.4132   4.5119   4.9495   5.2569
     5.2876   5.5568   5.6679   5.9082   5.9104   6.0325   6.3382   6.3944
     6.4161   6.4851   6.5441   6.7904   7.0292   7.0536   7.0921   7.1380
     8.2225   8.2419   8.2610   8.2935   9.5835   9.6034   9.8308   9.9191
    12.5116  12.5403  13.0301  13.0364  13.5286  13.5365  13.7820  13.9738
    14.0131  14.6781  14.7102  14.8392  15.5296  16.6877  17.0610

          k = 0.0000 0.1667 0.1147 ( 31444 PWs)   bands (ev):

   -66.2060 -66.2055 -66.2049 -66.2044 -30.5753 -30.5717 -30.5360 -30.5347
   -30.5310 -30.5304 -30.5089 -30.5086 -30.4664 -30.4658 -30.4634 -30.4632
   -20.3605 -20.3605 -20.3605 -20.3604 -20.3481 -20.3479 -20.3460 -20.3459
   -20.3459 -20.3458 -20.3428 -20.3421 -20.3419 -20.3418 -20.3417 -20.3411
   -20.3386 -20.3386 -20.3386 -20.3386 -20.3372 -20.3372 -20.3369 -20.3369
   -20.3355 -20.3355 -20.3350 -20.3350  -9.9828  -9.5946  -9.2611  -8.9562
    -8.9344  -8.8524  -8.0343  -7.9358  -7.8998  -7.8897  -7.8792  -7.8384
     1.3474   1.3527   1.3561   1.5020   1.7063   1.8013   2.5324   2.5382
     2.6483   2.7488   3.7638   3.8043   4.4793   4.5753   4.7004   5.2644
     5.2946   5.3580   5.4461   5.6222   6.0294   6.0844   6.3706   6.4314
     6.4656   6.4751   6.4875   6.9190   6.9481   7.0575   7.0958   7.1514
     8.1716   8.1982   8.2299   8.2510   9.5856   9.5984  10.0305  10.1096
    12.3398  12.3715  13.0680  13.0692  13.5287  13.5336  13.8828  13.9104
    14.0521  14.6787  14.7025  15.0679  15.9536  16.3308  17.1206

          k = 0.0000 0.1667 0.2294 ( 31451 PWs)   bands (ev):

   -66.2059 -66.2056 -66.2048 -66.2045 -30.5621 -30.5585 -30.5365 -30.5340
   -30.5318 -30.5309 -30.5220 -30.5214 -30.4658 -30.4653 -30.4640 -30.4638
   -20.3605 -20.3605 -20.3605 -20.3604 -20.3468 -20.3467 -20.3460 -20.3459
   -20.3459 -20.3459 -20.3435 -20.3434 -20.3419 -20.3418 -20.3417 -20.3417
   -20.3386 -20.3386 -20.3386 -20.3386 -20.3371 -20.3371 -20.3369 -20.3369
   -20.3355 -20.3355 -20.3352 -20.3352  -9.8696  -9.6482  -9.0228  -8.9516
    -8.9390  -8.7200  -8.3001  -8.1606  -7.9301  -7.9054  -7.8954  -7.8835
     1.3485   1.3517   1.6621   1.7020   2.0942   2.3416   2.6656   2.7193
     2.7457   2.7736   3.4080   3.4502   4.0059   4.6213   4.6767   4.7618
     5.2023   5.2435   5.3086   5.3319   5.6788   5.7146   6.4537   6.4620
     6.4995   6.7877   6.9363   6.9678   7.0269   7.0565   7.1214   7.1888
     7.9178   7.9456   8.2335   8.2438   9.5890   9.5946  10.5489  10.6135
    11.8689  11.9088  13.1770  13.1800  13.5138  13.5214  13.6717  13.6749
    14.5827  14.6803  14.6906  15.7457  15.7485  17.0035  17.1462

          k = 0.0000 0.1667-0.3440 ( 31436 PWs)   bands (ev):

   -66.2058 -66.2058 -66.2047 -66.2047 -30.5450 -30.5450 -30.5403 -30.5402
   -30.5329 -30.5329 -30.5304 -30.5304 -30.4649 -30.4649 -30.4646 -30.4646
   -20.3605 -20.3605 -20.3604 -20.3604 -20.3460 -20.3460 -20.3459 -20.3459
   -20.3451 -20.3451 -20.3450 -20.3450 -20.3419 -20.3418 -20.3417 -20.3417
   -20.3386 -20.3386 -20.3386 -20.3386 -20.3369 -20.3369 -20.3369 -20.3369
   -20.3354 -20.3354 -20.3354 -20.3354  -9.7434  -9.7434  -8.9453  -8.9453
    -8.6743  -8.6742  -8.4803  -8.4803  -7.9210  -7.9210  -7.8895  -7.8895
     1.3501   1.3501   1.6926   1.6926   2.6933   2.6933   2.9959   2.9959
     3.0471   3.0471   3.0634   3.0634   3.4872   3.4873   4.9621   4.9621
     5.0270   5.0270   5.4062   5.4062   5.4234   5.4234   6.4672   6.4672
     6.6256   6.6256   7.0429   7.0429   7.1435   7.1435   7.5005   7.5005
     7.5317   7.5317   8.2388   8.2388   9.5920   9.5920  11.2196  11.2196
    11.2707  11.2707  13.3512  13.3512  13.3842  13.3842  13.5708  13.5708
    14.6836  14.6836  15.1484  15.1484  16.5771  16.5771  17.5766

          k = 0.0000 0.3333 0.0000 ( 31454 PWs)   bands (ev):

   -66.2058 -66.2053 -66.2052 -66.2046 -30.5803 -30.5780 -30.5252 -30.5207
   -30.5166 -30.5153 -30.5069 -30.5003 -30.4812 -30.4780 -30.4775 -30.4768
   -20.3605 -20.3605 -20.3604 -20.3604 -20.3486 -20.3486 -20.3464 -20.3463
   -20.3463 -20.3462 -20.3427 -20.3420 -20.3409 -20.3405 -20.3405 -20.3399
   -20.3390 -20.3388 -20.3387 -20.3386 -20.3372 -20.3372 -20.3371 -20.3371
   -20.3358 -20.3357 -20.3355 -20.3354  -9.8200  -9.4210  -9.2843  -8.8017
    -8.7647  -8.7399  -8.3654  -8.2655  -8.1606  -8.1366  -7.8031  -7.7510
     1.1403   1.2210   2.0006   2.0332   2.3654   2.3692   2.6455   2.6754
     3.1691   3.2754   3.6852   3.7192   3.9332   4.0382   4.5067   4.5572
     4.9287   5.0687   5.3293   5.3607   5.4408   5.9531   5.9720   6.1121
     6.1994   6.2168   6.3218   6.6832   7.0151   7.1792   7.2505   7.4957
     7.9085   7.9091   8.0287   8.1536  10.5890  10.6595  10.7055  10.7814
    12.3705  12.4421  12.7146  12.8118  12.8224  12.8232  13.5802  13.6314
    14.3942  15.3160  15.4310  15.9977  16.0041  17.2829  17.3535

          k = 0.0000 0.3333 0.1147 ( 31443 PWs)   bands (ev):

   -66.2058 -66.2053 -66.2051 -66.2047 -30.5756 -30.5731 -30.5261 -30.5204
   -30.5168 -30.5154 -30.5114 -30.5042 -30.4809 -30.4783 -30.4778 -30.4770
   -20.3605 -20.3605 -20.3604 -20.3604 -20.3482 -20.3481 -20.3464 -20.3463
   -20.3463 -20.3462 -20.3430 -20.3424 -20.3408 -20.3405 -20.3405 -20.3401
   -20.3390 -20.3388 -20.3387 -20.3387 -20.3372 -20.3372 -20.3371 -20.3370
   -20.3358 -20.3358 -20.3356 -20.3354  -9.7648  -9.3399  -9.3019  -8.7709
    -8.7631  -8.7416  -8.3896  -8.2607  -8.1590  -8.1382  -7.9080  -7.8631
     1.3998   1.4805   2.0031   2.0313   2.3659   2.3753   2.7197   2.7383
     3.1740   3.2692   3.6102   3.6556   4.0011   4.1028   4.5215   4.5723
     4.6601   4.8935   5.1349   5.3061   5.3274   5.6368   5.6686   5.9318
     6.3957   6.4619   6.6640   6.7719   7.0240   7.1730   7.2643   7.4880
     7.9007   7.9090   7.9683   8.0931  10.6487  10.6699  10.7567  10.8871
    12.4105  12.4654  12.5834  12.6585  12.8124  12.8260  13.4614  13.5177
    14.7278  15.5885  15.7348  15.9982  16.0034  16.9374  17.3948

          k = 0.0000 0.3333 0.2294 ( 31432 PWs)   bands (ev):

   -66.2057 -66.2054 -66.2050 -66.2048 -30.5626 -30.5599 -30.5313 -30.5241
   -30.5196 -30.5176 -30.5157 -30.5119 -30.4803 -30.4785 -30.4784 -30.4775
   -20.3605 -20.3605 -20.3605 -20.3604 -20.3470 -20.3469 -20.3463 -20.3463
   -20.3462 -20.3462 -20.3438 -20.3436 -20.3408 -20.3405 -20.3405 -20.3405
   -20.3389 -20.3388 -20.3388 -20.3387 -20.3370 -20.3370 -20.3369 -20.3369
   -20.3360 -20.3359 -20.3358 -20.3357  -9.6255  -9.3599  -9.1119  -8.7586
    -8.7461  -8.6653  -8.5079  -8.2442  -8.1650  -8.1545  -8.1426  -8.0866
     2.0097   2.0260   2.0875   2.1182   2.3546   2.4632   2.9175   2.9520
     3.1804   3.2528   3.3876   3.4604   3.9933   4.2084   4.2920   4.4351
     4.5789   4.6305   4.7967   4.9008   5.1354   5.2923   5.3243   5.3437
     6.9084   6.9272   6.9665   7.0207   7.0409   7.1531   7.3235   7.4541
     7.7701   7.8225   7.9171   7.9618  10.6742  10.6765  11.0660  11.2161
    12.1173  12.2373  12.5490  12.6436  12.8076  12.8373  13.1793  13.2397
    15.3587  15.9994  16.0020  16.1605  16.4260  16.7474  17.3874

          k = 0.0000 0.3333-0.3440 ( 31406 PWs)   bands (ev):

   -66.2055 -66.2055 -66.2049 -66.2049 -30.5454 -30.5454 -30.5419 -30.5419
   -30.5186 -30.5186 -30.5153 -30.5153 -30.4794 -30.4794 -30.4781 -30.4781
   -20.3605 -20.3605 -20.3604 -20.3604 -20.3463 -20.3463 -20.3462 -20.3462
   -20.3453 -20.3453 -20.3453 -20.3453 -20.3407 -20.3407 -20.3405 -20.3405
   -20.3389 -20.3389 -20.3387 -20.3387 -20.3369 -20.3369 -20.3369 -20.3368
   -20.3360 -20.3360 -20.3359 -20.3359  -9.4706  -9.4706  -8.7920  -8.7920
    -8.7522  -8.7522  -8.4574  -8.4574  -8.2037  -8.2037  -8.1487  -8.1486
     2.0182   2.0182   2.3260   2.3260   2.9546   2.9546   3.0783   3.0783
     3.1783   3.1783   3.2433   3.2433   3.5308   3.5308   4.5100   4.5100
     4.5536   4.5536   4.7451   4.7451   4.8263   4.8263   5.3190   5.3190
     7.0193   7.0193   7.1043   7.1043   7.3526   7.3526   7.4316   7.4317
     7.5246   7.5246   7.9257   7.9257  10.6777  10.6777  11.5695  11.5695
    11.7092  11.7092  12.7155  12.7155  12.8801  12.8801  12.9596  12.9596
    15.9000  15.9000  16.0014  16.0014  16.9875  16.9875  17.4817

          k = 0.0000-0.5000 0.0000 ( 31430 PWs)   bands (ev):

   -66.2055 -66.2055 -66.2050 -66.2050 -30.5795 -30.5795 -30.5137 -30.5137
   -30.5010 -30.5010 -30.4971 -30.4971 -30.4959 -30.4958 -30.4917 -30.4917
   -20.3605 -20.3605 -20.3604 -20.3604 -20.3487 -20.3486 -20.3465 -20.3465
   -20.3464 -20.3464 -20.3424 -20.3424 -20.3398 -20.3398 -20.3394 -20.3394
   -20.3393 -20.3393 -20.3390 -20.3390 -20.3372 -20.3372 -20.3371 -20.3371
   -20.3359 -20.3359 -20.3358 -20.3358  -9.5825  -9.5825  -8.8500  -8.8500
    -8.5969  -8.5969  -8.4786  -8.4786  -8.4542  -8.4542  -7.7774  -7.7774
     1.1772   1.1772   2.6873   2.6873   2.7848   2.7848   2.9498   2.9498
     3.1291   3.1291   3.8218   3.8218   3.8976   3.8976   4.0759   4.0759
     4.1745   4.1745   4.9642   4.9642   5.6163   5.6163   6.0715   6.0715
     6.1024   6.1024   6.4008   6.4008   7.4997   7.4998   7.5376   7.5376
     7.6164   7.6164   7.8910   7.8910  11.4639  11.4639  11.6460  11.6460
    11.8066  11.8066  11.8571  11.8571  13.0984  13.0984  13.2009  13.2009
    14.9421  14.9421  16.3656  16.3656  17.4761  17.4761  17.5796

          k = 0.0000-0.5000 0.1147 ( 31424 PWs)   bands (ev):

   -66.2055 -66.2054 -66.2050 -66.2050 -30.5747 -30.5747 -30.5167 -30.5167
   -30.5007 -30.5007 -30.4973 -30.4973 -30.4960 -30.4960 -30.4934 -30.4934
   -20.3605 -20.3605 -20.3604 -20.3604 -20.3482 -20.3482 -20.3465 -20.3465
   -20.3464 -20.3464 -20.3428 -20.3428 -20.3398 -20.3398 -20.3394 -20.3394
   -20.3393 -20.3393 -20.3391 -20.3391 -20.3371 -20.3371 -20.3371 -20.3371
   -20.3360 -20.3360 -20.3359 -20.3359  -9.5118  -9.5118  -8.8691  -8.8691
    -8.5816  -8.5816  -8.4770  -8.4770  -8.4558  -8.4558  -7.8876  -7.8876
     1.4378   1.4378   2.7128   2.7128   2.8264   2.8264   2.9388   2.9388
     3.1115   3.1115   3.8707   3.8707   3.9375   3.9375   4.0741   4.0741
     4.1743   4.1743   4.7022   4.7022   5.2231   5.2232   5.7634   5.7634
     6.4953   6.4953   6.5896   6.5896   7.4919   7.4919   7.5407   7.5407
     7.5913   7.5913   7.8565   7.8565  11.5133  11.5133  11.7026  11.7026
    11.8195  11.8195  11.8729  11.8729  12.9569  12.9569  13.0660  13.0660
    15.3369  15.3369  16.4482  16.4482  17.3666  17.3667  17.5837

          k = 0.0000-0.5000 0.2294 ( 31464 PWs)   bands (ev):

   -66.2054 -66.2054 -66.2051 -66.2051 -30.5616 -30.5616 -30.5272 -30.5272
   -30.5000 -30.5000 -30.4981 -30.4981 -30.4964 -30.4964 -30.4958 -30.4958
   -20.3605 -20.3605 -20.3604 -20.3604 -20.3470 -20.3470 -20.3464 -20.3464
   -20.3464 -20.3464 -20.3438 -20.3438 -20.3397 -20.3397 -20.3394 -20.3394
   -20.3394 -20.3394 -20.3393 -20.3393 -20.3369 -20.3369 -20.3369 -20.3369
   -20.3362 -20.3362 -20.3361 -20.3361  -9.3233  -9.3233  -8.9397  -8.9397
    -8.5255  -8.5254  -8.4726  -8.4726  -8.4602  -8.4602  -8.1453  -8.1453
     2.1299   2.1299   2.7761   2.7761   2.9049   2.9049   2.9443   2.9443
     3.0501   3.0501   3.9790   3.9790   4.0306   4.0306   4.0559   4.0559
     4.1961   4.1962   4.2025   4.2025   4.7207   4.7207   5.0339   5.0339
     6.9721   6.9721   6.9835   6.9835   7.4578   7.4578   7.4873   7.4873
     7.5686   7.5686   7.7524   7.7524  11.6424  11.6424  11.7589  11.7589
    11.9514  11.9514  11.9709  11.9709  12.6042  12.6042  12.7230  12.7230
    16.2130  16.2130  16.7428  16.7428  17.1067  17.1068  17.5890

          k = 0.0000-0.5000-0.3440 ( 31396 PWs)   bands (ev):

   -66.2052 -66.2052 -66.2052 -66.2052 -30.5440 -30.5440 -30.5440 -30.5440
   -30.4990 -30.4990 -30.4990 -30.4990 -30.4966 -30.4966 -30.4966 -30.4966
   -20.3605 -20.3605 -20.3605 -20.3605 -20.3464 -20.3464 -20.3464 -20.3464
   -20.3454 -20.3454 -20.3454 -20.3454 -20.3396 -20.3396 -20.3396 -20.3396
   -20.3394 -20.3394 -20.3393 -20.3393 -20.3366 -20.3366 -20.3366 -20.3366
   -20.3365 -20.3365 -20.3365 -20.3365  -9.0969  -9.0969  -9.0969  -9.0969
    -8.4667  -8.4666  -8.4666  -8.4666  -8.3900  -8.3900  -8.3900  -8.3900
     2.8448   2.8448   2.8448   2.8448   2.8664   2.8665   2.8665   2.8665
     3.2762   3.2762   3.2762   3.2762   4.1186   4.1186   4.1186   4.1186
     4.3121   4.3121   4.3121   4.3121   4.4461   4.4461   4.4461   4.4461
     7.2903   7.2903   7.2903   7.2903   7.3263   7.3263   7.3264   7.3264
     7.6248   7.6248   7.6248   7.6248  11.7369  11.7369  11.7369  11.7369
    12.2051  12.2051  12.2051  12.2051  12.3142  12.3142  12.3142  12.3142
    16.7730  16.7730  16.7730  16.7730  17.5418  17.5418  17.5418

          k = 0.1667 0.1667 0.0000 ( 31435 PWs)   bands (ev):

   -66.2060 -66.2054 -66.2050 -66.2045 -30.5800 -30.5770 -30.5415 -30.5371
   -30.5222 -30.5148 -30.5051 -30.5023 -30.4805 -30.4782 -30.4603 -30.4569
   -20.3605 -20.3605 -20.3604 -20.3604 -20.3486 -20.3484 -20.3461 -20.3460
   -20.3460 -20.3459 -20.3428 -20.3425 -20.3419 -20.3417 -20.3404 -20.3399
   -20.3393 -20.3391 -20.3382 -20.3382 -20.3374 -20.3372 -20.3371 -20.3368
   -20.3358 -20.3354 -20.3353 -20.3347  -9.9730  -9.5184  -9.3700  -8.9522
    -8.8348  -8.7949  -8.2453  -8.2032  -7.8267  -7.8138  -7.7893  -7.7377
     1.0991   1.2343   1.2515   1.2712   2.2550   2.2648   2.3737   2.6674
     2.8044   2.9167   3.7072   3.9036   4.0186   4.5845   4.7717   4.9383
     5.3310   5.4241   5.6308   5.8568   5.9922   6.0608   6.1454   6.2894
     6.4138   6.4139   6.4404   6.5709   6.7581   6.8983   7.1921   7.3547
     8.0400   8.0845   8.1018   8.3267   9.5461  10.0897  10.1184  10.6657
    12.3583  12.4825  12.7611  13.2911  13.3329  13.3454  13.5868  13.7792
    14.1923  14.8433  15.0314  15.2355  15.4436  17.1671  17.2306

          k = 0.1667 0.1667 0.1147 ( 31452 PWs)   bands (ev):

   -66.2059 -66.2055 -66.2050 -66.2045 -30.5751 -30.5722 -30.5412 -30.5374
   -30.5228 -30.5150 -30.5097 -30.5064 -30.4805 -30.4785 -30.4601 -30.4571
   -20.3605 -20.3605 -20.3605 -20.3604 -20.3481 -20.3480 -20.3461 -20.3460
   -20.3460 -20.3459 -20.3428 -20.3426 -20.3423 -20.3422 -20.3404 -20.3401
   -20.3392 -20.3391 -20.3382 -20.3382 -20.3373 -20.3372 -20.3370 -20.3367
   -20.3359 -20.3355 -20.3353 -20.3347  -9.9260  -9.5347  -9.2872  -8.9303
    -8.8374  -8.7760  -8.2647  -8.2002  -7.9311  -7.8556  -7.8122  -7.7909
     1.2096   1.2339   1.4075   1.5294   2.2622   2.2668   2.4446   2.7329
     2.8129   2.9097   3.6334   3.7874   4.0251   4.6004   4.6819   4.8344
     5.0634   5.4321   5.4631   5.6457   5.7660   6.1245   6.3180   6.3495
     6.4018   6.4347   6.5808   6.5998   6.7553   6.9696   7.0583   7.3525
     8.0230   8.0662   8.0767   8.2395   9.7881  10.0915  10.1225  10.7797
    12.2673  12.4525  12.6007  13.3030  13.3357  13.3506  13.4829  14.0130
    14.0960  14.8309  15.1711  15.3576  15.8632  16.6888  17.2788

          k = 0.1667 0.1667 0.2294 ( 31457 PWs)   bands (ev):

   -66.2058 -66.2056 -66.2049 -66.2046 -30.5619 -30.5589 -30.5404 -30.5382
   -30.5283 -30.5227 -30.5155 -30.5139 -30.4804 -30.4791 -30.4594 -30.4577
   -20.3605 -20.3605 -20.3605 -20.3604 -20.3469 -20.3468 -20.3460 -20.3460
   -20.3460 -20.3459 -20.3434 -20.3434 -20.3427 -20.3426 -20.3404 -20.3403
   -20.3392 -20.3391 -20.3382 -20.3382 -20.3372 -20.3371 -20.3369 -20.3367
   -20.3360 -20.3357 -20.3353 -20.3350  -9.8095  -9.5868  -9.0528  -8.8868
    -8.8453  -8.6860  -8.3919  -8.1906  -8.1700  -8.0915  -7.8077  -7.7955
     1.2275   1.2329   2.0821   2.1291   2.2529   2.4210   2.6513   2.8256
     2.8929   2.9421   3.4031   3.4168   4.0002   4.2248   4.5199   4.6581
     4.9096   5.0079   5.2193   5.3421   5.4743   5.9005   6.4068   6.4306
     6.4338   6.6285   6.7422   6.8062   6.9595   7.0074   7.1606   7.3351
     7.8331   7.9290   8.0740   8.1046  10.0953  10.0956  10.4128  11.1178
    11.8005  12.1750  12.5940  13.1561  13.3386  13.3425  13.4519  13.8667
    14.4162  14.7869  15.3425  15.9960  16.1383  16.8882  17.3918

          k = 0.1667 0.1667-0.3440 ( 31426 PWs)   bands (ev):

   -66.2057 -66.2057 -66.2047 -66.2047 -30.5440 -30.5440 -30.5408 -30.5408
   -30.5393 -30.5393 -30.5158 -30.5158 -30.4798 -30.4798 -30.4586 -30.4586
   -20.3605 -20.3605 -20.3604 -20.3604 -20.3461 -20.3461 -20.3460 -20.3460
   -20.3451 -20.3451 -20.3450 -20.3450 -20.3426 -20.3426 -20.3404 -20.3404
   -20.3392 -20.3392 -20.3381 -20.3381 -20.3370 -20.3370 -20.3368 -20.3368
   -20.3360 -20.3360 -20.3352 -20.3352  -9.6812  -9.6812  -8.8598  -8.8598
    -8.7153  -8.7153  -8.4711  -8.4711  -8.1687  -8.1687  -7.8016  -7.8016
     1.2311   1.2311   2.2325   2.2325   2.8450   2.8450   3.0017   3.0017
     3.0268   3.0268   3.1066   3.1066   3.4980   3.4981   4.5395   4.5395
     4.8137   4.8137   5.2145   5.2145   5.6022   5.6022   6.4301   6.4301
     6.5670   6.5670   6.7267   6.7267   7.2682   7.2682   7.4940   7.4941
     7.4981   7.4981   8.0862   8.0862  10.0995  10.0995  11.1292  11.1292
    11.6258  11.6258  12.8452  12.8452  13.3406  13.3406  13.6239  13.6239
    14.6750  14.6750  15.6562  15.6562  16.8234  16.8234  18.0838

          k = 0.1667 0.3333 0.0000 ( 31412 PWs)   bands (ev):

   -66.2058 -66.2052 -66.2052 -66.2047 -30.5798 -30.5781 -30.5376 -30.5325
   -30.5112 -30.5096 -30.4983 -30.4958 -30.4946 -30.4936 -30.4645 -30.4613
   -20.3605 -20.3605 -20.3604 -20.3604 -20.3486 -20.3485 -20.3462 -20.3462
   -20.3462 -20.3461 -20.3428 -20.3422 -20.3421 -20.3414 -20.3401 -20.3397
   -20.3392 -20.3388 -20.3381 -20.3379 -20.3375 -20.3375 -20.3368 -20.3366
   -20.3361 -20.3360 -20.3353 -20.3349  -9.8207  -9.4567  -9.3365  -8.9009
    -8.6484  -8.5735  -8.5498  -8.5294  -7.9398  -7.9304  -7.7998  -7.7543
     1.1399   1.2212   1.4938   1.5133   2.4415   2.7309   2.8014   3.0246
     3.1133   3.3485   3.4088   3.8381   3.8992   3.9781   4.4981   4.9298
     4.9557   5.0888   5.2421   5.7070   5.8314   5.8520   5.9146   6.0190
     6.1744   6.2400   6.4450   6.6698   6.8398   6.9578   6.9743   7.6716
     7.6856   7.7604   7.7864   8.2706   9.9205  11.0267  11.0608  11.5765
    11.5775  12.5304  12.7879  12.8150  13.0347  13.1353  13.1661  14.0199
    14.1178  15.1729  15.5439  15.6047  16.3400  17.3967  17.4815

          k = 0.1667 0.3333 0.1147 ( 31417 PWs)   bands (ev):

   -66.2057 -66.2053 -66.2052 -66.2047 -30.5750 -30.5732 -30.5374 -30.5327
   -30.5141 -30.5131 -30.4986 -30.4975 -30.4948 -30.4948 -30.4643 -30.4615
   -20.3605 -20.3605 -20.3604 -20.3604 -20.3482 -20.3481 -20.3462 -20.3462
   -20.3462 -20.3461 -20.3430 -20.3425 -20.3422 -20.3416 -20.3401 -20.3397
   -20.3391 -20.3388 -20.3381 -20.3379 -20.3374 -20.3374 -20.3367 -20.3366
   -20.3362 -20.3361 -20.3354 -20.3349  -9.7679  -9.3793  -9.3514  -8.8719
    -8.6628  -8.5782  -8.5438  -8.5211  -7.9601  -7.9380  -7.8907  -7.8619
     1.3728   1.4563   1.4932   1.5732   2.5143   2.7620   2.8407   3.0103
     3.1020   3.3471   3.4050   3.7919   3.9115   3.9469   4.5624   4.6640
     4.9386   4.9519   5.0182   5.4636   5.7070   5.7159   5.7261   6.0733
     6.3879   6.4256   6.5720   6.6943   6.8383   6.9463   7.0174   7.6722
     7.6786   7.7302   7.7549   8.1879  10.1073  11.0278  11.0604  11.6344
    11.6595  12.3621  12.7834  12.8075  12.9908  13.0142  13.0971  13.9173
    14.3889  15.5188  15.5680  15.7652  16.4086  17.1947  17.5093

          k = 0.1667 0.3333 0.2294 ( 31437 PWs)   bands (ev):

   -66.2056 -66.2054 -66.2051 -66.2048 -30.5618 -30.5601 -30.5373 -30.5333
   -30.5250 -30.5242 -30.4994 -30.4991 -30.4960 -30.4953 -30.4637 -30.4621
   -20.3605 -20.3605 -20.3605 -20.3604 -20.3470 -20.3469 -20.3462 -20.3462
   -20.3462 -20.3461 -20.3437 -20.3436 -20.3422 -20.3421 -20.3401 -20.3399
   -20.3391 -20.3389 -20.3380 -20.3379 -20.3373 -20.3372 -20.3367 -20.3365
   -20.3364 -20.3363 -20.3354 -20.3352  -9.6372  -9.4010  -9.1672  -8.7786
    -8.7241  -8.5958  -8.5185  -8.4892  -8.1857  -8.1488  -7.9330  -7.9157
     1.4795   1.4913   2.1109   2.2203   2.7294   2.8502   2.9460   2.9675
     3.0594   3.3202   3.3956   3.4674   4.0319   4.0418   4.1027   4.3029
     4.7357   4.8196   4.9214   4.9909   5.0036   5.5522   5.7153   5.7917
     6.6760   6.7586   6.8209   6.8894   6.9254   7.0282   7.1905   7.6030
     7.6315   7.6646   7.7008   7.9526  10.5965  11.0295  11.0646  11.8298
    11.8753  11.9249  12.6001  12.6637  12.8006  12.8282  13.2022  13.6710
    14.8814  15.4303  16.1433  16.4967  16.7514  16.8204  17.5524

          k = 0.1667 0.3333-0.3440 ( 31460 PWs)   bands (ev):

   -66.2055 -66.2055 -66.2049 -66.2049 -30.5447 -30.5447 -30.5422 -30.5422
   -30.5334 -30.5334 -30.4996 -30.4996 -30.4959 -30.4959 -30.4629 -30.4629
   -20.3605 -20.3605 -20.3604 -20.3604 -20.3463 -20.3462 -20.3462 -20.3462
   -20.3452 -20.3452 -20.3452 -20.3452 -20.3422 -20.3422 -20.3400 -20.3400
   -20.3390 -20.3390 -20.3379 -20.3379 -20.3371 -20.3371 -20.3366 -20.3366
   -20.3365 -20.3365 -20.3354 -20.3354  -9.4972  -9.4972  -8.8992  -8.8990
    -8.6524  -8.6521  -8.4185  -8.4171  -8.3964  -8.3952  -7.9257  -7.9257
     1.4876   1.4879   2.8473   2.8479   2.9120   2.9121   3.0026   3.0106
     3.1783   3.1853   3.3542   3.3572   3.4165   3.4200   4.3342   4.3366
     4.4071   4.4072   4.8649   4.9009   5.1686   5.2028   5.7288   5.7301
     6.7726   6.7849   6.8363   6.8482   7.3789   7.3803   7.4003   7.4169
     7.4584   7.4682   7.7409   7.7449  11.0105  11.0188  11.2834  11.2975
    12.1806  12.1908  12.2469  12.2492  12.7956  12.8191  13.3964  13.4117
    15.2325  15.2396  16.4634  16.4693  17.3404  17.3608  17.4934

          k = 0.1667-0.5000 0.0000 ( 31444 PWs)   bands (ev):

   -66.2055 -66.2055 -66.2050 -66.2050 -30.5792 -30.5792 -30.5253 -30.5253
   -30.5182 -30.5182 -30.5035 -30.5035 -30.4774 -30.4774 -30.4750 -30.4750
   -20.3605 -20.3605 -20.3604 -20.3604 -20.3486 -20.3486 -20.3463 -20.3463
   -20.3463 -20.3463 -20.3425 -20.3425 -20.3412 -20.3412 -20.3405 -20.3405
   -20.3384 -20.3384 -20.3380 -20.3380 -20.3376 -20.3376 -20.3365 -20.3365
   -20.3362 -20.3362 -20.3353 -20.3353  -9.6210  -9.6210  -9.0356  -9.0356
    -8.7731  -8.7731  -8.2318  -8.2318  -8.2276  -8.2276  -7.7773  -7.7773
     1.1816   1.1816   2.1429   2.1429   2.1634   2.1634   2.6522   2.6522
     3.7086   3.7086   3.9803   3.9803   4.1709   4.1709   4.2455   4.2455
     4.7335   4.7335   5.1265   5.1265   5.6217   5.6217   5.9030   5.9030
     6.2782   6.2782   6.5469   6.5469   7.2129   7.2130   7.2428   7.2428
     7.2888   7.2888   8.0975   8.0975  10.6984  10.6984  11.9738  11.9738
    12.0035  12.0035  12.4325  12.4325  12.7609  12.7609  13.6210  13.6210
    14.6998  14.6998  16.4770  16.4770  16.7332  16.7332  17.5549

          k = 0.1667-0.5000 0.1147 ( 31430 PWs)   bands (ev):

   -66.2055 -66.2054 -66.2050 -66.2050 -30.5744 -30.5744 -30.5257 -30.5257
   -30.5184 -30.5184 -30.5076 -30.5076 -30.4775 -30.4775 -30.4753 -30.4753
   -20.3605 -20.3605 -20.3604 -20.3604 -20.3481 -20.3481 -20.3463 -20.3463
   -20.3463 -20.3463 -20.3428 -20.3428 -20.3412 -20.3412 -20.3407 -20.3407
   -20.3384 -20.3384 -20.3380 -20.3380 -20.3375 -20.3375 -20.3364 -20.3364
   -20.3363 -20.3363 -20.3354 -20.3354  -9.5563  -9.5563  -9.0496  -9.0496
    -8.7527  -8.7527  -8.2397  -8.2397  -8.2251  -8.2251  -7.8863  -7.8863
     1.4406   1.4406   2.1499   2.1499   2.1609   2.1609   2.7236   2.7236
     3.6460   3.6460   4.0234   4.0234   4.1871   4.1871   4.2144   4.2144
     4.7425   4.7425   4.8957   4.8957   5.2710   5.2710   5.8882   5.8882
     6.3509   6.3509   6.7394   6.7394   7.2069   7.2069   7.2437   7.2437
     7.2940   7.2940   8.0350   8.0350  10.8117  10.8117  11.9720  11.9720
    12.0024  12.0024  12.4782  12.4782  12.6063  12.6063  13.5012  13.5012
    15.0435  15.0435  16.5720  16.5720  16.6950  16.6950  17.5903

          k = 0.1667-0.5000 0.2294 ( 31430 PWs)   bands (ev):

   -66.2054 -66.2054 -66.2051 -66.2051 -30.5613 -30.5613 -30.5296 -30.5296
   -30.5188 -30.5188 -30.5161 -30.5161 -30.4772 -30.4772 -30.4759 -30.4759
   -20.3605 -20.3605 -20.3604 -20.3604 -20.3470 -20.3469 -20.3463 -20.3463
   -20.3463 -20.3463 -20.3438 -20.3438 -20.3412 -20.3412 -20.3409 -20.3409
   -20.3383 -20.3383 -20.3381 -20.3381 -20.3373 -20.3373 -20.3366 -20.3366
   -20.3362 -20.3362 -20.3356 -20.3356  -9.3907  -9.3907  -9.0998  -9.0998
    -8.6772  -8.6772  -8.2961  -8.2961  -8.2170  -8.2170  -8.1127  -8.1127
     2.0434   2.0434   2.1528   2.1528   2.2596   2.2596   2.9378   2.9378
     3.4248   3.4248   4.0775   4.0775   4.1095   4.1095   4.3007   4.3007
     4.3543   4.3543   4.7756   4.7756   4.9100   4.9100   5.2825   5.2825
     6.8353   6.8353   7.0076   7.0076   7.1819   7.1819   7.2375   7.2375
     7.3361   7.3361   7.8439   7.8440  11.1419  11.1419  11.9525  11.9526
    11.9998  11.9998  12.2163  12.2163  12.6245  12.6245  13.2076  13.2076
    15.7458  15.7458  16.5474  16.5474  16.8830  16.8830  17.4673

          k = 0.1667-0.5000-0.3440 ( 31432 PWs)   bands (ev):

   -66.2052 -66.2052 -66.2052 -66.2052 -30.5439 -30.5439 -30.5439 -30.5439
   -30.5190 -30.5190 -30.5190 -30.5190 -30.4766 -30.4766 -30.4766 -30.4766
   -20.3605 -20.3605 -20.3605 -20.3605 -20.3463 -20.3463 -20.3463 -20.3463
   -20.3453 -20.3453 -20.3453 -20.3453 -20.3411 -20.3411 -20.3411 -20.3411
   -20.3382 -20.3382 -20.3382 -20.3382 -20.3369 -20.3369 -20.3369 -20.3369
   -20.3360 -20.3360 -20.3359 -20.3359  -9.2116  -9.2116  -9.2115  -9.2115
    -8.5071  -8.5071  -8.5068  -8.5068  -8.1986  -8.1986  -8.1984  -8.1984
     2.1379   2.1379   2.1382   2.1382   3.0002   3.0002   3.0021   3.0021
     3.3906   3.3906   3.3949   3.3949   4.0997   4.0997   4.1191   4.1192
     4.6468   4.6468   4.6570   4.6570   4.8766   4.8766   4.8786   4.8786
     7.1020   7.1020   7.1030   7.1030   7.1806   7.1806   7.1899   7.1899
     7.5430   7.5430   7.5491   7.5492  11.6149  11.6149  11.6328  11.6328
    11.9965  11.9965  12.0285  12.0285  12.8728  12.8728  12.8858  12.8858
    16.2601  16.2601  16.2776  16.2776  17.2234  17.2234  17.2569

          k = 0.3333 0.3333 0.0000 ( 31426 PWs)   bands (ev):

   -66.2056 -66.2053 -66.2051 -66.2048 -30.5788 -30.5783 -30.5438 -30.5395
   -30.5263 -30.5193 -30.5059 -30.5017 -30.4765 -30.4740 -30.4582 -30.4548
   -20.3605 -20.3605 -20.3604 -20.3604 -20.3485 -20.3484 -20.3462 -20.3461
   -20.3459 -20.3459 -20.3433 -20.3431 -20.3425 -20.3415 -20.3415 -20.3406
   -20.3383 -20.3380 -20.3378 -20.3377 -20.3377 -20.3373 -20.3364 -20.3363
   -20.3362 -20.3360 -20.3350 -20.3346  -9.7910  -9.5619  -9.3530  -8.9906
    -8.9275  -8.7645  -8.2469  -8.2409  -7.8420  -7.8158  -7.8002  -7.7639
     1.1311   1.2140   1.2428   1.2980   2.1398   2.1579   2.3477   2.6578
     3.7148   3.8151   3.9198   4.0368   4.0427   4.6824   4.7976   4.9435
     5.0041   5.1437   5.3376   5.6852   5.7213   5.7641   5.9854   6.0619
     6.3036   6.3493   6.4013   6.4107   6.5681   6.7957   7.1222   7.1638
     7.2001   7.2827   8.0898   8.3192   9.6093  10.7051  11.7074  11.7438
    12.4150  12.4547  12.6751  12.6878  12.7643  13.2716  13.6236  13.8953
    14.1962  14.7472  15.2510  16.0842  16.8025  16.9642  17.5795

          k = 0.3333 0.3333 0.1147 ( 31423 PWs)   bands (ev):

   -66.2056 -66.2053 -66.2052 -66.2048 -30.5739 -30.5734 -30.5436 -30.5398
   -30.5265 -30.5195 -30.5106 -30.5061 -30.4765 -30.4742 -30.4579 -30.4550
   -20.3605 -20.3605 -20.3604 -20.3604 -20.3481 -20.3480 -20.3462 -20.3461
   -20.3459 -20.3459 -20.3433 -20.3431 -20.3427 -20.3420 -20.3415 -20.3408
   -20.3382 -20.3379 -20.3377 -20.3377 -20.3377 -20.3373 -20.3365 -20.3364
   -20.3361 -20.3359 -20.3351 -20.3347  -9.7403  -9.4957  -9.3658  -9.0029
    -8.8932  -8.7447  -8.2555  -8.2382  -7.9132  -7.8779  -7.8403  -7.8176
     1.2180   1.2425   1.4427   1.5115   2.1470   2.1553   2.4212   2.7320
     3.7020   3.8085   3.8119   3.8639   4.1059   4.6927   4.8492   4.9024
     4.9540   4.9580   5.0468   5.3182   5.8552   5.8968   5.9887   6.0422
     6.1177   6.3927   6.4408   6.5129   6.6359   6.8720   7.0715   7.1567
     7.1616   7.2809   8.0263   8.2280   9.8492  10.8217  11.7081  11.7421
    12.2847  12.4589  12.5883  12.6772  12.7047  13.3038  13.5027  14.0971
    14.1385  15.0837  15.2223  16.2463  16.7601  17.0625  17.6594

          k = 0.3333 0.3333 0.2294 ( 31409 PWs)   bands (ev):

   -66.2055 -66.2053 -66.2052 -66.2049 -30.5605 -30.5604 -30.5428 -30.5406
   -30.5296 -30.5239 -30.5199 -30.5159 -30.4762 -30.4748 -30.4573 -30.4556
   -20.3605 -20.3605 -20.3604 -20.3604 -20.3469 -20.3468 -20.3461 -20.3461
   -20.3459 -20.3459 -20.3436 -20.3432 -20.3432 -20.3431 -20.3415 -20.3412
   -20.3381 -20.3379 -20.3377 -20.3374 -20.3374 -20.3374 -20.3367 -20.3367
   -20.3360 -20.3359 -20.3351 -20.3349  -9.6174  -9.4082  -9.3273  -9.0472
    -8.7752  -8.6685  -8.3164  -8.2296  -8.1876  -8.1178  -7.8355  -7.8224
     1.2362   1.2417   2.0343   2.1475   2.2390   2.2582   2.6367   2.9558
     3.3990   3.5035   3.7617   3.7956   4.2737   4.3087   4.3236   4.7328
     4.8610   4.9105   4.9183   5.0972   5.2850   5.7257   5.9983   6.0563
     6.2554   6.3765   6.5275   6.8053   6.8430   7.0240   7.0873   7.1336
     7.2449   7.2805   7.8293   7.9611  10.4339  11.1576  11.6898  11.7378
    11.8386  12.1818  12.6041  12.6817  12.6938  13.1966  13.4173  13.8603
    14.5903  15.1256  15.7872  16.6220  16.6375  17.3712  17.4612

          k = 0.3333 0.3333-0.3440 ( 31422 PWs)   bands (ev):

   -66.2054 -66.2054 -66.2051 -66.2051 -30.5430 -30.5430 -30.5422 -30.5422
   -30.5417 -30.5417 -30.5199 -30.5199 -30.4756 -30.4755 -30.4565 -30.4565
   -20.3605 -20.3605 -20.3604 -20.3604 -20.3462 -20.3462 -20.3460 -20.3460
   -20.3452 -20.3452 -20.3449 -20.3449 -20.3432 -20.3432 -20.3414 -20.3414
   -20.3380 -20.3380 -20.3375 -20.3375 -20.3372 -20.3372 -20.3369 -20.3369
   -20.3359 -20.3359 -20.3351 -20.3351  -9.4915  -9.4915  -9.1505  -9.1505
    -8.5527  -8.5527  -8.4837  -8.4837  -8.2098  -8.2098  -7.8290  -7.8290
     1.2400   1.2400   2.1324   2.1324   2.9766   2.9767   3.0164   3.0164
     3.2518   3.2518   3.4237   3.4237   3.7766   3.7766   4.6059   4.6059
     4.8522   4.8522   4.9208   4.9208   5.3927   5.3927   6.0153   6.0153
     6.3379   6.3380   6.6636   6.6637   7.0638   7.0638   7.1947   7.1947
     7.4944   7.4944   7.5675   7.5675  11.1401  11.1401  11.6528  11.6528
    11.7341  11.7341  12.6869  12.6869  12.8631  12.8631  13.6060  13.6060
    14.9300  14.9300  16.3368  16.3368  17.0260  17.0260  17.8286

          k = 0.3333-0.5000 0.0000 ( 31406 PWs)   bands (ev):

   -66.2055 -66.2055 -66.2050 -66.2050 -30.5784 -30.5784 -30.5396 -30.5396
   -30.5345 -30.5345 -30.5039 -30.5039 -30.4627 -30.4627 -30.4595 -30.4595
   -20.3605 -20.3605 -20.3604 -20.3604 -20.3485 -20.3484 -20.3460 -20.3460
   -20.3459 -20.3459 -20.3431 -20.3431 -20.3427 -20.3427 -20.3412 -20.3412
   -20.3380 -20.3380 -20.3378 -20.3378 -20.3373 -20.3373 -20.3365 -20.3365
   -20.3357 -20.3357 -20.3347 -20.3347  -9.6965  -9.6965  -9.2389  -9.2389
    -8.8875  -8.8875  -7.9633  -7.9633  -7.9505  -7.9505  -7.7785  -7.7785
     1.1843   1.1843   1.4909   1.4909   1.5160   1.5160   2.4280   2.4280
     4.0606   4.0606   4.3841   4.3841   4.4230   4.4231   4.5697   4.5697
     5.4262   5.4262   5.5615   5.5615   5.6899   5.6899   5.8293   5.8293
     6.4552   6.4552   6.5955   6.5955   6.6131   6.6131   6.7411   6.7411
     7.0445   7.0445   8.2628   8.2628   9.9570   9.9570  12.3105  12.3105
    12.3373  12.3373  12.5280  12.5280  13.0344  13.0344  14.0266  14.0266
    14.1882  14.1882  15.7436  15.7436  16.7665  16.7665  17.5547

          k = 0.3333-0.5000 0.1147 ( 31426 PWs)   bands (ev):

   -66.2055 -66.2054 -66.2050 -66.2050 -30.5735 -30.5735 -30.5394 -30.5394
   -30.5347 -30.5347 -30.5088 -30.5088 -30.4625 -30.4625 -30.4597 -30.4597
   -20.3605 -20.3605 -20.3604 -20.3604 -20.3480 -20.3480 -20.3460 -20.3460
   -20.3459 -20.3459 -20.3431 -20.3431 -20.3427 -20.3427 -20.3416 -20.3416
   -20.3379 -20.3379 -20.3378 -20.3378 -20.3373 -20.3373 -20.3366 -20.3365
   -20.3356 -20.3356 -20.3348 -20.3348  -9.6417  -9.6417  -9.2509  -9.2509
    -8.8565  -8.8565  -7.9713  -7.9713  -7.9613  -7.9613  -7.8770  -7.8770
     1.3911   1.3911   1.4903   1.4903   1.5771   1.5771   2.5034   2.5034
     3.8748   3.8748   4.3900   4.3900   4.4068   4.4068   4.6208   4.6208
     5.1364   5.1364   5.5661   5.5661   5.5728   5.5728   6.0523   6.0523
     6.2418   6.2418   6.6073   6.6073   6.7359   6.7359   6.7714   6.7714
     7.0085   7.0085   8.1783   8.1783  10.1444  10.1444  12.3029  12.3029
    12.3330  12.3330  12.3724  12.3724  13.0690  13.0690  13.9209  13.9209
    14.4602  14.4602  15.7111  15.7111  16.9169  16.9170  17.6266

          k = 0.3333-0.5000 0.2294 ( 31458 PWs)   bands (ev):

   -66.2054 -66.2054 -66.2051 -66.2051 -30.5604 -30.5604 -30.5390 -30.5390
   -30.5353 -30.5353 -30.5219 -30.5219 -30.4619 -30.4619 -30.4603 -30.4603
   -20.3605 -20.3605 -20.3604 -20.3604 -20.3468 -20.3468 -20.3460 -20.3460
   -20.3459 -20.3459 -20.3436 -20.3436 -20.3427 -20.3427 -20.3424 -20.3424
   -20.3377 -20.3377 -20.3375 -20.3375 -20.3374 -20.3374 -20.3368 -20.3368
   -20.3355 -20.3355 -20.3350 -20.3350  -9.5087  -9.5087  -9.2915  -9.2915
    -8.7453  -8.7453  -8.2039  -8.2039  -7.9561  -7.9561  -7.9374  -7.9374
     1.4770   1.4770   1.4886   1.4886   2.2139   2.2139   2.7314   2.7314
     3.4562   3.4562   4.3311   4.3311   4.3905   4.3905   4.4100   4.4100
     4.8029   4.8029   5.4249   5.4249   5.5832   5.5832   5.7671   5.7671
     6.4368   6.4368   6.5894   6.5894   6.8093   6.8093   6.9432   6.9432
     7.0753   7.0753   7.9259   7.9259  10.6374  10.6374  11.9003  11.9003
    12.3207  12.3207  12.3331  12.3331  13.1833  13.1833  13.6660  13.6660
    14.9842  14.9842  15.6028  15.6029  17.2871  17.2872  17.7792

          k = 0.3333-0.5000-0.3440 ( 31484 PWs)   bands (ev):

   -66.2052 -66.2052 -66.2052 -66.2052 -30.5437 -30.5437 -30.5437 -30.5437
   -30.5346 -30.5346 -30.5346 -30.5346 -30.4611 -30.4611 -30.4611 -30.4611
   -20.3605 -20.3605 -20.3605 -20.3605 -20.3460 -20.3460 -20.3460 -20.3460
   -20.3451 -20.3451 -20.3451 -20.3451 -20.3427 -20.3427 -20.3427 -20.3427
   -20.3376 -20.3376 -20.3376 -20.3376 -20.3372 -20.3372 -20.3372 -20.3372
   -20.3353 -20.3353 -20.3353 -20.3353  -9.3752  -9.3752  -9.3752  -9.3751
    -8.5182  -8.5182  -8.5182  -8.5182  -7.9483  -7.9483  -7.9483  -7.9483
     1.4852   1.4852   1.4853   1.4853   2.9957   2.9957   2.9970   2.9970
     3.3023   3.3023   3.3027   3.3027   4.3955   4.3955   4.4041   4.4041
     5.1029   5.1029   5.1112   5.1112   5.6212   5.6212   5.6242   5.6242
     6.5452   6.5452   6.5477   6.5477   6.8813   6.8813   6.8824   6.8824
     7.5254   7.5254   7.5270   7.5270  11.2780  11.2780  11.2793  11.2793
    12.3236  12.3237  12.3293  12.3293  13.3880  13.3880  13.3919  13.3919
    15.3794  15.3794  15.3832  15.3832  17.5706  17.5773  17.5810

          k =-0.5000-0.5000 0.0000 ( 31360 PWs)   bands (ev):

   -66.2055 -66.2055 -66.2050 -66.2050 -30.5778 -30.5778 -30.5450 -30.5450
   -30.5406 -30.5406 -30.5040 -30.5040 -30.4571 -30.4571 -30.4537 -30.4537
   -20.3605 -20.3605 -20.3604 -20.3604 -20.3484 -20.3484 -20.3458 -20.3458
   -20.3457 -20.3457 -20.3436 -20.3436 -20.3434 -20.3434 -20.3413 -20.3413
   -20.3379 -20.3379 -20.3378 -20.3378 -20.3371 -20.3371 -20.3365 -20.3365
   -20.3354 -20.3354 -20.3345 -20.3345  -9.7331  -9.7331  -9.3135  -9.3135
    -8.9199  -8.9199  -7.8559  -7.8559  -7.8289  -7.8289  -7.7859  -7.7859
     1.1553   1.1553   1.2401   1.2401   1.3058   1.3058   2.3391   2.3391
     4.1440   4.1440   4.6086   4.6086   4.6721   4.6721   4.7745   4.7745
     5.4664   5.4664   5.5106   5.5106   5.9145   5.9145   6.0227   6.0227
     6.2806   6.2806   6.4000   6.4000   6.4378   6.4378   6.5724   6.5724
     7.1991   7.1991   8.3155   8.3155   9.6308   9.6308  12.4519  12.4519
    12.4575  12.4575  12.4824  12.4824  13.2665  13.2665  13.9186  13.9186
    14.1984  14.1984  15.3235  15.3235  16.9303  16.9303  17.6220

          k =-0.5000-0.5000 0.1147 ( 31488 PWs)   bands (ev):

   -66.2054 -66.2054 -66.2050 -66.2050 -30.5729 -30.5729 -30.5447 -30.5447
   -30.5409 -30.5409 -30.5090 -30.5090 -30.4569 -30.4569 -30.4540 -30.4540
   -20.3605 -20.3605 -20.3604 -20.3604 -20.3479 -20.3479 -20.3458 -20.3458
   -20.3457 -20.3457 -20.3435 -20.3435 -20.3434 -20.3434 -20.3418 -20.3418
   -20.3378 -20.3378 -20.3378 -20.3378 -20.3371 -20.3371 -20.3366 -20.3366
   -20.3353 -20.3353 -20.3346 -20.3346  -9.6823  -9.6823  -9.3250  -9.3250
    -8.8847  -8.8847  -7.9040  -7.9040  -7.8541  -7.8541  -7.8307  -7.8307
     1.2191   1.2191   1.2399   1.2400   1.5123   1.5123   2.4140   2.4140
     3.8986   3.8986   4.6128   4.6128   4.6677   4.6677   4.8410   4.8410
     5.1649   5.1649   5.6206   5.6206   5.9182   5.9182   6.0517   6.0517
     6.2593   6.2593   6.2934   6.2934   6.4670   6.4670   6.6793   6.6793
     7.0740   7.0740   8.2236   8.2236   9.8697   9.8697  12.2810  12.2810
    12.4598  12.4598  12.4810  12.4810  13.2991  13.2991  14.0976  14.0976
    14.1641  14.1641  15.2938  15.2938  17.1422  17.1422  17.6540

          k =-0.5000-0.5000 0.2294 ( 31472 PWs)   bands (ev):

   -66.2054 -66.2054 -66.2051 -66.2051 -30.5595 -30.5595 -30.5439 -30.5439
   -30.5417 -30.5417 -30.5226 -30.5226 -30.4563 -30.4563 -30.4546 -30.4546
   -20.3605 -20.3605 -20.3604 -20.3604 -20.3467 -20.3467 -20.3457 -20.3457
   -20.3457 -20.3457 -20.3435 -20.3435 -20.3434 -20.3434 -20.3431 -20.3431
   -20.3376 -20.3376 -20.3376 -20.3376 -20.3372 -20.3372 -20.3369 -20.3369
   -20.3352 -20.3352 -20.3347 -20.3347  -9.5608  -9.5608  -9.3634  -9.3634
    -8.7614  -8.7614  -8.1945  -8.1945  -7.8492  -7.8492  -7.8357  -7.8357
     1.2344   1.2344   1.2393   1.2393   2.2336   2.2336   2.6340   2.6340
     3.4327   3.4327   4.3345   4.3345   4.6244   4.6244   4.6566   4.6566
     5.0329   5.0329   5.5938   5.5938   5.9298   5.9298   6.0209   6.0209
     6.1783   6.1783   6.2592   6.2592   6.5512   6.5512   6.8602   6.8602
     7.0414   7.0414   7.9519   7.9519  10.4515  10.4515  11.8129  11.8129
    12.4651  12.4651  12.4770  12.4770  13.4053  13.4053  13.8563  13.8563
    14.6326  14.6326  15.1943  15.1943  17.7433  17.7907  17.7912

          k =-0.5000-0.5000-0.3440 ( 31528 PWs)   bands (ev):

   -66.2052 -66.2052 -66.2052 -66.2052 -30.5428 -30.5428 -30.5428 -30.5428
   -30.5411 -30.5411 -30.5411 -30.5411 -30.4554 -30.4554 -30.4554 -30.4554
   -20.3605 -20.3605 -20.3605 -20.3604 -20.3457 -20.3457 -20.3457 -20.3457
   -20.3449 -20.3449 -20.3449 -20.3449 -20.3435 -20.3435 -20.3435 -20.3435
   -20.3374 -20.3374 -20.3374 -20.3374 -20.3373 -20.3373 -20.3372 -20.3372
   -20.3350 -20.3350 -20.3350 -20.3350  -9.4403  -9.4403  -9.4403  -9.4402
    -8.5201  -8.5201  -8.5200  -8.5200  -7.8425  -7.8425  -7.8425  -7.8425
     1.2379   1.2379   1.2379   1.2379   2.9844   2.9844   2.9844   2.9844
     3.2558   3.2558   3.2558   3.2558   4.6403   4.6403   4.6403   4.6403
     5.3190   5.3190   5.3190   5.3190   5.9535   5.9535   5.9535   5.9535
     6.2257   6.2257   6.2257   6.2257   6.6834   6.6834   6.6834   6.6834
     7.5282   7.5282   7.5282   7.5282  11.1565  11.1565  11.1565  11.1565
    12.4712  12.4712  12.4712  12.4712  13.5973  13.5973  13.5973  13.5973
    14.9910  14.9910  14.9910  14.9910  17.8731  17.8731  17.8731

     the Fermi energy is     9.5894 ev

!    total energy              =   -3130.25850243 Ry
     Harris-Foulkes estimate   =   -3130.25850243 Ry
     estimated scf accuracy    <          4.4E-10 Ry

     The total energy is the sum of the following terms:

     one-electron contribution =   -2386.56019165 Ry
     hartree contribution      =    1311.66119847 Ry
     xc contribution           =    -483.23722855 Ry
     ewald contribution        =   -1572.12221232 Ry
     smearing contrib. (-TS)   =      -0.00006837 Ry

     convergence has been achieved in  12 iterations

     Writing output data file Landau_33.save/
 
     init_run     :      4.36s CPU      4.69s WALL (       1 calls)
     electrons    :    181.01s CPU    184.72s WALL (       1 calls)

     Called by init_run:
     wfcinit      :      3.63s CPU      3.86s WALL (       1 calls)
     potinit      :      0.28s CPU      0.30s WALL (       1 calls)
     hinit0       :      0.36s CPU      0.40s WALL (       1 calls)

     Called by electrons:
     c_bands      :    154.52s CPU    157.70s WALL (      12 calls)
     sum_band     :     22.91s CPU     23.11s WALL (      12 calls)
     v_of_rho     :      0.63s CPU      0.65s WALL (      13 calls)
     mix_rho      :      0.88s CPU      1.04s WALL (      12 calls)

     Called by c_bands:
     init_us_2    :      0.93s CPU      1.05s WALL (      25 calls)
     cegterg      :    129.28s CPU    132.37s WALL (      12 calls)

     Called by sum_band:

     Called by *egterg:
     h_psi        :    103.77s CPU    105.17s WALL (      46 calls)
     g_psi        :      0.22s CPU      0.22s WALL (      33 calls)
     cdiaghg      :      1.29s CPU      1.32s WALL (      45 calls)

     Called by h_psi:
     h_psi:pot    :    103.41s CPU    104.00s WALL (      46 calls)
     h_psi:calbec :     10.71s CPU     10.90s WALL (      46 calls)
     vloc_psi     :     81.36s CPU     81.69s WALL (      46 calls)
     add_vuspsi   :     11.34s CPU     11.42s WALL (      46 calls)

     General routines
     calbec       :     10.71s CPU     10.90s WALL (      46 calls)
     fft          :      0.35s CPU      0.37s WALL (      39 calls)
     ffts         :      0.13s CPU      0.13s WALL (      12 calls)
     fftw         :     83.44s CPU     83.69s WALL (    7940 calls)
 
     Parallel routines
 
     PWSCF        :   3m 7.10s CPU   3m11.64s WALL

 
   This run was terminated on:  16: 9:22  21Nov2019            

=------------------------------------------------------------------------------=
   JOB DONE.
=------------------------------------------------------------------------------=
