
     Program PWSCF v.6.2 (svn rev. 14038) starts on 26Mar2020 at 21:16:30 

     This program is part of the open-source Quantum ESPRESSO suite
     for quantum simulation of materials; please cite
         "P. Giannozzi et al., J. Phys.:Condens. Matter 21 395502 (2009);
         "P. Giannozzi et al., J. Phys.:Condens. Matter 29 465901 (2017);
          URL http://www.quantum-espresso.org", 
     in publications or presentations arising from this work. More details at
     http://www.quantum-espresso.org/quote

     Parallel version (MPI), running on    40 processors

     MPI processes distributed on     6 nodes
     K-points division:     npool     =      40
     Reading input from scf.in

     Current dimensions of program PWSCF are:
     Max number of different atomic species (ntypx) = 10
     Max number of k-points (npk) =  40000
     Max angular momentum in pseudopotentials (lmaxx) =  3

     Subspace diagonalization in iterative solution of the eigenvalue problem:
     a serial algorithm will be used

 
     G-vector sticks info
     --------------------
     sticks:   dense  smooth     PW     G-vecs:    dense   smooth      PW
     Sum        7705    7705   2075               497485   497485   68949
 


     bravais-lattice index     =            0
     lattice parameter (alat)  =      13.8924  a.u.
     unit-cell volume          =    2801.3452 (a.u.)^3
     number of atoms/cell      =           32
     number of atomic types    =            2
     number of electrons       =       368.60
     number of Kohn-Sham states=          221
     kinetic-energy cutoff     =     120.0000  Ry
     charge density cutoff     =     480.0000  Ry
     convergence threshold     =      1.0E-08
     mixing beta               =       0.7000
     number of iterations used =            8  plain     mixing
     Exchange-correlation      = SLA PW NOGX NOGC ( 1  4  0  0 0 0)

     celldm(1)=  13.892433  celldm(2)=   0.000000  celldm(3)=   0.000000
     celldm(4)=   0.000000  celldm(5)=   0.000000  celldm(6)=   0.000000

     crystal axes: (cart. coord. in units of alat)
               a(1) = (   1.000000   0.000000   0.000000 )  
               a(2) = (   0.000000   1.044796   0.000000 )  
               a(3) = (   0.000000   0.000000   1.000000 )  

     reciprocal axes: (cart. coord. in units 2 pi/alat)
               b(1) = (  1.000000  0.000000  0.000000 )  
               b(2) = (  0.000000  0.957124  0.000000 )  
               b(3) = (  0.000000  0.000000  1.000000 )  


     PseudoPot. # 1 for W  read from file:
     /cluster/scratch/mnoe/QE/pps/W_ONCV_LDA-4.0.upf
     MD5 check sum: ba0307d5d4cd419d6f1d13dc49d7c13a
     Pseudo is Norm-conserving + core correction, Zval = 28.0
     Generated using ONCVPSP code by D. R. Hamann
     Using radial grid of 1380 points,  8 beta functions with: 
                l(1) =   0
                l(2) =   0
                l(3) =   1
                l(4) =   1
                l(5) =   2
                l(6) =   2
                l(7) =   3
                l(8) =   3

     PseudoPot. # 2 for O  read from file:
     /cluster/scratch/mnoe/QE/pps/O_ONCV_LDA-3.0.upf
     MD5 check sum: a1bd6164e7280c17a38c229939bfbd54
     Pseudo is Norm-conserving + core correction, Zval =  6.0
     Generated using ONCVPSP code by D. R. Hamann
     Using radial grid of  926 points,  5 beta functions with: 
                l(1) =   0
                l(2) =   0
                l(3) =   1
                l(4) =   1
                l(5) =   2

     atomic species   valence    mass     pseudopotential
        W             28.00   183.84000     W ( 1.00)
        O              6.00    15.99940     O ( 1.00)

      8 Sym. Ops. (no inversion) found ( 7 have fractional translation)



   Cartesian axes

     site n.     atom                  positions (alat units)
         1           W   tau(   1) = (   0.2569400   0.2927131  -0.9927000  )
         2           W   tau(   2) = (   0.7427000   0.7520833  -0.9930600  )
         3           W   tau(   3) = (   0.2430600   0.2296851  -0.4927000  )
         4           W   tau(   4) = (   0.7573000   0.8151113  -0.4930600  )
         5           W   tau(   5) = (   0.7430600   0.2927131  -0.5073000  )
         6           W   tau(   6) = (   0.2573000   0.7520833  -0.5069400  )
         7           W   tau(   7) = (   0.7569400   0.2296851  -1.0073000  )
         8           W   tau(   8) = (   0.2427000   0.8151113  -1.0069400  )
         9           O   tau(   9) = (   0.2647800   0.0082144  -0.9852900  )
        10           O   tau(  10) = (   0.7352900   1.0365820  -0.9852200  )
        11           O   tau(  11) = (   0.2352200   0.5141838  -0.4852900  )
        12           O   tau(  12) = (   0.7647100   0.5306126  -0.4852200  )
        13           O   tau(  13) = (   0.7352200   0.0082144  -0.5147100  )
        14           O   tau(  14) = (   0.2647100   1.0365820  -0.5147800  )
        15           O   tau(  15) = (   0.7647800   0.5141838  -1.0147100  )
        16           O   tau(  16) = (   0.2352900   0.5306126  -1.0147800  )
        17           O   tau(  17) = (   0.4969200   0.2796502  -0.5463911  )
        18           O   tau(  18) = (   0.5020200   0.7705373  -0.4536089  )
        19           O   tau(  19) = (   0.0030800   0.2427480  -1.0463911  )
        20           O   tau(  20) = (   0.9979800   0.7966573  -0.9536089  )
        21           O   tau(  21) = (   0.5030800   0.2796502  -0.9536089  )
        22           O   tau(  22) = (   0.4979800   0.7705373  -1.0463911  )
        23           O   tau(  23) = (   0.9969200   0.2427480  -0.4536089  )
        24           O   tau(  24) = (   0.0020200   0.7966573  -0.5463911  )
        25           O   tau(  25) = (   0.7036089   0.2481392  -0.2520200  )
        26           O   tau(  26) = (   0.2963911   0.7651462  -0.7530800  )
        27           O   tau(  27) = (   0.7963911   0.2742590  -0.7520200  )
        28           O   tau(  28) = (   0.2036089   0.8020484  -0.2530800  )
        29           O   tau(  29) = (   0.2963911   0.2481392  -1.2479800  )
        30           O   tau(  30) = (   0.7036089   0.7651462  -0.7469200  )
        31           O   tau(  31) = (   0.2036089   0.2742590  -0.7479800  )
        32           O   tau(  32) = (   0.7963911   0.8020484  -1.2469200  )

     number of k points=    40  gaussian smearing, width (Ry)=  0.0007
                       cart. coord. in units 2pi/alat
        k(    1) = (   0.0000000   0.0000000   0.0000000), wk =   0.0092593
        k(    2) = (   0.0000000   0.0000000   0.1666667), wk =   0.0370370
        k(    3) = (   0.0000000   0.0000000   0.3333333), wk =   0.0370370
        k(    4) = (   0.0000000   0.0000000  -0.5000000), wk =   0.0185185
        k(    5) = (   0.0000000   0.1595207   0.0000000), wk =   0.0185185
        k(    6) = (   0.0000000   0.1595207   0.1666667), wk =   0.0740741
        k(    7) = (   0.0000000   0.1595207   0.3333333), wk =   0.0740741
        k(    8) = (   0.0000000   0.1595207  -0.5000000), wk =   0.0370370
        k(    9) = (   0.0000000   0.3190414   0.0000000), wk =   0.0185185
        k(   10) = (   0.0000000   0.3190414   0.1666667), wk =   0.0740741
        k(   11) = (   0.0000000   0.3190414   0.3333333), wk =   0.0740741
        k(   12) = (   0.0000000   0.3190414  -0.5000000), wk =   0.0370370
        k(   13) = (   0.0000000  -0.4785621   0.0000000), wk =   0.0092593
        k(   14) = (   0.0000000  -0.4785621   0.1666667), wk =   0.0370370
        k(   15) = (   0.0000000  -0.4785621   0.3333333), wk =   0.0370370
        k(   16) = (   0.0000000  -0.4785621  -0.5000000), wk =   0.0185185
        k(   17) = (   0.1666667   0.0000000   0.1666667), wk =   0.0370370
        k(   18) = (   0.1666667   0.0000000   0.3333333), wk =   0.0740741
        k(   19) = (   0.1666667   0.0000000  -0.5000000), wk =   0.0370370
        k(   20) = (   0.1666667   0.1595207   0.1666667), wk =   0.0740741
        k(   21) = (   0.1666667   0.1595207   0.3333333), wk =   0.1481481
        k(   22) = (   0.1666667   0.1595207  -0.5000000), wk =   0.0740741
        k(   23) = (   0.1666667   0.3190414   0.1666667), wk =   0.0740741
        k(   24) = (   0.1666667   0.3190414   0.3333333), wk =   0.1481481
        k(   25) = (   0.1666667   0.3190414  -0.5000000), wk =   0.0740741
        k(   26) = (   0.1666667  -0.4785621   0.1666667), wk =   0.0370370
        k(   27) = (   0.1666667  -0.4785621   0.3333333), wk =   0.0740741
        k(   28) = (   0.1666667  -0.4785621  -0.5000000), wk =   0.0370370
        k(   29) = (   0.3333333   0.0000000   0.3333333), wk =   0.0370370
        k(   30) = (   0.3333333   0.0000000  -0.5000000), wk =   0.0370370
        k(   31) = (   0.3333333   0.1595207   0.3333333), wk =   0.0740741
        k(   32) = (   0.3333333   0.1595207  -0.5000000), wk =   0.0740741
        k(   33) = (   0.3333333   0.3190414   0.3333333), wk =   0.0740741
        k(   34) = (   0.3333333   0.3190414  -0.5000000), wk =   0.0740741
        k(   35) = (   0.3333333  -0.4785621   0.3333333), wk =   0.0370370
        k(   36) = (   0.3333333  -0.4785621  -0.5000000), wk =   0.0370370
        k(   37) = (  -0.5000000   0.0000000  -0.5000000), wk =   0.0092593
        k(   38) = (  -0.5000000   0.1595207  -0.5000000), wk =   0.0185185
        k(   39) = (  -0.5000000   0.3190414  -0.5000000), wk =   0.0185185
        k(   40) = (  -0.5000000  -0.4785621  -0.5000000), wk =   0.0092593

     Dense  grid:   497485 G-vectors     FFT dimensions: ( 100, 108, 100)

     Estimated max dynamical RAM per process >       2.71 GB

     Estimated total dynamical RAM >     108.55 GB

     Initial potential from superposition of free atoms

     starting charge  367.99656, renormalised to  368.60000
     Starting wfc are  232 randomized atomic wfcs

     total cpu time spent up to now is       17.0 secs

     Self-consistent Calculation

     iteration #  1     ecut=   120.00 Ry     beta= 0.70
     Davidson diagonalization with overlap
     ethr =  1.00E-02,  avg # of iterations =  5.2

     total cpu time spent up to now is       69.7 secs

     total energy              =   -6253.44255580 Ry
     Harris-Foulkes estimate   =   -6264.26508440 Ry
     estimated scf accuracy    <      13.63338877 Ry

     iteration #  2     ecut=   120.00 Ry     beta= 0.70
     Davidson diagonalization with overlap
     ethr =  3.70E-03,  avg # of iterations =  3.6

     total cpu time spent up to now is      122.4 secs

     total energy              =   -6250.39781101 Ry
     Harris-Foulkes estimate   =   -6270.28289530 Ry
     estimated scf accuracy    <      52.90050163 Ry

     iteration #  3     ecut=   120.00 Ry     beta= 0.70
     Davidson diagonalization with overlap
     ethr =  3.70E-03,  avg # of iterations =  3.4

     total cpu time spent up to now is      169.3 secs

     total energy              =   -6260.67316167 Ry
     Harris-Foulkes estimate   =   -6260.94120725 Ry
     estimated scf accuracy    <       0.89863532 Ry

     iteration #  4     ecut=   120.00 Ry     beta= 0.70
     Davidson diagonalization with overlap
     ethr =  2.44E-04,  avg # of iterations =  3.1

     total cpu time spent up to now is      209.2 secs

     total energy              =   -6260.66237782 Ry
     Harris-Foulkes estimate   =   -6260.73706308 Ry
     estimated scf accuracy    <       0.22448557 Ry

     iteration #  5     ecut=   120.00 Ry     beta= 0.70
     Davidson diagonalization with overlap
     ethr =  6.09E-05,  avg # of iterations =  5.9

     total cpu time spent up to now is      251.9 secs

     total energy              =   -6260.66908040 Ry
     Harris-Foulkes estimate   =   -6260.69757317 Ry
     estimated scf accuracy    <       0.06432060 Ry

     iteration #  6     ecut=   120.00 Ry     beta= 0.70
     Davidson diagonalization with overlap
     ethr =  1.74E-05,  avg # of iterations =  6.0

     total cpu time spent up to now is      298.2 secs

     total energy              =   -6260.68259174 Ry
     Harris-Foulkes estimate   =   -6260.68543220 Ry
     estimated scf accuracy    <       0.00729831 Ry

     iteration #  7     ecut=   120.00 Ry     beta= 0.70
     Davidson diagonalization with overlap
     ethr =  1.98E-06,  avg # of iterations =  5.7

     total cpu time spent up to now is      340.9 secs

     total energy              =   -6260.68360618 Ry
     Harris-Foulkes estimate   =   -6260.68367936 Ry
     estimated scf accuracy    <       0.00012602 Ry

     iteration #  8     ecut=   120.00 Ry     beta= 0.70
     Davidson diagonalization with overlap
     ethr =  3.42E-08,  avg # of iterations =  3.2

     total cpu time spent up to now is      391.4 secs

     total energy              =   -6260.68366834 Ry
     Harris-Foulkes estimate   =   -6260.68368257 Ry
     estimated scf accuracy    <       0.00006375 Ry

     iteration #  9     ecut=   120.00 Ry     beta= 0.70
     Davidson diagonalization with overlap
     ethr =  1.73E-08,  avg # of iterations =  2.0

     total cpu time spent up to now is      428.2 secs

     total energy              =   -6260.68366764 Ry
     Harris-Foulkes estimate   =   -6260.68367403 Ry
     estimated scf accuracy    <       0.00002991 Ry

     iteration # 10     ecut=   120.00 Ry     beta= 0.70
     Davidson diagonalization with overlap
     ethr =  8.11E-09,  avg # of iterations =  1.0

     total cpu time spent up to now is      463.8 secs

     total energy              =   -6260.68366505 Ry
     Harris-Foulkes estimate   =   -6260.68366936 Ry
     estimated scf accuracy    <       0.00001008 Ry

     iteration # 11     ecut=   120.00 Ry     beta= 0.70
     Davidson diagonalization with overlap
     ethr =  2.73E-09,  avg # of iterations =  3.0

     total cpu time spent up to now is      503.2 secs

     total energy              =   -6260.68366719 Ry
     Harris-Foulkes estimate   =   -6260.68366726 Ry
     estimated scf accuracy    <       0.00000017 Ry

     iteration # 12     ecut=   120.00 Ry     beta= 0.70
     Davidson diagonalization with overlap
     ethr =  4.67E-11,  avg # of iterations =  2.0

     total cpu time spent up to now is      548.4 secs

     total energy              =   -6260.68366722 Ry
     Harris-Foulkes estimate   =   -6260.68366724 Ry
     estimated scf accuracy    <       0.00000005 Ry

     iteration # 13     ecut=   120.00 Ry     beta= 0.70
     Davidson diagonalization with overlap
     ethr =  1.24E-11,  avg # of iterations =  2.8

     total cpu time spent up to now is      593.1 secs

     End of self-consistent calculation

          k = 0.0000 0.0000 0.0000 ( 62087 PWs)   bands (ev):

   -66.0203 -66.0198 -66.0193 -66.0193 -66.0189 -66.0189 -66.0184 -66.0179
   -30.4531 -30.4479 -30.4479 -30.4429 -30.3982 -30.3896 -30.3896 -30.3800
   -30.3677 -30.3666 -30.3601 -30.3601 -30.3600 -30.3509 -30.3509 -30.3481
   -30.2700 -30.2700 -30.2668 -30.2663 -30.2624 -30.2624 -30.2589 -30.2570
   -20.1715 -20.1712 -20.1712 -20.1708 -20.1705 -20.1702 -20.1702 -20.1699
   -20.1668 -20.1665 -20.1665 -20.1662 -20.1626 -20.1621 -20.1621 -20.1616
   -20.1591 -20.1584 -20.1584 -20.1580 -20.1571 -20.1571 -20.1568 -20.1566
   -20.1565 -20.1556 -20.1554 -20.1554 -20.1545 -20.1545 -20.1543 -20.1541
   -20.1456 -20.1454 -20.1450 -20.1450 -20.1442 -20.1442 -20.1439 -20.1436
   -20.1219 -20.1219 -20.1204 -20.1203 -20.1195 -20.1195 -20.1182 -20.1182
   -20.1159 -20.1159 -20.1146 -20.1146 -20.1140 -20.1140 -20.1125 -20.1125
    -9.8963  -9.5895  -9.4734  -9.4734  -9.1734  -9.1734  -9.0685  -8.9696
    -8.9527  -8.8574  -8.8220  -8.8219  -7.8263  -7.7471  -7.7471  -7.7139
    -7.7066  -7.6944  -7.6858  -7.6698  -7.5818  -7.5818  -7.5520  -7.5520
     1.2899   1.2911   1.3543   1.3543   1.3902   1.3902   1.4044   1.6179
     1.6552   1.6552   1.6956   1.9089   2.4798   2.5670   2.5920   2.6058
     2.7458   2.7458   4.2545   4.2545   4.4637   4.4921   4.7633   4.8547
     4.8547   4.8633   4.8946   4.8946   5.0502   5.0502   5.2198   5.4832
     5.5053   5.5434   5.5434   5.6008   5.6008   5.6578   5.6578   5.8779
     5.8984   5.9038   5.9055   5.9055   5.9956   6.0677   6.1543   6.1803
     6.1898   6.3042   6.3416   6.5529   6.5529   6.8505   6.9028   6.9028
     6.9421   6.9429   7.0491   7.0594   7.1148   7.1148   7.3651   7.3651
     7.4264   7.4265   7.8964   7.9148   8.0946   8.0946   8.1268   8.1812
     9.4400   9.4572   9.9661  10.0090  10.0090  10.0409  12.3528  12.3528
    12.4004  12.4004  12.5372  12.5372  12.6483  12.6495  12.7666  12.9993
    13.1528  13.3491  13.3491  13.4503  13.7595  14.0130  14.0130  14.2015
    14.4572  14.6902  14.6902  14.9060  15.4824  15.5035  15.6234  16.1412
    16.1412  16.9108  17.1176  17.1176  17.4069

          k = 0.0000 0.0000 0.1667 ( 62171 PWs)   bands (ev):

   -66.0202 -66.0198 -66.0194 -66.0193 -66.0189 -66.0188 -66.0184 -66.0180
   -30.4527 -30.4482 -30.4476 -30.4433 -30.3971 -30.3900 -30.3884 -30.3804
   -30.3661 -30.3628 -30.3605 -30.3559 -30.3539 -30.3513 -30.3456 -30.3446
   -30.2765 -30.2727 -30.2697 -30.2696 -30.2672 -30.2635 -30.2622 -30.2582
   -20.1715 -20.1712 -20.1712 -20.1709 -20.1705 -20.1702 -20.1702 -20.1700
   -20.1668 -20.1665 -20.1665 -20.1662 -20.1626 -20.1622 -20.1621 -20.1617
   -20.1590 -20.1585 -20.1583 -20.1579 -20.1572 -20.1570 -20.1567 -20.1566
   -20.1565 -20.1558 -20.1555 -20.1554 -20.1547 -20.1545 -20.1544 -20.1541
   -20.1455 -20.1453 -20.1451 -20.1449 -20.1443 -20.1442 -20.1440 -20.1437
   -20.1218 -20.1215 -20.1205 -20.1200 -20.1194 -20.1192 -20.1183 -20.1178
   -20.1163 -20.1158 -20.1150 -20.1148 -20.1143 -20.1139 -20.1129 -20.1126
    -9.8511  -9.5365  -9.4895  -9.4159  -9.1867  -9.0847  -9.0774  -8.9330
    -8.9118  -8.8427  -8.8263  -8.7883  -7.8623  -7.8136  -7.7927  -7.7542
    -7.7512  -7.7025  -7.6968  -7.6895  -7.6822  -7.6705  -7.5903  -7.5604
     1.3527   1.3549   1.3773   1.3951   1.4789   1.5037   1.6122   1.6472
     1.6510   1.7634   1.8717   2.0338   2.5645   2.6084   2.6571   2.6874
     2.7371   2.8338   4.1714   4.2554   4.4153   4.4601   4.5038   4.5260
     4.6271   4.8118   4.8158   4.9098   4.9304   5.0513   5.1958   5.3517
     5.4117   5.4952   5.5282   5.5821   5.6309   5.6483   5.6691   5.6731
     5.7778   5.8446   5.8968   5.9352   6.0338   6.0868   6.1658   6.1824
     6.3288   6.4637   6.5286   6.5360   6.7662   6.7938   6.7943   6.8556
     6.9207   6.9348   6.9612   7.0356   7.0678   7.1228   7.1776   7.2035
     7.2127   7.2683   7.9005   7.9098   8.0548   8.1018   8.1138   8.1692
     9.7661   9.7889  10.0056  10.0074  10.2650  10.3006  12.2828  12.3487
    12.4013  12.4399  12.4539  12.5776  12.6507  12.7341  12.7880  12.9846
    13.0588  13.2817  13.3527  13.4023  13.8000  13.9627  14.0120  14.1213
    14.4600  14.6847  14.7418  15.0204  15.5194  15.5541  15.5896  16.1127
    16.4461  16.8416  17.0788  17.3025  17.4930

          k = 0.0000 0.0000 0.3333 ( 62196 PWs)   bands (ev):

   -66.0201 -66.0196 -66.0196 -66.0191 -66.0191 -66.0186 -66.0186 -66.0181
   -30.4518 -30.4492 -30.4467 -30.4442 -30.3949 -30.3911 -30.3858 -30.3815
   -30.3644 -30.3614 -30.3572 -30.3525 -30.3407 -30.3370 -30.3321 -30.3291
   -30.2941 -30.2900 -30.2867 -30.2827 -30.2689 -30.2665 -30.2614 -30.2592
   -20.1714 -20.1713 -20.1711 -20.1709 -20.1704 -20.1703 -20.1701 -20.1700
   -20.1667 -20.1666 -20.1664 -20.1663 -20.1626 -20.1623 -20.1621 -20.1618
   -20.1588 -20.1585 -20.1580 -20.1576 -20.1574 -20.1568 -20.1568 -20.1564
   -20.1561 -20.1561 -20.1557 -20.1552 -20.1550 -20.1546 -20.1544 -20.1542
   -20.1454 -20.1451 -20.1451 -20.1447 -20.1445 -20.1441 -20.1441 -20.1438
   -20.1215 -20.1207 -20.1206 -20.1192 -20.1189 -20.1186 -20.1183 -20.1174
   -20.1169 -20.1161 -20.1157 -20.1155 -20.1149 -20.1139 -20.1136 -20.1129
    -9.7419  -9.5392  -9.4148  -9.2843  -9.2275  -9.1069  -8.8790  -8.8381
    -8.8311  -8.7671  -8.7333  -8.6607  -8.1414  -8.1220  -8.0446  -8.0273
    -7.7890  -7.7624  -7.7245  -7.6994  -7.6776  -7.6480  -7.6134  -7.5835
     1.3571   1.3634   1.4082   1.4275   1.5735   1.6001   1.6030   1.6434
     2.3351   2.3761   2.5198   2.5969   2.6313   2.7266   2.8151   2.9180
     2.9298   3.0729   3.8127   3.8803   3.9282   4.0637   4.1548   4.3676
     4.4139   4.5894   4.5935   4.7753   4.8010   4.8560   5.0010   5.1277
     5.2094   5.2222   5.2732   5.4229   5.4799   5.5362   5.7001   5.7254
     5.7913   5.7999   5.8741   5.9923   6.0574   6.2140   6.2751   6.2843
     6.3595   6.4171   6.5326   6.5703   6.6051   6.6073   6.6552   6.7948
     6.8877   6.9263   6.9297   7.0160   7.0672   7.1205   7.1321   7.1973
     7.3294   7.3670   7.8195   7.8387   7.9300   7.9816   8.1453   8.1624
     9.9840  10.0024  10.4743  10.5356  10.8777  10.9706  11.9188  11.9995
    12.1506  12.4498  12.5441  12.6154  12.6615  12.7374  12.7959  12.9155
    12.9734  13.1714  13.2539  13.3744  13.6829  13.7372  14.0107  14.0281
    14.5477  14.6670  14.9827  15.3135  15.4811  15.6773  15.9411  16.0255
    16.2963  17.2833  17.4250  17.6162  17.8644

          k = 0.0000 0.0000-0.5000 ( 62200 PWs)   bands (ev):

   -66.0198 -66.0198 -66.0193 -66.0193 -66.0189 -66.0188 -66.0184 -66.0184
   -30.4505 -30.4505 -30.4455 -30.4455 -30.3928 -30.3928 -30.3834 -30.3834
   -30.3629 -30.3628 -30.3543 -30.3543 -30.3177 -30.3177 -30.3136 -30.3136
   -30.3101 -30.3101 -30.3062 -30.3062 -30.2678 -30.2678 -30.2603 -30.2603
   -20.1714 -20.1714 -20.1710 -20.1710 -20.1703 -20.1703 -20.1701 -20.1701
   -20.1667 -20.1667 -20.1664 -20.1664 -20.1624 -20.1624 -20.1619 -20.1619
   -20.1586 -20.1586 -20.1577 -20.1577 -20.1572 -20.1572 -20.1565 -20.1565
   -20.1560 -20.1560 -20.1556 -20.1556 -20.1549 -20.1549 -20.1543 -20.1543
   -20.1452 -20.1452 -20.1448 -20.1448 -20.1444 -20.1444 -20.1439 -20.1439
   -20.1211 -20.1211 -20.1193 -20.1193 -20.1185 -20.1185 -20.1176 -20.1176
   -20.1170 -20.1170 -20.1157 -20.1157 -20.1149 -20.1149 -20.1133 -20.1133
    -9.6254  -9.6254  -9.3012  -9.3012  -9.1698  -9.1698  -8.8550  -8.8550
    -8.4900  -8.4900  -8.4757  -8.4757  -8.4526  -8.4526  -8.3922  -8.3922
    -7.7771  -7.7771  -7.7126  -7.7126  -7.6453  -7.6453  -7.6155  -7.6155
     1.3607   1.3607   1.4236   1.4236   1.5881   1.5881   1.6344   1.6344
     2.6636   2.6636   3.0550   3.0550   3.1847   3.1847   3.2030   3.2030
     3.3401   3.3401   3.3784   3.3784   3.5711   3.5711   3.8239   3.8239
     3.8816   3.8816   4.5325   4.5325   4.7360   4.7360   5.0170   5.0170
     5.3017   5.3017   5.3741   5.3741   5.3831   5.3831   5.7479   5.7479
     5.8150   5.8150   5.9986   5.9986   6.1642   6.1642   6.2727   6.2727
     6.3422   6.3422   6.4339   6.4339   6.5206   6.5206   6.6161   6.6161
     6.8360   6.8360   6.9258   6.9258   7.1000   7.1000   7.5430   7.5430
     7.6025   7.6025   7.6956   7.6956   7.7390   7.7390   8.1589   8.1589
     9.9947   9.9947  11.2510  11.2510  11.3283  11.3283  11.5843  11.5843
    11.7547  11.7547  12.6804  12.6804  12.7581  12.7581  12.8930  12.8930
    13.0052  13.0052  13.3335  13.3335  13.4683  13.4683  14.0141  14.0141
    14.6292  14.6292  15.2781  15.2781  15.7455  15.7455  15.8796  15.8796
    16.6999  16.6999  17.9033  17.9033  18.1061

          k = 0.0000 0.1595 0.0000 ( 62247 PWs)   bands (ev):

   -66.0203 -66.0198 -66.0193 -66.0193 -66.0189 -66.0189 -66.0183 -66.0179
   -30.4490 -30.4437 -30.4437 -30.4387 -30.4012 -30.3930 -30.3930 -30.3842
   -30.3676 -30.3665 -30.3599 -30.3599 -30.3597 -30.3519 -30.3519 -30.3496
   -30.2699 -30.2699 -30.2667 -30.2662 -30.2626 -30.2626 -30.2589 -30.2572
   -20.1714 -20.1711 -20.1711 -20.1707 -20.1705 -20.1702 -20.1702 -20.1700
   -20.1665 -20.1662 -20.1662 -20.1660 -20.1629 -20.1625 -20.1625 -20.1619
   -20.1590 -20.1584 -20.1584 -20.1580 -20.1572 -20.1572 -20.1570 -20.1567
   -20.1564 -20.1555 -20.1554 -20.1554 -20.1546 -20.1546 -20.1544 -20.1541
   -20.1456 -20.1454 -20.1450 -20.1450 -20.1442 -20.1442 -20.1439 -20.1436
   -20.1219 -20.1219 -20.1204 -20.1204 -20.1195 -20.1195 -20.1182 -20.1182
   -20.1159 -20.1159 -20.1146 -20.1146 -20.1140 -20.1140 -20.1125 -20.1125
    -9.8646  -9.6016  -9.4334  -9.4334  -9.1813  -9.1813  -8.9923  -8.9684
    -8.9538  -8.8109  -8.7842  -8.7842  -7.9150  -7.8492  -7.8492  -7.7973
    -7.7222  -7.7060  -7.6951  -7.6722  -7.5825  -7.5825  -7.5535  -7.5535
     1.2898   1.2909   1.3734   1.3734   1.3904   1.3904   1.5390   1.6949
     1.8150   1.8808   1.8808   2.0647   2.4857   2.5613   2.6653   2.6795
     2.8158   2.8158   4.1163   4.1163   4.1818   4.2042   4.7096   4.8468
     4.8468   4.8894   4.8894   4.9256   4.9877   4.9877   5.0982   5.3695
     5.3695   5.4941   5.4941   5.6643   5.6915   5.6915   5.6916   5.7196
     5.8146   5.8368   5.9416   5.9809   5.9809   6.0686   6.1544   6.1667
     6.1973   6.3106   6.3346   6.5834   6.5834   6.8575   6.8817   6.9098
     6.9098   6.9490   6.9594   7.0255   7.0255   7.0398   7.3713   7.3713
     7.4289   7.4289   7.8971   7.9139   8.0617   8.0617   8.0720   8.1042
     9.4455   9.4601  10.1821  10.2001  10.2001  10.2470  12.2858  12.2858
    12.3721  12.3721  12.4803  12.4854  12.5262  12.5262  12.7874  12.9980
    13.1876  13.3488  13.3488  13.4738  13.8846  13.9909  13.9909  14.1097
    14.5346  14.8757  14.8757  15.0736  15.4822  15.4986  16.0218  16.1084
    16.1084  16.6054  17.2555  17.2555  17.4749

          k = 0.0000 0.1595 0.1667 ( 62205 PWs)   bands (ev):

   -66.0202 -66.0198 -66.0194 -66.0192 -66.0190 -66.0188 -66.0184 -66.0180
   -30.4487 -30.4441 -30.4434 -30.4391 -30.4002 -30.3934 -30.3919 -30.3846
   -30.3659 -30.3629 -30.3603 -30.3557 -30.3538 -30.3522 -30.3466 -30.3457
   -30.2765 -30.2726 -30.2697 -30.2696 -30.2673 -30.2635 -30.2623 -30.2583
   -20.1714 -20.1711 -20.1711 -20.1708 -20.1705 -20.1702 -20.1702 -20.1700
   -20.1665 -20.1663 -20.1662 -20.1660 -20.1629 -20.1625 -20.1624 -20.1620
   -20.1589 -20.1584 -20.1582 -20.1579 -20.1572 -20.1571 -20.1568 -20.1566
   -20.1565 -20.1557 -20.1554 -20.1554 -20.1548 -20.1546 -20.1545 -20.1542
   -20.1455 -20.1453 -20.1451 -20.1449 -20.1443 -20.1442 -20.1439 -20.1437
   -20.1218 -20.1215 -20.1205 -20.1200 -20.1194 -20.1192 -20.1183 -20.1178
   -20.1163 -20.1158 -20.1150 -20.1148 -20.1143 -20.1139 -20.1129 -20.1126
    -9.8182  -9.5487  -9.4496  -9.3712  -9.1948  -9.0927  -9.0011  -8.9304
    -8.9129  -8.7990  -8.7884  -8.7553  -7.9204  -7.8648  -7.8493  -7.8262
    -7.8057  -7.7989  -7.7096  -7.7048  -7.6799  -7.6724  -7.5910  -7.5619
     1.3697   1.3750   1.3790   1.3952   1.5924   1.6322   1.6514   1.8217
     1.8617   1.8854   1.9141   2.1349   2.5724   2.6503   2.6812   2.7630
     2.8078   2.9036   4.0758   4.1331   4.1789   4.2339   4.4476   4.5232
     4.6260   4.7210   4.8277   4.8932   4.9249   5.0037   5.0586   5.2995
     5.3186   5.3728   5.4025   5.5089   5.5942   5.6355   5.6835   5.7608
     5.7862   5.8203   5.9019   5.9185   5.9533   6.1177   6.1601   6.1778
     6.2922   6.4436   6.5071   6.5693   6.7562   6.8174   6.8351   6.8601
     6.8857   6.9511   6.9702   7.0164   7.0376   7.0464   7.1801   7.2130
     7.2207   7.2707   7.8988   7.9097   8.0242   8.0495   8.0668   8.0963
     9.7798   9.7947  10.2010  10.2109  10.4350  10.4602  12.2532  12.3019
    12.3554  12.4066  12.4217  12.4851  12.5293  12.6105  12.8162  12.9909
    13.0818  13.2766  13.3494  13.4166  13.8505  13.9097  13.9904  14.0477
    14.5982  14.8700  14.9830  15.1713  15.5193  15.5522  15.9844  16.0836
    16.4115  16.7578  16.9718  17.4173  17.5594

          k = 0.0000 0.1595 0.3333 ( 62199 PWs)   bands (ev):

   -66.0200 -66.0196 -66.0195 -66.0191 -66.0191 -66.0186 -66.0186 -66.0182
   -30.4477 -30.4451 -30.4425 -30.4400 -30.3982 -30.3945 -30.3897 -30.3857
   -30.3642 -30.3613 -30.3577 -30.3534 -30.3406 -30.3368 -30.3328 -30.3296
   -30.2940 -30.2899 -30.2869 -30.2828 -30.2688 -30.2664 -30.2615 -30.2593
   -20.1713 -20.1712 -20.1710 -20.1708 -20.1705 -20.1703 -20.1701 -20.1700
   -20.1665 -20.1663 -20.1662 -20.1660 -20.1628 -20.1626 -20.1624 -20.1621
   -20.1587 -20.1584 -20.1580 -20.1576 -20.1574 -20.1569 -20.1567 -20.1565
   -20.1562 -20.1561 -20.1557 -20.1552 -20.1551 -20.1547 -20.1545 -20.1543
   -20.1454 -20.1451 -20.1451 -20.1447 -20.1445 -20.1441 -20.1441 -20.1438
   -20.1215 -20.1207 -20.1206 -20.1192 -20.1189 -20.1186 -20.1183 -20.1174
   -20.1169 -20.1161 -20.1157 -20.1155 -20.1149 -20.1139 -20.1136 -20.1129
    -9.7060  -9.4997  -9.4264  -9.2364  -9.2256  -9.0313  -8.8558  -8.8373
    -8.8004  -8.7687  -8.7154  -8.6416  -8.1428  -8.1266  -8.0575  -8.0283
    -7.8798  -7.8584  -7.8269  -7.8002  -7.6797  -7.6498  -7.6145  -7.5851
     1.3857   1.4025   1.4084   1.4275   1.7718   1.7861   1.8568   1.8735
     2.3350   2.3847   2.5227   2.6123   2.7040   2.7902   2.8258   2.9145
     3.0077   3.1364   3.8167   3.8815   3.9298   4.0143   4.1902   4.2162
     4.2356   4.3978   4.6017   4.7312   4.7662   4.8477   4.8675   4.9763
     5.0607   5.1987   5.2247   5.2334   5.4307   5.4395   5.5574   5.6841
     5.7522   5.8121   5.8571   5.9245   5.9890   6.1664   6.2354   6.2805
     6.3594   6.5170   6.5670   6.6237   6.6439   6.7059   6.7627   6.8302
     6.8833   6.8961   6.9706   6.9849   7.0191   7.0597   7.1650   7.1898
     7.3343   7.3703   7.8222   7.8347   7.9061   7.9415   8.0835   8.0944
    10.1906  10.2011  10.4886  10.5401  10.9955  11.0691  11.9198  12.0003
    12.1341  12.4890  12.4943  12.5351  12.5821  12.6820  12.7143  12.8601
    12.9333  13.1765  13.2477  13.3597  13.5953  13.6584  13.9891  14.0073
    14.7470  14.8536  15.3023  15.4393  15.6728  15.8662  15.9636  16.0053
    16.4225  17.2159  17.2435  17.4876  17.7978

          k = 0.0000 0.1595-0.5000 ( 62208 PWs)   bands (ev):

   -66.0198 -66.0198 -66.0194 -66.0194 -66.0188 -66.0188 -66.0184 -66.0184
   -30.4464 -30.4464 -30.4413 -30.4413 -30.3961 -30.3961 -30.3875 -30.3875
   -30.3627 -30.3627 -30.3551 -30.3551 -30.3176 -30.3176 -30.3134 -30.3134
   -30.3105 -30.3105 -30.3064 -30.3064 -30.2677 -30.2677 -30.2604 -30.2604
   -20.1713 -20.1713 -20.1709 -20.1709 -20.1704 -20.1704 -20.1701 -20.1701
   -20.1664 -20.1664 -20.1661 -20.1661 -20.1627 -20.1627 -20.1623 -20.1623
   -20.1586 -20.1586 -20.1577 -20.1577 -20.1571 -20.1571 -20.1565 -20.1565
   -20.1561 -20.1561 -20.1557 -20.1557 -20.1550 -20.1550 -20.1544 -20.1544
   -20.1452 -20.1452 -20.1448 -20.1448 -20.1444 -20.1444 -20.1440 -20.1439
   -20.1211 -20.1211 -20.1193 -20.1193 -20.1185 -20.1185 -20.1176 -20.1176
   -20.1170 -20.1170 -20.1157 -20.1157 -20.1149 -20.1149 -20.1133 -20.1133
    -9.5870  -9.5870  -9.3113  -9.3113  -9.0982  -9.0982  -8.8188  -8.8188
    -8.4933  -8.4933  -8.4764  -8.4764  -8.4572  -8.4572  -8.3859  -8.3859
    -7.8724  -7.8724  -7.8161  -7.8161  -7.6469  -7.6469  -7.6172  -7.6172
     1.3972   1.3972   1.4236   1.4236   1.7900   1.7900   1.8734   1.8734
     2.7335   2.7335   3.0701   3.0701   3.1965   3.1965   3.2263   3.2263
     3.3534   3.3534   3.3766   3.3766   3.5620   3.5620   3.8344   3.8345
     3.9295   3.9295   4.3121   4.3121   4.6646   4.6646   4.8304   4.8304
     5.1180   5.1180   5.3355   5.3355   5.3744   5.3744   5.5452   5.5452
     5.7609   5.7609   5.8946   5.8946   6.1688   6.1688   6.3084   6.3084
     6.3975   6.3975   6.4709   6.4709   6.5925   6.5925   6.7182   6.7182
     6.8940   6.8940   6.9268   6.9268   7.0126   7.0126   7.5552   7.5552
     7.5950   7.5950   7.6834   7.6834   7.7209   7.7209   8.0927   8.0927
    10.2009  10.2009  11.2587  11.2587  11.3279  11.3279  11.6547  11.6547
    11.8184  11.8184  12.5362  12.5362  12.7475  12.7475  12.8975  12.8975
    12.9556  12.9556  13.2267  13.2267  13.4221  13.4221  13.9922  13.9922
    14.8221  14.8221  15.6281  15.6281  15.8521  15.8521  15.9012  15.9012
    16.7443  16.7443  17.7006  17.7006  18.1230

          k = 0.0000 0.3190 0.0000 ( 62230 PWs)   bands (ev):

   -66.0202 -66.0199 -66.0192 -66.0192 -66.0190 -66.0190 -66.0183 -66.0180
   -30.4381 -30.4325 -30.4325 -30.4272 -30.4101 -30.4029 -30.4029 -30.3957
   -30.3673 -30.3665 -30.3594 -30.3594 -30.3587 -30.3538 -30.3538 -30.3531
   -30.2698 -30.2698 -30.2665 -30.2662 -30.2628 -30.2628 -30.2588 -30.2578
   -20.1711 -20.1709 -20.1709 -20.1707 -20.1705 -20.1703 -20.1703 -20.1701
   -20.1658 -20.1655 -20.1655 -20.1652 -20.1637 -20.1633 -20.1633 -20.1628
   -20.1587 -20.1581 -20.1581 -20.1580 -20.1574 -20.1574 -20.1572 -20.1569
   -20.1561 -20.1556 -20.1553 -20.1553 -20.1548 -20.1548 -20.1545 -20.1543
   -20.1455 -20.1454 -20.1450 -20.1450 -20.1442 -20.1442 -20.1438 -20.1437
   -20.1219 -20.1219 -20.1204 -20.1204 -20.1195 -20.1195 -20.1182 -20.1182
   -20.1159 -20.1159 -20.1146 -20.1146 -20.1140 -20.1140 -20.1125 -20.1125
    -9.7876  -9.6391  -9.3427  -9.3427  -9.2073  -9.2073  -8.9654  -8.9569
    -8.7771  -8.6650  -8.6541  -8.6541  -8.1602  -8.1091  -8.1091  -8.0801
    -7.7221  -7.7085  -7.6930  -7.6782  -7.5805  -7.5805  -7.5572  -7.5572
     1.2898   1.2904   1.3849   1.3849   1.3909   1.3909   1.6564   1.6923
     2.3938   2.5013   2.5383   2.5383   2.5457   2.6998   2.8797   2.8976
     3.0188   3.0188   3.6955   3.7204   3.7615   3.7615   4.1676   4.4977
     4.4977   4.7850   4.8510   4.8510   4.9025   4.9025   5.0972   5.1050
     5.1050   5.1413   5.4127   5.4127   5.6252   5.6314   5.7482   5.7482
     5.9296   5.9513   5.9513   5.9829   6.0380   6.0636   6.1441   6.1735
     6.2202   6.2993   6.3004   6.5417   6.6432   6.6432   6.8711   6.8711
     6.9213   7.0099   7.1421   7.1503   7.1620   7.1620   7.3787   7.3787
     7.4338   7.4338   7.8371   7.8688   7.9003   7.9003   7.9202   7.9318
     9.4534   9.4615  10.6971  10.6971  10.7236  10.7693  11.9102  11.9102
    12.0274  12.0419  12.3859  12.3859  12.5271  12.5271  12.8446  12.9744
    13.3083  13.4083  13.4083  13.5422  13.7810  13.8139  13.8139  13.8960
    14.9485  15.3570  15.3570  15.4833  15.4890  15.7007  15.9986  15.9986
    16.0487  17.0094  17.3103  17.7277  17.7277

          k = 0.0000 0.3190 0.1667 ( 62185 PWs)   bands (ev):

   -66.0201 -66.0199 -66.0193 -66.0191 -66.0190 -66.0189 -66.0183 -66.0181
   -30.4377 -30.4329 -30.4322 -30.4275 -30.4094 -30.4033 -30.4022 -30.3961
   -30.3655 -30.3630 -30.3597 -30.3550 -30.3541 -30.3532 -30.3493 -30.3474
   -30.2763 -30.2725 -30.2699 -30.2695 -30.2673 -30.2635 -30.2626 -30.2587
   -20.1711 -20.1709 -20.1709 -20.1706 -20.1705 -20.1703 -20.1703 -20.1701
   -20.1658 -20.1655 -20.1655 -20.1652 -20.1637 -20.1633 -20.1633 -20.1629
   -20.1586 -20.1581 -20.1581 -20.1578 -20.1574 -20.1573 -20.1570 -20.1568
   -20.1562 -20.1557 -20.1554 -20.1553 -20.1550 -20.1548 -20.1546 -20.1544
   -20.1455 -20.1453 -20.1450 -20.1449 -20.1443 -20.1442 -20.1439 -20.1437
   -20.1218 -20.1215 -20.1205 -20.1200 -20.1194 -20.1192 -20.1183 -20.1178
   -20.1163 -20.1158 -20.1150 -20.1148 -20.1143 -20.1139 -20.1129 -20.1126
    -9.7383  -9.5864  -9.3588  -9.2686  -9.2215  -9.1196  -8.9258  -8.9161
    -8.7856  -8.6587  -8.6579  -8.6372  -8.1602  -8.1171  -8.1057  -8.0870
    -7.8324  -7.8090  -7.7094  -7.7056  -7.6824  -7.6767  -7.5891  -7.5657
     1.3747   1.3767   1.3897   1.3958   1.6353   1.6460   1.8191   1.8669
     2.3973   2.5175   2.5398   2.5892   2.6337   2.6918   2.8954   2.9915
     3.0115   3.1127   3.7074   3.7494   3.7579   3.8083   4.1570   4.4454
     4.4709   4.5209   4.5463   4.7827   4.8100   4.8942   4.9195   4.9485
     5.1026   5.1279   5.2141   5.3584   5.4338   5.5026   5.6334   5.7014
     5.7430   5.8261   5.8617   5.9297   6.0999   6.1278   6.1554   6.1876
     6.2887   6.4592   6.4639   6.6043   6.6375   6.8546   6.8728   6.9473
     6.9917   7.0148   7.1149   7.1191   7.1312   7.1402   7.2096   7.2256
     7.2681   7.2911   7.8273   7.8625   7.8740   7.8919   7.9162   7.9323
     9.7906   9.8016  10.7015  10.7406  10.8716  10.9147  11.9069  11.9960
    12.0369  12.1094  12.3047  12.4162  12.4421  12.5750  12.8881  12.9915
    13.1967  13.3032  13.4056  13.4585  13.6744  13.7232  13.8115  13.8550
    15.0737  15.3470  15.4868  15.5454  15.5896  15.7669  15.9711  16.2078
    16.2934  16.9729  17.3370  17.4253  17.7352

          k = 0.0000 0.3190 0.3333 ( 62179 PWs)   bands (ev):

   -66.0199 -66.0197 -66.0195 -66.0192 -66.0190 -66.0187 -66.0185 -66.0183
   -30.4366 -30.4339 -30.4312 -30.4285 -30.4077 -30.4043 -30.4006 -30.3972
   -30.3637 -30.3607 -30.3589 -30.3552 -30.3403 -30.3365 -30.3343 -30.3304
   -30.2938 -30.2897 -30.2874 -30.2831 -30.2686 -30.2663 -30.2618 -30.2596
   -20.1711 -20.1709 -20.1708 -20.1706 -20.1706 -20.1704 -20.1702 -20.1701
   -20.1658 -20.1656 -20.1655 -20.1653 -20.1636 -20.1634 -20.1632 -20.1630
   -20.1584 -20.1582 -20.1579 -20.1575 -20.1574 -20.1571 -20.1566 -20.1565
   -20.1564 -20.1561 -20.1557 -20.1553 -20.1552 -20.1548 -20.1547 -20.1545
   -20.1454 -20.1451 -20.1451 -20.1447 -20.1445 -20.1441 -20.1441 -20.1438
   -20.1215 -20.1207 -20.1206 -20.1192 -20.1189 -20.1186 -20.1183 -20.1174
   -20.1169 -20.1161 -20.1157 -20.1155 -20.1149 -20.1139 -20.1136 -20.1129
    -9.6199  -9.4632  -9.4086  -9.2652  -9.0810  -8.8719  -8.8183  -8.8060
    -8.7744  -8.6728  -8.6217  -8.5657  -8.2031  -8.1944  -8.1280  -8.1025
    -8.0990  -8.0525  -8.0140  -7.9660  -7.6780  -7.6539  -7.6126  -7.5889
     1.4017   1.4083   1.4210   1.4270   2.2409   2.3065   2.3417   2.4293
     2.4867   2.5545   2.5696   2.7760   2.8490   2.8863   2.9183   3.0017
     3.2395   3.3258   3.6914   3.7130   3.8221   3.8551   3.9085   3.9240
     4.1214   4.2652   4.4516   4.4876   4.5353   4.5689   4.6526   4.8144
     4.8572   4.8696   5.0251   5.1102   5.2208   5.2558   5.2602   5.3825
     5.4317   5.6317   5.6984   5.8818   6.1799   6.2325   6.2373   6.2944
     6.4472   6.5733   6.6257   6.6860   6.7032   6.8241   6.8347   6.8670
     6.9810   7.0198   7.0719   7.0982   7.1125   7.1644   7.2053   7.2726
     7.3434   7.3846   7.7575   7.7868   7.8302   7.8392   7.8815   7.9062
    10.4864  10.5218  10.7163  10.7525  11.3194  11.3708  11.8644  11.9573
    11.9979  12.0632  12.2654  12.3242  12.6153  12.6572  12.6785  12.7365
    12.9522  13.1445  13.2126  13.3588  13.4057  13.5342  13.8067  13.8261
    15.2133  15.3203  15.6099  15.8887  15.9561  16.0587  16.1027  16.6975
    16.8409  16.8475  17.1002  17.6109  17.6851

          k = 0.0000 0.3190-0.5000 ( 62194 PWs)   bands (ev):

   -66.0197 -66.0197 -66.0195 -66.0195 -66.0187 -66.0187 -66.0185 -66.0185
   -30.4352 -30.4352 -30.4298 -30.4298 -30.4059 -30.4059 -30.3987 -30.3987
   -30.3622 -30.3621 -30.3567 -30.3567 -30.3174 -30.3174 -30.3132 -30.3132
   -30.3112 -30.3112 -30.3068 -30.3068 -30.2675 -30.2675 -30.2607 -30.2607
   -20.1710 -20.1710 -20.1707 -20.1707 -20.1705 -20.1705 -20.1702 -20.1702
   -20.1657 -20.1657 -20.1654 -20.1654 -20.1635 -20.1635 -20.1631 -20.1631
   -20.1583 -20.1583 -20.1577 -20.1577 -20.1569 -20.1569 -20.1566 -20.1566
   -20.1561 -20.1561 -20.1559 -20.1559 -20.1550 -20.1550 -20.1546 -20.1546
   -20.1452 -20.1452 -20.1448 -20.1448 -20.1444 -20.1444 -20.1440 -20.1440
   -20.1211 -20.1211 -20.1193 -20.1193 -20.1185 -20.1185 -20.1176 -20.1176
   -20.1170 -20.1170 -20.1157 -20.1157 -20.1149 -20.1149 -20.1133 -20.1133
    -9.4966  -9.4966  -9.3441  -9.3441  -8.9017  -8.9017  -8.7052  -8.7052
    -8.5129  -8.5129  -8.5056  -8.5056  -8.4451  -8.4451  -8.3621  -8.3620
    -8.1098  -8.1098  -8.0651  -8.0651  -7.6451  -7.6451  -7.6211  -7.6211
     1.4162   1.4162   1.4236   1.4236   2.3974   2.3975   2.5289   2.5289
     2.9321   2.9321   3.1107   3.1107   3.1792   3.1792   3.2952   3.2952
     3.3616   3.3616   3.4191   3.4191   3.5279   3.5279   3.7229   3.7229
     4.0505   4.0505   4.1065   4.1065   4.2060   4.2060   4.4201   4.4201
     4.8422   4.8422   4.9630   4.9630   5.1680   5.1680   5.3113   5.3113
     5.4669   5.4669   5.7876   5.7876   6.2926   6.2926   6.3412   6.3412
     6.5172   6.5173   6.5469   6.5469   6.5962   6.5962   6.7824   6.7824
     7.0951   7.0951   7.0977   7.0977   7.1406   7.1406   7.5529   7.5529
     7.5758   7.5758   7.6243   7.6243   7.6597   7.6597   7.8895   7.8895
    10.7169  10.7169  11.2743  11.2743  11.3270  11.3270  11.7777  11.7777
    12.0158  12.0158  12.2021  12.2021  12.6527  12.6527  12.7040  12.7040
    12.9227  12.9227  13.0247  13.0247  13.4239  13.4239  13.8088  13.8088
    15.2758  15.2758  15.7624  15.7624  16.3275  16.3275  16.5735  16.5735
    16.9168  16.9168  17.3194  17.3194  18.0155

          k = 0.0000-0.4786 0.0000 ( 62194 PWs)   bands (ev):

   -66.0201 -66.0201 -66.0191 -66.0191 -66.0191 -66.0191 -66.0181 -66.0181
   -30.4237 -30.4237 -30.4185 -30.4185 -30.4164 -30.4164 -30.4115 -30.4115
   -30.3668 -30.3668 -30.3589 -30.3589 -30.3565 -30.3565 -30.3548 -30.3548
   -30.2697 -30.2697 -30.2663 -30.2663 -30.2630 -30.2630 -30.2584 -30.2584
   -20.1709 -20.1709 -20.1708 -20.1708 -20.1703 -20.1703 -20.1703 -20.1703
   -20.1648 -20.1648 -20.1645 -20.1645 -20.1643 -20.1643 -20.1641 -20.1641
   -20.1583 -20.1583 -20.1578 -20.1578 -20.1577 -20.1577 -20.1571 -20.1571
   -20.1558 -20.1558 -20.1552 -20.1552 -20.1550 -20.1550 -20.1545 -20.1545
   -20.1455 -20.1455 -20.1450 -20.1450 -20.1443 -20.1443 -20.1438 -20.1438
   -20.1219 -20.1219 -20.1204 -20.1203 -20.1195 -20.1195 -20.1182 -20.1182
   -20.1159 -20.1159 -20.1146 -20.1146 -20.1140 -20.1140 -20.1125 -20.1125
    -9.7034  -9.7034  -9.2633  -9.2633  -9.2548  -9.2548  -8.9612  -8.9611
    -8.4710  -8.4709  -8.4138  -8.4137  -8.4135  -8.4135  -8.4120  -8.4120
    -7.7155  -7.7155  -7.6860  -7.6860  -7.5786  -7.5786  -7.5595  -7.5595
     1.2900   1.2900   1.3870   1.3870   1.3914   1.3914   1.6844   1.6844
     2.5226   2.5226   3.1425   3.1425   3.2451   3.2451   3.2733   3.2733
     3.2975   3.2975   3.3473   3.3473   3.5516   3.5516   3.5721   3.5721
     3.7229   3.7229   4.8511   4.8511   4.8958   4.8958   5.2346   5.2346
     5.2867   5.2867   5.3502   5.3502   5.3718   5.3718   5.8236   5.8236
     5.8283   5.8283   6.0218   6.0218   6.1048   6.1048   6.1648   6.1648
     6.2563   6.2563   6.3157   6.3157   6.7273   6.7273   6.7534   6.7534
     6.9666   6.9666   7.3692   7.3692   7.4199   7.4199   7.5074   7.5074
     7.5304   7.5304   7.5820   7.5820   7.5866   7.5866   7.9153   7.9153
     9.4589   9.4589  11.3151  11.3151  11.3396  11.3396  11.3822  11.3822
    11.4361  11.4361  12.3912  12.3912  12.5297  12.5297  12.9176  12.9176
    13.5204  13.5204  13.5634  13.5634  13.5917  13.5917  13.6846  13.6846
    15.4464  15.4465  15.5105  15.5105  15.7485  15.7485  15.7889  15.7889
    16.5984  16.5984  17.9691  17.9692  18.1689

          k = 0.0000-0.4786 0.1667 ( 62168 PWs)   bands (ev):

   -66.0200 -66.0200 -66.0192 -66.0192 -66.0190 -66.0190 -66.0182 -66.0182
   -30.4233 -30.4230 -30.4188 -30.4179 -30.4168 -30.4161 -30.4118 -30.4118
   -30.3653 -30.3632 -30.3593 -30.3551 -30.3544 -30.3523 -30.3516 -30.3481
   -30.2762 -30.2724 -30.2701 -30.2694 -30.2674 -30.2635 -30.2627 -30.2589
   -20.1709 -20.1708 -20.1708 -20.1707 -20.1704 -20.1703 -20.1703 -20.1703
   -20.1648 -20.1648 -20.1645 -20.1645 -20.1644 -20.1643 -20.1641 -20.1641
   -20.1582 -20.1582 -20.1578 -20.1577 -20.1576 -20.1576 -20.1570 -20.1570
   -20.1559 -20.1559 -20.1554 -20.1552 -20.1551 -20.1549 -20.1546 -20.1545
   -20.1454 -20.1454 -20.1450 -20.1449 -20.1443 -20.1442 -20.1438 -20.1438
   -20.1218 -20.1215 -20.1205 -20.1200 -20.1194 -20.1192 -20.1183 -20.1178
   -20.1163 -20.1158 -20.1150 -20.1148 -20.1143 -20.1139 -20.1129 -20.1126
    -9.6521  -9.6513  -9.2785  -9.2701  -9.1794  -9.1706  -8.9214  -8.9201
    -8.4767  -8.4766  -8.4221  -8.4217  -8.4106  -8.4103  -8.4049  -8.4046
    -7.8307  -7.8122  -7.7072  -7.7053  -7.6834  -7.6795  -7.5872  -7.5680
     1.3754   1.3766   1.3919   1.3962   1.6413   1.6461   1.8565   1.8578
     2.6109   2.6113   3.1475   3.1514   3.2240   3.2375   3.2792   3.2935
     3.3377   3.3520   3.3552   3.3601   3.5482   3.5702   3.6033   3.6168
     3.7499   3.7507   4.4907   4.5086   4.8402   4.9341   4.9932   5.0726
     5.1534   5.1579   5.2225   5.2619   5.3719   5.3767   5.5477   5.5566
     5.7964   5.7969   5.8362   5.8399   6.1375   6.1573   6.1834   6.1837
     6.4032   6.4110   6.4660   6.4703   6.7148   6.7424   6.9095   6.9399
     7.0333   7.0394   7.1626   7.1948   7.1979   7.2407   7.5021   7.5175
     7.5259   7.5372   7.5637   7.5693   7.5753   7.5800   7.9141   7.9148
     9.7934   9.8041  11.3189  11.3437  11.3863  11.3919  11.4567  11.4569
    11.5154  11.5430  12.3073  12.4174  12.4444  12.5757  12.9553  12.9736
    13.3817  13.4012  13.4327  13.4409  13.5604  13.5876  13.6580  13.6634
    15.4427  15.4907  15.6589  15.6912  15.7315  15.7791  16.0279  16.0468
    16.6599  16.6631  17.8904  17.9115  18.0220

          k = 0.0000-0.4786 0.3333 ( 62218 PWs)   bands (ev):

   -66.0198 -66.0198 -66.0193 -66.0193 -66.0189 -66.0189 -66.0184 -66.0184
   -30.4223 -30.4214 -30.4197 -30.4179 -30.4163 -30.4152 -30.4129 -30.4127
   -30.3634 -30.3603 -30.3595 -30.3561 -30.3401 -30.3360 -30.3352 -30.3308
   -30.2937 -30.2896 -30.2876 -30.2833 -30.2686 -30.2662 -30.2619 -30.2597
   -20.1708 -20.1708 -20.1707 -20.1706 -20.1705 -20.1704 -20.1703 -20.1703
   -20.1648 -20.1647 -20.1646 -20.1645 -20.1644 -20.1643 -20.1642 -20.1641
   -20.1581 -20.1581 -20.1579 -20.1578 -20.1573 -20.1572 -20.1567 -20.1566
   -20.1563 -20.1562 -20.1557 -20.1555 -20.1551 -20.1549 -20.1547 -20.1547
   -20.1453 -20.1451 -20.1451 -20.1447 -20.1445 -20.1441 -20.1440 -20.1439
   -20.1215 -20.1207 -20.1206 -20.1192 -20.1189 -20.1186 -20.1183 -20.1174
   -20.1169 -20.1161 -20.1157 -20.1155 -20.1149 -20.1139 -20.1136 -20.1129
    -9.5306  -9.5272  -9.3253  -9.3174  -8.9479  -8.9388  -8.7877  -8.7827
    -8.5101  -8.5092  -8.4451  -8.4449  -8.4017  -8.4016  -8.3786  -8.3778
    -8.1165  -8.1021  -8.0127  -7.9990  -7.6760  -7.6564  -7.6106  -7.5913
     1.4047   1.4084   1.4245   1.4265   2.3148   2.3216   2.4930   2.4987
     2.8660   2.8674   3.1546   3.1654   3.2104   3.2391   3.2825   3.2931
     3.3522   3.3593   3.4356   3.4571   3.5316   3.5630   3.7567   3.7608
     3.8198   3.8253   3.9016   3.9135   4.4725   4.4846   4.6472   4.6593
     4.8086   4.8431   4.8954   4.9470   5.2426   5.2435   5.2827   5.2870
     5.4231   5.4290   5.7161   5.7213   6.2304   6.2336   6.2685   6.3046
     6.5407   6.5515   6.6228   6.6923   6.7126   6.7237   6.8626   6.8887
     7.0806   7.0965   7.1944   7.2102   7.2104   7.2252   7.4812   7.5069
     7.5356   7.5415   7.5478   7.5560   7.5663   7.5745   7.8450   7.8474
    10.5006  10.5287  11.3277  11.3555  11.3783  11.3910  11.8013  11.8021
    11.8391  11.8708  11.9510  12.0072  12.6153  12.7224  12.7872  12.8160
    12.9354  12.9413  13.2187  13.2207  13.5567  13.5740  13.6040  13.6235
    15.4776  15.5209  15.6705  15.7047  16.2631  16.2841  16.7423  16.7598
    16.8812  16.8871  17.4023  17.4169  17.9905

          k = 0.0000-0.4786-0.5000 ( 62164 PWs)   bands (ev):

   -66.0196 -66.0196 -66.0196 -66.0196 -66.0186 -66.0186 -66.0186 -66.0186
   -30.4210 -30.4210 -30.4195 -30.4195 -30.4146 -30.4146 -30.4139 -30.4139
   -30.3618 -30.3618 -30.3576 -30.3576 -30.3173 -30.3173 -30.3130 -30.3130
   -30.3116 -30.3116 -30.3071 -30.3071 -30.2674 -30.2674 -30.2608 -30.2608
   -20.1708 -20.1708 -20.1706 -20.1706 -20.1705 -20.1705 -20.1703 -20.1703
   -20.1647 -20.1647 -20.1646 -20.1646 -20.1643 -20.1643 -20.1642 -20.1642
   -20.1580 -20.1580 -20.1579 -20.1579 -20.1568 -20.1568 -20.1567 -20.1567
   -20.1562 -20.1562 -20.1560 -20.1560 -20.1549 -20.1549 -20.1548 -20.1548
   -20.1452 -20.1452 -20.1448 -20.1448 -20.1444 -20.1443 -20.1440 -20.1440
   -20.1211 -20.1211 -20.1193 -20.1193 -20.1185 -20.1185 -20.1176 -20.1176
   -20.1170 -20.1170 -20.1157 -20.1157 -20.1149 -20.1149 -20.1133 -20.1133
    -9.4095  -9.4095  -9.4021  -9.4021  -8.6647  -8.6647  -8.6464  -8.6464
    -8.5672  -8.5672  -8.5515  -8.5515  -8.3679  -8.3679  -8.3361  -8.3361
    -8.2981  -8.2981  -8.2692  -8.2692  -7.6431  -7.6431  -7.6236  -7.6236
     1.4197   1.4197   1.4235   1.4235   3.0254   3.0254   3.1018   3.1018
     3.1658   3.1658   3.2151   3.2151   3.2294   3.2294   3.2727   3.2727
     3.3233   3.3233   3.4107   3.4107   3.4936   3.4936   3.5372   3.5372
     3.6057   3.6057   3.8031   3.8031   4.2790   4.2790   4.3697   4.3697
     4.3973   4.3973   4.4796   4.4796   5.2280   5.2280   5.2746   5.2746
     5.5343   5.5343   5.5944   5.5944   6.3339   6.3339   6.3443   6.3443
     6.5629   6.5629   6.5750   6.5750   6.6423   6.6423   6.6797   6.6797
     7.2968   7.2968   7.3274   7.3274   7.3710   7.3710   7.4782   7.4782
     7.5120   7.5120   7.5607   7.5607   7.6500   7.6500   7.6607   7.6607
    11.2172  11.2172  11.3029  11.3029  11.3825  11.3825  11.4280  11.4280
    12.2625  12.2625  12.2927  12.2927  12.3979  12.3979  12.4136  12.4136
    12.9104  12.9104  12.9747  12.9747  13.5598  13.5598  13.5893  13.5893
    15.5757  15.5757  15.6131  15.6131  16.8633  16.8633  16.9129  16.9129
    17.3953  17.3953  17.4743  17.4744  17.5543

          k = 0.1667 0.0000 0.1667 ( 62182 PWs)   bands (ev):

   -66.0202 -66.0197 -66.0193 -66.0193 -66.0189 -66.0189 -66.0185 -66.0180
   -30.4524 -30.4479 -30.4479 -30.4436 -30.3960 -30.3888 -30.3887 -30.3808
   -30.3611 -30.3601 -30.3547 -30.3543 -30.3529 -30.3458 -30.3457 -30.3425
   -30.2763 -30.2763 -30.2739 -30.2732 -30.2684 -30.2683 -30.2656 -30.2634
   -20.1715 -20.1712 -20.1712 -20.1709 -20.1705 -20.1702 -20.1702 -20.1700
   -20.1667 -20.1665 -20.1665 -20.1663 -20.1626 -20.1622 -20.1622 -20.1617
   -20.1589 -20.1584 -20.1583 -20.1579 -20.1571 -20.1571 -20.1566 -20.1566
   -20.1564 -20.1559 -20.1555 -20.1554 -20.1546 -20.1546 -20.1545 -20.1542
   -20.1455 -20.1452 -20.1450 -20.1450 -20.1443 -20.1442 -20.1440 -20.1437
   -20.1214 -20.1214 -20.1201 -20.1201 -20.1191 -20.1191 -20.1180 -20.1180
   -20.1162 -20.1162 -20.1152 -20.1152 -20.1143 -20.1143 -20.1130 -20.1130
    -9.8040  -9.4785  -9.4322  -9.4316  -9.0987  -9.0977  -9.0865  -8.8929
    -8.8759  -8.8336  -8.7934  -8.7925  -7.8729  -7.8198  -7.8127  -7.7981
    -7.7771  -7.7692  -7.7498  -7.7137  -7.7120  -7.6934  -7.6842  -7.6693
     1.4607   1.4961   1.4981   1.5487   1.5495   1.6061   1.6500   1.6556
     1.7624   1.7689   1.9577   2.1136   2.6498   2.6906   2.7026   2.7504
     2.8111   2.8431   4.1685   4.1789   4.4040   4.4077   4.5214   4.5487
     4.5796   4.5907   4.6425   4.6938   4.7852   4.8449   5.1712   5.3121
     5.3152   5.3802   5.3929   5.5650   5.5674   5.6280   5.6559   5.7407
     5.7446   5.7772   5.8176   5.8329   5.8779   6.0587   6.2938   6.3961
     6.4676   6.5606   6.5700   6.7009   6.7243   6.7577   6.7726   6.7968
     6.8306   6.8499   6.9102   6.9152   6.9372   7.0037   7.0385   7.1255
     7.3040   7.3487   7.8969   7.9015   8.0584   8.0892   8.0991   8.1426
     9.9866  10.0363  10.2130  10.2501  10.3141  10.3684  12.3312  12.3367
    12.3879  12.4045  12.4791  12.5038  12.7268  12.7269  12.8031  12.9352
    13.0508  13.1805  13.3348  13.3531  13.8154  13.9273  13.9895  14.0478
    14.4594  14.7309  14.7372  15.1445  15.5569  15.6048  15.6195  16.4123
    16.4126  17.0040  17.0054  17.2220  17.5738

          k = 0.1667 0.0000 0.3333 ( 62181 PWs)   bands (ev):

   -66.0200 -66.0195 -66.0195 -66.0192 -66.0190 -66.0187 -66.0187 -66.0182
   -30.4514 -30.4489 -30.4470 -30.4445 -30.3937 -30.3898 -30.3862 -30.3820
   -30.3583 -30.3554 -30.3522 -30.3471 -30.3400 -30.3372 -30.3315 -30.3294
   -30.2938 -30.2904 -30.2866 -30.2833 -30.2752 -30.2726 -30.2677 -30.2655
   -20.1714 -20.1713 -20.1711 -20.1710 -20.1704 -20.1702 -20.1701 -20.1700
   -20.1667 -20.1666 -20.1665 -20.1663 -20.1625 -20.1623 -20.1621 -20.1618
   -20.1587 -20.1584 -20.1580 -20.1576 -20.1573 -20.1569 -20.1567 -20.1563
   -20.1562 -20.1561 -20.1557 -20.1553 -20.1550 -20.1547 -20.1546 -20.1543
   -20.1453 -20.1450 -20.1450 -20.1447 -20.1444 -20.1442 -20.1441 -20.1438
   -20.1211 -20.1204 -20.1204 -20.1191 -20.1188 -20.1183 -20.1182 -20.1172
   -20.1170 -20.1163 -20.1159 -20.1157 -20.1151 -20.1140 -20.1140 -20.1133
    -9.6900  -9.4816  -9.3431  -9.2991  -9.1400  -9.1171  -8.8500  -8.8371
    -8.8053  -8.7450  -8.7263  -8.6671  -8.1330  -8.1129  -8.0585  -8.0400
    -7.8202  -7.7884  -7.7644  -7.7625  -7.7283  -7.7176  -7.7063  -7.7025
     1.4715   1.4870   1.5653   1.5934   1.6655   1.6805   1.7417   1.7723
     2.3416   2.3820   2.5065   2.5888   2.7169   2.8043   2.9124   2.9396
     3.0261   3.0813   3.8489   3.9043   3.9906   4.0352   4.1490   4.3692
     4.3951   4.5429   4.5614   4.5890   4.6296   4.7955   4.8112   4.9457
     5.0946   5.1142   5.1661   5.2655   5.3113   5.4518   5.6246   5.6737
     5.7753   5.8065   5.8173   5.8879   5.8936   6.0555   6.1520   6.2009
     6.4447   6.4980   6.5563   6.5857   6.5968   6.7339   6.7468   6.7659
     6.7901   6.9094   6.9206   6.9487   7.1331   7.1706   7.2102   7.2754
     7.3494   7.3869   7.8249   7.8389   7.9472   7.9832   8.1116   8.1236
    10.2466  10.2509  10.6082  10.6748  10.8866  10.9972  11.9765  12.0494
    12.1870  12.4557  12.4956  12.5434  12.6515  12.7252  12.8453  12.8642
    12.9569  13.1435  13.1539  13.2890  13.6724  13.7069  13.9488  13.9596
    14.5578  14.7095  14.9707  15.4527  15.4592  15.8661  16.0244  16.3158
    16.4398  17.2490  17.4532  17.5354  17.6597

          k = 0.1667 0.0000-0.5000 ( 62188 PWs)   bands (ev):

   -66.0198 -66.0197 -66.0193 -66.0193 -66.0189 -66.0189 -66.0184 -66.0184
   -30.4502 -30.4502 -30.4458 -30.4458 -30.3915 -30.3915 -30.3838 -30.3838
   -30.3567 -30.3567 -30.3489 -30.3489 -30.3174 -30.3174 -30.3139 -30.3138
   -30.3098 -30.3098 -30.3065 -30.3065 -30.2741 -30.2741 -30.2667 -30.2667
   -20.1713 -20.1713 -20.1710 -20.1710 -20.1703 -20.1703 -20.1701 -20.1701
   -20.1666 -20.1666 -20.1664 -20.1664 -20.1624 -20.1624 -20.1620 -20.1620
   -20.1585 -20.1585 -20.1577 -20.1576 -20.1572 -20.1572 -20.1565 -20.1565
   -20.1560 -20.1560 -20.1556 -20.1556 -20.1550 -20.1550 -20.1545 -20.1545
   -20.1452 -20.1452 -20.1447 -20.1447 -20.1444 -20.1444 -20.1440 -20.1440
   -20.1208 -20.1208 -20.1192 -20.1192 -20.1183 -20.1183 -20.1177 -20.1177
   -20.1169 -20.1169 -20.1159 -20.1159 -20.1152 -20.1152 -20.1137 -20.1137
    -9.5693  -9.5693  -9.2179  -9.2179  -9.1819  -9.1819  -8.8221  -8.8221
    -8.4963  -8.4963  -8.4810  -8.4810  -8.4416  -8.4416  -8.3940  -8.3940
    -7.7991  -7.7991  -7.7527  -7.7527  -7.7300  -7.7300  -7.7160  -7.7160
     1.4775   1.4775   1.5807   1.5807   1.6824   1.6824   1.7759   1.7759
     2.7447   2.7447   3.0670   3.0670   3.1434   3.1434   3.2639   3.2640
     3.3467   3.3467   3.4556   3.4556   3.6220   3.6220   3.8423   3.8423
     3.8761   3.8761   4.4794   4.4794   4.5594   4.5594   4.9647   4.9647
     5.0860   5.0860   5.1091   5.1091   5.3093   5.3093   5.7025   5.7025
     5.7961   5.7961   5.8580   5.8580   5.9278   5.9278   6.0483   6.0483
     6.3753   6.3753   6.4842   6.4842   6.6925   6.6925   6.7604   6.7604
     6.8809   6.8809   6.9946   6.9946   7.0532   7.0533   7.5768   7.5768
     7.6220   7.6220   7.7122   7.7122   7.7433   7.7433   8.1207   8.1207
    10.2564  10.2565  11.3266  11.3266  11.4054  11.4054  11.6006  11.6006
    11.7719  11.7719  12.6862  12.6862  12.7420  12.7420  12.8143  12.8143
    12.9752  12.9752  13.3155  13.3155  13.3861  13.3861  13.9466  13.9466
    14.6581  14.6581  15.2579  15.2579  15.8949  15.8949  16.1356  16.1356
    16.7975  16.7975  17.8739  17.8739  17.9599

          k = 0.1667 0.1595 0.1667 ( 62181 PWs)   bands (ev):

   -66.0201 -66.0197 -66.0193 -66.0193 -66.0189 -66.0189 -66.0185 -66.0181
   -30.4483 -30.4438 -30.4438 -30.4394 -30.3992 -30.3924 -30.3922 -30.3850
   -30.3610 -30.3601 -30.3546 -30.3541 -30.3527 -30.3465 -30.3465 -30.3437
   -30.2762 -30.2762 -30.2738 -30.2731 -30.2685 -30.2684 -30.2656 -30.2637
   -20.1714 -20.1711 -20.1711 -20.1708 -20.1705 -20.1702 -20.1702 -20.1700
   -20.1665 -20.1663 -20.1663 -20.1660 -20.1629 -20.1625 -20.1625 -20.1620
   -20.1588 -20.1583 -20.1582 -20.1578 -20.1572 -20.1571 -20.1567 -20.1565
   -20.1565 -20.1558 -20.1555 -20.1554 -20.1547 -20.1547 -20.1545 -20.1543
   -20.1454 -20.1452 -20.1450 -20.1450 -20.1443 -20.1443 -20.1440 -20.1437
   -20.1214 -20.1214 -20.1201 -20.1201 -20.1191 -20.1191 -20.1180 -20.1180
   -20.1162 -20.1162 -20.1152 -20.1152 -20.1143 -20.1143 -20.1130 -20.1130
    -9.7695  -9.4908  -9.3878  -9.3870  -9.1070  -9.1059  -9.0103  -8.8918
    -8.8770  -8.7900  -8.7601  -8.7593  -7.9258  -7.8644  -7.8620  -7.8191
    -7.8171  -7.8157  -7.8021  -7.7807  -7.7322  -7.7115  -7.6890  -7.6711
     1.5457   1.5466   1.5921   1.5984   1.6371   1.6556   1.6634   1.8216
     1.9072   1.9138   1.9597   2.1912   2.6609   2.7437   2.7634   2.7786
     2.8852   2.9086   4.0825   4.0983   4.2055   4.2197   4.4893   4.5040
     4.5799   4.5865   4.6185   4.7015   4.7373   4.7756   4.9948   5.2359
     5.2671   5.3258   5.3283   5.3993   5.4266   5.5811   5.6043   5.6554
     5.8076   5.8103   5.8565   5.8601   5.8732   5.9457   6.3045   6.3652
     6.4380   6.5150   6.5302   6.7068   6.7210   6.7831   6.7918   6.8037
     6.8268   6.8995   6.9296   6.9459   6.9939   6.9995   7.0411   7.1280
     7.3093   7.3479   7.8937   7.9021   8.0147   8.0411   8.0537   8.0712
    10.0127  10.0433  10.3934  10.4124  10.4805  10.5085  12.3077  12.3200
    12.3434  12.3587  12.4523  12.4603  12.5743  12.5781  12.8350  12.9770
    13.0315  13.1677  13.3401  13.3498  13.8334  13.8644  13.9425  13.9529
    14.6641  14.9766  14.9769  15.2791  15.6058  15.6169  15.9550  16.3789
    16.3808  16.8811  17.1103  17.1195  17.6338

          k = 0.1667 0.1595 0.3333 ( 62179 PWs)   bands (ev):

   -66.0200 -66.0195 -66.0195 -66.0191 -66.0191 -66.0187 -66.0186 -66.0182
   -30.4473 -30.4447 -30.4429 -30.4403 -30.3971 -30.3934 -30.3901 -30.3861
   -30.3582 -30.3552 -30.3525 -30.3478 -30.3399 -30.3370 -30.3322 -30.3298
   -30.2937 -30.2903 -30.2868 -30.2834 -30.2751 -30.2725 -30.2679 -30.2657
   -20.1713 -20.1712 -20.1710 -20.1708 -20.1704 -20.1703 -20.1702 -20.1701
   -20.1665 -20.1663 -20.1662 -20.1661 -20.1628 -20.1626 -20.1624 -20.1621
   -20.1586 -20.1583 -20.1580 -20.1576 -20.1573 -20.1569 -20.1567 -20.1564
   -20.1562 -20.1561 -20.1557 -20.1553 -20.1551 -20.1547 -20.1546 -20.1544
   -20.1453 -20.1450 -20.1450 -20.1447 -20.1445 -20.1442 -20.1441 -20.1439
   -20.1211 -20.1204 -20.1204 -20.1191 -20.1188 -20.1183 -20.1182 -20.1172
   -20.1170 -20.1163 -20.1159 -20.1157 -20.1151 -20.1140 -20.1140 -20.1133
    -9.6517  -9.4379  -9.3550  -9.2409  -9.1490  -9.0417  -8.8560  -8.8149
    -8.7720  -8.7461  -8.7104  -8.6477  -8.1346  -8.1180  -8.0723  -8.0401
    -7.8806  -7.8620  -7.8348  -7.8065  -7.7951  -7.7674  -7.7324  -7.7066
     1.5981   1.6117   1.6643   1.6783   1.7861   1.7915   1.8678   1.9105
     2.3415   2.3906   2.5084   2.6020   2.7910   2.8707   2.9333   3.0139
     3.0228   3.1388   3.8562   3.9072   3.9848   3.9981   4.1923   4.2019
     4.2853   4.4120   4.5366   4.5976   4.6418   4.7389   4.7686   4.8701
     4.9491   4.9965   5.0056   5.2063   5.2392   5.2964   5.3822   5.6374
     5.6718   5.7094   5.8078   5.8531   5.8996   5.9133   6.1423   6.1909
     6.4118   6.5383   6.5899   6.6624   6.7267   6.7390   6.7566   6.8304
     6.8676   6.9157   6.9617   6.9981   7.1285   7.1671   7.2129   7.2765
     7.3496   7.3918   7.8244   7.8349   7.9128   7.9427   8.0543   8.0609
    10.4026  10.4231  10.6334  10.6862  11.0030  11.0889  11.9773  12.0501
    12.1798  12.4722  12.4995  12.5399  12.5683  12.6088  12.7476  12.8331
    12.8950  13.1086  13.1508  13.2831  13.5800  13.6162  13.8907  13.9052
    14.8223  14.9570  15.2960  15.5633  15.8451  15.8697  16.0369  16.2890
    16.5453  17.2115  17.2796  17.5109  17.5922

          k = 0.1667 0.1595-0.5000 ( 62196 PWs)   bands (ev):

   -66.0197 -66.0197 -66.0193 -66.0193 -66.0189 -66.0189 -66.0185 -66.0185
   -30.4460 -30.4460 -30.4416 -30.4416 -30.3951 -30.3951 -30.3879 -30.3879
   -30.3565 -30.3565 -30.3495 -30.3495 -30.3173 -30.3173 -30.3137 -30.3137
   -30.3102 -30.3102 -30.3067 -30.3067 -30.2740 -30.2740 -30.2668 -30.2668
   -20.1712 -20.1712 -20.1709 -20.1709 -20.1704 -20.1704 -20.1701 -20.1701
   -20.1664 -20.1664 -20.1662 -20.1661 -20.1627 -20.1627 -20.1623 -20.1623
   -20.1584 -20.1584 -20.1576 -20.1576 -20.1571 -20.1571 -20.1565 -20.1565
   -20.1560 -20.1560 -20.1556 -20.1556 -20.1550 -20.1550 -20.1545 -20.1545
   -20.1452 -20.1451 -20.1448 -20.1447 -20.1444 -20.1444 -20.1440 -20.1440
   -20.1208 -20.1208 -20.1192 -20.1192 -20.1183 -20.1183 -20.1177 -20.1177
   -20.1169 -20.1169 -20.1159 -20.1159 -20.1152 -20.1152 -20.1137 -20.1137
    -9.5274  -9.5274  -9.2283  -9.2283  -9.1108  -9.1108  -8.7893  -8.7893
    -8.5005  -8.5005  -8.4843  -8.4843  -8.4423  -8.4423  -8.3884  -8.3884
    -7.8739  -7.8739  -7.8239  -7.8239  -7.7644  -7.7644  -7.7369  -7.7369
     1.6057   1.6057   1.6805   1.6805   1.7972   1.7972   1.9078   1.9078
     2.8147   2.8147   3.0834   3.0834   3.1649   3.1649   3.2760   3.2760
     3.3500   3.3500   3.4656   3.4656   3.6140   3.6140   3.8542   3.8542
     3.9233   3.9233   4.3232   4.3232   4.5418   4.5418   4.7635   4.7635
     4.9822   4.9823   5.0748   5.0748   5.1425   5.1425   5.4960   5.4960
     5.7399   5.7399   5.7722   5.7722   5.9223   5.9223   5.9387   5.9387
     6.5078   6.5078   6.6450   6.6450   6.6958   6.6958   6.7883   6.7883
     6.9489   6.9489   6.9649   6.9649   7.0835   7.0835   7.5781   7.5781
     7.6146   7.6146   7.6959   7.6959   7.7248   7.7248   8.0597   8.0597
    10.4278  10.4278  11.3364  11.3364  11.4062  11.4062  11.6719  11.6719
    11.8334  11.8334  12.5959  12.5959  12.6908  12.6908  12.7996  12.7996
    12.9626  12.9626  13.2031  13.2031  13.3101  13.3101  13.8901  13.8901
    14.9154  14.9154  15.6209  15.6209  16.0100  16.0100  16.1197  16.1197
    16.8323  16.8323  17.7122  17.7122  17.9485

          k = 0.1667 0.3190 0.1667 ( 62185 PWs)   bands (ev):

   -66.0200 -66.0198 -66.0192 -66.0192 -66.0190 -66.0190 -66.0184 -66.0181
   -30.4373 -30.4325 -30.4325 -30.4279 -30.4086 -30.4026 -30.4025 -30.3965
   -30.3607 -30.3601 -30.3541 -30.3538 -30.3519 -30.3483 -30.3478 -30.3464
   -30.2761 -30.2760 -30.2736 -30.2732 -30.2688 -30.2687 -30.2654 -30.2643
   -20.1711 -20.1709 -20.1709 -20.1706 -20.1705 -20.1703 -20.1703 -20.1701
   -20.1658 -20.1655 -20.1655 -20.1652 -20.1637 -20.1633 -20.1633 -20.1629
   -20.1585 -20.1580 -20.1580 -20.1578 -20.1574 -20.1573 -20.1569 -20.1567
   -20.1563 -20.1558 -20.1555 -20.1553 -20.1549 -20.1549 -20.1547 -20.1544
   -20.1454 -20.1453 -20.1450 -20.1449 -20.1443 -20.1443 -20.1439 -20.1438
   -20.1214 -20.1214 -20.1201 -20.1201 -20.1191 -20.1191 -20.1180 -20.1180
   -20.1162 -20.1162 -20.1152 -20.1152 -20.1143 -20.1143 -20.1130 -20.1130
    -9.6860  -9.5290  -9.2854  -9.2845  -9.1345  -9.1335  -8.8887  -8.8802
    -8.7945  -8.6514  -8.6420  -8.6413  -8.1616  -8.1135  -8.1133  -8.0935
    -7.8309  -7.8194  -7.8049  -7.7905  -7.7327  -7.7197  -7.6875  -7.6759
     1.5465   1.5467   1.6368   1.6433   1.6484   1.6553   1.8904   1.9524
     2.4000   2.5188   2.5208   2.6677   2.6806   2.7401   2.9867   3.0074
     3.1027   3.1097   3.7413   3.7627   3.7794   3.8202   4.1474   4.4618
     4.4664   4.5188   4.5406   4.5887   4.6193   4.7868   4.7978   4.8917
     4.8955   4.9496   5.1498   5.1828   5.4146   5.4281   5.4391   5.4685
     5.7102   5.7233   5.7955   5.8195   5.8815   5.8894   6.3496   6.3842
     6.4506   6.5098   6.5573   6.6702   6.7840   6.8189   6.8664   6.8705
     6.9510   6.9568   7.0412   7.0470   7.1453   7.1522   7.1790   7.1883
     7.3376   7.3549   7.8227   7.8447   7.8607   7.8834   7.9069   7.9274
    10.0391  10.0486  10.8489  10.8639  10.9277  10.9335  11.9735  12.0115
    12.1029  12.1156  12.3619  12.3632  12.4674  12.4675  12.9182  13.0059
    13.1313  13.2134  13.3622  13.3646  13.6436  13.6473  13.7390  13.7590
    15.2235  15.5156  15.5320  15.6242  15.6349  15.8306  16.2587  16.2651
    16.3365  16.9385  17.3902  17.4610  17.5211

          k = 0.1667 0.3190 0.3333 ( 62179 PWs)   bands (ev):

   -66.0199 -66.0196 -66.0194 -66.0192 -66.0190 -66.0188 -66.0186 -66.0183
   -30.4362 -30.4335 -30.4315 -30.4289 -30.4070 -30.4036 -30.4009 -30.3975
   -30.3578 -30.3547 -30.3532 -30.3493 -30.3396 -30.3366 -30.3338 -30.3306
   -30.2935 -30.2901 -30.2872 -30.2837 -30.2749 -30.2724 -30.2682 -30.2660
   -20.1710 -20.1709 -20.1708 -20.1706 -20.1706 -20.1704 -20.1703 -20.1702
   -20.1658 -20.1656 -20.1655 -20.1653 -20.1636 -20.1634 -20.1633 -20.1630
   -20.1583 -20.1581 -20.1578 -20.1575 -20.1574 -20.1570 -20.1566 -20.1565
   -20.1563 -20.1562 -20.1557 -20.1554 -20.1552 -20.1549 -20.1548 -20.1546
   -20.1453 -20.1451 -20.1450 -20.1447 -20.1445 -20.1442 -20.1441 -20.1439
   -20.1211 -20.1204 -20.1204 -20.1191 -20.1188 -20.1183 -20.1182 -20.1172
   -20.1170 -20.1163 -20.1159 -20.1157 -20.1151 -20.1140 -20.1140 -20.1133
    -9.5593  -9.3932  -9.3360  -9.1790  -9.0975  -8.8870  -8.8285  -8.7763
    -8.7503  -8.6549  -8.6175  -8.5707  -8.2143  -8.1871  -8.1255  -8.1064
    -8.0963  -8.0495  -8.0230  -7.9722  -7.7975  -7.7745  -7.7332  -7.7112
     1.6519   1.6628   1.6702   1.6786   2.2453   2.3085   2.3359   2.4278
     2.4749   2.5509   2.5571   2.7481   2.9457   3.0094   3.0169   3.0962
     3.2425   3.3233   3.7227   3.7582   3.8102   3.8587   3.9536   4.0241
     4.1165   4.2772   4.4376   4.4833   4.5166   4.5440   4.6133   4.7178
     4.7798   4.8297   4.8662   4.9089   4.9639   5.0283   5.1595   5.2217
     5.3689   5.3880   5.4762   5.6733   5.8292   5.8906   6.1776   6.1910
     6.5867   6.6360   6.6802   6.7661   6.8415   6.8528   6.9497   7.0226
     7.0363   7.0601   7.0891   7.1180   7.1726   7.1990   7.2519   7.3024
     7.3613   7.4063   7.7601   7.7750   7.8265   7.8406   7.8629   7.8960
    10.6187  10.6536  10.8874  10.9207  11.3296  11.3826  11.9362  12.0138
    12.0377  12.1608  12.2657  12.3201  12.5412  12.6337  12.6723  12.6973
    12.9448  13.0880  13.1325  13.2913  13.3495  13.4215  13.6759  13.7048
    15.4086  15.5204  15.8121  16.0245  16.0707  16.1110  16.1991  16.7569
    16.8154  16.9014  17.0970  17.6205  17.7165

          k = 0.1667 0.3190-0.5000 ( 62164 PWs)   bands (ev):

   -66.0196 -66.0196 -66.0194 -66.0194 -66.0188 -66.0188 -66.0186 -66.0186
   -30.4348 -30.4348 -30.4302 -30.4302 -30.4052 -30.4052 -30.3991 -30.3991
   -30.3561 -30.3561 -30.3507 -30.3507 -30.3171 -30.3171 -30.3135 -30.3135
   -30.3109 -30.3109 -30.3072 -30.3072 -30.2739 -30.2738 -30.2671 -30.2671
   -20.1710 -20.1710 -20.1707 -20.1707 -20.1705 -20.1705 -20.1702 -20.1702
   -20.1657 -20.1657 -20.1654 -20.1654 -20.1635 -20.1635 -20.1632 -20.1632
   -20.1582 -20.1582 -20.1576 -20.1576 -20.1570 -20.1570 -20.1566 -20.1566
   -20.1561 -20.1561 -20.1558 -20.1558 -20.1551 -20.1551 -20.1547 -20.1547
   -20.1451 -20.1451 -20.1448 -20.1448 -20.1444 -20.1444 -20.1440 -20.1440
   -20.1208 -20.1208 -20.1192 -20.1192 -20.1183 -20.1183 -20.1177 -20.1177
   -20.1169 -20.1169 -20.1159 -20.1159 -20.1152 -20.1152 -20.1137 -20.1137
    -9.4280  -9.4280  -9.2625  -9.2625  -8.9159  -8.9159  -8.6840  -8.6840
    -8.5322  -8.5322  -8.4965  -8.4965  -8.4335  -8.4335  -8.3659  -8.3659
    -8.1067  -8.1067  -8.0705  -8.0705  -7.7655  -7.7655  -7.7428  -7.7428
     1.6679   1.6679   1.6806   1.6806   2.4004   2.4004   2.5122   2.5122
     3.0097   3.0097   3.1283   3.1284   3.1841   3.1841   3.3187   3.3187
     3.3560   3.3560   3.5053   3.5053   3.5794   3.5794   3.7697   3.7697
     4.0482   4.0482   4.1113   4.1113   4.2016   4.2016   4.4243   4.4243
     4.7562   4.7562   4.8708   4.8708   5.0248   5.0248   5.0688   5.0688
     5.1776   5.1776   5.5587   5.5587   5.9226   5.9226   5.9486   5.9486
     6.6910   6.6910   6.8052   6.8052   6.8683   6.8683   6.8947   6.8947
     7.0732   7.0732   7.1101   7.1101   7.2138   7.2138   7.5614   7.5614
     7.5850   7.5850   7.6361   7.6361   7.6704   7.6705   7.8715   7.8715
    10.8754  10.8754  11.3550  11.3550  11.4091  11.4091  11.8245  11.8245
    12.0276  12.0276  12.2437  12.2437  12.6368  12.6368  12.6784  12.6784
    12.8785  12.8785  12.9784  12.9784  13.2707  13.2707  13.6774  13.6774
    15.4801  15.4801  16.0252  16.0252  16.3962  16.3962  16.5635  16.5635
    16.9718  16.9718  17.3573  17.3573  17.9103

          k = 0.1667-0.4786 0.1667 ( 62194 PWs)   bands (ev):

   -66.0199 -66.0199 -66.0191 -66.0191 -66.0191 -66.0191 -66.0183 -66.0183
   -30.4226 -30.4226 -30.4182 -30.4182 -30.4164 -30.4164 -30.4122 -30.4122
   -30.3603 -30.3603 -30.3537 -30.3537 -30.3503 -30.3503 -30.3481 -30.3481
   -30.2759 -30.2759 -30.2733 -30.2733 -30.2689 -30.2689 -30.2650 -30.2650
   -20.1708 -20.1708 -20.1707 -20.1707 -20.1704 -20.1704 -20.1703 -20.1703
   -20.1648 -20.1648 -20.1645 -20.1645 -20.1644 -20.1644 -20.1641 -20.1641
   -20.1582 -20.1582 -20.1577 -20.1577 -20.1576 -20.1575 -20.1569 -20.1569
   -20.1560 -20.1560 -20.1553 -20.1553 -20.1551 -20.1551 -20.1546 -20.1546
   -20.1453 -20.1453 -20.1449 -20.1449 -20.1443 -20.1443 -20.1439 -20.1439
   -20.1214 -20.1214 -20.1201 -20.1201 -20.1191 -20.1191 -20.1180 -20.1180
   -20.1162 -20.1162 -20.1152 -20.1152 -20.1143 -20.1143 -20.1130 -20.1130
    -9.5960  -9.5960  -9.1949  -9.1949  -9.1862  -9.1862  -8.8844  -8.8844
    -8.4839  -8.4839  -8.4184  -8.4184  -8.4120  -8.4120  -8.4031  -8.4031
    -7.8258  -7.8258  -7.7985  -7.7985  -7.7268  -7.7267  -7.6821  -7.6821
     1.5465   1.5465   1.6445   1.6445   1.6537   1.6537   1.9405   1.9405
     2.7023   2.7023   3.1558   3.1558   3.2340   3.2340   3.2849   3.2849
     3.3562   3.3562   3.4073   3.4073   3.5998   3.5998   3.6155   3.6155
     3.7706   3.7706   4.5270   4.5270   4.5839   4.5839   4.9617   4.9617
     5.0414   5.0414   5.1339   5.1339   5.1866   5.1866   5.4994   5.4994
     5.5425   5.5425   5.8113   5.8113   5.8516   5.8516   6.3900   6.3900
     6.5497   6.5497   6.5602   6.5602   6.8104   6.8104   6.9109   6.9109
     6.9369   6.9369   7.1036   7.1036   7.2905   7.2905   7.5053   7.5053
     7.5283   7.5283   7.5526   7.5526   7.5872   7.5872   7.9084   7.9084
    10.0481  10.0481  11.4177  11.4177  11.4706  11.4706  11.4995  11.4995
    11.5524  11.5524  12.3617  12.3617  12.4662  12.4662  12.9974  12.9974
    13.3497  13.3497  13.3970  13.3970  13.4048  13.4048  13.6077  13.6077
    15.5949  15.5949  15.7623  15.7623  16.0077  16.0077  16.0351  16.0351
    16.7182  16.7182  17.9022  17.9034  17.9298

          k = 0.1667-0.4786 0.3333 ( 62184 PWs)   bands (ev):

   -66.0198 -66.0198 -66.0193 -66.0193 -66.0189 -66.0189 -66.0184 -66.0184
   -30.4216 -30.4210 -30.4191 -30.4175 -30.4167 -30.4156 -30.4133 -30.4131
   -30.3575 -30.3544 -30.3536 -30.3500 -30.3393 -30.3362 -30.3348 -30.3310
   -30.2934 -30.2900 -30.2874 -30.2838 -30.2749 -30.2723 -30.2683 -30.2661
   -20.1708 -20.1708 -20.1707 -20.1707 -20.1705 -20.1704 -20.1703 -20.1703
   -20.1647 -20.1647 -20.1646 -20.1645 -20.1645 -20.1644 -20.1642 -20.1642
   -20.1580 -20.1580 -20.1578 -20.1577 -20.1573 -20.1572 -20.1566 -20.1565
   -20.1563 -20.1563 -20.1557 -20.1555 -20.1552 -20.1550 -20.1548 -20.1548
   -20.1452 -20.1451 -20.1450 -20.1447 -20.1445 -20.1442 -20.1441 -20.1439
   -20.1211 -20.1204 -20.1204 -20.1191 -20.1188 -20.1183 -20.1182 -20.1172
   -20.1170 -20.1163 -20.1159 -20.1157 -20.1151 -20.1140 -20.1140 -20.1133
    -9.4637  -9.4610  -9.2432  -9.2351  -8.9645  -8.9555  -8.7617  -8.7578
    -8.5214  -8.5201  -8.4369  -8.4355  -8.4007  -8.3986  -8.3821  -8.3817
    -8.1080  -8.0936  -8.0222  -8.0090  -7.7955  -7.7776  -7.7314  -7.7138
     1.6596   1.6625   1.6762   1.6775   2.3212   2.3278   2.4811   2.4864
     2.9639   2.9666   3.1614   3.1685   3.2294   3.2464   3.2824   3.3000
     3.3575   3.3666   3.4923   3.5135   3.5799   3.6087   3.7455   3.7529
     3.8290   3.8304   3.9539   4.0228   4.4427   4.4848   4.6266   4.6541
     4.7014   4.7615   4.8290   4.8835   5.0015   5.0452   5.0640   5.0920
     5.1817   5.2312   5.4028   5.4763   5.8369   5.8552   6.1834   6.1933
     6.6659   6.6835   6.7138   6.7348   6.8688   6.8924   7.0376   7.0818
     7.1366   7.1608   7.1957   7.2256   7.2432   7.2481   7.4801   7.5061
     7.5180   7.5312   7.5430   7.5556   7.5774   7.5897   7.8452   7.8484
    10.6409  10.6608  11.4394  11.4671  11.4960  11.5011  11.8094  11.8135
    11.8344  11.8692  12.0083  12.0751  12.5337  12.6273  12.8003  12.8298
    12.9343  12.9589  13.1252  13.1925  13.3912  13.4156  13.4669  13.5290
    15.7112  15.7439  15.9414  15.9590  16.3141  16.3395  16.7172  16.7569
    16.9160  16.9203  17.4319  17.4767  17.8632

          k = 0.1667-0.4786-0.5000 ( 62148 PWs)   bands (ev):

   -66.0195 -66.0195 -66.0195 -66.0195 -66.0187 -66.0187 -66.0187 -66.0187
   -30.4204 -30.4204 -30.4191 -30.4191 -30.4149 -30.4149 -30.4142 -30.4142
   -30.3558 -30.3558 -30.3514 -30.3514 -30.3169 -30.3169 -30.3133 -30.3133
   -30.3113 -30.3113 -30.3074 -30.3074 -30.2738 -30.2738 -30.2673 -30.2673
   -20.1708 -20.1708 -20.1706 -20.1706 -20.1705 -20.1705 -20.1703 -20.1703
   -20.1647 -20.1647 -20.1646 -20.1646 -20.1644 -20.1644 -20.1643 -20.1643
   -20.1579 -20.1579 -20.1578 -20.1578 -20.1568 -20.1568 -20.1567 -20.1567
   -20.1561 -20.1561 -20.1560 -20.1560 -20.1550 -20.1550 -20.1549 -20.1549
   -20.1451 -20.1451 -20.1448 -20.1448 -20.1444 -20.1444 -20.1441 -20.1441
   -20.1208 -20.1208 -20.1192 -20.1192 -20.1183 -20.1183 -20.1177 -20.1177
   -20.1169 -20.1169 -20.1159 -20.1159 -20.1152 -20.1152 -20.1137 -20.1137
    -9.3323  -9.3323  -9.3247  -9.3247  -8.6828  -8.6828  -8.6651  -8.6651
    -8.5500  -8.5500  -8.5341  -8.5341  -8.3647  -8.3647  -8.3345  -8.3345
    -8.2994  -8.2994  -8.2720  -8.2720  -7.7636  -7.7636  -7.7456  -7.7456
     1.6759   1.6759   1.6799   1.6799   3.0323   3.0323   3.0980   3.0980
     3.1587   3.1587   3.2109   3.2109   3.2560   3.2560   3.3084   3.3084
     3.3439   3.3439   3.4725   3.4725   3.5488   3.5488   3.5844   3.5844
     3.6464   3.6464   3.8298   3.8298   4.2834   4.2834   4.3613   4.3613
     4.3990   4.3990   4.4704   4.4704   4.9156   4.9156   5.0717   5.0717
     5.1961   5.1961   5.3455   5.3456   5.9229   5.9229   5.9399   5.9399
     6.7649   6.7649   6.8139   6.8139   6.8923   6.8923   6.9332   6.9332
     7.3003   7.3003   7.3152   7.3152   7.4056   7.4056   7.4727   7.4727
     7.5087   7.5087   7.5647   7.5647   7.6540   7.6540   7.6825   7.6825
    11.2962  11.2962  11.3727  11.3728  11.4896  11.4896  11.5598  11.5598
    12.2684  12.2684  12.2963  12.2963  12.3989  12.3989  12.4166  12.4166
    12.8401  12.8401  12.9159  12.9159  13.3975  13.3975  13.4538  13.4538
    15.8390  15.8390  15.8666  15.8666  16.9204  16.9205  16.9672  16.9672
    17.3977  17.3977  17.4834  17.4835  17.5535

          k = 0.3333 0.0000 0.3333 ( 62180 PWs)   bands (ev):

   -66.0198 -66.0193 -66.0193 -66.0193 -66.0189 -66.0189 -66.0188 -66.0184
   -30.4505 -30.4480 -30.4479 -30.4455 -30.3913 -30.3875 -30.3872 -30.3831
   -30.3430 -30.3424 -30.3392 -30.3383 -30.3345 -30.3307 -30.3305 -30.3267
   -30.2937 -30.2933 -30.2926 -30.2912 -30.2849 -30.2845 -30.2838 -30.2808
   -20.1714 -20.1712 -20.1712 -20.1710 -20.1704 -20.1702 -20.1702 -20.1701
   -20.1667 -20.1665 -20.1665 -20.1664 -20.1625 -20.1622 -20.1622 -20.1619
   -20.1584 -20.1581 -20.1580 -20.1575 -20.1573 -20.1571 -20.1567 -20.1564
   -20.1560 -20.1559 -20.1556 -20.1554 -20.1549 -20.1549 -20.1548 -20.1546
   -20.1451 -20.1449 -20.1448 -20.1448 -20.1444 -20.1443 -20.1443 -20.1440
   -20.1202 -20.1202 -20.1194 -20.1194 -20.1180 -20.1180 -20.1174 -20.1174
   -20.1168 -20.1168 -20.1165 -20.1165 -20.1150 -20.1150 -20.1143 -20.1143
    -9.5646  -9.3478  -9.3457  -9.1627  -9.1514  -8.8941  -8.8900  -8.7439
    -8.6864  -8.6841  -8.6766  -8.6560  -8.1744  -8.1260  -8.1081  -8.0936
    -8.0911  -8.0775  -7.9901  -7.9636  -7.7647  -7.7387  -7.7384  -7.7130
     1.5174   1.5478   1.5501   1.5794   2.2439   2.2490   2.3465   2.3708
     2.3807   2.4116   2.5853   2.6868   2.9382   2.9641   2.9944   3.0496
     3.2765   3.3215   3.8207   3.8785   3.9775   3.9803   4.1333   4.1530
     4.1675   4.1690   4.3277   4.3557   4.4543   4.5284   4.5819   4.6276
     4.8286   4.9276   5.0239   5.0811   5.0917   5.0981   5.2260   5.4728
     5.5004   5.5409   5.5641   5.7142   5.9455   5.9491   5.9503   6.1036
     6.5113   6.5130   6.5195   6.5432   6.5492   6.5849   6.5859   6.6477
     7.0057   7.2130   7.2220   7.2339   7.2627   7.3225   7.3682   7.3957
     7.4289   7.5004   7.7807   7.7884   7.9211   7.9663   8.0132   8.0342
    10.7975  10.8512  10.8529  10.9147  11.1030  11.2460  12.1337  12.1504
    12.1936  12.2267  12.2456  12.3082  12.5072  12.5082  12.8961  12.9292
    12.9369  12.9382  13.0543  13.0892  13.6120  13.6486  13.6943  13.7649
    14.6879  14.9269  14.9290  15.3613  15.8435  16.3713  16.4071  16.7727
    16.8017  17.2261  17.2350  17.7909  17.8364

          k = 0.3333 0.0000-0.5000 ( 62222 PWs)   bands (ev):

   -66.0196 -66.0196 -66.0191 -66.0191 -66.0191 -66.0191 -66.0186 -66.0186
   -30.4493 -30.4493 -30.4467 -30.4467 -30.3891 -30.3891 -30.3849 -30.3849
   -30.3400 -30.3400 -30.3334 -30.3334 -30.3164 -30.3164 -30.3145 -30.3145
   -30.3093 -30.3093 -30.3074 -30.3074 -30.2910 -30.2910 -30.2839 -30.2839
   -20.1713 -20.1713 -20.1711 -20.1711 -20.1703 -20.1703 -20.1701 -20.1701
   -20.1666 -20.1666 -20.1665 -20.1665 -20.1624 -20.1624 -20.1621 -20.1621
   -20.1582 -20.1582 -20.1576 -20.1576 -20.1572 -20.1572 -20.1566 -20.1566
   -20.1558 -20.1558 -20.1555 -20.1555 -20.1551 -20.1551 -20.1548 -20.1548
   -20.1449 -20.1449 -20.1446 -20.1446 -20.1445 -20.1445 -20.1442 -20.1442
   -20.1198 -20.1198 -20.1189 -20.1188 -20.1180 -20.1180 -20.1173 -20.1173
   -20.1172 -20.1172 -20.1163 -20.1163 -20.1157 -20.1157 -20.1147 -20.1147
    -9.4353  -9.4353  -9.2229  -9.2229  -8.9875  -8.9875  -8.7079  -8.7078
    -8.5438  -8.5438  -8.4732  -8.4731  -8.4194  -8.4194  -8.3908  -8.3908
    -8.0680  -8.0680  -8.0474  -8.0474  -7.7523  -7.7523  -7.7264  -7.7264
     1.5330   1.5330   1.5653   1.5653   2.3697   2.3697   2.3992   2.3992
     2.9549   2.9549   3.0857   3.0857   3.1285   3.1285   3.2937   3.2937
     3.3771   3.3771   3.6330   3.6330   3.7984   3.7984   3.8764   3.8764
     3.9311   3.9312   4.0597   4.0597   4.2488   4.2488   4.4378   4.4378
     4.7797   4.7797   4.9872   4.9872   5.0913   5.0913   5.1907   5.1907
     5.3271   5.3271   5.5958   5.5958   5.9772   5.9772   6.0720   6.0720
     6.4305   6.4305   6.4528   6.4528   6.5334   6.5334   6.6012   6.6012
     7.1830   7.1830   7.3342   7.3343   7.4055   7.4055   7.5916   7.5916
     7.6295   7.6295   7.7234   7.7234   7.7571   7.7571   8.0029   8.0029
    10.8769  10.8769  11.5126  11.5126  11.5982  11.5982  11.6880  11.6880
    11.8753  11.8753  12.2849  12.2850  12.5331  12.5331  12.7081  12.7081
    12.9421  12.9421  13.2776  13.2776  13.3071  13.3071  13.6863  13.6864
    14.8384  14.8384  15.1874  15.1875  16.3026  16.3026  16.7924  16.7924
    17.1472  17.1472  17.5068  17.5068  17.9753

          k = 0.3333 0.1595 0.3333 ( 62190 PWs)   bands (ev):

   -66.0198 -66.0194 -66.0193 -66.0193 -66.0189 -66.0189 -66.0188 -66.0184
   -30.4464 -30.4439 -30.4438 -30.4413 -30.3950 -30.3913 -30.3911 -30.3872
   -30.3429 -30.3423 -30.3391 -30.3382 -30.3344 -30.3312 -30.3308 -30.3275
   -30.2936 -30.2932 -30.2925 -30.2912 -30.2850 -30.2847 -30.2837 -30.2812
   -20.1712 -20.1711 -20.1711 -20.1709 -20.1704 -20.1702 -20.1702 -20.1701
   -20.1664 -20.1663 -20.1663 -20.1661 -20.1628 -20.1625 -20.1625 -20.1623
   -20.1583 -20.1580 -20.1579 -20.1574 -20.1572 -20.1571 -20.1567 -20.1564
   -20.1561 -20.1560 -20.1557 -20.1554 -20.1550 -20.1550 -20.1549 -20.1547
   -20.1451 -20.1449 -20.1448 -20.1448 -20.1444 -20.1443 -20.1443 -20.1440
   -20.1202 -20.1202 -20.1194 -20.1194 -20.1180 -20.1180 -20.1174 -20.1174
   -20.1168 -20.1168 -20.1166 -20.1165 -20.1150 -20.1150 -20.1143 -20.1143
    -9.5196  -9.2915  -9.2891  -9.1753  -9.0770  -8.9038  -8.8998  -8.7110
    -8.6754  -8.6666  -8.6654  -8.6536  -8.1916  -8.1243  -8.1100  -8.0981
    -8.0899  -8.0824  -7.9893  -7.9652  -7.8609  -7.8357  -7.8348  -7.8094
     1.7467   1.7752   1.7776   1.8113   2.2438   2.2496   2.3471   2.3696
     2.3893   2.4199   2.5874   2.6945   3.0113   3.0397   3.0730   3.1030
[...]
    10.9895  10.9895  11.5428  11.5428  11.6407  11.6407  11.7216  11.7216
    11.9172  11.9172  12.3171  12.3171  12.5277  12.5277  12.7167  12.7167
    12.8059  12.8059  13.1546  13.1546  13.1847  13.1847  13.5857  13.5857
    15.1831  15.1831  15.5600  15.5600  16.3848  16.3848  16.7926  16.7926
    17.1525  17.1525  17.5189  17.5190  17.8293

          k = 0.3333 0.3190 0.3333 ( 62205 PWs)   bands (ev):

   -66.0197 -66.0195 -66.0192 -66.0192 -66.0190 -66.0190 -66.0187 -66.0185
   -30.4352 -30.4325 -30.4324 -30.4298 -30.4053 -30.4021 -30.4019 -30.3986
   -30.3427 -30.3423 -30.3387 -30.3382 -30.3340 -30.3322 -30.3311 -30.3292
   -30.2933 -30.2931 -30.2921 -30.2914 -30.2853 -30.2851 -30.2835 -30.2820
   -20.1710 -20.1709 -20.1708 -20.1707 -20.1705 -20.1703 -20.1703 -20.1702
   -20.1657 -20.1656 -20.1656 -20.1654 -20.1636 -20.1634 -20.1633 -20.1631
   -20.1581 -20.1578 -20.1577 -20.1574 -20.1572 -20.1571 -20.1566 -20.1564
   -20.1563 -20.1561 -20.1558 -20.1555 -20.1552 -20.1551 -20.1550 -20.1548
   -20.1451 -20.1449 -20.1448 -20.1448 -20.1444 -20.1444 -20.1442 -20.1441
   -20.1202 -20.1202 -20.1194 -20.1194 -20.1180 -20.1180 -20.1174 -20.1174
   -20.1168 -20.1168 -20.1165 -20.1165 -20.1150 -20.1150 -20.1143 -20.1143
    -9.4098  -9.2170  -9.1522  -9.1495  -8.9389  -8.9340  -8.8673  -8.6725
    -8.6617  -8.5990  -8.5856  -8.5817  -8.2948  -8.1694  -8.1641  -8.1221
    -8.1068  -8.0843  -8.0762  -8.0289  -8.0273  -7.9964  -7.9773  -7.9696
     2.2255   2.2311   2.2585   2.2813   2.3066   2.3267   2.3665   2.4415
     2.5377   2.5734   2.6025   2.7882   3.1930   3.2382   3.2622   3.3042
     3.3140   3.3568   3.7459   3.7644   3.8192   3.8717   4.0545   4.1251
     4.1294   4.1867   4.2048   4.3157   4.3354   4.3990   4.4608   4.5318
     4.5343   4.6054   4.6326   4.6701   4.7626   4.8887   4.8909   4.9230
     4.9602   4.9685   5.1916   5.3104   5.3501   5.3641   5.5590   5.5659
     6.8269   6.8454   6.8706   6.9269   6.9863   7.0444   7.0561   7.0751
     7.1274   7.2063   7.2172   7.2631   7.2852   7.3035   7.3760   7.3890
     7.4530   7.4929   7.7219   7.7408   7.7942   7.8045   7.8079   7.8634
    10.9963  11.0457  11.3014  11.3057  11.3778  11.5004  12.1174  12.1408
    12.1638  12.2064  12.2158  12.2967  12.4349  12.4398  12.6569  12.6750
    12.7086  12.7593  12.8696  13.0843  13.2404  13.2884  13.3114  13.4437
    15.8412  16.0278  16.0324  16.2594  16.3946  16.3988  16.7058  16.8985
    16.9209  17.0202  17.2263  17.2373  17.7717

          k = 0.3333 0.3190-0.5000 ( 62160 PWs)   bands (ev):

   -66.0195 -66.0195 -66.0192 -66.0192 -66.0190 -66.0190 -66.0187 -66.0187
   -30.4338 -30.4338 -30.4311 -30.4311 -30.4035 -30.4035 -30.4002 -30.4002
   -30.3396 -30.3396 -30.3343 -30.3343 -30.3160 -30.3160 -30.3142 -30.3142
   -30.3103 -30.3103 -30.3081 -30.3081 -30.2907 -30.2907 -30.2845 -30.2845
   -20.1709 -20.1709 -20.1708 -20.1707 -20.1704 -20.1704 -20.1703 -20.1703
   -20.1656 -20.1656 -20.1655 -20.1655 -20.1635 -20.1635 -20.1633 -20.1633
   -20.1579 -20.1579 -20.1574 -20.1574 -20.1571 -20.1571 -20.1566 -20.1566
   -20.1560 -20.1560 -20.1558 -20.1558 -20.1552 -20.1552 -20.1550 -20.1550
   -20.1449 -20.1449 -20.1447 -20.1447 -20.1445 -20.1445 -20.1442 -20.1442
   -20.1198 -20.1198 -20.1189 -20.1188 -20.1180 -20.1180 -20.1173 -20.1173
   -20.1172 -20.1172 -20.1163 -20.1163 -20.1157 -20.1157 -20.1147 -20.1147
    -9.2541  -9.2541  -9.0394  -9.0394  -8.9644  -8.9644  -8.6164  -8.6164
    -8.5829  -8.5829  -8.4649  -8.4649  -8.4096  -8.4096  -8.3738  -8.3738
    -8.1198  -8.1198  -8.0959  -8.0959  -8.0483  -8.0483  -8.0073  -8.0073
     2.2722   2.2722   2.3420   2.3420   2.4314   2.4314   2.5459   2.5459
     3.1148   3.1148   3.1647   3.1647   3.2411   3.2411   3.3297   3.3297
     3.4054   3.4054   3.6907   3.6907   3.7719   3.7719   3.8743   3.8743
     4.0287   4.0287   4.1278   4.1278   4.1738   4.1738   4.3069   4.3069
     4.3842   4.3842   4.5343   4.5343   4.6516   4.6516   4.8846   4.8846
     5.0022   5.0022   5.0445   5.0445   5.1156   5.1156   5.3516   5.3516
     6.8819   6.8819   6.9465   6.9465   7.0164   7.0164   7.0758   7.0758
     7.2200   7.2200   7.3151   7.3151   7.4161   7.4161   7.5520   7.5520
     7.5924   7.5924   7.6552   7.6552   7.6876   7.6876   7.8188   7.8188
    11.2964  11.2964  11.5944  11.5944  11.6780  11.6780  11.9000  11.9000
    12.0756  12.0756  12.3665  12.3665  12.4476  12.4476  12.5003  12.5003
    12.7547  12.7547  12.8598  12.8598  12.9161  12.9161  13.3225  13.3225
    15.9914  15.9914  16.4687  16.4687  16.6446  16.6446  16.7743  16.7743
    17.1856  17.1856  17.4198  17.4198  17.6768

          k = 0.3333-0.4786 0.3333 ( 62210 PWs)   bands (ev):

   -66.0196 -66.0196 -66.0191 -66.0191 -66.0191 -66.0191 -66.0186 -66.0186
   -30.4201 -30.4201 -30.4176 -30.4176 -30.4166 -30.4166 -30.4142 -30.4141
   -30.3424 -30.3424 -30.3384 -30.3384 -30.3332 -30.3332 -30.3307 -30.3307
   -30.2931 -30.2931 -30.2917 -30.2917 -30.2854 -30.2854 -30.2829 -30.2829
   -20.1707 -20.1707 -20.1707 -20.1707 -20.1704 -20.1704 -20.1704 -20.1704
   -20.1647 -20.1647 -20.1645 -20.1645 -20.1644 -20.1644 -20.1643 -20.1643
   -20.1578 -20.1578 -20.1575 -20.1575 -20.1572 -20.1572 -20.1565 -20.1565
   -20.1563 -20.1563 -20.1557 -20.1557 -20.1552 -20.1552 -20.1550 -20.1550
   -20.1450 -20.1450 -20.1448 -20.1448 -20.1444 -20.1444 -20.1441 -20.1441
   -20.1202 -20.1202 -20.1194 -20.1194 -20.1180 -20.1180 -20.1174 -20.1174
   -20.1168 -20.1168 -20.1165 -20.1165 -20.1150 -20.1150 -20.1143 -20.1143
    -9.2952  -9.2952  -9.0183  -9.0183  -9.0095  -9.0095  -8.6707  -8.6707
    -8.5659  -8.5658  -8.4089  -8.4088  -8.4010  -8.4010  -8.3815  -8.3815
    -8.0933  -8.0933  -8.0731  -8.0731  -8.0654  -8.0654  -7.9753  -7.9753
     2.2415   2.2415   2.3262   2.3262   2.3572   2.3572   2.5570   2.5570
     3.1597   3.1597   3.2025   3.2025   3.2538   3.2538   3.3378   3.3378
     3.3791   3.3791   3.6191   3.6191   3.7089   3.7089   3.7438   3.7438
     3.8511   3.8511   4.1231   4.1231   4.2446   4.2447   4.4507   4.4507
     4.5502   4.5502   4.6445   4.6445   4.7324   4.7324   4.8181   4.8181
     4.9139   4.9139   5.0334   5.0334   5.0509   5.0509   5.5527   5.5527
     6.9376   6.9376   7.0750   7.0751   7.1093   7.1093   7.1706   7.1706
     7.2448   7.2448   7.2749   7.2749   7.3347   7.3347   7.4824   7.4824
     7.5130   7.5130   7.5706   7.5706   7.6089   7.6089   7.8060   7.8060
    11.0446  11.0446  11.7164  11.7164  11.8015  11.8015  11.8364  11.8364
    11.9213  11.9213  12.1920  12.1920  12.2974  12.2974  12.7178  12.7178
    12.8941  12.8941  12.9528  12.9528  13.0001  13.0001  13.2371  13.2371
    16.3610  16.3610  16.4738  16.4738  16.6652  16.6652  16.7372  16.7372
    17.0396  17.0396  17.5223  17.5223  17.5992

          k = 0.3333-0.4786-0.5000 ( 62164 PWs)   bands (ev):

   -66.0193 -66.0193 -66.0193 -66.0193 -66.0189 -66.0189 -66.0189 -66.0188
   -30.4189 -30.4189 -30.4182 -30.4182 -30.4158 -30.4158 -30.4153 -30.4153
   -30.3394 -30.3394 -30.3346 -30.3346 -30.3159 -30.3159 -30.3141 -30.3140
   -30.3107 -30.3107 -30.3083 -30.3083 -30.2907 -30.2906 -30.2847 -30.2847
   -20.1707 -20.1707 -20.1706 -20.1706 -20.1705 -20.1705 -20.1704 -20.1704
   -20.1646 -20.1646 -20.1646 -20.1646 -20.1644 -20.1644 -20.1644 -20.1644
   -20.1576 -20.1576 -20.1575 -20.1575 -20.1569 -20.1569 -20.1568 -20.1568
   -20.1560 -20.1560 -20.1559 -20.1559 -20.1552 -20.1552 -20.1552 -20.1552
   -20.1449 -20.1449 -20.1447 -20.1447 -20.1444 -20.1444 -20.1443 -20.1443
   -20.1198 -20.1198 -20.1189 -20.1188 -20.1180 -20.1180 -20.1173 -20.1173
   -20.1172 -20.1172 -20.1163 -20.1163 -20.1157 -20.1157 -20.1147 -20.1147
    -9.1263  -9.1263  -9.1179  -9.1179  -8.7437  -8.7437  -8.7273  -8.7273
    -8.4911  -8.4911  -8.4769  -8.4769  -8.3567  -8.3567  -8.3336  -8.3336
    -8.3000  -8.3000  -8.2794  -8.2794  -8.0512  -8.0512  -8.0373  -8.0373
     2.3504   2.3504   2.3577   2.3577   3.0459   3.0459   3.0830   3.0830
     3.1602   3.1602   3.2061   3.2061   3.2985   3.2985   3.3229   3.3229
     3.4400   3.4400   3.5075   3.5075   3.6878   3.6878   3.7198   3.7198
     3.8468   3.8468   3.9574   3.9574   4.2702   4.2703   4.3040   4.3040
     4.3708   4.3708   4.4181   4.4181   4.5071   4.5071   4.5977   4.5977
     4.7002   4.7002   4.8484   4.8484   5.1222   5.1222   5.1417   5.1417
     7.0237   7.0237   7.0996   7.0996   7.2057   7.2058   7.2284   7.2284
     7.3096   7.3096   7.3425   7.3425   7.4322   7.4322   7.4591   7.4591
     7.5332   7.5332   7.5991   7.5991   7.6658   7.6658   7.6994   7.6995
    11.5467  11.5467  11.6044  11.6044  11.8135  11.8135  11.9033  11.9033
    12.2486  12.2486  12.2998  12.2998  12.3605  12.3605  12.4264  12.4264
    12.5662  12.5662  12.6836  12.6836  12.9877  12.9877  13.0722  13.0722
    16.5525  16.5525  16.6000  16.6000  17.0849  17.0849  17.1245  17.1245
    17.3728  17.3728  17.4883  17.4886  17.5563

          k =-0.5000 0.0000-0.5000 ( 62284 PWs)   bands (ev):

   -66.0193 -66.0193 -66.0193 -66.0193 -66.0189 -66.0189 -66.0189 -66.0189
   -30.4481 -30.4481 -30.4480 -30.4480 -30.3869 -30.3869 -30.3866 -30.3866
   -30.3194 -30.3194 -30.3190 -30.3190 -30.3176 -30.3176 -30.3161 -30.3160
   -30.3094 -30.3094 -30.3071 -30.3071 -30.3051 -30.3051 -30.3030 -30.3030
   -20.1712 -20.1712 -20.1712 -20.1712 -20.1702 -20.1702 -20.1702 -20.1702
   -20.1666 -20.1665 -20.1665 -20.1665 -20.1623 -20.1623 -20.1622 -20.1622
   -20.1580 -20.1580 -20.1576 -20.1576 -20.1572 -20.1572 -20.1568 -20.1568
   -20.1556 -20.1556 -20.1554 -20.1554 -20.1551 -20.1551 -20.1551 -20.1551
   -20.1447 -20.1447 -20.1446 -20.1446 -20.1445 -20.1445 -20.1444 -20.1444
   -20.1185 -20.1185 -20.1185 -20.1185 -20.1184 -20.1184 -20.1184 -20.1184
   -20.1161 -20.1161 -20.1161 -20.1161 -20.1160 -20.1160 -20.1160 -20.1160
    -9.3058  -9.3058  -9.3031  -9.3031  -8.7043  -8.7043  -8.6951  -8.6950
    -8.5309  -8.5309  -8.5203  -8.5203  -8.3488  -8.3488  -8.3368  -8.3368
    -8.3225  -8.3224  -8.3109  -8.3109  -7.7401  -7.7401  -7.7400  -7.7400
     1.5485   1.5485   1.5512   1.5512   2.9948   2.9948   3.0346   3.0346
     3.1223   3.1223   3.1378   3.1378   3.2184   3.2184   3.2557   3.2557
     3.3917   3.3917   3.4526   3.4526   3.7776   3.7776   3.8264   3.8264
     3.8451   3.8451   3.8682   3.8682   4.2699   4.2700   4.2882   4.2882
     4.3576   4.3576   4.3689   4.3689   4.9909   4.9909   5.0206   5.0206
     5.4198   5.4198   5.4575   5.4575   6.0628   6.0628   6.0700   6.0700
     6.4209   6.4209   6.4268   6.4268   6.4724   6.4724   6.4778   6.4778
     7.4912   7.4912   7.5013   7.5014   7.5255   7.5255   7.5798   7.5798
     7.6484   7.6484   7.6516   7.6516   7.8143   7.8144   7.8612   7.8612
    11.5540  11.5540  11.5775  11.5775  11.6510  11.6510  11.6551  11.6551
    12.0931  12.0931  12.1045  12.1045  12.2342  12.2342  12.2439  12.2439
    13.1988  13.1988  13.2084  13.2084  13.3502  13.3502  13.3671  13.3671
    15.0475  15.0475  15.0523  15.0523  16.7475  16.7475  16.7870  16.7870
    17.7774  17.7774  17.7921  17.7921  17.9113

          k =-0.5000 0.1595-0.5000 ( 62224 PWs)   bands (ev):

   -66.0193 -66.0193 -66.0193 -66.0193 -66.0189 -66.0189 -66.0189 -66.0189
   -30.4439 -30.4439 -30.4438 -30.4438 -30.3908 -30.3908 -30.3906 -30.3906
   -30.3193 -30.3193 -30.3190 -30.3190 -30.3175 -30.3175 -30.3161 -30.3161
   -30.3094 -30.3093 -30.3069 -30.3069 -30.3056 -30.3056 -30.3035 -30.3035
   -20.1711 -20.1711 -20.1711 -20.1711 -20.1703 -20.1703 -20.1702 -20.1702
   -20.1663 -20.1663 -20.1663 -20.1663 -20.1626 -20.1626 -20.1625 -20.1625
   -20.1579 -20.1579 -20.1576 -20.1576 -20.1572 -20.1572 -20.1567 -20.1567
   -20.1557 -20.1557 -20.1554 -20.1554 -20.1552 -20.1552 -20.1551 -20.1551
   -20.1447 -20.1447 -20.1446 -20.1446 -20.1445 -20.1445 -20.1444 -20.1444
   -20.1185 -20.1185 -20.1185 -20.1185 -20.1184 -20.1184 -20.1184 -20.1184
   -20.1161 -20.1161 -20.1161 -20.1161 -20.1160 -20.1160 -20.1160 -20.1160
    -9.2420  -9.2420  -9.2391  -9.2391  -8.7177  -8.7177  -8.7086  -8.7086
    -8.5169  -8.5169  -8.5066  -8.5065  -8.3476  -8.3476  -8.3360  -8.3359
    -8.3235  -8.3235  -8.3118  -8.3117  -7.8387  -7.8387  -7.8385  -7.8385
     1.7831   1.7831   1.7858   1.7858   3.0106   3.0106   3.0526   3.0526
     3.1345   3.1345   3.1635   3.1636   3.2223   3.2223   3.2801   3.2801
     3.3855   3.3855   3.4466   3.4466   3.8208   3.8208   3.8718   3.8718
     3.8812   3.8812   3.9148   3.9148   4.2601   4.2601   4.2709   4.2709
     4.3574   4.3574   4.3687   4.3687   4.7674   4.7674   4.7944   4.7944
     5.1717   5.1717   5.2018   5.2018   5.7780   5.7780   5.7869   5.7869
     6.6123   6.6123   6.6295   6.6295   6.6698   6.6698   6.6725   6.6725
     7.4839   7.4839   7.4978   7.4978   7.5174   7.5174   7.5733   7.5733
     7.6351   7.6351   7.6452   7.6452   7.7969   7.7969   7.8308   7.8308
    11.6251  11.6251  11.6445  11.6445  11.7140  11.7140  11.7143  11.7143
    12.0958  12.0958  12.1063  12.1063  12.2506  12.2506  12.2574  12.2574
    13.0689  13.0689  13.0766  13.0766  13.2302  13.2302  13.2425  13.2425
    15.4200  15.4200  15.4247  15.4247  16.8119  16.8119  16.8463  16.8463
    17.7004  17.7004  17.7362  17.7362  17.9175

          k =-0.5000 0.3190-0.5000 ( 62136 PWs)   bands (ev):

   -66.0192 -66.0192 -66.0192 -66.0192 -66.0190 -66.0190 -66.0190 -66.0190
   -30.4325 -30.4325 -30.4324 -30.4324 -30.4018 -30.4018 -30.4016 -30.4016
   -30.3191 -30.3191 -30.3189 -30.3189 -30.3171 -30.3171 -30.3162 -30.3162
   -30.3090 -30.3090 -30.3068 -30.3068 -30.3066 -30.3066 -30.3046 -30.3046
   -20.1708 -20.1708 -20.1708 -20.1708 -20.1704 -20.1704 -20.1704 -20.1704
   -20.1656 -20.1656 -20.1656 -20.1656 -20.1634 -20.1634 -20.1634 -20.1634
   -20.1576 -20.1576 -20.1573 -20.1573 -20.1572 -20.1572 -20.1567 -20.1567
   -20.1559 -20.1559 -20.1556 -20.1556 -20.1554 -20.1554 -20.1553 -20.1553
   -20.1447 -20.1447 -20.1446 -20.1446 -20.1445 -20.1445 -20.1444 -20.1444
   -20.1185 -20.1185 -20.1185 -20.1185 -20.1184 -20.1184 -20.1184 -20.1184
   -20.1161 -20.1161 -20.1161 -20.1161 -20.1160 -20.1160 -20.1160 -20.1160
    -9.0749  -9.0749  -9.0706  -9.0706  -8.7671  -8.7671  -8.7590  -8.7590
    -8.4651  -8.4651  -8.4553  -8.4553  -8.3450  -8.3450  -8.3344  -8.3344
    -8.3255  -8.3255  -8.3134  -8.3133  -8.0752  -8.0752  -8.0746  -8.0746
     2.4079   2.4079   2.4092   2.4092   3.0429   3.0429   3.0907   3.0907
     3.1487   3.1487   3.1821   3.1821   3.2681   3.2681   3.3570   3.3570
     3.3653   3.3653   3.4203   3.4203   3.9410   3.9410   3.9514   3.9514
     4.0138   4.0138   4.0528   4.0528   4.1234   4.1234   4.1648   4.1648
     4.3519   4.3519   4.3745   4.3745   4.4119   4.4120   4.4607   4.4607
     4.7485   4.7485   4.7722   4.7723   5.0682   5.0682   5.0796   5.0796
     6.9397   6.9397   6.9633   6.9633   7.0521   7.0521   7.0620   7.0620
     7.4377   7.4377   7.4595   7.4595   7.4865   7.4865   7.5355   7.5355
     7.6141   7.6141   7.6323   7.6323   7.7272   7.7272   7.7492   7.7492
    11.8127  11.8127  11.8140  11.8140  11.8601  11.8601  11.8834  11.8834
    12.1169  12.1169  12.1277  12.1277  12.3189  12.3189  12.3254  12.3254
    12.7369  12.7369  12.7494  12.7494  12.9170  12.9170  12.9289  12.9289
    16.3392  16.3392  16.3505  16.3505  16.9926  16.9926  17.0063  17.0063
    17.4909  17.4909  17.5688  17.5688  17.9303

          k =-0.5000-0.4786-0.5000 ( 62192 PWs)   bands (ev):

   -66.0191 -66.0191 -66.0191 -66.0191 -66.0191 -66.0191 -66.0191 -66.0191
   -30.4175 -30.4175 -30.4169 -30.4169 -30.4169 -30.4169 -30.4167 -30.4167
   -30.3190 -30.3190 -30.3190 -30.3190 -30.3166 -30.3166 -30.3165 -30.3165
   -30.3084 -30.3084 -30.3077 -30.3077 -30.3058 -30.3058 -30.3058 -30.3058
   -20.1706 -20.1706 -20.1706 -20.1706 -20.1706 -20.1706 -20.1705 -20.1705
   -20.1646 -20.1646 -20.1645 -20.1645 -20.1645 -20.1645 -20.1644 -20.1644
   -20.1574 -20.1574 -20.1574 -20.1574 -20.1570 -20.1570 -20.1569 -20.1569
   -20.1559 -20.1559 -20.1559 -20.1559 -20.1554 -20.1554 -20.1554 -20.1554
   -20.1446 -20.1446 -20.1446 -20.1446 -20.1445 -20.1445 -20.1445 -20.1445
   -20.1185 -20.1185 -20.1185 -20.1185 -20.1184 -20.1184 -20.1184 -20.1184
   -20.1161 -20.1161 -20.1161 -20.1161 -20.1160 -20.1160 -20.1160 -20.1160
    -8.8969  -8.8969  -8.8788  -8.8787  -8.8787  -8.8787  -8.8732  -8.8732
    -8.3721  -8.3721  -8.3561  -8.3560  -8.3560  -8.3560  -8.3399  -8.3399
    -8.3069  -8.3069  -8.2967  -8.2967  -8.2967  -8.2967  -8.2728  -8.2727
     3.0181   3.0181   3.0181   3.0181   3.0542   3.0542   3.0814   3.0815
     3.2217   3.2217   3.2230   3.2231   3.2792   3.2792   3.2792   3.2792
     3.3889   3.3889   3.5118   3.5118   3.5118   3.5118   3.5840   3.5840
     4.1841   4.1841   4.2126   4.2126   4.2126   4.2126   4.2520   4.2520
     4.3807   4.3807   4.3966   4.3966   4.4043   4.4043   4.4043   4.4043
     4.4896   4.4896   4.5069   4.5069   4.5069   4.5069   4.5462   4.5462
     7.1279   7.1279   7.2216   7.2216   7.2216   7.2216   7.3327   7.3327
     7.3934   7.3934   7.3934   7.3934   7.4085   7.4085   7.4098   7.4098
     7.6332   7.6332   7.6390   7.6390   7.6390   7.6390   7.6921   7.6921
    11.9380  11.9380  11.9449  11.9449  11.9507  11.9507  11.9507  11.9507
    12.2433  12.2433  12.3191  12.3191  12.3192  12.3192  12.3897  12.3897
    12.5389  12.5389  12.5802  12.5802  12.5802  12.5802  12.6171  12.6171
    17.1197  17.1197  17.2107  17.2107  17.2107  17.2107  17.2330  17.2331
    17.4730  17.4730  17.4730  17.4731  17.5578

     the Fermi energy is     9.9842 ev

!    total energy              =   -6260.68366722 Ry
     Harris-Foulkes estimate   =   -6260.68366723 Ry
     estimated scf accuracy    <          1.3E-09 Ry

     The total energy is the sum of the following terms:

     one-electron contribution =   -4715.54319733 Ry
     hartree contribution      =    2596.50576523 Ry
     xc contribution           =    -966.33201724 Ry
     ewald contribution        =   -3175.31419997 Ry
     smearing contrib. (-TS)   =      -0.00001792 Ry

     convergence has been achieved in  13 iterations

     Writing output data file Landau_8.save
 
     init_run     :     12.36s CPU     13.33s WALL (       1 calls)
     electrons    :    560.88s CPU    576.26s WALL (       1 calls)

     Called by init_run:
     wfcinit      :     11.08s CPU     11.91s WALL (       1 calls)
     potinit      :      0.49s CPU      0.52s WALL (       1 calls)

     Called by electrons:
     c_bands      :    488.20s CPU    502.63s WALL (      13 calls)
     sum_band     :     66.65s CPU     67.03s WALL (      13 calls)
     v_of_rho     :      1.12s CPU      1.14s WALL (      14 calls)
     mix_rho      :      2.05s CPU      2.38s WALL (      13 calls)

     Called by c_bands:
     init_us_2    :      3.90s CPU      4.33s WALL (      27 calls)
     cegterg      :    355.28s CPU    369.27s WALL (      13 calls)

     Called by sum_band:

     Called by *egterg:
     h_psi        :    287.73s CPU    289.56s WALL (      59 calls)
     g_psi        :      0.62s CPU      0.63s WALL (      45 calls)
     cdiaghg      :      5.37s CPU      5.42s WALL (      58 calls)

     Called by h_psi:
     h_psi:pot    :    285.89s CPU    287.61s WALL (      59 calls)
     h_psi:calbec :     27.32s CPU     28.16s WALL (      59 calls)
     vloc_psi     :    228.63s CPU    229.37s WALL (      59 calls)
     add_vuspsi   :     29.94s CPU     30.07s WALL (      59 calls)

     General routines
     calbec       :     27.32s CPU     28.16s WALL (      59 calls)
     fft          :      0.77s CPU      0.79s WALL (      56 calls)
     fftw         :    235.89s CPU    236.54s WALL (   16999 calls)
 
     Parallel routines
 
     PWSCF        :  9m37.64s CPU     9m58.48s WALL

 
   This run was terminated on:  21:26:28  26Mar2020            

=------------------------------------------------------------------------------=
   JOB DONE.
=------------------------------------------------------------------------------=
