
     Program PWSCF v.6.2 (svn rev. 14038) starts on 23Mar2020 at  1: 0:30 

     This program is part of the open-source Quantum ESPRESSO suite
     for quantum simulation of materials; please cite
         "P. Giannozzi et al., J. Phys.:Condens. Matter 21 395502 (2009);
         "P. Giannozzi et al., J. Phys.:Condens. Matter 29 465901 (2017);
          URL http://www.quantum-espresso.org", 
     in publications or presentations arising from this work. More details at
     http://www.quantum-espresso.org/quote

     Parallel version (MPI), running on    40 processors

     MPI processes distributed on     4 nodes
     K-points division:     npool     =      40
     Reading input from rscf.in

     Current dimensions of program PWSCF are:
     Max number of different atomic species (ntypx) = 10
     Max number of k-points (npk) =  40000
     Max angular momentum in pseudopotentials (lmaxx) =  3

     Subspace diagonalization in iterative solution of the eigenvalue problem:
     a serial algorithm will be used

 
     G-vector sticks info
     --------------------
     sticks:   dense  smooth     PW     G-vecs:    dense   smooth      PW
     Sum        7747    7747   2077               498127   498127   69057
 


     bravais-lattice index     =            0
     lattice parameter (alat)  =      13.8397  a.u.
     unit-cell volume          =    2804.9816 (a.u.)^3
     number of atoms/cell      =           32
     number of atomic types    =            2
     number of electrons       =       368.00
     number of Kohn-Sham states=          221
     kinetic-energy cutoff     =     120.0000  Ry
     charge density cutoff     =     480.0000  Ry
     convergence threshold     =      1.0E-08
     mixing beta               =       0.7000
     number of iterations used =            8  plain     mixing
     Exchange-correlation      = SLA PW NOGX NOGC ( 1  4  0  0 0 0)
     nstep                     =           50


     celldm(1)=  13.839685  celldm(2)=   0.000000  celldm(3)=   0.000000
     celldm(4)=   0.000000  celldm(5)=   0.000000  celldm(6)=   0.000000

     crystal axes: (cart. coord. in units of alat)
               a(1) = (   1.000000   0.000000   0.000000 )  
               a(2) = (   0.000000   1.058160   0.000000 )  
               a(3) = (   0.000000   0.000000   1.000000 )  

     reciprocal axes: (cart. coord. in units 2 pi/alat)
               b(1) = (  1.000000  0.000000  0.000000 )  
               b(2) = (  0.000000  0.945037  0.000000 )  
               b(3) = (  0.000000  0.000000  1.000000 )  


     PseudoPot. # 1 for W  read from file:
     /cluster/scratch/mnoe/QE/pps/W_ONCV_LDA-4.0.upf
     MD5 check sum: ba0307d5d4cd419d6f1d13dc49d7c13a
     Pseudo is Norm-conserving + core correction, Zval = 28.0
     Generated using ONCVPSP code by D. R. Hamann
     Using radial grid of 1380 points,  8 beta functions with: 
                l(1) =   0
                l(2) =   0
                l(3) =   1
                l(4) =   1
                l(5) =   2
                l(6) =   2
                l(7) =   3
                l(8) =   3

     PseudoPot. # 2 for O  read from file:
     /cluster/scratch/mnoe/QE/pps/O_ONCV_LDA-3.0.upf
     MD5 check sum: a1bd6164e7280c17a38c229939bfbd54
     Pseudo is Norm-conserving + core correction, Zval =  6.0
     Generated using ONCVPSP code by D. R. Hamann
     Using radial grid of  926 points,  5 beta functions with: 
                l(1) =   0
                l(2) =   0
                l(3) =   1
                l(4) =   1
                l(5) =   2

     atomic species   valence    mass     pseudopotential
        W             28.00   183.84000     W ( 1.00)
        O              6.00    15.99940     O ( 1.00)

      4 Sym. Ops. (no inversion) found ( 3 have fractional translation)



   Cartesian axes

     site n.     atom                  positions (alat units)
         1           W   tau(   1) = (   0.2213732   0.2923280   0.0048931  )
         2           W   tau(   2) = (   0.7565232   0.7658321  -0.0282999  )
         3           W   tau(   3) = (   0.2786268   0.2367520   0.5048931  )
         4           W   tau(   4) = (   0.7434768   0.8214081   0.4717001  )
         5           W   tau(   5) = (   0.7786268   0.2923280   0.4951069  )
         6           W   tau(   6) = (   0.2434768   0.7658321   0.5282999  )
         7           W   tau(   7) = (   0.7213732   0.2367520  -0.0048931  )
         8           W   tau(   8) = (   0.2565232   0.8214081   0.0282999  )
         9           O   tau(   9) = (   0.2141414   0.0071898  -0.0164327  )
        10           O   tau(  10) = (   0.7789883  -0.0071898  -0.0267497  )
        11           O   tau(  11) = (   0.2858586   0.5218903   0.4835673  )
        12           O   tau(  12) = (   0.7210116   0.5362698   0.4732503  )
        13           O   tau(  13) = (   0.7858585   0.0071898   0.5164327  )
        14           O   tau(  14) = (   0.2210116  -0.0071898   0.5267497  )
        15           O   tau(  15) = (   0.7141414   0.5218903   0.0164327  )
        16           O   tau(  16) = (   0.2789884   0.5362698   0.0267497  )
        17           O   tau(  17) = (   0.5096592   0.2242319   0.4632315  )
        18           O   tau(  18) = (   0.5000452   0.8236997   0.5367686  )
        19           O   tau(  19) = (  -0.0096592   0.3048482   0.9632315  )
        20           O   tau(  20) = (  -0.0000452   0.7635406   0.0367685  )
        21           O   tau(  21) = (   0.4903408   0.2242319   0.0367685  )
        22           O   tau(  22) = (   0.4999548   0.8236997   0.9632315  )
        23           O   tau(  23) = (   0.0096591   0.3048482   0.5367686  )
        24           O   tau(  24) = (   0.0000451   0.7635406   0.4632315  )
        25           O   tau(  25) = (   0.7132315   0.2802959   0.7459145  )
        26           O   tau(  26) = (   0.2867685   0.8247363   0.2604875  )
        27           O   tau(  27) = (   0.7867686   0.2487841   0.2459146  )
        28           O   tau(  28) = (   0.2132315   0.7625040   0.7604875  )
        29           O   tau(  29) = (   0.2867685   0.2802959   0.7540854  )
        30           O   tau(  30) = (   0.7132315   0.8247363   0.2395125  )
        31           O   tau(  31) = (   0.2132315   0.2487841   0.2540854  )
        32           O   tau(  32) = (   0.7867686   0.7625040   0.7395125  )

     number of k points=    64  gaussian smearing, width (Ry)=  0.0007
                       cart. coord. in units 2pi/alat
        k(    1) = (   0.0000000   0.0000000   0.0000000), wk =   0.0092593
        k(    2) = (   0.0000000   0.0000000   0.1666667), wk =   0.0185185
        k(    3) = (   0.0000000   0.0000000   0.3333333), wk =   0.0185185
        k(    4) = (   0.0000000   0.0000000  -0.5000000), wk =   0.0092593
        k(    5) = (   0.0000000   0.1575061   0.0000000), wk =   0.0185185
        k(    6) = (   0.0000000   0.1575061   0.1666667), wk =   0.0370370
        k(    7) = (   0.0000000   0.1575061   0.3333333), wk =   0.0370370
        k(    8) = (   0.0000000   0.1575061  -0.5000000), wk =   0.0185185
        k(    9) = (   0.0000000   0.3150122   0.0000000), wk =   0.0185185
        k(   10) = (   0.0000000   0.3150122   0.1666667), wk =   0.0370370
        k(   11) = (   0.0000000   0.3150122   0.3333333), wk =   0.0370370
        k(   12) = (   0.0000000   0.3150122  -0.5000000), wk =   0.0185185
        k(   13) = (   0.0000000  -0.4725183   0.0000000), wk =   0.0092593
        k(   14) = (   0.0000000  -0.4725183   0.1666667), wk =   0.0185185
        k(   15) = (   0.0000000  -0.4725183   0.3333333), wk =   0.0185185
        k(   16) = (   0.0000000  -0.4725183  -0.5000000), wk =   0.0092593
        k(   17) = (   0.1666667   0.0000000   0.1666667), wk =   0.0370370
        k(   18) = (   0.1666667   0.0000000   0.3333333), wk =   0.0370370
        k(   19) = (   0.1666667   0.0000000  -0.5000000), wk =   0.0185185
        k(   20) = (   0.1666667   0.1575061   0.1666667), wk =   0.0740741
        k(   21) = (   0.1666667   0.1575061   0.3333333), wk =   0.0740741
        k(   22) = (   0.1666667   0.1575061  -0.5000000), wk =   0.0370370
        k(   23) = (   0.1666667   0.3150122   0.1666667), wk =   0.0740741
        k(   24) = (   0.1666667   0.3150122   0.3333333), wk =   0.0740741
        k(   25) = (   0.1666667   0.3150122  -0.5000000), wk =   0.0370370
        k(   26) = (   0.1666667  -0.4725183   0.1666667), wk =   0.0370370
        k(   27) = (   0.1666667  -0.4725183   0.3333333), wk =   0.0370370
        k(   28) = (   0.1666667  -0.4725183  -0.5000000), wk =   0.0185185
        k(   29) = (   0.3333333   0.0000000   0.3333333), wk =   0.0370370
        k(   30) = (   0.3333333   0.0000000  -0.5000000), wk =   0.0185185
        k(   31) = (   0.3333333   0.1575061   0.3333333), wk =   0.0740741
        k(   32) = (   0.3333333   0.1575061  -0.5000000), wk =   0.0370370
        k(   33) = (   0.3333333   0.3150122   0.3333333), wk =   0.0740741
        k(   34) = (   0.3333333   0.3150122  -0.5000000), wk =   0.0370370
        k(   35) = (   0.3333333  -0.4725183   0.3333333), wk =   0.0370370
        k(   36) = (   0.3333333  -0.4725183  -0.5000000), wk =   0.0185185
        k(   37) = (  -0.5000000   0.0000000  -0.5000000), wk =   0.0092593
        k(   38) = (  -0.5000000   0.1575061  -0.5000000), wk =   0.0185185
        k(   39) = (  -0.5000000   0.3150122  -0.5000000), wk =   0.0185185
        k(   40) = (  -0.5000000  -0.4725183  -0.5000000), wk =   0.0092593
        k(   41) = (   0.1666667   0.0000000   0.0000000), wk =   0.0185185
        k(   42) = (   0.3333333   0.0000000   0.0000000), wk =   0.0185185
        k(   43) = (  -0.5000000   0.0000000   0.0000000), wk =   0.0092593
        k(   44) = (   0.1666667  -0.1575061   0.0000000), wk =   0.0370370
        k(   45) = (   0.3333333  -0.1575061   0.0000000), wk =   0.0370370
        k(   46) = (  -0.5000000  -0.1575061   0.0000000), wk =   0.0185185
        k(   47) = (   0.1666667  -0.3150122   0.0000000), wk =   0.0370370
        k(   48) = (   0.3333333  -0.3150122   0.0000000), wk =   0.0370370
        k(   49) = (  -0.5000000  -0.3150122   0.0000000), wk =   0.0185185
        k(   50) = (   0.1666667   0.4725183   0.0000000), wk =   0.0185185
        k(   51) = (   0.3333333   0.4725183   0.0000000), wk =   0.0185185
        k(   52) = (  -0.5000000   0.4725183   0.0000000), wk =   0.0092593
        k(   53) = (   0.3333333   0.0000000   0.1666667), wk =   0.0370370
        k(   54) = (  -0.5000000   0.0000000   0.1666667), wk =   0.0185185
        k(   55) = (   0.3333333  -0.1575061   0.1666667), wk =   0.0740741
        k(   56) = (  -0.5000000  -0.1575061   0.1666667), wk =   0.0370370
        k(   57) = (   0.3333333  -0.3150122   0.1666667), wk =   0.0740741
        k(   58) = (  -0.5000000  -0.3150122   0.1666667), wk =   0.0370370
        k(   59) = (   0.3333333   0.4725183   0.1666667), wk =   0.0370370
        k(   60) = (  -0.5000000   0.4725183   0.1666667), wk =   0.0185185
        k(   61) = (  -0.5000000   0.0000000   0.3333333), wk =   0.0185185
        k(   62) = (  -0.5000000  -0.1575061   0.3333333), wk =   0.0370370
        k(   63) = (  -0.5000000  -0.3150122   0.3333333), wk =   0.0370370
        k(   64) = (  -0.5000000   0.4725183   0.3333333), wk =   0.0185185

     Dense  grid:   498127 G-vectors     FFT dimensions: ( 100, 108, 100)

     Estimated max dynamical RAM per process >       3.15 GB

     Estimated total dynamical RAM >     125.81 GB

     Initial potential from superposition of free atoms

     starting charge  367.99656, renormalised to  368.00000
     Starting wfc are  232 randomized atomic wfcs

     total cpu time spent up to now is       45.0 secs

     Self-consistent Calculation

     iteration #  1     ecut=   120.00 Ry     beta= 0.70
     Davidson diagonalization with overlap
     ethr =  1.00E-02,  avg # of iterations =  5.1

     total cpu time spent up to now is      158.4 secs

     total energy              =   -6253.88607500 Ry
     Harris-Foulkes estimate   =   -6264.46819493 Ry
     estimated scf accuracy    <      13.40206179 Ry

     iteration #  2     ecut=   120.00 Ry     beta= 0.70
     Davidson diagonalization with overlap
     ethr =  3.64E-03,  avg # of iterations =  3.5

     total cpu time spent up to now is      265.8 secs

     total energy              =   -6250.23996019 Ry
     Harris-Foulkes estimate   =   -6270.85125098 Ry
     estimated scf accuracy    <      56.23130821 Ry

     iteration #  3     ecut=   120.00 Ry     beta= 0.70
     Davidson diagonalization with overlap
     ethr =  3.64E-03,  avg # of iterations =  3.4

     total cpu time spent up to now is      369.5 secs

     total energy              =   -6260.93463839 Ry
     Harris-Foulkes estimate   =   -6261.42364305 Ry
     estimated scf accuracy    <       1.54110396 Ry

     iteration #  4     ecut=   120.00 Ry     beta= 0.70
     Davidson diagonalization with overlap
     ethr =  4.19E-04,  avg # of iterations =  2.3

     total cpu time spent up to now is      457.3 secs

     total energy              =   -6261.00517349 Ry
     Harris-Foulkes estimate   =   -6261.10790522 Ry
     estimated scf accuracy    <       0.36435428 Ry

     iteration #  5     ecut=   120.00 Ry     beta= 0.70
     Davidson diagonalization with overlap
     ethr =  9.90E-05,  avg # of iterations =  5.1

     total cpu time spent up to now is      544.5 secs

     total energy              =   -6260.98114055 Ry
     Harris-Foulkes estimate   =   -6261.03362044 Ry
     estimated scf accuracy    <       0.11355045 Ry

     iteration #  6     ecut=   120.00 Ry     beta= 0.70
     Davidson diagonalization with overlap
     ethr =  3.09E-05,  avg # of iterations =  5.2

     total cpu time spent up to now is      642.4 secs

     total energy              =   -6261.00771086 Ry
     Harris-Foulkes estimate   =   -6261.00983502 Ry
     estimated scf accuracy    <       0.00700933 Ry

     iteration #  7     ecut=   120.00 Ry     beta= 0.70
     Davidson diagonalization with overlap
     ethr =  1.90E-06,  avg # of iterations =  4.4

     total cpu time spent up to now is      735.6 secs

     total energy              =   -6261.00803525 Ry
     Harris-Foulkes estimate   =   -6261.00870170 Ry
     estimated scf accuracy    <       0.00219663 Ry

     iteration #  8     ecut=   120.00 Ry     beta= 0.70
     Davidson diagonalization with overlap
     ethr =  5.97E-07,  avg # of iterations =  2.0

     total cpu time spent up to now is      819.2 secs

     total energy              =   -6261.00825176 Ry
     Harris-Foulkes estimate   =   -6261.00834550 Ry
     estimated scf accuracy    <       0.00025140 Ry

     iteration #  9     ecut=   120.00 Ry     beta= 0.70
     Davidson diagonalization with overlap
     ethr =  6.83E-08,  avg # of iterations =  2.8

     total cpu time spent up to now is      910.4 secs

     total energy              =   -6261.00828612 Ry
     Harris-Foulkes estimate   =   -6261.00830900 Ry
     estimated scf accuracy    <       0.00005531 Ry

     iteration # 10     ecut=   120.00 Ry     beta= 0.70
     Davidson diagonalization with overlap
     ethr =  1.50E-08,  avg # of iterations =  2.6

     total cpu time spent up to now is     1000.4 secs

     total energy              =   -6261.00829723 Ry
     Harris-Foulkes estimate   =   -6261.00829902 Ry
     estimated scf accuracy    <       0.00000429 Ry

     iteration # 11     ecut=   120.00 Ry     beta= 0.70
     Davidson diagonalization with overlap
     ethr =  1.16E-09,  avg # of iterations =  2.0

     total cpu time spent up to now is     1090.5 secs

     total energy              =   -6261.00829786 Ry
     Harris-Foulkes estimate   =   -6261.00829804 Ry
     estimated scf accuracy    <       0.00000035 Ry

     iteration # 12     ecut=   120.00 Ry     beta= 0.70
     Davidson diagonalization with overlap
     ethr =  9.60E-11,  avg # of iterations =  2.7

     total cpu time spent up to now is     1196.1 secs

     total energy              =   -6261.00829791 Ry
     Harris-Foulkes estimate   =   -6261.00829795 Ry
     estimated scf accuracy    <       0.00000006 Ry

     iteration # 13     ecut=   120.00 Ry     beta= 0.70
     Davidson diagonalization with overlap
     ethr =  1.72E-11,  avg # of iterations =  2.9

     total cpu time spent up to now is     1291.1 secs

     total energy              =   -6261.00829793 Ry
     Harris-Foulkes estimate   =   -6261.00829794 Ry
     estimated scf accuracy    <       0.00000004 Ry

     iteration # 14     ecut=   120.00 Ry     beta= 0.70
     Davidson diagonalization with overlap
     ethr =  9.91E-12,  avg # of iterations =  2.6

     total cpu time spent up to now is     1377.4 secs

     End of self-consistent calculation

          k = 0.0000 0.0000 0.0000 ( 62239 PWs)   bands (ev):

   -66.1680 -66.1671 -66.1669 -66.1660 -66.1613 -66.1604 -66.1603 -66.1593
   -30.7203 -30.7163 -30.7014 -30.6961 -30.6158 -30.6126 -30.6031 -30.5954
   -30.5235 -30.5126 -30.5025 -30.4960 -30.4288 -30.4228 -30.4066 -30.4018
   -30.3964 -30.3919 -30.3903 -30.3858 -30.3425 -30.3390 -30.3383 -30.3350
   -20.3237 -20.3235 -20.3234 -20.3232 -20.3155 -20.3153 -20.3145 -20.3144
   -20.3094 -20.3091 -20.3078 -20.3077 -20.3073 -20.3072 -20.3019 -20.3017
   -20.3008 -20.3006 -20.2956 -20.2956 -20.2954 -20.2954 -20.2948 -20.2946
   -20.2940 -20.2935 -20.2932 -20.2924 -20.2890 -20.2884 -20.2881 -20.2878
   -20.2872 -20.2867 -20.2852 -20.2846 -20.2837 -20.2836 -20.2802 -20.2800
   -20.2794 -20.2788 -20.2787 -20.2784 -20.2782 -20.2781 -20.2775 -20.2775
   -20.2751 -20.2746 -20.2736 -20.2732 -20.2692 -20.2682 -20.2662 -20.2650
   -10.0816  -9.9099  -9.7369  -9.6599  -9.3790  -9.3001  -9.1634  -9.1316
    -8.5471  -8.5012  -8.4914  -8.4878  -8.1071  -8.0599  -7.9882  -7.9691
    -7.7964  -7.7635  -7.7050  -7.6781  -7.5261  -7.4590  -7.4433  -7.3833
     0.9111   0.9860   0.9936   1.1182   1.2198   1.3395   1.4101   1.4923
     2.0581   2.1285   2.1287   2.1546   2.1950   2.2157   2.6106   2.7751
     2.8269   2.8331   4.1147   4.1996   4.2169   4.2986   4.3575   4.3630
     4.4793   4.5353   4.8276   5.0257   5.1720   5.2743   5.2866   5.3289
     5.3526   5.4278   5.4370   5.5390   5.5708   5.6196   5.6663   5.6847
     5.7711   5.8090   5.9077   5.9353   5.9440   5.9884   6.0152   6.0432
     6.2744   6.3863   6.5083   6.5651   6.6324   6.6434   6.7037   6.7450
     6.8524   6.9689   7.0069   7.0854   7.0932   7.1394   7.2665   7.3284
     7.3527   7.3662   7.7805   7.8174   8.0135   8.0187   8.1345   8.2010
     9.7573   9.8322   9.9511   9.9729  10.0073  10.0544  12.1245  12.3032
    12.3304  12.4070  12.4085  12.4430  12.5807  12.7722  12.8840  12.9426
    13.1414  13.1586  13.1793  13.3121  13.4585  13.7086  13.7911  14.0713
    14.3522  14.4787  14.5681  14.9197  15.0865  15.3847  15.5398  16.0324
    16.0423  16.8058  16.9431  16.9832  17.4526

          k = 0.0000 0.0000 0.1667 ( 62262 PWs)   bands (ev):

   -66.1679 -66.1671 -66.1668 -66.1660 -66.1612 -66.1603 -66.1603 -66.1594
   -30.7134 -30.7094 -30.7010 -30.6965 -30.6229 -30.6196 -30.6024 -30.5958
   -30.5171 -30.5069 -30.5021 -30.4964 -30.4351 -30.4289 -30.4062 -30.4021
   -30.3960 -30.3915 -30.3908 -30.3863 -30.3422 -30.3387 -30.3386 -30.3352
   -20.3237 -20.3234 -20.3234 -20.3232 -20.3154 -20.3152 -20.3146 -20.3144
   -20.3094 -20.3091 -20.3078 -20.3077 -20.3073 -20.3072 -20.3019 -20.3017
   -20.3005 -20.3002 -20.2958 -20.2958 -20.2956 -20.2955 -20.2948 -20.2947
   -20.2939 -20.2935 -20.2931 -20.2924 -20.2889 -20.2884 -20.2882 -20.2878
   -20.2871 -20.2865 -20.2848 -20.2848 -20.2839 -20.2833 -20.2805 -20.2799
   -20.2795 -20.2789 -20.2787 -20.2783 -20.2782 -20.2781 -20.2775 -20.2774
   -20.2754 -20.2749 -20.2736 -20.2732 -20.2691 -20.2682 -20.2662 -20.2651
   -10.0239  -9.8532  -9.6726  -9.6464  -9.3169  -9.2922  -9.1155  -9.1059
    -8.5680  -8.5023  -8.4963  -8.4810  -8.2177  -8.1187  -8.0646  -7.9753
    -7.9200  -7.8329  -7.7593  -7.6839  -7.5221  -7.4637  -7.4401  -7.3875
     1.0371   1.1121   1.1253   1.2498   1.3409   1.4808   1.5544   1.6185
     2.0755   2.1333   2.1452   2.1978   2.2316   2.2834   2.6554   2.8238
     2.8313   2.9151   4.0030   4.1064   4.1115   4.2485   4.2576   4.3195
     4.4163   4.5041   4.6926   4.8050   5.0072   5.1146   5.2165   5.2920
     5.3019   5.3883   5.4433   5.4473   5.4950   5.5405   5.5982   5.6179
     5.6911   5.7565   5.8109   5.9380   5.9599   5.9634   6.0828   6.2083
     6.2721   6.4077   6.5427   6.5868   6.6273   6.7074   6.7582   6.7795
     6.8621   6.9434   6.9781   6.9790   7.0177   7.1188   7.1957   7.2567
     7.3484   7.3485   7.7594   7.7882   8.0096   8.0374   8.1036   8.1822
     9.8842   9.9505  10.0612  10.1397  10.2399  10.3317  12.1742  12.2667
    12.3492  12.3610  12.4487  12.4947  12.6153  12.6727  12.8775  12.9026
    12.9728  13.1662  13.1672  13.3939  13.4694  13.5869  13.8370  13.9752
    14.3429  14.4980  14.5595  14.9887  15.0610  15.4635  15.6132  15.9987
    16.3173  16.7720  16.9603  17.1666  17.5343

          k = 0.0000 0.0000 0.3333 ( 62268 PWs)   bands (ev):

   -66.1678 -66.1673 -66.1667 -66.1662 -66.1611 -66.1605 -66.1601 -66.1596
   -30.7001 -30.6974 -30.6945 -30.6907 -30.6422 -30.6388 -30.6007 -30.5969
   -30.5010 -30.4997 -30.4977 -30.4908 -30.4524 -30.4457 -30.4054 -30.4030
   -30.3949 -30.3920 -30.3905 -30.3876 -30.3414 -30.3393 -30.3380 -30.3359
   -20.3236 -20.3235 -20.3234 -20.3233 -20.3152 -20.3150 -20.3147 -20.3146
   -20.3093 -20.3092 -20.3078 -20.3078 -20.3073 -20.3073 -20.3019 -20.3018
   -20.2995 -20.2993 -20.2968 -20.2967 -20.2954 -20.2953 -20.2949 -20.2949
   -20.2938 -20.2936 -20.2930 -20.2926 -20.2887 -20.2883 -20.2883 -20.2880
   -20.2867 -20.2861 -20.2854 -20.2846 -20.2837 -20.2823 -20.2812 -20.2798
   -20.2797 -20.2795 -20.2786 -20.2784 -20.2781 -20.2777 -20.2776 -20.2770
   -20.2761 -20.2756 -20.2735 -20.2733 -20.2690 -20.2684 -20.2659 -20.2653
    -9.8970  -9.7123  -9.6941  -9.3903  -9.3748  -9.0501  -9.0299  -8.9428
    -8.6872  -8.5810  -8.4801  -8.4604  -8.4573  -8.4095  -8.2196  -8.1609
    -8.0288  -7.9922  -7.7441  -7.7000  -7.5105  -7.4764  -7.4298  -7.3990
     1.0773   1.1005   1.3252   1.3452   1.9021   1.9603   2.0770   2.1190
     2.1293   2.2201   2.2688   2.4217   2.4446   2.5340   2.7129   2.8034
     3.0523   3.1444   3.4401   3.6060   3.8987   3.9805   4.1558   4.1995
     4.3197   4.3297   4.4881   4.4913   4.6294   4.7345   4.8198   4.8376
     5.1427   5.1572   5.2091   5.2824   5.3022   5.3571   5.5854   5.6973
     5.8008   5.8288   5.8788   5.9217   5.9378   5.9638   6.1995   6.2379
     6.2783   6.2888   6.4356   6.5686   6.5830   6.7211   6.7600   6.8024
     6.9423   6.9809   7.0424   7.0541   7.0573   7.1025   7.3017   7.3385
     7.3451   7.4335   7.6568   7.6645   7.9533   7.9997   8.0649   8.1239
     9.9238   9.9464  10.6363  10.7616  10.8211  11.0070  11.9947  12.0579
    12.2308  12.3120  12.4331  12.4379  12.5767  12.6296  12.6320  12.7728
    12.9642  13.1307  13.2607  13.2652  13.3779  13.5143  13.7333  13.7969
    14.3834  14.5310  14.6364  14.9800  15.1707  15.7749  15.8328  16.0054
    16.3702  17.1259  17.4642  17.4659  17.8025

          k = 0.0000 0.0000-0.5000 ( 62264 PWs)   bands (ev):

   -66.1675 -66.1675 -66.1664 -66.1664 -66.1608 -66.1608 -66.1598 -66.1598
   -30.6988 -30.6988 -30.6685 -30.6685 -30.6649 -30.6649 -30.5987 -30.5987
   -30.4993 -30.4993 -30.4761 -30.4761 -30.4684 -30.4684 -30.4042 -30.4042
   -30.3935 -30.3935 -30.3891 -30.3891 -30.3403 -30.3403 -30.3369 -30.3369
   -20.3236 -20.3235 -20.3233 -20.3233 -20.3150 -20.3150 -20.3148 -20.3148
   -20.3093 -20.3093 -20.3078 -20.3078 -20.3073 -20.3073 -20.3018 -20.3018
   -20.2982 -20.2982 -20.2980 -20.2980 -20.2951 -20.2951 -20.2951 -20.2951
   -20.2937 -20.2937 -20.2928 -20.2928 -20.2885 -20.2885 -20.2881 -20.2881
   -20.2861 -20.2861 -20.2854 -20.2854 -20.2824 -20.2824 -20.2809 -20.2809
   -20.2797 -20.2797 -20.2785 -20.2785 -20.2778 -20.2778 -20.2770 -20.2770
   -20.2764 -20.2764 -20.2734 -20.2734 -20.2687 -20.2687 -20.2656 -20.2656
    -9.7849  -9.7849  -9.5005  -9.5005  -9.0236  -9.0236  -8.8463  -8.8463
    -8.7073  -8.7073  -8.6694  -8.6694  -8.4360  -8.4360  -8.3899  -8.3899
    -8.0146  -8.0145  -7.7221  -7.7221  -7.4936  -7.4936  -7.4147  -7.4147
     1.0906   1.0906   1.3477   1.3477   2.0692   2.0692   2.1068   2.1068
     2.7245   2.7245   2.7603   2.7603   2.8959   2.8959   2.9941   2.9941
     3.1362   3.1362   3.1916   3.1916   3.4564   3.4564   3.7265   3.7265
     3.7937   3.7937   4.4008   4.4008   4.6921   4.6921   4.8903   4.8903
     4.9143   4.9143   5.1522   5.1522   5.3107   5.3108   5.7394   5.7394
     5.7641   5.7641   5.9124   5.9124   5.9516   5.9516   6.2100   6.2100
     6.2801   6.2801   6.4289   6.4289   6.5711   6.5711   6.8671   6.8672
     6.9310   6.9310   6.9904   6.9904   7.3180   7.3180   7.3993   7.3993
     7.4244   7.4244   7.7181   7.7181   7.7880   7.7880   8.0845   8.0845
     9.9373   9.9373  11.3536  11.3536  11.4836  11.4836  11.5577  11.5577
    11.7935  11.7935  12.4586  12.4586  12.5024  12.5024  12.9050  12.9050
    13.0327  13.0327  13.0941  13.0941  13.4583  13.4584  13.6279  13.6279
    14.4736  14.4737  14.8343  14.8343  15.4988  15.4988  16.0519  16.0519
    16.7796  16.7796  17.9311  17.9311  18.1427

          k = 0.0000 0.1575 0.0000 ( 62231 PWs)   bands (ev):

   -66.1680 -66.1671 -66.1669 -66.1660 -66.1613 -66.1604 -66.1603 -66.1593
   -30.7203 -30.7163 -30.7014 -30.6961 -30.6158 -30.6126 -30.6031 -30.5954
   -30.5234 -30.5126 -30.5025 -30.4960 -30.4286 -30.4227 -30.4065 -30.4017
   -30.3928 -30.3885 -30.3870 -30.3826 -30.3460 -30.3425 -30.3418 -30.3384
   -20.3237 -20.3235 -20.3234 -20.3232 -20.3155 -20.3153 -20.3145 -20.3144
   -20.3094 -20.3091 -20.3078 -20.3077 -20.3073 -20.3072 -20.3019 -20.3017
   -20.3008 -20.3006 -20.2956 -20.2956 -20.2954 -20.2954 -20.2948 -20.2946
   -20.2940 -20.2935 -20.2932 -20.2924 -20.2888 -20.2883 -20.2880 -20.2877
   -20.2872 -20.2867 -20.2852 -20.2846 -20.2837 -20.2836 -20.2802 -20.2800
   -20.2795 -20.2789 -20.2788 -20.2784 -20.2783 -20.2781 -20.2776 -20.2774
   -20.2751 -20.2746 -20.2736 -20.2732 -20.2692 -20.2682 -20.2662 -20.2650
   -10.0675  -9.9184  -9.7321  -9.6536  -9.3776  -9.2989  -9.1629  -9.1313
    -8.4863  -8.4466  -8.4386  -8.4328  -8.1068  -8.0592  -7.9881  -7.9690
    -7.7965  -7.7645  -7.7053  -7.6792  -7.6058  -7.5431  -7.5283  -7.4737
     0.9107   0.9855   0.9931   1.1181   1.2192   1.3395   1.4144   1.4968
     2.0943   2.1849   2.2640   2.3201   2.3529   2.4324   2.6769   2.8643
     2.9031   2.9075   3.9907   4.0186   4.1047   4.1585   4.2977   4.3409
     4.4707   4.5223   4.6990   5.0798   5.2041   5.2634   5.2807   5.3315
     5.3459   5.3744   5.3744   5.4752   5.5302   5.6020   5.6210   5.6611
     5.7625   5.7875   5.8163   5.9503   5.9559   5.9945   6.0236   6.0856
     6.1204   6.3538   6.4916   6.6025   6.7109   6.7198   6.7301   6.7518
     6.8894   6.9069   6.9100   6.9154   7.1069   7.1474   7.2455   7.2680
     7.2772   7.3012   7.7788   7.8140   7.9909   8.0107   8.1096   8.1337
     9.7967   9.8524  10.1219  10.1441  10.1777  10.2061  12.0336  12.1854
    12.2006  12.3507  12.4236  12.4477  12.5069  12.7954  12.8757  12.9369
    13.1494  13.1646  13.1876  13.4148  13.4874  13.6981  13.8335  14.0281
    14.4527  14.6549  14.7115  14.9681  15.3613  15.4603  15.5648  16.0146
    16.0206  16.6128  17.0194  17.0679  17.3906

          k = 0.0000 0.1575 0.1667 ( 62237 PWs)   bands (ev):

   -66.1679 -66.1671 -66.1668 -66.1660 -66.1612 -66.1603 -66.1603 -66.1594
   -30.7134 -30.7094 -30.7010 -30.6965 -30.6229 -30.6196 -30.6024 -30.5958
   -30.5171 -30.5069 -30.5021 -30.4965 -30.4350 -30.4288 -30.4062 -30.4020
   -30.3924 -30.3882 -30.3875 -30.3831 -30.3457 -30.3423 -30.3421 -30.3387
   -20.3237 -20.3234 -20.3234 -20.3232 -20.3154 -20.3152 -20.3146 -20.3144
   -20.3094 -20.3091 -20.3078 -20.3077 -20.3073 -20.3072 -20.3019 -20.3017
   -20.3005 -20.3002 -20.2958 -20.2958 -20.2956 -20.2955 -20.2948 -20.2947
   -20.2939 -20.2935 -20.2931 -20.2924 -20.2888 -20.2883 -20.2881 -20.2877
   -20.2871 -20.2865 -20.2848 -20.2848 -20.2839 -20.2833 -20.2805 -20.2800
   -20.2796 -20.2790 -20.2789 -20.2784 -20.2783 -20.2781 -20.2776 -20.2774
   -20.2754 -20.2749 -20.2736 -20.2732 -20.2691 -20.2682 -20.2662 -20.2651
   -10.0092  -9.8620  -9.6661  -9.6411  -9.3159  -9.2904  -9.1146  -9.1060
    -8.5075  -8.4509  -8.4436  -8.4270  -8.2159  -8.1182  -8.0637  -7.9753
    -7.9205  -7.8337  -7.7602  -7.6850  -7.6019  -7.5466  -7.5255  -7.4764
     1.0369   1.1116   1.1254   1.2498   1.3410   1.4807   1.5654   1.6220
     2.1755   2.2626   2.2854   2.3177   2.3467   2.4360   2.7222   2.8933
     2.9234   2.9921   3.9803   3.9944   4.0769   4.1009   4.1426   4.1999
     4.3730   4.4833   4.6270   4.8094   4.9888   5.0988   5.2121   5.2626
     5.3219   5.3530   5.3901   5.4422   5.4683   5.5079   5.5143   5.6026
     5.6182   5.7555   5.8016   5.8531   5.9469   5.9772   6.0374   6.1189
     6.2554   6.3713   6.5503   6.5831   6.6834   6.7345   6.7909   6.8237
     6.8667   6.8948   6.9366   6.9707   7.0022   7.0268   7.2347   7.2404
     7.2741   7.2881   7.7570   7.7860   7.9906   8.0174   8.0810   8.1201
    10.0162  10.0875  10.1449  10.2355  10.3519  10.4399  12.0924  12.1776
    12.2207  12.3555  12.3890  12.5011  12.5430  12.7025  12.8784  12.8845
    12.9725  13.1718  13.1818  13.4330  13.4943  13.5639  13.8702  13.9478
    14.4657  14.6869  14.7369  15.0261  15.3937  15.5047  15.6280  15.9816
    16.2961  16.7553  16.8577  17.2235  17.4536

          k = 0.0000 0.1575 0.3333 ( 62284 PWs)   bands (ev):

   -66.1678 -66.1673 -66.1667 -66.1662 -66.1611 -66.1605 -66.1601 -66.1596
   -30.7001 -30.6974 -30.6945 -30.6907 -30.6422 -30.6388 -30.6007 -30.5970
   -30.5010 -30.4997 -30.4977 -30.4908 -30.4523 -30.4456 -30.4053 -30.4029
   -30.3914 -30.3886 -30.3871 -30.3843 -30.3449 -30.3428 -30.3415 -30.3394
   -20.3236 -20.3235 -20.3234 -20.3233 -20.3152 -20.3150 -20.3147 -20.3146
   -20.3093 -20.3092 -20.3078 -20.3078 -20.3073 -20.3073 -20.3019 -20.3018
   -20.2995 -20.2993 -20.2968 -20.2967 -20.2954 -20.2953 -20.2949 -20.2949
   -20.2938 -20.2936 -20.2930 -20.2926 -20.2886 -20.2882 -20.2882 -20.2878
   -20.2867 -20.2861 -20.2854 -20.2846 -20.2837 -20.2822 -20.2812 -20.2799
   -20.2798 -20.2796 -20.2788 -20.2785 -20.2781 -20.2777 -20.2777 -20.2770
   -20.2761 -20.2756 -20.2735 -20.2733 -20.2690 -20.2684 -20.2659 -20.2653
    -9.8839  -9.7057  -9.6997  -9.3834  -9.3744  -9.0464  -9.0299  -8.9415
    -8.6491  -8.5573  -8.4334  -8.4306  -8.4077  -8.3936  -8.2156  -8.1558
    -8.0285  -7.9919  -7.7450  -7.7011  -7.5906  -7.5580  -7.5157  -7.4864
     1.0773   1.1005   1.3254   1.3455   1.9325   2.0469   2.1509   2.2441
     2.2608   2.3289   2.3725   2.4529   2.5198   2.5305   2.7821   2.8749
     3.1351   3.2122   3.4419   3.6026   3.8642   3.9556   4.1034   4.1702
     4.2423   4.3137   4.3849   4.4245   4.5689   4.6821   4.7280   4.7724
     5.0660   5.1317   5.2016   5.2336   5.3382   5.3461   5.5143   5.6043
     5.7522   5.8195   5.8331   5.8551   5.8777   5.9392   6.0585   6.0987
     6.2602   6.3040   6.4789   6.5925   6.6883   6.7465   6.7850   6.8358
     6.8547   6.9371   7.0381   7.0646   7.1017   7.1282   7.2446   7.2683
     7.3705   7.4470   7.6543   7.6652   7.9448   7.9814   8.0362   8.0722
    10.1242  10.1425  10.6621  10.7828  10.9051  11.0541  11.9871  12.0578
    12.2424  12.2556  12.2970  12.4490  12.5243  12.5698  12.6236  12.7064
    12.9509  13.1366  13.2089  13.2754  13.3174  13.5367  13.7369  13.8070
    14.5472  14.6733  14.9360  15.1793  15.3659  15.7798  15.8474  16.0372
    16.4085  17.0887  17.2430  17.5337  17.6519

          k = 0.0000 0.1575-0.5000 ( 62234 PWs)   bands (ev):

   -66.1675 -66.1675 -66.1664 -66.1664 -66.1608 -66.1608 -66.1598 -66.1598
   -30.6988 -30.6988 -30.6685 -30.6685 -30.6649 -30.6649 -30.5987 -30.5987
   -30.4993 -30.4993 -30.4761 -30.4761 -30.4684 -30.4684 -30.4041 -30.4041
   -30.3900 -30.3900 -30.3858 -30.3857 -30.3438 -30.3438 -30.3404 -30.3404
   -20.3236 -20.3235 -20.3233 -20.3233 -20.3150 -20.3150 -20.3148 -20.3148
   -20.3093 -20.3093 -20.3078 -20.3078 -20.3073 -20.3073 -20.3018 -20.3018
   -20.2982 -20.2982 -20.2980 -20.2980 -20.2951 -20.2951 -20.2951 -20.2951
   -20.2937 -20.2937 -20.2928 -20.2928 -20.2884 -20.2884 -20.2880 -20.2880
   -20.2861 -20.2861 -20.2854 -20.2854 -20.2824 -20.2824 -20.2809 -20.2809
   -20.2798 -20.2798 -20.2787 -20.2787 -20.2779 -20.2779 -20.2770 -20.2770
   -20.2764 -20.2764 -20.2734 -20.2734 -20.2687 -20.2687 -20.2656 -20.2656
    -9.7753  -9.7753  -9.5024  -9.5023  -9.0113  -9.0112  -8.8446  -8.8446
    -8.6965  -8.6965  -8.6603  -8.6603  -8.3958  -8.3958  -8.3524  -8.3524
    -8.0142  -8.0142  -7.7231  -7.7231  -7.5743  -7.5743  -7.5011  -7.5011
     1.0906   1.0906   1.3482   1.3482   2.2349   2.2349   2.3130   2.3130
     2.7636   2.7636   2.7810   2.7810   2.8996   2.8996   3.0021   3.0021
     3.1407   3.1407   3.2071   3.2071   3.4784   3.4784   3.7533   3.7533
     3.8523   3.8523   4.2398   4.2398   4.5535   4.5535   4.7600   4.7600
     4.9027   4.9028   5.1323   5.1323   5.3350   5.3350   5.5978   5.5978
     5.7533   5.7533   5.8461   5.8461   5.9295   5.9295   6.0610   6.0610
     6.2449   6.2449   6.4857   6.4857   6.6527   6.6527   6.8310   6.8310
     6.9906   6.9906   7.0214   7.0214   7.2364   7.2364   7.4009   7.4010
     7.4232   7.4232   7.7280   7.7280   7.7848   7.7848   8.0459   8.0459
    10.1381  10.1381  11.3667  11.3667  11.5020  11.5020  11.6073  11.6073
    11.8152  11.8152  12.3381  12.3381  12.4982  12.4982  12.8191  12.8191
    12.9802  12.9802  13.0706  13.0706  13.4662  13.4662  13.6415  13.6415
    14.6297  14.6297  15.1588  15.1588  15.5593  15.5594  16.0552  16.0552
    16.8194  16.8194  17.7540  17.7540  18.0658

          k = 0.0000 0.3150 0.0000 ( 62175 PWs)   bands (ev):

   -66.1680 -66.1671 -66.1669 -66.1660 -66.1613 -66.1604 -66.1603 -66.1593
   -30.7203 -30.7163 -30.7014 -30.6961 -30.6158 -30.6126 -30.6031 -30.5954
   -30.5234 -30.5126 -30.5025 -30.4960 -30.4284 -30.4224 -30.4064 -30.4016
   -30.3833 -30.3793 -30.3779 -30.3738 -30.3556 -30.3520 -30.3512 -30.3477
   -20.3237 -20.3235 -20.3234 -20.3232 -20.3155 -20.3153 -20.3145 -20.3144
   -20.3094 -20.3091 -20.3078 -20.3077 -20.3073 -20.3072 -20.3019 -20.3017
   -20.3008 -20.3006 -20.2956 -20.2956 -20.2954 -20.2954 -20.2948 -20.2946
   -20.2940 -20.2935 -20.2932 -20.2924 -20.2886 -20.2880 -20.2877 -20.2876
   -20.2870 -20.2866 -20.2851 -20.2846 -20.2837 -20.2836 -20.2802 -20.2802
   -20.2798 -20.2792 -20.2791 -20.2785 -20.2784 -20.2782 -20.2777 -20.2774
   -20.2751 -20.2746 -20.2736 -20.2732 -20.2692 -20.2682 -20.2662 -20.2650
   -10.0320  -9.9426  -9.7226  -9.6416  -9.3748  -9.2965  -9.1620  -9.1309
    -8.3291  -8.2838  -8.2769  -8.2739  -8.1089  -8.0544  -7.9890  -7.9712
    -7.8117  -7.7966  -7.7630  -7.7612  -7.7463  -7.7063  -7.7055  -7.6752
     0.9099   0.9843   0.9923   1.1179   1.2183   1.3394   1.4192   1.5026
     2.1173   2.1684   2.6862   2.7697   2.8312   2.8517   2.9444   3.1611
     3.1979   3.2212   3.6586   3.7013   3.7820   3.8180   4.2510   4.2941
     4.3312   4.4514   4.4992   4.7365   4.7727   5.0041   5.1611   5.2910
     5.3297   5.3486   5.3684   5.4300   5.4396   5.4537   5.6144   5.6379
     5.7003   5.7753   5.8171   5.9270   6.0249   6.0364   6.0660   6.0878
     6.2086   6.2729   6.4131   6.5666   6.6441   6.6652   6.7136   6.7549
     6.8051   6.8522   6.8721   6.9890   7.1283   7.1993   7.2652   7.2714
     7.3188   7.3365   7.7614   7.8076   7.8967   7.9151   7.9400   7.9739
     9.8299   9.8619  10.5417  10.5861  10.6312  10.7121  11.7145  11.8014
    11.8570  11.9944  12.4475  12.4599  12.5523  12.7997  12.8861  12.9475
    13.1389  13.1812  13.2330  13.4125  13.4179  13.5609  13.8709  13.9525
    14.9833  15.1121  15.1573  15.1968  15.3526  15.5963  15.9300  15.9611
    16.1992  16.3743  16.8561  17.3066  17.3771

          k = 0.0000 0.3150 0.1667 ( 62260 PWs)   bands (ev):

   -66.1679 -66.1671 -66.1668 -66.1660 -66.1613 -66.1603 -66.1603 -66.1594
   -30.7134 -30.7094 -30.7010 -30.6965 -30.6229 -30.6196 -30.6024 -30.5958
   -30.5171 -30.5068 -30.5021 -30.4965 -30.4348 -30.4286 -30.4061 -30.4019
   -30.3829 -30.3789 -30.3783 -30.3742 -30.3553 -30.3517 -30.3515 -30.3480
   -20.3237 -20.3234 -20.3234 -20.3232 -20.3154 -20.3152 -20.3146 -20.3144
   -20.3094 -20.3091 -20.3078 -20.3077 -20.3073 -20.3072 -20.3019 -20.3017
   -20.3005 -20.3003 -20.2958 -20.2958 -20.2955 -20.2955 -20.2948 -20.2947
   -20.2939 -20.2936 -20.2931 -20.2925 -20.2885 -20.2880 -20.2878 -20.2875
   -20.2870 -20.2865 -20.2848 -20.2847 -20.2839 -20.2833 -20.2804 -20.2802
   -20.2798 -20.2792 -20.2791 -20.2786 -20.2784 -20.2781 -20.2777 -20.2773
   -20.2754 -20.2749 -20.2736 -20.2732 -20.2692 -20.2682 -20.2662 -20.2651
    -9.9718  -9.8876  -9.6535  -9.6309  -9.3138  -9.2869  -9.1123  -9.1070
    -8.3531  -8.3037  -8.2871  -8.2697  -8.2028  -8.1154  -8.0593  -7.9785
    -7.9228  -7.8415  -7.8072  -7.7601  -7.7573  -7.7448  -7.6993  -7.6808
     1.0363   1.1109   1.1251   1.2497   1.3411   1.4804   1.5763   1.6274
     2.2061   2.2579   2.6975   2.7649   2.8248   2.9151   2.9338   3.1438
     3.2503   3.2797   3.6986   3.7549   3.7860   3.8073   4.0740   4.0952
     4.2439   4.3621   4.4518   4.6656   4.7665   4.9674   4.9776   5.1071
     5.1282   5.2580   5.3474   5.3701   5.3939   5.4477   5.4959   5.5304
     5.6069   5.6283   5.7620   5.8072   5.8199   5.9657   6.0466   6.0964
     6.3033   6.4006   6.4771   6.5532   6.6360   6.7121   6.7209   6.7955
     6.8361   6.9231   6.9619   7.0261   7.0462   7.1009   7.2772   7.2872
     7.3367   7.3472   7.7419   7.7813   7.8940   7.9114   7.9340   7.9614
    10.0954  10.1220  10.6270  10.6490  10.7084  10.8250  11.7908  11.8404
    11.8582  12.0322  12.3768  12.5112  12.5920  12.7554  12.8722  12.9070
    12.9946  13.1125  13.2076  13.3565  13.4060  13.4324  13.8717  13.9129
    15.0144  15.1145  15.2165  15.3110  15.4633  15.7017  15.9076  16.2092
    16.3429  16.3703  16.9163  17.1253  17.4511

          k = 0.0000 0.3150 0.3333 ( 62269 PWs)   bands (ev):

   -66.1677 -66.1673 -66.1667 -66.1662 -66.1611 -66.1605 -66.1601 -66.1596
   -30.7001 -30.6974 -30.6945 -30.6907 -30.6422 -30.6388 -30.6007 -30.5970
   -30.5010 -30.4997 -30.4977 -30.4908 -30.4522 -30.4455 -30.4052 -30.4028
   -30.3820 -30.3793 -30.3779 -30.3753 -30.3545 -30.3523 -30.3509 -30.3487
   -20.3236 -20.3235 -20.3234 -20.3233 -20.3152 -20.3150 -20.3147 -20.3146
   -20.3093 -20.3092 -20.3078 -20.3078 -20.3073 -20.3073 -20.3019 -20.3018
   -20.2995 -20.2993 -20.2968 -20.2967 -20.2954 -20.2953 -20.2949 -20.2948
   -20.2938 -20.2936 -20.2930 -20.2926 -20.2883 -20.2879 -20.2879 -20.2876
   -20.2867 -20.2861 -20.2854 -20.2846 -20.2836 -20.2822 -20.2811 -20.2801
   -20.2800 -20.2796 -20.2791 -20.2789 -20.2783 -20.2779 -20.2777 -20.2770
   -20.2761 -20.2756 -20.2735 -20.2733 -20.2690 -20.2684 -20.2659 -20.2653
    -9.8544  -9.7172  -9.6898  -9.3736  -9.3704  -9.0391  -9.0303  -8.9392
    -8.5893  -8.5161  -8.3414  -8.3373  -8.2811  -8.2550  -8.1848  -8.1237
    -8.0285  -7.9925  -7.7997  -7.7691  -7.7428  -7.7369  -7.7067  -7.6959
     1.0769   1.1002   1.3256   1.3458   1.9527   2.1235   2.1705   2.2699
     2.4578   2.5087   2.7316   2.7477   2.8557   2.9068   3.0133   3.1157
     3.3944   3.4114   3.4615   3.5930   3.7341   3.7825   3.8493   3.9008
     4.1076   4.2471   4.2784   4.3727   4.5004   4.5707   4.5891   4.6947
     4.7865   4.9125   5.0503   5.1388   5.2000   5.2411   5.3849   5.4050
     5.4613   5.4831   5.6328   5.7687   5.8775   5.9181   6.0406   6.1024
     6.2746   6.3699   6.5382   6.5683   6.6642   6.7240   6.7632   6.8151
     6.9179   6.9529   7.0788   7.1347   7.2165   7.2278   7.2809   7.3089
     7.4638   7.5073   7.6421   7.6693   7.8696   7.8843   7.9120   7.9257
    10.5733  10.6276  10.7157  10.8518  11.1545  11.2696  11.8231  11.8957
    12.0252  12.0553  12.1905  12.3034  12.5082  12.5296  12.6508  12.7291
    12.9243  12.9628  13.0692  13.1598  13.2884  13.4739  13.7274  13.7871
    15.0489  15.1017  15.3779  15.6446  15.7954  15.8884  16.1139  16.2915
    16.5972  16.8675  16.9468  17.1574  17.6422

          k = 0.0000 0.3150-0.5000 ( 62306 PWs)   bands (ev):

   -66.1675 -66.1675 -66.1664 -66.1664 -66.1608 -66.1608 -66.1598 -66.1598
   -30.6988 -30.6988 -30.6685 -30.6685 -30.6649 -30.6649 -30.5987 -30.5987
   -30.4993 -30.4993 -30.4760 -30.4760 -30.4683 -30.4683 -30.4040 -30.4040
   -30.3806 -30.3806 -30.3766 -30.3766 -30.3533 -30.3533 -30.3498 -30.3498
   -20.3236 -20.3235 -20.3233 -20.3233 -20.3150 -20.3150 -20.3148 -20.3148
   -20.3093 -20.3093 -20.3078 -20.3078 -20.3073 -20.3073 -20.3018 -20.3018
   -20.2982 -20.2982 -20.2980 -20.2980 -20.2951 -20.2951 -20.2951 -20.2951
   -20.2937 -20.2937 -20.2928 -20.2928 -20.2881 -20.2881 -20.2877 -20.2877
   -20.2861 -20.2861 -20.2854 -20.2854 -20.2823 -20.2823 -20.2808 -20.2808
   -20.2800 -20.2800 -20.2790 -20.2790 -20.2781 -20.2781 -20.2770 -20.2770
   -20.2764 -20.2764 -20.2734 -20.2734 -20.2687 -20.2687 -20.2656 -20.2656
    -9.7562  -9.7562  -9.5063  -9.5063  -8.9899  -8.9899  -8.8416  -8.8416
    -8.6757  -8.6757  -8.6467  -8.6467  -8.2666  -8.2666  -8.2231  -8.2231
    -8.0146  -8.0146  -7.7844  -7.7844  -7.7284  -7.7284  -7.7126  -7.7126
     1.0903   1.0903   1.3487   1.3487   2.6437   2.6437   2.7404   2.7404
     2.8193   2.8193   2.8615   2.8615   2.9873   2.9874   3.0687   3.0687
     3.1590   3.1590   3.2773   3.2773   3.5144   3.5144   3.7494   3.7494
     3.9646   3.9646   4.0362   4.0362   4.2743   4.2743   4.4396   4.4396
     4.8778   4.8778   5.0259   5.0259   5.1229   5.1229   5.2621   5.2621
     5.4280   5.4280   5.7427   5.7427   5.9206   5.9206   6.0535   6.0536
     6.2800   6.2800   6.5430   6.5430   6.6376   6.6376   6.7632   6.7632
     7.1610   7.1610   7.1831   7.1831   7.2400   7.2401   7.3957   7.3957
     7.4463   7.4463   7.7254   7.7254   7.7535   7.7536   7.9121   7.9121
    10.6311  10.6311  11.3906  11.3906  11.5404  11.5404  11.7477  11.7477
    11.9130  11.9130  11.9954  11.9954  12.4484  12.4484  12.5793  12.5793
    12.8216  12.8216  13.0396  13.0396  13.4596  13.4596  13.6024  13.6024
    15.0784  15.0784  15.6115  15.6115  16.0713  16.0713  16.1636  16.1637
    16.9264  16.9264  17.3639  17.3639  17.7122

          k = 0.0000-0.4725 0.0000 ( 62212 PWs)   bands (ev):

   -66.1680 -66.1671 -66.1669 -66.1660 -66.1613 -66.1604 -66.1603 -66.1593
   -30.7203 -30.7163 -30.7014 -30.6961 -30.6158 -30.6126 -30.6031 -30.5954
   -30.5234 -30.5126 -30.5025 -30.4960 -30.4283 -30.4222 -30.4064 -30.4015
   -30.3732 -30.3694 -30.3679 -30.3658 -30.3640 -30.3620 -30.3614 -30.3577
   -20.3237 -20.3235 -20.3234 -20.3232 -20.3155 -20.3153 -20.3145 -20.3144
   -20.3094 -20.3091 -20.3078 -20.3077 -20.3073 -20.3072 -20.3019 -20.3017
   -20.3008 -20.3006 -20.2956 -20.2956 -20.2954 -20.2954 -20.2948 -20.2947
   -20.2940 -20.2935 -20.2932 -20.2924 -20.2885 -20.2878 -20.2876 -20.2875
   -20.2869 -20.2866 -20.2850 -20.2846 -20.2836 -20.2836 -20.2804 -20.2801
   -20.2800 -20.2794 -20.2792 -20.2786 -20.2784 -20.2782 -20.2778 -20.2774
   -20.2751 -20.2746 -20.2736 -20.2732 -20.2692 -20.2682 -20.2662 -20.2650
   -10.0009  -9.9681  -9.7181  -9.6358  -9.3734  -9.2954  -9.1615  -9.1308
    -8.1591  -8.1422  -8.0654  -8.0594  -8.0511  -8.0364  -8.0327  -8.0315
    -7.9893  -7.9789  -7.9473  -7.9274  -7.7968  -7.7640  -7.7059  -7.6777
     0.9095   0.9838   0.9920   1.1178   1.2180   1.3393   1.4206   1.5045
     2.1384   2.1478   2.9758   3.0279   3.0331   3.0906   3.3943   3.4547
     3.4857   3.5638   3.5828   3.5890   3.7684   3.7845   3.9737   4.0043
     4.0788   4.0875   4.3152   4.3539   4.4672   4.5155   5.1984   5.2840
     5.3574   5.3985   5.4028   5.4162   5.4335   5.4601   5.6296   5.6602
     5.7163   5.7248   5.8805   5.8808   6.0562   6.1029   6.1036   6.1260
     6.1942   6.3307   6.3676   6.4341   6.5627   6.5900   6.6584   6.7053
     6.7418   6.7756   6.9049   6.9197   7.1349   7.2186   7.4597   7.4865
     7.5568   7.5848   7.6816   7.7054   7.7376   7.7773   7.8113   7.8340
     9.8379   9.8638  10.9521  11.0120  11.0978  11.1285  11.3438  11.4511
    11.4701  11.5621  12.4572  12.4717  12.6699  12.7025  12.9070  12.9599
    13.2132  13.2383  13.2867  13.2978  13.3571  13.3737  13.8751  13.9138
    15.1867  15.3339  15.4097  15.4640  15.7041  15.8275  15.8360  15.8842
    16.0537  16.0652  17.4344  17.4363  17.7821

          k = 0.0000-0.4725 0.1667 ( 62246 PWs)   bands (ev):

   -66.1679 -66.1671 -66.1668 -66.1660 -66.1613 -66.1603 -66.1603 -66.1594
   -30.7134 -30.7094 -30.7010 -30.6965 -30.6229 -30.6196 -30.6024 -30.5958
   -30.5171 -30.5068 -30.5021 -30.4965 -30.4347 -30.4285 -30.4061 -30.4019
   -30.3729 -30.3690 -30.3682 -30.3655 -30.3643 -30.3617 -30.3617 -30.3580
   -20.3237 -20.3234 -20.3234 -20.3232 -20.3154 -20.3152 -20.3146 -20.3144
   -20.3094 -20.3091 -20.3078 -20.3077 -20.3073 -20.3072 -20.3019 -20.3017
   -20.3005 -20.3003 -20.2958 -20.2958 -20.2955 -20.2955 -20.2948 -20.2947
   -20.2939 -20.2936 -20.2931 -20.2925 -20.2884 -20.2878 -20.2876 -20.2875
   -20.2869 -20.2865 -20.2848 -20.2846 -20.2839 -20.2832 -20.2803 -20.2803
   -20.2800 -20.2794 -20.2792 -20.2787 -20.2785 -20.2781 -20.2778 -20.2773
   -20.2754 -20.2749 -20.2736 -20.2732 -20.2691 -20.2682 -20.2661 -20.2651
    -9.9283  -9.9252  -9.6474  -9.6261  -9.3128  -9.2852  -9.1097  -9.1090
    -8.2609  -8.1663  -8.1480  -8.0788  -8.0716  -8.0439  -8.0420  -8.0288
    -8.0171  -7.9846  -7.9623  -7.9301  -7.9025  -7.8174  -7.7589  -7.6835
     1.0360   1.1106   1.1249   1.2495   1.3411   1.4803   1.5793   1.6294
     2.2258   2.2390   3.0009   3.0232   3.0940   3.1098   3.4178   3.4631
     3.5240   3.5553   3.5746   3.5829   3.7541   3.8377   3.9737   3.9957
     4.0749   4.0932   4.1183   4.1350   4.3808   4.4749   5.0226   5.0929
     5.1892   5.2200   5.3387   5.3699   5.3982   5.4675   5.5023   5.5356
     5.6197   5.6288   5.6603   5.7674   5.7746   5.9381   6.1029   6.1464
     6.3712   6.4019   6.4214   6.5406   6.5566   6.6029   6.6664   6.7567
     6.7964   6.9288   6.9908   7.0161   7.0428   7.1203   7.4704   7.4829
     7.5646   7.5832   7.6889   7.7050   7.7288   7.7656   7.8110   7.8134
    10.1030  10.1329  11.0562  11.1117  11.1304  11.1341  11.4291  11.4647
    11.5662  11.5758  12.3836  12.5239  12.7151  12.7609  12.7987  12.9201
    13.1221  13.1498  13.2099  13.2262  13.2559  13.3196  13.8733  13.8848
    15.1694  15.3926  15.4288  15.7030  15.8120  15.8358  16.0049  16.0835
    16.1335  16.1387  17.3619  17.4098  17.6241

          k = 0.0000-0.4725 0.3333 ( 62268 PWs)   bands (ev):

   -66.1677 -66.1673 -66.1667 -66.1662 -66.1611 -66.1605 -66.1601 -66.1596
   -30.7001 -30.6974 -30.6945 -30.6907 -30.6422 -30.6388 -30.6007 -30.5970
   -30.5009 -30.4997 -30.4977 -30.4908 -30.4522 -30.4454 -30.4052 -30.4028
   -30.3719 -30.3692 -30.3681 -30.3655 -30.3645 -30.3624 -30.3608 -30.3587
   -20.3236 -20.3235 -20.3234 -20.3233 -20.3152 -20.3150 -20.3147 -20.3146
   -20.3093 -20.3092 -20.3078 -20.3078 -20.3073 -20.3073 -20.3019 -20.3018
   -20.2995 -20.2993 -20.2968 -20.2967 -20.2953 -20.2953 -20.2949 -20.2948
   -20.2939 -20.2936 -20.2930 -20.2926 -20.2882 -20.2878 -20.2877 -20.2875
   -20.2866 -20.2861 -20.2854 -20.2846 -20.2836 -20.2822 -20.2811 -20.2803
   -20.2801 -20.2795 -20.2793 -20.2792 -20.2783 -20.2779 -20.2777 -20.2770
   -20.2761 -20.2756 -20.2735 -20.2733 -20.2690 -20.2684 -20.2659 -20.2653
    -9.8367  -9.7281  -9.6829  -9.3732  -9.3644  -9.0349  -9.0314  -8.9382
    -8.5721  -8.4994  -8.2878  -8.2839  -8.0865  -8.0862  -8.0462  -8.0363
    -8.0221  -8.0100  -7.9866  -7.9725  -7.9446  -7.9411  -7.7433  -7.6994
     1.0766   1.1001   1.3256   1.3459   1.9563   2.1375   2.1731   2.2755
     2.4803   2.4896   3.0168   3.0236   3.1957   3.2427   3.3577   3.4693
     3.4743   3.5077   3.5175   3.5931   3.6580   3.6618   3.7502   3.9139
     3.9453   4.0119   4.0891   4.1237   4.3266   4.3998   4.4846   4.6580
     4.6582   4.7069   4.8716   5.0021   5.1310   5.1612   5.2190   5.2542
     5.4481   5.5163   5.6333   5.7212   5.8790   5.9215   6.0970   6.1594
     6.2783   6.4168   6.5186   6.5454   6.6095   6.6336   6.6495   6.8284
     6.9271   6.9637   7.0957   7.1878   7.3079   7.3324   7.4567   7.4886
     7.5897   7.6179   7.6269   7.6576   7.7261   7.7535   7.7567   7.8066
    10.6806  10.7881  11.1059  11.1384  11.3939  11.4471  11.4602  11.6407
    11.7507  11.8726  12.0431  12.3115  12.6118  12.6481  12.6705  12.6851
    12.8495  12.9441  12.9636  12.9936  13.2930  13.4029  13.7225  13.7681
    15.1959  15.3611  15.6019  15.7764  16.2554  16.2717  16.3874  16.4493
    16.5669  16.6292  17.0288  17.2567  17.3370

          k = 0.0000-0.4725-0.5000 ( 62284 PWs)   bands (ev):

   -66.1675 -66.1675 -66.1664 -66.1664 -66.1608 -66.1608 -66.1599 -66.1598
   -30.6988 -30.6988 -30.6685 -30.6685 -30.6649 -30.6649 -30.5987 -30.5987
   -30.4993 -30.4993 -30.4760 -30.4760 -30.4683 -30.4683 -30.4040 -30.4040
   -30.3706 -30.3706 -30.3668 -30.3668 -30.3634 -30.3634 -30.3598 -30.3597
   -20.3236 -20.3235 -20.3233 -20.3233 -20.3150 -20.3150 -20.3148 -20.3148
   -20.3093 -20.3093 -20.3078 -20.3078 -20.3073 -20.3073 -20.3018 -20.3018
   -20.2982 -20.2982 -20.2980 -20.2980 -20.2951 -20.2951 -20.2951 -20.2951
   -20.2937 -20.2937 -20.2928 -20.2928 -20.2880 -20.2879 -20.2876 -20.2876
   -20.2861 -20.2861 -20.2854 -20.2854 -20.2823 -20.2823 -20.2808 -20.2808
   -20.2802 -20.2802 -20.2792 -20.2792 -20.2781 -20.2781 -20.2770 -20.2770
   -20.2764 -20.2764 -20.2734 -20.2734 -20.2687 -20.2687 -20.2656 -20.2656
    -9.7466  -9.7466  -9.5085  -9.5085  -8.9809  -8.9809  -8.8403  -8.8402
    -8.6663  -8.6662  -8.6416  -8.6416  -8.0905  -8.0905  -8.0436  -8.0436
    -8.0196  -8.0196  -7.9809  -7.9809  -7.9526  -7.9525  -7.7213  -7.7213
     1.0901   1.0901   1.3489   1.3489   2.7573   2.7573   2.8339   2.8339
     2.8711   2.8711   2.9954   2.9954   3.1328   3.1328   3.2078   3.2078
     3.3771   3.3771   3.4466   3.4466   3.4941   3.4941   3.6031   3.6031
     3.7772   3.7772   3.9985   3.9985   4.3545   4.3545   4.4390   4.4390
     4.5361   4.5361   4.6212   4.6212   4.9192   4.9192   5.1374   5.1374
     5.4852   5.4852   5.7183   5.7183   5.9242   5.9242   6.0981   6.0981
     6.3007   6.3007   6.5761   6.5761   6.5877   6.5877   6.6431   6.6431
     7.2646   7.2646   7.3043   7.3043   7.3216   7.3216   7.4027   7.4027
     7.5348   7.5348   7.6846   7.6846   7.7210   7.7210   7.7763   7.7763
    11.0759  11.0759  11.3848  11.3848  11.4503  11.4503  11.6639  11.6639
    11.9903  11.9903  12.0640  12.0640  12.2797  12.2797  12.3545  12.3545
    12.8472  12.8472  12.9644  12.9645  13.4457  13.4457  13.5719  13.5719
    15.2867  15.2867  15.7125  15.7125  16.5788  16.5789  16.7126  16.7126
    16.9757  16.9757  17.1334  17.1337  17.2393

          k = 0.1667 0.0000 0.1667 ( 62234 PWs)   bands (ev):

   -66.1678 -66.1671 -66.1669 -66.1661 -66.1612 -66.1604 -66.1603 -66.1594
   -30.7131 -30.7097 -30.6944 -30.6898 -30.6227 -30.6199 -30.6088 -30.6026
   -30.5166 -30.5078 -30.4957 -30.4902 -30.4347 -30.4294 -30.4128 -30.4086
   -30.3956 -30.3917 -30.3905 -30.3866 -30.3419 -30.3389 -30.3383 -30.3354
   -20.3237 -20.3235 -20.3234 -20.3232 -20.3154 -20.3153 -20.3146 -20.3144
   -20.3090 -20.3088 -20.3076 -20.3076 -20.3073 -20.3073 -20.3024 -20.3022
   -20.3005 -20.3003 -20.2958 -20.2958 -20.2956 -20.2955 -20.2948 -20.2947
   -20.2939 -20.2935 -20.2932 -20.2925 -20.2888 -20.2884 -20.2882 -20.2878
   -20.2870 -20.2865 -20.2848 -20.2847 -20.2839 -20.2835 -20.2804 -20.2797
   -20.2794 -20.2790 -20.2787 -20.2783 -20.2781 -20.2779 -20.2774 -20.2772
   -20.2754 -20.2749 -20.2738 -20.2735 -20.2690 -20.2681 -20.2664 -20.2654
    -9.9729  -9.7995  -9.6586  -9.5855  -9.3085  -9.2339  -9.0875  -9.0562
    -8.5901  -8.4942  -8.4927  -8.4898  -8.2219  -8.1713  -8.1258  -8.0971
    -7.9148  -7.8774  -7.8397  -7.8036  -7.5175  -7.4598  -7.4457  -7.3928
     1.1832   1.2479   1.2504   1.3567   1.4837   1.5882   1.6565   1.7441
     2.0793   2.1254   2.1514   2.2476   2.2797   2.3756   2.7095   2.8677
     2.9063   2.9247   3.9645   4.0248   4.1027   4.1740   4.1998   4.2792
     4.3056   4.4168   4.5950   4.7498   4.8725   4.9562   5.0671   5.1022
     5.1889   5.3047   5.3256   5.4109   5.4428   5.5365   5.5611   5.5969
     5.6215   5.6801   5.7011   5.8846   5.9531   6.0267   6.1309   6.2643
     6.2791   6.4941   6.5147   6.5691   6.7078   6.7326   6.7515   6.8286
     6.8856   6.8931   6.9383   6.9799   7.0393   7.1418   7.1886   7.2050
     7.2571   7.2802   7.7398   7.7633   8.0048   8.0275   8.1217   8.1806
    10.0920  10.0960  10.2163  10.2410  10.4143  10.4792  12.1313  12.3133
    12.3556  12.3741  12.4251  12.4861  12.6426  12.6910  12.8392  12.9031
    12.9549  13.0087  13.2941  13.3799  13.4103  13.5822  13.8047  13.9124
    14.3075  14.4855  14.5473  15.0327  15.1280  15.4921  15.7175  16.2536
    16.2828  16.9459  16.9634  17.0972  17.6071

          k = 0.1667 0.0000 0.3333 ( 62265 PWs)   bands (ev):

   -66.1677 -66.1672 -66.1667 -66.1663 -66.1610 -66.1605 -66.1602 -66.1596
   -30.6943 -30.6934 -30.6910 -30.6908 -30.6421 -30.6391 -30.6073 -30.6037
   -30.4993 -30.4946 -30.4916 -30.4914 -30.4520 -30.4462 -30.4119 -30.4095
   -30.3946 -30.3917 -30.3907 -30.3878 -30.3411 -30.3390 -30.3381 -30.3361
   -20.3236 -20.3234 -20.3234 -20.3233 -20.3152 -20.3150 -20.3147 -20.3146
   -20.3090 -20.3089 -20.3077 -20.3076 -20.3073 -20.3073 -20.3024 -20.3023
   -20.2995 -20.2993 -20.2968 -20.2967 -20.2954 -20.2954 -20.2949 -20.2949
   -20.2938 -20.2935 -20.2930 -20.2926 -20.2887 -20.2883 -20.2883 -20.2880
   -20.2866 -20.2861 -20.2853 -20.2846 -20.2837 -20.2824 -20.2811 -20.2798
   -20.2797 -20.2794 -20.2787 -20.2784 -20.2778 -20.2777 -20.2774 -20.2771
   -20.2761 -20.2757 -20.2738 -20.2735 -20.2688 -20.2683 -20.2662 -20.2656
    -9.8286  -9.6389  -9.6264  -9.4034  -9.2945  -9.0662  -8.9886  -8.9277
    -8.7071  -8.5695  -8.4744  -8.4681  -8.4574  -8.4206  -8.2153  -8.1957
    -8.1313  -8.0895  -7.8632  -7.8201  -7.5061  -7.4724  -7.4354  -7.4044
     1.3290   1.3538   1.5455   1.5939   1.9011   1.9616   2.0731   2.1180
     2.1366   2.2168   2.2661   2.4184   2.5448   2.6389   2.7948   2.8903
     3.0714   3.1379   3.4862   3.6735   3.8511   3.9939   4.1260   4.1801
     4.2459   4.2916   4.4390   4.4786   4.5019   4.6435   4.6913   4.7557
     4.9170   4.9706   4.9797   5.0904   5.1216   5.3092   5.4409   5.5771
     5.6285   5.6639   5.6896   5.8085   6.0173   6.0765   6.1907   6.2710
     6.3387   6.4326   6.5550   6.6833   6.6974   6.7531   6.7824   6.8394
     6.9209   6.9912   7.0145   7.0672   7.0894   7.1153   7.2395   7.2449
     7.3509   7.4285   7.6478   7.6522   7.9557   8.0056   8.0594   8.1172
    10.1622  10.1665  10.7238  10.8225  10.9174  11.0848  12.0527  12.0978
    12.2285  12.2855  12.4059  12.4744  12.5482  12.6329  12.6595  12.7813
    12.9202  13.0410  13.2617  13.2911  13.3740  13.4094  13.6601  13.6989
    14.3547  14.5134  14.6210  14.9543  15.3640  15.9116  16.0566  16.1101
    16.5813  17.0543  17.4802  17.5283  17.5784

          k = 0.1667 0.0000-0.5000 ( 62322 PWs)   bands (ev):

   -66.1675 -66.1674 -66.1665 -66.1665 -66.1607 -66.1607 -66.1599 -66.1599
   -30.6921 -30.6921 -30.6683 -30.6682 -30.6651 -30.6651 -30.6054 -30.6054
   -30.4930 -30.4930 -30.4757 -30.4757 -30.4691 -30.4690 -30.4107 -30.4107
   -30.3932 -30.3932 -30.3893 -30.3893 -30.3400 -30.3400 -30.3371 -30.3371
   -20.3235 -20.3235 -20.3234 -20.3233 -20.3150 -20.3149 -20.3148 -20.3148
   -20.3089 -20.3089 -20.3077 -20.3077 -20.3073 -20.3073 -20.3023 -20.3023
   -20.2982 -20.2982 -20.2980 -20.2980 -20.2952 -20.2952 -20.2951 -20.2951
   -20.2937 -20.2936 -20.2928 -20.2928 -20.2885 -20.2885 -20.2882 -20.2881
   -20.2860 -20.2860 -20.2854 -20.2854 -20.2823 -20.2823 -20.2810 -20.2810
   -20.2796 -20.2796 -20.2785 -20.2785 -20.2776 -20.2776 -20.2770 -20.2770
   -20.2764 -20.2764 -20.2737 -20.2736 -20.2685 -20.2685 -20.2659 -20.2659
    -9.7034  -9.7034  -9.4319  -9.4319  -9.0384  -9.0384  -8.8232  -8.8231
    -8.7295  -8.7295  -8.6578  -8.6578  -8.4305  -8.4305  -8.3965  -8.3965
    -8.1285  -8.1285  -7.8417  -7.8417  -7.4894  -7.4894  -7.4201  -7.4201
     1.3454   1.3454   1.5927   1.5927   2.0637   2.0637   2.1121   2.1121
     2.7735   2.7735   2.8244   2.8244   2.9285   2.9285   3.0073   3.0074
     3.1362   3.1362   3.2365   3.2365   3.4879   3.4879   3.7401   3.7401
     3.7848   3.7848   4.3874   4.3874   4.5817   4.5817   4.7063   4.7063
     4.7391   4.7391   4.9631   4.9631   5.0922   5.0922   5.4881   5.4881
     5.6439   5.6439   5.7300   5.7300   6.0546   6.0546   6.2673   6.2674
     6.3865   6.3865   6.5640   6.5640   6.7227   6.7227   6.8569   6.8569
     6.9231   6.9231   7.0250   7.0250   7.2160   7.2160   7.4053   7.4053
     7.4355   7.4355   7.7283   7.7283   7.7907   7.7907   8.0745   8.0745
    10.1728  10.1728  11.4179  11.4179  11.5384  11.5385  11.5902  11.5902
    11.8461  11.8461  12.3916  12.3916  12.5404  12.5404  12.8998  12.8998
    13.0412  13.0412  13.0808  13.0808  13.3484  13.3484  13.5362  13.5362
    14.4498  14.4498  14.8128  14.8128  15.7161  15.7162  16.2615  16.2615
    16.8511  16.8511  17.8289  17.8289  18.0805

          k = 0.1667 0.1575 0.1667 ( 62255 PWs)   bands (ev):

   -66.1678 -66.1671 -66.1669 -66.1661 -66.1612 -66.1604 -66.1603 -66.1595
   -30.7131 -30.7097 -30.6944 -30.6898 -30.6227 -30.6199 -30.6088 -30.6026
   -30.5166 -30.5078 -30.4957 -30.4902 -30.4346 -30.4293 -30.4128 -30.4086
   -30.3921 -30.3883 -30.3871 -30.3833 -30.3454 -30.3424 -30.3418 -30.3388
   -20.3236 -20.3235 -20.3234 -20.3232 -20.3154 -20.3153 -20.3146 -20.3144
   -20.3090 -20.3088 -20.3076 -20.3076 -20.3073 -20.3073 -20.3024 -20.3022
   -20.3005 -20.3003 -20.2959 -20.2958 -20.2956 -20.2955 -20.2948 -20.2947
   -20.2939 -20.2935 -20.2932 -20.2925 -20.2887 -20.2883 -20.2880 -20.2877
   -20.2870 -20.2865 -20.2848 -20.2847 -20.2839 -20.2834 -20.2804 -20.2798
   -20.2795 -20.2791 -20.2789 -20.2785 -20.2781 -20.2779 -20.2775 -20.2772
   -20.2754 -20.2749 -20.2738 -20.2735 -20.2690 -20.2681 -20.2664 -20.2654
    -9.9583  -9.8079  -9.6530  -9.5784  -9.3068  -9.2324  -9.0870  -9.0557
    -8.5301  -8.4437  -8.4408  -8.4379  -8.2209  -8.1694  -8.1256  -8.0952
    -7.9152  -7.8785  -7.8407  -7.8046  -7.5977  -7.5434  -7.5298  -7.4802
     1.1835   1.2466   1.2516   1.3578   1.4838   1.5894   1.6722   1.7511
     2.2357   2.2992   2.3134   2.3431   2.3616   2.4446   2.7803   2.9528
     2.9876   2.9956   3.9211   3.9751   4.0559   4.1166   4.1707   4.1842
     4.2004   4.2723   4.5506   4.7676   4.8740   4.9776   5.0486   5.0820
     5.1431   5.2891   5.3169   5.3717   5.4029   5.4325   5.5024   5.5533
     5.5848   5.6233   5.6951   5.8520   5.9034   5.9502   6.0372   6.1466
     6.3299   6.4580   6.5150   6.5626   6.6662   6.7763   6.8133   6.8535
     6.8604   6.9162   6.9489   6.9703   6.9949   7.0683   7.2054   7.2355
     7.2620   7.2829   7.7384   7.7621   7.9880   8.0091   8.0869   8.1202
    10.1981  10.2106  10.3497  10.3623  10.4620  10.5553  12.0642  12.2234
    12.2514  12.3569  12.4160  12.4570  12.5544  12.7190  12.8176  12.8887
    12.9573  13.0038  13.2759  13.3894  13.4510  13.5558  13.8256  13.8822
    14.4674  14.7079  14.7406  15.1516  15.4137  15.5003  15.7353  16.2391
    16.2631  16.8536  17.0156  17.0450  17.5076

          k = 0.1667 0.1575 0.3333 ( 62260 PWs)   bands (ev):

   -66.1677 -66.1672 -66.1667 -66.1663 -66.1610 -66.1605 -66.1602 -66.1596
   -30.6943 -30.6934 -30.6910 -30.6908 -30.6421 -30.6391 -30.6073 -30.6037
   -30.4993 -30.4946 -30.4916 -30.4914 -30.4519 -30.4461 -30.4119 -30.4094
   -30.3911 -30.3883 -30.3873 -30.3845 -30.3446 -30.3425 -30.3416 -30.3395
   -20.3236 -20.3234 -20.3234 -20.3233 -20.3152 -20.3150 -20.3147 -20.3146
   -20.3090 -20.3089 -20.3077 -20.3076 -20.3073 -20.3073 -20.3024 -20.3023
   -20.2995 -20.2993 -20.2968 -20.2967 -20.2954 -20.2954 -20.2949 -20.2949
   -20.2938 -20.2935 -20.2930 -20.2926 -20.2885 -20.2882 -20.2881 -20.2878
   -20.2866 -20.2861 -20.2853 -20.2846 -20.2836 -20.2824 -20.2811 -20.2798
   -20.2798 -20.2795 -20.2788 -20.2786 -20.2778 -20.2777 -20.2774 -20.2770
   -20.2761 -20.2756 -20.2738 -20.2735 -20.2688 -20.2683 -20.2662 -20.2656
    -9.8140  -9.6464  -9.6181  -9.3962  -9.2938  -9.0628  -8.9883  -8.9265
    -8.6672  -8.5482  -8.4308  -8.4274  -8.4203  -8.4051  -8.2112  -8.1888
    -8.1298  -8.0890  -7.8643  -7.8213  -7.5867  -7.5546  -7.5200  -7.4904
     1.3304   1.3551   1.5457   1.5952   1.9330   2.0501   2.1534   2.2362
     2.2645   2.3291   2.3659   2.4975   2.5551   2.6442   2.8638   2.9644
     3.1525   3.2053   3.4879   3.6691   3.8254   3.9727   4.0984   4.1621
     4.2348   4.2435   4.3521   4.3807   4.4450   4.6038   4.6529   4.7386
     4.8857   4.9017   4.9770   5.0672   5.0912   5.1759   5.4288   5.5021
     5.5742   5.6083   5.6637   5.7243   5.9073   5.9650   6.0326   6.1009
     6.3379   6.4641   6.6020   6.7030   6.7297   6.7664   6.8395   6.8577
     6.9122   6.9353   7.0583   7.0909   7.0985   7.1339   7.2364   7.2698
     7.3726   7.4499   7.6461   7.6537   7.9454   7.9813   8.0322   8.0681
    10.3220  10.3300  10.7728  10.9024  10.9363  11.1172  12.0439  12.1017
    12.2178  12.2747  12.3400  12.4307  12.5488  12.5625  12.5937  12.7038
    12.8859  13.0393  13.1906  13.2675  13.3527  13.4047  13.6670  13.6981
    14.5565  14.7045  14.9261  15.2648  15.4500  15.9162  16.0705  16.1327
    16.6035  17.0317  17.2871  17.5599  17.5973

          k = 0.1667 0.1575-0.5000 ( 62292 PWs)   bands (ev):

   -66.1675 -66.1674 -66.1665 -66.1665 -66.1607 -66.1607 -66.1599 -66.1599
   -30.6921 -30.6921 -30.6683 -30.6683 -30.6651 -30.6651 -30.6054 -30.6054
   -30.4930 -30.4930 -30.4757 -30.4756 -30.4690 -30.4690 -30.4107 -30.4107
   -30.3897 -30.3897 -30.3859 -30.3859 -30.3436 -30.3436 -30.3406 -30.3405
   -20.3235 -20.3235 -20.3234 -20.3233 -20.3150 -20.3149 -20.3148 -20.3148
   -20.3089 -20.3089 -20.3077 -20.3077 -20.3073 -20.3073 -20.3023 -20.3023
   -20.2982 -20.2982 -20.2980 -20.2980 -20.2952 -20.2952 -20.2951 -20.2951
   -20.2937 -20.2936 -20.2928 -20.2928 -20.2884 -20.2883 -20.2880 -20.2880
   -20.2860 -20.2860 -20.2854 -20.2854 -20.2823 -20.2823 -20.2810 -20.2810
   -20.2797 -20.2797 -20.2787 -20.2787 -20.2776 -20.2776 -20.2770 -20.2769
   -20.2764 -20.2764 -20.2737 -20.2736 -20.2685 -20.2685 -20.2659 -20.2659
    -9.6929  -9.6929  -9.4341  -9.4341  -9.0251  -9.0251  -8.8216  -8.8215
    -8.7205  -8.7204  -8.6482  -8.6482  -8.3904  -8.3904  -8.3602  -8.3602
    -8.1275  -8.1275  -7.8428  -7.8428  -7.5707  -7.5707  -7.5052  -7.5052
     1.3469   1.3469   1.5941   1.5941   2.2359   2.2359   2.3065   2.3066
     2.7981   2.7981   2.8463   2.8463   2.9379   2.9379   3.0218   3.0218
     3.1449   3.1449   3.2506   3.2506   3.5111   3.5111   3.7664   3.7664
     3.8427   3.8427   4.2552   4.2552   4.5028   4.5028   4.6536   4.6536
     4.7032   4.7032   4.8848   4.8848   5.0443   5.0443   5.4775   5.4775
     5.5740   5.5740   5.6339   5.6339   5.9327   5.9327   6.0571   6.0572
     6.4299   6.4299   6.6099   6.6099   6.7645   6.7645   6.8610   6.8610
     6.9900   6.9901   7.0365   7.0365   7.2235   7.2235   7.4055   7.4055
     7.4382   7.4382   7.7317   7.7317   7.7859   7.7859   8.0393   8.0393
    10.3380  10.3380  11.4387  11.4387  11.5700  11.5700  11.6234  11.6234
    11.8631  11.8631  12.3652  12.3652  12.4526  12.4526  12.8210  12.8210
    12.9693  12.9693  13.0401  13.0401  13.3489  13.3489  13.5465  13.5465
    14.6514  14.6514  15.1472  15.1472  15.7628  15.7628  16.2601  16.2601
    16.8838  16.8838  17.7339  17.7339  17.9697

          k = 0.1667 0.3150 0.1667 ( 62249 PWs)   bands (ev):

   -66.1678 -66.1670 -66.1669 -66.1661 -66.1612 -66.1604 -66.1603 -66.1595
   -30.7132 -30.7097 -30.6944 -30.6898 -30.6227 -30.6199 -30.6089 -30.6026
   -30.5166 -30.5078 -30.4957 -30.4902 -30.4344 -30.4291 -30.4127 -30.4084
   -30.3826 -30.3791 -30.3780 -30.3744 -30.3550 -30.3518 -30.3512 -30.3481
   -20.3236 -20.3235 -20.3234 -20.3232 -20.3154 -20.3153 -20.3146 -20.3144
   -20.3090 -20.3088 -20.3076 -20.3076 -20.3073 -20.3073 -20.3024 -20.3022
   -20.3005 -20.3003 -20.2959 -20.2958 -20.2955 -20.2955 -20.2948 -20.2947
   -20.2939 -20.2935 -20.2932 -20.2925 -20.2885 -20.2880 -20.2878 -20.2875
   -20.2869 -20.2865 -20.2848 -20.2846 -20.2839 -20.2834 -20.2803 -20.2801
   -20.2798 -20.2792 -20.2791 -20.2787 -20.2781 -20.2780 -20.2775 -20.2773
   -20.2754 -20.2749 -20.2739 -20.2735 -20.2690 -20.2681 -20.2664 -20.2654
    -9.9220  -9.8319  -9.6424  -9.5648  -9.3035  -9.2296  -9.0861  -9.0550
    -8.3757  -8.3011  -8.2949  -8.2841  -8.2148  -8.1572  -8.1241  -8.0846
    -7.9185  -7.8859  -7.8508  -7.8123  -7.7979  -7.7514  -7.7400  -7.6948
     1.1837   1.2452   1.2522   1.3588   1.4836   1.5904   1.6863   1.7614
     2.2955   2.3451   2.7054   2.7617   2.8129   2.9138   2.9909   3.2235
     3.2401   3.3132   3.6854   3.7452   3.8158   3.8756   4.0742   4.1021
     4.1498   4.1739   4.2401   4.6652   4.6959   4.9254   4.9378   5.0547
     5.0698   5.1241   5.1564   5.1682   5.3205   5.3559   5.3724   5.4152
     5.5688   5.5914   5.6268   5.6749   5.7765   5.8372   5.8694   5.9790
     6.4058   6.4559   6.5284   6.5584   6.6321   6.7001   6.8287   6.8688
     6.9253   6.9768   6.9942   7.0196   7.0870   7.1071   7.2843   7.3050
     7.3557   7.3759   7.7279   7.7583   7.8914   7.9094   7.9377   7.9599
    10.3028  10.3297  10.7001  10.7271  10.7909  10.9104  11.7847  11.8683
    11.9292  12.0744  12.4161  12.4421  12.5858  12.7735  12.8260  12.9018
    12.9426  13.0265  13.1787  13.2865  13.3652  13.4073  13.8186  13.8362
    15.1212  15.2149  15.2869  15.3720  15.4752  15.8251  16.1406  16.1812
    16.3399  16.4572  16.9615  17.2158  17.2580

          k = 0.1667 0.3150 0.3333 ( 62265 PWs)   bands (ev):

   -66.1677 -66.1672 -66.1667 -66.1663 -66.1610 -66.1605 -66.1602 -66.1596
   -30.6943 -30.6934 -30.6910 -30.6908 -30.6421 -30.6391 -30.6073 -30.6037
   -30.4993 -30.4946 -30.4916 -30.4914 -30.4518 -30.4460 -30.4118 -30.4093
   -30.3817 -30.3790 -30.3781 -30.3755 -30.3542 -30.3520 -30.3510 -30.3489
   -20.3236 -20.3234 -20.3234 -20.3233 -20.3152 -20.3151 -20.3147 -20.3146
   -20.3090 -20.3089 -20.3077 -20.3076 -20.3073 -20.3073 -20.3024 -20.3023
   -20.2995 -20.2993 -20.2968 -20.2967 -20.2954 -20.2953 -20.2949 -20.2949
   -20.2938 -20.2935 -20.2930 -20.2926 -20.2883 -20.2879 -20.2879 -20.2876
   -20.2866 -20.2861 -20.2853 -20.2846 -20.2836 -20.2823 -20.2810 -20.2800
   -20.2799 -20.2797 -20.2792 -20.2790 -20.2779 -20.2776 -20.2775 -20.2770
   -20.2761 -20.2756 -20.2738 -20.2735 -20.2688 -20.2683 -20.2662 -20.2656
    -9.7801  -9.6663  -9.6022  -9.3826  -9.2924  -9.0564  -8.9880  -8.9245
    -8.5981  -8.5136  -8.3738  -8.3322  -8.2809  -8.2723  -8.1814  -8.1527
    -8.1184  -8.0869  -7.8721  -7.8317  -7.7891  -7.7600  -7.7315  -7.7037
     1.3316   1.3566   1.5456   1.5964   1.9541   2.1282   2.1739   2.2655
     2.5572   2.5956   2.7408   2.7568   2.8360   2.9063   3.0745   3.1997
     3.3909   3.4328   3.4990   3.6528   3.7261   3.8230   3.8799   3.9332
     4.0853   4.1824   4.2457   4.3169   4.3755   4.5235   4.5633   4.6752
     4.7442   4.8314   4.8704   4.9446   5.0320   5.1190   5.1559   5.2022
     5.3624   5.4172   5.4590   5.5692   5.6463   5.6764   5.8637   5.9028
     6.3826   6.5133   6.6456   6.7265   6.7605   6.8182   6.8717   6.9154
     6.9558   7.0556   7.0961   7.1526   7.2085   7.2451   7.3135   7.3557
     7.4635   7.5077   7.6359   7.6590   7.8655   7.8808   7.9177   7.9268
    10.7001  10.7443  10.8798  10.9856  11.1674  11.2959  11.8884  11.9392
    12.0348  12.1226  12.2097  12.3356  12.5025  12.5281  12.6066  12.6986
    12.8620  12.9292  13.0259  13.0937  13.2592  13.3241  13.6352  13.6803
    15.1913  15.2412  15.5070  15.6814  15.9207  16.0631  16.1796  16.2900
    16.7196  16.8981  16.9563  17.1913  17.5863

          k = 0.1667 0.3150-0.5000 ( 62264 PWs)   bands (ev):

   -66.1675 -66.1674 -66.1665 -66.1665 -66.1607 -66.1607 -66.1599 -66.1599
   -30.6921 -30.6921 -30.6683 -30.6683 -30.6651 -30.6651 -30.6054 -30.6054
   -30.4930 -30.4930 -30.4756 -30.4756 -30.4690 -30.4689 -30.4106 -30.4106
   -30.3803 -30.3803 -30.3768 -30.3768 -30.3531 -30.3531 -30.3499 -30.3499
   -20.3235 -20.3235 -20.3234 -20.3233 -20.3150 -20.3149 -20.3148 -20.3148
   -20.3089 -20.3089 -20.3077 -20.3077 -20.3073 -20.3073 -20.3023 -20.3023
   -20.2982 -20.2982 -20.2980 -20.2980 -20.2952 -20.2951 -20.2951 -20.2951
   -20.2937 -20.2936 -20.2928 -20.2928 -20.2881 -20.2881 -20.2878 -20.2877
   -20.2860 -20.2860 -20.2854 -20.2854 -20.2822 -20.2822 -20.2809 -20.2809
   -20.2799 -20.2799 -20.2791 -20.2791 -20.2777 -20.2777 -20.2770 -20.2769
   -20.2764 -20.2764 -20.2737 -20.2737 -20.2685 -20.2685 -20.2659 -20.2659
    -9.6715  -9.6715  -9.4389  -9.4389  -9.0020  -9.0020  -8.8189  -8.8189
    -8.7026  -8.7026  -8.6333  -8.6333  -8.2641  -8.2641  -8.2368  -8.2368
    -8.1217  -8.1217  -7.8519  -7.8519  -7.7746  -7.7746  -7.7176  -7.7176
     1.3485   1.3485   1.5954   1.5954   2.6535   2.6535   2.7485   2.7485
     2.8324   2.8324   2.8957   2.8957   3.0027   3.0028   3.1018   3.1018
     3.1952   3.1952   3.3169   3.3169   3.5480   3.5480   3.7841   3.7842
     3.9584   3.9584   4.0510   4.0510   4.2671   4.2671   4.4270   4.4270
     4.6668   4.6668   4.7690   4.7690   5.0206   5.0206   5.1705   5.1705
     5.2318   5.2318   5.4592   5.4592   5.6528   5.6528   5.8811   5.8811
     6.4686   6.4686   6.6701   6.6701   6.7697   6.7697   6.9411   6.9411
     7.1496   7.1496   7.2119   7.2119   7.2772   7.2772   7.4017   7.4017
     7.4629   7.4629   7.7217   7.7217   7.7535   7.7535   7.9147   7.9147
    10.7664  10.7664  11.4814  11.4814  11.6109  11.6109  11.7724  11.7724
    11.9388  11.9388  12.0448  12.0448  12.4302  12.4302  12.5793  12.5793
    12.7797  12.7797  12.9815  12.9815  13.3334  13.3334  13.4850  13.4850
    15.2260  15.2260  15.7764  15.7764  16.0814  16.0814  16.3149  16.3149
    16.9722  16.9722  17.4060  17.4061  17.6801

          k = 0.1667-0.4725 0.1667 ( 62220 PWs)   bands (ev):

   -66.1678 -66.1670 -66.1669 -66.1661 -66.1612 -66.1604 -66.1603 -66.1595
   -30.7131 -30.7097 -30.6944 -30.6898 -30.6228 -30.6199 -30.6089 -30.6026
   -30.5165 -30.5078 -30.4957 -30.4902 -30.4343 -30.4290 -30.4127 -30.4084
   -30.3726 -30.3692 -30.3680 -30.3652 -30.3645 -30.3618 -30.3614 -30.3581
   -20.3236 -20.3235 -20.3234 -20.3232 -20.3154 -20.3153 -20.3146 -20.3144
   -20.3090 -20.3088 -20.3076 -20.3076 -20.3073 -20.3073 -20.3024 -20.3022
   -20.3005 -20.3003 -20.2959 -20.2958 -20.2955 -20.2955 -20.2948 -20.2947
   -20.2939 -20.2935 -20.2932 -20.2925 -20.2883 -20.2879 -20.2876 -20.2875
   -20.2869 -20.2865 -20.2848 -20.2846 -20.2839 -20.2833 -20.2802 -20.2802
   -20.2800 -20.2794 -20.2792 -20.2788 -20.2781 -20.2780 -20.2776 -20.2773
   -20.2754 -20.2749 -20.2739 -20.2735 -20.2690 -20.2681 -20.2664 -20.2654
    -9.8904  -9.8574  -9.6373  -9.5583  -9.3019  -9.2282  -9.0857  -9.0547
    -8.2636  -8.2369  -8.1736  -8.1540  -8.0776  -8.0749  -8.0559  -8.0437
    -8.0250  -8.0070  -7.9637  -7.9554  -7.8975  -7.8607  -7.8230  -7.7900
     1.1836   1.2446   1.2522   1.3591   1.4834   1.5907   1.6897   1.7649
     2.3159   2.3262   3.0074   3.0346   3.1207   3.1580   3.4190   3.4542
     3.5239   3.5437   3.5841   3.6578   3.7961   3.8336   3.9697   4.0053
     4.0635   4.0888   4.1200   4.1541   4.1979   4.2050   4.9783   5.0019
     5.0918   5.1183   5.1851   5.2177   5.3038   5.3194   5.3889   5.4111
     5.5605   5.5853   5.6098   5.6276   5.6829   5.7280   5.8373   5.8414
     6.4360   6.4464   6.5843   6.5910   6.6340   6.6423   6.8054   6.8278
     6.9283   6.9847   6.9990   7.0127   7.1109   7.1229   7.4773   7.4934
     7.5765   7.5913   7.6885   7.7060   7.7447   7.7574   7.8003   7.8034
    10.3205  10.3469  11.0720  11.1313  11.1923  11.2465  11.4484  11.5359
    11.5870  11.6577  12.4317  12.4486  12.7273  12.7519  12.8282  12.8571
    13.0326  13.1047  13.1284  13.2045  13.2199  13.2427  13.8095  13.8185
    15.3402  15.4322  15.6355  15.7056  15.9561  16.0139  16.0543  16.0703
    16.1978  16.2154  17.3331  17.3468  17.6107

          k = 0.1667-0.4725 0.3333 ( 62252 PWs)   bands (ev):

   -66.1677 -66.1672 -66.1667 -66.1663 -66.1610 -66.1605 -66.1602 -66.1596
   -30.6943 -30.6934 -30.6910 -30.6907 -30.6421 -30.6391 -30.6073 -30.6037
   -30.4993 -30.4946 -30.4916 -30.4913 -30.4518 -30.4459 -30.4118 -30.4093
   -30.3716 -30.3690 -30.3683 -30.3657 -30.3642 -30.3621 -30.3609 -30.3588
   -20.3236 -20.3234 -20.3234 -20.3233 -20.3152 -20.3151 -20.3147 -20.3146
   -20.3090 -20.3089 -20.3077 -20.3076 -20.3073 -20.3073 -20.3024 -20.3023
   -20.2995 -20.2993 -20.2968 -20.2967 -20.2954 -20.2953 -20.2949 -20.2949
   -20.2938 -20.2936 -20.2930 -20.2926 -20.2881 -20.2878 -20.2877 -20.2875
   -20.2866 -20.2861 -20.2854 -20.2846 -20.2835 -20.2823 -20.2810 -20.2802
   -20.2800 -20.2796 -20.2794 -20.2792 -20.2780 -20.2776 -20.2776 -20.2770
   -20.2761 -20.2756 -20.2738 -20.2735 -20.2688 -20.2683 -20.2662 -20.2656
    -9.7574  -9.6820  -9.5946  -9.3762  -9.2917  -9.0533  -8.9878  -8.9236
    -8.5756  -8.4992  -8.3352  -8.2801  -8.1690  -8.1075  -8.0699  -8.0650
    -8.0436  -8.0168  -8.0041  -8.0006  -7.9626  -7.9370  -7.8460  -7.8050
     1.3319   1.3569   1.5454   1.5967   1.9578   2.1421   2.1765   2.2720
     2.5810   2.5834   3.0509   3.0537   3.2122   3.2347   3.3808   3.4478
     3.4894   3.4957   3.5465   3.6556   3.7154   3.7412   3.7780   3.9205
     3.9473   4.0065   4.0739   4.1294   4.2719   4.2897   4.4065   4.5435
     4.6410   4.6923   4.8350   4.8977   4.9569   5.0040   5.0785   5.1373
     5.2383   5.2631   5.3623   5.5153   5.6428   5.6699   5.7586   5.8062
     6.3920   6.5268   6.6581   6.7482   6.7835   6.8328   6.8588   6.9386
     6.9653   7.0263   7.1115   7.2251   7.3125   7.3307   7.4725   7.5097
     7.5895   7.6217   7.6258   7.6460   7.7449   7.7537   7.7620   7.8023
    10.8315  10.8999  11.1982  11.2623  11.4168  11.4561  11.5542  11.6984
    11.7631  11.8718  12.1229  12.3501  12.5762  12.6185  12.6916  12.7102
    12.8182  12.8533  12.8974  12.9512  13.1687  13.2696  13.6159  13.6705
    15.4281  15.6114  15.7580  15.9539  16.3088  16.3243  16.4328  16.4514
    16.5719  16.6611  17.0755  17.2603  17.3463

          k = 0.1667-0.4725-0.5000 ( 62232 PWs)   bands (ev):

   -66.1675 -66.1674 -66.1665 -66.1665 -66.1607 -66.1607 -66.1599 -66.1599
   -30.6921 -30.6921 -30.6683 -30.6683 -30.6651 -30.6651 -30.6054 -30.6054
   -30.4930 -30.4930 -30.4756 -30.4756 -30.4689 -30.4689 -30.4105 -30.4105
   -30.3703 -30.3703 -30.3670 -30.3670 -30.3631 -30.3631 -30.3599 -30.3599
   -20.3235 -20.3235 -20.3234 -20.3233 -20.3150 -20.3149 -20.3148 -20.3148
   -20.3089 -20.3089 -20.3077 -20.3077 -20.3073 -20.3073 -20.3023 -20.3023
   -20.2982 -20.2982 -20.2980 -20.2980 -20.2952 -20.2951 -20.2951 -20.2951
   -20.2937 -20.2937 -20.2928 -20.2928 -20.2879 -20.2879 -20.2876 -20.2876
   -20.2860 -20.2860 -20.2854 -20.2854 -20.2822 -20.2822 -20.2809 -20.2809
   -20.2801 -20.2801 -20.2793 -20.2793 -20.2778 -20.2778 -20.2769 -20.2769
   -20.2764 -20.2764 -20.2737 -20.2737 -20.2685 -20.2685 -20.2659 -20.2659
    -9.6607  -9.6607  -9.4416  -9.4416  -8.9921  -8.9920  -8.8178  -8.8178
    -8.6943  -8.6943  -8.6276  -8.6276  -8.1554  -8.1554  -8.0695  -8.0695
    -8.0322  -8.0322  -8.0091  -8.0091  -7.9546  -7.9546  -7.8255  -7.8255
     1.3489   1.3489   1.5956   1.5957   2.7993   2.7993   2.8452   2.8452
     2.8910   2.8910   3.0146   3.0146   3.1662   3.1662   3.2164   3.2165
     3.3905   3.3905   3.4508   3.4508   3.5110   3.5110   3.6740   3.6740
     3.8068   3.8068   4.0146   4.0146   4.3350   4.3350   4.4227   4.4227
     4.5334   4.5334   4.5827   4.5827   4.7188   4.7189   4.8351   4.8351
     5.2260   5.2260   5.4111   5.4111   5.6532   5.6532   5.7787   5.7787
     6.4762   6.4762   6.6845   6.6845   6.7875   6.7875   6.9329   6.9329
     7.2693   7.2693   7.3157   7.3157   7.3378   7.3378   7.4089   7.4089
     7.5509   7.5509   7.6913   7.6914   7.7214   7.7215   7.7808   7.7808
    11.1686  11.1686  11.4574  11.4574  11.5618  11.5618  11.7420  11.7420
    11.9879  11.9879  12.0859  12.0859  12.2894  12.2894  12.3513  12.3513
    12.8109  12.8109  12.8752  12.8752  13.3136  13.3136  13.4472  13.4472
    15.5424  15.5424  15.8958  15.8958  16.6212  16.6212  16.7887  16.7887
    16.9646  16.9646  17.1232  17.1233  17.2481

          k = 0.3333 0.0000 0.3333 ( 62316 PWs)   bands (ev):

   -66.1675 -66.1670 -66.1669 -66.1665 -66.1608 -66.1603 -66.1603 -66.1598
   -30.6936 -30.6917 -30.6752 -30.6725 -30.6415 -30.6398 -30.6254 -30.6222
   -30.4979 -30.4936 -30.4773 -30.4743 -30.4509 -30.4476 -30.4296 -30.4271
   -30.3937 -30.3914 -30.3908 -30.3885 -30.3404 -30.3386 -30.3383 -30.3366
   -20.3236 -20.3235 -20.3234 -20.3233 -20.3152 -20.3151 -20.3147 -20.3146
   -20.3083 -20.3082 -20.3075 -20.3075 -20.3069 -20.3069 -20.3037 -20.3036
   -20.2995 -20.2994 -20.2968 -20.2968 -20.2954 -20.2954 -20.2949 -20.2949
   -20.2936 -20.2933 -20.2931 -20.2928 -20.2886 -20.2884 -20.2882 -20.2880
   -20.2865 -20.2862 -20.2852 -20.2847 -20.2834 -20.2827 -20.2809 -20.2801
   -20.2793 -20.2792 -20.2788 -20.2786 -20.2776 -20.2772 -20.2769 -20.2765
   -20.2760 -20.2757 -20.2745 -20.2743 -20.2684 -20.2678 -20.2669 -20.2663
    -9.6665  -9.4867  -9.4452  -9.3855  -9.1306  -9.0739  -8.8751  -8.8464
    -8.7921  -8.5560  -8.5210  -8.5032  -8.4543  -8.4352  -8.4010  -8.3439
    -8.1965  -8.1631  -8.1493  -8.0981  -7.4921  -7.4591  -7.4506  -7.4191
     1.8626   1.8904   1.9274   1.9619   2.0628   2.0682   2.1186   2.1741
     2.2518   2.3130   2.3703   2.5374   2.8082   2.9004   2.9589   3.0771
     3.1615   3.1912   3.5182   3.6164   3.8167   3.8766   3.9418   4.0227
     4.0860   4.1484   4.2324   4.2730   4.3088   4.3718   4.4392   4.4978
     4.5364   4.6541   4.8079   4.8749   4.8977   4.9877   5.0049   5.1172
     5.1719   5.3473   5.4916   5.6558   6.1849   6.1940   6.2522   6.2802
     6.5300   6.5725   6.6696   6.7190   6.7653   6.8048   6.8252   6.9327
     6.9746   7.0082   7.0783   7.0843   7.1388   7.2258   7.2713   7.3375
     7.4141   7.4970   7.5639   7.5901   7.9242   7.9609   8.0475   8.0846
    10.6574  10.6874  10.8599  10.8830  11.3432  11.4368  11.9693  12.0267
    12.1731  12.2252  12.3702  12.3802  12.5945  12.6577  12.6839  12.7341
    12.7893  12.8513  13.0757  13.2412  13.2623  13.3443  13.4281  13.5354
    14.3694  14.5561  14.5849  14.8726  15.8784  16.2810  16.4690  16.6534
    16.8697  17.1318  17.2994  17.6128  17.6673

          k = 0.3333 0.0000-0.5000 ( 62288 PWs)   bands (ev):

   -66.1673 -66.1672 -66.1667 -66.1667 -66.1606 -66.1605 -66.1601 -66.1601
   -30.6739 -30.6738 -30.6677 -30.6677 -30.6659 -30.6658 -30.6238 -30.6237
   -30.4759 -30.4759 -30.4744 -30.4744 -30.4706 -30.4706 -30.4283 -30.4283
   -30.3923 -30.3923 -30.3900 -30.3900 -30.3393 -30.3393 -30.3376 -30.3376
   -20.3235 -20.3235 -20.3234 -20.3234 -20.3149 -20.3149 -20.3148 -20.3148
   -20.3083 -20.3082 -20.3075 -20.3075 -20.3069 -20.3069 -20.3037 -20.3036
   -20.2982 -20.2982 -20.2980 -20.2980 -20.2953 -20.2952 -20.2951 -20.2951
   -20.2935 -20.2934 -20.2930 -20.2930 -20.2884 -20.2884 -20.2882 -20.2882
   -20.2859 -20.2859 -20.2855 -20.2855 -20.2821 -20.2821 -20.2813 -20.2813
   -20.2793 -20.2792 -20.2787 -20.2787 -20.2769 -20.2769 -20.2767 -20.2767
   -20.2765 -20.2765 -20.2744 -20.2744 -20.2681 -20.2681 -20.2666 -20.2666
    -9.4831  -9.4831  -9.2557  -9.2557  -9.0898  -9.0898  -8.8224  -8.8224
    -8.7293  -8.7292  -8.6264  -8.6263  -8.4279  -8.4279  -8.4105  -8.4105
    -8.3760  -8.3760  -8.1291  -8.1291  -7.4757  -7.4757  -7.4351  -7.4351
[...]
   -20.2196 -20.2196 -20.2195 -20.2195 -20.2172 -20.2172 -20.2163 -20.2163
   -20.2159 -20.2159 -20.2126 -20.2125 -20.2120 -20.2119 -20.2086 -20.2085
   -20.2083 -20.2083 -20.2081 -20.2081 -20.2033 -20.2033 -20.2030 -20.2030
   -20.2026 -20.2026 -20.2013 -20.2013 -20.1941 -20.1941 -20.1933 -20.1933
    -9.4599  -9.4599  -9.1920  -9.1920  -8.9284  -8.9284  -8.6346  -8.6346
    -8.5943  -8.5943  -8.5120  -8.5120  -8.3030  -8.3030  -8.2740  -8.2739
    -8.0430  -8.0430  -8.0018  -8.0018  -7.9327  -7.9327  -7.6476  -7.6476
     1.5939   1.5939   1.8523   1.8523   2.3706   2.3706   2.4713   2.4713
     3.0327   3.0328   3.1017   3.1017   3.1491   3.1491   3.3030   3.3030
     3.3677   3.3678   3.4989   3.4989   3.7032   3.7032   3.8257   3.8257
     3.9354   3.9355   4.0693   4.0693   4.3288   4.3288   4.4910   4.4910
     4.7936   4.7936   4.9270   4.9270   5.0423   5.0424   5.0955   5.0955
     5.1856   5.1856   5.4918   5.4919   5.7814   5.7814   5.8930   5.8930
     6.6386   6.6386   6.7461   6.7461   6.9140   6.9140   6.9805   6.9805
     7.1271   7.1271   7.1896   7.1896   7.2532   7.2532   7.5498   7.5498
     7.5958   7.5958   7.6805   7.6805   7.7245   7.7245   7.9635   7.9635
    10.8340  10.8340  11.4538  11.4538  11.6380  11.6380  11.7479  11.7479
    11.9929  11.9929  12.2690  12.2690  12.6487  12.6487  12.7407  12.7407
    12.9077  12.9077  13.0184  13.0184  13.2374  13.2374  13.5197  13.5197
    15.3342  15.3342  15.8166  15.8166  16.4722  16.4722  16.6987  16.6987
    16.7957  16.7957  17.5026  17.5026  17.8208

          k = 0.3292 0.4881 0.1640 ( 62016 PWs)   bands (ev):

   -66.0938 -66.0934 -66.0932 -66.0928 -66.0870 -66.0866 -66.0863 -66.0859
   -30.5500 -30.5481 -30.5381 -30.5343 -30.4965 -30.4923 -30.4794 -30.4776
   -30.4067 -30.4042 -30.4032 -30.4004 -30.3984 -30.3965 -30.3919 -30.3901
   -30.3750 -30.3708 -30.3566 -30.3528 -30.3165 -30.3129 -30.3080 -30.3053
   -20.2555 -20.2554 -20.2551 -20.2549 -20.2479 -20.2478 -20.2471 -20.2470
   -20.2413 -20.2412 -20.2407 -20.2406 -20.2309 -20.2308 -20.2295 -20.2295
   -20.2294 -20.2292 -20.2265 -20.2263 -20.2226 -20.2225 -20.2209 -20.2209
   -20.2198 -20.2198 -20.2192 -20.2191 -20.2170 -20.2168 -20.2163 -20.2161
   -20.2158 -20.2156 -20.2128 -20.2124 -20.2121 -20.2116 -20.2088 -20.2088
   -20.2085 -20.2085 -20.2083 -20.2082 -20.2045 -20.2041 -20.2034 -20.2031
   -20.2018 -20.2014 -20.2013 -20.2013 -20.1944 -20.1938 -20.1936 -20.1930
    -9.4985  -9.3988  -9.3516  -9.0816  -9.0587  -8.8044  -8.6805  -8.6200
    -8.5178  -8.4889  -8.4125  -8.3760  -8.3632  -8.3485  -8.3387  -8.3068
    -8.2128  -8.1584  -7.9981  -7.9431  -7.9301  -7.8611  -7.6691  -7.6279
     1.5887   1.6013   1.8390   1.8549   2.2647   2.4081   2.4885   2.5931
     2.9262   2.9456   2.9634   2.9881   3.1119   3.1680   3.2383   3.2948
     3.3441   3.3852   3.5729   3.6615   3.7428   3.8460   3.8796   3.9172
     3.9522   3.9921   4.0500   4.0544   4.2864   4.3249   4.5531   4.6146
     4.7033   4.7471   4.8962   4.9518   4.9891   5.0624   5.0661   5.1391
     5.1635   5.2387   5.4074   5.5076   5.7664   5.7841   5.8578   5.8840
     6.6235   6.6457   6.7094   6.7935   6.8746   6.9353   7.0269   7.0587
     7.0723   7.1648   7.1982   7.2557   7.3385   7.3705   7.4229   7.4995
     7.5214   7.5876   7.7023   7.7329   7.7585   7.7714   7.8433   7.8920
    10.8294  10.9507  11.2897  11.3383  11.6177  11.6737  11.7326  11.8451
    12.0015  12.0705  12.1123  12.3382  12.5727  12.6229  12.7072  12.7601
    12.8642  12.8937  13.0094  13.0570  13.1844  13.2355  13.4979  13.5160
    15.2746  15.5389  15.5676  16.0028  16.2818  16.4461  16.5041  16.7472
    16.9044  16.9552  17.5105  17.5653  17.8587

          k =-0.4938 0.4881 0.1640 ( 62044 PWs)   bands (ev):

   -66.0936 -66.0936 -66.0930 -66.0930 -66.0868 -66.0868 -66.0861 -66.0861
   -30.5491 -30.5491 -30.5172 -30.5172 -30.5133 -30.5133 -30.4785 -30.4785
   -30.4055 -30.4055 -30.4018 -30.4018 -30.3975 -30.3975 -30.3911 -30.3911
   -30.3730 -30.3730 -30.3366 -30.3366 -30.3329 -30.3329 -30.3067 -30.3067
   -20.2554 -20.2554 -20.2550 -20.2550 -20.2479 -20.2478 -20.2471 -20.2471
   -20.2410 -20.2410 -20.2409 -20.2409 -20.2308 -20.2308 -20.2295 -20.2295
   -20.2280 -20.2280 -20.2278 -20.2278 -20.2226 -20.2225 -20.2209 -20.2209
   -20.2195 -20.2195 -20.2194 -20.2194 -20.2169 -20.2169 -20.2162 -20.2162
   -20.2157 -20.2157 -20.2126 -20.2126 -20.2119 -20.2119 -20.2087 -20.2087
   -20.2085 -20.2084 -20.2084 -20.2084 -20.2033 -20.2033 -20.2031 -20.2030
   -20.2026 -20.2026 -20.2014 -20.2014 -20.1941 -20.1941 -20.1933 -20.1933
    -9.4147  -9.4147  -9.1961  -9.1961  -8.7714  -8.7714  -8.5929  -8.5929
    -8.5334  -8.5334  -8.4621  -8.4621  -8.3357  -8.3357  -8.3166  -8.3165
    -8.2150  -8.2150  -8.1666  -8.1666  -7.9419  -7.9419  -7.6482  -7.6482
     1.5964   1.5964   1.8581   1.8581   2.8672   2.8673   3.0317   3.0317
     3.1111   3.1111   3.1413   3.1413   3.1895   3.1895   3.2839   3.2839
     3.4334   3.4335   3.4989   3.4989   3.5498   3.5498   3.6839   3.6839
     3.8390   3.8390   4.0304   4.0304   4.3192   4.3192   4.3752   4.3752
     4.4547   4.4547   4.5158   4.5158   4.9125   4.9125   5.0152   5.0152
     5.1708   5.1708   5.3486   5.3486   5.7895   5.7896   5.8121   5.8121
     6.6644   6.6645   6.7617   6.7617   6.9370   6.9370   7.0163   7.0163
     7.2710   7.2711   7.3300   7.3300   7.4371   7.4371   7.5365   7.5365
     7.5853   7.5853   7.6730   7.6730   7.7054   7.7055   7.8097   7.8097
    11.2229  11.2229  11.5249  11.5249  11.6270  11.6270  11.7514  11.7514
    12.1369  12.1369  12.2331  12.2331  12.4201  12.4201  12.4959  12.4959
    12.8479  12.8480  12.9971  12.9971  13.2669  13.2669  13.3237  13.3237
    15.4165  15.4165  15.8649  15.8649  16.8382  16.8383  17.0607  17.0607
    17.3188  17.3188  17.4578  17.4578  17.5737

          k =-0.4938 0.0000 0.3280 ( 62054 PWs)   bands (ev):

   -66.0935 -66.0935 -66.0931 -66.0931 -66.0867 -66.0867 -66.0863 -66.0863
   -30.5345 -30.5345 -30.5166 -30.5166 -30.5146 -30.5146 -30.4940 -30.4940
   -30.4389 -30.4389 -30.4350 -30.4349 -30.3654 -30.3653 -30.3594 -30.3594
   -30.3557 -30.3557 -30.3350 -30.3350 -30.3332 -30.3332 -30.3206 -30.3206
   -20.2554 -20.2554 -20.2551 -20.2551 -20.2477 -20.2477 -20.2472 -20.2472
   -20.2410 -20.2410 -20.2409 -20.2409 -20.2305 -20.2305 -20.2298 -20.2298
   -20.2279 -20.2279 -20.2278 -20.2278 -20.2221 -20.2221 -20.2211 -20.2211
   -20.2198 -20.2198 -20.2196 -20.2196 -20.2177 -20.2177 -20.2172 -20.2171
   -20.2153 -20.2153 -20.2133 -20.2133 -20.2113 -20.2113 -20.2092 -20.2092
   -20.2076 -20.2075 -20.2073 -20.2073 -20.2030 -20.2030 -20.2028 -20.2028
   -20.2026 -20.2026 -20.2017 -20.2017 -20.1940 -20.1939 -20.1935 -20.1935
    -9.4524  -9.4524  -9.2387  -9.2387  -9.0026  -9.0026  -8.6893  -8.6893
    -8.6228  -8.6228  -8.4426  -8.4426  -8.3870  -8.3869  -8.2610  -8.2610
    -8.1442  -8.1442  -7.9242  -7.9242  -7.6559  -7.6558  -7.6306  -7.6306
     1.5434   1.5434   1.5591   1.5591   2.2997   2.2997   2.5136   2.5136
     2.9364   2.9364   3.0951   3.0951   3.1692   3.1693   3.2686   3.2686
     3.3379   3.3379   3.5499   3.5499   3.6637   3.6638   3.7640   3.7641
     4.0012   4.0012   4.0713   4.0714   4.2906   4.2906   4.5106   4.5106
     4.7541   4.7541   4.9512   4.9512   5.1163   5.1163   5.1982   5.1982
     5.4474   5.4474   5.6770   5.6770   6.1420   6.1420   6.2485   6.2485
     6.4724   6.4724   6.5472   6.5472   6.5731   6.5731   6.6770   6.6771
     7.1711   7.1712   7.2402   7.2402   7.3272   7.3272   7.5267   7.5267
     7.5965   7.5965   7.6748   7.6748   7.6996   7.6996   8.0328   8.0328
    10.8112  10.8112  11.4160  11.4160  11.4502  11.4502  11.8424  11.8424
    12.0360  12.0360  12.1582  12.1582  12.6751  12.6751  12.8499  12.8499
    13.0090  13.0090  13.2897  13.2897  13.3322  13.3322  13.6188  13.6188
    15.1656  15.1657  15.4889  15.4889  16.1841  16.1841  16.6338  16.6338
    16.8699  16.8699  17.3952  17.3952  17.9763

          k =-0.4938-0.1627 0.3280 ( 61994 PWs)   bands (ev):

   -66.0935 -66.0935 -66.0931 -66.0931 -66.0867 -66.0867 -66.0863 -66.0863
   -30.5344 -30.5344 -30.5165 -30.5165 -30.5144 -30.5144 -30.4938 -30.4938
   -30.4339 -30.4339 -30.4302 -30.4302 -30.3687 -30.3687 -30.3643 -30.3643
   -30.3574 -30.3574 -30.3353 -30.3353 -30.3333 -30.3333 -30.3207 -30.3206
   -20.2554 -20.2554 -20.2551 -20.2551 -20.2477 -20.2477 -20.2472 -20.2472
   -20.2410 -20.2410 -20.2409 -20.2409 -20.2305 -20.2305 -20.2298 -20.2298
   -20.2279 -20.2279 -20.2278 -20.2278 -20.2221 -20.2221 -20.2211 -20.2211
   -20.2197 -20.2197 -20.2196 -20.2196 -20.2175 -20.2175 -20.2169 -20.2169
   -20.2154 -20.2153 -20.2134 -20.2133 -20.2113 -20.2113 -20.2092 -20.2092
   -20.2078 -20.2078 -20.2076 -20.2075 -20.2030 -20.2030 -20.2029 -20.2029
   -20.2026 -20.2026 -20.2018 -20.2018 -20.1940 -20.1939 -20.1935 -20.1935
    -9.3995  -9.3995  -9.1668  -9.1668  -9.0083  -9.0082  -8.6667  -8.6666
    -8.6253  -8.6252  -8.4428  -8.4428  -8.3842  -8.3842  -8.2619  -8.2619
    -8.1442  -8.1442  -7.9284  -7.9284  -7.7619  -7.7619  -7.7370  -7.7369
     1.7624   1.7624   1.7928   1.7928   2.3035   2.3035   2.5144   2.5145
     2.9973   2.9973   3.1078   3.1078   3.1873   3.1874   3.2835   3.2835
     3.3572   3.3572   3.5829   3.5829   3.7033   3.7033   3.7766   3.7767
     4.0485   4.0485   4.0780   4.0780   4.2707   4.2707   4.4734   4.4734
     4.6499   4.6499   4.8574   4.8574   4.9848   4.9849   5.0675   5.0675
     5.1890   5.1890   5.4377   5.4377   5.8944   5.8945   6.0075   6.0075
     6.6305   6.6305   6.6892   6.6892   6.7670   6.7670   6.8512   6.8512
     7.1758   7.1758   7.2593   7.2593   7.3389   7.3389   7.5329   7.5329
     7.5946   7.5946   7.6842   7.6843   7.7082   7.7082   7.9989   7.9989
    10.9116  10.9116  11.4794  11.4794  11.5347  11.5347  11.8493  11.8493
    12.0453  12.0453  12.2021  12.2021  12.6699  12.6699  12.8238  12.8238
    12.8831  12.8831  13.1624  13.1625  13.2222  13.2222  13.5222  13.5222
    15.4502  15.4503  15.7941  15.7941  16.2482  16.2482  16.6470  16.6471
    16.8866  16.8866  17.4209  17.4209  17.9441

          k =-0.4938-0.3254 0.3280 ( 61970 PWs)   bands (ev):

   -66.0935 -66.0935 -66.0931 -66.0931 -66.0867 -66.0867 -66.0863 -66.0863
   -30.5342 -30.5341 -30.5164 -30.5164 -30.5142 -30.5142 -30.4934 -30.4934
   -30.4201 -30.4201 -30.4171 -30.4170 -30.3811 -30.3811 -30.3779 -30.3779
   -30.3589 -30.3589 -30.3357 -30.3357 -30.3336 -30.3336 -30.3208 -30.3208
   -20.2554 -20.2554 -20.2551 -20.2551 -20.2477 -20.2477 -20.2472 -20.2472
   -20.2410 -20.2410 -20.2409 -20.2409 -20.2305 -20.2305 -20.2298 -20.2298
   -20.2280 -20.2279 -20.2278 -20.2278 -20.2221 -20.2221 -20.2212 -20.2212
   -20.2196 -20.2196 -20.2195 -20.2195 -20.2169 -20.2169 -20.2164 -20.2163
   -20.2154 -20.2154 -20.2134 -20.2134 -20.2112 -20.2112 -20.2092 -20.2092
   -20.2083 -20.2083 -20.2081 -20.2081 -20.2030 -20.2030 -20.2030 -20.2030
   -20.2026 -20.2026 -20.2018 -20.2018 -20.1940 -20.1940 -20.1935 -20.1935
    -9.2770  -9.2770  -9.0295  -9.0295  -8.9760  -8.9760  -8.6413  -8.6412
    -8.5800  -8.5800  -8.4427  -8.4426  -8.3702  -8.3702  -8.2672  -8.2672
    -8.1469  -8.1468  -8.0301  -8.0301  -8.0110  -8.0110  -7.9015  -7.9015
     2.2035   2.2035   2.3799   2.3799   2.4153   2.4153   2.5685   2.5685
     3.0838   3.0838   3.1562   3.1562   3.2175   3.2175   3.3190   3.3190
     3.4487   3.4487   3.6449   3.6449   3.7711   3.7711   3.8324   3.8324
     4.0087   4.0087   4.1380   4.1381   4.1906   4.1906   4.3055   4.3055
     4.4632   4.4632   4.6343   4.6343   4.7007   4.7007   4.8825   4.8825
     4.9687   4.9687   5.0596   5.0596   5.1824   5.1824   5.4668   5.4669
     6.8760   6.8760   7.0106   7.0106   7.0478   7.0478   7.1176   7.1176
     7.2088   7.2088   7.3019   7.3020   7.3876   7.3876   7.5433   7.5433
     7.5848   7.5848   7.6831   7.6831   7.7082   7.7082   7.8904   7.8904
    11.2197  11.2197  11.6448  11.6449  11.7758  11.7759  11.8743  11.8743
    12.1015  12.1015  12.3264  12.3264  12.4564  12.4564  12.6462  12.6462
    12.7924  12.7924  12.8616  12.8616  12.9520  12.9520  13.2444  13.2444
    16.0474  16.0474  16.3511  16.3511  16.6458  16.6458  16.7649  16.7649
    16.9581  16.9581  17.4545  17.4545  17.7201

          k =-0.4938 0.4881 0.3280 ( 62036 PWs)   bands (ev):

   -66.0935 -66.0935 -66.0931 -66.0931 -66.0867 -66.0867 -66.0863 -66.0863
   -30.5340 -30.5340 -30.5163 -30.5163 -30.5140 -30.5140 -30.4932 -30.4932
   -30.4047 -30.4047 -30.4026 -30.4025 -30.3964 -30.3964 -30.3927 -30.3927
   -30.3592 -30.3592 -30.3359 -30.3358 -30.3337 -30.3337 -30.3209 -30.3209
   -20.2554 -20.2554 -20.2551 -20.2551 -20.2477 -20.2477 -20.2472 -20.2472
   -20.2410 -20.2410 -20.2409 -20.2409 -20.2305 -20.2305 -20.2298 -20.2298
   -20.2280 -20.2279 -20.2278 -20.2278 -20.2222 -20.2221 -20.2212 -20.2212
   -20.2196 -20.2196 -20.2195 -20.2195 -20.2166 -20.2166 -20.2160 -20.2160
   -20.2155 -20.2155 -20.2135 -20.2135 -20.2112 -20.2112 -20.2092 -20.2092
   -20.2086 -20.2086 -20.2084 -20.2084 -20.2031 -20.2031 -20.2030 -20.2030
   -20.2026 -20.2026 -20.2018 -20.2018 -20.1940 -20.1940 -20.1935 -20.1935
    -9.1993  -9.1993  -9.0508  -9.0507  -8.8148  -8.8148  -8.6803  -8.6803
    -8.4735  -8.4735  -8.4163  -8.4163  -8.3312  -8.3311  -8.3175  -8.3174
    -8.2181  -8.2181  -8.1980  -8.1980  -8.1328  -8.1327  -7.9120  -7.9120
     2.2538   2.2538   2.4744   2.4744   2.9244   2.9244   3.0226   3.0226
     3.1133   3.1133   3.1805   3.1805   3.2172   3.2172   3.2643   3.2643
     3.4954   3.4955   3.5333   3.5333   3.6479   3.6479   3.8943   3.8943
     3.9464   3.9464   4.0875   4.0875   4.2069   4.2069   4.3302   4.3302
     4.4282   4.4282   4.4578   4.4578   4.5571   4.5571   4.6188   4.6188
     4.7550   4.7551   4.8832   4.8832   5.0970   5.0970   5.1209   5.1209
     6.9468   6.9468   7.1080   7.1080   7.1694   7.1694   7.2029   7.2029
     7.2837   7.2837   7.4213   7.4214   7.4361   7.4361   7.5214   7.5214
     7.5778   7.5778   7.6811   7.6812   7.6928   7.6928   7.7808   7.7808
    11.5228  11.5228  11.7609  11.7609  11.8617  11.8617  11.9692  11.9692
    12.1392  12.1392  12.2884  12.2884  12.4046  12.4046  12.4931  12.4932
    12.5781  12.5781  12.7165  12.7165  12.9319  12.9319  13.0164  13.0164
    16.2161  16.2161  16.5216  16.5216  16.9999  16.9999  17.1759  17.1759
    17.3121  17.3121  17.4778  17.4778  17.5644

     the Fermi energy is     8.9921 ev

!    total energy              =   -6261.08667678 Ry
     Harris-Foulkes estimate   =   -6261.08667678 Ry
     estimated scf accuracy    <          5.1E-11 Ry

     The total energy is the sum of the following terms:

     one-electron contribution =   -4690.33660226 Ry
     hartree contribution      =    2582.86162382 Ry
     xc contribution           =    -965.64513069 Ry
     ewald contribution        =   -3187.96656765 Ry
     smearing contrib. (-TS)   =      -0.00000000 Ry

     convergence has been achieved in  16 iterations

     Forces acting on atoms (cartesian axes, Ry/au):

     atom    1 type  1   force =     0.04482587   -0.00824592    0.01046426
     atom    2 type  1   force =     0.00122985    0.00459460    0.04756023
     atom    3 type  1   force =    -0.04482587    0.00824592    0.01046426
     atom    4 type  1   force =    -0.00122985   -0.00459460    0.04756023
     atom    5 type  1   force =    -0.04482587   -0.00824592   -0.01046426
     atom    6 type  1   force =    -0.00122985    0.00459460   -0.04756023
     atom    7 type  1   force =     0.04482587    0.00824592   -0.01046426
     atom    8 type  1   force =     0.00122985   -0.00459460   -0.04756023
     atom    9 type  2   force =    -0.00157083   -0.00106177    0.00294024
     atom   10 type  2   force =    -0.00462651    0.00027583   -0.00069594
     atom   11 type  2   force =     0.00157083    0.00106177    0.00294024
     atom   12 type  2   force =     0.00462651   -0.00027583   -0.00069594
     atom   13 type  2   force =     0.00157083   -0.00106177   -0.00294024
     atom   14 type  2   force =     0.00462651    0.00027583    0.00069594
     atom   15 type  2   force =    -0.00157083    0.00106177   -0.00294024
     atom   16 type  2   force =    -0.00462651   -0.00027583    0.00069594
     atom   17 type  2   force =     0.02903055   -0.00393461   -0.00143131
     atom   18 type  2   force =     0.00451912   -0.00268518   -0.00251917
     atom   19 type  2   force =    -0.02903055    0.00393461   -0.00143131
     atom   20 type  2   force =    -0.00451912    0.00268518   -0.00251917
     atom   21 type  2   force =    -0.02903055   -0.00393461    0.00143131
     atom   22 type  2   force =    -0.00451912   -0.00268518    0.00251917
     atom   23 type  2   force =     0.02903055    0.00393461    0.00143131
     atom   24 type  2   force =     0.00451912    0.00268518    0.00251917
     atom   25 type  2   force =    -0.00135641   -0.00092202    0.00472741
     atom   26 type  2   force =     0.00211505    0.00111368    0.03041521
     atom   27 type  2   force =     0.00135641    0.00092202    0.00472741
     atom   28 type  2   force =    -0.00211505   -0.00111368    0.03041521
     atom   29 type  2   force =     0.00135641   -0.00092202   -0.00472741
     atom   30 type  2   force =    -0.00211505    0.00111368   -0.03041521
     atom   31 type  2   force =    -0.00135641    0.00092202   -0.00472741
     atom   32 type  2   force =     0.00211505   -0.00111368   -0.03041521

     Total force =     0.000000     Total SCF correction =     0.000000


     Computing stress (Cartesian axis) and pressure

          total   stress  (Ry/bohr**3)                   (kbar)     P=    0.44
   0.00000466   0.00000000   0.00000000          0.69      0.00      0.00
   0.00000000  -0.00000183   0.00000000          0.00     -0.27      0.00
   0.00000000   0.00000000   0.00000609          0.00      0.00      0.90


     Writing output data file Landau_19.save
 
     init_run     :     71.34s CPU     74.49s WALL (       2 calls)
     electrons    :   8309.86s CPU   8554.74s WALL (       6 calls)
     update_pot   :     82.49s CPU     82.86s WALL (       4 calls)
     forces       :    130.61s CPU    133.05s WALL (       6 calls)
     stress       :   1300.02s CPU   1321.01s WALL (       6 calls)

     Called by init_run:
     wfcinit      :     53.77s CPU     56.63s WALL (       2 calls)
     potinit      :      7.42s CPU      7.48s WALL (       2 calls)

     Called by electrons:
     c_bands      :   7270.05s CPU   7501.81s WALL (      88 calls)
     sum_band     :    997.73s CPU   1005.19s WALL (      88 calls)
     v_of_rho     :      8.57s CPU      8.77s WALL (      93 calls)
     mix_rho      :     19.80s CPU     23.29s WALL (      88 calls)

     Called by c_bands:
     init_us_2    :     80.78s CPU     84.65s WALL (     380 calls)
     cegterg      :   6077.66s CPU   6298.65s WALL (     176 calls)

     Called by sum_band:

     Called by *egterg:
     h_psi        :   4820.78s CPU   4851.03s WALL (     719 calls)
     g_psi        :     13.62s CPU     13.72s WALL (     539 calls)
     cdiaghg      :     78.87s CPU     79.20s WALL (     705 calls)

     Called by h_psi:
     h_psi:pot    :   4780.95s CPU   4809.73s WALL (     719 calls)
     h_psi:calbec :    450.51s CPU    463.19s WALL (     719 calls)
     vloc_psi     :   3834.73s CPU   3847.73s WALL (     719 calls)
     add_vuspsi   :    495.69s CPU    498.80s WALL (     719 calls)

     General routines
     calbec       :    511.06s CPU    523.91s WALL (     779 calls)
     fft          :      6.90s CPU      6.94s WALL (     420 calls)
     fftw         :   3900.86s CPU   3911.97s WALL (  229376 calls)
 
     Parallel routines
 
     PWSCF        :     2h44m CPU        2h49m WALL

 
   This run was terminated on:   3:50: 4  23Mar2020            

=------------------------------------------------------------------------------=
   JOB DONE.
=------------------------------------------------------------------------------=
