
     Program PWSCF v.6.4.1 starts on 19Nov2019 at 23: 0:12 

     This program is part of the open-source Quantum ESPRESSO suite
     for quantum simulation of materials; please cite
         "P. Giannozzi et al., J. Phys.:Condens. Matter 21 395502 (2009);
         "P. Giannozzi et al., J. Phys.:Condens. Matter 29 465901 (2017);
          URL http://www.quantum-espresso.org", 
     in publications or presentations arising from this work. More details at
     http://www.quantum-espresso.org/quote

     Parallel version (MPI), running on    40 processors

     MPI processes distributed on     6 nodes
     K-points division:     npool     =      40
     Reading input from scf.in

     Current dimensions of program PWSCF are:
     Max number of different atomic species (ntypx) = 10
     Max number of k-points (npk) =  40000
     Max angular momentum in pseudopotentials (lmaxx) =  3

     Subspace diagonalization in iterative solution of the eigenvalue problem:
     a serial algorithm will be used

     Message from routine setup:
     using ibrav=0 with symmetry is DISCOURAGED, use correct ibrav instead
 
     G-vector sticks info
     --------------------
     sticks:   dense  smooth     PW     G-vecs:    dense   smooth      PW
     Sum        3697    3697   1005               250229   250229   35697
 


     bravais-lattice index     =            0
     lattice parameter (alat)  =       9.8153  a.u.
     unit-cell volume          =    1408.2617 (a.u.)^3
     number of atoms/cell      =           16
     number of atomic types    =            2
     number of electrons       =       184.10
     number of Kohn-Sham states=          110
     kinetic-energy cutoff     =     120.0000  Ry
     charge density cutoff     =     480.0000  Ry
     convergence threshold     =      1.0E-08
     mixing beta               =       0.7000
     number of iterations used =            8  plain     mixing
     Exchange-correlation      = SLA PW NOGX NOGC ( 1  4  0  0 0 0)

     celldm(1)=   9.815300  celldm(2)=   0.000000  celldm(3)=   0.000000
     celldm(4)=   0.000000  celldm(5)=   0.000000  celldm(6)=   0.000000

     crystal axes: (cart. coord. in units of alat)
               a(1) = (   1.000000   0.000000   0.000000 )  
               a(2) = (   0.000000   1.000000   0.000000 )  
               a(3) = (   0.000000   0.000000   1.489267 )  

     reciprocal axes: (cart. coord. in units 2 pi/alat)
               b(1) = (  1.000000  0.000000  0.000000 )  
               b(2) = (  0.000000  1.000000  0.000000 )  
               b(3) = (  0.000000  0.000000  0.671471 )  


     PseudoPot. # 1 for W  read from file:
     /cluster/scratch/mnoe/QE/pps/W_ONCV_LDA-4.0.upf
     MD5 check sum: ba0307d5d4cd419d6f1d13dc49d7c13a
     Pseudo is Norm-conserving + core correction, Zval = 28.0
     Generated using ONCVPSP code by D. R. Hamann
     Using radial grid of 1380 points,  8 beta functions with: 
                l(1) =   0
                l(2) =   0
                l(3) =   1
                l(4) =   1
                l(5) =   2
                l(6) =   2
                l(7) =   3
                l(8) =   3

     PseudoPot. # 2 for O  read from file:
     /cluster/scratch/mnoe/QE/pps/O_ONCV_LDA-3.0.upf
     MD5 check sum: b55cdb4f45ae2203d24ad12cf8d61a31
     Pseudo is Norm-conserving + core correction, Zval =  6.0
     Generated using ONCVPSP code by D. R. Hamann
     Using radial grid of  926 points,  5 beta functions with: 
                l(1) =   0
                l(2) =   0
                l(3) =   1
                l(4) =   1
                l(5) =   2

     atomic species   valence    mass     pseudopotential
        W             28.00   183.84000     W ( 1.00)
        O              6.00    15.99940     O ( 1.00)

     16 Sym. Ops., with inversion, found (14 have fractional translation)



   Cartesian axes

     site n.     atom                  positions (alat units)
         1           W   tau(   1) = (   0.2500000   0.2500000   0.3233221  )
         2           W   tau(   2) = (   0.7500000   0.7500000   1.1659449  )
         3           W   tau(   3) = (   0.7500000   0.7500000   0.4213114  )
         4           W   tau(   4) = (   0.2500000   0.2500000   1.0679556  )
         5           O   tau(   5) = (   0.2500000   0.2500000   0.7293575  )
         6           O   tau(   6) = (   0.7500000   0.7500000   0.7599095  )
         7           O   tau(   7) = (   0.7500000   0.7500000   0.0152760  )
         8           O   tau(   8) = (   0.2500000   0.2500000   1.4739910  )
         9           O   tau(   9) = (   0.4546762   0.5453237   0.3723168  )
        10           O   tau(  10) = (   0.5453238   0.4546763   1.1169503  )
        11           O   tau(  11) = (   0.0453238   0.9546763   0.3723168  )
        12           O   tau(  12) = (   0.9546762   0.0453238   1.1169503  )
        13           O   tau(  13) = (   0.9546763   0.4546762   0.3723168  )
        14           O   tau(  14) = (   0.0453238   0.5453238   1.1169503  )
        15           O   tau(  15) = (   0.5453237   0.0453238   0.3723168  )
        16           O   tau(  16) = (   0.4546763   0.9546762   1.1169503  )

     number of k points=    40  gaussian smearing, width (Ry)=  0.0007
                       cart. coord. in units 2pi/alat
        k(    1) = (   0.0000000   0.0000000   0.0000000), wk =   0.0092593
        k(    2) = (   0.0000000   0.0000000   0.1119119), wk =   0.0185185
        k(    3) = (   0.0000000   0.0000000   0.2238238), wk =   0.0185185
        k(    4) = (   0.0000000   0.0000000  -0.3357356), wk =   0.0092593
        k(    5) = (   0.0000000   0.1666667   0.0000000), wk =   0.0370370
        k(    6) = (   0.0000000   0.1666667   0.1119119), wk =   0.0740741
        k(    7) = (   0.0000000   0.1666667   0.2238238), wk =   0.0740741
        k(    8) = (   0.0000000   0.1666667  -0.3357356), wk =   0.0370370
        k(    9) = (   0.0000000   0.3333333   0.0000000), wk =   0.0370370
        k(   10) = (   0.0000000   0.3333333   0.1119119), wk =   0.0740741
        k(   11) = (   0.0000000   0.3333333   0.2238238), wk =   0.0740741
        k(   12) = (   0.0000000   0.3333333  -0.3357356), wk =   0.0370370
        k(   13) = (   0.0000000  -0.5000000   0.0000000), wk =   0.0185185
        k(   14) = (   0.0000000  -0.5000000   0.1119119), wk =   0.0370370
        k(   15) = (   0.0000000  -0.5000000   0.2238238), wk =   0.0370370
        k(   16) = (   0.0000000  -0.5000000  -0.3357356), wk =   0.0185185
        k(   17) = (   0.1666667   0.1666667   0.0000000), wk =   0.0370370
        k(   18) = (   0.1666667   0.1666667   0.1119119), wk =   0.0740741
        k(   19) = (   0.1666667   0.1666667   0.2238238), wk =   0.0740741
        k(   20) = (   0.1666667   0.1666667  -0.3357356), wk =   0.0370370
        k(   21) = (   0.1666667   0.3333333   0.0000000), wk =   0.0740741
        k(   22) = (   0.1666667   0.3333333   0.1119119), wk =   0.1481481
        k(   23) = (   0.1666667   0.3333333   0.2238238), wk =   0.1481481
        k(   24) = (   0.1666667   0.3333333  -0.3357356), wk =   0.0740741
        k(   25) = (   0.1666667  -0.5000000   0.0000000), wk =   0.0370370
        k(   26) = (   0.1666667  -0.5000000   0.1119119), wk =   0.0740741
        k(   27) = (   0.1666667  -0.5000000   0.2238238), wk =   0.0740741
        k(   28) = (   0.1666667  -0.5000000  -0.3357356), wk =   0.0370370
        k(   29) = (   0.3333333   0.3333333   0.0000000), wk =   0.0370370
        k(   30) = (   0.3333333   0.3333333   0.1119119), wk =   0.0740741
        k(   31) = (   0.3333333   0.3333333   0.2238238), wk =   0.0740741
        k(   32) = (   0.3333333   0.3333333  -0.3357356), wk =   0.0370370
        k(   33) = (   0.3333333  -0.5000000   0.0000000), wk =   0.0370370
        k(   34) = (   0.3333333  -0.5000000   0.1119119), wk =   0.0740741
        k(   35) = (   0.3333333  -0.5000000   0.2238238), wk =   0.0740741
        k(   36) = (   0.3333333  -0.5000000  -0.3357356), wk =   0.0370370
        k(   37) = (  -0.5000000  -0.5000000   0.0000000), wk =   0.0092593
        k(   38) = (  -0.5000000  -0.5000000   0.1119119), wk =   0.0185185
        k(   39) = (  -0.5000000  -0.5000000   0.2238238), wk =   0.0185185
        k(   40) = (  -0.5000000  -0.5000000  -0.3357356), wk =   0.0092593

     Dense  grid:   250229 G-vectors     FFT dimensions: (  72,  72, 108)

     Estimated max dynamical RAM per process >     780.34 MB

     Estimated total dynamical RAM >      30.48 GB

     Initial potential from superposition of free atoms

     starting charge  183.99828, renormalised to  184.10000
     Starting wfcs are  116 randomized atomic wfcs

     total cpu time spent up to now is        5.4 secs

     Self-consistent Calculation

     iteration #  1     ecut=   120.00 Ry     beta= 0.70
     Davidson diagonalization with overlap
     ethr =  1.00E-02,  avg # of iterations =  4.1

     total cpu time spent up to now is       20.0 secs

     total energy              =   -3126.88817092 Ry
     Harris-Foulkes estimate   =   -3132.24460716 Ry
     estimated scf accuracy    <       6.77034190 Ry

     iteration #  2     ecut=   120.00 Ry     beta= 0.70
     Davidson diagonalization with overlap
     ethr =  3.68E-03,  avg # of iterations =  3.1

     total cpu time spent up to now is       34.2 secs

     total energy              =   -3125.31112858 Ry
     Harris-Foulkes estimate   =   -3135.34763335 Ry
     estimated scf accuracy    <      26.91814319 Ry

     iteration #  3     ecut=   120.00 Ry     beta= 0.70
     Davidson diagonalization with overlap
     ethr =  3.68E-03,  avg # of iterations =  3.1

     total cpu time spent up to now is       47.2 secs

     total energy              =   -3130.47876788 Ry
     Harris-Foulkes estimate   =   -3130.61821066 Ry
     estimated scf accuracy    <       0.46131362 Ry

     iteration #  4     ecut=   120.00 Ry     beta= 0.70
     Davidson diagonalization with overlap
     ethr =  2.51E-04,  avg # of iterations =  2.6

     total cpu time spent up to now is       58.7 secs

     total energy              =   -3130.47707168 Ry
     Harris-Foulkes estimate   =   -3130.51308108 Ry
     estimated scf accuracy    <       0.11180717 Ry

     iteration #  5     ecut=   120.00 Ry     beta= 0.70
     Davidson diagonalization with overlap
     ethr =  6.07E-05,  avg # of iterations =  3.9

     total cpu time spent up to now is       70.2 secs

     total energy              =   -3130.47908955 Ry
     Harris-Foulkes estimate   =   -3130.49398842 Ry
     estimated scf accuracy    <       0.03367841 Ry

     iteration #  6     ecut=   120.00 Ry     beta= 0.70
     Davidson diagonalization with overlap
     ethr =  1.83E-05,  avg # of iterations =  3.9

     total cpu time spent up to now is       82.4 secs

     total energy              =   -3130.48621301 Ry
     Harris-Foulkes estimate   =   -3130.48752566 Ry
     estimated scf accuracy    <       0.00338441 Ry

     iteration #  7     ecut=   120.00 Ry     beta= 0.70
     Davidson diagonalization with overlap
     ethr =  1.84E-06,  avg # of iterations =  3.6

     total cpu time spent up to now is       95.5 secs

     total energy              =   -3130.48669588 Ry
     Harris-Foulkes estimate   =   -3130.48672362 Ry
     estimated scf accuracy    <       0.00004980 Ry

     iteration #  8     ecut=   120.00 Ry     beta= 0.70
     Davidson diagonalization with overlap
     ethr =  2.71E-08,  avg # of iterations =  3.2

     total cpu time spent up to now is      110.1 secs

     total energy              =   -3130.48672168 Ry
     Harris-Foulkes estimate   =   -3130.48672537 Ry
     estimated scf accuracy    <       0.00001934 Ry

     iteration #  9     ecut=   120.00 Ry     beta= 0.70
     Davidson diagonalization with overlap
     ethr =  1.05E-08,  avg # of iterations =  2.0

     total cpu time spent up to now is      120.6 secs

     total energy              =   -3130.48671907 Ry
     Harris-Foulkes estimate   =   -3130.48672266 Ry
     estimated scf accuracy    <       0.00000978 Ry

     iteration # 10     ecut=   120.00 Ry     beta= 0.70
     Davidson diagonalization with overlap
     ethr =  5.31E-09,  avg # of iterations =  2.0

     total cpu time spent up to now is      131.3 secs

     total energy              =   -3130.48672039 Ry
     Harris-Foulkes estimate   =   -3130.48672053 Ry
     estimated scf accuracy    <       0.00000030 Ry

     iteration # 11     ecut=   120.00 Ry     beta= 0.70
     Davidson diagonalization with overlap
     ethr =  1.62E-10,  avg # of iterations =  2.8

     total cpu time spent up to now is      144.3 secs

     total energy              =   -3130.48672046 Ry
     Harris-Foulkes estimate   =   -3130.48672049 Ry
     estimated scf accuracy    <       0.00000004 Ry

     iteration # 12     ecut=   120.00 Ry     beta= 0.70
     Davidson diagonalization with overlap
     ethr =  2.38E-11,  avg # of iterations =  2.0

     total cpu time spent up to now is      156.0 secs

     End of self-consistent calculation

          k = 0.0000 0.0000 0.0000 ( 31215 PWs)   bands (ev):

   -66.1967 -66.1963 -66.1948 -66.1944 -30.6011 -30.5950 -30.5402 -30.5353
   -30.5338 -30.5338 -30.5304 -30.5304 -30.4410 -30.4410 -30.4382 -30.4382
   -20.3534 -20.3533 -20.3533 -20.3532 -20.3420 -20.3416 -20.3364 -20.3359
   -20.3319 -20.3319 -20.3318 -20.3318 -20.3300 -20.3300 -20.3300 -20.3300
   -20.3247 -20.3246 -20.3240 -20.3239 -20.3186 -20.3186 -20.3186 -20.3186
   -20.3125 -20.3125 -20.3123 -20.3123 -10.0022  -9.7091  -9.1513  -9.0879
    -9.0741  -8.9320  -7.9059  -7.7954  -7.6894  -7.6894  -7.6677  -7.6677
     1.1276   1.1278   1.2900   1.5492   1.5568   1.7584   2.3744   2.4536
     2.6447   2.6447   4.0860   4.0860   4.9466   4.9466   5.0095   5.4818
     5.4818   5.4946   5.4946   5.7610   5.7610   5.8968   5.9169   6.7243
     6.7243   6.8313   6.9937   6.9945   7.3063   7.3063   7.3438   7.3438
     7.8542   7.8662   8.0471   8.0471   9.1526   9.1579   9.9248   9.9248
    12.2734  12.2734  12.9485  12.9500  13.3562  13.3562  13.7030  14.1291
    14.1291  14.8099  15.2400  15.2498  15.4426  16.7222

          k = 0.0000 0.0000 0.1119 ( 31243 PWs)   bands (ev):

   -66.1967 -66.1963 -66.1948 -66.1944 -30.5971 -30.5910 -30.5443 -30.5394
   -30.5336 -30.5336 -30.5306 -30.5306 -30.4408 -30.4408 -30.4384 -30.4384
   -20.3534 -20.3534 -20.3533 -20.3532 -20.3417 -20.3412 -20.3368 -20.3363
   -20.3318 -20.3318 -20.3317 -20.3317 -20.3301 -20.3301 -20.3300 -20.3300
   -20.3247 -20.3246 -20.3240 -20.3239 -20.3186 -20.3186 -20.3186 -20.3186
   -20.3125 -20.3125 -20.3123 -20.3123  -9.9722  -9.7209  -9.0870  -9.0766
    -9.0750  -8.8857  -8.0031  -7.9039  -7.6879  -7.6879  -7.6692  -7.6692
     1.1276   1.1278   1.4193   1.5561   1.7243   1.9415   2.3795   2.4481
     2.7127   2.7127   3.9478   3.9478   4.7661   4.9111   4.9111   5.4083
     5.4083   5.5689   5.5739   5.5739   5.8379   5.8379   5.9361   6.7584
     6.7584   6.8110   6.8427   6.9840   7.3128   7.3128   7.3433   7.3433
     7.8582   7.8657   8.0005   8.0005   9.1528   9.1574  10.1034  10.1034
    12.1410  12.1410  12.9486  12.9498  13.3670  13.3670  14.0273  14.0384
    14.0384  14.9846  15.2404  15.2487  15.8464  16.4159

          k = 0.0000 0.0000 0.2238 ( 31247 PWs)   bands (ev):

   -66.1966 -66.1964 -66.1947 -66.1945 -30.5860 -30.5802 -30.5555 -30.5503
   -30.5329 -30.5329 -30.5313 -30.5313 -30.4403 -30.4403 -30.4389 -30.4389
   -20.3534 -20.3534 -20.3533 -20.3532 -20.3407 -20.3402 -20.3378 -20.3374
   -20.3317 -20.3317 -20.3316 -20.3316 -20.3302 -20.3302 -20.3301 -20.3301
   -20.3247 -20.3246 -20.3240 -20.3240 -20.3186 -20.3186 -20.3186 -20.3186
   -20.3124 -20.3124 -20.3123 -20.3123  -9.8992  -9.7571  -9.0845  -9.0776
    -8.8655  -8.7416  -8.2500  -8.1786  -7.6840  -7.6840  -7.6732  -7.6732
     1.1276   1.1277   1.5218   1.5533   2.2950   2.3936   2.4333   2.6081
     2.9114   2.9114   3.6027   3.6027   4.0827   4.6817   4.9797   4.9798
     5.3171   5.3171   5.6207   5.6207   5.8033   5.8033   6.0513   6.4952
     6.8733   6.9550   7.0325   7.0325   7.3212   7.3212   7.3451   7.3451
     7.8135   7.8135   7.8614   7.8645   9.1535   9.1563  10.5752  10.5752
    11.7520  11.7520  12.9488  12.9495  13.4353  13.4353  13.8229  13.8229
    14.6543  15.2416  15.2462  15.5939  15.8503  16.8498

          k = 0.0000 0.0000-0.3357 ( 31250 PWs)   bands (ev):

   -66.1965 -66.1965 -66.1946 -66.1946 -30.5708 -30.5708 -30.5653 -30.5653
   -30.5321 -30.5321 -30.5321 -30.5321 -30.4396 -30.4396 -30.4396 -30.4396
   -20.3534 -20.3534 -20.3533 -20.3533 -20.3393 -20.3392 -20.3388 -20.3388
   -20.3316 -20.3316 -20.3316 -20.3316 -20.3302 -20.3302 -20.3302 -20.3302
   -20.3246 -20.3246 -20.3240 -20.3240 -20.3186 -20.3186 -20.3186 -20.3186
   -20.3124 -20.3124 -20.3124 -20.3124  -9.8189  -9.8189  -9.0810  -9.0810
    -8.5622  -8.5622  -8.4964  -8.4964  -7.6786  -7.6786  -7.6786  -7.6786
     1.1276   1.1277   1.5458   1.5458   2.4133   2.4133   3.1670   3.1670
     3.2225   3.2225   3.2225   3.2225   3.5976   3.5976   5.1545   5.1545
     5.1545   5.1545   5.6885   5.6885   5.6885   5.6885   6.2373   6.2373
     6.9146   6.9146   7.3133   7.3133   7.3133   7.3133   7.4804   7.4804
     7.4804   7.4804   7.8630   7.8630   9.1548   9.1548  11.1819  11.1819
    11.1819  11.1819  12.9492  12.9492  13.5949  13.5949  13.5949  13.5949
    15.2436  15.2436  15.2514  15.2514  16.4720  16.4720

          k = 0.0000 0.1667 0.0000 ( 31240 PWs)   bands (ev):

   -66.1966 -66.1962 -66.1949 -66.1945 -30.6010 -30.5956 -30.5417 -30.5359
   -30.5276 -30.5260 -30.5243 -30.5241 -30.4473 -30.4471 -30.4445 -30.4444
   -20.3534 -20.3533 -20.3533 -20.3532 -20.3420 -20.3417 -20.3364 -20.3360
   -20.3318 -20.3317 -20.3317 -20.3317 -20.3301 -20.3301 -20.3300 -20.3300
   -20.3247 -20.3246 -20.3241 -20.3240 -20.3182 -20.3182 -20.3181 -20.3181
   -20.3129 -20.3128 -20.3127 -20.3127  -9.9086  -9.5979  -9.1690  -9.0110
    -8.9969  -8.9102  -7.9155  -7.8474  -7.8231  -7.8064  -7.8012  -7.7846
     1.3509   1.3880   1.3887   1.5328   1.8182   1.9621   2.5448   2.6370
     2.7112   2.7439   4.0223   4.0371   4.6538   4.7264   4.9783   5.1957
     5.2647   5.2658   5.3446   5.6983   5.7480   5.9374   6.2910   6.5705
     6.6024   6.6036   6.6419   6.8308   6.8479   7.0590   7.2224   7.2813
     7.8421   7.8442   8.0074   8.0485   9.7452   9.8070  10.1710  10.2643
    12.2967  12.3380  12.9353  13.0220  13.1375  13.3249  13.9494  13.9582
    14.0312  15.0346  15.3739  15.3869  15.3999  17.0356

          k = 0.0000 0.1667 0.1119 ( 31245 PWs)   bands (ev):

   -66.1966 -66.1962 -66.1949 -66.1946 -30.5970 -30.5916 -30.5454 -30.5400
   -30.5274 -30.5261 -30.5245 -30.5243 -30.4471 -30.4470 -30.4447 -30.4446
   -20.3534 -20.3533 -20.3533 -20.3532 -20.3417 -20.3413 -20.3368 -20.3364
   -20.3317 -20.3317 -20.3316 -20.3316 -20.3301 -20.3301 -20.3301 -20.3301
   -20.3247 -20.3246 -20.3241 -20.3240 -20.3182 -20.3182 -20.3181 -20.3181
   -20.3129 -20.3128 -20.3127 -20.3127  -9.8760  -9.6098  -9.0944  -9.0101
    -8.9978  -8.8666  -8.0068  -7.9214  -7.8458  -7.8196  -7.8041  -7.7860
     1.3880   1.3886   1.5413   1.7358   1.8173   2.0513   2.5535   2.6310
     2.7832   2.8070   3.9187   3.9499   4.6137   4.6947   4.7371   5.1654
     5.1704   5.3063   5.3064   5.5761   5.7293   5.8119   6.3124   6.5904
     6.5929   6.6354   6.6831   6.7873   6.9135   7.0646   7.2250   7.2808
     7.8428   7.8440   7.9496   7.9915   9.7591   9.8040  10.3234  10.4038
    12.1829  12.2257  12.9258  13.0168  13.1494  13.3329  13.8622  13.9415
    14.2802  15.1821  15.3876  15.3992  15.7794  16.7009

          k = 0.0000 0.1667 0.2238 ( 31231 PWs)   bands (ev):

   -66.1965 -66.1963 -66.1948 -66.1946 -30.5860 -30.5808 -30.5561 -30.5509
   -30.5268 -30.5261 -30.5251 -30.5248 -30.4466 -30.4465 -30.4452 -30.4451
   -20.3534 -20.3534 -20.3533 -20.3532 -20.3407 -20.3403 -20.3379 -20.3374
   -20.3316 -20.3315 -20.3315 -20.3315 -20.3302 -20.3302 -20.3302 -20.3302
   -20.3247 -20.3246 -20.3241 -20.3241 -20.3182 -20.3182 -20.3181 -20.3181
   -20.3129 -20.3128 -20.3128 -20.3127  -9.7969  -9.6468  -9.0075  -9.0005
    -8.8829  -8.7291  -8.2542  -8.1897  -7.8415  -7.8285  -7.8003  -7.7899
     1.3881   1.3884   1.7593   1.8136   2.2987   2.5668   2.5719   2.6302
     2.9971   3.0056   3.6094   3.6579   4.0700   4.6752   4.6848   4.7740
     5.0668   5.0923   5.3078   5.3407   5.5747   5.5989   6.3887   6.5765
     6.6344   6.6759   6.9333   6.9589   7.0285   7.0898   7.2444   7.2863
     7.7574   7.7884   7.8447   7.8545   9.7784   9.7982  10.7370  10.8009
    11.8251  11.8721  12.9336  12.9992  13.2196  13.3846  13.6339  13.7319
    14.9487  15.3897  15.3967  15.7323  16.1376  16.7765

          k = 0.0000 0.1667-0.3357 ( 31240 PWs)   bands (ev):

   -66.1964 -66.1964 -66.1948 -66.1947 -30.5710 -30.5710 -30.5659 -30.5659
   -30.5260 -30.5260 -30.5255 -30.5255 -30.4459 -30.4459 -30.4458 -30.4458
   -20.3534 -20.3534 -20.3533 -20.3533 -20.3393 -20.3393 -20.3389 -20.3389
   -20.3315 -20.3315 -20.3315 -20.3314 -20.3303 -20.3303 -20.3303 -20.3303
   -20.3247 -20.3246 -20.3241 -20.3241 -20.3182 -20.3182 -20.3181 -20.3181
   -20.3128 -20.3128 -20.3128 -20.3127  -9.7112  -9.7112  -9.0040  -9.0040
    -8.5764  -8.5764  -8.4934  -8.4933  -7.8355  -7.8355  -7.7951  -7.7951
     1.3882   1.3882   1.8023   1.8023   2.5929   2.5929   3.1651   3.1651
     3.2173   3.2173   3.2977   3.2977   3.6448   3.6448   4.8773   4.8773
     4.9477   4.9477   5.3803   5.3803   5.4130   5.4130   6.4968   6.4968
     6.6429   6.6429   7.0396   7.0396   7.2055   7.2055   7.4249   7.4249
     7.4801   7.4801   7.8467   7.8467   9.7905   9.7905  11.2909  11.2909
    11.3456  11.3456  12.9680  12.9680  13.3889  13.3889  13.5208  13.5208
    15.3930  15.3930  15.5517  15.5517  16.5962  16.5962

          k = 0.0000 0.3333 0.0000 ( 31272 PWs)   bands (ev):

   -66.1962 -66.1958 -66.1953 -66.1949 -30.6005 -30.5971 -30.5414 -30.5376
   -30.5108 -30.5087 -30.5076 -30.5071 -30.4644 -30.4638 -30.4615 -30.4613
   -20.3534 -20.3533 -20.3533 -20.3533 -20.3420 -20.3418 -20.3364 -20.3362
   -20.3316 -20.3315 -20.3315 -20.3314 -20.3302 -20.3302 -20.3302 -20.3302
   -20.3247 -20.3246 -20.3244 -20.3243 -20.3172 -20.3172 -20.3169 -20.3168
   -20.3141 -20.3140 -20.3139 -20.3137  -9.6639  -9.2815  -9.2345  -8.8271
    -8.7934  -8.7778  -8.2821  -8.2243  -8.1004  -8.0811  -7.8688  -7.8203
     1.4127   1.4951   2.0887   2.0994   2.4471   2.5385   2.8902   2.9376
     3.1739   3.2168   3.7466   3.7523   4.1528   4.2419   4.4472   4.4724
     4.8802   4.9127   5.1485   5.4388   5.4427   5.5980   5.8184   5.9812
     6.3662   6.3875   6.4463   6.5776   6.9423   7.2563   7.3437   7.4476
     7.7086   7.7183   7.8641   7.9803  10.6643  10.7964  10.8624  11.1035
    12.1773  12.2646  12.6933  12.7579  12.9051  12.9749  13.5357  13.6948
    14.4038  15.1683  15.7067  16.2391  16.2828  17.6716

          k = 0.0000 0.3333 0.1119 ( 31264 PWs)   bands (ev):

   -66.1962 -66.1959 -66.1953 -66.1949 -30.5965 -30.5932 -30.5453 -30.5416
   -30.5105 -30.5088 -30.5078 -30.5073 -30.4642 -30.4636 -30.4617 -30.4614
   -20.3534 -20.3533 -20.3533 -20.3533 -20.3416 -20.3414 -20.3368 -20.3366
   -20.3315 -20.3314 -20.3314 -20.3313 -20.3303 -20.3302 -20.3302 -20.3302
   -20.3247 -20.3246 -20.3244 -20.3243 -20.3172 -20.3172 -20.3169 -20.3169
   -20.3141 -20.3140 -20.3139 -20.3137  -9.6213  -9.2937  -9.1618  -8.7936
    -8.7925  -8.7786  -8.3006  -8.2210  -8.0992  -8.0823  -7.9627  -7.9143
     1.6436   1.7242   2.0894   2.0987   2.4484   2.5505   2.9646   2.9877
     3.1845   3.2130   3.7239   3.7607   4.1528   4.2524   4.4560   4.4780
     4.6702   4.7150   4.9397   5.3996   5.4292   5.4929   5.6039   5.7548
     6.4823   6.4864   6.6580   6.6963   6.9549   7.2467   7.3459   7.4358
     7.7058   7.7136   7.8118   7.9253  10.7086  10.8339  10.9245  11.1678
    12.1760  12.2845  12.6729  12.6854  12.8034  12.9665  13.4284  13.5982
    14.7722  15.5534  15.8223  16.2426  16.2795  17.3192

          k = 0.0000 0.3333 0.2238 ( 31247 PWs)   bands (ev):

   -66.1961 -66.1959 -66.1952 -66.1950 -30.5856 -30.5823 -30.5559 -30.5525
   -30.5100 -30.5087 -30.5084 -30.5077 -30.4636 -30.4632 -30.4622 -30.4619
   -20.3534 -20.3533 -20.3533 -20.3533 -20.3406 -20.3404 -20.3379 -20.3376
   -20.3314 -20.3313 -20.3312 -20.3312 -20.3305 -20.3304 -20.3304 -20.3303
   -20.3247 -20.3246 -20.3243 -20.3243 -20.3172 -20.3172 -20.3169 -20.3169
   -20.3141 -20.3140 -20.3138 -20.3138  -9.5177  -9.3336  -8.9579  -8.7901
    -8.7802  -8.6812  -8.4031  -8.2097  -8.1988  -8.0987  -8.0941  -8.0858
     2.0913   2.0967   2.2098   2.3102   2.4462   2.6679   3.0953   3.1950
     3.2054   3.2500   3.5711   3.6813   4.0384   4.2259   4.2886   4.4350
     4.4897   4.5567   4.6862   4.8291   5.0826   5.2149   5.4543   5.4565
     6.7787   6.8310   6.9050   6.9865   7.0242   7.2240   7.3602   7.3948
     7.6207   7.6824   7.7284   7.7802  10.7800  10.8342  11.2103  11.4038
    12.0383  12.1879  12.5447  12.6275  12.7183  12.9962  13.1755  13.3709
    15.6057  16.1597  16.2546  16.2704  16.5524  16.8192

          k = 0.0000 0.3333-0.3357 ( 31258 PWs)   bands (ev):

   -66.1960 -66.1960 -66.1951 -66.1951 -30.5707 -30.5707 -30.5674 -30.5674
   -30.5092 -30.5092 -30.5083 -30.5083 -30.4629 -30.4629 -30.4626 -30.4626
   -20.3534 -20.3534 -20.3533 -20.3533 -20.3393 -20.3393 -20.3390 -20.3390
   -20.3313 -20.3313 -20.3311 -20.3311 -20.3305 -20.3305 -20.3304 -20.3304
   -20.3247 -20.3247 -20.3243 -20.3243 -20.3172 -20.3172 -20.3169 -20.3169
   -20.3141 -20.3141 -20.3138 -20.3138  -9.4089  -9.4089  -8.7884  -8.7884
    -8.6638  -8.6638  -8.4724  -8.4724  -8.1829  -8.1829  -8.0906  -8.0906
     2.0941   2.0941   2.4211   2.4211   3.0821   3.0821   3.1673   3.1673
     3.2777   3.2777   3.4572   3.4572   3.7128   3.7128   4.3778   4.3778
     4.4737   4.4737   4.7082   4.7082   4.8160   4.8160   5.4492   5.4492
     6.8882   6.8882   7.1612   7.1612   7.2251   7.2251   7.3515   7.3515
     7.4897   7.4897   7.7284   7.7284  10.8186  10.8187  11.6335  11.6335
    11.8037  11.8037  12.5780  12.5780  12.8692  12.8692  13.1506  13.1506
    16.2471  16.2471  16.3016  16.3016  16.9270  16.9270

          k = 0.0000-0.5000 0.0000 ( 31338 PWs)   bands (ev):

   -66.1958 -66.1958 -66.1954 -66.1954 -30.5990 -30.5990 -30.5397 -30.5397
   -30.4876 -30.4876 -30.4863 -30.4863 -30.4845 -30.4845 -30.4842 -30.4842
   -20.3534 -20.3534 -20.3533 -20.3533 -20.3419 -20.3419 -20.3364 -20.3364
   -20.3314 -20.3314 -20.3313 -20.3313 -20.3303 -20.3303 -20.3302 -20.3302
   -20.3246 -20.3246 -20.3245 -20.3245 -20.3157 -20.3157 -20.3156 -20.3156
   -20.3153 -20.3153 -20.3152 -20.3152  -9.3936  -9.3936  -8.8161  -8.8161
    -8.6206  -8.6206  -8.4578  -8.4578  -8.4362  -8.4362  -7.8453  -7.8453
     1.4540   1.4540   2.8665   2.8665   3.0222   3.0222   3.0604   3.0604
     3.2676   3.2676   3.7857   3.7857   3.7951   3.7951   4.1438   4.1438
     4.2356   4.2356   4.8751   4.8751   5.3379   5.3379   5.9291   5.9291
     6.3004   6.3004   6.3862   6.3862   7.4372   7.4372   7.4732   7.4732
     7.5770   7.5770   7.7832   7.7832  11.5257  11.5257  11.5649  11.5649
    11.9012  11.9012  12.0858  12.0858  13.0714  13.0714  13.2304  13.2304
    14.8341  14.8341  16.6364  16.6364  17.7090  17.7090

          k = 0.0000-0.5000 0.1119 ( 31258 PWs)   bands (ev):

   -66.1957 -66.1957 -66.1954 -66.1954 -30.5950 -30.5950 -30.5436 -30.5436
   -30.4874 -30.4874 -30.4862 -30.4862 -30.4847 -30.4847 -30.4843 -30.4843
   -20.3534 -20.3534 -20.3533 -20.3533 -20.3416 -20.3416 -20.3367 -20.3367
   -20.3314 -20.3314 -20.3312 -20.3312 -20.3304 -20.3304 -20.3303 -20.3303
   -20.3246 -20.3246 -20.3245 -20.3245 -20.3157 -20.3157 -20.3156 -20.3156
   -20.3153 -20.3153 -20.3152 -20.3152  -9.3322  -9.3322  -8.8293  -8.8293
    -8.6063  -8.6063  -8.4570  -8.4570  -8.4369  -8.4369  -7.9412  -7.9412
     1.6879   1.6879   2.8852   2.8852   3.0393   3.0393   3.0736   3.0736
     3.2574   3.2574   3.8241   3.8241   3.8411   3.8411   4.1355   4.1355
     4.2370   4.2370   4.6496   4.6496   5.0898   5.0898   5.6635   5.6635
     6.5282   6.5282   6.5459   6.5459   7.4253   7.4253   7.4635   7.4635
     7.5619   7.5619   7.7484   7.7485  11.5730  11.5730  11.6226  11.6226
    11.9099  11.9099  12.1114  12.1114  12.9451  12.9451  13.1120  13.1120
    15.2212  15.2212  16.7031  16.7031  17.6216  17.6216

          k = 0.0000-0.5000 0.2238 ( 31298 PWs)   bands (ev):

   -66.1957 -66.1957 -66.1955 -66.1955 -30.5842 -30.5842 -30.5545 -30.5545
   -30.4869 -30.4869 -30.4859 -30.4859 -30.4853 -30.4853 -30.4848 -30.4848
   -20.3533 -20.3533 -20.3533 -20.3533 -20.3406 -20.3406 -20.3378 -20.3378
   -20.3312 -20.3312 -20.3311 -20.3311 -20.3306 -20.3306 -20.3305 -20.3305
   -20.3246 -20.3246 -20.3245 -20.3245 -20.3157 -20.3157 -20.3157 -20.3157
   -20.3153 -20.3153 -20.3153 -20.3153  -9.1717  -9.1717  -8.8778  -8.8778
    -8.5533  -8.5533  -8.4554  -8.4554  -8.4374  -8.4374  -8.1720  -8.1720
     2.3127   2.3127   2.9289   2.9289   3.0268   3.0268   3.1635   3.1635
     3.2180   3.2180   3.9378   3.9378   3.9533   3.9533   4.0317   4.0317
     4.2520   4.2521   4.2758   4.2758   4.6731   4.6731   4.9769   4.9770
     6.8660   6.8660   6.9479   6.9479   7.3563   7.3563   7.4239   7.4239
     7.5411   7.5411   7.6515   7.6516  11.6811  11.6811  11.7410  11.7410
    11.9817  11.9817  12.2155  12.2155  12.6287  12.6287  12.8136  12.8136
    16.1681  16.1681  16.8917  16.8917  17.3941  17.3941

          k = 0.0000-0.5000-0.3357 ( 31252 PWs)   bands (ev):

   -66.1956 -66.1956 -66.1956 -66.1955 -30.5693 -30.5693 -30.5693 -30.5693
   -30.4861 -30.4861 -30.4861 -30.4861 -30.4854 -30.4854 -30.4854 -30.4854
   -20.3533 -20.3533 -20.3533 -20.3533 -20.3392 -20.3392 -20.3392 -20.3392
   -20.3309 -20.3309 -20.3309 -20.3309 -20.3307 -20.3307 -20.3307 -20.3307
   -20.3246 -20.3245 -20.3245 -20.3245 -20.3157 -20.3157 -20.3157 -20.3157
   -20.3153 -20.3153 -20.3153 -20.3153  -8.9910  -8.9910  -8.9910  -8.9910
    -8.4635  -8.4635  -8.4635  -8.4635  -8.3950  -8.3950  -8.3950  -8.3950
     2.9466   2.9466   2.9467   2.9467   3.0659   3.0659   3.0659   3.0659
     3.3891   3.3891   3.3891   3.3891   4.1061   4.1061   4.1062   4.1062
     4.3238   4.3238   4.3238   4.3238   4.4115   4.4115   4.4115   4.4115
     7.1606   7.1607   7.1607   7.1607   7.2790   7.2790   7.2790   7.2790
     7.5613   7.5613   7.5613   7.5613  11.7598  11.7598  11.7598  11.7598
    12.2401  12.2401  12.2401  12.2401  12.4777  12.4777  12.4777  12.4777
    17.0816  17.0816  17.0817  17.0817  17.3445  17.3446

          k = 0.1667 0.1667 0.0000 ( 31250 PWs)   bands (ev):

   -66.1965 -66.1961 -66.1951 -66.1947 -30.6008 -30.5961 -30.5408 -30.5365
   -30.5351 -30.5317 -30.5085 -30.5061 -30.4652 -30.4625 -30.4399 -30.4372
   -20.3534 -20.3533 -20.3533 -20.3532 -20.3420 -20.3417 -20.3364 -20.3360
   -20.3319 -20.3318 -20.3314 -20.3314 -20.3303 -20.3303 -20.3299 -20.3299
   -20.3247 -20.3246 -20.3242 -20.3241 -20.3189 -20.3189 -20.3168 -20.3167
   -20.3143 -20.3141 -20.3122 -20.3120  -9.8461  -9.5347  -9.1897  -8.9752
    -8.8868  -8.8318  -8.1580  -8.1380  -7.8842  -7.8078  -7.7210  -7.6987
     1.2275   1.2736   1.4715   1.5235   2.3758   2.4445   2.6271   2.7052
     2.8067   2.9670   3.7945   3.8871   4.4213   4.5149   4.7713   4.9408
     5.1406   5.4120   5.4203   5.6728   5.7430   5.9519   6.2718   6.3051
     6.5023   6.5181   6.6126   6.7672   6.7900   6.9430   7.0193   7.3075
     7.7502   7.7766   7.8846   8.0958   9.9211  10.2438  10.3046  10.8989
    12.0650  12.5783  12.6374  12.9188  13.0795  13.3627  13.6550  14.0719
    14.1263  15.2009  15.2950  15.4612  15.7464  17.4480

          k = 0.1667 0.1667 0.1119 ( 31268 PWs)   bands (ev):

   -66.1964 -66.1961 -66.1950 -66.1947 -30.5968 -30.5921 -30.5448 -30.5405
   -30.5348 -30.5319 -30.5085 -30.5063 -30.4650 -30.4627 -30.4397 -30.4373
   -20.3534 -20.3533 -20.3533 -20.3532 -20.3417 -20.3413 -20.3368 -20.3364
   -20.3319 -20.3318 -20.3314 -20.3313 -20.3304 -20.3303 -20.3300 -20.3299
   -20.3247 -20.3246 -20.3242 -20.3241 -20.3189 -20.3189 -20.3168 -20.3167
   -20.3143 -20.3141 -20.3122 -20.3120  -9.8123  -9.5459  -9.1157  -8.9553
    -8.8885  -8.8083  -8.1740  -8.1359  -7.9764  -7.9064  -7.7195  -7.7002
     1.2551   1.2734   1.6618   1.7691   2.3773   2.4633   2.6895   2.7159
     2.8036   3.0269   3.7860   3.8336   4.2732   4.5317   4.6974   4.7775
     4.9682   5.3648   5.4297   5.5689   5.6415   5.8002   6.3011   6.4808
     6.4987   6.5912   6.6231   6.7332   6.8483   6.9254   6.9835   7.3015
     7.7545   7.7741   7.8466   8.0214  10.1046  10.2515  10.3060  10.9932
    12.0229  12.4693  12.5906  12.9051  13.0846  13.3636  13.5631  14.0338
    14.3752  15.3396  15.4506  15.7007  15.7672  17.0469

          k = 0.1667 0.1667 0.2238 ( 31244 PWs)   bands (ev):

   -66.1964 -66.1962 -66.1950 -66.1948 -30.5858 -30.5812 -30.5557 -30.5514
   -30.5342 -30.5325 -30.5081 -30.5068 -30.4645 -30.4632 -30.4392 -30.4378
   -20.3534 -20.3534 -20.3533 -20.3533 -20.3406 -20.3403 -20.3378 -20.3375
   -20.3317 -20.3317 -20.3312 -20.3312 -20.3305 -20.3305 -20.3301 -20.3301
   -20.3247 -20.3246 -20.3242 -20.3241 -20.3189 -20.3189 -20.3168 -20.3167
   -20.3142 -20.3141 -20.3122 -20.3121  -9.7309  -9.5813  -8.9230  -8.9055
    -8.8937  -8.7041  -8.3029  -8.2029  -8.1295  -8.0743  -7.7155  -7.7044
     1.2683   1.2730   2.2128   2.3132   2.3744   2.6614   2.7440   2.7761
     2.8966   3.2140   3.5703   3.6504   4.0569   4.2454   4.5207   4.5838
     4.7848   5.0014   5.1401   5.3060   5.5147   5.7445   6.3820   6.5757
     6.5790   6.6338   6.7582   6.7763   6.9743   7.0025   7.1152   7.2833
     7.6913   7.7448   7.7696   7.8209  10.2671  10.2882  10.5986  11.2739
    11.7430  12.1456  12.5946  12.8500  13.1094  13.3449  13.4335  13.8153
    14.9371  15.4071  15.8412  15.9045  16.5330  16.6808

          k = 0.1667 0.1667-0.3357 ( 31216 PWs)   bands (ev):

   -66.1963 -66.1963 -66.1949 -66.1949 -30.5707 -30.5707 -30.5664 -30.5664
   -30.5334 -30.5334 -30.5075 -30.5075 -30.4639 -30.4639 -30.4385 -30.4385
   -20.3534 -20.3534 -20.3533 -20.3533 -20.3393 -20.3393 -20.3389 -20.3389
   -20.3316 -20.3316 -20.3312 -20.3311 -20.3305 -20.3305 -20.3302 -20.3302
   -20.3246 -20.3246 -20.3242 -20.3242 -20.3189 -20.3189 -20.3168 -20.3167
   -20.3142 -20.3142 -20.3121 -20.3121  -9.6445  -9.6445  -8.9034  -8.9034
    -8.6048  -8.6048  -8.4864  -8.4864  -8.1165  -8.1165  -7.7100  -7.7100
     1.2718   1.2718   2.3545   2.3545   2.7585   2.7585   3.1582   3.1582
     3.1979   3.1979   3.3339   3.3339   3.6799   3.6799   4.4423   4.4423
     4.7433   4.7433   5.1902   5.1902   5.5833   5.5833   6.4887   6.4887
     6.6097   6.6097   6.7893   6.7894   7.1529   7.1529   7.4113   7.4113
     7.4423   7.4423   7.7756   7.7756  10.2809  10.2809  11.2020  11.2020
    11.6967  11.6967  12.7263  12.7263  13.1821  13.1821  13.5859  13.5859
    15.2764  15.2765  16.0949  16.0950  16.7644  16.7644

          k = 0.1667 0.3333 0.0000 ( 31250 PWs)   bands (ev):

   -66.1962 -66.1958 -66.1954 -66.1950 -30.6000 -30.5973 -30.5409 -30.5379
   -30.5288 -30.5264 -30.4889 -30.4864 -30.4849 -30.4823 -30.4453 -30.4426
   -20.3534 -20.3533 -20.3533 -20.3533 -20.3420 -20.3418 -20.3364 -20.3362
   -20.3319 -20.3318 -20.3311 -20.3311 -20.3306 -20.3305 -20.3299 -20.3298
   -20.3246 -20.3245 -20.3244 -20.3243 -20.3187 -20.3187 -20.3160 -20.3159
   -20.3150 -20.3150 -20.3124 -20.3123  -9.6710  -9.3382  -9.2677  -8.9115
    -8.6063  -8.5986  -8.5560  -8.5019  -7.8829  -7.8759  -7.8446  -7.8232
     1.3673   1.4960   1.5316   1.6265   2.6519   2.9180   3.0095   3.1246
     3.2379   3.3716   3.4311   3.7406   3.8431   4.3231   4.4931   4.8373
     4.9765   5.0014   5.2026   5.5878   5.7245   5.7413   5.8204   5.9133
     6.2868   6.3679   6.5818   6.6790   6.7602   6.9190   6.9776   7.4968
     7.5405   7.6660   7.6743   8.0691  10.1865  11.1310  11.1906  11.5471
    11.7221  12.5573  12.6127  12.6475  12.8836  13.1870  13.2966  13.9805
    14.2997  15.0563  15.7826  15.9578  16.6455  17.7795

          k = 0.1667 0.3333 0.1119 ( 31263 PWs)   bands (ev):

   -66.1961 -66.1958 -66.1953 -66.1950 -30.5960 -30.5933 -30.5446 -30.5419
   -30.5289 -30.5266 -30.4888 -30.4866 -30.4848 -30.4825 -30.4451 -30.4428
   -20.3534 -20.3533 -20.3533 -20.3533 -20.3416 -20.3414 -20.3368 -20.3366
   -20.3318 -20.3318 -20.3310 -20.3310 -20.3306 -20.3306 -20.3299 -20.3299
   -20.3246 -20.3245 -20.3244 -20.3243 -20.3187 -20.3187 -20.3160 -20.3159
   -20.3150 -20.3150 -20.3124 -20.3123  -9.6317  -9.3483  -9.1986  -8.8787
    -8.6121  -8.6013  -8.5551  -8.4958  -7.9692  -7.9286  -7.8740  -7.8511
     1.4748   1.5314   1.6975   1.7917   2.7201   2.9384   3.0273   3.1378
     3.2389   3.3742   3.4231   3.7435   3.8919   4.1744   4.5230   4.6113
     4.8822   4.9501   5.0391   5.3844   5.6348   5.6980   5.7962   5.8168
     6.4125   6.5499   6.5784   6.7204   6.8365   6.8770   7.0029   7.4962
     7.5345   7.6348   7.6442   7.9950  10.3475  11.1358  11.1894  11.6141
    11.7844  12.4230  12.5914  12.6437  12.8594  13.0825  13.2420  13.8843
    14.6131  15.4340  15.9064  15.9381  16.6787  17.5510

          k = 0.1667 0.3333 0.2238 ( 31251 PWs)   bands (ev):

   -66.1961 -66.1959 -66.1953 -66.1951 -30.5851 -30.5825 -30.5553 -30.5527
   -30.5286 -30.5272 -30.4884 -30.4871 -30.4844 -30.4830 -30.4446 -30.4433
   -20.3534 -20.3533 -20.3533 -20.3533 -20.3406 -20.3404 -20.3378 -20.3376
   -20.3317 -20.3316 -20.3309 -20.3309 -20.3308 -20.3308 -20.3301 -20.3301
   -20.3246 -20.3246 -20.3244 -20.3243 -20.3187 -20.3187 -20.3160 -20.3159
   -20.3150 -20.3150 -20.3124 -20.3123  -9.5384  -9.3814  -9.0102  -8.7769
    -8.6463  -8.6120  -8.5397  -8.4709  -8.2001  -8.1700  -7.8700  -7.8581
     1.5198   1.5304   2.3008   2.4155   2.9098   3.0033   3.0310   3.1990
     3.2400   3.3760   3.3991   3.6118   4.0253   4.0604   4.0645   4.3186
     4.6800   4.7472   4.9333   4.9682   5.0664   5.4644   5.8169   5.8274
     6.6215   6.7403   6.7831   6.8151   6.9539   7.0050   7.1253   7.4726
     7.5084   7.5366   7.5715   7.7818  10.7705  11.1472  11.1892  11.7241
    11.9734  12.1186  12.4928  12.5738  12.7359  12.8686  13.2475  13.6555
    15.2346  15.8510  16.3019  16.3877  16.8214  17.1911

          k = 0.1667 0.3333-0.3357 ( 31244 PWs)   bands (ev):

   -66.1960 -66.1960 -66.1952 -66.1952 -30.5702 -30.5701 -30.5676 -30.5676
   -30.5279 -30.5279 -30.4878 -30.4878 -30.4837 -30.4837 -30.4439 -30.4439
   -20.3534 -20.3533 -20.3533 -20.3533 -20.3392 -20.3392 -20.3390 -20.3390
   -20.3315 -20.3315 -20.3309 -20.3309 -20.3308 -20.3307 -20.3302 -20.3302
   -20.3246 -20.3246 -20.3243 -20.3243 -20.3187 -20.3187 -20.3159 -20.3159
   -20.3150 -20.3150 -20.3123 -20.3123  -9.4445  -9.4444  -8.7814  -8.7794
    -8.6537  -8.6499  -8.4431  -8.4383  -8.3886  -8.3851  -7.8645  -7.8641
     1.5272   1.5285   2.9467   2.9537   3.0651   3.0839   3.1546   3.2134
     3.2291   3.3234   3.4231   3.4410   3.5611   3.5775   4.2585   4.2672
     4.3592   4.3633   4.8172   4.9856   5.0831   5.2353   5.8185   5.8265
     6.7074   6.7404   6.8153   6.8531   7.2329   7.2668   7.3032   7.3457
     7.3875   7.4262   7.5604   7.5849  11.1260  11.1529  11.3424  11.3958
    12.2159  12.2480  12.2733  12.2807  12.7087  12.7793  13.3878  13.4334
    15.6425  15.6640  16.8161  16.8295  17.2977  17.3148

          k = 0.1667-0.5000 0.0000 ( 31284 PWs)   bands (ev):

   -66.1958 -66.1958 -66.1954 -66.1954 -30.5988 -30.5988 -30.5397 -30.5397
   -30.5120 -30.5120 -30.5097 -30.5097 -30.4618 -30.4618 -30.4591 -30.4591
   -20.3534 -20.3534 -20.3533 -20.3533 -20.3419 -20.3419 -20.3363 -20.3363
   -20.3318 -20.3318 -20.3310 -20.3310 -20.3307 -20.3307 -20.3298 -20.3298
   -20.3245 -20.3245 -20.3245 -20.3244 -20.3176 -20.3176 -20.3175 -20.3175
   -20.3135 -20.3135 -20.3133 -20.3133  -9.4409  -9.4409  -9.0120  -9.0120
    -8.7810  -8.7810  -8.2117  -8.2117  -8.2013  -8.2013  -7.8447  -7.8447
     1.4541   1.4541   2.2102   2.2102   2.2408   2.2408   2.8574   2.8574
     3.8408   3.8408   4.0771   4.0771   4.0929   4.0929   4.3646   4.3646
     4.8078   4.8078   5.0221   5.0221   5.3821   5.3821   5.8195   5.8195
     6.4022   6.4022   6.4994   6.4995   7.1431   7.1431   7.1680   7.1681
     7.3060   7.3060   7.9345   7.9345  10.8274  10.8274  11.9798  11.9798
    12.0276  12.0276  12.4889  12.4889  12.7690  12.7690  13.6038  13.6038
    14.6826  14.6826  16.6602  16.6602  17.0927  17.0927

          k = 0.1667-0.5000 0.1119 ( 31256 PWs)   bands (ev):

   -66.1957 -66.1957 -66.1954 -66.1954 -30.5948 -30.5948 -30.5435 -30.5435
   -30.5120 -30.5120 -30.5099 -30.5099 -30.4617 -30.4617 -30.4593 -30.4593
   -20.3534 -20.3534 -20.3533 -20.3533 -20.3415 -20.3415 -20.3367 -20.3367
   -20.3317 -20.3317 -20.3309 -20.3309 -20.3307 -20.3307 -20.3299 -20.3299
   -20.3245 -20.3245 -20.3245 -20.3245 -20.3176 -20.3176 -20.3175 -20.3175
   -20.3135 -20.3135 -20.3133 -20.3133  -9.3874  -9.3874  -9.0214  -9.0214
    -8.7590  -8.7590  -8.2152  -8.2152  -8.2025  -8.2024  -7.9394  -7.9394
     1.6805   1.6805   2.2093   2.2093   2.2517   2.2517   2.9290   2.9290
     3.8141   3.8141   4.0590   4.0590   4.1418   4.1418   4.2928   4.2928
     4.8115   4.8115   4.8764   4.8764   5.1512   5.1512   5.7122   5.7122
     6.4279   6.4279   6.6922   6.6923   7.1410   7.1410   7.1649   7.1650
     7.3010   7.3010   7.8753   7.8753  10.9394  10.9394  11.9775  11.9775
    12.0260  12.0260  12.5377  12.5377  12.6333  12.6333  13.4949  13.4949
    15.0385  15.0385  16.7156  16.7156  17.0718  17.0718

          k = 0.1667-0.5000 0.2238 ( 31282 PWs)   bands (ev):

   -66.1957 -66.1957 -66.1955 -66.1955 -30.5839 -30.5839 -30.5543 -30.5543
   -30.5117 -30.5117 -30.5105 -30.5105 -30.4612 -30.4612 -30.4598 -30.4598
   -20.3533 -20.3533 -20.3533 -20.3533 -20.3405 -20.3405 -20.3377 -20.3377
   -20.3315 -20.3315 -20.3310 -20.3310 -20.3307 -20.3307 -20.3301 -20.3301
   -20.3245 -20.3245 -20.3245 -20.3245 -20.3176 -20.3176 -20.3175 -20.3175
   -20.3134 -20.3134 -20.3134 -20.3134  -9.2566  -9.2566  -9.0546  -9.0546
    -8.6763  -8.6763  -8.2711  -8.2711  -8.1987  -8.1987  -8.1323  -8.1322
     2.1262   2.1262   2.2056   2.2056   2.4470   2.4470   3.1431   3.1431
     3.6278   3.6278   4.0269   4.0269   4.1105   4.1105   4.3136   4.3136
     4.4602   4.4602   4.8271   4.8271   4.8387   4.8387   5.2393   5.2393
     6.7640   6.7640   6.9528   6.9528   7.1124   7.1124   7.1862   7.1862
     7.2955   7.2955   7.6982   7.6982  11.2526  11.2526  11.9560  11.9560
    12.0154  12.0154  12.2976  12.2976  12.6833  12.6833  13.2280  13.2280
    15.8423  15.8423  16.7730  16.7730  17.1112  17.1112

          k = 0.1667-0.5000-0.3357 ( 31280 PWs)   bands (ev):

   -66.1956 -66.1956 -66.1956 -66.1955 -30.5691 -30.5691 -30.5691 -30.5691
   -30.5112 -30.5112 -30.5111 -30.5111 -30.4605 -30.4605 -30.4605 -30.4605
   -20.3533 -20.3533 -20.3533 -20.3533 -20.3391 -20.3391 -20.3391 -20.3391
   -20.3313 -20.3313 -20.3313 -20.3313 -20.3304 -20.3304 -20.3304 -20.3304
   -20.3245 -20.3245 -20.3245 -20.3245 -20.3176 -20.3176 -20.3176 -20.3176
   -20.3134 -20.3134 -20.3134 -20.3134  -9.1286  -9.1286  -9.1282  -9.1282
    -8.4957  -8.4957  -8.4943  -8.4943  -8.1876  -8.1876  -8.1866  -8.1866
     2.1940   2.1940   2.1956   2.1956   3.1630   3.1630   3.1680   3.1681
     3.5414   3.5414   3.5855   3.5855   4.0345   4.0345   4.1517   4.1517
     4.5854   4.5854   4.6556   4.6556   4.9136   4.9136   4.9265   4.9265
     6.9923   6.9923   7.0237   7.0237   7.1040   7.1040   7.2062   7.2062
     7.4059   7.4059   7.4599   7.4599  11.6592  11.6592  11.7136  11.7136
    12.0042  12.0042  12.1185  12.1185  12.8996  12.8996  12.9503  12.9503
    16.4892  16.4892  16.5342  16.5342  17.4089  17.4089

          k = 0.3333 0.3333 0.0000 ( 31276 PWs)   bands (ev):

   -66.1960 -66.1956 -66.1955 -66.1951 -30.5991 -30.5977 -30.5388 -30.5387
   -30.5377 -30.5343 -30.5131 -30.5110 -30.4607 -30.4580 -30.4377 -30.4350
   -20.3534 -20.3533 -20.3533 -20.3533 -20.3419 -20.3418 -20.3363 -20.3362
   -20.3321 -20.3321 -20.3309 -20.3309 -20.3308 -20.3308 -20.3296 -20.3296
   -20.3245 -20.3244 -20.3244 -20.3243 -20.3195 -20.3195 -20.3179 -20.3178
   -20.3132 -20.3131 -20.3117 -20.3115  -9.6434  -9.3782  -9.3496  -8.9530
    -8.9254  -8.7600  -8.2405  -8.2397  -7.8603  -7.8320  -7.7856  -7.7622
     1.2217   1.2560   1.4860   1.5219   2.1902   2.2195   2.5433   2.8403
     3.7115   3.8037   4.1181   4.1806   4.2315   4.7481   4.7541   4.9127
     5.0951   5.1195   5.3075   5.5925   5.6054   5.6858   5.9246   6.0930
     6.2418   6.2487   6.4530   6.4616   6.6836   6.7417   6.9787   7.0523
     7.0727   7.2753   7.9253   8.1122   9.9145  10.8122  11.7487  11.7886
    12.4396  12.4421  12.4639  12.4787  12.8110  13.1497  13.6434  14.1223
    14.2263  14.7424  15.8123  16.1910  17.1252  17.2808

          k = 0.3333 0.3333 0.1119 ( 31279 PWs)   bands (ev):

   -66.1960 -66.1956 -66.1955 -66.1951 -30.5951 -30.5938 -30.5429 -30.5425
   -30.5374 -30.5345 -30.5131 -30.5112 -30.4605 -30.4582 -30.4376 -30.4352
   -20.3534 -20.3533 -20.3533 -20.3533 -20.3415 -20.3414 -20.3367 -20.3366
   -20.3320 -20.3320 -20.3310 -20.3310 -20.3307 -20.3307 -20.3297 -20.3297
   -20.3245 -20.3244 -20.3244 -20.3243 -20.3195 -20.3195 -20.3179 -20.3178
   -20.3132 -20.3131 -20.3117 -20.3115  -9.6067  -9.3582  -9.3227  -8.9613
    -8.8869  -8.7396  -8.2472  -8.2377  -7.9566  -7.9321  -7.7842  -7.7638
     1.2401   1.2559   1.6888   1.7707   2.1886   2.2315   2.6141   2.9148
     3.7101   3.7988   4.0314   4.0502   4.1783   4.7240   4.7651   4.8130
     5.0582   5.0841   5.1054   5.3075   5.6919   5.7566   5.8979   6.0770
     6.1379   6.2369   6.4845   6.6217   6.7296   6.7791   6.9620   7.0192
     7.0607   7.2674   7.8650   8.0304  10.1147  10.9277  11.7503  11.7863
    12.3069  12.4074  12.4667  12.5175  12.7030  13.1707  13.5484  14.0267
    14.5022  15.0871  15.7810  16.3250  17.0813  17.3352

          k = 0.3333 0.3333 0.2238 ( 31262 PWs)   bands (ev):

   -66.1959 -66.1957 -66.1954 -66.1952 -30.5841 -30.5829 -30.5540 -30.5532
   -30.5368 -30.5351 -30.5129 -30.5117 -30.4600 -30.4587 -30.4371 -30.4357
   -20.3534 -20.3533 -20.3533 -20.3533 -20.3405 -20.3404 -20.3377 -20.3376
   -20.3319 -20.3318 -20.3311 -20.3311 -20.3305 -20.3305 -20.3299 -20.3299
   -20.3245 -20.3244 -20.3244 -20.3243 -20.3195 -20.3195 -20.3178 -20.3178
   -20.3132 -20.3131 -20.3116 -20.3115  -9.5217  -9.3861  -9.1872  -8.9906
    -8.7590  -8.6594  -8.3012  -8.2313  -8.1933  -8.1485  -7.7799  -7.7682
     1.2511   1.2555   2.1086   2.1839   2.4363   2.4478   2.8214   3.1403
     3.5517   3.6857   3.7821   3.7957   4.3278   4.3517   4.4302   4.7205
     4.7483   4.9294   5.0892   5.1289   5.3033   5.5975   6.0642   6.1142
     6.1842   6.2423   6.5501   6.7635   6.8382   6.9270   6.9998   7.0790
     7.1292   7.2380   7.6817   7.7926  10.6197  11.2407  11.7506  11.7796
    11.8944  12.1765  12.4927  12.5573  12.6567  13.1340  13.4268  13.7998
    15.0501  15.6759  15.8711  16.7464  16.9283  17.5388

          k = 0.3333 0.3333-0.3357 ( 31270 PWs)   bands (ev):

   -66.1958 -66.1958 -66.1953 -66.1953 -30.5691 -30.5691 -30.5681 -30.5680
   -30.5360 -30.5360 -30.5124 -30.5124 -30.4594 -30.4594 -30.4364 -30.4364
   -20.3533 -20.3533 -20.3533 -20.3533 -20.3391 -20.3391 -20.3390 -20.3390
   -20.3317 -20.3317 -20.3313 -20.3313 -20.3304 -20.3304 -20.3301 -20.3301
   -20.3245 -20.3244 -20.3244 -20.3244 -20.3195 -20.3195 -20.3178 -20.3178
   -20.3131 -20.3131 -20.3116 -20.3116  -9.4397  -9.4397  -9.0592  -9.0592
    -8.5337  -8.5337  -8.4707  -8.4707  -8.2174  -8.2174  -7.7741  -7.7741
     1.2544   1.2544   2.1727   2.1728   3.1468   3.1468   3.1678   3.1678
     3.3780   3.3780   3.6032   3.6032   3.7814   3.7814   4.5900   4.5900
     4.7893   4.7893   5.1204   5.1204   5.3190   5.3190   6.1122   6.1122
     6.2376   6.2376   6.6497   6.6497   6.9564   6.9564   7.1377   7.1377
     7.3818   7.3818   7.4457   7.4457  11.2387  11.2387  11.7349  11.7349
    11.7748  11.7748  12.5154  12.5154  12.8870  12.8870  13.5609  13.5609
    15.4571  15.4571  16.5705  16.5705  17.2953  17.2954

          k = 0.3333-0.5000 0.0000 ( 31274 PWs)   bands (ev):

   -66.1958 -66.1958 -66.1954 -66.1954 -30.5983 -30.5983 -30.5396 -30.5396
   -30.5305 -30.5305 -30.5285 -30.5285 -30.4434 -30.4434 -30.4407 -30.4407
   -20.3534 -20.3534 -20.3533 -20.3533 -20.3418 -20.3418 -20.3362 -20.3362
   -20.3322 -20.3322 -20.3310 -20.3310 -20.3307 -20.3307 -20.3296 -20.3296
   -20.3244 -20.3244 -20.3243 -20.3243 -20.3192 -20.3192 -20.3191 -20.3191
   -20.3120 -20.3120 -20.3118 -20.3118  -9.5341  -9.5341  -9.2206  -9.2206
    -8.8836  -8.8836  -7.9330  -7.9330  -7.9163  -7.9163  -7.8423  -7.8423
     1.3905   1.3905   1.5013   1.5013   1.6232   1.6232   2.6086   2.6086
     4.2481   4.2481   4.4250   4.4250   4.4807   4.4807   4.6252   4.6252
     5.4420   5.4420   5.5682   5.5682   5.6388   5.6388   5.6780   5.6780
     6.4144   6.4144   6.4967   6.4967   6.6179   6.6179   6.7953   6.7953
     6.9499   6.9499   8.0671   8.0671  10.1847  10.1847  12.2027  12.2027
    12.2292  12.2292  12.5377  12.5377  13.0016  13.0016  13.9774  13.9774
    14.3839  14.3839  16.2172  16.2172  16.8963  16.8963

          k = 0.3333-0.5000 0.1119 ( 31288 PWs)   bands (ev):

   -66.1957 -66.1957 -66.1954 -66.1954 -30.5943 -30.5943 -30.5431 -30.5431
   -30.5308 -30.5308 -30.5288 -30.5288 -30.4432 -30.4432 -30.4409 -30.4409
   -20.3534 -20.3534 -20.3533 -20.3533 -20.3415 -20.3415 -20.3366 -20.3366
   -20.3321 -20.3321 -20.3311 -20.3311 -20.3306 -20.3306 -20.3296 -20.3296
   -20.3244 -20.3244 -20.3243 -20.3243 -20.3192 -20.3192 -20.3191 -20.3191
   -20.3119 -20.3119 -20.3118 -20.3118  -9.4927  -9.4927  -9.2286  -9.2286
    -8.8491  -8.8491  -7.9646  -7.9646  -7.9297  -7.9297  -7.8986  -7.8986
     1.4596   1.4596   1.5011   1.5011   1.7961   1.7961   2.6818   2.6818
     4.0469   4.0469   4.4072   4.4072   4.4836   4.4836   4.6635   4.6635
     5.1918   5.1918   5.5293   5.5293   5.6703   5.6703   5.7353   5.7353
     6.3246   6.3246   6.4925   6.4925   6.7188   6.7188   6.8170   6.8170
     6.9241   6.9241   7.9898   7.9898  10.3535  10.3535  12.2079  12.2079
    12.2167  12.2167  12.3983  12.3983  13.0425  13.0425  13.8766  13.8766
    14.6825  14.6825  16.1825  16.1825  17.0076  17.0076

          k = 0.3333-0.5000 0.2238 ( 31270 PWs)   bands (ev):

   -66.1957 -66.1957 -66.1955 -66.1955 -30.5834 -30.5834 -30.5536 -30.5536
   -30.5307 -30.5307 -30.5293 -30.5293 -30.4427 -30.4427 -30.4414 -30.4414
   -20.3533 -20.3533 -20.3533 -20.3533 -20.3405 -20.3405 -20.3376 -20.3376
   -20.3319 -20.3319 -20.3313 -20.3313 -20.3304 -20.3304 -20.3298 -20.3298
   -20.3244 -20.3244 -20.3244 -20.3244 -20.3192 -20.3192 -20.3191 -20.3191
   -20.3119 -20.3119 -20.3118 -20.3118  -9.3975  -9.3975  -9.2553  -9.2553
    -8.7289  -8.7289  -8.2085  -8.2085  -7.9258  -7.9258  -7.9121  -7.9121
     1.4911   1.4911   1.5002   1.5002   2.4220   2.4220   2.9041   2.9041
     3.6113   3.6113   4.3784   4.3784   4.4269   4.4270   4.5102   4.5102
     4.8231   4.8231   5.3654   5.3654   5.6788   5.6789   5.7423   5.7423
     6.3600   6.3600   6.4789   6.4789   6.8165   6.8165   6.8794   6.8794
     7.0365   7.0365   7.7619   7.7619  10.7984  10.7984  11.9422  11.9422
    12.2194  12.2194  12.2539  12.2539  13.1645  13.1645  13.6347  13.6347
    15.3068  15.3068  16.0629  16.0629  17.3693  17.3693

          k = 0.3333-0.5000-0.3357 ( 31284 PWs)   bands (ev):

   -66.1956 -66.1956 -66.1956 -66.1955 -30.5685 -30.5685 -30.5685 -30.5685
   -30.5301 -30.5301 -30.5301 -30.5301 -30.4421 -30.4421 -30.4420 -30.4420
   -20.3533 -20.3533 -20.3533 -20.3533 -20.3391 -20.3391 -20.3391 -20.3391
   -20.3316 -20.3316 -20.3316 -20.3316 -20.3301 -20.3301 -20.3301 -20.3301
   -20.3244 -20.3244 -20.3244 -20.3244 -20.3192 -20.3192 -20.3191 -20.3191
   -20.3119 -20.3119 -20.3119 -20.3119  -9.3093  -9.3093  -9.3092  -9.3092
    -8.5015  -8.5015  -8.5011  -8.5011  -7.9195  -7.9195  -7.9192  -7.9192
     1.4977   1.4977   1.4982   1.4982   3.1488   3.1488   3.1533   3.1533
     3.4409   3.4409   3.4468   3.4468   4.4350   4.4350   4.4807   4.4807
     5.0551   5.0551   5.1001   5.1001   5.6863   5.6863   5.7143   5.7143
     6.4298   6.4298   6.4506   6.4506   6.8525   6.8525   6.8644   6.8644
     7.4053   7.4053   7.4160   7.4160  11.3795  11.3795  11.3823  11.3823
    12.2235  12.2235  12.2448  12.2448  13.3631  13.3631  13.3767  13.3767
    15.7962  15.7962  15.8075  15.8075  17.8178  17.8187

          k =-0.5000-0.5000 0.0000 ( 31304 PWs)   bands (ev):

   -66.1958 -66.1958 -66.1954 -66.1954 -30.5980 -30.5980 -30.5390 -30.5390
   -30.5377 -30.5377 -30.5355 -30.5355 -30.4367 -30.4367 -30.4339 -30.4339
   -20.3534 -20.3534 -20.3533 -20.3533 -20.3418 -20.3418 -20.3361 -20.3361
   -20.3323 -20.3323 -20.3312 -20.3312 -20.3306 -20.3306 -20.3294 -20.3294
   -20.3244 -20.3244 -20.3243 -20.3243 -20.3198 -20.3198 -20.3197 -20.3197
   -20.3114 -20.3114 -20.3112 -20.3112  -9.5786  -9.5786  -9.2967  -9.2967
    -8.9102  -8.9102  -7.8468  -7.8468  -7.8200  -7.8200  -7.7939  -7.7939
     1.2156   1.2157   1.2368   1.2368   1.5430   1.5430   2.5129   2.5129
     4.3037   4.3037   4.7593   4.7593   4.7795   4.7795   4.7915   4.7915
     5.4020   5.4020   5.5175   5.5175   5.8287   5.8287   6.0420   6.0420
     6.0437   6.0437   6.2323   6.2323   6.5051   6.5051   6.7539   6.7539
     7.0482   7.0482   8.1101   8.1101   9.9138   9.9138  12.2390  12.2390
    12.3027  12.3027  12.4500  12.4500  13.2069  13.2069  14.1278  14.1278
    14.2515  14.2515  15.9189  15.9189  16.9991  16.9991

          k =-0.5000-0.5000 0.1119 ( 31256 PWs)   bands (ev):

   -66.1957 -66.1957 -66.1954 -66.1954 -30.5940 -30.5940 -30.5418 -30.5418
   -30.5387 -30.5387 -30.5358 -30.5358 -30.4365 -30.4365 -30.4341 -30.4341
   -20.3534 -20.3533 -20.3533 -20.3533 -20.3414 -20.3414 -20.3365 -20.3365
   -20.3322 -20.3322 -20.3312 -20.3312 -20.3305 -20.3305 -20.3295 -20.3295
   -20.3243 -20.3243 -20.3243 -20.3243 -20.3198 -20.3198 -20.3197 -20.3197
   -20.3114 -20.3114 -20.3112 -20.3112  -9.5415  -9.5415  -9.3044  -9.3044
    -8.8714  -8.8714  -7.9485  -7.9484  -7.8183  -7.8183  -7.7957  -7.7957
     1.2260   1.2260   1.2368   1.2368   1.7775   1.7776   2.5846   2.5846
     4.0383   4.0383   4.7619   4.7619   4.7856   4.7856   4.8410   4.8410
     5.2203   5.2203   5.6059   5.6059   5.7576   5.7576   6.0264   6.0264
     6.0641   6.0641   6.2162   6.2162   6.5276   6.5276   6.7963   6.7963
     6.9625   6.9625   8.0270   8.0270  10.1164  10.1164  12.2543  12.2543
    12.2945  12.2945  12.3016  12.3016  13.2421  13.2421  14.0300  14.0300
    14.5243  14.5243  15.8852  15.8852  17.1420  17.1420

          k =-0.5000-0.5000 0.2238 ( 31268 PWs)   bands (ev):

   -66.1957 -66.1957 -66.1955 -66.1955 -30.5830 -30.5830 -30.5529 -30.5529
   -30.5381 -30.5381 -30.5364 -30.5364 -30.4360 -30.4360 -30.4346 -30.4346
   -20.3533 -20.3533 -20.3533 -20.3533 -20.3404 -20.3404 -20.3376 -20.3376
   -20.3320 -20.3320 -20.3315 -20.3315 -20.3303 -20.3303 -20.3297 -20.3297
   -20.3243 -20.3243 -20.3243 -20.3243 -20.3198 -20.3198 -20.3197 -20.3197
   -20.3114 -20.3114 -20.3113 -20.3113  -9.4574  -9.4573  -9.3296  -9.3296
    -8.7401  -8.7401  -8.2037  -8.2036  -7.8136  -7.8136  -7.8005  -7.8005
     1.2333   1.2333   1.2365   1.2365   2.4438   2.4438   2.7960   2.7960
     3.5703   3.5703   4.4015   4.4015   4.7689   4.7689   4.7952   4.7952
     5.0120   5.0120   5.5459   5.5459   5.8603   5.8603   6.0094   6.0094
     6.0899   6.0899   6.1716   6.1716   6.5919   6.5919   6.8159   6.8159
     7.0276   7.0276   7.7845   7.7845  10.6269  10.6269  11.8660  11.8660
    12.2770  12.2770  12.2981  12.2981  13.3526  13.3526  13.7968  13.7968
    15.0851  15.0851  15.7711  15.7711  17.6255  17.6255

          k =-0.5000-0.5000-0.3357 ( 31280 PWs)   bands (ev):

   -66.1956 -66.1956 -66.1956 -66.1955 -30.5680 -30.5680 -30.5680 -30.5680
   -30.5373 -30.5373 -30.5372 -30.5372 -30.4353 -30.4353 -30.4353 -30.4353
   -20.3533 -20.3533 -20.3533 -20.3533 -20.3390 -20.3390 -20.3390 -20.3390
   -20.3317 -20.3317 -20.3317 -20.3317 -20.3300 -20.3300 -20.3300 -20.3300
   -20.3243 -20.3243 -20.3243 -20.3243 -20.3198 -20.3198 -20.3197 -20.3197
   -20.3113 -20.3113 -20.3113 -20.3113  -9.3790  -9.3789  -9.3789  -9.3789
    -8.5022  -8.5022  -8.5022  -8.5021  -7.8071  -7.8071  -7.8071  -7.8071
     1.2357   1.2357   1.2357   1.2357   3.1338   3.1338   3.1338   3.1338
     3.3910   3.3910   3.3910   3.3910   4.7793   4.7793   4.7793   4.7793
     5.2662   5.2662   5.2662   5.2662   5.9712   5.9712   5.9712   5.9712
     6.1253   6.1253   6.1253   6.1253   6.6901   6.6901   6.6901   6.6901
     7.4172   7.4172   7.4172   7.4172  11.2644  11.2644  11.2644  11.2644
    12.2909  12.2909  12.2909  12.2909  13.5447  13.5447  13.5447  13.5447
    15.5292  15.5292  15.5292  15.5292  18.2175  18.2176

     the Fermi energy is     9.1644 ev

!    total energy              =   -3130.48672046 Ry
     Harris-Foulkes estimate   =   -3130.48672047 Ry
     estimated scf accuracy    <          3.6E-09 Ry

     The total energy is the sum of the following terms:

     one-electron contribution =   -2369.59425012 Ry
     hartree contribution      =    1303.00350823 Ry
     xc contribution           =    -482.94762247 Ry
     ewald contribution        =   -1580.94834633 Ry
     smearing contrib. (-TS)   =      -0.00000978 Ry

     convergence has been achieved in  12 iterations

     Writing output data file Landau_3.save/
 
     init_run     :      4.68s CPU      4.97s WALL (       1 calls)
     electrons    :    148.36s CPU    150.61s WALL (       1 calls)

     Called by init_run:
     wfcinit      :      3.76s CPU      3.96s WALL (       1 calls)
     potinit      :      0.33s CPU      0.35s WALL (       1 calls)
     hinit0       :      0.48s CPU      0.52s WALL (       1 calls)

     Called by electrons:
     c_bands      :    124.22s CPU    126.19s WALL (      12 calls)
     sum_band     :     21.10s CPU     21.14s WALL (      12 calls)
     v_of_rho     :      0.93s CPU      0.95s WALL (      13 calls)
     mix_rho      :      1.50s CPU      1.63s WALL (      12 calls)

     Called by c_bands:
     init_us_2    :      1.36s CPU      1.44s WALL (      25 calls)
     cegterg      :    105.02s CPU    106.99s WALL (      12 calls)

     Called by sum_band:

     Called by *egterg:
     h_psi        :     90.74s CPU     91.67s WALL (      44 calls)
     g_psi        :      0.43s CPU      0.43s WALL (      31 calls)
     cdiaghg      :      0.89s CPU      0.92s WALL (      43 calls)

     Called by h_psi:
     h_psi:pot    :     90.44s CPU     90.72s WALL (      44 calls)
     h_psi:calbec :      6.47s CPU      6.66s WALL (      44 calls)
     vloc_psi     :     76.68s CPU     76.77s WALL (      44 calls)
     add_vuspsi   :      7.28s CPU      7.29s WALL (      44 calls)

     General routines
     calbec       :      6.47s CPU      6.66s WALL (      44 calls)
     fft          :      0.36s CPU      0.38s WALL (      39 calls)
     ffts         :      0.12s CPU      0.12s WALL (      12 calls)
     fftw         :     77.93s CPU     77.97s WALL (    7790 calls)
 
     Parallel routines
 
     PWSCF        :   2m33.65s CPU   2m36.68s WALL

 
   This run was terminated on:  23: 2:49  19Nov2019            

=------------------------------------------------------------------------------=
   JOB DONE.
=------------------------------------------------------------------------------=
