
     Program PWSCF v.6.2 (svn rev. 14038) starts on 26Mar2020 at 21:16:30 

     This program is part of the open-source Quantum ESPRESSO suite
     for quantum simulation of materials; please cite
         "P. Giannozzi et al., J. Phys.:Condens. Matter 21 395502 (2009);
         "P. Giannozzi et al., J. Phys.:Condens. Matter 29 465901 (2017);
          URL http://www.quantum-espresso.org", 
     in publications or presentations arising from this work. More details at
     http://www.quantum-espresso.org/quote

     Parallel version (MPI), running on    40 processors

     MPI processes distributed on     4 nodes
     K-points division:     npool     =      40
     Reading input from scf.in

     Current dimensions of program PWSCF are:
     Max number of different atomic species (ntypx) = 10
     Max number of k-points (npk) =  40000
     Max angular momentum in pseudopotentials (lmaxx) =  3

     Subspace diagonalization in iterative solution of the eigenvalue problem:
     a serial algorithm will be used

 
     G-vector sticks info
     --------------------
     sticks:   dense  smooth     PW     G-vecs:    dense   smooth      PW
     Sum        7741    7741   2079               498829   498829   69125
 


     bravais-lattice index     =            0
     lattice parameter (alat)  =      13.8695  a.u.
     unit-cell volume          =    2808.8435 (a.u.)^3
     number of atoms/cell      =           32
     number of atomic types    =            2
     number of electrons       =       368.60
     number of Kohn-Sham states=          221
     kinetic-energy cutoff     =     120.0000  Ry
     charge density cutoff     =     480.0000  Ry
     convergence threshold     =      1.0E-08
     mixing beta               =       0.7000
     number of iterations used =            8  plain     mixing
     Exchange-correlation      = SLA PW NOGX NOGC ( 1  4  0  0 0 0)

     celldm(1)=  13.869529  celldm(2)=   0.000000  celldm(3)=   0.000000
     celldm(4)=   0.000000  celldm(5)=   0.000000  celldm(6)=   0.000000

     crystal axes: (cart. coord. in units of alat)
               a(1) = (   1.000000   0.000000   0.000000 )  
               a(2) = (   0.000000   1.052792   0.000000 )  
               a(3) = (   0.000000   0.000000   1.000000 )  

     reciprocal axes: (cart. coord. in units 2 pi/alat)
               b(1) = (  1.000000  0.000000  0.000000 )  
               b(2) = (  0.000000  0.949856  0.000000 )  
               b(3) = (  0.000000  0.000000  1.000000 )  


     PseudoPot. # 1 for W  read from file:
     /cluster/scratch/mnoe/QE/pps/W_ONCV_LDA-4.0.upf
     MD5 check sum: ba0307d5d4cd419d6f1d13dc49d7c13a
     Pseudo is Norm-conserving + core correction, Zval = 28.0
     Generated using ONCVPSP code by D. R. Hamann
     Using radial grid of 1380 points,  8 beta functions with: 
                l(1) =   0
                l(2) =   0
                l(3) =   1
                l(4) =   1
                l(5) =   2
                l(6) =   2
                l(7) =   3
                l(8) =   3

     PseudoPot. # 2 for O  read from file:
     /cluster/scratch/mnoe/QE/pps/O_ONCV_LDA-3.0.upf
     MD5 check sum: a1bd6164e7280c17a38c229939bfbd54
     Pseudo is Norm-conserving + core correction, Zval =  6.0
     Generated using ONCVPSP code by D. R. Hamann
     Using radial grid of  926 points,  5 beta functions with: 
                l(1) =   0
                l(2) =   0
                l(3) =   1
                l(4) =   1
                l(5) =   2

     atomic species   valence    mass     pseudopotential
        W             28.00   183.84000     W ( 1.00)
        O              6.00    15.99940     O ( 1.00)

      8 Sym. Ops. (no inversion) found ( 7 have fractional translation)



   Cartesian axes

     site n.     atom                  positions (alat units)
         1           W   tau(   1) = (   0.2428138   0.2958506  -0.0002058  )
         2           W   tau(   2) = (   0.7502058   0.7569410  -0.0071862  )
         3           W   tau(   3) = (   0.2571862   0.2305452   0.4997942  )
         4           W   tau(   4) = (   0.7497942   0.8222463   0.4928138  )
         5           W   tau(   5) = (   0.7571862   0.2958506   0.5002058  )
         6           W   tau(   6) = (   0.2497942   0.7569410   0.5071862  )
         7           W   tau(   7) = (   0.7428138   0.2305452   0.0002058  )
         8           W   tau(   8) = (   0.2502058   0.8222463   0.0071862  )
         9           O   tau(   9) = (   0.2420966   0.0085170  -0.0057337  )
        10           O   tau(  10) = (   0.7557337  -0.0085169  -0.0079034  )
        11           O   tau(  11) = (   0.2579034   0.5178788   0.4942662  )
        12           O   tau(  12) = (   0.7442663   0.5349127   0.4920966  )
        13           O   tau(  13) = (   0.7579034   0.0085170   0.5057338  )
        14           O   tau(  14) = (   0.2442662  -0.0085169   0.5079034  )
        15           O   tau(  15) = (   0.7420966   0.5178788   0.0057337  )
        16           O   tau(  16) = (   0.2557337   0.5349127   0.0079034  )
        17           O   tau(  17) = (   0.5025432   0.2542273   0.4516054  )
        18           O   tau(  18) = (   0.5005214   0.7953504   0.5483946  )
        19           O   tau(  19) = (  -0.0025432   0.2721684   0.9516054  )
        20           O   tau(  20) = (  -0.0005214   0.7838369   0.0483946  )
        21           O   tau(  21) = (   0.4974568   0.2542273   0.0483946  )
        22           O   tau(  22) = (   0.4994786   0.7953504   0.9516054  )
        23           O   tau(  23) = (   0.0025432   0.2721684   0.5483946  )
        24           O   tau(  24) = (   0.0005214   0.7838369   0.4516054  )
        25           O   tau(  25) = (   0.7016054   0.2689546   0.7494786  )
        26           O   tau(  26) = (   0.2983946   0.7985642   0.2525432  )
        27           O   tau(  27) = (   0.7983946   0.2574412   0.2494786  )
        28           O   tau(  28) = (   0.2016054   0.7806231   0.7525432  )
        29           O   tau(  29) = (   0.2983946   0.2689546   0.7505214  )
        30           O   tau(  30) = (   0.7016054   0.7985642   0.2474568  )
        31           O   tau(  31) = (   0.2016054   0.2574412   0.2505214  )
        32           O   tau(  32) = (   0.7983946   0.7806231   0.7474568  )

     number of k points=    40  gaussian smearing, width (Ry)=  0.0007
                       cart. coord. in units 2pi/alat
        k(    1) = (   0.0000000   0.0000000   0.0000000), wk =   0.0092593
        k(    2) = (   0.0000000   0.0000000   0.1666667), wk =   0.0370370
        k(    3) = (   0.0000000   0.0000000   0.3333333), wk =   0.0370370
        k(    4) = (   0.0000000   0.0000000  -0.5000000), wk =   0.0185185
        k(    5) = (   0.0000000   0.1583093   0.0000000), wk =   0.0185185
        k(    6) = (   0.0000000   0.1583093   0.1666667), wk =   0.0740741
        k(    7) = (   0.0000000   0.1583093   0.3333333), wk =   0.0740741
        k(    8) = (   0.0000000   0.1583093  -0.5000000), wk =   0.0370370
        k(    9) = (   0.0000000   0.3166186   0.0000000), wk =   0.0185185
        k(   10) = (   0.0000000   0.3166186   0.1666667), wk =   0.0740741
        k(   11) = (   0.0000000   0.3166186   0.3333333), wk =   0.0740741
        k(   12) = (   0.0000000   0.3166186  -0.5000000), wk =   0.0370370
        k(   13) = (   0.0000000  -0.4749278   0.0000000), wk =   0.0092593
        k(   14) = (   0.0000000  -0.4749278   0.1666667), wk =   0.0370370
        k(   15) = (   0.0000000  -0.4749278   0.3333333), wk =   0.0370370
        k(   16) = (   0.0000000  -0.4749278  -0.5000000), wk =   0.0185185
        k(   17) = (   0.1666667   0.0000000   0.1666667), wk =   0.0370370
        k(   18) = (   0.1666667   0.0000000   0.3333333), wk =   0.0740741
        k(   19) = (   0.1666667   0.0000000  -0.5000000), wk =   0.0370370
        k(   20) = (   0.1666667   0.1583093   0.1666667), wk =   0.0740741
        k(   21) = (   0.1666667   0.1583093   0.3333333), wk =   0.1481481
        k(   22) = (   0.1666667   0.1583093  -0.5000000), wk =   0.0740741
        k(   23) = (   0.1666667   0.3166186   0.1666667), wk =   0.0740741
        k(   24) = (   0.1666667   0.3166186   0.3333333), wk =   0.1481481
        k(   25) = (   0.1666667   0.3166186  -0.5000000), wk =   0.0740741
        k(   26) = (   0.1666667  -0.4749278   0.1666667), wk =   0.0370370
        k(   27) = (   0.1666667  -0.4749278   0.3333333), wk =   0.0740741
        k(   28) = (   0.1666667  -0.4749278  -0.5000000), wk =   0.0370370
        k(   29) = (   0.3333333   0.0000000   0.3333333), wk =   0.0370370
        k(   30) = (   0.3333333   0.0000000  -0.5000000), wk =   0.0370370
        k(   31) = (   0.3333333   0.1583093   0.3333333), wk =   0.0740741
        k(   32) = (   0.3333333   0.1583093  -0.5000000), wk =   0.0740741
        k(   33) = (   0.3333333   0.3166186   0.3333333), wk =   0.0740741
        k(   34) = (   0.3333333   0.3166186  -0.5000000), wk =   0.0740741
        k(   35) = (   0.3333333  -0.4749278   0.3333333), wk =   0.0370370
        k(   36) = (   0.3333333  -0.4749278  -0.5000000), wk =   0.0370370
        k(   37) = (  -0.5000000   0.0000000  -0.5000000), wk =   0.0092593
        k(   38) = (  -0.5000000   0.1583093  -0.5000000), wk =   0.0185185
        k(   39) = (  -0.5000000   0.3166186  -0.5000000), wk =   0.0185185
        k(   40) = (  -0.5000000  -0.4749278  -0.5000000), wk =   0.0092593

     Dense  grid:   498829 G-vectors     FFT dimensions: ( 100, 108, 100)

     Estimated max dynamical RAM per process >       2.72 GB

     Estimated total dynamical RAM >     108.82 GB

     Initial potential from superposition of free atoms

     starting charge  367.99656, renormalised to  368.60000
     Starting wfc are  232 randomized atomic wfcs

     total cpu time spent up to now is       27.7 secs

     Self-consistent Calculation

     iteration #  1     ecut=   120.00 Ry     beta= 0.70
     Davidson diagonalization with overlap
     ethr =  1.00E-02,  avg # of iterations =  5.2

     total cpu time spent up to now is      116.2 secs

     total energy              =   -6253.44435332 Ry
     Harris-Foulkes estimate   =   -6264.26894556 Ry
     estimated scf accuracy    <      13.63626066 Ry

     iteration #  2     ecut=   120.00 Ry     beta= 0.70
     Davidson diagonalization with overlap
     ethr =  3.70E-03,  avg # of iterations =  3.5

     total cpu time spent up to now is      202.7 secs

     total energy              =   -6250.40984777 Ry
     Harris-Foulkes estimate   =   -6270.28975197 Ry
     estimated scf accuracy    <      52.88158369 Ry

     iteration #  3     ecut=   120.00 Ry     beta= 0.70
     Davidson diagonalization with overlap
     ethr =  3.70E-03,  avg # of iterations =  3.4

     total cpu time spent up to now is      284.4 secs

     total energy              =   -6260.67524708 Ry
     Harris-Foulkes estimate   =   -6260.94482472 Ry
     estimated scf accuracy    <       0.90319946 Ry

     iteration #  4     ecut=   120.00 Ry     beta= 0.70
     Davidson diagonalization with overlap
     ethr =  2.45E-04,  avg # of iterations =  3.2

     total cpu time spent up to now is      351.6 secs

     total energy              =   -6260.66720745 Ry
     Harris-Foulkes estimate   =   -6260.74081345 Ry
     estimated scf accuracy    <       0.22595546 Ry

     iteration #  5     ecut=   120.00 Ry     beta= 0.70
     Davidson diagonalization with overlap
     ethr =  6.13E-05,  avg # of iterations =  5.2

     total cpu time spent up to now is      424.8 secs

     total energy              =   -6260.67172492 Ry
     Harris-Foulkes estimate   =   -6260.70103306 Ry
     estimated scf accuracy    <       0.06564155 Ry

     iteration #  6     ecut=   120.00 Ry     beta= 0.70
     Davidson diagonalization with overlap
     ethr =  1.78E-05,  avg # of iterations =  5.6

     total cpu time spent up to now is      503.4 secs

     total energy              =   -6260.68573016 Ry
     Harris-Foulkes estimate   =   -6260.68847904 Ry
     estimated scf accuracy    <       0.00705511 Ry

     iteration #  7     ecut=   120.00 Ry     beta= 0.70
     Davidson diagonalization with overlap
     ethr =  1.91E-06,  avg # of iterations =  6.7

     total cpu time spent up to now is      578.9 secs

     total energy              =   -6260.68672271 Ry
     Harris-Foulkes estimate   =   -6260.68678891 Ry
     estimated scf accuracy    <       0.00011384 Ry

     iteration #  8     ecut=   120.00 Ry     beta= 0.70
     Davidson diagonalization with overlap
     ethr =  3.09E-08,  avg # of iterations =  3.2

     total cpu time spent up to now is      668.4 secs

     total energy              =   -6260.68678119 Ry
     Harris-Foulkes estimate   =   -6260.68679225 Ry
     estimated scf accuracy    <       0.00005214 Ry

     iteration #  9     ecut=   120.00 Ry     beta= 0.70
     Davidson diagonalization with overlap
     ethr =  1.41E-08,  avg # of iterations =  1.0

     total cpu time spent up to now is      731.0 secs

     total energy              =   -6260.68677555 Ry
     Harris-Foulkes estimate   =   -6260.68678376 Ry
     estimated scf accuracy    <       0.00002110 Ry

     iteration # 10     ecut=   120.00 Ry     beta= 0.70
     Davidson diagonalization with overlap
     ethr =  5.73E-09,  avg # of iterations =  2.4

     total cpu time spent up to now is      797.6 secs

     total energy              =   -6260.68677903 Ry
     Harris-Foulkes estimate   =   -6260.68677923 Ry
     estimated scf accuracy    <       0.00000048 Ry

     iteration # 11     ecut=   120.00 Ry     beta= 0.70
     Davidson diagonalization with overlap
     ethr =  1.30E-10,  avg # of iterations =  3.0

     total cpu time spent up to now is      880.6 secs

     total energy              =   -6260.68677916 Ry
     Harris-Foulkes estimate   =   -6260.68677923 Ry
     estimated scf accuracy    <       0.00000022 Ry

     iteration # 12     ecut=   120.00 Ry     beta= 0.70
     Davidson diagonalization with overlap
     ethr =  5.88E-11,  avg # of iterations =  1.3

     total cpu time spent up to now is      944.2 secs

     total energy              =   -6260.68677913 Ry
     Harris-Foulkes estimate   =   -6260.68677917 Ry
     estimated scf accuracy    <       0.00000008 Ry

     iteration # 13     ecut=   120.00 Ry     beta= 0.70
     Davidson diagonalization with overlap
     ethr =  2.09E-11,  avg # of iterations =  2.5

     total cpu time spent up to now is     1022.6 secs

     End of self-consistent calculation

          k = 0.0000 0.0000 0.0000 ( 62311 PWs)   bands (ev):

   -66.0588 -66.0584 -66.0579 -66.0579 -66.0574 -66.0574 -66.0569 -66.0565
   -30.4998 -30.4959 -30.4959 -30.4921 -30.4414 -30.4364 -30.4364 -30.4318
   -30.4042 -30.3994 -30.3969 -30.3969 -30.3928 -30.3914 -30.3870 -30.3870
   -30.3039 -30.3039 -30.3009 -30.2993 -30.2930 -30.2930 -30.2890 -30.2878
   -20.2101 -20.2098 -20.2098 -20.2095 -20.2077 -20.2076 -20.2075 -20.2075
   -20.2074 -20.2074 -20.2074 -20.2073 -20.2046 -20.2043 -20.2042 -20.2039
   -20.1985 -20.1984 -20.1982 -20.1982 -20.1972 -20.1972 -20.1971 -20.1969
   -20.1957 -20.1956 -20.1954 -20.1954 -20.1944 -20.1944 -20.1942 -20.1940
   -20.1841 -20.1840 -20.1836 -20.1836 -20.1834 -20.1834 -20.1830 -20.1829
   -20.1567 -20.1567 -20.1562 -20.1562 -20.1552 -20.1552 -20.1548 -20.1547
   -20.1508 -20.1507 -20.1502 -20.1502 -20.1494 -20.1494 -20.1487 -20.1487
    -9.9348  -9.6390  -9.5063  -9.5063  -9.2131  -9.2131  -9.1021  -9.0143
    -9.0013  -8.8882  -8.8547  -8.8547  -7.8691  -7.8048  -7.8048  -7.7538
    -7.7511  -7.7504  -7.7229  -7.7140  -7.6098  -7.6098  -7.5777  -7.5777
     1.2414   1.2427   1.3102   1.3102   1.3415   1.3415   1.3725   1.6070
     1.6183   1.6183   1.6661   1.8673   2.4316   2.5114   2.5656   2.5785
     2.7204   2.7204   4.1674   4.1674   4.3914   4.3919   4.7906   4.8247
     4.8544   4.8544   4.8836   4.8836   5.0226   5.0226   5.0942   5.4388
     5.4390   5.5068   5.5068   5.5493   5.5493   5.5983   5.5983   5.8316
     5.8316   5.8692   5.8717   5.9097   5.9609   6.0621   6.0672   6.1424
     6.1425   6.2722   6.2758   6.5500   6.5500   6.8135   6.8135   6.8509
     6.8528   6.8608   7.0141   7.0226   7.0827   7.0827   7.3776   7.3776
     7.4328   7.4328   7.8391   7.8539   8.0706   8.0706   8.1273   8.1470
     9.3521   9.3532   9.9946  10.0001  10.0244  10.0244  12.3103  12.3103
    12.3464  12.3464  12.4181  12.4181  12.5400  12.5645  12.9011  12.9675
    13.2311  13.3004  13.4008  13.4008  13.8075  14.1267  14.1267  14.1775
    14.2458  14.4651  14.4651  14.8450  15.4561  15.4684  15.5259  16.0937
    16.0937  16.8532  17.0772  17.0772  17.4389

          k = 0.0000 0.0000 0.1667 ( 62347 PWs)   bands (ev):

   -66.0588 -66.0583 -66.0579 -66.0578 -66.0575 -66.0574 -66.0569 -66.0565
   -30.4996 -30.4962 -30.4957 -30.4924 -30.4410 -30.4367 -30.4361 -30.4321
   -30.4023 -30.3972 -30.3949 -30.3916 -30.3904 -30.3874 -30.3854 -30.3803
   -30.3106 -30.3067 -30.3036 -30.3012 -30.2990 -30.2947 -30.2927 -30.2887
   -20.2101 -20.2098 -20.2097 -20.2095 -20.2077 -20.2076 -20.2075 -20.2075
   -20.2074 -20.2074 -20.2074 -20.2073 -20.2046 -20.2043 -20.2042 -20.2039
   -20.1984 -20.1983 -20.1982 -20.1980 -20.1972 -20.1970 -20.1970 -20.1967
   -20.1958 -20.1957 -20.1956 -20.1954 -20.1945 -20.1943 -20.1943 -20.1941
   -20.1840 -20.1839 -20.1836 -20.1836 -20.1834 -20.1833 -20.1830 -20.1829
   -20.1566 -20.1564 -20.1560 -20.1558 -20.1553 -20.1549 -20.1548 -20.1544
   -20.1512 -20.1507 -20.1507 -20.1501 -20.1498 -20.1495 -20.1491 -20.1488
    -9.8890  -9.5855  -9.5227  -9.4482  -9.2272  -9.1239  -9.1106  -8.9768
    -8.9599  -8.8742  -8.8592  -8.8212  -7.8905  -7.8530  -7.8493  -7.8085
    -7.7989  -7.7545  -7.7443  -7.7352  -7.7118  -7.7060  -7.6190  -7.5868
     1.3088   1.3120   1.3327   1.3471   1.4406   1.4752   1.5965   1.5999
     1.6129   1.7147   1.8398   1.9940   2.5177   2.5809   2.6021   2.6608
     2.7116   2.8093   4.0984   4.1684   4.3805   4.3863   4.4133   4.4975
     4.6429   4.7772   4.8027   4.9158   4.9258   5.0134   5.0750   5.3154
     5.3590   5.4238   5.4963   5.5399   5.5665   5.6071   5.6259   5.6348
     5.7523   5.7672   5.8189   5.9173   5.9796   6.0972   6.1251   6.1398
     6.2972   6.4182   6.5049   6.5371   6.6782   6.7079   6.7796   6.8134
     6.8435   6.8623   6.9671   6.9950   7.0319   7.0884   7.1676   7.1861
     7.2037   7.2732   7.8505   7.8549   8.0299   8.0877   8.0925   8.1405
     9.6875   9.7142  10.0006  10.0222  10.2584  10.3073  12.2452  12.2826
    12.3367  12.3712  12.3960  12.4525  12.5536  12.6490  12.9153  12.9651
    13.0982  13.2584  13.3182  13.4017  13.8922  14.0291  14.0824  14.1250
    14.2355  14.4596  14.5582  14.9557  15.4909  15.4915  15.5193  16.0657
    16.4053  16.7942  17.0230  17.2652  17.4885

          k = 0.0000 0.0000 0.3333 ( 62364 PWs)   bands (ev):

   -66.0586 -66.0582 -66.0581 -66.0577 -66.0576 -66.0572 -66.0571 -66.0567
   -30.4990 -30.4970 -30.4951 -30.4932 -30.4400 -30.4376 -30.4353 -30.4330
   -30.4009 -30.3982 -30.3910 -30.3883 -30.3774 -30.3729 -30.3673 -30.3623
   -30.3287 -30.3245 -30.3180 -30.3135 -30.3028 -30.3004 -30.2919 -30.2896
   -20.2100 -20.2099 -20.2097 -20.2096 -20.2076 -20.2076 -20.2075 -20.2075
   -20.2075 -20.2074 -20.2074 -20.2073 -20.2046 -20.2044 -20.2042 -20.2040
   -20.1984 -20.1983 -20.1979 -20.1975 -20.1973 -20.1968 -20.1966 -20.1963
   -20.1962 -20.1960 -20.1958 -20.1953 -20.1950 -20.1946 -20.1943 -20.1941
   -20.1839 -20.1838 -20.1837 -20.1835 -20.1834 -20.1832 -20.1831 -20.1830
   -20.1564 -20.1559 -20.1556 -20.1552 -20.1551 -20.1548 -20.1538 -20.1533
   -20.1523 -20.1518 -20.1509 -20.1504 -20.1504 -20.1499 -20.1496 -20.1491
    -9.7783  -9.5731  -9.4621  -9.3153  -9.2698  -9.1393  -8.9149  -8.8713
    -8.8697  -8.8144  -8.7706  -8.6930  -8.1823  -8.1569  -8.0797  -8.0511
    -7.8425  -7.8187  -7.7878  -7.7637  -7.7149  -7.6821  -7.6443  -7.6118
     1.3165   1.3247   1.3620   1.3846   1.5517   1.5601   1.5845   1.6027
     2.2859   2.3239   2.4829   2.5611   2.6062   2.7011   2.7670   2.8668
     2.9026   3.0486   3.7787   3.8418   3.8803   3.9879   4.1579   4.3011
     4.3400   4.5239   4.5629   4.7680   4.7849   4.8292   4.9675   5.0158
     5.1614   5.1935   5.2353   5.3481   5.4577   5.4964   5.6332   5.6649
     5.7175   5.7494   5.7929   5.9769   6.0040   6.1806   6.2529   6.2793
     6.3418   6.3845   6.5074   6.5358   6.5618   6.5785   6.6537   6.7585
     6.8352   6.8579   6.8606   7.0020   7.0406   7.0567   7.0870   7.1438
     7.3158   7.3484   7.7785   7.7992   7.9061   7.9572   8.1221   8.1405
     9.9949  10.0156  10.3970  10.4726  10.8724  10.9798  11.8690  11.9235
    12.1077  12.4958  12.5165  12.5449  12.5775  12.6390  12.7371  12.9066
    12.9615  13.1393  13.1957  13.4120  13.6990  13.7252  14.0928  14.1206
    14.3137  14.4417  14.8584  15.2481  15.3809  15.6410  15.9026  15.9796
    16.2418  17.2498  17.3822  17.5625  17.8329

          k = 0.0000 0.0000-0.5000 ( 62356 PWs)   bands (ev):

   -66.0583 -66.0583 -66.0579 -66.0579 -66.0574 -66.0574 -66.0569 -66.0569
   -30.4980 -30.4980 -30.4942 -30.4942 -30.4388 -30.4388 -30.4342 -30.4342
   -30.3995 -30.3995 -30.3897 -30.3897 -30.3532 -30.3532 -30.3488 -30.3488
   -30.3427 -30.3427 -30.3378 -30.3378 -30.3017 -30.3017 -30.2908 -30.2908
   -20.2099 -20.2099 -20.2097 -20.2097 -20.2076 -20.2076 -20.2075 -20.2075
   -20.2075 -20.2075 -20.2074 -20.2074 -20.2045 -20.2045 -20.2041 -20.2041
   -20.1983 -20.1983 -20.1975 -20.1975 -20.1969 -20.1968 -20.1965 -20.1965
   -20.1961 -20.1961 -20.1956 -20.1956 -20.1950 -20.1950 -20.1942 -20.1942
   -20.1838 -20.1838 -20.1836 -20.1836 -20.1833 -20.1833 -20.1831 -20.1831
   -20.1560 -20.1560 -20.1555 -20.1555 -20.1538 -20.1538 -20.1534 -20.1534
   -20.1524 -20.1524 -20.1519 -20.1519 -20.1500 -20.1500 -20.1495 -20.1495
    -9.6603  -9.6603  -9.3460  -9.3460  -9.2010  -9.2010  -8.8887  -8.8887
    -8.5374  -8.5374  -8.5077  -8.5077  -8.4923  -8.4923  -8.4211  -8.4210
    -7.8320  -7.8320  -7.7761  -7.7761  -7.6793  -7.6793  -7.6466  -7.6466
     1.3219   1.3219   1.3795   1.3795   1.5690   1.5690   1.5917   1.5917
     2.6391   2.6391   3.0020   3.0020   3.1444   3.1444   3.1572   3.1572
     3.2971   3.2971   3.3659   3.3659   3.4986   3.4986   3.7910   3.7910
     3.8792   3.8792   4.4587   4.4587   4.7211   4.7211   4.9241   4.9241
     5.2379   5.2379   5.3444   5.3444   5.3570   5.3570   5.6773   5.6773
     5.7471   5.7471   5.9357   5.9357   6.1608   6.1608   6.2537   6.2537
     6.3282   6.3282   6.4400   6.4400   6.4766   6.4766   6.5539   6.5539
     6.7970   6.7970   6.8382   6.8382   7.0660   7.0660   7.5024   7.5024
     7.5666   7.5666   7.6836   7.6836   7.7075   7.7075   8.1377   8.1377
    10.0057  10.0057  11.1879  11.1879  11.2648  11.2648  11.5704  11.5704
    11.7748  11.7748  12.5940  12.5940  12.7418  12.7418  12.8463  12.8463
    12.9513  12.9513  13.2941  13.2941  13.4738  13.4738  14.1140  14.1140
    14.4026  14.4026  15.1725  15.1725  15.6853  15.6853  15.8375  15.8375
    16.6563  16.6563  17.8041  17.8041  18.0552

          k = 0.0000 0.1583 0.0000 ( 62311 PWs)   bands (ev):

   -66.0588 -66.0584 -66.0578 -66.0578 -66.0575 -66.0575 -66.0568 -66.0565
   -30.4958 -30.4918 -30.4918 -30.4881 -30.4450 -30.4403 -30.4403 -30.4359
   -30.4040 -30.3999 -30.3970 -30.3970 -30.3928 -30.3916 -30.3871 -30.3871
   -30.3039 -30.3039 -30.3008 -30.2993 -30.2930 -30.2930 -30.2890 -30.2879
   -20.2097 -20.2094 -20.2094 -20.2091 -20.2077 -20.2076 -20.2075 -20.2075
   -20.2074 -20.2074 -20.2074 -20.2073 -20.2050 -20.2046 -20.2046 -20.2043
   -20.1984 -20.1983 -20.1981 -20.1981 -20.1972 -20.1972 -20.1972 -20.1970
   -20.1956 -20.1955 -20.1954 -20.1954 -20.1944 -20.1944 -20.1942 -20.1941
   -20.1841 -20.1840 -20.1836 -20.1836 -20.1834 -20.1834 -20.1830 -20.1829
   -20.1567 -20.1567 -20.1562 -20.1562 -20.1552 -20.1552 -20.1548 -20.1547
   -20.1508 -20.1507 -20.1502 -20.1502 -20.1494 -20.1494 -20.1487 -20.1487
    -9.9043  -9.6507  -9.4676  -9.4675  -9.2207  -9.2207  -9.0275  -9.0134
    -9.0020  -8.8426  -8.8177  -8.8177  -7.9629  -7.9056  -7.9056  -7.8594
    -7.7552  -7.7494  -7.7239  -7.7157  -7.6093  -7.6093  -7.5788  -7.5788
     1.2415   1.2426   1.3219   1.3219   1.3436   1.3436   1.5097   1.6654
     1.7922   1.8474   1.8474   2.0285   2.4369   2.5058   2.6379   2.6518
     2.7895   2.7895   4.0317   4.0317   4.1162   4.1169   4.7540   4.8534
     4.8534   4.8760   4.8760   4.8866   4.9540   4.9708   4.9708   5.2852
     5.2852   5.4651   5.4652   5.5949   5.6429   5.6429   5.6442   5.6682
     5.8013   5.8018   5.8976   5.8976   5.9497   6.0648   6.0699   6.1438
     6.1479   6.2677   6.2695   6.5738   6.5738   6.8156   6.8410   6.8410
     6.8805   6.8852   6.8946   7.0028   7.0028   7.0078   7.3834   7.3834
     7.4342   7.4342   7.8431   7.8530   8.0305   8.0305   8.0522   8.0661
     9.3535   9.3537  10.1983  10.1987  10.1987  10.1988  12.2045  12.2045
    12.3473  12.3473  12.3825  12.4037  12.4125  12.4125  12.9100  12.9677
    13.2661  13.3277  13.4046  13.4046  13.9915  14.0656  14.0656  14.0793
    14.2833  14.7076  14.7076  15.0175  15.4561  15.4663  15.9285  16.0604
    16.0604  16.5333  17.2123  17.2124  17.4957

          k = 0.0000 0.1583 0.1667 ( 62330 PWs)   bands (ev):

   -66.0587 -66.0584 -66.0579 -66.0578 -66.0575 -66.0574 -66.0569 -66.0565
   -30.4956 -30.4921 -30.4917 -30.4884 -30.4447 -30.4406 -30.4400 -30.4362
   -30.4022 -30.3973 -30.3953 -30.3916 -30.3905 -30.3875 -30.3855 -30.3804
   -30.3105 -30.3067 -30.3036 -30.3013 -30.2990 -30.2947 -30.2927 -30.2888
   -20.2097 -20.2094 -20.2094 -20.2091 -20.2077 -20.2076 -20.2075 -20.2075
   -20.2074 -20.2074 -20.2074 -20.2073 -20.2050 -20.2047 -20.2046 -20.2043
   -20.1984 -20.1982 -20.1982 -20.1979 -20.1972 -20.1971 -20.1970 -20.1968
   -20.1957 -20.1956 -20.1955 -20.1954 -20.1946 -20.1944 -20.1944 -20.1941
   -20.1840 -20.1839 -20.1836 -20.1836 -20.1834 -20.1833 -20.1830 -20.1829
   -20.1566 -20.1564 -20.1560 -20.1558 -20.1553 -20.1549 -20.1548 -20.1544
   -20.1512 -20.1507 -20.1507 -20.1501 -20.1498 -20.1495 -20.1491 -20.1488
    -9.8574  -9.5972  -9.4841  -9.4047  -9.2349  -9.1316  -9.0359  -8.9747
    -8.9606  -8.8311  -8.8220  -8.7889  -7.9641  -7.9178  -7.9047  -7.8701
    -7.8664  -7.8371  -7.7448  -7.7364  -7.7118  -7.7056  -7.6185  -7.5879
     1.3203   1.3261   1.3352   1.3493   1.5494   1.5966   1.6053   1.8007
     1.8358   1.8461   1.8752   2.0971   2.5241   2.5960   2.6533   2.7354
     2.7814   2.8781   3.9973   4.0464   4.1091   4.1539   4.4195   4.4948
     4.6678   4.7045   4.7963   4.9039   4.9069   4.9339   4.9820   5.2415
     5.2543   5.3151   5.3401   5.4841   5.5779   5.5883   5.6379   5.6973
     5.7477   5.7614   5.8336   5.8684   5.8732   6.1210   6.1263   6.1484
     6.2398   6.4063   6.4810   6.5623   6.7095   6.7703   6.7984   6.8156
     6.8422   6.8900   6.9525   6.9713   7.0052   7.0250   7.1685   7.1861
     7.2152   7.2750   7.8522   7.8545   7.9918   8.0209   8.0338   8.0620
     9.6936   9.7161  10.1977  10.2010  10.4265  10.4505  12.1802  12.2629
    12.2812  12.3180  12.3755  12.3981  12.4175  12.5298  12.9346  12.9651
    13.1248  13.2770  13.3274  13.4033  13.9148  13.9469  14.0516  14.0639
    14.3665  14.7023  14.8444  15.1134  15.4904  15.5188  15.8933  16.0339
    16.3699  16.6871  16.9206  17.3783  17.5204

          k = 0.0000 0.1583 0.3333 ( 62391 PWs)   bands (ev):

   -66.0586 -66.0582 -66.0581 -66.0577 -66.0576 -66.0572 -66.0571 -66.0567
   -30.4950 -30.4930 -30.4911 -30.4892 -30.4438 -30.4414 -30.4393 -30.4370
   -30.4010 -30.3983 -30.3912 -30.3884 -30.3774 -30.3730 -30.3674 -30.3623
   -30.3286 -30.3244 -30.3181 -30.3135 -30.3028 -30.3004 -30.2919 -30.2897
   -20.2097 -20.2095 -20.2094 -20.2092 -20.2076 -20.2076 -20.2075 -20.2075
   -20.2075 -20.2074 -20.2074 -20.2073 -20.2049 -20.2048 -20.2046 -20.2044
   -20.1983 -20.1982 -20.1978 -20.1974 -20.1973 -20.1969 -20.1966 -20.1963
   -20.1962 -20.1960 -20.1957 -20.1953 -20.1950 -20.1947 -20.1944 -20.1942
   -20.1839 -20.1838 -20.1837 -20.1835 -20.1834 -20.1832 -20.1831 -20.1830
   -20.1564 -20.1559 -20.1556 -20.1552 -20.1551 -20.1548 -20.1538 -20.1533
   -20.1523 -20.1518 -20.1509 -20.1504 -20.1504 -20.1499 -20.1496 -20.1491
    -9.7438  -9.5350  -9.4733  -9.2783  -9.2579  -9.0651  -8.8922  -8.8769
    -8.8342  -8.8155  -8.7521  -8.6746  -8.1852  -8.1594  -8.0947  -8.0527
    -7.9326  -7.9136  -7.8875  -7.8603  -7.7148  -7.6834  -7.6439  -7.6130
     1.3377   1.3576   1.3645   1.3874   1.7358   1.7572   1.8330   1.8414
     2.2850   2.3339   2.4856   2.5774   2.6783   2.7632   2.7775   2.8643
     2.9786   3.1105   3.7786   3.8428   3.8739   3.9338   4.1284   4.1608
     4.2166   4.3520   4.5791   4.7190   4.7520   4.8200   4.8357   4.8768
     5.0219   5.1507   5.1665   5.2005   5.3700   5.4193   5.5112   5.6170
     5.6922   5.7423   5.7939   5.8468   5.9639   6.1420   6.2119   6.2738
     6.3397   6.5183   6.5615   6.5662   6.6382   6.6650   6.7106   6.8061
     6.8204   6.8398   6.9260   6.9624   7.0040   7.0344   7.0895   7.1344
     7.3108   7.3443   7.7824   7.7964   7.8735   7.9027   8.0523   8.0635
    10.1896  10.1987  10.4072  10.4754  10.9879  11.0714  11.8702  11.9220
    12.0759  12.4055  12.4924  12.5165  12.5484  12.5799  12.6789  12.7987
    12.9568  13.1400  13.2117  13.4044  13.6011  13.6372  14.0545  14.0603
    14.5589  14.6854  15.1998  15.3803  15.6327  15.7811  15.9204  15.9529
    16.3682  17.1416  17.2071  17.4376  17.7894

          k = 0.0000 0.1583-0.5000 ( 62346 PWs)   bands (ev):

   -66.0583 -66.0583 -66.0580 -66.0580 -66.0573 -66.0573 -66.0570 -66.0570
   -30.4940 -30.4940 -30.4902 -30.4902 -30.4426 -30.4426 -30.4382 -30.4382
   -30.3996 -30.3996 -30.3898 -30.3898 -30.3532 -30.3532 -30.3488 -30.3488
   -30.3428 -30.3428 -30.3379 -30.3379 -30.3017 -30.3017 -30.2908 -30.2908
   -20.2096 -20.2096 -20.2093 -20.2093 -20.2076 -20.2076 -20.2075 -20.2075
   -20.2074 -20.2074 -20.2074 -20.2074 -20.2049 -20.2049 -20.2045 -20.2045
   -20.1983 -20.1983 -20.1975 -20.1975 -20.1968 -20.1968 -20.1965 -20.1965
   -20.1961 -20.1961 -20.1957 -20.1957 -20.1951 -20.1951 -20.1943 -20.1943
   -20.1838 -20.1838 -20.1836 -20.1836 -20.1833 -20.1833 -20.1831 -20.1831
   -20.1560 -20.1560 -20.1555 -20.1555 -20.1538 -20.1538 -20.1534 -20.1534
   -20.1524 -20.1524 -20.1519 -20.1519 -20.1500 -20.1500 -20.1495 -20.1495
    -9.6234  -9.6234  -9.3558  -9.3558  -9.1308  -9.1308  -8.8532  -8.8532
    -8.5400  -8.5400  -8.5069  -8.5069  -8.4989  -8.4989  -8.4157  -8.4157
    -7.9267  -7.9267  -7.8766  -7.8766  -7.6790  -7.6790  -7.6478  -7.6478
     1.3516   1.3516   1.3821   1.3821   1.7581   1.7581   1.8435   1.8435
     2.7083   2.7083   3.0189   3.0189   3.1406   3.1406   3.1984   3.1984
     3.3041   3.3041   3.3640   3.3640   3.4885   3.4885   3.7939   3.7939
     3.9276   3.9276   4.2537   4.2537   4.6399   4.6399   4.7497   4.7497
     5.0654   5.0654   5.3122   5.3122   5.3289   5.3289   5.4937   5.4937
     5.7000   5.7000   5.8224   5.8224   6.1649   6.1649   6.3190   6.3190
     6.3520   6.3520   6.4641   6.4641   6.5390   6.5390   6.6636   6.6636
     6.8552   6.8552   6.8591   6.8591   6.9852   6.9852   7.5122   7.5122
     7.5600   7.5600   7.6601   7.6601   7.6813   7.6813   8.0625   8.0625
    10.1976  10.1976  11.1942  11.1942  11.2629  11.2629  11.6363  11.6363
    11.8356  11.8356  12.4590  12.4590  12.7177  12.7177  12.8534  12.8534
    12.8956  12.8956  13.1944  13.1944  13.4369  13.4369  14.0564  14.0564
    14.6501  14.6501  15.5384  15.5384  15.8021  15.8021  15.8443  15.8443
    16.6978  16.6978  17.6061  17.6061  18.0701

          k = 0.0000 0.3166 0.0000 ( 62331 PWs)   bands (ev):

   -66.0587 -66.0585 -66.0578 -66.0577 -66.0575 -66.0575 -66.0568 -66.0566
   -30.4848 -30.4809 -30.4809 -30.4771 -30.4554 -30.4510 -30.4510 -30.4470
   -30.4033 -30.4011 -30.3971 -30.3971 -30.3927 -30.3919 -30.3873 -30.3873
   -30.3038 -30.3038 -30.3005 -30.2996 -30.2931 -30.2931 -30.2888 -30.2882
   -20.2087 -20.2084 -20.2084 -20.2081 -20.2076 -20.2076 -20.2075 -20.2075
   -20.2074 -20.2074 -20.2073 -20.2073 -20.2060 -20.2056 -20.2056 -20.2053
   -20.1983 -20.1982 -20.1980 -20.1980 -20.1973 -20.1973 -20.1973 -20.1972
   -20.1954 -20.1954 -20.1953 -20.1953 -20.1946 -20.1946 -20.1944 -20.1943
   -20.1841 -20.1840 -20.1836 -20.1836 -20.1834 -20.1834 -20.1830 -20.1829
   -20.1567 -20.1567 -20.1562 -20.1562 -20.1552 -20.1552 -20.1548 -20.1547
   -20.1508 -20.1507 -20.1502 -20.1502 -20.1494 -20.1494 -20.1487 -20.1487
    -9.8303  -9.6870  -9.3799  -9.3799  -9.2454  -9.2454  -9.0110  -9.0043
    -8.8164  -8.6997  -8.6907  -8.6907  -8.2064  -8.1595  -8.1595  -8.1345
    -7.7529  -7.7477  -7.7257  -7.7199  -7.6075  -7.6075  -7.5812  -7.5812
     1.2416   1.2422   1.3280   1.3280   1.3465   1.3465   1.6270   1.6626
     2.3582   2.4511   2.4909   2.5038   2.5038   2.6680   2.8500   2.8717
     2.9931   2.9931   3.6371   3.6429   3.6846   3.6846   4.1416   4.4650
     4.4650   4.7348   4.8587   4.8587   4.8862   4.8862   5.0374   5.0374
     5.0569   5.0635   5.3728   5.3728   5.5816   5.5847   5.6986   5.6986
     5.8713   5.8713   5.9094   5.9116   6.0559   6.0595   6.0686   6.1580
     6.1676   6.2405   6.2438   6.5220   6.6355   6.6355   6.8598   6.8598
     6.9099   6.9840   7.0887   7.0908   7.1047   7.1047   7.3907   7.3907
     7.4381   7.4381   7.8120   7.8209   7.8578   7.8578   7.8579   7.8592
     9.3544   9.3551  10.6633  10.6633  10.7051  10.7134  11.8290  11.8290
    11.9498  11.9669  12.3642  12.3642  12.4130  12.4130  12.9311  12.9641
    13.3785  13.4210  13.4651  13.4651  13.8309  13.8464  13.8576  13.8576
    14.8064  15.2606  15.2606  15.4565  15.4617  15.6423  15.9476  15.9476
    15.9637  16.9267  17.2419  17.6760  17.6760

          k = 0.0000 0.3166 0.1667 ( 62343 PWs)   bands (ev):

   -66.0587 -66.0585 -66.0578 -66.0577 -66.0576 -66.0575 -66.0568 -66.0566
   -30.4846 -30.4812 -30.4807 -30.4774 -30.4551 -30.4513 -30.4508 -30.4473
   -30.4021 -30.3975 -30.3959 -30.3916 -30.3906 -30.3877 -30.3857 -30.3806
   -30.3105 -30.3065 -30.3035 -30.3013 -30.2991 -30.2947 -30.2928 -30.2889
   -20.2087 -20.2085 -20.2084 -20.2081 -20.2076 -20.2076 -20.2075 -20.2075
   -20.2075 -20.2074 -20.2074 -20.2073 -20.2060 -20.2057 -20.2056 -20.2053
   -20.1982 -20.1980 -20.1980 -20.1978 -20.1973 -20.1972 -20.1972 -20.1970
   -20.1956 -20.1955 -20.1954 -20.1953 -20.1947 -20.1946 -20.1945 -20.1943
   -20.1840 -20.1839 -20.1836 -20.1835 -20.1834 -20.1834 -20.1830 -20.1830
   -20.1566 -20.1564 -20.1560 -20.1558 -20.1553 -20.1549 -20.1548 -20.1544
   -20.1512 -20.1507 -20.1507 -20.1501 -20.1498 -20.1495 -20.1491 -20.1488
    -9.7805  -9.6337  -9.3964  -9.3051  -9.2602  -9.1572  -8.9710  -8.9629
    -8.8247  -8.6953  -8.6928  -8.6737  -8.2066  -8.1670  -8.1562  -8.1405
    -7.8711  -7.8436  -7.7428  -7.7362  -7.7136  -7.7081  -7.6167  -7.5903
     1.3230   1.3329   1.3369   1.3524   1.5808   1.6011   1.7873   1.8363
     2.3610   2.4824   2.5047   2.5399   2.5807   2.6595   2.8680   2.9610
     2.9877   3.0877   3.6405   3.6710   3.6878   3.7307   4.1325   4.4191
     4.4500   4.4802   4.5283   4.7369   4.7567   4.8634   4.9041   4.9315
     5.0374   5.0709   5.1716   5.3100   5.4055   5.4662   5.5893   5.6379
     5.6870   5.7890   5.8011   5.8510   6.0526   6.1033   6.1464   6.1606
     6.2500   6.4073   6.4583   6.5824   6.6267   6.8436   6.8647   6.9267
     6.9632   6.9808   7.0695   7.0740   7.0953   7.1030   7.1762   7.1899
     7.2461   7.2872   7.7946   7.8181   7.8265   7.8439   7.8631   7.8668
     9.7029   9.7162  10.6677  10.7073  10.8466  10.8773  11.8268  11.9214
    11.9611  12.0365  12.2704  12.3134  12.4174  12.4675  12.9686  12.9748
    13.2226  13.3384  13.4018  13.4610  13.6883  13.7324  13.8400  13.8544
    14.9413  15.2518  15.4482  15.5056  15.5219  15.7088  15.9216  16.1246
    16.2487  16.8900  17.2963  17.3384  17.6859

          k = 0.0000 0.3166 0.3333 ( 62337 PWs)   bands (ev):

   -66.0585 -66.0583 -66.0580 -66.0578 -66.0575 -66.0573 -66.0570 -66.0568
   -30.4840 -30.4820 -30.4802 -30.4782 -30.4544 -30.4521 -30.4502 -30.4481
   -30.4011 -30.3984 -30.3914 -30.3886 -30.3774 -30.3730 -30.3676 -30.3625
   -30.3286 -30.3244 -30.3182 -30.3136 -30.3027 -30.3003 -30.2920 -30.2898
   -20.2087 -20.2085 -20.2084 -20.2082 -20.2076 -20.2076 -20.2075 -20.2075
   -20.2075 -20.2074 -20.2074 -20.2073 -20.2059 -20.2058 -20.2056 -20.2054
   -20.1982 -20.1981 -20.1977 -20.1974 -20.1973 -20.1970 -20.1967 -20.1965
   -20.1960 -20.1959 -20.1957 -20.1952 -20.1952 -20.1948 -20.1945 -20.1944
   -20.1839 -20.1838 -20.1837 -20.1835 -20.1834 -20.1833 -20.1831 -20.1830
   -20.1564 -20.1559 -20.1556 -20.1552 -20.1551 -20.1548 -20.1538 -20.1533
   -20.1523 -20.1518 -20.1509 -20.1504 -20.1504 -20.1499 -20.1496 -20.1491
    -9.6608  -9.5088  -9.4471  -9.3058  -9.1162  -8.9078  -8.8575  -8.8483
    -8.8197  -8.7093  -8.6578  -8.6014  -8.2478  -8.2369  -8.1667  -8.1543
    -8.1475  -8.0949  -8.0493  -8.0027  -7.7129  -7.6861  -7.6420  -7.6155
     1.3472   1.3676   1.3698   1.3914   2.1948   2.2774   2.2960   2.3849
     2.4748   2.5111   2.5175   2.7438   2.8057   2.8375   2.8920   2.9731
     3.2078   3.3012   3.6250   3.6438   3.7425   3.7824   3.8645   3.8745
     4.1080   4.2805   4.3931   4.4075   4.4846   4.5653   4.6292   4.7877
     4.8192   4.8282   4.9849   5.0529   5.1795   5.2036   5.2184   5.3598
     5.3816   5.5951   5.6411   5.8070   6.1446   6.2021   6.2146   6.2880
     6.4199   6.5777   6.6134   6.6654   6.7075   6.8054   6.8134   6.8485
     6.9201   6.9719   7.0306   7.0504   7.0730   7.1408   7.1601   7.1977
     7.2908   7.3356   7.7196   7.7368   7.7842   7.7919   7.8347   7.8550
    10.4251  10.4483  10.6830  10.7104  11.3027  11.3496  11.8034  11.8849
    11.9198  11.9903  12.2137  12.2609  12.5844  12.6410  12.6658  12.6974
    12.9183  13.1335  13.2070  13.3850  13.4559  13.4985  13.8374  13.8495
    15.1077  15.2249  15.5773  15.8429  15.9043  15.9961  16.0249  16.6280
    16.7622  16.7800  17.0568  17.5408  17.6328

          k = 0.0000 0.3166-0.5000 ( 62372 PWs)   bands (ev):

   -66.0582 -66.0582 -66.0580 -66.0580 -66.0573 -66.0573 -66.0570 -66.0570
   -30.4831 -30.4831 -30.4792 -30.4792 -30.4533 -30.4533 -30.4492 -30.4492
   -30.3998 -30.3998 -30.3900 -30.3900 -30.3531 -30.3531 -30.3487 -30.3487
   -30.3429 -30.3429 -30.3380 -30.3380 -30.3016 -30.3016 -30.2909 -30.2909
   -20.2086 -20.2086 -20.2083 -20.2083 -20.2076 -20.2076 -20.2075 -20.2075
   -20.2074 -20.2074 -20.2074 -20.2074 -20.2059 -20.2059 -20.2055 -20.2055
   -20.1981 -20.1981 -20.1975 -20.1975 -20.1966 -20.1966 -20.1965 -20.1965
   -20.1962 -20.1961 -20.1958 -20.1958 -20.1951 -20.1951 -20.1945 -20.1945
   -20.1838 -20.1838 -20.1837 -20.1837 -20.1832 -20.1832 -20.1831 -20.1831
   -20.1560 -20.1560 -20.1555 -20.1555 -20.1538 -20.1538 -20.1534 -20.1534
   -20.1524 -20.1524 -20.1519 -20.1519 -20.1500 -20.1500 -20.1495 -20.1495
    -9.5363  -9.5363  -9.3873  -9.3873  -8.9377  -8.9377  -8.7422  -8.7422
    -8.5547  -8.5547  -8.5431  -8.5431  -8.4847  -8.4847  -8.3942  -8.3942
    -8.1585  -8.1585  -8.1173  -8.1173  -7.6771  -7.6771  -7.6504  -7.6504
     1.3639   1.3639   1.3861   1.3861   2.3613   2.3613   2.4967   2.4967
     2.9092   2.9092   3.0659   3.0659   3.1171   3.1171   3.2803   3.2803
     3.3335   3.3335   3.3695   3.3695   3.4509   3.4509   3.6540   3.6540
     4.0551   4.0551   4.0818   4.0818   4.1465   4.1465   4.3591   4.3591
     4.8106   4.8106   4.9111   4.9111   5.1144   5.1144   5.2850   5.2850
     5.4379   5.4379   5.7235   5.7235   6.2862   6.2862   6.3450   6.3450
     6.4744   6.4744   6.5301   6.5301   6.5500   6.5500   6.7630   6.7630
     7.0397   7.0397   7.0564   7.0564   7.0941   7.0941   7.5141   7.5141
     7.5356   7.5356   7.5739   7.5739   7.6075   7.6075   7.8428   7.8428
    10.6869  10.6869  11.2084  11.2084  11.2583  11.2584  11.7224  11.7224
    12.0229  12.0229  12.1687  12.1687  12.5914  12.5914  12.6693  12.6693
    12.8731  12.8731  13.0028  13.0028  13.4527  13.4527  13.8423  13.8423
    15.1782  15.1782  15.7203  15.7204  16.2720  16.2720  16.4880  16.4880
    16.8686  16.8686  17.2275  17.2275  17.9535

          k = 0.0000-0.4749 0.0000 ( 62322 PWs)   bands (ev):

   -66.0586 -66.0586 -66.0577 -66.0576 -66.0576 -66.0576 -66.0567 -66.0567
   -30.4700 -30.4700 -30.4667 -30.4666 -30.4651 -30.4651 -30.4621 -30.4620
   -30.4023 -30.4023 -30.3972 -30.3972 -30.3924 -30.3924 -30.3874 -30.3874
   -30.3038 -30.3038 -30.3000 -30.3000 -30.2932 -30.2932 -30.2885 -30.2885
   -20.2077 -20.2077 -20.2076 -20.2076 -20.2075 -20.2075 -20.2074 -20.2074
   -20.2073 -20.2073 -20.2070 -20.2070 -20.2070 -20.2069 -20.2067 -20.2067
   -20.1981 -20.1981 -20.1979 -20.1979 -20.1974 -20.1974 -20.1974 -20.1974
   -20.1953 -20.1953 -20.1952 -20.1952 -20.1947 -20.1947 -20.1944 -20.1944
   -20.1840 -20.1840 -20.1836 -20.1836 -20.1834 -20.1834 -20.1830 -20.1829
   -20.1567 -20.1567 -20.1562 -20.1562 -20.1552 -20.1552 -20.1548 -20.1547
   -20.1508 -20.1507 -20.1502 -20.1502 -20.1494 -20.1494 -20.1487 -20.1487
    -9.7491  -9.7491  -9.3103  -9.3103  -9.2838  -9.2838  -9.0076  -9.0076
    -8.5144  -8.5144  -8.4575  -8.4575  -8.4551  -8.4551  -8.4547  -8.4547
    -7.7490  -7.7490  -7.7244  -7.7243  -7.6063  -7.6063  -7.5825  -7.5825
     1.2418   1.2418   1.3290   1.3290   1.3473   1.3473   1.6544   1.6544
     2.4708   2.4708   3.1261   3.1261   3.2079   3.2079   3.2360   3.2360
     3.2858   3.2858   3.3131   3.3131   3.4503   3.4503   3.5156   3.5156
     3.6654   3.6654   4.8681   4.8681   4.8715   4.8715   5.2017   5.2017
     5.2140   5.2140   5.3075   5.3075   5.3108   5.3108   5.7624   5.7625
     5.7689   5.7689   6.0005   6.0006   6.0458   6.0458   6.1726   6.1726
     6.1997   6.1997   6.2790   6.2790   6.7141   6.7141   6.7538   6.7538
     6.9483   6.9483   7.3781   7.3781   7.4074   7.4074   7.4555   7.4555
     7.4769   7.4769   7.5388   7.5388   7.5438   7.5438   7.8515   7.8515
     9.3551   9.3551  11.2512  11.2512  11.2787  11.2787  11.3348  11.3348
    11.3666  11.3666  12.3700  12.3700  12.4143  12.4143  12.9519  12.9519
    13.5707  13.5707  13.6049  13.6049  13.6239  13.6239  13.6272  13.6272
    15.3698  15.3698  15.4613  15.4613  15.6887  15.6887  15.7236  15.7236
    16.5402  16.5402  17.9111  17.9112  18.1303

          k = 0.0000-0.4749 0.1667 ( 62350 PWs)   bands (ev):

   -66.0586 -66.0586 -66.0577 -66.0577 -66.0576 -66.0576 -66.0567 -66.0567
   -30.4699 -30.4697 -30.4669 -30.4664 -30.4655 -30.4651 -30.4624 -30.4623
   -30.4020 -30.3975 -30.3962 -30.3916 -30.3907 -30.3878 -30.3858 -30.3807
   -30.3104 -30.3065 -30.3035 -30.3014 -30.2992 -30.2947 -30.2929 -30.2889
   -20.2077 -20.2077 -20.2076 -20.2076 -20.2075 -20.2075 -20.2074 -20.2074
   -20.2073 -20.2073 -20.2070 -20.2070 -20.2070 -20.2069 -20.2067 -20.2067
   -20.1981 -20.1980 -20.1979 -20.1977 -20.1974 -20.1973 -20.1973 -20.1971
   -20.1955 -20.1954 -20.1954 -20.1952 -20.1948 -20.1947 -20.1946 -20.1945
   -20.1840 -20.1840 -20.1836 -20.1835 -20.1834 -20.1834 -20.1830 -20.1830
   -20.1566 -20.1564 -20.1560 -20.1558 -20.1553 -20.1549 -20.1548 -20.1544
   -20.1512 -20.1507 -20.1507 -20.1501 -20.1498 -20.1495 -20.1491 -20.1488
    -9.6985  -9.6954  -9.3259  -9.2998  -9.2254  -9.1995  -8.9680  -8.9655
    -8.5202  -8.5202  -8.4638  -8.4613  -8.4535  -8.4532  -8.4498  -8.4477
    -7.8699  -7.8455  -7.7411  -7.7359  -7.7144  -7.7098  -7.6155  -7.5917
     1.3233   1.3340   1.3372   1.3533   1.5843   1.6027   1.8195   1.8313
     2.5600   2.5603   3.1271   3.1388   3.2132   3.2209   3.2324   3.2618
     3.2800   3.3074   3.3083   3.3591   3.4464   3.5101   3.5125   3.5598
     3.6940   3.6961   4.4733   4.4761   4.8719   4.8993   4.9732   5.0062
     5.1170   5.1186   5.1875   5.1942   5.3186   5.3247   5.4941   5.5084
     5.7358   5.7396   5.7928   5.7994   6.1024   6.1428   6.1436   6.1605
     6.3840   6.3944   6.4067   6.4640   6.7027   6.7426   6.8894   6.9266
     7.0056   7.0128   7.1595   7.1815   7.1947   7.2343   7.4430   7.4593
     7.4704   7.4834   7.4998   7.5162   7.5208   7.5330   7.8572   7.8577
     9.7071   9.7152  11.2559  11.2826  11.3277  11.3477  11.3913  11.4060
    11.4569  11.4873  12.2734  12.3130  12.4224  12.4644  12.9842  12.9844
    13.3979  13.4085  13.4823  13.5034  13.5919  13.6135  13.6202  13.6280
    15.4002  15.4332  15.5932  15.6220  15.6697  15.7068  15.9649  15.9943
    16.6031  16.6048  17.8402  17.8518  17.9544

          k = 0.0000-0.4749 0.3333 ( 62338 PWs)   bands (ev):

   -66.0584 -66.0584 -66.0579 -66.0579 -66.0574 -66.0574 -66.0569 -66.0569
   -30.4694 -30.4688 -30.4677 -30.4664 -30.4656 -30.4647 -30.4633 -30.4631
   -30.4011 -30.3985 -30.3915 -30.3887 -30.3775 -30.3730 -30.3676 -30.3626
   -30.3285 -30.3243 -30.3183 -30.3137 -30.3027 -30.3003 -30.2921 -30.2898
   -20.2077 -20.2077 -20.2076 -20.2075 -20.2075 -20.2075 -20.2074 -20.2074
   -20.2072 -20.2072 -20.2071 -20.2071 -20.2070 -20.2069 -20.2068 -20.2068
   -20.1981 -20.1979 -20.1977 -20.1974 -20.1972 -20.1970 -20.1968 -20.1966
   -20.1959 -20.1959 -20.1957 -20.1953 -20.1951 -20.1948 -20.1946 -20.1945
   -20.1839 -20.1838 -20.1837 -20.1835 -20.1834 -20.1833 -20.1831 -20.1830
   -20.1564 -20.1559 -20.1556 -20.1552 -20.1551 -20.1548 -20.1538 -20.1533
   -20.1523 -20.1518 -20.1509 -20.1504 -20.1504 -20.1499 -20.1496 -20.1491
    -9.5785  -9.5670  -9.3736  -9.3491  -8.9913  -8.9679  -8.8341  -8.8253
    -8.5536  -8.5518  -8.4865  -8.4845  -8.4440  -8.4435  -8.4234  -8.4191
    -8.1606  -8.1378  -8.0483  -8.0257  -7.7115  -7.6877  -7.6408  -7.6169
     1.3487   1.3688   1.3713   1.3925   2.2616   2.2781   2.4538   2.4699
     2.8185   2.8190   3.1281   3.1590   3.2173   3.2290   3.2336   3.2762
     3.2813   3.2909   3.3815   3.4309   3.4373   3.5004   3.6829   3.6980
     3.7639   3.7694   3.8560   3.8649   4.4668   4.4677   4.6331   4.6409
     4.7730   4.7933   4.8650   4.8838   5.2102   5.2281   5.2383   5.2408
     5.3677   5.3822   5.6608   5.6640   6.2001   6.2045   6.2385   6.3031
     6.5186   6.5355   6.6239   6.6893   6.7072   6.7254   6.8361   6.8799
     7.0163   7.0395   7.1658   7.1805   7.1939   7.1971   7.4200   7.4459
     7.4605   7.4793   7.4867   7.5009   7.5057   7.5134   7.7992   7.7993
    10.4350  10.4516  11.2695  11.2936  11.3133  11.3380  11.7581  11.7757
    11.8018  11.8279  11.8920  11.9222  12.5932  12.6277  12.7793  12.7840
    12.9296  12.9412  13.2244  13.2459  13.5968  13.5983  13.6142  13.6240
    15.4275  15.4638  15.6106  15.6462  16.1916  16.2183  16.6887  16.7082
    16.8254  16.8329  17.3378  17.3390  17.9353

          k = 0.0000-0.4749-0.5000 ( 62364 PWs)   bands (ev):

   -66.0581 -66.0581 -66.0581 -66.0581 -66.0572 -66.0572 -66.0572 -66.0572
   -30.4686 -30.4686 -30.4676 -30.4676 -30.4645 -30.4645 -30.4639 -30.4639
   -30.3998 -30.3998 -30.3901 -30.3901 -30.3531 -30.3531 -30.3487 -30.3487
   -30.3429 -30.3429 -30.3380 -30.3380 -30.3016 -30.3016 -30.2910 -30.2910
   -20.2077 -20.2077 -20.2076 -20.2076 -20.2075 -20.2075 -20.2075 -20.2074
   -20.2072 -20.2072 -20.2071 -20.2071 -20.2069 -20.2069 -20.2069 -20.2069
   -20.1980 -20.1980 -20.1975 -20.1975 -20.1965 -20.1965 -20.1965 -20.1965
   -20.1962 -20.1962 -20.1959 -20.1959 -20.1950 -20.1950 -20.1946 -20.1946
   -20.1838 -20.1838 -20.1837 -20.1837 -20.1832 -20.1832 -20.1831 -20.1831
   -20.1560 -20.1560 -20.1555 -20.1555 -20.1538 -20.1538 -20.1534 -20.1534
   -20.1524 -20.1524 -20.1519 -20.1519 -20.1500 -20.1500 -20.1495 -20.1495
    -9.4578  -9.4578  -9.4377  -9.4377  -8.7014  -8.7014  -8.6854  -8.6854
    -8.6070  -8.6070  -8.5961  -8.5961  -8.4025  -8.4024  -8.3849  -8.3849
    -8.3323  -8.3323  -8.3131  -8.3131  -7.6758  -7.6758  -7.6519  -7.6519
     1.3657   1.3657   1.3873   1.3873   2.9952   2.9952   3.0484   3.0484
     3.1534   3.1534   3.1688   3.1688   3.2071   3.2071   3.2144   3.2144
     3.3192   3.3192   3.3344   3.3344   3.4454   3.4454   3.4927   3.4927
     3.5629   3.5629   3.6889   3.6889   4.2868   4.2868   4.3149   4.3149
     4.3858   4.3858   4.4312   4.4312   5.2079   5.2080   5.2243   5.2243
     5.5046   5.5046   5.5282   5.5283   6.3331   6.3331   6.3398   6.3398
     6.5192   6.5192   6.5475   6.5475   6.6246   6.6246   6.6600   6.6600
     7.2776   7.2776   7.3007   7.3007   7.3261   7.3261   7.4138   7.4138
     7.4459   7.4459   7.4913   7.4913   7.5968   7.5968   7.6078   7.6078
    11.1896  11.1896  11.2112  11.2112  11.3295  11.3295  11.3443  11.3443
    12.2738  12.2738  12.3008  12.3008  12.3350  12.3350  12.3585  12.3585
    12.8939  12.8939  12.9198  12.9198  13.6001  13.6001  13.6123  13.6123
    15.5177  15.5177  15.5550  15.5550  16.8080  16.8080  16.8430  16.8430
    17.3580  17.3580  17.3894  17.3895  17.4994

          k = 0.1667 0.0000 0.1667 ( 62330 PWs)   bands (ev):

   -66.0587 -66.0583 -66.0579 -66.0579 -66.0574 -66.0574 -66.0570 -66.0566
   -30.4994 -30.4960 -30.4960 -30.4927 -30.4406 -30.4364 -30.4364 -30.4325
   -30.3973 -30.3934 -30.3909 -30.3907 -30.3857 -30.3844 -30.3807 -30.3805
   -30.3103 -30.3103 -30.3079 -30.3063 -30.2993 -30.2992 -30.2959 -30.2946
   -20.2100 -20.2098 -20.2098 -20.2095 -20.2077 -20.2076 -20.2075 -20.2075
   -20.2074 -20.2074 -20.2074 -20.2073 -20.2046 -20.2043 -20.2043 -20.2040
   -20.1983 -20.1982 -20.1980 -20.1980 -20.1971 -20.1970 -20.1969 -20.1967
   -20.1958 -20.1958 -20.1955 -20.1955 -20.1945 -20.1945 -20.1944 -20.1942
   -20.1840 -20.1839 -20.1836 -20.1836 -20.1834 -20.1834 -20.1831 -20.1830
   -20.1563 -20.1563 -20.1557 -20.1557 -20.1550 -20.1550 -20.1545 -20.1545
   -20.1511 -20.1511 -20.1506 -20.1506 -20.1499 -20.1499 -20.1492 -20.1492
    -9.8413  -9.5269  -9.4645  -9.4642  -9.1384  -9.1378  -9.1194  -8.9367
    -8.9238  -8.8647  -8.8262  -8.8258  -7.8949  -7.8628  -7.8456  -7.8446
    -7.8354  -7.8034  -7.8000  -7.7616  -7.7580  -7.7480  -7.7166  -7.6976
     1.4272   1.4683   1.4696   1.5023   1.5027   1.5924   1.6023   1.6032
     1.7167   1.7168   1.9259   2.0740   2.6051   2.6623   2.6753   2.6972
     2.7857   2.8197   4.1011   4.1016   4.3462   4.3480   4.4879   4.4892
     4.5553   4.5632   4.6578   4.6826   4.7425   4.8090   5.0564   5.2649
     5.2808   5.3373   5.3635   5.4911   5.4999   5.6212   5.6249   5.6915
     5.6926   5.7468   5.7619   5.7720   5.8020   5.9939   6.3094   6.4186
     6.4676   6.4941   6.5572   6.6500   6.6858   6.6900   6.6939   6.7245
     6.7515   6.8491   6.8528   6.8820   6.8998   6.9866   6.9944   7.1032
     7.3028   7.3581   7.8498   7.8499   8.0305   8.0746   8.0863   8.1057
     9.9094   9.9746  10.2530  10.2548  10.2778  10.3655  12.2992  12.2994
    12.3225  12.3332  12.3775  12.4080  12.6271  12.6510  12.9242  12.9704
    13.0463  13.1719  13.2076  13.3763  13.9286  13.9876  14.0314  14.0626
    14.2054  14.5501  14.5504  15.0750  15.4584  15.5758  15.5887  16.3690
    16.3740  16.9560  16.9620  17.1648  17.5362

          k = 0.1667 0.0000 0.3333 ( 62369 PWs)   bands (ev):

   -66.0585 -66.0581 -66.0580 -66.0577 -66.0576 -66.0573 -66.0572 -66.0568
   -30.4988 -30.4968 -30.4954 -30.4935 -30.4396 -30.4373 -30.4356 -30.4333
   -30.3946 -30.3918 -30.3845 -30.3821 -30.3765 -30.3733 -30.3670 -30.3626
   -30.3283 -30.3249 -30.3179 -30.3139 -30.3094 -30.3067 -30.2985 -30.2962
   -20.2100 -20.2099 -20.2097 -20.2096 -20.2076 -20.2076 -20.2075 -20.2075
   -20.2075 -20.2074 -20.2074 -20.2073 -20.2046 -20.2044 -20.2043 -20.2041
   -20.1982 -20.1981 -20.1978 -20.1975 -20.1972 -20.1967 -20.1966 -20.1963
   -20.1962 -20.1960 -20.1959 -20.1954 -20.1950 -20.1947 -20.1944 -20.1943
   -20.1839 -20.1838 -20.1836 -20.1835 -20.1834 -20.1833 -20.1831 -20.1830
   -20.1560 -20.1556 -20.1552 -20.1552 -20.1547 -20.1547 -20.1539 -20.1534
   -20.1522 -20.1518 -20.1510 -20.1508 -20.1505 -20.1503 -20.1500 -20.1495
    -9.7257  -9.5147  -9.3899  -9.3303  -9.1818  -9.1492  -8.8863  -8.8758
    -8.8387  -8.7923  -8.7634  -8.6999  -8.1725  -8.1468  -8.0944  -8.0645
    -7.8541  -7.8310  -7.8225  -7.7979  -7.7911  -7.7683  -7.7621  -7.7363
     1.4382   1.4575   1.5424   1.5765   1.6182   1.6351   1.6971   1.7240
     2.2924   2.3309   2.4679   2.5504   2.6920   2.7784   2.8709   2.9089
     2.9794   3.0571   3.8175   3.8609   3.9488   3.9600   4.1494   4.3159
     4.3301   4.5060   4.5171   4.5538   4.6120   4.7585   4.7747   4.9248
     5.0068   5.0573   5.1068   5.2225   5.2793   5.3878   5.5528   5.6607
     5.6946   5.7550   5.7764   5.8120   5.8327   6.0021   6.1494   6.2040
     6.4114   6.4566   6.4930   6.5602   6.5877   6.6663   6.6700   6.6901
     6.7858   6.8706   6.8821   6.8987   7.1276   7.1567   7.1702   7.2437
     7.3280   7.3727   7.7867   7.8012   7.9230   7.9597   8.0881   8.0990
    10.2525  10.2599  10.5444  10.6123  10.8807  11.0013  11.9250  11.9748
    12.1532  12.4499  12.4800  12.5084  12.5784  12.6393  12.7888  12.8872
    12.9239  13.0508  13.1155  13.3004  13.6802  13.6983  13.9999  14.0264
    14.3463  14.5241  14.8450  15.3518  15.3874  15.8362  15.9974  16.2730
    16.3839  17.2189  17.4022  17.4968  17.6048

          k = 0.1667 0.0000-0.5000 ( 62374 PWs)   bands (ev):

   -66.0583 -66.0583 -66.0579 -66.0579 -66.0574 -66.0574 -66.0570 -66.0570
   -30.4979 -30.4979 -30.4945 -30.4945 -30.4384 -30.4384 -30.4345 -30.4345
   -30.3932 -30.3931 -30.3831 -30.3831 -30.3528 -30.3528 -30.3491 -30.3491
   -30.3424 -30.3424 -30.3381 -30.3381 -30.3083 -30.3083 -30.2974 -30.2974
   -20.2099 -20.2099 -20.2097 -20.2097 -20.2076 -20.2076 -20.2075 -20.2075
   -20.2075 -20.2075 -20.2074 -20.2074 -20.2045 -20.2045 -20.2042 -20.2042
   -20.1981 -20.1981 -20.1974 -20.1974 -20.1969 -20.1969 -20.1964 -20.1964
   -20.1962 -20.1962 -20.1956 -20.1956 -20.1951 -20.1951 -20.1944 -20.1944
   -20.1838 -20.1837 -20.1836 -20.1836 -20.1833 -20.1833 -20.1832 -20.1831
   -20.1556 -20.1556 -20.1552 -20.1552 -20.1537 -20.1537 -20.1533 -20.1533
   -20.1525 -20.1525 -20.1520 -20.1520 -20.1504 -20.1504 -20.1499 -20.1499
    -9.6034  -9.6034  -9.2622  -9.2622  -9.2131  -9.2131  -8.8562  -8.8562
    -8.5401  -8.5401  -8.5193  -8.5193  -8.4784  -8.4784  -8.4232  -8.4232
    -7.8385  -7.8385  -7.7972  -7.7972  -7.7793  -7.7793  -7.7686  -7.7686
     1.4460   1.4460   1.5603   1.5603   1.6368   1.6368   1.7294   1.7294
     2.7196   2.7196   3.0153   3.0153   3.0991   3.0992   3.2172   3.2172
     3.3190   3.3190   3.4353   3.4353   3.5507   3.5507   3.8099   3.8099
     3.8724   3.8724   4.4225   4.4225   4.5303   4.5303   4.8954   4.8954
     5.0392   5.0392   5.0605   5.0605   5.2567   5.2567   5.6278   5.6278
     5.7867   5.7867   5.7942   5.7942   5.9038   5.9038   5.9742   5.9743
     6.3465   6.3465   6.4366   6.4366   6.6652   6.6652   6.7121   6.7121
     6.8229   6.8229   6.9720   6.9720   7.0306   7.0306   7.5433   7.5433
     7.5892   7.5892   7.6959   7.6959   7.7142   7.7142   8.0980   8.0980
    10.2661  10.2661  11.2642  11.2642  11.3421  11.3421  11.5911  11.5911
    11.7886  11.7886  12.6561  12.6561  12.6862  12.6862  12.7426  12.7426
    12.9364  12.9364  13.2723  13.2723  13.3724  13.3724  14.0105  14.0105
    14.4675  14.4675  15.1507  15.1507  15.8306  15.8306  16.1033  16.1033
    16.7607  16.7607  17.8106  17.8119  17.8548

          k = 0.1667 0.1583 0.1667 ( 62358 PWs)   bands (ev):

   -66.0587 -66.0583 -66.0578 -66.0578 -66.0575 -66.0575 -66.0570 -66.0566
   -30.4954 -30.4920 -30.4920 -30.4887 -30.4443 -30.4403 -30.4403 -30.4365
   -30.3971 -30.3938 -30.3910 -30.3908 -30.3857 -30.3846 -30.3807 -30.3806
   -30.3103 -30.3102 -30.3078 -30.3064 -30.2993 -30.2992 -30.2959 -30.2948
   -20.2097 -20.2094 -20.2094 -20.2092 -20.2077 -20.2076 -20.2075 -20.2075
   -20.2074 -20.2074 -20.2074 -20.2073 -20.2050 -20.2047 -20.2047 -20.2044
   -20.1982 -20.1982 -20.1980 -20.1979 -20.1971 -20.1971 -20.1970 -20.1967
   -20.1958 -20.1958 -20.1955 -20.1955 -20.1946 -20.1945 -20.1944 -20.1942
   -20.1840 -20.1839 -20.1836 -20.1836 -20.1834 -20.1834 -20.1830 -20.1830
   -20.1563 -20.1563 -20.1557 -20.1557 -20.1550 -20.1550 -20.1545 -20.1545
   -20.1511 -20.1511 -20.1506 -20.1506 -20.1499 -20.1499 -20.1492 -20.1492
    -9.8081  -9.5388  -9.4213  -9.4210  -9.1463  -9.1457  -9.0448  -8.9358
    -8.9242  -8.8222  -8.7936  -8.7933  -7.9663  -7.9157  -7.9157  -7.8745
    -7.8611  -7.8607  -7.8314  -7.8251  -7.7645  -7.7459  -7.7153  -7.6992
     1.4998   1.5016   1.5522   1.5526   1.6024   1.6036   1.6227   1.8003
     1.8722   1.8731   1.9255   2.1528   2.6136   2.6909   2.7360   2.7504
     2.8587   2.8843   4.0031   4.0213   4.1347   4.1408   4.4726   4.4735
     4.5577   4.5642   4.6562   4.6781   4.7189   4.7559   4.8563   5.1917
     5.2205   5.2588   5.2714   5.3650   5.3814   5.5709   5.5735   5.6257
     5.7529   5.7620   5.7791   5.7965   5.7995   5.8639   6.3290   6.3555
     6.4043   6.4743   6.5476   6.6517   6.6872   6.7207   6.7733   6.7817
     6.7992   6.8299   6.8778   6.8870   6.9552   6.9687   6.9879   7.1097
     7.3066   7.3565   7.8498   7.8503   7.9791   8.0169   8.0226   8.0307
     9.9286   9.9750  10.4047  10.4226  10.4393  10.5012  12.2365  12.2701
    12.3059  12.3066  12.3429  12.3527  12.4888  12.5079  12.9489  12.9723
    13.0716  13.1810  13.2089  13.3792  13.8978  13.9036  13.9325  13.9861
    14.4595  14.8371  14.8391  15.2171  15.5769  15.5871  15.8618  16.3367
    16.3397  16.8106  17.0641  17.0657  17.5879

          k = 0.1667 0.1583 0.3333 ( 62366 PWs)   bands (ev):

   -66.0585 -66.0581 -66.0580 -66.0576 -66.0576 -66.0573 -66.0572 -66.0568
   -30.4948 -30.4928 -30.4914 -30.4895 -30.4435 -30.4412 -30.4396 -30.4373
   -30.3946 -30.3919 -30.3847 -30.3821 -30.3766 -30.3733 -30.3671 -30.3626
   -30.3283 -30.3248 -30.3179 -30.3140 -30.3094 -30.3066 -30.2985 -30.2963
   -20.2097 -20.2095 -20.2094 -20.2092 -20.2076 -20.2076 -20.2075 -20.2075
   -20.2075 -20.2074 -20.2074 -20.2073 -20.2049 -20.2048 -20.2046 -20.2044
   -20.1982 -20.1980 -20.1978 -20.1975 -20.1972 -20.1968 -20.1967 -20.1963
   -20.1962 -20.1960 -20.1958 -20.1954 -20.1950 -20.1948 -20.1945 -20.1944
   -20.1839 -20.1838 -20.1836 -20.1835 -20.1834 -20.1833 -20.1831 -20.1830
   -20.1560 -20.1556 -20.1552 -20.1552 -20.1547 -20.1547 -20.1539 -20.1534
   -20.1522 -20.1518 -20.1510 -20.1508 -20.1505 -20.1503 -20.1500 -20.1495
    -9.6887  -9.4723  -9.4015  -9.2733  -9.1905  -9.0752  -8.8938  -8.8538
    -8.8059  -8.7927  -8.7469  -8.6811  -8.1756  -8.1495  -8.1105  -8.0652
    -7.9312  -7.9153  -7.8933  -7.8654  -7.8346  -7.8034  -7.7657  -7.7362
     1.5585   1.5738   1.6193   1.6366   1.7543   1.7597   1.8376   1.8719
     2.2917   2.3408   2.4696   2.5647   2.7653   2.8417   2.8905   2.9732
     2.9872   3.1136   3.8170   3.8637   3.9145   3.9411   4.1305   4.1791
     4.2398   4.3646   4.5254   4.5782   4.6364   4.6948   4.7515   4.7822
     4.8991   4.9324   4.9731   5.1408   5.2155   5.2533   5.3197   5.6005
     5.6252   5.6523   5.7504   5.7981   5.8240   5.8390   6.1501   6.2023
     6.3753   6.5080   6.5423   6.6259   6.6826   6.7009   6.7212   6.7780
     6.8412   6.8761   6.9088   6.9443   7.1218   7.1513   7.1674   7.2474
     7.3215   7.3689   7.7877   7.7977   7.8795   7.9052   8.0231   8.0277
    10.3888  10.4228  10.5689  10.6225  10.9955  11.0894  11.9258  11.9724
    12.1312  12.4327  12.4677  12.4856  12.5152  12.5587  12.7141  12.7689
    12.9345  13.0590  13.0990  13.2986  13.5753  13.6018  13.9177  13.9435
    14.6598  14.8168  15.1905  15.4980  15.7584  15.8327  16.0074  16.2453
    16.4892  17.1798  17.2022  17.4605  17.5419

          k = 0.1667 0.1583-0.5000 ( 62390 PWs)   bands (ev):

   -66.0583 -66.0583 -66.0579 -66.0579 -66.0574 -66.0574 -66.0570 -66.0570
   -30.4939 -30.4939 -30.4905 -30.4905 -30.4423 -30.4423 -30.4385 -30.4385
   -30.3932 -30.3932 -30.3832 -30.3832 -30.3528 -30.3528 -30.3491 -30.3491
   -30.3425 -30.3425 -30.3382 -30.3382 -30.3082 -30.3082 -30.2974 -30.2974
   -20.2096 -20.2096 -20.2093 -20.2093 -20.2076 -20.2076 -20.2075 -20.2075
   -20.2075 -20.2075 -20.2074 -20.2074 -20.2049 -20.2049 -20.2046 -20.2046
   -20.1981 -20.1981 -20.1974 -20.1974 -20.1968 -20.1968 -20.1964 -20.1964
   -20.1962 -20.1962 -20.1957 -20.1957 -20.1952 -20.1952 -20.1945 -20.1945
   -20.1837 -20.1837 -20.1836 -20.1836 -20.1833 -20.1833 -20.1832 -20.1832
   -20.1556 -20.1556 -20.1552 -20.1552 -20.1537 -20.1537 -20.1533 -20.1533
   -20.1525 -20.1525 -20.1520 -20.1520 -20.1504 -20.1504 -20.1499 -20.1499
    -9.5629  -9.5629  -9.2723  -9.2722  -9.1433  -9.1433  -8.8240  -8.8240
    -8.5430  -8.5430  -8.5235  -8.5235  -8.4793  -8.4793  -8.4183  -8.4183
    -7.9261  -7.9261  -7.8829  -7.8829  -7.8003  -7.8003  -7.7698  -7.7698
     1.5677   1.5677   1.6380   1.6380   1.7669   1.7669   1.8705   1.8705
     2.7888   2.7888   3.0338   3.0338   3.1164   3.1164   3.2336   3.2336
     3.3221   3.3221   3.4407   3.4407   3.5424   3.5424   3.8147   3.8147
     3.9206   3.9206   4.2623   4.2623   4.5372   4.5372   4.6770   4.6770
     4.9295   4.9295   5.0320   5.0320   5.1084   5.1084   5.4361   5.4361
     5.6844   5.6844   5.7487   5.7488   5.8646   5.8646   5.9040   5.9040
     6.4722   6.4722   6.6052   6.6052   6.6461   6.6461   6.7647   6.7647
     6.8982   6.8982   6.9386   6.9386   7.0546   7.0546   7.5427   7.5427
     7.5828   7.5828   7.6692   7.6692   7.6875   7.6875   8.0282   8.0282
    10.4262  10.4262  11.2715  11.2715  11.3413  11.3413  11.6585  11.6585
    11.8486  11.8486  12.5222  12.5222  12.6706  12.6706  12.7304  12.7304
    12.9203  12.9203  13.1661  13.1661  13.3080  13.3080  13.9258  13.9258
    14.7699  14.7699  15.5252  15.5252  15.9492  15.9492  16.0849  16.0849
    16.7923  16.7923  17.6232  17.6232  17.8753

          k = 0.1667 0.3166 0.1667 ( 62313 PWs)   bands (ev):

   -66.0586 -66.0584 -66.0578 -66.0577 -66.0575 -66.0575 -66.0569 -66.0567
   -30.4844 -30.4810 -30.4810 -30.4777 -30.4549 -30.4511 -30.4511 -30.4476
   -30.3965 -30.3946 -30.3910 -30.3910 -30.3856 -30.3849 -30.3809 -30.3808
   -30.3102 -30.3102 -30.3075 -30.3066 -30.2994 -30.2993 -30.2957 -30.2951
   -20.2087 -20.2085 -20.2085 -20.2082 -20.2076 -20.2076 -20.2075 -20.2075
   -20.2074 -20.2074 -20.2074 -20.2073 -20.2060 -20.2057 -20.2057 -20.2054
   -20.1981 -20.1980 -20.1978 -20.1978 -20.1972 -20.1972 -20.1971 -20.1969
   -20.1956 -20.1956 -20.1954 -20.1954 -20.1947 -20.1947 -20.1946 -20.1944
   -20.1840 -20.1839 -20.1836 -20.1836 -20.1834 -20.1834 -20.1830 -20.1830
   -20.1563 -20.1563 -20.1557 -20.1557 -20.1550 -20.1550 -20.1545 -20.1545
   -20.1511 -20.1511 -20.1506 -20.1506 -20.1499 -20.1499 -20.1492 -20.1492
    -9.7276  -9.5759  -9.3221  -9.3216  -9.1726  -9.1720  -8.9333  -8.9267
    -8.8332  -8.6864  -8.6783  -8.6780  -8.2082  -8.1635  -8.1635  -8.1459
    -7.8636  -7.8597  -7.8364  -7.8314  -7.7616  -7.7508  -7.7126  -7.7031
     1.5005   1.5012   1.5862   1.5866   1.6074   1.6078   1.8597   1.9211
     2.3631   2.4836   2.4851   2.6309   2.6320   2.6930   2.9589   2.9789
     3.0789   3.0841   3.6784   3.6799   3.6992   3.7499   4.1244   4.4425
     4.4426   4.4979   4.5033   4.5861   4.5885   4.7297   4.7365   4.8233
     4.8729   4.8820   5.1163   5.1447   5.3760   5.4023   5.4031   5.4251
     5.6382   5.6566   5.7694   5.7713   5.8259   5.8303   6.3773   6.3979
     6.4247   6.4812   6.5300   6.6342   6.7597   6.7629   6.8511   6.8575
     6.9262   6.9298   6.9917   7.0139   7.0895   7.0938   7.1093   7.1484
     7.3272   7.3584   7.7928   7.7962   7.8103   7.8330   7.8548   7.8688
     9.9530   9.9725  10.8178  10.8594  10.8764  10.9043  11.8982  11.9422
    12.0264  12.0435  12.3221  12.3244  12.3727  12.3728  12.9793  12.9951
    13.1905  13.2379  13.2670  13.4194  13.6660  13.6745  13.6976  13.7794
    15.0946  15.4520  15.4617  15.5834  15.5866  15.7730  16.2186  16.2203
    16.2494  16.8553  17.3539  17.4084  17.4254

          k = 0.1667 0.3166 0.3333 ( 62347 PWs)   bands (ev):

   -66.0584 -66.0582 -66.0579 -66.0577 -66.0576 -66.0574 -66.0571 -66.0569
   -30.4838 -30.4818 -30.4805 -30.4785 -30.4541 -30.4519 -30.4505 -30.4484
   -30.3946 -30.3920 -30.3849 -30.3823 -30.3766 -30.3733 -30.3672 -30.3628
   -30.3282 -30.3247 -30.3181 -30.3141 -30.3094 -30.3066 -30.2986 -30.2964
   -20.2087 -20.2085 -20.2084 -20.2083 -20.2076 -20.2076 -20.2075 -20.2075
   -20.2075 -20.2074 -20.2074 -20.2074 -20.2059 -20.2058 -20.2056 -20.2055
   -20.1980 -20.1979 -20.1976 -20.1973 -20.1972 -20.1969 -20.1967 -20.1965
   -20.1960 -20.1959 -20.1958 -20.1954 -20.1952 -20.1949 -20.1947 -20.1945
   -20.1839 -20.1838 -20.1836 -20.1835 -20.1834 -20.1833 -20.1831 -20.1831
   -20.1560 -20.1556 -20.1552 -20.1552 -20.1547 -20.1547 -20.1539 -20.1534
   -20.1522 -20.1518 -20.1510 -20.1508 -20.1505 -20.1503 -20.1500 -20.1495
    -9.5996  -9.4384  -9.3738  -9.2192  -9.1330  -8.9238  -8.8667  -8.8190
    -8.7950  -8.6915  -8.6535  -8.6067  -8.2574  -8.2313  -8.1647  -8.1549
    -8.1455  -8.0896  -8.0601  -8.0100  -7.8342  -7.8077  -7.7646  -7.7387
     1.6010   1.6196   1.6233   1.6417   2.1996   2.2813   2.2902   2.3809
     2.4605   2.4940   2.5184   2.7148   2.9032   2.9652   2.9893   3.0694
     3.2116   3.2989   3.6580   3.6729   3.7379   3.7861   3.9110   3.9829
     4.1026   4.2870   4.3872   4.4109   4.4709   4.5448   4.5973   4.6618
     4.7372   4.7747   4.8276   4.8598   4.9284   4.9943   5.1390   5.1591
     5.3247   5.3419   5.4405   5.6088   5.7965   5.8378   6.1846   6.2033
     6.5459   6.6156   6.6387   6.7364   6.8104   6.8348   6.9242   6.9635
     7.0020   7.0257   7.0457   7.0731   7.1492   7.1731   7.1985   7.2704
     7.3074   7.3605   7.7218   7.7258   7.7800   7.7967   7.8128   7.8469
    10.5483  10.5858  10.8656  10.8811  11.3135  11.3637  11.8859  11.9328
    11.9582  12.0967  12.2158  12.2528  12.4890  12.5769  12.6707  12.7049
    12.9127  13.0708  13.1348  13.3329  13.3481  13.3914  13.6839  13.7258
    15.3066  15.4369  15.7883  15.9754  15.9958  16.0631  16.1461  16.6868
    16.7340  16.8333  17.0559  17.5691  17.6395

          k = 0.1667 0.3166-0.5000 ( 62356 PWs)   bands (ev):

   -66.0582 -66.0582 -66.0580 -66.0580 -66.0573 -66.0573 -66.0571 -66.0571
   -30.4829 -30.4829 -30.4795 -30.4795 -30.4531 -30.4531 -30.4495 -30.4495
   -30.3933 -30.3933 -30.3834 -30.3834 -30.3528 -30.3528 -30.3491 -30.3491
   -30.3426 -30.3426 -30.3383 -30.3383 -30.3082 -30.3082 -30.2975 -30.2975
   -20.2086 -20.2086 -20.2084 -20.2084 -20.2076 -20.2076 -20.2075 -20.2075
   -20.2074 -20.2074 -20.2074 -20.2074 -20.2059 -20.2059 -20.2056 -20.2056
   -20.1979 -20.1979 -20.1973 -20.1973 -20.1967 -20.1967 -20.1965 -20.1965
   -20.1962 -20.1962 -20.1958 -20.1958 -20.1952 -20.1952 -20.1946 -20.1946
   -20.1837 -20.1837 -20.1836 -20.1836 -20.1833 -20.1833 -20.1832 -20.1832
   -20.1556 -20.1556 -20.1552 -20.1552 -20.1537 -20.1537 -20.1533 -20.1533
   -20.1525 -20.1525 -20.1520 -20.1520 -20.1504 -20.1504 -20.1499 -20.1499
    -9.4669  -9.4669  -9.3053  -9.3053  -8.9517  -8.9517  -8.7211  -8.7211
    -8.5700  -8.5699  -8.5393  -8.5393  -8.4716  -8.4716  -8.3981  -8.3981
    -8.1555  -8.1555  -8.1223  -8.1223  -7.7994  -7.7994  -7.7730  -7.7730
     1.6186   1.6186   1.6423   1.6423   2.3640   2.3640   2.4794   2.4794
     2.9831   2.9831   3.0895   3.0895   3.1223   3.1223   3.2891   3.2891
     3.3306   3.3306   3.4613   3.4613   3.5085   3.5085   3.7014   3.7014
     4.0536   4.0536   4.0839   4.0839   4.1424   4.1424   4.3671   4.3671
     4.7306   4.7306   4.8056   4.8056   4.9838   4.9838   5.0350   5.0350
     5.1458   5.1458   5.5138   5.5138   5.9008   5.9008   5.9143   5.9143
     6.6673   6.6673   6.7794   6.7794   6.8382   6.8382   6.8701   6.8701
     7.0180   7.0180   7.0676   7.0676   7.1728   7.1728   7.5195   7.5195
     7.5501   7.5501   7.5888   7.5889   7.6221   7.6221   7.8235   7.8235
    10.8497  10.8497  11.2871  11.2871  11.3408  11.3408  11.7810  11.7810
    12.0343  12.0343  12.2060  12.2060  12.5762  12.5762  12.6373  12.6373
    12.8278  12.8278  12.9540  12.9540  13.2917  13.2917  13.6980  13.6980
    15.3911  15.3911  15.9918  15.9918  16.3406  16.3407  16.4776  16.4776
    16.9272  16.9272  17.2670  17.2670  17.8466

          k = 0.1667-0.4749 0.1667 ( 62308 PWs)   bands (ev):

   -66.0585 -66.0585 -66.0577 -66.0576 -66.0576 -66.0576 -66.0568 -66.0568
   -30.4696 -30.4696 -30.4667 -30.4667 -30.4654 -30.4654 -30.4627 -30.4626
   -30.3956 -30.3956 -30.3911 -30.3911 -30.3853 -30.3853 -30.3810 -30.3810
   -30.3102 -30.3101 -30.3070 -30.3070 -30.2994 -30.2994 -30.2954 -30.2954
   -20.2077 -20.2077 -20.2076 -20.2076 -20.2075 -20.2075 -20.2074 -20.2074
   -20.2073 -20.2073 -20.2070 -20.2070 -20.2070 -20.2070 -20.2068 -20.2068
   -20.1979 -20.1979 -20.1977 -20.1977 -20.1973 -20.1973 -20.1971 -20.1971
   -20.1955 -20.1955 -20.1954 -20.1954 -20.1948 -20.1948 -20.1946 -20.1946
   -20.1839 -20.1839 -20.1836 -20.1836 -20.1834 -20.1834 -20.1830 -20.1830
   -20.1563 -20.1563 -20.1557 -20.1557 -20.1550 -20.1550 -20.1545 -20.1545
   -20.1511 -20.1511 -20.1506 -20.1506 -20.1499 -20.1499 -20.1492 -20.1492
    -9.6407  -9.6407  -9.2414  -9.2414  -9.2159  -9.2159  -8.9299  -8.9299
    -8.5274  -8.5273  -8.4576  -8.4576  -8.4539  -8.4539  -8.4493  -8.4493
    -7.8606  -7.8606  -7.8357  -7.8357  -7.7563  -7.7563  -7.7081  -7.7081
     1.5008   1.5008   1.5901   1.5901   1.6093   1.6093   1.9089   1.9089
     2.6524   2.6524   3.1412   3.1412   3.2243   3.2243   3.2477   3.2477
     3.2910   3.2910   3.3803   3.3803   3.5075   3.5075   3.5578   3.5578
     3.7166   3.7166   4.5105   4.5105   4.5595   4.5595   4.9227   4.9227
     4.9934   4.9934   5.0973   5.0973   5.1473   5.1473   5.4491   5.4491
     5.4884   5.4884   5.7761   5.7761   5.8076   5.8076   6.4286   6.4286
     6.5015   6.5015   6.5343   6.5343   6.7649   6.7649   6.8839   6.8839
     6.9219   6.9219   7.0790   7.0790   7.2824   7.2824   7.4475   7.4475
     7.4708   7.4708   7.4892   7.4892   7.5413   7.5413   7.8546   7.8546
     9.9661   9.9661  11.3653  11.3653  11.4201  11.4201  11.4537  11.4537
    11.4856  11.4857  12.3244  12.3244  12.3673  12.3673  13.0029  13.0029
    13.3931  13.3931  13.4073  13.4073  13.4353  13.4353  13.5760  13.5760
    15.5736  15.5736  15.6707  15.6707  15.9457  15.9457  15.9781  15.9781
    16.6609  16.6609  17.8500  17.8501  17.8773

          k = 0.1667-0.4749 0.3333 ( 62316 PWs)   bands (ev):

   -66.0583 -66.0583 -66.0578 -66.0578 -66.0575 -66.0575 -66.0570 -66.0570
   -30.4691 -30.4687 -30.4674 -30.4663 -30.4659 -30.4650 -30.4635 -30.4634
   -30.3946 -30.3920 -30.3850 -30.3824 -30.3766 -30.3733 -30.3673 -30.3629
   -30.3282 -30.3247 -30.3181 -30.3142 -30.3093 -30.3065 -30.2987 -30.2964
   -20.2077 -20.2077 -20.2076 -20.2076 -20.2075 -20.2075 -20.2074 -20.2074
   -20.2072 -20.2072 -20.2071 -20.2071 -20.2070 -20.2069 -20.2068 -20.2068
   -20.1979 -20.1978 -20.1976 -20.1973 -20.1972 -20.1969 -20.1968 -20.1966
   -20.1959 -20.1958 -20.1958 -20.1953 -20.1953 -20.1949 -20.1948 -20.1947
   -20.1838 -20.1838 -20.1836 -20.1835 -20.1834 -20.1833 -20.1831 -20.1831
   -20.1560 -20.1556 -20.1552 -20.1552 -20.1547 -20.1547 -20.1539 -20.1534
   -20.1522 -20.1518 -20.1510 -20.1508 -20.1505 -20.1503 -20.1500 -20.1495
    -9.5101  -9.5012  -9.2905  -9.2668  -9.0082  -8.9854  -8.8073  -8.8005
    -8.5641  -8.5622  -8.4783  -8.4752  -8.4416  -8.4404  -8.4277  -8.4239
    -8.1513  -8.1283  -8.0582  -8.0367  -7.8330  -7.8095  -7.7635  -7.7401
     1.6053   1.6226   1.6252   1.6433   2.2682   2.2852   2.4403   2.4558
     2.9178   2.9218   3.1421   3.1651   3.2272   3.2314   3.2374   3.2644
     3.2904   3.3076   3.4343   3.4719   3.4988   3.5491   3.6719   3.6892
     3.7664   3.7785   3.9139   3.9798   4.4368   4.4802   4.6133   4.6213
     4.6679   4.7206   4.7888   4.8120   4.9679   5.0121   5.0249   5.0554
     5.1395   5.1945   5.3543   5.4248   5.8016   5.8194   6.1956   6.2026
     6.6303   6.6440   6.6834   6.7110   6.8416   6.8708   7.0242   7.0817
     7.0950   7.1367   7.1595   7.1991   7.2087   7.2178   7.4190   7.4442
     7.4500   7.4709   7.4804   7.4949   7.5131   7.5335   7.8016   7.8031
    10.5722  10.5839  11.3907  11.4132  11.4348  11.4554  11.7658  11.7848
    11.7964  11.8214  11.9450  12.0009  12.4883  12.5498  12.7751  12.8017
    12.9310  12.9621  13.1290  13.2139  13.4117  13.4387  13.4687  13.5283
    15.6636  15.7020  15.8832  15.9174  16.2361  16.2743  16.6649  16.7021
    16.8600  16.8657  17.3591  17.4083  17.8135

          k = 0.1667-0.4749-0.5000 ( 62332 PWs)   bands (ev):

   -66.0581 -66.0581 -66.0581 -66.0581 -66.0572 -66.0572 -66.0572 -66.0572
   -30.4684 -30.4684 -30.4675 -30.4675 -30.4648 -30.4648 -30.4643 -30.4643
   -30.3933 -30.3933 -30.3835 -30.3835 -30.3527 -30.3527 -30.3491 -30.3491
   -30.3426 -30.3426 -30.3384 -30.3384 -30.3081 -30.3081 -30.2976 -30.2976
   -20.2077 -20.2077 -20.2076 -20.2076 -20.2075 -20.2075 -20.2075 -20.2075
   -20.2072 -20.2072 -20.2071 -20.2071 -20.2069 -20.2069 -20.2069 -20.2069
   -20.1978 -20.1978 -20.1974 -20.1974 -20.1966 -20.1966 -20.1964 -20.1964
   -20.1962 -20.1962 -20.1959 -20.1959 -20.1952 -20.1952 -20.1947 -20.1947
   -20.1837 -20.1837 -20.1836 -20.1836 -20.1833 -20.1833 -20.1832 -20.1832
   -20.1556 -20.1556 -20.1552 -20.1552 -20.1537 -20.1537 -20.1533 -20.1533
   -20.1525 -20.1525 -20.1520 -20.1520 -20.1504 -20.1504 -20.1499 -20.1499
    -9.3793  -9.3793  -9.3605  -9.3605  -8.7202  -8.7202  -8.7044  -8.7043
    -8.5893  -8.5893  -8.5780  -8.5780  -8.3998  -8.3998  -8.3823  -8.3823
    -8.3345  -8.3345  -8.3156  -8.3156  -7.7983  -7.7983  -7.7745  -7.7745
     1.6233   1.6233   1.6442   1.6442   3.0001   3.0001   3.0504   3.0505
     3.1408   3.1408   3.1613   3.1613   3.2160   3.2160   3.2762   3.2762
     3.3136   3.3136   3.4171   3.4171   3.4972   3.4972   3.5460   3.5460
     3.6002   3.6002   3.7185   3.7185   4.2899   4.2899   4.3147   4.3147
     4.3788   4.3789   4.4238   4.4238   4.8795   4.8795   5.0449   5.0449
     5.1508   5.1508   5.3011   5.3011   5.9020   5.9020   5.9155   5.9155
     6.7419   6.7419   6.7904   6.7904   6.8724   6.8724   6.9110   6.9110
     7.2707   7.2707   7.2987   7.2987   7.3510   7.3510   7.4072   7.4072
     7.4458   7.4458   7.4992   7.4992   7.6052   7.6052   7.6323   7.6323
    11.2525  11.2525  11.2928  11.2928  11.4302  11.4302  11.4968  11.4968
    12.2723  12.2723  12.3058  12.3058  12.3359  12.3359  12.3667  12.3667
    12.8007  12.8007  12.8739  12.8739  13.4254  13.4254  13.4744  13.4744
    15.7827  15.7827  15.8216  15.8216  16.8653  16.8654  16.8992  16.8993
    17.3632  17.3632  17.4010  17.4010  17.4888

          k = 0.3333 0.0000 0.3333 ( 62392 PWs)   bands (ev):

   -66.0583 -66.0579 -66.0579 -66.0579 -66.0574 -66.0574 -66.0574 -66.0569
   -30.4982 -30.4963 -30.4962 -30.4943 -30.4387 -30.4365 -30.4364 -30.4341
   -30.3785 -30.3760 -30.3743 -30.3738 -30.3667 -30.3656 -30.3633 -30.3631
   -30.3277 -30.3274 -30.3267 -30.3252 -30.3164 -30.3161 -30.3147 -30.3134
   -20.2100 -20.2098 -20.2098 -20.2097 -20.2076 -20.2075 -20.2075 -20.2075
   -20.2075 -20.2074 -20.2074 -20.2074 -20.2045 -20.2044 -20.2044 -20.2042
   -20.1978 -20.1978 -20.1976 -20.1975 -20.1969 -20.1968 -20.1964 -20.1963
   -20.1963 -20.1961 -20.1958 -20.1957 -20.1950 -20.1949 -20.1948 -20.1946
   -20.1838 -20.1836 -20.1835 -20.1835 -20.1834 -20.1834 -20.1832 -20.1831
   -20.1550 -20.1550 -20.1545 -20.1544 -20.1542 -20.1542 -20.1537 -20.1537
   -20.1519 -20.1519 -20.1516 -20.1516 -20.1511 -20.1511 -20.1506 -20.1506
    -9.5983  -9.3785  -9.3775  -9.2082  -9.1827  -8.9341  -8.9312  -8.7785
    -8.7227  -8.7177  -8.7143  -8.7005  -8.2046  -8.1550  -8.1465  -8.1327
    -8.1250  -8.1135  -8.0181  -7.9971  -7.8251  -7.8009  -7.8008  -7.7765
     1.4851   1.5224   1.5229   1.5592   2.2013   2.2069   2.3060   2.3125
     2.3465   2.3503   2.5434   2.6448   2.9160   2.9309   2.9668   3.0212
     3.2443   3.2852   3.7929   3.8207   3.9303   3.9350   4.1253   4.1339
     4.1400   4.1581   4.2573   4.3257   4.4375   4.4580   4.5349   4.5527
     4.8448   4.8991   4.9464   4.9805   5.0485   5.0640   5.1763   5.4224
     5.4279   5.5242   5.5297   5.6376   5.8715   5.8782   5.8786   6.0404
     6.4468   6.4481   6.4726   6.4745   6.5093   6.5478   6.5598   6.6163
     6.9773   7.1781   7.1929   7.2253   7.2324   7.3198   7.3576   7.3663
     7.4158   7.4868   7.7454   7.7556   7.8931   7.9572   7.9760   8.0117
    10.7612  10.8552  10.8920  10.8999  11.0273  11.2214  12.0906  12.0976
    12.1464  12.1536  12.2164  12.2990  12.5305  12.5370  12.8066  12.8497
    12.8589  12.8744  13.0043  13.0737  13.5938  13.6662  13.6676  13.7659
    14.5336  14.7981  14.8007  15.2570  15.7610  16.3524  16.3985  16.7043
    16.7338  17.1931  17.2207  17.7542  17.7967

          k = 0.3333 0.0000-0.5000 ( 62346 PWs)   bands (ev):

   -66.0581 -66.0581 -66.0577 -66.0577 -66.0576 -66.0576 -66.0572 -66.0572
   -30.4973 -30.4973 -30.4953 -30.4953 -30.4376 -30.4376 -30.4353 -30.4353
   -30.3756 -30.3756 -30.3654 -30.3654 -30.3516 -30.3516 -30.3501 -30.3501
   -30.3417 -30.3417 -30.3390 -30.3390 -30.3259 -30.3259 -30.3153 -30.3153
   -20.2099 -20.2099 -20.2098 -20.2098 -20.2076 -20.2076 -20.2075 -20.2075
   -20.2075 -20.2075 -20.2074 -20.2074 -20.2045 -20.2045 -20.2043 -20.2043
   -20.1977 -20.1977 -20.1972 -20.1972 -20.1969 -20.1969 -20.1965 -20.1965
   -20.1961 -20.1961 -20.1955 -20.1955 -20.1953 -20.1953 -20.1948 -20.1948
   -20.1836 -20.1836 -20.1835 -20.1835 -20.1833 -20.1833 -20.1832 -20.1832
   -20.1546 -20.1546 -20.1542 -20.1542 -20.1534 -20.1534 -20.1530 -20.1530
   -20.1528 -20.1528 -20.1522 -20.1522 -20.1515 -20.1515 -20.1510 -20.1510
    -9.4673  -9.4673  -9.2535  -9.2535  -9.0306  -9.0306  -8.7426  -8.7426
    -8.5844  -8.5844  -8.5133  -8.5133  -8.4554  -8.4554  -8.4221  -8.4221
    -8.1030  -8.1030  -8.0797  -8.0797  -7.8136  -7.8136  -7.7891  -7.7891
     1.5032   1.5032   1.5416   1.5416   2.3239   2.3239   2.3560   2.3560
     2.9239   2.9239   3.0416   3.0416   3.0796   3.0796   3.2457   3.2457
     3.3506   3.3506   3.6103   3.6103   3.7545   3.7545   3.8659   3.8659
     3.8895   3.8895   4.0436   4.0436   4.2086   4.2086   4.3971   4.3971
     4.7231   4.7231   4.9227   4.9227   5.0677   5.0677   5.1335   5.1335
     5.2696   5.2696   5.5219   5.5219   5.9024   5.9024   5.9987   5.9987
     6.3932   6.3932   6.4071   6.4071   6.4611   6.4611   6.5735   6.5735
     7.1564   7.1564   7.3191   7.3191   7.3989   7.3989   7.5664   7.5664
     7.5993   7.5993   7.6985   7.6985   7.7378   7.7378   7.9789   7.9789
    10.8830  10.8830  11.4747  11.4747  11.5696  11.5696  11.6483  11.6483
    11.8700  11.8700  12.2788  12.2788  12.4604  12.4604  12.6766  12.6766
    12.8749  12.8749  13.2277  13.2277  13.2668  13.2668  13.6799  13.6799
    14.7040  14.7040  15.0774  15.0774  16.2269  16.2270  16.7635  16.7635
    17.1300  17.1300  17.4487  17.4488  17.8839

          k = 0.3333 0.1583 0.3333 ( 62357 PWs)   bands (ev):

   -66.0583 -66.0580 -66.0578 -66.0578 -66.0575 -66.0575 -66.0573 -66.0570
   -30.4942 -30.4923 -30.4922 -30.4903 -30.4427 -30.4404 -30.4404 -30.4382
   -30.3783 -30.3761 -30.3743 -30.3739 -30.3667 -30.3657 -30.3633 -30.3632
   -30.3276 -30.3274 -30.3267 -30.3253 -30.3165 -30.3162 -30.3147 -30.3135
   -20.2096 -20.2095 -20.2095 -20.2093 -20.2076 -20.2075 -20.2075 -20.2075
   -20.2075 -20.2074 -20.2074 -20.2074 -20.2049 -20.2047 -20.2047 -20.2045
   -20.1977 -20.1977 -20.1975 -20.1975 -20.1969 -20.1968 -20.1964 -20.1963
   -20.1963 -20.1961 -20.1958 -20.1957 -20.1951 -20.1950 -20.1949 -20.1947
   -20.1838 -20.1837 -20.1835 -20.1835 -20.1834 -20.1834 -20.1832 -20.1831
   -20.1550 -20.1550 -20.1545 -20.1544 -20.1542 -20.1542 -20.1537 -20.1537
   -20.1519 -20.1519 -20.1516 -20.1516 -20.1511 -20.1511 -20.1506 -20.1506
    -9.5547  -9.3235  -9.3223  -9.2205  -9.1097  -8.9435  -8.9406  -8.7466
    -8.7177  -8.7031  -8.6981  -8.6951  -8.2235  -8.1530  -8.1496  -8.1359
    -8.1260  -8.1164  -8.0174  -7.9986  -7.9187  -7.8945  -7.8945  -7.8688
     1.7135   1.7478   1.7482   1.7880   2.2017   2.2067   2.3055   2.3120
     2.3564   2.3590   2.5452   2.6542   2.9888   3.0050   3.0433   3.0712
[...]
    10.9881  10.9881  11.4956  11.4956  11.5874  11.5874  11.7024  11.7024
    11.9174  11.9175  12.3028  12.3028  12.4548  12.4548  12.6808  12.6808
    12.7530  12.7530  13.1077  13.1077  13.1472  13.1472  13.5747  13.5747
    15.0689  15.0689  15.4607  15.4607  16.3128  16.3128  16.7663  16.7663
    17.1314  17.1314  17.4556  17.4556  17.7419

          k = 0.3333 0.3166 0.3333 ( 62367 PWs)   bands (ev):

   -66.0582 -66.0580 -66.0578 -66.0577 -66.0575 -66.0575 -66.0573 -66.0570
   -30.4833 -30.4813 -30.4813 -30.4793 -30.4534 -30.4513 -30.4513 -30.4492
   -30.3778 -30.3766 -30.3743 -30.3742 -30.3666 -30.3660 -30.3635 -30.3634
   -30.3274 -30.3273 -30.3265 -30.3256 -30.3165 -30.3163 -30.3145 -30.3138
   -20.2087 -20.2085 -20.2085 -20.2083 -20.2076 -20.2075 -20.2075 -20.2075
   -20.2075 -20.2074 -20.2074 -20.2074 -20.2059 -20.2057 -20.2057 -20.2056
   -20.1976 -20.1976 -20.1974 -20.1973 -20.1969 -20.1968 -20.1965 -20.1963
   -20.1962 -20.1961 -20.1958 -20.1957 -20.1952 -20.1951 -20.1951 -20.1949
   -20.1837 -20.1837 -20.1835 -20.1835 -20.1834 -20.1834 -20.1832 -20.1831
   -20.1550 -20.1550 -20.1545 -20.1544 -20.1542 -20.1542 -20.1537 -20.1537
   -20.1519 -20.1519 -20.1516 -20.1516 -20.1511 -20.1511 -20.1506 -20.1506
    -9.4484  -9.2607  -9.1878  -9.1862  -8.9769  -8.9740  -8.9047  -8.7147
    -8.7053  -8.6348  -8.6211  -8.6191  -8.3346  -8.2107  -8.2093  -8.1591
    -8.1416  -8.1222  -8.1206  -8.0733  -8.0709  -8.0416  -8.0096  -8.0017
     2.1912   2.1954   2.2183   2.2254   2.2811   2.3048   2.3053   2.3843
     2.5200   2.5267   2.5475   2.7539   3.1688   3.2057   3.2223   3.2731
     3.2833   3.3331   3.6649   3.6947   3.7317   3.8062   4.0552   4.0800
     4.1015   4.1739   4.1747   4.2708   4.3196   4.3742   4.3823   4.4667
     4.5132   4.5565   4.5649   4.6350   4.7343   4.8378   4.8688   4.9117
     4.9282   4.9312   5.1364   5.2553   5.3013   5.3128   5.5453   5.5478
     6.8001   6.8130   6.8220   6.8825   6.9489   6.9970   7.0128   7.0384
     7.0817   7.1627   7.1791   7.2368   7.2435   7.2946   7.3503   7.3512
     7.4249   7.4487   7.6682   7.7149   7.7463   7.7497   7.7643   7.8194
    10.9214  10.9853  11.2738  11.3184  11.3331  11.4897  12.0658  12.0736
    12.1070  12.1318  12.1423  12.2480  12.3847  12.3995  12.6226  12.6842
    12.7337  12.7506  12.8021  13.0795  13.2285  13.2879  13.2899  13.4421
    15.7384  15.9560  15.9613  16.1944  16.3714  16.3840  16.6311  16.8604
    16.8708  16.9213  17.1671  17.1906  17.6928

          k = 0.3333 0.3166-0.5000 ( 62348 PWs)   bands (ev):

   -66.0580 -66.0580 -66.0578 -66.0578 -66.0575 -66.0575 -66.0573 -66.0573
   -30.4823 -30.4823 -30.4803 -30.4803 -30.4524 -30.4524 -30.4503 -30.4503
   -30.3756 -30.3756 -30.3657 -30.3656 -30.3515 -30.3515 -30.3500 -30.3500
   -30.3419 -30.3419 -30.3392 -30.3392 -30.3259 -30.3259 -30.3155 -30.3155
   -20.2086 -20.2086 -20.2084 -20.2084 -20.2076 -20.2075 -20.2075 -20.2075
   -20.2075 -20.2075 -20.2074 -20.2074 -20.2058 -20.2058 -20.2057 -20.2057
   -20.1975 -20.1975 -20.1971 -20.1971 -20.1967 -20.1967 -20.1964 -20.1964
   -20.1962 -20.1962 -20.1958 -20.1958 -20.1955 -20.1955 -20.1951 -20.1951
   -20.1836 -20.1836 -20.1835 -20.1835 -20.1833 -20.1833 -20.1833 -20.1833
   -20.1546 -20.1546 -20.1542 -20.1542 -20.1534 -20.1534 -20.1530 -20.1530
   -20.1528 -20.1528 -20.1522 -20.1522 -20.1515 -20.1515 -20.1510 -20.1510
    -9.2911  -9.2911  -9.0809  -9.0809  -9.0002  -9.0002  -8.6549  -8.6549
    -8.6207  -8.6207  -8.5071  -8.5071  -8.4465  -8.4465  -8.4063  -8.4063
    -8.1645  -8.1645  -8.1416  -8.1416  -8.0879  -8.0879  -8.0475  -8.0475
     2.2317   2.2317   2.3176   2.3176   2.3779   2.3779   2.5101   2.5101
     3.0688   3.0688   3.1236   3.1236   3.2028   3.2028   3.2901   3.2901
     3.3719   3.3719   3.6261   3.6261   3.7307   3.7307   3.8254   3.8254
     4.0313   4.0313   4.0945   4.0945   4.1382   4.1382   4.2505   4.2505
     4.3366   4.3366   4.4784   4.4784   4.6176   4.6176   4.8426   4.8426
     4.9617   4.9617   5.0193   5.0193   5.0864   5.0864   5.3000   5.3000
     6.8461   6.8461   6.9042   6.9042   6.9681   6.9681   7.0302   7.0302
     7.1725   7.1725   7.2917   7.2917   7.4006   7.4006   7.5076   7.5076
     7.5536   7.5536   7.6205   7.6205   7.6457   7.6457   7.7711   7.7712
    11.2717  11.2717  11.5311  11.5311  11.6163  11.6163  11.8761  11.8761
    12.0800  12.0800  12.3372  12.3372  12.3888  12.3888  12.4332  12.4332
    12.7297  12.7297  12.8268  12.8268  12.9044  12.9044  13.3168  13.3168
    15.9077  15.9077  16.3974  16.3974  16.5797  16.5797  16.7447  16.7447
    17.1520  17.1520  17.3350  17.3350  17.6085

          k = 0.3333-0.4749 0.3333 ( 62344 PWs)   bands (ev):

   -66.0581 -66.0581 -66.0577 -66.0576 -66.0576 -66.0576 -66.0572 -66.0571
   -30.4683 -30.4683 -30.4666 -30.4666 -30.4659 -30.4659 -30.4643 -30.4643
   -30.3772 -30.3772 -30.3743 -30.3743 -30.3663 -30.3663 -30.3635 -30.3635
   -30.3273 -30.3273 -30.3261 -30.3261 -30.3165 -30.3165 -30.3142 -30.3142
   -20.2077 -20.2077 -20.2076 -20.2076 -20.2075 -20.2075 -20.2075 -20.2075
   -20.2072 -20.2072 -20.2071 -20.2071 -20.2070 -20.2070 -20.2069 -20.2069
   -20.1975 -20.1975 -20.1973 -20.1973 -20.1969 -20.1969 -20.1965 -20.1965
   -20.1961 -20.1961 -20.1957 -20.1957 -20.1952 -20.1952 -20.1951 -20.1951
   -20.1837 -20.1837 -20.1835 -20.1835 -20.1834 -20.1834 -20.1832 -20.1832
   -20.1550 -20.1550 -20.1545 -20.1544 -20.1542 -20.1542 -20.1537 -20.1537
   -20.1519 -20.1519 -20.1516 -20.1516 -20.1511 -20.1511 -20.1506 -20.1506
    -9.3371  -9.3371  -9.0625  -9.0625  -9.0420  -9.0420  -8.7139  -8.7139
    -8.6064  -8.6063  -8.4478  -8.4478  -8.4418  -8.4417  -8.4272  -8.4272
    -8.1298  -8.1298  -8.1093  -8.1093  -8.1028  -8.1028  -8.0066  -8.0066
     2.2018   2.2018   2.2860   2.2860   2.3046   2.3046   2.5180   2.5180
     3.1414   3.1414   3.1767   3.1767   3.2356   3.2356   3.2623   3.2623
     3.3502   3.3502   3.5551   3.5551   3.6416   3.6416   3.6780   3.6780
     3.7933   3.7933   4.0931   4.0931   4.2166   4.2166   4.4161   4.4162
     4.5192   4.5192   4.6241   4.6241   4.7058   4.7058   4.7722   4.7722
     4.8730   4.8730   4.9933   4.9933   5.0115   5.0115   5.5403   5.5403
     6.9144   6.9145   7.0378   7.0378   7.0798   7.0798   7.1454   7.1454
     7.2235   7.2235   7.2580   7.2580   7.2865   7.2865   7.4112   7.4112
     7.4524   7.4524   7.5153   7.5153   7.5547   7.5548   7.7656   7.7656
    10.9715  10.9715  11.6916  11.6916  11.7463  11.7463  11.7939  11.7939
    11.8854  11.8854  12.1267  12.1267  12.2394  12.2394  12.6627  12.6627
    12.9066  12.9066  12.9574  12.9574  13.0062  13.0062  13.2286  13.2286
    16.3488  16.3488  16.4113  16.4113  16.6105  16.6105  16.6660  16.6660
    16.9833  16.9833  17.4502  17.4502  17.5349

          k = 0.3333-0.4749-0.5000 ( 62312 PWs)   bands (ev):

   -66.0579 -66.0579 -66.0579 -66.0579 -66.0574 -66.0574 -66.0574 -66.0574
   -30.4676 -30.4676 -30.4671 -30.4671 -30.4655 -30.4655 -30.4651 -30.4651
   -30.3756 -30.3756 -30.3657 -30.3657 -30.3515 -30.3515 -30.3500 -30.3500
   -30.3420 -30.3420 -30.3393 -30.3393 -30.3258 -30.3258 -30.3156 -30.3156
   -20.2076 -20.2076 -20.2076 -20.2076 -20.2075 -20.2075 -20.2075 -20.2075
   -20.2071 -20.2071 -20.2071 -20.2071 -20.2070 -20.2070 -20.2070 -20.2070
   -20.1974 -20.1974 -20.1971 -20.1971 -20.1966 -20.1966 -20.1964 -20.1964
   -20.1962 -20.1962 -20.1959 -20.1959 -20.1955 -20.1955 -20.1952 -20.1952
   -20.1836 -20.1836 -20.1835 -20.1835 -20.1833 -20.1833 -20.1833 -20.1833
   -20.1546 -20.1546 -20.1542 -20.1542 -20.1534 -20.1534 -20.1530 -20.1530
   -20.1528 -20.1528 -20.1522 -20.1522 -20.1515 -20.1515 -20.1510 -20.1510
    -9.1689  -9.1689  -9.1554  -9.1554  -8.7811  -8.7811  -8.7675  -8.7675
    -8.5292  -8.5292  -8.5198  -8.5198  -8.3930  -8.3930  -8.3780  -8.3780
    -8.3388  -8.3388  -8.3215  -8.3215  -8.0901  -8.0901  -8.0683  -8.0683
     2.3028   2.3029   2.3217   2.3217   3.0107   3.0107   3.0430   3.0430
     3.1327   3.1327   3.1517   3.1517   3.2696   3.2697   3.2954   3.2954
     3.3951   3.3951   3.4322   3.4322   3.6455   3.6455   3.6797   3.6797
     3.8014   3.8014   3.8624   3.8624   4.2538   4.2538   4.2826   4.2826
     4.3352   4.3352   4.3905   4.3905   4.4642   4.4642   4.5744   4.5744
     4.6599   4.6599   4.8124   4.8124   5.0936   5.0936   5.1110   5.1110
     7.0080   7.0081   7.0633   7.0633   7.1842   7.1842   7.1984   7.1984
     7.2760   7.2760   7.3130   7.3130   7.3482   7.3482   7.4059   7.4059
     7.4853   7.4853   7.5506   7.5506   7.6270   7.6270   7.6519   7.6519
    11.4879  11.4879  11.5283  11.5283  11.7749  11.7749  11.8569  11.8569
    12.2251  12.2251  12.2766  12.2766  12.3400  12.3400  12.3713  12.3713
    12.5353  12.5353  12.6472  12.6472  12.9944  12.9944  13.0753  13.0753
    16.5062  16.5062  16.5628  16.5628  17.0364  17.0364  17.0549  17.0549
    17.3413  17.3413  17.4163  17.4165  17.4646

          k =-0.5000 0.0000-0.5000 ( 62388 PWs)   bands (ev):

   -66.0579 -66.0579 -66.0579 -66.0579 -66.0574 -66.0574 -66.0574 -66.0574
   -30.4964 -30.4964 -30.4964 -30.4964 -30.4365 -30.4365 -30.4364 -30.4364
   -30.3531 -30.3531 -30.3529 -30.3529 -30.3508 -30.3508 -30.3503 -30.3503
   -30.3404 -30.3404 -30.3399 -30.3398 -30.3390 -30.3390 -30.3386 -30.3386
   -20.2098 -20.2098 -20.2098 -20.2098 -20.2075 -20.2075 -20.2075 -20.2075
   -20.2074 -20.2074 -20.2074 -20.2074 -20.2044 -20.2044 -20.2044 -20.2044
   -20.1973 -20.1973 -20.1971 -20.1971 -20.1970 -20.1970 -20.1968 -20.1968
   -20.1957 -20.1957 -20.1955 -20.1955 -20.1954 -20.1954 -20.1952 -20.1952
   -20.1835 -20.1835 -20.1835 -20.1835 -20.1834 -20.1834 -20.1834 -20.1834
   -20.1533 -20.1533 -20.1533 -20.1533 -20.1533 -20.1533 -20.1533 -20.1533
   -20.1525 -20.1525 -20.1525 -20.1525 -20.1524 -20.1524 -20.1524 -20.1524
    -9.3356  -9.3356  -9.3344  -9.3344  -8.7452  -8.7452  -8.7367  -8.7367
    -8.5672  -8.5672  -8.5555  -8.5555  -8.3813  -8.3813  -8.3718  -8.3718
    -8.3601  -8.3601  -8.3477  -8.3476  -7.8019  -7.8019  -7.8018  -7.8018
     1.5222   1.5222   1.5230   1.5230   2.9632   2.9632   2.9680   2.9680
     3.1118   3.1118   3.1186   3.1186   3.1579   3.1579   3.1755   3.1755
     3.3738   3.3738   3.3765   3.3765   3.7680   3.7680   3.8131   3.8131
     3.8280   3.8280   3.8812   3.8812   4.2306   4.2306   4.2363   4.2363
     4.3246   4.3246   4.3385   4.3385   4.9201   4.9202   4.9255   4.9255
     5.3708   5.3708   5.3771   5.3771   5.9874   5.9874   5.9880   5.9880
     6.3761   6.3761   6.3789   6.3789   6.4293   6.4293   6.4370   6.4370
     7.4723   7.4723   7.4789   7.4789   7.5269   7.5269   7.5418   7.5418
     7.6256   7.6256   7.6300   7.6300   7.8099   7.8099   7.8277   7.8277
    11.5565  11.5565  11.5852  11.5853  11.6316  11.6316  11.6550  11.6550
    12.0259  12.0259  12.0335  12.0335  12.2048  12.2048  12.2091  12.2091
    13.1418  13.1418  13.1559  13.1559  13.3106  13.3106  13.3235  13.3235
    14.9337  14.9337  14.9349  14.9349  16.6805  16.6805  16.6992  16.6993
    17.7837  17.7837  17.7869  17.7870  17.9252

          k =-0.5000 0.1583-0.5000 ( 62392 PWs)   bands (ev):

   -66.0578 -66.0578 -66.0578 -66.0578 -66.0575 -66.0575 -66.0575 -66.0575
   -30.4924 -30.4924 -30.4923 -30.4923 -30.4405 -30.4405 -30.4404 -30.4404
   -30.3529 -30.3529 -30.3528 -30.3528 -30.3509 -30.3509 -30.3505 -30.3505
   -30.3404 -30.3404 -30.3399 -30.3399 -30.3391 -30.3391 -30.3388 -30.3388
   -20.2095 -20.2095 -20.2095 -20.2095 -20.2075 -20.2075 -20.2075 -20.2075
   -20.2074 -20.2074 -20.2074 -20.2074 -20.2048 -20.2048 -20.2047 -20.2047
   -20.1972 -20.1972 -20.1970 -20.1970 -20.1970 -20.1970 -20.1967 -20.1967
   -20.1958 -20.1958 -20.1955 -20.1955 -20.1955 -20.1955 -20.1953 -20.1953
   -20.1835 -20.1835 -20.1835 -20.1835 -20.1834 -20.1834 -20.1834 -20.1834
   -20.1533 -20.1533 -20.1533 -20.1533 -20.1533 -20.1533 -20.1533 -20.1533
   -20.1525 -20.1525 -20.1525 -20.1525 -20.1524 -20.1524 -20.1524 -20.1524
    -9.2732  -9.2732  -9.2718  -9.2718  -8.7583  -8.7582  -8.7501  -8.7501
    -8.5539  -8.5539  -8.5421  -8.5421  -8.3803  -8.3803  -8.3713  -8.3713
    -8.3610  -8.3610  -8.3482  -8.3482  -7.8975  -7.8975  -7.8973  -7.8973
     1.7546   1.7546   1.7554   1.7554   2.9812   2.9812   2.9876   2.9876
     3.1262   3.1262   3.1324   3.1324   3.1743   3.1743   3.1937   3.1937
     3.3651   3.3651   3.3682   3.3682   3.8100   3.8100   3.8509   3.8509
     3.8748   3.8749   3.9243   3.9243   4.2165   4.2165   4.2222   4.2222
     4.3250   4.3250   4.3390   4.3391   4.7009   4.7009   4.7053   4.7053
     5.1294   5.1294   5.1336   5.1336   5.7195   5.7195   5.7201   5.7201
     6.5709   6.5709   6.5800   6.5801   6.6122   6.6122   6.6179   6.6179
     7.4604   7.4604   7.4667   7.4667   7.5176   7.5176   7.5335   7.5336
     7.6147   7.6147   7.6166   7.6166   7.7801   7.7801   7.7935   7.7935
    11.6147  11.6147  11.6410  11.6410  11.6922  11.6922  11.7143  11.7143
    12.0294  12.0294  12.0366  12.0366  12.2252  12.2252  12.2288  12.2288
    13.0137  13.0137  13.0267  13.0267  13.1913  13.1913  13.2028  13.2028
    15.3186  15.3186  15.3199  15.3199  16.7463  16.7463  16.7638  16.7638
    17.6823  17.6823  17.6951  17.6951  17.9489

          k =-0.5000 0.3166-0.5000 ( 62356 PWs)   bands (ev):

   -66.0578 -66.0578 -66.0577 -66.0577 -66.0575 -66.0575 -66.0575 -66.0575
   -30.4814 -30.4814 -30.4814 -30.4814 -30.4514 -30.4514 -30.4514 -30.4513
   -30.3524 -30.3524 -30.3523 -30.3523 -30.3513 -30.3513 -30.3510 -30.3510
   -30.3401 -30.3401 -30.3398 -30.3398 -30.3394 -30.3394 -30.3392 -30.3392
   -20.2085 -20.2085 -20.2085 -20.2085 -20.2075 -20.2075 -20.2075 -20.2075
   -20.2075 -20.2075 -20.2074 -20.2074 -20.2058 -20.2058 -20.2057 -20.2057
   -20.1970 -20.1970 -20.1969 -20.1969 -20.1969 -20.1969 -20.1967 -20.1967
   -20.1958 -20.1958 -20.1957 -20.1957 -20.1956 -20.1956 -20.1955 -20.1955
   -20.1835 -20.1834 -20.1834 -20.1834 -20.1834 -20.1834 -20.1834 -20.1834
   -20.1533 -20.1533 -20.1533 -20.1533 -20.1533 -20.1533 -20.1533 -20.1533
   -20.1525 -20.1525 -20.1525 -20.1525 -20.1524 -20.1524 -20.1524 -20.1524
    -9.1094  -9.1094  -9.1071  -9.1071  -8.8069  -8.8069  -8.8001  -8.8001
    -8.5048  -8.5048  -8.4921  -8.4921  -8.3784  -8.3784  -8.3714  -8.3714
    -8.3628  -8.3628  -8.3485  -8.3485  -8.1267  -8.1267  -8.1255  -8.1255
     2.3747   2.3747   2.3754   2.3754   3.0215   3.0215   3.0316   3.0316
     3.1236   3.1236   3.1251   3.1251   3.2549   3.2549   3.2759   3.2759
     3.3305   3.3305   3.3378   3.3378   3.9396   3.9396   3.9801   3.9801
     3.9850   3.9850   4.0105   4.0105   4.0749   4.0749   4.0968   4.0968
     4.3256   4.3256   4.3476   4.3476   4.3702   4.3702   4.3732   4.3732
     4.7174   4.7174   4.7175   4.7175   5.0305   5.0305   5.0327   5.0327
     6.9014   6.9014   6.9146   6.9146   7.0017   7.0017   7.0130   7.0130
     7.3980   7.3980   7.4022   7.4022   7.4785   7.4785   7.4938   7.4938
     7.5970   7.5970   7.5973   7.5973   7.6934   7.6934   7.7011   7.7011
    11.7633  11.7633  11.7750  11.7750  11.8400  11.8400  11.8505  11.8505
    12.0677  12.0677  12.0725  12.0725  12.3105  12.3105  12.3133  12.3133
    12.6941  12.6941  12.7047  12.7047  12.8914  12.8914  12.8992  12.8992
    16.2633  16.2633  16.2643  16.2643  16.9309  16.9309  16.9435  16.9435
    17.4478  17.4478  17.4713  17.4713  17.9242

          k =-0.5000-0.4749-0.5000 ( 62368 PWs)   bands (ev):

   -66.0577 -66.0577 -66.0576 -66.0576 -66.0576 -66.0576 -66.0576 -66.0576
   -30.4666 -30.4666 -30.4664 -30.4664 -30.4663 -30.4663 -30.4662 -30.4662
   -30.3519 -30.3519 -30.3518 -30.3518 -30.3518 -30.3518 -30.3516 -30.3516
   -30.3397 -30.3397 -30.3396 -30.3396 -30.3396 -30.3396 -30.3396 -30.3396
   -20.2076 -20.2076 -20.2076 -20.2076 -20.2075 -20.2075 -20.2075 -20.2075
   -20.2071 -20.2071 -20.2071 -20.2071 -20.2070 -20.2070 -20.2070 -20.2070
   -20.1968 -20.1968 -20.1968 -20.1968 -20.1968 -20.1968 -20.1968 -20.1968
   -20.1958 -20.1958 -20.1957 -20.1957 -20.1957 -20.1957 -20.1957 -20.1957
   -20.1834 -20.1834 -20.1834 -20.1834 -20.1834 -20.1834 -20.1834 -20.1834
   -20.1533 -20.1533 -20.1533 -20.1533 -20.1533 -20.1533 -20.1533 -20.1533
   -20.1525 -20.1525 -20.1525 -20.1525 -20.1524 -20.1524 -20.1524 -20.1524
    -8.9295  -8.9295  -8.9187  -8.9187  -8.9187  -8.9187  -8.9166  -8.9166
    -8.4131  -8.4131  -8.3904  -8.3904  -8.3904  -8.3904  -8.3893  -8.3893
    -8.3400  -8.3400  -8.3400  -8.3400  -8.3290  -8.3290  -8.3201  -8.3201
     3.0071   3.0071   3.0133   3.0133   3.0133   3.0133   3.0254   3.0254
     3.1768   3.1769   3.1850   3.1850   3.1850   3.1850   3.2024   3.2024
     3.3965   3.3965   3.4660   3.4660   3.4660   3.4660   3.5098   3.5098
     4.1585   4.1585   4.1724   4.1724   4.1734   4.1734   4.1734   4.1734
     4.3655   4.3655   4.3655   4.3655   4.3828   4.3828   4.3840   4.3840
     4.4578   4.4579   4.4818   4.4818   4.4824   4.4824   4.4824   4.4824
     7.1307   7.1307   7.1940   7.1940   7.1940   7.1940   7.2734   7.2735
     7.3341   7.3341   7.3442   7.3442   7.3442   7.3442   7.3470   7.3470
     7.5999   7.5999   7.6133   7.6133   7.6133   7.6133   7.6348   7.6348
    11.8763  11.8763  11.8789  11.8789  11.8789  11.8789  11.8861  11.8861
    12.2413  12.2413  12.2956  12.2956  12.2956  12.2956  12.3694  12.3694
    12.5295  12.5295  12.5644  12.5644  12.5644  12.5644  12.5850  12.5850
    17.1217  17.1217  17.1537  17.1537  17.1537  17.1537  17.1865  17.1865
    17.4010  17.4010  17.4011  17.4011  17.4169

     the Fermi energy is     9.9206 ev

!    total energy              =   -6260.68677914 Ry
     Harris-Foulkes estimate   =   -6260.68677914 Ry
     estimated scf accuracy    <          1.4E-09 Ry

     The total energy is the sum of the following terms:

     one-electron contribution =   -4727.86916947 Ry
     hartree contribution      =    2602.13984616 Ry
     xc contribution           =    -966.33217645 Ry
     ewald contribution        =   -3168.62526906 Ry
     smearing contrib. (-TS)   =      -0.00001031 Ry

     convergence has been achieved in  13 iterations

     Writing output data file Landau_4.save
 
     init_run     :     24.52s CPU     25.60s WALL (       1 calls)
     electrons    :    975.63s CPU    995.97s WALL (       1 calls)

     Called by init_run:
     wfcinit      :     22.26s CPU     23.20s WALL (       1 calls)
     potinit      :      1.04s CPU      1.07s WALL (       1 calls)

     Called by electrons:
     c_bands      :    851.08s CPU    869.28s WALL (      13 calls)
     sum_band     :    117.04s CPU    117.54s WALL (      13 calls)
     v_of_rho     :      2.01s CPU      2.04s WALL (      14 calls)
     mix_rho      :      4.82s CPU      5.33s WALL (      13 calls)

     Called by c_bands:
     init_us_2    :     10.60s CPU     11.13s WALL (      27 calls)
     cegterg      :    724.92s CPU    742.92s WALL (      13 calls)

     Called by sum_band:

     Called by *egterg:
     h_psi        :    573.25s CPU    575.76s WALL (      52 calls)
     g_psi        :      2.28s CPU      2.28s WALL (      38 calls)
     cdiaghg      :      7.30s CPU      7.35s WALL (      51 calls)

     Called by h_psi:
     h_psi:pot    :    569.05s CPU    571.44s WALL (      52 calls)
     h_psi:calbec :     67.13s CPU     68.79s WALL (      52 calls)
     vloc_psi     :    431.83s CPU    432.27s WALL (      52 calls)
     add_vuspsi   :     70.08s CPU     70.38s WALL (      52 calls)

     General routines
     calbec       :     67.13s CPU     68.79s WALL (      52 calls)
     fft          :      1.24s CPU      1.24s WALL (      56 calls)
     fftw         :    412.02s CPU    412.21s WALL (   16929 calls)
 
     Parallel routines
 
     PWSCF        : 16m43.31s CPU    17m15.19s WALL

 
   This run was terminated on:  21:33:46  26Mar2020            

=------------------------------------------------------------------------------=
   JOB DONE.
=------------------------------------------------------------------------------=
