
     Program PWSCF v.6.2 (svn rev. 14038) starts on  4Mar2020 at 21:59: 5 

     This program is part of the open-source Quantum ESPRESSO suite
     for quantum simulation of materials; please cite
         "P. Giannozzi et al., J. Phys.:Condens. Matter 21 395502 (2009);
         "P. Giannozzi et al., J. Phys.:Condens. Matter 29 465901 (2017);
          URL http://www.quantum-espresso.org", 
     in publications or presentations arising from this work. More details at
     http://www.quantum-espresso.org/quote

     Parallel version (MPI), running on    64 processors

     MPI processes distributed on     8 nodes
     K-points division:     npool     =      64
     Reading input from rscf.in

     Current dimensions of program PWSCF are:
     Max number of different atomic species (ntypx) = 10
     Max number of k-points (npk) =  40000
     Max angular momentum in pseudopotentials (lmaxx) =  3

     Subspace diagonalization in iterative solution of the eigenvalue problem:
     a serial algorithm will be used

     Found symmetry operation: I + (  0.5000  0.0000 -0.5000)
     This is a supercell, fractional translations are disabled
 
     G-vector sticks info
     --------------------
     sticks:   dense  smooth     PW     G-vecs:    dense   smooth      PW
     Sum        7747    7747   2077               498127   498127   69057
 


     bravais-lattice index     =            0
     lattice parameter (alat)  =      13.8397  a.u.
     unit-cell volume          =    2804.9816 (a.u.)^3
     number of atoms/cell      =           32
     number of atomic types    =            2
     number of electrons       =       368.00
     number of Kohn-Sham states=          221
     kinetic-energy cutoff     =     120.0000  Ry
     charge density cutoff     =     480.0000  Ry
     convergence threshold     =      1.0E-08
     mixing beta               =       0.7000
     number of iterations used =            8  plain     mixing
     Exchange-correlation      = SLA PW NOGX NOGC ( 1  4  0  0 0 0)
     nstep                     =           50


     celldm(1)=  13.839685  celldm(2)=   0.000000  celldm(3)=   0.000000
     celldm(4)=   0.000000  celldm(5)=   0.000000  celldm(6)=   0.000000

     crystal axes: (cart. coord. in units of alat)
               a(1) = (   1.000000   0.000000   0.000000 )  
               a(2) = (   0.000000   1.058160   0.000000 )  
               a(3) = (   0.000000   0.000000   1.000000 )  

     reciprocal axes: (cart. coord. in units 2 pi/alat)
               b(1) = (  1.000000  0.000000  0.000000 )  
               b(2) = (  0.000000  0.945037  0.000000 )  
               b(3) = (  0.000000  0.000000  1.000000 )  


     PseudoPot. # 1 for W  read from file:
     /cluster/scratch/mnoe/QE/pps/W_ONCV_LDA-4.0.upf
     MD5 check sum: ba0307d5d4cd419d6f1d13dc49d7c13a
     Pseudo is Norm-conserving + core correction, Zval = 28.0
     Generated using ONCVPSP code by D. R. Hamann
     Using radial grid of 1380 points,  8 beta functions with: 
                l(1) =   0
                l(2) =   0
                l(3) =   1
                l(4) =   1
                l(5) =   2
                l(6) =   2
                l(7) =   3
                l(8) =   3

     PseudoPot. # 2 for O  read from file:
     /cluster/scratch/mnoe/QE/pps/O_ONCV_LDA-3.0.upf
     MD5 check sum: a1bd6164e7280c17a38c229939bfbd54
     Pseudo is Norm-conserving + core correction, Zval =  6.0
     Generated using ONCVPSP code by D. R. Hamann
     Using radial grid of  926 points,  5 beta functions with: 
                l(1) =   0
                l(2) =   0
                l(3) =   1
                l(4) =   1
                l(5) =   2

     atomic species   valence    mass     pseudopotential
        W             28.00   183.84000     W ( 1.00)
        O              6.00    15.99940     O ( 1.00)

      2 Sym. Ops., with inversion, found



   Cartesian axes

     site n.     atom                  positions (alat units)
         1           W   tau(   1) = (   0.2500000   0.2948840   0.0000000  )
         2           W   tau(   2) = (   0.7500000   0.7632761   0.0000000  )
         3           W   tau(   3) = (   0.2500000   0.2341961   0.5000000  )
         4           W   tau(   4) = (   0.7500000   0.8239640   0.5000000  )
         5           W   tau(   5) = (   0.7500000   0.2948840   0.5000000  )
         6           W   tau(   6) = (   0.2500000   0.7632761   0.5000000  )
         7           W   tau(   7) = (   0.7500000   0.2341961   0.0000000  )
         8           W   tau(   8) = (   0.2500000   0.8239640   0.0000000  )
         9           O   tau(   9) = (   0.2500000   0.0078861   0.0000000  )
        10           O   tau(  10) = (   0.7500000   1.0502740   0.0000000  )
        11           O   tau(  11) = (   0.2500000   0.5211940   0.5000000  )
        12           O   tau(  12) = (   0.7500000   0.5369661   0.5000000  )
        13           O   tau(  13) = (   0.7500000   0.0078861   0.5000000  )
        14           O   tau(  14) = (   0.2500000   1.0502740   0.5000000  )
        15           O   tau(  15) = (   0.7500000   0.5211940   0.0000000  )
        16           O   tau(  16) = (   0.2500000   0.5369661   0.0000000  )
        17           O   tau(  17) = (   0.5000000   0.2645400   0.4573252  )
        18           O   tau(  18) = (   0.5000000   0.7936201   0.5426748  )
        19           O   tau(  19) = (   0.0000000   0.2645400   0.9573252  )
        20           O   tau(  20) = (   0.0000000   0.7936201   0.0426748  )
        21           O   tau(  21) = (   0.5000000   0.2645400   0.0426748  )
        22           O   tau(  22) = (   0.5000000   0.7936201   0.9573252  )
        23           O   tau(  23) = (   0.0000000   0.2645400   0.5426748  )
        24           O   tau(  24) = (   0.0000000   0.7936201   0.4573252  )
        25           O   tau(  25) = (   0.7073252   0.2645400   0.7500000  )
        26           O   tau(  26) = (   0.2926748   0.7936201   0.2500000  )
        27           O   tau(  27) = (   0.7926749   0.2645400   0.2500000  )
        28           O   tau(  28) = (   0.2073252   0.7936201   0.7500000  )
        29           O   tau(  29) = (   0.2926748   0.2645400   0.7500000  )
        30           O   tau(  30) = (   0.7073252   0.7936201   0.2500000  )
        31           O   tau(  31) = (   0.2073252   0.2645400   0.2500000  )
        32           O   tau(  32) = (   0.7926749   0.7936201   0.7500000  )

     number of k points=   112  gaussian smearing, width (Ry)=  0.0007

     Number of k-points >= 100: set verbosity='high' to print them.

     Dense  grid:   498127 G-vectors     FFT dimensions: ( 100, 108, 100)

     Estimated max dynamical RAM per process >       3.15 GB

     Estimated total dynamical RAM >     201.29 GB

     Initial potential from superposition of free atoms

     starting charge  367.99656, renormalised to  368.00000
     Starting wfc are  232 randomized atomic wfcs

     total cpu time spent up to now is       67.8 secs

     Self-consistent Calculation

     iteration #  1     ecut=   120.00 Ry     beta= 0.70
     Davidson diagonalization with overlap
     ethr =  1.00E-02,  avg # of iterations =  5.1

     total cpu time spent up to now is      250.9 secs

     total energy              =   -6254.02997243 Ry
     Harris-Foulkes estimate   =   -6264.58676410 Ry
     estimated scf accuracy    <      13.38050952 Ry

     iteration #  2     ecut=   120.00 Ry     beta= 0.70
     Davidson diagonalization with overlap
     ethr =  3.64E-03,  avg # of iterations =  3.4

     total cpu time spent up to now is      430.4 secs

     total energy              =   -6251.00446180 Ry
     Harris-Foulkes estimate   =   -6270.60502356 Ry
     estimated scf accuracy    <      52.41340921 Ry

     iteration #  3     ecut=   120.00 Ry     beta= 0.70
     Davidson diagonalization with overlap
     ethr =  3.64E-03,  avg # of iterations =  3.4

     total cpu time spent up to now is      597.9 secs

     total energy              =   -6261.06737202 Ry
     Harris-Foulkes estimate   =   -6261.38919662 Ry
     estimated scf accuracy    <       1.03668849 Ry

     iteration #  4     ecut=   120.00 Ry     beta= 0.70
     Davidson diagonalization with overlap
     ethr =  2.82E-04,  avg # of iterations =  3.0

     total cpu time spent up to now is      735.4 secs

     total energy              =   -6261.08907083 Ry
     Harris-Foulkes estimate   =   -6261.16508788 Ry
     estimated scf accuracy    <       0.26338806 Ry

     iteration #  5     ecut=   120.00 Ry     beta= 0.70
     Davidson diagonalization with overlap
     ethr =  7.16E-05,  avg # of iterations =  4.6

     total cpu time spent up to now is      875.8 secs

     total energy              =   -6261.07975016 Ry
     Harris-Foulkes estimate   =   -6261.11752098 Ry
     estimated scf accuracy    <       0.08208844 Ry

     iteration #  6     ecut=   120.00 Ry     beta= 0.70
     Davidson diagonalization with overlap
     ethr =  2.23E-05,  avg # of iterations =  5.3

     total cpu time spent up to now is     1031.5 secs

     total energy              =   -6261.09819879 Ry
     Harris-Foulkes estimate   =   -6261.09995199 Ry
     estimated scf accuracy    <       0.00493867 Ry

     iteration #  7     ecut=   120.00 Ry     beta= 0.70
     Davidson diagonalization with overlap
     ethr =  1.34E-06,  avg # of iterations =  4.0

     total cpu time spent up to now is     1176.8 secs

     total energy              =   -6261.09874023 Ry
     Harris-Foulkes estimate   =   -6261.09884057 Ry
     estimated scf accuracy    <       0.00022787 Ry

     iteration #  8     ecut=   120.00 Ry     beta= 0.70
     Davidson diagonalization with overlap
     ethr =  6.19E-08,  avg # of iterations =  3.0

     total cpu time spent up to now is     1334.7 secs

     total energy              =   -6261.09880171 Ry
     Harris-Foulkes estimate   =   -6261.09880555 Ry
     estimated scf accuracy    <       0.00001101 Ry

     iteration #  9     ecut=   120.00 Ry     beta= 0.70
     Davidson diagonalization with overlap
     ethr =  2.99E-09,  avg # of iterations =  2.7

     total cpu time spent up to now is     1498.2 secs

     total energy              =   -6261.09880303 Ry
     Harris-Foulkes estimate   =   -6261.09880517 Ry
     estimated scf accuracy    <       0.00001090 Ry

     iteration # 10     ecut=   120.00 Ry     beta= 0.70
     Davidson diagonalization with overlap
     ethr =  2.96E-09,  avg # of iterations =  2.0

     total cpu time spent up to now is     1626.8 secs

     total energy              =   -6261.09880186 Ry
     Harris-Foulkes estimate   =   -6261.09880382 Ry
     estimated scf accuracy    <       0.00000442 Ry

     iteration # 11     ecut=   120.00 Ry     beta= 0.70
     Davidson diagonalization with overlap
     ethr =  1.20E-09,  avg # of iterations =  2.0

     total cpu time spent up to now is     1768.1 secs

     total energy              =   -6261.09880272 Ry
     Harris-Foulkes estimate   =   -6261.09880284 Ry
     estimated scf accuracy    <       0.00000033 Ry

     iteration # 12     ecut=   120.00 Ry     beta= 0.70
     Davidson diagonalization with overlap
     ethr =  9.09E-11,  avg # of iterations =  2.6

     total cpu time spent up to now is     1928.9 secs

     total energy              =   -6261.09880278 Ry
     Harris-Foulkes estimate   =   -6261.09880283 Ry
     estimated scf accuracy    <       0.00000016 Ry

     iteration # 13     ecut=   120.00 Ry     beta= 0.70
     Davidson diagonalization with overlap
     ethr =  4.31E-11,  avg # of iterations =  2.0

     total cpu time spent up to now is     2058.8 secs

     total energy              =   -6261.09880278 Ry
     Harris-Foulkes estimate   =   -6261.09880279 Ry
     estimated scf accuracy    <       0.00000003 Ry

     iteration # 14     ecut=   120.00 Ry     beta= 0.70
     Davidson diagonalization with overlap
     ethr =  7.46E-12,  avg # of iterations =  2.0

     total cpu time spent up to now is     2225.2 secs

     End of self-consistent calculation

     Number of k-points >= 100: set verbosity='high' to print the bands.

     the Fermi energy is     9.0013 ev

!    total energy              =   -6261.09880278 Ry
     Harris-Foulkes estimate   =   -6261.09880279 Ry
     estimated scf accuracy    <          5.3E-09 Ry

     The total energy is the sum of the following terms:

     one-electron contribution =   -4748.20751396 Ry
     hartree contribution      =    2610.84055774 Ry
     xc contribution           =    -965.95773842 Ry
     ewald contribution        =   -3157.77410814 Ry
     smearing contrib. (-TS)   =      -0.00000000 Ry

     convergence has been achieved in  14 iterations

     Forces acting on atoms (cartesian axes, Ry/au):

     atom    1 type  1   force =    -0.00003245    0.02620433    0.00000112
     atom    2 type  1   force =     0.00003245   -0.02620433   -0.00000112
     atom    3 type  1   force =    -0.00002186   -0.02623508   -0.00000090
     atom    4 type  1   force =     0.00002186    0.02623508    0.00000090
     atom    5 type  1   force =     0.00003246    0.02620266   -0.00000046
     atom    6 type  1   force =    -0.00003246   -0.02620266    0.00000046
     atom    7 type  1   force =     0.00002808   -0.02624172    0.00000082
     atom    8 type  1   force =    -0.00002808    0.02624172   -0.00000082
     atom    9 type  2   force =    -0.00000164   -0.01309446    0.00000025
     atom   10 type  2   force =     0.00000164    0.01309446   -0.00000025
     atom   11 type  2   force =     0.00000017    0.01309911   -0.00000012
     atom   12 type  2   force =    -0.00000017   -0.01309911    0.00000012
     atom   13 type  2   force =    -0.00000012   -0.01309542    0.00000012
     atom   14 type  2   force =     0.00000012    0.01309542   -0.00000012
     atom   15 type  2   force =     0.00000127    0.01309861   -0.00000019
     atom   16 type  2   force =    -0.00000127   -0.01309861    0.00000019
     atom   17 type  2   force =     0.00000031   -0.00000081   -0.00666253
     atom   18 type  2   force =    -0.00000031    0.00000081    0.00666253
     atom   19 type  2   force =    -0.00000073   -0.00000148   -0.00666178
     atom   20 type  2   force =     0.00000073    0.00000148    0.00666178
     atom   21 type  2   force =     0.00000056   -0.00000074    0.00666182
     atom   22 type  2   force =    -0.00000056    0.00000074   -0.00666182
     atom   23 type  2   force =    -0.00000015   -0.00000046    0.00666261
     atom   24 type  2   force =     0.00000015    0.00000046   -0.00666261
     atom   25 type  2   force =    -0.00666150   -0.00000151    0.00000493
     atom   26 type  2   force =     0.00666150    0.00000151   -0.00000493
     atom   27 type  2   force =     0.00666258   -0.00000121   -0.00000510
     atom   28 type  2   force =    -0.00666258    0.00000121    0.00000510
     atom   29 type  2   force =     0.00666189    0.00000000    0.00000402
     atom   30 type  2   force =    -0.00666189   -0.00000000   -0.00000402
     atom   31 type  2   force =    -0.00666275   -0.00000013   -0.00000454
     atom   32 type  2   force =     0.00666275    0.00000013    0.00000454

     Total force =     0.000000     Total SCF correction =     0.000000


     Computing stress (Cartesian axis) and pressure

          total   stress  (Ry/bohr**3)                   (kbar)     P=   25.75
   0.00034734  -0.00000001   0.00000000         51.10     -0.00      0.00
  -0.00000001  -0.00016946   0.00000000         -0.00    -24.93      0.00
   0.00000000   0.00000000   0.00034734          0.00      0.00     51.10


     BFGS Geometry Optimization

     number of scf cycles    =   1
     number of bfgs steps    =   0

     enthalpy new            =   -6261.0988027829 Ry

     new trust radius        =       0.0919805171 bohr
     new conv_thr            =       0.0000000100 Ry

     new unit-cell volume =   2841.81717 a.u.^3 (   421.11385 Ang^3 )
     density =      7.31349 g/cm^3

CELL_PARAMETERS (angstrom)
   7.387241660  -0.000001259   0.000000005
  -0.000001332   7.716758426   0.000000456
   0.000000005   0.000000431   7.387241833

ATOMIC_POSITIONS (crystal)
W        0.250000000   0.278676145   0.000000000    0   0   0
W        0.749999983   0.721323855   0.000000000    0   0   0
W        0.250000000   0.221323871   0.500000000    0   0   0
W        0.749999983   0.778676147   0.500000000    0   0   0
W        0.749999983   0.278676145   0.500000000    0   0   0
W        0.250000000   0.721323855   0.500000000    0   0   0
W        0.749999983   0.221323871  -0.000000000    0   0   0
W        0.250000000   0.778676147   0.000000000    0   0   0
O        0.250000000   0.007452623   0.000000000    0   0   0
O        0.749999983   0.992547378   0.000000000    0   0   0
O        0.250000000   0.492547380   0.500000000    0   0   0
O        0.749999983   0.507452622   0.500000000    0   0   0
O        0.749999983   0.007452623   0.500000000    0   0   0
O        0.250000000   0.992547378   0.500000000    0   0   0
O        0.749999983   0.492547380  -0.000000000    0   0   0
O        0.250000000   0.507452622   0.000000000    0   0   0
O        0.500000000   0.250000000   0.457325163    0   0   0
O        0.500000000   0.750000001   0.542674839    0   0   0
O        0.000000000   0.250000000   0.957325196    0   0   0
O        0.000000000   0.750000001   0.042674824    0   0   0
O        0.500000000   0.250000000   0.042674824    0   0   0
O        0.500000000   0.750000001   0.957325196    0   0   0
O       -0.000000000   0.250000000   0.542674839    0   0   0
O        0.000000000   0.750000001   0.457325163    0   0   0
O        0.707325178   0.250000000   0.749999983    0   0   0
O        0.292674821   0.750000001   0.250000000    0   0   0
O        0.792674856   0.250000000   0.250000000    0   0   0
O        0.207325179   0.750000001   0.749999983    0   0   0
O        0.292674821   0.250000000   0.749999983    0   0   0
O        0.707325178   0.750000001   0.250000000    0   0   0
O        0.207325179   0.250000000   0.250000000    0   0   0
O        0.792674856   0.750000001   0.749999983    0   0   0



     Writing output data file Landau_8.save
     NEW-OLD atomic charge density approx. for the potential
     extrapolated charge  372.76996, renormalised to  368.00000

     total cpu time spent up to now is     2587.3 secs

     Self-consistent Calculation

     iteration #  1     ecut=   120.00 Ry     beta= 0.70
     Davidson diagonalization with overlap
     ethr =  1.00E-06,  avg # of iterations = 11.8

     total cpu time spent up to now is     2939.5 secs

     total energy              =   -6259.68711618 Ry
     Harris-Foulkes estimate   =   -6203.81937906 Ry
     estimated scf accuracy    <       1.04993887 Ry

     iteration #  2     ecut=   120.00 Ry     beta= 0.70
     Davidson diagonalization with overlap
     ethr =  2.85E-04,  avg # of iterations =  5.0

     total cpu time spent up to now is     3170.9 secs

     total energy              =   -6260.07988414 Ry
     Harris-Foulkes estimate   =   -6262.99589645 Ry
     estimated scf accuracy    <      10.34781878 Ry

     iteration #  3     ecut=   120.00 Ry     beta= 0.70
     Davidson diagonalization with overlap
     ethr =  2.85E-04,  avg # of iterations =  3.8

     total cpu time spent up to now is     3346.9 secs

     total energy              =   -6261.14468238 Ry
     Harris-Foulkes estimate   =   -6261.24056518 Ry
     estimated scf accuracy    <       0.38457566 Ry

     iteration #  4     ecut=   120.00 Ry     beta= 0.70
     Davidson diagonalization with overlap
     ethr =  1.05E-04,  avg # of iterations =  2.3

     total cpu time spent up to now is     3479.4 secs

     total energy              =   -6261.14439483 Ry
     Harris-Foulkes estimate   =   -6261.16583394 Ry
     estimated scf accuracy    <       0.20219188 Ry

     iteration #  5     ecut=   120.00 Ry     beta= 0.70
     Davidson diagonalization with overlap
     ethr =  5.49E-05,  avg # of iterations =  3.0

     total cpu time spent up to now is     3615.0 secs

     total energy              =   -6261.10801511 Ry
     Harris-Foulkes estimate   =   -6261.14776696 Ry
     estimated scf accuracy    <       0.14209031 Ry

     iteration #  6     ecut=   120.00 Ry     beta= 0.70
     Davidson diagonalization with overlap
     ethr =  3.86E-05,  avg # of iterations =  4.1

     total cpu time spent up to now is     3755.6 secs

     total energy              =   -6261.10661789 Ry
     Harris-Foulkes estimate   =   -6261.11568449 Ry
     estimated scf accuracy    <       0.03555482 Ry

     iteration #  7     ecut=   120.00 Ry     beta= 0.70
     Davidson diagonalization with overlap
     ethr =  9.66E-06,  avg # of iterations =  4.8

     total cpu time spent up to now is     3895.3 secs

     total energy              =   -6261.10764433 Ry
     Harris-Foulkes estimate   =   -6261.10888624 Ry
     estimated scf accuracy    <       0.00919414 Ry

     iteration #  8     ecut=   120.00 Ry     beta= 0.70
     Davidson diagonalization with overlap
     ethr =  2.50E-06,  avg # of iterations =  5.0

     total cpu time spent up to now is     4044.0 secs

     total energy              =   -6261.10724122 Ry
     Harris-Foulkes estimate   =   -6261.10790000 Ry
     estimated scf accuracy    <       0.00524414 Ry

     iteration #  9     ecut=   120.00 Ry     beta= 0.70
     Davidson diagonalization with overlap
     ethr =  1.43E-06,  avg # of iterations =  1.2

     total cpu time spent up to now is     4173.7 secs

     total energy              =   -6261.10679963 Ry
     Harris-Foulkes estimate   =   -6261.10734687 Ry
     estimated scf accuracy    <       0.00305590 Ry

     iteration # 10     ecut=   120.00 Ry     beta= 0.70
     Davidson diagonalization with overlap
     ethr =  8.30E-07,  avg # of iterations =  1.6

     total cpu time spent up to now is     4305.1 secs

     total energy              =   -6261.10625137 Ry
     Harris-Foulkes estimate   =   -6261.10688250 Ry
     estimated scf accuracy    <       0.00136240 Ry

     iteration # 11     ecut=   120.00 Ry     beta= 0.70
     Davidson diagonalization with overlap
     ethr =  3.70E-07,  avg # of iterations =  4.4

     total cpu time spent up to now is     4466.9 secs

     total energy              =   -6261.10651474 Ry
     Harris-Foulkes estimate   =   -6261.10651584 Ry
     estimated scf accuracy    <       0.00000310 Ry

     iteration # 12     ecut=   120.00 Ry     beta= 0.70
     Davidson diagonalization with overlap
     ethr =  8.44E-10,  avg # of iterations =  4.0

     total cpu time spent up to now is     4676.2 secs

     total energy              =   -6261.10652127 Ry
     Harris-Foulkes estimate   =   -6261.10652151 Ry
     estimated scf accuracy    <       0.00000069 Ry

     iteration # 13     ecut=   120.00 Ry     beta= 0.70
     Davidson diagonalization with overlap
     ethr =  1.87E-10,  avg # of iterations =  2.0

     total cpu time spent up to now is     4806.2 secs

     total energy              =   -6261.10652120 Ry
     Harris-Foulkes estimate   =   -6261.10652133 Ry
     estimated scf accuracy    <       0.00000028 Ry

     iteration # 14     ecut=   120.00 Ry     beta= 0.70
     Davidson diagonalization with overlap
     ethr =  7.63E-11,  avg # of iterations =  2.0

     total cpu time spent up to now is     4948.5 secs

     total energy              =   -6261.10652120 Ry
     Harris-Foulkes estimate   =   -6261.10652124 Ry
     estimated scf accuracy    <       0.00000010 Ry

     iteration # 15     ecut=   120.00 Ry     beta= 0.70
     Davidson diagonalization with overlap
     ethr =  2.82E-11,  avg # of iterations =  1.9

     total cpu time spent up to now is     5077.5 secs

     total energy              =   -6261.10652121 Ry
     Harris-Foulkes estimate   =   -6261.10652121 Ry
     estimated scf accuracy    <       0.00000002 Ry

     iteration # 16     ecut=   120.00 Ry     beta= 0.70
     Davidson diagonalization with overlap
     ethr =  5.50E-12,  avg # of iterations =  2.0

     total cpu time spent up to now is     5206.2 secs

     End of self-consistent calculation

     Number of k-points >= 100: set verbosity='high' to print the bands.

     the Fermi energy is     8.3833 ev

!    total energy              =   -6261.10652120 Ry
     Harris-Foulkes estimate   =   -6261.10652121 Ry
     estimated scf accuracy    <          9.8E-09 Ry

     The total energy is the sum of the following terms:

     one-electron contribution =   -4767.28622149 Ry
     hartree contribution      =    2617.29371565 Ry
     xc contribution           =    -965.55316759 Ry
     ewald contribution        =   -3145.56084776 Ry
     smearing contrib. (-TS)   =      -0.00000000 Ry

     convergence has been achieved in  16 iterations

     Forces acting on atoms (cartesian axes, Ry/au):

     atom    1 type  1   force =    -0.00000354    0.00775310   -0.00000204
     atom    2 type  1   force =     0.00000354   -0.00775310    0.00000204
     atom    3 type  1   force =     0.00003972   -0.00778110   -0.00000189
     atom    4 type  1   force =    -0.00003972    0.00778110    0.00000189
     atom    5 type  1   force =    -0.00005650    0.00769983   -0.00000079
     atom    6 type  1   force =     0.00005650   -0.00769983    0.00000079
     atom    7 type  1   force =    -0.00000141   -0.00774955    0.00000092
     atom    8 type  1   force =     0.00000141    0.00774955   -0.00000092
     atom    9 type  2   force =     0.00000054   -0.00583806    0.00000001
     atom   10 type  2   force =    -0.00000054    0.00583806   -0.00000001
     atom   11 type  2   force =     0.00000023    0.00583740    0.00000006
     atom   12 type  2   force =    -0.00000023   -0.00583740   -0.00000006
     atom   13 type  2   force =    -0.00000034   -0.00583221   -0.00000000
     atom   14 type  2   force =     0.00000034    0.00583221    0.00000000
     atom   15 type  2   force =    -0.00000125    0.00583237    0.00000001
     atom   16 type  2   force =     0.00000125   -0.00583237   -0.00000001
     atom   17 type  2   force =     0.00000077    0.00000032    0.00004967
     atom   18 type  2   force =    -0.00000077   -0.00000032   -0.00004967
     atom   19 type  2   force =     0.00000073    0.00000033    0.00004971
     atom   20 type  2   force =    -0.00000073   -0.00000033   -0.00004971
     atom   21 type  2   force =    -0.00000054    0.00000037   -0.00005030
     atom   22 type  2   force =     0.00000054   -0.00000037    0.00005030
     atom   23 type  2   force =    -0.00000112    0.00000069   -0.00005037
     atom   24 type  2   force =     0.00000112   -0.00000069    0.00005037
     atom   25 type  2   force =     0.00004833   -0.00000024   -0.00000019
     atom   26 type  2   force =    -0.00004833    0.00000024    0.00000019
     atom   27 type  2   force =    -0.00005078    0.00000008    0.00000073
     atom   28 type  2   force =     0.00005078   -0.00000008   -0.00000073
     atom   29 type  2   force =    -0.00004926    0.00000006    0.00000054
     atom   30 type  2   force =     0.00004926   -0.00000006   -0.00000054
     atom   31 type  2   force =     0.00005053    0.00000012   -0.00000062
     atom   32 type  2   force =    -0.00005053   -0.00000012    0.00000062

     Total force =     0.000000     Total SCF correction =     0.000000


     Computing stress (Cartesian axis) and pressure

          total   stress  (Ry/bohr**3)                   (kbar)     P=  -10.12
  -0.00007907   0.00000000   0.00000000        -11.63      0.00      0.00
   0.00000000  -0.00004832  -0.00000000          0.00     -7.11     -0.00
   0.00000000  -0.00000000  -0.00007903          0.00     -0.00    -11.63


     number of scf cycles    =   2
     number of bfgs steps    =   1

     enthalpy old            =   -6261.0988027829 Ry
     enthalpy new            =   -6261.1065212015 Ry

     CASE: enthalpy_new < enthalpy_old

     new trust radius        =       0.0161801138 bohr
     new conv_thr            =            1.0E-10 Ry

     new unit-cell volume =   2829.99656 a.u.^3 (   419.36222 Ang^3 )
     density =      7.34404 g/cm^3

CELL_PARAMETERS (angstrom)
   7.376030881  -0.000001229   0.000000094
  -0.000001301   7.708031578   0.000000328
   0.000000094   0.000000311   7.376037036

ATOMIC_POSITIONS (crystal)
W        0.250000000   0.278676145   0.000000000    0   0   0
W        0.749999983   0.721323855   0.000000000    0   0   0
W        0.250000000   0.221323871   0.500000000    0   0   0
W        0.749999983   0.778676147   0.500000000    0   0   0
W        0.749999983   0.278676145   0.500000000    0   0   0
W        0.250000000   0.721323855   0.500000000    0   0   0
W        0.749999983   0.221323871   0.000000000    0   0   0
W        0.250000000   0.778676147   0.000000000    0   0   0
O        0.250000000   0.007452623   0.000000000    0   0   0
O        0.749999983   0.992547378   0.000000000    0   0   0
O        0.250000000   0.492547380   0.500000000    0   0   0
O        0.749999983   0.507452622   0.500000000    0   0   0
O        0.749999983   0.007452623   0.500000000    0   0   0
O        0.250000000   0.992547378   0.500000000    0   0   0
O        0.749999983   0.492547380   0.000000000    0   0   0
O        0.250000000   0.507452622   0.000000000    0   0   0
O        0.500000000   0.250000000   0.457325163    0   0   0
O        0.500000000   0.750000001   0.542674839    0   0   0
O        0.000000000   0.250000000   0.957325196    0   0   0
O        0.000000000   0.750000001   0.042674824    0   0   0
O        0.500000000   0.250000000   0.042674824    0   0   0
O        0.500000000   0.750000001   0.957325196    0   0   0
O        0.000000000   0.250000000   0.542674839    0   0   0
O       -0.000000000   0.750000001   0.457325163    0   0   0
O        0.707325178   0.250000000   0.749999983    0   0   0
O        0.292674821   0.750000001   0.250000000    0   0   0
O        0.792674856   0.250000000   0.250000000    0   0   0
O        0.207325179   0.750000001   0.749999983    0   0   0
O        0.292674821   0.250000000   0.749999983    0   0   0
O        0.707325178   0.750000001   0.250000000    0   0   0
O        0.207325179   0.250000000   0.250000000    0   0   0
O        0.792674856   0.750000001   0.749999983    0   0   0



     Writing output data file Landau_8.save
     NEW-OLD atomic charge density approx. for the potential
     extrapolated charge  366.46291, renormalised to  368.00000

     total cpu time spent up to now is     5568.8 secs

     Self-consistent Calculation

     iteration #  1     ecut=   120.00 Ry     beta= 0.70
     Davidson diagonalization with overlap
     ethr =  1.00E-06,  avg # of iterations =  8.4

     total cpu time spent up to now is     5858.4 secs

     total energy              =   -6260.90218589 Ry
     Harris-Foulkes estimate   =   -6279.61765852 Ry
     estimated scf accuracy    <       0.16326460 Ry

     iteration #  2     ecut=   120.00 Ry     beta= 0.70
     Davidson diagonalization with overlap
     ethr =  4.44E-05,  avg # of iterations =  6.4

     total cpu time spent up to now is     6071.2 secs

     total energy              =   -6261.02810568 Ry
     Harris-Foulkes estimate   =   -6261.36383176 Ry
     estimated scf accuracy    <       1.01436233 Ry

     iteration #  3     ecut=   120.00 Ry     beta= 0.70
     Davidson diagonalization with overlap
     ethr =  4.44E-05,  avg # of iterations =  3.8

     total cpu time spent up to now is     6249.1 secs

     total energy              =   -6261.11434676 Ry
     Harris-Foulkes estimate   =   -6261.12958037 Ry
     estimated scf accuracy    <       0.07301001 Ry

     iteration #  4     ecut=   120.00 Ry     beta= 0.70
     Davidson diagonalization with overlap
     ethr =  1.98E-05,  avg # of iterations =  1.0

     total cpu time spent up to now is     6375.8 secs

     total energy              =   -6261.11269266 Ry
     Harris-Foulkes estimate   =   -6261.11654587 Ry
     estimated scf accuracy    <       0.03594704 Ry

     iteration #  5     ecut=   120.00 Ry     beta= 0.70
     Davidson diagonalization with overlap
     ethr =  9.77E-06,  avg # of iterations =  2.4

     total cpu time spent up to now is     6508.9 secs

     total energy              =   -6261.10905702 Ry
     Harris-Foulkes estimate   =   -6261.11313930 Ry
     estimated scf accuracy    <       0.02324321 Ry

     iteration #  6     ecut=   120.00 Ry     beta= 0.70
     Davidson diagonalization with overlap
     ethr =  6.32E-06,  avg # of iterations =  3.8

     total cpu time spent up to now is     6648.8 secs

     total energy              =   -6261.10882157 Ry
     Harris-Foulkes estimate   =   -6261.10961153 Ry
     estimated scf accuracy    <       0.01051329 Ry

     iteration #  7     ecut=   120.00 Ry     beta= 0.70
     Davidson diagonalization with overlap
     ethr =  2.86E-06,  avg # of iterations =  3.1

     total cpu time spent up to now is     6787.1 secs

     total energy              =   -6261.10691088 Ry
     Harris-Foulkes estimate   =   -6261.10891985 Ry
     estimated scf accuracy    <       0.00771333 Ry

     iteration #  8     ecut=   120.00 Ry     beta= 0.70
     Davidson diagonalization with overlap
     ethr =  2.10E-06,  avg # of iterations =  4.5

     total cpu time spent up to now is     6928.9 secs

     total energy              =   -6261.10703209 Ry
     Harris-Foulkes estimate   =   -6261.10735711 Ry
     estimated scf accuracy    <       0.00172196 Ry

     iteration #  9     ecut=   120.00 Ry     beta= 0.70
     Davidson diagonalization with overlap
     ethr =  4.68E-07,  avg # of iterations =  1.9

     total cpu time spent up to now is     7057.0 secs

     total energy              =   -6261.10691894 Ry
     Harris-Foulkes estimate   =   -6261.10709052 Ry
     estimated scf accuracy    <       0.00074062 Ry

     iteration # 10     ecut=   120.00 Ry     beta= 0.70
     Davidson diagonalization with overlap
     ethr =  2.01E-07,  avg # of iterations =  2.3

     total cpu time spent up to now is     7187.5 secs

     total energy              =   -6261.10684920 Ry
     Harris-Foulkes estimate   =   -6261.10695537 Ry
     estimated scf accuracy    <       0.00022177 Ry

     iteration # 11     ecut=   120.00 Ry     beta= 0.70
     Davidson diagonalization with overlap
     ethr =  6.03E-08,  avg # of iterations =  3.4

     total cpu time spent up to now is     7354.5 secs

     total energy              =   -6261.10689877 Ry
     Harris-Foulkes estimate   =   -6261.10689896 Ry
     estimated scf accuracy    <       0.00000091 Ry

     iteration # 12     ecut=   120.00 Ry     beta= 0.70
     Davidson diagonalization with overlap
     ethr =  2.48E-10,  avg # of iterations =  2.9

     total cpu time spent up to now is     7521.7 secs

     total energy              =   -6261.10689891 Ry
     Harris-Foulkes estimate   =   -6261.10689900 Ry
     estimated scf accuracy    <       0.00000051 Ry

     iteration # 13     ecut=   120.00 Ry     beta= 0.70
     Davidson diagonalization with overlap
     ethr =  1.39E-10,  avg # of iterations =  1.0

     total cpu time spent up to now is     7648.4 secs

     total energy              =   -6261.10689884 Ry
     Harris-Foulkes estimate   =   -6261.10689892 Ry
     estimated scf accuracy    <       0.00000030 Ry

     iteration # 14     ecut=   120.00 Ry     beta= 0.70
     Davidson diagonalization with overlap
     ethr =  8.10E-11,  avg # of iterations =  1.7

     total cpu time spent up to now is     7776.3 secs

     total energy              =   -6261.10689883 Ry
     Harris-Foulkes estimate   =   -6261.10689885 Ry
     estimated scf accuracy    <       0.00000013 Ry

     iteration # 15     ecut=   120.00 Ry     beta= 0.70
     Davidson diagonalization with overlap
     ethr =  3.45E-11,  avg # of iterations =  2.0

     total cpu time spent up to now is     7905.0 secs

     total energy              =   -6261.10689880 Ry
     Harris-Foulkes estimate   =   -6261.10689884 Ry
     estimated scf accuracy    <       0.00000007 Ry

     iteration # 16     ecut=   120.00 Ry     beta= 0.70
     Davidson diagonalization with overlap
     ethr =  1.87E-11,  avg # of iterations =  3.0

     total cpu time spent up to now is     8061.8 secs

     total energy              =   -6261.10689881 Ry
     Harris-Foulkes estimate   =   -6261.10689882 Ry
     estimated scf accuracy    <       0.00000004 Ry

     iteration # 17     ecut=   120.00 Ry     beta= 0.70
     Davidson diagonalization with overlap
     ethr =  1.01E-11,  avg # of iterations =  2.2

     total cpu time spent up to now is     8205.3 secs

     total energy              =   -6261.10689881 Ry
     Harris-Foulkes estimate   =   -6261.10689882 Ry
     estimated scf accuracy    <       0.00000002 Ry

     iteration # 18     ecut=   120.00 Ry     beta= 0.70
     Davidson diagonalization with overlap
     ethr =  4.56E-12,  avg # of iterations =  2.0

     total cpu time spent up to now is     8349.6 secs

     total energy              =   -6261.10689881 Ry
     Harris-Foulkes estimate   =   -6261.10689882 Ry
     estimated scf accuracy    <          2.3E-09 Ry

     iteration # 19     ecut=   120.00 Ry     beta= 0.70
     Davidson diagonalization with overlap
     ethr =  6.15E-13,  avg # of iterations =  2.6

     total cpu time spent up to now is     8510.3 secs

     total energy              =   -6261.10689881 Ry
     Harris-Foulkes estimate   =   -6261.10689882 Ry
     estimated scf accuracy    <          1.7E-09 Ry

     iteration # 20     ecut=   120.00 Ry     beta= 0.70
     Davidson diagonalization with overlap
     ethr =  4.49E-13,  avg # of iterations =  2.3

     total cpu time spent up to now is     8645.0 secs

     total energy              =   -6261.10689881 Ry
     Harris-Foulkes estimate   =   -6261.10689881 Ry
     estimated scf accuracy    <          2.1E-10 Ry

     iteration # 21     ecut=   120.00 Ry     beta= 0.70
     Davidson diagonalization with overlap
     ethr =  1.00E-13,  avg # of iterations =  2.0

     total cpu time spent up to now is     8776.4 secs

     End of self-consistent calculation

     Number of k-points >= 100: set verbosity='high' to print the bands.

     the Fermi energy is     8.8631 ev

!    total energy              =   -6261.10689882 Ry
     Harris-Foulkes estimate   =   -6261.10689881 Ry
     estimated scf accuracy    <          6.8E-12 Ry

     The total energy is the sum of the following terms:

     one-electron contribution =   -4760.33324868 Ry
     hartree contribution      =    2614.80565537 Ry
     xc contribution           =    -965.68087363 Ry
     ewald contribution        =   -3149.89843187 Ry
     smearing contrib. (-TS)   =      -0.00000000 Ry

     convergence has been achieved in  21 iterations

     Forces acting on atoms (cartesian axes, Ry/au):

     atom    1 type  1   force =    -0.00000012    0.00704591    0.00000004
     atom    2 type  1   force =     0.00000012   -0.00704591   -0.00000004
     atom    3 type  1   force =    -0.00000016   -0.00704606    0.00000018
     atom    4 type  1   force =     0.00000016    0.00704606   -0.00000018
     atom    5 type  1   force =     0.00000016    0.00704868   -0.00000004
     atom    6 type  1   force =    -0.00000016   -0.00704868    0.00000004
     atom    7 type  1   force =     0.00000027   -0.00704486    0.00000023
     atom    8 type  1   force =    -0.00000027    0.00704486   -0.00000023
     atom    9 type  2   force =     0.00000002   -0.00322754   -0.00000000
     atom   10 type  2   force =    -0.00000002    0.00322754    0.00000000
     atom   11 type  2   force =    -0.00000002    0.00322751   -0.00000000
     atom   12 type  2   force =     0.00000002   -0.00322751    0.00000000
     atom   13 type  2   force =     0.00000003   -0.00322753    0.00000001
     atom   14 type  2   force =    -0.00000003    0.00322753   -0.00000001
     atom   15 type  2   force =    -0.00000001    0.00322750   -0.00000001
     atom   16 type  2   force =     0.00000001   -0.00322750    0.00000001
     atom   17 type  2   force =    -0.00000010    0.00000010   -0.00120113
     atom   18 type  2   force =     0.00000010   -0.00000010    0.00120113
     atom   19 type  2   force =    -0.00000004    0.00000012   -0.00120113
     atom   20 type  2   force =     0.00000004   -0.00000012    0.00120113
     atom   21 type  2   force =     0.00000003    0.00000004    0.00120113
     atom   22 type  2   force =    -0.00000003   -0.00000004   -0.00120113
     atom   23 type  2   force =     0.00000002    0.00000008    0.00120100
     atom   24 type  2   force =    -0.00000002   -0.00000008   -0.00120100
     atom   25 type  2   force =    -0.00120091    0.00000006    0.00000007
     atom   26 type  2   force =     0.00120091   -0.00000006   -0.00000007
     atom   27 type  2   force =     0.00120086    0.00000012   -0.00000014
     atom   28 type  2   force =    -0.00120086   -0.00000012    0.00000014
     atom   29 type  2   force =     0.00120088    0.00000015    0.00000006
     atom   30 type  2   force =    -0.00120088   -0.00000015   -0.00000006
     atom   31 type  2   force =    -0.00120086    0.00000007   -0.00000006
     atom   32 type  2   force =     0.00120086   -0.00000007    0.00000006

     Total force =     0.000000     Total SCF correction =     0.000000


     Computing stress (Cartesian axis) and pressure

          total   stress  (Ry/bohr**3)                   (kbar)     P=    1.00
   0.00000196   0.00000000  -0.00000000          0.29      0.00     -0.00
   0.00000000   0.00001644  -0.00000000          0.00      2.42     -0.00
  -0.00000000  -0.00000000   0.00000193         -0.00     -0.00      0.28


     number of scf cycles    =   3
     number of bfgs steps    =   2

     enthalpy old            =   -6261.1065212015 Ry
     enthalpy new            =   -6261.1068988150 Ry

     CASE: enthalpy_new < enthalpy_old

     new trust radius        =       0.0041758691 bohr
     new conv_thr            =            1.0E-10 Ry

     new unit-cell volume =   2831.07378 a.u.^3 (   419.52185 Ang^3 )
     density =      7.34124 g/cm^3

CELL_PARAMETERS (angstrom)
   7.375990097  -0.000000931   0.000000075
  -0.000000982   7.711056871   0.000000255
   0.000000075   0.000000243   7.375990516

ATOMIC_POSITIONS (crystal)
W        0.250000000   0.278676145   0.000000000    0   0   0
W        0.749999983   0.721323855   0.000000000    0   0   0
W        0.250000000   0.221323871   0.500000000    0   0   0
W        0.749999983   0.778676147   0.500000000    0   0   0
W        0.749999983   0.278676145   0.500000000    0   0   0
W        0.250000000   0.721323855   0.500000000    0   0   0
W        0.749999983   0.221323871   0.000000000    0   0   0
W        0.250000000   0.778676147   0.000000000    0   0   0
O        0.250000000   0.007452623   0.000000000    0   0   0
O        0.749999983   0.992547378   0.000000000    0   0   0
O        0.250000000   0.492547380   0.500000000    0   0   0
O        0.749999983   0.507452622   0.500000000    0   0   0
O        0.749999983   0.007452623   0.500000000    0   0   0
O        0.250000000   0.992547378   0.500000000    0   0   0
O        0.749999983   0.492547380   0.000000000    0   0   0
O        0.250000000   0.507452622   0.000000000    0   0   0
O        0.500000000   0.250000000   0.457325163    0   0   0
O        0.500000000   0.750000001   0.542674839    0   0   0
O        0.000000000   0.250000000   0.957325196    0   0   0
O       -0.000000000   0.750000001   0.042674824    0   0   0
O        0.500000000   0.250000000   0.042674824    0   0   0
O        0.500000000   0.750000001   0.957325196    0   0   0
O        0.000000000   0.250000000   0.542674839    0   0   0
O       -0.000000000   0.750000001   0.457325163    0   0   0
O        0.707325178   0.250000000   0.749999983    0   0   0
O        0.292674821   0.750000001   0.250000000    0   0   0
O        0.792674856   0.250000000   0.250000000    0   0   0
O        0.207325179   0.750000001   0.749999983    0   0   0
O        0.292674821   0.250000000   0.749999983    0   0   0
O        0.707325178   0.750000001   0.250000000    0   0   0
O        0.207325179   0.250000000   0.250000000    0   0   0
O        0.792674856   0.750000001   0.749999983    0   0   0



     Writing output data file Landau_8.save
     NEW-OLD atomic charge density approx. for the potential
     extrapolated charge  368.14002, renormalised to  368.00000

     total cpu time spent up to now is     9138.3 secs

     Self-consistent Calculation

     iteration #  1     ecut=   120.00 Ry     beta= 0.70
     Davidson diagonalization with overlap
     ethr =  1.00E-06,  avg # of iterations =  3.7

     total cpu time spent up to now is     9311.3 secs

     total energy              =   -6261.10539800 Ry
     Harris-Foulkes estimate   =   -6259.42262377 Ry
     estimated scf accuracy    <       0.00116540 Ry

     iteration #  2     ecut=   120.00 Ry     beta= 0.70
     Davidson diagonalization with overlap
     ethr =  3.17E-07,  avg # of iterations =  4.9

     total cpu time spent up to now is     9526.1 secs

     total energy              =   -6261.10621432 Ry
     Harris-Foulkes estimate   =   -6261.10878808 Ry
     estimated scf accuracy    <       0.00805997 Ry

     iteration #  3     ecut=   120.00 Ry     beta= 0.70
     Davidson diagonalization with overlap
     ethr =  3.17E-07,  avg # of iterations =  3.2

     total cpu time spent up to now is     9691.3 secs

     total energy              =   -6261.10695880 Ry
     Harris-Foulkes estimate   =   -6261.10706187 Ry
     estimated scf accuracy    <       0.00047719 Ry

     iteration #  4     ecut=   120.00 Ry     beta= 0.70
     Davidson diagonalization with overlap
     ethr =  1.30E-07,  avg # of iterations =  1.0

     total cpu time spent up to now is     9816.2 secs

     total energy              =   -6261.10695135 Ry
     Harris-Foulkes estimate   =   -6261.10697474 Ry
     estimated scf accuracy    <       0.00024458 Ry

     iteration #  5     ecut=   120.00 Ry     beta= 0.70
     Davidson diagonalization with overlap
     ethr =  6.65E-08,  avg # of iterations =  1.0

     total cpu time spent up to now is     9942.3 secs

     total energy              =   -6261.10690685 Ry
     Harris-Foulkes estimate   =   -6261.10695402 Ry
     estimated scf accuracy    <       0.00016963 Ry

     iteration #  6     ecut=   120.00 Ry     beta= 0.70
     Davidson diagonalization with overlap
     ethr =  4.61E-08,  avg # of iterations =  1.6

     total cpu time spent up to now is    10070.3 secs

     total energy              =   -6261.10689985 Ry
     Harris-Foulkes estimate   =   -6261.10691642 Ry
     estimated scf accuracy    <       0.00003830 Ry

     iteration #  7     ecut=   120.00 Ry     beta= 0.70
     Davidson diagonalization with overlap
     ethr =  1.04E-08,  avg # of iterations =  3.0

     total cpu time spent up to now is    10210.8 secs

     total energy              =   -6261.10690684 Ry
     Harris-Foulkes estimate   =   -6261.10690700 Ry
     estimated scf accuracy    <       0.00000021 Ry

     iteration #  8     ecut=   120.00 Ry     beta= 0.70
     Davidson diagonalization with overlap
     ethr =  5.73E-11,  avg # of iterations =  3.0

     total cpu time spent up to now is    10411.7 secs

     total energy              =   -6261.10690707 Ry
     Harris-Foulkes estimate   =   -6261.10690715 Ry
     estimated scf accuracy    <       0.00000024 Ry

     iteration #  9     ecut=   120.00 Ry     beta= 0.70
     Davidson diagonalization with overlap
     ethr =  5.73E-11,  avg # of iterations =  2.0

     total cpu time spent up to now is    10540.1 secs

     total energy              =   -6261.10690708 Ry
     Harris-Foulkes estimate   =   -6261.10690709 Ry
     estimated scf accuracy    <       0.00000004 Ry

     iteration # 10     ecut=   120.00 Ry     beta= 0.70
     Davidson diagonalization with overlap
     ethr =  1.04E-11,  avg # of iterations =  2.2

     total cpu time spent up to now is    10671.4 secs

     total energy              =   -6261.10690708 Ry
     Harris-Foulkes estimate   =   -6261.10690709 Ry
     estimated scf accuracy    <       0.00000001 Ry

     iteration # 11     ecut=   120.00 Ry     beta= 0.70
     Davidson diagonalization with overlap
     ethr =  3.74E-12,  avg # of iterations =  2.3

     total cpu time spent up to now is    10814.2 secs

     total energy              =   -6261.10690708 Ry
     Harris-Foulkes estimate   =   -6261.10690709 Ry
     estimated scf accuracy    <          4.8E-09 Ry

     iteration # 12     ecut=   120.00 Ry     beta= 0.70
     Davidson diagonalization with overlap
     ethr =  1.31E-12,  avg # of iterations =  1.6

     total cpu time spent up to now is    10942.0 secs

     total energy              =   -6261.10690708 Ry
     Harris-Foulkes estimate   =   -6261.10690708 Ry
     estimated scf accuracy    <          2.5E-09 Ry

     iteration # 13     ecut=   120.00 Ry     beta= 0.70
     Davidson diagonalization with overlap
     ethr =  6.89E-13,  avg # of iterations =  2.8

     total cpu time spent up to now is    11073.7 secs

     total energy              =   -6261.10690708 Ry
     Harris-Foulkes estimate   =   -6261.10690708 Ry
     estimated scf accuracy    <          6.5E-10 Ry

     iteration # 14     ecut=   120.00 Ry     beta= 0.70
     Davidson diagonalization with overlap
     ethr =  1.77E-13,  avg # of iterations =  1.1

     total cpu time spent up to now is    11200.5 secs

     total energy              =   -6261.10690708 Ry
     Harris-Foulkes estimate   =   -6261.10690708 Ry
     estimated scf accuracy    <          3.9E-10 Ry

     iteration # 15     ecut=   120.00 Ry     beta= 0.70
     Davidson diagonalization with overlap
     ethr =  1.05E-13,  avg # of iterations =  2.0

     total cpu time spent up to now is    11329.6 secs

     total energy              =   -6261.10690708 Ry
     Harris-Foulkes estimate   =   -6261.10690708 Ry
     estimated scf accuracy    <          1.2E-10 Ry

     iteration # 16     ecut=   120.00 Ry     beta= 0.70
     Davidson diagonalization with overlap
     ethr =  1.00E-13,  avg # of iterations =  1.3

     total cpu time spent up to now is    11456.7 secs

     End of self-consistent calculation

     Number of k-points >= 100: set verbosity='high' to print the bands.

     the Fermi energy is     8.8458 ev

!    total energy              =   -6261.10690708 Ry
     Harris-Foulkes estimate   =   -6261.10690708 Ry
     estimated scf accuracy    <          4.1E-11 Ry

     The total energy is the sum of the following terms:

     one-electron contribution =   -4761.04949385 Ry
     hartree contribution      =    2615.07312152 Ry
     xc contribution           =    -965.66920273 Ry
     ewald contribution        =   -3149.46133203 Ry
     smearing contrib. (-TS)   =      -0.00000000 Ry

     convergence has been achieved in  16 iterations

     Forces acting on atoms (cartesian axes, Ry/au):

     atom    1 type  1   force =    -0.00000074    0.00787319   -0.00000101
     atom    2 type  1   force =     0.00000074   -0.00787319    0.00000101
     atom    3 type  1   force =    -0.00000045   -0.00787304    0.00000093
     atom    4 type  1   force =     0.00000045    0.00787304   -0.00000093
     atom    5 type  1   force =     0.00000053    0.00787029    0.00000023
     atom    6 type  1   force =    -0.00000053   -0.00787029   -0.00000023
     atom    7 type  1   force =     0.00000067   -0.00787048   -0.00000021
     atom    8 type  1   force =    -0.00000067    0.00787048    0.00000021
     atom    9 type  2   force =     0.00000001   -0.00404816    0.00000000
     atom   10 type  2   force =    -0.00000001    0.00404816   -0.00000000
     atom   11 type  2   force =    -0.00000000    0.00404789   -0.00000000
     atom   12 type  2   force =     0.00000000   -0.00404789    0.00000000
     atom   13 type  2   force =    -0.00000001   -0.00404775   -0.00000001
     atom   14 type  2   force =     0.00000001    0.00404775    0.00000001
     atom   15 type  2   force =    -0.00000003    0.00404761    0.00000000
     atom   16 type  2   force =     0.00000003   -0.00404761   -0.00000000
     atom   17 type  2   force =     0.00000023   -0.00000000   -0.00118271
     atom   18 type  2   force =    -0.00000023    0.00000000    0.00118271
     atom   19 type  2   force =    -0.00000011    0.00000005   -0.00118273
     atom   20 type  2   force =     0.00000011   -0.00000005    0.00118273
     atom   21 type  2   force =     0.00000011    0.00000003    0.00118273
     atom   22 type  2   force =    -0.00000011   -0.00000003   -0.00118273
     atom   23 type  2   force =    -0.00000016   -0.00000000    0.00118263
     atom   24 type  2   force =     0.00000016    0.00000000   -0.00118263
     atom   25 type  2   force =    -0.00118268   -0.00000002    0.00000008
     atom   26 type  2   force =     0.00118268    0.00000002   -0.00000008
     atom   27 type  2   force =     0.00118264    0.00000002   -0.00000006
     atom   28 type  2   force =    -0.00118264   -0.00000002    0.00000006
     atom   29 type  2   force =     0.00118270    0.00000005    0.00000020
     atom   30 type  2   force =    -0.00118270   -0.00000005   -0.00000020
     atom   31 type  2   force =    -0.00118265    0.00000000   -0.00000016
     atom   32 type  2   force =     0.00118265   -0.00000000    0.00000016

     Total force =     0.000000     Total SCF correction =     0.000000


     Computing stress (Cartesian axis) and pressure

          total   stress  (Ry/bohr**3)                   (kbar)     P=    0.00
   0.00000073   0.00000000  -0.00000000          0.11      0.00     -0.00
   0.00000000  -0.00000140  -0.00000000          0.00     -0.21     -0.00
  -0.00000000  -0.00000000   0.00000073         -0.00     -0.00      0.11


     number of scf cycles    =   4
     number of bfgs steps    =   3

     enthalpy old            =   -6261.1068988150 Ry
     enthalpy new            =   -6261.1069070840 Ry

     CASE: enthalpy_new < enthalpy_old

     new trust radius        =       0.0003581628 bohr
     new conv_thr            =            1.0E-10 Ry

     new unit-cell volume =   2831.07870 a.u.^3 (   419.52257 Ang^3 )
     density =      7.34123 g/cm^3

CELL_PARAMETERS (angstrom)
   7.376120762  -0.000000700   0.000000056
  -0.000000734   7.710797341   0.000000209
   0.000000056   0.000000200   7.376120917

ATOMIC_POSITIONS (crystal)
W        0.250000000   0.278676145   0.000000000    0   0   0
W        0.749999983   0.721323855   0.000000000    0   0   0
W        0.250000000   0.221323871   0.500000000    0   0   0
W        0.749999983   0.778676147   0.500000000    0   0   0
W        0.749999983   0.278676145   0.500000000    0   0   0
W        0.250000000   0.721323855   0.500000000    0   0   0
W        0.749999983   0.221323871   0.000000000    0   0   0
W        0.250000000   0.778676147   0.000000000    0   0   0
O        0.250000000   0.007452623   0.000000000    0   0   0
O        0.749999983   0.992547378   0.000000000    0   0   0
O        0.250000000   0.492547380   0.500000000    0   0   0
O        0.749999983   0.507452622   0.500000000    0   0   0
O        0.749999983   0.007452623   0.500000000    0   0   0
O        0.250000000   0.992547378   0.500000000    0   0   0
O        0.749999983   0.492547380   0.000000000    0   0   0
O        0.250000000   0.507452622   0.000000000    0   0   0
O        0.500000000   0.250000000   0.457325163    0   0   0
O        0.500000000   0.750000001   0.542674839    0   0   0
O        0.000000000   0.250000000   0.957325196    0   0   0
O        0.000000000   0.750000001   0.042674824    0   0   0
O        0.500000000   0.250000000   0.042674824    0   0   0
O        0.500000000   0.750000001   0.957325196    0   0   0
O        0.000000000   0.250000000   0.542674839    0   0   0
O       -0.000000000   0.750000001   0.457325163    0   0   0
O        0.707325178   0.250000000   0.749999983    0   0   0
O        0.292674821   0.750000001   0.250000000    0   0   0
O        0.792674856   0.250000000   0.250000000    0   0   0
O        0.207325179   0.750000001   0.749999983    0   0   0
O        0.292674821   0.250000000   0.749999983    0   0   0
O        0.707325178   0.750000001   0.250000000    0   0   0
O        0.207325179   0.250000000   0.250000000    0   0   0
O        0.792674856   0.750000001   0.749999983    0   0   0



     Writing output data file Landau_8.save
     NEW-OLD atomic charge density approx. for the potential
     extrapolated charge  368.00064, renormalised to  368.00000

     total cpu time spent up to now is    11819.2 secs

     Self-consistent Calculation

     iteration #  1     ecut=   120.00 Ry     beta= 0.70
     Davidson diagonalization with overlap
     ethr =  1.00E-06,  avg # of iterations =  1.5

     Threshold (ethr) on eigenvalues was too large:
     Diagonalizing with lowered threshold

     Davidson diagonalization with overlap
     ethr =  1.31E-11,  avg # of iterations =  4.0

     total cpu time spent up to now is    12193.3 secs

     total energy              =   -6261.10690715 Ry
     Harris-Foulkes estimate   =   -6261.09922115 Ry
     estimated scf accuracy    <       0.00000004 Ry

     iteration #  2     ecut=   120.00 Ry     beta= 0.70
     Davidson diagonalization with overlap
     ethr =  1.20E-11,  avg # of iterations =  3.4

     total cpu time spent up to now is    12378.3 secs

     total energy              =   -6261.10690716 Ry
     Harris-Foulkes estimate   =   -6261.10690723 Ry
     estimated scf accuracy    <       0.00000021 Ry

     iteration #  3     ecut=   120.00 Ry     beta= 0.70
     Davidson diagonalization with overlap
     ethr =  1.20E-11,  avg # of iterations =  3.0

     total cpu time spent up to now is    12534.0 secs

     total energy              =   -6261.10690718 Ry
     Harris-Foulkes estimate   =   -6261.10690719 Ry
     estimated scf accuracy    <          6.8E-09 Ry

     iteration #  4     ecut=   120.00 Ry     beta= 0.70
     Davidson diagonalization with overlap
     ethr =  1.85E-12,  avg # of iterations =  2.0

     total cpu time spent up to now is    12699.7 secs

     total energy              =   -6261.10690718 Ry
     Harris-Foulkes estimate   =   -6261.10690718 Ry
     estimated scf accuracy    <          3.1E-09 Ry

     iteration #  5     ecut=   120.00 Ry     beta= 0.70
     Davidson diagonalization with overlap
     ethr =  8.31E-13,  avg # of iterations =  2.8

     total cpu time spent up to now is    12846.0 secs

     total energy              =   -6261.10690718 Ry
     Harris-Foulkes estimate   =   -6261.10690718 Ry
     estimated scf accuracy    <          3.0E-09 Ry

     iteration #  6     ecut=   120.00 Ry     beta= 0.70
     Davidson diagonalization with overlap
     ethr =  8.26E-13,  avg # of iterations =  2.0

     total cpu time spent up to now is    12977.5 secs

     total energy              =   -6261.10690718 Ry
     Harris-Foulkes estimate   =   -6261.10690718 Ry
     estimated scf accuracy    <          1.8E-10 Ry

     iteration #  7     ecut=   120.00 Ry     beta= 0.70
     Davidson diagonalization with overlap
     ethr =  1.00E-13,  avg # of iterations =  2.7

     total cpu time spent up to now is    13112.8 secs

     End of self-consistent calculation

     Number of k-points >= 100: set verbosity='high' to print the bands.

     the Fermi energy is     8.8465 ev

!    total energy              =   -6261.10690718 Ry
     Harris-Foulkes estimate   =   -6261.10690718 Ry
     estimated scf accuracy    <          1.7E-11 Ry

     The total energy is the sum of the following terms:

     one-electron contribution =   -4761.04251414 Ry
     hartree contribution      =    2615.06912034 Ry
     xc contribution           =    -965.66913201 Ry
     ewald contribution        =   -3149.46438137 Ry
     smearing contrib. (-TS)   =      -0.00000000 Ry

     convergence has been achieved in   7 iterations

     Forces acting on atoms (cartesian axes, Ry/au):

     atom    1 type  1   force =    -0.00000024    0.00778009    0.00000008
     atom    2 type  1   force =     0.00000024   -0.00778009   -0.00000008
     atom    3 type  1   force =    -0.00000050   -0.00778026   -0.00000004
     atom    4 type  1   force =     0.00000050    0.00778026    0.00000004
     atom    5 type  1   force =     0.00000040    0.00777886    0.00000008
     atom    6 type  1   force =    -0.00000040   -0.00777886   -0.00000008
     atom    7 type  1   force =     0.00000016   -0.00777891   -0.00000004
     atom    8 type  1   force =    -0.00000016    0.00777891    0.00000004
     atom    9 type  2   force =     0.00000001   -0.00398029   -0.00000000
     atom   10 type  2   force =    -0.00000001    0.00398029    0.00000000
     atom   11 type  2   force =    -0.00000001    0.00398019   -0.00000000
     atom   12 type  2   force =     0.00000001   -0.00398019    0.00000000
     atom   13 type  2   force =    -0.00000000   -0.00398040   -0.00000000
     atom   14 type  2   force =     0.00000000    0.00398040    0.00000000
     atom   15 type  2   force =    -0.00000001    0.00398030    0.00000000
     atom   16 type  2   force =     0.00000001   -0.00398030   -0.00000000
     atom   17 type  2   force =    -0.00000003    0.00000001   -0.00117074
     atom   18 type  2   force =     0.00000003   -0.00000001    0.00117074
     atom   19 type  2   force =     0.00000003    0.00000001   -0.00117076
     atom   20 type  2   force =    -0.00000003   -0.00000001    0.00117076
     atom   21 type  2   force =    -0.00000003    0.00000000    0.00117076
     atom   22 type  2   force =     0.00000003   -0.00000000   -0.00117076
     atom   23 type  2   force =    -0.00000000    0.00000001    0.00117070
     atom   24 type  2   force =     0.00000000   -0.00000001   -0.00117070
     atom   25 type  2   force =    -0.00117072   -0.00000002    0.00000013
     atom   26 type  2   force =     0.00117072    0.00000002   -0.00000013
     atom   27 type  2   force =     0.00117068    0.00000001   -0.00000013
     atom   28 type  2   force =    -0.00117068   -0.00000001    0.00000013
     atom   29 type  2   force =     0.00117075    0.00000004    0.00000013
     atom   30 type  2   force =    -0.00117075   -0.00000004   -0.00000013
     atom   31 type  2   force =    -0.00117070    0.00000001   -0.00000013
     atom   32 type  2   force =     0.00117070   -0.00000001    0.00000013

     Total force =     0.000000     Total SCF correction =     0.000000


     Computing stress (Cartesian axis) and pressure

          total   stress  (Ry/bohr**3)                   (kbar)     P=   -0.01
  -0.00000011   0.00000000  -0.00000000         -0.02      0.00     -0.00
   0.00000000  -0.00000008  -0.00000000          0.00     -0.01     -0.00
  -0.00000000  -0.00000000  -0.00000011         -0.00     -0.00     -0.02


     number of scf cycles    =   5
     number of bfgs steps    =   4

     enthalpy old            =   -6261.1069070840 Ry
     enthalpy new            =   -6261.1069071844 Ry

     CASE: enthalpy_new < enthalpy_old

     small trust_radius: resetting bfgs history

     new trust radius        =       0.0000296197 bohr
     new conv_thr            =            1.0E-10 Ry

     new unit-cell volume =   2831.05713 a.u.^3 (   419.51938 Ang^3 )
     density =      7.34128 g/cm^3

CELL_PARAMETERS (angstrom)
   7.376100316  -0.000000521   0.000000041
  -0.000000547   7.710781435   0.000000161
   0.000000041   0.000000154   7.376100387

ATOMIC_POSITIONS (crystal)
W        0.250000000   0.278676145   0.000000000    0   0   0
W        0.749999983   0.721323855   0.000000000    0   0   0
W        0.250000000   0.221323871   0.500000000    0   0   0
W        0.749999983   0.778676147   0.500000000    0   0   0
W        0.749999983   0.278676145   0.500000000    0   0   0
W        0.250000000   0.721323855   0.500000000    0   0   0
W        0.749999983   0.221323871   0.000000000    0   0   0
W        0.250000000   0.778676147   0.000000000    0   0   0
O        0.250000000   0.007452623   0.000000000    0   0   0
O        0.749999983   0.992547378   0.000000000    0   0   0
O        0.250000000   0.492547380   0.500000000    0   0   0
O        0.749999983   0.507452622   0.500000000    0   0   0
O        0.749999983   0.007452623   0.500000000    0   0   0
O        0.250000000   0.992547378   0.500000000    0   0   0
O        0.749999983   0.492547380   0.000000000    0   0   0
O        0.250000000   0.507452622   0.000000000    0   0   0
O        0.500000000   0.250000000   0.457325163    0   0   0
O        0.500000000   0.750000001   0.542674839    0   0   0
O        0.000000000   0.250000000   0.957325196    0   0   0
O       -0.000000000   0.750000001   0.042674824    0   0   0
O        0.500000000   0.250000000   0.042674824    0   0   0
O        0.500000000   0.750000001   0.957325196    0   0   0
O        0.000000000   0.250000000   0.542674839    0   0   0
O       -0.000000000   0.750000001   0.457325163    0   0   0
O        0.707325178   0.250000000   0.749999983    0   0   0
O        0.292674821   0.750000001   0.250000000    0   0   0
O        0.792674856   0.250000000   0.250000000    0   0   0
O        0.207325179   0.750000001   0.749999983    0   0   0
O        0.292674821   0.250000000   0.749999983    0   0   0
O        0.707325178   0.750000001   0.250000000    0   0   0
O        0.207325179   0.250000000   0.250000000    0   0   0
O        0.792674856   0.750000001   0.749999983    0   0   0



     Writing output data file Landau_8.save
     NEW-OLD atomic charge density approx. for the potential
     extrapolated charge  367.99720, renormalised to  368.00000

     total cpu time spent up to now is    13475.6 secs

     Self-consistent Calculation

     iteration #  1     ecut=   120.00 Ry     beta= 0.70
     Davidson diagonalization with overlap
     ethr =  1.00E-06,  avg # of iterations =  1.0

     Threshold (ethr) on eigenvalues was too large:
     Diagonalizing with lowered threshold

     Davidson diagonalization with overlap
     ethr =  1.26E-10,  avg # of iterations =  2.1

     total cpu time spent up to now is    13731.2 secs

     total energy              =   -6261.10690657 Ry
     Harris-Foulkes estimate   =   -6261.14063160 Ry
     estimated scf accuracy    <       0.00000049 Ry

     iteration #  2     ecut=   120.00 Ry     beta= 0.70
     Davidson diagonalization with overlap
     ethr =  1.32E-10,  avg # of iterations =  4.0

     total cpu time spent up to now is    13919.6 secs

     total energy              =   -6261.10690690 Ry
     Harris-Foulkes estimate   =   -6261.10690797 Ry
     estimated scf accuracy    <       0.00000335 Ry

     iteration #  3     ecut=   120.00 Ry     beta= 0.70
     Davidson diagonalization with overlap
     ethr =  1.32E-10,  avg # of iterations =  3.0

     total cpu time spent up to now is    14080.3 secs

     total energy              =   -6261.10690721 Ry
     Harris-Foulkes estimate   =   -6261.10690725 Ry
     estimated scf accuracy    <       0.00000020 Ry

     iteration #  4     ecut=   120.00 Ry     beta= 0.70
     Davidson diagonalization with overlap
     ethr =  5.34E-11,  avg # of iterations =  1.0

     total cpu time spent up to now is    14207.3 secs

     total energy              =   -6261.10690720 Ry
     Harris-Foulkes estimate   =   -6261.10690721 Ry
     estimated scf accuracy    <       0.00000010 Ry

     iteration #  5     ecut=   120.00 Ry     beta= 0.70
     Davidson diagonalization with overlap
     ethr =  2.71E-11,  avg # of iterations =  1.0

     total cpu time spent up to now is    14333.9 secs

     total energy              =   -6261.10690719 Ry
     Harris-Foulkes estimate   =   -6261.10690720 Ry
     estimated scf accuracy    <       0.00000007 Ry

     iteration #  6     ecut=   120.00 Ry     beta= 0.70
     Davidson diagonalization with overlap
     ethr =  1.86E-11,  avg # of iterations =  1.0

     total cpu time spent up to now is    14459.5 secs

     total energy              =   -6261.10690719 Ry
     Harris-Foulkes estimate   =   -6261.10690719 Ry
     estimated scf accuracy    <       0.00000003 Ry

     iteration #  7     ecut=   120.00 Ry     beta= 0.70
     Davidson diagonalization with overlap
     ethr =  7.21E-12,  avg # of iterations =  1.5

     total cpu time spent up to now is    14587.9 secs

     total energy              =   -6261.10690718 Ry
     Harris-Foulkes estimate   =   -6261.10690719 Ry
     estimated scf accuracy    <       0.00000002 Ry

     iteration #  8     ecut=   120.00 Ry     beta= 0.70
     Davidson diagonalization with overlap
     ethr =  5.05E-12,  avg # of iterations =  3.0

     total cpu time spent up to now is    14722.1 secs

     total energy              =   -6261.10690719 Ry
     Harris-Foulkes estimate   =   -6261.10690719 Ry
     estimated scf accuracy    <          9.5E-10 Ry

     iteration #  9     ecut=   120.00 Ry     beta= 0.70
     Davidson diagonalization with overlap
     ethr =  2.58E-13,  avg # of iterations =  2.5

     total cpu time spent up to now is    14870.1 secs

     total energy              =   -6261.10690719 Ry
     Harris-Foulkes estimate   =   -6261.10690719 Ry
     estimated scf accuracy    <          3.8E-10 Ry

     iteration # 10     ecut=   120.00 Ry     beta= 0.70
     Davidson diagonalization with overlap
     ethr =  1.04E-13,  avg # of iterations =  1.0

     total cpu time spent up to now is    14996.7 secs

     total energy              =   -6261.10690719 Ry
     Harris-Foulkes estimate   =   -6261.10690719 Ry
     estimated scf accuracy    <          6.1E-10 Ry

     iteration # 11     ecut=   120.00 Ry     beta= 0.70
     Davidson diagonalization with overlap
     ethr =  1.04E-13,  avg # of iterations =  3.0

     total cpu time spent up to now is    15146.6 secs

     End of self-consistent calculation

     Number of k-points >= 100: set verbosity='high' to print the bands.

     the Fermi energy is     8.8468 ev

!    total energy              =   -6261.10690719 Ry
     Harris-Foulkes estimate   =   -6261.10690719 Ry
     estimated scf accuracy    <          1.6E-11 Ry

     The total energy is the sum of the following terms:

     one-electron contribution =   -4761.03006184 Ry
     hartree contribution      =    2615.06482842 Ry
     xc contribution           =    -965.66936258 Ry
     ewald contribution        =   -3149.47231118 Ry
     smearing contrib. (-TS)   =      -0.00000000 Ry

     convergence has been achieved in  11 iterations

     Forces acting on atoms (cartesian axes, Ry/au):

     atom    1 type  1   force =    -0.00000016    0.00777945    0.00000002
     atom    2 type  1   force =     0.00000016   -0.00777945   -0.00000002
     atom    3 type  1   force =    -0.00000026   -0.00777974    0.00000000
     atom    4 type  1   force =     0.00000026    0.00777974   -0.00000000
     atom    5 type  1   force =     0.00000026    0.00777937   -0.00000003
     atom    6 type  1   force =    -0.00000026   -0.00777937    0.00000003
     atom    7 type  1   force =     0.00000016   -0.00777964    0.00000005
     atom    8 type  1   force =    -0.00000016    0.00777964   -0.00000005
     atom    9 type  2   force =     0.00000002   -0.00397569   -0.00000000
     atom   10 type  2   force =    -0.00000002    0.00397569    0.00000000
     atom   11 type  2   force =     0.00000001    0.00397562    0.00000000
     atom   12 type  2   force =    -0.00000001   -0.00397562   -0.00000000
     atom   13 type  2   force =    -0.00000001   -0.00397564   -0.00000000
     atom   14 type  2   force =     0.00000001    0.00397564    0.00000000
     atom   15 type  2   force =    -0.00000002    0.00397558    0.00000000
     atom   16 type  2   force =     0.00000002   -0.00397558   -0.00000000
     atom   17 type  2   force =     0.00000002    0.00000001   -0.00117313
     atom   18 type  2   force =    -0.00000002   -0.00000001    0.00117313
     atom   19 type  2   force =    -0.00000000    0.00000001   -0.00117314
     atom   20 type  2   force =     0.00000000   -0.00000001    0.00117314
     atom   21 type  2   force =     0.00000000    0.00000001    0.00117316
     atom   22 type  2   force =    -0.00000000   -0.00000001   -0.00117316
     atom   23 type  2   force =    -0.00000002    0.00000001    0.00117308
     atom   24 type  2   force =     0.00000002   -0.00000001   -0.00117308
     atom   25 type  2   force =    -0.00117316   -0.00000002    0.00000013
     atom   26 type  2   force =     0.00117316    0.00000002   -0.00000013
     atom   27 type  2   force =     0.00117307    0.00000000   -0.00000013
     atom   28 type  2   force =    -0.00117307   -0.00000000    0.00000013
     atom   29 type  2   force =     0.00117316    0.00000003    0.00000014
     atom   30 type  2   force =    -0.00117316   -0.00000003   -0.00000014
     atom   31 type  2   force =    -0.00117307    0.00000001   -0.00000013
     atom   32 type  2   force =     0.00117307   -0.00000001    0.00000013

     Total force =     0.000000     Total SCF correction =     0.000000


     Computing stress (Cartesian axis) and pressure

          total   stress  (Ry/bohr**3)                   (kbar)     P=    0.00
   0.00000003   0.00000000  -0.00000000          0.00      0.00     -0.00
   0.00000000   0.00000003  -0.00000000          0.00      0.00     -0.00
  -0.00000000  -0.00000000   0.00000003         -0.00     -0.00      0.00


     bfgs converged in   6 scf cycles and   5 bfgs steps
     (criteria: energy <  1.0E-07 Ry, force <  1.0E-07Ry/Bohr, cell <  5.0E-01kbar)

     End of BFGS Geometry Optimization

     Final enthalpy =   -6261.1069071855 Ry
Begin final coordinates
     new unit-cell volume =   2831.05713 a.u.^3 (   419.51938 Ang^3 )
     density =      7.34128 g/cm^3

CELL_PARAMETERS (angstrom)
   7.376100316  -0.000000521   0.000000041
  -0.000000547   7.710781435   0.000000161
   0.000000041   0.000000154   7.376100387

ATOMIC_POSITIONS (crystal)
W        0.250000000   0.278676145   0.000000000    0   0   0
W        0.749999983   0.721323855  -0.000000000    0   0   0
W        0.250000000   0.221323871   0.500000000    0   0   0
W        0.749999983   0.778676147   0.500000000    0   0   0
W        0.749999983   0.278676145   0.500000000    0   0   0
W        0.250000000   0.721323855   0.500000000    0   0   0
W        0.749999983   0.221323871   0.000000000    0   0   0
W        0.250000000   0.778676147   0.000000000    0   0   0
O        0.250000000   0.007452623   0.000000000    0   0   0
O        0.749999983   0.992547378   0.000000000    0   0   0
O        0.250000000   0.492547380   0.500000000    0   0   0
O        0.749999983   0.507452622   0.500000000    0   0   0
O        0.749999983   0.007452623   0.500000000    0   0   0
O        0.250000000   0.992547378   0.500000000    0   0   0
O        0.749999983   0.492547380  -0.000000000    0   0   0
O        0.250000000   0.507452622  -0.000000000    0   0   0
O        0.500000000   0.250000000   0.457325163    0   0   0
O        0.500000000   0.750000001   0.542674839    0   0   0
O        0.000000000   0.250000000   0.957325196    0   0   0
O       -0.000000000   0.750000001   0.042674824    0   0   0
O        0.500000000   0.250000000   0.042674824    0   0   0
O        0.500000000   0.750000001   0.957325196    0   0   0
O        0.000000000   0.250000000   0.542674839    0   0   0
O       -0.000000000   0.750000001   0.457325163    0   0   0
O        0.707325178   0.250000000   0.749999983    0   0   0
O        0.292674821   0.750000001   0.250000000    0   0   0
O        0.792674856   0.250000000   0.250000000    0   0   0
O        0.207325179   0.750000001   0.749999983    0   0   0
O        0.292674821   0.250000000   0.749999983    0   0   0
O        0.707325178   0.750000001   0.250000000    0   0   0
O        0.207325179   0.250000000   0.250000000    0   0   0
O        0.792674856   0.750000001   0.749999983    0   0   0
End final coordinates



     A final scf calculation at the relaxed structure.
     The G-vectors are recalculated for the final unit cell
     Results may differ from those at the preceding step.
 
     G-vector sticks info
     --------------------
     sticks:   dense  smooth     PW     G-vecs:    dense   smooth      PW
     Sum        7749    7749   2079               502949   502949   69717
 


     bravais-lattice index     =            0
     lattice parameter (alat)  =      13.8397  a.u.
     unit-cell volume          =    2831.0571 (a.u.)^3
     number of atoms/cell      =           32
     number of atomic types    =            2
     number of electrons       =       368.00
     number of Kohn-Sham states=          221
     kinetic-energy cutoff     =     120.0000  Ry
     charge density cutoff     =     480.0000  Ry
     convergence threshold     =      1.0E-10
     mixing beta               =       0.7000
     number of iterations used =            8  plain     mixing
     Exchange-correlation      = SLA PW NOGX NOGC ( 1  4  0  0 0 0)

     celldm(1)=  13.839685  celldm(2)=   0.000000  celldm(3)=   0.000000
     celldm(4)=   0.000000  celldm(5)=   0.000000  celldm(6)=   0.000000

     crystal axes: (cart. coord. in units of alat)
               a(1) = (   1.007162  -0.000000   0.000000 )  
               a(2) = (  -0.000000   1.052861   0.000000 )  
               a(3) = (   0.000000   0.000000   1.007162 )  

     reciprocal axes: (cart. coord. in units 2 pi/alat)
               b(1) = (  0.992889  0.000000 -0.000000 )  
               b(2) = (  0.000000  0.949793 -0.000000 )  
               b(3) = ( -0.000000 -0.000000  0.992889 )  


     PseudoPot. # 1 for W  read from file:
     /cluster/scratch/mnoe/QE/pps/W_ONCV_LDA-4.0.upf
     MD5 check sum: ba0307d5d4cd419d6f1d13dc49d7c13a
     Pseudo is Norm-conserving + core correction, Zval = 28.0
     Generated using ONCVPSP code by D. R. Hamann
     Using radial grid of 1380 points,  8 beta functions with: 
                l(1) =   0
                l(2) =   0
                l(3) =   1
                l(4) =   1
                l(5) =   2
                l(6) =   2
                l(7) =   3
                l(8) =   3

     PseudoPot. # 2 for O  read from file:
     /cluster/scratch/mnoe/QE/pps/O_ONCV_LDA-3.0.upf
     MD5 check sum: a1bd6164e7280c17a38c229939bfbd54
     Pseudo is Norm-conserving + core correction, Zval =  6.0
     Generated using ONCVPSP code by D. R. Hamann
     Using radial grid of  926 points,  5 beta functions with: 
                l(1) =   0
                l(2) =   0
                l(3) =   1
                l(4) =   1
                l(5) =   2

     atomic species   valence    mass     pseudopotential
        W             28.00   183.84000     W ( 1.00)
        O              6.00    15.99940     O ( 1.00)

      2 Sym. Ops., with inversion, found



   Cartesian axes

     site n.     atom                  positions (alat units)
         1           W   tau(   1) = (   0.2517906   0.2934072   0.0000000  )
         2           W   tau(   2) = (   0.7553717   0.7594537   0.0000000  )
         3           W   tau(   3) = (   0.2517906   0.2330233   0.5035812  )
         4           W   tau(   4) = (   0.7553717   0.8198377   0.5035812  )
         5           W   tau(   5) = (   0.7553717   0.2934072   0.5035812  )
         6           W   tau(   6) = (   0.2517905   0.7594538   0.5035812  )
         7           W   tau(   7) = (   0.7553717   0.2330232   0.0000000  )
         8           W   tau(   8) = (   0.2517905   0.8198377   0.0000000  )
         9           O   tau(   9) = (   0.2517906   0.0078466   0.0000000  )
        10           O   tau(  10) = (   0.7553716   1.0450144   0.0000000  )
        11           O   tau(  11) = (   0.2517905   0.5185839   0.5035812  )
        12           O   tau(  12) = (   0.7553717   0.5342770   0.5035812  )
        13           O   tau(  13) = (   0.7553717   0.0078465   0.5035812  )
        14           O   tau(  14) = (   0.2517905   1.0450144   0.5035812  )
        15           O   tau(  15) = (   0.7553717   0.5185839   0.0000000  )
        16           O   tau(  16) = (   0.2517905   0.5342771   0.0000000  )
        17           O   tau(  17) = (   0.5035811   0.2632152   0.4606007  )
        18           O   tau(  18) = (   0.5035811   0.7896457   0.5465617  )
        19           O   tau(  19) = (  -0.0000000   0.2632153   0.9641819  )
        20           O   tau(  20) = (  -0.0000001   0.7896458   0.0429805  )
        21           O   tau(  21) = (   0.5035811   0.2632152   0.0429805  )
        22           O   tau(  22) = (   0.5035811   0.7896457   0.9641819  )
        23           O   tau(  23) = (  -0.0000000   0.2632153   0.5465617  )
        24           O   tau(  24) = (  -0.0000001   0.7896458   0.4606007  )
        25           O   tau(  25) = (   0.7123912   0.2632152   0.7553717  )
        26           O   tau(  26) = (   0.2947710   0.7896457   0.2517906  )
        27           O   tau(  27) = (   0.7983522   0.2632152   0.2517906  )
        28           O   tau(  28) = (   0.2088101   0.7896458   0.7553717  )
        29           O   tau(  29) = (   0.2947710   0.2632152   0.7553717  )
        30           O   tau(  30) = (   0.7123912   0.7896457   0.2517906  )
        31           O   tau(  31) = (   0.2088101   0.2632152   0.2517906  )
        32           O   tau(  32) = (   0.7983522   0.7896457   0.7553717  )

     number of k points=   112  gaussian smearing, width (Ry)=  0.0007

     Number of k-points >= 100: set verbosity='high' to print them.

     Dense  grid:   502949 G-vectors     FFT dimensions: ( 100, 108, 100)

     Estimated max dynamical RAM per process >       3.18 GB

     Estimated total dynamical RAM >     203.56 GB

     Initial potential from superposition of free atoms

     starting charge  367.99656, renormalised to  368.00000
     Starting wfc are  232 randomized atomic wfcs

     Writing output data file Landau_8.save

     total cpu time spent up to now is    15544.2 secs

     Self-consistent Calculation

     iteration #  1     ecut=   120.00 Ry     beta= 0.70
     Davidson diagonalization with overlap
     ethr =  1.00E-06,  avg # of iterations = 14.5

     total cpu time spent up to now is    15969.9 secs

     total energy              =   -6254.13229209 Ry
     Harris-Foulkes estimate   =   -6264.65777810 Ry
     estimated scf accuracy    <      13.33393593 Ry

     iteration #  2     ecut=   120.00 Ry     beta= 0.70
     Davidson diagonalization with overlap
     ethr =  3.62E-03,  avg # of iterations =  3.8

     total cpu time spent up to now is    16150.8 secs

     total energy              =   -6250.95262765 Ry
     Harris-Foulkes estimate   =   -6270.67657539 Ry
     estimated scf accuracy    <      52.91170236 Ry

     iteration #  3     ecut=   120.00 Ry     beta= 0.70
     Davidson diagonalization with overlap
     ethr =  3.62E-03,  avg # of iterations =  3.5

     total cpu time spent up to now is    16319.9 secs

     total energy              =   -6261.09078978 Ry
     Harris-Foulkes estimate   =   -6261.38084674 Ry
     estimated scf accuracy    <       0.96058560 Ry

     iteration #  4     ecut=   120.00 Ry     beta= 0.70
     Davidson diagonalization with overlap
     ethr =  2.61E-04,  avg # of iterations =  3.3

     total cpu time spent up to now is    16454.2 secs

     total energy              =   -6261.08773414 Ry
     Harris-Foulkes estimate   =   -6261.16078295 Ry
     estimated scf accuracy    <       0.22935736 Ry

     iteration #  5     ecut=   120.00 Ry     beta= 0.70
     Davidson diagonalization with overlap
     ethr =  6.23E-05,  avg # of iterations =  5.3

     total cpu time spent up to now is    16599.9 secs

     total energy              =   -6261.09144054 Ry
     Harris-Foulkes estimate   =   -6261.12189083 Ry
     estimated scf accuracy    <       0.06853019 Ry

     iteration #  6     ecut=   120.00 Ry     beta= 0.70
     Davidson diagonalization with overlap
     ethr =  1.86E-05,  avg # of iterations =  4.9

     total cpu time spent up to now is    16749.2 secs

     total energy              =   -6261.10609998 Ry
     Harris-Foulkes estimate   =   -6261.10876743 Ry
     estimated scf accuracy    <       0.00720006 Ry

     iteration #  7     ecut=   120.00 Ry     beta= 0.70
     Davidson diagonalization with overlap
     ethr =  1.96E-06,  avg # of iterations =  4.2

     total cpu time spent up to now is    16897.8 secs

     total energy              =   -6261.10699221 Ry
     Harris-Foulkes estimate   =   -6261.10709338 Ry
     estimated scf accuracy    <       0.00019214 Ry

     iteration #  8     ecut=   120.00 Ry     beta= 0.70
     Davidson diagonalization with overlap
     ethr =  5.22E-08,  avg # of iterations =  3.1

     total cpu time spent up to now is    17077.5 secs

     total energy              =   -6261.10706696 Ry
     Harris-Foulkes estimate   =   -6261.10707587 Ry
     estimated scf accuracy    <       0.00004119 Ry

     iteration #  9     ecut=   120.00 Ry     beta= 0.70
     Davidson diagonalization with overlap
     ethr =  1.12E-08,  avg # of iterations =  2.1

     total cpu time spent up to now is    17207.0 secs

     total energy              =   -6261.10706660 Ry
     Harris-Foulkes estimate   =   -6261.10707093 Ry
     estimated scf accuracy    <       0.00002465 Ry

     iteration # 10     ecut=   120.00 Ry     beta= 0.70
     Davidson diagonalization with overlap
     ethr =  6.70E-09,  avg # of iterations =  1.9

     total cpu time spent up to now is    17336.0 secs

     total energy              =   -6261.10706335 Ry
     Harris-Foulkes estimate   =   -6261.10706830 Ry
     estimated scf accuracy    <       0.00001168 Ry

     iteration # 11     ecut=   120.00 Ry     beta= 0.70
     Davidson diagonalization with overlap
     ethr =  3.17E-09,  avg # of iterations =  2.9

     total cpu time spent up to now is    17473.0 secs

     total energy              =   -6261.10706576 Ry
     Harris-Foulkes estimate   =   -6261.10706586 Ry
     estimated scf accuracy    <       0.00000031 Ry

     iteration # 12     ecut=   120.00 Ry     beta= 0.70
     Davidson diagonalization with overlap
     ethr =  8.48E-11,  avg # of iterations =  2.1

     total cpu time spent up to now is    17631.1 secs

     total energy              =   -6261.10706580 Ry
     Harris-Foulkes estimate   =   -6261.10706584 Ry
     estimated scf accuracy    <       0.00000012 Ry

     iteration # 13     ecut=   120.00 Ry     beta= 0.70
     Davidson diagonalization with overlap
     ethr =  3.16E-11,  avg # of iterations =  1.1

     total cpu time spent up to now is    17758.7 secs

     total energy              =   -6261.10706579 Ry
     Harris-Foulkes estimate   =   -6261.10706581 Ry
     estimated scf accuracy    <       0.00000004 Ry

     iteration # 14     ecut=   120.00 Ry     beta= 0.70
     Davidson diagonalization with overlap
     ethr =  1.09E-11,  avg # of iterations =  2.9

     total cpu time spent up to now is    17930.6 secs

     total energy              =   -6261.10706580 Ry
     Harris-Foulkes estimate   =   -6261.10706580 Ry
     estimated scf accuracy    <       0.00000001 Ry

     iteration # 15     ecut=   120.00 Ry     beta= 0.70
     Davidson diagonalization with overlap
     ethr =  2.73E-12,  avg # of iterations =  2.4

     total cpu time spent up to now is    18067.8 secs

     total energy              =   -6261.10706580 Ry
     Harris-Foulkes estimate   =   -6261.10706580 Ry
     estimated scf accuracy    <          1.7E-09 Ry

     iteration # 16     ecut=   120.00 Ry     beta= 0.70
     Davidson diagonalization with overlap
     ethr =  4.66E-13,  avg # of iterations =  2.3

     total cpu time spent up to now is    18213.8 secs

     total energy              =   -6261.10706580 Ry
     Harris-Foulkes estimate   =   -6261.10706580 Ry
     estimated scf accuracy    <          2.7E-10 Ry

     iteration # 17     ecut=   120.00 Ry     beta= 0.70
     Davidson diagonalization with overlap
     ethr =  1.00E-13,  avg # of iterations =  2.0

     total cpu time spent up to now is    18360.8 secs

     End of self-consistent calculation

     Number of k-points >= 100: set verbosity='high' to print the bands.

     the Fermi energy is     8.8468 ev

!    total energy              =   -6261.10706580 Ry
     Harris-Foulkes estimate   =   -6261.10706580 Ry
     estimated scf accuracy    <          7.8E-11 Ry

     The total energy is the sum of the following terms:

     one-electron contribution =   -4761.03007614 Ry
     hartree contribution      =    2615.06481301 Ry
     xc contribution           =    -965.66949148 Ry
     ewald contribution        =   -3149.47231118 Ry
     smearing contrib. (-TS)   =      -0.00000000 Ry

     convergence has been achieved in  17 iterations

     Forces acting on atoms (cartesian axes, Ry/au):

     atom    1 type  1   force =     0.00000222    0.00777560    0.00000203
     atom    2 type  1   force =    -0.00000222   -0.00777560   -0.00000203
     atom    3 type  1   force =    -0.00000002   -0.00778382   -0.00000248
     atom    4 type  1   force =     0.00000002    0.00778382    0.00000248
     atom    5 type  1   force =     0.00000056    0.00777554   -0.00000442
     atom    6 type  1   force =    -0.00000056   -0.00777554    0.00000442
     atom    7 type  1   force =    -0.00000175   -0.00778349    0.00000299
     atom    8 type  1   force =     0.00000175    0.00778349   -0.00000299
     atom    9 type  2   force =     0.00000000   -0.00397656   -0.00000001
     atom   10 type  2   force =    -0.00000000    0.00397656    0.00000001
     atom   11 type  2   force =     0.00000002    0.00397652   -0.00000003
     atom   12 type  2   force =    -0.00000002   -0.00397652    0.00000003
     atom   13 type  2   force =    -0.00000005   -0.00397681    0.00000001
     atom   14 type  2   force =     0.00000005    0.00397681   -0.00000001
     atom   15 type  2   force =    -0.00000001    0.00397702    0.00000001
     atom   16 type  2   force =     0.00000001   -0.00397702   -0.00000001
     atom   17 type  2   force =    -0.00000006   -0.00000001   -0.00117270
     atom   18 type  2   force =     0.00000006    0.00000001    0.00117270
     atom   19 type  2   force =     0.00000022    0.00000002   -0.00117264
     atom   20 type  2   force =    -0.00000022   -0.00000002    0.00117264
     atom   21 type  2   force =    -0.00000015    0.00000001    0.00117269
     atom   22 type  2   force =     0.00000015   -0.00000001   -0.00117269
     atom   23 type  2   force =     0.00000005   -0.00000002    0.00117265
     atom   24 type  2   force =    -0.00000005    0.00000002   -0.00117265
     atom   25 type  2   force =    -0.00117275   -0.00000006    0.00000072
     atom   26 type  2   force =     0.00117275    0.00000006   -0.00000072
     atom   27 type  2   force =     0.00117265   -0.00000009   -0.00000049
     atom   28 type  2   force =    -0.00117265    0.00000009    0.00000049
     atom   29 type  2   force =     0.00117271    0.00000015    0.00000086
     atom   30 type  2   force =    -0.00117271   -0.00000015   -0.00000086
     atom   31 type  2   force =    -0.00117263    0.00000003   -0.00000070
     atom   32 type  2   force =     0.00117263   -0.00000003    0.00000070

     Total force =     0.000000     Total SCF correction =     0.000000


     Computing stress (Cartesian axis) and pressure

          total   stress  (Ry/bohr**3)                   (kbar)     P=    0.28
   0.00000281   0.00000000  -0.00000000          0.41      0.00     -0.00
   0.00000000   0.00000016  -0.00000000          0.00      0.02     -0.00
  -0.00000000  -0.00000000   0.00000283         -0.00     -0.00      0.42


     Writing output data file Landau_8.save
 
     init_run     :    117.08s CPU    120.60s WALL (       2 calls)
     electrons    :  15730.25s CPU  16084.06s WALL (       7 calls)
     update_pot   :    118.62s CPU    119.11s WALL (       5 calls)
     forces       :    264.00s CPU    267.98s WALL (       7 calls)
     stress       :   2053.05s CPU   2083.96s WALL (       7 calls)

     Called by init_run:
     wfcinit      :     89.86s CPU     93.02s WALL (       2 calls)
     potinit      :     11.06s CPU     11.15s WALL (       2 calls)

     Called by electrons:
     c_bands      :  14034.72s CPU  14368.20s WALL (     104 calls)
     sum_band     :   1617.31s CPU   1630.42s WALL (     104 calls)
     v_of_rho     :     12.52s CPU     12.73s WALL (     109 calls)
     mix_rho      :     29.74s CPU     35.52s WALL (     104 calls)

     Called by c_bands:
     init_us_2    :    118.00s CPU    123.14s WALL (     448 calls)
     cegterg      :  12062.91s CPU  12376.10s WALL (     208 calls)

     Called by sum_band:

     Called by *egterg:
     h_psi        :   8755.64s CPU   8822.20s WALL (     788 calls)
     g_psi        :     17.11s CPU     17.22s WALL (     576 calls)
     cdiaghg      :    132.68s CPU    133.28s WALL (     770 calls)

     Called by h_psi:
     h_psi:pot    :   8709.08s CPU   8773.54s WALL (     788 calls)
     h_psi:calbec :   1326.38s CPU   1361.66s WALL (     788 calls)
     vloc_psi     :   6018.89s CPU   6038.65s WALL (     788 calls)
     add_vuspsi   :   1363.79s CPU   1373.22s WALL (     788 calls)

     General routines
     calbec       :   1510.08s CPU   1546.25s WALL (     858 calls)
     fft          :     11.25s CPU     11.29s WALL (     494 calls)
     fftw         :   6303.29s CPU   6321.03s WALL (  265138 calls)
 
     Parallel routines
 
     PWSCF        :     5h 4m CPU        5h11m WALL

 
   This run was terminated on:   3:10:34   5Mar2020            

=------------------------------------------------------------------------------=
   JOB DONE.
=------------------------------------------------------------------------------=
