
     Program PWSCF v.6.4.1 starts on 21Nov2019 at 16: 6:14 

     This program is part of the open-source Quantum ESPRESSO suite
     for quantum simulation of materials; please cite
         "P. Giannozzi et al., J. Phys.:Condens. Matter 21 395502 (2009);
         "P. Giannozzi et al., J. Phys.:Condens. Matter 29 465901 (2017);
          URL http://www.quantum-espresso.org", 
     in publications or presentations arising from this work. More details at
     http://www.quantum-espresso.org/quote

     Parallel version (MPI), running on    40 processors

     MPI processes distributed on     3 nodes
     K-points division:     npool     =      40
     Reading input from scf.in

     Current dimensions of program PWSCF are:
     Max number of different atomic species (ntypx) = 10
     Max number of k-points (npk) =  40000
     Max angular momentum in pseudopotentials (lmaxx) =  3

     Subspace diagonalization in iterative solution of the eigenvalue problem:
     a serial algorithm will be used

     Message from routine setup:
     using ibrav=0 with symmetry is DISCOURAGED, use correct ibrav instead
 
     G-vector sticks info
     --------------------
     sticks:   dense  smooth     PW     G-vecs:    dense   smooth      PW
     Sum        3761    3761   1033               251789   251789   35949
 


     bravais-lattice index     =            0
     lattice parameter (alat)  =       9.9173  a.u.
     unit-cell volume          =    1417.6214 (a.u.)^3
     number of atoms/cell      =           16
     number of atomic types    =            2
     number of electrons       =       184.34
     number of Kohn-Sham states=          111
     kinetic-energy cutoff     =     120.0000  Ry
     charge density cutoff     =     480.0000  Ry
     convergence threshold     =      1.0E-08
     mixing beta               =       0.7000
     number of iterations used =            8  plain     mixing
     Exchange-correlation      = SLA PW NOGX NOGC ( 1  4  0  0 0 0)

     celldm(1)=   9.917281  celldm(2)=   0.000000  celldm(3)=   0.000000
     celldm(4)=   0.000000  celldm(5)=   0.000000  celldm(6)=   0.000000

     crystal axes: (cart. coord. in units of alat)
               a(1) = (   1.000000   0.000000   0.000000 )  
               a(2) = (   0.000000   1.000000   0.000000 )  
               a(3) = (   0.000000   0.000000   1.453391 )  

     reciprocal axes: (cart. coord. in units 2 pi/alat)
               b(1) = (  1.000000  0.000000  0.000000 )  
               b(2) = (  0.000000  1.000000  0.000000 )  
               b(3) = (  0.000000  0.000000  0.688046 )  


     PseudoPot. # 1 for W  read from file:
     /cluster/scratch/mnoe/QE/pps/W_ONCV_LDA-4.0.upf
     MD5 check sum: ba0307d5d4cd419d6f1d13dc49d7c13a
     Pseudo is Norm-conserving + core correction, Zval = 28.0
     Generated using ONCVPSP code by D. R. Hamann
     Using radial grid of 1380 points,  8 beta functions with: 
                l(1) =   0
                l(2) =   0
                l(3) =   1
                l(4) =   1
                l(5) =   2
                l(6) =   2
                l(7) =   3
                l(8) =   3

     PseudoPot. # 2 for O  read from file:
     /cluster/scratch/mnoe/QE/pps/O_ONCV_LDA-3.0.upf
     MD5 check sum: b55cdb4f45ae2203d24ad12cf8d61a31
     Pseudo is Norm-conserving + core correction, Zval =  6.0
     Generated using ONCVPSP code by D. R. Hamann
     Using radial grid of  926 points,  5 beta functions with: 
                l(1) =   0
                l(2) =   0
                l(3) =   1
                l(4) =   1
                l(5) =   2

     atomic species   valence    mass     pseudopotential
        W             28.00   183.84000     W ( 1.00)
        O              6.00    15.99940     O ( 1.00)

     16 Sym. Ops., with inversion, found (14 have fractional translation)



   Cartesian axes

     site n.     atom                  positions (alat units)
         1           W   tau(   1) = (   0.2500000   0.2500000   0.3012241  )
         2           W   tau(   2) = (   0.7500000   0.7500000   1.1521666  )
         3           W   tau(   3) = (   0.7500000   0.7500000   0.4254713  )
         4           W   tau(   4) = (   0.2500000   0.2500000   1.0279194  )
         5           O   tau(   5) = (   0.2500000   0.2500000   0.6847085  )
         6           O   tau(   6) = (   0.7500000   0.7500000   0.7686822  )
         7           O   tau(   7) = (   0.7500000   0.7500000   0.0419869  )
         8           O   tau(   8) = (   0.2500000   0.2500000   1.4114038  )
         9           O   tau(   9) = (   0.5055832   0.4944168   0.3633477  )
        10           O   tau(  10) = (   0.4944168   0.5055832   1.0900430  )
        11           O   tau(  11) = (  -0.0055832   1.0055832   0.3633477  )
        12           O   tau(  12) = (   1.0055832  -0.0055832   1.0900430  )
        13           O   tau(  13) = (   1.0055832   0.5055832   0.3633477  )
        14           O   tau(  14) = (  -0.0055832   0.4944168   1.0900430  )
        15           O   tau(  15) = (   0.4944168  -0.0055832   0.3633477  )
        16           O   tau(  16) = (   0.5055832   1.0055832   1.0900430  )

     number of k points=    40  gaussian smearing, width (Ry)=  0.0007
                       cart. coord. in units 2pi/alat
        k(    1) = (   0.0000000   0.0000000   0.0000000), wk =   0.0092593
        k(    2) = (   0.0000000   0.0000000   0.1146744), wk =   0.0185185
        k(    3) = (   0.0000000   0.0000000   0.2293487), wk =   0.0185185
        k(    4) = (   0.0000000   0.0000000  -0.3440231), wk =   0.0092593
        k(    5) = (   0.0000000   0.1666667   0.0000000), wk =   0.0370370
        k(    6) = (   0.0000000   0.1666667   0.1146744), wk =   0.0740741
        k(    7) = (   0.0000000   0.1666667   0.2293487), wk =   0.0740741
        k(    8) = (   0.0000000   0.1666667  -0.3440231), wk =   0.0370370
        k(    9) = (   0.0000000   0.3333333   0.0000000), wk =   0.0370370
        k(   10) = (   0.0000000   0.3333333   0.1146744), wk =   0.0740741
        k(   11) = (   0.0000000   0.3333333   0.2293487), wk =   0.0740741
        k(   12) = (   0.0000000   0.3333333  -0.3440231), wk =   0.0370370
        k(   13) = (   0.0000000  -0.5000000   0.0000000), wk =   0.0185185
        k(   14) = (   0.0000000  -0.5000000   0.1146744), wk =   0.0370370
        k(   15) = (   0.0000000  -0.5000000   0.2293487), wk =   0.0370370
        k(   16) = (   0.0000000  -0.5000000  -0.3440231), wk =   0.0185185
        k(   17) = (   0.1666667   0.1666667   0.0000000), wk =   0.0370370
        k(   18) = (   0.1666667   0.1666667   0.1146744), wk =   0.0740741
        k(   19) = (   0.1666667   0.1666667   0.2293487), wk =   0.0740741
        k(   20) = (   0.1666667   0.1666667  -0.3440231), wk =   0.0370370
        k(   21) = (   0.1666667   0.3333333   0.0000000), wk =   0.0740741
        k(   22) = (   0.1666667   0.3333333   0.1146744), wk =   0.1481481
        k(   23) = (   0.1666667   0.3333333   0.2293487), wk =   0.1481481
        k(   24) = (   0.1666667   0.3333333  -0.3440231), wk =   0.0740741
        k(   25) = (   0.1666667  -0.5000000   0.0000000), wk =   0.0370370
        k(   26) = (   0.1666667  -0.5000000   0.1146744), wk =   0.0740741
        k(   27) = (   0.1666667  -0.5000000   0.2293487), wk =   0.0740741
        k(   28) = (   0.1666667  -0.5000000  -0.3440231), wk =   0.0370370
        k(   29) = (   0.3333333   0.3333333   0.0000000), wk =   0.0370370
        k(   30) = (   0.3333333   0.3333333   0.1146744), wk =   0.0740741
        k(   31) = (   0.3333333   0.3333333   0.2293487), wk =   0.0740741
        k(   32) = (   0.3333333   0.3333333  -0.3440231), wk =   0.0370370
        k(   33) = (   0.3333333  -0.5000000   0.0000000), wk =   0.0370370
        k(   34) = (   0.3333333  -0.5000000   0.1146744), wk =   0.0740741
        k(   35) = (   0.3333333  -0.5000000   0.2293487), wk =   0.0740741
        k(   36) = (   0.3333333  -0.5000000  -0.3440231), wk =   0.0370370
        k(   37) = (  -0.5000000  -0.5000000   0.0000000), wk =   0.0092593
        k(   38) = (  -0.5000000  -0.5000000   0.1146744), wk =   0.0185185
        k(   39) = (  -0.5000000  -0.5000000   0.2293487), wk =   0.0185185
        k(   40) = (  -0.5000000  -0.5000000  -0.3440231), wk =   0.0092593

     Dense  grid:   251789 G-vectors     FFT dimensions: (  72,  72, 108)

     Estimated max dynamical RAM per process >     789.71 MB

     Estimated total dynamical RAM >      30.85 GB

     Initial potential from superposition of free atoms

     starting charge  183.99828, renormalised to  184.34000
     Starting wfcs are  116 randomized atomic wfcs

     total cpu time spent up to now is        6.1 secs

     Self-consistent Calculation

     iteration #  1     ecut=   120.00 Ry     beta= 0.70
     Davidson diagonalization with overlap
     ethr =  1.00E-02,  avg # of iterations =  4.8

     total cpu time spent up to now is       23.8 secs

     total energy              =   -3126.51560515 Ry
     Harris-Foulkes estimate   =   -3132.11749144 Ry
     estimated scf accuracy    <       7.04374867 Ry

     iteration #  2     ecut=   120.00 Ry     beta= 0.70
     Davidson diagonalization with overlap
     ethr =  3.82E-03,  avg # of iterations =  3.4

     total cpu time spent up to now is       41.6 secs

     total energy              =   -3124.93426533 Ry
     Harris-Foulkes estimate   =   -3135.36204710 Ry
     estimated scf accuracy    <      27.90970410 Ry

     iteration #  3     ecut=   120.00 Ry     beta= 0.70
     Davidson diagonalization with overlap
     ethr =  3.82E-03,  avg # of iterations =  3.3

     total cpu time spent up to now is       57.5 secs

     total energy              =   -3130.26119893 Ry
     Harris-Foulkes estimate   =   -3130.39713003 Ry
     estimated scf accuracy    <       0.47175703 Ry

     iteration #  4     ecut=   120.00 Ry     beta= 0.70
     Davidson diagonalization with overlap
     ethr =  2.56E-04,  avg # of iterations =  2.6

     total cpu time spent up to now is       70.7 secs

     total energy              =   -3130.24717004 Ry
     Harris-Foulkes estimate   =   -3130.29125183 Ry
     estimated scf accuracy    <       0.12271561 Ry

     iteration #  5     ecut=   120.00 Ry     beta= 0.70
     Davidson diagonalization with overlap
     ethr =  6.66E-05,  avg # of iterations =  3.9

     total cpu time spent up to now is       84.5 secs

     total energy              =   -3130.25570962 Ry
     Harris-Foulkes estimate   =   -3130.26816790 Ry
     estimated scf accuracy    <       0.02914525 Ry

     iteration #  6     ecut=   120.00 Ry     beta= 0.70
     Davidson diagonalization with overlap
     ethr =  1.58E-05,  avg # of iterations =  4.2

     total cpu time spent up to now is       99.9 secs

     total energy              =   -3130.26158309 Ry
     Harris-Foulkes estimate   =   -3130.26320987 Ry
     estimated scf accuracy    <       0.00441346 Ry

     iteration #  7     ecut=   120.00 Ry     beta= 0.70
     Davidson diagonalization with overlap
     ethr =  2.39E-06,  avg # of iterations =  4.2

     total cpu time spent up to now is      114.0 secs

     total energy              =   -3130.26211096 Ry
     Harris-Foulkes estimate   =   -3130.26217846 Ry
     estimated scf accuracy    <       0.00011857 Ry

     iteration #  8     ecut=   120.00 Ry     beta= 0.70
     Davidson diagonalization with overlap
     ethr =  6.43E-08,  avg # of iterations =  3.1

     total cpu time spent up to now is      132.1 secs

     total energy              =   -3130.26216158 Ry
     Harris-Foulkes estimate   =   -3130.26216943 Ry
     estimated scf accuracy    <       0.00003638 Ry

     iteration #  9     ecut=   120.00 Ry     beta= 0.70
     Davidson diagonalization with overlap
     ethr =  1.97E-08,  avg # of iterations =  1.6

     total cpu time spent up to now is      144.5 secs

     total energy              =   -3130.26215783 Ry
     Harris-Foulkes estimate   =   -3130.26216348 Ry
     estimated scf accuracy    <       0.00001479 Ry

     iteration # 10     ecut=   120.00 Ry     beta= 0.70
     Davidson diagonalization with overlap
     ethr =  8.02E-09,  avg # of iterations =  2.1

     total cpu time spent up to now is      157.4 secs

     total energy              =   -3130.26216026 Ry
     Harris-Foulkes estimate   =   -3130.26216033 Ry
     estimated scf accuracy    <       0.00000015 Ry

     iteration # 11     ecut=   120.00 Ry     beta= 0.70
     Davidson diagonalization with overlap
     ethr =  8.22E-11,  avg # of iterations =  2.9

     total cpu time spent up to now is      173.9 secs

     total energy              =   -3130.26216031 Ry
     Harris-Foulkes estimate   =   -3130.26216033 Ry
     estimated scf accuracy    <       0.00000002 Ry

     iteration # 12     ecut=   120.00 Ry     beta= 0.70
     Davidson diagonalization with overlap
     ethr =  1.23E-11,  avg # of iterations =  2.2

     total cpu time spent up to now is      190.0 secs

     End of self-consistent calculation

          k = 0.0000 0.0000 0.0000 ( 31511 PWs)   bands (ev):

   -66.2212 -66.2207 -66.2199 -66.2194 -30.5965 -30.5928 -30.5553 -30.5553
   -30.5510 -30.5510 -30.5223 -30.5199 -30.4764 -30.4764 -30.4730 -30.4730
   -20.3753 -20.3753 -20.3752 -20.3751 -20.3638 -20.3636 -20.3606 -20.3605
   -20.3604 -20.3603 -20.3570 -20.3570 -20.3568 -20.3566 -20.3566 -20.3566
   -20.3531 -20.3531 -20.3527 -20.3527 -20.3521 -20.3521 -20.3517 -20.3517
   -20.3503 -20.3503 -20.3498 -20.3498 -10.1204  -9.6962  -9.3374  -9.0435
    -9.0182  -8.9374  -7.8811  -7.8139  -7.8139  -7.7900  -7.7900  -7.7455
     1.0746   1.0814   1.0837   1.2694   1.4243   1.4930   2.3768   2.3768
     2.4542   2.5722   3.9554   3.9554   4.7381   4.7381   4.9457   5.5420
     5.5420   5.7420   5.7420   5.8629   5.8629   5.9096   5.9762   6.5358
     6.5358   6.8034   7.0978   7.1361   7.1361   7.1574   7.1574   7.1978
     8.3115   8.3115   8.3493   8.3599   8.9172   8.9174   9.4858   9.4858
    12.4358  12.4358  13.2811  13.2811  13.4679  13.7530  13.7701  14.1067
    14.1102  14.1753  14.1753  14.6192  15.5805  16.3474  17.0678

          k = 0.0000 0.0000 0.1147 ( 31506 PWs)   bands (ev):

   -66.2212 -66.2207 -66.2199 -66.2194 -30.5916 -30.5879 -30.5550 -30.5550
   -30.5513 -30.5513 -30.5273 -30.5248 -30.4762 -30.4762 -30.4732 -30.4732
   -20.3753 -20.3753 -20.3752 -20.3752 -20.3634 -20.3632 -20.3606 -20.3606
   -20.3604 -20.3603 -20.3573 -20.3571 -20.3570 -20.3570 -20.3566 -20.3566
   -20.3530 -20.3530 -20.3527 -20.3527 -20.3521 -20.3521 -20.3517 -20.3517
   -20.3504 -20.3504 -20.3499 -20.3499 -10.0781  -9.7128  -9.2534  -9.0418
    -9.0199  -8.8937  -7.9961  -7.8703  -7.8123  -7.8123  -7.7916  -7.7916
     1.0816   1.0836   1.2797   1.4234   1.4557   1.6395   2.4482   2.4482
     2.4619   2.5641   3.7785   3.7785   4.7010   4.8003   4.8003   5.5377
     5.5377   5.5633   5.5633   5.5824   5.9545   6.1041   6.1041   6.5314
     6.5314   6.8223   6.9945   7.0772   7.1357   7.1357   7.1499   7.1499
     8.2204   8.2204   8.3500   8.3592   8.9175   8.9177   9.7430   9.7430
    12.2607  12.2607  13.3129  13.3129  13.7307  13.7542  13.7690  14.0781
    14.0781  14.1072  14.1103  14.8653  16.0048  16.0318  17.1314

          k = 0.0000 0.0000 0.2293 ( 31522 PWs)   bands (ev):

   -66.2211 -66.2208 -66.2198 -66.2195 -30.5781 -30.5747 -30.5542 -30.5542
   -30.5521 -30.5521 -30.5410 -30.5383 -30.4755 -30.4755 -30.4738 -30.4738
   -20.3753 -20.3753 -20.3752 -20.3752 -20.3621 -20.3619 -20.3606 -20.3606
   -20.3604 -20.3603 -20.3586 -20.3584 -20.3569 -20.3569 -20.3567 -20.3567
   -20.3529 -20.3529 -20.3527 -20.3527 -20.3520 -20.3520 -20.3518 -20.3518
   -20.3503 -20.3503 -20.3501 -20.3501  -9.9731  -9.7648  -9.0372  -9.0246
    -9.0149  -8.7535  -8.2910  -8.1742  -7.8079  -7.8079  -7.7960  -7.7960
     1.0821   1.0832   1.3991   1.4206   2.0759   2.3658   2.4831   2.5421
     2.6573   2.6573   3.3910   3.3910   3.9978   4.6101   4.9774   4.9774
     5.4017   5.4017   5.5885   5.5885   5.9197   5.9197   6.0877   6.6198
     6.8745   6.9604   6.9604   7.0216   7.1348   7.1348   7.1467   7.1467
     7.9468   7.9468   8.3520   8.3573   8.9182   8.9183  10.3588  10.3588
    11.7775  11.7775  13.4158  13.4158  13.7574  13.7660  13.8472  13.8472
    14.1084  14.1102  14.2545  15.4470  15.5611  16.9575  17.0622

          k = 0.0000 0.0000-0.3440 ( 31538 PWs)   bands (ev):

   -66.2209 -66.2209 -66.2197 -66.2197 -30.5596 -30.5596 -30.5565 -30.5565
   -30.5532 -30.5532 -30.5532 -30.5532 -30.4747 -30.4747 -30.4747 -30.4747
   -20.3753 -20.3753 -20.3752 -20.3752 -20.3606 -20.3606 -20.3604 -20.3604
   -20.3604 -20.3604 -20.3602 -20.3602 -20.3568 -20.3568 -20.3568 -20.3568
   -20.3528 -20.3528 -20.3528 -20.3528 -20.3519 -20.3519 -20.3519 -20.3519
   -20.3502 -20.3502 -20.3502 -20.3502  -9.8552  -9.8552  -9.0309  -9.0309
    -8.6661  -8.6661  -8.5047  -8.5047  -7.8020  -7.8020  -7.8020  -7.8020
     1.0827   1.0827   1.4147   1.4147   2.5124   2.5124   2.9854   2.9854
     2.9854   2.9854   3.0265   3.0265   3.4388   3.4388   5.2153   5.2153
     5.2153   5.2153   5.6871   5.6871   5.6871   5.6871   6.3077   6.3077
     6.9472   6.9472   7.1333   7.1333   7.1334   7.1334   7.5103   7.5103
     7.5103   7.5103   8.3546   8.3546   8.9186   8.9186  11.0956  11.0956
    11.0956  11.0956  13.6002  13.6002  13.6002  13.6002  13.7618  13.7618
    14.1096  14.1096  14.8329  14.8329  16.3828  16.3828  17.5094

          k = 0.0000 0.1667 0.0000 ( 31487 PWs)   bands (ev):

   -66.2211 -66.2206 -66.2200 -66.2195 -30.5969 -30.5933 -30.5512 -30.5501
   -30.5458 -30.5453 -30.5211 -30.5208 -30.4817 -30.4811 -30.4783 -30.4781
   -20.3753 -20.3753 -20.3752 -20.3752 -20.3639 -20.3637 -20.3608 -20.3607
   -20.3607 -20.3606 -20.3575 -20.3569 -20.3563 -20.3562 -20.3560 -20.3558
   -20.3530 -20.3530 -20.3528 -20.3527 -20.3521 -20.3521 -20.3519 -20.3519
   -20.3505 -20.3505 -20.3501 -20.3500 -10.0402  -9.5931  -9.3586  -8.9756
    -8.9504  -8.9121  -7.9886  -7.9526  -7.9161  -7.8921  -7.8339  -7.7525
     1.0973   1.2514   1.3283   1.3341   1.6877   1.7363   2.4482   2.4579
     2.6253   2.7408   3.9100   3.9518   4.3918   4.4902   4.9340   5.2412
     5.2718   5.5301   5.6390   5.8835   5.8850   6.0114   6.3184   6.3801
     6.4004   6.4686   6.5242   6.7742   7.0081   7.0345   7.0727   7.1190
     8.2096   8.2287   8.2362   8.2694   9.5692   9.5866   9.8166   9.9048
    12.4963  12.5251  13.0139  13.0235  13.5242  13.5386  13.7698  13.9539
    13.9972  14.6619  14.6943  14.8169  15.5115  16.6792  17.0402

          k = 0.0000 0.1667 0.1147 ( 31465 PWs)   bands (ev):

   -66.2211 -66.2206 -66.2200 -66.2195 -30.5920 -30.5885 -30.5511 -30.5498
   -30.5461 -30.5455 -30.5260 -30.5257 -30.4815 -30.4809 -30.4785 -30.4783
   -20.3753 -20.3753 -20.3752 -20.3752 -20.3634 -20.3633 -20.3607 -20.3607
   -20.3607 -20.3606 -20.3577 -20.3574 -20.3563 -20.3562 -20.3560 -20.3560
   -20.3529 -20.3529 -20.3527 -20.3527 -20.3521 -20.3521 -20.3519 -20.3519
   -20.3505 -20.3505 -20.3502 -20.3501  -9.9950  -9.6099  -9.2749  -8.9739
    -8.9521  -8.8715  -8.0502  -7.9507  -7.9145  -7.9084  -7.8938  -7.8576
     1.3287   1.3337   1.3434   1.4893   1.6864   1.7858   2.5216   2.5279
     2.6329   2.7337   3.7573   3.7981   4.4591   4.5546   4.6847   5.2491
     5.2793   5.3344   5.4214   5.6025   6.0020   6.0568   6.3515   6.4161
     6.4503   6.4576   6.4698   6.9014   6.9252   7.0386   7.0773   7.1325
     8.1480   8.1757   8.2156   8.2360   9.5708   9.5817  10.0163  10.0956
    12.3239  12.3559  13.0526  13.0574  13.5239  13.5367  13.8623  13.8949
    14.0414  14.6624  14.6865  15.0437  15.9349  16.3214  17.0999

          k = 0.0000 0.1667 0.2293 ( 31492 PWs)   bands (ev):

   -66.2210 -66.2207 -66.2199 -66.2196 -30.5789 -30.5753 -30.5518 -30.5490
   -30.5469 -30.5460 -30.5390 -30.5381 -30.4809 -30.4804 -30.4791 -30.4789
   -20.3753 -20.3753 -20.3752 -20.3752 -20.3622 -20.3620 -20.3607 -20.3607
   -20.3607 -20.3606 -20.3587 -20.3587 -20.3562 -20.3562 -20.3562 -20.3560
   -20.3528 -20.3528 -20.3527 -20.3527 -20.3521 -20.3521 -20.3519 -20.3519
   -20.3506 -20.3505 -20.3503 -20.3503  -9.8826  -9.6631  -9.0373  -8.9693
    -8.9567  -8.7390  -8.3166  -8.1804  -7.9450  -7.9208  -7.9101  -7.8982
     1.3298   1.3327   1.6424   1.6821   2.0816   2.3296   2.6514   2.7049
     2.7344   2.7623   3.3991   3.4414   3.9903   4.6055   4.6569   4.7416
     5.1809   5.2254   5.2884   5.3146   5.6588   5.6943   6.4348   6.4445
     6.4811   6.7648   6.9148   6.9476   7.0078   7.0382   7.1017   7.1702
     7.8935   7.9216   8.2200   8.2303   9.5734   9.5782  10.5344  10.5990
    11.8529  11.8930  13.1656  13.1670  13.5140  13.5214  13.6473  13.6614
    14.5736  14.6640  14.6745  15.7226  15.7360  16.9837  17.1271

          k = 0.0000 0.1667-0.3440 ( 31458 PWs)   bands (ev):

   -66.2209 -66.2209 -66.2198 -66.2198 -30.5617 -30.5617 -30.5571 -30.5571
   -30.5479 -30.5479 -30.5458 -30.5458 -30.4800 -30.4800 -30.4797 -30.4797
   -20.3753 -20.3753 -20.3752 -20.3752 -20.3607 -20.3607 -20.3607 -20.3607
   -20.3605 -20.3605 -20.3604 -20.3604 -20.3562 -20.3562 -20.3561 -20.3561
   -20.3527 -20.3527 -20.3527 -20.3527 -20.3520 -20.3520 -20.3520 -20.3520
   -20.3505 -20.3505 -20.3505 -20.3505  -9.7574  -9.7573  -8.9631  -8.9630
    -8.6897  -8.6897  -8.4996  -8.4996  -7.9360  -7.9360  -7.9042  -7.9042
     1.3313   1.3313   1.6729   1.6729   2.6784   2.6784   2.9852   2.9852
     3.0329   3.0329   3.0532   3.0532   3.4736   3.4736   4.9415   4.9415
     5.0065   5.0065   5.3885   5.3885   5.4058   5.4058   6.4498   6.4498
     6.6044   6.6045   7.0246   7.0246   7.1241   7.1241   7.4770   7.4770
     7.5087   7.5087   8.2254   8.2254   9.5759   9.5759  11.2042  11.2042
    11.2555  11.2555  13.3459  13.3459  13.3695  13.3695  13.5603  13.5603
    14.6674  14.6674  15.1390  15.1390  16.5535  16.5535  17.5566

          k = 0.0000 0.3333 0.0000 ( 31480 PWs)   bands (ev):

   -66.2209 -66.2204 -66.2202 -66.2197 -30.5971 -30.5947 -30.5406 -30.5357
   -30.5316 -30.5304 -30.5238 -30.5171 -30.4962 -30.4933 -30.4926 -30.4919
   -20.3753 -20.3753 -20.3752 -20.3752 -20.3639 -20.3639 -20.3611 -20.3610
   -20.3610 -20.3609 -20.3577 -20.3572 -20.3551 -20.3549 -20.3547 -20.3546
   -20.3531 -20.3530 -20.3528 -20.3528 -20.3523 -20.3523 -20.3521 -20.3521
   -20.3508 -20.3508 -20.3508 -20.3506  -9.8319  -9.4340  -9.2996  -8.8206
    -8.7820  -8.7571  -8.3798  -8.2818  -8.1762  -8.1521  -7.8233  -7.7717
     1.1297   1.2102   1.9844   2.0161   2.3501   2.3524   2.6346   2.6644
     3.1530   3.2596   3.6788   3.7134   3.9125   4.0172   4.4891   4.5406
     4.9128   5.0473   5.3126   5.3438   5.4161   5.9233   5.9472   6.0871
     6.1884   6.1973   6.3046   6.6633   6.9934   7.1606   7.2315   7.4743
     7.8930   7.8942   8.0033   8.1295  10.5739  10.6529  10.6903  10.7612
    12.3575  12.4375  12.6907  12.7929  12.8105  12.8146  13.5630  13.6143
    14.3793  15.2980  15.4114  15.9905  15.9969  17.2684  17.3338

          k = 0.0000 0.3333 0.1147 ( 31460 PWs)   bands (ev):

   -66.2209 -66.2204 -66.2202 -66.2198 -30.5923 -30.5899 -30.5416 -30.5354
   -30.5319 -30.5306 -30.5282 -30.5208 -30.4960 -30.4935 -30.4929 -30.4921
   -20.3753 -20.3753 -20.3752 -20.3752 -20.3635 -20.3634 -20.3611 -20.3610
   -20.3610 -20.3609 -20.3580 -20.3577 -20.3551 -20.3549 -20.3547 -20.3547
   -20.3531 -20.3529 -20.3528 -20.3528 -20.3523 -20.3523 -20.3521 -20.3521
   -20.3509 -20.3509 -20.3508 -20.3507  -9.7769  -9.3531  -9.3170  -8.7898
    -8.7803  -8.7588  -8.4039  -8.2770  -8.1746  -8.1537  -7.9279  -7.8833
     1.3885   1.4689   1.9868   2.0143   2.3490   2.3602   2.7089   2.7275
     3.1579   3.2535   3.6026   3.6483   3.9816   4.0826   4.5040   4.5557
     4.6438   4.8723   5.1118   5.2898   5.3108   5.6147   5.6479   5.9079
     6.3755   6.4425   6.6445   6.7496   7.0020   7.1546   7.2455   7.4666
     7.8849   7.8944   7.9427   8.0694  10.6338  10.6596  10.7416  10.8703
    12.3986  12.4654  12.5563  12.6390  12.7994  12.8177  13.4446  13.5006
    14.7144  15.5667  15.7165  15.9911  15.9963  16.9261  17.3767

          k = 0.0000 0.3333 0.2293 ( 31473 PWs)   bands (ev):

   -66.2208 -66.2205 -66.2201 -66.2199 -30.5793 -30.5767 -30.5475 -30.5410
   -30.5347 -30.5326 -30.5309 -30.5278 -30.4953 -30.4936 -30.4935 -30.4927
   -20.3753 -20.3753 -20.3752 -20.3752 -20.3623 -20.3623 -20.3611 -20.3611
   -20.3610 -20.3610 -20.3591 -20.3589 -20.3551 -20.3549 -20.3548 -20.3547
   -20.3530 -20.3529 -20.3528 -20.3528 -20.3522 -20.3521 -20.3520 -20.3520
   -20.3511 -20.3510 -20.3510 -20.3509  -9.6382  -9.3745  -9.1256  -8.7758
    -8.7634  -8.6843  -8.5220  -8.2607  -8.1846  -8.1701  -8.1581  -8.1052
     1.9932   2.0091   2.0729   2.1048   2.3376   2.4498   2.9073   2.9413
     3.1645   3.2374   3.3779   3.4513   3.9776   4.1893   4.2730   4.4177
     4.5608   4.6144   4.7741   4.8803   5.1160   5.2721   5.3070   5.3269
     6.8885   6.9030   6.9452   6.9993   7.0170   7.1345   7.3046   7.4326
     7.7461   7.8021   7.9012   7.9433  10.6595  10.6635  11.0510  11.2011
    12.1020  12.2226  12.5336  12.6369  12.7897  12.8301  13.1637  13.2218
    15.3484  15.9924  15.9950  16.1357  16.4148  16.7287  17.3694

          k = 0.0000 0.3333-0.3440 ( 31446 PWs)   bands (ev):

   -66.2206 -66.2206 -66.2200 -66.2200 -30.5621 -30.5621 -30.5588 -30.5588
   -30.5337 -30.5337 -30.5307 -30.5307 -30.4944 -30.4944 -30.4933 -30.4933
   -20.3753 -20.3753 -20.3752 -20.3752 -20.3611 -20.3611 -20.3610 -20.3610
   -20.3606 -20.3606 -20.3606 -20.3606 -20.3550 -20.3550 -20.3548 -20.3548
   -20.3529 -20.3529 -20.3528 -20.3528 -20.3520 -20.3520 -20.3520 -20.3520
   -20.3512 -20.3511 -20.3510 -20.3510  -9.4842  -9.4842  -8.8061  -8.8061
    -8.7695  -8.7695  -8.4766  -8.4766  -8.2209  -8.2209  -8.1642  -8.1642
     2.0015   2.0015   2.3089   2.3089   2.9426   2.9426   3.0642   3.0642
     3.1698   3.1698   3.2266   3.2266   3.5182   3.5182   4.4906   4.4906
     4.5329   4.5329   4.7273   4.7273   4.8072   4.8072   5.3020   5.3020
     6.9971   6.9971   7.0844   7.0844   7.3308   7.3308   7.4078   7.4078
     7.5031   7.5031   7.9099   7.9099  10.6636  10.6637  11.5542  11.5542
    11.6941  11.6941  12.7067  12.7067  12.8740  12.8740  12.9356  12.9356
    15.8895  15.8895  15.9941  15.9941  16.9659  16.9659  17.4619

          k = 0.0000-0.5000 0.0000 ( 31454 PWs)   bands (ev):

   -66.2206 -66.2206 -66.2200 -66.2200 -30.5962 -30.5962 -30.5298 -30.5298
   -30.5160 -30.5160 -30.5122 -30.5122 -30.5110 -30.5110 -30.5077 -30.5077
   -20.3753 -20.3753 -20.3752 -20.3752 -20.3640 -20.3640 -20.3612 -20.3612
   -20.3611 -20.3611 -20.3576 -20.3576 -20.3540 -20.3540 -20.3537 -20.3537
   -20.3535 -20.3535 -20.3533 -20.3533 -20.3523 -20.3523 -20.3522 -20.3522
   -20.3511 -20.3511 -20.3510 -20.3510  -9.5946  -9.5946  -8.8648  -8.8648
    -8.6147  -8.6147  -8.4952  -8.4951  -8.4707  -8.4707  -7.7979  -7.7979
     1.1665   1.1665   2.6763   2.6763   2.7734   2.7734   2.9361   2.9361
     3.1155   3.1155   3.8020   3.8020   3.8794   3.8795   4.0585   4.0586
     4.1578   4.1578   4.9470   4.9470   5.5939   5.5939   6.0460   6.0460
     6.0832   6.0832   6.3827   6.3827   7.4822   7.4822   7.5221   7.5221
     7.5907   7.5907   7.8680   7.8680  11.4483  11.4483  11.6416  11.6416
    11.7863  11.7863  11.8451  11.8451  13.0803  13.0803  13.1838  13.1838
    14.9248  14.9248  16.3480  16.3480  17.4622  17.4623  17.5761

          k = 0.0000-0.5000 0.1147 ( 31484 PWs)   bands (ev):

   -66.2205 -66.2205 -66.2201 -66.2201 -30.5914 -30.5914 -30.5331 -30.5331
   -30.5157 -30.5157 -30.5124 -30.5124 -30.5111 -30.5111 -30.5092 -30.5092
   -20.3753 -20.3753 -20.3752 -20.3752 -20.3635 -20.3635 -20.3612 -20.3612
   -20.3611 -20.3611 -20.3580 -20.3580 -20.3539 -20.3539 -20.3537 -20.3537
   -20.3535 -20.3535 -20.3534 -20.3534 -20.3522 -20.3522 -20.3522 -20.3522
   -20.3512 -20.3512 -20.3511 -20.3511  -9.5241  -9.5241  -8.8838  -8.8838
    -8.5995  -8.5995  -8.4935  -8.4935  -8.4723  -8.4723  -7.9077  -7.9077
     1.4265   1.4265   2.7017   2.7017   2.8149   2.8149   2.9253   2.9253
     3.0980   3.0980   3.8510   3.8510   3.9193   3.9193   4.0565   4.0566
     4.1575   4.1575   4.6849   4.6849   5.2023   5.2023   5.7419   5.7419
     6.4744   6.4744   6.5681   6.5681   7.4742   7.4743   7.5254   7.5254
     7.5653   7.5653   7.8337   7.8338  11.4979  11.4979  11.7018  11.7018
    11.7952  11.7952  11.8608  11.8608  12.9393  12.9393  13.0492  13.0492
    15.3198  15.3198  16.4299  16.4299  17.3534  17.3534  17.5794

          k = 0.0000-0.5000 0.2293 ( 31468 PWs)   bands (ev):

   -66.2204 -66.2204 -66.2202 -66.2202 -30.5784 -30.5784 -30.5439 -30.5439
   -30.5150 -30.5150 -30.5131 -30.5131 -30.5115 -30.5115 -30.5112 -30.5112
   -20.3753 -20.3753 -20.3752 -20.3752 -20.3623 -20.3623 -20.3612 -20.3612
   -20.3612 -20.3612 -20.3591 -20.3591 -20.3539 -20.3539 -20.3537 -20.3537
   -20.3535 -20.3535 -20.3535 -20.3535 -20.3520 -20.3520 -20.3520 -20.3520
   -20.3514 -20.3514 -20.3514 -20.3514  -9.3360  -9.3360  -8.9538  -8.9538
    -8.5437  -8.5437  -8.4891  -8.4891  -8.4768  -8.4768  -8.1647  -8.1647
     2.1169   2.1169   2.7646   2.7646   2.8919   2.8919   2.9324   2.9324
     3.0370   3.0370   3.9628   3.9628   4.0098   4.0098   4.0383   4.0383
     4.1788   4.1788   4.1858   4.1858   4.7003   4.7003   5.0145   5.0145
     6.9490   6.9490   6.9618   6.9618   7.4394   7.4394   7.4642   7.4642
     7.5502   7.5502   7.7306   7.7306  11.6281  11.6281  11.7521  11.7521
    11.9391  11.9391  11.9519  11.9519  12.5879  12.5879  12.7067  12.7067
    16.1994  16.1994  16.7209  16.7209  17.0935  17.0935  17.5844

          k = 0.0000-0.5000-0.3440 ( 31424 PWs)   bands (ev):

   -66.2203 -66.2203 -66.2203 -66.2203 -30.5608 -30.5608 -30.5608 -30.5608
   -30.5141 -30.5141 -30.5141 -30.5141 -30.5118 -30.5118 -30.5118 -30.5118
   -20.3753 -20.3753 -20.3752 -20.3752 -20.3612 -20.3612 -20.3612 -20.3612
   -20.3607 -20.3607 -20.3607 -20.3607 -20.3538 -20.3538 -20.3538 -20.3538
   -20.3535 -20.3535 -20.3535 -20.3535 -20.3518 -20.3517 -20.3517 -20.3517
   -20.3517 -20.3517 -20.3517 -20.3517  -9.1102  -9.1102  -9.1102  -9.1102
    -8.4831  -8.4831  -8.4831  -8.4831  -8.4089  -8.4088  -8.4088  -8.4088
     2.8336   2.8337   2.8337   2.8337   2.8520   2.8520   2.8520   2.8520
     3.2619   3.2620   3.2620   3.2620   4.1026   4.1026   4.1026   4.1026
     4.2916   4.2916   4.2916   4.2916   4.4272   4.4272   4.4272   4.4272
     7.2672   7.2673   7.2673   7.2673   7.3048   7.3048   7.3048   7.3048
     7.6058   7.6058   7.6058   7.6058  11.7253  11.7253  11.7253  11.7253
    12.1915  12.1915  12.1915  12.1915  12.2972  12.2972  12.2972  12.2972
    16.7605  16.7605  16.7605  16.7605  17.5260  17.5260  17.5260

          k = 0.1667 0.1667 0.0000 ( 31455 PWs)   bands (ev):

   -66.2210 -66.2205 -66.2201 -66.2196 -30.5968 -30.5937 -30.5565 -30.5522
   -30.5375 -30.5299 -30.5220 -30.5192 -30.4957 -30.4933 -30.4753 -30.4719
   -20.3753 -20.3753 -20.3752 -20.3752 -20.3639 -20.3637 -20.3608 -20.3608
   -20.3608 -20.3607 -20.3572 -20.3571 -20.3570 -20.3568 -20.3547 -20.3546
   -20.3533 -20.3532 -20.3527 -20.3524 -20.3524 -20.3523 -20.3519 -20.3517
   -20.3509 -20.3507 -20.3502 -20.3498  -9.9851  -9.5342  -9.3834  -8.9706
    -8.8521  -8.8129  -8.2603  -8.2193  -7.8465  -7.8280  -7.8033  -7.7585
     1.0860   1.2144   1.2406   1.2547   2.2390   2.2475   2.3622   2.6576
     2.7884   2.9015   3.6995   3.9013   3.9960   4.5674   4.7512   4.9228
     5.3077   5.4077   5.6036   5.8325   5.9652   6.0374   6.1278   6.2712
     6.3910   6.4007   6.4223   6.5582   6.7407   6.8805   7.1699   7.3337
     8.0278   8.0704   8.0763   8.3016   9.5338  10.0754  10.1021  10.6507
    12.3547  12.4564  12.7454  13.2755  13.3293  13.3458  13.5654  13.7624
    14.1770  14.8293  15.0106  15.2230  15.4257  17.1593  17.2174

          k = 0.1667 0.1667 0.1147 ( 31479 PWs)   bands (ev):

   -66.2210 -66.2206 -66.2201 -66.2196 -30.5919 -30.5889 -30.5562 -30.5525
   -30.5383 -30.5301 -30.5267 -30.5231 -30.4957 -30.4936 -30.4751 -30.4722
   -20.3753 -20.3753 -20.3752 -20.3752 -20.3634 -20.3633 -20.3608 -20.3608
   -20.3608 -20.3607 -20.3575 -20.3575 -20.3571 -20.3568 -20.3547 -20.3547
   -20.3533 -20.3532 -20.3526 -20.3524 -20.3523 -20.3522 -20.3519 -20.3517
   -20.3509 -20.3508 -20.3502 -20.3498  -9.9384  -9.5503  -9.3008  -8.9485
    -8.8547  -8.7942  -8.2796  -8.2164  -7.9506  -7.8760  -7.8264  -7.8050
     1.1905   1.2141   1.3962   1.5177   2.2448   2.2509   2.4334   2.7238
     2.7963   2.8946   3.6254   3.7831   4.0031   4.5832   4.6662   4.8139
     5.0415   5.4160   5.4395   5.6256   5.7437   6.0943   6.3018   6.3292
     6.3798   6.4186   6.5683   6.5809   6.7373   6.9508   7.0374   7.3314
     8.0033   8.0479   8.0621   8.2151   9.7752  10.0770  10.1064  10.7648
    12.2560  12.4344  12.5847  13.2928  13.3311  13.3493  13.4590  13.9980
    14.0808  14.8169  15.1540  15.3400  15.8448  16.6784  17.2580

          k = 0.1667 0.1667 0.2293 ( 31481 PWs)   bands (ev):

   -66.2209 -66.2207 -66.2200 -66.2197 -30.5787 -30.5757 -30.5554 -30.5533
   -30.5447 -30.5397 -30.5306 -30.5296 -30.4955 -30.4941 -30.4745 -30.4728
   -20.3753 -20.3753 -20.3752 -20.3752 -20.3622 -20.3621 -20.3608 -20.3608
   -20.3607 -20.3607 -20.3587 -20.3587 -20.3571 -20.3569 -20.3547 -20.3547
   -20.3533 -20.3532 -20.3525 -20.3523 -20.3522 -20.3522 -20.3520 -20.3518
   -20.3511 -20.3510 -20.3502 -20.3500  -9.8226  -9.6018  -9.0670  -8.9044
    -8.8626  -8.7048  -8.4069  -8.2068  -8.1896  -8.1095  -7.8219  -7.8095
     1.2079   1.2131   2.0680   2.1141   2.2353   2.4082   2.6404   2.8114
     2.8779   2.9308   3.3939   3.4077   3.9847   4.2058   4.5032   4.6406
     4.8885   4.9867   5.2012   5.3201   5.4559   5.8782   6.3917   6.4094
     6.4177   6.6084   6.7243   6.7850   6.9394   6.9855   7.1412   7.3138
     7.8093   7.9059   8.0596   8.0893  10.0796  10.0807  10.3984  11.1030
    11.7850  12.1591  12.5811  13.1480  13.3298  13.3329  13.4388  13.8521
    14.4025  14.7729  15.3303  15.9728  16.1274  16.8691  17.3749

          k = 0.1667 0.1667-0.3440 ( 31462 PWs)   bands (ev):

   -66.2208 -66.2208 -66.2198 -66.2198 -30.5609 -30.5609 -30.5577 -30.5577
   -30.5543 -30.5543 -30.5310 -30.5310 -30.4949 -30.4949 -30.4736 -30.4736
   -20.3753 -20.3753 -20.3752 -20.3752 -20.3609 -20.3609 -20.3608 -20.3608
   -20.3604 -20.3604 -20.3602 -20.3602 -20.3570 -20.3570 -20.3547 -20.3547
   -20.3532 -20.3532 -20.3523 -20.3523 -20.3521 -20.3521 -20.3519 -20.3519
   -20.3511 -20.3511 -20.3502 -20.3502  -9.6953  -9.6953  -8.8771  -8.8771
    -8.7303  -8.7303  -8.4903  -8.4903  -8.1853  -8.1853  -7.8157  -7.8157
     1.2114   1.2114   2.2149   2.2149   2.8305   2.8305   2.9913   2.9913
     3.0131   3.0131   3.0946   3.0946   3.4850   3.4850   4.5194   4.5194
     4.7963   4.7963   5.1925   5.1925   5.5834   5.5835   6.4141   6.4141
     6.5467   6.5467   6.7083   6.7083   7.2471   7.2471   7.4711   7.4712
     7.4748   7.4748   8.0719   8.0719  10.0841  10.0841  11.1140  11.1140
    11.6105  11.6105  12.8335  12.8335  13.3332  13.3332  13.6100  13.6100
    14.6611  14.6611  15.6449  15.6450  16.8019  16.8019  17.6302

          k = 0.1667 0.3333 0.0000 ( 31442 PWs)   bands (ev):

   -66.2208 -66.2203 -66.2203 -66.2198 -30.5965 -30.5948 -30.5527 -30.5476
   -30.5273 -30.5260 -30.5134 -30.5118 -30.5097 -30.5094 -30.4796 -30.4763
   -20.3753 -20.3753 -20.3752 -20.3752 -20.3639 -20.3638 -20.3610 -20.3610
   -20.3609 -20.3609 -20.3576 -20.3573 -20.3565 -20.3562 -20.3542 -20.3539
   -20.3534 -20.3533 -20.3527 -20.3525 -20.3524 -20.3521 -20.3517 -20.3516
   -20.3512 -20.3512 -20.3503 -20.3500  -9.8329  -9.4696  -9.3525  -8.9196
    -8.6641  -8.5897  -8.5665  -8.5470  -7.9543  -7.9449  -7.8197  -7.7750
     1.1287   1.2105   1.4747   1.4959   2.4306   2.7203   2.7896   3.0117
     3.0983   3.3325   3.3927   3.8264   3.8798   3.9632   4.4797   4.9162
     4.9358   5.0680   5.2243   5.6920   5.8058   5.8269   5.8901   5.9955
     6.1580   6.2211   6.4283   6.6496   6.8240   6.9357   6.9568   7.6576
     7.6696   7.7351   7.7634   8.2454   9.9082  11.0140  11.0461  11.5611
    11.5655  12.5120  12.7806  12.8078  13.0238  13.1167  13.1442  14.0038
    14.1025  15.1555  15.5344  15.5848  16.3309  17.3846  17.4624

          k = 0.1667 0.3333 0.1147 ( 31458 PWs)   bands (ev):

   -66.2208 -66.2204 -66.2203 -66.2198 -30.5917 -30.5900 -30.5525 -30.5478
   -30.5305 -30.5297 -30.5137 -30.5132 -30.5103 -30.5099 -30.4794 -30.4766
   -20.3753 -20.3753 -20.3752 -20.3752 -20.3635 -20.3634 -20.3610 -20.3610
   -20.3609 -20.3609 -20.3579 -20.3577 -20.3565 -20.3564 -20.3542 -20.3539
   -20.3534 -20.3533 -20.3527 -20.3524 -20.3523 -20.3521 -20.3517 -20.3516
   -20.3513 -20.3513 -20.3503 -20.3500  -9.7804  -9.3923  -9.3673  -8.8905
    -8.6784  -8.5943  -8.5607  -8.5387  -7.9765  -7.9525  -7.9094  -7.8810
     1.3583   1.4439   1.4741   1.5593   2.5035   2.7514   2.8289   2.9975
     3.0873   3.3312   3.3890   3.7882   3.8878   3.9274   4.5441   4.6476
     4.9211   4.9333   4.9975   5.4427   5.6914   5.6965   5.7051   6.0440
     6.3694   6.4102   6.5512   6.6734   6.8209   6.9250   6.9993   7.6583
     7.6627   7.7046   7.7321   8.1630  10.0945  11.0149  11.0458  11.6205
    11.6462  12.3439  12.7756  12.8015  12.9754  12.9984  13.0768  13.9014
    14.3748  15.5093  15.5502  15.7442  16.3992  17.1822  17.4896

          k = 0.1667 0.3333 0.2293 ( 31455 PWs)   bands (ev):

   -66.2207 -66.2205 -66.2202 -66.2199 -30.5786 -30.5769 -30.5525 -30.5484
   -30.5418 -30.5409 -30.5147 -30.5142 -30.5112 -30.5104 -30.4788 -30.4772
   -20.3753 -20.3753 -20.3752 -20.3752 -20.3623 -20.3622 -20.3610 -20.3610
   -20.3609 -20.3609 -20.3589 -20.3589 -20.3565 -20.3565 -20.3542 -20.3540
   -20.3533 -20.3533 -20.3524 -20.3523 -20.3522 -20.3520 -20.3518 -20.3516
   -20.3516 -20.3515 -20.3504 -20.3502  -9.6504  -9.4164  -9.1806  -8.7968
    -8.7391  -8.6120  -8.5357  -8.5071  -8.2044  -8.1682  -7.9475  -7.9304
     1.4606   1.4723   2.0981   2.2076   2.7187   2.8391   2.9352   2.9538
     3.0451   3.3057   3.3798   3.4563   4.0159   4.0225   4.0832   4.2862
     4.7173   4.8017   4.9018   4.9705   4.9832   5.5308   5.6999   5.7744
     6.6576   6.7364   6.8037   6.8662   6.9052   7.0063   7.1705   7.5810
     7.6105   7.6457   7.6836   7.9293  10.5829  11.0162  11.0502  11.8196
    11.8634  11.9027  12.5865  12.6507  12.7931  12.8139  13.1869  13.6556
    14.8699  15.4206  16.1242  16.4795  16.7387  16.8066  17.5356

          k = 0.1667 0.3333-0.3440 ( 31486 PWs)   bands (ev):

   -66.2206 -66.2206 -66.2200 -66.2200 -30.5614 -30.5614 -30.5591 -30.5590
   -30.5487 -30.5487 -30.5148 -30.5148 -30.5110 -30.5110 -30.4780 -30.4780
   -20.3753 -20.3753 -20.3752 -20.3752 -20.3610 -20.3610 -20.3610 -20.3610
   -20.3605 -20.3605 -20.3605 -20.3604 -20.3565 -20.3565 -20.3541 -20.3541
   -20.3533 -20.3533 -20.3522 -20.3522 -20.3521 -20.3521 -20.3517 -20.3517
   -20.3517 -20.3517 -20.3503 -20.3503  -9.5116  -9.5116  -8.9133  -8.9132
    -8.6693  -8.6690  -8.4368  -8.4358  -8.4146  -8.4137  -7.9402  -7.9401
     1.4687   1.4689   2.8350   2.8355   2.8986   2.8987   2.9924   2.9985
     3.1649   3.1703   3.3396   3.3418   3.4022   3.4049   4.3160   4.3178
     4.3878   4.3879   4.8489   4.8761   5.1532   5.1790   5.7133   5.7143
     6.7560   6.7663   6.8154   6.8254   7.3563   7.3576   7.3796   7.3925
     7.4377   7.4453   7.7242   7.7273  10.9978  11.0041  11.2701  11.2807
    12.1675  12.1751  12.2328  12.2347  12.7888  12.8067  13.3831  13.3948
    15.2232  15.2285  16.4492  16.4536  17.3312  17.3472  17.4764

          k = 0.1667-0.5000 0.0000 ( 31478 PWs)   bands (ev):

   -66.2206 -66.2206 -66.2200 -66.2200 -30.5959 -30.5959 -30.5406 -30.5406
   -30.5333 -30.5333 -30.5203 -30.5203 -30.4926 -30.4926 -30.4901 -30.4901
   -20.3753 -20.3753 -20.3752 -20.3752 -20.3639 -20.3639 -20.3611 -20.3611
   -20.3610 -20.3610 -20.3575 -20.3575 -20.3554 -20.3554 -20.3550 -20.3550
   -20.3529 -20.3529 -20.3527 -20.3527 -20.3521 -20.3521 -20.3514 -20.3514
   -20.3513 -20.3513 -20.3505 -20.3505  -9.6333  -9.6333  -9.0517  -9.0517
    -8.7916  -8.7916  -8.2468  -8.2468  -8.2431  -8.2431  -7.7978  -7.7978
     1.1709   1.1709   2.1277   2.1277   2.1465   2.1465   2.6411   2.6411
     3.6976   3.6976   3.9627   3.9627   4.1541   4.1541   4.2290   4.2290
     4.7171   4.7171   5.1090   5.1090   5.5983   5.5983   5.8795   5.8795
     6.2584   6.2584   6.5276   6.5276   7.1961   7.1962   7.2250   7.2250
     7.2668   7.2668   8.0730   8.0730  10.6856  10.6856  11.9637  11.9637
    11.9908  11.9908  12.4176  12.4176  12.7432  12.7432  13.6039  13.6039
    14.6837  14.6837  16.4602  16.4602  16.7250  16.7250  17.5479

          k = 0.1667-0.5000 0.1147 ( 31460 PWs)   bands (ev):

   -66.2205 -66.2205 -66.2201 -66.2201 -30.5911 -30.5911 -30.5411 -30.5411
   -30.5335 -30.5335 -30.5243 -30.5243 -30.4926 -30.4926 -30.4904 -30.4904
   -20.3753 -20.3753 -20.3752 -20.3752 -20.3635 -20.3635 -20.3611 -20.3611
   -20.3610 -20.3610 -20.3579 -20.3579 -20.3554 -20.3554 -20.3551 -20.3551
   -20.3528 -20.3528 -20.3526 -20.3526 -20.3521 -20.3521 -20.3515 -20.3515
   -20.3513 -20.3513 -20.3506 -20.3506  -9.5688  -9.5688  -9.0656  -9.0656
    -8.7712  -8.7712  -8.2548  -8.2548  -8.2406  -8.2406  -7.9063  -7.9063
     1.4291   1.4291   2.1347   2.1347   2.1441   2.1441   2.7125   2.7125
     3.6354   3.6354   4.0062   4.0062   4.1730   4.1730   4.1941   4.1941
     4.7260   4.7260   4.8789   4.8789   5.2492   5.2492   5.8648   5.8648
     6.3319   6.3319   6.7180   6.7180   7.1897   7.1897   7.2253   7.2253
     7.2729   7.2729   8.0107   8.0107  10.7988  10.7988  11.9618  11.9618
    11.9899  11.9899  12.4633  12.4633  12.5890  12.5890  13.4843  13.4843
    15.0280  15.0280  16.5560  16.5560  16.6850  16.6850  17.5850

          k = 0.1667-0.5000 0.2293 ( 31454 PWs)   bands (ev):

   -66.2204 -66.2204 -66.2202 -66.2202 -30.5781 -30.5781 -30.5458 -30.5458
   -30.5340 -30.5340 -30.5320 -30.5320 -30.4923 -30.4923 -30.4909 -30.4909
   -20.3753 -20.3753 -20.3752 -20.3752 -20.3623 -20.3623 -20.3611 -20.3611
   -20.3610 -20.3610 -20.3590 -20.3590 -20.3554 -20.3554 -20.3553 -20.3553
   -20.3527 -20.3527 -20.3524 -20.3524 -20.3523 -20.3523 -20.3517 -20.3517
   -20.3512 -20.3512 -20.3508 -20.3508  -9.4039  -9.4039  -9.1152  -9.1152
    -8.6957  -8.6957  -8.3122  -8.3122  -8.2326  -8.2326  -8.1310  -8.1310
     2.0277   2.0277   2.1362   2.1362   2.2467   2.2467   2.9268   2.9268
     3.4142   3.4142   4.0620   4.0620   4.0907   4.0907   4.2875   4.2875
     4.3333   4.3333   4.7589   4.7589   4.8888   4.8888   5.2634   5.2634
     6.8136   6.8136   6.9861   6.9861   7.1637   7.1637   7.2167   7.2167
     7.3170   7.3170   7.8203   7.8203  11.1286  11.1286  11.9411  11.9411
    11.9885  11.9885  12.2000  12.2000  12.6094  12.6094  13.1914  13.1914
    15.7337  15.7337  16.5408  16.5408  16.8607  16.8607  17.4511

          k = 0.1667-0.5000-0.3440 ( 31456 PWs)   bands (ev):

   -66.2203 -66.2203 -66.2203 -66.2203 -30.5607 -30.5607 -30.5607 -30.5607
   -30.5342 -30.5342 -30.5342 -30.5342 -30.4917 -30.4917 -30.4917 -30.4917
   -20.3753 -20.3753 -20.3752 -20.3752 -20.3611 -20.3610 -20.3610 -20.3610
   -20.3606 -20.3606 -20.3606 -20.3606 -20.3554 -20.3554 -20.3554 -20.3554
   -20.3524 -20.3524 -20.3524 -20.3524 -20.3521 -20.3521 -20.3520 -20.3520
   -20.3510 -20.3510 -20.3510 -20.3510  -9.2259  -9.2259  -9.2258  -9.2258
    -8.5252  -8.5252  -8.5250  -8.5250  -8.2145  -8.2145  -8.2143  -8.2143
     2.1214   2.1214   2.1217   2.1217   2.9881   2.9881   2.9895   2.9895
     3.3784   3.3784   3.3818   3.3818   4.0850   4.0850   4.0998   4.0998
     4.6276   4.6276   4.6354   4.6354   4.8599   4.8599   4.8613   4.8613
     7.0823   7.0823   7.0836   7.0836   7.1599   7.1600   7.1677   7.1677
     7.5220   7.5220   7.5267   7.5267  11.6031  11.6031  11.6166  11.6166
    11.9883  11.9883  12.0125  12.0126  12.8589  12.8589  12.8688  12.8688
    16.2537  16.2537  16.2669  16.2669  17.2079  17.2079  17.2330

          k = 0.3333 0.3333 0.0000 ( 31458 PWs)   bands (ev):

   -66.2207 -66.2204 -66.2202 -66.2199 -30.5955 -30.5950 -30.5589 -30.5545
   -30.5415 -30.5344 -30.5229 -30.5187 -30.4917 -30.4891 -30.4732 -30.4699
   -20.3753 -20.3753 -20.3752 -20.3752 -20.3639 -20.3638 -20.3609 -20.3609
   -20.3607 -20.3606 -20.3576 -20.3574 -20.3573 -20.3569 -20.3557 -20.3552
   -20.3529 -20.3528 -20.3527 -20.3527 -20.3519 -20.3515 -20.3515 -20.3515
   -20.3509 -20.3508 -20.3499 -20.3496  -9.8038  -9.5746  -9.3698  -9.0072
    -8.9463  -8.7831  -8.2617  -8.2562  -7.8558  -7.8295  -7.8204  -7.7844
     1.1170   1.2032   1.2231   1.2828   2.1247   2.1413   2.3366   2.6464
     3.6989   3.7987   3.9097   4.0182   4.0347   4.6657   4.7790   4.9257
     4.9840   5.1255   5.3212   5.6633   5.6984   5.7409   5.9715   6.0349
     6.2839   6.3259   6.3857   6.3918   6.5542   6.7797   7.1079   7.1474
     7.1777   7.2584   8.0652   8.2936   9.5988  10.6928  11.6958  11.7308
    12.3999  12.4371  12.6682  12.6828  12.7438  13.2588  13.6053  13.8783
    14.1805  14.7312  15.2398  16.0647  16.7957  16.9517  17.5703

          k = 0.3333 0.3333 0.1147 ( 31457 PWs)   bands (ev):

   -66.2207 -66.2204 -66.2202 -66.2199 -30.5907 -30.5902 -30.5586 -30.5548
   -30.5418 -30.5346 -30.5276 -30.5230 -30.4916 -30.4893 -30.4730 -30.4701
   -20.3753 -20.3753 -20.3752 -20.3752 -20.3634 -20.3633 -20.3609 -20.3609
   -20.3607 -20.3607 -20.3577 -20.3576 -20.3573 -20.3573 -20.3557 -20.3554
   -20.3528 -20.3528 -20.3527 -20.3526 -20.3519 -20.3516 -20.3516 -20.3516
   -20.3509 -20.3508 -20.3499 -20.3496  -9.7534  -9.5087  -9.3824  -9.0193
    -8.9119  -8.7633  -8.2704  -8.2535  -7.9329  -7.8980  -7.8540  -7.8313
     1.1989   1.2228   1.4313   1.5003   2.1319   2.1388   2.4101   2.7206
     3.6867   3.7933   3.8003   3.8540   4.0872   4.6765   4.8313   4.8859
     4.9336   4.9391   5.0288   5.2973   5.8366   5.8750   5.9746   6.0213
     6.0854   6.3779   6.4218   6.5007   6.6156   6.8532   7.0500   7.1404
     7.1473   7.2565   8.0019   8.2028   9.8377  10.8094  11.6964  11.7292
    12.2675  12.4439  12.5749  12.6698  12.6930  13.2914  13.4842  14.0816
    14.1226  15.0681  15.2110  16.2257  16.7531  17.0502  17.6451

          k = 0.3333 0.3333 0.2293 ( 31452 PWs)   bands (ev):

   -66.2206 -66.2203 -66.2203 -66.2200 -30.5774 -30.5771 -30.5578 -30.5556
   -30.5456 -30.5409 -30.5350 -30.5320 -30.4913 -30.4899 -30.4724 -30.4707
   -20.3753 -20.3753 -20.3752 -20.3752 -20.3622 -20.3621 -20.3609 -20.3609
   -20.3607 -20.3607 -20.3588 -20.3586 -20.3575 -20.3574 -20.3556 -20.3555
   -20.3526 -20.3526 -20.3525 -20.3524 -20.3520 -20.3519 -20.3518 -20.3517
   -20.3509 -20.3508 -20.3499 -20.3498  -9.6314  -9.4243  -9.3409  -9.0631
    -8.7937  -8.6872  -8.3323  -8.2450  -8.2065  -8.1362  -7.8493  -7.8361
     1.2167   1.2221   2.0188   2.1311   2.2266   2.2453   2.6256   2.9446
     3.3881   3.4923   3.7459   3.7793   4.2579   4.2898   4.3084   4.7173
     4.8435   4.8890   4.8976   5.0771   5.2655   5.7042   5.9840   6.0381
     6.2362   6.3596   6.5083   6.7866   6.8224   7.0032   7.0660   7.1167
     7.2280   7.2577   7.8054   7.9369  10.4205  11.1450  11.6771  11.7252
    11.8228  12.1671  12.5891  12.6737  12.6847  13.1812  13.4022  13.8452
    14.5767  15.1141  15.7743  16.6144  16.6159  17.3547  17.4482

          k = 0.3333 0.3333-0.3440 ( 31464 PWs)   bands (ev):

   -66.2205 -66.2205 -66.2202 -66.2201 -30.5598 -30.5598 -30.5591 -30.5591
   -30.5567 -30.5567 -30.5352 -30.5352 -30.4906 -30.4906 -30.4715 -30.4715
   -20.3753 -20.3753 -20.3752 -20.3752 -20.3610 -20.3610 -20.3608 -20.3608
   -20.3604 -20.3604 -20.3602 -20.3602 -20.3574 -20.3574 -20.3556 -20.3556
   -20.3524 -20.3524 -20.3523 -20.3523 -20.3521 -20.3521 -20.3519 -20.3519
   -20.3509 -20.3509 -20.3499 -20.3499  -9.5067  -9.5067  -9.1654  -9.1653
    -8.5707  -8.5707  -8.5023  -8.5023  -8.2256  -8.2256  -7.8427  -7.8427
     1.2205   1.2205   2.1161   2.1161   2.9656   2.9656   3.0036   3.0036
     3.2373   3.2373   3.4113   3.4113   3.7602   3.7602   4.5861   4.5861
     4.8396   4.8397   4.8971   4.8971   5.3717   5.3717   6.0005   6.0005
     6.3203   6.3203   6.6441   6.6441   7.0468   7.0468   7.1720   7.1720
     7.4715   7.4715   7.5458   7.5458  11.1254  11.1254  11.6389  11.6389
    11.7216  11.7217  12.6785  12.6785  12.8476  12.8476  13.5913  13.5913
    14.9179  14.9179  16.3276  16.3276  17.0068  17.0068  17.8082

          k = 0.3333-0.5000 0.0000 ( 31446 PWs)   bands (ev):

   -66.2206 -66.2206 -66.2200 -66.2200 -30.5951 -30.5951 -30.5546 -30.5546
   -30.5495 -30.5495 -30.5210 -30.5210 -30.4777 -30.4777 -30.4745 -30.4745
   -20.3753 -20.3753 -20.3752 -20.3752 -20.3638 -20.3638 -20.3608 -20.3608
   -20.3607 -20.3607 -20.3576 -20.3576 -20.3569 -20.3569 -20.3563 -20.3563
   -20.3529 -20.3529 -20.3527 -20.3527 -20.3516 -20.3516 -20.3516 -20.3516
   -20.3503 -20.3503 -20.3497 -20.3497  -9.7094  -9.7094  -9.2558  -9.2558
    -8.9064  -8.9064  -7.9774  -7.9774  -7.9645  -7.9645  -7.7987  -7.7987
     1.1727   1.1727   1.4720   1.4720   1.4990   1.4990   2.4167   2.4167
     4.0510   4.0510   4.3680   4.3680   4.4062   4.4062   4.5499   4.5499
     5.4105   5.4105   5.5470   5.5470   5.6674   5.6674   5.8032   5.8032
     6.4382   6.4382   6.5791   6.5791   6.5966   6.5966   6.7186   6.7186
     7.0241   7.0241   8.2374   8.2374   9.9458   9.9458  12.3014  12.3014
    12.3271  12.3271  12.5105  12.5105  13.0200  13.0200  14.0103  14.0103
    14.1723  14.1723  15.7342  15.7342  16.7498  16.7498  17.5378

          k = 0.3333-0.5000 0.1147 ( 31462 PWs)   bands (ev):

   -66.2205 -66.2205 -66.2201 -66.2201 -30.5903 -30.5903 -30.5544 -30.5544
   -30.5498 -30.5498 -30.5258 -30.5258 -30.4775 -30.4775 -30.4747 -30.4747
   -20.3753 -20.3753 -20.3752 -20.3752 -20.3633 -20.3633 -20.3608 -20.3608
   -20.3607 -20.3607 -20.3578 -20.3578 -20.3569 -20.3569 -20.3566 -20.3566
   -20.3528 -20.3528 -20.3526 -20.3526 -20.3517 -20.3517 -20.3516 -20.3516
   -20.3502 -20.3502 -20.3498 -20.3498  -9.6549  -9.6549  -9.2677  -9.2677
    -8.8753  -8.8753  -7.9865  -7.9865  -7.9754  -7.9754  -7.8956  -7.8956
     1.3755   1.3755   1.4715   1.4715   1.5635   1.5635   2.4921   2.4921
     3.8648   3.8648   4.3750   4.3750   4.3877   4.3878   4.6012   4.6012
     5.1201   5.1201   5.5508   5.5508   5.5535   5.5535   6.0212   6.0212
     6.2300   6.2300   6.5913   6.5914   6.7209   6.7209   6.7475   6.7475
     6.9878   6.9878   8.1532   8.1532  10.1326  10.1326  12.2925  12.2925
    12.3237  12.3237  12.3555  12.3555  13.0545  13.0545  13.9046  13.9046
    14.4451  14.4451  15.7017  15.7017  16.8985  16.8985  17.6104

          k = 0.3333-0.5000 0.2293 ( 31490 PWs)   bands (ev):

   -66.2204 -66.2204 -66.2202 -66.2202 -30.5772 -30.5772 -30.5542 -30.5542
   -30.5504 -30.5504 -30.5388 -30.5388 -30.4770 -30.4770 -30.4754 -30.4754
   -20.3753 -20.3753 -20.3752 -20.3752 -20.3621 -20.3621 -20.3607 -20.3607
   -20.3607 -20.3607 -20.3588 -20.3588 -20.3569 -20.3569 -20.3569 -20.3569
   -20.3526 -20.3526 -20.3523 -20.3523 -20.3519 -20.3519 -20.3518 -20.3518
   -20.3502 -20.3502 -20.3499 -20.3499  -9.5228  -9.5227  -9.3078  -9.3078
    -8.7639  -8.7639  -8.2225  -8.2225  -7.9702  -7.9702  -7.9518  -7.9518
     1.4584   1.4584   1.4698   1.4698   2.2016   2.2016   2.7201   2.7201
     3.4452   3.4452   4.3158   4.3158   4.3740   4.3740   4.3915   4.3915
     4.7831   4.7831   5.4047   5.4047   5.5684   5.5684   5.7486   5.7486
     6.4183   6.4183   6.5729   6.5729   6.7885   6.7885   6.9221   6.9221
     7.0554   7.0554   7.9016   7.9016  10.6244  10.6244  11.8847  11.8847
    12.3113  12.3113  12.3225  12.3225  13.1686  13.1686  13.6503  13.6503
    14.9715  14.9715  15.5932  15.5932  17.2654  17.2654  17.7613

          k = 0.3333-0.5000-0.3440 ( 31496 PWs)   bands (ev):

   -66.2203 -66.2203 -66.2203 -66.2203 -30.5602 -30.5602 -30.5602 -30.5602
   -30.5501 -30.5501 -30.5501 -30.5501 -30.4762 -30.4762 -30.4762 -30.4762
   -20.3753 -20.3752 -20.3752 -20.3752 -20.3607 -20.3607 -20.3607 -20.3607
   -20.3604 -20.3604 -20.3604 -20.3604 -20.3569 -20.3569 -20.3569 -20.3569
   -20.3523 -20.3523 -20.3523 -20.3523 -20.3520 -20.3520 -20.3520 -20.3520
   -20.3501 -20.3501 -20.3501 -20.3501  -9.3905  -9.3905  -9.3905  -9.3905
    -8.5367  -8.5367  -8.5366  -8.5366  -7.9625  -7.9625  -7.9624  -7.9624
     1.4666   1.4666   1.4667   1.4667   2.9840   2.9840   2.9850   2.9850
     3.2885   3.2885   3.2889   3.2889   4.3792   4.3792   4.3857   4.3857
     5.0836   5.0836   5.0899   5.0899   5.6061   5.6061   5.6084   5.6084
     6.5284   6.5284   6.5303   6.5303   6.8603   6.8603   6.8612   6.8612
     7.5030   7.5030   7.5042   7.5042  11.2637  11.2637  11.2647  11.2647
    12.3143  12.3143  12.3186  12.3186  13.3733  13.3733  13.3763  13.3763
    15.3692  15.3692  15.3721  15.3721  17.5513  17.5541  17.5591

          k =-0.5000-0.5000 0.0000 ( 31392 PWs)   bands (ev):

   -66.2206 -66.2206 -66.2200 -66.2200 -30.5946 -30.5946 -30.5601 -30.5601
   -30.5557 -30.5557 -30.5211 -30.5211 -30.4722 -30.4722 -30.4688 -30.4688
   -20.3753 -20.3753 -20.3752 -20.3752 -20.3637 -20.3637 -20.3605 -20.3605
   -20.3604 -20.3604 -20.3578 -20.3578 -20.3576 -20.3576 -20.3567 -20.3567
   -20.3530 -20.3530 -20.3526 -20.3526 -20.3517 -20.3517 -20.3514 -20.3514
   -20.3499 -20.3499 -20.3494 -20.3494  -9.7462  -9.7462  -9.3307  -9.3307
    -8.9388  -8.9388  -7.8694  -7.8694  -7.8424  -7.8424  -7.8062  -7.8062
     1.1402   1.1402   1.2206   1.2206   1.2916   1.2916   2.3279   2.3279
     4.1351   4.1351   4.5901   4.5901   4.6535   4.6535   4.7562   4.7562
     5.4495   5.4495   5.4910   5.4910   5.9007   5.9007   5.9951   5.9951
     6.2655   6.2655   6.3799   6.3799   6.4189   6.4189   6.5581   6.5581
     7.1763   7.1763   8.2899   8.2899   9.6209   9.6209  12.4347  12.4347
    12.4500  12.4500  12.4733  12.4733  13.2524  13.2524  13.9016  13.9016
    14.1824  14.1824  15.3125  15.3125  16.9162  16.9162  17.5974

          k =-0.5000-0.5000 0.1147 ( 31496 PWs)   bands (ev):

   -66.2205 -66.2205 -66.2201 -66.2201 -30.5897 -30.5897 -30.5598 -30.5598
   -30.5560 -30.5560 -30.5261 -30.5261 -30.4719 -30.4719 -30.4690 -30.4690
   -20.3753 -20.3753 -20.3752 -20.3752 -20.3633 -20.3633 -20.3605 -20.3605
   -20.3604 -20.3604 -20.3578 -20.3578 -20.3576 -20.3576 -20.3572 -20.3572
   -20.3529 -20.3529 -20.3525 -20.3525 -20.3518 -20.3518 -20.3515 -20.3515
   -20.3498 -20.3498 -20.3494 -20.3494  -9.6958  -9.6958  -9.3420  -9.3420
    -8.9035  -8.9035  -7.9238  -7.9238  -7.8676  -7.8676  -7.8442  -7.8442
     1.2000   1.2000   1.2204   1.2204   1.5013   1.5013   2.4027   2.4027
     3.8884   3.8884   4.5943   4.5943   4.6492   4.6492   4.8226   4.8226
     5.1480   5.1480   5.6045   5.6045   5.9044   5.9044   6.0218   6.0218
     6.2469   6.2469   6.2722   6.2722   6.4480   6.4480   6.6643   6.6643
     7.0522   7.0522   8.1983   8.1983   9.8587   9.8587  12.2642  12.2642
    12.4520  12.4520  12.4719  12.4719  13.2849  13.2849  14.0818  14.0818
    14.1479  14.1479  15.2827  15.2827  17.1268  17.1268  17.6297

          k =-0.5000-0.5000 0.2293 ( 31512 PWs)   bands (ev):

   -66.2204 -66.2204 -66.2202 -66.2202 -30.5764 -30.5764 -30.5590 -30.5590
   -30.5568 -30.5568 -30.5396 -30.5396 -30.4713 -30.4713 -30.4697 -30.4697
   -20.3753 -20.3753 -20.3752 -20.3752 -20.3620 -20.3620 -20.3605 -20.3605
   -20.3605 -20.3605 -20.3585 -20.3585 -20.3578 -20.3578 -20.3576 -20.3576
   -20.3527 -20.3527 -20.3523 -20.3523 -20.3520 -20.3520 -20.3517 -20.3517
   -20.3498 -20.3498 -20.3496 -20.3496  -9.5752  -9.5752  -9.3800  -9.3800
    -8.7800  -8.7800  -8.2135  -8.2135  -7.8627  -7.8627  -7.8492  -7.8492
     1.2151   1.2151   1.2198   1.2198   2.2212   2.2212   2.6227   2.6227
     3.4215   3.4215   4.3186   4.3186   4.6058   4.6058   4.6378   4.6378
     5.0141   5.0141   5.5765   5.5765   5.9157   5.9157   5.9997   5.9997
     6.1608   6.1608   6.2418   6.2418   6.5321   6.5321   6.8398   6.8398
     7.0221   7.0221   7.9276   7.9276  10.4386  10.4386  11.7971  11.7971
    12.4567  12.4567  12.4680  12.4680  13.3908  13.3908  13.8409  13.8409
    14.6186  14.6186  15.1828  15.1828  17.7199  17.7729  17.7731

          k =-0.5000-0.5000-0.3440 ( 31592 PWs)   bands (ev):

   -66.2203 -66.2203 -66.2203 -66.2203 -30.5581 -30.5581 -30.5580 -30.5580
   -30.5579 -30.5579 -30.5579 -30.5579 -30.4705 -30.4705 -30.4705 -30.4705
   -20.3753 -20.3752 -20.3752 -20.3752 -20.3606 -20.3605 -20.3605 -20.3605
   -20.3602 -20.3602 -20.3602 -20.3602 -20.3577 -20.3577 -20.3577 -20.3577
   -20.3523 -20.3523 -20.3523 -20.3523 -20.3520 -20.3520 -20.3520 -20.3520
   -20.3497 -20.3497 -20.3497 -20.3497  -9.4560  -9.4560  -9.4560  -9.4560
    -8.5386  -8.5386  -8.5386  -8.5386  -7.8560  -7.8560  -7.8560  -7.8560
     1.2184   1.2184   1.2184   1.2184   2.9730   2.9730   2.9730   2.9730
     3.2414   3.2414   3.2414   3.2415   4.6217   4.6217   4.6217   4.6217
     5.2998   5.2998   5.2999   5.2999   5.9384   5.9384   5.9384   5.9384
     6.2077   6.2077   6.2077   6.2077   6.6639   6.6639   6.6639   6.6639
     7.5057   7.5057   7.5057   7.5057  11.1420  11.1420  11.1420  11.1420
    12.4625  12.4626  12.4626  12.4626  13.5824  13.5824  13.5824  13.5824
    14.9786  14.9786  14.9786  14.9786  17.8514  17.8514  17.8514

     the Fermi energy is     9.5737 ev

!    total energy              =   -3130.26216031 Ry
     Harris-Foulkes estimate   =   -3130.26216031 Ry
     estimated scf accuracy    <          3.7E-10 Ry

     The total energy is the sum of the following terms:

     one-electron contribution =   -2388.46757197 Ry
     hartree contribution      =    1312.50495116 Ry
     xc contribution           =    -483.23684769 Ry
     ewald contribution        =   -1571.06261930 Ry
     smearing contrib. (-TS)   =      -0.00007252 Ry

     convergence has been achieved in  12 iterations

     Writing output data file Landau_32.save/
 
     init_run     :      5.31s CPU      5.70s WALL (       1 calls)
     electrons    :    179.94s CPU    183.85s WALL (       1 calls)

     Called by init_run:
     wfcinit      :      4.54s CPU      4.82s WALL (       1 calls)
     potinit      :      0.26s CPU      0.29s WALL (       1 calls)
     hinit0       :      0.41s CPU      0.45s WALL (       1 calls)

     Called by electrons:
     c_bands      :    154.36s CPU    157.89s WALL (      12 calls)
     sum_band     :     22.75s CPU     22.89s WALL (      12 calls)
     v_of_rho     :      0.84s CPU      0.87s WALL (      13 calls)
     mix_rho      :      1.70s CPU      1.87s WALL (      12 calls)

     Called by c_bands:
     init_us_2    :      1.42s CPU      1.52s WALL (      25 calls)
     cegterg      :    134.05s CPU    137.48s WALL (      12 calls)

     Called by sum_band:

     Called by *egterg:
     h_psi        :    109.39s CPU    111.17s WALL (      47 calls)
     g_psi        :      0.26s CPU      0.26s WALL (      34 calls)
     cdiaghg      :      1.36s CPU      1.40s WALL (      46 calls)

     Called by h_psi:
     h_psi:pot    :    109.04s CPU    109.98s WALL (      47 calls)
     h_psi:calbec :     10.73s CPU     11.03s WALL (      47 calls)
     vloc_psi     :     87.04s CPU     87.56s WALL (      47 calls)
     add_vuspsi   :     11.26s CPU     11.39s WALL (      47 calls)

     General routines
     calbec       :     10.73s CPU     11.03s WALL (      47 calls)
     fft          :      0.40s CPU      0.42s WALL (      39 calls)
     ffts         :      0.13s CPU      0.13s WALL (      12 calls)
     fftw         :     88.19s CPU     88.60s WALL (    7936 calls)
 
     Parallel routines
 
     PWSCF        :   3m 5.59s CPU   3m10.32s WALL

 
   This run was terminated on:  16: 9:25  21Nov2019            

=------------------------------------------------------------------------------=
   JOB DONE.
=------------------------------------------------------------------------------=
