
     Program PWSCF v.6.2 (svn rev. 14038) starts on 26Mar2020 at 21:16:30 

     This program is part of the open-source Quantum ESPRESSO suite
     for quantum simulation of materials; please cite
         "P. Giannozzi et al., J. Phys.:Condens. Matter 21 395502 (2009);
         "P. Giannozzi et al., J. Phys.:Condens. Matter 29 465901 (2017);
          URL http://www.quantum-espresso.org", 
     in publications or presentations arising from this work. More details at
     http://www.quantum-espresso.org/quote

     Parallel version (MPI), running on    40 processors

     MPI processes distributed on     5 nodes
     K-points division:     npool     =      40
     Reading input from scf.in

     Current dimensions of program PWSCF are:
     Max number of different atomic species (ntypx) = 10
     Max number of k-points (npk) =  40000
     Max angular momentum in pseudopotentials (lmaxx) =  3

     Subspace diagonalization in iterative solution of the eigenvalue problem:
     a serial algorithm will be used

 
     G-vector sticks info
     --------------------
     sticks:   dense  smooth     PW     G-vecs:    dense   smooth      PW
     Sum        7733    7733   2075               498813   498813   69133
 


     bravais-lattice index     =            0
     lattice parameter (alat)  =      13.8777  a.u.
     unit-cell volume          =    2808.7989 (a.u.)^3
     number of atoms/cell      =           32
     number of atomic types    =            2
     number of electrons       =       368.60
     number of Kohn-Sham states=          221
     kinetic-energy cutoff     =     120.0000  Ry
     charge density cutoff     =     480.0000  Ry
     convergence threshold     =      1.0E-08
     mixing beta               =       0.7000
     number of iterations used =            8  plain     mixing
     Exchange-correlation      = SLA PW NOGX NOGC ( 1  4  0  0 0 0)

     celldm(1)=  13.877706  celldm(2)=   0.000000  celldm(3)=   0.000000
     celldm(4)=   0.000000  celldm(5)=   0.000000  celldm(6)=   0.000000

     crystal axes: (cart. coord. in units of alat)
               a(1) = (   1.000000   0.000000   0.000000 )  
               a(2) = (   0.000000   1.050915   0.000000 )  
               a(3) = (   0.000000   0.000000   1.000000 )  

     reciprocal axes: (cart. coord. in units 2 pi/alat)
               b(1) = (  1.000000  0.000000  0.000000 )  
               b(2) = (  0.000000  0.951552  0.000000 )  
               b(3) = (  0.000000  0.000000  1.000000 )  


     PseudoPot. # 1 for W  read from file:
     /cluster/scratch/mnoe/QE/pps/W_ONCV_LDA-4.0.upf
     MD5 check sum: ba0307d5d4cd419d6f1d13dc49d7c13a
     Pseudo is Norm-conserving + core correction, Zval = 28.0
     Generated using ONCVPSP code by D. R. Hamann
     Using radial grid of 1380 points,  8 beta functions with: 
                l(1) =   0
                l(2) =   0
                l(3) =   1
                l(4) =   1
                l(5) =   2
                l(6) =   2
                l(7) =   3
                l(8) =   3

     PseudoPot. # 2 for O  read from file:
     /cluster/scratch/mnoe/QE/pps/O_ONCV_LDA-3.0.upf
     MD5 check sum: a1bd6164e7280c17a38c229939bfbd54
     Pseudo is Norm-conserving + core correction, Zval =  6.0
     Generated using ONCVPSP code by D. R. Hamann
     Using radial grid of  926 points,  5 beta functions with: 
                l(1) =   0
                l(2) =   0
                l(3) =   1
                l(4) =   1
                l(5) =   2

     atomic species   valence    mass     pseudopotential
        W             28.00   183.84000     W ( 1.00)
        O              6.00    15.99940     O ( 1.00)

      8 Sym. Ops. (no inversion) found ( 7 have fractional translation)



   Cartesian axes

     site n.     atom                  positions (alat units)
         1           W   tau(   1) = (   0.2410173   0.2951013  -0.0002572  )
         2           W   tau(   2) = (   0.7502572   0.7558137  -0.0089827  )
         3           W   tau(   3) = (   0.2589827   0.2303562   0.4997428  )
         4           W   tau(   4) = (   0.7497428   0.8205588   0.4910173  )
         5           W   tau(   5) = (   0.7589827   0.2951013   0.5002572  )
         6           W   tau(   6) = (   0.2497428   0.7558137   0.5089827  )
         7           W   tau(   7) = (   0.7410173   0.2303562   0.0002572  )
         8           W   tau(   8) = (   0.2502572   0.8205588   0.0089827  )
         9           O   tau(   9) = (   0.2401208   0.0084413  -0.0071672  )
        10           O   tau(  10) = (   0.7571672  -0.0084413  -0.0098792  )
        11           O   tau(  11) = (   0.2598792   0.5170162   0.4928328  )
        12           O   tau(  12) = (   0.7428328   0.5338988   0.4901208  )
        13           O   tau(  13) = (   0.7598792   0.0084413   0.5071672  )
        14           O   tau(  14) = (   0.2428328  -0.0084413   0.5098792  )
        15           O   tau(  15) = (   0.7401208   0.5170162   0.0071672  )
        16           O   tau(  16) = (   0.2571672   0.5338988   0.0098792  )
        17           O   tau(  17) = (   0.5031790   0.2515356   0.4521217  )
        18           O   tau(  18) = (   0.5006518   0.7953693   0.5478783  )
        19           O   tau(  19) = (  -0.0031790   0.2739219   0.9521217  )
        20           O   tau(  20) = (  -0.0006518   0.7810032   0.0478783  )
        21           O   tau(  21) = (   0.4968210   0.2515356   0.0478783  )
        22           O   tau(  22) = (   0.4993482   0.7953693   0.9521217  )
        23           O   tau(  23) = (   0.0031790   0.2739219   0.5478783  )
        24           O   tau(  24) = (   0.0006518   0.7810032   0.4521217  )
        25           O   tau(  25) = (   0.7021217   0.2699118   0.7493482  )
        26           O   tau(  26) = (   0.2978783   0.7993794   0.2531790  )
        27           O   tau(  27) = (   0.7978783   0.2555457   0.2493482  )
        28           O   tau(  28) = (   0.2021217   0.7769931   0.7531790  )
        29           O   tau(  29) = (   0.2978783   0.2699118   0.7506518  )
        30           O   tau(  30) = (   0.7021217   0.7993794   0.2468210  )
        31           O   tau(  31) = (   0.2021217   0.2555457   0.2506518  )
        32           O   tau(  32) = (   0.7978783   0.7769931   0.7468210  )

     number of k points=    40  gaussian smearing, width (Ry)=  0.0007
                       cart. coord. in units 2pi/alat
        k(    1) = (   0.0000000   0.0000000   0.0000000), wk =   0.0092593
        k(    2) = (   0.0000000   0.0000000   0.1666667), wk =   0.0370370
        k(    3) = (   0.0000000   0.0000000   0.3333333), wk =   0.0370370
        k(    4) = (   0.0000000   0.0000000  -0.5000000), wk =   0.0185185
        k(    5) = (   0.0000000   0.1585920   0.0000000), wk =   0.0185185
        k(    6) = (   0.0000000   0.1585920   0.1666667), wk =   0.0740741
        k(    7) = (   0.0000000   0.1585920   0.3333333), wk =   0.0740741
        k(    8) = (   0.0000000   0.1585920  -0.5000000), wk =   0.0370370
        k(    9) = (   0.0000000   0.3171839   0.0000000), wk =   0.0185185
        k(   10) = (   0.0000000   0.3171839   0.1666667), wk =   0.0740741
        k(   11) = (   0.0000000   0.3171839   0.3333333), wk =   0.0740741
        k(   12) = (   0.0000000   0.3171839  -0.5000000), wk =   0.0370370
        k(   13) = (   0.0000000  -0.4757759   0.0000000), wk =   0.0092593
        k(   14) = (   0.0000000  -0.4757759   0.1666667), wk =   0.0370370
        k(   15) = (   0.0000000  -0.4757759   0.3333333), wk =   0.0370370
        k(   16) = (   0.0000000  -0.4757759  -0.5000000), wk =   0.0185185
        k(   17) = (   0.1666667   0.0000000   0.1666667), wk =   0.0370370
        k(   18) = (   0.1666667   0.0000000   0.3333333), wk =   0.0740741
        k(   19) = (   0.1666667   0.0000000  -0.5000000), wk =   0.0370370
        k(   20) = (   0.1666667   0.1585920   0.1666667), wk =   0.0740741
        k(   21) = (   0.1666667   0.1585920   0.3333333), wk =   0.1481481
        k(   22) = (   0.1666667   0.1585920  -0.5000000), wk =   0.0740741
        k(   23) = (   0.1666667   0.3171839   0.1666667), wk =   0.0740741
        k(   24) = (   0.1666667   0.3171839   0.3333333), wk =   0.1481481
        k(   25) = (   0.1666667   0.3171839  -0.5000000), wk =   0.0740741
        k(   26) = (   0.1666667  -0.4757759   0.1666667), wk =   0.0370370
        k(   27) = (   0.1666667  -0.4757759   0.3333333), wk =   0.0740741
        k(   28) = (   0.1666667  -0.4757759  -0.5000000), wk =   0.0370370
        k(   29) = (   0.3333333   0.0000000   0.3333333), wk =   0.0370370
        k(   30) = (   0.3333333   0.0000000  -0.5000000), wk =   0.0370370
        k(   31) = (   0.3333333   0.1585920   0.3333333), wk =   0.0740741
        k(   32) = (   0.3333333   0.1585920  -0.5000000), wk =   0.0740741
        k(   33) = (   0.3333333   0.3171839   0.3333333), wk =   0.0740741
        k(   34) = (   0.3333333   0.3171839  -0.5000000), wk =   0.0740741
        k(   35) = (   0.3333333  -0.4757759   0.3333333), wk =   0.0370370
        k(   36) = (   0.3333333  -0.4757759  -0.5000000), wk =   0.0370370
        k(   37) = (  -0.5000000   0.0000000  -0.5000000), wk =   0.0092593
        k(   38) = (  -0.5000000   0.1585920  -0.5000000), wk =   0.0185185
        k(   39) = (  -0.5000000   0.3171839  -0.5000000), wk =   0.0185185
        k(   40) = (  -0.5000000  -0.4757759  -0.5000000), wk =   0.0092593

     Dense  grid:   498813 G-vectors     FFT dimensions: ( 100, 108, 100)

     Estimated max dynamical RAM per process >       2.72 GB

     Estimated total dynamical RAM >     108.82 GB

     Initial potential from superposition of free atoms

     starting charge  367.99656, renormalised to  368.60000
     Starting wfc are  232 randomized atomic wfcs

     total cpu time spent up to now is       26.7 secs

     Self-consistent Calculation

     iteration #  1     ecut=   120.00 Ry     beta= 0.70
     Davidson diagonalization with overlap
     ethr =  1.00E-02,  avg # of iterations =  5.2

     total cpu time spent up to now is      115.5 secs

     total energy              =   -6253.44586639 Ry
     Harris-Foulkes estimate   =   -6264.26715072 Ry
     estimated scf accuracy    <      13.63230361 Ry

     iteration #  2     ecut=   120.00 Ry     beta= 0.70
     Davidson diagonalization with overlap
     ethr =  3.70E-03,  avg # of iterations =  3.5

     total cpu time spent up to now is      203.3 secs

     total energy              =   -6250.41775728 Ry
     Harris-Foulkes estimate   =   -6270.28330468 Ry
     estimated scf accuracy    <      52.83387452 Ry

     iteration #  3     ecut=   120.00 Ry     beta= 0.70
     Davidson diagonalization with overlap
     ethr =  3.70E-03,  avg # of iterations =  3.4

     total cpu time spent up to now is      284.9 secs

     total energy              =   -6260.67471765 Ry
     Harris-Foulkes estimate   =   -6260.94380964 Ry
     estimated scf accuracy    <       0.90093568 Ry

     iteration #  4     ecut=   120.00 Ry     beta= 0.70
     Davidson diagonalization with overlap
     ethr =  2.44E-04,  avg # of iterations =  3.2

     total cpu time spent up to now is      351.9 secs

     total energy              =   -6260.66651145 Ry
     Harris-Foulkes estimate   =   -6260.74005850 Ry
     estimated scf accuracy    <       0.22518001 Ry

     iteration #  5     ecut=   120.00 Ry     beta= 0.70
     Davidson diagonalization with overlap
     ethr =  6.11E-05,  avg # of iterations =  5.4

     total cpu time spent up to now is      425.4 secs

     total energy              =   -6260.67122549 Ry
     Harris-Foulkes estimate   =   -6260.70046201 Ry
     estimated scf accuracy    <       0.06555353 Ry

     iteration #  6     ecut=   120.00 Ry     beta= 0.70
     Davidson diagonalization with overlap
     ethr =  1.78E-05,  avg # of iterations =  5.4

     total cpu time spent up to now is      501.8 secs

     total energy              =   -6260.68520035 Ry
     Harris-Foulkes estimate   =   -6260.68795493 Ry
     estimated scf accuracy    <       0.00709069 Ry

     iteration #  7     ecut=   120.00 Ry     beta= 0.70
     Davidson diagonalization with overlap
     ethr =  1.92E-06,  avg # of iterations =  6.8

     total cpu time spent up to now is      575.4 secs

     total energy              =   -6260.68618410 Ry
     Harris-Foulkes estimate   =   -6260.68625476 Ry
     estimated scf accuracy    <       0.00012184 Ry

     iteration #  8     ecut=   120.00 Ry     beta= 0.70
     Davidson diagonalization with overlap
     ethr =  3.31E-08,  avg # of iterations =  3.3

     total cpu time spent up to now is      662.6 secs

     total energy              =   -6260.68624551 Ry
     Harris-Foulkes estimate   =   -6260.68625696 Ry
     estimated scf accuracy    <       0.00005349 Ry

     iteration #  9     ecut=   120.00 Ry     beta= 0.70
     Davidson diagonalization with overlap
     ethr =  1.45E-08,  avg # of iterations =  1.0

     total cpu time spent up to now is      724.6 secs

     total energy              =   -6260.68623977 Ry
     Harris-Foulkes estimate   =   -6260.68624817 Ry
     estimated scf accuracy    <       0.00002130 Ry

     iteration # 10     ecut=   120.00 Ry     beta= 0.70
     Davidson diagonalization with overlap
     ethr =  5.78E-09,  avg # of iterations =  2.5

     total cpu time spent up to now is      790.8 secs

     total energy              =   -6260.68624343 Ry
     Harris-Foulkes estimate   =   -6260.68624360 Ry
     estimated scf accuracy    <       0.00000040 Ry

     iteration # 11     ecut=   120.00 Ry     beta= 0.70
     Davidson diagonalization with overlap
     ethr =  1.09E-10,  avg # of iterations =  3.0

     total cpu time spent up to now is      872.8 secs

     total energy              =   -6260.68624354 Ry
     Harris-Foulkes estimate   =   -6260.68624360 Ry
     estimated scf accuracy    <       0.00000020 Ry

     iteration # 12     ecut=   120.00 Ry     beta= 0.70
     Davidson diagonalization with overlap
     ethr =  5.30E-11,  avg # of iterations =  1.9

     total cpu time spent up to now is      935.0 secs

     total energy              =   -6260.68624351 Ry
     Harris-Foulkes estimate   =   -6260.68624355 Ry
     estimated scf accuracy    <       0.00000007 Ry

     iteration # 13     ecut=   120.00 Ry     beta= 0.70
     Davidson diagonalization with overlap
     ethr =  1.93E-11,  avg # of iterations =  2.5

     total cpu time spent up to now is     1011.4 secs

     End of self-consistent calculation

          k = 0.0000 0.0000 0.0000 ( 62311 PWs)   bands (ev):

   -66.0577 -66.0573 -66.0567 -66.0567 -66.0563 -66.0563 -66.0557 -66.0553
   -30.4979 -30.4936 -30.4936 -30.4895 -30.4414 -30.4349 -30.4349 -30.4288
   -30.4068 -30.3993 -30.3982 -30.3982 -30.3896 -30.3882 -30.3840 -30.3840
   -30.3073 -30.3073 -30.3049 -30.3029 -30.2907 -30.2907 -30.2866 -30.2853
   -20.2083 -20.2079 -20.2079 -20.2076 -20.2065 -20.2064 -20.2063 -20.2063
   -20.2062 -20.2062 -20.2061 -20.2060 -20.2029 -20.2025 -20.2024 -20.2020
   -20.1971 -20.1970 -20.1968 -20.1968 -20.1958 -20.1957 -20.1956 -20.1953
   -20.1944 -20.1943 -20.1940 -20.1940 -20.1929 -20.1929 -20.1927 -20.1925
   -20.1828 -20.1826 -20.1823 -20.1823 -20.1819 -20.1819 -20.1815 -20.1814
   -20.1558 -20.1558 -20.1550 -20.1550 -20.1543 -20.1543 -20.1536 -20.1536
   -20.1499 -20.1499 -20.1491 -20.1491 -20.1486 -20.1486 -20.1476 -20.1475
    -9.9337  -9.6356  -9.5073  -9.5073  -9.2110  -9.2110  -9.1037  -9.0094
    -8.9965  -8.8885  -8.8548  -8.8548  -7.8690  -7.8014  -7.8014  -7.7574
    -7.7557  -7.7463  -7.7196  -7.7089  -7.6184  -7.6184  -7.5763  -7.5763
     1.2447   1.2472   1.3115   1.3115   1.3493   1.3493   1.3728   1.6012
     1.6176   1.6176   1.6651   1.8672   2.4347   2.5166   2.5617   2.5817
     2.7194   2.7194   4.1729   4.1729   4.3993   4.3999   4.7735   4.8241
     4.8426   4.8426   4.8735   4.8735   5.0229   5.0229   5.1106   5.4436
     5.4437   5.5025   5.5025   5.5548   5.5548   5.6112   5.6112   5.8390
     5.8390   5.8624   5.8666   5.8989   5.9652   6.0559   6.0617   6.1412
     6.1412   6.2777   6.2849   6.5404   6.5404   6.8204   6.8204   6.8446
     6.8581   6.8608   7.0066   7.0241   7.0774   7.0774   7.3539   7.3539
     7.4265   7.4265   7.8448   7.8600   8.0683   8.0683   8.1192   8.1494
     9.3742   9.3790   9.9929  10.0014  10.0210  10.0210  12.3157  12.3157
    12.3509  12.3509  12.4432  12.4432  12.5466  12.5842  12.8696  12.9639
    13.2212  13.3216  13.3856  13.3856  13.7986  14.0980  14.0980  14.1706
    14.2755  14.4971  14.4971  14.8458  15.4465  15.4586  15.5387  16.0860
    16.0860  16.8521  17.0732  17.0732  17.3755

          k = 0.0000 0.0000 0.1667 ( 62373 PWs)   bands (ev):

   -66.0576 -66.0572 -66.0568 -66.0566 -66.0563 -66.0562 -66.0558 -66.0554
   -30.4977 -30.4939 -30.4934 -30.4898 -30.4407 -30.4352 -30.4343 -30.4291
   -30.4045 -30.3986 -30.3957 -30.3922 -30.3884 -30.3844 -30.3823 -30.3773
   -30.3139 -30.3104 -30.3070 -30.3045 -30.2971 -30.2923 -30.2904 -30.2863
   -20.2083 -20.2080 -20.2079 -20.2076 -20.2064 -20.2063 -20.2063 -20.2063
   -20.2062 -20.2062 -20.2061 -20.2060 -20.2029 -20.2025 -20.2024 -20.2021
   -20.1971 -20.1969 -20.1968 -20.1966 -20.1958 -20.1956 -20.1955 -20.1952
   -20.1945 -20.1944 -20.1941 -20.1940 -20.1930 -20.1929 -20.1928 -20.1925
   -20.1827 -20.1826 -20.1823 -20.1822 -20.1820 -20.1819 -20.1816 -20.1814
   -20.1557 -20.1554 -20.1548 -20.1546 -20.1544 -20.1539 -20.1537 -20.1532
   -20.1503 -20.1498 -20.1496 -20.1490 -20.1490 -20.1487 -20.1479 -20.1477
    -9.8881  -9.5823  -9.5236  -9.4494  -9.2248  -9.1223  -9.1122  -8.9722
    -8.9557  -8.8740  -8.8592  -8.8211  -7.8984  -7.8498  -7.8438  -7.8052
    -7.7983  -7.7497  -7.7497  -7.7406  -7.7085  -7.7024  -7.6274  -7.5852
     1.3091   1.3130   1.3387   1.3545   1.4414   1.4744   1.5944   1.6009
     1.6125   1.7183   1.8389   1.9941   2.5204   2.5798   2.6070   2.6610
     2.7106   2.8083   4.1017   4.1732   4.3836   4.3892   4.4218   4.4928
     4.6307   4.7772   4.7958   4.9015   4.9118   5.0147   5.0907   5.3136
     5.3700   5.4275   5.4931   5.5419   5.5756   5.6152   5.6290   5.6340
     5.7475   5.7755   5.8263   5.9117   5.9864   6.0882   6.1158   6.1386
     6.3052   6.3998   6.5093   6.5268   6.6858   6.7155   6.7825   6.7979
     6.8511   6.8634   6.9566   6.9859   7.0365   7.0807   7.1576   7.1850
     7.1865   7.2691   7.8540   7.8592   8.0277   8.0858   8.0874   8.1404
     9.7059   9.7294  10.0017  10.0189  10.2564  10.3046  12.2493  12.2858
    12.3602  12.3772  12.3983  12.4777  12.5647  12.6629  12.8811  12.9603
    13.0973  13.2677  13.3194  13.3870  13.8708  14.0107  14.0841  14.0964
    14.2668  14.4918  14.5816  14.9565  15.4820  15.5043  15.5092  16.0579
    16.3970  16.7919  17.0212  17.2606  17.5004

          k = 0.0000 0.0000 0.3333 ( 62350 PWs)   bands (ev):

   -66.0574 -66.0570 -66.0570 -66.0565 -66.0565 -66.0560 -66.0560 -66.0556
   -30.4970 -30.4948 -30.4927 -30.4906 -30.4392 -30.4362 -30.4329 -30.4301
   -30.4024 -30.3996 -30.3883 -30.3854 -30.3790 -30.3754 -30.3645 -30.3594
   -30.3317 -30.3279 -30.3159 -30.3116 -30.3062 -30.3030 -30.2896 -30.2873
   -20.2082 -20.2080 -20.2079 -20.2077 -20.2064 -20.2063 -20.2063 -20.2062
   -20.2062 -20.2062 -20.2061 -20.2061 -20.2028 -20.2026 -20.2024 -20.2022
   -20.1970 -20.1969 -20.1965 -20.1961 -20.1959 -20.1953 -20.1952 -20.1949
   -20.1947 -20.1946 -20.1945 -20.1938 -20.1935 -20.1931 -20.1928 -20.1926
   -20.1826 -20.1824 -20.1823 -20.1821 -20.1820 -20.1818 -20.1817 -20.1815
   -20.1554 -20.1548 -20.1547 -20.1542 -20.1539 -20.1536 -20.1529 -20.1522
   -20.1514 -20.1507 -20.1501 -20.1495 -20.1493 -20.1487 -20.1487 -20.1480
    -9.7780  -9.5737  -9.4591  -9.3170  -9.2672  -9.1410  -8.9136  -8.8712
    -8.8697  -8.8123  -8.7664  -8.6923  -8.1888  -8.1495  -8.0876  -8.0479
    -7.8396  -7.8154  -7.7830  -7.7590  -7.7206  -7.6786  -7.6520  -7.6098
     1.3172   1.3248   1.3682   1.3890   1.5482   1.5614   1.5797   1.6031
     2.2871   2.3301   2.4821   2.5619   2.6051   2.6994   2.7692   2.8702
     2.9021   3.0477   3.7760   3.8433   3.8821   3.9912   4.1494   4.3066
     4.3510   4.5283   4.5570   4.7583   4.7719   4.8252   4.9678   5.0303
     5.1543   5.1897   5.2476   5.3497   5.4573   5.4977   5.6406   5.6725
     5.7256   5.7548   5.8018   5.9694   6.0108   6.1766   6.2329   6.2728
     6.3514   6.3836   6.5014   6.5364   6.5410   6.5761   6.6447   6.7654
     6.8373   6.8530   6.8625   7.0008   7.0341   7.0638   7.0820   7.1482
     7.3116   7.3450   7.7790   7.7991   7.9041   7.9545   8.1198   8.1386
     9.9904  10.0122  10.4079  10.4881  10.8683  10.9756  11.8729  11.9365
    12.1108  12.4806  12.5195  12.5621  12.5866  12.6496  12.7460  12.9152
    12.9532  13.1419  13.1992  13.3994  13.6904  13.7225  14.0711  14.0923
    14.3512  14.4746  14.8732  15.2478  15.3937  15.6345  15.8943  15.9708
    16.2424  17.2413  17.3764  17.5600  17.6415

          k = 0.0000 0.0000-0.5000 ( 62360 PWs)   bands (ev):

   -66.0572 -66.0572 -66.0568 -66.0568 -66.0562 -66.0562 -66.0558 -66.0558
   -30.4959 -30.4959 -30.4917 -30.4917 -30.4376 -30.4376 -30.4314 -30.4314
   -30.4009 -30.4009 -30.3867 -30.3867 -30.3558 -30.3558 -30.3518 -30.3518
   -30.3401 -30.3401 -30.3353 -30.3353 -30.3050 -30.3050 -30.2884 -30.2884
   -20.2081 -20.2081 -20.2078 -20.2078 -20.2064 -20.2064 -20.2063 -20.2063
   -20.2062 -20.2062 -20.2061 -20.2061 -20.2027 -20.2027 -20.2023 -20.2023
   -20.1969 -20.1969 -20.1961 -20.1961 -20.1955 -20.1955 -20.1950 -20.1950
   -20.1948 -20.1948 -20.1941 -20.1941 -20.1935 -20.1935 -20.1927 -20.1927
   -20.1825 -20.1825 -20.1823 -20.1823 -20.1818 -20.1818 -20.1817 -20.1817
   -20.1550 -20.1550 -20.1543 -20.1543 -20.1529 -20.1529 -20.1522 -20.1522
   -20.1515 -20.1515 -20.1507 -20.1507 -20.1491 -20.1491 -20.1483 -20.1483
    -9.6605  -9.6605  -9.3431  -9.3431  -9.2029  -9.2029  -8.8884  -8.8884
    -8.5405  -8.5405  -8.5019  -8.5019  -8.4939  -8.4939  -8.4194  -8.4194
    -7.8290  -7.8290  -7.7715  -7.7715  -7.6860  -7.6860  -7.6438  -7.6438
     1.3222   1.3222   1.3845   1.3845   1.5649   1.5649   1.5927   1.5927
     2.6380   2.6380   3.0049   3.0049   3.1424   3.1424   3.1595   3.1595
     3.2956   3.2956   3.3634   3.3634   3.5069   3.5069   3.7930   3.7930
     3.8714   3.8714   4.4637   4.4637   4.7114   4.7114   4.9348   4.9348
     5.2355   5.2356   5.3418   5.3418   5.3610   5.3610   5.6847   5.6847
     5.7553   5.7553   5.9431   5.9431   6.1458   6.1458   6.2534   6.2534
     6.3141   6.3141   6.4299   6.4299   6.4777   6.4777   6.5612   6.5612
     6.7989   6.7989   6.8448   6.8448   7.0603   7.0603   7.5022   7.5022
     7.5652   7.5652   7.6789   7.6789   7.7060   7.7060   8.1353   8.1353
    10.0021  10.0021  11.1943  11.1943  11.2778  11.2778  11.5664  11.5664
    11.7673  11.7673  12.6062  12.6062  12.7458  12.7458  12.8577  12.8577
    12.9485  12.9485  13.2964  13.2964  13.4674  13.4674  14.0870  14.0870
    14.4370  14.4370  15.1856  15.1856  15.6814  15.6814  15.8343  15.8343
    16.6505  16.6505  17.8128  17.8128  18.1295

          k = 0.0000 0.1586 0.0000 ( 62319 PWs)   bands (ev):

   -66.0577 -66.0573 -66.0567 -66.0567 -66.0563 -66.0563 -66.0557 -66.0553
   -30.4940 -30.4896 -30.4896 -30.4854 -30.4447 -30.4386 -30.4385 -30.4329
   -30.4065 -30.4002 -30.3985 -30.3985 -30.3896 -30.3883 -30.3841 -30.3841
   -30.3073 -30.3073 -30.3047 -30.3030 -30.2907 -30.2907 -30.2865 -30.2854
   -20.2079 -20.2076 -20.2076 -20.2072 -20.2064 -20.2064 -20.2063 -20.2063
   -20.2062 -20.2062 -20.2061 -20.2060 -20.2032 -20.2028 -20.2028 -20.2024
   -20.1970 -20.1970 -20.1967 -20.1967 -20.1958 -20.1958 -20.1956 -20.1954
   -20.1943 -20.1943 -20.1940 -20.1940 -20.1929 -20.1929 -20.1927 -20.1925
   -20.1828 -20.1826 -20.1823 -20.1823 -20.1819 -20.1819 -20.1815 -20.1814
   -20.1558 -20.1558 -20.1550 -20.1550 -20.1543 -20.1543 -20.1536 -20.1536
   -20.1499 -20.1499 -20.1491 -20.1491 -20.1486 -20.1486 -20.1476 -20.1475
    -9.9029  -9.6474  -9.4684  -9.4684  -9.2183  -9.2183  -9.0287  -9.0084
    -8.9970  -8.8430  -8.8179  -8.8179  -7.9613  -7.9023  -7.9023  -7.8552
    -7.7610  -7.7552  -7.7202  -7.7105  -7.6186  -7.6186  -7.5772  -7.5772
     1.2450   1.2469   1.3228   1.3228   1.3530   1.3530   1.5093   1.6644
     1.7887   1.8455   1.8455   2.0266   2.4402   2.5109   2.6342   2.6558
     2.7891   2.7891   4.0367   4.0367   4.1222   4.1235   4.7322   4.8399
     4.8399   4.8662   4.8662   4.8864   4.9711   4.9711   4.9770   5.2906
     5.2906   5.4683   5.4683   5.5918   5.6474   5.6484   5.6484   5.6792
     5.7975   5.7981   5.9069   5.9069   5.9391   6.0595   6.0668   6.1397
     6.1457   6.2749   6.2760   6.5653   6.5653   6.7988   6.8438   6.8438
     6.8851   6.8851   6.9041   6.9995   6.9995   7.0019   7.3587   7.3587
     7.4288   7.4288   7.8483   7.8589   8.0294   8.0294   8.0478   8.0691
     9.3769   9.3794  10.1963  10.1963  10.1980  10.1988  12.2117  12.2117
    12.3520  12.3520  12.3881  12.4207  12.4363  12.4363  12.8818  12.9648
    13.2550  13.3458  13.3875  13.3875  13.9643  14.0455  14.0455  14.0730
    14.3285  14.7280  14.7280  15.0182  15.4463  15.4560  15.9414  16.0534
    16.0534  16.5366  17.2092  17.2092  17.4361

          k = 0.0000 0.1586 0.1667 ( 62347 PWs)   bands (ev):

   -66.0576 -66.0572 -66.0568 -66.0566 -66.0564 -66.0562 -66.0558 -66.0554
   -30.4937 -30.4899 -30.4894 -30.4857 -30.4441 -30.4389 -30.4381 -30.4332
   -30.4044 -30.3989 -30.3963 -30.3924 -30.3885 -30.3845 -30.3824 -30.3774
   -30.3139 -30.3104 -30.3070 -30.3045 -30.2971 -30.2923 -30.2904 -30.2863
   -20.2079 -20.2076 -20.2076 -20.2073 -20.2064 -20.2064 -20.2063 -20.2062
   -20.2062 -20.2062 -20.2061 -20.2060 -20.2032 -20.2029 -20.2028 -20.2025
   -20.1970 -20.1969 -20.1968 -20.1966 -20.1958 -20.1956 -20.1955 -20.1952
   -20.1945 -20.1944 -20.1941 -20.1940 -20.1931 -20.1929 -20.1928 -20.1926
   -20.1827 -20.1826 -20.1823 -20.1822 -20.1820 -20.1819 -20.1816 -20.1815
   -20.1557 -20.1554 -20.1548 -20.1546 -20.1544 -20.1539 -20.1537 -20.1532
   -20.1503 -20.1498 -20.1496 -20.1490 -20.1490 -20.1487 -20.1479 -20.1477
    -9.8562  -9.5941  -9.4848  -9.4057  -9.2324  -9.1298  -9.0372  -8.9701
    -8.9560  -8.8313  -8.8222  -8.7889  -7.9639  -7.9152  -7.9017  -7.8730
    -7.8625  -7.8326  -7.7519  -7.7440  -7.7079  -7.7024  -7.6275  -7.5861
     1.3201   1.3266   1.3424   1.3585   1.5506   1.6009   1.6068   1.7969
     1.8338   1.8458   1.8748   2.0960   2.5271   2.6008   2.6525   2.7361
     2.7811   2.8776   4.0012   4.0497   4.1165   4.1613   4.4160   4.4897
     4.6487   4.7021   4.7949   4.8890   4.9010   4.9448   4.9831   5.2455
     5.2515   5.3245   5.3533   5.4841   5.5710   5.5880   5.6404   5.7024
     5.7543   5.7644   5.8432   5.8684   5.8790   6.1109   6.1187   6.1438
     6.2507   6.3877   6.4857   6.5536   6.7091   6.7671   6.8023   6.8107
     6.8381   6.8942   6.9482   6.9683   7.0016   7.0242   7.1591   7.1848
     7.1958   7.2724   7.8552   7.8588   7.9908   8.0191   8.0331   8.0631
     9.7122   9.7337  10.1958  10.2002  10.4240  10.4491  12.1852  12.2659
    12.2877  12.3413  12.3793  12.4091  12.4393  12.5432  12.9033  12.9612
    13.1226  13.2776  13.3308  13.3866  13.8986  13.9333  14.0387  14.0440
    14.4058  14.7227  14.8606  15.1136  15.4816  15.5084  15.9053  16.0277
    16.3624  16.6902  16.9193  17.3734  17.5703

          k = 0.0000 0.1586 0.3333 ( 62408 PWs)   bands (ev):

   -66.0574 -66.0570 -66.0569 -66.0566 -66.0564 -66.0561 -66.0560 -66.0556
   -30.4930 -30.4908 -30.4887 -30.4866 -30.4427 -30.4398 -30.4369 -30.4341
   -30.4026 -30.3999 -30.3885 -30.3854 -30.3791 -30.3755 -30.3645 -30.3595
   -30.3317 -30.3279 -30.3159 -30.3117 -30.3062 -30.3030 -30.2896 -30.2873
   -20.2079 -20.2077 -20.2075 -20.2074 -20.2064 -20.2063 -20.2063 -20.2062
   -20.2062 -20.2061 -20.2061 -20.2061 -20.2032 -20.2030 -20.2028 -20.2026
   -20.1970 -20.1968 -20.1965 -20.1961 -20.1959 -20.1954 -20.1953 -20.1949
   -20.1948 -20.1946 -20.1944 -20.1938 -20.1935 -20.1932 -20.1929 -20.1927
   -20.1826 -20.1825 -20.1823 -20.1821 -20.1820 -20.1818 -20.1817 -20.1815
   -20.1554 -20.1548 -20.1547 -20.1542 -20.1539 -20.1536 -20.1529 -20.1522
   -20.1514 -20.1507 -20.1501 -20.1495 -20.1493 -20.1487 -20.1487 -20.1480
    -9.7432  -9.5354  -9.4703  -9.2755  -9.2593  -9.0666  -8.8908  -8.8761
    -8.8342  -8.8127  -8.7493  -8.6741  -8.1915  -8.1524  -8.1000  -8.0516
    -7.9295  -7.9104  -7.8832  -7.8564  -7.7214  -7.6796  -7.6523  -7.6107
     1.3374   1.3560   1.3728   1.3947   1.7346   1.7552   1.8294   1.8396
     2.2867   2.3393   2.4847   2.5775   2.6778   2.7625   2.7798   2.8677
     2.9784   3.1102   3.7765   3.8461   3.8748   3.9365   4.1368   4.1680
     4.2086   4.3536   4.5719   4.7096   4.7335   4.8178   4.8401   4.8873
     5.0236   5.1507   5.1655   5.2088   5.3746   5.4177   5.5133   5.6235
     5.6968   5.7498   5.8022   5.8566   5.9585   6.1322   6.2031   6.2736
     6.3356   6.5060   6.5389   6.5684   6.6317   6.6637   6.7135   6.8019
     6.8214   6.8458   6.9212   6.9595   7.0016   7.0322   7.0956   7.1406
     7.3080   7.3420   7.7828   7.7958   7.8727   7.9028   8.0514   8.0633
    10.1848  10.1962  10.4185  10.4920  10.9837  11.0673  11.8738  11.9356
    12.0821  12.4152  12.4983  12.5135  12.5430  12.5957  12.6822  12.8075
    12.9536  13.1401  13.2126  13.3895  13.5923  13.6364  14.0379  14.0410
    14.5866  14.7062  15.2113  15.3792  15.6282  15.7908  15.9129  15.9480
    16.3683  17.1453  17.1999  17.4341  17.7916

          k = 0.0000 0.1586-0.5000 ( 62348 PWs)   bands (ev):

   -66.0572 -66.0572 -66.0568 -66.0568 -66.0562 -66.0562 -66.0558 -66.0558
   -30.4919 -30.4919 -30.4877 -30.4877 -30.4412 -30.4412 -30.4355 -30.4355
   -30.4012 -30.4012 -30.3868 -30.3868 -30.3558 -30.3558 -30.3518 -30.3518
   -30.3402 -30.3402 -30.3353 -30.3353 -30.3050 -30.3050 -30.2885 -30.2885
   -20.2078 -20.2078 -20.2075 -20.2075 -20.2064 -20.2064 -20.2063 -20.2063
   -20.2062 -20.2062 -20.2061 -20.2061 -20.2031 -20.2031 -20.2027 -20.2027
   -20.1969 -20.1969 -20.1961 -20.1961 -20.1955 -20.1955 -20.1950 -20.1950
   -20.1948 -20.1948 -20.1941 -20.1941 -20.1935 -20.1935 -20.1928 -20.1928
   -20.1825 -20.1825 -20.1823 -20.1823 -20.1818 -20.1818 -20.1817 -20.1817
   -20.1550 -20.1550 -20.1543 -20.1543 -20.1529 -20.1529 -20.1522 -20.1522
   -20.1515 -20.1515 -20.1507 -20.1507 -20.1491 -20.1491 -20.1483 -20.1483
    -9.6233  -9.6233  -9.3528  -9.3528  -9.1324  -9.1324  -8.8529  -8.8529
    -8.5424  -8.5424  -8.5062  -8.5062  -8.4955  -8.4955  -8.4145  -8.4145
    -7.9237  -7.9237  -7.8725  -7.8725  -7.6866  -7.6866  -7.6448  -7.6448
     1.3505   1.3505   1.3897   1.3897   1.7563   1.7563   1.8410   1.8410
     2.7078   2.7078   3.0214   3.0214   3.1419   3.1419   3.1966   3.1966
     3.3033   3.3033   3.3619   3.3619   3.4979   3.4979   3.7973   3.7973
     3.9199   3.9199   4.2555   4.2555   4.6319   4.6320   4.7570   4.7570
     5.0666   5.0666   5.3088   5.3088   5.3333   5.3333   5.4980   5.4980
     5.7050   5.7050   5.8317   5.8317   6.1511   6.1511   6.3075   6.3075
     6.3472   6.3472   6.4568   6.4568   6.5440   6.5440   6.6671   6.6671
     6.8561   6.8561   6.8622   6.8622   6.9826   6.9826   7.5121   7.5121
     7.5583   7.5583   7.6575   7.6575   7.6814   7.6814   8.0618   8.0618
    10.1946  10.1946  11.2008  11.2008  11.2764  11.2764  11.6326  11.6326
    11.8278  11.8278  12.4685  12.4685  12.7236  12.7236  12.8648  12.8648
    12.8938  12.8938  13.1955  13.1955  13.4275  13.4275  14.0378  14.0378
    14.6726  14.6726  15.5481  15.5481  15.7912  15.7912  15.8515  15.8515
    16.6929  16.6929  17.6133  17.6133  18.0693

          k = 0.0000 0.3172 0.0000 ( 62379 PWs)   bands (ev):

   -66.0576 -66.0574 -66.0566 -66.0566 -66.0564 -66.0564 -66.0556 -66.0554
   -30.4831 -30.4786 -30.4786 -30.4744 -30.4544 -30.4489 -30.4489 -30.4440
   -30.4057 -30.4022 -30.3990 -30.3990 -30.3894 -30.3887 -30.3843 -30.3843
   -30.3073 -30.3073 -30.3044 -30.3034 -30.2908 -30.2908 -30.2863 -30.2857
   -20.2070 -20.2067 -20.2067 -20.2064 -20.2064 -20.2063 -20.2062 -20.2062
   -20.2061 -20.2061 -20.2061 -20.2060 -20.2042 -20.2038 -20.2038 -20.2035
   -20.1969 -20.1969 -20.1966 -20.1966 -20.1958 -20.1958 -20.1957 -20.1956
   -20.1942 -20.1942 -20.1940 -20.1940 -20.1931 -20.1931 -20.1928 -20.1927
   -20.1827 -20.1827 -20.1823 -20.1822 -20.1819 -20.1819 -20.1815 -20.1814
   -20.1558 -20.1558 -20.1550 -20.1550 -20.1543 -20.1543 -20.1536 -20.1536
   -20.1499 -20.1499 -20.1491 -20.1491 -20.1486 -20.1486 -20.1476 -20.1476
    -9.8282  -9.6839  -9.3808  -9.3808  -9.2421  -9.2421  -9.0059  -8.9992
    -8.8167  -8.7000  -8.6907  -8.6907  -8.2048  -8.1573  -8.1573  -8.1318
    -7.7601  -7.7549  -7.7206  -7.7144  -7.6176  -7.6176  -7.5790  -7.5790
     1.2453   1.2463   1.3284   1.3284   1.3568   1.3568   1.6263   1.6617
     2.3551   2.4548   2.4956   2.4996   2.4996   2.6623   2.8466   2.8801
     2.9954   2.9954   3.6397   3.6487   3.6873   3.6873   4.1426   4.4688
     4.4688   4.7366   4.8453   4.8453   4.8752   4.8752   5.0432   5.0432
     5.0574   5.0675   5.3766   5.3766   5.5813   5.5859   5.7034   5.7034
     5.8796   5.8796   5.9062   5.9083   6.0403   6.0581   6.0736   6.1517
     6.1656   6.2456   6.2492   6.5193   6.6260   6.6260   6.8561   6.8561
     6.9043   6.9794   7.0915   7.0944   7.1078   7.1078   7.3652   7.3652
     7.4337   7.4337   7.8097   7.8225   7.8588   7.8588   7.8664   7.8675
     9.3798   9.3803  10.6639  10.6639  10.7041  10.7172  11.8370  11.8370
    11.9533  11.9798  12.3666  12.3666  12.4378  12.4378  12.9114  12.9605
    13.3657  13.4306  13.4465  13.4465  13.8187  13.8416  13.8416  13.8425
    14.8260  15.2674  15.2674  15.4459  15.4503  15.6460  15.9428  15.9428
    15.9709  16.9383  17.2440  17.6756  17.6756

          k = 0.0000 0.3172 0.1667 ( 62309 PWs)   bands (ev):

   -66.0575 -66.0573 -66.0567 -66.0565 -66.0565 -66.0563 -66.0557 -66.0555
   -30.4828 -30.4789 -30.4784 -30.4747 -30.4540 -30.4493 -30.4486 -30.4443
   -30.4041 -30.3994 -30.3975 -30.3928 -30.3885 -30.3846 -30.3825 -30.3776
   -30.3139 -30.3103 -30.3070 -30.3046 -30.2972 -30.2923 -30.2905 -30.2864
   -20.2070 -20.2067 -20.2067 -20.2064 -20.2064 -20.2063 -20.2062 -20.2062
   -20.2062 -20.2061 -20.2061 -20.2060 -20.2042 -20.2039 -20.2038 -20.2035
   -20.1969 -20.1967 -20.1966 -20.1964 -20.1959 -20.1957 -20.1956 -20.1954
   -20.1943 -20.1943 -20.1941 -20.1939 -20.1932 -20.1930 -20.1929 -20.1928
   -20.1827 -20.1826 -20.1823 -20.1822 -20.1820 -20.1819 -20.1815 -20.1815
   -20.1557 -20.1554 -20.1548 -20.1546 -20.1544 -20.1539 -20.1537 -20.1532
   -20.1503 -20.1498 -20.1496 -20.1490 -20.1490 -20.1487 -20.1479 -20.1477
    -9.7787  -9.6308  -9.3971  -9.3061  -9.2569  -9.1545  -8.9664  -8.9578
    -8.8250  -8.6953  -8.6930  -8.6736  -8.2051  -8.1649  -8.1540  -8.1379
    -7.8776  -7.8379  -7.7507  -7.7455  -7.7087  -7.7047  -7.6266  -7.5880
     1.3228   1.3330   1.3440   1.3626   1.5809   1.6105   1.7856   1.8365
     2.3583   2.4789   2.5007   2.5435   2.5851   2.6544   2.8690   2.9629
     2.9910   3.0891   3.6440   3.6725   3.6922   3.7360   4.1323   4.4189
     4.4458   4.4842   4.5269   4.7376   4.7549   4.8597   4.8920   4.9233
     5.0421   5.0722   5.1765   5.3169   5.4022   5.4693   5.5897   5.6444
     5.6915   5.7872   5.8051   5.8588   6.0490   6.0886   6.1467   6.1636
     6.2505   6.3863   6.4643   6.5789   6.6192   6.8396   6.8521   6.9272
     6.9594   6.9795   7.0655   7.0756   7.0973   7.1007   7.1708   7.1907
     7.2294   7.2872   7.7938   7.8193   7.8288   7.8468   7.8679   7.8729
     9.7211   9.7364  10.6681  10.7077  10.8458  10.8786  11.8342  11.9271
    11.9689  12.0457  12.2729  12.3364  12.4209  12.4902  12.9499  12.9695
    13.2194  13.3243  13.4021  13.4427  13.6799  13.7218  13.8333  13.8389
    14.9585  15.2584  15.4407  15.5083  15.5126  15.7118  15.9167  16.1310
    16.2439  16.9018  17.2934  17.3440  17.6863

          k = 0.0000 0.3172 0.3333 ( 62328 PWs)   bands (ev):

   -66.0573 -66.0571 -66.0569 -66.0566 -66.0564 -66.0561 -66.0559 -66.0557
   -30.4821 -30.4798 -30.4777 -30.4755 -30.4529 -30.4502 -30.4477 -30.4452
   -30.4029 -30.4004 -30.3888 -30.3856 -30.3793 -30.3756 -30.3646 -30.3596
   -30.3317 -30.3279 -30.3160 -30.3117 -30.3062 -30.3030 -30.2897 -30.2874
   -20.2070 -20.2068 -20.2067 -20.2065 -20.2063 -20.2063 -20.2062 -20.2062
   -20.2062 -20.2061 -20.2061 -20.2060 -20.2041 -20.2039 -20.2038 -20.2036
   -20.1968 -20.1967 -20.1964 -20.1960 -20.1959 -20.1954 -20.1953 -20.1949
   -20.1947 -20.1946 -20.1944 -20.1938 -20.1937 -20.1932 -20.1930 -20.1928
   -20.1826 -20.1825 -20.1823 -20.1821 -20.1820 -20.1818 -20.1816 -20.1816
   -20.1554 -20.1548 -20.1547 -20.1542 -20.1539 -20.1536 -20.1529 -20.1522
   -20.1514 -20.1507 -20.1501 -20.1495 -20.1493 -20.1487 -20.1487 -20.1480
    -9.6596  -9.5059  -9.4474  -9.3024  -9.1173  -8.9071  -8.8573  -8.8457
    -8.8154  -8.7091  -8.6573  -8.6012  -8.2494  -8.2348  -8.1668  -8.1518
    -8.1452  -8.0923  -8.0529  -8.0006  -7.7206  -7.6817  -7.6514  -7.6126
     1.3461   1.3666   1.3778   1.4002   2.1950   2.2787   2.2944   2.3850
     2.4705   2.5116   2.5167   2.7407   2.8067   2.8406   2.8946   2.9750
     3.2085   3.3016   3.6276   3.6461   3.7439   3.7917   3.8659   3.8774
     4.1055   4.2746   4.3944   4.4123   4.4768   4.5657   4.6231   4.7796
     4.8246   4.8336   4.9874   5.0548   5.1745   5.2065   5.2266   5.3577
     5.3849   5.5961   5.6437   5.8137   6.1410   6.1901   6.2031   6.2966
     6.4159   6.5544   6.5925   6.6636   6.7081   6.7991   6.8041   6.8505
     6.9246   6.9751   7.0331   7.0489   7.0748   7.1375   7.1618   7.2056
     7.2938   7.3369   7.7191   7.7386   7.7866   7.7937   7.8374   7.8578
    10.4345  10.4616  10.6825  10.7147  11.2993  11.3478  11.8057  11.8925
    11.9378  11.9979  12.2171  12.2681  12.5910  12.6398  12.6690  12.6926
    12.9250  13.1200  13.2125  13.3705  13.4383  13.4996  13.8257  13.8351
    15.1170  15.2314  15.5672  15.8365  15.9048  16.0065  16.0241  16.6305
    16.7740  16.7827  17.0528  17.5431  17.6308

          k = 0.0000 0.3172-0.5000 ( 62382 PWs)   bands (ev):

   -66.0571 -66.0571 -66.0569 -66.0569 -66.0561 -66.0561 -66.0559 -66.0559
   -30.4810 -30.4810 -30.4766 -30.4766 -30.4515 -30.4515 -30.4465 -30.4465
   -30.4017 -30.4017 -30.3870 -30.3870 -30.3559 -30.3559 -30.3519 -30.3519
   -30.3402 -30.3402 -30.3354 -30.3354 -30.3049 -30.3049 -30.2885 -30.2885
   -20.2069 -20.2069 -20.2066 -20.2066 -20.2063 -20.2063 -20.2063 -20.2063
   -20.2061 -20.2061 -20.2061 -20.2061 -20.2041 -20.2041 -20.2037 -20.2037
   -20.1968 -20.1968 -20.1961 -20.1961 -20.1953 -20.1953 -20.1950 -20.1950
   -20.1948 -20.1948 -20.1943 -20.1943 -20.1936 -20.1936 -20.1929 -20.1929
   -20.1824 -20.1824 -20.1823 -20.1823 -20.1818 -20.1818 -20.1817 -20.1817
   -20.1550 -20.1550 -20.1543 -20.1543 -20.1529 -20.1529 -20.1522 -20.1522
   -20.1515 -20.1515 -20.1507 -20.1507 -20.1491 -20.1491 -20.1483 -20.1483
    -9.5359  -9.5359  -9.3840  -9.3840  -8.9387  -8.9387  -8.7414  -8.7414
    -8.5564  -8.5564  -8.5423  -8.5423  -8.4810  -8.4809  -8.3940  -8.3940
    -8.1563  -8.1563  -8.1148  -8.1148  -7.6857  -7.6857  -7.6468  -7.6468
     1.3617   1.3617   1.3953   1.3953   2.3584   2.3584   2.4933   2.4933
     2.9104   2.9104   3.0669   3.0669   3.1199   3.1199   3.2732   3.2733
     3.3311   3.3311   3.3703   3.3703   3.4651   3.4652   3.6610   3.6610
     4.0462   4.0462   4.0743   4.0743   4.1543   4.1543   4.3591   4.3591
     4.8156   4.8156   4.9149   4.9149   5.1159   5.1159   5.2823   5.2823
     5.4370   5.4371   5.7280   5.7280   6.2722   6.2722   6.3289   6.3289
     6.4718   6.4718   6.5313   6.5313   6.5523   6.5523   6.7607   6.7607
     7.0417   7.0417   7.0584   7.0584   7.0951   7.0951   7.5140   7.5140
     7.5327   7.5327   7.5775   7.5775   7.6106   7.6106   7.8450   7.8450
    10.6859  10.6859  11.2149  11.2149  11.2735  11.2735  11.7258  11.7258
    12.0154  12.0154  12.1687  12.1687  12.5988  12.5988  12.6675  12.6675
    12.8817  12.8817  13.0048  13.0048  13.4392  13.4392  13.8282  13.8282
    15.1850  15.1850  15.7131  15.7131  16.2738  16.2738  16.5001  16.5001
    16.8659  16.8659  17.2333  17.2333  17.9540

          k = 0.0000-0.4758 0.0000 ( 62322 PWs)   bands (ev):

   -66.0575 -66.0575 -66.0565 -66.0565 -66.0565 -66.0565 -66.0555 -66.0555
   -30.4685 -30.4685 -30.4650 -30.4650 -30.4624 -30.4623 -30.4592 -30.4592
   -30.4042 -30.4042 -30.3993 -30.3993 -30.3891 -30.3891 -30.3843 -30.3843
   -30.3073 -30.3073 -30.3039 -30.3039 -30.2908 -30.2908 -30.2861 -30.2860
   -20.2065 -20.2065 -20.2063 -20.2063 -20.2062 -20.2062 -20.2061 -20.2061
   -20.2055 -20.2055 -20.2052 -20.2052 -20.2052 -20.2052 -20.2048 -20.2048
   -20.1968 -20.1968 -20.1966 -20.1965 -20.1959 -20.1959 -20.1957 -20.1957
   -20.1941 -20.1941 -20.1939 -20.1939 -20.1931 -20.1931 -20.1928 -20.1928
   -20.1827 -20.1827 -20.1823 -20.1822 -20.1819 -20.1819 -20.1815 -20.1815
   -20.1558 -20.1558 -20.1550 -20.1550 -20.1543 -20.1543 -20.1536 -20.1536
   -20.1499 -20.1499 -20.1491 -20.1491 -20.1486 -20.1486 -20.1476 -20.1476
    -9.7464  -9.7464  -9.3163  -9.3163  -9.2752  -9.2752  -9.0025  -9.0025
    -8.5136  -8.5136  -8.4573  -8.4573  -8.4539  -8.4539  -8.4536  -8.4536
    -7.7567  -7.7567  -7.7186  -7.7186  -7.6169  -7.6168  -7.5800  -7.5800
     1.2457   1.2457   1.3294   1.3294   1.3578   1.3578   1.6536   1.6536
     2.4750   2.4750   3.1048   3.1048   3.2107   3.2107   3.2152   3.2153
     3.3000   3.3000   3.3204   3.3204   3.4493   3.4493   3.5405   3.5405
     3.6703   3.6703   4.8542   4.8542   4.8601   4.8601   5.2038   5.2038
     5.2225   5.2225   5.3080   5.3080   5.3128   5.3128   5.7668   5.7668
     5.7759   5.7759   5.9859   5.9859   6.0561   6.0561   6.1600   6.1600
     6.1999   6.1999   6.2838   6.2838   6.6965   6.6965   6.7575   6.7575
     6.9433   6.9433   7.3555   7.3555   7.4042   7.4042   7.4528   7.4528
     7.4859   7.4859   7.5362   7.5362   7.5478   7.5478   7.8584   7.8584
     9.3807   9.3807  11.2482  11.2482  11.2912  11.2912  11.3306  11.3306
    11.3801  11.3801  12.3715  12.3715  12.4399  12.4399  12.9423  12.9424
    13.5554  13.5554  13.6058  13.6058  13.6095  13.6095  13.6105  13.6105
    15.3747  15.3747  15.4560  15.4560  15.6778  15.6778  15.7323  15.7323
    16.5429  16.5429  17.9136  17.9136  18.1244

          k = 0.0000-0.4758 0.1667 ( 62338 PWs)   bands (ev):

   -66.0574 -66.0574 -66.0566 -66.0566 -66.0564 -66.0564 -66.0556 -66.0556
   -30.4684 -30.4680 -30.4653 -30.4645 -30.4627 -30.4623 -30.4596 -30.4595
   -30.4039 -30.3996 -30.3981 -30.3930 -30.3885 -30.3847 -30.3826 -30.3776
   -30.3139 -30.3103 -30.3070 -30.3046 -30.2972 -30.2923 -30.2905 -30.2865
   -20.2065 -20.2065 -20.2064 -20.2063 -20.2062 -20.2062 -20.2061 -20.2061
   -20.2055 -20.2055 -20.2052 -20.2052 -20.2051 -20.2051 -20.2049 -20.2049
   -20.1968 -20.1967 -20.1966 -20.1964 -20.1959 -20.1958 -20.1957 -20.1955
   -20.1943 -20.1942 -20.1941 -20.1939 -20.1933 -20.1931 -20.1930 -20.1929
   -20.1827 -20.1826 -20.1823 -20.1822 -20.1820 -20.1819 -20.1815 -20.1815
   -20.1557 -20.1554 -20.1548 -20.1546 -20.1544 -20.1539 -20.1537 -20.1532
   -20.1503 -20.1498 -20.1496 -20.1490 -20.1490 -20.1487 -20.1479 -20.1477
    -9.6968  -9.6920  -9.3316  -9.2911  -9.2315  -9.1914  -8.9638  -8.9599
    -8.5195  -8.5194  -8.4639  -8.4602  -8.4529  -8.4522  -8.4492  -8.4460
    -7.8771  -7.8392  -7.7493  -7.7459  -7.7089  -7.7064  -7.6258  -7.5890
     1.3231   1.3342   1.3442   1.3637   1.5841   1.6125   1.8156   1.8340
     2.5637   2.5643   3.1051   3.1173   3.2108   3.2216   3.2265   3.2419
     3.2892   3.3159   3.3160   3.3705   3.4450   3.5112   3.5363   3.5821
     3.6986   3.7019   4.4679   4.4720   4.8515   4.8832   4.9761   5.0169
     5.1159   5.1181   5.1898   5.1999   5.3181   5.3276   5.4961   5.5175
     5.7396   5.7449   5.7908   5.8003   6.0823   6.1406   6.1408   6.1713
     6.3784   6.3798   6.3984   6.4729   6.6851   6.7463   6.8739   6.9310
     6.9998   7.0112   7.1468   7.1716   7.1804   7.2339   7.4409   7.4601
     7.4781   7.4921   7.4997   7.5195   7.5249   7.5393   7.8619   7.8626
     9.7245   9.7367  11.2527  11.2944  11.3239  11.3503  11.3982  11.4167
    11.4522  11.4996  12.2753  12.3363  12.4242  12.4889  12.9767  12.9769
    13.3856  13.4012  13.4612  13.4908  13.5876  13.6023  13.6035  13.6273
    15.3885  15.4390  15.5862  15.6304  15.6586  15.7166  15.9560  16.0018
    16.6054  16.6079  17.8361  17.8539  17.9563

          k = 0.0000-0.4758 0.3333 ( 62360 PWs)   bands (ev):

   -66.0572 -66.0572 -66.0568 -66.0567 -66.0563 -66.0563 -66.0558 -66.0558
   -30.4678 -30.4668 -30.4660 -30.4637 -30.4634 -30.4619 -30.4606 -30.4602
   -30.4031 -30.4006 -30.3889 -30.3857 -30.3794 -30.3757 -30.3647 -30.3597
   -30.3317 -30.3279 -30.3160 -30.3118 -30.3062 -30.3029 -30.2897 -30.2874
   -20.2065 -20.2064 -20.2064 -20.2063 -20.2063 -20.2062 -20.2062 -20.2061
   -20.2055 -20.2054 -20.2053 -20.2053 -20.2051 -20.2051 -20.2050 -20.2049
   -20.1968 -20.1966 -20.1963 -20.1960 -20.1959 -20.1955 -20.1954 -20.1950
   -20.1947 -20.1945 -20.1944 -20.1938 -20.1937 -20.1933 -20.1931 -20.1929
   -20.1826 -20.1825 -20.1823 -20.1821 -20.1820 -20.1818 -20.1816 -20.1816
   -20.1554 -20.1548 -20.1547 -20.1542 -20.1539 -20.1536 -20.1529 -20.1522
   -20.1514 -20.1507 -20.1501 -20.1495 -20.1493 -20.1487 -20.1487 -20.1480
    -9.5794  -9.5617  -9.3786  -9.3407  -8.9975  -8.9613  -8.8324  -8.8188
    -8.5536  -8.5508  -8.4864  -8.4832  -8.4433  -8.4425  -8.4236  -8.4170
    -8.1660  -8.1307  -8.0563  -8.0214  -7.7197  -7.6828  -7.6506  -7.6136
     1.3475   1.3680   1.3791   1.4014   2.2601   2.2856   2.4485   2.4733
     2.8210   2.8218   3.1054   3.1372   3.2086   3.2345   3.2346   3.2700
     3.2893   3.3013   3.3781   3.4277   3.4499   3.5205   3.6881   3.7106
     3.7693   3.7778   3.8551   3.8688   4.4597   4.4615   4.6269   4.6391
     4.7656   4.7935   4.8685   4.8935   5.2035   5.2299   5.2374   5.2430
     5.3665   5.3888   5.6628   5.6685   6.1938   6.2009   6.2161   6.3154
     6.5095   6.5319   6.5904   6.6747   6.7105   6.7296   6.8175   6.8854
     7.0186   7.0487   7.1556   7.1745   7.1975   7.2005   7.4166   7.4557
     7.4607   7.4853   7.4906   7.5030   7.5149   7.5219   7.8008   7.8011
    10.4435  10.4689  11.2656  11.2993  11.3159  11.3503  11.7525  11.7802
    11.7961  11.8366  11.8961  11.9423  12.5950  12.6482  12.7763  12.7829
    12.9185  12.9368  13.2127  13.2466  13.5862  13.5864  13.5973  13.6150
    15.4139  15.4702  15.5987  15.6543  16.1852  16.2267  16.6842  16.7149
    16.8259  16.8374  17.3392  17.3411  17.9460

          k = 0.0000-0.4758-0.5000 ( 62336 PWs)   bands (ev):

   -66.0570 -66.0570 -66.0570 -66.0570 -66.0560 -66.0560 -66.0560 -66.0560
   -30.4670 -30.4670 -30.4652 -30.4652 -30.4620 -30.4620 -30.4611 -30.4611
   -30.4018 -30.4018 -30.3871 -30.3871 -30.3559 -30.3559 -30.3519 -30.3519
   -30.3403 -30.3403 -30.3355 -30.3355 -30.3049 -30.3049 -30.2886 -30.2886
   -20.2064 -20.2064 -20.2063 -20.2063 -20.2062 -20.2062 -20.2062 -20.2062
   -20.2054 -20.2054 -20.2054 -20.2054 -20.2051 -20.2051 -20.2050 -20.2050
   -20.1967 -20.1967 -20.1961 -20.1961 -20.1953 -20.1953 -20.1950 -20.1950
   -20.1949 -20.1949 -20.1943 -20.1943 -20.1936 -20.1936 -20.1930 -20.1930
   -20.1824 -20.1824 -20.1823 -20.1823 -20.1818 -20.1818 -20.1817 -20.1817
   -20.1550 -20.1550 -20.1543 -20.1543 -20.1529 -20.1529 -20.1522 -20.1522
   -20.1515 -20.1515 -20.1507 -20.1507 -20.1491 -20.1491 -20.1483 -20.1483
    -9.4613  -9.4613  -9.4302  -9.4302  -8.7057  -8.7057  -8.6822  -8.6822
    -8.6072  -8.6072  -8.5917  -8.5917  -8.4039  -8.4038  -8.3809  -8.3809
    -8.3355  -8.3355  -8.3091  -8.3091  -7.6849  -7.6849  -7.6479  -7.6479
     1.3633   1.3633   1.3967   1.3967   2.9827   2.9827   3.0508   3.0508
     3.1493   3.1493   3.1699   3.1699   3.1973   3.1973   3.2137   3.2137
     3.3271   3.3271   3.3447   3.3447   3.4434   3.4434   3.4980   3.4980
     3.5607   3.5607   3.7070   3.7070   4.2831   4.2831   4.3192   4.3192
     4.3792   4.3792   4.4354   4.4354   5.2045   5.2045   5.2252   5.2252
     5.5015   5.5015   5.5347   5.5347   6.3175   6.3175   6.3246   6.3246
     6.5142   6.5143   6.5573   6.5573   6.6140   6.6140   6.6630   6.6630
     7.2737   7.2737   7.3048   7.3048   7.3164   7.3164   7.4254   7.4254
     7.4456   7.4456   7.5004   7.5004   7.5966   7.5966   7.6130   7.6130
    11.1864  11.1864  11.2211  11.2211  11.3370  11.3370  11.3607  11.3607
    12.2643  12.2643  12.2901  12.2901  12.3413  12.3413  12.3622  12.3622
    12.8929  12.8929  12.9330  12.9330  13.5844  13.5844  13.5992  13.5992
    15.5048  15.5048  15.5630  15.5630  16.8026  16.8026  16.8482  16.8482
    17.3583  17.3584  17.3971  17.3972  17.5035

          k = 0.1667 0.0000 0.1667 ( 62338 PWs)   bands (ev):

   -66.0576 -66.0571 -66.0567 -66.0567 -66.0563 -66.0563 -66.0559 -66.0554
   -30.4975 -30.4937 -30.4937 -30.4901 -30.4400 -30.4347 -30.4346 -30.4295
   -30.4000 -30.3942 -30.3926 -30.3922 -30.3826 -30.3813 -30.3777 -30.3776
   -30.3136 -30.3136 -30.3118 -30.3098 -30.2969 -30.2968 -30.2934 -30.2921
   -20.2082 -20.2080 -20.2080 -20.2077 -20.2064 -20.2063 -20.2063 -20.2063
   -20.2062 -20.2062 -20.2061 -20.2060 -20.2028 -20.2025 -20.2025 -20.2021
   -20.1969 -20.1969 -20.1966 -20.1966 -20.1957 -20.1956 -20.1954 -20.1951
   -20.1946 -20.1945 -20.1941 -20.1941 -20.1930 -20.1930 -20.1929 -20.1926
   -20.1827 -20.1825 -20.1822 -20.1822 -20.1819 -20.1819 -20.1816 -20.1815
   -20.1553 -20.1553 -20.1545 -20.1545 -20.1540 -20.1540 -20.1533 -20.1533
   -20.1502 -20.1502 -20.1495 -20.1495 -20.1490 -20.1490 -20.1481 -20.1481
    -9.8406  -9.5239  -9.4657  -9.4652  -9.1368  -9.1359  -9.1210  -8.9322
    -8.9202  -8.8641  -8.8261  -8.8255  -7.9040  -7.8690  -7.8412  -7.8405
    -7.8293  -7.8042  -7.7988  -7.7627  -7.7536  -7.7519  -7.7147  -7.6975
     1.4263   1.4669   1.4687   1.5060   1.5066   1.5873   1.6062   1.6075
     1.7205   1.7206   1.9252   2.0742   2.6073   2.6580   2.6780   2.7018
     2.7848   2.8187   4.1018   4.1064   4.3510   4.3532   4.4873   4.4882
     4.5471   4.5593   4.6423   4.6784   4.7438   4.8099   5.0711   5.2693
     5.2744   5.3413   5.3598   5.4977   5.5109   5.6155   5.6222   5.6966
     5.6971   5.7558   5.7566   5.7714   5.8101   6.0035   6.2989   6.3923
     6.4376   6.5008   6.5629   6.6560   6.6851   6.6946   6.6954   6.7294
     6.7507   6.8449   6.8529   6.8793   6.9021   6.9828   6.9940   7.0994
     7.2918   7.3445   7.8525   7.8532   8.0289   8.0718   8.0788   8.1084
     9.9245   9.9867  10.2491  10.2495  10.2801  10.3654  12.3032  12.3039
    12.3263  12.3411  12.3988  12.4250  12.6325  12.6692  12.8888  12.9550
    13.0476  13.1857  13.2154  13.3710  13.9010  13.9692  14.0242  14.0442
    14.2497  14.5739  14.5740  15.0760  15.4713  15.5672  15.5776  16.3595
    16.3670  16.9514  16.9602  17.1643  17.5447

          k = 0.1667 0.0000 0.3333 ( 62353 PWs)   bands (ev):

   -66.0574 -66.0569 -66.0569 -66.0565 -66.0565 -66.0561 -66.0560 -66.0556
   -30.4968 -30.4946 -30.4931 -30.4909 -30.4385 -30.4356 -30.4333 -30.4304
   -30.3965 -30.3936 -30.3828 -30.3798 -30.3767 -30.3757 -30.3641 -30.3597
   -30.3314 -30.3283 -30.3164 -30.3128 -30.3126 -30.3079 -30.2961 -30.2938
   -20.2082 -20.2080 -20.2079 -20.2077 -20.2064 -20.2063 -20.2063 -20.2062
   -20.2062 -20.2062 -20.2061 -20.2061 -20.2028 -20.2026 -20.2024 -20.2022
   -20.1969 -20.1967 -20.1965 -20.1961 -20.1958 -20.1953 -20.1951 -20.1949
   -20.1947 -20.1947 -20.1944 -20.1939 -20.1935 -20.1932 -20.1930 -20.1928
   -20.1825 -20.1824 -20.1823 -20.1821 -20.1820 -20.1818 -20.1817 -20.1816
   -20.1551 -20.1545 -20.1543 -20.1541 -20.1535 -20.1535 -20.1530 -20.1522
   -20.1513 -20.1506 -20.1502 -20.1499 -20.1495 -20.1491 -20.1490 -20.1484
    -9.7256  -9.5156  -9.3873  -9.3319  -9.1797  -9.1509  -8.8865  -8.8744
    -8.8385  -8.7909  -8.7583  -8.6992  -8.1794  -8.1397  -8.1013  -8.0622
    -7.8597  -7.8293  -7.8184  -7.7966  -7.7864  -7.7672  -7.7616  -7.7335
     1.4377   1.4565   1.5392   1.5720   1.6211   1.6366   1.7012   1.7280
     2.2933   2.3370   2.4674   2.5516   2.6906   2.7767   2.8717   2.9084
     2.9822   3.0563   3.8125   3.8649   3.9494   3.9629   4.1416   4.3232
     4.3355   4.5067   4.5099   4.5485   4.6067   4.7539   4.7809   4.9194
     5.0197   5.0556   5.1112   5.2229   5.2738   5.3960   5.5610   5.6543
     5.7028   5.7628   5.7727   5.8203   5.8397   6.0082   6.1362   6.1887
     6.4055   6.4601   6.4980   6.5533   6.5822   6.6729   6.6760   6.6970
     6.7746   6.8704   6.8813   6.8975   7.1198   7.1527   7.1648   7.2412
     7.3248   7.3682   7.7865   7.8004   7.9206   7.9568   8.0856   8.0974
    10.2487  10.2547  10.5539  10.6270  10.8767  10.9983  11.9297  11.9876
    12.1538  12.4523  12.4909  12.4965  12.5852  12.6504  12.7965  12.8948
    12.9073  13.0646  13.1212  13.2954  13.6740  13.6934  13.9822  14.0086
    14.3791  14.5487  14.8605  15.3651  15.3880  15.8284  15.9867  16.2620
    16.3869  17.2085  17.4003  17.4890  17.6048

          k = 0.1667 0.0000-0.5000 ( 62372 PWs)   bands (ev):

   -66.0571 -66.0571 -66.0567 -66.0567 -66.0563 -66.0563 -66.0559 -66.0559
   -30.4957 -30.4957 -30.4920 -30.4920 -30.4370 -30.4370 -30.4318 -30.4318
   -30.3949 -30.3949 -30.3803 -30.3803 -30.3553 -30.3553 -30.3521 -30.3521
   -30.3399 -30.3399 -30.3356 -30.3356 -30.3114 -30.3114 -30.2950 -30.2950
   -20.2081 -20.2081 -20.2078 -20.2078 -20.2064 -20.2064 -20.2063 -20.2063
   -20.2062 -20.2062 -20.2061 -20.2061 -20.2027 -20.2027 -20.2024 -20.2024
   -20.1968 -20.1968 -20.1961 -20.1961 -20.1955 -20.1955 -20.1950 -20.1950
   -20.1948 -20.1948 -20.1941 -20.1941 -20.1936 -20.1936 -20.1929 -20.1929
   -20.1824 -20.1824 -20.1822 -20.1822 -20.1819 -20.1819 -20.1817 -20.1817
   -20.1547 -20.1547 -20.1540 -20.1540 -20.1528 -20.1528 -20.1521 -20.1521
   -20.1516 -20.1516 -20.1508 -20.1508 -20.1495 -20.1495 -20.1488 -20.1488
    -9.6039  -9.6039  -9.2597  -9.2597  -9.2149  -9.2149  -8.8558  -8.8558
    -8.5443  -8.5443  -8.5136  -8.5136  -8.4790  -8.4790  -8.4214  -8.4214
    -7.8406  -7.8405  -7.7982  -7.7982  -7.7750  -7.7750  -7.7650  -7.7650
     1.4453   1.4453   1.5565   1.5565   1.6388   1.6388   1.7333   1.7333
     2.7183   2.7183   3.0182   3.0182   3.1003   3.1003   3.2170   3.2171
     3.3155   3.3155   3.4329   3.4329   3.5585   3.5585   3.8123   3.8123
     3.8645   3.8646   4.4258   4.4258   4.5251   4.5251   4.9016   4.9016
     5.0351   5.0351   5.0635   5.0635   5.2604   5.2604   5.6355   5.6355
     5.7782   5.7782   5.8010   5.8010   5.8983   5.8983   5.9834   5.9834
     6.3444   6.3444   6.4386   6.4386   6.6689   6.6689   6.7032   6.7032
     6.8245   6.8245   6.9678   6.9678   7.0263   7.0263   7.5413   7.5413
     7.5865   7.5866   7.6915   7.6915   7.7126   7.7126   8.0957   8.0957
    10.2615  10.2615  11.2710  11.2710  11.3550  11.3550  11.5860  11.5860
    11.7820  11.7820  12.6627  12.6627  12.6874  12.6874  12.7554  12.7554
    12.9376  12.9376  13.2753  13.2753  13.3699  13.3699  13.9925  13.9925
    14.4943  14.4943  15.1644  15.1644  15.8288  15.8288  16.0969  16.0969
    16.7533  16.7533  17.8091  17.8101  17.8647

          k = 0.1667 0.1586 0.1667 ( 62364 PWs)   bands (ev):

   -66.0575 -66.0572 -66.0567 -66.0567 -66.0563 -66.0563 -66.0558 -66.0555
   -30.4935 -30.4897 -30.4897 -30.4861 -30.4435 -30.4384 -30.4384 -30.4335
   -30.3998 -30.3948 -30.3928 -30.3926 -30.3826 -30.3814 -30.3778 -30.3776
   -30.3136 -30.3136 -30.3117 -30.3099 -30.2969 -30.2969 -30.2934 -30.2923
   -20.2079 -20.2076 -20.2076 -20.2073 -20.2064 -20.2063 -20.2063 -20.2063
   -20.2062 -20.2062 -20.2061 -20.2061 -20.2032 -20.2028 -20.2028 -20.2025
   -20.1969 -20.1968 -20.1966 -20.1966 -20.1957 -20.1957 -20.1954 -20.1951
   -20.1945 -20.1945 -20.1941 -20.1941 -20.1931 -20.1931 -20.1929 -20.1927
   -20.1827 -20.1825 -20.1822 -20.1822 -20.1819 -20.1819 -20.1816 -20.1815
   -20.1553 -20.1553 -20.1545 -20.1545 -20.1540 -20.1540 -20.1533 -20.1533
   -20.1502 -20.1502 -20.1495 -20.1495 -20.1490 -20.1490 -20.1481 -20.1481
    -9.8071  -9.5359  -9.4223  -9.4218  -9.1445  -9.1436  -9.0461  -8.9312
    -8.9200  -8.8222  -8.7937  -8.7931  -7.9672  -7.9134  -7.9132  -7.8710
    -7.8663  -7.8630  -7.8277  -7.8202  -7.7698  -7.7527  -7.7133  -7.6991
     1.5020   1.5051   1.5531   1.5538   1.6075   1.6095   1.6237   1.7966
     1.8717   1.8730   1.9250   2.1521   2.6163   2.6951   2.7318   2.7541
     2.8583   2.8837   4.0080   4.0218   4.1414   4.1503   4.4674   4.4681
     4.5490   4.5589   4.6347   4.6777   4.7161   4.7545   4.8791   5.1867
     5.2180   5.2662   5.2814   5.3695   5.3857   5.5641   5.5653   5.6272
     5.7540   5.7644   5.7864   5.8035   5.8086   5.8738   6.3184   6.3353
     6.4079   6.4462   6.5500   6.6491   6.6893   6.7167   6.7731   6.7768
     6.8021   6.8309   6.8810   6.8909   6.9528   6.9678   6.9929   7.1058
     7.2956   7.3430   7.8520   7.8536   7.9788   8.0131   8.0211   8.0341
     9.9451   9.9893  10.3995  10.4172  10.4408  10.5021  12.2409  12.2721
    12.3086  12.3113  12.3660  12.3769  12.4945  12.5235  12.9154  12.9653
    13.0625  13.1842  13.2208  13.3726  13.8830  13.8859  13.9264  13.9738
    14.4922  14.8529  14.8559  15.2172  15.5685  15.5757  15.8744  16.3287
    16.3330  16.8135  17.0619  17.0641  17.5888

          k = 0.1667 0.1586 0.3333 ( 62357 PWs)   bands (ev):

   -66.0574 -66.0570 -66.0569 -66.0565 -66.0565 -66.0561 -66.0560 -66.0557
   -30.4927 -30.4905 -30.4890 -30.4869 -30.4422 -30.4393 -30.4372 -30.4345
   -30.3966 -30.3938 -30.3830 -30.3798 -30.3768 -30.3758 -30.3642 -30.3598
   -30.3314 -30.3283 -30.3165 -30.3128 -30.3127 -30.3079 -30.2961 -30.2938
   -20.2079 -20.2077 -20.2076 -20.2074 -20.2064 -20.2063 -20.2063 -20.2062
   -20.2062 -20.2062 -20.2061 -20.2061 -20.2032 -20.2029 -20.2028 -20.2026
   -20.1968 -20.1967 -20.1964 -20.1961 -20.1958 -20.1953 -20.1952 -20.1949
   -20.1947 -20.1947 -20.1944 -20.1939 -20.1935 -20.1932 -20.1930 -20.1928
   -20.1825 -20.1824 -20.1823 -20.1821 -20.1820 -20.1818 -20.1817 -20.1816
   -20.1551 -20.1545 -20.1543 -20.1541 -20.1535 -20.1535 -20.1530 -20.1522
   -20.1513 -20.1506 -20.1502 -20.1499 -20.1495 -20.1491 -20.1490 -20.1484
    -9.6883  -9.4730  -9.3989  -9.2747  -9.1882  -9.0767  -8.8936  -8.8517
    -8.8058  -8.7905  -8.7436  -8.6806  -8.1823  -8.1428  -8.1148  -8.0650
    -7.9289  -7.9125  -7.8895  -7.8617  -7.8392  -7.7993  -7.7726  -7.7333
     1.5588   1.5733   1.6241   1.6407   1.7521   1.7588   1.8357   1.8718
     2.2931   2.3461   2.4692   2.5654   2.7644   2.8409   2.8915   2.9739
     2.9890   3.1132   3.8130   3.8693   3.9157   3.9421   4.1402   4.1764
     4.2391   4.3664   4.5103   4.5733   4.6259   4.6876   4.7576   4.7935
     4.9012   4.9340   4.9770   5.1373   5.2189   5.2548   5.3273   5.6012
     5.6251   5.6552   5.7572   5.7990   5.8326   5.8494   6.1327   6.1860
     6.3750   6.5056   6.5442   6.6245   6.6794   6.7022   6.7183   6.7837
     6.8357   6.8747   6.9111   6.9467   7.1140   7.1498   7.1621   7.2443
     7.3198   7.3656   7.7876   7.7964   7.8787   7.9051   8.0220   8.0277
    10.3878  10.4168  10.5785  10.6374  10.9913  11.0860  11.9302  11.9861
    12.1347  12.4382  12.4686  12.4986  12.5264  12.5477  12.7161  12.7776
    12.9238  13.0632  13.1036  13.2924  13.5698  13.5975  13.9058  13.9306
    14.6835  14.8339  15.2033  15.4981  15.7695  15.8267  15.9970  16.2377
    16.4902  17.1711  17.2063  17.4589  17.5370

          k = 0.1667 0.1586-0.5000 ( 62388 PWs)   bands (ev):

   -66.0571 -66.0571 -66.0567 -66.0567 -66.0563 -66.0563 -66.0559 -66.0559
   -30.4917 -30.4917 -30.4880 -30.4880 -30.4407 -30.4407 -30.4358 -30.4358
   -30.3951 -30.3951 -30.3804 -30.3804 -30.3554 -30.3554 -30.3522 -30.3522
   -30.3399 -30.3399 -30.3357 -30.3357 -30.3114 -30.3114 -30.2950 -30.2950
   -20.2078 -20.2078 -20.2075 -20.2075 -20.2063 -20.2063 -20.2063 -20.2063
   -20.2062 -20.2062 -20.2061 -20.2061 -20.2031 -20.2031 -20.2027 -20.2027
   -20.1967 -20.1967 -20.1960 -20.1960 -20.1955 -20.1955 -20.1950 -20.1950
   -20.1948 -20.1948 -20.1941 -20.1941 -20.1936 -20.1936 -20.1929 -20.1929
   -20.1824 -20.1824 -20.1822 -20.1822 -20.1819 -20.1819 -20.1817 -20.1817
   -20.1547 -20.1547 -20.1540 -20.1540 -20.1528 -20.1528 -20.1521 -20.1521
   -20.1516 -20.1516 -20.1508 -20.1508 -20.1495 -20.1495 -20.1488 -20.1488
    -9.5631  -9.5631  -9.2697  -9.2697  -9.1449  -9.1449  -8.8235  -8.8235
    -8.5469  -8.5469  -8.5189  -8.5189  -8.4785  -8.4785  -8.4170  -8.4170
    -7.9237  -7.9237  -7.8791  -7.8791  -7.8064  -7.8064  -7.7662  -7.7662
     1.5676   1.5676   1.6420   1.6420   1.7649   1.7649   1.8701   1.8701
     2.7880   2.7880   3.0363   3.0363   3.1181   3.1181   3.2324   3.2324
     3.3188   3.3188   3.4390   3.4390   3.5510   3.5510   3.8182   3.8182
     3.9129   3.9129   4.2647   4.2647   4.5259   4.5259   4.6873   4.6873
     4.9276   4.9276   5.0346   5.0346   5.1093   5.1093   5.4423   5.4423
     5.6879   5.6879   5.7460   5.7460   5.8704   5.8704   5.8987   5.8987
     6.4702   6.4702   6.6060   6.6060   6.6466   6.6466   6.7588   6.7588
     6.8988   6.8988   6.9369   6.9369   7.0515   7.0515   7.5409   7.5409
     7.5798   7.5798   7.6669   7.6669   7.6874   7.6874   8.0274   8.0274
    10.4220  10.4220  11.2789  11.2789  11.3547  11.3547  11.6536  11.6536
    11.8415  11.8415  12.5305  12.5305  12.6715  12.6715  12.7410  12.7410
    12.9225  12.9225  13.1680  13.1680  13.3024  13.3024  13.9129  13.9129
    14.7889  14.7889  15.5375  15.5375  15.9454  15.9454  16.0814  16.0814
    16.7858  16.7858  17.6292  17.6292  17.8759

          k = 0.1667 0.3172 0.1667 ( 62322 PWs)   bands (ev):

   -66.0575 -66.0572 -66.0566 -66.0566 -66.0564 -66.0564 -66.0558 -66.0556
   -30.4826 -30.4787 -30.4787 -30.4750 -30.4535 -30.4490 -30.4489 -30.4447
   -30.3990 -30.3962 -30.3932 -30.3931 -30.3824 -30.3817 -30.3779 -30.3778
   -30.3136 -30.3136 -30.3113 -30.3103 -30.2970 -30.2969 -30.2932 -30.2925
   -20.2070 -20.2067 -20.2067 -20.2064 -20.2064 -20.2063 -20.2062 -20.2062
   -20.2062 -20.2061 -20.2061 -20.2060 -20.2042 -20.2038 -20.2038 -20.2035
   -20.1967 -20.1967 -20.1965 -20.1965 -20.1957 -20.1957 -20.1955 -20.1953
   -20.1944 -20.1944 -20.1941 -20.1941 -20.1932 -20.1932 -20.1930 -20.1929
   -20.1826 -20.1826 -20.1822 -20.1822 -20.1819 -20.1819 -20.1816 -20.1815
   -20.1553 -20.1553 -20.1545 -20.1545 -20.1540 -20.1540 -20.1533 -20.1533
   -20.1502 -20.1502 -20.1495 -20.1495 -20.1490 -20.1490 -20.1481 -20.1481
    -9.7259  -9.5731  -9.3230  -9.3223  -9.1701  -9.1692  -8.9286  -8.9220
    -8.8337  -8.6866  -8.6783  -8.6778  -8.2068  -8.1614  -8.1613  -8.1435
    -7.8704  -7.8668  -7.8310  -7.8257  -7.7680  -7.7582  -7.7111  -7.7027
     1.5033   1.5045   1.5858   1.5864   1.6167   1.6171   1.8591   1.9205
     2.3608   2.4801   2.4823   2.6292   2.6352   2.6943   2.9546   2.9856
     3.0804   3.0854   3.6801   3.6816   3.7044   3.7567   4.1231   4.4429
     4.4432   4.4917   4.4995   4.5799   4.5840   4.7321   4.7399   4.8245
     4.8717   4.8853   5.1186   5.1461   5.3784   5.4001   5.4006   5.4292
     5.6457   5.6629   5.7672   5.7704   5.8273   5.8348   6.3535   6.3802
     6.4197   6.4706   6.5319   6.6345   6.7580   6.7698   6.8388   6.8484
     6.9275   6.9326   6.9948   7.0136   7.0917   7.0957   7.1163   7.1482
     7.3179   7.3458   7.7907   7.7977   7.8147   7.8361   7.8593   7.8727
     9.9705   9.9888  10.8159  10.8545  10.8760  10.9101  11.9046  11.9470
    12.0301  12.0566  12.3264  12.3292  12.3928  12.3930  12.9731  12.9773
    13.1757  13.2330  13.2699  13.4068  13.6529  13.6631  13.6948  13.7708
    15.1115  15.4516  15.4677  15.5718  15.5829  15.7751  16.2136  16.2150
    16.2565  16.8674  17.3491  17.4082  17.4324

          k = 0.1667 0.3172 0.3333 ( 62355 PWs)   bands (ev):

   -66.0573 -66.0571 -66.0568 -66.0566 -66.0564 -66.0562 -66.0559 -66.0557
   -30.4818 -30.4796 -30.4780 -30.4758 -30.4525 -30.4498 -30.4480 -30.4456
   -30.3968 -30.3941 -30.3834 -30.3799 -30.3769 -30.3760 -30.3643 -30.3599
   -30.3314 -30.3283 -30.3166 -30.3129 -30.3127 -30.3078 -30.2962 -30.2939
   -20.2070 -20.2068 -20.2067 -20.2065 -20.2063 -20.2063 -20.2062 -20.2062
   -20.2062 -20.2061 -20.2061 -20.2060 -20.2041 -20.2039 -20.2038 -20.2036
   -20.1967 -20.1965 -20.1963 -20.1960 -20.1958 -20.1954 -20.1953 -20.1949
   -20.1948 -20.1946 -20.1944 -20.1939 -20.1936 -20.1933 -20.1932 -20.1930
   -20.1825 -20.1824 -20.1823 -20.1821 -20.1821 -20.1818 -20.1817 -20.1816
   -20.1551 -20.1545 -20.1543 -20.1541 -20.1535 -20.1535 -20.1530 -20.1522
   -20.1513 -20.1506 -20.1502 -20.1499 -20.1495 -20.1491 -20.1490 -20.1484
    -9.5986  -9.4359  -9.3742  -9.2163  -9.1340  -8.9229  -8.8672  -8.8156
    -8.7912  -8.6912  -8.6529  -8.6064  -8.2581  -8.2302  -8.1646  -8.1526
    -8.1439  -8.0872  -8.0631  -8.0081  -7.8410  -7.8027  -7.7731  -7.7353
     1.5996   1.6172   1.6313   1.6496   2.1997   2.2803   2.2909   2.3814
     2.4571   2.4945   2.5181   2.7128   2.9046   2.9655   2.9911   3.0703
     3.2127   3.2993   3.6588   3.6773   3.7397   3.7971   3.9115   3.9829
     4.0996   4.2817   4.3877   4.4153   4.4591   4.5417   4.5879   4.6670
     4.7441   4.7801   4.8283   4.8624   4.9290   4.9941   5.1370   5.1654
     5.3275   5.3447   5.4395   5.6150   5.7934   5.8399   6.1674   6.1867
     6.5461   6.6096   6.6412   6.7331   6.8037   6.8344   6.9246   6.9662
     7.0005   7.0235   7.0440   7.0755   7.1440   7.1718   7.2005   7.2657
     7.3111   7.3611   7.7216   7.7273   7.7825   7.7976   7.8158   7.8487
    10.5599  10.5976  10.8635  10.8834  11.3099  11.3621  11.8867  11.9403
    11.9765  12.1029  12.2191  12.2610  12.4975  12.5866  12.6659  12.6937
    12.9186  13.0623  13.1301  13.3204  13.3402  13.3913  13.6747  13.7150
    15.3170  15.4429  15.7754  15.9760  16.0078  16.0535  16.1446  16.6898
    16.7460  16.8360  17.0515  17.5677  17.6424

          k = 0.1667 0.3172-0.5000 ( 62348 PWs)   bands (ev):

   -66.0570 -66.0570 -66.0568 -66.0568 -66.0562 -66.0562 -66.0560 -66.0560
   -30.4807 -30.4807 -30.4770 -30.4770 -30.4511 -30.4511 -30.4468 -30.4468
   -30.3954 -30.3954 -30.3805 -30.3805 -30.3554 -30.3554 -30.3522 -30.3522
   -30.3400 -30.3400 -30.3358 -30.3358 -30.3114 -30.3114 -30.2951 -30.2951
   -20.2069 -20.2069 -20.2066 -20.2066 -20.2063 -20.2063 -20.2063 -20.2063
   -20.2061 -20.2061 -20.2061 -20.2061 -20.2040 -20.2040 -20.2037 -20.2037
   -20.1966 -20.1966 -20.1960 -20.1960 -20.1954 -20.1954 -20.1950 -20.1950
   -20.1949 -20.1949 -20.1943 -20.1942 -20.1937 -20.1937 -20.1931 -20.1931
   -20.1824 -20.1824 -20.1822 -20.1822 -20.1819 -20.1819 -20.1817 -20.1817
   -20.1547 -20.1547 -20.1540 -20.1540 -20.1528 -20.1528 -20.1521 -20.1521
   -20.1516 -20.1516 -20.1508 -20.1508 -20.1495 -20.1495 -20.1488 -20.1488
    -9.4667  -9.4667  -9.3025  -9.3025  -8.9527  -8.9527  -8.7203  -8.7203
    -8.5718  -8.5718  -8.5374  -8.5374  -8.4691  -8.4691  -8.3979  -8.3979
    -8.1533  -8.1533  -8.1197  -8.1197  -7.8073  -7.8073  -7.7688  -7.7688
     1.6163   1.6163   1.6503   1.6503   2.3614   2.3614   2.4765   2.4765
     2.9836   2.9836   3.0900   3.0900   3.1258   3.1258   3.2844   3.2844
     3.3279   3.3279   3.4608   3.4608   3.5205   3.5205   3.7083   3.7083
     4.0427   4.0427   4.0782   4.0782   4.1499   4.1499   4.3668   4.3668
     4.7315   4.7315   4.8115   4.8115   4.9866   4.9866   5.0341   5.0341
     5.1459   5.1460   5.5155   5.5155   5.8943   5.8943   5.9114   5.9114
     6.6607   6.6607   6.7768   6.7768   6.8356   6.8356   6.8672   6.8672
     7.0195   7.0195   7.0703   7.0703   7.1723   7.1723   7.5191   7.5191
     7.5469   7.5469   7.5913   7.5913   7.6240   7.6240   7.8257   7.8257
    10.8475  10.8475  11.2949  11.2949  11.3553  11.3553  11.7819  11.7819
    12.0272  12.0272  12.2065  12.2065  12.5833  12.5833  12.6373  12.6373
    12.8342  12.8342  12.9558  12.9558  13.2806  13.2806  13.6867  13.6867
    15.3983  15.3983  15.9825  15.9825  16.3431  16.3431  16.4896  16.4896
    16.9231  16.9231  17.2726  17.2726  17.8471

          k = 0.1667-0.4758 0.1667 ( 62346 PWs)   bands (ev):

   -66.0573 -66.0573 -66.0565 -66.0565 -66.0565 -66.0565 -66.0557 -66.0557
   -30.4679 -30.4679 -30.4648 -30.4648 -30.4626 -30.4626 -30.4598 -30.4598
   -30.3978 -30.3978 -30.3933 -30.3933 -30.3821 -30.3821 -30.3779 -30.3779
   -30.3136 -30.3136 -30.3108 -30.3108 -30.2970 -30.2970 -30.2929 -30.2929
   -20.2065 -20.2065 -20.2063 -20.2063 -20.2062 -20.2062 -20.2061 -20.2061
   -20.2055 -20.2055 -20.2052 -20.2052 -20.2052 -20.2052 -20.2049 -20.2049
   -20.1967 -20.1966 -20.1964 -20.1964 -20.1958 -20.1958 -20.1955 -20.1955
   -20.1943 -20.1943 -20.1940 -20.1940 -20.1933 -20.1933 -20.1930 -20.1930
   -20.1826 -20.1826 -20.1822 -20.1822 -20.1819 -20.1819 -20.1815 -20.1815
   -20.1553 -20.1553 -20.1545 -20.1545 -20.1540 -20.1540 -20.1533 -20.1533
   -20.1502 -20.1502 -20.1495 -20.1495 -20.1490 -20.1490 -20.1481 -20.1481
    -9.6384  -9.6384  -9.2472  -9.2472  -9.2077  -9.2077  -8.9252  -8.9252
    -8.5267  -8.5267  -8.4580  -8.4579  -8.4527  -8.4527  -8.4476  -8.4476
    -7.8682  -7.8682  -7.8297  -7.8297  -7.7633  -7.7633  -7.7073  -7.7073
     1.5038   1.5038   1.5894   1.5894   1.6190   1.6190   1.9083   1.9083
     2.6559   2.6559   3.1197   3.1197   3.2286   3.2286   3.2340   3.2340
     3.2965   3.2965   3.3886   3.3886   3.5088   3.5088   3.5794   3.5794
     3.7219   3.7219   4.5038   4.5038   4.5527   4.5527   4.9248   4.9248
     4.9948   4.9948   5.0968   5.0968   5.1468   5.1468   5.4529   5.4529
     5.4935   5.4935   5.7748   5.7748   5.8067   5.8067   6.3971   6.3971
     6.5033   6.5033   6.5357   6.5357   6.7696   6.7696   6.8712   6.8712
     6.9264   6.9264   7.0763   7.0763   7.2730   7.2730   7.4455   7.4455
     7.4789   7.4789   7.4945   7.4945   7.5434   7.5434   7.8585   7.8585
     9.9833   9.9833  11.3638  11.3638  11.4224  11.4224  11.4527  11.4527
    11.4994  11.4994  12.3278  12.3278  12.3888  12.3888  12.9975  12.9975
    13.3781  13.3781  13.3943  13.3943  13.4238  13.4238  13.5751  13.5751
    15.5586  15.5586  15.6817  15.6817  15.9374  15.9374  15.9855  15.9856
    16.6636  16.6636  17.8473  17.8493  17.8771

          k = 0.1667-0.4758 0.3333 ( 62320 PWs)   bands (ev):

   -66.0572 -66.0572 -66.0567 -66.0567 -66.0563 -66.0563 -66.0558 -66.0558
   -30.4674 -30.4666 -30.4656 -30.4637 -30.4636 -30.4623 -30.4608 -30.4606
   -30.3968 -30.3943 -30.3836 -30.3799 -30.3770 -30.3761 -30.3644 -30.3600
   -30.3314 -30.3283 -30.3166 -30.3129 -30.3127 -30.3078 -30.2962 -30.2939
   -20.2064 -20.2064 -20.2064 -20.2063 -20.2063 -20.2062 -20.2062 -20.2062
   -20.2054 -20.2054 -20.2053 -20.2053 -20.2051 -20.2051 -20.2050 -20.2050
   -20.1966 -20.1965 -20.1963 -20.1959 -20.1958 -20.1954 -20.1953 -20.1950
   -20.1947 -20.1945 -20.1944 -20.1939 -20.1937 -20.1933 -20.1932 -20.1931
   -20.1825 -20.1824 -20.1823 -20.1821 -20.1820 -20.1818 -20.1817 -20.1816
   -20.1551 -20.1545 -20.1543 -20.1541 -20.1535 -20.1535 -20.1530 -20.1522
   -20.1513 -20.1506 -20.1502 -20.1499 -20.1495 -20.1491 -20.1490 -20.1484
    -9.5106  -9.4969  -9.2956  -9.2589  -9.0142  -8.9788  -8.8052  -8.7946
    -8.5643  -8.5614  -8.4783  -8.4738  -8.4410  -8.4396  -8.4275  -8.4217
    -8.1570  -8.1214  -8.0659  -8.0326  -7.8404  -7.8040  -7.7725  -7.7363
     1.6035   1.6201   1.6336   1.6515   2.2663   2.2927   2.4356   2.4596
     2.9196   2.9231   3.1210   3.1453   3.2200   3.2346   3.2390   3.2620
     3.2949   3.3099   3.4368   3.4787   3.5040   3.5668   3.6783   3.7018
     3.7724   3.7835   3.9152   3.9805   4.4280   4.4694   4.6101   4.6187
     4.6652   4.7176   4.7955   4.8242   4.9636   5.0125   5.0274   5.0565
     5.1386   5.1955   5.3570   5.4287   5.7984   5.8182   6.1770   6.1869
     6.6280   6.6474   6.6746   6.7123   6.8309   6.8751   7.0190   7.0771
     7.0848   7.1364   7.1530   7.1994   7.2084   7.2201   7.4166   7.4483
     7.4563   7.4722   7.4862   7.5004   7.5225   7.5376   7.8023   7.8042
    10.5825  10.5999  11.3862  11.4150  11.4376  11.4657  11.7596  11.7860
    11.7976  11.8291  11.9532  12.0157  12.4948  12.5650  12.7739  12.8002
    12.9218  12.9545  13.1225  13.2065  13.4002  13.4270  13.4614  13.5213
    15.6510  15.7047  15.8729  15.9224  16.2326  16.2813  16.6622  16.7066
    16.8615  16.8696  17.3611  17.4100  17.8113

          k = 0.1667-0.4758-0.5000 ( 62348 PWs)   bands (ev):

   -66.0569 -66.0569 -66.0569 -66.0569 -66.0561 -66.0561 -66.0561 -66.0561
   -30.4665 -30.4665 -30.4651 -30.4651 -30.4623 -30.4623 -30.4615 -30.4615
   -30.3956 -30.3956 -30.3806 -30.3806 -30.3555 -30.3555 -30.3522 -30.3522
   -30.3400 -30.3400 -30.3358 -30.3358 -30.3114 -30.3114 -30.2951 -30.2951
   -20.2064 -20.2064 -20.2063 -20.2063 -20.2062 -20.2062 -20.2062 -20.2062
   -20.2054 -20.2054 -20.2054 -20.2053 -20.2051 -20.2051 -20.2051 -20.2051
   -20.1965 -20.1965 -20.1960 -20.1960 -20.1953 -20.1953 -20.1949 -20.1949
   -20.1949 -20.1949 -20.1943 -20.1943 -20.1937 -20.1937 -20.1932 -20.1932
   -20.1824 -20.1824 -20.1822 -20.1822 -20.1818 -20.1818 -20.1817 -20.1817
   -20.1547 -20.1547 -20.1540 -20.1540 -20.1528 -20.1528 -20.1521 -20.1521
   -20.1516 -20.1516 -20.1508 -20.1508 -20.1495 -20.1495 -20.1488 -20.1488
    -9.3827  -9.3827  -9.3537  -9.3537  -8.7241  -8.7241  -8.7010  -8.7010
    -8.5893  -8.5893  -8.5742  -8.5742  -8.4011  -8.4011  -8.3784  -8.3784
    -8.3377  -8.3377  -8.3115  -8.3115  -7.8067  -7.8067  -7.7699  -7.7699
     1.6205   1.6205   1.6528   1.6528   2.9892   2.9892   3.0530   3.0530
     3.1374   3.1374   3.1575   3.1575   3.2140   3.2140   3.2720   3.2720
     3.3221   3.3221   3.4234   3.4234   3.4933   3.4934   3.5534   3.5534
     3.5989   3.5989   3.7360   3.7360   4.2866   4.2866   4.3176   4.3177
     4.3728   4.3728   4.4278   4.4278   4.8794   4.8794   5.0419   5.0419
     5.1533   5.1533   5.3031   5.3031   5.8948   5.8948   5.9110   5.9110
     6.7308   6.7308   6.7922   6.7922   6.8660   6.8660   6.9087   6.9087
     7.2697   7.2697   7.2940   7.2940   7.3507   7.3507   7.4148   7.4148
     7.4482   7.4482   7.5066   7.5066   7.6053   7.6053   7.6348   7.6348
    11.2553  11.2553  11.3023  11.3023  11.4371  11.4371  11.5064  11.5065
    12.2641  12.2641  12.2961  12.2961  12.3404  12.3404  12.3701  12.3701
    12.8048  12.8048  12.8813  12.8813  13.4127  13.4127  13.4627  13.4627
    15.7718  15.7718  15.8265  15.8265  16.8604  16.8604  16.9032  16.9033
    17.3637  17.3638  17.4072  17.4072  17.4950

          k = 0.3333 0.0000 0.3333 ( 62366 PWs)   bands (ev):

   -66.0572 -66.0568 -66.0567 -66.0567 -66.0563 -66.0563 -66.0562 -66.0558
   -30.4961 -30.4939 -30.4939 -30.4918 -30.4371 -30.4343 -30.4342 -30.4314
   -30.3816 -30.3780 -30.3768 -30.3761 -30.3639 -30.3628 -30.3604 -30.3603
   -30.3310 -30.3304 -30.3301 -30.3284 -30.3139 -30.3136 -30.3121 -30.3108
   -20.2082 -20.2080 -20.2080 -20.2078 -20.2064 -20.2063 -20.2063 -20.2063
   -20.2062 -20.2062 -20.2062 -20.2061 -20.2028 -20.2026 -20.2025 -20.2023
   -20.1965 -20.1965 -20.1962 -20.1962 -20.1956 -20.1955 -20.1951 -20.1950
   -20.1948 -20.1945 -20.1942 -20.1941 -20.1934 -20.1934 -20.1933 -20.1931
   -20.1824 -20.1823 -20.1821 -20.1821 -20.1819 -20.1819 -20.1818 -20.1817
   -20.1541 -20.1541 -20.1534 -20.1534 -20.1532 -20.1532 -20.1525 -20.1525
   -20.1510 -20.1510 -20.1507 -20.1507 -20.1501 -20.1500 -20.1495 -20.1494
    -9.5989  -9.3802  -9.3788  -9.2064  -9.1845  -8.9341  -8.9298  -8.7802
    -8.7222  -8.7165  -8.7112  -8.6953  -8.2094  -8.1611  -8.1515  -8.1369
    -8.1185  -8.1070  -8.0185  -7.9965  -7.8206  -7.7962  -7.7962  -7.7718
     1.4838   1.5198   1.5205   1.5554   2.2033   2.2075   2.3054   2.3140
     2.3520   2.3565   2.5447   2.6464   2.9101   2.9329   2.9672   3.0197
     3.2429   3.2853   3.7857   3.8230   3.9315   3.9395   4.1179   4.1303
     4.1306   4.1581   4.2607   4.3281   4.4341   4.4602   4.5487   4.5559
     4.8286   4.8972   4.9545   4.9917   5.0417   5.0637   5.1765   5.4269
     5.4355   5.5161   5.5257   5.6445   5.8807   5.8867   5.8873   6.0487
     6.4505   6.4524   6.4781   6.4807   6.5053   6.5425   6.5597   6.6148
     6.9740   7.1687   7.1900   7.2200   7.2322   7.3085   7.3534   7.3632
     7.4070   7.4812   7.7441   7.7538   7.8911   7.9496   7.9783   8.0082
    10.7601  10.8435  10.8885  10.8989  11.0427  11.2251  12.0948  12.1040
    12.1535  12.1632  12.2156  12.2949  12.5190  12.5283  12.8215  12.8529
    12.8683  12.8886  13.0100  13.0759  13.5880  13.6614  13.6635  13.7614
    14.5557  14.8141  14.8179  15.2710  15.7640  16.3432  16.3841  16.6974
    16.7433  17.1748  17.2178  17.7492  17.7772

          k = 0.3333 0.0000-0.5000 ( 62378 PWs)   bands (ev):

   -66.0570 -66.0570 -66.0565 -66.0565 -66.0565 -66.0565 -66.0560 -66.0560
   -30.4950 -30.4950 -30.4929 -30.4929 -30.4356 -30.4356 -30.4327 -30.4327
   -30.3782 -30.3782 -30.3636 -30.3636 -30.3534 -30.3534 -30.3531 -30.3531
   -30.3398 -30.3398 -30.3366 -30.3366 -30.3281 -30.3281 -30.3128 -30.3128
   -20.2081 -20.2081 -20.2079 -20.2079 -20.2063 -20.2063 -20.2063 -20.2063
   -20.2062 -20.2062 -20.2061 -20.2061 -20.2027 -20.2027 -20.2025 -20.2025
   -20.1964 -20.1964 -20.1959 -20.1959 -20.1956 -20.1956 -20.1952 -20.1952
   -20.1945 -20.1945 -20.1940 -20.1940 -20.1938 -20.1938 -20.1933 -20.1933
   -20.1823 -20.1823 -20.1821 -20.1821 -20.1819 -20.1819 -20.1818 -20.1818
   -20.1537 -20.1537 -20.1532 -20.1532 -20.1523 -20.1523 -20.1519 -20.1519
   -20.1519 -20.1519 -20.1511 -20.1511 -20.1505 -20.1505 -20.1498 -20.1498
    -9.4685  -9.4685  -9.2554  -9.2554  -9.0293  -9.0293  -8.7423  -8.7423
    -8.5855  -8.5855  -8.5102  -8.5102  -8.4575  -8.4575  -8.4193  -8.4193
    -8.1093  -8.1093  -8.0744  -8.0744  -7.8090  -7.8090  -7.7845  -7.7845
     1.5014   1.5014   1.5385   1.5385   2.3227   2.3227   2.3612   2.3612
     2.9222   2.9222   3.0443   3.0443   3.0825   3.0825   3.2458   3.2458
     3.3472   3.3472   3.6063   3.6063   3.7547   3.7547   3.8583   3.8583
     3.8935   3.8935   4.0402   4.0402   4.2092   4.2092   4.4020   4.4020
     4.7218   4.7218   4.9267   4.9267   5.0642   5.0643   5.1335   5.1335
     5.2729   5.2729   5.5287   5.5287   5.9115   5.9115   6.0081   6.0081
     6.3930   6.3930   6.4089   6.4089   6.4670   6.4670   6.5708   6.5708
     7.1521   7.1521   7.3125   7.3125   7.3900   7.3900   7.5627   7.5627
     7.5955   7.5955   7.6953   7.6953   7.7337   7.7337   7.9761   7.9761
    10.8765  10.8765  11.4777  11.4777  11.5752  11.5752  11.6484  11.6484
    11.8687  11.8687  12.2730  12.2730  12.4725  12.4725  12.6809  12.6809
    12.8819  12.8819  13.2307  13.2307  13.2694  13.2694  13.6755  13.6755
    14.7224  14.7224  15.0921  15.0921  16.2288  16.2288  16.7572  16.7572
    17.1186  17.1186  17.4436  17.4436  17.8915

          k = 0.3333 0.1586 0.3333 ( 62340 PWs)   bands (ev):

   -66.0572 -66.0568 -66.0567 -66.0567 -66.0563 -66.0563 -66.0562 -66.0558
   -30.4920 -30.4899 -30.4899 -30.4877 -30.4409 -30.4382 -30.4381 -30.4354
   -30.3814 -30.3783 -30.3768 -30.3763 -30.3638 -30.3629 -30.3605 -30.3604
   -30.3309 -30.3304 -30.3301 -30.3285 -30.3139 -30.3137 -30.3120 -30.3109
   -20.2078 -20.2077 -20.2076 -20.2075 -20.2064 -20.2063 -20.2063 -20.2062
   -20.2062 -20.2062 -20.2062 -20.2061 -20.2031 -20.2029 -20.2029 -20.2027
   -20.1964 -20.1964 -20.1961 -20.1961 -20.1955 -20.1955 -20.1950 -20.1950
   -20.1948 -20.1945 -20.1943 -20.1942 -20.1935 -20.1934 -20.1934 -20.1931
   -20.1824 -20.1823 -20.1821 -20.1821 -20.1820 -20.1819 -20.1818 -20.1817
   -20.1541 -20.1541 -20.1534 -20.1534 -20.1532 -20.1532 -20.1525 -20.1525
   -20.1510 -20.1510 -20.1507 -20.1507 -20.1501 -20.1500 -20.1495 -20.1494
    -9.5549  -9.3250  -9.3233  -9.2187  -9.1113  -8.9433  -8.9390  -8.7488
    -8.7147  -8.6998  -8.6975  -8.6917  -8.2275  -8.1595  -8.1548  -8.1387
    -8.1205  -8.1102  -8.0182  -7.9980  -7.9146  -7.8903  -7.8903  -7.8649
     1.7118   1.7453   1.7460   1.7848   2.2037   2.2075   2.3051   2.3142
     2.3612   2.3645   2.5466   2.6553   2.9831   3.0078   3.0440   3.0702
[...]
    10.9818  10.9818  11.5004  11.5004  11.5983  11.5983  11.6975  11.6975
    11.9145  11.9145  12.2986  12.2986  12.4666  12.4666  12.6852  12.6852
    12.7568  12.7568  13.1098  13.1098  13.1485  13.1485  13.5706  13.5706
    15.0851  15.0851  15.4745  15.4745  16.3139  16.3139  16.7596  16.7596
    17.1208  17.1208  17.4525  17.4526  17.7474

          k = 0.3333 0.3172 0.3333 ( 62352 PWs)   bands (ev):

   -66.0571 -66.0569 -66.0566 -66.0566 -66.0564 -66.0564 -66.0561 -66.0559
   -30.4811 -30.4789 -30.4788 -30.4767 -30.4514 -30.4490 -30.4489 -30.4464
   -30.3808 -30.3789 -30.3770 -30.3768 -30.3637 -30.3631 -30.3606 -30.3606
   -30.3305 -30.3304 -30.3300 -30.3290 -30.3140 -30.3138 -30.3118 -30.3112
   -20.2069 -20.2068 -20.2067 -20.2066 -20.2063 -20.2063 -20.2062 -20.2062
   -20.2062 -20.2062 -20.2061 -20.2061 -20.2041 -20.2039 -20.2039 -20.2037
   -20.1963 -20.1963 -20.1960 -20.1960 -20.1955 -20.1955 -20.1949 -20.1949
   -20.1949 -20.1947 -20.1943 -20.1942 -20.1936 -20.1935 -20.1935 -20.1933
   -20.1824 -20.1823 -20.1821 -20.1821 -20.1820 -20.1820 -20.1818 -20.1817
   -20.1541 -20.1541 -20.1534 -20.1534 -20.1532 -20.1532 -20.1525 -20.1525
   -20.1510 -20.1510 -20.1507 -20.1507 -20.1501 -20.1500 -20.1495 -20.1495
    -9.4478  -9.2592  -9.1888  -9.1865  -8.9764  -8.9719  -8.9053  -8.7112
    -8.7028  -8.6340  -8.6210  -8.6181  -8.3356  -8.2108  -8.2086  -8.1583
    -8.1464  -8.1226  -8.1192  -8.0710  -8.0674  -8.0430  -8.0074  -8.0011
     2.1890   2.1921   2.2192   2.2294   2.2795   2.3070   2.3076   2.3869
     2.5182   2.5274   2.5495   2.7530   3.1668   3.2005   3.2250   3.2731
     3.2862   3.3331   3.6707   3.6890   3.7406   3.8206   4.0423   4.0751
     4.1014   4.1719   4.1747   4.2667   4.3150   4.3765   4.3831   4.4640
     4.5093   4.5640   4.5771   4.6424   4.7349   4.8281   4.8615   4.9141
     4.9328   4.9331   5.1405   5.2555   5.3058   5.3224   5.5381   5.5418
     6.7934   6.8114   6.8253   6.8829   6.9484   6.9938   7.0157   7.0375
     7.0823   7.1603   7.1843   7.2307   7.2420   7.2875   7.3485   7.3502
     7.4181   7.4482   7.6709   7.7109   7.7504   7.7529   7.7636   7.8194
    10.9321  10.9957  11.2666  11.3141  11.3343  11.4892  12.0708  12.0799
    12.1155  12.1390  12.1553  12.2496  12.3859  12.4081  12.6225  12.6713
    12.7257  12.7469  12.8095  13.0775  13.2204  13.2830  13.2862  13.4377
    15.7534  15.9619  15.9701  16.1934  16.3650  16.3700  16.6400  16.8547
    16.8715  16.9299  17.1591  17.1949  17.6954

          k = 0.3333 0.3172-0.5000 ( 62340 PWs)   bands (ev):

   -66.0569 -66.0569 -66.0566 -66.0566 -66.0564 -66.0564 -66.0561 -66.0561
   -30.4800 -30.4800 -30.4778 -30.4778 -30.4502 -30.4502 -30.4477 -30.4477
   -30.3783 -30.3783 -30.3638 -30.3638 -30.3535 -30.3535 -30.3532 -30.3532
   -30.3399 -30.3399 -30.3368 -30.3368 -30.3281 -30.3281 -30.3129 -30.3129
   -20.2069 -20.2069 -20.2067 -20.2067 -20.2063 -20.2063 -20.2062 -20.2062
   -20.2062 -20.2062 -20.2061 -20.2061 -20.2040 -20.2040 -20.2038 -20.2038
   -20.1962 -20.1962 -20.1958 -20.1958 -20.1955 -20.1955 -20.1951 -20.1951
   -20.1946 -20.1946 -20.1942 -20.1942 -20.1939 -20.1939 -20.1935 -20.1935
   -20.1822 -20.1822 -20.1821 -20.1821 -20.1819 -20.1819 -20.1818 -20.1818
   -20.1537 -20.1537 -20.1532 -20.1532 -20.1523 -20.1523 -20.1519 -20.1519
   -20.1519 -20.1519 -20.1511 -20.1511 -20.1505 -20.1505 -20.1498 -20.1498
    -9.2913  -9.2913  -9.0796  -9.0796  -9.0011  -9.0011  -8.6541  -8.6541
    -8.6213  -8.6213  -8.5055  -8.5055  -8.4455  -8.4455  -8.4057  -8.4057
    -8.1635  -8.1635  -8.1398  -8.1398  -8.0898  -8.0898  -8.0441  -8.0441
     2.2302   2.2302   2.3173   2.3173   2.3786   2.3786   2.5095   2.5095
     3.0696   3.0696   3.1257   3.1257   3.2027   3.2028   3.2893   3.2893
     3.3712   3.3712   3.6303   3.6303   3.7326   3.7326   3.8286   3.8286
     4.0167   4.0167   4.0932   4.0932   4.1395   4.1395   4.2529   4.2529
     4.3387   4.3387   4.4846   4.4846   4.6172   4.6172   4.8448   4.8448
     4.9593   4.9593   5.0220   5.0220   5.0851   5.0851   5.3053   5.3053
     6.8437   6.8437   6.9048   6.9048   6.9691   6.9691   7.0306   7.0306
     7.1742   7.1742   7.2880   7.2880   7.3933   7.3933   7.5080   7.5080
     7.5523   7.5523   7.6190   7.6190   7.6446   7.6446   7.7722   7.7722
    11.2688  11.2688  11.5396  11.5396  11.6272  11.6272  11.8725  11.8725
    12.0748  12.0748  12.3357  12.3357  12.3928  12.3928  12.4432  12.4432
    12.7289  12.7289  12.8284  12.8284  12.9000  12.9000  13.3113  13.3113
    15.9184  15.9184  16.4061  16.4061  16.5789  16.5789  16.7407  16.7407
    17.1442  17.1442  17.3398  17.3398  17.6078

          k = 0.3333-0.4758 0.3333 ( 62348 PWs)   bands (ev):

   -66.0570 -66.0570 -66.0565 -66.0565 -66.0565 -66.0565 -66.0560 -66.0560
   -30.4662 -30.4662 -30.4644 -30.4644 -30.4633 -30.4632 -30.4616 -30.4615
   -30.3799 -30.3799 -30.3770 -30.3770 -30.3634 -30.3634 -30.3607 -30.3607
   -30.3304 -30.3304 -30.3296 -30.3296 -30.3139 -30.3139 -30.3115 -30.3115
   -20.2064 -20.2064 -20.2063 -20.2063 -20.2063 -20.2063 -20.2062 -20.2062
   -20.2054 -20.2054 -20.2052 -20.2052 -20.2052 -20.2052 -20.2051 -20.2051
   -20.1962 -20.1962 -20.1960 -20.1960 -20.1955 -20.1955 -20.1949 -20.1949
   -20.1949 -20.1948 -20.1943 -20.1942 -20.1937 -20.1937 -20.1935 -20.1935
   -20.1823 -20.1823 -20.1821 -20.1821 -20.1820 -20.1820 -20.1817 -20.1817
   -20.1541 -20.1541 -20.1534 -20.1534 -20.1532 -20.1532 -20.1525 -20.1525
   -20.1510 -20.1510 -20.1507 -20.1507 -20.1501 -20.1500 -20.1495 -20.1495
    -9.3359  -9.3359  -9.0675  -9.0674  -9.0358  -9.0357  -8.7104  -8.7104
    -8.6064  -8.6064  -8.4486  -8.4486  -8.4397  -8.4397  -8.4256  -8.4256
    -8.1366  -8.1366  -8.1114  -8.1114  -8.0965  -8.0965  -8.0059  -8.0059
     2.2020   2.2021   2.2835   2.2835   2.3121   2.3121   2.5188   2.5188
     3.1340   3.1340   3.1639   3.1639   3.2358   3.2358   3.2662   3.2662
     3.3466   3.3467   3.5615   3.5615   3.6536   3.6536   3.6872   3.6872
     3.7967   3.7967   4.0915   4.0915   4.2126   4.2126   4.4151   4.4151
     4.5191   4.5191   4.6216   4.6216   4.7038   4.7038   4.7761   4.7761
     4.8767   4.8768   4.9932   4.9932   5.0128   5.0128   5.5328   5.5328
     6.9080   6.9080   7.0335   7.0335   7.0795   7.0795   7.1425   7.1426
     7.2184   7.2184   7.2549   7.2549   7.2896   7.2896   7.4161   7.4161
     7.4546   7.4547   7.5176   7.5176   7.5576   7.5576   7.7651   7.7651
    10.9839  10.9839  11.6868  11.6868  11.7432  11.7432  11.8007  11.8007
    11.8888  11.8888  12.1361  12.1361  12.2492  12.2492  12.6667  12.6667
    12.8920  12.8920  12.9516  12.9516  12.9991  12.9991  13.2264  13.2264
    16.3355  16.3355  16.4148  16.4148  16.6090  16.6090  16.6715  16.6715
    16.9862  16.9862  17.4522  17.4522  17.5365

          k = 0.3333-0.4758-0.5000 ( 62312 PWs)   bands (ev):

   -66.0567 -66.0567 -66.0567 -66.0567 -66.0563 -66.0563 -66.0563 -66.0563
   -30.4654 -30.4654 -30.4646 -30.4646 -30.4630 -30.4630 -30.4625 -30.4625
   -30.3784 -30.3784 -30.3639 -30.3639 -30.3535 -30.3535 -30.3532 -30.3532
   -30.3400 -30.3400 -30.3369 -30.3368 -30.3281 -30.3281 -30.3129 -30.3129
   -20.2064 -20.2064 -20.2063 -20.2063 -20.2063 -20.2063 -20.2062 -20.2062
   -20.2053 -20.2053 -20.2053 -20.2053 -20.2052 -20.2052 -20.2051 -20.2051
   -20.1961 -20.1961 -20.1958 -20.1958 -20.1954 -20.1954 -20.1951 -20.1951
   -20.1946 -20.1946 -20.1943 -20.1943 -20.1939 -20.1939 -20.1936 -20.1936
   -20.1822 -20.1822 -20.1821 -20.1821 -20.1819 -20.1819 -20.1818 -20.1818
   -20.1537 -20.1537 -20.1532 -20.1532 -20.1523 -20.1523 -20.1519 -20.1519
   -20.1519 -20.1519 -20.1511 -20.1511 -20.1505 -20.1505 -20.1498 -20.1498
    -9.1716  -9.1716  -9.1511  -9.1511  -8.7841  -8.7841  -8.7647  -8.7647
    -8.5289  -8.5289  -8.5171  -8.5171  -8.3941  -8.3940  -8.3744  -8.3744
    -8.3419  -8.3419  -8.3172  -8.3172  -8.0964  -8.0964  -8.0627  -8.0627
     2.2992   2.2992   2.3278   2.3278   3.0027   3.0027   3.0438   3.0438
     3.1288   3.1288   3.1530   3.1530   3.2660   3.2660   3.2919   3.2919
     3.3996   3.3996   3.4394   3.4394   3.6401   3.6401   3.6872   3.6872
     3.8039   3.8039   3.8739   3.8739   4.2476   4.2476   4.2807   4.2807
     4.3367   4.3367   4.3905   4.3905   4.4673   4.4673   4.5724   4.5724
     4.6632   4.6632   4.8145   4.8145   5.0905   5.0905   5.1103   5.1103
     6.9965   6.9965   7.0657   7.0657   7.1782   7.1782   7.1951   7.1951
     7.2776   7.2776   7.3118   7.3118   7.3584   7.3584   7.4089   7.4089
     7.4833   7.4833   7.5513   7.5513   7.6242   7.6242   7.6530   7.6530
    11.4951  11.4951  11.5391  11.5391  11.7749  11.7749  11.8607  11.8607
    12.2238  12.2238  12.2783  12.2783  12.3339  12.3339  12.3733  12.3733
    12.5357  12.5357  12.6504  12.6504  12.9873  12.9873  13.0689  13.0689
    16.5016  16.5016  16.5631  16.5631  17.0311  17.0311  17.0569  17.0570
    17.3409  17.3409  17.4191  17.4193  17.4765

          k =-0.5000 0.0000-0.5000 ( 62452 PWs)   bands (ev):

   -66.0567 -66.0567 -66.0567 -66.0567 -66.0563 -66.0563 -66.0563 -66.0563
   -30.4940 -30.4940 -30.4940 -30.4940 -30.4341 -30.4341 -30.4340 -30.4340
   -30.3565 -30.3565 -30.3563 -30.3563 -30.3534 -30.3534 -30.3530 -30.3530
   -30.3376 -30.3376 -30.3371 -30.3371 -30.3362 -30.3362 -30.3358 -30.3358
   -20.2080 -20.2080 -20.2080 -20.2080 -20.2063 -20.2063 -20.2063 -20.2063
   -20.2062 -20.2062 -20.2062 -20.2062 -20.2026 -20.2026 -20.2026 -20.2026
   -20.1960 -20.1960 -20.1958 -20.1958 -20.1957 -20.1957 -20.1955 -20.1955
   -20.1942 -20.1942 -20.1940 -20.1940 -20.1938 -20.1938 -20.1937 -20.1937
   -20.1821 -20.1821 -20.1821 -20.1821 -20.1820 -20.1820 -20.1820 -20.1820
   -20.1525 -20.1525 -20.1525 -20.1525 -20.1524 -20.1524 -20.1524 -20.1524
   -20.1513 -20.1513 -20.1513 -20.1513 -20.1512 -20.1512 -20.1512 -20.1512
    -9.3377  -9.3377  -9.3359  -9.3359  -8.7471  -8.7471  -8.7343  -8.7343
    -8.5710  -8.5709  -8.5534  -8.5534  -8.3826  -8.3826  -8.3684  -8.3684
    -8.3616  -8.3616  -8.3428  -8.3428  -7.7974  -7.7974  -7.7973  -7.7973
     1.5196   1.5197   1.5208   1.5208   2.9616   2.9616   2.9686   2.9686
     3.1101   3.1101   3.1204   3.1204   3.1560   3.1560   3.1821   3.1821
     3.3777   3.3777   3.3816   3.3816   3.7492   3.7492   3.8065   3.8065
     3.8179   3.8179   3.8878   3.8878   4.2299   4.2299   4.2386   4.2387
     4.3230   4.3230   4.3446   4.3446   4.9239   4.9239   4.9319   4.9319
     5.3738   5.3738   5.3834   5.3834   5.9972   5.9972   5.9980   5.9980
     6.3777   6.3777   6.3814   6.3814   6.4281   6.4281   6.4396   6.4396
     7.4655   7.4655   7.4747   7.4747   7.5170   7.5170   7.5393   7.5393
     7.6200   7.6200   7.6269   7.6269   7.8004   7.8004   7.8280   7.8280
    11.5402  11.5402  11.5806  11.5806  11.6265  11.6265  11.6590  11.6590
    12.0349  12.0349  12.0462  12.0462  12.2090  12.2090  12.2156  12.2156
    13.1408  13.1408  13.1623  13.1623  13.3108  13.3108  13.3304  13.3304
    14.9493  14.9494  14.9509  14.9509  16.6784  16.6784  16.7079  16.7079
    17.7662  17.7663  17.7718  17.7718  17.9058

          k =-0.5000 0.1586-0.5000 ( 62384 PWs)   bands (ev):

   -66.0567 -66.0567 -66.0567 -66.0567 -66.0563 -66.0563 -66.0563 -66.0563
   -30.4900 -30.4900 -30.4899 -30.4899 -30.4381 -30.4381 -30.4380 -30.4380
   -30.3563 -30.3563 -30.3562 -30.3562 -30.3537 -30.3536 -30.3533 -30.3533
   -30.3375 -30.3375 -30.3371 -30.3371 -30.3363 -30.3363 -30.3360 -30.3359
   -20.2077 -20.2077 -20.2077 -20.2077 -20.2063 -20.2063 -20.2063 -20.2063
   -20.2062 -20.2062 -20.2062 -20.2062 -20.2030 -20.2029 -20.2029 -20.2029
   -20.1959 -20.1959 -20.1957 -20.1957 -20.1957 -20.1957 -20.1955 -20.1955
   -20.1942 -20.1942 -20.1940 -20.1940 -20.1938 -20.1938 -20.1937 -20.1937
   -20.1821 -20.1821 -20.1821 -20.1821 -20.1820 -20.1820 -20.1820 -20.1820
   -20.1525 -20.1525 -20.1525 -20.1525 -20.1524 -20.1524 -20.1524 -20.1524
   -20.1513 -20.1513 -20.1513 -20.1513 -20.1512 -20.1512 -20.1512 -20.1512
    -9.2751  -9.2751  -9.2729  -9.2729  -8.7601  -8.7601  -8.7478  -8.7478
    -8.5577  -8.5577  -8.5399  -8.5399  -8.3815  -8.3815  -8.3680  -8.3679
    -8.3626  -8.3626  -8.3434  -8.3434  -7.8936  -7.8936  -7.8933  -7.8933
     1.7522   1.7522   1.7534   1.7534   2.9793   2.9793   2.9886   2.9886
     3.1228   3.1228   3.1308   3.1308   3.1751   3.1751   3.2025   3.2025
     3.3694   3.3694   3.3738   3.3738   3.7920   3.7920   3.8446   3.8446
     3.8650   3.8650   3.9311   3.9311   4.2149   4.2149   4.2237   4.2237
     4.3231   4.3231   4.3450   4.3450   4.7048   4.7048   4.7113   4.7113
     5.1310   5.1310   5.1375   5.1376   5.7278   5.7278   5.7286   5.7286
     6.5701   6.5701   6.5838   6.5838   6.6137   6.6137   6.6221   6.6221
     7.4551   7.4551   7.4642   7.4642   7.5081   7.5081   7.5320   7.5320
     7.6098   7.6098   7.6130   7.6130   7.7729   7.7729   7.7939   7.7939
    11.6004  11.6004  11.6384  11.6384  11.6865  11.6865  11.7185  11.7185
    12.0379  12.0379  12.0486  12.0486  12.2282  12.2282  12.2338  12.2338
    13.0118  13.0118  13.0316  13.0316  13.1911  13.1911  13.2087  13.2087
    15.3332  15.3332  15.3349  15.3349  16.7440  16.7440  16.7715  16.7715
    17.6715  17.6715  17.6913  17.6913  17.9081

          k =-0.5000 0.3172-0.5000 ( 62376 PWs)   bands (ev):

   -66.0566 -66.0566 -66.0566 -66.0566 -66.0564 -66.0564 -66.0564 -66.0564
   -30.4790 -30.4790 -30.4789 -30.4789 -30.4489 -30.4489 -30.4489 -30.4489
   -30.3557 -30.3557 -30.3557 -30.3557 -30.3543 -30.3542 -30.3540 -30.3540
   -30.3372 -30.3372 -30.3370 -30.3370 -30.3365 -30.3365 -30.3363 -30.3363
   -20.2068 -20.2068 -20.2067 -20.2067 -20.2063 -20.2063 -20.2062 -20.2062
   -20.2062 -20.2062 -20.2061 -20.2061 -20.2039 -20.2039 -20.2039 -20.2039
   -20.1957 -20.1957 -20.1956 -20.1956 -20.1956 -20.1956 -20.1954 -20.1954
   -20.1942 -20.1942 -20.1941 -20.1941 -20.1940 -20.1940 -20.1939 -20.1939
   -20.1821 -20.1821 -20.1820 -20.1820 -20.1820 -20.1820 -20.1820 -20.1820
   -20.1525 -20.1525 -20.1525 -20.1525 -20.1524 -20.1524 -20.1524 -20.1524
   -20.1513 -20.1513 -20.1513 -20.1513 -20.1512 -20.1512 -20.1512 -20.1512
    -9.1107  -9.1107  -9.1072  -9.1072  -8.8084  -8.8084  -8.7982  -8.7982
    -8.5084  -8.5084  -8.4893  -8.4893  -8.3790  -8.3790  -8.3684  -8.3684
    -8.3649  -8.3649  -8.3435  -8.3435  -8.1244  -8.1244  -8.1227  -8.1227
     2.3717   2.3717   2.3728   2.3728   3.0181   3.0181   3.0328   3.0328
     3.1220   3.1220   3.1238   3.1238   3.2534   3.2534   3.2835   3.2835
     3.3361   3.3361   3.3456   3.3456   3.9227   3.9227   3.9693   3.9693
     3.9807   3.9807   4.0093   4.0094   4.0760   4.0760   4.1040   4.1040
     4.3209   4.3209   4.3524   4.3524   4.3775   4.3775   4.3802   4.3802
     4.7174   4.7174   4.7177   4.7177   5.0365   5.0365   5.0397   5.0397
     6.8984   6.8984   6.9182   6.9182   7.0002   7.0002   7.0173   7.0173
     7.3986   7.3986   7.4052   7.4052   7.4710   7.4710   7.4945   7.4945
     7.5917   7.5917   7.5922   7.5922   7.6898   7.6898   7.7018   7.7018
    11.7594  11.7594  11.7785  11.7785  11.8393  11.8393  11.8567  11.8567
    12.0701  12.0701  12.0775  12.0775  12.3097  12.3097  12.3139  12.3139
    12.6906  12.6906  12.7066  12.7066  12.8899  12.8899  12.9019  12.9019
    16.2750  16.2750  16.2761  16.2761  16.9280  16.9280  16.9479  16.9479
    17.4423  17.4423  17.4795  17.4795  17.9133

          k =-0.5000-0.4758-0.5000 ( 62336 PWs)   bands (ev):

   -66.0565 -66.0565 -66.0565 -66.0565 -66.0565 -66.0565 -66.0565 -66.0565
   -30.4642 -30.4642 -30.4639 -30.4639 -30.4638 -30.4638 -30.4637 -30.4637
   -30.3551 -30.3551 -30.3550 -30.3550 -30.3550 -30.3550 -30.3547 -30.3547
   -30.3369 -30.3369 -30.3368 -30.3368 -30.3368 -30.3368 -30.3368 -30.3368
   -20.2063 -20.2063 -20.2063 -20.2063 -20.2063 -20.2063 -20.2063 -20.2063
   -20.2053 -20.2053 -20.2053 -20.2053 -20.2052 -20.2052 -20.2052 -20.2052
   -20.1956 -20.1956 -20.1956 -20.1956 -20.1956 -20.1956 -20.1955 -20.1955
   -20.1942 -20.1942 -20.1941 -20.1941 -20.1941 -20.1941 -20.1941 -20.1941
   -20.1820 -20.1820 -20.1820 -20.1820 -20.1820 -20.1820 -20.1820 -20.1820
   -20.1525 -20.1525 -20.1525 -20.1525 -20.1524 -20.1524 -20.1524 -20.1524
   -20.1513 -20.1513 -20.1513 -20.1513 -20.1512 -20.1512 -20.1512 -20.1512
    -8.9323  -8.9323  -8.9177  -8.9177  -8.9176  -8.9176  -8.9162  -8.9161
    -8.4182  -8.4182  -8.3877  -8.3877  -8.3866  -8.3866  -8.3866  -8.3866
    -8.3430  -8.3430  -8.3430  -8.3430  -8.3249  -8.3249  -8.3144  -8.3144
     2.9991   2.9991   3.0045   3.0045   3.0046   3.0046   3.0188   3.0188
     3.1867   3.1867   3.1934   3.1934   3.1934   3.1934   3.2145   3.2145
     3.3785   3.3785   3.4682   3.4682   3.4682   3.4682   3.5190   3.5190
     4.1541   4.1541   4.1697   4.1698   4.1740   4.1740   4.1740   4.1740
     4.3604   4.3604   4.3604   4.3604   4.3851   4.3852   4.3862   4.3862
     4.4595   4.4595   4.4851   4.4851   4.4897   4.4897   4.4897   4.4897
     7.1146   7.1146   7.1901   7.1901   7.1901   7.1901   7.2880   7.2880
     7.3380   7.3380   7.3483   7.3483   7.3483   7.3483   7.3499   7.3499
     7.5929   7.5929   7.6086   7.6086   7.6086   7.6086   7.6366   7.6366
    11.8847  11.8847  11.8872  11.8872  11.8872  11.8872  11.8961  11.8961
    12.2249  12.2249  12.2882  12.2882  12.2882  12.2882  12.3813  12.3813
    12.5193  12.5193  12.5646  12.5646  12.5646  12.5646  12.5882  12.5882
    17.1150  17.1150  17.1519  17.1519  17.1519  17.1519  17.1917  17.1918
    17.4039  17.4039  17.4039  17.4039  17.4340

     the Fermi energy is     9.9368 ev

!    total energy              =   -6260.68624352 Ry
     Harris-Foulkes estimate   =   -6260.68624352 Ry
     estimated scf accuracy    <          1.4E-09 Ry

     The total energy is the sum of the following terms:

     one-electron contribution =   -4727.11444368 Ry
     hartree contribution      =    2601.77022903 Ry
     xc contribution           =    -966.33134425 Ry
     ewald contribution        =   -3169.01067519 Ry
     smearing contrib. (-TS)   =      -0.00000943 Ry

     convergence has been achieved in  13 iterations

     Writing output data file Landau_5.save
 
     init_run     :     18.60s CPU     19.65s WALL (       1 calls)
     electrons    :    969.50s CPU    984.97s WALL (       1 calls)

     Called by init_run:
     wfcinit      :     16.72s CPU     17.62s WALL (       1 calls)
     potinit      :      0.71s CPU      0.73s WALL (       1 calls)

     Called by electrons:
     c_bands      :    844.01s CPU    858.06s WALL (      13 calls)
     sum_band     :    116.43s CPU    117.04s WALL (      13 calls)
     v_of_rho     :      1.69s CPU      1.72s WALL (      14 calls)
     mix_rho      :      2.47s CPU      2.93s WALL (      13 calls)

     Called by c_bands:
     init_us_2    :      5.09s CPU      5.72s WALL (      27 calls)
     cegterg      :    549.22s CPU    563.05s WALL (      13 calls)

     Called by sum_band:

     Called by *egterg:
     h_psi        :    423.74s CPU    425.65s WALL (      65 calls)
     g_psi        :      1.86s CPU      1.86s WALL (      51 calls)
     cdiaghg      :      7.79s CPU      7.81s WALL (      64 calls)

     Called by h_psi:
     h_psi:pot    :    420.96s CPU    422.69s WALL (      65 calls)
     h_psi:calbec :     52.70s CPU     53.93s WALL (      65 calls)
     vloc_psi     :    311.79s CPU    312.16s WALL (      65 calls)
     add_vuspsi   :     56.47s CPU     56.59s WALL (      65 calls)

     General routines
     calbec       :     52.70s CPU     53.93s WALL (      65 calls)
     fft          :      1.03s CPU      1.04s WALL (      56 calls)
     fftw         :    323.87s CPU    324.04s WALL (   16967 calls)
 
     Parallel routines
 
     PWSCF        : 16m35.11s CPU    16m56.32s WALL

 
   This run was terminated on:  21:33:27  26Mar2020            

=------------------------------------------------------------------------------=
   JOB DONE.
=------------------------------------------------------------------------------=
