
     Program PWSCF v.6.2 (svn rev. 14038) starts on 19Mar2020 at 19:58:33 

     This program is part of the open-source Quantum ESPRESSO suite
     for quantum simulation of materials; please cite
         "P. Giannozzi et al., J. Phys.:Condens. Matter 21 395502 (2009);
         "P. Giannozzi et al., J. Phys.:Condens. Matter 29 465901 (2017);
          URL http://www.quantum-espresso.org", 
     in publications or presentations arising from this work. More details at
     http://www.quantum-espresso.org/quote

     Parallel version (MPI), running on    40 processors

     MPI processes distributed on     7 nodes
     K-points division:     npool     =      40
     Reading input from rscf.in

     Current dimensions of program PWSCF are:
     Max number of different atomic species (ntypx) = 10
     Max number of k-points (npk) =  40000
     Max angular momentum in pseudopotentials (lmaxx) =  3

     Subspace diagonalization in iterative solution of the eigenvalue problem:
     a serial algorithm will be used

 
     G-vector sticks info
     --------------------
     sticks:   dense  smooth     PW     G-vecs:    dense   smooth      PW
     Sum        7747    7747   2077               498127   498127   69057
 


     bravais-lattice index     =            0
     lattice parameter (alat)  =      13.8397  a.u.
     unit-cell volume          =    2804.9816 (a.u.)^3
     number of atoms/cell      =           32
     number of atomic types    =            2
     number of electrons       =       368.00
     number of Kohn-Sham states=          221
     kinetic-energy cutoff     =     120.0000  Ry
     charge density cutoff     =     480.0000  Ry
     convergence threshold     =      1.0E-08
     mixing beta               =       0.7000
     number of iterations used =            8  plain     mixing
     Exchange-correlation      = SLA PW NOGX NOGC ( 1  4  0  0 0 0)
     nstep                     =           50


     celldm(1)=  13.839685  celldm(2)=   0.000000  celldm(3)=   0.000000
     celldm(4)=   0.000000  celldm(5)=   0.000000  celldm(6)=   0.000000

     crystal axes: (cart. coord. in units of alat)
               a(1) = (   1.000000   0.000000   0.000000 )  
               a(2) = (   0.000000   1.058160   0.000000 )  
               a(3) = (   0.000000   0.000000   1.000000 )  

     reciprocal axes: (cart. coord. in units 2 pi/alat)
               b(1) = (  1.000000  0.000000  0.000000 )  
               b(2) = (  0.000000  0.945037  0.000000 )  
               b(3) = (  0.000000  0.000000  1.000000 )  


     PseudoPot. # 1 for W  read from file:
     /cluster/scratch/mnoe/QE/pps/W_ONCV_LDA-4.0.upf
     MD5 check sum: ba0307d5d4cd419d6f1d13dc49d7c13a
     Pseudo is Norm-conserving + core correction, Zval = 28.0
     Generated using ONCVPSP code by D. R. Hamann
     Using radial grid of 1380 points,  8 beta functions with: 
                l(1) =   0
                l(2) =   0
                l(3) =   1
                l(4) =   1
                l(5) =   2
                l(6) =   2
                l(7) =   3
                l(8) =   3

     PseudoPot. # 2 for O  read from file:
     /cluster/scratch/mnoe/QE/pps/O_ONCV_LDA-3.0.upf
     MD5 check sum: a1bd6164e7280c17a38c229939bfbd54
     Pseudo is Norm-conserving + core correction, Zval =  6.0
     Generated using ONCVPSP code by D. R. Hamann
     Using radial grid of  926 points,  5 beta functions with: 
                l(1) =   0
                l(2) =   0
                l(3) =   1
                l(4) =   1
                l(5) =   2

     atomic species   valence    mass     pseudopotential
        W             28.00   183.84000     W ( 1.00)
        O              6.00    15.99940     O ( 1.00)

      8 Sym. Ops., with inversion, found ( 6 have fractional translation)



   Cartesian axes

     site n.     atom                  positions (alat units)
         1           W   tau(   1) = (   0.2468817   0.2870332   0.0029447  )
         2           W   tau(   2) = (   0.7531183   0.7711269  -0.0029447  )
         3           W   tau(   3) = (   0.2531183   0.2420469   0.5029447  )
         4           W   tau(   4) = (   0.7468816   0.8161133   0.4970553  )
         5           W   tau(   5) = (   0.7531183   0.2870332   0.4970553  )
         6           W   tau(   6) = (   0.2468817   0.7711269   0.5029447  )
         7           W   tau(   7) = (   0.7468816   0.2420469  -0.0029447  )
         8           W   tau(   8) = (   0.2531183   0.8161133   0.0029447  )
         9           O   tau(   9) = (   0.2442471   0.0057473   0.0009153  )
        10           O   tau(  10) = (   0.7557529  -0.0057473  -0.0009153  )
        11           O   tau(  11) = (   0.2557529   0.5233328   0.5009153  )
        12           O   tau(  12) = (   0.7442470   0.5348274   0.4990847  )
        13           O   tau(  13) = (   0.7557529   0.0057473   0.4990847  )
        14           O   tau(  14) = (   0.2442471  -0.0057473   0.5009153  )
        15           O   tau(  15) = (   0.7442470   0.5233328  -0.0009153  )
        16           O   tau(  16) = (   0.2557529   0.5348274   0.0009153  )
        17           O   tau(  17) = (   0.5008529   0.2582956   0.4754667  )
        18           O   tau(  18) = (   0.4991471   0.7998646   0.5245334  )
        19           O   tau(  19) = (  -0.0008529   0.2707845   0.9754668  )
        20           O   tau(  20) = (   0.0008529   0.7873756   0.0245332  )
        21           O   tau(  21) = (   0.4991471   0.2582956   0.0245332  )
        22           O   tau(  22) = (   0.5008529   0.7998646   0.9754668  )
        23           O   tau(  23) = (   0.0008529   0.2707845   0.5245334  )
        24           O   tau(  24) = (  -0.0008529   0.7873756   0.4754667  )
        25           O   tau(  25) = (   0.7254667   0.2631773   0.7487071  )
        26           O   tau(  26) = (   0.2745332   0.7949828   0.2512928  )
        27           O   tau(  27) = (   0.7745334   0.2659027   0.2487072  )
        28           O   tau(  28) = (   0.2254667   0.7922574   0.7512928  )
        29           O   tau(  29) = (   0.2745332   0.2631773   0.7512928  )
        30           O   tau(  30) = (   0.7254667   0.7949828   0.2487072  )
        31           O   tau(  31) = (   0.2254667   0.2659027   0.2512928  )
        32           O   tau(  32) = (   0.7745334   0.7922574   0.7487071  )

     number of k points=    64  gaussian smearing, width (Ry)=  0.0007
                       cart. coord. in units 2pi/alat
        k(    1) = (   0.0000000   0.0000000   0.0000000), wk =   0.0092593
        k(    2) = (   0.0000000   0.0000000   0.1666667), wk =   0.0185185
        k(    3) = (   0.0000000   0.0000000   0.3333333), wk =   0.0185185
        k(    4) = (   0.0000000   0.0000000  -0.5000000), wk =   0.0092593
        k(    5) = (   0.0000000   0.1575061   0.0000000), wk =   0.0185185
        k(    6) = (   0.0000000   0.1575061   0.1666667), wk =   0.0370370
        k(    7) = (   0.0000000   0.1575061   0.3333333), wk =   0.0370370
        k(    8) = (   0.0000000   0.1575061  -0.5000000), wk =   0.0185185
        k(    9) = (   0.0000000   0.3150122   0.0000000), wk =   0.0185185
        k(   10) = (   0.0000000   0.3150122   0.1666667), wk =   0.0370370
        k(   11) = (   0.0000000   0.3150122   0.3333333), wk =   0.0370370
        k(   12) = (   0.0000000   0.3150122  -0.5000000), wk =   0.0185185
        k(   13) = (   0.0000000  -0.4725183   0.0000000), wk =   0.0092593
        k(   14) = (   0.0000000  -0.4725183   0.1666667), wk =   0.0185185
        k(   15) = (   0.0000000  -0.4725183   0.3333333), wk =   0.0185185
        k(   16) = (   0.0000000  -0.4725183  -0.5000000), wk =   0.0092593
        k(   17) = (   0.1666667   0.0000000   0.1666667), wk =   0.0370370
        k(   18) = (   0.1666667   0.0000000   0.3333333), wk =   0.0370370
        k(   19) = (   0.1666667   0.0000000  -0.5000000), wk =   0.0185185
        k(   20) = (   0.1666667   0.1575061   0.1666667), wk =   0.0740741
        k(   21) = (   0.1666667   0.1575061   0.3333333), wk =   0.0740741
        k(   22) = (   0.1666667   0.1575061  -0.5000000), wk =   0.0370370
        k(   23) = (   0.1666667   0.3150122   0.1666667), wk =   0.0740741
        k(   24) = (   0.1666667   0.3150122   0.3333333), wk =   0.0740741
        k(   25) = (   0.1666667   0.3150122  -0.5000000), wk =   0.0370370
        k(   26) = (   0.1666667  -0.4725183   0.1666667), wk =   0.0370370
        k(   27) = (   0.1666667  -0.4725183   0.3333333), wk =   0.0370370
        k(   28) = (   0.1666667  -0.4725183  -0.5000000), wk =   0.0185185
        k(   29) = (   0.3333333   0.0000000   0.3333333), wk =   0.0370370
        k(   30) = (   0.3333333   0.0000000  -0.5000000), wk =   0.0185185
        k(   31) = (   0.3333333   0.1575061   0.3333333), wk =   0.0740741
        k(   32) = (   0.3333333   0.1575061  -0.5000000), wk =   0.0370370
        k(   33) = (   0.3333333   0.3150122   0.3333333), wk =   0.0740741
        k(   34) = (   0.3333333   0.3150122  -0.5000000), wk =   0.0370370
        k(   35) = (   0.3333333  -0.4725183   0.3333333), wk =   0.0370370
        k(   36) = (   0.3333333  -0.4725183  -0.5000000), wk =   0.0185185
        k(   37) = (  -0.5000000   0.0000000  -0.5000000), wk =   0.0092593
        k(   38) = (  -0.5000000   0.1575061  -0.5000000), wk =   0.0185185
        k(   39) = (  -0.5000000   0.3150122  -0.5000000), wk =   0.0185185
        k(   40) = (  -0.5000000  -0.4725183  -0.5000000), wk =   0.0092593
        k(   41) = (   0.1666667   0.0000000   0.0000000), wk =   0.0185185
        k(   42) = (   0.3333333   0.0000000   0.0000000), wk =   0.0185185
        k(   43) = (  -0.5000000   0.0000000   0.0000000), wk =   0.0092593
        k(   44) = (   0.1666667  -0.1575061   0.0000000), wk =   0.0370370
        k(   45) = (   0.3333333  -0.1575061   0.0000000), wk =   0.0370370
        k(   46) = (  -0.5000000  -0.1575061   0.0000000), wk =   0.0185185
        k(   47) = (   0.1666667  -0.3150122   0.0000000), wk =   0.0370370
        k(   48) = (   0.3333333  -0.3150122   0.0000000), wk =   0.0370370
        k(   49) = (  -0.5000000  -0.3150122   0.0000000), wk =   0.0185185
        k(   50) = (   0.1666667   0.4725183   0.0000000), wk =   0.0185185
        k(   51) = (   0.3333333   0.4725183   0.0000000), wk =   0.0185185
        k(   52) = (  -0.5000000   0.4725183   0.0000000), wk =   0.0092593
        k(   53) = (   0.3333333   0.0000000   0.1666667), wk =   0.0370370
        k(   54) = (  -0.5000000   0.0000000   0.1666667), wk =   0.0185185
        k(   55) = (   0.3333333  -0.1575061   0.1666667), wk =   0.0740741
        k(   56) = (  -0.5000000  -0.1575061   0.1666667), wk =   0.0370370
        k(   57) = (   0.3333333  -0.3150122   0.1666667), wk =   0.0740741
        k(   58) = (  -0.5000000  -0.3150122   0.1666667), wk =   0.0370370
        k(   59) = (   0.3333333   0.4725183   0.1666667), wk =   0.0370370
        k(   60) = (  -0.5000000   0.4725183   0.1666667), wk =   0.0185185
        k(   61) = (  -0.5000000   0.0000000   0.3333333), wk =   0.0185185
        k(   62) = (  -0.5000000  -0.1575061   0.3333333), wk =   0.0370370
        k(   63) = (  -0.5000000  -0.3150122   0.3333333), wk =   0.0370370
        k(   64) = (  -0.5000000   0.4725183   0.3333333), wk =   0.0185185

     Dense  grid:   498127 G-vectors     FFT dimensions: ( 100, 108, 100)

     Estimated max dynamical RAM per process >       3.15 GB

     Estimated total dynamical RAM >     125.81 GB

     Initial potential from superposition of free atoms

     starting charge  367.99656, renormalised to  368.00000
     Starting wfc are  232 randomized atomic wfcs

     total cpu time spent up to now is       46.9 secs

     Self-consistent Calculation

     iteration #  1     ecut=   120.00 Ry     beta= 0.70
     Davidson diagonalization with overlap
     ethr =  1.00E-02,  avg # of iterations =  5.2

     total cpu time spent up to now is      167.8 secs

     total energy              =   -6254.03807867 Ry
     Harris-Foulkes estimate   =   -6264.54457098 Ry
     estimated scf accuracy    <      13.34011254 Ry

     iteration #  2     ecut=   120.00 Ry     beta= 0.70
     Davidson diagonalization with overlap
     ethr =  3.63E-03,  avg # of iterations =  3.7

     total cpu time spent up to now is      275.3 secs

     total energy              =   -6251.20451990 Ry
     Harris-Foulkes estimate   =   -6270.25715158 Ry
     estimated scf accuracy    <      50.54212186 Ry

     iteration #  3     ecut=   120.00 Ry     beta= 0.70
     Davidson diagonalization with overlap
     ethr =  3.63E-03,  avg # of iterations =  3.5

     total cpu time spent up to now is      376.4 secs

     total energy              =   -6260.96806080 Ry
     Harris-Foulkes estimate   =   -6261.37113568 Ry
     estimated scf accuracy    <       1.26702748 Ry

     iteration #  4     ecut=   120.00 Ry     beta= 0.70
     Davidson diagonalization with overlap
     ethr =  3.44E-04,  avg # of iterations =  4.0

     total cpu time spent up to now is      470.5 secs

     total energy              =   -6261.01666250 Ry
     Harris-Foulkes estimate   =   -6261.10592618 Ry
     estimated scf accuracy    <       0.30787472 Ry

     iteration #  5     ecut=   120.00 Ry     beta= 0.70
     Davidson diagonalization with overlap
     ethr =  8.37E-05,  avg # of iterations =  3.3

     total cpu time spent up to now is      563.1 secs

     total energy              =   -6261.00093337 Ry
     Harris-Foulkes estimate   =   -6261.04407405 Ry
     estimated scf accuracy    <       0.09299329 Ry

     iteration #  6     ecut=   120.00 Ry     beta= 0.70
     Davidson diagonalization with overlap
     ethr =  2.53E-05,  avg # of iterations =  6.0

     total cpu time spent up to now is      664.1 secs

     total energy              =   -6261.02226905 Ry
     Harris-Foulkes estimate   =   -6261.02394747 Ry
     estimated scf accuracy    <       0.00500521 Ry

     iteration #  7     ecut=   120.00 Ry     beta= 0.70
     Davidson diagonalization with overlap
     ethr =  1.36E-06,  avg # of iterations =  5.8

     total cpu time spent up to now is      763.8 secs

     total energy              =   -6261.02274485 Ry
     Harris-Foulkes estimate   =   -6261.02286791 Ry
     estimated scf accuracy    <       0.00030036 Ry

     iteration #  8     ecut=   120.00 Ry     beta= 0.70
     Davidson diagonalization with overlap
     ethr =  8.16E-08,  avg # of iterations =  3.1

     total cpu time spent up to now is      859.6 secs

     total energy              =   -6261.02281116 Ry
     Harris-Foulkes estimate   =   -6261.02281764 Ry
     estimated scf accuracy    <       0.00001356 Ry

     iteration #  9     ecut=   120.00 Ry     beta= 0.70
     Davidson diagonalization with overlap
     ethr =  3.69E-09,  avg # of iterations =  3.0

     total cpu time spent up to now is      967.6 secs

     total energy              =   -6261.02281440 Ry
     Harris-Foulkes estimate   =   -6261.02281602 Ry
     estimated scf accuracy    <       0.00000640 Ry

     iteration # 10     ecut=   120.00 Ry     beta= 0.70
     Davidson diagonalization with overlap
     ethr =  1.74E-09,  avg # of iterations =  2.0

     total cpu time spent up to now is     1049.7 secs

     total energy              =   -6261.02281403 Ry
     Harris-Foulkes estimate   =   -6261.02281488 Ry
     estimated scf accuracy    <       0.00000190 Ry

     iteration # 11     ecut=   120.00 Ry     beta= 0.70
     Davidson diagonalization with overlap
     ethr =  5.17E-10,  avg # of iterations =  2.5

     total cpu time spent up to now is     1148.0 secs

     total energy              =   -6261.02281443 Ry
     Harris-Foulkes estimate   =   -6261.02281445 Ry
     estimated scf accuracy    <       0.00000006 Ry

     iteration # 12     ecut=   120.00 Ry     beta= 0.70
     Davidson diagonalization with overlap
     ethr =  1.52E-11,  avg # of iterations =  2.0

     total cpu time spent up to now is     1241.3 secs

     total energy              =   -6261.02281443 Ry
     Harris-Foulkes estimate   =   -6261.02281444 Ry
     estimated scf accuracy    <       0.00000001 Ry

     iteration # 13     ecut=   120.00 Ry     beta= 0.70
     Davidson diagonalization with overlap
     ethr =  2.94E-12,  avg # of iterations =  2.0

     total cpu time spent up to now is     1340.3 secs

     End of self-consistent calculation

          k = 0.0000 0.0000 0.0000 ( 62239 PWs)   bands (ev):

   -66.1537 -66.1533 -66.1527 -66.1527 -66.1524 -66.1523 -66.1517 -66.1513
   -30.5988 -30.5982 -30.5955 -30.5949 -30.5924 -30.5918 -30.5893 -30.5887
   -30.4851 -30.4846 -30.4826 -30.4819 -30.4797 -30.4791 -30.4770 -30.4763
   -30.4582 -30.4529 -30.4528 -30.4476 -30.3993 -30.3945 -30.3945 -30.3898
   -20.2986 -20.2985 -20.2984 -20.2984 -20.2984 -20.2983 -20.2983 -20.2982
   -20.2742 -20.2738 -20.2736 -20.2734 -20.2731 -20.2730 -20.2727 -20.2725
   -20.2724 -20.2723 -20.2723 -20.2722 -20.2716 -20.2714 -20.2711 -20.2711
   -20.2708 -20.2707 -20.2702 -20.2699 -20.2676 -20.2671 -20.2671 -20.2662
   -20.2653 -20.2652 -20.2641 -20.2641 -20.2638 -20.2637 -20.2630 -20.2627
   -20.2627 -20.2626 -20.2619 -20.2619 -20.2619 -20.2618 -20.2608 -20.2607
   -20.2554 -20.2553 -20.2553 -20.2552 -20.2538 -20.2536 -20.2535 -20.2534
   -10.1547  -9.9861  -9.7561  -9.7529  -9.6373  -9.6330  -9.4045  -9.3879
    -8.8525  -8.7858  -8.7857  -8.7770  -7.7964  -7.7948  -7.7642  -7.7640
    -7.7183  -7.7175  -7.6907  -7.6898  -7.6152  -7.5552  -7.5545  -7.5001
     0.6126   0.6177   0.8122   0.8147   0.8185   0.8217   1.0812   1.1467
     1.7141   1.7408   1.7423   1.8232   2.0604   2.1422   2.5264   2.5265
     2.6528   2.6537   4.1111   4.1190   4.1286   4.1373   4.3381   4.3405
     4.3791   4.3813   4.9417   5.0862   5.0870   5.1014   5.1129   5.3924
     5.3938   5.5214   5.5303   5.5651   5.5664   5.5904   5.6005   5.6441
     5.8951   5.8974   6.0017   6.0045   6.1211   6.1359   6.1561   6.1612
     6.2248   6.2254   6.2897   6.4486   6.4495   6.6485   6.8636   7.0659
     7.0680   7.0981   7.0987   7.1214   7.1278   7.1310   7.1483   7.1502
     7.1672   7.1712   8.1080   8.1112   8.2125   8.2205   8.2440   8.2516
     9.0271   9.0533   9.4779   9.4794   9.5361   9.5363  12.2980  12.3075
    12.3779  12.3838  12.7571  12.7579  12.7859  12.7893  13.2206  13.2475
    13.3171  13.3272  13.8983  13.9475  13.9564  14.1475  14.2205  14.2432
    14.2597  14.3249  14.4093  14.9043  15.4086  15.4404  15.4483  16.4916
    16.4942  17.0876  17.4446  17.5118  17.5354

          k = 0.0000 0.0000 0.1667 ( 62262 PWs)   bands (ev):

   -66.1537 -66.1533 -66.1528 -66.1527 -66.1524 -66.1523 -66.1518 -66.1514
   -30.5977 -30.5947 -30.5922 -30.5911 -30.5891 -30.5881 -30.5850 -30.5819
   -30.4929 -30.4904 -30.4874 -30.4849 -30.4843 -30.4816 -30.4794 -30.4767
   -30.4578 -30.4530 -30.4525 -30.4478 -30.3989 -30.3947 -30.3942 -30.3900
   -20.2986 -20.2985 -20.2985 -20.2984 -20.2984 -20.2983 -20.2983 -20.2983
   -20.2741 -20.2738 -20.2734 -20.2732 -20.2732 -20.2729 -20.2726 -20.2726
   -20.2725 -20.2723 -20.2723 -20.2719 -20.2717 -20.2713 -20.2712 -20.2712
   -20.2708 -20.2707 -20.2702 -20.2700 -20.2675 -20.2671 -20.2671 -20.2663
   -20.2652 -20.2651 -20.2640 -20.2638 -20.2638 -20.2637 -20.2627 -20.2626
   -20.2625 -20.2624 -20.2620 -20.2619 -20.2614 -20.2613 -20.2609 -20.2609
   -20.2560 -20.2559 -20.2552 -20.2550 -20.2543 -20.2542 -20.2537 -20.2536
   -10.0994  -9.9287  -9.7636  -9.6595  -9.6411  -9.5339  -9.3571  -9.3391
    -8.8631  -8.7920  -8.7767  -8.7714  -7.9508  -7.9296  -7.8794  -7.8634
    -7.7900  -7.7590  -7.7235  -7.6948  -7.6103  -7.5592  -7.5506  -7.5038
     0.7254   0.7294   0.8197   0.8233   1.1100   1.1250   1.2498   1.3502
     1.7098   1.7359   1.7552   1.8603   2.1504   2.2320   2.5344   2.6198
     2.6441   2.7434   3.9894   4.0540   4.1030   4.1240   4.1433   4.1770
     4.4276   4.4544   4.6554   4.7253   4.9176   5.0904   5.1083   5.1849
     5.2891   5.3552   5.4497   5.5095   5.5393   5.5770   5.6627   5.7148
     5.8084   5.9086   5.9155   6.0539   6.1283   6.1462   6.1687   6.2017
     6.2787   6.3243   6.4437   6.5431   6.6532   6.7291   6.8120   6.8521
     6.8799   6.8812   6.9323   6.9459   7.0293   7.0693   7.0780   7.0852
     7.1434   7.1675   8.0531   8.0565   8.1763   8.2042   8.2307   8.2452
     9.4384   9.4530   9.4818   9.5365   9.8259   9.8709  12.2989  12.3723
    12.3832  12.4512  12.5857  12.6006  12.8131  12.8437  13.0171  13.0837
    13.2227  13.3156  13.8720  13.9025  14.0407  14.0588  14.1013  14.1454
    14.2594  14.4048  14.4827  15.0382  15.3790  15.5769  15.6138  16.4708
    16.9060  17.0913  17.1820  17.5638  17.6242

          k = 0.0000 0.0000 0.3333 ( 62268 PWs)   bands (ev):

   -66.1535 -66.1531 -66.1530 -66.1526 -66.1525 -66.1521 -66.1520 -66.1516
   -30.5966 -30.5934 -30.5934 -30.5903 -30.5708 -30.5678 -30.5646 -30.5617
   -30.5140 -30.5115 -30.5083 -30.5059 -30.4833 -30.4806 -30.4805 -30.4778
   -30.4567 -30.4538 -30.4514 -30.4486 -30.3979 -30.3955 -30.3932 -30.3908
   -20.2985 -20.2985 -20.2984 -20.2984 -20.2984 -20.2983 -20.2983 -20.2983
   -20.2741 -20.2739 -20.2731 -20.2730 -20.2729 -20.2727 -20.2727 -20.2726
   -20.2726 -20.2725 -20.2720 -20.2720 -20.2715 -20.2715 -20.2714 -20.2709
   -20.2708 -20.2707 -20.2703 -20.2702 -20.2674 -20.2672 -20.2669 -20.2664
   -20.2650 -20.2649 -20.2643 -20.2641 -20.2632 -20.2630 -20.2623 -20.2623
   -20.2623 -20.2622 -20.2615 -20.2615 -20.2613 -20.2613 -20.2600 -20.2600
   -20.2576 -20.2575 -20.2559 -20.2559 -20.2549 -20.2547 -20.2540 -20.2539
    -9.9755  -9.8092  -9.7981  -9.6667  -9.3933  -9.2377  -9.1934  -9.1553
    -8.9077  -8.8179  -8.7497  -8.7410  -8.3326  -8.3227  -8.2883  -8.2635
    -7.7763  -7.7456  -7.7378  -7.7085  -7.5995  -7.5701  -7.5407  -7.5137
     0.8077   0.8106   0.8224   0.8269   1.6214   1.6314   1.7008   1.7223
     1.9506   2.0606   2.1094   2.2524   2.4148   2.4953   2.5568   2.6213
     2.8796   2.9871   3.3963   3.4712   3.9102   3.9904   4.1117   4.1200
     4.1647   4.2188   4.4632   4.6038   4.6454   4.7539   4.7697   4.8289
     4.8349   5.0582   5.1140   5.2188   5.2720   5.3166   5.6154   5.8166
     5.9587   5.9910   6.0251   6.0941   6.1187   6.1627   6.1899   6.1979
     6.2478   6.3619   6.3752   6.4219   6.4805   6.6054   6.6074   6.7998
     6.8453   6.9825   6.9926   6.9986   7.0619   7.0708   7.1424   7.1603
     7.2382   7.3011   7.8553   7.8697   8.0248   8.0475   8.2470   8.2479
     9.4921   9.5196  10.2833  10.2941  10.6175  10.6354  12.0303  12.0431
    12.1959  12.3831  12.3979  12.5562  12.6067  12.6819  12.9921  13.0291
    13.2085  13.3156  13.5478  13.6121  13.6593  13.7771  14.1241  14.1400
    14.3119  14.3906  14.8196  15.2844  15.3587  15.9371  16.2789  16.3931
    16.4440  17.4493  17.7117  17.8255  17.9112

          k = 0.0000 0.0000-0.5000 ( 62264 PWs)   bands (ev):

   -66.1532 -66.1532 -66.1528 -66.1528 -66.1522 -66.1522 -66.1518 -66.1518
   -30.5950 -30.5950 -30.5919 -30.5918 -30.5426 -30.5426 -30.5398 -30.5398
   -30.5366 -30.5366 -30.5340 -30.5339 -30.4819 -30.4818 -30.4792 -30.4792
   -30.4552 -30.4552 -30.4500 -30.4499 -30.3967 -30.3966 -30.3920 -30.3919
   -20.2985 -20.2985 -20.2984 -20.2984 -20.2984 -20.2984 -20.2983 -20.2983
   -20.2740 -20.2740 -20.2729 -20.2729 -20.2727 -20.2727 -20.2727 -20.2727
   -20.2724 -20.2724 -20.2721 -20.2721 -20.2717 -20.2717 -20.2711 -20.2711
   -20.2706 -20.2705 -20.2705 -20.2705 -20.2673 -20.2673 -20.2667 -20.2667
   -20.2647 -20.2646 -20.2646 -20.2646 -20.2628 -20.2627 -20.2626 -20.2626
   -20.2618 -20.2618 -20.2618 -20.2618 -20.2597 -20.2597 -20.2596 -20.2596
   -20.2580 -20.2580 -20.2580 -20.2580 -20.2545 -20.2544 -20.2543 -20.2543
    -9.8652  -9.8651  -9.7173  -9.7173  -9.0689  -9.0689  -8.9341  -8.9341
    -8.7965  -8.7964  -8.7915  -8.7915  -8.6586  -8.6586  -8.6140  -8.6140
    -7.7571  -7.7571  -7.7271  -7.7271  -7.5849  -7.5848  -7.5272  -7.5272
     0.8225   0.8225   0.8275   0.8275   1.6889   1.6889   1.7014   1.7015
     2.5855   2.5856   2.8220   2.8220   2.9003   2.9003   3.0130   3.0130
     3.0636   3.0636   3.0998   3.0998   3.2419   3.2419   3.6445   3.6445
     3.7183   3.7184   4.1524   4.1524   4.6912   4.6912   4.8656   4.8656
     4.9632   4.9632   5.0059   5.0059   5.1529   5.1529   5.7698   5.7698
     6.0604   6.0604   6.0631   6.0631   6.0943   6.0943   6.1930   6.1930
     6.2500   6.2500   6.2696   6.2696   6.3647   6.3647   6.6865   6.6865
     6.8772   6.8772   7.0640   7.0640   7.1522   7.1522   7.4917   7.4917
     7.5058   7.5058   7.7199   7.7199   7.7468   7.7468   8.2500   8.2501
     9.5059   9.5059  11.2043  11.2043  11.2207  11.2208  11.5143  11.5143
    11.5436  11.5436  12.3948  12.3948  12.9875  12.9875  13.0712  13.0712
    13.3000  13.3000  13.3021  13.3021  13.3938  13.3938  14.1327  14.1328
    14.3630  14.3631  15.1056  15.1056  15.8397  15.8397  16.2323  16.2324
    17.1544  17.1545  17.8410  17.9330  17.9331

          k = 0.0000 0.1575 0.0000 ( 62231 PWs)   bands (ev):

   -66.1537 -66.1534 -66.1527 -66.1527 -66.1524 -66.1523 -66.1517 -66.1514
   -30.5986 -30.5980 -30.5957 -30.5951 -30.5922 -30.5916 -30.5895 -30.5889
   -30.4849 -30.4845 -30.4827 -30.4821 -30.4795 -30.4790 -30.4771 -30.4765
   -30.4543 -30.4491 -30.4490 -30.4438 -30.4032 -30.3985 -30.3984 -30.3937
   -20.2986 -20.2985 -20.2984 -20.2984 -20.2984 -20.2983 -20.2983 -20.2982
   -20.2740 -20.2737 -20.2735 -20.2733 -20.2729 -20.2727 -20.2727 -20.2726
   -20.2724 -20.2721 -20.2721 -20.2719 -20.2716 -20.2714 -20.2710 -20.2710
   -20.2709 -20.2708 -20.2703 -20.2700 -20.2680 -20.2675 -20.2674 -20.2666
   -20.2653 -20.2652 -20.2641 -20.2641 -20.2638 -20.2637 -20.2629 -20.2628
   -20.2627 -20.2626 -20.2619 -20.2619 -20.2618 -20.2618 -20.2608 -20.2608
   -20.2554 -20.2553 -20.2553 -20.2552 -20.2538 -20.2537 -20.2535 -20.2534
   -10.1387  -9.9939  -9.7429  -9.7396  -9.6421  -9.6379  -9.4034  -9.3890
    -8.7780  -8.7230  -8.7228  -8.7165  -7.7953  -7.7927  -7.7667  -7.7661
    -7.7175  -7.7157  -7.7145  -7.6938  -7.6917  -7.6593  -7.6584  -7.6102
     0.6129   0.6174   0.8144   0.8151   0.8209   0.8220   1.1048   1.1466
     1.9205   1.9825   1.9843   2.0657   2.0795   2.1366   2.5963   2.5966
     2.7204   2.7217   3.9294   3.9371   3.9534   3.9613   4.3408   4.3426
     4.3759   4.3782   4.7696   5.1130   5.1163   5.1613   5.1666   5.2857
     5.2901   5.3726   5.3760   5.5946   5.5947   5.6754   5.7046   5.7064
     5.7827   5.8728   5.8744   5.9972   5.9994   6.1429   6.1437   6.2068
     6.2507   6.3232   6.3685   6.4684   6.4703   6.6664   6.8511   6.8683
     6.9025   6.9040   7.0250   7.0272   7.1098   7.1102   7.1272   7.1276
     7.1368   7.1383   8.1094   8.1112   8.1606   8.1671   8.1691   8.1744
     9.0295   9.0520   9.7287   9.7308   9.7921   9.7944  12.1378  12.1476
    12.2107  12.2166  12.7675  12.7684  12.7861  12.7894  13.2584  13.2849
    13.3460  13.3560  13.9196  13.9563  14.1132  14.1143  14.1206  14.1461
    14.3836  14.6528  14.6736  15.0067  15.4407  15.4474  15.8313  16.4492
    16.4514  16.9572  17.1660  17.6282  17.6423

          k = 0.0000 0.1575 0.1667 ( 62237 PWs)   bands (ev):

   -66.1536 -66.1533 -66.1528 -66.1526 -66.1524 -66.1523 -66.1518 -66.1514
   -30.5975 -30.5949 -30.5920 -30.5909 -30.5893 -30.5883 -30.5848 -30.5821
   -30.4928 -30.4906 -30.4872 -30.4851 -30.4841 -30.4817 -30.4792 -30.4769
   -30.4539 -30.4491 -30.4487 -30.4440 -30.4029 -30.3987 -30.3981 -30.3939
   -20.2985 -20.2985 -20.2984 -20.2984 -20.2984 -20.2983 -20.2983 -20.2983
   -20.2740 -20.2737 -20.2734 -20.2732 -20.2730 -20.2727 -20.2727 -20.2726
   -20.2723 -20.2722 -20.2720 -20.2718 -20.2717 -20.2713 -20.2711 -20.2711
   -20.2708 -20.2707 -20.2703 -20.2701 -20.2679 -20.2675 -20.2674 -20.2667
   -20.2652 -20.2651 -20.2639 -20.2638 -20.2638 -20.2637 -20.2627 -20.2626
   -20.2625 -20.2625 -20.2620 -20.2619 -20.2614 -20.2614 -20.2609 -20.2609
   -20.2560 -20.2559 -20.2552 -20.2551 -20.2543 -20.2542 -20.2537 -20.2536
   -10.0830  -9.9366  -9.7501  -9.6460  -9.6449  -9.5388  -9.3559  -9.3403
    -8.7886  -8.7298  -8.7152  -8.7116  -7.9487  -7.9335  -7.8775  -7.8689
    -7.7885  -7.7611  -7.7227  -7.7093  -7.6967  -7.6615  -7.6554  -7.6113
     0.7258   0.7296   0.8223   0.8237   1.1177   1.1254   1.2892   1.3500
     1.9207   1.9767   1.9890   2.0930   2.1558   2.2263   2.6039   2.6926
     2.7120   2.8130   3.9111   3.9500   3.9795   4.0012   4.0230   4.0519
     4.4213   4.4505   4.6902   4.7461   4.7853   5.1166   5.1470   5.1532
     5.2445   5.2933   5.3063   5.3455   5.5320   5.5399   5.7174   5.7705
     5.7924   5.8819   5.9188   5.9693   6.0584   6.1465   6.1817   6.1994
     6.3214   6.3308   6.3571   6.5379   6.6689   6.7472   6.8022   6.8501
     6.8614   6.8668   6.8842   6.8985   6.9097   6.9283   7.0704   7.0805
     7.0914   7.1159   8.0555   8.0555   8.1255   8.1332   8.1667   8.1708
     9.4405   9.4547   9.7383   9.7911  10.0171  10.0703  12.1441  12.2152
    12.2163  12.2884  12.5903  12.6008  12.8234  12.8430  13.0571  13.1141
    13.2611  13.3436  13.8683  13.9099  13.9368  14.0348  14.1106  14.1255
    14.4623  14.6701  14.8348  15.1356  15.5762  15.6183  15.8028  16.4290
    16.8597  17.0772  17.1765  17.2559  17.7449

          k = 0.0000 0.1575 0.3333 ( 62284 PWs)   bands (ev):

   -66.1535 -66.1531 -66.1530 -66.1526 -66.1524 -66.1521 -66.1520 -66.1516
   -30.5964 -30.5936 -30.5932 -30.5905 -30.5706 -30.5680 -30.5644 -30.5619
   -30.5139 -30.5117 -30.5081 -30.5060 -30.4831 -30.4807 -30.4803 -30.4779
   -30.4528 -30.4499 -30.4476 -30.4448 -30.4019 -30.3994 -30.3971 -30.3947
   -20.2985 -20.2985 -20.2984 -20.2984 -20.2984 -20.2983 -20.2983 -20.2983
   -20.2739 -20.2738 -20.2729 -20.2729 -20.2727 -20.2726 -20.2726 -20.2726
   -20.2724 -20.2722 -20.2720 -20.2719 -20.2715 -20.2714 -20.2713 -20.2710
   -20.2708 -20.2707 -20.2704 -20.2703 -20.2678 -20.2675 -20.2673 -20.2668
   -20.2650 -20.2649 -20.2643 -20.2642 -20.2632 -20.2631 -20.2623 -20.2623
   -20.2623 -20.2622 -20.2615 -20.2615 -20.2613 -20.2613 -20.2600 -20.2600
   -20.2576 -20.2575 -20.2559 -20.2559 -20.2549 -20.2548 -20.2540 -20.2539
    -9.9587  -9.8165  -9.7838  -9.6721  -9.3723  -9.2426  -9.1893  -9.1571
    -8.8363  -8.7595  -8.6933  -8.6859  -8.3365  -8.3179  -8.2935  -8.2585
    -7.7750  -7.7476  -7.7368  -7.7104  -7.6994  -7.6713  -7.6459  -7.6202
     0.8101   0.8110   0.8252   0.8273   1.7909   1.8074   1.9270   1.9506
     1.9680   2.1088   2.1301   2.3164   2.4201   2.4888   2.6251   2.6908
     2.9551   3.0559   3.3980   3.4674   3.8776   3.9335   3.9415   4.0465
     4.1331   4.1839   4.4795   4.5929   4.6082   4.6450   4.6632   4.7632
     4.7772   4.9997   5.1209   5.1980   5.2030   5.3520   5.3652   5.7955
     5.8297   5.9126   5.9297   6.0603   6.0742   6.1302   6.1738   6.1842
     6.2524   6.3015   6.4055   6.4766   6.4917   6.6010   6.7592   6.8484
     6.8759   6.8911   6.8965   6.9905   6.9977   7.0517   7.0681   7.1741
     7.2410   7.3032   7.8646   7.8662   7.9847   7.9947   8.1729   8.1758
     9.7444   9.7779  10.2871  10.2974  10.7290  10.7565  12.0270  12.0430
    12.1059  12.2192  12.4442  12.4659  12.5338  12.5342  13.0047  13.0236
    13.2393  13.3390  13.4544  13.5064  13.6866  13.7596  14.1034  14.1136
    14.5844  14.6601  15.2092  15.4424  15.7122  15.9250  16.3110  16.3552
    16.5313  17.3822  17.5087  17.8379  17.8902

          k = 0.0000 0.1575-0.5000 ( 62234 PWs)   bands (ev):

   -66.1532 -66.1532 -66.1529 -66.1529 -66.1522 -66.1522 -66.1519 -66.1519
   -30.5948 -30.5948 -30.5921 -30.5921 -30.5424 -30.5424 -30.5400 -30.5400
   -30.5365 -30.5364 -30.5341 -30.5341 -30.4817 -30.4817 -30.4793 -30.4793
   -30.4513 -30.4513 -30.4461 -30.4461 -30.4006 -30.4006 -30.3959 -30.3959
   -20.2985 -20.2985 -20.2984 -20.2984 -20.2984 -20.2984 -20.2983 -20.2983
   -20.2738 -20.2738 -20.2727 -20.2727 -20.2726 -20.2726 -20.2724 -20.2724
   -20.2724 -20.2724 -20.2720 -20.2720 -20.2716 -20.2716 -20.2710 -20.2710
   -20.2706 -20.2706 -20.2706 -20.2705 -20.2677 -20.2676 -20.2671 -20.2671
   -20.2646 -20.2646 -20.2646 -20.2646 -20.2627 -20.2627 -20.2626 -20.2626
   -20.2618 -20.2618 -20.2618 -20.2618 -20.2597 -20.2597 -20.2596 -20.2596
   -20.2580 -20.2580 -20.2580 -20.2580 -20.2545 -20.2544 -20.2543 -20.2543
    -9.8495  -9.8494  -9.7234  -9.7234  -9.0231  -9.0231  -8.9078  -8.9078
    -8.8006  -8.8006  -8.7955  -8.7954  -8.6233  -8.6233  -8.5834  -8.5834
    -7.7560  -7.7560  -7.7291  -7.7291  -7.6854  -7.6854  -7.6331  -7.6330
     0.8255   0.8255   0.8278   0.8279   1.9011   1.9011   1.9582   1.9582
     2.6518   2.6518   2.8272   2.8272   2.8968   2.8968   3.0217   3.0217
     3.0613   3.0613   3.1336   3.1336   3.2365   3.2365   3.6812   3.6812
     3.7780   3.7781   3.9911   3.9911   4.5118   4.5118   4.7151   4.7151
     4.9503   4.9504   4.9895   4.9895   5.1914   5.1914   5.5108   5.5108
     5.8803   5.8803   6.0427   6.0427   6.1532   6.1532   6.1629   6.1629
     6.2738   6.2738   6.2887   6.2887   6.3697   6.3697   6.8561   6.8561
     6.8946   6.8946   6.9774   6.9774   7.0373   7.0373   7.5009   7.5010
     7.5191   7.5191   7.6998   7.6998   7.7210   7.7210   8.1763   8.1763
     9.7625   9.7626  11.2063  11.2063  11.2214  11.2215  11.5836  11.5837
    11.6106  11.6106  12.2340  12.2340  12.8843  12.8843  12.9481  12.9481
    13.2923  13.2923  13.3162  13.3163  13.4019  13.4019  14.1056  14.1056
    14.6371  14.6371  15.5138  15.5138  15.9337  15.9337  16.2034  16.2035
    17.2087  17.2087  17.7131  17.7131  17.8726

          k = 0.0000 0.3150 0.0000 ( 62175 PWs)   bands (ev):

   -66.1536 -66.1534 -66.1526 -66.1526 -66.1524 -66.1524 -66.1516 -66.1514
   -30.5981 -30.5976 -30.5961 -30.5956 -30.5916 -30.5910 -30.5901 -30.5895
   -30.4845 -30.4840 -30.4832 -30.4826 -30.4791 -30.4786 -30.4774 -30.4769
   -30.4436 -30.4384 -30.4384 -30.4333 -30.4141 -30.4092 -30.4092 -30.4044
   -20.2985 -20.2985 -20.2984 -20.2984 -20.2984 -20.2984 -20.2983 -20.2983
   -20.2737 -20.2734 -20.2733 -20.2732 -20.2729 -20.2728 -20.2728 -20.2727
   -20.2718 -20.2715 -20.2714 -20.2713 -20.2712 -20.2711 -20.2710 -20.2709
   -20.2708 -20.2705 -20.2703 -20.2702 -20.2690 -20.2685 -20.2684 -20.2677
   -20.2653 -20.2652 -20.2641 -20.2641 -20.2638 -20.2637 -20.2629 -20.2628
   -20.2627 -20.2626 -20.2619 -20.2619 -20.2618 -20.2618 -20.2608 -20.2608
   -20.2554 -20.2553 -20.2553 -20.2552 -20.2537 -20.2537 -20.2535 -20.2535
   -10.0994 -10.0173  -9.7126  -9.7090  -9.6566  -9.6525  -9.4004  -9.3920
    -8.5700  -8.5379  -8.5375  -8.5355  -7.9731  -7.9285  -7.9276  -7.8919
    -7.7872  -7.7871  -7.7718  -7.7715  -7.7107  -7.7104  -7.6969  -7.6968
     0.6138   0.6164   0.8161   0.8168   0.8229   0.8234   1.1311   1.1457
     2.0805   2.1214   2.5223   2.6463   2.6515   2.7646   2.8006   2.8203
     2.9175   2.9233   3.5250   3.5326   3.5991   3.6074   4.2148   4.3483
     4.3499   4.3662   4.3688   4.5738   4.5760   4.8786   5.2026   5.2045
     5.3285   5.3303   5.3384   5.3390   5.6951   5.6959   5.7436   5.7501
     5.8121   5.8736   5.8744   5.9808   5.9821   6.1714   6.1728   6.1911
     6.2114   6.3270   6.3545   6.3545   6.3875   6.4298   6.6389   6.6469
     6.7041   6.8124   7.1170   7.1190   7.1279   7.1293   7.2078   7.2084
     7.2407   7.2408   7.9445   7.9479   7.9570   7.9606   8.1115   8.1118
     9.0349   9.0478  10.3268  10.3332  10.3925  10.3975  11.6856  11.6952
    11.7502  11.7565  12.7800  12.7814  12.7864  12.7892  13.3766  13.4033
    13.4509  13.4612  13.8149  13.8699  13.8984  13.9123  13.9672  13.9999
    15.2653  15.3620  15.3632  15.3660  15.4417  15.4455  16.2999  16.3021
    16.3428  16.8869  17.2247  18.0144  18.0190

          k = 0.0000 0.3150 0.1667 ( 62260 PWs)   bands (ev):

   -66.1536 -66.1534 -66.1527 -66.1526 -66.1525 -66.1524 -66.1517 -66.1515
   -30.5970 -30.5954 -30.5914 -30.5904 -30.5899 -30.5889 -30.5842 -30.5827
   -30.4923 -30.4910 -30.4867 -30.4855 -30.4836 -30.4822 -30.4787 -30.4774
   -30.4432 -30.4386 -30.4380 -30.4335 -30.4137 -30.4094 -30.4089 -30.4046
   -20.2985 -20.2985 -20.2984 -20.2984 -20.2984 -20.2984 -20.2983 -20.2983
   -20.2737 -20.2734 -20.2732 -20.2730 -20.2729 -20.2728 -20.2727 -20.2726
   -20.2717 -20.2715 -20.2714 -20.2714 -20.2713 -20.2710 -20.2710 -20.2710
   -20.2710 -20.2705 -20.2703 -20.2702 -20.2690 -20.2685 -20.2684 -20.2677
   -20.2652 -20.2651 -20.2639 -20.2639 -20.2638 -20.2637 -20.2627 -20.2626
   -20.2625 -20.2625 -20.2620 -20.2619 -20.2614 -20.2614 -20.2609 -20.2609
   -20.2560 -20.2559 -20.2552 -20.2551 -20.2543 -20.2543 -20.2536 -20.2536
   -10.0428  -9.9598  -9.7188  -9.6610  -9.6119  -9.5535  -9.3525  -9.3435
    -8.5793  -8.5462  -8.5339  -8.5324  -7.9816  -7.9725  -7.9427  -7.9275
    -7.9223  -7.8892  -7.8719  -7.8309  -7.7816  -7.7667  -7.7156  -7.7019
     0.7268   0.7292   0.8246   0.8250   1.1251   1.1263   1.3291   1.3487
     2.1703   2.2110   2.5228   2.6153   2.6501   2.7551   2.8072   2.9098
     2.9252   3.0327   3.5314   3.5847   3.6004   3.6587   4.0190   4.0413
     4.2025   4.4229   4.4384   4.5515   4.5894   4.8205   4.8802   4.9577
     5.0931   5.2014   5.2918   5.3338   5.3681   5.4343   5.6465   5.7190
     5.7982   5.8468   5.8952   6.0071   6.0157   6.0502   6.1632   6.1751
     6.1760   6.3117   6.3433   6.4187   6.5178   6.6351   6.7167   6.8475
     6.8713   6.8863   6.8894   6.9053   6.9293   6.9499   7.2041   7.2134
     7.2325   7.2535   7.9216   7.9317   7.9442   7.9477   8.0593   8.0661
     9.4448   9.4538  10.3398  10.3938  10.5202  10.5808  11.6973  11.7543
    11.7793  11.8433  12.5965  12.6008  12.8358  12.8422  13.1822  13.2247
    13.3796  13.4470  13.6744  13.6941  13.8209  13.8926  13.9775  13.9973
    15.3290  15.3642  15.4545  15.5727  15.6153  15.6674  16.2835  16.4750
    16.6938  16.8569  17.3371  17.4412  17.4700

          k = 0.0000 0.3150 0.3333 ( 62269 PWs)   bands (ev):

   -66.1534 -66.1532 -66.1529 -66.1527 -66.1524 -66.1522 -66.1519 -66.1517
   -30.5958 -30.5942 -30.5926 -30.5910 -30.5700 -30.5686 -30.5639 -30.5625
   -30.5134 -30.5121 -30.5077 -30.5064 -30.4826 -30.4812 -30.4798 -30.4784
   -30.4421 -30.4393 -30.4370 -30.4343 -30.4127 -30.4102 -30.4079 -30.4054
   -20.2985 -20.2985 -20.2984 -20.2984 -20.2984 -20.2983 -20.2983 -20.2983
   -20.2736 -20.2735 -20.2729 -20.2728 -20.2727 -20.2725 -20.2724 -20.2723
   -20.2718 -20.2717 -20.2715 -20.2715 -20.2713 -20.2712 -20.2710 -20.2709
   -20.2708 -20.2706 -20.2704 -20.2704 -20.2688 -20.2686 -20.2683 -20.2679
   -20.2650 -20.2649 -20.2642 -20.2642 -20.2632 -20.2631 -20.2623 -20.2623
   -20.2623 -20.2622 -20.2615 -20.2615 -20.2613 -20.2613 -20.2600 -20.2600
   -20.2576 -20.2575 -20.2559 -20.2559 -20.2549 -20.2548 -20.2540 -20.2539
    -9.9184  -9.8382  -9.7504  -9.6882  -9.3271  -9.2580  -9.1801  -9.1623
    -8.6403  -8.5936  -8.5235  -8.5148  -8.3515  -8.3155  -8.2970  -8.2378
    -7.9549  -7.9290  -7.9118  -7.8852  -7.7678  -7.7531  -7.7297  -7.7157
     0.8118   0.8124   0.8281   0.8283   1.9277   1.9503   2.0456   2.1058
     2.4338   2.4733   2.5246   2.6002   2.6475   2.7681   2.8249   2.8902
     3.1905   3.2689   3.3874   3.4575   3.5796   3.5869   3.7140   3.7432
     4.1534   4.2117   4.3459   4.4229   4.4310   4.5341   4.5512   4.6047
     4.6436   4.7740   4.8149   4.9372   5.1521   5.1864   5.2970   5.3196
     5.4397   5.5047   5.8183   6.0464   6.0627   6.1437   6.1882   6.2051
     6.3022   6.3614   6.4872   6.5106   6.5145   6.5916   6.6081   6.6233
     6.8046   6.9237   7.0889   7.1042   7.1510   7.2295   7.2359   7.2473
     7.3069   7.3197   7.8306   7.8309   7.8326   7.8805   7.9533   7.9827
    10.2495  10.2902  10.3774  10.3989  11.0617  11.1025  11.7009  11.7483
    12.0402  12.0446  12.0773  12.1370  12.5933  12.6358  13.0168  13.0172
    13.1621  13.1951  13.4112  13.4406  13.6859  13.7502  13.8810  13.9131
    15.3441  15.3613  15.7541  15.8774  16.1295  16.2240  16.4649  16.7537
    16.8097  16.8478  17.5912  17.7705  17.7889

          k = 0.0000 0.3150-0.5000 ( 62306 PWs)   bands (ev):

   -66.1531 -66.1531 -66.1529 -66.1529 -66.1521 -66.1521 -66.1519 -66.1519
   -30.5942 -30.5942 -30.5926 -30.5926 -30.5419 -30.5419 -30.5405 -30.5405
   -30.5360 -30.5359 -30.5346 -30.5346 -30.4812 -30.4812 -30.4798 -30.4798
   -30.4407 -30.4407 -30.4356 -30.4356 -30.4114 -30.4114 -30.4066 -30.4066
   -20.2985 -20.2985 -20.2984 -20.2984 -20.2984 -20.2983 -20.2983 -20.2983
   -20.2735 -20.2735 -20.2729 -20.2729 -20.2722 -20.2722 -20.2720 -20.2720
   -20.2719 -20.2719 -20.2719 -20.2719 -20.2714 -20.2714 -20.2707 -20.2707
   -20.2707 -20.2707 -20.2706 -20.2705 -20.2687 -20.2687 -20.2681 -20.2681
   -20.2646 -20.2646 -20.2646 -20.2646 -20.2627 -20.2627 -20.2626 -20.2626
   -20.2618 -20.2618 -20.2618 -20.2618 -20.2597 -20.2596 -20.2596 -20.2596
   -20.2580 -20.2580 -20.2580 -20.2580 -20.2544 -20.2544 -20.2544 -20.2543
    -9.8124  -9.8124  -9.7420  -9.7420  -8.9260  -8.9259  -8.8586  -8.8586
    -8.8164  -8.8164  -8.8062  -8.8062  -8.4909  -8.4909  -8.4633  -8.4633
    -7.9426  -7.9426  -7.9003  -7.9003  -7.7488  -7.7488  -7.7345  -7.7345
     0.8286   0.8286   0.8286   0.8287   2.5008   2.5008   2.6048   2.6048
     2.8240   2.8240   2.8427   2.8427   2.9049   2.9049   3.0538   3.0538
     3.0555   3.0555   3.2159   3.2159   3.2211   3.2211   3.5641   3.5641
     3.9008   3.9008   3.9767   3.9767   4.0665   4.0665   4.2999   4.2999
     4.8596   4.8596   4.9431   4.9431   4.9542   4.9542   5.0916   5.0916
     5.3822   5.3822   5.9105   5.9105   6.2445   6.2445   6.2462   6.2462
     6.2949   6.2949   6.3274   6.3274   6.4068   6.4068   6.6055   6.6055
     7.0974   7.0974   7.1740   7.1740   7.2159   7.2159   7.4822   7.4823
     7.5598   7.5598   7.6192   7.6193   7.6359   7.6359   7.9627   7.9628
    10.3624  10.3625  11.2064  11.2064  11.2241  11.2241  11.6638  11.6638
    11.8211  11.8211  11.9250  11.9250  12.5682  12.5682  12.6204  12.6204
    13.3068  13.3068  13.3274  13.3275  13.4702  13.4703  13.8897  13.8897
    15.3537  15.3537  16.1013  16.1013  16.2201  16.2201  16.5369  16.5369
    17.2695  17.2695  17.4162  17.4162  17.9616

          k = 0.0000-0.4725 0.0000 ( 62212 PWs)   bands (ev):

   -66.1535 -66.1535 -66.1526 -66.1525 -66.1525 -66.1525 -66.1515 -66.1515
   -30.5975 -30.5975 -30.5962 -30.5962 -30.5909 -30.5908 -30.5903 -30.5902
   -30.4838 -30.4838 -30.4833 -30.4833 -30.4786 -30.4786 -30.4774 -30.4774
   -30.4289 -30.4289 -30.4239 -30.4239 -30.4238 -30.4238 -30.4189 -30.4188
   -20.2985 -20.2985 -20.2984 -20.2984 -20.2984 -20.2984 -20.2983 -20.2983
   -20.2734 -20.2734 -20.2731 -20.2731 -20.2730 -20.2729 -20.2729 -20.2729
   -20.2713 -20.2712 -20.2712 -20.2712 -20.2709 -20.2709 -20.2705 -20.2704
   -20.2704 -20.2704 -20.2699 -20.2699 -20.2698 -20.2698 -20.2691 -20.2691
   -20.2652 -20.2652 -20.2641 -20.2641 -20.2638 -20.2638 -20.2629 -20.2629
   -20.2627 -20.2626 -20.2619 -20.2619 -20.2618 -20.2618 -20.2608 -20.2608
   -20.2554 -20.2553 -20.2552 -20.2552 -20.2537 -20.2537 -20.2535 -20.2535
   -10.0544 -10.0544  -9.6808  -9.6808  -9.6769  -9.6769  -9.3962  -9.3962
    -8.2837  -8.2836  -8.2530  -8.2529  -8.2523  -8.2523  -8.2373  -8.2373
    -7.7809  -7.7809  -7.7782  -7.7782  -7.7039  -7.7039  -7.7038  -7.7037
     0.6151   0.6151   0.8170   0.8170   0.8238   0.8238   1.1421   1.1421
     2.1008   2.1008   3.1159   3.1159   3.1230   3.1230   3.2186   3.2186
     3.2223   3.2223   3.3786   3.3786   3.5965   3.5966   3.5970   3.5971
     3.7882   3.7883   4.3588   4.3588   4.3606   4.3606   5.2870   5.2871
     5.2891   5.2892   5.5563   5.5563   5.5590   5.5590   5.9124   5.9124
     5.9143   5.9143   5.9372   5.9372   5.9509   5.9509   6.0367   6.0367
     6.2409   6.2409   6.2524   6.2524   6.4523   6.4523   6.4561   6.4561
     6.7563   6.7563   7.1261   7.1261   7.1288   7.1288   7.6009   7.6010
     7.6028   7.6029   7.6053   7.6053   7.6073   7.6074   8.1118   8.1118
     9.0415   9.0415  11.0362  11.0362  11.0450  11.0451  11.0978  11.0978
    11.1081  11.1081  12.7853  12.7853  12.7874  12.7874  13.5763  13.5764
    13.6087  13.6087  13.6450  13.6451  13.6560  13.6560  13.9709  13.9710
    15.4432  15.4432  15.7657  15.7657  15.9674  15.9674  15.9706  15.9706
    16.3882  16.3883  17.7500  17.7500  18.1611

          k = 0.0000-0.4725 0.1667 ( 62246 PWs)   bands (ev):

   -66.1535 -66.1535 -66.1526 -66.1526 -66.1525 -66.1524 -66.1516 -66.1516
   -30.5962 -30.5962 -30.5907 -30.5907 -30.5897 -30.5896 -30.5835 -30.5834
   -30.4916 -30.4916 -30.4861 -30.4861 -30.4829 -30.4829 -30.4781 -30.4781
   -30.4285 -30.4285 -30.4240 -30.4240 -30.4235 -30.4235 -30.4191 -30.4191
   -20.2985 -20.2985 -20.2984 -20.2984 -20.2984 -20.2984 -20.2983 -20.2983
   -20.2733 -20.2733 -20.2731 -20.2731 -20.2728 -20.2728 -20.2728 -20.2728
   -20.2713 -20.2713 -20.2712 -20.2712 -20.2710 -20.2710 -20.2706 -20.2705
   -20.2703 -20.2703 -20.2699 -20.2698 -20.2698 -20.2698 -20.2691 -20.2691
   -20.2652 -20.2652 -20.2639 -20.2639 -20.2638 -20.2637 -20.2627 -20.2627
   -20.2625 -20.2625 -20.2619 -20.2619 -20.2614 -20.2614 -20.2609 -20.2609
   -20.2560 -20.2559 -20.2551 -20.2551 -20.2543 -20.2543 -20.2536 -20.2536
    -9.9972  -9.9972  -9.6860  -9.6860  -9.5784  -9.5784  -9.3480  -9.3480
    -8.2858  -8.2858  -8.2649  -8.2648  -8.2491  -8.2490  -8.2464  -8.2463
    -7.9328  -7.9327  -7.8626  -7.8626  -7.7743  -7.7743  -7.7089  -7.7089
     0.7281   0.7281   0.8254   0.8254   1.1269   1.1269   1.3440   1.3440
     2.1905   2.1905   3.1235   3.1236   3.1683   3.1683   3.2166   3.2166
     3.2791   3.2791   3.3756   3.3757   3.5911   3.5912   3.6266   3.6266
     3.8054   3.8054   4.0308   4.0308   4.4321   4.4321   4.9864   4.9864
     5.2073   5.2074   5.2628   5.2628   5.5128   5.5128   5.5658   5.5658
     5.8029   5.8029   5.8779   5.8779   5.9906   5.9906   6.2091   6.2091
     6.2570   6.2570   6.3039   6.3039   6.4478   6.4478   6.8023   6.8023
     6.8701   6.8702   6.9094   6.9094   6.9465   6.9465   7.5898   7.5899
     7.5957   7.5957   7.5989   7.5990   7.6075   7.6075   8.0614   8.0614
     9.4497   9.4498  11.0496  11.0497  11.1009  11.1010  11.1657  11.1658
    11.2275  11.2275  12.5997  12.5997  12.8408  12.8408  13.3970  13.3971
    13.4281  13.4281  13.5863  13.5863  13.6401  13.6401  13.9722  13.9722
    15.5546  15.5546  15.9221  15.9222  15.9608  15.9608  16.3117  16.3117
    16.4961  16.4961  17.7965  17.8198  17.8202

          k = 0.0000-0.4725 0.3333 ( 62268 PWs)   bands (ev):

   -66.1533 -66.1533 -66.1528 -66.1528 -66.1523 -66.1523 -66.1518 -66.1518
   -30.5950 -30.5950 -30.5918 -30.5918 -30.5693 -30.5693 -30.5632 -30.5632
   -30.5127 -30.5127 -30.5070 -30.5070 -30.4819 -30.4819 -30.4791 -30.4791
   -30.4275 -30.4274 -30.4248 -30.4248 -30.4225 -30.4224 -30.4199 -30.4199
   -20.2985 -20.2985 -20.2984 -20.2984 -20.2984 -20.2984 -20.2983 -20.2983
   -20.2732 -20.2732 -20.2731 -20.2731 -20.2725 -20.2725 -20.2724 -20.2723
   -20.2716 -20.2716 -20.2713 -20.2713 -20.2711 -20.2711 -20.2708 -20.2707
   -20.2702 -20.2701 -20.2699 -20.2698 -20.2696 -20.2696 -20.2693 -20.2692
   -20.2650 -20.2649 -20.2642 -20.2642 -20.2632 -20.2632 -20.2623 -20.2623
   -20.2623 -20.2622 -20.2615 -20.2615 -20.2613 -20.2613 -20.2600 -20.2600
   -20.2576 -20.2576 -20.2559 -20.2559 -20.2548 -20.2548 -20.2540 -20.2539
    -9.8738  -9.8738  -9.7152  -9.7152  -9.2858  -9.2858  -9.1703  -9.1703
    -8.4113  -8.4113  -8.4057  -8.4056  -8.2577  -8.2576  -8.2393  -8.2392
    -8.1939  -8.1939  -8.1498  -8.1498  -7.7606  -7.7606  -7.7228  -7.7228
     0.8126   0.8126   0.8288   0.8288   1.9472   1.9472   2.0947   2.0948
     2.4534   2.4534   3.1287   3.1287   3.1948   3.1948   3.2734   3.2734
     3.3543   3.3543   3.4127   3.4128   3.4561   3.4561   3.5677   3.5677
     3.7340   3.7340   3.8388   3.8388   4.3719   4.3719   4.5172   4.5172
     4.6441   4.6441   4.8124   4.8124   4.9657   4.9657   5.1779   5.1779
     5.5978   5.5979   5.7693   5.7693   6.1076   6.1076   6.2503   6.2503
     6.3579   6.3579   6.4243   6.4243   6.5041   6.5041   6.5839   6.5839
     6.8852   6.8852   7.2028   7.2028   7.2377   7.2377   7.5555   7.5555
     7.5592   7.5593   7.5693   7.5693   7.6260   7.6260   7.8930   7.8930
    10.2875  10.2875  11.0646  11.0646  11.0877  11.0877  11.5562  11.5562
    11.6140  11.6140  12.0436  12.0436  12.8476  12.8476  12.8826  12.8826
    13.0221  13.0222  13.5752  13.5752  13.6286  13.6286  13.7708  13.7708
    15.7430  15.7430  15.9323  15.9324  16.3291  16.3292  17.0136  17.0136
    17.0756  17.0756  17.2646  17.2646  18.0295

          k = 0.0000-0.4725-0.5000 ( 62284 PWs)   bands (ev):

   -66.1531 -66.1530 -66.1530 -66.1530 -66.1521 -66.1520 -66.1520 -66.1520
   -30.5934 -30.5934 -30.5934 -30.5934 -30.5412 -30.5412 -30.5412 -30.5412
   -30.5353 -30.5353 -30.5353 -30.5352 -30.4805 -30.4805 -30.4805 -30.4805
   -30.4261 -30.4261 -30.4261 -30.4260 -30.4211 -30.4211 -30.4211 -30.4211
   -20.2985 -20.2985 -20.2985 -20.2984 -20.2984 -20.2983 -20.2983 -20.2983
   -20.2732 -20.2732 -20.2732 -20.2731 -20.2720 -20.2720 -20.2720 -20.2720
   -20.2718 -20.2718 -20.2718 -20.2718 -20.2710 -20.2709 -20.2709 -20.2709
   -20.2700 -20.2700 -20.2700 -20.2699 -20.2694 -20.2694 -20.2694 -20.2694
   -20.2646 -20.2646 -20.2646 -20.2646 -20.2627 -20.2627 -20.2627 -20.2627
   -20.2618 -20.2618 -20.2618 -20.2618 -20.2597 -20.2596 -20.2596 -20.2596
   -20.2580 -20.2580 -20.2580 -20.2580 -20.2544 -20.2544 -20.2544 -20.2544
    -9.7727  -9.7727  -9.7727  -9.7727  -8.8528  -8.8528  -8.8528  -8.8527
    -8.8250  -8.8250  -8.8250  -8.8249  -8.2450  -8.2450  -8.2449  -8.2449
    -8.2158  -8.2158  -8.2158  -8.2158  -7.7418  -7.7418  -7.7418  -7.7418
     0.8293   0.8293   0.8293   0.8293   2.8517   2.8517   2.8517   2.8517
     2.9941   2.9941   2.9941   2.9941   3.1262   3.1262   3.1262   3.1262
     3.1983   3.1983   3.1983   3.1983   3.4084   3.4084   3.4085   3.4085
     3.6262   3.6262   3.6262   3.6262   4.2524   4.2524   4.2524   4.2524
     4.3477   4.3477   4.3477   4.3477   4.9528   4.9528   4.9528   4.9528
     5.6511   5.6511   5.6512   5.6512   6.2905   6.2905   6.2905   6.2905
     6.3209   6.3209   6.3209   6.3209   6.4172   6.4172   6.4172   6.4172
     7.3537   7.3537   7.3537   7.3537   7.4485   7.4485   7.4485   7.4485
     7.4853   7.4853   7.4854   7.4854   7.6873   7.6873   7.6873   7.6873
    11.0456  11.0456  11.0456  11.0456  11.2457  11.2457  11.2457  11.2457
    12.1645  12.1645  12.1645  12.1645  12.2151  12.2151  12.2151  12.2151
    13.3231  13.3231  13.3231  13.3231  13.6438  13.6438  13.6438  13.6439
    15.8683  15.8683  15.8683  15.8683  16.7519  16.7520  16.7520  16.7520
    17.7094  17.7095  17.7096  17.7096  17.8792

          k = 0.1667 0.0000 0.1667 ( 62234 PWs)   bands (ev):

   -66.1536 -66.1532 -66.1527 -66.1527 -66.1524 -66.1523 -66.1519 -66.1515
   -30.5910 -30.5904 -30.5877 -30.5871 -30.5853 -30.5848 -30.5824 -30.5817
   -30.4926 -30.4920 -30.4902 -30.4894 -30.4878 -30.4872 -30.4852 -30.4845
   -30.4574 -30.4526 -30.4526 -30.4480 -30.3985 -30.3944 -30.3944 -30.3903
   -20.2985 -20.2985 -20.2985 -20.2984 -20.2984 -20.2983 -20.2983 -20.2983
   -20.2740 -20.2737 -20.2734 -20.2732 -20.2732 -20.2730 -20.2727 -20.2724
   -20.2724 -20.2722 -20.2721 -20.2719 -20.2716 -20.2713 -20.2713 -20.2712
   -20.2708 -20.2707 -20.2703 -20.2700 -20.2675 -20.2671 -20.2670 -20.2663
   -20.2649 -20.2649 -20.2639 -20.2638 -20.2637 -20.2636 -20.2627 -20.2626
   -20.2622 -20.2622 -20.2621 -20.2620 -20.2615 -20.2615 -20.2606 -20.2605
   -20.2559 -20.2558 -20.2558 -20.2556 -20.2545 -20.2544 -20.2542 -20.2541
   -10.0387  -9.8640  -9.6705  -9.6676  -9.5421  -9.5379  -9.3149  -9.2979
    -8.8741  -8.7828  -8.7827  -8.7658  -7.9473  -7.9461  -7.9242  -7.9237
    -7.9021  -7.8940  -7.8657  -7.8394  -7.6057  -7.5553  -7.5546  -7.5075
     0.9242   0.9318   1.1111   1.1164   1.1268   1.1328   1.3227   1.4636
     1.7054   1.7492   1.7509   1.8981   2.2427   2.3246   2.6270   2.6273
     2.7240   2.7452   4.0280   4.0330   4.1028   4.1306   4.1332   4.1545
     4.2141   4.2200   4.5896   4.7114   4.7199   4.7672   4.9183   5.0983
     5.1934   5.2033   5.2915   5.4630   5.4696   5.5654   5.5676   5.7178
     5.7191   5.8916   5.8946   6.1303   6.1613   6.2118   6.2340   6.3503
     6.3513   6.4430   6.4634   6.5341   6.5357   6.6382   6.6518   6.6794
     6.9183   6.9320   6.9518   6.9615   6.9643   7.0137   7.0164   7.0431
     7.0466   7.1107   8.0092   8.0112   8.1747   8.1986   8.2020   8.2057
     9.7198   9.7388   9.7853   9.8606   9.8685   9.8988  12.3471  12.3862
    12.4496  12.4542  12.6415  12.6442  12.6581  12.6621  13.0043  13.0195
    13.0700  13.0998  13.8380  13.8877  13.9905  14.0160  14.0417  14.1119
    14.1717  14.4743  14.4952  15.1883  15.3496  15.7881  15.7957  16.8799
    16.8804  17.2583  17.2587  17.2691  17.6122

          k = 0.1667 0.0000 0.3333 ( 62265 PWs)   bands (ev):

   -66.1534 -66.1530 -66.1529 -66.1525 -66.1525 -66.1522 -66.1520 -66.1517
   -30.5891 -30.5861 -30.5860 -30.5829 -30.5703 -30.5674 -30.5650 -30.5621
   -30.5137 -30.5111 -30.5087 -30.5062 -30.4910 -30.4884 -30.4882 -30.4856
   -30.4563 -30.4534 -30.4515 -30.4487 -30.3976 -30.3951 -30.3934 -30.3910
   -20.2985 -20.2985 -20.2984 -20.2984 -20.2984 -20.2984 -20.2983 -20.2983
   -20.2740 -20.2738 -20.2731 -20.2730 -20.2729 -20.2728 -20.2727 -20.2725
   -20.2724 -20.2722 -20.2720 -20.2719 -20.2716 -20.2715 -20.2715 -20.2710
   -20.2708 -20.2707 -20.2704 -20.2703 -20.2674 -20.2671 -20.2669 -20.2665
   -20.2648 -20.2647 -20.2641 -20.2640 -20.2633 -20.2631 -20.2624 -20.2623
   -20.2619 -20.2619 -20.2615 -20.2615 -20.2610 -20.2609 -20.2601 -20.2601
   -20.2575 -20.2574 -20.2560 -20.2560 -20.2554 -20.2553 -20.2546 -20.2545
    -9.8996  -9.7238  -9.7037  -9.5642  -9.4056  -9.2462  -9.1654  -9.1346
    -8.9201  -8.8071  -8.7460  -8.7449  -8.3278  -8.3182  -8.2984  -8.2692
    -7.9323  -7.9103  -7.8948  -7.8735  -7.5951  -7.5661  -7.5446  -7.5175
     1.0989   1.1069   1.1197   1.1368   1.6228   1.6272   1.6960   1.7375
     1.9526   2.0603   2.1084   2.2563   2.5205   2.6016   2.6489   2.7104
     2.8841   2.9810   3.4661   3.5526   3.9217   3.9731   4.0916   4.1100
     4.1775   4.2408   4.3601   4.3735   4.4604   4.6439   4.6776   4.7252
     4.7938   4.8135   4.8467   5.0184   5.0475   5.2479   5.5370   5.5848
     5.7312   5.8963   5.9321   5.9860   6.0592   6.0871   6.2008   6.2181
     6.4166   6.4554   6.5063   6.5745   6.6198   6.6319   6.8167   6.8306
     6.8441   6.8602   6.9261   6.9848   7.0061   7.0510   7.0758   7.1114
     7.2363   7.3237   7.8419   7.8431   8.0298   8.0492   8.2017   8.2033
     9.8251   9.8559  10.4354  10.4591  10.6286  10.6444  12.0969  12.1102
    12.2395  12.4021  12.4567  12.5573  12.6205  12.6754  12.8260  12.8611
    13.0085  13.0942  13.5108  13.5969  13.6024  13.6770  14.0128  14.0377
    14.3102  14.4681  14.8032  15.2565  15.5333  16.2708  16.4614  16.6035
    16.8003  17.5120  17.6120  17.7486  17.8922

          k = 0.1667 0.0000-0.5000 ( 62322 PWs)   bands (ev):

   -66.1532 -66.1532 -66.1528 -66.1528 -66.1523 -66.1523 -66.1519 -66.1519
   -30.5876 -30.5875 -30.5845 -30.5845 -30.5422 -30.5422 -30.5395 -30.5394
   -30.5370 -30.5370 -30.5344 -30.5343 -30.4896 -30.4896 -30.4870 -30.4870
   -30.4548 -30.4548 -30.4501 -30.4501 -30.3963 -30.3963 -30.3922 -30.3922
   -20.2985 -20.2985 -20.2984 -20.2984 -20.2984 -20.2984 -20.2983 -20.2983
   -20.2739 -20.2738 -20.2730 -20.2729 -20.2728 -20.2727 -20.2725 -20.2725
   -20.2722 -20.2722 -20.2721 -20.2721 -20.2717 -20.2717 -20.2711 -20.2711
   -20.2706 -20.2706 -20.2706 -20.2705 -20.2672 -20.2672 -20.2667 -20.2667
   -20.2645 -20.2645 -20.2644 -20.2644 -20.2629 -20.2628 -20.2627 -20.2627
   -20.2615 -20.2615 -20.2614 -20.2614 -20.2596 -20.2596 -20.2595 -20.2595
   -20.2581 -20.2581 -20.2581 -20.2581 -20.2550 -20.2550 -20.2549 -20.2549
    -9.7760  -9.7760  -9.6183  -9.6183  -9.0833  -9.0833  -8.9178  -8.9178
    -8.8027  -8.8027  -8.7863  -8.7863  -8.6551  -8.6551  -8.6170  -8.6170
    -7.9138  -7.9138  -7.8922  -7.8922  -7.5807  -7.5806  -7.5311  -7.5311
     1.1189   1.1189   1.1367   1.1367   1.6836   1.6836   1.7149   1.7149
     2.6740   2.6740   2.8764   2.8764   2.9347   2.9347   3.0175   3.0175
     3.0624   3.0624   3.1539   3.1539   3.2731   3.2731   3.6551   3.6551
     3.7107   3.7107   4.1630   4.1630   4.6264   4.6264   4.6724   4.6724
     4.6992   4.6993   4.7446   4.7446   4.9776   4.9776   5.6572   5.6572
     5.6890   5.6890   5.7911   5.7911   6.1665   6.1665   6.2184   6.2184
     6.3619   6.3619   6.5672   6.5672   6.6589   6.6589   6.6781   6.6781
     6.8917   6.8917   6.9446   6.9446   7.0328   7.0328   7.5067   7.5067
     7.5189   7.5189   7.7208   7.7208   7.7517   7.7517   8.2046   8.2046
     9.8417   9.8417  11.2959  11.2959  11.3152  11.3152  11.5223  11.5223
    11.5546  11.5547  12.4617  12.4617  12.8959  12.8959  13.0521  13.0521
    13.1687  13.1687  13.1914  13.1914  13.2388  13.2388  14.0228  14.0228
    14.4128  14.4128  15.0817  15.0817  16.0105  16.0105  16.6246  16.6246
    17.3356  17.3356  17.8602  17.8608  17.9232

          k = 0.1667 0.1575 0.1667 ( 62255 PWs)   bands (ev):

   -66.1536 -66.1532 -66.1527 -66.1527 -66.1524 -66.1523 -66.1518 -66.1515
   -30.5908 -30.5902 -30.5879 -30.5873 -30.5852 -30.5846 -30.5826 -30.5819
   -30.4924 -30.4918 -30.4903 -30.4895 -30.4876 -30.4871 -30.4853 -30.4847
   -30.4535 -30.4488 -30.4487 -30.4442 -30.4025 -30.3983 -30.3983 -30.3942
   -20.2985 -20.2985 -20.2984 -20.2984 -20.2984 -20.2983 -20.2983 -20.2983
   -20.2739 -20.2736 -20.2733 -20.2732 -20.2730 -20.2728 -20.2727 -20.2724
   -20.2722 -20.2721 -20.2720 -20.2719 -20.2716 -20.2713 -20.2712 -20.2712
   -20.2709 -20.2707 -20.2704 -20.2701 -20.2679 -20.2675 -20.2674 -20.2667
   -20.2649 -20.2649 -20.2639 -20.2638 -20.2637 -20.2636 -20.2627 -20.2626
   -20.2622 -20.2622 -20.2621 -20.2620 -20.2615 -20.2615 -20.2606 -20.2606
   -20.2559 -20.2558 -20.2558 -20.2556 -20.2545 -20.2544 -20.2542 -20.2541
   -10.0217  -9.8719  -9.6557  -9.6527  -9.5470  -9.5429  -9.3138  -9.2990
    -8.7998  -8.7219  -8.7218  -8.7067  -7.9458  -7.9440  -7.9280  -7.9276
    -7.9014  -7.9000  -7.8640  -7.8412  -7.7050  -7.6582  -7.6576  -7.6129
     0.9246   0.9312   1.1191   1.1246   1.1272   1.1333   1.3795   1.4633
     1.9199   1.9817   1.9833   2.1066   2.2480   2.3198   2.6993   2.6995
     2.7963   2.8125   3.9382   3.9462   3.9692   4.0166   4.1146   4.1178
     4.1317   4.1325   4.6214   4.7039   4.7783   4.8016   4.8094   5.0658
     5.1576   5.2162   5.2405   5.2495   5.3103   5.5375   5.5394   5.7184
     5.7238   5.7987   6.0094   6.0124   6.0883   6.2320   6.2449   6.3399
     6.3486   6.3750   6.4132   6.4519   6.4867   6.6510   6.6598   6.7258
     6.7685   6.8960   6.8991   6.9495   6.9523   6.9942   7.0464   7.0791
     7.0818   7.1280   8.0087   8.0107   8.1133   8.1297   8.1342   8.1436
     9.7345   9.7387   9.9869  10.0530  10.0687  10.0814  12.1953  12.2379
    12.2868  12.2913  12.6443  12.6473  12.6585  12.6622  13.0452  13.0598
    13.0980  13.1266  13.8167  13.8615  13.9208  13.9372  13.9624  14.0402
    14.5312  14.8286  14.8353  15.2851  15.7734  15.7900  15.7954  16.8353
    16.8364  17.1691  17.3257  17.3270  17.3401

          k = 0.1667 0.1575 0.3333 ( 62260 PWs)   bands (ev):

   -66.1534 -66.1530 -66.1529 -66.1525 -66.1525 -66.1522 -66.1520 -66.1517
   -30.5889 -30.5863 -30.5858 -30.5831 -30.5701 -30.5676 -30.5648 -30.5623
   -30.5135 -30.5113 -30.5085 -30.5064 -30.4908 -30.4886 -30.4880 -30.4858
   -30.4524 -30.4495 -30.4477 -30.4449 -30.4015 -30.3991 -30.3974 -30.3949
   -20.2985 -20.2985 -20.2984 -20.2984 -20.2984 -20.2983 -20.2983 -20.2983
   -20.2738 -20.2736 -20.2729 -20.2729 -20.2727 -20.2727 -20.2726 -20.2724
   -20.2722 -20.2721 -20.2720 -20.2719 -20.2715 -20.2714 -20.2714 -20.2710
   -20.2709 -20.2707 -20.2705 -20.2703 -20.2678 -20.2675 -20.2673 -20.2669
   -20.2648 -20.2647 -20.2641 -20.2640 -20.2633 -20.2631 -20.2624 -20.2623
   -20.2619 -20.2619 -20.2615 -20.2615 -20.2610 -20.2609 -20.2601 -20.2601
   -20.2575 -20.2574 -20.2560 -20.2560 -20.2554 -20.2553 -20.2546 -20.2545
    -9.8816  -9.7312  -9.6878  -9.5696  -9.3842  -9.2512  -9.1623  -9.1362
    -8.8491  -8.7500  -8.6914  -8.6888  -8.3317  -8.3135  -8.3041  -8.2639
    -7.9303  -7.9143  -7.8930  -7.8772  -7.6953  -7.6678  -7.6480  -7.6219
     1.1047   1.1078   1.1281   1.1372   1.7900   1.8046   1.9221   1.9527
     1.9726   2.1081   2.1279   2.3146   2.5254   2.5988   2.7190   2.7822
     2.9586   3.0498   3.4669   3.5492   3.8926   3.9335   3.9622   4.0638
     4.1481   4.1763   4.3271   4.3508   4.4744   4.6138   4.6397   4.7136
     4.7232   4.7544   4.7850   4.9856   5.0553   5.0646   5.3083   5.5638
     5.7294   5.7517   5.8187   5.8927   5.9808   6.0182   6.1586   6.2281
     6.2673   6.4687   6.5003   6.6284   6.6481   6.7091   6.7288   6.7560
     6.8631   6.8963   6.9767   7.0193   7.0278   7.0520   7.1241   7.1436
     7.2386   7.3252   7.8390   7.8450   7.9822   7.9962   8.1329   8.1379
    10.0181  10.0562  10.4433  10.4659  10.7418  10.7576  12.0929  12.1085
    12.1687  12.2983  12.4478  12.4570  12.5288  12.5532  12.8266  12.8578
    13.0500  13.1106  13.4384  13.4889  13.5960  13.6400  13.9311  13.9574
    14.6801  14.8150  15.1958  15.6007  15.6998  16.2628  16.4771  16.6782
    16.7608  17.4308  17.5675  17.6512  17.8255

          k = 0.1667 0.1575-0.5000 ( 62292 PWs)   bands (ev):

   -66.1531 -66.1531 -66.1528 -66.1528 -66.1523 -66.1523 -66.1519 -66.1519
   -30.5874 -30.5873 -30.5847 -30.5847 -30.5420 -30.5420 -30.5396 -30.5396
   -30.5369 -30.5368 -30.5345 -30.5345 -30.4894 -30.4894 -30.4872 -30.4872
   -30.4509 -30.4509 -30.4463 -30.4463 -30.4003 -30.4002 -30.3961 -30.3961
   -20.2985 -20.2985 -20.2984 -20.2984 -20.2984 -20.2984 -20.2983 -20.2983
   -20.2737 -20.2737 -20.2728 -20.2728 -20.2725 -20.2725 -20.2724 -20.2724
   -20.2722 -20.2722 -20.2721 -20.2720 -20.2717 -20.2717 -20.2711 -20.2710
   -20.2706 -20.2706 -20.2706 -20.2706 -20.2676 -20.2676 -20.2671 -20.2671
   -20.2645 -20.2644 -20.2644 -20.2644 -20.2628 -20.2628 -20.2627 -20.2627
   -20.2615 -20.2615 -20.2614 -20.2614 -20.2596 -20.2596 -20.2595 -20.2595
   -20.2581 -20.2581 -20.2581 -20.2581 -20.2550 -20.2550 -20.2549 -20.2549
    -9.7588  -9.7587  -9.6246  -9.6246  -9.0376  -9.0376  -8.8934  -8.8934
    -8.8076  -8.8075  -8.7891  -8.7891  -8.6199  -8.6199  -8.5867  -8.5867
    -7.9120  -7.9120  -7.8961  -7.8961  -7.6816  -7.6816  -7.6350  -7.6350
     1.1279   1.1279   1.1371   1.1371   1.9015   1.9016   1.9571   1.9572
     2.7404   2.7404   2.8823   2.8823   2.9365   2.9365   3.0261   3.0261
     3.0628   3.0628   3.1811   3.1811   3.2681   3.2681   3.6932   3.6932
     3.7706   3.7706   4.0202   4.0203   4.4994   4.4994   4.6211   4.6211
     4.6717   4.6717   4.7435   4.7435   4.8517   4.8518   5.4539   5.4539
     5.6438   5.6438   5.7898   5.7898   5.8859   5.8859   6.2014   6.2014
     6.4415   6.4415   6.5943   6.5944   6.6320   6.6320   6.7485   6.7485
     6.8554   6.8554   7.0065   7.0065   7.0734   7.0734   7.5017   7.5017
     7.5271   7.5271   7.6967   7.6967   7.7261   7.7261   8.1367   8.1367
    10.0401  10.0401  11.2977  11.2977  11.3182  11.3182  11.5912  11.5912
    11.6211  11.6211  12.3028  12.3029  12.8478  12.8478  12.9378  12.9378
    13.1128  13.1129  13.1939  13.1939  13.2338  13.2338  13.9394  13.9394
    14.7704  14.7704  15.4932  15.4932  16.0943  16.0944  16.5959  16.5959
    17.3723  17.3724  17.7380  17.7381  17.8799

          k = 0.1667 0.3150 0.1667 ( 62249 PWs)   bands (ev):

   -66.1535 -66.1533 -66.1526 -66.1526 -66.1525 -66.1524 -66.1518 -66.1516
   -30.5902 -30.5897 -30.5883 -30.5878 -30.5846 -30.5840 -30.5831 -30.5825
   -30.4920 -30.4914 -30.4907 -30.4900 -30.4872 -30.4867 -30.4856 -30.4851
   -30.4428 -30.4382 -30.4382 -30.4337 -30.4134 -30.4091 -30.4090 -30.4048
   -20.2985 -20.2985 -20.2984 -20.2984 -20.2984 -20.2984 -20.2983 -20.2983
   -20.2735 -20.2733 -20.2732 -20.2730 -20.2728 -20.2728 -20.2726 -20.2725
   -20.2717 -20.2715 -20.2715 -20.2713 -20.2712 -20.2711 -20.2711 -20.2710
   -20.2710 -20.2705 -20.2703 -20.2703 -20.2689 -20.2685 -20.2684 -20.2678
   -20.2649 -20.2649 -20.2638 -20.2638 -20.2637 -20.2636 -20.2627 -20.2626
   -20.2622 -20.2622 -20.2621 -20.2620 -20.2615 -20.2615 -20.2606 -20.2606
   -20.2559 -20.2558 -20.2557 -20.2557 -20.2544 -20.2544 -20.2542 -20.2542
    -9.9801  -9.8954  -9.6220  -9.6186  -9.5621  -9.5581  -9.3107  -9.3021
    -8.5904  -8.5409  -8.5406  -8.5311  -7.9952  -7.9723  -7.9718  -7.9416
    -7.9380  -7.9349  -7.8961  -7.8856  -7.8831  -7.8584  -7.8457  -7.8297
     0.9259   0.9297   1.1267   1.1281   1.1326   1.1342   1.4357   1.4617
     2.2623   2.3018   2.5233   2.6152   2.6183   2.7328   2.9253   2.9298
     3.0093   3.0362   3.5800   3.5885   3.6306   3.6823   4.0952   4.0971
     4.1172   4.1192   4.1913   4.5631   4.5653   4.7563   4.8631   4.9227
     4.9591   4.9622   5.0294   5.1074   5.2638   5.3761   5.4373   5.4385
     5.7396   5.7409   5.8263   5.8299   5.9632   5.9651   6.2354   6.2414
     6.3384   6.3508   6.3626   6.4641   6.4776   6.6921   6.7064   6.7227
     6.8832   6.8866   6.9586   6.9730   6.9951   7.0025   7.1961   7.2286
     7.2440   7.2467   7.9131   7.9177   7.9238   7.9268   8.0143   8.0287
     9.7375   9.7445  10.4966  10.5560  10.5810  10.5844  11.7610  11.8092
    11.8421  11.8458  12.6467  12.6501  12.6610  12.6638  13.1720  13.1850
    13.2063  13.2342  13.6601  13.6750  13.6787  13.6887  13.9200  13.9402
    15.4888  15.5770  15.6097  15.6151  15.7922  15.7938  16.5798  16.6746
    16.6767  16.8276  17.4212  17.5341  17.5385

          k = 0.1667 0.3150 0.3333 ( 62265 PWs)   bands (ev):

   -66.1533 -66.1531 -66.1528 -66.1526 -66.1524 -66.1522 -66.1519 -66.1518
   -30.5884 -30.5868 -30.5852 -30.5837 -30.5696 -30.5681 -30.5643 -30.5629
   -30.5130 -30.5117 -30.5081 -30.5068 -30.4903 -30.4890 -30.4875 -30.4862
   -30.4417 -30.4389 -30.4372 -30.4345 -30.4124 -30.4098 -30.4081 -30.4056
   -20.2985 -20.2985 -20.2984 -20.2984 -20.2984 -20.2983 -20.2983 -20.2983
   -20.2734 -20.2733 -20.2728 -20.2727 -20.2727 -20.2725 -20.2724 -20.2723
   -20.2718 -20.2717 -20.2715 -20.2715 -20.2714 -20.2712 -20.2710 -20.2710
   -20.2709 -20.2706 -20.2704 -20.2704 -20.2688 -20.2685 -20.2683 -20.2679
   -20.2647 -20.2647 -20.2641 -20.2640 -20.2632 -20.2632 -20.2624 -20.2623
   -20.2619 -20.2619 -20.2615 -20.2615 -20.2610 -20.2609 -20.2601 -20.2601
   -20.2575 -20.2574 -20.2560 -20.2560 -20.2554 -20.2554 -20.2546 -20.2545
    -9.8383  -9.7538  -9.6515  -9.5861  -9.3381  -9.2671  -9.1553  -9.1407
    -8.6547  -8.5867  -8.5222  -8.5199  -8.3466  -8.3277  -8.2929  -8.2422
    -7.9621  -7.9563  -7.9222  -7.9208  -7.9170  -7.8864  -7.8742  -7.8453
     1.1089   1.1094   1.1364   1.1380   1.9297   1.9524   2.0446   2.1056
     2.5224   2.5382   2.5629   2.6005   2.6183   2.7545   2.9383   3.0034
     3.1893   3.2631   3.4512   3.5414   3.6232   3.6286   3.7352   3.7590
     4.1452   4.2083   4.2971   4.3078   4.3637   4.4180   4.4707   4.5330
     4.5534   4.7422   4.7745   4.8238   4.9393   4.9608   4.9655   5.1404
     5.2917   5.4039   5.4630   5.7011   5.7522   5.9596   5.9853   6.0402
     6.3754   6.4761   6.5680   6.6862   6.7288   6.7753   6.8220   6.8389
     6.9154   6.9743   7.0852   7.1053   7.1523   7.2273   7.2417   7.2685
     7.3127   7.3287   7.8045   7.8231   7.8336   7.8561   7.9282   7.9598
    10.4105  10.4494  10.5656  10.5856  11.0734  11.1019  11.7879  11.8326
    12.0801  12.1032  12.1096  12.1494  12.5973  12.6329  12.8268  12.8591
    13.1336  13.1871  13.2037  13.2489  13.5605  13.6156  13.6965  13.7574
    15.5693  15.6076  15.8820  16.1225  16.2265  16.5576  16.6226  16.7265
    16.9110  16.9175  17.5953  17.6949  17.7509

          k = 0.1667 0.3150-0.5000 ( 62264 PWs)   bands (ev):

   -66.1531 -66.1531 -66.1529 -66.1529 -66.1522 -66.1522 -66.1520 -66.1520
   -30.5868 -30.5868 -30.5853 -30.5852 -30.5415 -30.5415 -30.5401 -30.5401
   -30.5363 -30.5363 -30.5350 -30.5350 -30.4889 -30.4889 -30.4876 -30.4876
   -30.4403 -30.4403 -30.4358 -30.4358 -30.4110 -30.4110 -30.4068 -30.4068
   -20.2985 -20.2985 -20.2984 -20.2984 -20.2984 -20.2984 -20.2983 -20.2983
   -20.2734 -20.2733 -20.2728 -20.2727 -20.2722 -20.2722 -20.2720 -20.2720
   -20.2719 -20.2719 -20.2719 -20.2719 -20.2714 -20.2714 -20.2709 -20.2709
   -20.2707 -20.2707 -20.2705 -20.2705 -20.2686 -20.2686 -20.2681 -20.2681
   -20.2645 -20.2644 -20.2644 -20.2644 -20.2628 -20.2628 -20.2627 -20.2627
   -20.2615 -20.2615 -20.2614 -20.2614 -20.2596 -20.2596 -20.2595 -20.2595
   -20.2581 -20.2581 -20.2581 -20.2581 -20.2550 -20.2550 -20.2550 -20.2549
    -9.7184  -9.7184  -9.6437  -9.6437  -8.9399  -8.9399  -8.8504  -8.8504
    -8.8223  -8.8223  -8.7978  -8.7978  -8.4876  -8.4876  -8.4682  -8.4682
    -7.9532  -7.9532  -7.9281  -7.9281  -7.9041  -7.9041  -7.8603  -7.8603
     1.1360   1.1361   1.1379   1.1379   2.5020   2.5020   2.5820   2.5820
     2.8812   2.8812   2.9063   2.9064   2.9787   2.9787   3.0554   3.0554
     3.0721   3.0721   3.2476   3.2476   3.2575   3.2575   3.6152   3.6152
     3.9073   3.9073   3.9696   3.9696   4.0639   4.0639   4.3057   4.3057
     4.6265   4.6265   4.6723   4.6723   4.8783   4.8783   4.9803   4.9803
     5.0768   5.0768   5.5272   5.5272   5.8039   5.8040   5.9658   5.9658
     6.5533   6.5533   6.6420   6.6420   6.6696   6.6696   6.8152   6.8153
     7.0973   7.0973   7.1713   7.1713   7.2462   7.2462   7.4823   7.4823
     7.5563   7.5563   7.6138   7.6138   7.6419   7.6419   7.9384   7.9384
    10.5464  10.5465  11.2985  11.2985  11.3224  11.3224  11.7267  11.7267
    11.8315  11.8315  11.9505  11.9505  12.5703  12.5703  12.6148  12.6148
    13.1100  13.1100  13.1979  13.1979  13.2802  13.2802  13.7059  13.7059
    15.5951  15.5951  16.3342  16.3342  16.4844  16.4844  16.5240  16.5240
    17.3224  17.3224  17.5219  17.5220  17.9232

          k = 0.1667-0.4725 0.1667 ( 62220 PWs)   bands (ev):

   -66.1534 -66.1534 -66.1526 -66.1525 -66.1525 -66.1525 -66.1517 -66.1517
   -30.5896 -30.5896 -30.5884 -30.5884 -30.5839 -30.5839 -30.5832 -30.5832
   -30.4913 -30.4913 -30.4907 -30.4907 -30.4867 -30.4867 -30.4855 -30.4855
   -30.4281 -30.4281 -30.4237 -30.4237 -30.4237 -30.4236 -30.4193 -30.4193
   -20.2985 -20.2985 -20.2984 -20.2984 -20.2984 -20.2984 -20.2983 -20.2983
   -20.2732 -20.2732 -20.2729 -20.2729 -20.2728 -20.2728 -20.2728 -20.2727
   -20.2713 -20.2713 -20.2713 -20.2712 -20.2711 -20.2711 -20.2706 -20.2706
   -20.2703 -20.2703 -20.2698 -20.2698 -20.2698 -20.2697 -20.2692 -20.2691
   -20.2649 -20.2649 -20.2638 -20.2638 -20.2637 -20.2636 -20.2627 -20.2627
   -20.2622 -20.2622 -20.2621 -20.2621 -20.2615 -20.2615 -20.2606 -20.2606
   -20.2559 -20.2559 -20.2557 -20.2557 -20.2544 -20.2544 -20.2542 -20.2542
    -9.9333  -9.9333  -9.5877  -9.5876  -9.5840  -9.5839  -9.3064  -9.3064
    -8.2926  -8.2925  -8.2616  -8.2613  -8.2608  -8.2607  -8.2520  -8.2518
    -7.9291  -7.9288  -7.9266  -7.9265  -7.8805  -7.8805  -7.8525  -7.8524
     0.9277   0.9278   1.1285   1.1287   1.1345   1.1347   1.4555   1.4555
     2.2821   2.2822   3.1677   3.1694   3.1728   3.1764   3.2411   3.2430
     3.3092   3.3096   3.3741   3.3742   3.6192   3.6202   3.6217   3.6231
     3.8194   3.8195   4.0995   4.1016   4.1135   4.1153   4.9172   4.9197
     5.0341   5.0358   5.2031   5.2073   5.2150   5.2181   5.4300   5.4323
     5.5448   5.5459   5.7863   5.7909   5.7988   5.8020   6.2878   6.2918
     6.3243   6.3316   6.4678   6.4718   6.5248   6.5250   6.7933   6.7954
     6.7982   6.8009   6.9768   6.9776   7.0288   7.0290   7.5787   7.5788
     7.5924   7.5925   7.5950   7.5984   7.5993   7.6023   8.0179   8.0179
     9.7418   9.7420  11.1426  11.1458  11.1957  11.2006  11.2211  11.2243
    11.2331  11.2339  12.6474  12.6507  12.6622  12.6647  13.3814  13.3843
    13.3939  13.4064  13.4110  13.4160  13.4393  13.4416  13.9180  13.9182
    15.7910  15.7914  16.0255  16.0260  16.3013  16.3044  16.3052  16.3080
    16.5668  16.5672  17.8419  17.8442  17.8471

          k = 0.1667-0.4725 0.3333 ( 62252 PWs)   bands (ev):

   -66.1532 -66.1532 -66.1527 -66.1527 -66.1524 -66.1523 -66.1519 -66.1518
   -30.5876 -30.5876 -30.5845 -30.5844 -30.5689 -30.5689 -30.5636 -30.5636
   -30.5124 -30.5123 -30.5074 -30.5074 -30.4897 -30.4897 -30.4869 -30.4869
   -30.4271 -30.4270 -30.4244 -30.4244 -30.4227 -30.4227 -30.4201 -30.4201
   -20.2985 -20.2985 -20.2984 -20.2984 -20.2984 -20.2984 -20.2983 -20.2983
   -20.2731 -20.2731 -20.2730 -20.2729 -20.2725 -20.2724 -20.2724 -20.2723
   -20.2716 -20.2715 -20.2714 -20.2713 -20.2712 -20.2712 -20.2709 -20.2708
   -20.2701 -20.2701 -20.2698 -20.2698 -20.2696 -20.2696 -20.2693 -20.2692
   -20.2647 -20.2647 -20.2641 -20.2641 -20.2632 -20.2632 -20.2624 -20.2624
   -20.2619 -20.2619 -20.2615 -20.2615 -20.2610 -20.2609 -20.2601 -20.2601
   -20.2575 -20.2575 -20.2560 -20.2560 -20.2554 -20.2554 -20.2545 -20.2545
    -9.7911  -9.7910  -9.6141  -9.6141  -9.2957  -9.2956  -9.1474  -9.1474
    -8.4253  -8.4250  -8.4028  -8.4019  -8.2556  -8.2546  -8.2498  -8.2493
    -8.1912  -8.1908  -8.1550  -8.1542  -7.9143  -7.9140  -7.8781  -7.8779
     1.1098   1.1101   1.1383   1.1386   1.9491   1.9495   2.0949   2.0953
     2.5550   2.5552   3.1729   3.1799   3.2324   3.2358   3.2628   3.2801
     3.3567   3.3568   3.4254   3.4397   3.5161   3.5229   3.6026   3.6132
     3.7386   3.7407   3.8427   3.8498   4.3009   4.3078   4.3692   4.3830
     4.5367   4.5603   4.7960   4.7993   4.8902   4.9369   4.9495   4.9528
     5.2139   5.2348   5.3387   5.4001   5.7931   5.8027   5.9871   5.9997
     6.4462   6.4473   6.6707   6.6928   6.7643   6.7758   6.8270   6.8411
     6.9044   6.9407   7.1950   7.1991   7.2525   7.2624   7.5407   7.5457
     7.5585   7.5653   7.5680   7.5696   7.6114   7.6214   7.8657   7.8716
    10.4478  10.4479  11.1831  11.1911  11.2104  11.2147  11.5648  11.5706
    11.6040  11.6114  12.1005  12.1258  12.7940  12.8430  12.8651  12.8711
    12.8816  12.9019  13.3533  13.3931  13.4256  13.4294  13.6270  13.6730
    16.0879  16.0974  16.2791  16.2836  16.4176  16.4291  17.0219  17.0228
    17.0696  17.0791  17.3107  17.3241  17.8661

          k = 0.1667-0.4725-0.5000 ( 62232 PWs)   bands (ev):

   -66.1530 -66.1530 -66.1530 -66.1529 -66.1521 -66.1521 -66.1521 -66.1521
   -30.5860 -30.5860 -30.5860 -30.5860 -30.5408 -30.5408 -30.5408 -30.5408
   -30.5357 -30.5357 -30.5357 -30.5356 -30.4883 -30.4883 -30.4883 -30.4883
   -30.4257 -30.4257 -30.4257 -30.4257 -30.4214 -30.4213 -30.4213 -30.4213
   -20.2985 -20.2985 -20.2984 -20.2984 -20.2984 -20.2983 -20.2983 -20.2983
   -20.2730 -20.2730 -20.2730 -20.2730 -20.2720 -20.2720 -20.2720 -20.2720
   -20.2718 -20.2718 -20.2718 -20.2718 -20.2711 -20.2710 -20.2710 -20.2710
   -20.2699 -20.2699 -20.2699 -20.2699 -20.2695 -20.2694 -20.2694 -20.2694
   -20.2644 -20.2644 -20.2644 -20.2644 -20.2628 -20.2628 -20.2628 -20.2628
   -20.2615 -20.2615 -20.2614 -20.2614 -20.2596 -20.2596 -20.2596 -20.2595
   -20.2581 -20.2581 -20.2581 -20.2581 -20.2550 -20.2550 -20.2550 -20.2549
    -9.6759  -9.6759  -9.6759  -9.6759  -8.8662  -8.8662  -8.8656  -8.8656
    -8.8141  -8.8141  -8.8133  -8.8133  -8.2438  -8.2438  -8.2427  -8.2427
    -8.2247  -8.2246  -8.2233  -8.2233  -7.8964  -7.8964  -7.8961  -7.8961
     1.1380   1.1380   1.1384   1.1384   2.8956   2.8956   2.8976   2.8976
     2.9959   2.9959   3.0103   3.0103   3.1224   3.1224   3.1516   3.1516
     3.2653   3.2654   3.2755   3.2755   3.4078   3.4078   3.4113   3.4114
     3.6462   3.6462   3.6549   3.6549   4.2494   4.2495   4.2548   4.2549
     4.3349   4.3349   4.3435   4.3435   4.6439   4.6439   4.6898   4.6898
     5.2275   5.2276   5.2780   5.2780   5.8297   5.8297   5.8416   5.8416
     6.6093   6.6093   6.6259   6.6259   6.7492   6.7492   6.7589   6.7589
     7.3360   7.3360   7.3873   7.3874   7.4380   7.4381   7.4384   7.4385
     7.4806   7.4806   7.5047   7.5047   7.6703   7.6703   7.6870   7.6870
    11.1431  11.1431  11.1733  11.1733  11.3303  11.3303  11.3742  11.3742
    12.1669  12.1669  12.1762  12.1762  12.2069  12.2069  12.2155  12.2155
    13.1297  13.1298  13.1984  13.1984  13.4180  13.4180  13.4781  13.4781
    16.2238  16.2238  16.2308  16.2308  16.8191  16.8191  16.8227  16.8228
    17.6700  17.6704  17.6974  17.6974  17.8650

          k = 0.3333 0.0000 0.3333 ( 62316 PWs)   bands (ev):

   -66.1532 -66.1528 -66.1527 -66.1527 -66.1524 -66.1523 -66.1522 -66.1518
   -30.5695 -30.5688 -30.5667 -30.5663 -30.5654 -30.5652 -30.5634 -30.5624
   -30.5129 -30.5120 -30.5106 -30.5097 -30.5096 -30.5087 -30.5071 -30.5065
   -30.4552 -30.4523 -30.4523 -30.4495 -30.3966 -30.3942 -30.3942 -30.3918
   -20.2985 -20.2985 -20.2984 -20.2984 -20.2984 -20.2984 -20.2983 -20.2983
   -20.2737 -20.2734 -20.2732 -20.2729 -20.2728 -20.2728 -20.2728 -20.2726
   -20.2722 -20.2720 -20.2718 -20.2717 -20.2716 -20.2716 -20.2714 -20.2711
   -20.2710 -20.2707 -20.2706 -20.2704 -20.2673 -20.2670 -20.2670 -20.2666
   -20.2643 -20.2642 -20.2637 -20.2636 -20.2635 -20.2633 -20.2628 -20.2627
   -20.2613 -20.2613 -20.2609 -20.2608 -20.2604 -20.2604 -20.2598 -20.2598
   -20.2573 -20.2572 -20.2569 -20.2568 -20.2564 -20.2563 -20.2561 -20.2560
    -9.7146  -9.5147  -9.4477  -9.4457  -9.2748  -9.2713  -9.0583  -9.0408
    -8.9705  -8.7649  -8.7642  -8.7272  -8.3969  -8.3183  -8.3140  -8.3120
    -8.3043  -8.3032  -8.2335  -8.2101  -7.5845  -7.5558  -7.5554  -7.5279
     1.5992   1.6191   1.6194   1.6857   1.7660   1.7774   1.9562   1.9603
     2.0570   2.0603   2.2471   2.3954   2.8193   2.8880   2.8970   2.9132
     2.9221   2.9996   3.6467   3.6513   3.7764   3.7822   3.8687   3.8897
     4.0643   4.0971   4.0989   4.1809   4.2409   4.2410   4.3572   4.3800
     4.5947   4.7323   4.7385   4.7930   4.7973   4.7991   4.8679   5.2031
     5.2426   5.3080   5.3138   5.7135   6.2028   6.2039   6.2228   6.2804
     6.5313   6.5595   6.5637   6.6678   6.7242   6.7895   6.8061   6.8063
     6.9704   7.0399   7.0442   7.0519   7.1580   7.1593   7.1940   7.2250
     7.2275   7.4516   7.7271   7.7426   7.9813   8.0503   8.0545   8.0987
    10.5270  10.6217  10.6228  10.6656  10.9390  10.9802  12.2645  12.2699
    12.2901  12.3359  12.3401  12.3472  12.4564  12.4597  12.6856  12.6931
    12.7076  12.7847  13.1938  13.2443  13.5297  13.5992  13.6044  13.6992
    14.4835  14.7498  14.7511  15.1682  15.9398  16.9784  16.9794  17.0301
    17.0679  17.6808  17.8346  17.8367  17.8423

          k = 0.3333 0.0000-0.5000 ( 62288 PWs)   bands (ev):

   -66.1530 -66.1530 -66.1526 -66.1526 -66.1525 -66.1525 -66.1521 -66.1521
   -30.5672 -30.5672 -30.5643 -30.5643 -30.5411 -30.5411 -30.5384 -30.5384
   -30.5381 -30.5381 -30.5354 -30.5354 -30.5106 -30.5106 -30.5081 -30.5080
   -30.4537 -30.4536 -30.4509 -30.4508 -30.3954 -30.3953 -30.3930 -30.3929
   -20.2985 -20.2985 -20.2984 -20.2984 -20.2984 -20.2984 -20.2983 -20.2983
   -20.2736 -20.2736 -20.2730 -20.2730 -20.2727 -20.2727 -20.2724 -20.2724
   -20.2722 -20.2722 -20.2720 -20.2720 -20.2717 -20.2716 -20.2711 -20.2711
   -20.2707 -20.2707 -20.2707 -20.2707 -20.2671 -20.2671 -20.2668 -20.2668
   -20.2640 -20.2640 -20.2640 -20.2639 -20.2631 -20.2631 -20.2630 -20.2630
   -20.2604 -20.2604 -20.2603 -20.2603 -20.2593 -20.2593 -20.2593 -20.2593
   -20.2584 -20.2584 -20.2584 -20.2584 -20.2566 -20.2565 -20.2565 -20.2565
    -9.5398  -9.5398  -9.3416  -9.3416  -9.1369  -9.1369  -8.8595  -8.8595
    -8.8309  -8.8309  -8.7584  -8.7584  -8.6458  -8.6458  -8.6257  -8.6257
    -8.2887  -8.2886  -8.2858  -8.2858  -7.5702  -7.5702  -7.5417  -7.5417
     1.6134   1.6134   1.6728   1.6728   1.9516   1.9516   2.0314   2.0314
     2.9032   2.9032   2.9561   2.9561   2.9777   2.9777   3.0564   3.0564
     3.0570   3.0570   3.3623   3.3623   3.4345   3.4345   3.6852   3.6852
     3.6879   3.6879   3.8920   3.8920   4.0776   4.0776   4.1140   4.1141
     4.4213   4.4214   4.6933   4.6933   4.8232   4.8232   4.8578   4.8579
[...]
   -20.7720 -20.7719 -20.7718 -20.7718 -20.7698 -20.7698 -20.7693 -20.7693
   -20.7676 -20.7676 -20.7675 -20.7675 -20.7667 -20.7667 -20.7665 -20.7665
   -20.7663 -20.7663 -20.7662 -20.7662 -20.7635 -20.7635 -20.7633 -20.7633
   -20.7629 -20.7629 -20.7627 -20.7627 -20.7600 -20.7600 -20.7597 -20.7597
    -9.8598  -9.8598  -9.7034  -9.7033  -9.3854  -9.3854  -9.1717  -9.1717
    -8.9844  -8.9843  -8.9275  -8.9274  -8.8819  -8.8819  -8.8552  -8.8551
    -8.5254  -8.5254  -8.5007  -8.5007  -8.1811  -8.1811  -8.1637  -8.1637
     1.0857   1.0857   1.0964   1.0964   1.8911   1.8911   1.9812   1.9812
     2.6339   2.6339   2.7749   2.7749   2.7950   2.7951   2.8797   2.8797
     2.9000   2.9000   3.0700   3.0701   3.0985   3.0986   3.3948   3.3948
     3.5339   3.5339   3.5766   3.5766   3.7625   3.7625   3.9719   3.9719
     4.2755   4.2755   4.4127   4.4128   4.4918   4.4919   4.5721   4.5721
     4.6509   4.6509   5.0864   5.0864   5.4659   5.4659   5.5766   5.5766
     6.2904   6.2904   6.3585   6.3585   6.4507   6.4507   6.4880   6.4881
     6.6899   6.6899   6.7394   6.7394   6.8616   6.8616   7.1798   7.1799
     7.2191   7.2191   7.2471   7.2471   7.2994   7.2994   7.5522   7.5522
    10.1309  10.1309  10.7656  10.7656  10.7854  10.7854  11.2596  11.2596
    11.3043  11.3043  11.5703  11.5703  12.1499  12.1499  12.1894  12.1894
    12.4541  12.4541  12.5240  12.5240  12.6037  12.6037  13.1373  13.1373
    15.0046  15.0046  15.5006  15.5006  15.9621  15.9621  16.3042  16.3042
    16.6731  16.6731  16.9001  16.9001  17.4547

          k = 0.3268 0.4798 0.1634 ( 63830 PWs)   bands (ev):

   -66.6288 -66.6287 -66.6284 -66.6284 -66.6281 -66.6281 -66.6278 -66.6278
   -30.9558 -30.9558 -30.9542 -30.9541 -30.9500 -30.9498 -30.9491 -30.9490
   -30.9473 -30.9473 -30.9457 -30.9457 -30.9373 -30.9372 -30.9340 -30.9339
   -30.8952 -30.8952 -30.8916 -30.8915 -30.8784 -30.8784 -30.8763 -30.8763
   -20.8012 -20.8012 -20.8012 -20.8012 -20.8011 -20.8011 -20.8011 -20.8011
   -20.7736 -20.7736 -20.7734 -20.7734 -20.7728 -20.7728 -20.7725 -20.7725
   -20.7725 -20.7725 -20.7723 -20.7723 -20.7719 -20.7719 -20.7718 -20.7717
   -20.7716 -20.7715 -20.7714 -20.7713 -20.7710 -20.7709 -20.7708 -20.7707
   -20.7679 -20.7678 -20.7673 -20.7673 -20.7670 -20.7670 -20.7664 -20.7664
   -20.7662 -20.7662 -20.7661 -20.7661 -20.7652 -20.7651 -20.7645 -20.7645
   -20.7616 -20.7616 -20.7610 -20.7609 -20.7600 -20.7600 -20.7597 -20.7596
    -9.8758  -9.8758  -9.6961  -9.6960  -9.4230  -9.4229  -9.2160  -9.2160
    -8.9689  -8.9687  -8.8961  -8.8958  -8.8594  -8.8591  -8.8534  -8.8534
    -8.5147  -8.5145  -8.4789  -8.4787  -8.1883  -8.1882  -8.1566  -8.1565
     1.0837   1.0842   1.0913   1.0918   1.8205   1.8209   1.9269   1.9276
     2.6147   2.6150   2.8233   2.8237   2.8653   2.8697   2.8828   2.8832
     2.9328   2.9344   3.0816   3.0854   3.0952   3.1225   3.2857   3.2926
     3.3521   3.3593   3.5240   3.5558   3.9446   3.9563   4.0894   4.1065
     4.2122   4.2596   4.4096   4.4293   4.4600   4.5213   4.5686   4.5769
     4.6684   4.6985   4.9962   5.0329   5.4209   5.4299   5.7110   5.7188
     6.2676   6.2700   6.3171   6.3273   6.4457   6.4464   6.6164   6.6201
     6.6919   6.7136   6.7932   6.8037   6.8944   6.8983   7.1292   7.1405
     7.1607   7.1666   7.1818   7.1847   7.2262   7.2386   7.5874   7.5916
     9.9756   9.9770  10.8205  10.8278  10.8404  10.8463  11.1697  11.1763
    11.1976  11.2077  11.5003  11.5289  12.1554  12.1983  12.2937  12.3006
    12.3211  12.3247  12.7163  12.7841  12.8005  12.8090  12.8991  12.9680
    15.1363  15.1414  15.4522  15.4588  15.9143  15.9212  16.4106  16.4276
    16.6212  16.6238  16.9362  16.9634  17.4446

          k =-0.4902 0.4798 0.1634 ( 63816 PWs)   bands (ev):

   -66.6286 -66.6286 -66.6286 -66.6286 -66.6280 -66.6280 -66.6279 -66.6279
   -30.9549 -30.9549 -30.9548 -30.9548 -30.9485 -30.9485 -30.9483 -30.9483
   -30.9472 -30.9472 -30.9469 -30.9469 -30.9169 -30.9169 -30.9165 -30.9165
   -30.9132 -30.9132 -30.9129 -30.9129 -30.8774 -30.8774 -30.8773 -30.8773
   -20.8012 -20.8012 -20.8012 -20.8012 -20.8011 -20.8011 -20.8011 -20.8011
   -20.7735 -20.7735 -20.7735 -20.7735 -20.7726 -20.7726 -20.7726 -20.7726
   -20.7722 -20.7722 -20.7722 -20.7722 -20.7720 -20.7720 -20.7720 -20.7720
   -20.7715 -20.7715 -20.7714 -20.7714 -20.7709 -20.7709 -20.7708 -20.7708
   -20.7676 -20.7676 -20.7675 -20.7675 -20.7666 -20.7666 -20.7666 -20.7666
   -20.7663 -20.7663 -20.7662 -20.7662 -20.7634 -20.7634 -20.7634 -20.7634
   -20.7628 -20.7628 -20.7628 -20.7628 -20.7598 -20.7598 -20.7598 -20.7598
    -9.7629  -9.7629  -9.7619  -9.7619  -9.1223  -9.1223  -9.1173  -9.1172
    -8.9933  -8.9933  -8.9888  -8.9888  -8.8027  -8.8027  -8.7952  -8.7951
    -8.7683  -8.7683  -8.7610  -8.7609  -8.1727  -8.1727  -8.1726  -8.1726
     1.0951   1.0951   1.0963   1.0963   2.6682   2.6682   2.7103   2.7103
     2.7564   2.7565   2.7746   2.7747   2.8808   2.8808   2.9004   2.9005
     2.9378   2.9378   3.0088   3.0088   3.0952   3.0952   3.1196   3.1197
     3.1732   3.1732   3.2628   3.2628   3.8326   3.8326   3.8649   3.8649
     3.9041   3.9041   3.9390   3.9391   4.3982   4.3983   4.4554   4.4555
     4.7757   4.7758   4.8344   4.8344   5.4849   5.4849   5.4950   5.4950
     6.3685   6.3685   6.4064   6.4064   6.4362   6.4362   6.4693   6.4693
     6.9908   6.9908   7.0008   7.0008   7.0335   7.0336   7.0740   7.0740
     7.0948   7.0948   7.1446   7.1447   7.3399   7.3399   7.3592   7.3592
    10.7080  10.7080  10.7382  10.7382  10.8649  10.8649  10.9060  10.9060
    11.6794  11.6794  11.7144  11.7144  11.7210  11.7210  11.7502  11.7502
    12.4596  12.4597  12.5177  12.5177  12.7951  12.7951  12.8440  12.8440
    15.3441  15.3441  15.3515  15.3515  16.4459  16.4459  16.4634  16.4634
    17.2637  17.2638  17.3060  17.3063  17.3677

          k =-0.4902 0.0000 0.3267 ( 63776 PWs)   bands (ev):

   -66.6287 -66.6287 -66.6283 -66.6283 -66.6282 -66.6282 -66.6278 -66.6278
   -30.9847 -30.9847 -30.9826 -30.9826 -30.9398 -30.9398 -30.9351 -30.9351
   -30.9206 -30.9206 -30.9196 -30.9196 -30.9151 -30.9151 -30.9140 -30.9140
   -30.9086 -30.9086 -30.9085 -30.9085 -30.8942 -30.8942 -30.8916 -30.8916
   -20.8012 -20.8012 -20.8012 -20.8012 -20.8011 -20.8011 -20.8011 -20.8011
   -20.7748 -20.7748 -20.7746 -20.7746 -20.7735 -20.7735 -20.7730 -20.7730
   -20.7729 -20.7728 -20.7726 -20.7726 -20.7726 -20.7726 -20.7722 -20.7722
   -20.7717 -20.7717 -20.7716 -20.7716 -20.7682 -20.7682 -20.7678 -20.7678
   -20.7673 -20.7673 -20.7672 -20.7672 -20.7668 -20.7668 -20.7666 -20.7666
   -20.7652 -20.7651 -20.7648 -20.7648 -20.7634 -20.7634 -20.7632 -20.7632
   -20.7630 -20.7630 -20.7627 -20.7627 -20.7615 -20.7615 -20.7609 -20.7609
    -9.8874  -9.8874  -9.7107  -9.7107  -9.4254  -9.4254  -9.2005  -9.2005
    -8.9787  -8.9786  -8.9131  -8.9131  -8.8840  -8.8840  -8.8735  -8.8734
    -8.5065  -8.5065  -8.4889  -8.4889  -8.1194  -8.1194  -8.0971  -8.0971
     0.9287   0.9287   0.9506   0.9506   1.8344   1.8344   1.8883   1.8883
     2.5621   2.5621   2.7204   2.7205   2.7433   2.7434   2.8353   2.8354
     2.8906   2.8907   3.2254   3.2254   3.2962   3.2962   3.3423   3.3423
     3.4478   3.4478   3.5693   3.5693   3.7335   3.7335   3.9902   3.9903
     4.3239   4.3239   4.5575   4.5575   4.5983   4.5983   4.6180   4.6180
     4.8787   4.8788   5.2482   5.2482   5.7109   5.7109   5.7540   5.7540
     6.0495   6.0495   6.0724   6.0724   6.2132   6.2132   6.2353   6.2353
     6.7290   6.7290   6.8720   6.8720   6.9442   6.9442   7.2286   7.2286
     7.2305   7.2306   7.2847   7.2847   7.3539   7.3539   7.6452   7.6452
    10.1018  10.1018  10.9191  10.9191  10.9253  10.9253  11.0883  11.0883
    11.1272  11.1272  11.7321  11.7321  12.0843  12.0843  12.1202  12.1202
    12.3975  12.3975  12.7405  12.7406  12.7608  12.7608  13.1841  13.1841
    14.4495  14.4495  14.8355  14.8355  15.8642  15.8643  16.4899  16.4899
    16.8036  16.8036  16.9396  16.9397  17.5637

          k =-0.4902-0.1599 0.3267 ( 63798 PWs)   bands (ev):

   -66.6287 -66.6287 -66.6283 -66.6283 -66.6282 -66.6282 -66.6279 -66.6279
   -30.9801 -30.9801 -30.9780 -30.9780 -30.9397 -30.9397 -30.9353 -30.9353
   -30.9220 -30.9220 -30.9216 -30.9216 -30.9153 -30.9153 -30.9150 -30.9150
   -30.9111 -30.9111 -30.9107 -30.9107 -30.8942 -30.8942 -30.8918 -30.8918
   -20.8012 -20.8012 -20.8012 -20.8012 -20.8011 -20.8011 -20.8011 -20.8011
   -20.7744 -20.7744 -20.7742 -20.7742 -20.7734 -20.7734 -20.7730 -20.7730
   -20.7728 -20.7728 -20.7726 -20.7726 -20.7725 -20.7725 -20.7723 -20.7723
   -20.7718 -20.7718 -20.7717 -20.7716 -20.7686 -20.7686 -20.7682 -20.7682
   -20.7674 -20.7674 -20.7672 -20.7672 -20.7668 -20.7668 -20.7666 -20.7666
   -20.7651 -20.7651 -20.7648 -20.7648 -20.7634 -20.7634 -20.7632 -20.7632
   -20.7630 -20.7630 -20.7627 -20.7627 -20.7614 -20.7614 -20.7609 -20.7609
    -9.8282  -9.8281  -9.6337  -9.6337  -9.4353  -9.4353  -9.1768  -9.1768
    -8.9883  -8.9882  -8.9074  -8.9074  -8.8810  -8.8809  -8.8746  -8.8745
    -8.5043  -8.5043  -8.4944  -8.4944  -8.2340  -8.2340  -8.2117  -8.2117
     1.1825   1.1825   1.2081   1.2081   1.8345   1.8345   1.8947   1.8947
     2.6348   2.6348   2.7374   2.7374   2.7722   2.7722   2.8394   2.8395
     2.8905   2.8906   3.2597   3.2597   3.3241   3.3241   3.3674   3.3675
     3.4540   3.4540   3.6219   3.6219   3.7068   3.7068   4.0014   4.0014
     4.1817   4.1818   4.3311   4.3312   4.5332   4.5332   4.5881   4.5882
     4.6217   4.6217   4.9732   4.9732   5.3854   5.3854   5.5350   5.5350
     6.2129   6.2129   6.2554   6.2555   6.3297   6.3297   6.4596   6.4596
     6.7383   6.7383   6.8662   6.8662   6.9558   6.9558   7.2145   7.2146
     7.2270   7.2271   7.2767   7.2767   7.3351   7.3352   7.5995   7.5995
    10.2293  10.2293  10.9673  10.9673  10.9965  10.9965  11.1076  11.1076
    11.1540  11.1540  11.7811  11.7811  12.0850  12.0850  12.1176  12.1176
    12.2348  12.2348  12.5939  12.5939  12.6109  12.6109  13.0515  13.0515
    14.8452  14.8452  15.2511  15.2511  15.9459  15.9460  16.4865  16.4865
    16.8181  16.8181  16.9734  16.9735  17.3837

          k =-0.4902-0.3198 0.3267 ( 63786 PWs)   bands (ev):

   -66.6286 -66.6286 -66.6283 -66.6283 -66.6282 -66.6282 -66.6280 -66.6280
   -30.9674 -30.9674 -30.9652 -30.9652 -30.9402 -30.9402 -30.9359 -30.9359
   -30.9312 -30.9312 -30.9306 -30.9306 -30.9164 -30.9164 -30.9152 -30.9152
   -30.9139 -30.9139 -30.9128 -30.9128 -30.8939 -30.8939 -30.8924 -30.8924
   -20.8012 -20.8012 -20.8012 -20.8012 -20.8012 -20.8011 -20.8011 -20.8011
   -20.7736 -20.7736 -20.7733 -20.7733 -20.7731 -20.7731 -20.7729 -20.7729
   -20.7725 -20.7725 -20.7724 -20.7724 -20.7723 -20.7723 -20.7723 -20.7723
   -20.7719 -20.7719 -20.7718 -20.7718 -20.7698 -20.7698 -20.7694 -20.7694
   -20.7673 -20.7673 -20.7672 -20.7672 -20.7668 -20.7668 -20.7667 -20.7667
   -20.7651 -20.7651 -20.7649 -20.7649 -20.7634 -20.7634 -20.7632 -20.7632
   -20.7630 -20.7630 -20.7628 -20.7628 -20.7613 -20.7613 -20.7611 -20.7611
    -9.6843  -9.6843  -9.4698  -9.4698  -9.4233  -9.4233  -9.0892  -9.0892
    -9.0289  -9.0288  -8.8998  -8.8997  -8.8678  -8.8677  -8.8639  -8.8638
    -8.5539  -8.5539  -8.5129  -8.5129  -8.4975  -8.4975  -8.4415  -8.4415
     1.7352   1.7352   1.8339   1.8339   1.8952   1.8952   2.0423   2.0423
     2.7696   2.7697   2.7942   2.7943   2.8171   2.8171   2.8707   2.8708
     2.9347   2.9347   3.3034   3.3034   3.3418   3.3418   3.4513   3.4513
     3.5314   3.5314   3.5944   3.5944   3.7510   3.7510   3.7777   3.7777
     3.8968   3.8968   4.0698   4.0698   4.1237   4.1237   4.4185   4.4185
     4.4819   4.4819   4.5773   4.5773   4.5970   4.5970   4.9485   4.9485
     6.5581   6.5581   6.6085   6.6085   6.6708   6.6708   6.7038   6.7038
     6.7688   6.7688   6.8526   6.8526   7.0078   7.0079   7.1529   7.1530
     7.1914   7.1915   7.2662   7.2662   7.2822   7.2823   7.4641   7.4641
    10.5961  10.5961  11.0296  11.0296  11.0742  11.0742  11.2830  11.2830
    11.3424  11.3424  11.7709  11.7709  11.9276  11.9276  12.0564  12.0564
    12.1473  12.1473  12.2347  12.2347  12.2558  12.2558  12.7251  12.7252
    15.7243  15.7243  16.1956  16.1956  16.2554  16.2554  16.4509  16.4509
    16.8936  16.8937  16.9976  16.9977  17.1124

          k =-0.4902 0.4798 0.3267 ( 63808 PWs)   bands (ev):

   -66.6285 -66.6285 -66.6284 -66.6284 -66.6281 -66.6281 -66.6281 -66.6281
   -30.9507 -30.9507 -30.9505 -30.9505 -30.9481 -30.9481 -30.9477 -30.9477
   -30.9362 -30.9362 -30.9361 -30.9361 -30.9161 -30.9161 -30.9157 -30.9157
   -30.9140 -30.9140 -30.9137 -30.9137 -30.8932 -30.8932 -30.8932 -30.8932
   -20.8012 -20.8012 -20.8012 -20.8012 -20.8011 -20.8011 -20.8011 -20.8011
   -20.7733 -20.7733 -20.7733 -20.7733 -20.7728 -20.7728 -20.7727 -20.7727
   -20.7722 -20.7722 -20.7722 -20.7721 -20.7721 -20.7721 -20.7720 -20.7720
   -20.7714 -20.7714 -20.7714 -20.7713 -20.7710 -20.7710 -20.7710 -20.7710
   -20.7673 -20.7673 -20.7673 -20.7673 -20.7668 -20.7668 -20.7668 -20.7667
   -20.7650 -20.7650 -20.7650 -20.7650 -20.7633 -20.7633 -20.7633 -20.7633
   -20.7629 -20.7629 -20.7629 -20.7629 -20.7612 -20.7612 -20.7612 -20.7612
    -9.5477  -9.5476  -9.5460  -9.5460  -9.1700  -9.1699  -9.1652  -9.1652
    -8.9434  -8.9434  -8.9392  -8.9391  -8.7969  -8.7969  -8.7898  -8.7897
    -8.7735  -8.7734  -8.7671  -8.7670  -8.4866  -8.4866  -8.4862  -8.4862
     1.8266   1.8266   1.8291   1.8291   2.6746   2.6747   2.6996   2.6997
     2.7420   2.7420   2.7569   2.7569   2.9013   2.9013   2.9407   2.9407
     2.9895   2.9895   3.0089   3.0089   3.2803   3.2803   3.3080   3.3080
     3.3799   3.3799   3.4219   3.4219   3.8070   3.8070   3.8213   3.8213
     3.8730   3.8731   3.9077   3.9077   3.9703   3.9703   4.0023   4.0024
     4.2642   4.2642   4.3251   4.3251   4.6345   4.6345   4.6427   4.6427
     6.6911   6.6911   6.7242   6.7242   6.7821   6.7821   6.7863   6.7863
     6.9633   6.9633   7.0010   7.0010   7.0116   7.0117   7.0605   7.0605
     7.1338   7.1338   7.1768   7.1768   7.3070   7.3070   7.3269   7.3270
    10.9835  10.9835  11.0226  11.0226  11.1850  11.1850  11.2453  11.2453
    11.6726  11.6726  11.7100  11.7100  11.7194  11.7194  11.7526  11.7526
    12.0448  12.0448  12.1497  12.1497  12.3221  12.3221  12.3995  12.3995
    16.2620  16.2620  16.2899  16.2899  16.6561  16.6562  16.6644  16.6644
    17.1331  17.1331  17.2249  17.2250  17.3557

     the Fermi energy is     8.5190 ev

!    total energy              =   -6261.09206101 Ry
     Harris-Foulkes estimate   =   -6261.09206101 Ry
     estimated scf accuracy    <          6.0E-11 Ry

     The total energy is the sum of the following terms:

     one-electron contribution =   -4828.81171029 Ry
     hartree contribution      =    2645.43522662 Ry
     xc contribution           =    -965.67601925 Ry
     ewald contribution        =   -3112.03955810 Ry
     smearing contrib. (-TS)   =      -0.00000000 Ry

     convergence has been achieved in  15 iterations

     Forces acting on atoms (cartesian axes, Ry/au):

     atom    1 type  1   force =    -0.00389903    0.01931560    0.00339182
     atom    2 type  1   force =     0.00389903   -0.01931560   -0.00339182
     atom    3 type  1   force =     0.00389903   -0.01931560    0.00339182
     atom    4 type  1   force =    -0.00389903    0.01931560   -0.00339182
     atom    5 type  1   force =     0.00389903    0.01931560   -0.00339182
     atom    6 type  1   force =    -0.00389903   -0.01931560    0.00339182
     atom    7 type  1   force =    -0.00389903   -0.01931560   -0.00339182
     atom    8 type  1   force =     0.00389903    0.01931560    0.00339182
     atom    9 type  2   force =    -0.00004256   -0.01044439   -0.00031437
     atom   10 type  2   force =     0.00004256    0.01044439    0.00031437
     atom   11 type  2   force =     0.00004256    0.01044439   -0.00031437
     atom   12 type  2   force =    -0.00004256   -0.01044439    0.00031437
     atom   13 type  2   force =     0.00004256   -0.01044439    0.00031437
     atom   14 type  2   force =    -0.00004256    0.01044439   -0.00031437
     atom   15 type  2   force =    -0.00004256    0.01044439    0.00031437
     atom   16 type  2   force =     0.00004256   -0.01044439   -0.00031437
     atom   17 type  2   force =    -0.00221723   -0.00037613   -0.00133242
     atom   18 type  2   force =     0.00221723    0.00037613    0.00133242
     atom   19 type  2   force =     0.00221723    0.00037613   -0.00133242
     atom   20 type  2   force =    -0.00221723   -0.00037613    0.00133242
     atom   21 type  2   force =     0.00221723   -0.00037613    0.00133242
     atom   22 type  2   force =    -0.00221723    0.00037613   -0.00133242
     atom   23 type  2   force =    -0.00221723    0.00037613    0.00133242
     atom   24 type  2   force =     0.00221723   -0.00037613   -0.00133242
     atom   25 type  2   force =    -0.00150023    0.00067957    0.00271772
     atom   26 type  2   force =     0.00150023   -0.00067957   -0.00271772
     atom   27 type  2   force =     0.00150023   -0.00067957    0.00271772
     atom   28 type  2   force =    -0.00150023    0.00067957   -0.00271772
     atom   29 type  2   force =     0.00150023    0.00067957   -0.00271772
     atom   30 type  2   force =    -0.00150023   -0.00067957    0.00271772
     atom   31 type  2   force =    -0.00150023   -0.00067957   -0.00271772
     atom   32 type  2   force =     0.00150023    0.00067957    0.00271772

     Total force =     0.000000     Total SCF correction =     0.000000


     Computing stress (Cartesian axis) and pressure

          total   stress  (Ry/bohr**3)                   (kbar)     P=    1.31
   0.00001264   0.00000000   0.00000000          1.86      0.00      0.00
   0.00000000   0.00000128   0.00000000          0.00      0.19      0.00
   0.00000000   0.00000000   0.00001273          0.00      0.00      1.87


     Writing output data file Landau_27.save
 
     init_run     :     74.35s CPU     77.76s WALL (       2 calls)
     electrons    :   9969.34s CPU  10254.20s WALL (       7 calls)
     update_pot   :    108.26s CPU    108.73s WALL (       5 calls)
     forces       :    160.29s CPU    163.95s WALL (       7 calls)
     stress       :   1582.29s CPU   1608.61s WALL (       7 calls)

     Called by init_run:
     wfcinit      :     55.73s CPU     58.81s WALL (       2 calls)
     potinit      :      7.76s CPU      7.85s WALL (       2 calls)

     Called by electrons:
     c_bands      :   8221.14s CPU   8488.73s WALL (      97 calls)
     sum_band     :   1483.98s CPU   1494.30s WALL (      97 calls)
     v_of_rho     :      9.72s CPU      9.98s WALL (     102 calls)
     mix_rho      :     21.39s CPU     25.81s WALL (      97 calls)

     Called by c_bands:
     init_us_2    :     90.54s CPU     96.87s WALL (     420 calls)
     cegterg      :   6892.45s CPU   7144.43s WALL (     194 calls)

     Called by sum_band:

     Called by *egterg:
     h_psi        :   5418.19s CPU   5455.09s WALL (     811 calls)
     g_psi        :     13.24s CPU     13.35s WALL (     613 calls)
     cdiaghg      :     96.22s CPU     96.70s WALL (     793 calls)

     Called by h_psi:
     h_psi:pot    :   5376.34s CPU   5411.76s WALL (     811 calls)
     h_psi:calbec :    529.18s CPU    544.84s WALL (     811 calls)
     vloc_psi     :   4263.30s CPU   4279.52s WALL (     811 calls)
     add_vuspsi   :    583.84s CPU    587.40s WALL (     811 calls)

     General routines
     calbec       :    603.64s CPU    619.78s WALL (     881 calls)
     fft          :      7.58s CPU      7.61s WALL (     466 calls)
     fftw         :   4290.42s CPU   4303.98s WALL (  252750 calls)
 
     Parallel routines
 
     PWSCF        :     3h18m CPU        3h23m WALL

 
   This run was terminated on:  23:22:29  19Mar2020            

=------------------------------------------------------------------------------=
   JOB DONE.
=------------------------------------------------------------------------------=
