
     Program PWSCF v.6.2 (svn rev. 14038) starts on 17Sep2019 at 11:58:38 

     This program is part of the open-source Quantum ESPRESSO suite
     for quantum simulation of materials; please cite
         "P. Giannozzi et al., J. Phys.:Condens. Matter 21 395502 (2009);
         "P. Giannozzi et al., J. Phys.:Condens. Matter 29 465901 (2017);
          URL http://www.quantum-espresso.org", 
     in publications or presentations arising from this work. More details at
     http://www.quantum-espresso.org/quote

     Parallel version (MPI), running on    40 processors

     MPI processes distributed on     2 nodes
     K-points division:     npool     =      40
     Reading input from scf.in

     Current dimensions of program PWSCF are:
     Max number of different atomic species (ntypx) = 10
     Max number of k-points (npk) =  40000
     Max angular momentum in pseudopotentials (lmaxx) =  3

     Subspace diagonalization in iterative solution of the eigenvalue problem:
     a serial algorithm will be used

 
     G-vector sticks info
     --------------------
     sticks:   dense  smooth     PW     G-vecs:    dense   smooth      PW
     Sum        7629    7629   2037               491773   491773   68203
 


     bravais-lattice index     =            0
     lattice parameter (alat)  =      13.8724  a.u.
     unit-cell volume          =    2769.0512 (a.u.)^3
     number of atoms/cell      =           32
     number of atomic types    =            2
     number of electrons       =       368.36
     number of Kohn-Sham states=          221
     kinetic-energy cutoff     =     120.0000  Ry
     charge density cutoff     =     480.0000  Ry
     convergence threshold     =      1.0E-08
     mixing beta               =       0.7000
     number of iterations used =            8  plain     mixing
     Exchange-correlation      = SLA PW NOGX NOGC ( 1  4  0  0 0 0)

     celldm(1)=  13.872423  celldm(2)=   0.000000  celldm(3)=   0.000000
     celldm(4)=   0.000000  celldm(5)=   0.000000  celldm(6)=   0.000000

     crystal axes: (cart. coord. in units of alat)
               a(1) = (   1.000000   0.000000   0.000000 )  
               a(2) = (   0.000000   1.037228   0.000000 )  
               a(3) = (   0.000000   0.000000   1.000000 )  

     reciprocal axes: (cart. coord. in units 2 pi/alat)
               b(1) = (  1.000000  0.000000  0.000000 )  
               b(2) = (  0.000000  0.964109  0.000000 )  
               b(3) = (  0.000000  0.000000  1.000000 )  


     PseudoPot. # 1 for W  read from file:
     /cluster/scratch/mnoe/QE/pps/W_ONCV_LDA-4.0.upf
     MD5 check sum: ba0307d5d4cd419d6f1d13dc49d7c13a
     Pseudo is Norm-conserving + core correction, Zval = 28.0
     Generated using ONCVPSP code by D. R. Hamann
     Using radial grid of 1380 points,  8 beta functions with: 
                l(1) =   0
                l(2) =   0
                l(3) =   1
                l(4) =   1
                l(5) =   2
                l(6) =   2
                l(7) =   3
                l(8) =   3

     PseudoPot. # 2 for O  read from file:
     /cluster/scratch/mnoe/QE/pps/O_ONCV_LDA-3.0.upf
     MD5 check sum: ca1549d10c4e927e51167f6fca52ae32
     Pseudo is Norm-conserving + core correction, Zval =  6.0
     Generated using ONCVPSP code by D. R. Hamann
     Using radial grid of  926 points,  5 beta functions with: 
                l(1) =   0
                l(2) =   0
                l(3) =   1
                l(4) =   1
                l(5) =   2

     atomic species   valence    mass     pseudopotential
        W             28.00   183.84000     W ( 1.00)
        O              6.00    15.99940     O ( 1.00)

      8 Sym. Ops. (no inversion) found ( 4 have fractional translation)



   Cartesian axes

     site n.     atom                  positions (alat units)
         1           W   tau(   1) = (   0.2742800   0.2923530   0.2507000  )
         2           W   tau(   2) = (  -0.2507000   0.7448746  -0.7257200  )
         3           W   tau(   3) = (   0.2257200   0.2262608   0.7507000  )
         4           W   tau(   4) = (   0.7507000   0.8109667   0.7742800  )
         5           W   tau(   5) = (   0.7257200   0.2923530   0.7493000  )
         6           W   tau(   6) = (   0.2507000   0.7448746   0.7257200  )
         7           W   tau(   7) = (  -0.2257200   0.2262608  -0.7507000  )
         8           W   tau(   8) = (   0.2493000   0.8109667   0.2257200  )
         9           O   tau(   9) = (   0.2767000   0.0086297   0.2693600  )
        10           O   tau(  10) = (  -0.2693600   1.0285979  -0.7233000  )
        11           O   tau(  11) = (   0.2233001   0.5099841   0.7693600  )
        12           O   tau(  12) = (   0.7693600   0.5272435   0.7767000  )
        13           O   tau(  13) = (   0.7233000   0.0086297   0.7306400  )
        14           O   tau(  14) = (   0.2693600   1.0285979   0.7233000  )
        15           O   tau(  15) = (  -0.2233000   0.5099841  -0.7693600  )
        16           O   tau(  16) = (   0.2306400   0.5272435   0.2233000  )
        17           O   tau(  17) = (   0.4914100   0.2891687   0.6995400  )
        18           O   tau(  18) = (   0.4982300   0.7587630   0.8004600  )
        19           O   tau(  19) = (  -0.9914100   0.2294451   1.1995400  )
        20           O   tau(  20) = (   0.0017700   0.7970783   0.3004600  )
        21           O   tau(  21) = (   0.5085900   0.2891687   0.3004600  )
        22           O   tau(  22) = (   0.5017700   0.7587630   1.1995400  )
        23           O   tau(  23) = (  -0.0085900   0.2294451   0.8004600  )
        24           O   tau(  24) = (  -1.0017700   0.7970783   0.6995400  )
        25           O   tau(  25) = (   0.6995400   0.2401493   2.0017700  )
        26           O   tau(  26) = (   0.3004600   0.7480589   0.4914100  )
        27           O   tau(  27) = (   0.8004600   0.2784645   0.5017700  )
        28           O   tau(  28) = (   0.1995400   0.8077825   1.9914100  )
        29           O   tau(  29) = (   0.3004600   0.2401493   0.9982300  )
        30           O   tau(  30) = (   0.6995400   0.7480589   0.5085900  )
        31           O   tau(  31) = (   0.1995400   0.2784645   0.4982300  )
        32           O   tau(  32) = (   0.8004600   0.8077825   1.0085900  )

     number of k points=    40  gaussian smearing, width (Ry)=  0.0007
                       cart. coord. in units 2pi/alat
        k(    1) = (   0.0000000   0.0000000   0.0000000), wk =   0.0092593
        k(    2) = (   0.0000000   0.0000000   0.1666667), wk =   0.0370370
        k(    3) = (   0.0000000   0.0000000   0.3333333), wk =   0.0370370
        k(    4) = (   0.0000000   0.0000000  -0.5000000), wk =   0.0185185
        k(    5) = (   0.0000000   0.1606848   0.0000000), wk =   0.0185185
        k(    6) = (   0.0000000   0.1606848   0.1666667), wk =   0.0740741
        k(    7) = (   0.0000000   0.1606848   0.3333333), wk =   0.0740741
        k(    8) = (   0.0000000   0.1606848  -0.5000000), wk =   0.0370370
        k(    9) = (   0.0000000   0.3213695   0.0000000), wk =   0.0185185
        k(   10) = (   0.0000000   0.3213695   0.1666667), wk =   0.0740741
        k(   11) = (   0.0000000   0.3213695   0.3333333), wk =   0.0740741
        k(   12) = (   0.0000000   0.3213695  -0.5000000), wk =   0.0370370
        k(   13) = (   0.0000000  -0.4820543   0.0000000), wk =   0.0092593
        k(   14) = (   0.0000000  -0.4820543   0.1666667), wk =   0.0370370
        k(   15) = (   0.0000000  -0.4820543   0.3333333), wk =   0.0370370
        k(   16) = (   0.0000000  -0.4820543  -0.5000000), wk =   0.0185185
        k(   17) = (   0.1666667   0.0000000   0.1666667), wk =   0.0370370
        k(   18) = (   0.1666667   0.0000000   0.3333333), wk =   0.0740741
        k(   19) = (   0.1666667   0.0000000  -0.5000000), wk =   0.0370370
        k(   20) = (   0.1666667   0.1606848   0.1666667), wk =   0.0740741
        k(   21) = (   0.1666667   0.1606848   0.3333333), wk =   0.1481481
        k(   22) = (   0.1666667   0.1606848  -0.5000000), wk =   0.0740741
        k(   23) = (   0.1666667   0.3213695   0.1666667), wk =   0.0740741
        k(   24) = (   0.1666667   0.3213695   0.3333333), wk =   0.1481481
        k(   25) = (   0.1666667   0.3213695  -0.5000000), wk =   0.0740741
        k(   26) = (   0.1666667  -0.4820543   0.1666667), wk =   0.0370370
        k(   27) = (   0.1666667  -0.4820543   0.3333333), wk =   0.0740741
        k(   28) = (   0.1666667  -0.4820543  -0.5000000), wk =   0.0370370
        k(   29) = (   0.3333333   0.0000000   0.3333333), wk =   0.0370370
        k(   30) = (   0.3333333   0.0000000  -0.5000000), wk =   0.0370370
        k(   31) = (   0.3333333   0.1606848   0.3333333), wk =   0.0740741
        k(   32) = (   0.3333333   0.1606848  -0.5000000), wk =   0.0740741
        k(   33) = (   0.3333333   0.3213695   0.3333333), wk =   0.0740741
        k(   34) = (   0.3333333   0.3213695  -0.5000000), wk =   0.0740741
        k(   35) = (   0.3333333  -0.4820543   0.3333333), wk =   0.0370370
        k(   36) = (   0.3333333  -0.4820543  -0.5000000), wk =   0.0370370
        k(   37) = (  -0.5000000   0.0000000  -0.5000000), wk =   0.0092593
        k(   38) = (  -0.5000000   0.1606848  -0.5000000), wk =   0.0185185
        k(   39) = (  -0.5000000   0.3213695  -0.5000000), wk =   0.0185185
        k(   40) = (  -0.5000000  -0.4820543  -0.5000000), wk =   0.0092593

     Dense  grid:   491773 G-vectors     FFT dimensions: ( 100, 108, 100)

     Estimated max dynamical RAM per process >       2.68 GB

     Estimated total dynamical RAM >     107.35 GB

     Initial potential from superposition of free atoms

     starting charge  367.99656, renormalised to  368.36000
     Starting wfc are  232 randomized atomic wfcs

     total cpu time spent up to now is       25.5 secs

     Self-consistent Calculation

     iteration #  1     ecut=   120.00 Ry     beta= 0.70
     Davidson diagonalization with overlap
     ethr =  1.00E-02,  avg # of iterations =  5.0

     total cpu time spent up to now is      111.1 secs

     total energy              =   -6253.68118112 Ry
     Harris-Foulkes estimate   =   -6264.32415761 Ry
     estimated scf accuracy    <      13.43915097 Ry

     iteration #  2     ecut=   120.00 Ry     beta= 0.70
     Davidson diagonalization with overlap
     ethr =  3.65E-03,  avg # of iterations =  3.5

     total cpu time spent up to now is      195.0 secs

     total energy              =   -6250.54752610 Ry
     Harris-Foulkes estimate   =   -6270.38394986 Ry
     estimated scf accuracy    <      53.06038084 Ry

     iteration #  3     ecut=   120.00 Ry     beta= 0.70
     Davidson diagonalization with overlap
     ethr =  3.65E-03,  avg # of iterations =  3.4

     total cpu time spent up to now is      276.4 secs

     total energy              =   -6260.80743351 Ry
     Harris-Foulkes estimate   =   -6261.08316674 Ry
     estimated scf accuracy    <       0.90219275 Ry

     iteration #  4     ecut=   120.00 Ry     beta= 0.70
     Davidson diagonalization with overlap
     ethr =  2.45E-04,  avg # of iterations =  2.5

     total cpu time spent up to now is      340.2 secs

     total energy              =   -6260.80841049 Ry
     Harris-Foulkes estimate   =   -6260.87821580 Ry
     estimated scf accuracy    <       0.22284041 Ry

     iteration #  5     ecut=   120.00 Ry     beta= 0.70
     Davidson diagonalization with overlap
     ethr =  6.05E-05,  avg # of iterations =  5.2

     total cpu time spent up to now is      411.3 secs

     total energy              =   -6260.80907085 Ry
     Harris-Foulkes estimate   =   -6260.84045615 Ry
     estimated scf accuracy    <       0.06901327 Ry

     iteration #  6     ecut=   120.00 Ry     beta= 0.70
     Davidson diagonalization with overlap
     ethr =  1.87E-05,  avg # of iterations =  5.5

     total cpu time spent up to now is      486.5 secs

     total energy              =   -6260.82426263 Ry
     Harris-Foulkes estimate   =   -6260.82656918 Ry
     estimated scf accuracy    <       0.00618178 Ry

     iteration #  7     ecut=   120.00 Ry     beta= 0.70
     Davidson diagonalization with overlap
     ethr =  1.68E-06,  avg # of iterations =  4.5

     total cpu time spent up to now is      555.7 secs

     total energy              =   -6260.82500935 Ry
     Harris-Foulkes estimate   =   -6260.82511522 Ry
     estimated scf accuracy    <       0.00020006 Ry

     iteration #  8     ecut=   120.00 Ry     beta= 0.70
     Davidson diagonalization with overlap
     ethr =  5.43E-08,  avg # of iterations =  3.0

     total cpu time spent up to now is      641.4 secs

     total energy              =   -6260.82508343 Ry
     Harris-Foulkes estimate   =   -6260.82509139 Ry
     estimated scf accuracy    <       0.00003238 Ry

     iteration #  9     ecut=   120.00 Ry     beta= 0.70
     Davidson diagonalization with overlap
     ethr =  8.79E-09,  avg # of iterations =  1.8

     total cpu time spent up to now is      704.6 secs

     total energy              =   -6260.82508081 Ry
     Harris-Foulkes estimate   =   -6260.82508555 Ry
     estimated scf accuracy    <       0.00001171 Ry

     iteration # 10     ecut=   120.00 Ry     beta= 0.70
     Davidson diagonalization with overlap
     ethr =  3.18E-09,  avg # of iterations =  2.5

     total cpu time spent up to now is      770.7 secs

     total energy              =   -6260.82508301 Ry
     Harris-Foulkes estimate   =   -6260.82508310 Ry
     estimated scf accuracy    <       0.00000023 Ry

     iteration # 11     ecut=   120.00 Ry     beta= 0.70
     Davidson diagonalization with overlap
     ethr =  6.22E-11,  avg # of iterations =  2.9

     total cpu time spent up to now is      851.6 secs

     total energy              =   -6260.82508307 Ry
     Harris-Foulkes estimate   =   -6260.82508311 Ry
     estimated scf accuracy    <       0.00000011 Ry

     iteration # 12     ecut=   120.00 Ry     beta= 0.70
     Davidson diagonalization with overlap
     ethr =  3.04E-11,  avg # of iterations =  2.0

     total cpu time spent up to now is      915.5 secs

     total energy              =   -6260.82508306 Ry
     Harris-Foulkes estimate   =   -6260.82508307 Ry
     estimated scf accuracy    <       0.00000002 Ry

     iteration # 13     ecut=   120.00 Ry     beta= 0.70
     Davidson diagonalization with overlap
     ethr =  6.76E-12,  avg # of iterations =  2.5

     total cpu time spent up to now is      994.6 secs

     End of self-consistent calculation

          k = 0.0000 0.0000 0.0000 ( 61431 PWs)   bands (ev):

   -65.8455 -65.8450 -65.8446 -65.8445 -65.8440 -65.8440 -65.8436 -65.8430
   -30.3116 -30.3013 -30.3013 -30.2999 -30.2614 -30.2511 -30.2511 -30.2247
   -30.2197 -30.1957 -30.1957 -30.1691 -30.1647 -30.1538 -30.1538 -30.1470
   -30.1452 -30.1410 -30.1322 -30.1322 -30.0561 -30.0560 -30.0512 -30.0497
   -19.9933 -19.9931 -19.9930 -19.9930 -19.9927 -19.9927 -19.9926 -19.9924
   -19.9829 -19.9825 -19.9825 -19.9818 -19.9817 -19.9810 -19.9810 -19.9806
   -19.9765 -19.9763 -19.9762 -19.9760 -19.9751 -19.9746 -19.9746 -19.9740
   -19.9732 -19.9723 -19.9723 -19.9710 -19.9703 -19.9692 -19.9692 -19.9685
   -19.9652 -19.9645 -19.9634 -19.9634 -19.9626 -19.9626 -19.9612 -19.9605
   -19.9517 -19.9516 -19.9501 -19.9501 -19.9484 -19.9484 -19.9477 -19.9475
   -19.9473 -19.9473 -19.9467 -19.9467 -19.9429 -19.9429 -19.9419 -19.9417
    -9.7339  -9.4161  -9.3020  -9.3019  -8.9259  -8.9259  -8.8515  -8.7376
    -8.7011  -8.5964  -8.5675  -8.5675  -7.7752  -7.7091  -7.6103  -7.6103
    -7.5724  -7.4992  -7.4992  -7.4795  -7.4768  -7.4608  -7.3253  -7.3252
     1.5326   1.5619   1.5823   1.5823   1.7024   1.7422   1.7422   1.8482
     1.9130   1.9130   1.9997   2.1930   2.6029   2.7053   2.7138   2.8450
     2.9285   2.9285   4.3842   4.3842   4.6893   4.6955   4.8018   4.9452
     4.9452   5.0267   5.0267   5.0317   5.3259   5.3259   5.4853   5.5843
     5.6124   5.6926   5.6926   5.8471   5.8471   5.8528   5.9778   5.9778
     6.0179   6.0186   6.0530   6.0653   6.0653   6.1635   6.1802   6.3131
     6.3652   6.5951   6.6467   6.6661   6.6661   6.7706   7.0725   7.0725
     7.0979   7.1213   7.1231   7.2461   7.2461   7.3066   7.3234   7.3234
     7.6667   7.6667   7.9152   7.9451   8.1695   8.2155   8.2155   8.3563
     9.9743  10.0301  10.4008  10.4184  10.4184  10.4333  12.4562  12.4562
    12.5506  12.5506  12.6183  12.8300  12.8719  12.9134  12.9135  13.0848
    13.3438  13.5172  13.5172  13.5701  13.9114  14.0528  14.0528  14.2809
    14.7865  14.9829  14.9830  15.1218  15.6413  15.7380  15.8746  16.1863
    16.1863  16.9329  17.1783  17.1783  17.7849

          k = 0.0000 0.0000 0.1667 ( 61439 PWs)   bands (ev):

   -65.8455 -65.8449 -65.8446 -65.8445 -65.8440 -65.8439 -65.8436 -65.8431
   -30.3096 -30.3017 -30.2971 -30.2961 -30.2624 -30.2530 -30.2500 -30.2236
   -30.2219 -30.1982 -30.1945 -30.1718 -30.1644 -30.1548 -30.1529 -30.1457
   -30.1424 -30.1394 -30.1340 -30.1276 -30.0620 -30.0564 -30.0557 -30.0508
   -19.9932 -19.9931 -19.9930 -19.9929 -19.9927 -19.9927 -19.9926 -19.9925
   -19.9829 -19.9825 -19.9824 -19.9818 -19.9817 -19.9810 -19.9810 -19.9806
   -19.9765 -19.9763 -19.9763 -19.9761 -19.9751 -19.9746 -19.9745 -19.9738
   -19.9733 -19.9724 -19.9722 -19.9710 -19.9703 -19.9693 -19.9692 -19.9686
   -19.9650 -19.9644 -19.9635 -19.9632 -19.9627 -19.9624 -19.9614 -19.9606
   -19.9516 -19.9515 -19.9502 -19.9499 -19.9486 -19.9484 -19.9476 -19.9476
   -19.9474 -19.9473 -19.9467 -19.9464 -19.9433 -19.9428 -19.9422 -19.9418
    -9.6893  -9.3642  -9.3196  -9.2418  -8.9425  -8.8619  -8.8557  -8.7119
    -8.6672  -8.5738  -8.5705  -8.5286  -7.8488  -7.7305  -7.7034  -7.6175
    -7.5844  -7.5730  -7.5194  -7.5056  -7.4835  -7.4582  -7.4397  -7.3343
     1.5666   1.5799   1.7094   1.7381   1.7434   1.7512   1.8434   1.8963
     1.9115   2.0623   2.1476   2.3214   2.6839   2.7462   2.8031   2.9034
     2.9189   3.0192   4.2897   4.3751   4.5323   4.6485   4.6853   4.7094
     4.7167   4.9975   5.0006   5.0043   5.0656   5.3056   5.4626   5.4809
     5.6426   5.6530   5.7192   5.7348   5.7831   5.8284   5.9035   5.9595
     5.9737   6.0021   6.0305   6.0746   6.0820   6.1680   6.2281   6.3268
     6.3555   6.6427   6.6530   6.7430   6.8095   6.9158   6.9603   6.9766
     7.0385   7.0975   7.1003   7.1342   7.2348   7.2799   7.2919   7.3324
     7.4903   7.5445   7.9357   7.9587   8.1553   8.1811   8.2294   8.3442
    10.2020  10.2614  10.4152  10.4612  10.6273  10.7081  12.4057  12.4688
    12.4958  12.6086  12.6798  12.8224  12.8589  12.9271  12.9431  13.1294
    13.2755  13.4539  13.5264  13.5474  13.9133  14.0362  14.0536  14.2106
    14.7888  14.9769  15.0315  15.2119  15.6661  15.7747  15.8373  16.1510
    16.4393  16.9630  17.0864  17.3473  17.8526

          k = 0.0000 0.0000 0.3333 ( 61460 PWs)   bands (ev):

   -65.8453 -65.8448 -65.8447 -65.8443 -65.8442 -65.8438 -65.8437 -65.8433
   -30.3067 -30.3028 -30.2862 -30.2846 -30.2660 -30.2593 -30.2460 -30.2288
   -30.2201 -30.2051 -30.1912 -30.1785 -30.1631 -30.1574 -30.1507 -30.1452
   -30.1440 -30.1377 -30.1228 -30.1137 -30.0783 -30.0721 -30.0548 -30.0520
   -19.9932 -19.9931 -19.9930 -19.9929 -19.9928 -19.9927 -19.9927 -19.9925
   -19.9828 -19.9826 -19.9823 -19.9819 -19.9817 -19.9812 -19.9809 -19.9807
   -19.9764 -19.9763 -19.9762 -19.9761 -19.9749 -19.9747 -19.9741 -19.9735
   -19.9735 -19.9726 -19.9720 -19.9713 -19.9701 -19.9695 -19.9691 -19.9687
   -19.9647 -19.9640 -19.9638 -19.9630 -19.9628 -19.9620 -19.9618 -19.9610
   -19.9513 -19.9509 -19.9505 -19.9495 -19.9493 -19.9483 -19.9482 -19.9477
   -19.9474 -19.9468 -19.9465 -19.9456 -19.9442 -19.9431 -19.9426 -19.9421
    -9.5808  -9.3732  -9.2334  -9.0996  -8.9947  -8.8965  -8.6657  -8.6501
    -8.5910  -8.5768  -8.4402  -8.3857  -8.1052  -7.9930  -7.8580  -7.7825
    -7.6683  -7.6376  -7.5640  -7.5226  -7.5207  -7.4943  -7.4309  -7.3595
     1.5770   1.5780   1.7471   1.7525   1.8155   1.8338   1.8861   1.9115
     2.4941   2.6435   2.7195   2.7855   2.8687   2.9115   2.9359   3.0580
     3.1192   3.2619   3.9251   4.0230   4.1135   4.1774   4.2981   4.5501
     4.6571   4.6843   4.8273   4.8697   4.9087   5.0052   5.2114   5.3078
     5.3894   5.4619   5.5673   5.6366   5.6729   5.7239   5.8536   5.9349
     5.9672   5.9992   6.0586   6.1204   6.1963   6.2390   6.3582   6.3590
     6.4263   6.5312   6.6226   6.7075   6.7594   6.7897   6.8735   6.9181
     7.0199   7.0949   7.1067   7.1813   7.2625   7.2891   7.3151   7.3910
     7.5240   7.5835   7.8950   7.9261   8.0651   8.0819   8.2629   8.3137
    10.3481  10.4029  10.8105  10.9866  11.1473  11.3383  12.0900  12.2048
    12.3845  12.6081  12.6303  12.7908  12.8582  12.9344  13.0241  13.0980
    13.2955  13.3451  13.4064  13.5681  13.8225  13.9193  14.0586  14.1124
    14.8556  14.9585  15.2330  15.4292  15.7192  15.9133  16.0262  16.0263
    16.5230  17.1725  17.5172  17.5846  17.8624

          k = 0.0000 0.0000-0.5000 ( 61444 PWs)   bands (ev):

   -65.8450 -65.8450 -65.8445 -65.8445 -65.8441 -65.8441 -65.8435 -65.8435
   -30.3045 -30.3045 -30.2737 -30.2737 -30.2707 -30.2707 -30.2384 -30.2384
   -30.2136 -30.2136 -30.1858 -30.1858 -30.1606 -30.1606 -30.1481 -30.1481
   -30.1413 -30.1413 -30.1005 -30.1005 -30.0933 -30.0933 -30.0534 -30.0534
   -19.9931 -19.9931 -19.9929 -19.9929 -19.9928 -19.9928 -19.9926 -19.9926
   -19.9827 -19.9827 -19.9821 -19.9821 -19.9815 -19.9815 -19.9808 -19.9808
   -19.9764 -19.9764 -19.9762 -19.9762 -19.9748 -19.9748 -19.9738 -19.9738
   -19.9730 -19.9730 -19.9716 -19.9716 -19.9698 -19.9698 -19.9689 -19.9689
   -19.9642 -19.9642 -19.9635 -19.9635 -19.9623 -19.9623 -19.9615 -19.9615
   -19.9509 -19.9508 -19.9502 -19.9502 -19.9489 -19.9489 -19.9480 -19.9480
   -19.9471 -19.9471 -19.9453 -19.9453 -19.9444 -19.9444 -19.9423 -19.9423
    -9.4631  -9.4631  -9.0921  -9.0921  -8.9698  -8.9698  -8.6158  -8.6158
    -8.4034  -8.4034  -8.3400  -8.3400  -8.1804  -8.1804  -8.1078  -8.1078
    -7.6649  -7.6649  -7.5445  -7.5445  -7.5085  -7.5085  -7.3947  -7.3947
     1.5774   1.5774   1.7523   1.7523   1.8257   1.8257   1.9123   1.9123
     2.8289   2.8289   3.1834   3.1834   3.3070   3.3071   3.3774   3.3774
     3.4828   3.4828   3.5603   3.5603   3.7836   3.7836   4.0164   4.0164
     4.0760   4.0760   4.7573   4.7573   4.8485   4.8485   5.2453   5.2453
     5.4487   5.4487   5.5550   5.5550   5.6477   5.6477   5.8933   5.8933
     6.0434   6.0434   6.1418   6.1418   6.2063   6.2063   6.3448   6.3448
     6.4881   6.4881   6.5761   6.5761   6.7055   6.7055   6.8307   6.8307
     7.0455   7.0455   7.1011   7.1011   7.2213   7.2213   7.6825   7.6825
     7.7226   7.7226   7.8455   7.8455   7.8939   7.8940   8.2879   8.2879
    10.3806  10.3806  11.4896  11.4896  11.6883  11.6883  11.7720  11.7720
    12.0590  12.0590  12.7539  12.7539  12.9838  12.9838  13.1113  13.1113
    13.1848  13.1848  13.5686  13.5686  13.6938  13.6938  14.0754  14.0754
    14.9236  14.9236  15.5083  15.5083  15.7498  15.7498  16.1596  16.1596
    16.7670  16.7670  18.0230  18.0230  18.3074

          k = 0.0000 0.1607 0.0000 ( 61414 PWs)   bands (ev):

   -65.8455 -65.8450 -65.8445 -65.8445 -65.8440 -65.8440 -65.8435 -65.8431
   -30.3104 -30.3006 -30.3006 -30.3004 -30.2579 -30.2492 -30.2492 -30.2216
   -30.2211 -30.1954 -30.1954 -30.1690 -30.1680 -30.1565 -30.1565 -30.1470
   -30.1453 -30.1437 -30.1325 -30.1325 -30.0561 -30.0561 -30.0511 -30.0498
   -19.9933 -19.9931 -19.9930 -19.9930 -19.9927 -19.9927 -19.9926 -19.9925
   -19.9828 -19.9824 -19.9824 -19.9819 -19.9815 -19.9810 -19.9810 -19.9806
   -19.9763 -19.9761 -19.9761 -19.9759 -19.9752 -19.9746 -19.9746 -19.9738
   -19.9734 -19.9723 -19.9723 -19.9709 -19.9706 -19.9695 -19.9695 -19.9687
   -19.9651 -19.9646 -19.9633 -19.9633 -19.9626 -19.9626 -19.9612 -19.9605
   -19.9517 -19.9516 -19.9501 -19.9501 -19.9484 -19.9484 -19.9477 -19.9476
   -19.9473 -19.9473 -19.9467 -19.9467 -19.9429 -19.9429 -19.9419 -19.9417
    -9.7020  -9.4292  -9.2681  -9.2681  -8.9220  -8.9220  -8.7758  -8.7230
    -8.7005  -8.5658  -8.5365  -8.5365  -7.8013  -7.7098  -7.6703  -7.6703
    -7.6414  -7.5891  -7.5406  -7.5406  -7.4761  -7.4624  -7.3256  -7.3256
     1.5410   1.5596   1.5887   1.5888   1.7638   1.7638   1.8319   1.9994
     2.0408   2.1142   2.1142   2.3202   2.6127   2.7064   2.7767   2.9312
     3.0051   3.0051   4.2570   4.2570   4.3883   4.3977   4.7568   4.9299
     4.9299   5.0245   5.0245   5.1032   5.2385   5.2385   5.3744   5.5785
     5.5785   5.6911   5.7428   5.7428   5.7572   5.8397   5.8663   5.9555
     5.9555   5.9790   6.0522   6.1161   6.1161   6.1225   6.2751   6.2874
     6.3145   6.5753   6.6094   6.7234   6.7234   6.7570   7.0616   7.0616
     7.0838   7.1333   7.1672   7.2192   7.2393   7.2393   7.3082   7.3082
     7.6716   7.6716   7.9157   7.9421   8.1439   8.1945   8.1945   8.2826
     9.9983  10.0324  10.5774  10.5774  10.5786  10.6064  12.4414  12.4414
    12.5073  12.5073  12.6191  12.6686  12.8819  12.8987  12.8987  12.9289
    13.3634  13.4840  13.4840  13.5952  13.9999  14.0303  14.0303  14.1983
    14.8621  15.1331  15.1331  15.2882  15.6294  15.7279  16.1706  16.1706
    16.2639  16.7038  17.3133  17.3133  17.8054

          k = 0.0000 0.1607 0.1667 ( 61434 PWs)   bands (ev):

   -65.8454 -65.8449 -65.8446 -65.8444 -65.8441 -65.8440 -65.8436 -65.8431
   -30.3084 -30.3010 -30.2971 -30.2957 -30.2590 -30.2513 -30.2482 -30.2238
   -30.2201 -30.1975 -30.1942 -30.1706 -30.1687 -30.1577 -30.1556 -30.1459
   -30.1450 -30.1395 -30.1342 -30.1278 -30.0620 -30.0564 -30.0557 -30.0508
   -19.9932 -19.9931 -19.9930 -19.9929 -19.9927 -19.9927 -19.9926 -19.9925
   -19.9828 -19.9824 -19.9823 -19.9818 -19.9816 -19.9810 -19.9810 -19.9807
   -19.9763 -19.9761 -19.9761 -19.9759 -19.9751 -19.9747 -19.9745 -19.9737
   -19.9735 -19.9723 -19.9722 -19.9709 -19.9706 -19.9695 -19.9694 -19.9688
   -19.9650 -19.9644 -19.9634 -19.9632 -19.9628 -19.9625 -19.9613 -19.9607
   -19.9516 -19.9515 -19.9502 -19.9499 -19.9486 -19.9484 -19.9476 -19.9476
   -19.9474 -19.9473 -19.9467 -19.9464 -19.9433 -19.9428 -19.9422 -19.9418
    -9.6564  -9.3772  -9.2857  -9.2033  -8.9394  -8.8514  -8.7861  -8.6938
    -8.6653  -8.5458  -8.5424  -8.5030  -7.8579  -7.7475  -7.7199  -7.6765
    -7.6460  -7.6169  -7.5903  -7.5737  -7.5472  -7.4587  -7.4382  -7.3347
     1.5774   1.5874   1.7111   1.7682   1.8040   1.8915   1.9650   2.0489
     2.1113   2.1541   2.1628   2.3974   2.6977   2.7952   2.8167   2.9854
     3.0002   3.0942   4.2054   4.2579   4.3858   4.4324   4.5636   4.6351
     4.7162   4.9376   4.9775   5.0067   5.0462   5.2418   5.3316   5.4355
     5.5147   5.6391   5.6629   5.7163   5.7787   5.7885   5.8393   5.8723
     5.9235   5.9997   6.0312   6.0815   6.0972   6.1513   6.1917   6.2951
     6.4028   6.5843   6.7071   6.7334   6.8015   6.9242   6.9803   7.0164
     7.0390   7.1082   7.1466   7.1563   7.2056   7.2662   7.2930   7.3140
     7.4879   7.5530   7.9333   7.9566   8.1335   8.1621   8.1980   8.2741
    10.2453  10.2855  10.5750  10.6087  10.7678  10.8395  12.4064  12.4163
    12.5019  12.5607  12.6781  12.7082  12.8122  12.9068  12.9370  12.9988
    13.2611  13.4293  13.4897  13.5572  13.9265  14.0201  14.0340  14.1439
    14.9092  15.1274  15.2229  15.3566  15.6576  15.7728  16.1210  16.2454
    16.4212  16.8529  17.0935  17.4535  17.8656

          k = 0.0000 0.1607 0.3333 ( 61445 PWs)   bands (ev):

   -65.8452 -65.8448 -65.8447 -65.8443 -65.8443 -65.8438 -65.8438 -65.8433
   -30.3057 -30.3021 -30.2858 -30.2837 -30.2629 -30.2581 -30.2450 -30.2301
   -30.2169 -30.2036 -30.1908 -30.1775 -30.1673 -30.1609 -30.1534 -30.1481
   -30.1439 -30.1379 -30.1229 -30.1138 -30.0783 -30.0721 -30.0548 -30.0520
   -19.9932 -19.9930 -19.9930 -19.9929 -19.9928 -19.9927 -19.9927 -19.9925
   -19.9827 -19.9825 -19.9822 -19.9817 -19.9817 -19.9812 -19.9809 -19.9808
   -19.9763 -19.9762 -19.9761 -19.9760 -19.9750 -19.9748 -19.9742 -19.9736
   -19.9734 -19.9726 -19.9719 -19.9712 -19.9704 -19.9698 -19.9693 -19.9689
   -19.9647 -19.9640 -19.9637 -19.9631 -19.9628 -19.9621 -19.9617 -19.9610
   -19.9513 -19.9509 -19.9505 -19.9495 -19.9493 -19.9483 -19.9482 -19.9477
   -19.9474 -19.9468 -19.9465 -19.9456 -19.9442 -19.9431 -19.9426 -19.9421
    -9.5462  -9.3389  -9.2443  -9.0460  -8.9947  -8.8219  -8.6608  -8.6178
    -8.5779  -8.5573  -8.4332  -8.3748  -8.1065  -7.9967  -7.8624  -7.7983
    -7.6905  -7.6845  -7.6293  -7.6209  -7.5918  -7.5706  -7.4314  -7.3599
     1.5874   1.5936   1.7811   1.8016   1.9964   2.0188   2.0896   2.1107
     2.4975   2.6501   2.7239   2.8566   2.8807   2.9517   2.9790   3.0540
     3.2038   3.3277   3.9276   4.0333   4.0971   4.1336   4.3161   4.4470
     4.4642   4.6293   4.6773   4.7803   4.8875   4.9716   5.0868   5.2260
     5.2633   5.3622   5.4309   5.5937   5.6417   5.6827   5.7311   5.8747
     5.9363   5.9523   6.0121   6.0793   6.1067   6.1680   6.3095   6.3566
     6.5012   6.5552   6.6328   6.7788   6.8423   6.8860   6.8983   6.9979
     7.0244   7.0930   7.1146   7.1699   7.2380   7.2995   7.3278   7.4066
     7.5277   7.5919   7.8913   7.9260   8.0540   8.0682   8.2160   8.2508
    10.5192  10.5684  10.8326  11.0069  11.2518  11.4123  12.0912  12.2180
    12.3934  12.6029  12.6490  12.7557  12.7792  12.8754  12.9762  13.0198
    13.1816  13.3182  13.4026  13.5213  13.7388  13.8538  14.0362  14.0924
    15.0218  15.1090  15.4635  15.5700  15.9086  16.0029  16.0504  16.1636
    16.6232  17.1475  17.3225  17.5976  17.8940

          k = 0.0000 0.1607-0.5000 ( 61474 PWs)   bands (ev):

   -65.8450 -65.8450 -65.8445 -65.8445 -65.8440 -65.8440 -65.8435 -65.8435
   -30.3037 -30.3037 -30.2716 -30.2716 -30.2698 -30.2698 -30.2386 -30.2386
   -30.2110 -30.2110 -30.1851 -30.1851 -30.1645 -30.1645 -30.1509 -30.1509
   -30.1414 -30.1414 -30.1006 -30.1006 -30.0933 -30.0933 -30.0534 -30.0534
   -19.9931 -19.9931 -19.9929 -19.9929 -19.9928 -19.9928 -19.9926 -19.9926
   -19.9826 -19.9826 -19.9820 -19.9820 -19.9815 -19.9815 -19.9809 -19.9809
   -19.9763 -19.9763 -19.9760 -19.9760 -19.9749 -19.9749 -19.9739 -19.9739
   -19.9729 -19.9729 -19.9715 -19.9715 -19.9701 -19.9701 -19.9691 -19.9691
   -19.9642 -19.9642 -19.9636 -19.9636 -19.9623 -19.9623 -19.9615 -19.9615
   -19.9509 -19.9508 -19.9502 -19.9502 -19.9489 -19.9489 -19.9480 -19.9480
   -19.9471 -19.9471 -19.9453 -19.9453 -19.9444 -19.9444 -19.9423 -19.9423
    -9.4282  -9.4282  -9.0976  -9.0976  -8.9004  -8.9004  -8.5821  -8.5821
    -8.4026  -8.4025  -8.3413  -8.3413  -8.1805  -8.1805  -8.1088  -8.1088
    -7.7037  -7.7037  -7.6106  -7.6106  -7.6002  -7.6001  -7.3951  -7.3951
     1.5914   1.5914   1.7968   1.7968   2.0171   2.0171   2.1107   2.1107
     2.9025   2.9025   3.1954   3.1954   3.3028   3.3028   3.4187   3.4187
     3.4858   3.4858   3.5646   3.5646   3.7928   3.7928   4.0451   4.0451
     4.0952   4.0952   4.5206   4.5206   4.7867   4.7867   5.0291   5.0291
     5.3357   5.3357   5.5177   5.5177   5.6009   5.6009   5.7798   5.7798
     5.9244   5.9244   6.0912   6.0912   6.1656   6.1656   6.3068   6.3068
     6.5377   6.5377   6.6773   6.6773   6.7908   6.7908   6.9164   6.9165
     7.0641   7.0642   7.0897   7.0897   7.2216   7.2216   7.6845   7.6845
     7.7186   7.7186   7.8476   7.8476   7.8907   7.8907   8.2325   8.2325
    10.5544  10.5544  11.5026  11.5026  11.6994  11.6994  11.8363  11.8364
    12.1033  12.1033  12.7365  12.7365  12.8745  12.8745  13.0911  13.0911
    13.1492  13.1492  13.4560  13.4560  13.6334  13.6334  14.0527  14.0527
    15.0788  15.0788  15.7161  15.7161  15.9506  15.9506  16.2163  16.2163
    16.8076  16.8076  17.8861  17.8862  18.2108

          k = 0.0000 0.3214 0.0000 ( 61426 PWs)   bands (ev):

   -65.8454 -65.8451 -65.8444 -65.8444 -65.8441 -65.8441 -65.8434 -65.8432
   -30.3075 -30.3019 -30.2994 -30.2994 -30.2487 -30.2450 -30.2450 -30.2276
   -30.2109 -30.1945 -30.1945 -30.1807 -30.1645 -30.1626 -30.1626 -30.1508
   -30.1464 -30.1456 -30.1329 -30.1329 -30.0561 -30.0561 -30.0508 -30.0501
   -19.9932 -19.9931 -19.9930 -19.9930 -19.9927 -19.9927 -19.9926 -19.9925
   -19.9825 -19.9822 -19.9822 -19.9820 -19.9812 -19.9810 -19.9810 -19.9807
   -19.9760 -19.9757 -19.9757 -19.9754 -19.9754 -19.9748 -19.9748 -19.9739
   -19.9733 -19.9722 -19.9722 -19.9715 -19.9705 -19.9700 -19.9700 -19.9693
   -19.9650 -19.9647 -19.9632 -19.9632 -19.9628 -19.9628 -19.9611 -19.9607
   -19.9517 -19.9517 -19.9501 -19.9501 -19.9484 -19.9484 -19.9477 -19.9476
   -19.9473 -19.9473 -19.9467 -19.9467 -19.9429 -19.9429 -19.9418 -19.9417
    -9.6238  -9.4693  -9.2012  -9.2012  -8.9122  -8.9122  -8.7044  -8.6990
    -8.5626  -8.4426  -8.4229  -8.4229  -7.9768  -7.9059  -7.9059  -7.8685
    -7.7119  -7.7060  -7.5592  -7.5592  -7.4740  -7.4661  -7.3263  -7.3263
     1.5461   1.5546   1.5919   1.5919   1.7732   1.7732   1.9605   1.9976
     2.5574   2.6332   2.6867   2.7034   2.7034   2.8768   2.9824   3.2152
     3.2432   3.2432   3.8787   3.9164   3.9164   3.9225   4.3299   4.7268
     4.7268   4.9389   4.9389   4.9954   5.0399   5.0399   5.2718   5.3472
     5.3517   5.3517   5.6660   5.6660   5.6988   5.7630   5.8602   5.9545
     5.9802   5.9803   6.0468   6.0942   6.0942   6.2277   6.2695   6.3013
     6.4223   6.5108   6.5433   6.7183   6.7513   6.7513   7.1150   7.1272
     7.1272   7.1535   7.2809   7.2809   7.3048   7.3057   7.3704   7.3704
     7.6833   7.6833   7.8961   7.9294   8.0254   8.0708   8.0708   8.0735
    10.0258  10.0360  11.0132  11.0140  11.0141  11.1213  12.1751  12.1751
    12.2484  12.4126  12.4912  12.4913  12.7476  12.8696  12.8866  12.8866
    13.4427  13.4943  13.4943  13.6296  13.8661  13.8661  13.9479  14.0145
    15.1469  15.4929  15.4929  15.5955  15.6903  15.9633  16.1176  16.1176
    16.2373  17.1937  17.5043  17.7784  17.7784

          k = 0.0000 0.3214 0.1667 ( 61475 PWs)   bands (ev):

   -65.8453 -65.8450 -65.8445 -65.8443 -65.8442 -65.8441 -65.8435 -65.8432
   -30.3057 -30.2998 -30.2982 -30.2943 -30.2501 -30.2475 -30.2444 -30.2295
   -30.2101 -30.1956 -30.1933 -30.1802 -30.1672 -30.1644 -30.1618 -30.1523
   -30.1455 -30.1397 -30.1345 -30.1281 -30.0621 -30.0563 -30.0557 -30.0509
   -19.9932 -19.9931 -19.9930 -19.9929 -19.9927 -19.9927 -19.9926 -19.9925
   -19.9825 -19.9822 -19.9821 -19.9819 -19.9813 -19.9811 -19.9810 -19.9808
   -19.9760 -19.9757 -19.9757 -19.9754 -19.9753 -19.9748 -19.9747 -19.9740
   -19.9732 -19.9723 -19.9721 -19.9714 -19.9706 -19.9701 -19.9699 -19.9694
   -19.9649 -19.9645 -19.9633 -19.9630 -19.9629 -19.9626 -19.9612 -19.9608
   -19.9516 -19.9515 -19.9502 -19.9499 -19.9486 -19.9484 -19.9476 -19.9476
   -19.9474 -19.9473 -19.9467 -19.9464 -19.9433 -19.9428 -19.9422 -19.9419
    -9.5762  -9.4168  -9.2179  -9.1254  -8.9320  -8.8394  -8.6750  -8.6568
    -8.5726  -8.4336  -8.4281  -8.4034  -7.9823  -7.9161  -7.9050  -7.8772
    -7.8068  -7.7002  -7.6708  -7.5776  -7.5677  -7.4597  -7.4386  -7.3354
     1.5808   1.5910   1.7098   1.7789   1.8209   2.0035   2.0635   2.1841
     2.5668   2.6844   2.7000   2.7315   2.7756   2.8699   3.0314   3.2231
     3.2791   3.3261   3.8897   3.9007   3.9298   3.9988   4.3017   4.5969
     4.6055   4.7295   4.7654   4.9263   4.9722   5.0190   5.1150   5.1511
     5.3237   5.3382   5.4266   5.5864   5.6110   5.7615   5.7783   5.8884
     5.9222   5.9595   5.9640   5.9910   6.0939   6.1817   6.2029   6.2918
     6.5149   6.5446   6.6816   6.7471   6.8120   6.9347   7.0905   7.1129
     7.1390   7.1906   7.2229   7.2312   7.3185   7.3310   7.3520   7.3871
     7.5084   7.5752   7.9057   7.9429   8.0259   8.0503   8.0618   8.0750
    10.2740  10.3209  11.0149  11.0482  11.1638  11.2507  12.1615  12.2441
    12.2849  12.4201  12.4632  12.5608  12.7620  12.8343  12.9099  12.9546
    13.3026  13.4269  13.4952  13.5686  13.7519  13.8649  13.8913  13.9978
    15.2393  15.4791  15.6088  15.6484  15.7751  16.0195  16.0908  16.3516
    16.4008  17.1585  17.4919  17.5855  17.8676

          k = 0.0000 0.3214 0.3333 ( 61490 PWs)   bands (ev):

   -65.8451 -65.8449 -65.8447 -65.8444 -65.8442 -65.8439 -65.8437 -65.8434
   -30.3038 -30.3008 -30.2857 -30.2813 -30.2559 -30.2546 -30.2425 -30.2343
   -30.2076 -30.1989 -30.1895 -30.1784 -30.1744 -30.1694 -30.1598 -30.1550
   -30.1440 -30.1381 -30.1230 -30.1139 -30.0784 -30.0721 -30.0548 -30.0520
   -19.9932 -19.9930 -19.9930 -19.9928 -19.9928 -19.9927 -19.9926 -19.9926
   -19.9824 -19.9823 -19.9820 -19.9818 -19.9814 -19.9813 -19.9810 -19.9809
   -19.9759 -19.9758 -19.9756 -19.9755 -19.9752 -19.9749 -19.9745 -19.9741
   -19.9730 -19.9724 -19.9717 -19.9712 -19.9709 -19.9704 -19.9698 -19.9695
   -19.9645 -19.9642 -19.9636 -19.9632 -19.9627 -19.9622 -19.9616 -19.9612
   -19.9513 -19.9510 -19.9505 -19.9495 -19.9493 -19.9483 -19.9482 -19.9477
   -19.9474 -19.9468 -19.9465 -19.9456 -19.9442 -19.9431 -19.9426 -19.9421
    -9.4653  -9.2790  -9.2661  -8.9952  -8.9258  -8.6494  -8.6086  -8.5786
    -8.5401  -8.4434  -8.3820  -8.3228  -8.1203  -8.0372  -7.9446  -7.9266
    -7.8882  -7.8574  -7.8181  -7.7278  -7.6507  -7.5937  -7.4323  -7.3606
     1.5922   1.5998   1.7943   1.8144   2.4061   2.5039   2.5392   2.6402
     2.7065   2.7470   2.7761   2.9507   2.9807   3.0267   3.1119   3.2119
     3.4562   3.5142   3.8478   3.8855   3.9419   4.0336   4.0723   4.1526
     4.2708   4.4616   4.5420   4.6662   4.7150   4.7843   4.8363   4.9173
     5.0805   5.1525   5.2469   5.3254   5.3756   5.4720   5.5403   5.5987
     5.6735   5.8137   5.8671   5.9915   6.1311   6.2258   6.3176   6.3655
     6.6197   6.6295   6.7065   6.8080   6.8829   7.0039   7.0606   7.1060
     7.1671   7.1968   7.2417   7.2762   7.2968   7.3420   7.3829   7.4602
     7.5703   7.6205   7.8629   7.9224   7.9728   7.9904   8.0538   8.0641
    10.8226  10.9113  11.0245  11.1381  11.5527  11.6714  12.0584  12.1725
    12.3270  12.3821  12.5029  12.5776  12.7321  12.7981  12.8142  13.0307
    13.0516  13.1949  13.4016  13.4864  13.5120  13.7414  13.8685  13.9454
    15.3218  15.4389  15.7336  15.9798  16.1271  16.2173  16.2678  16.8486
    16.9987  17.0726  17.0864  17.7365  17.7611

          k = 0.0000 0.3214-0.5000 ( 61510 PWs)   bands (ev):

   -65.8449 -65.8449 -65.8446 -65.8446 -65.8439 -65.8439 -65.8436 -65.8436
   -30.3022 -30.3022 -30.2694 -30.2694 -30.2659 -30.2659 -30.2393 -30.2393
   -30.2035 -30.2035 -30.1830 -30.1830 -30.1748 -30.1748 -30.1575 -30.1575
   -30.1415 -30.1415 -30.1006 -30.1006 -30.0933 -30.0933 -30.0535 -30.0534
   -19.9931 -19.9931 -19.9929 -19.9929 -19.9927 -19.9927 -19.9926 -19.9926
   -19.9823 -19.9823 -19.9817 -19.9817 -19.9816 -19.9816 -19.9809 -19.9809
   -19.9759 -19.9759 -19.9756 -19.9756 -19.9751 -19.9750 -19.9743 -19.9743
   -19.9727 -19.9727 -19.9713 -19.9713 -19.9708 -19.9708 -19.9697 -19.9697
   -19.9641 -19.9641 -19.9637 -19.9637 -19.9621 -19.9621 -19.9617 -19.9616
   -19.9509 -19.9508 -19.9502 -19.9502 -19.9489 -19.9489 -19.9480 -19.9480
   -19.9471 -19.9471 -19.9453 -19.9453 -19.9444 -19.9444 -19.9423 -19.9423
    -9.3522  -9.3522  -9.1132  -9.1132  -8.7154  -8.7154  -8.4783  -8.4783
    -8.3963  -8.3963  -8.3487  -8.3487  -8.1806  -8.1806  -8.1147  -8.1146
    -7.9057  -7.9057  -7.8503  -7.8503  -7.6283  -7.6283  -7.3959  -7.3959
     1.5975   1.5975   1.8122   1.8123   2.5638   2.5638   2.7156   2.7156
     3.1132   3.1132   3.2291   3.2291   3.2892   3.2892   3.4804   3.4804
     3.5041   3.5041   3.5861   3.5861   3.8097   3.8097   3.9382   3.9382
     4.1587   4.1587   4.2801   4.2801   4.4695   4.4695   4.5995   4.5995
     5.0974   5.0974   5.1960   5.1960   5.3819   5.3819   5.5142   5.5142
     5.6598   5.6599   5.9458   5.9458   6.2543   6.2543   6.3096   6.3096
     6.6480   6.6480   6.7648   6.7649   6.8593   6.8593   6.9961   6.9961
     7.2622   7.2622   7.2798   7.2798   7.3055   7.3055   7.6719   7.6719
     7.7178   7.7178   7.8239   7.8239   7.8598   7.8598   8.0550   8.0550
    11.0081  11.0081  11.5316  11.5316  11.7171  11.7171  11.9955  11.9955
    12.2594  12.2594  12.4532  12.4532  12.7987  12.7987  12.8865  12.8865
    13.0912  13.0912  13.2443  13.2443  13.5840  13.5840  13.8884  13.8884
    15.3777  15.3777  15.8686  15.8686  16.5583  16.5583  16.7526  16.7526
    16.9483  16.9483  17.5613  17.5613  18.0267

          k = 0.0000-0.4821 0.0000 ( 61426 PWs)   bands (ev):

   -65.8452 -65.8452 -65.8443 -65.8443 -65.8442 -65.8442 -65.8433 -65.8433
   -30.3044 -30.3044 -30.2988 -30.2988 -30.2426 -30.2425 -30.2374 -30.2373
   -30.1961 -30.1961 -30.1938 -30.1938 -30.1662 -30.1662 -30.1585 -30.1585
   -30.1461 -30.1461 -30.1330 -30.1330 -30.0561 -30.0561 -30.0505 -30.0505
   -19.9932 -19.9932 -19.9930 -19.9929 -19.9927 -19.9927 -19.9925 -19.9925
   -19.9822 -19.9822 -19.9821 -19.9821 -19.9810 -19.9810 -19.9809 -19.9809
   -19.9756 -19.9756 -19.9753 -19.9753 -19.9751 -19.9751 -19.9746 -19.9746
   -19.9725 -19.9725 -19.9722 -19.9722 -19.9703 -19.9703 -19.9700 -19.9700
   -19.9649 -19.9648 -19.9631 -19.9631 -19.9629 -19.9629 -19.9609 -19.9609
   -19.9517 -19.9517 -19.9501 -19.9501 -19.9484 -19.9484 -19.9476 -19.9476
   -19.9473 -19.9473 -19.9467 -19.9467 -19.9429 -19.9429 -19.9418 -19.9418
    -9.5369  -9.5369  -9.1692  -9.1692  -8.9061  -8.9061  -8.6987  -8.6987
    -8.2656  -8.2656  -8.2107  -8.2107  -8.1986  -8.1986  -8.1848  -8.1848
    -7.7135  -7.7134  -7.5616  -7.5616  -7.4704  -7.4704  -7.3267  -7.3267
     1.5498   1.5498   1.5923   1.5923   1.7749   1.7749   1.9902   1.9902
     2.6593   2.6593   3.1200   3.1200   3.2012   3.2012   3.5132   3.5132
     3.5917   3.5917   3.5974   3.5974   3.7102   3.7102   3.9825   3.9825
     4.0079   4.0080   4.9364   4.9364   5.0099   5.0099   5.4825   5.4825
     5.4942   5.4942   5.5433   5.5433   5.5496   5.5496   5.8977   5.8977
     6.0030   6.0030   6.0313   6.0313   6.1832   6.1832   6.2863   6.2863
     6.4630   6.4630   6.5892   6.5892   6.7485   6.7485   7.0936   7.0936
     7.1329   7.1329   7.2944   7.2944   7.5792   7.5792   7.6014   7.6015
     7.7469   7.7469   7.7684   7.7684   7.8583   7.8583   7.9590   7.9590
    10.0357  10.0358  11.4710  11.4710  11.5475  11.5475  11.7713  11.7713
    11.8844  11.8844  12.4960  12.4960  12.8092  12.8092  12.8873  12.8873
    13.5866  13.5867  13.6307  13.6307  13.6480  13.6480  13.8747  13.8747
    15.4774  15.4775  15.6943  15.6943  15.8257  15.8257  16.0629  16.0629
    16.8066  16.8066  18.2404  18.2404  18.3312

          k = 0.0000-0.4821 0.1667 ( 61458 PWs)   bands (ev):

   -65.8452 -65.8452 -65.8444 -65.8443 -65.8442 -65.8442 -65.8434 -65.8434
   -30.3040 -30.2994 -30.2990 -30.2936 -30.2454 -30.2422 -30.2401 -30.2377
   -30.1962 -30.1949 -30.1941 -30.1925 -30.1688 -30.1654 -30.1622 -30.1589
   -30.1455 -30.1397 -30.1347 -30.1282 -30.0621 -30.0563 -30.0557 -30.0509
   -19.9932 -19.9931 -19.9930 -19.9929 -19.9927 -19.9927 -19.9925 -19.9925
   -19.9822 -19.9821 -19.9821 -19.9820 -19.9811 -19.9810 -19.9810 -19.9809
   -19.9756 -19.9756 -19.9753 -19.9752 -19.9751 -19.9751 -19.9747 -19.9747
   -19.9725 -19.9723 -19.9722 -19.9720 -19.9704 -19.9703 -19.9701 -19.9700
   -19.9647 -19.9647 -19.9632 -19.9630 -19.9629 -19.9627 -19.9610 -19.9610
   -19.9516 -19.9515 -19.9502 -19.9499 -19.9486 -19.9484 -19.9476 -19.9476
   -19.9474 -19.9473 -19.9467 -19.9464 -19.9433 -19.9428 -19.9422 -19.9419
    -9.4991  -9.4734  -9.1851  -9.0878  -8.9273  -8.8314  -8.6721  -8.6517
    -8.2724  -8.2724  -8.2206  -8.2053  -8.2037  -8.1928  -8.1880  -8.1745
    -7.8179  -7.7048  -7.6764  -7.5773  -7.5708  -7.4602  -7.4389  -7.3358
     1.5809   1.5915   1.7091   1.7808   1.8226   2.0076   2.0856   2.1950
     2.7445   2.7490   3.1186   3.1254   3.2255   3.2498   3.4973   3.5184
     3.5276   3.5973   3.6122   3.6458   3.7470   3.7903   3.9644   4.0121
     4.0293   4.0454   4.6145   4.6322   4.9442   4.9482   5.2469   5.2795
     5.3580   5.3602   5.4513   5.4876   5.5083   5.5954   5.7263   5.8423
     5.8961   5.9476   5.9645   5.9856   6.0268   6.1892   6.2361   6.2852
     6.5414   6.5784   6.6323   6.7454   6.7797   6.9330   7.0772   7.1148
     7.1648   7.2279   7.2569   7.2631   7.4409   7.4923   7.5818   7.5915
     7.6852   7.7130   7.7747   7.7848   7.8463   7.8532   7.9708   7.9791
    10.2810  10.3307  11.4729  11.5437  11.5764  11.6661  11.7705  11.8723
    11.8862  11.9843  12.4350  12.5520  12.7802  12.8756  12.8967  12.9274
    13.4415  13.4901  13.5187  13.5550  13.6296  13.6478  13.8057  13.8914
    15.4505  15.6137  15.6713  15.8161  15.9763  15.9908  16.0684  16.2794
    16.8568  16.8674  18.0381  18.1559  18.2506

          k = 0.0000-0.4821 0.3333 ( 61516 PWs)   bands (ev):

   -65.8450 -65.8450 -65.8446 -65.8445 -65.8441 -65.8440 -65.8436 -65.8435
   -30.3029 -30.3001 -30.2857 -30.2801 -30.2542 -30.2488 -30.2411 -30.2385
   -30.1961 -30.1948 -30.1909 -30.1885 -30.1758 -30.1713 -30.1635 -30.1599
   -30.1440 -30.1381 -30.1230 -30.1139 -30.0784 -30.0721 -30.0548 -30.0520
   -19.9931 -19.9930 -19.9930 -19.9928 -19.9928 -19.9927 -19.9926 -19.9926
   -19.9822 -19.9821 -19.9819 -19.9818 -19.9813 -19.9812 -19.9810 -19.9810
   -19.9756 -19.9755 -19.9754 -19.9752 -19.9751 -19.9750 -19.9748 -19.9747
   -19.9724 -19.9723 -19.9719 -19.9716 -19.9708 -19.9705 -19.9702 -19.9701
   -19.9644 -19.9643 -19.9634 -19.9634 -19.9626 -19.9623 -19.9615 -19.9613
   -19.9513 -19.9510 -19.9505 -19.9495 -19.9493 -19.9483 -19.9482 -19.9477
   -19.9474 -19.9468 -19.9465 -19.9456 -19.9442 -19.9431 -19.9426 -19.9421
    -9.4079  -9.3103  -9.2319  -8.9956  -8.8608  -8.6318  -8.5807  -8.5091
    -8.3278  -8.3020  -8.2456  -8.2250  -8.1926  -8.1912  -8.1776  -8.1380
    -8.0496  -7.9381  -7.8391  -7.7418  -7.6525  -7.5963  -7.4327  -7.3610
     1.5928   1.6005   1.7965   1.8160   2.4484   2.6102   2.6435   2.7969
     2.9883   2.9979   3.1230   3.1410   3.3017   3.3524   3.4326   3.5219
     3.5249   3.5925   3.6171   3.6365   3.8262   3.9212   3.9887   4.0467
     4.0478   4.0915   4.1218   4.1312   4.5924   4.6462   4.8016   4.8839
     4.9220   5.0355   5.1346   5.1654   5.3824   5.4878   5.4919   5.5566
     5.5571   5.7200   5.8554   5.8813   6.1323   6.2578   6.3212   6.3729
     6.6505   6.6543   6.7088   6.8187   6.8521   7.0262   7.0336   7.2029
     7.2166   7.2467   7.2987   7.3718   7.4298   7.4763   7.5655   7.6163
     7.6776   7.7264   7.7650   7.8075   7.8276   7.8420   7.9422   7.9496
    10.8519  10.9706  11.4771  11.5415  11.7712  11.8100  11.9447  12.0183
    12.1496  12.1601  12.2553  12.3923  12.7248  12.8268  12.8938  13.0206
    13.0372  13.1552  13.2504  13.4019  13.6327  13.6560  13.7289  13.8168
    15.4279  15.5961  15.7734  15.9738  16.2961  16.5647  16.6758  16.8973
    17.0132  17.0636  17.6313  17.6707  18.0431

          k = 0.0000-0.4821-0.5000 ( 61528 PWs)   bands (ev):

   -65.8448 -65.8448 -65.8447 -65.8447 -65.8438 -65.8438 -65.8438 -65.8438
   -30.3015 -30.3015 -30.2687 -30.2687 -30.2632 -30.2632 -30.2398 -30.2398
   -30.1955 -30.1955 -30.1842 -30.1842 -30.1812 -30.1812 -30.1615 -30.1615
   -30.1415 -30.1415 -30.1006 -30.1006 -30.0933 -30.0933 -30.0535 -30.0535
   -19.9931 -19.9931 -19.9929 -19.9929 -19.9927 -19.9927 -19.9926 -19.9926
   -19.9822 -19.9822 -19.9816 -19.9816 -19.9815 -19.9815 -19.9810 -19.9810
   -19.9755 -19.9755 -19.9753 -19.9753 -19.9750 -19.9750 -19.9748 -19.9748
   -19.9724 -19.9724 -19.9713 -19.9713 -19.9710 -19.9710 -19.9701 -19.9701
   -19.9640 -19.9640 -19.9638 -19.9638 -19.9620 -19.9620 -19.9618 -19.9617
   -19.9509 -19.9508 -19.9502 -19.9502 -19.9489 -19.9489 -19.9480 -19.9480
   -19.9471 -19.9471 -19.9453 -19.9453 -19.9444 -19.9444 -19.9423 -19.9423
    -9.3093  -9.3093  -9.1254  -9.1254  -8.5548  -8.5548  -8.4118  -8.4118
    -8.3939  -8.3939  -8.3177  -8.3177  -8.1792  -8.1792  -8.1333  -8.1333
    -8.0867  -8.0867  -8.0025  -8.0025  -7.6311  -7.6311  -7.3963  -7.3963
     1.5982   1.5982   1.8146   1.8146   3.0268   3.0268   3.2232   3.2232
     3.2702   3.2702   3.3063   3.3063   3.3770   3.3770   3.4921   3.4922
     3.5054   3.5054   3.6202   3.6202   3.6800   3.6800   3.7454   3.7454
     3.9298   3.9298   4.0901   4.0901   4.5060   4.5060   4.5852   4.5852
     4.6185   4.6185   4.7232   4.7232   5.4296   5.4296   5.4952   5.4953
     5.6533   5.6533   5.8200   5.8200   6.2889   6.2889   6.3047   6.3047
     6.6702   6.6702   6.7716   6.7716   6.8922   6.8922   6.9706   6.9706
     7.4005   7.4006   7.4392   7.4392   7.5419   7.5419   7.6308   7.6308
     7.7383   7.7383   7.7721   7.7721   7.8183   7.8183   7.8664   7.8664
    11.3904  11.3904  11.6200  11.6200  11.6765  11.6765  11.8923  11.8923
    12.3872  12.3872  12.4727  12.4727  12.6189  12.6189  12.6912  12.6912
    12.9953  12.9953  13.2152  13.2152  13.6615  13.6615  13.7022  13.7022
    15.4956  15.4956  15.8826  15.8826  16.9930  16.9930  17.2040  17.2040
    17.3910  17.3910  17.5226  17.5227  17.6582

          k = 0.1667 0.0000 0.1667 ( 61438 PWs)   bands (ev):

   -65.8454 -65.8448 -65.8446 -65.8445 -65.8440 -65.8440 -65.8437 -65.8432
   -30.3068 -30.2973 -30.2971 -30.2938 -30.2634 -30.2519 -30.2518 -30.2241
   -30.2226 -30.1971 -30.1971 -30.1744 -30.1641 -30.1542 -30.1539 -30.1438
   -30.1399 -30.1383 -30.1292 -30.1290 -30.0617 -30.0617 -30.0575 -30.0560
   -19.9932 -19.9930 -19.9930 -19.9930 -19.9927 -19.9927 -19.9926 -19.9925
   -19.9829 -19.9825 -19.9825 -19.9818 -19.9818 -19.9810 -19.9810 -19.9807
   -19.9765 -19.9763 -19.9763 -19.9761 -19.9750 -19.9745 -19.9745 -19.9737
   -19.9734 -19.9723 -19.9723 -19.9711 -19.9702 -19.9692 -19.9692 -19.9686
   -19.9649 -19.9642 -19.9633 -19.9633 -19.9626 -19.9625 -19.9615 -19.9607
   -19.9514 -19.9513 -19.9500 -19.9500 -19.9486 -19.9486 -19.9477 -19.9476
   -19.9473 -19.9472 -19.9464 -19.9464 -19.9432 -19.9432 -19.9423 -19.9421
    -9.6425  -9.3098  -9.2610  -9.2581  -8.8758  -8.8711  -8.8689  -8.6907
    -8.6287  -8.5506  -8.5377  -8.5330  -7.8588  -7.8104  -7.7145  -7.7125
    -7.5847  -7.5799  -7.5636  -7.5238  -7.5231  -7.4876  -7.4500  -7.4426
     1.6961   1.7390   1.7405   1.8083   1.8311   1.8383   1.8952   1.8985
     2.0673   2.0696   2.2429   2.3905   2.7643   2.8081   2.8967   2.9386
     2.9974   3.0299   4.2647   4.3071   4.5285   4.5462   4.6540   4.6634
     4.7152   4.7475   4.7917   4.9208   5.0273   5.1006   5.4020   5.4389
     5.4678   5.5962   5.6135   5.7320   5.7675   5.7695   5.8695   5.8758
     5.9546   5.9864   5.9879   5.9965   6.0350   6.2221   6.2296   6.3304
     6.4488   6.7261   6.7577   6.8085   6.8522   6.8638   6.9464   6.9642
     6.9903   6.9946   7.0666   7.1183   7.1674   7.2167   7.2848   7.3418
     7.4927   7.5129   7.9426   7.9564   8.1437   8.1782   8.2215   8.3282
    10.3927  10.4102  10.6018  10.6452  10.7167  10.7998  12.4449  12.4601
    12.5170  12.5231  12.7235  12.8105  12.8866  12.9144  12.9592  13.1532
    13.2627  13.3949  13.5079  13.5317  13.9124  13.9782  14.0747  14.1350
    14.7954  15.0243  15.0245  15.3147  15.6976  15.8059  15.8449  16.3824
    16.4085  17.0912  17.1321  17.2470  17.9107

          k = 0.1667 0.0000 0.3333 ( 61441 PWs)   bands (ev):

   -65.8452 -65.8447 -65.8446 -65.8444 -65.8442 -65.8439 -65.8438 -65.8433
   -30.3026 -30.2983 -30.2861 -30.2837 -30.2668 -30.2582 -30.2480 -30.2308
   -30.2191 -30.2041 -30.1938 -30.1811 -30.1628 -30.1570 -30.1521 -30.1468
   -30.1377 -30.1323 -30.1224 -30.1147 -30.0780 -30.0726 -30.0607 -30.0579
   -19.9932 -19.9930 -19.9930 -19.9929 -19.9928 -19.9927 -19.9927 -19.9925
   -19.9828 -19.9825 -19.9823 -19.9819 -19.9816 -19.9812 -19.9810 -19.9808
   -19.9764 -19.9763 -19.9763 -19.9761 -19.9749 -19.9746 -19.9742 -19.9736
   -19.9734 -19.9725 -19.9720 -19.9714 -19.9700 -19.9695 -19.9691 -19.9688
   -19.9646 -19.9639 -19.9636 -19.9629 -19.9629 -19.9621 -19.9619 -19.9611
   -19.9511 -19.9508 -19.9503 -19.9496 -19.9492 -19.9485 -19.9483 -19.9479
   -19.9471 -19.9466 -19.9464 -19.9456 -19.9441 -19.9432 -19.9430 -19.9424
    -9.5288  -9.3138  -9.1715  -9.1166  -8.9236  -8.9081  -8.6767  -8.6328
    -8.5564  -8.5416  -8.4291  -8.3971  -8.0961  -8.0025  -7.8519  -7.8384
    -7.7550  -7.6921  -7.5745  -7.5531  -7.5272  -7.5244  -7.4984  -7.4691
     1.7158   1.7294   1.8077   1.8279   1.8983   1.9047   2.0562   2.0851
     2.4984   2.6510   2.7036   2.8495   2.8640   2.9812   3.0483   3.1318
     3.1743   3.2692   3.9498   4.0478   4.1395   4.1769   4.2851   4.5157
     4.6010   4.6521   4.7208   4.7597   4.8409   4.9223   5.0469   5.1168
     5.3120   5.3495   5.3811   5.4322   5.5230   5.6756   5.7845   5.8451
     5.9212   5.9339   6.0393   6.0432   6.0919   6.1268   6.1976   6.3405
     6.5366   6.6701   6.6787   6.7295   6.7601   6.8224   6.9334   6.9485
     6.9835   7.0554   7.1254   7.1657   7.2911   7.3282   7.3700   7.4631
     7.5350   7.5936   7.9050   7.9188   8.0717   8.0886   8.2384   8.2887
    10.5707  10.5916  10.9489  11.0888  11.1798  11.3823  12.1524  12.2403
    12.4040  12.5806  12.6416  12.7061  12.8406  12.9754  12.9924  13.1346
    13.2842  13.3222  13.3805  13.5193  13.8228  13.8507  14.0254  14.0493
    14.8756  15.0029  15.2278  15.5671  15.7001  16.0107  16.1046  16.2406
    16.6864  17.1092  17.5809  17.5830  17.6998

          k = 0.1667 0.0000-0.5000 ( 61488 PWs)   bands (ev):

   -65.8450 -65.8450 -65.8444 -65.8444 -65.8441 -65.8441 -65.8436 -65.8436
   -30.3001 -30.3001 -30.2742 -30.2742 -30.2697 -30.2697 -30.2403 -30.2403
   -30.2126 -30.2126 -30.1884 -30.1884 -30.1603 -30.1603 -30.1497 -30.1497
   -30.1354 -30.1354 -30.1002 -30.1002 -30.0940 -30.0940 -30.0594 -30.0594
   -19.9931 -19.9931 -19.9929 -19.9929 -19.9928 -19.9928 -19.9926 -19.9926
   -19.9826 -19.9826 -19.9821 -19.9821 -19.9814 -19.9814 -19.9809 -19.9809
   -19.9764 -19.9764 -19.9762 -19.9762 -19.9747 -19.9747 -19.9738 -19.9738
   -19.9729 -19.9729 -19.9717 -19.9717 -19.9697 -19.9697 -19.9690 -19.9689
   -19.9641 -19.9641 -19.9634 -19.9634 -19.9624 -19.9624 -19.9616 -19.9616
   -19.9507 -19.9507 -19.9501 -19.9501 -19.9490 -19.9490 -19.9482 -19.9482
   -19.9468 -19.9468 -19.9453 -19.9453 -19.9444 -19.9444 -19.9427 -19.9427
    -9.4061  -9.4061  -9.0226  -9.0226  -8.9840  -8.9840  -8.5860  -8.5860
    -8.4075  -8.4075  -8.3307  -8.3307  -8.1839  -8.1839  -8.1119  -8.1119
    -7.7541  -7.7541  -7.5608  -7.5608  -7.5134  -7.5134  -7.5010  -7.5010
     1.7206   1.7206   1.8188   1.8188   1.9076   1.9076   2.0924   2.0924
     2.9039   2.9039   3.2036   3.2036   3.2978   3.2978   3.4108   3.4108
     3.5051   3.5051   3.6086   3.6087   3.8227   3.8227   4.0092   4.0092
     4.0978   4.0979   4.6392   4.6392   4.7597   4.7597   5.1602   5.1602
     5.2236   5.2236   5.3388   5.3388   5.5405   5.5405   5.8622   5.8622
     5.8952   5.8952   5.9800   5.9800   6.0978   6.0978   6.2855   6.2855
     6.5336   6.5336   6.6754   6.6754   6.7477   6.7478   6.9410   6.9410
     7.0697   7.0697   7.1660   7.1660   7.2351   7.2351   7.7021   7.7021
     7.7376   7.7376   7.8575   7.8576   7.9028   7.9028   8.2591   8.2591
    10.5984  10.5984  11.5672  11.5672  11.7550  11.7550  11.7850  11.7850
    12.0914  12.0914  12.7095  12.7095  12.9774  12.9775  13.0766  13.0766
    13.2049  13.2049  13.5602  13.5602  13.6181  13.6181  14.0216  14.0216
    14.9596  14.9596  15.5017  15.5017  15.9090  15.9090  16.3328  16.3328
    16.8315  16.8315  17.9348  17.9348  18.2229

          k = 0.1667 0.1607 0.1667 ( 61463 PWs)   bands (ev):

   -65.8454 -65.8449 -65.8445 -65.8445 -65.8440 -65.8440 -65.8437 -65.8432
   -30.3054 -30.2965 -30.2963 -30.2943 -30.2600 -30.2504 -30.2503 -30.2259
   -30.2191 -30.1964 -30.1964 -30.1732 -30.1684 -30.1571 -30.1569 -30.1468
   -30.1398 -30.1384 -30.1293 -30.1292 -30.0617 -30.0617 -30.0574 -30.0561
   -19.9932 -19.9931 -19.9930 -19.9930 -19.9927 -19.9927 -19.9926 -19.9925
   -19.9827 -19.9824 -19.9824 -19.9818 -19.9816 -19.9810 -19.9810 -19.9807
   -19.9763 -19.9761 -19.9761 -19.9759 -19.9751 -19.9746 -19.9746 -19.9736
   -19.9735 -19.9723 -19.9723 -19.9710 -19.9705 -19.9695 -19.9695 -19.9689
   -19.9649 -19.9643 -19.9633 -19.9633 -19.9626 -19.9626 -19.9615 -19.9608
   -19.9514 -19.9513 -19.9500 -19.9500 -19.9486 -19.9486 -19.9477 -19.9476
   -19.9473 -19.9472 -19.9464 -19.9464 -19.9432 -19.9432 -19.9423 -19.9422
    -9.6082  -9.3228  -9.2225  -9.2194  -8.8711  -8.8656  -8.7969  -8.6690
    -8.6281  -8.5292  -8.5114  -8.5072  -7.8696  -7.8120  -7.7333  -7.7260
    -7.6673  -7.6265  -7.6211  -7.5902  -7.5672  -7.5559  -7.4478  -7.4432
     1.7695   1.7964   1.8027   1.8122   1.9339   1.9686   1.9726   2.0512
     2.1566   2.1617   2.2431   2.4509   2.7855   2.8742   2.8893   3.0248
     3.0778   3.0997   4.1967   4.2209   4.4079   4.4213   4.5538   4.6031
     4.6713   4.7271   4.7344   4.9391   4.9686   5.0087   5.2857   5.3661
     5.3755   5.5638   5.5646   5.6505   5.6933   5.7124   5.7316   5.8093
     5.9230   5.9579   5.9751   6.0589   6.0866   6.1451   6.2161   6.2296
     6.5214   6.6773   6.7117   6.8261   6.8740   6.8919   6.9593   6.9697
     7.0356   7.0428   7.1118   7.1435   7.1976   7.2271   7.3100   7.3378
     7.4934   7.5110   7.9396   7.9555   8.1248   8.1511   8.1896   8.2608
    10.4425  10.4628  10.7561  10.7638  10.8223  10.9163  12.4341  12.4481
    12.4916  12.5056  12.7206  12.7288  12.8344  12.8709  12.9836  13.0082
    13.2243  13.3420  13.5047  13.5091  13.9194  13.9232  14.0552  14.0618
    14.9641  15.2134  15.2243  15.4362  15.6891  15.8500  16.1832  16.3871
    16.3918  16.9737  17.2293  17.2347  17.9163

          k = 0.1667 0.1607 0.3333 ( 61461 PWs)   bands (ev):

   -65.8452 -65.8447 -65.8447 -65.8443 -65.8442 -65.8439 -65.8438 -65.8434
   -30.3015 -30.2974 -30.2851 -30.2836 -30.2637 -30.2572 -30.2471 -30.2322
   -30.2159 -30.2025 -30.1930 -30.1798 -30.1670 -30.1605 -30.1552 -30.1499
   -30.1378 -30.1324 -30.1224 -30.1148 -30.0780 -30.0726 -30.0607 -30.0579
   -19.9932 -19.9930 -19.9930 -19.9929 -19.9928 -19.9927 -19.9927 -19.9926
   -19.9826 -19.9824 -19.9822 -19.9818 -19.9817 -19.9812 -19.9810 -19.9808
   -19.9763 -19.9762 -19.9761 -19.9760 -19.9749 -19.9746 -19.9743 -19.9737
   -19.9733 -19.9725 -19.9720 -19.9713 -19.9703 -19.9697 -19.9694 -19.9690
   -19.9645 -19.9639 -19.9636 -19.9630 -19.9629 -19.9622 -19.9618 -19.9612
   -19.9511 -19.9508 -19.9503 -19.9496 -19.9492 -19.9485 -19.9483 -19.9479
   -19.9471 -19.9466 -19.9464 -19.9456 -19.9441 -19.9432 -19.9430 -19.9424
    -9.4917  -9.2752  -9.1831  -9.0634  -8.9232  -8.8341  -8.6738  -8.6012
    -8.5423  -8.5269  -8.4227  -8.3853  -8.0977  -8.0064  -7.8598  -7.8443
    -7.7627  -7.7026  -7.6618  -7.6304  -7.6196  -7.5967  -7.5369  -7.4689
     1.8029   1.8123   1.9736   1.9843   2.0164   2.0281   2.1174   2.1631
     2.5020   2.6571   2.7072   2.8541   2.9427   3.0366   3.0846   3.1620
     3.2224   3.3301   3.9519   4.0593   4.1047   4.1635   4.3060   4.4305
     4.5016   4.5907   4.6401   4.7112   4.7642   4.8719   5.0194   5.0233
     5.1836   5.2145   5.2807   5.3357   5.4795   5.5239   5.6415   5.7451
     5.8532   5.8775   5.9736   6.0043   6.0564   6.1281   6.1497   6.1773
     6.5803   6.6605   6.7675   6.8065   6.8282   6.8941   6.9618   7.0212
     7.0489   7.0656   7.1565   7.2242   7.2890   7.3352   7.3728   7.4672
     7.5429   7.6017   7.9018   7.9192   8.0590   8.0677   8.1951   8.2287
    10.7131  10.7251  10.9897  11.1255  11.2689  11.4469  12.1546  12.2571
    12.4156  12.5826  12.6408  12.7171  12.8084  12.8705  12.9616  13.0419
    13.1614  13.2760  13.3456  13.4910  13.7370  13.7709  13.9800  14.0129
    15.0965  15.2033  15.4944  15.6569  15.9944  16.0870  16.1303  16.2802
    16.7593  17.0971  17.3865  17.6465  17.6791

          k = 0.1667 0.1607-0.5000 ( 61468 PWs)   bands (ev):

   -65.8449 -65.8449 -65.8444 -65.8444 -65.8441 -65.8441 -65.8436 -65.8436
   -30.2991 -30.2991 -30.2719 -30.2719 -30.2692 -30.2692 -30.2407 -30.2407
   -30.2100 -30.2100 -30.1873 -30.1873 -30.1643 -30.1643 -30.1528 -30.1528
   -30.1354 -30.1354 -30.1002 -30.1002 -30.0940 -30.0940 -30.0594 -30.0594
   -19.9931 -19.9931 -19.9929 -19.9929 -19.9928 -19.9928 -19.9926 -19.9926
   -19.9825 -19.9825 -19.9820 -19.9820 -19.9815 -19.9815 -19.9809 -19.9809
   -19.9762 -19.9762 -19.9760 -19.9760 -19.9748 -19.9748 -19.9740 -19.9740
   -19.9728 -19.9728 -19.9716 -19.9716 -19.9700 -19.9700 -19.9692 -19.9692
   -19.9641 -19.9640 -19.9634 -19.9634 -19.9624 -19.9624 -19.9617 -19.9617
   -19.9507 -19.9507 -19.9501 -19.9501 -19.9490 -19.9490 -19.9482 -19.9482
   -19.9468 -19.9468 -19.9453 -19.9453 -19.9444 -19.9444 -19.9427 -19.9427
    -9.3675  -9.3675  -9.0286  -9.0286  -8.9154  -8.9154  -8.5550  -8.5550
    -8.4074  -8.4074  -8.3322  -8.3322  -8.1834  -8.1834  -8.1130  -8.1130
    -7.7626  -7.7625  -7.6470  -7.6470  -7.6134  -7.6134  -7.5025  -7.5025
     1.8082   1.8082   1.9867   1.9867   2.0261   2.0261   2.1645   2.1645
     2.9756   2.9756   3.2172   3.2172   3.3053   3.3053   3.4366   3.4366
     3.5091   3.5091   3.6197   3.6197   3.8314   3.8314   4.0468   4.0469
     4.1071   4.1071   4.5319   4.5319   4.6656   4.6656   4.9798   4.9798
     5.1394   5.1394   5.2834   5.2834   5.3736   5.3736   5.7246   5.7246
     5.8578   5.8578   5.9195   5.9195   6.0318   6.0319   6.1313   6.1313
     6.6421   6.6421   6.7891   6.7891   6.8540   6.8540   6.9666   6.9666
     7.1033   7.1033   7.1664   7.1664   7.2754   7.2754   7.7028   7.7028
     7.7333   7.7333   7.8571   7.8571   7.8962   7.8962   8.2077   8.2077
    10.7462  10.7462  11.5846  11.5846  11.7680  11.7680  11.8488  11.8488
    12.1319  12.1319  12.7177  12.7177  12.8873  12.8873  13.0170  13.0170
    13.1798  13.1798  13.4440  13.4440  13.5402  13.5402  13.9781  13.9781
    15.1702  15.1702  15.7914  15.7914  16.0263  16.0263  16.3685  16.3686
    16.8662  16.8662  17.8583  17.8583  18.1340

          k = 0.1667 0.3214 0.1667 ( 61459 PWs)   bands (ev):

   -65.8452 -65.8450 -65.8444 -65.8444 -65.8441 -65.8441 -65.8436 -65.8433
   -30.3023 -30.2963 -30.2947 -30.2946 -30.2513 -30.2469 -30.2469 -30.2314
   -30.2093 -30.1944 -30.1944 -30.1798 -30.1693 -30.1640 -30.1638 -30.1541
   -30.1396 -30.1388 -30.1295 -30.1294 -30.0617 -30.0617 -30.0571 -30.0564
   -19.9932 -19.9931 -19.9930 -19.9929 -19.9927 -19.9927 -19.9926 -19.9925
   -19.9825 -19.9822 -19.9821 -19.9819 -19.9813 -19.9811 -19.9811 -19.9808
   -19.9760 -19.9757 -19.9757 -19.9754 -19.9753 -19.9748 -19.9748 -19.9740
   -19.9731 -19.9722 -19.9721 -19.9713 -19.9707 -19.9700 -19.9700 -19.9695
   -19.9647 -19.9644 -19.9632 -19.9631 -19.9628 -19.9627 -19.9613 -19.9609
   -19.9514 -19.9514 -19.9500 -19.9500 -19.9486 -19.9486 -19.9477 -19.9476
   -19.9473 -19.9472 -19.9464 -19.9464 -19.9432 -19.9432 -19.9423 -19.9422
    -9.5245  -9.3633  -9.1437  -9.1411  -8.8614  -8.8572  -8.6382  -8.6271
    -8.5830  -8.4250  -8.4105  -8.4071  -7.9880  -7.9148  -7.9147  -7.8861
    -7.8070  -7.7898  -7.6844  -7.6767  -7.5700  -7.5629  -7.4474  -7.4448
     1.7882   1.7980   1.8221   1.8239   2.0102   2.0113   2.1735   2.2394
     2.5748   2.6833   2.6992   2.8148   2.8383   2.8932   3.0892   3.2894
     3.3154   3.3401   3.9059   3.9158   3.9493   4.0282   4.2793   4.5837
     4.6235   4.6569   4.6701   4.7594   4.8033   4.9962   5.0265   5.0980
     5.1297   5.1852   5.3565   5.3783   5.5629   5.6144   5.6677   5.6908
     5.8833   5.8845   5.9294   5.9396   5.9916   6.0591   6.2160   6.2212
     6.6144   6.6988   6.7354   6.8399   6.9364   6.9543   6.9945   7.0501
     7.1928   7.2036   7.2291   7.2419   7.3334   7.3353   7.3667   7.3851
     7.5237   7.5306   7.9089   7.9452   8.0236   8.0304   8.0611   8.0668
    10.4995  10.5123  11.1363  11.1636  11.1870  11.3119  12.2187  12.2513
    12.3182  12.4470  12.4940  12.5445  12.7890  12.8142  12.9109  12.9954
    13.2564  13.3183  13.4816  13.4999  13.7235  13.7451  13.8867  13.9296
    15.3628  15.6132  15.6364  15.6950  15.8327  16.0786  16.3264  16.3346
    16.5184  17.1259  17.5301  17.6034  17.6807

          k = 0.1667 0.3214 0.3333 ( 61465 PWs)   bands (ev):

   -65.8451 -65.8448 -65.8446 -65.8443 -65.8442 -65.8439 -65.8438 -65.8435
   -30.2990 -30.2958 -30.2850 -30.2817 -30.2561 -30.2547 -30.2451 -30.2365
   -30.2067 -30.1978 -30.1907 -30.1781 -30.1760 -30.1691 -30.1622 -30.1574
   -30.1378 -30.1325 -30.1225 -30.1149 -30.0780 -30.0726 -30.0607 -30.0579
   -19.9931 -19.9930 -19.9930 -19.9929 -19.9928 -19.9927 -19.9927 -19.9926
   -19.9824 -19.9822 -19.9820 -19.9818 -19.9815 -19.9813 -19.9810 -19.9809
   -19.9759 -19.9758 -19.9757 -19.9755 -19.9751 -19.9749 -19.9746 -19.9741
   -19.9728 -19.9723 -19.9718 -19.9711 -19.9709 -19.9703 -19.9699 -19.9696
   -19.9644 -19.9640 -19.9635 -19.9631 -19.9628 -19.9623 -19.9617 -19.9613
   -19.9511 -19.9509 -19.9503 -19.9496 -19.9492 -19.9485 -19.9483 -19.9479
   -19.9471 -19.9466 -19.9464 -19.9456 -19.9441 -19.9432 -19.9430 -19.9424
    -9.4036  -9.2203  -9.1929  -8.9439  -8.9234  -8.6667  -8.6225  -8.5466
    -8.5200  -8.4244  -8.3744  -8.3303  -8.1158  -8.0458  -7.9487  -7.9260
    -7.8948  -7.8668  -7.8124  -7.7794  -7.7230  -7.6767  -7.5395  -7.4698
     1.8268   1.8410   2.0181   2.0409   2.4102   2.4995   2.5477   2.6353
     2.6965   2.7392   2.7664   2.9354   3.0746   3.1449   3.1859   3.2987
     3.4714   3.5143   3.8621   3.9265   3.9638   4.0325   4.1295   4.1964
     4.2684   4.4650   4.5328   4.6038   4.6968   4.7606   4.7867   4.8832
     4.9858   5.0612   5.0981   5.1633   5.1877   5.2732   5.3727   5.4320
     5.5583   5.6072   5.6591   5.8534   5.9466   6.0190   6.1393   6.1605
     6.7370   6.7587   6.8592   6.8918   6.9799   7.0879   7.1475   7.1513
     7.2114   7.2404   7.2518   7.3198   7.3304   7.3708   7.4384   7.4805
     7.5805   7.6287   7.8720   7.9185   7.9672   7.9879   8.0433   8.0539
    10.9544  11.0170  11.1936  11.2729  11.5652  11.6924  12.1307  12.2219
    12.3691  12.4294  12.5046  12.5829  12.7109  12.8057  12.8349  12.9499
    13.0615  13.1730  13.2843  13.4484  13.5133  13.6066  13.8013  13.8456
    15.5044  15.6287  15.8602  16.0981  16.1874  16.2935  16.3334  16.9025
    16.9770  17.0450  17.1629  17.7325  17.8213

          k = 0.1667 0.3214-0.5000 ( 61460 PWs)   bands (ev):

   -65.8448 -65.8448 -65.8445 -65.8445 -65.8440 -65.8440 -65.8437 -65.8437
   -30.2972 -30.2972 -30.2689 -30.2689 -30.2663 -30.2663 -30.2418 -30.2418
   -30.2025 -30.2025 -30.1843 -30.1843 -30.1745 -30.1745 -30.1601 -30.1601
   -30.1355 -30.1355 -30.1002 -30.1002 -30.0940 -30.0940 -30.0594 -30.0594
   -19.9931 -19.9931 -19.9929 -19.9929 -19.9928 -19.9927 -19.9927 -19.9926
   -19.9823 -19.9823 -19.9817 -19.9817 -19.9816 -19.9816 -19.9810 -19.9810
   -19.9759 -19.9759 -19.9756 -19.9756 -19.9750 -19.9750 -19.9743 -19.9743
   -19.9725 -19.9725 -19.9713 -19.9713 -19.9707 -19.9707 -19.9698 -19.9698
   -19.9639 -19.9639 -19.9636 -19.9635 -19.9622 -19.9622 -19.9618 -19.9618
   -19.9507 -19.9507 -19.9501 -19.9501 -19.9490 -19.9490 -19.9482 -19.9482
   -19.9468 -19.9468 -19.9453 -19.9453 -19.9444 -19.9444 -19.9427 -19.9427
    -9.2820  -9.2820  -9.0471  -9.0471  -8.7321  -8.7321  -8.4579  -8.4579
    -8.4047  -8.4047  -8.3397  -8.3397  -8.1800  -8.1799  -8.1196  -8.1196
    -7.9037  -7.9037  -7.8566  -7.8566  -7.7292  -7.7292  -7.5040  -7.5039
     1.8368   1.8368   2.0428   2.0428   2.5716   2.5717   2.7003   2.7003
     3.1635   3.1635   3.2609   3.2609   3.3067   3.3067   3.4970   3.4970
     3.5215   3.5215   3.6506   3.6506   3.8439   3.8439   3.9806   3.9806
     4.1537   4.1537   4.2921   4.2921   4.4571   4.4572   4.6008   4.6008
     4.9798   4.9798   5.0926   5.0926   5.2425   5.2425   5.2968   5.2968
     5.3924   5.3924   5.7337   5.7337   5.9979   5.9979   6.0458   6.0458
     6.7773   6.7773   6.9688   6.9688   7.0267   7.0267   7.0984   7.0984
     7.2521   7.2521   7.2945   7.2946   7.3825   7.3825   7.6894   7.6894
     7.7290   7.7290   7.8246   7.8246   7.8631   7.8632   8.0429   8.0429
    11.1444  11.1444  11.6219  11.6219  11.7875  11.7875  12.0260  12.0260
    12.2800  12.2800  12.4960  12.4960  12.7775  12.7775  12.8765  12.8765
    13.0745  13.0745  13.1984  13.1984  13.4684  13.4684  13.7877  13.7877
    15.5775  15.5775  16.0512  16.0512  16.6203  16.6203  16.7534  16.7534
    16.9878  16.9878  17.5870  17.5870  17.9928

          k = 0.1667-0.4821 0.1667 ( 61500 PWs)   bands (ev):

   -65.8451 -65.8451 -65.8443 -65.8443 -65.8442 -65.8442 -65.8434 -65.8434
   -30.2989 -30.2988 -30.2940 -30.2940 -30.2450 -30.2450 -30.2404 -30.2404
   -30.1949 -30.1949 -30.1928 -30.1928 -30.1682 -30.1682 -30.1626 -30.1625
   -30.1393 -30.1393 -30.1296 -30.1295 -30.0617 -30.0617 -30.0567 -30.0567
   -19.9931 -19.9931 -19.9929 -19.9929 -19.9927 -19.9927 -19.9926 -19.9926
   -19.9822 -19.9821 -19.9820 -19.9820 -19.9811 -19.9811 -19.9810 -19.9810
   -19.9756 -19.9756 -19.9753 -19.9752 -19.9751 -19.9751 -19.9747 -19.9747
   -19.9723 -19.9723 -19.9721 -19.9720 -19.9704 -19.9704 -19.9702 -19.9701
   -19.9646 -19.9646 -19.9630 -19.9630 -19.9629 -19.9629 -19.9611 -19.9611
   -19.9514 -19.9514 -19.9500 -19.9500 -19.9486 -19.9486 -19.9477 -19.9477
   -19.9472 -19.9472 -19.9464 -19.9464 -19.9432 -19.9432 -19.9422 -19.9422
    -9.4329  -9.4329  -9.1039  -9.1039  -8.8532  -8.8531  -8.6279  -8.6279
    -8.2813  -8.2813  -8.2155  -8.2155  -8.1951  -8.1951  -8.1784  -8.1783
    -7.8089  -7.8089  -7.6863  -7.6863  -7.5672  -7.5672  -7.4464  -7.4464
     1.7933   1.7934   1.8247   1.8247   2.0149   2.0149   2.2279   2.2279
     2.8370   2.8370   3.1329   3.1329   3.2631   3.2631   3.4995   3.4995
     3.5300   3.5300   3.7021   3.7021   3.7985   3.7986   3.9963   3.9963
     4.0592   4.0592   4.6169   4.6169   4.7073   4.7073   5.1745   5.1745
     5.2379   5.2379   5.3293   5.3293   5.4036   5.4036   5.6912   5.6912
     5.7486   5.7486   5.9258   5.9258   5.9801   5.9801   6.2235   6.2235
     6.6837   6.6838   6.7933   6.7933   6.9393   6.9393   7.0516   7.0516
     7.2482   7.2482   7.2813   7.2813   7.4383   7.4383   7.5830   7.5830
     7.6930   7.6930   7.7863   7.7863   7.8467   7.8467   7.9765   7.9765
    10.5191  10.5191  11.5796  11.5796  11.6601  11.6601  11.8733  11.8733
    11.9858  11.9858  12.4949  12.4949  12.8142  12.8142  12.9563  12.9563
    13.4169  13.4169  13.4843  13.4843  13.5229  13.5229  13.8138  13.8138
    15.5973  15.5973  15.8878  15.8878  16.0709  16.0709  16.2661  16.2661
    16.9142  16.9142  18.0471  18.0471  18.1629

          k = 0.1667-0.4821 0.3333 ( 61510 PWs)   bands (ev):

   -65.8449 -65.8449 -65.8445 -65.8444 -65.8441 -65.8441 -65.8436 -65.8436
   -30.2978 -30.2950 -30.2853 -30.2804 -30.2538 -30.2491 -30.2439 -30.2413
   -30.1948 -30.1935 -30.1909 -30.1887 -30.1756 -30.1717 -30.1667 -30.1635
   -30.1378 -30.1326 -30.1226 -30.1149 -30.0780 -30.0726 -30.0608 -30.0579
   -19.9931 -19.9930 -19.9930 -19.9928 -19.9928 -19.9927 -19.9926 -19.9926
   -19.9821 -19.9821 -19.9819 -19.9818 -19.9813 -19.9812 -19.9811 -19.9810
   -19.9756 -19.9754 -19.9753 -19.9752 -19.9751 -19.9751 -19.9748 -19.9748
   -19.9723 -19.9721 -19.9719 -19.9716 -19.9707 -19.9705 -19.9703 -19.9702
   -19.9643 -19.9642 -19.9633 -19.9633 -19.9627 -19.9624 -19.9616 -19.9614
   -19.9511 -19.9509 -19.9503 -19.9496 -19.9492 -19.9485 -19.9483 -19.9479
   -19.9471 -19.9466 -19.9464 -19.9456 -19.9441 -19.9432 -19.9430 -19.9424
    -9.3356  -9.2610  -9.1516  -8.9247  -8.8771  -8.6550  -8.5464  -8.4924
    -8.3405  -8.3161  -8.2388  -8.2116  -8.1972  -8.1865  -8.1762  -8.1429
    -8.0415  -7.9456  -7.8294  -7.8002  -7.7329  -7.6793  -7.5401  -7.4702
     1.8292   1.8433   2.0219   2.0441   2.4529   2.6173   2.6325   2.7783
     3.0860   3.0893   3.1485   3.1609   3.3269   3.3553   3.4378   3.4940
     3.5198   3.5340   3.7083   3.7588   3.8590   3.9546   3.9853   4.0521
     4.0558   4.0941   4.1552   4.2153   4.5629   4.5869   4.7986   4.8254
     4.8914   4.9572   5.0536   5.1371   5.1757   5.2389   5.2743   5.3336
     5.3823   5.4704   5.5863   5.6820   5.9368   5.9778   6.1379   6.1610
     6.7790   6.7931   6.8815   6.9163   6.9962   7.1692   7.2051   7.2396
     7.2517   7.3144   7.3392   7.3966   7.4463   7.4734   7.5688   7.6228
     7.6777   7.7213   7.7694   7.8049   7.8377   7.8461   7.9419   7.9466
    10.9967  11.0783  11.5830  11.6594  11.8374  11.8832  11.9650  12.0523
    12.1747  12.2057  12.2654  12.4376  12.6780  12.8547  12.9110  12.9540
    13.0346  13.1508  13.2333  13.3054  13.4938  13.5339  13.6765  13.7183
    15.6253  15.8412  15.9126  16.1771  16.3676  16.6074  16.6566  16.8811
    17.0613  17.0980  17.6663  17.7189  17.9686

          k = 0.1667-0.4821-0.5000 ( 61452 PWs)   bands (ev):

   -65.8447 -65.8447 -65.8447 -65.8447 -65.8439 -65.8439 -65.8438 -65.8438
   -30.2964 -30.2964 -30.2683 -30.2683 -30.2635 -30.2635 -30.2426 -30.2426
   -30.1943 -30.1943 -30.1842 -30.1842 -30.1815 -30.1815 -30.1650 -30.1650
   -30.1355 -30.1355 -30.1003 -30.1003 -30.0940 -30.0940 -30.0594 -30.0594
   -19.9931 -19.9930 -19.9929 -19.9929 -19.9927 -19.9927 -19.9927 -19.9927
   -19.9821 -19.9821 -19.9816 -19.9816 -19.9815 -19.9815 -19.9811 -19.9811
   -19.9755 -19.9755 -19.9753 -19.9753 -19.9750 -19.9750 -19.9749 -19.9749
   -19.9722 -19.9722 -19.9713 -19.9713 -19.9711 -19.9711 -19.9702 -19.9702
   -19.9638 -19.9638 -19.9637 -19.9637 -19.9621 -19.9621 -19.9619 -19.9619
   -19.9507 -19.9507 -19.9501 -19.9501 -19.9490 -19.9490 -19.9482 -19.9482
   -19.9468 -19.9468 -19.9453 -19.9453 -19.9444 -19.9444 -19.9427 -19.9427
    -9.2317  -9.2317  -9.0629  -9.0629  -8.5728  -8.5728  -8.4301  -8.4301
    -8.3761  -8.3761  -8.3048  -8.3048  -8.1749  -8.1749  -8.1355  -8.1355
    -8.0855  -8.0855  -8.0051  -8.0051  -7.7351  -7.7351  -7.5044  -7.5044
     1.8396   1.8396   2.0474   2.0475   3.0464   3.0464   3.2218   3.2218
     3.2897   3.2897   3.3125   3.3125   3.3721   3.3722   3.4721   3.4721
     3.5911   3.5911   3.6346   3.6346   3.7119   3.7119   3.8355   3.8355
     3.9563   3.9563   4.1127   4.1127   4.5033   4.5033   4.5633   4.5633
     4.6279   4.6279   4.7112   4.7112   5.1142   5.1142   5.2797   5.2797
     5.3758   5.3758   5.5672   5.5672   5.9894   5.9894   6.0252   6.0252
     6.8096   6.8096   7.0156   7.0156   7.0453   7.0453   7.1563   7.1563
     7.4122   7.4122   7.4477   7.4477   7.5609   7.5609   7.6446   7.6447
     7.7262   7.7262   7.7775   7.7775   7.8300   7.8300   7.8697   7.8697
    11.4824  11.4824  11.6895  11.6895  11.7819  11.7819  11.9820  11.9820
    12.3885  12.3885  12.4886  12.4886  12.6268  12.6268  12.6918  12.6918
    12.9767  12.9767  13.1327  13.1328  13.5428  13.5428  13.5922  13.5922
    15.7320  15.7320  16.0801  16.0801  17.0384  17.0384  17.2300  17.2300
    17.4103  17.4103  17.5303  17.5303  17.6539

          k = 0.3333 0.0000 0.3333 ( 61456 PWs)   bands (ev):

   -65.8450 -65.8446 -65.8445 -65.8445 -65.8441 -65.8440 -65.8440 -65.8435
   -30.2946 -30.2874 -30.2870 -30.2778 -30.2697 -30.2546 -30.2542 -30.2372
   -30.2157 -30.2010 -30.2008 -30.1878 -30.1616 -30.1559 -30.1554 -30.1502
   -30.1220 -30.1204 -30.1172 -30.1167 -30.0771 -30.0769 -30.0747 -30.0731
   -19.9931 -19.9929 -19.9929 -19.9929 -19.9928 -19.9927 -19.9927 -19.9926
   -19.9827 -19.9824 -19.9824 -19.9820 -19.9815 -19.9812 -19.9811 -19.9809
   -19.9764 -19.9763 -19.9763 -19.9762 -19.9747 -19.9743 -19.9743 -19.9737
   -19.9731 -19.9723 -19.9723 -19.9716 -19.9698 -19.9693 -19.9693 -19.9689
   -19.9642 -19.9635 -19.9633 -19.9632 -19.9625 -19.9625 -19.9622 -19.9615
   -19.9506 -19.9505 -19.9499 -19.9499 -19.9491 -19.9490 -19.9485 -19.9484
   -19.9463 -19.9462 -19.9458 -19.9458 -19.9439 -19.9439 -19.9434 -19.9433
    -9.4017  -9.1758  -9.1655  -9.0084  -8.9494  -8.7344  -8.7110  -8.5820
    -8.4440  -8.4239  -8.4232  -8.3746  -8.1098  -8.0598  -8.0327  -8.0091
    -7.8259  -7.8111  -7.7619  -7.7282  -7.5638  -7.5363  -7.5359  -7.5093
     1.7650   1.7888   1.7959   1.8162   2.4466   2.4527   2.5092   2.5174
     2.6811   2.6850   2.8114   2.9183   3.0356   3.1661   3.2095   3.2186
     3.4243   3.4595   3.8972   4.0125   4.0818   4.1095   4.2392   4.3019
     4.3464   4.3983   4.4934   4.5640   4.6578   4.7049   4.8162   4.8406
     4.9388   5.0741   5.2345   5.2657   5.3132   5.3356   5.4122   5.6203
     5.6298   5.7122   5.7463   5.8823   6.1416   6.1729   6.1772   6.3482
     6.6125   6.6736   6.6897   6.7138   6.7426   6.7497   6.7638   6.8056
     7.1932   7.2766   7.3531   7.3743   7.4468   7.4893   7.5471   7.5555
     7.5963   7.6687   7.8764   7.8787   8.0350   8.0661   8.1786   8.2177
    10.9896  11.0605  11.2003  11.2244  11.5115  11.6517  12.2652  12.2766
    12.3326  12.3810  12.5088  12.5287  12.7645  12.7769  13.1018  13.1044
    13.1753  13.3078  13.3537  13.3805  13.7260  13.8088  13.8420  13.9411
    14.9898  15.1943  15.2010  15.6146  15.9810  16.3220  16.4691  16.7148
    16.9967  17.0978  17.3627  17.7589  17.7670

          k = 0.3333 0.0000-0.5000 ( 61486 PWs)   bands (ev):

   -65.8448 -65.8448 -65.8443 -65.8443 -65.8442 -65.8442 -65.8437 -65.8437
   -30.2896 -30.2896 -30.2761 -30.2761 -30.2656 -30.2656 -30.2467 -30.2467
   -30.2093 -30.2093 -30.1953 -30.1953 -30.1592 -30.1592 -30.1533 -30.1533
   -30.1193 -30.1193 -30.0991 -30.0991 -30.0956 -30.0956 -30.0755 -30.0755
   -19.9930 -19.9930 -19.9928 -19.9928 -19.9928 -19.9928 -19.9927 -19.9927
   -19.9825 -19.9825 -19.9822 -19.9822 -19.9814 -19.9814 -19.9811 -19.9811
   -19.9764 -19.9764 -19.9763 -19.9763 -19.9745 -19.9745 -19.9740 -19.9740
   -19.9727 -19.9727 -19.9719 -19.9719 -19.9696 -19.9696 -19.9691 -19.9691
   -19.9637 -19.9637 -19.9630 -19.9630 -19.9627 -19.9627 -19.9620 -19.9620
   -19.9502 -19.9502 -19.9499 -19.9499 -19.9492 -19.9492 -19.9488 -19.9488
   -19.9460 -19.9460 -19.9451 -19.9451 -19.9446 -19.9446 -19.9436 -19.9436
    -9.2671  -9.2671  -9.0323  -9.0323  -8.8288  -8.8288  -8.5009  -8.5009
    -8.4313  -8.4313  -8.2799  -8.2799  -8.2258  -8.2258  -8.1218  -8.1218
    -7.9666  -7.9666  -7.7818  -7.7818  -7.5512  -7.5512  -7.5238  -7.5238
     1.7778   1.7778   1.8056   1.8056   2.5170   2.5170   2.6830   2.6830
     3.0811   3.0811   3.2470   3.2470   3.3152   3.3152   3.4525   3.4525
     3.5401   3.5401   3.7495   3.7495   3.9260   3.9260   4.0052   4.0052
     4.1841   4.1841   4.2424   4.2424   4.4610   4.4610   4.6603   4.6603
     4.9276   4.9276   5.1633   5.1633   5.2893   5.2893   5.3685   5.3685
     5.5424   5.5424   5.7850   5.7850   6.1896   6.1896   6.3081   6.3081
     6.5838   6.5838   6.6510   6.6510   6.7237   6.7237   6.7478   6.7478
     7.3402   7.3402   7.4532   7.4532   7.5327   7.5327   7.7167   7.7167
     7.7532   7.7532   7.8719   7.8719   7.9032   7.9032   8.1667   8.1667
    11.1225  11.1225  11.7272  11.7272  11.7933  11.7933  12.0011  12.0011
    12.2316  12.2316  12.3936  12.3936  12.7705  12.7705  13.0059  13.0059
    13.1975  13.1975  13.5042  13.5042  13.5479  13.5479  13.8512  13.8512
    15.1213  15.1213  15.4447  15.4447  16.4055  16.4055  16.8341  16.8341
    17.0791  17.0791  17.6159  17.6159  18.1292

          k = 0.3333 0.1607 0.3333 ( 61466 PWs)   bands (ev):

   -65.8450 -65.8445 -65.8445 -65.8445 -65.8440 -65.8440 -65.8440 -65.8435
   -30.2928 -30.2859 -30.2856 -30.2785 -30.2667 -30.2542 -30.2538 -30.2386
   -30.2127 -30.1993 -30.1991 -30.1861 -30.1657 -30.1594 -30.1589 -30.1535
   -30.1219 -30.1206 -30.1172 -30.1168 -30.0771 -30.0769 -30.0746 -30.0732
   -19.9931 -19.9929 -19.9929 -19.9929 -19.9928 -19.9928 -19.9927 -19.9926
   -19.9825 -19.9823 -19.9823 -19.9819 -19.9816 -19.9812 -19.9812 -19.9809
   -19.9763 -19.9762 -19.9762 -19.9760 -19.9747 -19.9744 -19.9744 -19.9739
   -19.9730 -19.9722 -19.9722 -19.9715 -19.9701 -19.9696 -19.9696 -19.9692
   -19.9641 -19.9635 -19.9632 -19.9632 -19.9626 -19.9625 -19.9622 -19.9615
   -19.9506 -19.9506 -19.9499 -19.9499 -19.9491 -19.9490 -19.9485 -19.9484
   -19.9463 -19.9462 -19.9458 -19.9458 -19.9439 -19.9439 -19.9434 -19.9433
    -9.3584  -9.1246  -9.1129  -9.0210  -8.8765  -8.7359  -8.7116  -8.5530
    -8.4340  -8.4183  -8.4086  -8.3696  -8.1183  -8.0587  -8.0362  -8.0081
    -7.8300  -7.8158  -7.7710  -7.7292  -7.6558  -7.6301  -7.6294  -7.6023
     1.9711   2.0023   2.0084   2.0431   2.4469   2.4557   2.5080   2.5247
     2.6846   2.6893   2.8144   2.9198   3.1108   3.2512   3.2547   3.2975
[...]
    11.2226  11.2226  11.7658  11.7658  11.8634  11.8634  12.0053  12.0053
    12.2553  12.2553  12.4335  12.4335  12.7596  12.7596  12.9950  12.9950
    13.0737  13.0737  13.3777  13.3777  13.4315  13.4315  13.7635  13.7635
    15.4275  15.4275  15.7839  15.7839  16.4705  16.4705  16.8419  16.8419
    17.0919  17.0919  17.6313  17.6313  18.0573

          k = 0.3333 0.3214 0.3333 ( 61498 PWs)   bands (ev):

   -65.8449 -65.8446 -65.8444 -65.8444 -65.8441 -65.8441 -65.8439 -65.8436
   -30.2887 -30.2831 -30.2828 -30.2805 -30.2591 -30.2532 -30.2531 -30.2428
   -30.2039 -30.1943 -30.1941 -30.1811 -30.1766 -30.1681 -30.1677 -30.1622
   -30.1217 -30.1209 -30.1171 -30.1170 -30.0770 -30.0770 -30.0743 -30.0735
   -19.9931 -19.9930 -19.9929 -19.9929 -19.9928 -19.9928 -19.9927 -19.9926
   -19.9822 -19.9820 -19.9820 -19.9817 -19.9816 -19.9813 -19.9812 -19.9811
   -19.9759 -19.9757 -19.9757 -19.9756 -19.9750 -19.9747 -19.9747 -19.9743
   -19.9725 -19.9720 -19.9719 -19.9711 -19.9709 -19.9702 -19.9702 -19.9698
   -19.9640 -19.9637 -19.9631 -19.9630 -19.9627 -19.9627 -19.9621 -19.9617
   -19.9506 -19.9506 -19.9499 -19.9499 -19.9491 -19.9491 -19.9485 -19.9485
   -19.9463 -19.9462 -19.9458 -19.9458 -19.9439 -19.9439 -19.9434 -19.9433
    -9.2530  -9.0651  -9.0040  -8.9927  -8.7436  -8.7173  -8.6694  -8.4757
    -8.4287  -8.3605  -8.3467  -8.3314  -8.1727  -8.0588  -8.0540  -8.0079
    -7.9178  -7.9042  -7.8843  -7.8522  -7.7873  -7.7865  -7.7308  -7.7216
     2.3833   2.4049   2.4255   2.4652   2.5479   2.5802   2.5901   2.6506
     2.7623   2.7887   2.8166   2.9782   3.2924   3.3535   3.4204   3.4850
     3.5327   3.5706   3.8455   3.9312   4.0005   4.0968   4.1252   4.2454
     4.2485   4.3742   4.4011   4.4540   4.5231   4.5502   4.6338   4.7102
     4.7626   4.8118   4.8999   4.9806   5.0112   5.0162   5.0455   5.1160
     5.1968   5.2624   5.3879   5.4681   5.5647   5.6379   5.6690   5.6951
     6.9134   6.9533   7.0444   7.0634   7.1406   7.1804   7.2288   7.2427
     7.2988   7.3257   7.4074   7.4197   7.4559   7.5070   7.5602   7.5740
     7.6290   7.6814   7.8527   7.8832   7.9357   7.9569   8.0126   8.0265
    11.2791  11.3510  11.5437  11.5976  11.6420  11.8452  12.3042  12.3200
    12.3746  12.4506  12.4623  12.5549  12.6653  12.7582  12.8114  12.8500
    12.9419  12.9480  13.0890  13.2991  13.3787  13.4805  13.5051  13.6627
    15.9884  16.0798  16.1492  16.3049  16.3293  16.6036  16.7729  16.9324
    16.9647  17.1561  17.3706  17.4761  17.8740

          k = 0.3333 0.3214-0.5000 ( 61476 PWs)   bands (ev):

   -65.8447 -65.8447 -65.8444 -65.8444 -65.8442 -65.8442 -65.8439 -65.8439
   -30.2846 -30.2846 -30.2682 -30.2682 -30.2665 -30.2665 -30.2495 -30.2495
   -30.1993 -30.1993 -30.1883 -30.1883 -30.1733 -30.1733 -30.1658 -30.1658
   -30.1194 -30.1194 -30.0991 -30.0991 -30.0956 -30.0956 -30.0755 -30.0755
   -19.9930 -19.9930 -19.9929 -19.9929 -19.9928 -19.9928 -19.9927 -19.9927
   -19.9821 -19.9821 -19.9818 -19.9818 -19.9815 -19.9815 -19.9812 -19.9812
   -19.9758 -19.9758 -19.9757 -19.9757 -19.9748 -19.9748 -19.9745 -19.9745
   -19.9722 -19.9722 -19.9715 -19.9715 -19.9706 -19.9706 -19.9700 -19.9700
   -19.9635 -19.9635 -19.9632 -19.9632 -19.9626 -19.9626 -19.9622 -19.9622
   -19.9502 -19.9502 -19.9499 -19.9499 -19.9492 -19.9492 -19.9488 -19.9488
   -19.9460 -19.9460 -19.9451 -19.9451 -19.9446 -19.9446 -19.9436 -19.9436
    -9.1013  -9.1013  -8.8694  -8.8694  -8.7871  -8.7871  -8.4611  -8.4611
    -8.3933  -8.3933  -8.2847  -8.2847  -8.2004  -8.2004  -8.1277  -8.1277
    -7.9711  -7.9711  -7.8892  -7.8892  -7.8627  -7.8627  -7.7573  -7.7573
     2.4281   2.4281   2.5704   2.5704   2.6266   2.6266   2.7569   2.7569
     3.2227   3.2227   3.3161   3.3161   3.3758   3.3758   3.5170   3.5170
     3.6124   3.6124   3.8107   3.8107   3.9613   3.9613   4.0566   4.0566
     4.1455   4.1455   4.3214   4.3214   4.3618   4.3618   4.5041   4.5041
     4.6139   4.6139   4.7799   4.7799   4.8714   4.8714   5.1011   5.1011
     5.1687   5.1687   5.2577   5.2577   5.3462   5.3462   5.5842   5.5842
     6.9754   6.9754   7.1201   7.1201   7.1546   7.1546   7.2532   7.2532
     7.4028   7.4029   7.4643   7.4643   7.5586   7.5586   7.7099   7.7099
     7.7403   7.7403   7.8290   7.8290   7.8593   7.8593   8.0011   8.0011
    11.5056  11.5056  11.8537  11.8537  12.0142  12.0142  12.0729  12.0729
    12.3557  12.3557  12.5380  12.5380  12.6481  12.6481  12.7601  12.7601
    12.9839  12.9839  13.1054  13.1054  13.1754  13.1754  13.5156  13.5156
    16.1183  16.1183  16.5169  16.5169  16.7272  16.7272  16.9240  16.9240
    17.1461  17.1461  17.5954  17.5954  17.8841

          k = 0.3333-0.4821 0.3333 ( 61472 PWs)   bands (ev):

   -65.8448 -65.8447 -65.8443 -65.8443 -65.8443 -65.8442 -65.8438 -65.8438
   -30.2842 -30.2842 -30.2814 -30.2814 -30.2527 -30.2527 -30.2500 -30.2499
   -30.1909 -30.1908 -30.1893 -30.1893 -30.1748 -30.1748 -30.1724 -30.1724
   -30.1214 -30.1214 -30.1171 -30.1171 -30.0770 -30.0770 -30.0739 -30.0739
   -19.9930 -19.9930 -19.9929 -19.9929 -19.9928 -19.9928 -19.9927 -19.9927
   -19.9819 -19.9819 -19.9819 -19.9818 -19.9813 -19.9813 -19.9813 -19.9813
   -19.9754 -19.9754 -19.9752 -19.9752 -19.9751 -19.9751 -19.9749 -19.9749
   -19.9718 -19.9718 -19.9717 -19.9717 -19.9707 -19.9707 -19.9705 -19.9705
   -19.9639 -19.9638 -19.9629 -19.9629 -19.9628 -19.9628 -19.9619 -19.9619
   -19.9506 -19.9506 -19.9499 -19.9499 -19.9491 -19.9491 -19.9485 -19.9485
   -19.9463 -19.9462 -19.9458 -19.9458 -19.9439 -19.9439 -19.9434 -19.9434
    -9.1420  -9.1419  -8.9287  -8.9287  -8.7350  -8.7350  -8.4431  -8.4431
    -8.3798  -8.3797  -8.2149  -8.2149  -8.1726  -8.1726  -8.1603  -8.1603
    -8.0220  -8.0220  -7.9635  -7.9634  -7.8018  -7.8018  -7.7320  -7.7320
     2.4285   2.4285   2.4713   2.4713   2.6431   2.6432   2.7925   2.7925
     3.1906   3.1906   3.2781   3.2782   3.4161   3.4161   3.4790   3.4790
     3.5148   3.5148   3.8516   3.8516   3.9884   3.9884   4.0283   4.0283
     4.0702   4.0702   4.2799   4.2799   4.4101   4.4102   4.5863   4.5863
     4.7858   4.7858   4.8455   4.8455   4.9547   4.9547   5.0450   5.0450
     5.1616   5.1616   5.2081   5.2081   5.2752   5.2752   5.6507   5.6508
     7.0132   7.0132   7.1623   7.1623   7.2835   7.2835   7.3265   7.3265
     7.4205   7.4206   7.4471   7.4471   7.5083   7.5083   7.6365   7.6365
     7.7055   7.7055   7.7818   7.7818   7.8485   7.8485   7.9194   7.9194
    11.3858  11.3858  11.8853  11.8853  11.9625  11.9625  12.1777  12.1777
    12.2631  12.2631  12.4387  12.4387  12.5952  12.5952  12.8262  12.8262
    12.9979  12.9979  13.1418  13.1418  13.2074  13.2074  13.4854  13.4854
    16.2323  16.2324  16.5314  16.5314  16.7211  16.7211  16.8612  16.8612
    17.2094  17.2094  17.7263  17.7264  17.8172

          k = 0.3333-0.4821-0.5000 ( 61440 PWs)   bands (ev):

   -65.8445 -65.8445 -65.8445 -65.8445 -65.8440 -65.8440 -65.8440 -65.8440
   -30.2828 -30.2828 -30.2672 -30.2672 -30.2644 -30.2644 -30.2513 -30.2513
   -30.1902 -30.1902 -30.1839 -30.1839 -30.1822 -30.1822 -30.1736 -30.1736
   -30.1194 -30.1194 -30.0992 -30.0992 -30.0956 -30.0956 -30.0755 -30.0755
   -19.9930 -19.9930 -19.9929 -19.9929 -19.9928 -19.9928 -19.9927 -19.9927
   -19.9819 -19.9819 -19.9816 -19.9816 -19.9816 -19.9816 -19.9813 -19.9813
   -19.9753 -19.9753 -19.9752 -19.9752 -19.9751 -19.9751 -19.9750 -19.9750
   -19.9718 -19.9718 -19.9712 -19.9712 -19.9711 -19.9711 -19.9706 -19.9706
   -19.9634 -19.9634 -19.9634 -19.9634 -19.9624 -19.9624 -19.9623 -19.9623
   -19.9502 -19.9502 -19.9499 -19.9499 -19.9492 -19.9492 -19.9488 -19.9488
   -19.9460 -19.9460 -19.9451 -19.9451 -19.9446 -19.9446 -19.9436 -19.9436
    -9.0185  -9.0185  -8.9047  -8.9047  -8.6275  -8.6274  -8.5181  -8.5181
    -8.3098  -8.3098  -8.2578  -8.2578  -8.1644  -8.1643  -8.1404  -8.1404
    -8.0827  -8.0827  -8.0206  -8.0206  -7.9561  -7.9561  -7.7673  -7.7673
     2.4767   2.4767   2.6503   2.6503   3.0906   3.0906   3.1959   3.1959
     3.3048   3.3048   3.3656   3.3656   3.3826   3.3826   3.4728   3.4728
     3.6654   3.6654   3.6906   3.6906   3.8280   3.8280   4.0103   4.0103
     4.0826   4.0826   4.2008   4.2008   4.3780   4.3780   4.5085   4.5085
     4.6367   4.6367   4.6513   4.6513   4.7492   4.7493   4.8177   4.8177
     4.9339   4.9339   5.0994   5.0994   5.2831   5.2831   5.3198   5.3198
     7.0730   7.0730   7.2663   7.2663   7.3198   7.3198   7.3729   7.3729
     7.4664   7.4664   7.5055   7.5055   7.6262   7.6262   7.6549   7.6549
     7.7311   7.7311   7.7795   7.7795   7.8244   7.8244   7.8863   7.8863
    11.7521  11.7521  11.8876  11.8876  12.0782  12.0782  12.2148  12.2148
    12.3815  12.3815  12.5254  12.5255  12.6003  12.6003  12.6721  12.6721
    12.7961  12.7961  12.8999  12.8999  13.2188  13.2188  13.2914  13.2914
    16.4379  16.4379  16.6741  16.6741  17.1604  17.1604  17.2909  17.2909
    17.4485  17.4486  17.5435  17.5436  17.6498

          k =-0.5000 0.0000-0.5000 ( 61524 PWs)   bands (ev):

   -65.8446 -65.8446 -65.8445 -65.8445 -65.8440 -65.8440 -65.8440 -65.8440
   -30.2809 -30.2809 -30.2803 -30.2803 -30.2571 -30.2571 -30.2565 -30.2565
   -30.2036 -30.2035 -30.2032 -30.2032 -30.1571 -30.1571 -30.1565 -30.1565
   -30.0984 -30.0984 -30.0981 -30.0981 -30.0969 -30.0968 -30.0965 -30.0965
   -19.9929 -19.9929 -19.9929 -19.9929 -19.9928 -19.9928 -19.9928 -19.9928
   -19.9824 -19.9824 -19.9823 -19.9823 -19.9813 -19.9813 -19.9812 -19.9812
   -19.9763 -19.9763 -19.9763 -19.9763 -19.9742 -19.9742 -19.9742 -19.9742
   -19.9723 -19.9723 -19.9723 -19.9723 -19.9694 -19.9694 -19.9693 -19.9693
   -19.9633 -19.9632 -19.9632 -19.9632 -19.9625 -19.9625 -19.9624 -19.9624
   -19.9497 -19.9497 -19.9496 -19.9496 -19.9494 -19.9494 -19.9494 -19.9494
   -19.9450 -19.9450 -19.9449 -19.9449 -19.9449 -19.9448 -19.9447 -19.9447
    -9.1322  -9.1321  -9.1184  -9.1183  -8.6037  -8.6037  -8.5363  -8.5363
    -8.4205  -8.4205  -8.3421  -8.3421  -8.1460  -8.1460  -8.1132  -8.1132
    -8.0694  -8.0693  -8.0248  -8.0248  -7.5392  -7.5392  -7.5381  -7.5381
     1.7872   1.7873   1.7972   1.7972   3.0999   3.0999   3.1254   3.1254
     3.2750   3.2750   3.2772   3.2772   3.4173   3.4173   3.4920   3.4920
     3.6312   3.6312   3.6464   3.6464   3.8137   3.8137   3.9447   3.9447
     3.9512   3.9512   4.1612   4.1612   4.4345   4.4345   4.5146   4.5147
     4.5183   4.5183   4.6558   4.6558   5.2050   5.2050   5.2503   5.2503
     5.6057   5.6057   5.6628   5.6629   6.2877   6.2877   6.2925   6.2925
     6.5836   6.5836   6.6368   6.6368   6.6535   6.6535   6.6576   6.6576
     7.5937   7.5938   7.6016   7.6016   7.6055   7.6055   7.7226   7.7227
     7.7952   7.7952   7.8584   7.8584   7.8908   7.8908   8.0748   8.0748
    11.6231  11.6231  11.7419  11.7419  11.8493  11.8493  11.9548  11.9548
    12.3688  12.3688  12.4154  12.4154  12.5619  12.5619  12.6061  12.6061
    13.3411  13.3411  13.4583  13.4583  13.5606  13.5606  13.6680  13.6680
    15.3138  15.3138  15.3197  15.3198  16.8266  16.8266  17.0913  17.0914
    17.5407  17.5407  17.5838  17.5838  17.7367

          k =-0.5000 0.1607-0.5000 ( 61484 PWs)   bands (ev):

   -65.8445 -65.8445 -65.8445 -65.8445 -65.8440 -65.8440 -65.8440 -65.8440
   -30.2785 -30.2785 -30.2779 -30.2779 -30.2581 -30.2581 -30.2574 -30.2574
   -30.2013 -30.2013 -30.2009 -30.2009 -30.1609 -30.1609 -30.1603 -30.1602
   -30.0983 -30.0983 -30.0980 -30.0980 -30.0970 -30.0969 -30.0966 -30.0966
   -19.9929 -19.9929 -19.9929 -19.9929 -19.9928 -19.9928 -19.9928 -19.9928
   -19.9822 -19.9822 -19.9822 -19.9822 -19.9813 -19.9813 -19.9812 -19.9812
   -19.9762 -19.9762 -19.9762 -19.9762 -19.9743 -19.9743 -19.9743 -19.9743
   -19.9722 -19.9722 -19.9722 -19.9722 -19.9697 -19.9697 -19.9696 -19.9696
   -19.9632 -19.9632 -19.9631 -19.9631 -19.9626 -19.9626 -19.9625 -19.9625
   -19.9497 -19.9497 -19.9496 -19.9496 -19.9494 -19.9494 -19.9494 -19.9494
   -19.9450 -19.9450 -19.9449 -19.9449 -19.9448 -19.9448 -19.9447 -19.9447
    -9.0725  -9.0725  -9.0564  -9.0563  -8.6154  -8.6154  -8.5501  -8.5501
    -8.4042  -8.4042  -8.3269  -8.3268  -8.1452  -8.1452  -8.1139  -8.1139
    -8.0713  -8.0712  -8.0247  -8.0247  -7.6356  -7.6356  -7.6335  -7.6335
     2.0079   2.0079   2.0181   2.0181   3.1140   3.1140   3.1456   3.1456
     3.2770   3.2770   3.2799   3.2800   3.4378   3.4378   3.5254   3.5255
     3.6272   3.6272   3.6417   3.6418   3.8613   3.8613   3.9854   3.9854
     3.9950   3.9950   4.2050   4.2050   4.4137   4.4137   4.4921   4.4921
     4.5167   4.5167   4.6543   4.6543   4.9843   4.9843   5.0242   5.0242
     5.3701   5.3701   5.4051   5.4052   6.0285   6.0285   6.0293   6.0293
     6.7372   6.7373   6.8086   6.8086   6.8486   6.8486   6.8886   6.8886
     7.5928   7.5928   7.6049   7.6049   7.6153   7.6153   7.7236   7.7236
     7.7943   7.7944   7.8426   7.8427   7.8922   7.8922   8.0420   8.0420
    11.6892  11.6892  11.8149  11.8149  11.8948  11.8948  12.0183  12.0183
    12.3698  12.3698  12.4092  12.4092  12.5776  12.5776  12.6163  12.6163
    13.2099  13.2099  13.3204  13.3204  13.4525  13.4525  13.5506  13.5506
    15.6574  15.6574  15.6597  15.6597  16.8867  16.8867  17.1282  17.1283
    17.5039  17.5039  17.5894  17.5894  17.7480

          k =-0.5000 0.3214-0.5000 ( 61504 PWs)   bands (ev):

   -65.8444 -65.8444 -65.8444 -65.8444 -65.8441 -65.8441 -65.8441 -65.8441
   -30.2727 -30.2727 -30.2720 -30.2720 -30.2610 -30.2610 -30.2604 -30.2604
   -30.1943 -30.1943 -30.1940 -30.1939 -30.1708 -30.1708 -30.1702 -30.1702
   -30.0980 -30.0980 -30.0978 -30.0978 -30.0972 -30.0972 -30.0970 -30.0970
   -19.9929 -19.9929 -19.9929 -19.9929 -19.9928 -19.9928 -19.9928 -19.9928
   -19.9820 -19.9819 -19.9819 -19.9819 -19.9814 -19.9814 -19.9814 -19.9813
   -19.9757 -19.9757 -19.9757 -19.9757 -19.9746 -19.9746 -19.9746 -19.9746
   -19.9718 -19.9718 -19.9718 -19.9718 -19.9704 -19.9704 -19.9703 -19.9703
   -19.9631 -19.9631 -19.9630 -19.9630 -19.9627 -19.9627 -19.9626 -19.9626
   -19.9497 -19.9497 -19.9496 -19.9496 -19.9494 -19.9494 -19.9494 -19.9494
   -19.9450 -19.9450 -19.9449 -19.9449 -19.9448 -19.9448 -19.9447 -19.9447
    -8.9208  -8.9208  -8.8950  -8.8950  -8.6565  -8.6565  -8.6001  -8.6001
    -8.3447  -8.3447  -8.2715  -8.2715  -8.1450  -8.1450  -8.1136  -8.1135
    -8.0852  -8.0852  -8.0230  -8.0230  -7.8671  -7.8671  -7.8553  -7.8553
     2.5840   2.5840   2.5932   2.5932   3.1413   3.1413   3.1813   3.1813
     3.2861   3.2861   3.2884   3.2884   3.4872   3.4872   3.6015   3.6015
     3.6044   3.6045   3.6259   3.6259   3.9813   3.9813   4.0354   4.0354
     4.1604   4.1604   4.2080   4.2080   4.3686   4.3686   4.4147   4.4147
     4.5026   4.5026   4.6488   4.6488   4.6721   4.6721   4.7102   4.7102
     4.9692   4.9692   4.9707   4.9707   5.3463   5.3463   5.3672   5.3672
     7.0391   7.0391   7.1407   7.1407   7.1745   7.1745   7.2673   7.2673
     7.5802   7.5802   7.6057   7.6057   7.6102   7.6102   7.7207   7.7208
     7.7824   7.7824   7.8013   7.8013   7.8601   7.8601   7.9504   7.9504
    11.8930  11.8930  12.0008  12.0008  12.0468  12.0468  12.1754  12.1754
    12.3712  12.3712  12.3945  12.3945  12.6368  12.6368  12.6611  12.6611
    12.8928  12.8928  12.9901  12.9901  13.1642  13.1642  13.2358  13.2358
    16.4976  16.4976  16.5007  16.5007  17.0595  17.0596  17.2164  17.2164
    17.3869  17.3869  17.6000  17.6001  17.7921

          k =-0.5000-0.4821-0.5000 ( 61448 PWs)   bands (ev):

   -65.8443 -65.8443 -65.8443 -65.8443 -65.8443 -65.8443 -65.8443 -65.8443
   -30.2669 -30.2669 -30.2655 -30.2655 -30.2655 -30.2655 -30.2653 -30.2653
   -30.1836 -30.1836 -30.1834 -30.1833 -30.1833 -30.1833 -30.1821 -30.1821
   -30.0976 -30.0976 -30.0976 -30.0975 -30.0975 -30.0975 -30.0974 -30.0974
   -19.9929 -19.9929 -19.9928 -19.9928 -19.9928 -19.9928 -19.9928 -19.9928
   -19.9817 -19.9817 -19.9816 -19.9816 -19.9816 -19.9816 -19.9816 -19.9816
   -19.9752 -19.9752 -19.9752 -19.9752 -19.9752 -19.9752 -19.9751 -19.9751
   -19.9713 -19.9713 -19.9712 -19.9712 -19.9712 -19.9712 -19.9710 -19.9710
   -19.9629 -19.9629 -19.9629 -19.9629 -19.9628 -19.9628 -19.9628 -19.9628
   -19.9497 -19.9497 -19.9497 -19.9497 -19.9494 -19.9494 -19.9494 -19.9494
   -19.9450 -19.9450 -19.9449 -19.9449 -19.9448 -19.9448 -19.9448 -19.9448
    -8.7824  -8.7823  -8.7295  -8.7295  -8.7142  -8.7142  -8.7142  -8.7142
    -8.2523  -8.2522  -8.1695  -8.1695  -8.1695  -8.1695  -8.1480  -8.1479
    -8.0780  -8.0780  -8.0780  -8.0779  -8.0121  -8.0121  -7.9927  -7.9927
     3.1068   3.1068   3.1068   3.1068   3.1136   3.1137   3.1491   3.1491
     3.3505   3.3505   3.4463   3.4463   3.4463   3.4463   3.5135   3.5135
     3.5912   3.5912   3.7230   3.7230   3.7230   3.7231   3.7615   3.7616
     4.3274   4.3274   4.3363   4.3363   4.4061   4.4061   4.4061   4.4061
     4.5985   4.5985   4.5985   4.5985   4.6204   4.6204   4.7069   4.7069
     4.7452   4.7453   4.8015   4.8015   4.8199   4.8200   4.8200   4.8200
     7.1836   7.1836   7.3270   7.3270   7.3270   7.3270   7.4880   7.4881
     7.5733   7.5733   7.5733   7.5733   7.5973   7.5974   7.6863   7.6863
     7.7680   7.7680   7.7991   7.7991   7.7991   7.7991   7.8792   7.8792
    12.1286  12.1286  12.1537  12.1537  12.1537  12.1537  12.1710  12.1710
    12.4650  12.4651  12.4914  12.4914  12.4914  12.4915  12.7207  12.7207
    12.7625  12.7625  12.8886  12.8886  12.8886  12.8886  12.9172  12.9172
    17.1742  17.1742  17.1742  17.1742  17.2228  17.2228  17.2968  17.2968
    17.5611  17.5611  17.5611  17.5611  17.6114

     the Fermi energy is    10.2811 ev

!    total energy              =   -6260.82508307 Ry
     Harris-Foulkes estimate   =   -6260.82508307 Ry
     estimated scf accuracy    <          8.7E-10 Ry

     The total energy is the sum of the following terms:

     one-electron contribution =   -4654.34916100 Ry
     hartree contribution      =    2568.02694605 Ry
     xc contribution           =    -966.04409860 Ry
     ewald contribution        =   -3208.45873975 Ry
     smearing contrib. (-TS)   =      -0.00002977 Ry

     convergence has been achieved in  13 iterations

     Writing output data file Landau_27.save
 
     init_run     :     23.77s CPU     24.86s WALL (       1 calls)
     electrons    :    950.50s CPU    969.58s WALL (       1 calls)

     Called by init_run:
     wfcinit      :     21.92s CPU     22.88s WALL (       1 calls)
     potinit      :      0.67s CPU      0.71s WALL (       1 calls)

     Called by electrons:
     c_bands      :    826.68s CPU    844.04s WALL (      13 calls)
     sum_band     :    116.31s CPU    116.92s WALL (      13 calls)
     v_of_rho     :      2.02s CPU      2.05s WALL (      14 calls)
     mix_rho      :      4.73s CPU      5.31s WALL (      13 calls)

     Called by c_bands:
     init_us_2    :     10.47s CPU     10.98s WALL (      27 calls)
     cegterg      :    717.57s CPU    734.68s WALL (      13 calls)

     Called by sum_band:

     Called by *egterg:
     h_psi        :    569.61s CPU    572.19s WALL (      55 calls)
     g_psi        :      2.24s CPU      2.25s WALL (      41 calls)
     cdiaghg      :      7.78s CPU      7.84s WALL (      54 calls)

     Called by h_psi:
     h_psi:pot    :    565.58s CPU    568.03s WALL (      55 calls)
     h_psi:calbec :     65.45s CPU     67.01s WALL (      55 calls)
     vloc_psi     :    431.86s CPU    432.51s WALL (      55 calls)
     add_vuspsi   :     68.28s CPU     68.50s WALL (      55 calls)

     General routines
     calbec       :     65.45s CPU     67.01s WALL (      55 calls)
     fft          :      1.24s CPU      1.24s WALL (      56 calls)
     fftw         :    413.87s CPU    414.27s WALL (   16957 calls)
 
     Parallel routines
 
     PWSCF        : 16m19.42s CPU    16m51.05s WALL

 
   This run was terminated on:  12:15:29  17Sep2019            

=------------------------------------------------------------------------------=
   JOB DONE.
=------------------------------------------------------------------------------=
