
     Program PWSCF v.6.2 (svn rev. 14038) starts on 22Mar2020 at 14:46:16 

     This program is part of the open-source Quantum ESPRESSO suite
     for quantum simulation of materials; please cite
         "P. Giannozzi et al., J. Phys.:Condens. Matter 21 395502 (2009);
         "P. Giannozzi et al., J. Phys.:Condens. Matter 29 465901 (2017);
          URL http://www.quantum-espresso.org", 
     in publications or presentations arising from this work. More details at
     http://www.quantum-espresso.org/quote

     Parallel version (MPI), running on    40 processors

     MPI processes distributed on     5 nodes
     K-points division:     npool     =      40
     Reading input from scf.in

     Current dimensions of program PWSCF are:
     Max number of different atomic species (ntypx) = 10
     Max number of k-points (npk) =  40000
     Max angular momentum in pseudopotentials (lmaxx) =  3

     Subspace diagonalization in iterative solution of the eigenvalue problem:
     a serial algorithm will be used

 
     G-vector sticks info
     --------------------
     sticks:   dense  smooth     PW     G-vecs:    dense   smooth      PW
     Sum        7759    7759   2077               510977   510977   70887
 


     bravais-lattice index     =            0
     lattice parameter (alat)  =      14.1601  a.u.
     unit-cell volume          =    2878.3882 (a.u.)^3
     number of atoms/cell      =           32
     number of atomic types    =            2
     number of electrons       =       369.00
     number of Kohn-Sham states=          222
     kinetic-energy cutoff     =     120.0000  Ry
     charge density cutoff     =     480.0000  Ry
     convergence threshold     =      1.0E-08
     mixing beta               =       0.7000
     number of iterations used =            8  plain     mixing
     Exchange-correlation      = SLA PW NOGX NOGC ( 1  4  0  0 0 0)

     celldm(1)=  14.160076  celldm(2)=   0.000000  celldm(3)=   0.000000
     celldm(4)=   0.000000  celldm(5)=   0.000000  celldm(6)=   0.000000

     crystal axes: (cart. coord. in units of alat)
               a(1) = (   1.000000   0.000000   0.000000 )  
               a(2) = (   0.000000   1.012988   0.000000 )  
               a(3) = (   0.000000   0.000000   1.000802 )  

     reciprocal axes: (cart. coord. in units 2 pi/alat)
               b(1) = (  1.000000  0.000000  0.000000 )  
               b(2) = (  0.000000  0.987178  0.000000 )  
               b(3) = (  0.000000  0.000000  0.999198 )  


     PseudoPot. # 1 for W  read from file:
     /cluster/scratch/mnoe/QE/pps/W_ONCV_LDA-4.0.upf
     MD5 check sum: ba0307d5d4cd419d6f1d13dc49d7c13a
     Pseudo is Norm-conserving + core correction, Zval = 28.0
     Generated using ONCVPSP code by D. R. Hamann
     Using radial grid of 1380 points,  8 beta functions with: 
                l(1) =   0
                l(2) =   0
                l(3) =   1
                l(4) =   1
                l(5) =   2
                l(6) =   2
                l(7) =   3
                l(8) =   3

     PseudoPot. # 2 for O  read from file:
     /cluster/scratch/mnoe/QE/pps/O_ONCV_LDA-3.0.upf
     MD5 check sum: a1bd6164e7280c17a38c229939bfbd54
     Pseudo is Norm-conserving + core correction, Zval =  6.0
     Generated using ONCVPSP code by D. R. Hamann
     Using radial grid of  926 points,  5 beta functions with: 
                l(1) =   0
                l(2) =   0
                l(3) =   1
                l(4) =   1
                l(5) =   2

     atomic species   valence    mass     pseudopotential
        W             28.00   183.84000     W ( 1.00)
        O              6.00    15.99940     O ( 1.00)

      8 Sym. Ops., with inversion, found ( 6 have fractional translation)



   Cartesian axes

     site n.     atom                  positions (alat units)
         1           W   tau(   1) = (   0.2421464   0.2719954   0.0074223  )
         2           W   tau(   2) = (   0.7578535   0.7409929  -0.0074223  )
         3           W   tau(   3) = (   0.2578536   0.2344988   0.5078234  )
         4           W   tau(   4) = (   0.7421463   0.7784896   0.4929788  )
         5           W   tau(   5) = (   0.7578535   0.2719954   0.4929788  )
         6           W   tau(   6) = (   0.2421464   0.7409929   0.5078234  )
         7           W   tau(   7) = (   0.7421463   0.2344988  -0.0074223  )
         8           W   tau(   8) = (   0.2578536   0.7784896   0.0074223  )
         9           O   tau(   9) = (   0.2355112   0.0047433   0.0023070  )
        10           O   tau(  10) = (   0.7644887  -0.0047434  -0.0023070  )
        11           O   tau(  11) = (   0.2644888   0.5017508   0.5027081  )
        12           O   tau(  12) = (   0.7355111   0.5112375   0.4980941  )
        13           O   tau(  13) = (   0.7644887   0.0047433   0.4980941  )
        14           O   tau(  14) = (   0.2355112  -0.0047434   0.5027081  )
        15           O   tau(  15) = (   0.7355111   0.5017508  -0.0023070  )
        16           O   tau(  16) = (   0.2644888   0.5112375   0.0023070  )
        17           O   tau(  17) = (   0.5021481   0.2381916   0.4825753  )
        18           O   tau(  18) = (   0.4978519   0.7747967   0.5182270  )
        19           O   tau(  19) = (  -0.0021481   0.2683025   0.9829764  )
        20           O   tau(  20) = (   0.0021480   0.7446858   0.0178257  )
        21           O   tau(  21) = (   0.4978519   0.2381916   0.0178257  )
        22           O   tau(  22) = (   0.5021481   0.7747967   0.9829764  )
        23           O   tau(  23) = (   0.0021480   0.2683025   0.5182270  )
        24           O   tau(  24) = (  -0.0021481   0.7446858   0.4825753  )
        25           O   tau(  25) = (   0.7321884   0.2499616   0.7473429  )
        26           O   tau(  26) = (   0.2678115   0.7630267   0.2534592  )
        27           O   tau(  27) = (   0.7678117   0.2565325   0.2469419  )
        28           O   tau(  28) = (   0.2321885   0.7564558   0.7538602  )
        29           O   tau(  29) = (   0.2678115   0.2499616   0.7538602  )
        30           O   tau(  30) = (   0.7321884   0.7630267   0.2469419  )
        31           O   tau(  31) = (   0.2321885   0.2565325   0.2534592  )
        32           O   tau(  32) = (   0.7678117   0.7564558   0.7473429  )

     number of k points=    64  gaussian smearing, width (Ry)=  0.0007
                       cart. coord. in units 2pi/alat
        k(    1) = (   0.0000000   0.0000000   0.0000000), wk =   0.0092593
        k(    2) = (   0.0000000   0.0000000   0.1665331), wk =   0.0185185
        k(    3) = (   0.0000000   0.0000000   0.3330662), wk =   0.0185185
        k(    4) = (   0.0000000   0.0000000  -0.4995992), wk =   0.0092593
        k(    5) = (   0.0000000   0.1645297   0.0000000), wk =   0.0185185
        k(    6) = (   0.0000000   0.1645297   0.1665331), wk =   0.0370370
        k(    7) = (   0.0000000   0.1645297   0.3330662), wk =   0.0370370
        k(    8) = (   0.0000000   0.1645297  -0.4995992), wk =   0.0185185
        k(    9) = (   0.0000000   0.3290594   0.0000000), wk =   0.0185185
        k(   10) = (   0.0000000   0.3290594   0.1665331), wk =   0.0370370
        k(   11) = (   0.0000000   0.3290594   0.3330662), wk =   0.0370370
        k(   12) = (   0.0000000   0.3290594  -0.4995992), wk =   0.0185185
        k(   13) = (   0.0000000  -0.4935892   0.0000000), wk =   0.0092593
        k(   14) = (   0.0000000  -0.4935892   0.1665331), wk =   0.0185185
        k(   15) = (   0.0000000  -0.4935892   0.3330662), wk =   0.0185185
        k(   16) = (   0.0000000  -0.4935892  -0.4995992), wk =   0.0092593
        k(   17) = (   0.1666667   0.0000000   0.0000000), wk =   0.0185185
        k(   18) = (   0.1666667   0.0000000   0.1665331), wk =   0.0370370
        k(   19) = (   0.1666667   0.0000000   0.3330662), wk =   0.0370370
        k(   20) = (   0.1666667   0.0000000  -0.4995992), wk =   0.0185185
        k(   21) = (   0.1666667   0.1645297   0.0000000), wk =   0.0370370
        k(   22) = (   0.1666667   0.1645297   0.1665331), wk =   0.0740741
        k(   23) = (   0.1666667   0.1645297   0.3330662), wk =   0.0740741
        k(   24) = (   0.1666667   0.1645297  -0.4995992), wk =   0.0370370
        k(   25) = (   0.1666667   0.3290594   0.0000000), wk =   0.0370370
        k(   26) = (   0.1666667   0.3290594   0.1665331), wk =   0.0740741
        k(   27) = (   0.1666667   0.3290594   0.3330662), wk =   0.0740741
        k(   28) = (   0.1666667   0.3290594  -0.4995992), wk =   0.0370370
        k(   29) = (   0.1666667  -0.4935892   0.0000000), wk =   0.0185185
        k(   30) = (   0.1666667  -0.4935892   0.1665331), wk =   0.0370370
        k(   31) = (   0.1666667  -0.4935892   0.3330662), wk =   0.0370370
        k(   32) = (   0.1666667  -0.4935892  -0.4995992), wk =   0.0185185
        k(   33) = (   0.3333333   0.0000000   0.0000000), wk =   0.0185185
        k(   34) = (   0.3333333   0.0000000   0.1665331), wk =   0.0370370
        k(   35) = (   0.3333333   0.0000000   0.3330662), wk =   0.0370370
        k(   36) = (   0.3333333   0.0000000  -0.4995992), wk =   0.0185185
        k(   37) = (   0.3333333   0.1645297   0.0000000), wk =   0.0370370
        k(   38) = (   0.3333333   0.1645297   0.1665331), wk =   0.0740741
        k(   39) = (   0.3333333   0.1645297   0.3330662), wk =   0.0740741
        k(   40) = (   0.3333333   0.1645297  -0.4995992), wk =   0.0370370
        k(   41) = (   0.3333333   0.3290594   0.0000000), wk =   0.0370370
        k(   42) = (   0.3333333   0.3290594   0.1665331), wk =   0.0740741
        k(   43) = (   0.3333333   0.3290594   0.3330662), wk =   0.0740741
        k(   44) = (   0.3333333   0.3290594  -0.4995992), wk =   0.0370370
        k(   45) = (   0.3333333  -0.4935892   0.0000000), wk =   0.0185185
        k(   46) = (   0.3333333  -0.4935892   0.1665331), wk =   0.0370370
        k(   47) = (   0.3333333  -0.4935892   0.3330662), wk =   0.0370370
        k(   48) = (   0.3333333  -0.4935892  -0.4995992), wk =   0.0185185
        k(   49) = (  -0.5000000   0.0000000   0.0000000), wk =   0.0092593
        k(   50) = (  -0.5000000   0.0000000   0.1665331), wk =   0.0185185
        k(   51) = (  -0.5000000   0.0000000   0.3330662), wk =   0.0185185
        k(   52) = (  -0.5000000   0.0000000  -0.4995992), wk =   0.0092593
        k(   53) = (  -0.5000000   0.1645297   0.0000000), wk =   0.0185185
        k(   54) = (  -0.5000000   0.1645297   0.1665331), wk =   0.0370370
        k(   55) = (  -0.5000000   0.1645297   0.3330662), wk =   0.0370370
        k(   56) = (  -0.5000000   0.1645297  -0.4995992), wk =   0.0185185
        k(   57) = (  -0.5000000   0.3290594   0.0000000), wk =   0.0185185
        k(   58) = (  -0.5000000   0.3290594   0.1665331), wk =   0.0370370
        k(   59) = (  -0.5000000   0.3290594   0.3330662), wk =   0.0370370
        k(   60) = (  -0.5000000   0.3290594  -0.4995992), wk =   0.0185185
        k(   61) = (  -0.5000000  -0.4935892   0.0000000), wk =   0.0092593
        k(   62) = (  -0.5000000  -0.4935892   0.1665331), wk =   0.0185185
        k(   63) = (  -0.5000000  -0.4935892   0.3330662), wk =   0.0185185
        k(   64) = (  -0.5000000  -0.4935892  -0.4995992), wk =   0.0092593

     Dense  grid:   510977 G-vectors     FFT dimensions: ( 100, 108, 100)

     Estimated max dynamical RAM per process >       3.22 GB

     Estimated total dynamical RAM >     128.67 GB

     Initial potential from superposition of free atoms

     starting charge  367.99656, renormalised to  369.00000
     Starting wfc are  232 randomized atomic wfcs

     total cpu time spent up to now is       46.2 secs

     Self-consistent Calculation

     iteration #  1     ecut=   120.00 Ry     beta= 0.70
     Davidson diagonalization with overlap
     ethr =  1.00E-02,  avg # of iterations =  5.6

     total cpu time spent up to now is      212.8 secs

     total energy              =   -6253.04326770 Ry
     Harris-Foulkes estimate   =   -6264.15417370 Ry
     estimated scf accuracy    <      13.94531831 Ry

     iteration #  2     ecut=   120.00 Ry     beta= 0.70
     Davidson diagonalization with overlap
     ethr =  3.78E-03,  avg # of iterations =  3.9

     total cpu time spent up to now is      373.7 secs

     total energy              =   -6250.02375629 Ry
     Harris-Foulkes estimate   =   -6270.10995555 Ry
     estimated scf accuracy    <      53.13657838 Ry

     iteration #  3     ecut=   120.00 Ry     beta= 0.70
     Davidson diagonalization with overlap
     ethr =  3.78E-03,  avg # of iterations =  3.7

     total cpu time spent up to now is      523.6 secs

     total energy              =   -6260.42395900 Ry
     Harris-Foulkes estimate   =   -6260.68808125 Ry
     estimated scf accuracy    <       0.92186384 Ry

     iteration #  4     ecut=   120.00 Ry     beta= 0.70
     Davidson diagonalization with overlap
     ethr =  2.50E-04,  avg # of iterations =  4.1

     total cpu time spent up to now is      650.8 secs

     total energy              =   -6260.36647085 Ry
     Harris-Foulkes estimate   =   -6260.47770888 Ry
     estimated scf accuracy    <       0.24693800 Ry

     iteration #  5     ecut=   120.00 Ry     beta= 0.70
     Davidson diagonalization with overlap
     ethr =  6.69E-05,  avg # of iterations =  4.9

     total cpu time spent up to now is      794.2 secs

     total energy              =   -6260.41618943 Ry
     Harris-Foulkes estimate   =   -6260.42721774 Ry
     estimated scf accuracy    <       0.03395590 Ry

     iteration #  6     ecut=   120.00 Ry     beta= 0.70
     Davidson diagonalization with overlap
     ethr =  9.20E-06,  avg # of iterations =  4.3

     total cpu time spent up to now is      933.1 secs

     total energy              =   -6260.41844577 Ry
     Harris-Foulkes estimate   =   -6260.42257027 Ry
     estimated scf accuracy    <       0.01060595 Ry

     iteration #  7     ecut=   120.00 Ry     beta= 0.70
     Davidson diagonalization with overlap
     ethr =  2.87E-06,  avg # of iterations =  3.5

     total cpu time spent up to now is     1066.3 secs

     total energy              =   -6260.42003373 Ry
     Harris-Foulkes estimate   =   -6260.42008531 Ry
     estimated scf accuracy    <       0.00007655 Ry

     iteration #  8     ecut=   120.00 Ry     beta= 0.70
     Davidson diagonalization with overlap
     ethr =  2.07E-08,  avg # of iterations =  3.7

     total cpu time spent up to now is     1236.0 secs

     total energy              =   -6260.42008913 Ry
     Harris-Foulkes estimate   =   -6260.42010773 Ry
     estimated scf accuracy    <       0.00009133 Ry

     iteration #  9     ecut=   120.00 Ry     beta= 0.70
     Davidson diagonalization with overlap
     ethr =  2.07E-08,  avg # of iterations =  1.9

     total cpu time spent up to now is     1353.7 secs

     total energy              =   -6260.42008465 Ry
     Harris-Foulkes estimate   =   -6260.42009483 Ry
     estimated scf accuracy    <       0.00004120 Ry

     iteration # 10     ecut=   120.00 Ry     beta= 0.70
     Davidson diagonalization with overlap
     ethr =  1.12E-08,  avg # of iterations =  2.0

     total cpu time spent up to now is     1470.9 secs

     total energy              =   -6260.42008331 Ry
     Harris-Foulkes estimate   =   -6260.42008780 Ry
     estimated scf accuracy    <       0.00001086 Ry

     iteration # 11     ecut=   120.00 Ry     beta= 0.70
     Davidson diagonalization with overlap
     ethr =  2.94E-09,  avg # of iterations =  2.8

     total cpu time spent up to now is     1596.9 secs

     total energy              =   -6260.42008540 Ry
     Harris-Foulkes estimate   =   -6260.42008551 Ry
     estimated scf accuracy    <       0.00000018 Ry

     iteration # 12     ecut=   120.00 Ry     beta= 0.70
     Davidson diagonalization with overlap
     ethr =  4.96E-11,  avg # of iterations =  2.8

     total cpu time spent up to now is     1755.1 secs

     total energy              =   -6260.42008542 Ry
     Harris-Foulkes estimate   =   -6260.42008544 Ry
     estimated scf accuracy    <       0.00000003 Ry

     iteration # 13     ecut=   120.00 Ry     beta= 0.70
     Davidson diagonalization with overlap
     ethr =  8.76E-12,  avg # of iterations =  2.1

     total cpu time spent up to now is     1905.4 secs

     End of self-consistent calculation

          k = 0.0000 0.0000 0.0000 ( 63823 PWs)   bands (ev):

   -66.4174 -66.4168 -66.4167 -66.4167 -66.4161 -66.4161 -66.4160 -66.4154
   -30.8103 -30.8057 -30.8047 -30.8002 -30.7681 -30.7679 -30.7648 -30.7631
   -30.7623 -30.7603 -30.7576 -30.7546 -30.7273 -30.7259 -30.7251 -30.7244
   -30.6808 -30.6778 -30.6761 -30.6759 -30.6759 -30.6729 -30.6686 -30.6681
   -20.5689 -20.5689 -20.5688 -20.5688 -20.5688 -20.5687 -20.5687 -20.5686
   -20.5607 -20.5603 -20.5596 -20.5592 -20.5568 -20.5564 -20.5558 -20.5555
   -20.5553 -20.5542 -20.5536 -20.5530 -20.5526 -20.5521 -20.5517 -20.5516
   -20.5515 -20.5508 -20.5501 -20.5498 -20.5497 -20.5491 -20.5486 -20.5482
   -20.5479 -20.5475 -20.5467 -20.5467 -20.5464 -20.5462 -20.5456 -20.5454
   -20.5318 -20.5317 -20.5300 -20.5299 -20.5297 -20.5297 -20.5284 -20.5284
   -20.5264 -20.5263 -20.5255 -20.5254 -20.5251 -20.5251 -20.5237 -20.5237
   -10.2661  -9.9454  -9.9227  -9.9181  -9.6116  -9.6079  -9.5723  -9.3685
    -9.3433  -9.3396  -9.3157  -9.3155  -8.1142  -8.0593  -8.0532  -8.0476
    -8.0425  -8.0068  -8.0054  -7.9978  -7.9920  -7.9849  -7.9543  -7.9451
     0.7788   0.7898   0.8197   0.8256   0.8397   0.8961   0.9151   0.9955
     1.1080   1.1175   1.1337   1.3490   2.2099   2.2161   2.2355   2.3218
     2.3276   2.3513   4.0849   4.1120   4.1737   4.2137   4.3074   4.3125
     4.3468   4.3557   4.3665   4.3870   4.4237   4.4319   4.8343   4.9698
     4.9785   5.2575   5.2599   5.2740   5.2991   5.3030   5.3041   5.3616
     5.3715   5.4195   5.6863   5.7278   5.7280   5.7935   5.7958   5.8888
     5.8958   5.9912   6.0040   6.1644   6.1702   6.4094   6.6412   6.6658
     6.7082   6.7148   6.7324   6.7718   6.7903   6.7928   6.8572   6.8622
     6.8638   6.8724   7.8259   7.8358   7.8855   7.8956   7.9024   7.9092
     8.8382   8.8872   9.0696   9.0791   9.1409   9.1449  12.1566  12.2091
    12.2776  12.2969  12.3011  12.3127  12.3128  12.3159  12.4274  12.5414
    12.5986  12.6301  13.3545  13.4730  13.5450  13.6005  13.7747  13.7968
    14.1017  14.1249  14.2990  14.3482  14.4508  14.4773  15.4639  15.5664
    15.6093  16.5779  16.7516  16.8201  16.8502  17.1355

          k = 0.0000 0.0000 0.1665 ( 63851 PWs)   bands (ev):

   -66.4173 -66.4168 -66.4168 -66.4166 -66.4162 -66.4161 -66.4161 -66.4155
   -30.8100 -30.8061 -30.8044 -30.8005 -30.7675 -30.7674 -30.7634 -30.7626
   -30.7594 -30.7549 -30.7524 -30.7488 -30.7268 -30.7255 -30.7253 -30.7248
   -30.6820 -30.6805 -30.6797 -30.6797 -30.6781 -30.6756 -30.6728 -30.6705
   -20.5689 -20.5689 -20.5688 -20.5688 -20.5688 -20.5687 -20.5687 -20.5686
   -20.5606 -20.5604 -20.5596 -20.5593 -20.5567 -20.5564 -20.5558 -20.5556
   -20.5552 -20.5542 -20.5535 -20.5529 -20.5527 -20.5520 -20.5516 -20.5515
   -20.5515 -20.5506 -20.5503 -20.5500 -20.5496 -20.5491 -20.5488 -20.5484
   -20.5478 -20.5474 -20.5468 -20.5466 -20.5464 -20.5463 -20.5457 -20.5455
   -20.5315 -20.5315 -20.5298 -20.5297 -20.5295 -20.5295 -20.5286 -20.5285
   -20.5268 -20.5267 -20.5255 -20.5255 -20.5253 -20.5253 -20.5238 -20.5238
   -10.2252  -9.9340  -9.8942  -9.8647  -9.6156  -9.5794  -9.5213  -9.3470
    -9.3177  -9.3083  -9.3023  -9.2770  -8.1707  -8.1493  -8.1198  -8.1123
    -8.0796  -8.0625  -8.0433  -8.0390  -8.0083  -8.0034  -7.9957  -7.9579
     0.8239   0.8251   0.8681   0.9160   0.9265   0.9570   0.9941   1.1326
     1.1708   1.2898   1.3004   1.4826   2.2236   2.2925   2.3184   2.3201
     2.4037   2.4324   3.9367   4.0070   4.0740   4.0944   4.1166   4.1974
     4.2158   4.2880   4.3431   4.3860   4.3876   4.4552   4.8114   4.8213
     4.9546   5.0318   5.1129   5.2014   5.2652   5.3235   5.3407   5.3549
     5.4093   5.4278   5.6091   5.6715   5.7366   5.7401   5.8046   5.9276
     5.9820   6.0873   6.2364   6.2724   6.3423   6.5100   6.5107   6.5142
     6.5506   6.5826   6.6227   6.6622   6.7002   6.7065   6.7347   6.7478
     6.7790   6.7974   7.8199   7.8316   7.8365   7.8381   7.8494   7.8574
     9.0741   9.1143   9.2250   9.2386   9.4058   9.4601  12.1242  12.1288
    12.1776  12.2067  12.2997  12.3289  12.3383  12.3597  12.3680  12.4368
    12.4625  12.6094  13.3472  13.4371  13.5439  13.6189  13.6251  13.6566
    14.1952  14.2968  14.3307  14.4591  14.5986  14.6577  15.4346  15.5830
    15.9864  16.4501  16.6667  16.9356  17.0127  17.1782

          k = 0.0000 0.0000 0.3331 ( 63880 PWs)   bands (ev):

   -66.4172 -66.4169 -66.4166 -66.4165 -66.4163 -66.4162 -66.4159 -66.4156
   -30.8092 -30.8069 -30.8036 -30.8014 -30.7666 -30.7661 -30.7643 -30.7635
   -30.7451 -30.7409 -30.7373 -30.7333 -30.7267 -30.7262 -30.7248 -30.7231
   -30.6973 -30.6947 -30.6940 -30.6911 -30.6797 -30.6771 -30.6748 -30.6724
   -20.5689 -20.5688 -20.5688 -20.5688 -20.5688 -20.5687 -20.5687 -20.5686
   -20.5606 -20.5604 -20.5595 -20.5593 -20.5566 -20.5564 -20.5557 -20.5556
   -20.5549 -20.5543 -20.5533 -20.5528 -20.5524 -20.5517 -20.5516 -20.5514
   -20.5509 -20.5509 -20.5504 -20.5502 -20.5495 -20.5494 -20.5492 -20.5490
   -20.5475 -20.5471 -20.5469 -20.5465 -20.5464 -20.5462 -20.5459 -20.5457
   -20.5308 -20.5307 -20.5294 -20.5293 -20.5290 -20.5290 -20.5288 -20.5287
   -20.5277 -20.5277 -20.5264 -20.5264 -20.5250 -20.5250 -20.5242 -20.5241
   -10.1301  -9.9697  -9.7830  -9.7482  -9.6406  -9.6032  -9.3386  -9.3232
    -9.2634  -9.1509  -9.1457  -9.1314  -8.4888  -8.4719  -8.4533  -8.4483
    -8.0940  -8.0714  -8.0375  -8.0334  -8.0163  -8.0059  -7.9940  -7.9676
     0.8243   0.8249   0.9142   0.9184   0.9770   0.9911   1.0903   1.1294
     1.9112   1.9895   2.0143   2.1134   2.2432   2.3011   2.5328   2.5573
     2.6441   2.6629   3.4314   3.5034   3.5481   3.6182   3.8407   4.0652
     4.1633   4.2204   4.2289   4.3059   4.3264   4.4146   4.5676   4.6186
     4.6212   4.7010   4.7662   4.8955   5.0602   5.1352   5.3960   5.4620
     5.4845   5.5396   5.6439   5.7138   5.7810   5.8072   5.8414   5.9386
     5.9539   6.0351   6.0869   6.1411   6.1791   6.2142   6.3107   6.4300
     6.4954   6.6036   6.7156   6.7268   6.7725   6.7927   6.7950   6.8269
     6.8709   6.9158   7.6201   7.6554   7.6577   7.6690   7.8433   7.8449
     9.0862   9.1176   9.9808   9.9915  10.1419  10.1767  11.6012  11.6031
    11.7525  11.7838  12.2975  12.3130  12.3340  12.4441  12.4951  12.5406
    12.5553  12.6735  13.1696  13.1720  13.2650  13.3057  13.5414  13.5599
    14.2583  14.2904  14.7666  14.7881  14.9922  15.3373  15.4153  15.4957
    15.8344  16.9174  17.0391  17.0418  17.2996  17.4234

          k = 0.0000 0.0000-0.4996 ( 63910 PWs)   bands (ev):

   -66.4171 -66.4170 -66.4165 -66.4164 -66.4164 -66.4163 -66.4158 -66.4158
   -30.8081 -30.8081 -30.8025 -30.8025 -30.7654 -30.7654 -30.7648 -30.7648
   -30.7308 -30.7308 -30.7295 -30.7294 -30.7161 -30.7161 -30.7157 -30.7157
   -30.7131 -30.7131 -30.7121 -30.7121 -30.6786 -30.6785 -30.6737 -30.6737
   -20.5689 -20.5688 -20.5688 -20.5688 -20.5688 -20.5687 -20.5687 -20.5687
   -20.5605 -20.5605 -20.5595 -20.5594 -20.5565 -20.5565 -20.5557 -20.5557
   -20.5546 -20.5546 -20.5530 -20.5530 -20.5518 -20.5518 -20.5514 -20.5514
   -20.5510 -20.5510 -20.5501 -20.5501 -20.5496 -20.5496 -20.5494 -20.5493
   -20.5472 -20.5472 -20.5468 -20.5468 -20.5461 -20.5461 -20.5459 -20.5459
   -20.5298 -20.5298 -20.5297 -20.5297 -20.5287 -20.5287 -20.5287 -20.5286
   -20.5276 -20.5276 -20.5276 -20.5276 -20.5246 -20.5246 -20.5246 -20.5246
   -10.0351 -10.0351  -9.6915  -9.6915  -9.6537  -9.6537  -9.3308  -9.3308
    -8.8808  -8.8808  -8.8548  -8.8547  -8.8525  -8.8525  -8.8370  -8.8370
    -8.0832  -8.0832  -8.0271  -8.0271  -8.0197  -8.0197  -7.9808  -7.9808
     0.8242   0.8243   0.9202   0.9202   0.9870   0.9870   1.1212   1.1212
     2.2697   2.2697   2.8237   2.8237   2.8365   2.8365   2.9084   2.9084
     2.9435   2.9435   2.9503   2.9503   3.1612   3.1613   3.3222   3.3222
     3.3526   3.3526   4.2095   4.2096   4.3014   4.3014   4.6563   4.6563
     4.7721   4.7722   4.8319   4.8319   4.9092   4.9092   5.5489   5.5489
     5.5984   5.5984   5.6561   5.6561   5.7110   5.7110   5.9028   5.9028
     5.9041   5.9041   5.9434   5.9434   6.1649   6.1649   6.2233   6.2233
     6.5201   6.5201   6.7221   6.7221   6.7858   6.7858   7.2715   7.2716
     7.3080   7.3080   7.3316   7.3316   7.3393   7.3393   7.8454   7.8455
     9.1023   9.1023  10.8352  10.8352  10.8374  10.8374  10.9877  10.9877
    11.0109  11.0109  12.2973  12.2973  12.4249  12.4250  12.7960  12.7961
    12.8324  12.8324  12.8759  12.8759  12.9080  12.9081  13.5415  13.5415
    14.2791  14.2791  15.1394  15.1394  15.2466  15.2466  15.3163  15.3163
    16.3391  16.3391  17.2927  17.2927  17.4779  17.4780

          k = 0.0000 0.1645 0.0000 ( 63860 PWs)   bands (ev):

   -66.4173 -66.4168 -66.4167 -66.4166 -66.4162 -66.4161 -66.4160 -66.4155
   -30.8055 -30.8009 -30.7997 -30.7952 -30.7685 -30.7678 -30.7648 -30.7638
   -30.7618 -30.7602 -30.7576 -30.7548 -30.7322 -30.7308 -30.7298 -30.7291
   -30.6805 -30.6776 -30.6763 -30.6759 -30.6759 -30.6732 -30.6688 -30.6682
   -20.5689 -20.5689 -20.5688 -20.5688 -20.5688 -20.5687 -20.5687 -20.5686
   -20.5603 -20.5600 -20.5593 -20.5588 -20.5570 -20.5565 -20.5557 -20.5554
   -20.5553 -20.5544 -20.5535 -20.5530 -20.5525 -20.5523 -20.5520 -20.5518
   -20.5518 -20.5508 -20.5500 -20.5500 -20.5499 -20.5492 -20.5487 -20.5483
   -20.5478 -20.5475 -20.5467 -20.5466 -20.5465 -20.5463 -20.5456 -20.5455
   -20.5318 -20.5317 -20.5300 -20.5299 -20.5297 -20.5297 -20.5284 -20.5284
   -20.5264 -20.5263 -20.5255 -20.5254 -20.5251 -20.5251 -20.5237 -20.5237
   -10.2292  -9.9564  -9.8763  -9.8722  -9.6186  -9.6153  -9.4868  -9.3667
    -9.3450  -9.2895  -9.2750  -9.2745  -8.2270  -8.1805  -8.1757  -8.1365
    -8.0491  -8.0401  -8.0097  -8.0017  -7.9920  -7.9824  -7.9571  -7.9493
     0.7794   0.7889   0.8697   0.8822   0.8968   0.9157   0.9695   1.1082
     1.2457   1.3347   1.3472   1.5054   2.2176   2.2899   2.3156   2.3192
     2.4050   2.4308   3.8801   3.8911   3.9129   3.9276   4.3002   4.3139
     4.3457   4.3580   4.3591   4.4246   4.4290   4.4527   4.6620   4.9258
     4.9450   4.9783   5.0277   5.3148   5.3190   5.3242   5.3279   5.3488
     5.4297   5.4899   5.5059   5.7930   5.8010   5.8266   5.8869   5.8890
     5.8898   6.0332   6.0697   6.1530   6.1744   6.4389   6.5290   6.5612
     6.5625   6.6490   6.6702   6.6724   6.6807   6.7087   6.8549   6.8608
     6.8650   6.8726   7.7760   7.7771   7.8258   7.8274   7.9019   7.9091
     8.8456   8.8881   9.3487   9.3630   9.4123   9.4273  11.9999  12.0541
    12.0860  12.1153  12.2977  12.3146  12.3151  12.3168  12.4756  12.5858
    12.6119  12.6507  13.3311  13.4693  13.5241  13.6333  13.6545  13.6714
    14.3192  14.3624  14.4502  14.4625  14.4657  14.5316  15.5397  15.5792
    15.8902  16.3612  16.6601  16.9921  17.0238  17.2195

          k = 0.0000 0.1645 0.1665 ( 63893 PWs)   bands (ev):

   -66.4173 -66.4168 -66.4167 -66.4166 -66.4162 -66.4161 -66.4160 -66.4155
   -30.8052 -30.8013 -30.7994 -30.7955 -30.7681 -30.7669 -30.7641 -30.7621
   -30.7595 -30.7549 -30.7525 -30.7490 -30.7316 -30.7306 -30.7297 -30.7295
   -30.6819 -30.6802 -30.6797 -30.6796 -30.6783 -30.6760 -30.6728 -30.6709
   -20.5689 -20.5689 -20.5688 -20.5688 -20.5688 -20.5687 -20.5687 -20.5686
   -20.5603 -20.5600 -20.5592 -20.5589 -20.5569 -20.5566 -20.5556 -20.5554
   -20.5553 -20.5545 -20.5534 -20.5528 -20.5525 -20.5522 -20.5519 -20.5518
   -20.5516 -20.5507 -20.5503 -20.5501 -20.5499 -20.5493 -20.5489 -20.5485
   -20.5477 -20.5474 -20.5468 -20.5466 -20.5464 -20.5463 -20.5457 -20.5455
   -20.5315 -20.5315 -20.5298 -20.5297 -20.5295 -20.5295 -20.5286 -20.5286
   -20.5268 -20.5267 -20.5255 -20.5255 -20.5253 -20.5253 -20.5238 -20.5238
   -10.1866  -9.9053  -9.8875  -9.8128  -9.6231  -9.5284  -9.4939  -9.3328
    -9.3041  -9.2771  -9.2723  -9.2420  -8.2296  -8.1921  -8.1765  -8.1681
    -8.1491  -8.1240  -8.1174  -8.0771  -8.0428  -8.0064  -7.9958  -7.9607
     0.8634   0.8687   0.8825   0.9166   1.0781   1.0965   1.1715   1.2469
     1.3006   1.3460   1.4026   1.5849   2.3003   2.3014   2.3870   2.3996
     2.4076   2.5125   3.8704   3.9003   3.9084   3.9472   4.0315   4.0687
     4.1504   4.1915   4.3421   4.3777   4.4046   4.4339   4.6494   4.7606
     4.9216   4.9378   5.0302   5.0471   5.0697   5.2859   5.3227   5.3555
     5.4195   5.5336   5.5901   5.6985   5.7922   5.8151   5.8154   5.9260
     5.9994   6.0583   6.1785   6.2749   6.3396   6.3721   6.4655   6.5188
     6.5779   6.5825   6.6385   6.6530   6.6657   6.6768   6.6909   6.6989
     6.7309   6.7368   7.7710   7.7750   7.7774   7.7788   7.8442   7.8551
     9.1995   9.2408   9.3722   9.4272   9.6146   9.6711  12.0386  12.0587
    12.1076  12.1310  12.1450  12.1523  12.3475  12.3686  12.3853  12.4547
    12.4869  12.6165  13.3376  13.4133  13.5010  13.5230  13.5461  13.6155
    14.3964  14.4569  14.5976  14.6172  14.6297  14.6826  15.5529  15.8607
    15.9592  16.4999  16.5789  16.7437  17.1568  17.3104

          k = 0.0000 0.1645 0.3331 ( 63903 PWs)   bands (ev):

   -66.4172 -66.4168 -66.4167 -66.4165 -66.4163 -66.4161 -66.4160 -66.4156
   -30.8044 -30.8021 -30.7986 -30.7963 -30.7672 -30.7656 -30.7649 -30.7630
   -30.7457 -30.7419 -30.7375 -30.7335 -30.7315 -30.7309 -30.7287 -30.7270
   -30.6973 -30.6949 -30.6939 -30.6913 -30.6794 -30.6769 -30.6753 -30.6728
   -20.5689 -20.5688 -20.5688 -20.5688 -20.5688 -20.5687 -20.5687 -20.5686
   -20.5602 -20.5601 -20.5592 -20.5590 -20.5568 -20.5566 -20.5556 -20.5554
   -20.5550 -20.5546 -20.5532 -20.5527 -20.5523 -20.5520 -20.5518 -20.5516
   -20.5510 -20.5509 -20.5505 -20.5503 -20.5497 -20.5495 -20.5494 -20.5490
   -20.5475 -20.5472 -20.5469 -20.5465 -20.5464 -20.5462 -20.5459 -20.5457
   -20.5308 -20.5307 -20.5294 -20.5293 -20.5290 -20.5290 -20.5288 -20.5287
   -20.5277 -20.5277 -20.5264 -20.5264 -20.5250 -20.5250 -20.5242 -20.5241
   -10.0876  -9.9234  -9.7936  -9.6799  -9.6487  -9.5184  -9.3023  -9.2829
    -9.2709  -9.1534  -9.1353  -9.1128  -8.4861  -8.4798  -8.4592  -8.4506
    -8.2083  -8.1869  -8.1610  -8.1392  -8.0337  -8.0060  -7.9969  -7.9705
     0.8837   0.8850   0.9146   0.9190   1.2275   1.2407   1.2981   1.3428
     1.9117   1.9945   2.0142   2.1255   2.3213   2.3771   2.5417   2.6385
     2.6411   2.7434   3.4380   3.5420   3.5536   3.6836   3.7922   3.9331
     3.9487   3.9786   4.2143   4.2871   4.3194   4.4007   4.4079   4.4879
     4.5915   4.6110   4.6786   4.8061   4.8672   5.0766   5.1537   5.3832
     5.4136   5.4989   5.5902   5.7236   5.7722   5.7779   5.8499   5.8862
     5.9589   6.0382   6.1414   6.1822   6.2316   6.3438   6.4219   6.5085
     6.5593   6.5745   6.6229   6.6259   6.6523   6.6938   6.8173   6.8291
     6.9047   6.9254   7.5963   7.6138   7.6493   7.6584   7.7829   7.7916
     9.3753   9.4077   9.9857   9.9953  10.2666  10.3082  11.6022  11.6039
    11.7942  11.8376  12.1138  12.1457  12.2461  12.3502  12.4713  12.5184
    12.5430  12.6569  13.0871  13.1311  13.1727  13.2430  13.5195  13.5398
    14.4268  14.4536  14.9129  14.9833  15.1496  15.4678  15.4914  15.7600
    15.9624  16.8643  16.9778  17.0052  17.1474  17.4363

          k = 0.0000 0.1645-0.4996 ( 63930 PWs)   bands (ev):

   -66.4170 -66.4170 -66.4165 -66.4165 -66.4163 -66.4163 -66.4158 -66.4158
   -30.8033 -30.8032 -30.7975 -30.7975 -30.7661 -30.7661 -30.7642 -30.7642
   -30.7344 -30.7344 -30.7335 -30.7335 -30.7168 -30.7167 -30.7163 -30.7163
   -30.7137 -30.7137 -30.7124 -30.7123 -30.6783 -30.6783 -30.6741 -30.6741
   -20.5689 -20.5688 -20.5688 -20.5688 -20.5688 -20.5687 -20.5687 -20.5687
   -20.5602 -20.5601 -20.5591 -20.5590 -20.5567 -20.5567 -20.5555 -20.5555
   -20.5548 -20.5548 -20.5529 -20.5529 -20.5520 -20.5520 -20.5516 -20.5515
   -20.5511 -20.5510 -20.5502 -20.5502 -20.5497 -20.5497 -20.5496 -20.5496
   -20.5472 -20.5472 -20.5469 -20.5468 -20.5461 -20.5461 -20.5460 -20.5459
   -20.5298 -20.5298 -20.5298 -20.5297 -20.5287 -20.5287 -20.5287 -20.5286
   -20.5277 -20.5276 -20.5276 -20.5276 -20.5246 -20.5246 -20.5246 -20.5246
    -9.9897  -9.9897  -9.7008  -9.7008  -9.5726  -9.5726  -9.2913  -9.2913
    -8.8890  -8.8890  -8.8570  -8.8570  -8.8504  -8.8504  -8.8309  -8.8309
    -8.1988  -8.1988  -8.1512  -8.1512  -8.0200  -8.0199  -7.9838  -7.9838
     0.8857   0.8857   0.9206   0.9207   1.2413   1.2414   1.3346   1.3347
     2.3466   2.3466   2.8357   2.8357   2.8673   2.8673   2.9050   2.9050
     2.9466   2.9466   2.9770   2.9770   3.1547   3.1547   3.3658   3.3658
     3.3976   3.3977   3.9518   3.9518   4.2592   4.2592   4.4734   4.4734
     4.6007   4.6007   4.7494   4.7494   4.9175   4.9175   5.2130   5.2130
     5.4588   5.4588   5.5845   5.5845   5.8121   5.8121   5.9120   5.9120
     5.9885   5.9885   5.9921   5.9921   6.2159   6.2159   6.4078   6.4078
     6.6072   6.6072   6.6089   6.6089   6.6454   6.6454   7.2760   7.2760
     7.3018   7.3018   7.3177   7.3177   7.3324   7.3324   7.7870   7.7870
     9.3928   9.3928  10.8373  10.8373  10.8398  10.8398  11.0645  11.0645
    11.0929  11.0929  12.1137  12.1137  12.4475  12.4475  12.6768  12.6768
    12.7296  12.7296  12.8349  12.8349  12.8798  12.8798  13.5208  13.5209
    14.4430  14.4430  15.2949  15.2949  15.3766  15.3766  15.5519  15.5519
    16.4346  16.4346  17.2265  17.2266  17.3232  17.3232

          k = 0.0000 0.3291 0.0000 ( 63896 PWs)   bands (ev):

   -66.4172 -66.4169 -66.4166 -66.4165 -66.4163 -66.4162 -66.4159 -66.4156
   -30.7930 -30.7883 -30.7862 -30.7815 -30.7708 -30.7668 -30.7663 -30.7649
   -30.7606 -30.7597 -30.7570 -30.7552 -30.7449 -30.7441 -30.7420 -30.7414
   -30.6797 -30.6774 -30.6771 -30.6761 -30.6754 -30.6738 -30.6691 -30.6686
   -20.5689 -20.5689 -20.5688 -20.5688 -20.5687 -20.5687 -20.5687 -20.5686
   -20.5594 -20.5591 -20.5582 -20.5578 -20.5575 -20.5571 -20.5559 -20.5552
   -20.5551 -20.5548 -20.5533 -20.5530 -20.5527 -20.5527 -20.5526 -20.5521
   -20.5521 -20.5509 -20.5506 -20.5504 -20.5498 -20.5492 -20.5490 -20.5486
   -20.5478 -20.5476 -20.5467 -20.5466 -20.5465 -20.5464 -20.5456 -20.5455
   -20.5318 -20.5318 -20.5300 -20.5299 -20.5297 -20.5297 -20.5284 -20.5284
   -20.5264 -20.5263 -20.5255 -20.5254 -20.5252 -20.5251 -20.5237 -20.5237
   -10.1425  -9.9913  -9.7747  -9.7724  -9.6418  -9.6395  -9.3622  -9.3496
    -9.2435  -9.1284  -9.1282  -9.1267  -8.5224  -8.4888  -8.4846  -8.4655
    -8.0431  -8.0343  -8.0165  -8.0094  -7.9854  -7.9757  -7.9648  -7.9570
     0.7812   0.7867   0.8959   0.8986   0.9124   0.9170   1.0773   1.1076
     1.9325   2.0309   2.0489   2.1583   2.2376   2.2915   2.5275   2.5612
     2.6304   2.6701   3.3643   3.3981   3.4306   3.4737   3.8616   4.1405
     4.1699   4.3080   4.3195   4.3421   4.3507   4.4035   4.5590   4.5922
     4.6390   4.6662   4.8734   4.8763   5.1634   5.1681   5.3902   5.3950
     5.5834   5.6985   5.7085   5.7805   5.7935   5.8183   5.8253   5.8732
     5.8774   6.0021   6.0543   6.1147   6.1377   6.1951   6.4151   6.4540
     6.5014   6.6493   6.7796   6.7889   6.8566   6.8585   6.8595   6.8618
     6.8661   6.8719   7.5815   7.5873   7.6111   7.6193   7.9034   7.9077
     8.8575   8.8819  10.0023  10.0431  10.0607  10.0954  11.5052  11.5611
    11.5646  11.6031  12.3064  12.3169  12.3172  12.3199  12.6265  12.7310
    12.7312  12.7781  13.1704  13.2976  13.3179  13.3677  13.5072  13.5569
    14.4500  14.4563  14.6922  14.8679  14.9105  15.3039  15.4470  15.4797
    15.7566  16.8974  16.9407  16.9488  17.4074  17.5566

          k = 0.0000 0.3291 0.1665 ( 63880 PWs)   bands (ev):

   -66.4172 -66.4169 -66.4166 -66.4165 -66.4163 -66.4162 -66.4159 -66.4156
   -30.7926 -30.7886 -30.7858 -30.7818 -30.7705 -30.7666 -30.7654 -30.7601
   -30.7600 -30.7562 -30.7525 -30.7495 -30.7443 -30.7435 -30.7417 -30.7410
   -30.6814 -30.6801 -30.6794 -30.6792 -30.6785 -30.6771 -30.6728 -30.6717
   -20.5689 -20.5688 -20.5688 -20.5688 -20.5687 -20.5687 -20.5687 -20.5686
   -20.5594 -20.5591 -20.5582 -20.5578 -20.5574 -20.5571 -20.5558 -20.5552
   -20.5550 -20.5548 -20.5532 -20.5529 -20.5527 -20.5526 -20.5523 -20.5521
   -20.5518 -20.5507 -20.5507 -20.5503 -20.5500 -20.5493 -20.5492 -20.5488
   -20.5477 -20.5475 -20.5467 -20.5465 -20.5465 -20.5464 -20.5457 -20.5456
   -20.5315 -20.5315 -20.5298 -20.5297 -20.5295 -20.5295 -20.5286 -20.5286
   -20.5268 -20.5267 -20.5255 -20.5255 -20.5253 -20.5253 -20.5238 -20.5238
   -10.0961  -9.9405  -9.7853  -9.6979  -9.6479  -9.5522  -9.3230  -9.3089
    -9.2508  -9.1312  -9.1201  -9.1093  -8.5222  -8.4952  -8.4820  -8.4720
    -8.1611  -8.1408  -8.1108  -8.0917  -8.0359  -8.0145  -7.9891  -7.9684
     0.8702   0.8728   0.9132   0.9179   1.1640   1.1734   1.2604   1.3000
     1.9342   2.0299   2.0483   2.1645   2.3200   2.3725   2.5337   2.6249
     2.6491   2.7550   3.3986   3.4149   3.4669   3.4876   3.8516   4.0197
     4.0544   4.1408   4.1764   4.2537   4.3752   4.3854   4.4006   4.4187
     4.5852   4.6590   4.6993   4.8579   4.9231   5.0908   5.1786   5.3551
     5.4295   5.5038   5.6268   5.7362   5.7589   5.7872   5.8325   5.8735
     5.9604   6.1159   6.1527   6.1643   6.2559   6.3941   6.4108   6.5841
     6.5883   6.6382   6.6387   6.6768   6.6909   6.6932   6.7995   6.8174
     6.8630   6.8884   7.5788   7.5809   7.5829   7.5853   7.8464   7.8525
     9.2148   9.2361  10.0488  10.0923  10.1724  10.2293  11.5623  11.5817
    11.6004  11.6426  12.1345  12.1387  12.3564  12.3707  12.5364  12.5773
    12.6396  12.7305  13.1572  13.1884  13.1962  13.2945  13.4794  13.5256
    14.5614  14.5945  14.8772  14.8963  15.2128  15.4003  15.4534  15.8626
    15.8954  16.8900  16.9515  16.9668  17.0489  17.4485

          k = 0.0000 0.3291 0.3331 ( 63940 PWs)   bands (ev):

   -66.4171 -66.4168 -66.4167 -66.4164 -66.4164 -66.4161 -66.4160 -66.4157
   -30.7917 -30.7894 -30.7850 -30.7826 -30.7697 -30.7674 -30.7637 -30.7610
   -30.7501 -30.7491 -30.7450 -30.7429 -30.7379 -30.7357 -30.7341 -30.7333
   -30.6970 -30.6956 -30.6935 -30.6919 -30.6786 -30.6763 -30.6761 -30.6738
   -20.5689 -20.5688 -20.5688 -20.5688 -20.5687 -20.5687 -20.5687 -20.5686
   -20.5593 -20.5592 -20.5581 -20.5579 -20.5573 -20.5572 -20.5556 -20.5553
   -20.5550 -20.5548 -20.5529 -20.5529 -20.5527 -20.5523 -20.5522 -20.5518
   -20.5513 -20.5510 -20.5504 -20.5504 -20.5502 -20.5497 -20.5496 -20.5493
   -20.5474 -20.5473 -20.5469 -20.5467 -20.5463 -20.5462 -20.5458 -20.5457
   -20.5308 -20.5307 -20.5294 -20.5293 -20.5290 -20.5290 -20.5288 -20.5287
   -20.5277 -20.5277 -20.5264 -20.5264 -20.5250 -20.5250 -20.5242 -20.5241
    -9.9888  -9.8277  -9.8199  -9.6754  -9.5126  -9.2976  -9.2776  -9.2169
    -9.1610  -9.1399  -9.0664  -9.0322  -8.5757  -8.5549  -8.4935  -8.4782
    -8.4734  -8.4422  -8.4134  -8.3716  -8.0267  -8.0051  -7.9993  -7.9783
     0.9123   0.9152   0.9158   0.9202   1.7873   1.8358   1.9121   1.9397
     2.0118   2.0464   2.1289   2.2904   2.5459   2.5604   2.5757   2.6492
     2.8949   2.9834   3.3592   3.4431   3.5071   3.5331   3.5427   3.5843
     3.7651   3.8267   3.8751   4.0235   4.0906   4.2023   4.2759   4.3258
     4.4360   4.4764   4.5474   4.5972   4.6218   4.7541   4.8197   4.9523
     5.0425   5.2197   5.2493   5.6296   5.8659   5.8751   5.8810   5.9793
     6.0687   6.0783   6.2119   6.2567   6.2854   6.3933   6.4013   6.4088
     6.5537   6.7293   6.7572   6.7628   6.7672   6.8463   6.8531   6.8878
     6.9398   7.0120   7.4613   7.4688   7.5441   7.5925   7.6621   7.6921
     9.9397   9.9932  10.0746  10.1067  10.6492  10.7002  11.5476  11.5673
    11.6034  11.6537  11.8272  11.8872  12.0156  12.0601  12.5013  12.5412
    12.6357  12.7352  12.7599  12.7944  13.1253  13.2325  13.2888  13.3583
    14.7143  14.8699  14.9510  15.3578  15.3762  15.9055  15.9422  16.2964
    16.3309  16.8065  16.8800  17.1468  17.2253  17.4053

          k = 0.0000 0.3291-0.4996 ( 63928 PWs)   bands (ev):

   -66.4169 -66.4169 -66.4166 -66.4166 -66.4162 -66.4162 -66.4159 -66.4159
   -30.7906 -30.7906 -30.7838 -30.7838 -30.7686 -30.7685 -30.7623 -30.7622
   -30.7468 -30.7468 -30.7447 -30.7447 -30.7177 -30.7177 -30.7169 -30.7169
   -30.7141 -30.7141 -30.7130 -30.7129 -30.6775 -30.6775 -30.6752 -30.6751
   -20.5688 -20.5688 -20.5688 -20.5688 -20.5687 -20.5687 -20.5687 -20.5687
   -20.5593 -20.5592 -20.5580 -20.5580 -20.5573 -20.5572 -20.5555 -20.5555
   -20.5549 -20.5549 -20.5528 -20.5528 -20.5525 -20.5525 -20.5516 -20.5516
   -20.5511 -20.5511 -20.5505 -20.5505 -20.5500 -20.5499 -20.5499 -20.5498
   -20.5471 -20.5471 -20.5470 -20.5469 -20.5461 -20.5461 -20.5460 -20.5460
   -20.5298 -20.5298 -20.5298 -20.5297 -20.5287 -20.5287 -20.5287 -20.5286
   -20.5276 -20.5276 -20.5276 -20.5276 -20.5246 -20.5246 -20.5246 -20.5246
    -9.8862  -9.8862  -9.7310  -9.7310  -9.3483  -9.3483  -9.1577  -9.1577
    -8.9251  -8.9250  -8.8746  -8.8746  -8.8337  -8.8337  -8.8070  -8.8070
    -8.4863  -8.4863  -8.4512  -8.4512  -8.0131  -8.0131  -7.9917  -7.9917
     0.9169   0.9169   0.9218   0.9218   1.9314   1.9314   2.0308   2.0308
     2.5680   2.5680   2.8712   2.8712   2.8918   2.8918   2.9054   2.9055
     2.9345   2.9345   3.0715   3.0716   3.1303   3.1303   3.4323   3.4324
     3.5407   3.5407   3.5965   3.5965   3.7704   3.7704   3.9846   3.9846
     4.4847   4.4847   4.5839   4.5839   4.6633   4.6633   4.7278   4.7278
     4.9820   4.9820   5.4090   5.4090   5.9470   5.9470   5.9518   5.9519
     6.1002   6.1002   6.1196   6.1196   6.2034   6.2034   6.3793   6.3794
     6.7208   6.7208   6.7864   6.7865   6.8643   6.8643   7.2211   7.2211
     7.2534   7.2534   7.2726   7.2726   7.3456   7.3456   7.6074   7.6074
    10.0626  10.0626  10.8374  10.8374  10.8447  10.8447  11.3089  11.3089
    11.3519  11.3519  11.6170  11.6170  12.2273  12.2273  12.2902  12.2902
    12.6545  12.6546  12.8269  12.8269  12.8974  12.8974  13.2993  13.2993
    14.8165  14.8165  15.2230  15.2230  15.7991  15.7992  16.5243  16.5243
    16.7634  16.7634  16.8004  16.8004  17.4072  17.4072

          k = 0.0000-0.4936 0.0000 ( 63858 PWs)   bands (ev):

   -66.4171 -66.4171 -66.4164 -66.4164 -66.4164 -66.4164 -66.4157 -66.4157
   -30.7786 -30.7786 -30.7738 -30.7738 -30.7688 -30.7688 -30.7657 -30.7657
   -30.7626 -30.7625 -30.7548 -30.7548 -30.7539 -30.7539 -30.7533 -30.7533
   -30.6786 -30.6786 -30.6765 -30.6765 -30.6746 -30.6746 -30.6690 -30.6690
   -20.5689 -20.5689 -20.5688 -20.5688 -20.5687 -20.5687 -20.5686 -20.5686
   -20.5583 -20.5583 -20.5580 -20.5580 -20.5569 -20.5569 -20.5565 -20.5564
   -20.5541 -20.5541 -20.5538 -20.5538 -20.5530 -20.5530 -20.5524 -20.5524
   -20.5514 -20.5514 -20.5508 -20.5507 -20.5494 -20.5494 -20.5489 -20.5489
   -20.5477 -20.5477 -20.5466 -20.5466 -20.5465 -20.5465 -20.5456 -20.5456
   -20.5318 -20.5318 -20.5300 -20.5299 -20.5297 -20.5297 -20.5284 -20.5284
   -20.5264 -20.5263 -20.5255 -20.5254 -20.5252 -20.5251 -20.5237 -20.5237
   -10.0540 -10.0540  -9.6894  -9.6894  -9.6884  -9.6884  -9.3559  -9.3559
    -8.8887  -8.8886  -8.8475  -8.8474  -8.8450  -8.8449  -8.8443  -8.8442
    -8.0342  -8.0342  -8.0177  -8.0177  -7.9752  -7.9752  -7.9665  -7.9665
     0.7839   0.7839   0.8998   0.8998   0.9176   0.9176   1.1023   1.1024
     2.2642   2.2642   2.8025   2.8025   2.8985   2.8985   2.9035   2.9036
     2.9194   2.9194   2.9514   2.9515   3.1596   3.1597   3.1789   3.1790
     3.2883   3.2884   4.3239   4.3239   4.3322   4.3322   4.7331   4.7331
     4.7549   4.7550   4.8989   4.8989   4.9204   4.9205   5.5376   5.5376
     5.5473   5.5473   5.7735   5.7735   5.7875   5.7875   5.8351   5.8351
     5.9068   5.9068   5.9481   5.9481   6.2350   6.2350   6.2650   6.2650
     6.5733   6.5733   6.8582   6.8582   6.8645   6.8646   7.2361   7.2362
     7.2479   7.2479   7.2556   7.2557   7.2640   7.2640   7.9055   7.9055
     8.8706   8.8706  10.7823  10.7823  10.8296  10.8296  10.8390  10.8390
    10.8895  10.8895  12.3138  12.3139  12.3196  12.3196  12.8778  12.8778
    12.9798  12.9799  12.9919  12.9919  13.0330  13.0330  13.5141  13.5142
    14.4515  14.4515  15.1745  15.1746  15.2453  15.2454  15.2767  15.2768
    16.2441  16.2441  17.2590  17.2591  17.5706  17.5707

          k = 0.0000-0.4936 0.1665 ( 63968 PWs)   bands (ev):

   -66.4171 -66.4170 -66.4165 -66.4164 -66.4164 -66.4163 -66.4158 -66.4158
   -30.7782 -30.7782 -30.7741 -30.7741 -30.7680 -30.7680 -30.7636 -30.7636
   -30.7619 -30.7619 -30.7545 -30.7544 -30.7508 -30.7508 -30.7491 -30.7491
   -30.6807 -30.6807 -30.6788 -30.6788 -30.6783 -30.6783 -30.6725 -30.6724
   -20.5689 -20.5688 -20.5688 -20.5688 -20.5687 -20.5687 -20.5687 -20.5686
   -20.5583 -20.5583 -20.5581 -20.5580 -20.5569 -20.5569 -20.5565 -20.5564
   -20.5541 -20.5541 -20.5538 -20.5538 -20.5529 -20.5528 -20.5522 -20.5522
   -20.5515 -20.5514 -20.5507 -20.5507 -20.5496 -20.5496 -20.5491 -20.5491
   -20.5476 -20.5476 -20.5466 -20.5466 -20.5465 -20.5465 -20.5456 -20.5456
   -20.5315 -20.5315 -20.5298 -20.5297 -20.5295 -20.5295 -20.5286 -20.5286
   -20.5268 -20.5267 -20.5255 -20.5255 -20.5253 -20.5253 -20.5238 -20.5238
   -10.0044 -10.0044  -9.6982  -9.6982  -9.6031  -9.6031  -9.3156  -9.3155
    -8.8946  -8.8945  -8.8520  -8.8520  -8.8429  -8.8428  -8.8379  -8.8378
    -8.1514  -8.1513  -8.1017  -8.1017  -8.0254  -8.0254  -7.9789  -7.9789
     0.8722   0.8722   0.9184   0.9184   1.1738   1.1739   1.2937   1.2937
     2.3460   2.3461   2.8138   2.8138   2.8735   2.8735   2.9217   2.9218
     2.9496   2.9496   2.9830   2.9830   3.1551   3.1552   3.2289   3.2290
     3.3245   3.3245   4.0366   4.0366   4.3586   4.3587   4.5226   4.5226
     4.6532   4.6533   4.7392   4.7393   4.9263   4.9264   5.2159   5.2159
     5.4858   5.4858   5.5077   5.5077   5.8404   5.8404   5.8714   5.8714
     6.0020   6.0020   6.1437   6.1437   6.2310   6.2310   6.4938   6.4939
     6.6312   6.6312   6.6724   6.6724   6.6986   6.6986   7.2270   7.2270
     7.2391   7.2391   7.2559   7.2560   7.2594   7.2594   7.8495   7.8495
     9.2263   9.2263  10.8377  10.8377  10.8681  10.8681  10.9020  10.9020
    10.9504  10.9504  12.1372  12.1372  12.3660  12.3660  12.8075  12.8075
    12.8409  12.8409  12.9003  12.9004  12.9778  12.9778  13.4873  13.4873
    14.5873  14.5873  15.2516  15.2517  15.3272  15.3273  15.6447  15.6448
    16.3484  16.3484  17.2816  17.2816  17.2950  17.2951

          k = 0.0000-0.4936 0.3331 ( 63926 PWs)   bands (ev):

   -66.4169 -66.4169 -66.4166 -66.4166 -66.4162 -66.4162 -66.4159 -66.4159
   -30.7773 -30.7772 -30.7749 -30.7749 -30.7665 -30.7665 -30.7640 -30.7640
   -30.7587 -30.7587 -30.7554 -30.7553 -30.7380 -30.7380 -30.7345 -30.7345
   -30.6963 -30.6963 -30.6927 -30.6927 -30.6775 -30.6775 -30.6750 -30.6750
   -20.5689 -20.5688 -20.5688 -20.5688 -20.5687 -20.5687 -20.5687 -20.5686
   -20.5583 -20.5582 -20.5581 -20.5581 -20.5568 -20.5568 -20.5566 -20.5565
   -20.5540 -20.5540 -20.5539 -20.5539 -20.5525 -20.5525 -20.5517 -20.5517
   -20.5516 -20.5516 -20.5505 -20.5504 -20.5501 -20.5501 -20.5495 -20.5495
   -20.5474 -20.5474 -20.5468 -20.5468 -20.5463 -20.5463 -20.5458 -20.5458
   -20.5308 -20.5307 -20.5293 -20.5293 -20.5290 -20.5290 -20.5288 -20.5287
   -20.5277 -20.5277 -20.5264 -20.5264 -20.5250 -20.5250 -20.5242 -20.5241
    -9.8920  -9.8920  -9.7291  -9.7291  -9.3649  -9.3649  -9.1758  -9.1758
    -8.9260  -8.9259  -8.8696  -8.8695  -8.8303  -8.8302  -8.8132  -8.8132
    -8.4642  -8.4642  -8.4266  -8.4266  -8.0160  -8.0160  -7.9889  -7.9889
     0.9164   0.9164   0.9206   0.9206   1.9056   1.9056   1.9952   1.9952
     2.5828   2.5829   2.8266   2.8267   2.8742   2.8742   2.9297   2.9297
     2.9417   2.9418   3.0872   3.0872   3.1375   3.1375   3.3900   3.3900
     3.4477   3.4477   3.5145   3.5145   3.9557   3.9557   4.1127   4.1127
     4.4612   4.4612   4.5424   4.5424   4.6867   4.6867   4.7283   4.7283
     4.9853   4.9854   5.3753   5.3753   5.9035   5.9035   5.9526   5.9526
     6.1198   6.1198   6.1813   6.1813   6.2633   6.2633   6.3952   6.3952
     6.7187   6.7187   6.8309   6.8310   6.9042   6.9042   7.1889   7.1890
     7.1954   7.1955   7.2262   7.2262   7.2867   7.2868   7.6708   7.6708
     9.9841   9.9841  10.8503  10.8503  10.8654  10.8654  11.2251  11.2251
    11.2771  11.2771  11.6140  11.6140  12.3319  12.3319  12.3733  12.3734
    12.5309  12.5309  12.9051  12.9052  12.9763  12.9763  13.2537  13.2537
    14.8753  14.8753  15.1940  15.1940  15.7866  15.7867  16.5806  16.5806
    16.7483  16.7484  16.7990  16.7991  17.3838  17.3839

          k = 0.0000-0.4936-0.4996 ( 63936 PWs)   bands (ev):

   -66.4168 -66.4168 -66.4167 -66.4167 -66.4161 -66.4161 -66.4161 -66.4160
   -30.7761 -30.7761 -30.7761 -30.7760 -30.7652 -30.7651 -30.7651 -30.7651
   -30.7568 -30.7568 -30.7568 -30.7567 -30.7176 -30.7175 -30.7175 -30.7175
   -30.7137 -30.7137 -30.7137 -30.7137 -30.6764 -30.6764 -30.6764 -30.6764
   -20.5688 -20.5688 -20.5688 -20.5688 -20.5687 -20.5687 -20.5687 -20.5687
   -20.5582 -20.5582 -20.5582 -20.5581 -20.5567 -20.5567 -20.5567 -20.5566
   -20.5540 -20.5539 -20.5539 -20.5539 -20.5521 -20.5520 -20.5520 -20.5520
   -20.5509 -20.5508 -20.5508 -20.5508 -20.5501 -20.5500 -20.5500 -20.5500
   -20.5471 -20.5471 -20.5471 -20.5470 -20.5461 -20.5460 -20.5460 -20.5460
   -20.5298 -20.5298 -20.5298 -20.5297 -20.5287 -20.5287 -20.5287 -20.5286
   -20.5277 -20.5276 -20.5276 -20.5276 -20.5246 -20.5246 -20.5246 -20.5246
    -9.7905  -9.7904  -9.7904  -9.7904  -9.0675  -9.0675  -9.0675  -9.0675
    -8.9540  -8.9540  -8.9539  -8.9539  -8.7591  -8.7591  -8.7591  -8.7591
    -8.7206  -8.7206  -8.7206  -8.7206  -8.0025  -8.0025  -8.0025  -8.0025
     0.9221   0.9221   0.9221   0.9221   2.7447   2.7447   2.7447   2.7448
     2.8285   2.8285   2.8285   2.8285   2.8952   2.8952   2.8952   2.8952
     2.9928   2.9928   2.9928   2.9928   3.1284   3.1284   3.1284   3.1284
     3.2530   3.2530   3.2530   3.2530   3.8819   3.8819   3.8819   3.8819
     3.9633   3.9633   3.9633   3.9634   4.6870   4.6871   4.6871   4.6871
     5.1517   5.1517   5.1518   5.1518   5.9772   5.9772   5.9772   5.9772
     6.1383   6.1383   6.1383   6.1383   6.2154   6.2154   6.2154   6.2154
     7.0534   7.0535   7.0535   7.0535   7.0752   7.0752   7.0752   7.0752
     7.1479   7.1479   7.1479   7.1479   7.4059   7.4059   7.4059   7.4059
    10.7723  10.7723  10.7723  10.7723  10.9260  10.9260  10.9260  10.9260
    11.7441  11.7441  11.7441  11.7441  11.7942  11.7942  11.7942  11.7942
    12.7823  12.7823  12.7823  12.7824  13.0199  13.0199  13.0199  13.0199
    15.0774  15.0775  15.0775  15.0775  16.2920  16.2920  16.2921  16.2921
    17.4037  17.4037  17.4037  17.4037  17.5510  17.5510

          k = 0.1667 0.0000 0.0000 ( 63853 PWs)   bands (ev):

   -66.4173 -66.4168 -66.4167 -66.4167 -66.4162 -66.4161 -66.4161 -66.4155
   -30.8098 -30.8053 -30.8050 -30.8005 -30.7649 -30.7637 -30.7623 -30.7606
   -30.7584 -30.7568 -30.7555 -30.7549 -30.7279 -30.7256 -30.7251 -30.7237
   -30.6866 -30.6833 -30.6814 -30.6797 -30.6758 -30.6726 -30.6706 -30.6686
   -20.5689 -20.5689 -20.5688 -20.5688 -20.5688 -20.5687 -20.5687 -20.5686
   -20.5606 -20.5603 -20.5597 -20.5593 -20.5567 -20.5563 -20.5556 -20.5553
   -20.5553 -20.5543 -20.5537 -20.5530 -20.5529 -20.5521 -20.5517 -20.5515
   -20.5513 -20.5509 -20.5501 -20.5499 -20.5498 -20.5493 -20.5486 -20.5482
   -20.5478 -20.5474 -20.5467 -20.5467 -20.5465 -20.5462 -20.5457 -20.5455
   -20.5317 -20.5316 -20.5301 -20.5300 -20.5295 -20.5295 -20.5282 -20.5282
   -20.5263 -20.5262 -20.5259 -20.5258 -20.5252 -20.5252 -20.5240 -20.5240
   -10.2251  -9.9297  -9.8950  -9.8696  -9.6193  -9.5798  -9.5180  -9.3496
    -9.3177  -9.3059  -9.3020  -9.2770  -8.1854  -8.1421  -8.1329  -8.1132
    -8.0811  -8.0567  -8.0472  -8.0374  -8.0086  -7.9947  -7.9887  -7.9487
     0.8195   0.8208   0.8558   0.8971   0.9285   0.9521   0.9944   1.1167
     1.1864   1.3053   1.3125   1.4892   2.2414   2.2927   2.2991   2.3432
     2.4042   2.4104   3.9427   3.9849   4.0657   4.0938   4.1033   4.1844
     4.2483   4.2531   4.3708   4.3860   4.4236   4.4325   4.8058   4.8240
     4.9501   5.0381   5.1016   5.2394   5.2637   5.2861   5.3414   5.3685
     5.4156   5.4339   5.6110   5.7115   5.7146   5.7536   5.8022   5.9312
     5.9943   6.1351   6.1840   6.2311   6.3079   6.4850   6.5319   6.5518
     6.5643   6.5718   6.6664   6.6769   6.7013   6.7080   6.7122   6.7364
     6.7688   6.7766   7.7696   7.7839   7.8454   7.8524   7.8953   7.8975
     9.0830   9.1216   9.2023   9.2417   9.4119   9.4545  12.0931  12.1221
    12.1263  12.2578  12.2692  12.2820  12.3447  12.3690  12.3827  12.4496
    12.5438  12.6350  13.3967  13.4057  13.5077  13.5425  13.7723  13.7949
    14.1002  14.1062  14.4048  14.4614  14.5979  14.6558  15.4314  15.5416
    16.0157  16.4348  16.6665  16.9327  17.0429  17.1753

          k = 0.1667 0.0000 0.1665 ( 63841 PWs)   bands (ev):

   -66.4173 -66.4167 -66.4167 -66.4167 -66.4161 -66.4161 -66.4161 -66.4155
   -30.8095 -30.8056 -30.8048 -30.8009 -30.7624 -30.7623 -30.7591 -30.7582
   -30.7571 -30.7552 -30.7516 -30.7491 -30.7274 -30.7260 -30.7246 -30.7241
   -30.6864 -30.6841 -30.6826 -30.6812 -30.6809 -30.6783 -30.6743 -30.6740
   -20.5689 -20.5688 -20.5688 -20.5688 -20.5688 -20.5687 -20.5687 -20.5686
   -20.5606 -20.5603 -20.5597 -20.5593 -20.5566 -20.5563 -20.5556 -20.5553
   -20.5552 -20.5544 -20.5536 -20.5529 -20.5528 -20.5520 -20.5515 -20.5514
   -20.5512 -20.5507 -20.5503 -20.5500 -20.5497 -20.5493 -20.5488 -20.5485
   -20.5477 -20.5474 -20.5467 -20.5467 -20.5464 -20.5462 -20.5458 -20.5456
   -20.5314 -20.5314 -20.5298 -20.5298 -20.5294 -20.5293 -20.5283 -20.5283
   -20.5266 -20.5266 -20.5258 -20.5258 -20.5255 -20.5254 -20.5241 -20.5241
   -10.1822  -9.8809  -9.8763  -9.8375  -9.5872  -9.5290  -9.5257  -9.3119
    -9.2930  -9.2793  -9.2791  -9.2670  -8.1874  -8.1701  -8.1494  -8.1416
    -8.1389  -8.1249  -8.1061  -8.0806  -8.0729  -8.0501  -8.0414  -8.0116
     0.9059   0.9253   0.9268   0.9930   1.0493   1.0645   1.1721   1.1878
     1.2903   1.3067   1.3970   1.5741   2.3064   2.3234   2.3740   2.4008
     2.4304   2.4874   3.9121   3.9840   4.0240   4.0404   4.0875   4.0938
     4.1466   4.1474   4.2319   4.2685   4.2788   4.3096   4.7609   4.7928
     4.8171   4.9787   5.0250   5.1057   5.1180   5.2328   5.2712   5.3971
     5.4028   5.4852   5.4944   5.6906   5.7329   5.7611   5.8246   6.0674
     6.0867   6.2253   6.2654   6.2997   6.3151   6.3836   6.3961   6.4730
     6.5118   6.5397   6.5491   6.5644   6.6107   6.6361   6.6636   6.6963
     6.7767   6.7860   7.7715   7.7816   7.7985   7.8052   7.8368   7.8442
     9.3638   9.4140   9.4279   9.4413   9.4953   9.5468  12.1285  12.1635
    12.1788  12.1805  12.1898  12.2175  12.2842  12.3395  12.3433  12.3615
    12.4742  12.4836  13.3448  13.3513  13.5140  13.5196  13.6244  13.6544
    14.2131  14.3280  14.4096  14.6008  14.8127  14.8156  15.4046  15.9586
    15.9883  16.5756  16.5874  16.7479  17.0912  17.2164

          k = 0.1667 0.0000 0.3331 ( 63882 PWs)   bands (ev):

   -66.4172 -66.4168 -66.4166 -66.4166 -66.4163 -66.4162 -66.4160 -66.4157
   -30.8087 -30.8064 -30.8040 -30.8017 -30.7614 -30.7610 -30.7587 -30.7579
   -30.7448 -30.7412 -30.7369 -30.7336 -30.7271 -30.7256 -30.7254 -30.7224
   -30.6971 -30.6945 -30.6945 -30.6917 -30.6854 -30.6824 -30.6803 -30.6776
   -20.5689 -20.5688 -20.5688 -20.5688 -20.5688 -20.5687 -20.5687 -20.5687
   -20.5605 -20.5603 -20.5596 -20.5594 -20.5565 -20.5563 -20.5555 -20.5554
   -20.5550 -20.5545 -20.5534 -20.5530 -20.5523 -20.5517 -20.5514 -20.5513
   -20.5509 -20.5508 -20.5505 -20.5503 -20.5496 -20.5493 -20.5493 -20.5490
   -20.5474 -20.5471 -20.5468 -20.5465 -20.5464 -20.5463 -20.5459 -20.5457
   -20.5306 -20.5306 -20.5293 -20.5292 -20.5289 -20.5288 -20.5287 -20.5287
   -20.5276 -20.5275 -20.5266 -20.5265 -20.5253 -20.5253 -20.5245 -20.5245
   -10.0823  -9.9169  -9.7592  -9.7099  -9.6116  -9.5514  -9.3007  -9.2849
    -9.2715  -9.1387  -9.1331  -9.1319  -8.4855  -8.4707  -8.4605  -8.4565
    -8.1683  -8.1418  -8.1282  -8.1051  -8.0779  -8.0585  -8.0409  -8.0197
     0.9192   0.9240   0.9753   0.9898   1.1816   1.1908   1.2621   1.3063
     1.9130   1.9905   2.0150   2.1200   2.3253   2.3808   2.5603   2.6219
     2.6623   2.7329   3.4693   3.5251   3.6125   3.6153   3.8193   4.0375
     4.0548   4.1010   4.1050   4.2274   4.2365   4.3638   4.3783   4.4591
     4.5690   4.6357   4.7389   4.7410   4.8782   5.0793   5.1506   5.3414
     5.4232   5.5885   5.6287   5.6367   5.6378   5.7211   5.7655   5.8056
     6.0641   6.1286   6.1637   6.1939   6.2463   6.2975   6.3753   6.5401
     6.5404   6.5642   6.5879   6.6022   6.6621   6.7378   6.8201   6.8405
     6.9011   6.9442   7.6143   7.6263   7.6466   7.6607   7.7911   7.7967
     9.4033   9.4351  10.1073  10.1341  10.1595  10.2026  11.6649  11.6657
    11.7585  11.7897  12.2055  12.2515  12.3539  12.3605  12.3704  12.3956
    12.5355  12.5858  13.0578  13.0808  13.2560  13.2818  13.5050  13.5201
    14.3347  14.4032  14.7783  14.9183  15.3069  15.3158  15.5372  15.8981
    15.9654  16.9317  16.9797  17.0096  17.1679  17.3298

          k = 0.1667 0.0000-0.4996 ( 63888 PWs)   bands (ev):

   -66.4170 -66.4170 -66.4164 -66.4164 -66.4164 -66.4164 -66.4158 -66.4158
   -30.8076 -30.8076 -30.8029 -30.8028 -30.7606 -30.7606 -30.7589 -30.7588
   -30.7305 -30.7305 -30.7296 -30.7296 -30.7159 -30.7158 -30.7156 -30.7156
   -30.7132 -30.7132 -30.7125 -30.7124 -30.6843 -30.6842 -30.6792 -30.6791
   -20.5689 -20.5688 -20.5688 -20.5688 -20.5688 -20.5687 -20.5687 -20.5687
   -20.5604 -20.5604 -20.5595 -20.5595 -20.5564 -20.5564 -20.5554 -20.5554
   -20.5547 -20.5547 -20.5532 -20.5531 -20.5517 -20.5517 -20.5514 -20.5514
   -20.5510 -20.5510 -20.5501 -20.5501 -20.5497 -20.5497 -20.5494 -20.5494
   -20.5471 -20.5471 -20.5468 -20.5467 -20.5462 -20.5462 -20.5460 -20.5460
   -20.5297 -20.5296 -20.5296 -20.5296 -20.5285 -20.5285 -20.5285 -20.5285
   -20.5277 -20.5277 -20.5277 -20.5277 -20.5250 -20.5249 -20.5249 -20.5249
    -9.9836  -9.9836  -9.6633  -9.6633  -9.6061  -9.6061  -9.2927  -9.2927
    -8.8900  -8.8900  -8.8525  -8.8525  -8.8466  -8.8466  -8.8380  -8.8380
    -8.1555  -8.1555  -8.1167  -8.1167  -8.0691  -8.0691  -8.0305  -8.0305
     0.9215   0.9215   0.9854   0.9854   1.1933   1.1934   1.3003   1.3004
     2.3505   2.3505   2.8268   2.8268   2.8303   2.8303   2.9111   2.9111
     2.9243   2.9243   3.0536   3.0536   3.2226   3.2226   3.3170   3.3170
     3.3753   3.3753   4.0463   4.0464   4.2002   4.2002   4.5605   4.5605
     4.6287   4.6287   4.6378   4.6378   4.8497   4.8497   5.2837   5.2837
     5.4854   5.4854   5.5103   5.5103   5.6819   5.6819   5.7989   5.7989
     6.0034   6.0035   6.1423   6.1423   6.1785   6.1786   6.4948   6.4948
     6.5485   6.5485   6.6006   6.6006   6.6589   6.6590   7.2833   7.2833
     7.3020   7.3020   7.3284   7.3284   7.3449   7.3449   7.7942   7.7942
     9.4203   9.4203  10.9158  10.9158  10.9227  10.9227  10.9998  10.9998
    11.0237  11.0237  12.2507  12.2507  12.3549  12.3549  12.6669  12.6669
    12.7053  12.7054  12.8585  12.8585  12.8701  12.8701  13.5092  13.5092
    14.3821  14.3821  15.1194  15.1195  15.3860  15.3860  15.6952  15.6952
    16.4651  16.4651  17.2893  17.2894  17.3180  17.3181

          k = 0.1667 0.1645 0.0000 ( 63898 PWs)   bands (ev):

   -66.4173 -66.4168 -66.4167 -66.4166 -66.4162 -66.4161 -66.4160 -66.4155
   -30.8050 -30.8004 -30.8000 -30.7955 -30.7647 -30.7636 -30.7631 -30.7606
   -30.7591 -30.7563 -30.7555 -30.7551 -30.7327 -30.7307 -30.7295 -30.7283
   -30.6864 -30.6831 -30.6819 -30.6800 -30.6756 -30.6729 -30.6706 -30.6688
   -20.5689 -20.5689 -20.5688 -20.5688 -20.5687 -20.5687 -20.5687 -20.5686
   -20.5602 -20.5599 -20.5593 -20.5589 -20.5568 -20.5564 -20.5555 -20.5554
   -20.5551 -20.5546 -20.5536 -20.5529 -20.5527 -20.5522 -20.5518 -20.5518
   -20.5515 -20.5509 -20.5500 -20.5500 -20.5500 -20.5494 -20.5487 -20.5483
   -20.5478 -20.5475 -20.5467 -20.5466 -20.5465 -20.5462 -20.5457 -20.5455
   -20.5317 -20.5316 -20.5301 -20.5300 -20.5295 -20.5295 -20.5282 -20.5282
   -20.5263 -20.5262 -20.5259 -20.5258 -20.5252 -20.5252 -20.5240 -20.5240
   -10.1865  -9.9060  -9.8837  -9.8173  -9.6265  -9.5255  -9.4944  -9.3345
    -9.3038  -9.2768  -9.2708  -9.2422  -8.2310  -8.1917  -8.1793  -8.1720
    -8.1495  -8.1345  -8.1200  -8.0838  -8.0347  -7.9989  -7.9863  -7.9529
     0.8548   0.8565   0.8706   0.8979   1.0849   1.0994   1.1861   1.2486
     1.3095   1.3356   1.4168   1.5883   2.2989   2.3233   2.3722   2.4003
     2.4264   2.4881   3.8545   3.8563   3.9580   3.9614   4.0320   4.0638
     4.1412   4.1420   4.3507   4.4068   4.4289   4.4669   4.5968   4.7704
     4.9036   4.9825   4.9946   5.0522   5.0640   5.2842   5.3220   5.3650
     5.4148   5.5241   5.6527   5.6641   5.7901   5.8110   5.8769   5.9243
     6.0214   6.0256   6.1660   6.2337   6.3151   6.3768   6.4515   6.5308
     6.5653   6.5744   6.6370   6.6480   6.6679   6.6842   6.7150   6.7230
     6.7338   6.7413   7.7275   7.7303   7.8226   7.8273   7.8450   7.8589
     9.2010   9.2328   9.3583   9.4065   9.6337   9.6810  11.9817  12.0772
    12.1125  12.1163  12.1350  12.1763  12.3178  12.3683  12.3709  12.4329
    12.5896  12.6504  13.3462  13.3784  13.4913  13.5026  13.6489  13.6709
    14.3435  14.3643  14.5651  14.6181  14.6824  14.6834  15.5131  15.8599
    15.9842  16.4943  16.5707  16.7435  17.1824  17.3231

          k = 0.1667 0.1645 0.1665 ( 63913 PWs)   bands (ev):

   -66.4172 -66.4167 -66.4167 -66.4166 -66.4162 -66.4161 -66.4161 -66.4156
   -30.8047 -30.8007 -30.7998 -30.7958 -30.7630 -30.7621 -30.7592 -30.7589
   -30.7566 -30.7552 -30.7516 -30.7493 -30.7321 -30.7310 -30.7290 -30.7287
   -30.6861 -30.6839 -30.6825 -30.6816 -30.6808 -30.6785 -30.6745 -30.6742
   -20.5689 -20.5688 -20.5688 -20.5688 -20.5688 -20.5687 -20.5687 -20.5686
   -20.5602 -20.5599 -20.5593 -20.5589 -20.5568 -20.5564 -20.5554 -20.5554
   -20.5551 -20.5546 -20.5535 -20.5528 -20.5527 -20.5522 -20.5518 -20.5517
   -20.5515 -20.5508 -20.5503 -20.5501 -20.5500 -20.5494 -20.5489 -20.5485
   -20.5477 -20.5474 -20.5467 -20.5466 -20.5465 -20.5463 -20.5458 -20.5456
   -20.5314 -20.5314 -20.5298 -20.5298 -20.5294 -20.5293 -20.5283 -20.5283
   -20.5266 -20.5266 -20.5258 -20.5258 -20.5255 -20.5254 -20.5241 -20.5241
   -10.1415  -9.8487  -9.8286  -9.8244  -9.5363  -9.5334  -9.5018  -9.2912
    -9.2689  -9.2654  -9.2443  -9.2442  -8.2362  -8.1921  -8.1901  -8.1699
    -8.1673  -8.1619  -8.1458  -8.1248  -8.1203  -8.1017  -8.0928  -8.0692
     1.0490   1.0622   1.0786   1.0862   1.1067   1.1729   1.1877   1.2483
     1.3946   1.4045   1.4162   1.6527   2.3826   2.3854   2.4065   2.4679
     2.4905   2.5094   3.8640   3.8868   3.9236   3.9444   4.0772   4.0913
     4.1080   4.1263   4.1510   4.1616   4.1832   4.2307   4.5822   4.7113
     4.7579   4.9482   4.9844   4.9983   5.0427   5.0713   5.0809   5.3499
     5.4086   5.4150   5.6681   5.6856   5.7464   5.8163   5.8716   6.0486
     6.0563   6.1640   6.1781   6.2928   6.3085   6.3150   6.3480   6.3720
     6.3914   6.5935   6.6003   6.6199   6.6506   6.6755   6.6830   6.6952
     6.7765   6.7999   7.7237   7.7308   7.7719   7.7767   7.7955   7.8116
     9.4609   9.4933   9.5974   9.6372   9.6809   9.7004  12.0342  12.0952
    12.1397  12.1546  12.1660  12.1859  12.1992  12.2102  12.3308  12.3883
    12.4394  12.4632  13.3200  13.3349  13.4355  13.4753  13.4990  13.5390
    14.5284  14.6189  14.6560  14.7231  14.8139  14.8188  15.8284  15.9330
    15.9584  16.6032  16.6851  16.6903  16.8219  17.4070

          k = 0.1667 0.1645 0.3331 ( 63867 PWs)   bands (ev):

   -66.4171 -66.4168 -66.4166 -66.4165 -66.4163 -66.4162 -66.4160 -66.4157
   -30.8039 -30.8016 -30.7990 -30.7967 -30.7622 -30.7609 -30.7592 -30.7574
   -30.7453 -30.7421 -30.7371 -30.7338 -30.7320 -30.7301 -30.7291 -30.7263
   -30.6971 -30.6948 -30.6944 -30.6919 -30.6851 -30.6822 -30.6808 -30.6781
   -20.5689 -20.5688 -20.5688 -20.5688 -20.5688 -20.5687 -20.5687 -20.5687
   -20.5602 -20.5600 -20.5592 -20.5590 -20.5567 -20.5565 -20.5553 -20.5552
   -20.5551 -20.5547 -20.5533 -20.5528 -20.5523 -20.5519 -20.5517 -20.5516
   -20.5510 -20.5508 -20.5505 -20.5503 -20.5499 -20.5495 -20.5494 -20.5491
   -20.5474 -20.5471 -20.5468 -20.5465 -20.5464 -20.5463 -20.5459 -20.5458
   -20.5306 -20.5306 -20.5293 -20.5292 -20.5289 -20.5288 -20.5287 -20.5287
   -20.5275 -20.5275 -20.5266 -20.5265 -20.5253 -20.5253 -20.5245 -20.5245
   -10.0365  -9.8651  -9.7209  -9.6912  -9.5598  -9.5269  -9.2792  -9.2657
    -9.2500  -9.1342  -9.1292  -9.1154  -8.4828  -8.4802  -8.4666  -8.4576
    -8.2089  -8.1915  -8.1702  -8.1587  -8.1484  -8.1317  -8.1178  -8.0942
     1.0859   1.0922   1.1811   1.1903   1.2287   1.2457   1.3495   1.4136
     1.9135   1.9955   2.0149   2.1313   2.4046   2.4593   2.6273   2.6510
     2.7266   2.7393   3.4875   3.5645   3.6042   3.6828   3.7751   3.9292
     3.9810   4.0147   4.0997   4.1223   4.1741   4.3117   4.3339   4.4008
     4.4559   4.4774   4.5359   4.6741   4.8142   4.8902   5.0358   5.1283
     5.3734   5.4373   5.4652   5.5948   5.6122   5.7327   5.7648   5.8303
     6.0005   6.1148   6.2622   6.2757   6.3104   6.3640   6.3781   6.4230
     6.5334   6.6113   6.6464   6.6605   6.6823   6.7779   6.8256   6.8376
     6.9148   6.9502   7.5909   7.6138   7.6183   7.6312   7.7375   7.7492
     9.6269   9.6625  10.1311  10.1492  10.2777  10.3114  11.6614  11.6716
    11.8040  11.8431  12.1598  12.1770  12.2221  12.2855  12.3227  12.3846
    12.4088  12.4958  13.0400  13.0724  13.1189  13.1589  13.4311  13.4476
    14.6185  14.6530  15.0296  15.1430  15.3071  15.5822  15.7337  15.8707
    16.0710  16.9063  16.9775  16.9925  17.0379  17.2544

          k = 0.1667 0.1645-0.4996 ( 63906 PWs)   bands (ev):

   -66.4170 -66.4169 -66.4165 -66.4164 -66.4164 -66.4163 -66.4159 -66.4158
   -30.8028 -30.8027 -30.7978 -30.7978 -30.7612 -30.7612 -30.7585 -30.7585
   -30.7344 -30.7344 -30.7333 -30.7332 -30.7166 -30.7165 -30.7160 -30.7160
   -30.7140 -30.7139 -30.7127 -30.7127 -30.6840 -30.6840 -30.6796 -30.6796
   -20.5689 -20.5688 -20.5688 -20.5688 -20.5688 -20.5687 -20.5687 -20.5687
   -20.5601 -20.5601 -20.5591 -20.5591 -20.5566 -20.5566 -20.5553 -20.5552
   -20.5549 -20.5549 -20.5530 -20.5530 -20.5518 -20.5518 -20.5515 -20.5515
   -20.5511 -20.5511 -20.5502 -20.5502 -20.5498 -20.5498 -20.5496 -20.5496
   -20.5471 -20.5471 -20.5468 -20.5468 -20.5462 -20.5462 -20.5460 -20.5460
   -20.5297 -20.5296 -20.5296 -20.5296 -20.5285 -20.5285 -20.5285 -20.5285
   -20.5277 -20.5277 -20.5277 -20.5277 -20.5250 -20.5249 -20.5249 -20.5249
    -9.9336  -9.9336  -9.6156  -9.6156  -9.5825  -9.5824  -9.2577  -9.2577
    -8.8984  -8.8984  -8.8525  -8.8525  -8.8449  -8.8449  -8.8336  -8.8336
    -8.2008  -8.2008  -8.1620  -8.1619  -8.1449  -8.1449  -8.1065  -8.1065
     1.0886   1.0887   1.1927   1.1927   1.2434   1.2435   1.4036   1.4036
     2.4282   2.4282   2.8385   2.8385   2.8662   2.8663   2.9090   2.9090
     2.9282   2.9282   3.0763   3.0763   3.2184   3.2184   3.3673   3.3673
     3.4088   3.4088   3.9789   3.9789   4.0843   4.0843   4.3944   4.3944
     4.5176   4.5176   4.5754   4.5754   4.6544   4.6544   5.1673   5.1673
     5.2807   5.2808   5.4514   5.4514   5.5191   5.5191   5.7956   5.7956
     6.1505   6.1505   6.2227   6.2227   6.3404   6.3404   6.4068   6.4068
     6.5048   6.5048   6.6537   6.6537   6.7198   6.7198   7.2739   7.2739
     7.2947   7.2947   7.3211   7.3211   7.3330   7.3330   7.7419   7.7419
     9.6470   9.6471  10.9191  10.9191  10.9342  10.9342  11.0719  11.0719
    11.0998  11.0998  12.1693  12.1693  12.2945  12.2945  12.6361  12.6361
    12.6921  12.6921  12.7186  12.7186  12.7458  12.7458  13.4350  13.4350
    14.6418  14.6418  15.4815  15.4816  15.5427  15.5427  15.6759  15.6759
    16.5389  16.5389  17.2348  17.2349  17.3256  17.3257

          k = 0.1667 0.3291 0.0000 ( 63893 PWs)   bands (ev):

   -66.4172 -66.4169 -66.4166 -66.4165 -66.4163 -66.4162 -66.4159 -66.4156
   -30.7922 -30.7875 -30.7865 -30.7818 -30.7667 -30.7642 -30.7635 -30.7621
   -30.7609 -30.7556 -30.7546 -30.7546 -30.7453 -30.7443 -30.7407 -30.7398
   -30.6856 -30.6832 -30.6822 -30.6806 -30.6751 -30.6735 -30.6705 -30.6694
   -20.5689 -20.5689 -20.5688 -20.5688 -20.5687 -20.5687 -20.5687 -20.5686
   -20.5593 -20.5590 -20.5583 -20.5579 -20.5573 -20.5570 -20.5560 -20.5553
   -20.5549 -20.5546 -20.5533 -20.5529 -20.5527 -20.5526 -20.5525 -20.5522
   -20.5520 -20.5510 -20.5506 -20.5506 -20.5498 -20.5492 -20.5490 -20.5486
   -20.5477 -20.5476 -20.5467 -20.5466 -20.5466 -20.5464 -20.5457 -20.5456
   -20.5317 -20.5316 -20.5301 -20.5300 -20.5295 -20.5295 -20.5282 -20.5282
   -20.5263 -20.5262 -20.5259 -20.5258 -20.5252 -20.5252 -20.5240 -20.5240
   -10.0961  -9.9410  -9.7833  -9.7006  -9.6502  -9.5505  -9.3236  -9.3087
    -9.2512  -9.1299  -9.1196  -9.1105  -8.5218  -8.4917  -8.4854  -8.4727
    -8.1686  -8.1467  -8.1189  -8.0981  -8.0275  -8.0071  -7.9795  -7.9607
     0.8585   0.8623   0.8969   0.8997   1.1774   1.1882   1.2697   1.3103
     1.9348   2.0294   2.0463   2.1608   2.3193   2.3726   2.5680   2.6189
     2.6644   2.7177   3.3618   3.4213   3.4563   3.5327   3.8468   4.0243
     4.0464   4.1098   4.1805   4.3101   4.3401   4.4068   4.4166   4.4272
     4.5565   4.6496   4.6848   4.8585   4.9149   5.0969   5.1825   5.3524
     5.4199   5.5024   5.6183   5.7439   5.7889   5.8120   5.8547   5.8961
     5.9162   6.0920   6.1128   6.1514   6.2840   6.3844   6.4428   6.5720
     6.6028   6.6403   6.6436   6.6776   6.6866   6.6881   6.8042   6.8198
     6.8652   6.8923   7.5521   7.5542   7.6134   7.6145   7.8471   7.8536
     9.2129   9.2334  10.0080  10.0524  10.2139  10.2577  11.5056  11.5591
    11.6378  11.6774  12.1237  12.1307  12.3697  12.3731  12.4769  12.5446
    12.7363  12.7748  13.1003  13.1479  13.3261  13.3576  13.4685  13.4790
    14.5530  14.5814  14.8678  14.8689  15.2138  15.3949  15.4250  15.8766
    15.8925  16.8998  16.9147  16.9644  17.0797  17.4254

          k = 0.1667 0.3291 0.1665 ( 63935 PWs)   bands (ev):

   -66.4171 -66.4169 -66.4166 -66.4165 -66.4163 -66.4162 -66.4160 -66.4157
   -30.7918 -30.7878 -30.7862 -30.7821 -30.7662 -30.7626 -30.7608 -30.7594
   -30.7565 -30.7549 -30.7515 -30.7496 -30.7446 -30.7439 -30.7402 -30.7397
   -30.6853 -30.6836 -30.6826 -30.6825 -30.6805 -30.6791 -30.6749 -30.6746
   -20.5689 -20.5688 -20.5688 -20.5688 -20.5687 -20.5687 -20.5687 -20.5686
   -20.5593 -20.5590 -20.5583 -20.5579 -20.5573 -20.5570 -20.5559 -20.5553
   -20.5549 -20.5546 -20.5532 -20.5528 -20.5526 -20.5525 -20.5524 -20.5522
   -20.5518 -20.5510 -20.5507 -20.5505 -20.5499 -20.5494 -20.5492 -20.5488
   -20.5476 -20.5475 -20.5467 -20.5466 -20.5465 -20.5464 -20.5457 -20.5456
   -20.5314 -20.5314 -20.5298 -20.5298 -20.5293 -20.5293 -20.5283 -20.5283
   -20.5266 -20.5266 -20.5258 -20.5258 -20.5255 -20.5254 -20.5241 -20.5241
   -10.0460  -9.8844  -9.7118  -9.7091  -9.5609  -9.5590  -9.2865  -9.2737
    -9.2587  -9.1136  -9.1126  -9.1121  -8.5231  -8.4918  -8.4888  -8.4784
    -8.1670  -8.1618  -8.1432  -8.1365  -8.1345  -8.1156  -8.0960  -8.0774
     1.0520   1.0596   1.1647   1.1731   1.1804   1.1902   1.3387   1.3954
     1.9364   2.0299   2.0445   2.1657   2.4032   2.4565   2.6251   2.6554
     2.7123   2.7490   3.4105   3.4480   3.4747   3.5385   3.8378   4.0664
     4.0731   4.0920   4.1116   4.1405   4.1777   4.2652   4.3641   4.3877
     4.4139   4.4261   4.6312   4.6789   4.9256   4.9336   5.0325   5.0944
     5.4172   5.4283   5.4749   5.4943   5.6298   5.6419   5.9821   6.0020
     6.0263   6.1721   6.1779   6.3197   6.3377   6.3633   6.3718   6.4044
     6.5733   6.5935   6.6858   6.6974   6.7363   6.7463   6.8061   6.8481
     6.8818   6.8876   7.5448   7.5538   7.5808   7.5820   7.7971   7.8049
     9.4770   9.4976  10.1636  10.2019  10.2529  10.2551  11.5758  11.6251
    11.6561  11.6739  12.1710  12.1843  12.1919  12.1990  12.4865  12.5275
    12.5538  12.5815  13.1024  13.1390  13.1666  13.1911  13.4020  13.4126
    14.8065  14.8113  14.9732  15.1944  15.2221  15.4591  15.8345  15.8565
    16.0055  16.8786  16.9569  16.9861  17.0253  17.1707

          k = 0.1667 0.3291 0.3331 ( 63928 PWs)   bands (ev):

   -66.4170 -66.4167 -66.4167 -66.4164 -66.4164 -66.4161 -66.4161 -66.4158
   -30.7909 -30.7886 -30.7853 -30.7830 -30.7653 -30.7632 -30.7585 -30.7558
   -30.7500 -30.7485 -30.7453 -30.7414 -30.7375 -30.7354 -30.7343 -30.7331
   -30.6968 -30.6954 -30.6940 -30.6925 -30.6843 -30.6819 -30.6815 -30.6792
   -20.5689 -20.5688 -20.5688 -20.5688 -20.5687 -20.5687 -20.5687 -20.5687
   -20.5592 -20.5591 -20.5582 -20.5580 -20.5572 -20.5570 -20.5557 -20.5554
   -20.5548 -20.5546 -20.5530 -20.5528 -20.5526 -20.5524 -20.5522 -20.5518
   -20.5512 -20.5511 -20.5505 -20.5504 -20.5503 -20.5497 -20.5497 -20.5493
   -20.5474 -20.5472 -20.5468 -20.5466 -20.5464 -20.5463 -20.5459 -20.5458
   -20.5306 -20.5306 -20.5293 -20.5292 -20.5289 -20.5288 -20.5287 -20.5287
   -20.5275 -20.5275 -20.5266 -20.5265 -20.5253 -20.5253 -20.5245 -20.5245
    -9.9293  -9.7564  -9.7476  -9.5874  -9.5245  -9.3068  -9.2865  -9.1848
    -9.1408  -9.1208  -9.0641  -9.0346  -8.5875  -8.5513  -8.4917  -8.4794
    -8.4749  -8.4490  -8.4109  -8.3746  -8.1544  -8.1328  -8.1270  -8.1063
     1.1771   1.1797   1.1854   1.1930   1.7893   1.8303   1.9138   1.9409
     2.0124   2.0426   2.1293   2.2854   2.6350   2.6472   2.6754   2.7334
     2.8994   2.9779   3.4097   3.4805   3.4995   3.5833   3.5895   3.6319
     3.7699   3.8157   3.8752   4.0129   4.0928   4.1864   4.1949   4.2758
     4.3130   4.3564   4.3875   4.4585   4.4924   4.5128   4.6079   4.9275
     4.9532   4.9787   5.0333   5.3593   5.4442   5.6334   5.7304   5.7612
     6.1951   6.2160   6.3231   6.3561   6.4449   6.4639   6.5733   6.6208
     6.6306   6.7282   6.7411   6.7679   6.7983   6.8393   6.8833   6.9172
     6.9637   7.0107   7.4509   7.4716   7.5172   7.5632   7.6322   7.6617
    10.0857  10.1427  10.2375  10.2702  10.6582  10.6991  11.6106  11.6328
    11.6633  11.7309  11.8323  11.8843  12.0214  12.0576  12.3265  12.3732
    12.5041  12.5523  12.7512  12.7759  13.0268  13.0817  13.1653  13.2169
    15.0457  15.1848  15.2884  15.4566  15.7629  15.9219  15.9416  16.3614
    16.3960  16.7738  16.8630  17.1218  17.1776  17.2426

          k = 0.1667 0.3291-0.4996 ( 63864 PWs)   bands (ev):

   -66.4169 -66.4168 -66.4166 -66.4165 -66.4163 -66.4162 -66.4160 -66.4159
   -30.7898 -30.7898 -30.7841 -30.7841 -30.7642 -30.7642 -30.7571 -30.7570
   -30.7471 -30.7471 -30.7433 -30.7432 -30.7174 -30.7174 -30.7166 -30.7166
   -30.7145 -30.7144 -30.7133 -30.7133 -30.6832 -30.6832 -30.6808 -30.6807
   -20.5688 -20.5688 -20.5688 -20.5688 -20.5687 -20.5687 -20.5687 -20.5687
   -20.5592 -20.5592 -20.5581 -20.5581 -20.5571 -20.5571 -20.5556 -20.5556
   -20.5547 -20.5547 -20.5527 -20.5527 -20.5526 -20.5526 -20.5516 -20.5516
   -20.5511 -20.5511 -20.5505 -20.5505 -20.5501 -20.5501 -20.5499 -20.5499
   -20.5471 -20.5471 -20.5469 -20.5469 -20.5462 -20.5461 -20.5461 -20.5460
   -20.5297 -20.5296 -20.5296 -20.5296 -20.5285 -20.5285 -20.5285 -20.5285
   -20.5277 -20.5277 -20.5277 -20.5277 -20.5249 -20.5249 -20.5249 -20.5249
    -9.8180  -9.8180  -9.6472  -9.6472  -9.3591  -9.3591  -9.1355  -9.1355
    -8.9358  -8.9358  -8.8670  -8.8669  -8.8296  -8.8296  -8.8104  -8.8104
    -8.4837  -8.4837  -8.4562  -8.4562  -8.1411  -8.1411  -8.1199  -8.1199
     1.1846   1.1846   1.1950   1.1950   1.9335   1.9336   2.0261   2.0261
     2.6510   2.6510   2.8766   2.8766   2.8937   2.8937   2.9138   2.9138
     2.9390   2.9390   3.1423   3.1423   3.2004   3.2005   3.4738   3.4738
     3.5495   3.5496   3.5985   3.5985   3.7630   3.7630   3.9961   3.9961
     4.3080   4.3080   4.4753   4.4753   4.5325   4.5325   4.6308   4.6308
     4.7024   4.7024   5.1125   5.1125   5.5170   5.5170   5.6519   5.6519
     6.2960   6.2961   6.3604   6.3604   6.4662   6.4662   6.5120   6.5120
     6.7219   6.7220   6.7837   6.7837   6.9016   6.9016   7.2132   7.2132
     7.2520   7.2520   7.2747   7.2747   7.3397   7.3397   7.5788   7.5788
    10.2208  10.2209  10.9251  10.9251  10.9389  10.9389  11.3169  11.3169
    11.3567  11.3568  11.6821  11.6821  12.2196  12.2196  12.2833  12.2833
    12.5002  12.5003  12.6860  12.6860  12.7316  12.7316  13.1654  13.1655
    15.1464  15.1464  15.6041  15.6041  15.8767  15.8767  16.5099  16.5099
    16.8072  16.8072  16.8467  16.8467  17.3437  17.3437

          k = 0.1667-0.4936 0.0000 ( 63972 PWs)   bands (ev):

   -66.4171 -66.4170 -66.4165 -66.4164 -66.4164 -66.4163 -66.4158 -66.4158
   -30.7767 -30.7766 -30.7718 -30.7717 -30.7691 -30.7691 -30.7639 -30.7639
   -30.7628 -30.7627 -30.7550 -30.7550 -30.7511 -30.7511 -30.7499 -30.7499
   -30.6844 -30.6844 -30.6814 -30.6814 -30.6744 -30.6743 -30.6700 -30.6700
   -20.5689 -20.5689 -20.5688 -20.5688 -20.5687 -20.5687 -20.5687 -20.5686
   -20.5582 -20.5582 -20.5579 -20.5579 -20.5570 -20.5570 -20.5565 -20.5565
   -20.5540 -20.5540 -20.5537 -20.5536 -20.5530 -20.5530 -20.5524 -20.5523
   -20.5516 -20.5515 -20.5509 -20.5509 -20.5494 -20.5494 -20.5490 -20.5489
   -20.5477 -20.5476 -20.5467 -20.5466 -20.5465 -20.5465 -20.5457 -20.5456
   -20.5317 -20.5316 -20.5301 -20.5300 -20.5295 -20.5295 -20.5282 -20.5282
   -20.5263 -20.5262 -20.5259 -20.5258 -20.5253 -20.5252 -20.5240 -20.5240
   -10.0047 -10.0047  -9.6986  -9.6986  -9.6033  -9.6033  -9.3157  -9.3157
    -8.8952  -8.8951  -8.8515  -8.8514  -8.8417  -8.8417  -8.8391  -8.8391
    -8.1581  -8.1580  -8.1090  -8.1089  -8.0174  -8.0174  -7.9702  -7.9702
     0.8610   0.8611   0.9009   0.9009   1.1883   1.1883   1.3038   1.3038
     2.3457   2.3457   2.8091   2.8092   2.8835   2.8835   2.8990   2.8990
     2.9576   2.9577   2.9935   2.9935   3.1745   3.1745   3.2143   3.2143
     3.3204   3.3204   4.0390   4.0390   4.3432   4.3432   4.5350   4.5351
     4.6549   4.6550   4.7322   4.7323   4.9195   4.9196   5.2178   5.2178
     5.4789   5.4790   5.5044   5.5044   5.8606   5.8606   5.8733   5.8733
     6.0148   6.0148   6.1125   6.1125   6.2551   6.2551   6.4779   6.4779
     6.6450   6.6450   6.6748   6.6748   6.6946   6.6946   7.2251   7.2252
     7.2357   7.2357   7.2537   7.2538   7.2721   7.2722   7.8503   7.8503
     9.2241   9.2242  10.7873  10.7873  10.8262  10.8263  10.9446  10.9446
    10.9913  10.9913  12.1290  12.1290  12.3723  12.3723  12.7482  12.7483
    12.8148  12.8148  12.9973  12.9973  13.0278  13.0278  13.4639  13.4639
    14.5781  14.5781  15.2331  15.2331  15.3220  15.3221  15.6451  15.6451
    16.3435  16.3435  17.2801  17.2801  17.3124  17.3124

          k = 0.1667-0.4936 0.1665 ( 63890 PWs)   bands (ev):

   -66.4170 -66.4170 -66.4164 -66.4164 -66.4164 -66.4164 -66.4158 -66.4158
   -30.7762 -30.7761 -30.7720 -30.7720 -30.7683 -30.7683 -30.7635 -30.7634
   -30.7598 -30.7598 -30.7511 -30.7507 -30.7504 -30.7499 -30.7481 -30.7481
   -30.6843 -30.6842 -30.6827 -30.6827 -30.6799 -30.6799 -30.6749 -30.6749
   -20.5689 -20.5688 -20.5688 -20.5688 -20.5687 -20.5687 -20.5687 -20.5686
   -20.5582 -20.5582 -20.5579 -20.5579 -20.5570 -20.5569 -20.5566 -20.5565
   -20.5540 -20.5539 -20.5537 -20.5536 -20.5529 -20.5529 -20.5521 -20.5521
   -20.5516 -20.5516 -20.5508 -20.5508 -20.5496 -20.5496 -20.5491 -20.5491
   -20.5476 -20.5475 -20.5466 -20.5466 -20.5466 -20.5465 -20.5457 -20.5457
   -20.5314 -20.5314 -20.5298 -20.5298 -20.5293 -20.5293 -20.5283 -20.5283
   -20.5266 -20.5266 -20.5258 -20.5258 -20.5255 -20.5254 -20.5241 -20.5241
    -9.9502  -9.9502  -9.6137  -9.6132  -9.6128  -9.6123  -9.2801  -9.2800
    -8.9022  -8.9021  -8.8470  -8.8465  -8.8443  -8.8437  -8.8367  -8.8365
    -8.1600  -8.1600  -8.1443  -8.1440  -8.1271  -8.1267  -8.0869  -8.0868
     1.0554   1.0558   1.1743   1.1745   1.1903   1.1907   1.3861   1.3863
     2.4284   2.4287   2.8204   2.8222   2.8757   2.8758   2.9204   2.9220
[...]
    11.7044  11.7044  11.7044  11.7045  11.7372  11.7373  11.7373  11.7373
    12.6177  12.6177  12.6177  12.6177  12.7848  12.7848  12.7848  12.7848
    15.3231  15.3231  15.3231  15.3231  16.3324  16.3324  16.3325  16.3325
    17.3220  17.3220  17.3221  17.3221  17.6843  17.6844

          k =-0.5000 0.3291 0.0000 ( 63934 PWs)   bands (ev):

   -66.4169 -66.4169 -66.4166 -66.4166 -66.4162 -66.4162 -66.4159 -66.4159
   -30.7889 -30.7889 -30.7842 -30.7842 -30.7629 -30.7629 -30.7579 -30.7579
   -30.7496 -30.7496 -30.7480 -30.7480 -30.7224 -30.7224 -30.7195 -30.7195
   -30.7176 -30.7176 -30.7152 -30.7152 -30.6732 -30.6732 -30.6716 -30.6716
   -20.5689 -20.5688 -20.5688 -20.5688 -20.5687 -20.5687 -20.5687 -20.5687
   -20.5588 -20.5588 -20.5584 -20.5584 -20.5566 -20.5566 -20.5561 -20.5561
   -20.5539 -20.5539 -20.5534 -20.5534 -20.5526 -20.5526 -20.5519 -20.5519
   -20.5516 -20.5516 -20.5513 -20.5513 -20.5496 -20.5496 -20.5488 -20.5488
   -20.5472 -20.5472 -20.5471 -20.5471 -20.5462 -20.5462 -20.5460 -20.5460
   -20.5309 -20.5309 -20.5309 -20.5308 -20.5279 -20.5279 -20.5278 -20.5278
   -20.5266 -20.5266 -20.5265 -20.5265 -20.5254 -20.5254 -20.5254 -20.5253
    -9.8855  -9.8854  -9.7333  -9.7333  -9.3519  -9.3519  -9.1588  -9.1588
    -8.9269  -8.9268  -8.8769  -8.8768  -8.8329  -8.8328  -8.8090  -8.8089
    -8.4840  -8.4840  -8.4529  -8.4529  -8.0038  -8.0038  -7.9842  -7.9842
     0.9014   0.9014   0.9045   0.9045   1.9355   1.9355   2.0214   2.0214
     2.6058   2.6058   2.8406   2.8407   2.8725   2.8725   2.9173   2.9173
     2.9520   2.9520   3.0935   3.0936   3.1103   3.1103   3.4089   3.4089
     3.5181   3.5181   3.5575   3.5575   3.8381   3.8382   4.0318   4.0318
     4.4894   4.4894   4.5265   4.5265   4.6607   4.6607   4.7327   4.7328
     4.9805   4.9806   5.4117   5.4117   5.9503   5.9503   6.0118   6.0118
     6.0551   6.0551   6.1186   6.1186   6.2049   6.2049   6.4156   6.4156
     6.7233   6.7233   6.7812   6.7812   6.8621   6.8622   7.2086   7.2087
     7.2414   7.2415   7.2796   7.2796   7.3458   7.3459   7.6350   7.6350
    10.0229  10.0229  10.8280  10.8281  10.8329  10.8329  11.3091  11.3091
    11.3411  11.3411  11.5984  11.5984  12.2662  12.2662  12.3040  12.3040
    12.7324  12.7324  12.8358  12.8358  12.8747  12.8747  13.3601  13.3601
    14.7893  14.7893  15.1902  15.1903  15.7968  15.7968  16.4992  16.4993
    16.6734  16.6734  16.8522  16.8522  17.3937  17.3937

          k =-0.5000 0.3291 0.1665 ( 63846 PWs)   bands (ev):

   -66.4168 -66.4168 -66.4166 -66.4165 -66.4163 -66.4163 -66.4160 -66.4160
   -30.7885 -30.7885 -30.7845 -30.7845 -30.7586 -30.7586 -30.7523 -30.7523
   -30.7483 -30.7483 -30.7480 -30.7480 -30.7220 -30.7220 -30.7196 -30.7196
   -30.7174 -30.7174 -30.7156 -30.7156 -30.6789 -30.6789 -30.6774 -30.6774
   -20.5689 -20.5688 -20.5688 -20.5688 -20.5687 -20.5687 -20.5687 -20.5687
   -20.5588 -20.5588 -20.5584 -20.5584 -20.5565 -20.5565 -20.5561 -20.5561
   -20.5538 -20.5538 -20.5534 -20.5534 -20.5525 -20.5525 -20.5518 -20.5518
   -20.5515 -20.5515 -20.5512 -20.5512 -20.5498 -20.5497 -20.5490 -20.5490
   -20.5471 -20.5471 -20.5470 -20.5470 -20.5462 -20.5462 -20.5461 -20.5461
   -20.5306 -20.5306 -20.5306 -20.5306 -20.5278 -20.5278 -20.5277 -20.5277
   -20.5268 -20.5267 -20.5267 -20.5267 -20.5257 -20.5256 -20.5256 -20.5256
    -9.8170  -9.8170  -9.6491  -9.6491  -9.3623  -9.3623  -9.1366  -9.1366
    -8.9375  -8.9374  -8.8693  -8.8692  -8.8289  -8.8288  -8.8124  -8.8123
    -8.4818  -8.4818  -8.4574  -8.4574  -8.1334  -8.1333  -8.1136  -8.1136
     1.1713   1.1713   1.1802   1.1802   1.9373   1.9373   2.0192   2.0192
     2.6872   2.6872   2.8481   2.8481   2.8745   2.8745   2.9259   2.9259
     2.9528   2.9528   3.1695   3.1695   3.1743   3.1744   3.4505   3.4505
     3.5257   3.5258   3.5635   3.5635   3.8349   3.8349   4.0373   4.0373
     4.2976   4.2976   4.4578   4.4578   4.5236   4.5236   4.6285   4.6285
     4.6971   4.6972   5.1174   5.1174   5.5208   5.5208   5.6573   5.6573
     6.3021   6.3021   6.3679   6.3680   6.4756   6.4756   6.5254   6.5254
     6.7205   6.7205   6.7792   6.7792   6.8985   6.8985   7.2009   7.2009
     7.2427   7.2428   7.2780   7.2781   7.3381   7.3382   7.6028   7.6029
    10.1873  10.1873  10.9135  10.9135  10.9296  10.9296  11.3191  11.3191
    11.3521  11.3521  11.6594  11.6595  12.2650  12.2650  12.2958  12.2958
    12.5434  12.5434  12.6987  12.6987  12.7163  12.7163  13.1984  13.1984
    15.1451  15.1451  15.5870  15.5870  15.8749  15.8750  16.4894  16.4894
    16.7233  16.7233  16.8925  16.8925  17.3283  17.3284

          k =-0.5000 0.3291 0.3331 ( 63888 PWs)   bands (ev):

   -66.4167 -66.4167 -66.4164 -66.4164 -66.4164 -66.4164 -66.4161 -66.4161
   -30.7877 -30.7877 -30.7853 -30.7853 -30.7527 -30.7527 -30.7491 -30.7491
   -30.7382 -30.7382 -30.7374 -30.7374 -30.7208 -30.7208 -30.7203 -30.7203
   -30.7169 -30.7169 -30.7164 -30.7163 -30.6941 -30.6941 -30.6929 -30.6929
   -20.5688 -20.5688 -20.5688 -20.5688 -20.5687 -20.5687 -20.5687 -20.5687
   -20.5587 -20.5587 -20.5585 -20.5585 -20.5564 -20.5564 -20.5562 -20.5562
   -20.5537 -20.5537 -20.5535 -20.5535 -20.5522 -20.5522 -20.5517 -20.5517
   -20.5513 -20.5512 -20.5509 -20.5509 -20.5502 -20.5502 -20.5495 -20.5495
   -20.5469 -20.5469 -20.5468 -20.5468 -20.5464 -20.5464 -20.5462 -20.5462
   -20.5298 -20.5298 -20.5298 -20.5298 -20.5278 -20.5278 -20.5278 -20.5277
   -20.5272 -20.5271 -20.5271 -20.5271 -20.5262 -20.5262 -20.5262 -20.5262
    -9.6479  -9.6479  -9.4178  -9.4178  -9.3990  -9.3990  -9.0504  -9.0504
    -8.9812  -8.9811  -8.8429  -8.8428  -8.8214  -8.8213  -8.8143  -8.8142
    -8.5060  -8.5060  -8.4692  -8.4691  -8.4470  -8.4470  -8.3926  -8.3926
     1.8029   1.8029   1.9165   1.9165   1.9419   1.9419   2.1038   2.1038
     2.8489   2.8489   2.8650   2.8650   2.8926   2.8926   2.9369   2.9369
     2.9923   2.9923   3.3694   3.3694   3.3792   3.3793   3.4944   3.4944
     3.5328   3.5328   3.6228   3.6228   3.7929   3.7929   3.8210   3.8211
     3.9408   3.9408   4.1361   4.1361   4.1646   4.1646   4.4539   4.4539
     4.5226   4.5226   4.6398   4.6398   4.6536   4.6536   5.0231   5.0231
     6.5967   6.5968   6.6494   6.6494   6.7079   6.7079   6.7380   6.7380
     6.7895   6.7895   6.8639   6.8639   7.0252   7.0252   7.1738   7.1739
     7.2193   7.2193   7.2893   7.2893   7.3037   7.3037   7.5038   7.5039
    10.6460  10.6460  11.1701  11.1701  11.2174  11.2174  11.3325  11.3325
    11.4034  11.4034  11.8662  11.8662  12.0099  12.0099  12.1922  12.1922
    12.2779  12.2779  12.3219  12.3219  12.3747  12.3747  12.7934  12.7934
    15.9201  15.9201  16.0995  16.0996  16.4214  16.4215  16.5601  16.5601
    16.8933  16.8933  16.9771  16.9771  17.0511  17.0511

          k =-0.5000 0.3291-0.4996 ( 63900 PWs)   bands (ev):

   -66.4166 -66.4166 -66.4165 -66.4165 -66.4163 -66.4163 -66.4163 -66.4162
   -30.7865 -30.7865 -30.7865 -30.7865 -30.7505 -30.7505 -30.7505 -30.7505
   -30.7235 -30.7235 -30.7235 -30.7234 -30.7215 -30.7215 -30.7215 -30.7214
   -30.7131 -30.7131 -30.7131 -30.7131 -30.7110 -30.7110 -30.7110 -30.7110
   -20.5688 -20.5688 -20.5688 -20.5688 -20.5687 -20.5687 -20.5687 -20.5687
   -20.5586 -20.5586 -20.5586 -20.5586 -20.5563 -20.5563 -20.5563 -20.5563
   -20.5536 -20.5536 -20.5535 -20.5535 -20.5519 -20.5519 -20.5519 -20.5519
   -20.5509 -20.5508 -20.5508 -20.5508 -20.5502 -20.5502 -20.5502 -20.5502
   -20.5467 -20.5466 -20.5466 -20.5466 -20.5465 -20.5465 -20.5465 -20.5464
   -20.5289 -20.5288 -20.5288 -20.5288 -20.5287 -20.5287 -20.5286 -20.5286
   -20.5269 -20.5269 -20.5269 -20.5268 -20.5267 -20.5267 -20.5267 -20.5267
    -9.4856  -9.4856  -9.4856  -9.4856  -9.1325  -9.1325  -9.1324  -9.1324
    -8.8823  -8.8823  -8.8823  -8.8823  -8.7499  -8.7499  -8.7498  -8.7498
    -8.7327  -8.7327  -8.7326  -8.7326  -8.4576  -8.4576  -8.4576  -8.4576
     1.9382   1.9382   1.9382   1.9382   2.7669   2.7670   2.7670   2.7670
     2.8167   2.8167   2.8168   2.8168   2.9415   2.9415   2.9415   2.9415
     3.0275   3.0275   3.0275   3.0276   3.4839   3.4839   3.4839   3.4839
     3.5553   3.5553   3.5553   3.5553   3.7274   3.7274   3.7274   3.7274
     3.8958   3.8958   3.8958   3.8958   3.9685   3.9685   3.9685   3.9685
     4.3158   4.3158   4.3158   4.3158   4.7008   4.7008   4.7008   4.7008
     6.6886   6.6887   6.6887   6.6887   6.7294   6.7294   6.7294   6.7294
     7.0638   7.0639   7.0639   7.0639   7.1009   7.1009   7.1009   7.1009
     7.2092   7.2092   7.2092   7.2092   7.3636   7.3636   7.3636   7.3636
    11.2063  11.2063  11.2063  11.2063  11.4168  11.4168  11.4169  11.4169
    11.7030  11.7030  11.7030  11.7030  11.7464  11.7464  11.7464  11.7464
    12.2244  12.2244  12.2244  12.2244  12.3876  12.3876  12.3876  12.3876
    16.2983  16.2983  16.2983  16.2983  16.5337  16.5337  16.5338  16.5338
    17.0721  17.0721  17.0721  17.0721  17.6902  17.6903

          k =-0.5000-0.4936 0.0000 ( 63904 PWs)   bands (ev):

   -66.4168 -66.4168 -66.4167 -66.4167 -66.4161 -66.4161 -66.4161 -66.4161
   -30.7718 -30.7718 -30.7714 -30.7714 -30.7660 -30.7660 -30.7654 -30.7654
   -30.7577 -30.7577 -30.7575 -30.7575 -30.7212 -30.7212 -30.7206 -30.7206
   -30.7175 -30.7175 -30.7169 -30.7169 -30.6725 -30.6725 -30.6724 -30.6724
   -20.5689 -20.5688 -20.5688 -20.5688 -20.5687 -20.5687 -20.5687 -20.5687
   -20.5576 -20.5576 -20.5575 -20.5575 -20.5573 -20.5573 -20.5571 -20.5571
   -20.5534 -20.5534 -20.5533 -20.5533 -20.5526 -20.5526 -20.5525 -20.5525
   -20.5517 -20.5517 -20.5517 -20.5517 -20.5492 -20.5492 -20.5492 -20.5492
   -20.5472 -20.5472 -20.5471 -20.5471 -20.5461 -20.5461 -20.5461 -20.5461
   -20.5309 -20.5309 -20.5309 -20.5308 -20.5279 -20.5279 -20.5278 -20.5278
   -20.5266 -20.5266 -20.5265 -20.5265 -20.5254 -20.5254 -20.5254 -20.5253
    -9.7923  -9.7923  -9.7903  -9.7903  -9.0761  -9.0760  -9.0658  -9.0658
    -8.9599  -8.9598  -8.9518  -8.9518  -8.7644  -8.7644  -8.7506  -8.7505
    -8.7287  -8.7287  -8.7145  -8.7144  -7.9942  -7.9942  -7.9941  -7.9941
     0.9045   0.9045   0.9063   0.9063   2.7162   2.7162   2.7796   2.7796
     2.7813   2.7813   2.8479   2.8480   2.8917   2.8918   2.9563   2.9563
     2.9952   2.9952   3.0379   3.0379   3.0483   3.0483   3.1299   3.1299
     3.1743   3.1743   3.3646   3.3646   3.8321   3.8321   3.9122   3.9122
     3.9166   3.9166   3.9885   3.9886   4.6740   4.6740   4.6974   4.6975
     5.1256   5.1256   5.1739   5.1739   5.9752   5.9752   5.9774   5.9774
     6.1584   6.1584   6.1727   6.1727   6.2079   6.2079   6.2308   6.2308
     7.0067   7.0067   7.0478   7.0478   7.0697   7.0697   7.1168   7.1169
     7.1216   7.1216   7.1851   7.1851   7.4055   7.4056   7.4160   7.4161
    10.7233  10.7233  10.7696  10.7696  10.8651  10.8652  10.9171  10.9171
    11.7281  11.7281  11.7797  11.7797  11.8062  11.8062  11.8455  11.8455
    12.8107  12.8107  12.8233  12.8233  13.0294  13.0294  13.0553  13.0554
    15.0550  15.0551  15.0561  15.0561  16.2641  16.2642  16.3022  16.3022
    17.3991  17.3991  17.4142  17.4142  17.5075  17.5076

          k =-0.5000-0.4936 0.1665 ( 63920 PWs)   bands (ev):

   -66.4167 -66.4167 -66.4167 -66.4167 -66.4161 -66.4161 -66.4161 -66.4161
   -30.7711 -30.7711 -30.7706 -30.7706 -30.7663 -30.7663 -30.7658 -30.7658
   -30.7526 -30.7526 -30.7525 -30.7525 -30.7209 -30.7209 -30.7202 -30.7202
   -30.7178 -30.7178 -30.7172 -30.7172 -30.6782 -30.6782 -30.6781 -30.6781
   -20.5688 -20.5688 -20.5688 -20.5688 -20.5687 -20.5687 -20.5687 -20.5687
   -20.5576 -20.5576 -20.5575 -20.5575 -20.5573 -20.5573 -20.5571 -20.5571
   -20.5533 -20.5533 -20.5532 -20.5532 -20.5526 -20.5526 -20.5525 -20.5525
   -20.5516 -20.5516 -20.5515 -20.5515 -20.5494 -20.5494 -20.5494 -20.5494
   -20.5471 -20.5471 -20.5471 -20.5471 -20.5462 -20.5462 -20.5461 -20.5461
   -20.5306 -20.5306 -20.5306 -20.5306 -20.5278 -20.5278 -20.5277 -20.5277
   -20.5268 -20.5267 -20.5267 -20.5267 -20.5257 -20.5256 -20.5256 -20.5256
    -9.7130  -9.7130  -9.7107  -9.7107  -9.0882  -9.0881  -9.0780  -9.0780
    -8.9470  -8.9469  -8.9389  -8.9389  -8.7622  -8.7622  -8.7485  -8.7484
    -8.7307  -8.7307  -8.7168  -8.7167  -8.1239  -8.1239  -8.1238  -8.1238
     1.1796   1.1796   1.1817   1.1817   2.7217   2.7217   2.7759   2.7759
     2.7984   2.7984   2.8482   2.8482   2.8958   2.8958   2.9415   2.9416
     3.0148   3.0148   3.0879   3.0879   3.1430   3.1430   3.1774   3.1774
     3.2293   3.2293   3.3975   3.3976   3.8345   3.8345   3.9062   3.9062
     3.9185   3.9186   3.9822   3.9823   4.4285   4.4286   4.4668   4.4669
     4.8242   4.8243   4.8736   4.8737   5.5475   5.5475   5.5530   5.5530
     6.3883   6.3883   6.4192   6.4192   6.4597   6.4597   6.4820   6.4820
     6.9979   6.9979   7.0437   7.0438   7.0843   7.0843   7.1117   7.1118
     7.1177   7.1177   7.1902   7.1903   7.3866   7.3867   7.4084   7.4085
    10.8154  10.8154  10.8600  10.8600  10.9695  10.9695  11.0245  11.0245
    11.7321  11.7321  11.7776  11.7776  11.8146  11.8146  11.8388  11.8388
    12.6328  12.6328  12.6909  12.6909  12.8423  12.8423  12.8948  12.8948
    15.4416  15.4416  15.4513  15.4514  16.3395  16.3396  16.3732  16.3732
    17.3002  17.3003  17.3409  17.3410  17.4954  17.4954

          k =-0.5000-0.4936 0.3331 ( 63860 PWs)   bands (ev):

   -66.4166 -66.4166 -66.4166 -66.4166 -66.4163 -66.4163 -66.4162 -66.4162
   -30.7697 -30.7697 -30.7692 -30.7692 -30.7672 -30.7672 -30.7666 -30.7666
   -30.7382 -30.7382 -30.7380 -30.7380 -30.7199 -30.7199 -30.7194 -30.7194
   -30.7186 -30.7186 -30.7179 -30.7179 -30.6936 -30.6936 -30.6936 -30.6935
   -20.5688 -20.5688 -20.5688 -20.5688 -20.5687 -20.5687 -20.5687 -20.5687
   -20.5575 -20.5575 -20.5574 -20.5574 -20.5573 -20.5573 -20.5572 -20.5572
   -20.5531 -20.5531 -20.5530 -20.5530 -20.5527 -20.5527 -20.5526 -20.5526
   -20.5512 -20.5512 -20.5512 -20.5512 -20.5499 -20.5499 -20.5499 -20.5499
   -20.5469 -20.5469 -20.5468 -20.5468 -20.5463 -20.5463 -20.5463 -20.5463
   -20.5298 -20.5298 -20.5298 -20.5298 -20.5278 -20.5278 -20.5278 -20.5277
   -20.5272 -20.5271 -20.5271 -20.5271 -20.5262 -20.5262 -20.5262 -20.5262
    -9.5016  -9.5015  -9.4979  -9.4979  -9.1348  -9.1347  -9.1251  -9.1251
    -8.8956  -8.8956  -8.8882  -8.8882  -8.7564  -8.7564  -8.7443  -8.7442
    -8.7347  -8.7347  -8.7229  -8.7228  -8.4354  -8.4354  -8.4348  -8.4348
     1.9095   1.9095   1.9142   1.9142   2.7333   2.7334   2.7616   2.7617
     2.8182   2.8182   2.8447   2.8447   2.9056   2.9056   2.9508   2.9508
     3.0724   3.0724   3.0980   3.0981   3.3261   3.3261   3.3792   3.3792
     3.4342   3.4342   3.5385   3.5385   3.8112   3.8112   3.8521   3.8521
     3.9083   3.9084   3.9249   3.9249   4.0029   4.0029   4.0266   4.0266
     4.3148   4.3149   4.3633   4.3633   4.6974   4.6974   4.7013   4.7013
     6.7053   6.7053   6.7715   6.7715   6.7880   6.7880   6.8029   6.8029
     6.9716   6.9716   7.0439   7.0439   7.0713   7.0714   7.0795   7.0795
     7.1626   7.1626   7.2102   7.2102   7.3399   7.3399   7.3674   7.3674
    11.1073  11.1073  11.1411  11.1411  11.2828  11.2828  11.3437  11.3437
    11.7237  11.7237  11.7822  11.7823  11.8108  11.8108  11.8435  11.8435
    12.1927  12.1927  12.2979  12.2979  12.3782  12.3782  12.4546  12.4546
    16.3179  16.3179  16.3692  16.3692  16.6212  16.6212  16.6264  16.6265
    17.0622  17.0622  17.1133  17.1133  17.5122  17.5122

          k =-0.5000-0.4936-0.4996 ( 63888 PWs)   bands (ev):

   -66.4165 -66.4164 -66.4164 -66.4164 -66.4164 -66.4164 -66.4164 -66.4164
   -30.7684 -30.7684 -30.7684 -30.7684 -30.7679 -30.7679 -30.7678 -30.7678
   -30.7232 -30.7232 -30.7232 -30.7232 -30.7216 -30.7215 -30.7215 -30.7215
   -30.7134 -30.7134 -30.7133 -30.7133 -30.7118 -30.7118 -30.7118 -30.7117
   -20.5688 -20.5688 -20.5688 -20.5688 -20.5687 -20.5687 -20.5687 -20.5687
   -20.5575 -20.5574 -20.5574 -20.5574 -20.5573 -20.5573 -20.5573 -20.5573
   -20.5529 -20.5529 -20.5529 -20.5529 -20.5527 -20.5527 -20.5527 -20.5527
   -20.5507 -20.5507 -20.5507 -20.5506 -20.5505 -20.5504 -20.5504 -20.5504
   -20.5467 -20.5466 -20.5466 -20.5466 -20.5466 -20.5465 -20.5465 -20.5465
   -20.5289 -20.5288 -20.5288 -20.5288 -20.5287 -20.5287 -20.5286 -20.5286
   -20.5269 -20.5269 -20.5269 -20.5268 -20.5267 -20.5267 -20.5267 -20.5267
    -9.2637  -9.2637  -9.2636  -9.2636  -9.2561  -9.2561  -9.2561  -9.2560
    -8.7577  -8.7577  -8.7577  -8.7577  -8.7396  -8.7396  -8.7395  -8.7395
    -8.7356  -8.7356  -8.7356  -8.7356  -8.7290  -8.7290  -8.7290  -8.7289
     2.7049   2.7049   2.7050   2.7050   2.7665   2.7665   2.7665   2.7665
     2.8177   2.8177   2.8177   2.8177   2.8771   2.8771   2.8772   2.8772
     3.0581   3.0581   3.0581   3.0582   3.1588   3.1588   3.1588   3.1588
     3.8037   3.8037   3.8037   3.8037   3.8306   3.8306   3.8306   3.8306
     3.8713   3.8713   3.8713   3.8713   3.9113   3.9113   3.9113   3.9114
     4.0004   4.0004   4.0004   4.0004   4.0543   4.0543   4.0543   4.0543
     6.8833   6.8833   6.8833   6.8833   6.9623   6.9623   6.9624   6.9624
     6.9887   6.9887   6.9887   6.9887   7.0301   7.0301   7.0301   7.0301
     7.2532   7.2532   7.2533   7.2533   7.2835   7.2835   7.2836   7.2836
    11.5175  11.5175  11.5175  11.5176  11.5584  11.5584  11.5584  11.5584
    11.7671  11.7671  11.7671  11.7671  11.8540  11.8540  11.8540  11.8541
    11.8933  11.8933  11.8933  11.8933  11.9560  11.9561  11.9561  11.9561
    16.7379  16.7379  16.7380  16.7380  16.7832  16.7832  16.7832  16.7832
    17.4909  17.4909  17.4910  17.4911  17.5081  17.5081

     the Fermi energy is     9.3775 ev

!    total energy              =   -6260.42008543 Ry
     Harris-Foulkes estimate   =   -6260.42008543 Ry
     estimated scf accuracy    <          3.5E-09 Ry

     The total energy is the sum of the following terms:

     one-electron contribution =   -4836.44996619 Ry
     hartree contribution      =    2652.01444089 Ry
     xc contribution           =    -966.77221373 Ry
     ewald contribution        =   -3109.21232108 Ry
     smearing contrib. (-TS)   =      -0.00002531 Ry

     convergence has been achieved in  13 iterations

     Writing output data file Landau_17.save
 
     init_run     :     39.76s CPU     41.44s WALL (       1 calls)
     electrons    :   1827.05s CPU   1859.66s WALL (       1 calls)

     Called by init_run:
     wfcinit      :     36.18s CPU     37.73s WALL (       1 calls)
     potinit      :      1.44s CPU      1.47s WALL (       1 calls)

     Called by electrons:
     c_bands      :   1621.38s CPU   1651.99s WALL (      13 calls)
     sum_band     :    195.56s CPU    196.50s WALL (      13 calls)
     v_of_rho     :      1.79s CPU      1.82s WALL (      14 calls)
     mix_rho      :      2.83s CPU      3.36s WALL (      13 calls)

     Called by c_bands:
     init_us_2    :     11.81s CPU     12.40s WALL (      54 calls)
     cegterg      :   1190.54s CPU   1219.63s WALL (      26 calls)

     Called by sum_band:

     Called by *egterg:
     h_psi        :    916.90s CPU    920.87s WALL (     126 calls)
     g_psi        :      3.98s CPU      3.99s WALL (      98 calls)
     cdiaghg      :     15.82s CPU     15.84s WALL (     124 calls)

     Called by h_psi:
     h_psi:pot    :    910.51s CPU    914.24s WALL (     126 calls)
     h_psi:calbec :    113.60s CPU    116.31s WALL (     126 calls)
     vloc_psi     :    673.75s CPU    674.34s WALL (     126 calls)
     add_vuspsi   :    123.16s CPU    123.59s WALL (     126 calls)

     General routines
     calbec       :    113.60s CPU    116.31s WALL (     126 calls)
     fft          :      1.08s CPU      1.08s WALL (      56 calls)
     fftw         :    690.84s CPU    691.12s WALL (   34412 calls)
 
     Parallel routines
 
     PWSCF        : 31m14.71s CPU    31m50.86s WALL

 
   This run was terminated on:  15:18: 7  22Mar2020            

=------------------------------------------------------------------------------=
   JOB DONE.
=------------------------------------------------------------------------------=
