
     Program PWSCF v.6.2 (svn rev. 14038) starts on 25Mar2020 at 23:11:40 

     This program is part of the open-source Quantum ESPRESSO suite
     for quantum simulation of materials; please cite
         "P. Giannozzi et al., J. Phys.:Condens. Matter 21 395502 (2009);
         "P. Giannozzi et al., J. Phys.:Condens. Matter 29 465901 (2017);
          URL http://www.quantum-espresso.org", 
     in publications or presentations arising from this work. More details at
     http://www.quantum-espresso.org/quote

     Parallel version (MPI), running on    40 processors

     MPI processes distributed on     6 nodes
     K-points division:     npool     =      40
     Reading input from scf.in

     Current dimensions of program PWSCF are:
     Max number of different atomic species (ntypx) = 10
     Max number of k-points (npk) =  40000
     Max angular momentum in pseudopotentials (lmaxx) =  3

     Subspace diagonalization in iterative solution of the eigenvalue problem:
     a serial algorithm will be used

 
     G-vector sticks info
     --------------------
     sticks:   dense  smooth     PW     G-vecs:    dense   smooth      PW
     Sum        7745    7745   2075               500205   500205   69297
 


     bravais-lattice index     =            0
     lattice parameter (alat)  =      13.8902  a.u.
     unit-cell volume          =    2815.9758 (a.u.)^3
     number of atoms/cell      =           32
     number of atomic types    =            2
     number of electrons       =       369.00
     number of Kohn-Sham states=          222
     kinetic-energy cutoff     =     120.0000  Ry
     charge density cutoff     =     480.0000  Ry
     convergence threshold     =      1.0E-08
     mixing beta               =       0.7000
     number of iterations used =            8  plain     mixing
     Exchange-correlation      = SLA PW NOGX NOGC ( 1  4  0  0 0 0)

     celldm(1)=  13.890173  celldm(2)=   0.000000  celldm(3)=   0.000000
     celldm(4)=   0.000000  celldm(5)=   0.000000  celldm(6)=   0.000000

     crystal axes: (cart. coord. in units of alat)
               a(1) = (   1.000000   0.000000   0.000000 )  
               a(2) = (   0.000000   1.050554   0.000000 )  
               a(3) = (   0.000000   0.000000   1.000201 )  

     reciprocal axes: (cart. coord. in units 2 pi/alat)
               b(1) = (  1.000000  0.000000  0.000000 )  
               b(2) = (  0.000000  0.951878  0.000000 )  
               b(3) = (  0.000000  0.000000  0.999799 )  


     PseudoPot. # 1 for W  read from file:
     /cluster/scratch/mnoe/QE/pps/W_ONCV_LDA-4.0.upf
     MD5 check sum: ba0307d5d4cd419d6f1d13dc49d7c13a
     Pseudo is Norm-conserving + core correction, Zval = 28.0
     Generated using ONCVPSP code by D. R. Hamann
     Using radial grid of 1380 points,  8 beta functions with: 
                l(1) =   0
                l(2) =   0
                l(3) =   1
                l(4) =   1
                l(5) =   2
                l(6) =   2
                l(7) =   3
                l(8) =   3

     PseudoPot. # 2 for O  read from file:
     /cluster/scratch/mnoe/QE/pps/O_ONCV_LDA-3.0.upf
     MD5 check sum: a1bd6164e7280c17a38c229939bfbd54
     Pseudo is Norm-conserving + core correction, Zval =  6.0
     Generated using ONCVPSP code by D. R. Hamann
     Using radial grid of  926 points,  5 beta functions with: 
                l(1) =   0
                l(2) =   0
                l(3) =   1
                l(4) =   1
                l(5) =   2

     atomic species   valence    mass     pseudopotential
        W             28.00   183.84000     W ( 1.00)
        O              6.00    15.99940     O ( 1.00)

      4 Sym. Ops. (no inversion) found ( 3 have fractional translation)



   Cartesian axes

     site n.     atom                  positions (alat units)
         1           W   tau(   1) = (   0.2442641   0.2944610   0.0013384  )
         2           W   tau(   2) = (   0.7516641   0.7560934  -0.0056510  )
         3           W   tau(   3) = (   0.2557359   0.2308162   0.5014390  )
         4           W   tau(   4) = (   0.7483359   0.8197382   0.4944496  )
         5           W   tau(   5) = (   0.7557358   0.2944610   0.4987623  )
         6           W   tau(   6) = (   0.2483359   0.7560934   0.5057517  )
         7           W   tau(   7) = (   0.7442641   0.2308162  -0.0013384  )
         8           W   tau(   8) = (   0.2516641   0.8197382   0.0056510  )
         9           O   tau(   9) = (   0.2425412   0.0082916  -0.0028919  )
        10           O   tau(  10) = (   0.7561932  -0.0082916  -0.0050643  )
        11           O   tau(  11) = (   0.2574588   0.5169856   0.4972087  )
        12           O   tau(  12) = (   0.7438068   0.5335688   0.4950363  )
        13           O   tau(  13) = (   0.7574588   0.0082916   0.5029926  )
        14           O   tau(  14) = (   0.2438068  -0.0082916   0.5051650  )
        15           O   tau(  15) = (   0.7425412   0.5169856   0.0028919  )
        16           O   tau(  16) = (   0.2561932   0.5335688   0.0050643  )
        17           O   tau(  17) = (   0.5019058   0.2543473   0.4534676  )
        18           O   tau(  18) = (   0.4998818   0.7943364   0.5467337  )
        19           O   tau(  19) = (  -0.0019058   0.2709299   0.9535683  )
        20           O   tau(  20) = (   0.0001182   0.7814952   0.0466331  )
        21           O   tau(  21) = (   0.4980942   0.2543473   0.0466331  )
        22           O   tau(  22) = (   0.5001182   0.7943364   0.9535683  )
        23           O   tau(  23) = (   0.0019058   0.2709299   0.5467337  )
        24           O   tau(  24) = (  -0.0001182   0.7814952   0.4534676  )
        25           O   tau(  25) = (   0.7033763   0.2653195   0.7492064  )
        26           O   tau(  26) = (   0.2966237   0.7938072   0.2521744  )
        27           O   tau(  27) = (   0.7966237   0.2599577   0.2491058  )
        28           O   tau(  28) = (   0.2033763   0.7820244   0.7522751  )
        29           O   tau(  29) = (   0.2966237   0.2653195   0.7510955  )
        30           O   tau(  30) = (   0.7033763   0.7938072   0.2479262  )
        31           O   tau(  31) = (   0.2033763   0.2599577   0.2509948  )
        32           O   tau(  32) = (   0.7966237   0.7820244   0.7480269  )

     number of k points=    64  gaussian smearing, width (Ry)=  0.0007
                       cart. coord. in units 2pi/alat
        k(    1) = (   0.0000000   0.0000000   0.0000000), wk =   0.0092593
        k(    2) = (   0.0000000   0.0000000   0.1666331), wk =   0.0185185
        k(    3) = (   0.0000000   0.0000000   0.3332663), wk =   0.0185185
        k(    4) = (   0.0000000   0.0000000  -0.4998994), wk =   0.0092593
        k(    5) = (   0.0000000   0.1586464   0.0000000), wk =   0.0185185
        k(    6) = (   0.0000000   0.1586464   0.1666331), wk =   0.0370370
        k(    7) = (   0.0000000   0.1586464   0.3332663), wk =   0.0370370
        k(    8) = (   0.0000000   0.1586464  -0.4998994), wk =   0.0185185
        k(    9) = (   0.0000000   0.3172928   0.0000000), wk =   0.0185185
        k(   10) = (   0.0000000   0.3172928   0.1666331), wk =   0.0370370
        k(   11) = (   0.0000000   0.3172928   0.3332663), wk =   0.0370370
        k(   12) = (   0.0000000   0.3172928  -0.4998994), wk =   0.0185185
        k(   13) = (   0.0000000  -0.4759392   0.0000000), wk =   0.0092593
        k(   14) = (   0.0000000  -0.4759392   0.1666331), wk =   0.0185185
        k(   15) = (   0.0000000  -0.4759392   0.3332663), wk =   0.0185185
        k(   16) = (   0.0000000  -0.4759392  -0.4998994), wk =   0.0092593
        k(   17) = (   0.1666667   0.0000000   0.0000000), wk =   0.0185185
        k(   18) = (   0.1666667   0.0000000   0.1666331), wk =   0.0370370
        k(   19) = (   0.1666667   0.0000000   0.3332663), wk =   0.0370370
        k(   20) = (   0.1666667   0.0000000  -0.4998994), wk =   0.0185185
        k(   21) = (   0.1666667   0.1586464   0.0000000), wk =   0.0370370
        k(   22) = (   0.1666667   0.1586464   0.1666331), wk =   0.0740741
        k(   23) = (   0.1666667   0.1586464   0.3332663), wk =   0.0740741
        k(   24) = (   0.1666667   0.1586464  -0.4998994), wk =   0.0370370
        k(   25) = (   0.1666667   0.3172928   0.0000000), wk =   0.0370370
        k(   26) = (   0.1666667   0.3172928   0.1666331), wk =   0.0740741
        k(   27) = (   0.1666667   0.3172928   0.3332663), wk =   0.0740741
        k(   28) = (   0.1666667   0.3172928  -0.4998994), wk =   0.0370370
        k(   29) = (   0.1666667  -0.4759392   0.0000000), wk =   0.0185185
        k(   30) = (   0.1666667  -0.4759392   0.1666331), wk =   0.0370370
        k(   31) = (   0.1666667  -0.4759392   0.3332663), wk =   0.0370370
        k(   32) = (   0.1666667  -0.4759392  -0.4998994), wk =   0.0185185
        k(   33) = (   0.3333333   0.0000000   0.0000000), wk =   0.0185185
        k(   34) = (   0.3333333   0.0000000   0.1666331), wk =   0.0370370
        k(   35) = (   0.3333333   0.0000000   0.3332663), wk =   0.0370370
        k(   36) = (   0.3333333   0.0000000  -0.4998994), wk =   0.0185185
        k(   37) = (   0.3333333   0.1586464   0.0000000), wk =   0.0370370
        k(   38) = (   0.3333333   0.1586464   0.1666331), wk =   0.0740741
        k(   39) = (   0.3333333   0.1586464   0.3332663), wk =   0.0740741
        k(   40) = (   0.3333333   0.1586464  -0.4998994), wk =   0.0370370
        k(   41) = (   0.3333333   0.3172928   0.0000000), wk =   0.0370370
        k(   42) = (   0.3333333   0.3172928   0.1666331), wk =   0.0740741
        k(   43) = (   0.3333333   0.3172928   0.3332663), wk =   0.0740741
        k(   44) = (   0.3333333   0.3172928  -0.4998994), wk =   0.0370370
        k(   45) = (   0.3333333  -0.4759392   0.0000000), wk =   0.0185185
        k(   46) = (   0.3333333  -0.4759392   0.1666331), wk =   0.0370370
        k(   47) = (   0.3333333  -0.4759392   0.3332663), wk =   0.0370370
        k(   48) = (   0.3333333  -0.4759392  -0.4998994), wk =   0.0185185
        k(   49) = (  -0.5000000   0.0000000   0.0000000), wk =   0.0092593
        k(   50) = (  -0.5000000   0.0000000   0.1666331), wk =   0.0185185
        k(   51) = (  -0.5000000   0.0000000   0.3332663), wk =   0.0185185
        k(   52) = (  -0.5000000   0.0000000  -0.4998994), wk =   0.0092593
        k(   53) = (  -0.5000000   0.1586464   0.0000000), wk =   0.0185185
        k(   54) = (  -0.5000000   0.1586464   0.1666331), wk =   0.0370370
        k(   55) = (  -0.5000000   0.1586464   0.3332663), wk =   0.0370370
        k(   56) = (  -0.5000000   0.1586464  -0.4998994), wk =   0.0185185
        k(   57) = (  -0.5000000   0.3172928   0.0000000), wk =   0.0185185
        k(   58) = (  -0.5000000   0.3172928   0.1666331), wk =   0.0370370
        k(   59) = (  -0.5000000   0.3172928   0.3332663), wk =   0.0370370
        k(   60) = (  -0.5000000   0.3172928  -0.4998994), wk =   0.0185185
        k(   61) = (  -0.5000000  -0.4759392   0.0000000), wk =   0.0092593
        k(   62) = (  -0.5000000  -0.4759392   0.1666331), wk =   0.0185185
        k(   63) = (  -0.5000000  -0.4759392   0.3332663), wk =   0.0185185
        k(   64) = (  -0.5000000  -0.4759392  -0.4998994), wk =   0.0092593

     Dense  grid:   500205 G-vectors     FFT dimensions: ( 100, 108, 100)

     Estimated max dynamical RAM per process >       3.15 GB

     Estimated total dynamical RAM >     125.98 GB

     Initial potential from superposition of free atoms

     starting charge  367.99656, renormalised to  369.00000
     Starting wfc are  232 randomized atomic wfcs

     total cpu time spent up to now is       31.9 secs

     Self-consistent Calculation

     iteration #  1     ecut=   120.00 Ry     beta= 0.70
     Davidson diagonalization with overlap
     ethr =  1.00E-02,  avg # of iterations =  5.5

     total cpu time spent up to now is      139.5 secs

     total energy              =   -6253.08160769 Ry
     Harris-Foulkes estimate   =   -6264.06641146 Ry
     estimated scf accuracy    <      13.79106745 Ry

     iteration #  2     ecut=   120.00 Ry     beta= 0.70
     Davidson diagonalization with overlap
     ethr =  3.74E-03,  avg # of iterations =  3.6

     total cpu time spent up to now is      244.7 secs

     total energy              =   -6250.15902899 Ry
     Harris-Foulkes estimate   =   -6269.93030416 Ry
     estimated scf accuracy    <      52.17685177 Ry

     iteration #  3     ecut=   120.00 Ry     beta= 0.70
     Davidson diagonalization with overlap
     ethr =  3.74E-03,  avg # of iterations =  3.4

     total cpu time spent up to now is      342.6 secs

     total energy              =   -6260.39221518 Ry
     Harris-Foulkes estimate   =   -6260.65206808 Ry
     estimated scf accuracy    <       0.88689558 Ry

     iteration #  4     ecut=   120.00 Ry     beta= 0.70
     Davidson diagonalization with overlap
     ethr =  2.40E-04,  avg # of iterations =  3.2

     total cpu time spent up to now is      427.5 secs

     total energy              =   -6260.37601648 Ry
     Harris-Foulkes estimate   =   -6260.45295593 Ry
     estimated scf accuracy    <       0.22971296 Ry

     iteration #  5     ecut=   120.00 Ry     beta= 0.70
     Davidson diagonalization with overlap
     ethr =  6.23E-05,  avg # of iterations =  5.0

     total cpu time spent up to now is      513.9 secs

     total energy              =   -6260.38200797 Ry
     Harris-Foulkes estimate   =   -6260.41253170 Ry
     estimated scf accuracy    <       0.07020748 Ry

     iteration #  6     ecut=   120.00 Ry     beta= 0.70
     Davidson diagonalization with overlap
     ethr =  1.90E-05,  avg # of iterations =  6.7

     total cpu time spent up to now is      610.2 secs

     total energy              =   -6260.39772811 Ry
     Harris-Foulkes estimate   =   -6260.40134264 Ry
     estimated scf accuracy    <       0.02048950 Ry

     iteration #  7     ecut=   120.00 Ry     beta= 0.70
     Davidson diagonalization with overlap
     ethr =  5.55E-06,  avg # of iterations =  4.8

     total cpu time spent up to now is      698.7 secs

     total energy              =   -6260.39705267 Ry
     Harris-Foulkes estimate   =   -6260.39893592 Ry
     estimated scf accuracy    <       0.00567310 Ry

     iteration #  8     ecut=   120.00 Ry     beta= 0.70
     Davidson diagonalization with overlap
     ethr =  1.54E-06,  avg # of iterations =  5.6

     total cpu time spent up to now is      792.3 secs

     total energy              =   -6260.39738418 Ry
     Harris-Foulkes estimate   =   -6260.39769154 Ry
     estimated scf accuracy    <       0.00069292 Ry

     iteration #  9     ecut=   120.00 Ry     beta= 0.70
     Davidson diagonalization with overlap
     ethr =  1.88E-07,  avg # of iterations =  3.0

     total cpu time spent up to now is      878.3 secs

     total energy              =   -6260.39755213 Ry
     Harris-Foulkes estimate   =   -6260.39757272 Ry
     estimated scf accuracy    <       0.00009986 Ry

     iteration # 10     ecut=   120.00 Ry     beta= 0.70
     Davidson diagonalization with overlap
     ethr =  2.71E-08,  avg # of iterations =  1.9

     total cpu time spent up to now is      954.9 secs

     total energy              =   -6260.39754879 Ry
     Harris-Foulkes estimate   =   -6260.39756512 Ry
     estimated scf accuracy    <       0.00004969 Ry

     iteration # 11     ecut=   120.00 Ry     beta= 0.70
     Davidson diagonalization with overlap
     ethr =  1.35E-08,  avg # of iterations =  2.0

     total cpu time spent up to now is     1032.3 secs

     total energy              =   -6260.39755530 Ry
     Harris-Foulkes estimate   =   -6260.39755654 Ry
     estimated scf accuracy    <       0.00000653 Ry

     iteration # 12     ecut=   120.00 Ry     beta= 0.70
     Davidson diagonalization with overlap
     ethr =  1.77E-09,  avg # of iterations =  2.0

     total cpu time spent up to now is     1108.7 secs

     total energy              =   -6260.39755602 Ry
     Harris-Foulkes estimate   =   -6260.39755638 Ry
     estimated scf accuracy    <       0.00000188 Ry

     iteration # 13     ecut=   120.00 Ry     beta= 0.70
     Davidson diagonalization with overlap
     ethr =  5.09E-10,  avg # of iterations =  1.7

     total cpu time spent up to now is     1185.1 secs

     total energy              =   -6260.39755621 Ry
     Harris-Foulkes estimate   =   -6260.39755623 Ry
     estimated scf accuracy    <       0.00000006 Ry

     iteration # 14     ecut=   120.00 Ry     beta= 0.70
     Davidson diagonalization with overlap
     ethr =  1.51E-11,  avg # of iterations =  3.0

     total cpu time spent up to now is     1285.1 secs

     total energy              =   -6260.39755621 Ry
     Harris-Foulkes estimate   =   -6260.39755622 Ry
     estimated scf accuracy    <       0.00000005 Ry

     iteration # 15     ecut=   120.00 Ry     beta= 0.70
     Davidson diagonalization with overlap
     ethr =  1.33E-11,  avg # of iterations =  1.0

     total cpu time spent up to now is     1359.5 secs

     End of self-consistent calculation

          k = 0.0000 0.0000 0.0000 ( 62455 PWs)   bands (ev):

   -66.0163 -66.0159 -66.0153 -66.0153 -66.0149 -66.0149 -66.0144 -66.0139
   -30.4755 -30.4717 -30.4716 -30.4680 -30.4140 -30.4102 -30.4100 -30.4064
   -30.3605 -30.3579 -30.3546 -30.3535 -30.3532 -30.3514 -30.3479 -30.3466
   -30.2608 -30.2595 -30.2569 -30.2553 -30.2539 -30.2527 -30.2495 -30.2481
   -20.1695 -20.1692 -20.1692 -20.1689 -20.1640 -20.1636 -20.1636 -20.1632
   -20.1591 -20.1588 -20.1588 -20.1587 -20.1585 -20.1585 -20.1584 -20.1583
   -20.1566 -20.1563 -20.1561 -20.1561 -20.1554 -20.1554 -20.1550 -20.1549
   -20.1534 -20.1534 -20.1531 -20.1529 -20.1522 -20.1520 -20.1519 -20.1517
   -20.1389 -20.1387 -20.1384 -20.1384 -20.1383 -20.1382 -20.1379 -20.1378
   -20.1005 -20.1004 -20.1000 -20.1000 -20.0990 -20.0987 -20.0986 -20.0985
   -20.0949 -20.0945 -20.0945 -20.0943 -20.0934 -20.0932 -20.0928 -20.0928
    -9.9500  -9.6467  -9.5311  -9.5309  -9.2299  -9.2279  -9.1401  -9.0245
    -9.0106  -8.9182  -8.8836  -8.8830  -7.8893  -7.8286  -7.8274  -7.7755
    -7.7535  -7.7498  -7.7242  -7.7183  -7.6170  -7.6158  -7.5897  -7.5888
     1.2335   1.2348   1.2975   1.2996   1.3292   1.3331   1.3463   1.5697
     1.5868   1.5894   1.6453   1.8399   2.4330   2.5150   2.5430   2.5504
     2.6924   2.6947   4.1660   4.1705   4.3810   4.3889   4.7725   4.7949
     4.8363   4.8397   4.8689   4.8691   4.9830   4.9832   5.0642   5.4154
     5.4203   5.4719   5.4825   5.5333   5.5346   5.5622   5.5700   5.8187
     5.8244   5.8428   5.8443   5.8778   5.9439   6.0729   6.0757   6.1388
     6.1399   6.2690   6.2726   6.5124   6.5138   6.7926   6.7990   6.8390
     6.8417   6.8432   7.0020   7.0133   7.0681   7.0717   7.3644   7.3690
     7.4033   7.4077   7.8652   7.8799   8.0522   8.0590   8.1148   8.1279
     9.3412   9.3438   9.9537   9.9576   9.9747   9.9769  12.3276  12.3281
    12.3702  12.3765  12.4324  12.4381  12.5411  12.5559  12.9756  13.0396
    13.2231  13.2837  13.3829  13.3883  13.8404  14.1329  14.1691  14.1842
    14.2358  14.4410  14.4743  14.7689  15.4478  15.4598  15.5416  16.1022
    16.1071  16.8709  17.0776  17.0835  17.2532  17.3644

          k = 0.0000 0.0000 0.1666 ( 62513 PWs)   bands (ev):

   -66.0162 -66.0158 -66.0154 -66.0153 -66.0150 -66.0148 -66.0144 -66.0140
   -30.4753 -30.4720 -30.4715 -30.4683 -30.4138 -30.4105 -30.4099 -30.4067
   -30.3586 -30.3538 -30.3528 -30.3515 -30.3479 -30.3469 -30.3462 -30.3412
   -30.2675 -30.2633 -30.2607 -30.2592 -30.2571 -30.2544 -30.2524 -30.2486
   -20.1695 -20.1692 -20.1692 -20.1689 -20.1640 -20.1636 -20.1636 -20.1633
   -20.1590 -20.1588 -20.1588 -20.1587 -20.1585 -20.1585 -20.1584 -20.1583
   -20.1565 -20.1561 -20.1561 -20.1560 -20.1553 -20.1552 -20.1550 -20.1548
   -20.1536 -20.1535 -20.1532 -20.1529 -20.1524 -20.1522 -20.1519 -20.1517
   -20.1388 -20.1387 -20.1384 -20.1384 -20.1383 -20.1382 -20.1380 -20.1378
   -20.1002 -20.1002 -20.0999 -20.0997 -20.0988 -20.0987 -20.0986 -20.0983
   -20.0953 -20.0949 -20.0944 -20.0942 -20.0938 -20.0935 -20.0930 -20.0929
    -9.9048  -9.5932  -9.5467  -9.4743  -9.2413  -9.1484  -9.1402  -8.9877
    -8.9693  -8.9031  -8.8872  -8.8485  -7.8953  -7.8695  -7.8568  -7.8323
    -7.8172  -7.7788  -7.7480  -7.7400  -7.7232  -7.7114  -7.6245  -7.5974
     1.2983   1.3007   1.3235   1.3386   1.4181   1.4502   1.5629   1.5846
     1.5879   1.6961   1.8203   1.9696   2.5189   2.5553   2.6053   2.6355
     2.6837   2.7834   4.0966   4.1699   4.3747   4.3769   4.4041   4.4874
     4.6136   4.7447   4.7727   4.9040   4.9127   4.9791   5.0478   5.3008
     5.3220   5.4056   5.4661   5.5291   5.5433   5.5825   5.5936   5.6116
     5.7453   5.7511   5.8106   5.8948   5.9588   6.0691   6.1338   6.1377
     6.2849   6.4305   6.5010   6.5025   6.6552   6.6899   6.7648   6.7943
     6.8335   6.8352   6.9539   6.9781   7.0149   7.0788   7.1465   7.1569
     7.1919   7.2478   7.8699   7.8747   8.0173   8.0705   8.0798   8.1199
     9.6808   9.7032   9.9587   9.9728  10.2225  10.2628  12.2651  12.3101
    12.3414  12.3970  12.4183  12.4654  12.5527  12.6438  12.9638  13.0149
    13.0819  13.2672  13.3178  13.3838  13.9361  14.0526  14.0633  14.1312
    14.2396  14.4690  14.5561  14.8788  15.4863  15.5078  15.5164  16.0792
    16.4215  16.7719  17.0433  17.2668  17.3417  17.4141

          k = 0.0000 0.0000 0.3333 ( 62512 PWs)   bands (ev):

   -66.0161 -66.0156 -66.0156 -66.0151 -66.0151 -66.0147 -66.0146 -66.0142
   -30.4747 -30.4728 -30.4710 -30.4691 -30.4132 -30.4112 -30.4094 -30.4075
   -30.3575 -30.3548 -30.3505 -30.3479 -30.3349 -30.3301 -30.3282 -30.3232
   -30.2857 -30.2812 -30.2788 -30.2743 -30.2584 -30.2562 -30.2516 -30.2495
   -20.1694 -20.1693 -20.1691 -20.1690 -20.1639 -20.1637 -20.1636 -20.1634
   -20.1589 -20.1588 -20.1587 -20.1587 -20.1585 -20.1585 -20.1585 -20.1583
   -20.1563 -20.1562 -20.1556 -20.1556 -20.1551 -20.1550 -20.1547 -20.1544
   -20.1541 -20.1540 -20.1534 -20.1530 -20.1529 -20.1525 -20.1518 -20.1518
   -20.1387 -20.1386 -20.1385 -20.1384 -20.1383 -20.1381 -20.1380 -20.1379
   -20.0999 -20.0997 -20.0992 -20.0991 -20.0989 -20.0988 -20.0977 -20.0973
   -20.0964 -20.0960 -20.0949 -20.0945 -20.0941 -20.0940 -20.0933 -20.0932
    -9.7958  -9.5954  -9.4703  -9.3457  -9.2822  -9.1763  -8.9362  -8.8986
    -8.8847  -8.8226  -8.7880  -8.7157  -8.1817  -8.1668  -8.0880  -8.0672
    -7.8653  -7.8422  -7.8117  -7.7879  -7.7153  -7.6871  -7.6484  -7.6210
     1.3036   1.3094   1.3531   1.3748   1.5170   1.5368   1.5482   1.5760
     2.2839   2.3210   2.4696   2.5469   2.5803   2.6733   2.7675   2.8690
     2.8783   3.0240   3.7697   3.8246   3.8737   3.9963   4.1224   4.2969
     4.3361   4.5067   4.5624   4.7405   4.7635   4.8163   4.9492   4.9931
     5.1382   5.1668   5.1954   5.3284   5.4239   5.4843   5.6137   5.6429
     5.6989   5.7217   5.7805   5.9527   5.9851   6.1773   6.2617   6.2644
     6.3102   6.3596   6.4686   6.5122   6.5483   6.5555   6.6415   6.7483
     6.8273   6.8491   6.8542   6.9834   7.0310   7.0414   7.0745   7.1300
     7.2866   7.3211   7.7828   7.8062   7.8926   7.9396   8.1040   8.1210
     9.9515   9.9673  10.3958  10.4644  10.8488  10.9423  11.8824  11.9311
    12.1179  12.4807  12.5472  12.5620  12.5926  12.6373  12.7392  12.9022
    12.9982  13.1677  13.1936  13.3944  13.7002  13.7283  14.0993  14.1268
    14.3266  14.4519  14.8752  15.1783  15.3987  15.6462  15.9106  15.9937
    16.1955  17.2775  17.3756  17.5541  17.5886  17.5897

          k = 0.0000 0.0000-0.4999 ( 62520 PWs)   bands (ev):

   -66.0158 -66.0158 -66.0154 -66.0154 -66.0148 -66.0148 -66.0144 -66.0144
   -30.4738 -30.4738 -30.4701 -30.4701 -30.4122 -30.4122 -30.4085 -30.4085
   -30.3561 -30.3561 -30.3492 -30.3492 -30.3104 -30.3104 -30.3057 -30.3057
   -30.3036 -30.3035 -30.2987 -30.2987 -30.2573 -30.2573 -30.2506 -30.2506
   -20.1694 -20.1694 -20.1691 -20.1691 -20.1638 -20.1638 -20.1635 -20.1635
   -20.1589 -20.1589 -20.1586 -20.1586 -20.1586 -20.1586 -20.1584 -20.1584
   -20.1562 -20.1562 -20.1552 -20.1552 -20.1548 -20.1548 -20.1547 -20.1547
   -20.1540 -20.1540 -20.1537 -20.1537 -20.1527 -20.1527 -20.1518 -20.1518
   -20.1386 -20.1386 -20.1385 -20.1385 -20.1381 -20.1381 -20.1380 -20.1380
   -20.0995 -20.0995 -20.0993 -20.0993 -20.0978 -20.0978 -20.0975 -20.0974
   -20.0963 -20.0963 -20.0959 -20.0959 -20.0937 -20.0937 -20.0936 -20.0936
    -9.6803  -9.6803  -9.3561  -9.3561  -9.2359  -9.2359  -8.9147  -8.9147
    -8.5415  -8.5415  -8.5194  -8.5194  -8.5054  -8.5054  -8.4389  -8.4389
    -7.8553  -7.8553  -7.8001  -7.8001  -7.6816  -7.6816  -7.6538  -7.6538
     1.3073   1.3073   1.3700   1.3700   1.5333   1.5333   1.5665   1.5665
     2.6131   2.6131   3.0053   3.0053   3.1370   3.1370   3.1577   3.1577
     3.2911   3.2911   3.3590   3.3590   3.4853   3.4854   3.7741   3.7741
     3.8514   3.8514   4.4476   4.4476   4.6953   4.6953   4.9044   4.9044
     5.2143   5.2143   5.3162   5.3162   5.3342   5.3342   5.6592   5.6592
     5.7285   5.7285   5.9126   5.9126   6.1448   6.1448   6.2262   6.2262
     6.3247   6.3247   6.4053   6.4053   6.4552   6.4552   6.5409   6.5409
     6.7850   6.7850   6.8308   6.8308   7.0555   7.0555   7.4951   7.4951
     7.5636   7.5636   7.6635   7.6635   7.6854   7.6854   8.1186   8.1186
     9.9596   9.9596  11.1932  11.1932  11.2630  11.2630  11.5643  11.5643
    11.7458  11.7458  12.5936  12.5936  12.7792  12.7792  12.8732  12.8732
    12.9505  12.9505  13.2910  13.2910  13.4593  13.4593  14.1204  14.1204
    14.4143  14.4143  15.1921  15.1921  15.6289  15.6289  15.8474  15.8474
    16.6652  16.6652  17.7392  17.7392  17.9375  17.9377

          k = 0.0000 0.1586 0.0000 ( 62495 PWs)   bands (ev):

   -66.0163 -66.0159 -66.0153 -66.0153 -66.0149 -66.0149 -66.0143 -66.0140
   -30.4713 -30.4676 -30.4675 -30.4639 -30.4180 -30.4143 -30.4141 -30.4106
   -30.3603 -30.3580 -30.3545 -30.3534 -30.3532 -30.3516 -30.3480 -30.3467
   -30.2608 -30.2595 -30.2568 -30.2553 -30.2540 -30.2528 -30.2495 -30.2482
   -20.1691 -20.1688 -20.1688 -20.1685 -20.1643 -20.1640 -20.1639 -20.1636
   -20.1591 -20.1588 -20.1588 -20.1587 -20.1585 -20.1585 -20.1584 -20.1583
   -20.1566 -20.1562 -20.1561 -20.1560 -20.1555 -20.1554 -20.1550 -20.1550
   -20.1533 -20.1533 -20.1530 -20.1529 -20.1523 -20.1521 -20.1519 -20.1518
   -20.1389 -20.1387 -20.1384 -20.1384 -20.1383 -20.1382 -20.1379 -20.1378
   -20.1005 -20.1004 -20.1000 -20.1000 -20.0990 -20.0987 -20.0986 -20.0985
   -20.0949 -20.0945 -20.0945 -20.0944 -20.0934 -20.0932 -20.0928 -20.0928
    -9.9185  -9.6586  -9.4909  -9.4905  -9.2376  -9.2356  -9.0647  -9.0236
    -9.0115  -8.8729  -8.8473  -8.8468  -7.9859  -7.9308  -7.9298  -7.8852
    -7.7530  -7.7484  -7.7259  -7.7202  -7.6159  -7.6148  -7.5912  -7.5902
     1.2335   1.2347   1.3131   1.3162   1.3302   1.3339   1.4875   1.6446
     1.7591   1.8150   1.8171   1.9968   2.4384   2.5093   2.6158   2.6238
     2.7619   2.7645   4.0257   4.0311   4.1012   4.1076   4.7482   4.8350
     4.8410   4.8566   4.8591   4.8633   4.9127   4.9322   4.9330   5.2581
     5.2618   5.4318   5.4333   5.5817   5.6262   5.6285   5.6306   5.6482
     5.7754   5.7774   5.8901   5.8930   5.9187   6.0718   6.0744   6.1431
     6.1454   6.2633   6.2680   6.5357   6.5386   6.8123   6.8159   6.8207
     6.8596   6.8684   6.8751   6.9834   6.9845   6.9942   7.3702   7.3746
     7.4044   7.4085   7.8691   7.8791   8.0113   8.0168   8.0381   8.0473
     9.3424   9.3439  10.1559  10.1563  10.1613  10.1614  12.2047  12.2140
    12.3785  12.3812  12.3829  12.3941  12.4303  12.4346  12.9860  13.0409
    13.2576  13.3106  13.3888  13.3934  14.0176  14.0709  14.0831  14.0873
    14.2732  14.7037  14.7168  14.9492  15.4479  15.4580  15.9456  16.0691
    16.0734  16.5221  17.2144  17.2202  17.3147  17.4514

          k = 0.0000 0.1586 0.1666 ( 62520 PWs)   bands (ev):

   -66.0162 -66.0158 -66.0154 -66.0152 -66.0150 -66.0149 -66.0144 -66.0140
   -30.4711 -30.4679 -30.4674 -30.4642 -30.4178 -30.4146 -30.4140 -30.4109
   -30.3585 -30.3537 -30.3528 -30.3517 -30.3479 -30.3471 -30.3463 -30.3413
   -30.2674 -30.2632 -30.2608 -30.2592 -30.2572 -30.2544 -30.2525 -30.2487
   -20.1691 -20.1688 -20.1688 -20.1685 -20.1643 -20.1640 -20.1640 -20.1636
   -20.1590 -20.1588 -20.1588 -20.1587 -20.1585 -20.1585 -20.1584 -20.1583
   -20.1565 -20.1560 -20.1560 -20.1560 -20.1553 -20.1553 -20.1551 -20.1549
   -20.1535 -20.1535 -20.1531 -20.1529 -20.1525 -20.1522 -20.1519 -20.1518
   -20.1388 -20.1387 -20.1384 -20.1384 -20.1383 -20.1382 -20.1380 -20.1379
   -20.1002 -20.1002 -20.0999 -20.0997 -20.0988 -20.0987 -20.0986 -20.0983
   -20.0953 -20.0949 -20.0944 -20.0942 -20.0938 -20.0935 -20.0930 -20.0929
    -9.8720  -9.6051  -9.5064  -9.4292  -9.2492  -9.1480  -9.0730  -8.9852
    -8.9701  -8.8607  -8.8509  -8.8171  -7.9858  -7.9405  -7.9286  -7.8918
    -7.8723  -7.8440  -7.7471  -7.7396  -7.7220  -7.7129  -7.6235  -7.5988
     1.3149   1.3200   1.3250   1.3395   1.5371   1.5815   1.5886   1.7673
     1.8119   1.8206   1.8469   2.0689   2.5254   2.5990   2.6279   2.7106
     2.7539   2.8529   3.9955   4.0443   4.0981   4.1397   4.4092   4.4848
     4.6496   4.6718   4.7544   4.8854   4.8946   4.9108   4.9499   5.2182
     5.2241   5.2894   5.3206   5.4529   5.5535   5.5752   5.6254   5.6852
     5.7229   5.7523   5.8264   5.8558   5.8596   6.1039   6.1298   6.1436
     6.2228   6.4138   6.4767   6.5272   6.6854   6.7583   6.7754   6.8019
     6.8128   6.8755   6.9352   6.9556   6.9871   6.9985   7.1472   7.1573
     7.2038   7.2488   7.8716   7.8745   7.9771   8.0061   8.0156   8.0424
     9.6866   9.7052  10.1571  10.1629  10.3924  10.4099  12.1913  12.2808
    12.2904  12.3285  12.3905  12.4037  12.4385  12.5358  12.9874  13.0197
    13.1047  13.2871  13.3230  13.3874  13.9283  13.9606  14.0531  14.0692
    14.3719  14.7113  14.8528  15.0433  15.4855  15.5163  15.9116  16.0462
    16.3862  16.6730  16.8961  17.3816  17.4002  17.5245

          k = 0.0000 0.1586 0.3333 ( 62535 PWs)   bands (ev):

   -66.0160 -66.0156 -66.0155 -66.0152 -66.0151 -66.0147 -66.0146 -66.0142
   -30.4706 -30.4687 -30.4668 -30.4650 -30.4173 -30.4153 -30.4135 -30.4116
   -30.3574 -30.3547 -30.3507 -30.3481 -30.3349 -30.3301 -30.3283 -30.3233
   -30.2856 -30.2811 -30.2789 -30.2743 -30.2584 -30.2561 -30.2517 -30.2495
   -20.1691 -20.1689 -20.1688 -20.1686 -20.1643 -20.1641 -20.1640 -20.1638
   -20.1589 -20.1588 -20.1587 -20.1587 -20.1586 -20.1585 -20.1585 -20.1583
   -20.1563 -20.1561 -20.1555 -20.1555 -20.1551 -20.1551 -20.1547 -20.1545
   -20.1541 -20.1540 -20.1534 -20.1531 -20.1528 -20.1525 -20.1519 -20.1518
   -20.1387 -20.1386 -20.1385 -20.1384 -20.1383 -20.1381 -20.1380 -20.1379
   -20.0999 -20.0997 -20.0992 -20.0991 -20.0989 -20.0988 -20.0977 -20.0973
   -20.0964 -20.0960 -20.0949 -20.0945 -20.0941 -20.0940 -20.0933 -20.0932
    -9.7600  -9.5557  -9.4817  -9.2909  -9.2866  -9.1014  -8.9107  -8.8928
    -8.8623  -8.8241  -8.7719  -8.6981  -8.1852  -8.1692  -8.1062  -8.0669
    -7.9566  -7.9382  -7.9126  -7.8849  -7.7145  -7.6887  -7.6475  -7.6225
     1.3307   1.3497   1.3540   1.3759   1.7080   1.7267   1.8010   1.8111
     2.2827   2.3301   2.4725   2.5624   2.6526   2.7361   2.7782   2.8661
     2.9549   3.0871   3.7700   3.8301   3.8678   3.9407   4.1173   4.1517
     4.1834   4.3246   4.5800   4.6938   4.7479   4.7957   4.8136   4.8538
     4.9844   5.1249   5.1459   5.1691   5.3438   5.3871   5.5013   5.6009
     5.6735   5.7285   5.7742   5.8344   5.9461   6.1303   6.2102   6.2695
     6.3108   6.4889   6.5350   6.5466   6.6257   6.6450   6.7007   6.7945
     6.8073   6.8200   6.9136   6.9449   6.9835   7.0177   7.0772   7.1197
     7.2812   7.3166   7.7867   7.8037   7.8584   7.8834   8.0340   8.0445
    10.1519  10.1583  10.4058  10.4667  10.9654  11.0356  11.8837  11.9292
    12.0858  12.4022  12.5089  12.5249  12.5376  12.6043  12.6787  12.7964
    12.9963  13.1716  13.2063  13.3884  13.5974  13.6377  14.0597  14.0658
    14.5718  14.6953  15.2221  15.3168  15.6355  15.8015  15.9291  15.9636
    16.3213  17.1075  17.2339  17.4324  17.6334  17.7808

          k = 0.0000 0.1586-0.4999 ( 62474 PWs)   bands (ev):

   -66.0158 -66.0158 -66.0154 -66.0154 -66.0148 -66.0148 -66.0144 -66.0144
   -30.4697 -30.4697 -30.4660 -30.4660 -30.4163 -30.4163 -30.4126 -30.4126
   -30.3560 -30.3560 -30.3494 -30.3494 -30.3103 -30.3103 -30.3056 -30.3056
   -30.3036 -30.3036 -30.2988 -30.2988 -30.2573 -30.2572 -30.2506 -30.2506
   -20.1690 -20.1690 -20.1687 -20.1687 -20.1642 -20.1642 -20.1639 -20.1639
   -20.1588 -20.1588 -20.1586 -20.1586 -20.1586 -20.1586 -20.1584 -20.1584
   -20.1561 -20.1561 -20.1552 -20.1552 -20.1548 -20.1548 -20.1547 -20.1547
   -20.1540 -20.1540 -20.1538 -20.1538 -20.1527 -20.1527 -20.1519 -20.1519
   -20.1386 -20.1386 -20.1385 -20.1385 -20.1381 -20.1381 -20.1380 -20.1380
   -20.0995 -20.0995 -20.0993 -20.0993 -20.0978 -20.0978 -20.0975 -20.0974
   -20.0963 -20.0963 -20.0959 -20.0959 -20.0937 -20.0937 -20.0936 -20.0936
    -9.6418  -9.6418  -9.3661  -9.3661  -9.1647  -9.1647  -8.8796  -8.8796
    -8.5448  -8.5448  -8.5177  -8.5177  -8.5131  -8.5131  -8.4335  -8.4335
    -7.9514  -7.9514  -7.9017  -7.9017  -7.6807  -7.6807  -7.6553  -7.6553
     1.3437   1.3437   1.3710   1.3710   1.7277   1.7277   1.8124   1.8124
     2.6828   2.6828   3.0230   3.0230   3.1486   3.1487   3.1858   3.1858
     3.2988   3.2988   3.3561   3.3561   3.4748   3.4748   3.7791   3.7791
     3.8992   3.8992   4.2352   4.2352   4.6169   4.6169   4.7276   4.7276
     5.0333   5.0333   5.2848   5.2849   5.3127   5.3127   5.4696   5.4696
     5.6823   5.6823   5.8067   5.8067   6.1508   6.1508   6.2985   6.2985
     6.3490   6.3490   6.4303   6.4303   6.5271   6.5271   6.6397   6.6397
     6.8428   6.8428   6.8451   6.8451   6.9666   6.9666   7.5052   7.5052
     7.5575   7.5575   7.6377   7.6377   7.6593   7.6593   8.0437   8.0437
    10.1580  10.1580  11.1995  11.1995  11.2612  11.2612  11.6317  11.6317
    11.8074  11.8074  12.4521  12.4521  12.7532  12.7532  12.8830  12.8830
    12.8926  12.8926  13.1913  13.1913  13.4224  13.4224  14.0618  14.0618
    14.6612  14.6612  15.5605  15.5605  15.7747  15.7747  15.8253  15.8253
    16.7089  16.7089  17.5414  17.5414  17.9558  17.9559

          k = 0.0000 0.3173 0.0000 ( 62523 PWs)   bands (ev):

   -66.0162 -66.0160 -66.0152 -66.0152 -66.0150 -66.0150 -66.0143 -66.0140
   -30.4600 -30.4563 -30.4563 -30.4527 -30.4292 -30.4255 -30.4254 -30.4219
   -30.3598 -30.3583 -30.3544 -30.3532 -30.3532 -30.3521 -30.3482 -30.3471
   -30.2606 -30.2593 -30.2565 -30.2553 -30.2541 -30.2530 -30.2495 -30.2485
   -20.1681 -20.1678 -20.1678 -20.1675 -20.1654 -20.1650 -20.1650 -20.1647
   -20.1590 -20.1588 -20.1588 -20.1587 -20.1585 -20.1585 -20.1584 -20.1583
   -20.1564 -20.1561 -20.1559 -20.1558 -20.1556 -20.1556 -20.1552 -20.1552
   -20.1531 -20.1531 -20.1529 -20.1527 -20.1525 -20.1523 -20.1522 -20.1520
   -20.1388 -20.1387 -20.1384 -20.1384 -20.1383 -20.1383 -20.1379 -20.1378
   -20.1005 -20.1004 -20.1000 -20.1000 -20.0990 -20.0987 -20.0986 -20.0985
   -20.0949 -20.0945 -20.0945 -20.0944 -20.0934 -20.0932 -20.0928 -20.0928
    -9.8420  -9.6953  -9.3995  -9.3986  -9.2630  -9.2612  -9.0210  -9.0140
    -8.8515  -8.7304  -8.7215  -8.7213  -8.2331  -8.1878  -8.1869  -8.1632
    -7.7492  -7.7447  -7.7297  -7.7250  -7.6127  -7.6117  -7.5946  -7.5936
     1.2337   1.2343   1.3212   1.3249   1.3322   1.3359   1.6070   1.6420
     2.3337   2.4530   2.4756   2.4785   2.4939   2.6379   2.8299   2.8429
     2.9654   2.9705   3.6187   3.6262   3.6688   3.6755   4.1248   4.4410
     4.4459   4.7114   4.8402   4.8476   4.8663   4.8736   4.9978   5.0023
     5.0278   5.0334   5.3374   5.3406   5.5571   5.5591   5.6849   5.6879
     5.8668   5.8682   5.9049   5.9081   6.0329   6.0608   6.0641   6.1595
     6.1651   6.2337   6.2417   6.5014   6.6006   6.6033   6.8320   6.8340
     6.8880   6.9676   7.0717   7.0731   7.0781   7.0796   7.3773   7.3810
     7.4077   7.4113   7.8022   7.8077   7.8360   7.8386   7.8774   7.8802
     9.3437   9.3441  10.6311  10.6356  10.6785  10.6838  11.8189  11.8282
    11.9418  11.9525  12.3969  12.4022  12.4298  12.4341  13.0092  13.0394
    13.3705  13.4052  13.4538  13.4581  13.8330  13.8432  13.8581  13.8649
    14.7899  15.2682  15.2713  15.4487  15.4540  15.6033  15.9370  15.9565
    15.9594  16.9509  17.2158  17.4992  17.6830  17.6881

          k = 0.0000 0.3173 0.1666 ( 62504 PWs)   bands (ev):

   -66.0161 -66.0159 -66.0153 -66.0152 -66.0151 -66.0149 -66.0143 -66.0141
   -30.4598 -30.4566 -30.4561 -30.4530 -30.4290 -30.4258 -30.4253 -30.4222
   -30.3582 -30.3536 -30.3528 -30.3520 -30.3478 -30.3474 -30.3466 -30.3415
   -30.2673 -30.2630 -30.2609 -30.2590 -30.2573 -30.2542 -30.2527 -30.2489
   -20.1681 -20.1678 -20.1678 -20.1675 -20.1654 -20.1650 -20.1650 -20.1647
   -20.1590 -20.1588 -20.1588 -20.1587 -20.1585 -20.1585 -20.1584 -20.1583
   -20.1562 -20.1559 -20.1558 -20.1558 -20.1555 -20.1554 -20.1552 -20.1551
   -20.1533 -20.1533 -20.1530 -20.1527 -20.1527 -20.1524 -20.1522 -20.1520
   -20.1388 -20.1387 -20.1384 -20.1384 -20.1383 -20.1382 -20.1379 -20.1379
   -20.1002 -20.1002 -20.0999 -20.0997 -20.0988 -20.0987 -20.0986 -20.0983
   -20.0953 -20.0949 -20.0944 -20.0942 -20.0938 -20.0935 -20.0930 -20.0929
    -9.7926  -9.6421  -9.4145  -9.3254  -9.2755  -9.1744  -8.9810  -8.9728
    -8.8596  -8.7257  -8.7232  -8.7036  -8.2333  -8.1948  -8.1836  -8.1689
    -7.8696  -7.8503  -7.7439  -7.7380  -7.7237  -7.7170  -7.6204  -7.6023
     1.3184   1.3261   1.3301   1.3415   1.5755   1.5896   1.7692   1.8166
     2.3362   2.4567   2.4782   2.5410   2.5832   2.6309   2.8423   2.9387
     2.9589   3.0650   3.6272   3.6604   3.6693   3.7147   4.1164   4.4067
     4.4385   4.4576   4.5084   4.7152   4.7218   4.8270   4.8961   4.9148
     4.9999   5.0459   5.1352   5.2869   5.3757   5.4413   5.5649   5.6339
     5.6732   5.7853   5.7981   5.8473   6.0502   6.1072   6.1386   6.1567
     6.2185   6.4179   6.4474   6.5623   6.5922   6.8174   6.8380   6.9018
     6.9422   6.9627   7.0473   7.0583   7.0770   7.0791   7.1525   7.1618
     7.2310   7.2584   7.7816   7.8054   7.8077   7.8234   7.8776   7.8803
     9.6953   9.7052  10.6404  10.6814  10.8141  10.8498  11.8266  11.9125
    11.9505  12.0250  12.2974  12.3254  12.4540  12.4887  13.0234  13.0460
    13.2007  13.3487  13.3892  13.4497  13.6847  13.7376  13.8390  13.8549
    14.9271  15.2622  15.4660  15.4995  15.5188  15.6711  15.9334  16.0967
    16.2648  16.9145  17.2748  17.3004  17.5698  17.7954

          k = 0.0000 0.3173 0.3333 ( 62483 PWs)   bands (ev):

   -66.0159 -66.0157 -66.0155 -66.0152 -66.0150 -66.0148 -66.0145 -66.0143
   -30.4593 -30.4574 -30.4556 -30.4538 -30.4285 -30.4266 -30.4248 -30.4230
   -30.3572 -30.3545 -30.3510 -30.3484 -30.3348 -30.3299 -30.3285 -30.3235
   -30.2855 -30.2810 -30.2791 -30.2745 -30.2582 -30.2559 -30.2519 -30.2497
   -20.1681 -20.1679 -20.1678 -20.1676 -20.1653 -20.1651 -20.1650 -20.1648
   -20.1589 -20.1588 -20.1587 -20.1587 -20.1586 -20.1585 -20.1585 -20.1584
   -20.1560 -20.1559 -20.1554 -20.1553 -20.1553 -20.1553 -20.1549 -20.1547
   -20.1539 -20.1538 -20.1534 -20.1533 -20.1527 -20.1525 -20.1521 -20.1521
   -20.1387 -20.1386 -20.1385 -20.1384 -20.1382 -20.1381 -20.1380 -20.1379
   -20.0999 -20.0997 -20.0992 -20.0991 -20.0989 -20.0988 -20.0977 -20.0973
   -20.0964 -20.0960 -20.0949 -20.0945 -20.0941 -20.0940 -20.0933 -20.0932
    -9.6739  -9.5178  -9.4639  -9.3193  -9.1400  -8.9235  -8.8901  -8.8626
    -8.8292  -8.7387  -8.6847  -8.6275  -8.2686  -8.2554  -8.1877  -8.1742
    -8.1667  -8.1109  -8.0620  -8.0205  -7.7112  -7.6925  -7.6444  -7.6261
     1.3435   1.3561   1.3649   1.3782   2.1857   2.2745   2.2809   2.3577
     2.4646   2.4839   2.4977   2.7248   2.8048   2.8365   2.8652   2.9484
     3.1869   3.2828   3.6128   3.6346   3.7319   3.7686   3.8547   3.8656
     4.0943   4.2493   4.3612   4.3725   4.4657   4.5507   4.6284   4.7702
     4.7941   4.8031   4.9568   5.0213   5.1636   5.1800   5.1877   5.3273
     5.3622   5.5814   5.6178   5.7997   6.1439   6.2021   6.2134   6.2762
     6.3922   6.5512   6.6138   6.6449   6.6847   6.7825   6.8002   6.8287
     6.8960   6.9561   7.0067   7.0306   7.0503   7.1259   7.1472   7.1783
     7.2615   7.3060   7.7029   7.7147   7.7762   7.7998   7.8162   7.8462
    10.4233  10.4393  10.6568  10.6840  11.2847  11.3202  11.8067  11.8948
    11.9240  11.9819  12.2023  12.2605  12.6145  12.6528  12.6727  12.6922
    12.9541  13.1531  13.2076  13.3803  13.4451  13.4954  13.8379  13.8505
    15.1041  15.2348  15.5843  15.8412  15.8567  16.0198  16.0515  16.5911
    16.7225  16.7882  17.0826  17.5381  17.6398  17.7029

          k = 0.0000 0.3173-0.4999 ( 62512 PWs)   bands (ev):

   -66.0157 -66.0157 -66.0155 -66.0155 -66.0147 -66.0147 -66.0145 -66.0145
   -30.4584 -30.4584 -30.4547 -30.4547 -30.4276 -30.4276 -30.4239 -30.4239
   -30.3558 -30.3558 -30.3497 -30.3497 -30.3102 -30.3102 -30.3055 -30.3055
   -30.3038 -30.3038 -30.2990 -30.2990 -30.2571 -30.2571 -30.2508 -30.2508
   -20.1680 -20.1680 -20.1677 -20.1677 -20.1652 -20.1652 -20.1649 -20.1649
   -20.1588 -20.1588 -20.1587 -20.1587 -20.1586 -20.1586 -20.1584 -20.1584
   -20.1559 -20.1559 -20.1553 -20.1553 -20.1546 -20.1546 -20.1545 -20.1545
   -20.1541 -20.1541 -20.1540 -20.1540 -20.1526 -20.1526 -20.1521 -20.1521
   -20.1386 -20.1386 -20.1385 -20.1385 -20.1381 -20.1381 -20.1380 -20.1380
   -20.0995 -20.0995 -20.0993 -20.0993 -20.0978 -20.0978 -20.0975 -20.0974
   -20.0963 -20.0963 -20.0959 -20.0959 -20.0937 -20.0937 -20.0936 -20.0936
    -9.5511  -9.5511  -9.3983  -9.3983  -8.9683  -8.9683  -8.7676  -8.7676
    -8.5648  -8.5648  -8.5550  -8.5550  -8.4978  -8.4978  -8.4126  -8.4125
    -8.1851  -8.1851  -8.1442  -8.1442  -7.6775  -7.6775  -7.6590  -7.6590
     1.3596   1.3596   1.3732   1.3732   2.3381   2.3381   2.4706   2.4706
     2.8843   2.8843   3.0721   3.0721   3.1241   3.1241   3.2748   3.2748
     3.3347   3.3347   3.3536   3.3536   3.4342   3.4342   3.6416   3.6416
     4.0285   4.0285   4.0670   4.0670   4.1060   4.1060   4.3325   4.3325
     4.7882   4.7882   4.8866   4.8866   5.0826   5.0826   5.2551   5.2551
     5.4185   5.4185   5.7077   5.7077   6.2866   6.2866   6.3479   6.3479
     6.4558   6.4558   6.5007   6.5007   6.5301   6.5301   6.7408   6.7408
     7.0188   7.0188   7.0321   7.0321   7.0774   7.0774   7.5000   7.5000
     7.5299   7.5299   7.5503   7.5503   7.5925   7.5925   7.8253   7.8253
    10.6601  10.6601  11.2133  11.2133  11.2568  11.2568  11.7238  11.7238
    11.9983  11.9983  12.1512  12.1512  12.6100  12.6100  12.6582  12.6582
    12.9032  12.9032  13.0106  13.0106  13.4424  13.4424  13.8432  13.8432
    15.1848  15.1848  15.7310  15.7310  16.2143  16.2143  16.5112  16.5112
    16.8949  16.8949  17.1598  17.1599  17.9368  17.9368

          k = 0.0000-0.4759 0.0000 ( 62530 PWs)   bands (ev):

   -66.0161 -66.0160 -66.0152 -66.0151 -66.0151 -66.0151 -66.0142 -66.0141
   -30.4446 -30.4445 -30.4413 -30.4412 -30.4406 -30.4404 -30.4374 -30.4373
   -30.3594 -30.3586 -30.3543 -30.3531 -30.3531 -30.3524 -30.3484 -30.3472
   -30.2606 -30.2592 -30.2563 -30.2554 -30.2542 -30.2531 -30.2494 -30.2487
   -20.1668 -20.1667 -20.1665 -20.1664 -20.1664 -20.1664 -20.1661 -20.1660
   -20.1590 -20.1589 -20.1588 -20.1587 -20.1585 -20.1585 -20.1584 -20.1583
   -20.1562 -20.1559 -20.1559 -20.1558 -20.1557 -20.1556 -20.1554 -20.1553
   -20.1529 -20.1528 -20.1528 -20.1528 -20.1525 -20.1524 -20.1523 -20.1522
   -20.1388 -20.1388 -20.1384 -20.1384 -20.1384 -20.1383 -20.1379 -20.1379
   -20.1005 -20.1004 -20.1000 -20.1000 -20.0990 -20.0987 -20.0986 -20.0985
   -20.0949 -20.0945 -20.0945 -20.0944 -20.0934 -20.0932 -20.0928 -20.0928
    -9.7587  -9.7586  -9.3226  -9.3210  -9.3073  -9.3059  -9.0175  -9.0175
    -8.5456  -8.5456  -8.4877  -8.4871  -8.4863  -8.4857  -8.4853  -8.4853
    -7.7451  -7.7436  -7.7308  -7.7294  -7.6106  -7.6095  -7.5969  -7.5960
     1.2339   1.2341   1.3225   1.3263   1.3331   1.3367   1.6340   1.6341
     2.4732   2.4733   3.1224   3.1243   3.1807   3.1837   3.2344   3.2388
     3.2537   3.2549   3.2818   3.2889   3.4270   3.4357   3.4703   3.4761
     3.6350   3.6350   4.8506   4.8523   4.8575   4.8590   5.1646   5.1727
     5.1737   5.1813   5.2799   5.2806   5.2839   5.2845   5.7543   5.7573
     5.7575   5.7605   6.0069   6.0087   6.0352   6.0363   6.1726   6.1785
     6.1899   6.1987   6.2499   6.2521   6.6901   6.6925   6.7131   6.7156
     6.9288   6.9289   7.3655   7.3683   7.3834   7.3854   7.4423   7.4426
     7.4550   7.4554   7.5126   7.5133   7.5162   7.5166   7.8770   7.8770
     9.3441   9.3441  11.2359  11.2436  11.2521  11.2599  11.3186  11.3248
    11.3383  11.3446  12.4038  12.4087  12.4298  12.4346  13.0293  13.0294
    13.5645  13.5686  13.5919  13.5956  13.6190  13.6208  13.6237  13.6256
    15.3420  15.3434  15.4510  15.4522  15.7051  15.7070  15.7259  15.7277
    16.5175  16.5175  17.8001  17.8002  18.1238  18.1241

          k = 0.0000-0.4759 0.1666 ( 62506 PWs)   bands (ev):

   -66.0160 -66.0160 -66.0152 -66.0151 -66.0151 -66.0150 -66.0143 -66.0142
   -30.4444 -30.4444 -30.4415 -30.4410 -30.4409 -30.4403 -30.4377 -30.4376
   -30.3581 -30.3535 -30.3528 -30.3521 -30.3478 -30.3476 -30.3467 -30.3417
   -30.2672 -30.2629 -30.2610 -30.2589 -30.2574 -30.2542 -30.2528 -30.2490
   -20.1668 -20.1667 -20.1665 -20.1665 -20.1664 -20.1664 -20.1662 -20.1661
   -20.1589 -20.1589 -20.1588 -20.1587 -20.1585 -20.1585 -20.1584 -20.1583
   -20.1561 -20.1558 -20.1557 -20.1557 -20.1556 -20.1556 -20.1554 -20.1552
   -20.1531 -20.1530 -20.1530 -20.1530 -20.1524 -20.1524 -20.1524 -20.1522
   -20.1388 -20.1387 -20.1384 -20.1384 -20.1383 -20.1382 -20.1379 -20.1379
   -20.1002 -20.1002 -20.0999 -20.0997 -20.0988 -20.0987 -20.0986 -20.0983
   -20.0953 -20.0949 -20.0944 -20.0942 -20.0938 -20.0935 -20.0930 -20.0929
    -9.7074  -9.7058  -9.3361  -9.3212  -9.2378  -9.2228  -8.9774  -8.9759
    -8.5514  -8.5513  -8.4933  -8.4917  -8.4838  -8.4837  -8.4797  -8.4783
    -7.8672  -7.8531  -7.7411  -7.7377  -7.7239  -7.7202  -7.6182  -7.6046
     1.3188   1.3264   1.3317   1.3423   1.5800   1.5906   1.8031   1.8101
     2.5621   2.5624   3.1277   3.1374   3.1872   3.1938   3.2277   3.2514
     3.2517   3.2810   3.2892   3.3264   3.4307   3.4719   3.4874   3.5191
     3.6649   3.6662   4.4621   4.4638   4.8688   4.9004   4.9276   4.9630
     5.0837   5.0846   5.1588   5.1626   5.2940   5.2973   5.4827   5.4905
     5.7304   5.7320   5.7916   5.7951   6.1100   6.1417   6.1443   6.1464
     6.3600   6.3664   6.4161   6.4500   6.6798   6.7029   6.8693   6.8910
     6.9885   6.9929   7.1409   7.1540   7.1856   7.2088   7.4290   7.4409
     7.4522   7.4618   7.4794   7.4891   7.4973   7.5046   7.8763   7.8765
     9.6992   9.7040  11.2482  11.2641  11.3192  11.3319  11.3696  11.3791
    11.4415  11.4595  12.3010  12.3242  12.4606  12.4851  13.0508  13.0516
    13.3890  13.3964  13.4816  13.4939  13.5944  13.6066  13.6157  13.6209
    15.3894  15.4093  15.5841  15.6014  15.6878  15.7097  15.9878  16.0053
    16.5839  16.5850  17.7682  17.7741  17.8439  17.8442

          k = 0.0000-0.4759 0.3333 ( 62470 PWs)   bands (ev):

   -66.0159 -66.0158 -66.0154 -66.0153 -66.0149 -66.0148 -66.0144 -66.0144
   -30.4440 -30.4438 -30.4423 -30.4417 -30.4405 -30.4400 -30.4385 -30.4383
   -30.3570 -30.3544 -30.3512 -30.3485 -30.3347 -30.3299 -30.3286 -30.3236
   -30.2854 -30.2809 -30.2792 -30.2746 -30.2581 -30.2559 -30.2520 -30.2498
   -20.1668 -20.1667 -20.1666 -20.1665 -20.1664 -20.1663 -20.1662 -20.1662
   -20.1588 -20.1588 -20.1587 -20.1587 -20.1586 -20.1585 -20.1585 -20.1584
   -20.1557 -20.1557 -20.1556 -20.1555 -20.1551 -20.1551 -20.1550 -20.1549
   -20.1537 -20.1536 -20.1536 -20.1535 -20.1524 -20.1524 -20.1524 -20.1523
   -20.1387 -20.1386 -20.1385 -20.1384 -20.1382 -20.1381 -20.1380 -20.1379
   -20.0999 -20.0997 -20.0992 -20.0991 -20.0989 -20.0988 -20.0977 -20.0973
   -20.0964 -20.0960 -20.0949 -20.0945 -20.0941 -20.0940 -20.0933 -20.0932
    -9.5864  -9.5799  -9.3826  -9.3686  -9.0044  -8.9911  -8.8423  -8.8372
    -8.5833  -8.5823  -8.5144  -8.5130  -8.4733  -8.4729  -8.4513  -8.4487
    -8.1625  -8.1492  -8.0570  -8.0439  -7.7088  -7.6952  -7.6421  -7.6285
     1.3455   1.3570   1.3669   1.3792   2.2628   2.2724   2.4450   2.4543
     2.8198   2.8203   3.1314   3.1621   3.1932   3.2146   3.2152   3.2473
     3.2556   3.2627   3.3688   3.3996   3.4238   3.4622   3.6588   3.6686
     3.7412   3.7444   3.8491   3.8544   4.4414   4.4416   4.6023   4.6065
     4.7711   4.7863   4.8437   4.8586   5.1884   5.1973   5.2058   5.2085
     5.3462   5.3548   5.6514   5.6539   6.2017   6.2049   6.2465   6.2842
     6.4976   6.5083   6.6243   6.6670   6.6748   6.7026   6.8279   6.8538
     7.0049   7.0182   7.1487   7.1651   7.1656   7.1751   7.4059   7.4219
     7.4385   7.4500   7.4728   7.4761   7.4843   7.4853   7.8062   7.8066
    10.4334  10.4431  11.2620  11.2769  11.3031  11.3183  11.7409  11.7512
    11.7904  11.8059  11.9076  11.9253  12.6288  12.6490  12.8058  12.8075
    12.9177  12.9254  13.2409  13.2541  13.5937  13.5939  13.6106  13.6173
    15.4306  15.4524  15.6275  15.6487  16.1637  16.1796  16.7216  16.7331
    16.8299  16.8344  17.2628  17.2632  17.9428  17.9627

          k = 0.0000-0.4759-0.4999 ( 62524 PWs)   bands (ev):

   -66.0156 -66.0156 -66.0156 -66.0156 -66.0147 -66.0147 -66.0146 -66.0146
   -30.4432 -30.4432 -30.4428 -30.4428 -30.4395 -30.4395 -30.4392 -30.4392
   -30.3557 -30.3557 -30.3499 -30.3499 -30.3101 -30.3101 -30.3054 -30.3054
   -30.3039 -30.3039 -30.2991 -30.2991 -30.2570 -30.2570 -30.2509 -30.2509
   -20.1667 -20.1667 -20.1666 -20.1666 -20.1664 -20.1664 -20.1663 -20.1663
   -20.1588 -20.1588 -20.1587 -20.1587 -20.1586 -20.1586 -20.1584 -20.1584
   -20.1557 -20.1557 -20.1556 -20.1556 -20.1544 -20.1544 -20.1544 -20.1543
   -20.1543 -20.1543 -20.1542 -20.1542 -20.1524 -20.1524 -20.1524 -20.1523
   -20.1386 -20.1386 -20.1385 -20.1385 -20.1381 -20.1381 -20.1380 -20.1380
   -20.0995 -20.0995 -20.0993 -20.0993 -20.0978 -20.0978 -20.0975 -20.0974
   -20.0963 -20.0963 -20.0959 -20.0959 -20.0937 -20.0937 -20.0936 -20.0936
    -9.4656  -9.4656  -9.4541  -9.4541  -8.7208  -8.7208  -8.7122  -8.7121
    -8.6195  -8.6195  -8.6139  -8.6139  -8.4211  -8.4211  -8.4109  -8.4109
    -8.3507  -8.3506  -8.3396  -8.3396  -7.6752  -7.6751  -7.6615  -7.6615
     1.3618   1.3618   1.3742   1.3742   3.0093   3.0093   3.0446   3.0447
     3.1419   3.1419   3.1529   3.1529   3.2055   3.2055   3.2114   3.2114
     3.2925   3.2925   3.3061   3.3061   3.4417   3.4417   3.4700   3.4701
     3.5638   3.5638   3.6381   3.6381   4.2648   4.2648   4.2816   4.2816
     4.3651   4.3651   4.3920   4.3920   5.1793   5.1793   5.1890   5.1890
     5.4927   5.4927   5.5072   5.5072   6.3379   6.3379   6.3422   6.3422
     6.5053   6.5053   6.5225   6.5225   6.6052   6.6052   6.6247   6.6247
     7.2656   7.2656   7.2795   7.2795   7.3211   7.3211   7.3715   7.3715
     7.4312   7.4312   7.4566   7.4566   7.5951   7.5951   7.6013   7.6013
    11.1916  11.1916  11.2046  11.2046  11.3239  11.3239  11.3309  11.3309
    12.2798  12.2798  12.2928  12.2928  12.3208  12.3208  12.3289  12.3289
    12.9236  12.9236  12.9388  12.9388  13.5978  13.5978  13.6049  13.6049
    15.5303  15.5303  15.5527  15.5527  16.7461  16.7461  16.7642  16.7642
    17.4005  17.4005  17.4166  17.4166  17.5497  17.5498

          k = 0.1667 0.0000 0.0000 ( 62509 PWs)   bands (ev):

   -66.0162 -66.0158 -66.0154 -66.0153 -66.0150 -66.0148 -66.0144 -66.0140
   -30.4753 -30.4719 -30.4715 -30.4683 -30.4137 -30.4103 -30.4100 -30.4067
   -30.3596 -30.3549 -30.3535 -30.3510 -30.3483 -30.3469 -30.3450 -30.3400
   -30.2662 -30.2622 -30.2605 -30.2596 -30.2566 -30.2550 -30.2536 -30.2496
   -20.1695 -20.1692 -20.1692 -20.1689 -20.1640 -20.1637 -20.1636 -20.1632
   -20.1591 -20.1589 -20.1588 -20.1587 -20.1585 -20.1585 -20.1584 -20.1583
   -20.1566 -20.1563 -20.1561 -20.1559 -20.1554 -20.1552 -20.1548 -20.1547
   -20.1534 -20.1534 -20.1533 -20.1531 -20.1522 -20.1521 -20.1521 -20.1519
   -20.1388 -20.1387 -20.1384 -20.1384 -20.1383 -20.1383 -20.1380 -20.1379
   -20.1004 -20.1002 -20.0997 -20.0997 -20.0991 -20.0987 -20.0983 -20.0981
   -20.0949 -20.0948 -20.0948 -20.0944 -20.0935 -20.0934 -20.0932 -20.0930
    -9.9049  -9.5935  -9.5469  -9.4742  -9.2433  -9.1485  -9.1382  -8.9881
    -8.9690  -8.9026  -8.8878  -8.8478  -7.8979  -7.8641  -7.8564  -7.8311
    -7.8186  -7.7789  -7.7479  -7.7398  -7.7230  -7.7120  -7.6258  -7.5983
     1.2969   1.2987   1.3211   1.3347   1.4177   1.4506   1.5629   1.5820
     1.5914   1.6997   1.8228   1.9711   2.5184   2.5566   2.6052   2.6345
     2.6858   2.7816   4.0941   4.1735   4.3705   4.3728   4.4109   4.4876
     4.6109   4.7407   4.7836   4.8990   4.9150   4.9723   5.0437   5.3087
     5.3307   5.4027   5.4673   5.5248   5.5475   5.5750   5.5985   5.6110
     5.7453   5.7565   5.8069   5.8930   5.9630   6.0689   6.1317   6.1363
     6.2921   6.4285   6.4951   6.5002   6.6615   6.6926   6.7594   6.7888
     6.8309   6.8427   6.9518   6.9805   7.0131   7.0741   7.1503   7.1611
     7.1901   7.2444   7.8700   7.8747   8.0114   8.0740   8.0771   8.1263
     9.6806   9.7069   9.9569   9.9752  10.2210  10.2619  12.2763  12.2953
    12.3423  12.3925  12.4278  12.4619  12.5482  12.6474  12.9428  13.0126
    13.1317  13.2376  13.3205  13.3889  13.9177  14.0342  14.1099  14.1676
    14.2112  14.4356  14.5700  14.8791  15.4864  15.5075  15.5143  16.0744
    16.4258  16.7680  17.0425  17.2729  17.3417  17.4140

          k = 0.1667 0.0000 0.1666 ( 62484 PWs)   bands (ev):

   -66.0162 -66.0157 -66.0153 -66.0153 -66.0149 -66.0149 -66.0145 -66.0141
   -30.4751 -30.4718 -30.4718 -30.4686 -30.4136 -30.4103 -30.4102 -30.4070
   -30.3536 -30.3512 -30.3484 -30.3472 -30.3461 -30.3444 -30.3415 -30.3403
   -30.2672 -30.2660 -30.2639 -30.2624 -30.2600 -30.2590 -30.2564 -30.2550
   -20.1695 -20.1692 -20.1692 -20.1689 -20.1640 -20.1636 -20.1636 -20.1633
   -20.1590 -20.1588 -20.1588 -20.1587 -20.1585 -20.1585 -20.1584 -20.1583
   -20.1564 -20.1561 -20.1560 -20.1559 -20.1552 -20.1551 -20.1548 -20.1547
   -20.1536 -20.1536 -20.1533 -20.1531 -20.1524 -20.1522 -20.1521 -20.1519
   -20.1388 -20.1386 -20.1384 -20.1384 -20.1383 -20.1382 -20.1380 -20.1379
   -20.1001 -20.0999 -20.0996 -20.0995 -20.0988 -20.0984 -20.0984 -20.0982
   -20.0952 -20.0948 -20.0948 -20.0947 -20.0938 -20.0937 -20.0933 -20.0933
    -9.8577  -9.5348  -9.4900  -9.4898  -9.1571  -9.1538  -9.1518  -8.9469
    -8.9329  -8.8938  -8.8532  -8.8524  -7.9009  -7.8641  -7.8580  -7.8533
    -7.8461  -7.8199  -7.8171  -7.7823  -7.7732  -7.7568  -7.7294  -7.7079
     1.3992   1.4439   1.4444   1.4950   1.4960   1.5559   1.5939   1.5973
     1.6987   1.7022   1.9078   2.0519   2.6048   2.6398   2.6472   2.6994
     2.7588   2.7931   4.0985   4.1019   4.3380   4.3403   4.4741   4.4745
     4.5472   4.5518   4.6372   4.6509   4.7109   4.7730   5.0284   5.2555
     5.2565   5.3283   5.3353   5.4691   5.4759   5.5982   5.6011   5.6684
     5.6697   5.7339   5.7601   5.7665   5.7878   5.9733   6.2804   6.4332
     6.4725   6.4904   6.5447   6.6322   6.6692   6.6726   6.6794   6.7065
     6.7275   6.8148   6.8190   6.8683   6.8733   6.9719   6.9764   7.0752
     7.2836   7.3331   7.8661   7.8663   8.0162   8.0585   8.0727   8.0851
     9.9033   9.9671  10.2113  10.2206  10.2343  10.3218  12.3211  12.3311
    12.3427  12.3559  12.3826  12.4105  12.6277  12.6420  12.9508  12.9887
    13.0507  13.1833  13.1973  13.3830  13.9581  14.0001  14.0367  14.0782
    14.1978  14.5483  14.5623  14.9969  15.4747  15.5773  15.5916  16.3868
    16.3923  16.9294  16.9339  17.1826  17.4286  17.4614

          k = 0.1667 0.0000 0.3333 ( 62515 PWs)   bands (ev):

   -66.0160 -66.0156 -66.0155 -66.0152 -66.0151 -66.0147 -66.0147 -66.0142
   -30.4745 -30.4726 -30.4713 -30.4694 -30.4130 -30.4111 -30.4096 -30.4078
   -30.3509 -30.3482 -30.3439 -30.3415 -30.3344 -30.3304 -30.3279 -30.3235
   -30.2854 -30.2816 -30.2786 -30.2746 -30.2651 -30.2627 -30.2583 -30.2561
   -20.1694 -20.1693 -20.1692 -20.1690 -20.1639 -20.1637 -20.1636 -20.1634
   -20.1589 -20.1588 -20.1587 -20.1587 -20.1585 -20.1585 -20.1585 -20.1584
   -20.1561 -20.1559 -20.1556 -20.1556 -20.1549 -20.1548 -20.1547 -20.1544
   -20.1541 -20.1540 -20.1535 -20.1530 -20.1530 -20.1526 -20.1520 -20.1520
   -20.1387 -20.1386 -20.1385 -20.1383 -20.1383 -20.1381 -20.1380 -20.1379
   -20.0995 -20.0993 -20.0991 -20.0988 -20.0987 -20.0985 -20.0978 -20.0974
   -20.0963 -20.0959 -20.0950 -20.0946 -20.0945 -20.0943 -20.0937 -20.0936
    -9.7440  -9.5384  -9.3979  -9.3600  -9.1938  -9.1859  -8.9006  -8.8970
    -8.8644  -8.8004  -8.7802  -8.7224  -8.1725  -8.1573  -8.1029  -8.0795
    -7.8682  -7.8486  -7.8329  -7.8150  -7.8075  -7.7916  -7.7698  -7.7469
     1.4113   1.4318   1.5082   1.5406   1.6125   1.6284   1.6863   1.7101
     2.2902   2.3275   2.4568   2.5378   2.6662   2.7511   2.8666   2.8855
     2.9795   3.0337   3.8059   3.8466   3.9430   3.9665   4.1155   4.3111
     4.3244   4.4900   4.4970   4.5531   4.5800   4.7417   4.7589   4.9096
     4.9845   5.0300   5.0759   5.2141   5.2561   5.3580   5.5346   5.6392
     5.6809   5.7325   5.7732   5.7954   5.8097   5.9840   6.1353   6.1999
     6.3986   6.4282   6.4707   6.5391   6.5567   6.6527   6.6556   6.6724
     6.7574   6.8541   6.8697   6.8812   7.1199   7.1365   7.1657   7.2176
     7.2985   7.3458   7.7912   7.8071   7.9075   7.9418   8.0690   8.0787
    10.2144  10.2210  10.5389  10.6061  10.8557  10.9644  11.9390  11.9840
    12.1620  12.4681  12.5018  12.5060  12.5787  12.6353  12.7888  12.8808
    12.9348  13.0723  13.1223  13.2930  13.6814  13.7014  14.0048  14.0314
    14.3607  14.5368  14.8616  15.3143  15.3693  15.8501  16.0135  16.2933
    16.3342  17.2484  17.3529  17.4966  17.5781  17.7348

          k = 0.1667 0.0000-0.4999 ( 62496 PWs)   bands (ev):

   -66.0157 -66.0157 -66.0153 -66.0153 -66.0149 -66.0149 -66.0145 -66.0145
   -30.4736 -30.4736 -30.4704 -30.4704 -30.4121 -30.4121 -30.4088 -30.4088
   -30.3495 -30.3495 -30.3426 -30.3426 -30.3100 -30.3100 -30.3060 -30.3060
   -30.3032 -30.3032 -30.2991 -30.2990 -30.2640 -30.2639 -30.2572 -30.2572
   -20.1694 -20.1694 -20.1691 -20.1691 -20.1638 -20.1638 -20.1635 -20.1635
   -20.1588 -20.1588 -20.1586 -20.1586 -20.1586 -20.1586 -20.1584 -20.1584
   -20.1560 -20.1560 -20.1550 -20.1550 -20.1548 -20.1548 -20.1546 -20.1546
   -20.1540 -20.1540 -20.1537 -20.1537 -20.1529 -20.1529 -20.1520 -20.1520
   -20.1386 -20.1386 -20.1384 -20.1384 -20.1382 -20.1381 -20.1380 -20.1380
   -20.0991 -20.0991 -20.0989 -20.0989 -20.0977 -20.0977 -20.0973 -20.0973
   -20.0964 -20.0964 -20.0960 -20.0960 -20.0941 -20.0941 -20.0940 -20.0940
    -9.6245  -9.6245  -9.2719  -9.2719  -9.2475  -9.2475  -8.8809  -8.8809
    -8.5451  -8.5451  -8.5306  -8.5306  -8.4909  -8.4909  -8.4410  -8.4410
    -7.8578  -7.8578  -7.8059  -7.8059  -7.8005  -7.8005  -7.7780  -7.7780
     1.4197   1.4197   1.5251   1.5251   1.6302   1.6302   1.7163   1.7163
     2.6945   2.6945   3.0172   3.0172   3.0946   3.0946   3.2149   3.2149
     3.3127   3.3127   3.4280   3.4280   3.5382   3.5382   3.7931   3.7931
     3.8450   3.8450   4.4084   4.4084   4.5044   4.5044   4.8802   4.8802
     5.0222   5.0222   5.0406   5.0406   5.2246   5.2246   5.6123   5.6123
     5.7678   5.7678   5.7752   5.7752   5.8986   5.8986   5.9538   5.9538
     6.3232   6.3232   6.4099   6.4099   6.6479   6.6479   6.6840   6.6840
     6.8107   6.8107   6.9561   6.9561   7.0151   7.0151   7.5364   7.5364
     7.5856   7.5856   7.6747   7.6747   7.6916   7.6916   8.0782   8.0782
    10.2253  10.2253  11.2697  11.2697  11.3417  11.3417  11.5835  11.5835
    11.7596  11.7596  12.6577  12.6577  12.7065  12.7065  12.7648  12.7648
    12.9410  12.9410  13.2677  13.2677  13.3596  13.3596  14.0156  14.0156
    14.4814  14.4814  15.1696  15.1696  15.7697  15.7697  16.1222  16.1222
    16.7770  16.7770  17.7446  17.7446  17.7842  17.7842

          k = 0.1667 0.1586 0.0000 ( 62526 PWs)   bands (ev):

   -66.0162 -66.0158 -66.0154 -66.0152 -66.0150 -66.0149 -66.0144 -66.0140
   -30.4711 -30.4678 -30.4674 -30.4642 -30.4178 -30.4144 -30.4141 -30.4109
   -30.3595 -30.3549 -30.3537 -30.3509 -30.3484 -30.3468 -30.3452 -30.3401
   -30.2661 -30.2621 -30.2605 -30.2597 -30.2566 -30.2550 -30.2537 -30.2497
   -20.1691 -20.1689 -20.1688 -20.1685 -20.1643 -20.1640 -20.1639 -20.1636
   -20.1591 -20.1589 -20.1588 -20.1587 -20.1585 -20.1585 -20.1584 -20.1583
   -20.1565 -20.1562 -20.1560 -20.1558 -20.1555 -20.1553 -20.1548 -20.1548
   -20.1534 -20.1533 -20.1532 -20.1531 -20.1523 -20.1522 -20.1521 -20.1519
   -20.1388 -20.1387 -20.1384 -20.1384 -20.1383 -20.1383 -20.1380 -20.1379
   -20.1004 -20.1002 -20.0997 -20.0997 -20.0991 -20.0987 -20.0983 -20.0981
   -20.0949 -20.0948 -20.0948 -20.0944 -20.0935 -20.0935 -20.0932 -20.0930
    -9.8721  -9.6054  -9.5068  -9.4289  -9.2512  -9.1461  -9.0731  -8.9853
    -8.9699  -8.8604  -8.8514  -8.8164  -7.9860  -7.9398  -7.9293  -7.8918
    -7.8702  -7.8427  -7.7475  -7.7393  -7.7221  -7.7132  -7.6246  -7.5998
     1.3128   1.3170   1.3229   1.3357   1.5388   1.5815   1.5924   1.7677
     1.8090   1.8239   1.8495   2.0698   2.5251   2.5989   2.6294   2.7093
     2.7564   2.8508   3.9911   4.0473   4.0949   4.1451   4.4080   4.4853
     4.6417   4.6656   4.7928   4.8657   4.8852   4.9137   4.9428   5.2193
     5.2385   5.2793   5.3261   5.4541   5.5551   5.5726   5.6231   5.6804
     5.7286   5.7555   5.8255   5.8564   5.8619   6.1026   6.1296   6.1406
     6.2266   6.4176   6.4691   6.5251   6.6863   6.7534   6.7774   6.7995
     6.8141   6.8768   6.9337   6.9573   6.9834   7.0025   7.1511   7.1614
     7.2009   7.2454   7.8716   7.8747   7.9723   8.0024   8.0209   8.0466
     9.6868   9.7070  10.1570  10.1606  10.3934  10.4099  12.1839  12.2903
    12.2910  12.3313  12.3867  12.4029  12.4352  12.5358  12.9715  13.0124
    13.1516  13.2591  13.3278  13.3917  13.9182  13.9500  14.0716  14.0852
    14.3640  14.6992  14.8574  15.0436  15.4861  15.5139  15.9105  16.0428
    16.3900  16.6721  16.8932  17.3865  17.3996  17.5253

          k = 0.1667 0.1586 0.1666 ( 62517 PWs)   bands (ev):

   -66.0161 -66.0158 -66.0153 -66.0153 -66.0149 -66.0149 -66.0145 -66.0141
   -30.4710 -30.4677 -30.4677 -30.4645 -30.4176 -30.4144 -30.4143 -30.4112
   -30.3534 -30.3513 -30.3483 -30.3472 -30.3462 -30.3446 -30.3416 -30.3404
   -30.2671 -30.2659 -30.2638 -30.2625 -30.2600 -30.2590 -30.2564 -30.2551
   -20.1691 -20.1688 -20.1688 -20.1685 -20.1643 -20.1640 -20.1640 -20.1637
   -20.1590 -20.1588 -20.1588 -20.1587 -20.1585 -20.1585 -20.1584 -20.1583
   -20.1563 -20.1560 -20.1559 -20.1558 -20.1553 -20.1552 -20.1548 -20.1548
   -20.1535 -20.1535 -20.1533 -20.1530 -20.1525 -20.1523 -20.1521 -20.1520
   -20.1388 -20.1387 -20.1384 -20.1384 -20.1383 -20.1382 -20.1380 -20.1379
   -20.1001 -20.0999 -20.0996 -20.0995 -20.0988 -20.0984 -20.0984 -20.0982
   -20.0952 -20.0948 -20.0948 -20.0947 -20.0938 -20.0937 -20.0933 -20.0933
    -9.8233  -9.5468  -9.4451  -9.4448  -9.1619  -9.1599  -9.0817  -8.9459
    -8.9336  -8.8516  -8.8214  -8.8208  -7.9869  -7.9385  -7.9376  -7.8993
    -7.8637  -7.8612  -7.8369  -7.8322  -7.7734  -7.7534  -7.7282  -7.7096
     1.4936   1.4955   1.5396   1.5413   1.5915   1.5949   1.6015   1.7669
     1.8449   1.8475   1.9073   2.1275   2.6140   2.6929   2.7140   2.7223
     2.8325   2.8579   4.0009   4.0202   4.1233   4.1287   4.4589   4.4623
     4.5498   4.5539   4.6406   4.6429   4.6822   4.7214   4.8183   5.1705
     5.2058   5.2339   5.2449   5.3430   5.3702   5.5495   5.5525   5.6064
     5.7475   5.7538   5.7709   5.7864   5.7878   5.8539   6.3025   6.3603
     6.3868   6.4867   6.5375   6.6301   6.6637   6.7074   6.7509   6.7605
     6.7732   6.8109   6.8495   6.8587   6.9367   6.9497   6.9626   7.0823
     7.2866   7.3317   7.8659   7.8668   7.9631   8.0018   8.0054   8.0103
     9.9233   9.9667  10.3673  10.3905  10.4015  10.4601  12.2432  12.2808
    12.3324  12.3355  12.3534  12.3615  12.4895  12.5003  12.9830  13.0049
    13.0629  13.1833  13.2015  13.3870  13.9058  13.9142  13.9344  13.9937
    14.4698  14.8462  14.8520  15.1444  15.5782  15.5901  15.8793  16.3539
    16.3582  16.7927  17.0334  17.0360  17.4731  17.5957

          k = 0.1667 0.1586 0.3333 ( 62522 PWs)   bands (ev):

   -66.0160 -66.0156 -66.0155 -66.0151 -66.0151 -66.0147 -66.0146 -66.0143
   -30.4704 -30.4685 -30.4671 -30.4653 -30.4171 -30.4152 -30.4138 -30.4119
   -30.3508 -30.3482 -30.3441 -30.3416 -30.3344 -30.3304 -30.3280 -30.3236
   -30.2853 -30.2815 -30.2786 -30.2747 -30.2650 -30.2626 -30.2584 -30.2562
   -20.1691 -20.1689 -20.1688 -20.1686 -20.1643 -20.1641 -20.1640 -20.1638
   -20.1589 -20.1587 -20.1587 -20.1587 -20.1586 -20.1585 -20.1585 -20.1584
   -20.1561 -20.1559 -20.1555 -20.1555 -20.1550 -20.1549 -20.1547 -20.1545
   -20.1540 -20.1540 -20.1535 -20.1531 -20.1530 -20.1526 -20.1521 -20.1520
   -20.1387 -20.1386 -20.1384 -20.1384 -20.1383 -20.1381 -20.1380 -20.1379
   -20.0995 -20.0993 -20.0991 -20.0988 -20.0987 -20.0985 -20.0978 -20.0974
   -20.0963 -20.0959 -20.0950 -20.0946 -20.0945 -20.0943 -20.0937 -20.0936
    -9.7057  -9.4943  -9.4096  -9.3015  -9.2026  -9.1112  -8.9079  -8.8730
    -8.8325  -8.8014  -8.7664  -8.7043  -8.1760  -8.1599  -8.1220  -8.0787
    -7.9548  -7.9391  -7.9177  -7.8897  -7.8363  -7.8106  -7.7706  -7.7469
     1.5464   1.5600   1.6125   1.6286   1.7249   1.7317   1.8109   1.8473
     2.2891   2.3365   2.4585   2.5513   2.7399   2.8172   2.8859   2.9606
     2.9764   3.0902   3.8084   3.8524   3.9192   3.9354   4.1200   4.1571
     4.2191   4.3395   4.5139   4.5722   4.6076   4.6826   4.7290   4.7609
     4.8643   4.9119   4.9512   5.1208   5.1849   5.2411   5.2959   5.5857
     5.6044   5.6333   5.7367   5.7939   5.8126   5.8248   6.1412   6.1975
     6.3490   6.4842   6.5273   6.6021   6.6642   6.6748   6.6998   6.7574
     6.8110   6.8618   6.8897   6.9272   7.1137   7.1316   7.1609   7.2223
     7.2923   7.3416   7.7912   7.8038   7.8634   7.8855   8.0039   8.0081
    10.3599  10.3894  10.5602  10.6144  10.9716  11.0537  11.9399  11.9813
    12.1404  12.4555  12.4748  12.4935  12.5147  12.5480  12.7122  12.7606
    12.9565  13.0749  13.0998  13.2941  13.5718  13.6022  13.9208  13.9467
    14.6771  14.8311  15.2120  15.4318  15.7745  15.8453  16.0233  16.2648
    16.4385  17.1642  17.2083  17.4106  17.5396  17.6670

          k = 0.1667 0.1586-0.4999 ( 62500 PWs)   bands (ev):

   -66.0157 -66.0157 -66.0153 -66.0153 -66.0149 -66.0149 -66.0145 -66.0145
   -30.4695 -30.4695 -30.4663 -30.4663 -30.4162 -30.4162 -30.4129 -30.4129
   -30.3495 -30.3495 -30.3428 -30.3428 -30.3100 -30.3100 -30.3060 -30.3060
   -30.3033 -30.3033 -30.2991 -30.2991 -30.2639 -30.2639 -30.2573 -30.2573
   -20.1690 -20.1690 -20.1687 -20.1687 -20.1642 -20.1642 -20.1639 -20.1639
   -20.1588 -20.1588 -20.1586 -20.1586 -20.1586 -20.1586 -20.1584 -20.1584
   -20.1559 -20.1559 -20.1550 -20.1550 -20.1548 -20.1548 -20.1546 -20.1546
   -20.1541 -20.1541 -20.1538 -20.1538 -20.1529 -20.1529 -20.1521 -20.1521
   -20.1386 -20.1385 -20.1384 -20.1384 -20.1382 -20.1381 -20.1380 -20.1380
   -20.0991 -20.0991 -20.0989 -20.0989 -20.0977 -20.0977 -20.0973 -20.0973
   -20.0964 -20.0964 -20.0960 -20.0960 -20.0941 -20.0941 -20.0940 -20.0940
    -9.5825  -9.5825  -9.2821  -9.2821  -9.1767  -9.1767  -8.8491  -8.8491
    -8.5493  -8.5493  -8.5341  -8.5341  -8.4920  -8.4920  -8.4362  -8.4362
    -7.9501  -7.9501  -7.9076  -7.9076  -7.8035  -7.8035  -7.7787  -7.7787
     1.5542   1.5542   1.6303   1.6303   1.7362   1.7362   1.8458   1.8458
     2.7645   2.7645   3.0363   3.0363   3.1173   3.1173   3.2281   3.2281
     3.3159   3.3159   3.4327   3.4327   3.5296   3.5296   3.7997   3.7997
     3.8927   3.8927   4.2448   4.2448   4.5098   4.5098   4.6561   4.6561
     4.9081   4.9081   5.0139   5.0139   5.0801   5.0801   5.4141   5.4141
     5.6672   5.6672   5.7284   5.7284   5.8546   5.8546   5.8999   5.8999
     6.4497   6.4497   6.5860   6.5860   6.6222   6.6222   6.7335   6.7335
     6.8836   6.8836   6.9208   6.9208   7.0390   7.0390   7.5344   7.5344
     7.5795   7.5795   7.6468   7.6468   7.6654   7.6654   8.0087   8.0087
    10.3902  10.3902  11.2769  11.2769  11.3412  11.3412  11.6522  11.6522
    11.8203  11.8203  12.5152  12.5152  12.6956  12.6956  12.7501  12.7501
    12.9264  12.9264  13.1606  13.1606  13.2932  13.2932  13.9291  13.9291
    14.7855  14.7855  15.5472  15.5472  15.8910  15.8910  16.1005  16.1005
    16.8095  16.8095  17.5590  17.5590  17.8017  17.8017

          k = 0.1667 0.3173 0.0000 ( 62505 PWs)   bands (ev):

   -66.0161 -66.0159 -66.0153 -66.0152 -66.0151 -66.0149 -66.0143 -66.0141
   -30.4598 -30.4565 -30.4562 -30.4530 -30.4290 -30.4257 -30.4254 -30.4222
   -30.3592 -30.3548 -30.3540 -30.3507 -30.3486 -30.3466 -30.3456 -30.3404
   -30.2660 -30.2619 -30.2603 -30.2599 -30.2566 -30.2551 -30.2538 -30.2499
   -20.1681 -20.1679 -20.1678 -20.1675 -20.1654 -20.1651 -20.1650 -20.1647
   -20.1590 -20.1588 -20.1588 -20.1586 -20.1586 -20.1585 -20.1584 -20.1583
   -20.1563 -20.1561 -20.1559 -20.1556 -20.1556 -20.1555 -20.1550 -20.1550
   -20.1531 -20.1531 -20.1530 -20.1529 -20.1525 -20.1524 -20.1524 -20.1522
   -20.1388 -20.1387 -20.1384 -20.1384 -20.1383 -20.1383 -20.1379 -20.1379
   -20.1004 -20.1002 -20.0997 -20.0997 -20.0991 -20.0987 -20.0983 -20.0981
   -20.0949 -20.0948 -20.0948 -20.0944 -20.0935 -20.0934 -20.0932 -20.0930
    -9.7927  -9.6424  -9.4155  -9.3247  -9.2773  -9.1727  -8.9809  -8.9725
    -8.8596  -8.7258  -8.7231  -8.7034  -8.2332  -8.1941  -8.1843  -8.1690
    -7.8681  -7.8489  -7.7441  -7.7379  -7.7238  -7.7172  -7.6215  -7.6033
     1.3161   1.3238   1.3267   1.3378   1.5785   1.5927   1.7713   1.8190
     2.3362   2.4564   2.4782   2.5409   2.5832   2.6299   2.8462   2.9350
     2.9647   3.0606   3.6199   3.6559   3.6752   3.7211   4.1166   4.4020
     4.4406   4.4598   4.5128   4.7136   4.7233   4.8309   4.8836   4.9120
     5.0022   5.0415   5.1408   5.2895   5.3761   5.4441   5.5646   5.6327
     5.6742   5.7863   5.7983   5.8463   6.0542   6.1047   6.1403   6.1550
     6.2171   6.4128   6.4457   6.5617   6.5943   6.8194   6.8367   6.9004
     6.9429   6.9620   7.0509   7.0538   7.0787   7.0806   7.1574   7.1645
     7.2288   7.2552   7.7791   7.8042   7.8098   7.8266   7.8778   7.8799
     9.6957   9.7061  10.6359  10.6772  10.8202  10.8504  11.8173  11.9191
    11.9492  12.0285  12.3011  12.3287  12.4492  12.4853  13.0233  13.0334
    13.2269  13.3328  13.3947  13.4537  13.6854  13.7301  13.8388  13.8615
    14.9286  15.2599  15.4552  15.5110  15.5149  15.6710  15.9306  16.0952
    16.2673  16.9144  17.2650  17.3090  17.5699  17.7996

          k = 0.1667 0.3173 0.1666 ( 62494 PWs)   bands (ev):

   -66.0161 -66.0158 -66.0152 -66.0152 -66.0150 -66.0150 -66.0144 -66.0142
   -30.4597 -30.4565 -30.4564 -30.4533 -30.4288 -30.4257 -30.4256 -30.4225
   -30.3529 -30.3515 -30.3482 -30.3470 -30.3461 -30.3451 -30.3418 -30.3407
   -30.2670 -30.2657 -30.2636 -30.2626 -30.2602 -30.2592 -30.2564 -30.2554
   -20.1681 -20.1678 -20.1678 -20.1675 -20.1654 -20.1651 -20.1650 -20.1647
   -20.1590 -20.1588 -20.1588 -20.1587 -20.1585 -20.1585 -20.1584 -20.1583
   -20.1561 -20.1559 -20.1557 -20.1556 -20.1554 -20.1554 -20.1550 -20.1549
   -20.1533 -20.1533 -20.1531 -20.1529 -20.1527 -20.1525 -20.1524 -20.1522
   -20.1388 -20.1387 -20.1384 -20.1384 -20.1383 -20.1382 -20.1380 -20.1379
   -20.1001 -20.0999 -20.0996 -20.0995 -20.0988 -20.0984 -20.0984 -20.0982
   -20.0952 -20.0948 -20.0948 -20.0947 -20.0938 -20.0937 -20.0933 -20.0933
    -9.7401  -9.5844  -9.3416  -9.3408  -9.1890  -9.1872  -8.9433  -8.9363
    -8.8680  -8.7165  -8.7079  -8.7075  -8.2347  -8.1912  -8.1905  -8.1742
    -7.8619  -7.8582  -7.8426  -7.8383  -7.7697  -7.7578  -7.7247  -7.7138
     1.4941   1.4950   1.5810   1.5839   1.5956   1.5987   1.8420   1.9033
     2.3381   2.4572   2.4597   2.6094   2.6328   2.6880   2.9388   2.9507
     3.0532   3.0596   3.6615   3.6680   3.6860   3.7357   4.1091   4.4242
     4.4281   4.4872   4.4921   4.5697   4.5759   4.6983   4.7055   4.7912
     4.8375   4.8450   5.0862   5.1218   5.3608   5.3756   5.3768   5.4120
     5.6308   5.6472   5.7666   5.7690   5.8244   5.8271   6.3768   6.3851
     6.4047   6.4845   6.5209   6.6145   6.7360   6.7397   6.8236   6.8289
     6.9013   6.9045   6.9688   6.9891   7.0683   7.0763   7.0862   7.1214
     7.3046   7.3338   7.7777   7.7813   7.7900   7.8155   7.8694   7.8776
     9.9468   9.9640  10.7894  10.8343  10.8504  10.8712  11.8925  11.9382
    12.0202  12.0307  12.3481  12.3514  12.3864  12.3891  13.0228  13.0498
    13.1803  13.2321  13.2534  13.4252  13.6658  13.6757  13.6920  13.7801
    15.0848  15.4707  15.4784  15.5858  15.5877  15.7312  16.2132  16.2371
    16.2413  16.8799  17.3309  17.3651  17.3864  17.6312

          k = 0.1667 0.3173 0.3333 ( 62515 PWs)   bands (ev):

   -66.0159 -66.0157 -66.0154 -66.0152 -66.0150 -66.0148 -66.0146 -66.0143
   -30.4591 -30.4573 -30.4559 -30.4541 -30.4283 -30.4264 -30.4251 -30.4232
   -30.3506 -30.3480 -30.3444 -30.3419 -30.3343 -30.3303 -30.3282 -30.3238
   -30.2851 -30.2813 -30.2788 -30.2749 -30.2649 -30.2625 -30.2585 -30.2563
   -20.1681 -20.1679 -20.1678 -20.1676 -20.1653 -20.1651 -20.1650 -20.1648
   -20.1589 -20.1588 -20.1587 -20.1587 -20.1586 -20.1585 -20.1585 -20.1584
   -20.1558 -20.1557 -20.1554 -20.1553 -20.1552 -20.1551 -20.1549 -20.1547
   -20.1539 -20.1538 -20.1535 -20.1533 -20.1529 -20.1527 -20.1523 -20.1523
   -20.1387 -20.1386 -20.1384 -20.1384 -20.1383 -20.1382 -20.1380 -20.1379
   -20.0995 -20.0993 -20.0991 -20.0988 -20.0987 -20.0985 -20.0978 -20.0974
   -20.0963 -20.0959 -20.0950 -20.0946 -20.0945 -20.0943 -20.0937 -20.0936
    -9.6132  -9.4472  -9.3913  -9.2323  -9.1561  -8.9390  -8.9002  -8.8310
    -8.8049  -8.7200  -8.6805  -8.6325  -8.2793  -8.2489  -8.1877  -8.1807
    -8.1570  -8.1052  -8.0729  -8.0276  -7.8338  -7.8153  -7.7680  -7.7502
     1.5980   1.6137   1.6165   1.6308   2.1901   2.2692   2.2844   2.3536
     2.4507   2.4674   2.4999   2.6962   2.9021   2.9569   2.9695   3.0443
     3.1909   3.2799   3.6494   3.6643   3.7236   3.7734   3.9031   3.9720
     4.0895   4.2557   4.3497   4.3856   4.4541   4.5392   4.5935   4.6414
     4.7066   4.7445   4.8009   4.8321   4.8991   4.9743   5.1102   5.1477
     5.3069   5.3241   5.4132   5.5966   5.7945   5.8362   6.1796   6.1981
     6.5264   6.5907   6.6246   6.7167   6.7889   6.8027   6.9101   6.9403
     6.9800   7.0056   7.0244   7.0524   7.1322   7.1600   7.1812   7.2505
     7.2802   7.3311   7.7023   7.7069   7.7677   7.7933   7.8039   7.8396
    10.5470  10.5796  10.8397  10.8558  11.2939  11.3340  11.8900  11.9430
    11.9619  12.0904  12.2050  12.2532  12.5117  12.5909  12.6691  12.6955
    12.9449  13.0868  13.1225  13.3261  13.3412  13.3901  13.6821  13.7246
    15.3096  15.4534  15.8073  15.9172  16.0154  16.0889  16.1654  16.6491
    16.7589  16.7795  17.0765  17.5497  17.5924  17.6715

          k = 0.1667 0.3173-0.4999 ( 62502 PWs)   bands (ev):

   -66.0156 -66.0156 -66.0154 -66.0154 -66.0148 -66.0148 -66.0146 -66.0146
   -30.4582 -30.4582 -30.4550 -30.4550 -30.4274 -30.4274 -30.4242 -30.4242
   -30.3493 -30.3493 -30.3431 -30.3431 -30.3098 -30.3098 -30.3058 -30.3058
   -30.3035 -30.3035 -30.2993 -30.2993 -30.2637 -30.2637 -30.2574 -30.2574
   -20.1680 -20.1680 -20.1677 -20.1677 -20.1652 -20.1652 -20.1649 -20.1649
   -20.1588 -20.1588 -20.1587 -20.1587 -20.1586 -20.1586 -20.1584 -20.1584
   -20.1557 -20.1557 -20.1551 -20.1551 -20.1546 -20.1546 -20.1545 -20.1545
   -20.1541 -20.1541 -20.1540 -20.1540 -20.1528 -20.1528 -20.1523 -20.1523
   -20.1385 -20.1385 -20.1385 -20.1385 -20.1381 -20.1381 -20.1380 -20.1380
   -20.0991 -20.0991 -20.0989 -20.0989 -20.0977 -20.0977 -20.0973 -20.0973
   -20.0964 -20.0964 -20.0960 -20.0960 -20.0941 -20.0941 -20.0940 -20.0940
    -9.4824  -9.4824  -9.3159  -9.3159  -8.9817  -8.9817  -8.7457  -8.7457
    -8.5831  -8.5831  -8.5477  -8.5477  -8.4853  -8.4852  -8.4166  -8.4165
    -8.1821  -8.1821  -8.1489  -8.1489  -7.8009  -7.8009  -7.7826  -7.7826
     1.6150   1.6150   1.6318   1.6318   2.3405   2.3405   2.4540   2.4540
     2.9637   2.9637   3.0917   3.0918   3.1276   3.1276   3.2833   3.2833
     3.3237   3.3237   3.4521   3.4521   3.4939   3.4939   3.6896   3.6896
     4.0307   4.0307   4.0653   4.0653   4.1030   4.1030   4.3410   4.3410
     4.7052   4.7052   4.7843   4.7843   4.9587   4.9587   5.0063   5.0063
     5.1247   5.1247   5.4916   5.4916   5.8978   5.8978   5.9103   5.9103
     6.6479   6.6479   6.7551   6.7551   6.8178   6.8178   6.8494   6.8494
     6.9990   6.9990   7.0429   7.0429   7.1559   7.1559   7.5009   7.5009
     7.5375   7.5376   7.5720   7.5720   7.6092   7.6092   7.8056   7.8056
    10.8248  10.8248  11.2917  11.2917  11.3408  11.3409  11.7811  11.7811
    12.0096  12.0096  12.1882  12.1882  12.5954  12.5954  12.6316  12.6316
    12.8437  12.8437  12.9567  12.9567  13.2795  13.2795  13.6965  13.6965
    15.4049  15.4049  16.0105  16.0105  16.2841  16.2841  16.4979  16.4979
    16.9536  16.9536  17.2012  17.2012  17.7931  17.7931

          k = 0.1667-0.4759 0.0000 ( 62522 PWs)   bands (ev):

   -66.0160 -66.0160 -66.0152 -66.0151 -66.0151 -66.0150 -66.0143 -66.0142
   -30.4445 -30.4443 -30.4415 -30.4411 -30.4407 -30.4405 -30.4376 -30.4376
   -30.3591 -30.3547 -30.3542 -30.3505 -30.3487 -30.3465 -30.3458 -30.3406
   -30.2659 -30.2618 -30.2603 -30.2600 -30.2566 -30.2551 -30.2539 -30.2499
   -20.1668 -20.1667 -20.1665 -20.1664 -20.1664 -20.1664 -20.1661 -20.1661
   -20.1590 -20.1589 -20.1588 -20.1586 -20.1586 -20.1585 -20.1584 -20.1583
   -20.1562 -20.1559 -20.1559 -20.1558 -20.1555 -20.1554 -20.1552 -20.1551
   -20.1529 -20.1529 -20.1529 -20.1528 -20.1526 -20.1526 -20.1526 -20.1523
   -20.1388 -20.1387 -20.1384 -20.1383 -20.1383 -20.1383 -20.1379 -20.1379
   -20.1004 -20.1002 -20.0997 -20.0997 -20.0991 -20.0987 -20.0983 -20.0981
   -20.0949 -20.0948 -20.0948 -20.0944 -20.0935 -20.0935 -20.0932 -20.0930
    -9.7077  -9.7059  -9.3377  -9.3226  -9.2363  -9.2215  -8.9772  -8.9758
    -8.5514  -8.5514  -8.4933  -8.4918  -8.4835  -8.4834  -8.4798  -8.4785
    -7.8657  -7.8518  -7.7403  -7.7389  -7.7230  -7.7212  -7.6193  -7.6056
     1.3164   1.3243   1.3280   1.3387   1.5831   1.5936   1.8054   1.8124
     2.5621   2.5622   3.1238   3.1349   3.1853   3.1961   3.2290   3.2530
     3.2570   3.2789   3.2876   3.3312   3.4257   3.4697   3.4906   3.5217
     3.6643   3.6656   4.4643   4.4659   4.8554   4.8730   4.9521   4.9732
     5.0852   5.0860   5.1578   5.1617   5.2927   5.2960   5.4859   5.4936
     5.7287   5.7304   5.7925   5.7958   6.1097   6.1434   6.1439   6.1453
     6.3606   6.3676   6.4111   6.4465   6.6812   6.7045   6.8691   6.8906
     6.9892   6.9933   7.1446   7.1574   7.1829   7.2065   7.4292   7.4405
     7.4524   7.4617   7.4785   7.4882   7.4989   7.5063   7.8765   7.8766
     9.6999   9.7046  11.2409  11.2567  11.3110  11.3243  11.3773  11.3875
    11.4473  11.4653  12.3048  12.3279  12.4563  12.4809  13.0479  13.0487
    13.3935  13.4006  13.4891  13.5088  13.5768  13.5972  13.6200  13.6235
    15.3948  15.4144  15.5775  15.5949  15.6859  15.7077  15.9884  16.0060
    16.5839  16.5849  17.7687  17.7745  17.8439  17.8440

          k = 0.1667-0.4759 0.1666 ( 62524 PWs)   bands (ev):

   -66.0160 -66.0159 -66.0152 -66.0151 -66.0151 -66.0151 -66.0143 -66.0142
   -30.4443 -30.4442 -30.4414 -30.4413 -30.4408 -30.4407 -30.4379 -30.4379
   -30.3525 -30.3518 -30.3482 -30.3469 -30.3460 -30.3454 -30.3419 -30.3409
   -30.2669 -30.2656 -30.2634 -30.2627 -30.2602 -30.2593 -30.2563 -30.2556
   -20.1668 -20.1667 -20.1665 -20.1665 -20.1664 -20.1664 -20.1662 -20.1661
   -20.1589 -20.1588 -20.1588 -20.1586 -20.1585 -20.1585 -20.1584 -20.1583
   -20.1560 -20.1557 -20.1557 -20.1556 -20.1555 -20.1554 -20.1552 -20.1551
[...]
    12.0425  12.0426  12.0465  12.0465  12.2133  12.2133  12.2154  12.2154
    13.0104  13.0104  13.0179  13.0179  13.1871  13.1871  13.1938  13.1938
    15.3405  15.3405  15.3411  15.3411  16.6811  16.6811  16.6910  16.6910
    17.6646  17.6646  17.6725  17.6726  17.9399  17.9399

          k =-0.5000 0.3173 0.0000 ( 62512 PWs)   bands (ev):

   -66.0157 -66.0157 -66.0155 -66.0155 -66.0147 -66.0147 -66.0145 -66.0145
   -30.4584 -30.4584 -30.4548 -30.4548 -30.4275 -30.4275 -30.4240 -30.4240
   -30.3570 -30.3570 -30.3509 -30.3509 -30.3089 -30.3089 -30.3043 -30.3043
   -30.3027 -30.3027 -30.2979 -30.2978 -30.2584 -30.2584 -30.2519 -30.2519
   -20.1680 -20.1680 -20.1677 -20.1677 -20.1653 -20.1652 -20.1649 -20.1649
   -20.1589 -20.1589 -20.1587 -20.1587 -20.1585 -20.1585 -20.1584 -20.1584
   -20.1561 -20.1561 -20.1557 -20.1557 -20.1543 -20.1543 -20.1542 -20.1542
   -20.1537 -20.1537 -20.1537 -20.1537 -20.1531 -20.1531 -20.1524 -20.1524
   -20.1386 -20.1386 -20.1385 -20.1385 -20.1381 -20.1381 -20.1381 -20.1381
   -20.0998 -20.0998 -20.0994 -20.0994 -20.0974 -20.0974 -20.0973 -20.0973
   -20.0960 -20.0960 -20.0957 -20.0957 -20.0941 -20.0941 -20.0937 -20.0937
    -9.5520  -9.5520  -9.3999  -9.3999  -8.9685  -8.9685  -8.7681  -8.7681
    -8.5626  -8.5626  -8.5547  -8.5547  -8.4960  -8.4960  -8.4115  -8.4114
    -8.1844  -8.1844  -8.1442  -8.1442  -7.6787  -7.6787  -7.6601  -7.6601
     1.3560   1.3560   1.3696   1.3696   2.3374   2.3374   2.4700   2.4700
     2.8889   2.8889   3.0682   3.0682   3.1222   3.1222   3.2784   3.2784
     3.3204   3.3205   3.3702   3.3702   3.4361   3.4361   3.6407   3.6407
     4.0254   4.0254   4.0569   4.0569   4.1226   4.1226   4.3377   4.3377
     4.7876   4.7876   4.8799   4.8799   5.0823   5.0823   5.2562   5.2562
     5.4189   5.4190   5.7076   5.7076   6.2860   6.2860   6.3456   6.3456
     6.4565   6.4565   6.5050   6.5050   6.5282   6.5282   6.7415   6.7415
     7.0159   7.0159   7.0343   7.0343   7.0755   7.0755   7.4986   7.4986
     7.5241   7.5241   7.5584   7.5584   7.5949   7.5949   7.8267   7.8267
    10.6575  10.6575  11.2154  11.2154  11.2570  11.2570  11.7117  11.7117
    12.0000  12.0000  12.1532  12.1532  12.6102  12.6102  12.6663  12.6663
    12.9021  12.9021  13.0158  13.0158  13.4414  13.4414  13.8477  13.8477
    15.1831  15.1831  15.7272  15.7272  16.2140  16.2140  16.5103  16.5103
    16.8863  16.8863  17.1608  17.1608  17.9335  17.9336

          k =-0.5000 0.3173 0.1666 ( 62492 PWs)   bands (ev):

   -66.0156 -66.0156 -66.0154 -66.0154 -66.0148 -66.0148 -66.0146 -66.0146
   -30.4582 -30.4582 -30.4551 -30.4551 -30.4273 -30.4273 -30.4243 -30.4243
   -30.3504 -30.3504 -30.3443 -30.3443 -30.3085 -30.3085 -30.3047 -30.3047
   -30.3024 -30.3024 -30.2982 -30.2982 -30.2651 -30.2650 -30.2585 -30.2585
   -20.1680 -20.1680 -20.1677 -20.1677 -20.1652 -20.1652 -20.1649 -20.1649
   -20.1589 -20.1589 -20.1587 -20.1587 -20.1585 -20.1585 -20.1585 -20.1585
   -20.1559 -20.1559 -20.1555 -20.1555 -20.1543 -20.1543 -20.1542 -20.1542
   -20.1537 -20.1537 -20.1537 -20.1537 -20.1532 -20.1532 -20.1526 -20.1526
   -20.1385 -20.1385 -20.1384 -20.1384 -20.1381 -20.1381 -20.1381 -20.1381
   -20.0994 -20.0994 -20.0991 -20.0991 -20.0973 -20.0973 -20.0972 -20.0972
   -20.0961 -20.0961 -20.0958 -20.0958 -20.0945 -20.0945 -20.0941 -20.0941
    -9.4831  -9.4831  -9.3174  -9.3174  -8.9819  -8.9819  -8.7464  -8.7464
    -8.5817  -8.5817  -8.5467  -8.5466  -8.4837  -8.4837  -8.4154  -8.4154
    -8.1814  -8.1814  -8.1488  -8.1488  -7.8022  -7.8022  -7.7838  -7.7838
     1.6119   1.6119   1.6286   1.6286   2.3399   2.3399   2.4537   2.4537
     2.9681   2.9681   3.0887   3.0887   3.1251   3.1251   3.2852   3.2852
     3.3235   3.3235   3.4571   3.4571   3.4943   3.4943   3.6889   3.6889
     4.0258   4.0258   4.0576   4.0576   4.1196   4.1196   4.3450   4.3450
     4.7027   4.7027   4.7807   4.7807   4.9587   4.9587   5.0069   5.0069
     5.1257   5.1257   5.4912   5.4912   5.8963   5.8963   5.9093   5.9093
     6.6478   6.6478   6.7577   6.7577   6.8189   6.8189   6.8497   6.8497
     6.9961   6.9961   7.0443   7.0443   7.1542   7.1542   7.4996   7.4996
     7.5343   7.5343   7.5768   7.5768   7.6109   7.6109   7.8065   7.8065
    10.8232  10.8232  11.2929  11.2929  11.3404  11.3404  11.7700  11.7700
    12.0114  12.0114  12.1900  12.1900  12.5954  12.5954  12.6398  12.6398
    12.8442  12.8442  12.9612  12.9612  13.2771  13.2771  13.6988  13.6988
    15.4049  15.4049  16.0072  16.0072  16.2836  16.2836  16.4981  16.4981
    16.9462  16.9462  17.2022  17.2022  17.7901  17.7901

          k =-0.5000 0.3173 0.3333 ( 62522 PWs)   bands (ev):

   -66.0155 -66.0155 -66.0152 -66.0152 -66.0150 -66.0150 -66.0148 -66.0148
   -30.4577 -30.4577 -30.4558 -30.4558 -30.4268 -30.4268 -30.4250 -30.4250
   -30.3325 -30.3325 -30.3264 -30.3264 -30.3075 -30.3075 -30.3056 -30.3056
   -30.3016 -30.3016 -30.2990 -30.2990 -30.2830 -30.2830 -30.2765 -30.2765
   -20.1680 -20.1680 -20.1678 -20.1678 -20.1652 -20.1652 -20.1650 -20.1650
   -20.1588 -20.1588 -20.1586 -20.1586 -20.1586 -20.1586 -20.1585 -20.1585
   -20.1554 -20.1554 -20.1550 -20.1550 -20.1543 -20.1543 -20.1542 -20.1541
   -20.1539 -20.1539 -20.1537 -20.1537 -20.1536 -20.1536 -20.1531 -20.1531
   -20.1384 -20.1384 -20.1383 -20.1383 -20.1382 -20.1382 -20.1381 -20.1381
   -20.0985 -20.0985 -20.0982 -20.0982 -20.0970 -20.0970 -20.0970 -20.0970
   -20.0964 -20.0964 -20.0961 -20.0961 -20.0956 -20.0956 -20.0952 -20.0952
    -9.3096  -9.3096  -9.0917  -9.0917  -9.0282  -9.0282  -8.6717  -8.6717
    -8.6377  -8.6376  -8.5154  -8.5154  -8.4585  -8.4585  -8.4236  -8.4236
    -8.1853  -8.1853  -8.1664  -8.1664  -8.0978  -8.0978  -8.0634  -8.0634
     2.2204   2.2204   2.3142   2.3142   2.3517   2.3517   2.4932   2.4932
     3.0728   3.0728   3.1264   3.1264   3.1907   3.1907   3.2854   3.2854
     3.3593   3.3593   3.6198   3.6198   3.7206   3.7206   3.8158   3.8158
     4.0089   4.0089   4.0687   4.0687   4.1188   4.1188   4.2192   4.2192
     4.3159   4.3159   4.4602   4.4602   4.5901   4.5901   4.8153   4.8153
     4.9395   4.9395   4.9962   4.9962   5.0713   5.0713   5.2827   5.2827
     6.8275   6.8275   6.8847   6.8847   6.9468   6.9468   7.0074   7.0074
     7.1425   7.1425   7.2755   7.2755   7.3851   7.3851   7.4848   7.4848
     7.5368   7.5368   7.6087   7.6087   7.6314   7.6314   7.7520   7.7520
    11.2577  11.2577  11.5342  11.5342  11.6151  11.6151  11.8659  11.8659
    12.0584  12.0584  12.3348  12.3348  12.3918  12.3918  12.4469  12.4469
    12.7268  12.7268  12.8183  12.8183  12.8848  12.8848  13.3086  13.3086
    15.9364  15.9364  16.4233  16.4233  16.5138  16.5138  16.7621  16.7621
    17.1723  17.1723  17.2746  17.2746  17.5398  17.5398

          k =-0.5000 0.3173-0.4999 ( 62512 PWs)   bands (ev):

   -66.0152 -66.0152 -66.0152 -66.0152 -66.0150 -66.0150 -66.0150 -66.0150
   -30.4568 -30.4568 -30.4568 -30.4568 -30.4260 -30.4260 -30.4260 -30.4260
   -30.3087 -30.3087 -30.3086 -30.3086 -30.3073 -30.3073 -30.3072 -30.3072
   -30.3007 -30.3007 -30.3006 -30.3006 -30.2996 -30.2996 -30.2996 -30.2996
   -20.1679 -20.1679 -20.1679 -20.1679 -20.1651 -20.1651 -20.1651 -20.1651
   -20.1587 -20.1587 -20.1587 -20.1587 -20.1586 -20.1586 -20.1586 -20.1586
   -20.1547 -20.1547 -20.1547 -20.1547 -20.1545 -20.1545 -20.1544 -20.1544
   -20.1539 -20.1539 -20.1538 -20.1538 -20.1536 -20.1536 -20.1535 -20.1535
   -20.1383 -20.1383 -20.1383 -20.1383 -20.1382 -20.1382 -20.1382 -20.1382
   -20.0972 -20.0972 -20.0971 -20.0971 -20.0971 -20.0971 -20.0970 -20.0970
   -20.0964 -20.0964 -20.0964 -20.0964 -20.0964 -20.0964 -20.0963 -20.0963
    -9.1325  -9.1325  -9.1313  -9.1313  -8.8148  -8.8148  -8.8111  -8.8111
    -8.5190  -8.5190  -8.5121  -8.5121  -8.3879  -8.3879  -8.3842  -8.3842
    -8.3721  -8.3721  -8.3644  -8.3644  -8.1531  -8.1531  -8.1524  -8.1524
     2.3508   2.3508   2.3512   2.3512   3.0308   3.0308   3.0369   3.0369
     3.1299   3.1299   3.1308   3.1308   3.2483   3.2483   3.2611   3.2611
     3.3242   3.3242   3.3289   3.3289   3.9298   3.9298   3.9547   3.9547
     3.9733   3.9733   3.9920   3.9920   4.0505   4.0505   4.0604   4.0604
     4.3116   4.3116   4.3262   4.3262   4.3465   4.3465   4.3509   4.3509
     4.6889   4.6889   4.6889   4.6889   5.0049   5.0049   5.0062   5.0062
     6.8851   6.8851   6.8925   6.8926   6.9814   6.9814   6.9878   6.9878
     7.3739   7.3739   7.3764   7.3764   7.4664   7.4664   7.4747   7.4747
     7.5832   7.5832   7.5836   7.5837   7.6754   7.6754   7.6797   7.6797
    11.7743  11.7743  11.7847  11.7847  11.8280  11.8280  11.8377  11.8377
    12.0735  12.0735  12.0761  12.0761  12.2919  12.2919  12.2936  12.2936
    12.6858  12.6858  12.6919  12.6919  12.8798  12.8798  12.8844  12.8844
    16.2936  16.2936  16.2938  16.2938  16.8668  16.8668  16.8741  16.8741
    17.4048  17.4048  17.4180  17.4180  17.9514  17.9517

          k =-0.5000-0.4759 0.0000 ( 62524 PWs)   bands (ev):

   -66.0156 -66.0156 -66.0156 -66.0156 -66.0147 -66.0147 -66.0146 -66.0146
   -30.4432 -30.4432 -30.4426 -30.4426 -30.4395 -30.4395 -30.4393 -30.4393
   -30.3570 -30.3569 -30.3510 -30.3510 -30.3088 -30.3088 -30.3042 -30.3042
   -30.3029 -30.3029 -30.2980 -30.2980 -30.2584 -30.2584 -30.2520 -30.2520
   -20.1667 -20.1667 -20.1666 -20.1666 -20.1663 -20.1663 -20.1663 -20.1663
   -20.1589 -20.1589 -20.1587 -20.1587 -20.1585 -20.1585 -20.1585 -20.1585
   -20.1560 -20.1560 -20.1558 -20.1558 -20.1541 -20.1541 -20.1540 -20.1540
   -20.1539 -20.1539 -20.1539 -20.1539 -20.1528 -20.1528 -20.1527 -20.1527
   -20.1386 -20.1386 -20.1385 -20.1385 -20.1381 -20.1381 -20.1381 -20.1381
   -20.0998 -20.0998 -20.0994 -20.0994 -20.0974 -20.0974 -20.0973 -20.0973
   -20.0960 -20.0960 -20.0957 -20.0957 -20.0941 -20.0941 -20.0937 -20.0937
    -9.4670  -9.4670  -9.4552  -9.4552  -8.7216  -8.7216  -8.7109  -8.7109
    -8.6200  -8.6200  -8.6125  -8.6124  -8.4227  -8.4227  -8.4070  -8.4070
    -8.3520  -8.3520  -8.3366  -8.3366  -7.6763  -7.6763  -7.6626  -7.6626
     1.3580   1.3581   1.3707   1.3707   2.9990   2.9990   3.0523   3.0523
     3.1462   3.1462   3.1606   3.1606   3.1899   3.1899   3.1985   3.1986
     3.3079   3.3079   3.3263   3.3263   3.4279   3.4279   3.4763   3.4763
     3.5376   3.5376   3.6675   3.6675   4.2586   4.2586   4.2869   4.2869
     4.3540   4.3540   4.3995   4.3995   5.1754   5.1754   5.1917   5.1918
     5.4891   5.4891   5.5105   5.5105   6.3340   6.3340   6.3410   6.3410
     6.5096   6.5096   6.5265   6.5265   6.6007   6.6007   6.6272   6.6272
     7.2610   7.2610   7.2822   7.2822   7.3047   7.3047   7.3890   7.3890
     7.4242   7.4242   7.4681   7.4681   7.5940   7.5940   7.6016   7.6016
    11.1970  11.1970  11.2108  11.2108  11.3116  11.3116  11.3189  11.3189
    12.2697  12.2697  12.2902  12.2902  12.3305  12.3305  12.3427  12.3427
    12.9253  12.9253  12.9408  12.9408  13.5966  13.5966  13.6094  13.6094
    15.5293  15.5293  15.5515  15.5515  16.7383  16.7383  16.7672  16.7672
    17.3921  17.3921  17.4188  17.4188  17.5363  17.5363

          k =-0.5000-0.4759 0.1666 ( 62480 PWs)   bands (ev):

   -66.0156 -66.0156 -66.0155 -66.0155 -66.0147 -66.0147 -66.0147 -66.0147
   -30.4430 -30.4430 -30.4425 -30.4425 -30.4398 -30.4398 -30.4396 -30.4396
   -30.3504 -30.3504 -30.3444 -30.3444 -30.3084 -30.3084 -30.3046 -30.3046
   -30.3026 -30.3026 -30.2983 -30.2983 -30.2650 -30.2650 -30.2586 -30.2586
   -20.1667 -20.1667 -20.1666 -20.1666 -20.1664 -20.1664 -20.1663 -20.1663
   -20.1589 -20.1589 -20.1587 -20.1587 -20.1585 -20.1585 -20.1585 -20.1585
   -20.1558 -20.1558 -20.1556 -20.1556 -20.1541 -20.1541 -20.1540 -20.1540
   -20.1539 -20.1539 -20.1539 -20.1539 -20.1530 -20.1530 -20.1529 -20.1529
   -20.1385 -20.1385 -20.1384 -20.1384 -20.1381 -20.1381 -20.1381 -20.1381
   -20.0994 -20.0994 -20.0991 -20.0991 -20.0973 -20.0973 -20.0972 -20.0972
   -20.0961 -20.0961 -20.0959 -20.0958 -20.0945 -20.0945 -20.0941 -20.0941
    -9.3887  -9.3887  -9.3777  -9.3777  -8.7392  -8.7392  -8.7284  -8.7284
    -8.6034  -8.6034  -8.5948  -8.5948  -8.4201  -8.4201  -8.4046  -8.4046
    -8.3540  -8.3540  -8.3390  -8.3390  -7.8000  -7.8000  -7.7863  -7.7863
     1.6175   1.6175   1.6298   1.6298   3.0037   3.0037   3.0548   3.0548
     3.1333   3.1333   3.1498   3.1498   3.2013   3.2013   3.2600   3.2600
     3.3025   3.3025   3.4103   3.4103   3.4806   3.4806   3.5287   3.5287
     3.5758   3.5758   3.6973   3.6973   4.2621   4.2621   4.2872   4.2872
     4.3471   4.3471   4.3923   4.3923   4.8560   4.8560   5.0092   5.0092
     5.1375   5.1375   5.2763   5.2763   5.8974   5.8974   5.9102   5.9102
     6.7239   6.7239   6.7680   6.7680   6.8545   6.8545   6.8914   6.8914
     7.2537   7.2537   7.2773   7.2773   7.3296   7.3296   7.3839   7.3839
     7.4220   7.4220   7.4762   7.4762   7.6003   7.6003   7.6261   7.6261
    11.2560  11.2560  11.3004  11.3004  11.4050  11.4050  11.4770  11.4770
    12.2690  12.2690  12.2950  12.2950  12.3300  12.3300  12.3513  12.3513
    12.8205  12.8205  12.8937  12.8937  13.4174  13.4174  13.4687  13.4687
    15.7981  15.7981  15.8286  15.8287  16.7981  16.7981  16.8278  16.8278
    17.3893  17.3893  17.4297  17.4297  17.5242  17.5242

          k =-0.5000-0.4759 0.3333 ( 62472 PWs)   bands (ev):

   -66.0154 -66.0154 -66.0153 -66.0153 -66.0149 -66.0149 -66.0148 -66.0148
   -30.4424 -30.4424 -30.4421 -30.4421 -30.4405 -30.4405 -30.4403 -30.4403
   -30.3325 -30.3325 -30.3265 -30.3265 -30.3074 -30.3074 -30.3055 -30.3055
   -30.3018 -30.3018 -30.2991 -30.2991 -30.2830 -30.2830 -30.2766 -30.2766
   -20.1666 -20.1666 -20.1666 -20.1665 -20.1665 -20.1664 -20.1664 -20.1664
   -20.1588 -20.1588 -20.1586 -20.1586 -20.1586 -20.1586 -20.1585 -20.1585
   -20.1552 -20.1552 -20.1551 -20.1551 -20.1541 -20.1541 -20.1541 -20.1541
   -20.1540 -20.1540 -20.1539 -20.1539 -20.1536 -20.1535 -20.1533 -20.1533
   -20.1384 -20.1384 -20.1383 -20.1383 -20.1382 -20.1382 -20.1381 -20.1381
   -20.0985 -20.0985 -20.0982 -20.0982 -20.0970 -20.0970 -20.0970 -20.0970
   -20.0964 -20.0964 -20.0961 -20.0961 -20.0956 -20.0956 -20.0952 -20.0952
    -9.1796  -9.1796  -9.1714  -9.1714  -8.7982  -8.7982  -8.7885  -8.7885
    -8.5440  -8.5440  -8.5360  -8.5360  -8.4134  -8.4134  -8.4007  -8.4007
    -8.3576  -8.3576  -8.3451  -8.3451  -8.0956  -8.0956  -8.0830  -8.0830
     2.3019   2.3019   2.3138   2.3138   3.0144   3.0144   3.0456   3.0456
     3.1241   3.1241   3.1407   3.1407   3.2562   3.2562   3.2807   3.2807
     3.3840   3.3840   3.4197   3.4197   3.6329   3.6329   3.6594   3.6594
     3.7883   3.7883   3.8454   3.8454   4.2382   4.2383   4.2567   4.2567
     4.3016   4.3016   4.3595   4.3595   4.4340   4.4340   4.5439   4.5439
     4.6384   4.6384   4.7827   4.7827   5.0816   5.0816   5.0976   5.0976
     6.9908   6.9908   7.0419   7.0419   7.1644   7.1644   7.1803   7.1804
     7.2539   7.2539   7.2924   7.2924   7.3229   7.3229   7.3821   7.3821
     7.4670   7.4670   7.5302   7.5302   7.6186   7.6186   7.6421   7.6421
    11.4943  11.4943  11.5383  11.5383  11.7530  11.7530  11.8398  11.8398
    12.2269  12.2269  12.2842  12.2842  12.3244  12.3244  12.3580  12.3580
    12.5301  12.5301  12.6505  12.6505  12.9777  12.9777  13.0622  13.0622
    16.5177  16.5177  16.5794  16.5794  16.9867  16.9867  16.9999  16.9999
    17.3349  17.3349  17.4313  17.4313  17.4957  17.4957

          k =-0.5000-0.4759-0.4999 ( 62456 PWs)   bands (ev):

   -66.0152 -66.0151 -66.0151 -66.0151 -66.0151 -66.0151 -66.0151 -66.0151
   -30.4416 -30.4415 -30.4414 -30.4414 -30.4414 -30.4414 -30.4413 -30.4413
   -30.3085 -30.3085 -30.3081 -30.3081 -30.3077 -30.3077 -30.3073 -30.3073
   -30.3007 -30.3007 -30.3003 -30.3002 -30.3001 -30.3001 -30.2997 -30.2997
   -20.1666 -20.1666 -20.1666 -20.1666 -20.1665 -20.1665 -20.1665 -20.1665
   -20.1587 -20.1587 -20.1586 -20.1586 -20.1586 -20.1586 -20.1586 -20.1586
   -20.1546 -20.1546 -20.1545 -20.1545 -20.1544 -20.1544 -20.1544 -20.1544
   -20.1540 -20.1540 -20.1539 -20.1539 -20.1538 -20.1538 -20.1537 -20.1537
   -20.1383 -20.1383 -20.1383 -20.1383 -20.1382 -20.1382 -20.1382 -20.1382
   -20.0972 -20.0972 -20.0971 -20.0971 -20.0971 -20.0971 -20.0970 -20.0970
   -20.0964 -20.0964 -20.0964 -20.0964 -20.0964 -20.0964 -20.0963 -20.0963
    -8.9423  -8.9423  -8.9364  -8.9364  -8.9340  -8.9339  -8.9327  -8.9326
    -8.4241  -8.4241  -8.4095  -8.4095  -8.4045  -8.4045  -8.4043  -8.4043
    -8.3587  -8.3587  -8.3563  -8.3563  -8.3507  -8.3507  -8.3450  -8.3450
     3.0113   3.0113   3.0133   3.0133   3.0262   3.0262   3.0315   3.0315
     3.1636   3.1636   3.1660   3.1660   3.1821   3.1821   3.1901   3.1901
     3.3978   3.3978   3.4374   3.4375   3.4612   3.4612   3.4859   3.4859
     4.1475   4.1475   4.1561   4.1561   4.1583   4.1583   4.1596   4.1596
     4.3353   4.3353   4.3410   4.3410   4.3459   4.3459   4.3538   4.3538
     4.4313   4.4313   4.4461   4.4461   4.4529   4.4529   4.4541   4.4541
     7.1246   7.1246   7.1614   7.1614   7.1890   7.1890   7.2356   7.2356
     7.3129   7.3129   7.3186   7.3186   7.3237   7.3237   7.3240   7.3240
     7.5894   7.5894   7.5963   7.5963   7.6039   7.6039   7.6156   7.6156
    11.8874  11.8874  11.8889  11.8889  11.8921  11.8921  11.8963  11.8963
    12.2385  12.2386  12.2706  12.2706  12.2970  12.2970  12.3402  12.3402
    12.5177  12.5177  12.5381  12.5381  12.5505  12.5505  12.5625  12.5625
    17.0834  17.0834  17.1022  17.1022  17.1182  17.1182  17.1416  17.1417
    17.4231  17.4231  17.4267  17.4267  17.4315  17.4315

     the Fermi energy is     9.9644 ev

!    total energy              =   -6260.39755621 Ry
     Harris-Foulkes estimate   =   -6260.39755622 Ry
     estimated scf accuracy    <          6.2E-09 Ry

     The total energy is the sum of the following terms:

     one-electron contribution =   -4739.92111837 Ry
     hartree contribution      =    2608.76802955 Ry
     xc contribution           =    -966.77461443 Ry
     ewald contribution        =   -3162.46977779 Ry
     smearing contrib. (-TS)   =      -0.00007518 Ry

     convergence has been achieved in  15 iterations

     Writing output data file Landau_4.save
 
     init_run     :     26.44s CPU     28.19s WALL (       1 calls)
     electrons    :   1291.16s CPU   1327.81s WALL (       1 calls)

     Called by init_run:
     wfcinit      :     23.93s CPU     25.52s WALL (       1 calls)
     potinit      :      1.03s CPU      1.07s WALL (       1 calls)

     Called by electrons:
     c_bands      :   1133.14s CPU   1167.68s WALL (      15 calls)
     sum_band     :    149.79s CPU    150.94s WALL (      15 calls)
     v_of_rho     :      1.26s CPU      1.30s WALL (      16 calls)
     mix_rho      :      2.29s CPU      2.87s WALL (      15 calls)

     Called by c_bands:
     init_us_2    :      8.08s CPU      8.60s WALL (      62 calls)
     cegterg      :    833.88s CPU    866.56s WALL (      30 calls)

     Called by sum_band:

     Called by *egterg:
     h_psi        :    672.34s CPU    676.95s WALL (     130 calls)
     g_psi        :      1.41s CPU      1.42s WALL (      98 calls)
     cdiaghg      :     11.79s CPU     11.84s WALL (     128 calls)

     Called by h_psi:
     h_psi:pot    :    667.90s CPU    672.17s WALL (     130 calls)
     h_psi:calbec :     69.00s CPU     71.04s WALL (     130 calls)
     vloc_psi     :    524.22s CPU    526.03s WALL (     130 calls)
     add_vuspsi   :     74.68s CPU     75.09s WALL (     130 calls)

     General routines
     calbec       :     69.00s CPU     71.04s WALL (     130 calls)
     fft          :      0.92s CPU      0.94s WALL (      64 calls)
     fftw         :    550.90s CPU    552.44s WALL (   37504 calls)
 
     Parallel routines
 
     PWSCF        : 22m 2.10s CPU    22m44.37s WALL

 
   This run was terminated on:  23:34:24  25Mar2020            

=------------------------------------------------------------------------------=
   JOB DONE.
=------------------------------------------------------------------------------=
