
     Program PWSCF v.6.4.1 starts on 19Nov2019 at 18:23:36 

     This program is part of the open-source Quantum ESPRESSO suite
     for quantum simulation of materials; please cite
         "P. Giannozzi et al., J. Phys.:Condens. Matter 21 395502 (2009);
         "P. Giannozzi et al., J. Phys.:Condens. Matter 29 465901 (2017);
          URL http://www.quantum-espresso.org", 
     in publications or presentations arising from this work. More details at
     http://www.quantum-espresso.org/quote

     Parallel version (MPI), running on    40 processors

     MPI processes distributed on     6 nodes
     K-points division:     npool     =      40
     Reading input from rscf.in

     Current dimensions of program PWSCF are:
     Max number of different atomic species (ntypx) = 10
     Max number of k-points (npk) =  40000
     Max angular momentum in pseudopotentials (lmaxx) =  3

     Subspace diagonalization in iterative solution of the eigenvalue problem:
     a serial algorithm will be used

     Message from routine setup:
     using ibrav=0 with symmetry is DISCOURAGED, use correct ibrav instead
 
     G-vector sticks info
     --------------------
     sticks:   dense  smooth     PW     G-vecs:    dense   smooth      PW
     Sum        3657    3657    997               248967   248967   35569
 


     bravais-lattice index     =            0
     lattice parameter (alat)  =       9.7849  a.u.
     unit-cell volume          =    1402.1515 (a.u.)^3
     number of atoms/cell      =           16
     number of atomic types    =            2
     number of electrons       =       184.00
     number of Kohn-Sham states=          110
     kinetic-energy cutoff     =     120.0000  Ry
     charge density cutoff     =     480.0000  Ry
     convergence threshold     =      1.0E-08
     mixing beta               =       0.7000
     number of iterations used =            8  plain     mixing
     Exchange-correlation      = SLA PW NOGX NOGC ( 1  4  0  0 0 0)
     nstep                     =           50


     celldm(1)=   9.784926  celldm(2)=   0.000000  celldm(3)=   0.000000
     celldm(4)=   0.000000  celldm(5)=   0.000000  celldm(6)=   0.000000

     crystal axes: (cart. coord. in units of alat)
               a(1) = (   1.000000   0.000000   0.000000 )  
               a(2) = (   0.000000   1.000000   0.000000 )  
               a(3) = (   0.000000   0.000000   1.496657 )  

     reciprocal axes: (cart. coord. in units 2 pi/alat)
               b(1) = (  1.000000  0.000000  0.000000 )  
               b(2) = (  0.000000  1.000000  0.000000 )  
               b(3) = (  0.000000  0.000000  0.668156 )  


     PseudoPot. # 1 for W  read from file:
     /cluster/scratch/mnoe/QE/pps/W_ONCV_LDA-4.0.upf
     MD5 check sum: ba0307d5d4cd419d6f1d13dc49d7c13a
     Pseudo is Norm-conserving + core correction, Zval = 28.0
     Generated using ONCVPSP code by D. R. Hamann
     Using radial grid of 1380 points,  8 beta functions with: 
                l(1) =   0
                l(2) =   0
                l(3) =   1
                l(4) =   1
                l(5) =   2
                l(6) =   2
                l(7) =   3
                l(8) =   3

     PseudoPot. # 2 for O  read from file:
     /cluster/scratch/mnoe/QE/pps/O_ONCV_LDA-3.0.upf
     MD5 check sum: b55cdb4f45ae2203d24ad12cf8d61a31
     Pseudo is Norm-conserving + core correction, Zval =  6.0
     Generated using ONCVPSP code by D. R. Hamann
     Using radial grid of  926 points,  5 beta functions with: 
                l(1) =   0
                l(2) =   0
                l(3) =   1
                l(4) =   1
                l(5) =   2

     atomic species   valence    mass     pseudopotential
        W             28.00   183.84000     W ( 1.00)
        O              6.00    15.99940     O ( 1.00)

     16 Sym. Ops., with inversion, found (14 have fractional translation)



   Cartesian axes

     site n.     atom                  positions (alat units)
         1           W   tau(   1) = (   0.2500000   0.2500000   0.3218778  )
         2           W   tau(   2) = (   0.7500000   0.7500000   1.1747792  )
         3           W   tau(   3) = (   0.7500000   0.7500000   0.4264507  )
         4           W   tau(   4) = (   0.2500000   0.2500000   1.0702063  )
         5           O   tau(   5) = (   0.2500000   0.2500000   0.7272074  )
         6           O   tau(   6) = (   0.7500000   0.7500000   0.7694496  )
         7           O   tau(   7) = (   0.7500000   0.7500000   0.0211211  )
         8           O   tau(   8) = (   0.2500000   0.2500000   1.4755359  )
         9           O   tau(   9) = (   0.4652087   0.5347913   0.3741643  )
        10           O   tau(  10) = (   0.5347913   0.4652087   1.1224928  )
        11           O   tau(  11) = (   0.0347913   0.9652087   0.3741643  )
        12           O   tau(  12) = (   0.9652086   0.0347913   1.1224928  )
        13           O   tau(  13) = (   0.9652087   0.4652087   0.3741643  )
        14           O   tau(  14) = (   0.0347913   0.5347913   1.1224928  )
        15           O   tau(  15) = (   0.5347913   0.0347913   0.3741643  )
        16           O   tau(  16) = (   0.4652087   0.9652086   1.1224928  )

     number of k points=    40  gaussian smearing, width (Ry)=  0.0007
                       cart. coord. in units 2pi/alat
        k(    1) = (   0.0000000   0.0000000   0.0000000), wk =   0.0092593
        k(    2) = (   0.0000000   0.0000000   0.1113593), wk =   0.0185185
        k(    3) = (   0.0000000   0.0000000   0.2227186), wk =   0.0185185
        k(    4) = (   0.0000000   0.0000000  -0.3340779), wk =   0.0092593
        k(    5) = (   0.0000000   0.1666667   0.0000000), wk =   0.0370370
        k(    6) = (   0.0000000   0.1666667   0.1113593), wk =   0.0740741
        k(    7) = (   0.0000000   0.1666667   0.2227186), wk =   0.0740741
        k(    8) = (   0.0000000   0.1666667  -0.3340779), wk =   0.0370370
        k(    9) = (   0.0000000   0.3333333   0.0000000), wk =   0.0370370
        k(   10) = (   0.0000000   0.3333333   0.1113593), wk =   0.0740741
        k(   11) = (   0.0000000   0.3333333   0.2227186), wk =   0.0740741
        k(   12) = (   0.0000000   0.3333333  -0.3340779), wk =   0.0370370
        k(   13) = (   0.0000000  -0.5000000   0.0000000), wk =   0.0185185
        k(   14) = (   0.0000000  -0.5000000   0.1113593), wk =   0.0370370
        k(   15) = (   0.0000000  -0.5000000   0.2227186), wk =   0.0370370
        k(   16) = (   0.0000000  -0.5000000  -0.3340779), wk =   0.0185185
        k(   17) = (   0.1666667   0.1666667   0.0000000), wk =   0.0370370
        k(   18) = (   0.1666667   0.1666667   0.1113593), wk =   0.0740741
        k(   19) = (   0.1666667   0.1666667   0.2227186), wk =   0.0740741
        k(   20) = (   0.1666667   0.1666667  -0.3340779), wk =   0.0370370
        k(   21) = (   0.1666667   0.3333333   0.0000000), wk =   0.0740741
        k(   22) = (   0.1666667   0.3333333   0.1113593), wk =   0.1481481
        k(   23) = (   0.1666667   0.3333333   0.2227186), wk =   0.1481481
        k(   24) = (   0.1666667   0.3333333  -0.3340779), wk =   0.0740741
        k(   25) = (   0.1666667  -0.5000000   0.0000000), wk =   0.0370370
        k(   26) = (   0.1666667  -0.5000000   0.1113593), wk =   0.0740741
        k(   27) = (   0.1666667  -0.5000000   0.2227186), wk =   0.0740741
        k(   28) = (   0.1666667  -0.5000000  -0.3340779), wk =   0.0370370
        k(   29) = (   0.3333333   0.3333333   0.0000000), wk =   0.0370370
        k(   30) = (   0.3333333   0.3333333   0.1113593), wk =   0.0740741
        k(   31) = (   0.3333333   0.3333333   0.2227186), wk =   0.0740741
        k(   32) = (   0.3333333   0.3333333  -0.3340779), wk =   0.0370370
        k(   33) = (   0.3333333  -0.5000000   0.0000000), wk =   0.0370370
        k(   34) = (   0.3333333  -0.5000000   0.1113593), wk =   0.0740741
        k(   35) = (   0.3333333  -0.5000000   0.2227186), wk =   0.0740741
        k(   36) = (   0.3333333  -0.5000000  -0.3340779), wk =   0.0370370
        k(   37) = (  -0.5000000  -0.5000000   0.0000000), wk =   0.0092593
        k(   38) = (  -0.5000000  -0.5000000   0.1113593), wk =   0.0185185
        k(   39) = (  -0.5000000  -0.5000000   0.2227186), wk =   0.0185185
        k(   40) = (  -0.5000000  -0.5000000  -0.3340779), wk =   0.0092593

     Dense  grid:   248967 G-vectors     FFT dimensions: (  72,  72, 108)

     Estimated max dynamical RAM per process >     790.23 MB

     Estimated total dynamical RAM >      30.87 GB

     Initial potential from superposition of free atoms

     starting charge  183.99828, renormalised to  184.00000
     Starting wfcs are  116 randomized atomic wfcs

     total cpu time spent up to now is       10.6 secs

     Self-consistent Calculation

     iteration #  1     ecut=   120.00 Ry     beta= 0.70
     Davidson diagonalization with overlap
     ethr =  1.00E-02,  avg # of iterations =  4.2

     total cpu time spent up to now is       20.5 secs

     total energy              =   -3126.99679514 Ry
     Harris-Foulkes estimate   =   -3132.28976070 Ry
     estimated scf accuracy    <       6.70955537 Ry

     iteration #  2     ecut=   120.00 Ry     beta= 0.70
     Davidson diagonalization with overlap
     ethr =  3.65E-03,  avg # of iterations =  3.2

     total cpu time spent up to now is       30.2 secs

     total energy              =   -3125.51258725 Ry
     Harris-Foulkes estimate   =   -3135.30434850 Ry
     estimated scf accuracy    <      26.15024915 Ry

     iteration #  3     ecut=   120.00 Ry     beta= 0.70
     Davidson diagonalization with overlap
     ethr =  3.65E-03,  avg # of iterations =  3.1

     total cpu time spent up to now is       38.9 secs

     total energy              =   -3130.52682881 Ry
     Harris-Foulkes estimate   =   -3130.68663718 Ry
     estimated scf accuracy    <       0.51293726 Ry

     iteration #  4     ecut=   120.00 Ry     beta= 0.70
     Davidson diagonalization with overlap
     ethr =  2.79E-04,  avg # of iterations =  2.6

     total cpu time spent up to now is       46.6 secs

     total energy              =   -3130.53831593 Ry
     Harris-Foulkes estimate   =   -3130.57577229 Ry
     estimated scf accuracy    <       0.12910723 Ry

     iteration #  5     ecut=   120.00 Ry     beta= 0.70
     Davidson diagonalization with overlap
     ethr =  7.02E-05,  avg # of iterations =  3.4

     total cpu time spent up to now is       54.2 secs

     total energy              =   -3130.53382011 Ry
     Harris-Foulkes estimate   =   -3130.55230999 Ry
     estimated scf accuracy    <       0.04023426 Ry

     iteration #  6     ecut=   120.00 Ry     beta= 0.70
     Davidson diagonalization with overlap
     ethr =  2.19E-05,  avg # of iterations =  4.0

     total cpu time spent up to now is       62.4 secs

     total energy              =   -3130.54284705 Ry
     Harris-Foulkes estimate   =   -3130.54371260 Ry
     estimated scf accuracy    <       0.00240298 Ry

     iteration #  7     ecut=   120.00 Ry     beta= 0.70
     Davidson diagonalization with overlap
     ethr =  1.31E-06,  avg # of iterations =  3.0

     total cpu time spent up to now is       70.9 secs

     total energy              =   -3130.54312295 Ry
     Harris-Foulkes estimate   =   -3130.54316654 Ry
     estimated scf accuracy    <       0.00009386 Ry

     iteration #  8     ecut=   120.00 Ry     beta= 0.70
     Davidson diagonalization with overlap
     ethr =  5.10E-08,  avg # of iterations =  3.0

     total cpu time spent up to now is       79.5 secs

     total energy              =   -3130.54315286 Ry
     Harris-Foulkes estimate   =   -3130.54315442 Ry
     estimated scf accuracy    <       0.00000690 Ry

     iteration #  9     ecut=   120.00 Ry     beta= 0.70
     Davidson diagonalization with overlap
     ethr =  3.75E-09,  avg # of iterations =  2.0

     total cpu time spent up to now is       87.1 secs

     total energy              =   -3130.54315223 Ry
     Harris-Foulkes estimate   =   -3130.54315363 Ry
     estimated scf accuracy    <       0.00000408 Ry

     iteration # 10     ecut=   120.00 Ry     beta= 0.70
     Davidson diagonalization with overlap
     ethr =  2.22E-09,  avg # of iterations =  2.0

     total cpu time spent up to now is       94.2 secs

     total energy              =   -3130.54315256 Ry
     Harris-Foulkes estimate   =   -3130.54315268 Ry
     estimated scf accuracy    <       0.00000026 Ry

     iteration # 11     ecut=   120.00 Ry     beta= 0.70
     Davidson diagonalization with overlap
     ethr =  1.42E-10,  avg # of iterations =  3.0

     total cpu time spent up to now is      103.1 secs

     total energy              =   -3130.54315263 Ry
     Harris-Foulkes estimate   =   -3130.54315264 Ry
     estimated scf accuracy    <       0.00000003 Ry

     iteration # 12     ecut=   120.00 Ry     beta= 0.70
     Davidson diagonalization with overlap
     ethr =  1.38E-11,  avg # of iterations =  2.0

     total cpu time spent up to now is      111.0 secs

     End of self-consistent calculation

          k = 0.0000 0.0000 0.0000 ( 31095 PWs)   bands (ev):

   -66.1467 -66.1463 -66.1449 -66.1445 -30.5273 -30.5273 -30.5240 -30.5240
   -30.5005 -30.4944 -30.4412 -30.4363 -30.4309 -30.4309 -30.4282 -30.4282
   -20.2985 -20.2985 -20.2984 -20.2984 -20.2785 -20.2785 -20.2785 -20.2785
   -20.2774 -20.2774 -20.2772 -20.2772 -20.2761 -20.2758 -20.2704 -20.2701
   -20.2674 -20.2674 -20.2668 -20.2667 -20.2663 -20.2662 -20.2662 -20.2662
   -20.2616 -20.2616 -20.2607 -20.2607 -10.0251  -9.7708  -9.1461  -9.1302
    -8.9856  -8.8001  -7.7531  -7.6926  -7.6926  -7.6717  -7.6717  -7.6344
     0.9695   0.9699   1.3021   1.4371   1.6863   1.7297   2.2940   2.3781
     2.6349   2.6349   4.0591   4.0591   5.0132   5.0539   5.0539   5.5843
     5.5843   5.6131   5.6131   5.9140   5.9140   5.9243   6.0629   6.7993
     6.7993   6.8326   7.0289   7.1044   7.2535   7.2535   7.2848   7.2848
     8.0911   8.0977   8.1856   8.1856   9.1016   9.1057   9.8936   9.8936
    12.3580  12.3580  13.3906  13.3933  13.5240  13.5240  13.7170  14.2775
    14.2775  14.8178  15.2191  15.2266  15.4917  16.8460

          k = 0.0000 0.0000 0.1114 ( 31063 PWs)   bands (ev):

   -66.1467 -66.1464 -66.1449 -66.1445 -30.5271 -30.5271 -30.5243 -30.5243
   -30.4966 -30.4906 -30.4452 -30.4402 -30.4307 -30.4307 -30.4284 -30.4284
   -20.2985 -20.2985 -20.2984 -20.2984 -20.2785 -20.2785 -20.2785 -20.2785
   -20.2774 -20.2774 -20.2772 -20.2772 -20.2757 -20.2754 -20.2708 -20.2705
   -20.2673 -20.2673 -20.2668 -20.2667 -20.2663 -20.2663 -20.2663 -20.2662
   -20.2616 -20.2616 -20.2607 -20.2607 -10.0003  -9.7818  -9.1450  -9.1313
    -8.9116  -8.7491  -7.8497  -7.7423  -7.6912  -7.6912  -7.6731  -7.6731
     0.9696   0.9698   1.3670   1.4365   1.8258   2.0096   2.2995   2.3723
     2.7015   2.7015   3.9122   3.9122   4.7884   5.0658   5.0658   5.5201
     5.5201   5.6376   5.6376   5.7062   5.9645   6.0219   6.0219   6.8127
     6.8127   6.8458   6.9088   7.0158   7.2570   7.2570   7.2829   7.2829
     8.0937   8.0975   8.1255   8.1255   9.1018   9.1054  10.0873  10.0873
    12.2134  12.2134  13.3908  13.3931  13.5437  13.5437  14.0566  14.1926
    14.1926  14.9819  15.2195  15.2260  15.8979  16.5128

          k = 0.0000 0.0000 0.2227 ( 31059 PWs)   bands (ev):

   -66.1466 -66.1464 -66.1448 -66.1446 -30.5265 -30.5265 -30.5249 -30.5249
   -30.4858 -30.4800 -30.4561 -30.4509 -30.4302 -30.4302 -30.4289 -30.4289
   -20.2985 -20.2985 -20.2984 -20.2984 -20.2785 -20.2785 -20.2785 -20.2785
   -20.2773 -20.2773 -20.2772 -20.2772 -20.2747 -20.2744 -20.2719 -20.2716
   -20.2671 -20.2671 -20.2668 -20.2667 -20.2665 -20.2665 -20.2663 -20.2662
   -20.2614 -20.2614 -20.2609 -20.2609  -9.9393  -9.8153  -9.1421  -9.1342
    -8.7029  -8.5940  -8.0958  -8.0156  -7.6874  -7.6874  -7.6770  -7.6770
     0.9696   0.9698   1.4148   1.4343   2.3145   2.3566   2.4003   2.7178
     2.8959   2.8959   3.5703   3.5703   4.1431   4.8078   5.1651   5.1651
     5.4449   5.4449   5.6785   5.6785   5.9569   5.9569   6.0836   6.5614
     6.8818   6.9800   7.0833   7.0833   7.2622   7.2622   7.2848   7.2848
     7.9095   7.9095   8.0957   8.0971   9.1026   9.1047  10.5864  10.5864
    11.8034  11.8034  13.3912  13.3926  13.6218  13.6218  13.9911  13.9911
    14.7144  15.2208  15.2244  15.5661  15.9287  16.9114

          k = 0.0000 0.0000-0.3341 ( 31108 PWs)   bands (ev):

   -66.1465 -66.1465 -66.1447 -66.1447 -30.5257 -30.5257 -30.5257 -30.5257
   -30.4710 -30.4710 -30.4655 -30.4655 -30.4295 -30.4295 -30.4295 -30.4295
   -20.2985 -20.2985 -20.2984 -20.2984 -20.2785 -20.2785 -20.2785 -20.2785
   -20.2773 -20.2773 -20.2773 -20.2773 -20.2733 -20.2733 -20.2730 -20.2730
   -20.2668 -20.2668 -20.2668 -20.2668 -20.2668 -20.2668 -20.2663 -20.2663
   -20.2612 -20.2612 -20.2611 -20.2611  -9.8705  -9.8705  -9.1382  -9.1382
    -8.4050  -8.4050  -8.3372  -8.3372  -7.6822  -7.6822  -7.6822  -7.6822
     0.9697   0.9697   1.4290   1.4290   2.3354   2.3354   3.1997   3.1997
     3.1997   3.1997   3.2565   3.2565   3.7169   3.7169   5.3249   5.3249
     5.3249   5.3249   5.7776   5.7776   5.7776   5.7776   6.2802   6.2802
     6.9309   6.9309   7.2624   7.2624   7.2624   7.2624   7.5410   7.5410
     7.5410   7.5410   8.0965   8.0965   9.1036   9.1036  11.2148  11.2148
    11.2148  11.2148  13.3919  13.3919  13.7771  13.7771  13.7771  13.7771
    15.2225  15.2225  15.3218  15.3218  16.4424  16.4424

          k = 0.0000 0.1667 0.0000 ( 31090 PWs)   bands (ev):

   -66.1466 -66.1462 -66.1450 -66.1446 -30.5215 -30.5209 -30.5196 -30.5177
   -30.4984 -30.4954 -30.4428 -30.4404 -30.4374 -30.4347 -30.4343 -30.4314
   -20.2985 -20.2985 -20.2984 -20.2984 -20.2785 -20.2784 -20.2784 -20.2784
   -20.2774 -20.2774 -20.2773 -20.2773 -20.2760 -20.2758 -20.2705 -20.2702
   -20.2678 -20.2674 -20.2669 -20.2665 -20.2665 -20.2659 -20.2658 -20.2653
   -20.2620 -20.2618 -20.2611 -20.2609  -9.9233  -9.6572  -9.0670  -9.0511
    -9.0067  -8.7842  -7.8651  -7.8537  -7.8156  -7.7952  -7.7312  -7.6416
     1.2429   1.2441   1.4232   1.6656   1.7141   1.8879   2.4701   2.5602
     2.7073   2.7280   4.0123   4.0481   4.6813   4.7903   4.9828   5.2551
     5.3235   5.3755   5.4696   5.8854   5.9274   6.0792   6.3664   6.5563
     6.5630   6.6720   6.6895   6.8168   6.9511   7.0861   7.1696   7.2301
     8.0202   8.0275   8.1478   8.1775   9.7363   9.7842  10.1665  10.2621
    12.4051  12.4435  13.1835  13.2607  13.3874  13.5740  13.9780  14.0914
    14.1678  15.0541  15.4239  15.4533  15.4622  17.1626

          k = 0.0000 0.1667 0.1114 ( 31091 PWs)   bands (ev):

   -66.1466 -66.1462 -66.1450 -66.1446 -30.5213 -30.5207 -30.5195 -30.5179
   -30.4947 -30.4916 -30.4449 -30.4444 -30.4372 -30.4349 -30.4344 -30.4331
   -20.2985 -20.2985 -20.2984 -20.2984 -20.2784 -20.2784 -20.2784 -20.2784
   -20.2774 -20.2774 -20.2773 -20.2773 -20.2757 -20.2754 -20.2709 -20.2706
   -20.2678 -20.2674 -20.2669 -20.2665 -20.2665 -20.2660 -20.2658 -20.2653
   -20.2619 -20.2617 -20.2611 -20.2609  -9.8967  -9.6683  -9.0659  -9.0520
    -8.9330  -8.7353  -7.8981  -7.8520  -7.8144  -7.8090  -7.7966  -7.7364
     1.2429   1.2440   1.5626   1.7133   1.8444   2.0476   2.4769   2.5542
     2.7787   2.7919   3.8915   3.9332   4.6984   4.7584   4.8056   5.2481
     5.2671   5.3582   5.3956   5.7135   5.9121   5.9994   6.3891   6.5582
     6.5588   6.6795   6.6912   6.8894   6.9355   7.0906   7.1702   7.2337
     8.0192   8.0241   8.0816   8.1133   9.7463   9.7809  10.3274  10.4116
    12.2707  12.3122  13.1907  13.2918  13.3815  13.5827  14.0014  14.0864
    14.3170  15.1932  15.4537  15.4617  15.8318  16.7926

          k = 0.0000 0.1667 0.2227 ( 31086 PWs)   bands (ev):

   -66.1465 -66.1463 -66.1449 -66.1447 -30.5207 -30.5201 -30.5196 -30.5185
   -30.4844 -30.4811 -30.4553 -30.4533 -30.4367 -30.4354 -30.4349 -30.4348
   -20.2985 -20.2985 -20.2984 -20.2984 -20.2784 -20.2784 -20.2784 -20.2784
   -20.2774 -20.2774 -20.2773 -20.2773 -20.2747 -20.2744 -20.2719 -20.2716
   -20.2677 -20.2675 -20.2667 -20.2665 -20.2665 -20.2662 -20.2657 -20.2655
   -20.2618 -20.2616 -20.2613 -20.2611  -9.8316  -9.7023  -9.0630  -9.0550
    -8.7245  -8.5852  -8.1092  -8.0329  -7.8471  -7.8241  -7.8105  -7.8004
     1.2431   1.2438   1.6765   1.7102   2.4031   2.4937   2.5333   2.6652
     2.9802   3.0121   3.5787   3.6275   4.1279   4.7984   4.8216   4.9195
     5.1816   5.2044   5.3634   5.3911   5.7071   5.7400   6.4665   6.5480
     6.5763   6.7307   6.9988   7.0077   7.0501   7.1048   7.2031   7.2586
     7.8592   7.8866   8.0280   8.0347   9.7602   9.7755  10.7583  10.8266
    11.8824  11.9306  13.2317  13.3427  13.3952  13.6194  13.7888  13.9000
    15.0138  15.4549  15.4600  15.7177  16.2140  16.8398

          k = 0.0000 0.1667-0.3341 ( 31080 PWs)   bands (ev):

   -66.1464 -66.1464 -66.1448 -66.1448 -30.5201 -30.5201 -30.5193 -30.5193
   -30.4700 -30.4699 -30.4670 -30.4670 -30.4360 -30.4360 -30.4351 -30.4351
   -20.2985 -20.2985 -20.2984 -20.2984 -20.2784 -20.2784 -20.2784 -20.2784
   -20.2774 -20.2773 -20.2773 -20.2773 -20.2733 -20.2733 -20.2731 -20.2731
   -20.2676 -20.2676 -20.2665 -20.2665 -20.2664 -20.2664 -20.2656 -20.2656
   -20.2615 -20.2615 -20.2613 -20.2613  -9.7591  -9.7591  -9.0590  -9.0590
    -8.4237  -8.4237  -8.3377  -8.3377  -7.8392  -7.8392  -7.8055  -7.8055
     1.2434   1.2434   1.7020   1.7020   2.5150   2.5150   3.2026   3.2026
     3.2553   3.2553   3.2749   3.2749   3.7503   3.7503   5.0155   5.0155
     5.0967   5.0967   5.4521   5.4521   5.4906   5.4906   6.5427   6.5427
     6.6177   6.6177   7.0760   7.0760   7.1685   7.1685   7.5015   7.5015
     7.5400   7.5400   8.0300   8.0300   9.7693   9.7693  11.3290  11.3290
    11.3865  11.3865  13.2983  13.2983  13.5538  13.5538  13.7255  13.7255
    15.4572  15.4572  15.6239  15.6239  16.5828  16.5828

          k = 0.0000 0.3333 0.0000 ( 31158 PWs)   bands (ev):

   -66.1463 -66.1459 -66.1453 -66.1450 -30.5101 -30.5053 -30.5034 -30.5003
   -30.4983 -30.4896 -30.4599 -30.4552 -30.4524 -30.4505 -30.4385 -30.4332
   -20.2985 -20.2985 -20.2984 -20.2984 -20.2783 -20.2781 -20.2781 -20.2781
   -20.2776 -20.2776 -20.2775 -20.2774 -20.2759 -20.2758 -20.2707 -20.2704
   -20.2681 -20.2677 -20.2672 -20.2671 -20.2658 -20.2650 -20.2645 -20.2639
   -20.2630 -20.2623 -20.2622 -20.2615  -9.6475  -9.3335  -9.0914  -8.8417
    -8.8244  -8.7252  -8.3088  -8.2274  -8.1259  -8.1066  -7.7150  -7.6612
     1.5238   1.6203   1.9755   1.9886   2.3895   2.4629   2.8932   2.9166
     3.0878   3.1342   3.7600   3.7983   4.1503   4.2763   4.4956   4.5056
     4.9099   4.9181   5.2147   5.3756   5.3919   5.7530   5.9963   6.1187
     6.4422   6.4450   6.5111   6.6818   7.0395   7.2195   7.3201   7.5173
     7.8054   7.8083   7.9851   8.0926  10.7476  10.8458  10.8950  11.1310
    12.3923  12.4491  12.8382  12.9067  12.9217  13.0949  13.6331  13.7837
    14.4392  15.2184  15.7518  16.4962  16.5298  17.7111

          k = 0.0000 0.3333 0.1114 ( 31139 PWs)   bands (ev):

   -66.1462 -66.1459 -66.1453 -66.1450 -30.5085 -30.5052 -30.5032 -30.5005
   -30.4946 -30.4874 -30.4605 -30.4550 -30.4525 -30.4505 -30.4424 -30.4364
   -20.2985 -20.2985 -20.2984 -20.2984 -20.2783 -20.2781 -20.2781 -20.2781
   -20.2776 -20.2776 -20.2775 -20.2774 -20.2755 -20.2754 -20.2710 -20.2708
   -20.2681 -20.2677 -20.2672 -20.2671 -20.2658 -20.2650 -20.2645 -20.2640
   -20.2630 -20.2623 -20.2622 -20.2616  -9.6134  -9.3448  -9.0215  -8.8407
    -8.8253  -8.6839  -8.3222  -8.2220  -8.1246  -8.1079  -7.8095  -7.7586
     1.7496   1.8439   1.9764   1.9878   2.3894   2.4804   2.9616   2.9662
     3.1031   3.1305   3.7171   3.7748   4.1824   4.3074   4.5089   4.5151
     4.6904   4.7684   5.0175   5.3704   5.3708   5.5786   5.7426   5.9207
     6.5432   6.5768   6.7362   6.7708   7.0508   7.2104   7.3273   7.5048
     7.8029   7.8035   7.9275   8.0339  10.7811  10.8680  10.9726  11.2033
    12.3641  12.4560  12.7628  12.8288  12.9029  13.1003  13.5321  13.6924
    14.8139  15.6075  15.8636  16.4986  16.5266  17.3783

          k = 0.0000 0.3333 0.2227 ( 31107 PWs)   bands (ev):

   -66.1462 -66.1460 -66.1452 -66.1450 -30.5061 -30.5050 -30.5026 -30.5010
   -30.4847 -30.4797 -30.4636 -30.4545 -30.4531 -30.4529 -30.4502 -30.4436
   -20.2985 -20.2985 -20.2984 -20.2984 -20.2782 -20.2781 -20.2781 -20.2781
   -20.2775 -20.2775 -20.2775 -20.2775 -20.2746 -20.2745 -20.2720 -20.2718
   -20.2680 -20.2678 -20.2672 -20.2671 -20.2656 -20.2652 -20.2644 -20.2641
   -20.2628 -20.2624 -20.2621 -20.2617  -9.5313  -9.3804  -8.8413  -8.8378
    -8.8142  -8.5518  -8.3841  -8.2020  -8.1214  -8.1114  -8.0447  -7.9820
     1.9788   1.9855   2.2429   2.3858   2.4125   2.6612   3.0376   3.1246
     3.1977   3.2020   3.5431   3.6457   4.0893   4.3131   4.3798   4.4949
     4.5680   4.6055   4.7553   4.9568   5.1797   5.3035   5.3877   5.4403
     6.8843   6.9080   7.0014   7.0324   7.0955   7.1938   7.3663   7.4597
     7.7237   7.7635   7.8254   7.8830  10.8308  10.8672  11.2621  11.4547
    12.1318  12.2812  12.7173  12.7689  12.8939  13.1268  13.2991  13.4789
    15.6732  16.1833  16.5045  16.5180  16.6181  16.8859

          k = 0.0000 0.3333-0.3341 ( 31132 PWs)   bands (ev):

   -66.1461 -66.1461 -66.1452 -66.1451 -30.5051 -30.5050 -30.5018 -30.5018
   -30.4724 -30.4724 -30.4668 -30.4668 -30.4538 -30.4538 -30.4487 -30.4487
   -20.2985 -20.2985 -20.2984 -20.2984 -20.2782 -20.2781 -20.2781 -20.2781
   -20.2775 -20.2775 -20.2775 -20.2775 -20.2733 -20.2733 -20.2732 -20.2732
   -20.2679 -20.2679 -20.2672 -20.2671 -20.2654 -20.2654 -20.2643 -20.2643
   -20.2626 -20.2626 -20.2619 -20.2619  -9.4441  -9.4441  -8.8340  -8.8340
    -8.5682  -8.5682  -8.3245  -8.3245  -8.1455  -8.1455  -8.1161  -8.1161
     1.9822   1.9822   2.3673   2.3673   3.0401   3.0401   3.2183   3.2183
     3.2776   3.2776   3.4160   3.4160   3.7752   3.7752   4.4800   4.4800
     4.5663   4.5663   4.7907   4.7907   4.8972   4.8972   5.3833   5.3833
     6.9892   6.9892   7.1522   7.1522   7.3126   7.3126   7.4301   7.4301
     7.5417   7.5417   7.8260   7.8260  10.8567  10.8567  11.6912  11.6912
    11.8637  11.8637  12.7796  12.7796  12.9997  12.9997  13.2780  13.2780
    16.3594  16.3594  16.5157  16.5157  16.9499  16.9499

          k = 0.0000-0.5000 0.0000 ( 31138 PWs)   bands (ev):

   -66.1458 -66.1458 -66.1454 -66.1454 -30.5028 -30.5028 -30.4828 -30.4828
   -30.4793 -30.4793 -30.4764 -30.4764 -30.4716 -30.4716 -30.4358 -30.4358
   -20.2985 -20.2985 -20.2984 -20.2984 -20.2780 -20.2780 -20.2779 -20.2779
   -20.2778 -20.2778 -20.2777 -20.2777 -20.2758 -20.2758 -20.2706 -20.2706
   -20.2679 -20.2679 -20.2676 -20.2676 -20.2644 -20.2644 -20.2636 -20.2636
   -20.2633 -20.2633 -20.2626 -20.2626  -9.3098  -9.3098  -8.8539  -8.8539
    -8.5733  -8.5733  -8.5009  -8.5009  -8.4782  -8.4781  -7.6881  -7.6881
     1.5730   1.5730   2.8172   2.8172   2.9827   2.9827   2.9992   2.9992
     3.2108   3.2108   3.8484   3.8484   3.8616   3.8616   4.0617   4.0617
     4.1698   4.1698   4.8830   4.8830   5.4067   5.4067   6.0909   6.0909
     6.3595   6.3595   6.4986   6.4986   7.4853   7.4853   7.5024   7.5025
     7.6461   7.6461   7.8784   7.8784  11.6695  11.6695  11.6933  11.6933
    12.0177  12.0177  12.1596  12.1596  13.1265  13.1265  13.2845  13.2845
    14.8798  14.8798  16.7256  16.7256  17.8841  17.8841

          k = 0.0000-0.5000 0.1114 ( 31140 PWs)   bands (ev):

   -66.1458 -66.1458 -66.1454 -66.1454 -30.4997 -30.4997 -30.4829 -30.4829
   -30.4791 -30.4791 -30.4766 -30.4766 -30.4710 -30.4710 -30.4395 -30.4395
   -20.2985 -20.2985 -20.2984 -20.2984 -20.2780 -20.2780 -20.2779 -20.2779
   -20.2778 -20.2778 -20.2777 -20.2777 -20.2755 -20.2755 -20.2710 -20.2710
   -20.2678 -20.2678 -20.2676 -20.2676 -20.2644 -20.2644 -20.2637 -20.2637
   -20.2632 -20.2632 -20.2626 -20.2626  -9.2573  -9.2573  -8.8656  -8.8656
    -8.5519  -8.5519  -8.4998  -8.4998  -8.4777  -8.4777  -7.7847  -7.7847
     1.8038   1.8038   2.8340   2.8340   2.9814   2.9814   3.0267   3.0267
     3.2004   3.2004   3.8857   3.8857   3.9061   3.9061   4.0612   4.0612
     4.1777   4.1777   4.6686   4.6686   5.1578   5.1578   5.8131   5.8131
     6.6066   6.6066   6.6384   6.6384   7.4766   7.4767   7.5013   7.5013
     7.6200   7.6200   7.8414   7.8415  11.7219  11.7219  11.7344  11.7344
    12.0291  12.0291  12.1854  12.1854  13.0051  13.0051  13.1701  13.1701
    15.2716  15.2716  16.7914  16.7914  17.7558  17.7558

          k = 0.0000-0.5000 0.2227 ( 31130 PWs)   bands (ev):

   -66.1457 -66.1457 -66.1455 -66.1455 -30.4922 -30.4922 -30.4835 -30.4835
   -30.4786 -30.4786 -30.4771 -30.4771 -30.4683 -30.4683 -30.4492 -30.4492
   -20.2985 -20.2985 -20.2984 -20.2984 -20.2779 -20.2779 -20.2778 -20.2778
   -20.2778 -20.2778 -20.2777 -20.2777 -20.2746 -20.2746 -20.2720 -20.2720
   -20.2678 -20.2678 -20.2676 -20.2676 -20.2642 -20.2642 -20.2638 -20.2638
   -20.2631 -20.2631 -20.2628 -20.2628  -9.1270  -9.1270  -8.9061  -8.9060
    -8.4992  -8.4992  -8.4970  -8.4969  -8.4498  -8.4498  -8.0220  -8.0220
     2.4151   2.4151   2.8747   2.8747   2.9626   2.9626   3.1176   3.1177
     3.1625   3.1625   3.9467   3.9467   3.9892   3.9892   4.0899   4.0899
     4.2337   4.2337   4.2436   4.2436   4.7401   4.7401   5.1133   5.1133
     6.9708   6.9708   7.0088   7.0088   7.4437   7.4438   7.4608   7.4608
     7.5730   7.5730   7.7339   7.7339  11.8231  11.8231  11.8352  11.8352
    12.1002  12.1002  12.2920  12.2920  12.7022  12.7022  12.8818  12.8818
    16.2320  16.2320  16.9774  16.9774  17.4980  17.4980

          k = 0.0000-0.5000-0.3341 ( 31128 PWs)   bands (ev):

   -66.1456 -66.1456 -66.1456 -66.1456 -30.4860 -30.4859 -30.4859 -30.4859
   -30.4779 -30.4779 -30.4779 -30.4778 -30.4607 -30.4607 -30.4607 -30.4607
   -20.2985 -20.2985 -20.2985 -20.2984 -20.2778 -20.2778 -20.2778 -20.2778
   -20.2778 -20.2778 -20.2778 -20.2778 -20.2733 -20.2733 -20.2733 -20.2733
   -20.2677 -20.2677 -20.2677 -20.2677 -20.2641 -20.2641 -20.2640 -20.2640
   -20.2630 -20.2629 -20.2629 -20.2629  -8.9915  -8.9914  -8.9914  -8.9914
    -8.4938  -8.4938  -8.4938  -8.4938  -8.2808  -8.2808  -8.2808  -8.2808
     2.9132   2.9132   2.9132   2.9132   3.0392   3.0392   3.0392   3.0392
     3.4147   3.4147   3.4147   3.4147   4.0683   4.0683   4.0683   4.0683
     4.3674   4.3674   4.3674   4.3674   4.5106   4.5107   4.5107   4.5107
     7.2608   7.2608   7.2608   7.2608   7.3311   7.3311   7.3311   7.3311
     7.6099   7.6099   7.6099   7.6099  11.8751  11.8751  11.8751  11.8751
    12.3345  12.3345  12.3345  12.3346  12.5545  12.5545  12.5545  12.5546
    17.1810  17.1810  17.1810  17.1810  17.4237  17.4238

          k = 0.1667 0.1667 0.0000 ( 31116 PWs)   bands (ev):

   -66.1465 -66.1461 -66.1451 -66.1447 -30.5287 -30.5254 -30.5066 -30.5030
   -30.4964 -30.4923 -30.4588 -30.4526 -30.4398 -30.4347 -30.4297 -30.4270
   -20.2985 -20.2985 -20.2984 -20.2984 -20.2789 -20.2789 -20.2780 -20.2779
   -20.2778 -20.2777 -20.2769 -20.2768 -20.2759 -20.2758 -20.2706 -20.2703
   -20.2676 -20.2674 -20.2673 -20.2668 -20.2667 -20.2662 -20.2650 -20.2644
   -20.2627 -20.2618 -20.2616 -20.2606  -9.8584  -9.5964  -9.0346  -8.9839
    -8.9337  -8.7509  -8.1888  -8.1589  -7.7322  -7.7173  -7.6957  -7.6476
     1.1212   1.1355   1.5450   1.6547   2.2905   2.3486   2.6156   2.6355
     2.7301   2.9465   3.8525   3.8838   4.3354   4.5765   4.9460   4.9476
     5.2050   5.4344   5.4872   5.8652   5.9133   6.0943   6.3005   6.3459
     6.5077   6.5348   6.5765   6.7620   6.8096   6.9611   7.0945   7.3766
     7.8781   7.9145   8.0244   8.2222   9.9070  10.2568  10.3050  10.9439
    12.2366  12.6885  12.7037  13.2341  13.3486  13.5221  13.7636  14.0849
    14.2767  15.2425  15.3454  15.5542  15.8616  17.6052

          k = 0.1667 0.1667 0.1114 ( 31132 PWs)   bands (ev):

   -66.1465 -66.1461 -66.1451 -66.1447 -30.5285 -30.5256 -30.5050 -30.5029
   -30.4927 -30.4902 -30.4591 -30.4526 -30.4437 -30.4382 -30.4295 -30.4272
   -20.2985 -20.2985 -20.2984 -20.2984 -20.2789 -20.2789 -20.2780 -20.2779
   -20.2778 -20.2777 -20.2769 -20.2768 -20.2756 -20.2755 -20.2709 -20.2707
   -20.2676 -20.2674 -20.2673 -20.2668 -20.2667 -20.2663 -20.2650 -20.2644
   -20.2626 -20.2619 -20.2615 -20.2607  -9.8313  -9.6069  -8.9767  -8.9619
    -8.9356  -8.7089  -8.1983  -8.1559  -7.8265  -7.7495  -7.7157  -7.6971
     1.1276   1.1354   1.7569   1.8860   2.2900   2.3769   2.6435   2.6754
     2.7303   3.0078   3.7941   3.8313   4.2680   4.5924   4.7195   4.9133
     5.0953   5.4279   5.4407   5.7165   5.7737   5.9992   6.3278   6.4923
     6.5035   6.5520   6.6710   6.7315   6.8489   6.9752   7.0200   7.3705
     7.8820   7.9104   7.9794   8.1420  10.0997  10.2620  10.3081  11.0410
    12.1542  12.5635  12.6928  13.2117  13.3612  13.5364  13.6857  14.1907
    14.3908  15.3750  15.5417  15.7546  15.8845  17.1286

          k = 0.1667 0.1667 0.2227 ( 31121 PWs)   bands (ev):

   -66.1464 -66.1462 -66.1450 -66.1448 -30.5279 -30.5262 -30.5028 -30.5025
   -30.4826 -30.4822 -30.4611 -30.4544 -30.4527 -30.4464 -30.4290 -30.4277
   -20.2985 -20.2985 -20.2984 -20.2984 -20.2789 -20.2789 -20.2780 -20.2779
   -20.2777 -20.2777 -20.2769 -20.2768 -20.2747 -20.2745 -20.2719 -20.2717
   -20.2675 -20.2674 -20.2671 -20.2668 -20.2667 -20.2665 -20.2649 -20.2645
   -20.2625 -20.2621 -20.2614 -20.2609  -9.7656  -9.6391  -8.9621  -8.9409
    -8.7589  -8.5714  -8.2547  -8.1455  -8.0564  -7.9850  -7.7119  -7.7011
     1.1325   1.1351   2.1958   2.2855   2.4111   2.6522   2.7025   2.7116
     2.8812   3.2006   3.5511   3.6106   4.1110   4.3440   4.6049   4.6527
     4.9299   5.1608   5.2681   5.3738   5.5358   5.9085   6.4099   6.5374
     6.5444   6.6495   6.7558   6.7663   7.0269   7.0519   7.1859   7.3480
     7.7902   7.8500   7.9139   7.9536  10.2730  10.2874  10.6165  11.3274
    11.8051  12.2171  12.7632  13.1199  13.3824  13.5141  13.6244  13.9878
    14.9764  15.4912  15.8529  16.0247  16.6083  16.7471

          k = 0.1667 0.1667-0.3341 ( 31118 PWs)   bands (ev):

   -66.1463 -66.1463 -66.1449 -66.1449 -30.5271 -30.5271 -30.5022 -30.5022
   -30.4697 -30.4697 -30.4687 -30.4687 -30.4517 -30.4517 -30.4284 -30.4283
   -20.2985 -20.2985 -20.2984 -20.2984 -20.2789 -20.2789 -20.2780 -20.2780
   -20.2777 -20.2777 -20.2769 -20.2769 -20.2733 -20.2733 -20.2731 -20.2731
   -20.2675 -20.2674 -20.2668 -20.2668 -20.2667 -20.2667 -20.2647 -20.2647
   -20.2623 -20.2623 -20.2611 -20.2611  -9.6940  -9.6940  -8.9497  -8.9497
    -8.4759  -8.4759  -8.3352  -8.3352  -8.1162  -8.1162  -7.7065  -7.7065
     1.1343   1.1343   2.2701   2.2701   2.6825   2.6825   3.1816   3.1816
     3.2382   3.2382   3.3316   3.3317   3.7551   3.7551   4.5598   4.5598
     4.8361   4.8361   5.3154   5.3154   5.6622   5.6622   6.5084   6.5084
     6.5805   6.5805   6.7557   6.7557   7.2345   7.2345   7.4940   7.4940
     7.5086   7.5086   7.9192   7.9192  10.2831  10.2831  11.2360  11.2360
    11.7568  11.7568  12.9378  12.9378  13.4209  13.4209  13.7738  13.7738
    15.3432  15.3432  16.1741  16.1741  16.8016  16.8016

          k = 0.1667 0.3333 0.0000 ( 31159 PWs)   bands (ev):

   -66.1462 -66.1458 -66.1454 -66.1450 -30.5236 -30.5210 -30.5005 -30.4998
   -30.4833 -30.4790 -30.4755 -30.4718 -30.4397 -30.4380 -30.4324 -30.4319
   -20.2985 -20.2985 -20.2984 -20.2984 -20.2792 -20.2792 -20.2786 -20.2786
   -20.2772 -20.2771 -20.2767 -20.2766 -20.2758 -20.2758 -20.2706 -20.2705
   -20.2679 -20.2675 -20.2672 -20.2671 -20.2665 -20.2657 -20.2638 -20.2637
   -20.2631 -20.2630 -20.2618 -20.2609  -9.6688  -9.4027  -9.1476  -8.8439
    -8.6447  -8.6255  -8.5658  -8.5118  -7.8726  -7.8600  -7.7114  -7.6645
     1.3639   1.4162   1.6219   1.6260   2.6587   2.8797   2.9735   3.0856
     3.1475   3.2986   3.3558   3.7870   3.9281   4.2249   4.6429   4.8350
     4.9493   4.9957   5.2127   5.7320   5.7813   5.8049   5.9059   6.0572
     6.3408   6.4400   6.6742   6.7231   6.7821   6.9494   7.0023   7.5716
     7.6011   7.7672   7.7751   8.1883  10.2132  11.1990  11.2462  11.7066
    11.8205  12.5667  12.8368  12.8631  13.0670  13.2502  13.3806  14.1150
    14.3128  15.1063  15.8591  16.1314  16.8481  17.8556

          k = 0.1667 0.3333 0.1114 ( 31139 PWs)   bands (ev):

   -66.1462 -66.1458 -66.1454 -66.1450 -30.5234 -30.5210 -30.4972 -30.4965
   -30.4832 -30.4790 -30.4751 -30.4716 -30.4422 -30.4418 -30.4330 -30.4326
   -20.2985 -20.2985 -20.2984 -20.2984 -20.2792 -20.2792 -20.2786 -20.2786
   -20.2772 -20.2771 -20.2766 -20.2766 -20.2755 -20.2755 -20.2710 -20.2708
   -20.2678 -20.2675 -20.2672 -20.2671 -20.2665 -20.2657 -20.2638 -20.2636
   -20.2631 -20.2630 -20.2617 -20.2610  -9.6386  -9.4120  -9.0855  -8.8107
    -8.6520  -8.6283  -8.5535  -8.4989  -7.8712  -7.8709  -7.8025  -7.7609
     1.3932   1.4160   1.8044   1.8828   2.7255   2.9002   2.9899   3.0917
     3.1496   3.3012   3.3478   3.7788   3.9784   4.1189   4.6386   4.6705
     4.9062   4.9206   5.0344   5.4851   5.7486   5.7822   5.8144   5.9644
     6.4494   6.6203   6.6503   6.7629   6.8430   6.9212   7.0401   7.5728
     7.5946   7.7352   7.7405   8.1099  10.3762  11.2015  11.2454  11.7700
    11.8823  12.4287  12.8080  12.8530  13.0157  13.1602  13.3608  14.0250
    14.6361  15.4895  15.9783  16.1044  16.8825  17.6024

          k = 0.1667 0.3333 0.2227 ( 31125 PWs)   bands (ev):

   -66.1461 -66.1459 -66.1453 -66.1451 -30.5228 -30.5214 -30.4892 -30.4886
   -30.4833 -30.4792 -30.4725 -30.4702 -30.4518 -30.4512 -30.4338 -30.4330
   -20.2985 -20.2985 -20.2984 -20.2984 -20.2792 -20.2792 -20.2786 -20.2786
   -20.2771 -20.2771 -20.2766 -20.2766 -20.2746 -20.2745 -20.2719 -20.2718
   -20.2677 -20.2675 -20.2672 -20.2671 -20.2663 -20.2659 -20.2636 -20.2635
   -20.2633 -20.2632 -20.2616 -20.2611  -9.5674  -9.4414  -8.9262  -8.7305
    -8.6790  -8.6383  -8.4918  -8.4455  -8.0537  -8.0222  -7.8667  -7.8505
     1.4088   1.4152   2.4034   2.5127   2.9029   2.9735   2.9994   3.1324
     3.1609   3.3104   3.3244   3.5842   4.0938   4.1092   4.1475   4.3834
     4.7665   4.8307   4.9987   5.0382   5.0799   5.5963   5.8144   5.8597
     6.6470   6.7895   6.8089   6.8458   7.0072   7.0713   7.1952   7.5583
     7.5698   7.6304   7.6513   7.8872  10.8034  11.2077  11.2464  11.8393
    12.0694  12.1598  12.6544  12.7027  12.9176  13.0127  13.4153  13.8109
    15.2975  16.0029  16.3402  16.4548  17.0317  17.2433

          k = 0.1667 0.3333-0.3341 ( 31112 PWs)   bands (ev):

   -66.1460 -66.1460 -66.1452 -66.1452 -30.5221 -30.5221 -30.4843 -30.4843
   -30.4813 -30.4813 -30.4637 -30.4637 -30.4636 -30.4636 -30.4335 -30.4335
   -20.2985 -20.2985 -20.2984 -20.2984 -20.2792 -20.2792 -20.2786 -20.2786
   -20.2771 -20.2771 -20.2766 -20.2766 -20.2733 -20.2733 -20.2732 -20.2732
   -20.2676 -20.2676 -20.2672 -20.2672 -20.2661 -20.2661 -20.2635 -20.2635
   -20.2634 -20.2634 -20.2614 -20.2614  -9.4940  -9.4939  -8.7662  -8.7648
    -8.6633  -8.6612  -8.3167  -8.3118  -8.2938  -8.2890  -7.8605  -7.8601
     1.4129   1.4138   2.9332   2.9382   3.0461   3.0712   3.1522   3.1680
     3.2591   3.3401   3.3673   3.4099   3.6071   3.6202   4.3604   4.3694
     4.4571   4.4629   4.8400   4.9585   5.2156   5.3260   5.8194   5.8294
     6.7342   6.7591   6.8469   6.8715   7.3271   7.3590   7.3875   7.4324
     7.4416   7.4847   7.6499   7.6723  11.1785  11.2113  11.3842  11.4396
    12.3258  12.3622  12.3763  12.3779  12.9038  12.9732  13.5577  13.6029
    15.7599  15.7806  16.8485  16.8651  17.4589  17.4681

          k = 0.1667-0.5000 0.0000 ( 31142 PWs)   bands (ev):

   -66.1458 -66.1458 -66.1454 -66.1454 -30.5084 -30.5084 -30.5070 -30.5070
   -30.4933 -30.4933 -30.4555 -30.4555 -30.4490 -30.4490 -30.4354 -30.4354
   -20.2985 -20.2985 -20.2984 -20.2984 -20.2791 -20.2791 -20.2790 -20.2790
   -20.2768 -20.2768 -20.2766 -20.2766 -20.2757 -20.2757 -20.2706 -20.2706
   -20.2677 -20.2677 -20.2674 -20.2674 -20.2652 -20.2652 -20.2645 -20.2645
   -20.2626 -20.2625 -20.2617 -20.2617  -9.3924  -9.3924  -9.0735  -9.0735
    -8.7306  -8.7306  -8.2209  -8.2209  -8.2108  -8.2108  -7.6878  -7.6878
     1.5700   1.5700   2.1354   2.1354   2.1620   2.1620   2.8721   2.8721
     3.7720   3.7720   4.0204   4.0204   4.1673   4.1674   4.3008   4.3008
     4.8061   4.8061   5.0606   5.0606   5.4636   5.4636   5.9672   5.9672
     6.5025   6.5025   6.5684   6.5684   7.1791   7.1791   7.2052   7.2052
     7.3486   7.3486   8.0476   8.0476  10.9153  10.9153  12.1173  12.1173
    12.1623  12.1623  12.6469  12.6469  12.7943  12.7943  13.7000  13.7000
    14.7227  14.7227  16.7897  16.7897  17.2874  17.2874

          k = 0.1667-0.5000 0.1114 ( 31132 PWs)   bands (ev):

   -66.1458 -66.1458 -66.1454 -66.1454 -30.5074 -30.5074 -30.5068 -30.5068
   -30.4907 -30.4907 -30.4560 -30.4560 -30.4491 -30.4491 -30.4386 -30.4386
   -20.2985 -20.2985 -20.2984 -20.2984 -20.2791 -20.2791 -20.2790 -20.2790
   -20.2768 -20.2768 -20.2766 -20.2766 -20.2755 -20.2755 -20.2709 -20.2709
   -20.2677 -20.2677 -20.2674 -20.2674 -20.2651 -20.2651 -20.2645 -20.2645
   -20.2625 -20.2625 -20.2618 -20.2618  -9.3514  -9.3514  -9.0820  -9.0820
    -8.6976  -8.6976  -8.2250  -8.2250  -8.2089  -8.2089  -7.7842  -7.7842
     1.7861   1.7861   2.1345   2.1345   2.1806   2.1806   2.9412   2.9412
     3.7402   3.7402   4.0147   4.0147   4.1688   4.1688   4.2903   4.2903
     4.8130   4.8130   4.9057   4.9057   5.2323   5.2323   5.8755   5.8755
     6.4863   6.4863   6.7761   6.7761   7.1719   7.1720   7.2095   7.2095
     7.3437   7.3437   7.9855   7.9855  11.0235  11.0235  12.1137  12.1137
    12.1597  12.1597  12.6622  12.6622  12.6937  12.6937  13.5964  13.5964
    15.0865  15.0865  16.8530  16.8530  17.2463  17.2463

          k = 0.1667-0.5000 0.2227 ( 31146 PWs)   bands (ev):

   -66.1457 -66.1457 -66.1455 -66.1455 -30.5065 -30.5065 -30.5062 -30.5062
   -30.4821 -30.4821 -30.4593 -30.4593 -30.4493 -30.4492 -30.4455 -30.4455
   -20.2985 -20.2985 -20.2984 -20.2984 -20.2791 -20.2791 -20.2790 -20.2790
   -20.2767 -20.2767 -20.2766 -20.2766 -20.2746 -20.2746 -20.2719 -20.2719
   -20.2677 -20.2676 -20.2675 -20.2675 -20.2650 -20.2650 -20.2647 -20.2647
   -20.2624 -20.2624 -20.2620 -20.2620  -9.2562  -9.2562  -9.1100  -9.1100
    -8.5846  -8.5845  -8.2494  -8.2494  -8.2001  -8.2001  -8.0128  -8.0128
     2.0889   2.0889   2.1309   2.1309   2.5069   2.5069   3.1513   3.1513
     3.5790   3.5790   3.9955   3.9955   4.0636   4.0636   4.3949   4.3949
     4.5014   4.5014   4.8450   4.8451   4.9049   4.9049   5.3539   5.3539
     6.8237   6.8237   7.0274   7.0274   7.1480   7.1480   7.2393   7.2393
     7.3416   7.3416   7.7997   7.7997  11.3279  11.3279  12.0811  12.0811
    12.1427  12.1427  12.3515  12.3515  12.8294  12.8294  13.3431  13.3431
    15.9205  15.9205  16.9628  16.9628  17.1877  17.1877

          k = 0.1667-0.5000-0.3341 ( 31128 PWs)   bands (ev):

   -66.1456 -66.1456 -66.1456 -66.1456 -30.5061 -30.5061 -30.5061 -30.5061
   -30.4695 -30.4695 -30.4695 -30.4695 -30.4488 -30.4488 -30.4488 -30.4488
   -20.2985 -20.2985 -20.2984 -20.2984 -20.2790 -20.2790 -20.2790 -20.2790
   -20.2767 -20.2767 -20.2767 -20.2767 -20.2733 -20.2733 -20.2732 -20.2732
   -20.2676 -20.2676 -20.2676 -20.2676 -20.2649 -20.2649 -20.2649 -20.2649
   -20.2622 -20.2622 -20.2622 -20.2622  -9.1662  -9.1662  -9.1660  -9.1660
    -8.3866  -8.3866  -8.3851  -8.3851  -8.1708  -8.1708  -8.1696  -8.1696
     2.1216   2.1216   2.1226   2.1226   3.1902   3.1902   3.1989   3.1989
     3.5848   3.5848   3.6157   3.6157   4.0056   4.0056   4.0828   4.0828
     4.6991   4.6991   4.7239   4.7240   4.9573   4.9573   4.9625   4.9625
     7.0473   7.0473   7.0556   7.0556   7.1828   7.1828   7.2381   7.2381
     7.5013   7.5013   7.5359   7.5359  11.7339  11.7339  11.7819  11.7819
    12.1303  12.1303  12.2299  12.2300  13.0344  13.0344  13.0792  13.0792
    16.6393  16.6393  16.6798  16.6798  17.4602  17.4603

          k = 0.3333 0.3333 0.0000 ( 31140 PWs)   bands (ev):

   -66.1460 -66.1456 -66.1456 -66.1452 -30.5315 -30.5282 -30.5088 -30.5083
   -30.4993 -30.4924 -30.4547 -30.4478 -30.4374 -30.4362 -30.4273 -30.4247
   -20.2985 -20.2985 -20.2984 -20.2984 -20.2799 -20.2798 -20.2795 -20.2795
   -20.2765 -20.2763 -20.2761 -20.2759 -20.2759 -20.2756 -20.2704 -20.2704
   -20.2674 -20.2674 -20.2671 -20.2670 -20.2670 -20.2662 -20.2650 -20.2643
   -20.2625 -20.2618 -20.2615 -20.2605  -9.6551  -9.4265  -9.3258  -9.0243
    -8.8307  -8.7162  -8.2449  -8.2358  -7.7668  -7.7438  -7.7043  -7.6738
     1.1259   1.1369   1.6073   1.6143   2.1237   2.1506   2.5530   2.8665
     3.6297   3.7118   4.0992   4.1425   4.2100   4.7568   4.8855   4.9478
     4.9985   5.1006   5.3735   5.6756   5.7710   5.7758   6.0381   6.1196
     6.2794   6.3032   6.4508   6.5474   6.7775   6.8118   7.0254   7.1000
     7.1156   7.3437   8.0396   8.2307   9.9307  10.9100  11.8681  11.9034
    12.4641  12.6228  12.6456  12.7018  12.8800  13.3846  13.7380  14.2140
    14.2759  14.7837  15.9257  16.3002  17.3294  17.4428

          k = 0.3333 0.3333 0.1114 ( 31142 PWs)   bands (ev):

   -66.1460 -66.1457 -66.1455 -66.1452 -30.5313 -30.5284 -30.5082 -30.5081
   -30.4954 -30.4894 -30.4554 -30.4479 -30.4413 -30.4394 -30.4271 -30.4248
   -20.2985 -20.2985 -20.2984 -20.2984 -20.2799 -20.2798 -20.2795 -20.2795
   -20.2764 -20.2763 -20.2761 -20.2760 -20.2755 -20.2754 -20.2708 -20.2708
   -20.2673 -20.2673 -20.2671 -20.2670 -20.2670 -20.2663 -20.2649 -20.2644
   -20.2625 -20.2618 -20.2614 -20.2606  -9.6282  -9.4343  -9.2844  -9.0316
    -8.7837  -8.6821  -8.2501  -8.2329  -7.8014  -7.7747  -7.7649  -7.7454
     1.1306   1.1369   1.7953   1.8785   2.1223   2.1716   2.6220   2.9392
     3.6289   3.7074   3.9660   3.9853   4.2721   4.7377   4.8188   4.9546
     4.9861   5.0064   5.1779   5.3821   5.8531   5.9507   5.9853   6.0898
     6.1411   6.2740   6.4751   6.7200   6.7647   6.8628   7.0040   7.0809
     7.0880   7.3361   7.9763   8.1447  10.1346  11.0218  11.8688  11.9013
    12.3135  12.5656  12.6620  12.7200  12.8216  13.3943  13.6551  14.1867
    14.5003  15.1365  15.8910  16.4255  17.2783  17.5016

          k = 0.3333 0.3333 0.2227 ( 31138 PWs)   bands (ev):

   -66.1459 -66.1457 -66.1455 -66.1453 -30.5307 -30.5290 -30.5078 -30.5073
   -30.4850 -30.4801 -30.4597 -30.4520 -30.4481 -30.4454 -30.4266 -30.4253
   -20.2985 -20.2985 -20.2984 -20.2984 -20.2798 -20.2798 -20.2795 -20.2795
   -20.2763 -20.2763 -20.2760 -20.2760 -20.2746 -20.2745 -20.2718 -20.2718
   -20.2673 -20.2672 -20.2671 -20.2670 -20.2670 -20.2665 -20.2648 -20.2645
   -20.2624 -20.2620 -20.2613 -20.2608  -9.5660  -9.4591  -9.1907  -9.0561
    -8.6387  -8.5618  -8.2761  -8.2226  -8.0427  -8.0176  -7.7611  -7.7496
     1.1345   1.1366   2.0767   2.1179   2.5039   2.5569   2.8239   3.1628
     3.5181   3.6609   3.6979   3.7065   4.4015   4.4505   4.4902   4.7391
     4.7999   4.9812   4.9934   5.2314   5.3976   5.7889   6.1160   6.1331
     6.1961   6.2819   6.5453   6.7996   6.8567   7.0075   7.0626   7.1206
     7.2078   7.3096   7.7846   7.8966  10.6446  11.3271  11.8463  11.8955
    11.9267  12.2511  12.7294  12.7696  12.8062  13.2873  13.6046  13.9755
    15.0810  15.7737  15.9482  16.8091  17.1033  17.7232

          k = 0.3333 0.3333-0.3341 ( 31136 PWs)   bands (ev):

   -66.1458 -66.1458 -66.1454 -66.1454 -30.5298 -30.5298 -30.5073 -30.5073
   -30.4713 -30.4713 -30.4663 -30.4663 -30.4479 -30.4479 -30.4260 -30.4260
   -20.2985 -20.2985 -20.2984 -20.2984 -20.2798 -20.2798 -20.2795 -20.2795
   -20.2763 -20.2763 -20.2760 -20.2760 -20.2732 -20.2732 -20.2732 -20.2732
   -20.2673 -20.2672 -20.2670 -20.2670 -20.2668 -20.2668 -20.2647 -20.2647
   -20.2622 -20.2622 -20.2610 -20.2610  -9.5034  -9.5034  -9.1062  -9.1062
    -8.4161  -8.4161  -8.3324  -8.3324  -8.1888  -8.1888  -7.7554  -7.7554
     1.1360   1.1360   2.1089   2.1089   3.1397   3.1397   3.2088   3.2088
     3.4768   3.4768   3.6544   3.6544   3.6910   3.6910   4.6708   4.6708
     4.8262   4.8262   5.0557   5.0557   5.5041   5.5041   6.1368   6.1368
     6.2647   6.2647   6.6552   6.6552   6.9899   6.9899   7.2102   7.2102
     7.4715   7.4715   7.5377   7.5377  11.2685  11.2685  11.7994  11.7994
    11.8894  11.8894  12.7488  12.7488  13.0250  13.0250  13.7519  13.7519
    15.5290  15.5290  16.7020  16.7020  17.3179  17.3180

          k = 0.3333-0.5000 0.0000 ( 31140 PWs)   bands (ev):

   -66.1458 -66.1458 -66.1454 -66.1454 -30.5260 -30.5260 -30.5232 -30.5232
   -30.4970 -30.4970 -30.4407 -30.4407 -30.4311 -30.4311 -30.4304 -30.4304
   -20.2985 -20.2985 -20.2984 -20.2984 -20.2800 -20.2800 -20.2799 -20.2799
   -20.2761 -20.2761 -20.2760 -20.2760 -20.2756 -20.2756 -20.2704 -20.2704
   -20.2675 -20.2675 -20.2670 -20.2670 -20.2661 -20.2661 -20.2655 -20.2655
   -20.2618 -20.2618 -20.2608 -20.2608  -9.5338  -9.5338  -9.3001  -9.3001
    -8.7971  -8.7971  -7.9151  -7.9151  -7.8995  -7.8995  -7.6878  -7.6878
     1.3668   1.3668   1.4011   1.4011   1.6659   1.6659   2.6277   2.6277
     4.1544   4.1544   4.3784   4.3784   4.3851   4.3851   4.7281   4.7281
     5.5108   5.5108   5.6718   5.6718   5.6962   5.6963   5.7727   5.7727
     6.4628   6.4628   6.5325   6.5325   6.7011   6.7011   6.8179   6.8179
     7.0082   7.0082   8.1847   8.1847  10.2309  10.2309  12.3995  12.3995
    12.4142  12.4142  12.5579  12.5579  13.2112  13.2112  14.1130  14.1130
    14.3931  14.3931  16.3623  16.3623  17.0444  17.0444

          k = 0.3333-0.5000 0.1114 ( 31146 PWs)   bands (ev):

   -66.1458 -66.1458 -66.1454 -66.1454 -30.5258 -30.5258 -30.5233 -30.5233
   -30.4932 -30.4932 -30.4439 -30.4439 -30.4316 -30.4316 -30.4305 -30.4305
   -20.2985 -20.2985 -20.2984 -20.2984 -20.2800 -20.2800 -20.2799 -20.2799
   -20.2761 -20.2761 -20.2759 -20.2759 -20.2755 -20.2755 -20.2708 -20.2708
   -20.2674 -20.2674 -20.2671 -20.2671 -20.2661 -20.2661 -20.2656 -20.2656
   -20.2617 -20.2617 -20.2609 -20.2609  -9.5045  -9.5045  -9.3074  -9.3074
    -8.7512  -8.7512  -7.9142  -7.9142  -7.9064  -7.9064  -7.7827  -7.7827
     1.3837   1.3837   1.4009   1.4009   1.8886   1.8886   2.6998   2.6998
     3.9882   3.9882   4.3461   4.3461   4.3813   4.3813   4.7843   4.7843
     5.2478   5.2478   5.6254   5.6254   5.6933   5.6933   5.9008   5.9008
     6.3469   6.3469   6.5208   6.5208   6.7798   6.7798   6.8552   6.8552
     6.9760   6.9760   8.1037   8.1037  10.3988  10.3988  12.3509  12.3510
    12.4066  12.4066  12.4697  12.4697  13.2475  13.2475  14.0185  14.0185
    14.7020  14.7020  16.3233  16.3233  17.1484  17.1484

          k = 0.3333-0.5000 0.2227 ( 31146 PWs)   bands (ev):

   -66.1457 -66.1457 -66.1455 -66.1455 -30.5252 -30.5252 -30.5237 -30.5237
   -30.4828 -30.4828 -30.4540 -30.4540 -30.4319 -30.4319 -30.4310 -30.4310
   -20.2985 -20.2985 -20.2984 -20.2984 -20.2800 -20.2800 -20.2799 -20.2799
   -20.2760 -20.2760 -20.2758 -20.2758 -20.2746 -20.2746 -20.2718 -20.2718
   -20.2673 -20.2673 -20.2671 -20.2671 -20.2660 -20.2660 -20.2657 -20.2657
   -20.2615 -20.2615 -20.2611 -20.2611  -9.4381  -9.4381  -9.3308  -9.3308
    -8.6042  -8.6042  -8.0599  -8.0599  -7.9082  -7.9082  -7.8894  -7.8894
     1.3949   1.3949   1.4002   1.4002   2.5233   2.5233   2.9230   2.9230
     3.5923   3.5923   4.3379   4.3379   4.3633   4.3633   4.5111   4.5111
     4.9630   4.9630   5.5055   5.5055   5.7031   5.7031   5.8206   5.8206
     6.3733   6.3733   6.5023   6.5023   6.8478   6.8478   6.9275   6.9275
     7.1112   7.1112   7.8660   7.8660  10.8404  10.8404  11.9734  11.9734
    12.4136  12.4136  12.4395  12.4395  13.3576  13.3576  13.7920  13.7920
    15.3579  15.3579  16.1889  16.1889  17.4725  17.4725

          k = 0.3333-0.5000-0.3341 ( 31120 PWs)   bands (ev):

   -66.1456 -66.1456 -66.1456 -66.1456 -30.5244 -30.5244 -30.5244 -30.5244
   -30.4684 -30.4684 -30.4684 -30.4684 -30.4315 -30.4315 -30.4315 -30.4315
   -20.2985 -20.2985 -20.2984 -20.2984 -20.2800 -20.2800 -20.2799 -20.2799
   -20.2759 -20.2759 -20.2759 -20.2759 -20.2732 -20.2732 -20.2732 -20.2732
   -20.2672 -20.2672 -20.2672 -20.2672 -20.2659 -20.2659 -20.2659 -20.2659
   -20.2613 -20.2613 -20.2613 -20.2613  -9.3741  -9.3741  -9.3740  -9.3740
    -8.3559  -8.3558  -8.3555  -8.3555  -7.9013  -7.9013  -7.9011  -7.9011
     1.3985   1.3985   1.3989   1.3989   3.1615   3.1615   3.1666   3.1666
     3.5321   3.5321   3.5363   3.5363   4.3450   4.3450   4.3748   4.3749
     5.2158   5.2158   5.2439   5.2439   5.7206   5.7206   5.7413   5.7413
     6.4520   6.4520   6.4681   6.4681   6.8916   6.8916   6.8991   6.8991
     7.4983   7.4983   7.5061   7.5061  11.4149  11.4149  11.4179  11.4179
    12.4167  12.4167  12.4355  12.4355  13.5397  13.5397  13.5523  13.5523
    15.8919  15.8919  15.9021  15.9021  17.8754  17.8839

          k =-0.5000-0.5000 0.0000 ( 31144 PWs)   bands (ev):

   -66.1458 -66.1458 -66.1454 -66.1454 -30.5329 -30.5329 -30.5295 -30.5295
   -30.4974 -30.4974 -30.4387 -30.4387 -30.4261 -30.4261 -30.4235 -30.4235
   -20.2985 -20.2985 -20.2984 -20.2984 -20.2804 -20.2804 -20.2802 -20.2802
   -20.2759 -20.2759 -20.2758 -20.2758 -20.2755 -20.2755 -20.2703 -20.2703
   -20.2674 -20.2674 -20.2666 -20.2666 -20.2665 -20.2665 -20.2662 -20.2662
   -20.2615 -20.2615 -20.2605 -20.2605  -9.5949  -9.5949  -9.3821  -9.3821
    -8.8118  -8.8117  -7.7922  -7.7922  -7.7676  -7.7676  -7.6898  -7.6898
     1.1204   1.1204   1.1259   1.1259   1.6495   1.6495   2.5302   2.5302
     4.2218   4.2218   4.6192   4.6192   4.6578   4.6578   4.9739   4.9739
     5.5423   5.5423   5.5620   5.5620   5.9729   5.9729   6.0673   6.0673
     6.1051   6.1051   6.3145   6.3145   6.4851   6.4851   6.8218   6.8218
     7.1104   7.1104   8.2281   8.2281   9.9419   9.9419  12.4565  12.4565
    12.4774  12.4774  12.5328  12.5328  13.4321  13.4322  14.2358  14.2358
    14.2799  14.2799  16.0163  16.0163  17.1839  17.1839

          k =-0.5000-0.5000 0.1114 ( 31148 PWs)   bands (ev):

   -66.1458 -66.1458 -66.1454 -66.1454 -30.5327 -30.5327 -30.5298 -30.5298
   -30.4935 -30.4935 -30.4427 -30.4427 -30.4259 -30.4259 -30.4237 -30.4237
   -20.2985 -20.2985 -20.2984 -20.2984 -20.2803 -20.2803 -20.2803 -20.2803
   -20.2758 -20.2758 -20.2756 -20.2756 -20.2755 -20.2755 -20.2707 -20.2707
   -20.2673 -20.2673 -20.2666 -20.2666 -20.2665 -20.2665 -20.2663 -20.2663
   -20.2614 -20.2614 -20.2606 -20.2606  -9.5689  -9.5689  -9.3892  -9.3892
    -8.7624  -8.7624  -7.7911  -7.7911  -7.7906  -7.7906  -7.7693  -7.7693
     1.1225   1.1225   1.1259   1.1259   1.8906   1.8906   2.6005   2.6005
     3.9919   3.9919   4.6220   4.6220   4.6538   4.6538   5.0351   5.0351
     5.2804   5.2804   5.7007   5.7007   5.9277   5.9277   6.0624   6.0624
     6.1120   6.1120   6.2895   6.2895   6.5087   6.5087   6.8602   6.8602
     7.0043   7.0043   8.1411   8.1411  10.1466  10.1466  12.3045  12.3045
    12.4906  12.4906  12.5317  12.5317  13.4634  13.4634  14.1886  14.1886
    14.5182  14.5182  15.9794  15.9794  17.3252  17.3252

          k =-0.5000-0.5000 0.2227 ( 31116 PWs)   bands (ev):

   -66.1457 -66.1457 -66.1455 -66.1455 -30.5321 -30.5321 -30.5304 -30.5304
   -30.4829 -30.4829 -30.4535 -30.4535 -30.4254 -30.4254 -30.4241 -30.4241
   -20.2985 -20.2985 -20.2984 -20.2984 -20.2803 -20.2803 -20.2803 -20.2803
   -20.2757 -20.2757 -20.2755 -20.2755 -20.2746 -20.2746 -20.2717 -20.2717
   -20.2671 -20.2671 -20.2665 -20.2665 -20.2665 -20.2665 -20.2665 -20.2665
   -20.2612 -20.2612 -20.2607 -20.2607  -9.5098  -9.5098  -9.4115  -9.4115
    -8.6076  -8.6076  -8.0469  -8.0469  -7.7861  -7.7861  -7.7738  -7.7738
     1.1246   1.1246   1.1258   1.1258   2.5571   2.5571   2.8071   2.8071
     3.5558   3.5558   4.4862   4.4862   4.6299   4.6299   4.6644   4.6644
     5.2065   5.2065   5.7218   5.7218   5.9386   5.9386   6.0520   6.0520
     6.1287   6.1287   6.2195   6.2195   6.5769   6.5769   6.8272   6.8272
     7.1027   7.1027   7.8882   7.8882  10.6584  10.6584  11.8844  11.8844
    12.5096  12.5096  12.5281  12.5281  13.5629  13.5629  13.9713  13.9713
    15.1070  15.1070  15.8536  15.8536  17.7992  17.7992

          k =-0.5000-0.5000-0.3341 ( 31088 PWs)   bands (ev):

   -66.1456 -66.1456 -66.1456 -66.1456 -30.5312 -30.5312 -30.5312 -30.5312
   -30.4682 -30.4682 -30.4682 -30.4682 -30.4248 -30.4248 -30.4248 -30.4248
   -20.2985 -20.2984 -20.2984 -20.2984 -20.2803 -20.2803 -20.2803 -20.2803
   -20.2756 -20.2756 -20.2756 -20.2756 -20.2732 -20.2732 -20.2731 -20.2731
   -20.2668 -20.2668 -20.2668 -20.2668 -20.2665 -20.2665 -20.2665 -20.2665
   -20.2610 -20.2610 -20.2610 -20.2610  -9.4518  -9.4518  -9.4518  -9.4518
    -8.3517  -8.3517  -8.3517  -8.3517  -7.7800  -7.7800  -7.7800  -7.7800
     1.1255   1.1255   1.1255   1.1255   3.1359   3.1359   3.1359   3.1359
     3.4971   3.4971   3.4971   3.4971   4.6413   4.6413   4.6413   4.6413
     5.4591   5.4591   5.4591   5.4591   6.0238   6.0238   6.0238   6.0238
     6.1619   6.1619   6.1619   6.1619   6.6837   6.6837   6.6837   6.6837
     7.5076   7.5076   7.5076   7.5076  11.2915  11.2915  11.2915  11.2915
    12.5215  12.5215  12.5215  12.5215  13.7383  13.7383  13.7383  13.7383
    15.5870  15.5870  15.5870  15.5870  18.2506  18.2506

     the Fermi energy is     9.0353 ev

!    total energy              =   -3130.54315263 Ry
     Harris-Foulkes estimate   =   -3130.54315263 Ry
     estimated scf accuracy    <          1.5E-09 Ry

     The total energy is the sum of the following terms:

     one-electron contribution =   -2375.46960503 Ry
     hartree contribution      =    1306.22209195 Ry
     xc contribution           =    -483.01688772 Ry
     ewald contribution        =   -1578.27875184 Ry
     smearing contrib. (-TS)   =      -0.00000000 Ry

     convergence has been achieved in  12 iterations

     Forces acting on atoms (cartesian axes, Ry/au):

     atom    1 type  1   force =     0.00000000    0.00000000   -0.02660999
     atom    2 type  1   force =     0.00000000    0.00000000    0.02660999
     atom    3 type  1   force =     0.00000000    0.00000000    0.02660999
     atom    4 type  1   force =     0.00000000    0.00000000   -0.02660999
     atom    5 type  2   force =     0.00000000    0.00000000    0.03626239
     atom    6 type  2   force =     0.00000000    0.00000000   -0.03626239
     atom    7 type  2   force =     0.00000000    0.00000000   -0.03626239
     atom    8 type  2   force =     0.00000000    0.00000000    0.03626239
     atom    9 type  2   force =    -0.00511090    0.00511090    0.00000000
     atom   10 type  2   force =     0.00511090   -0.00511090    0.00000000
     atom   11 type  2   force =     0.00511090   -0.00511090    0.00000000
     atom   12 type  2   force =    -0.00511090    0.00511090    0.00000000
     atom   13 type  2   force =    -0.00511090   -0.00511090    0.00000000
     atom   14 type  2   force =     0.00511090    0.00511090    0.00000000
     atom   15 type  2   force =     0.00511090    0.00511090    0.00000000
     atom   16 type  2   force =    -0.00511090   -0.00511090    0.00000000

     Total force =     0.000000     Total SCF correction =     0.000000


     Computing stress (Cartesian axis) and pressure

          total   stress  (Ry/bohr**3)                   (kbar)     P=   30.72
   0.00039638   0.00000000   0.00000000         58.31      0.00      0.00
   0.00000000   0.00039638   0.00000000          0.00     58.31      0.00
   0.00000000   0.00000000  -0.00016634          0.00      0.00    -24.47


     BFGS Geometry Optimization

     number of scf cycles    =   1
     number of bfgs steps    =   0

     enthalpy new            =   -3130.5431526318 Ry

     new trust radius        =       0.0742136861 bohr
     new conv_thr            =       0.0000000100 Ry

     new unit-cell volume =   1424.13182 a.u.^3 (   211.03456 Ang^3 )
     density =      7.29693 g/cm^3

CELL_PARAMETERS (angstrom)
   5.229271480   0.000000000   0.000000000
   0.000000000   5.229271480   0.000000000
   0.000000000   0.000000000   7.717403477

ATOMIC_POSITIONS (crystal)
W        0.250000000   0.250000000   0.215064524    0   0   0
W        0.750000023   0.750000023   0.784935491    0   0   0
W        0.750000023   0.750000023   0.284935491    0   0   0
W        0.250000000   0.250000000   0.715064509    0   0   0
O        0.250000000   0.250000000   0.485887824    0   0   0
O        0.750000023   0.750000023   0.514112176    0   0   0
O        0.750000023   0.750000023   0.014112189    0   0   0
O        0.250000000   0.250000000   0.985887824    0   0   0
O        0.465208695   0.534791259   0.250000000    0   0   0
O        0.534791305   0.465208741   0.750000000    0   0   0
O        0.034791288   0.965208741   0.250000000    0   0   0
O        0.965208649   0.034791322   0.750000000    0   0   0
O        0.965208741   0.465208695   0.250000000    0   0   0
O        0.034791322   0.534791305   0.750000000    0   0   0
O        0.534791259   0.034791288   0.250000000    0   0   0
O        0.465208741   0.965208649   0.750000000    0   0   0



     Writing output data file Landau_9.save/
     NEW-OLD atomic charge density approx. for the potential
     extrapolated charge  186.83986, renormalised to  184.00000

     total cpu time spent up to now is      146.0 secs

     Self-consistent Calculation

     iteration #  1     ecut=   120.00 Ry     beta= 0.70
     Davidson diagonalization with overlap
     ethr =  1.00E-06,  avg # of iterations = 10.6

     total cpu time spent up to now is      165.6 secs

     total energy              =   -3129.58988127 Ry
     Harris-Foulkes estimate   =   -3096.39754046 Ry
     estimated scf accuracy    <       0.69902797 Ry

     iteration #  2     ecut=   120.00 Ry     beta= 0.70
     Davidson diagonalization with overlap
     ethr =  3.80E-04,  avg # of iterations =  4.6

     total cpu time spent up to now is      177.9 secs

     total energy              =   -3129.85832239 Ry
     Harris-Foulkes estimate   =   -3131.81573354 Ry
     estimated scf accuracy    <       6.98008694 Ry

     iteration #  3     ecut=   120.00 Ry     beta= 0.70
     Davidson diagonalization with overlap
     ethr =  3.80E-04,  avg # of iterations =  3.5

     total cpu time spent up to now is      187.2 secs

     total energy              =   -3130.57270685 Ry
     Harris-Foulkes estimate   =   -3130.63914213 Ry
     estimated scf accuracy    <       0.25667435 Ry

     iteration #  4     ecut=   120.00 Ry     beta= 0.70
     Davidson diagonalization with overlap
     ethr =  1.39E-04,  avg # of iterations =  2.5

     total cpu time spent up to now is      195.0 secs

     total energy              =   -3130.57356844 Ry
     Harris-Foulkes estimate   =   -3130.58806146 Ry
     estimated scf accuracy    <       0.13346918 Ry

     iteration #  5     ecut=   120.00 Ry     beta= 0.70
     Davidson diagonalization with overlap
     ethr =  7.25E-05,  avg # of iterations =  1.9

     total cpu time spent up to now is      202.3 secs

     total energy              =   -3130.55077316 Ry
     Harris-Foulkes estimate   =   -3130.57588817 Ry
     estimated scf accuracy    <       0.09394515 Ry

     iteration #  6     ecut=   120.00 Ry     beta= 0.70
     Davidson diagonalization with overlap
     ethr =  5.11E-05,  avg # of iterations =  2.9

     total cpu time spent up to now is      209.6 secs

     total energy              =   -3130.54856878 Ry
     Harris-Foulkes estimate   =   -3130.55525986 Ry
     estimated scf accuracy    <       0.02692702 Ry

     iteration #  7     ecut=   120.00 Ry     beta= 0.70
     Davidson diagonalization with overlap
     ethr =  1.46E-05,  avg # of iterations =  3.5

     total cpu time spent up to now is      217.4 secs

     total energy              =   -3130.54860410 Ry
     Harris-Foulkes estimate   =   -3130.55012045 Ry
     estimated scf accuracy    <       0.00756423 Ry

     iteration #  8     ecut=   120.00 Ry     beta= 0.70
     Davidson diagonalization with overlap
     ethr =  4.11E-06,  avg # of iterations =  3.4

     total cpu time spent up to now is      225.0 secs

     total energy              =   -3130.54796737 Ry
     Harris-Foulkes estimate   =   -3130.54889492 Ry
     estimated scf accuracy    <       0.00314793 Ry

     iteration #  9     ecut=   120.00 Ry     beta= 0.70
     Davidson diagonalization with overlap
     ethr =  1.71E-06,  avg # of iterations =  3.2

     total cpu time spent up to now is      232.5 secs

     total energy              =   -3130.54806119 Ry
     Harris-Foulkes estimate   =   -3130.54822279 Ry
     estimated scf accuracy    <       0.00056606 Ry

     iteration # 10     ecut=   120.00 Ry     beta= 0.70
     Davidson diagonalization with overlap
     ethr =  3.08E-07,  avg # of iterations =  2.2

     total cpu time spent up to now is      240.3 secs

     total energy              =   -3130.54807849 Ry
     Harris-Foulkes estimate   =   -3130.54811953 Ry
     estimated scf accuracy    <       0.00011701 Ry

     iteration # 11     ecut=   120.00 Ry     beta= 0.70
     Davidson diagonalization with overlap
     ethr =  6.36E-08,  avg # of iterations =  3.1

     total cpu time spent up to now is      249.0 secs

     total energy              =   -3130.54808898 Ry
     Harris-Foulkes estimate   =   -3130.54810120 Ry
     estimated scf accuracy    <       0.00002042 Ry

     iteration # 12     ecut=   120.00 Ry     beta= 0.70
     Davidson diagonalization with overlap
     ethr =  1.11E-08,  avg # of iterations =  2.0

     total cpu time spent up to now is      257.3 secs

     total energy              =   -3130.54809234 Ry
     Harris-Foulkes estimate   =   -3130.54809240 Ry
     estimated scf accuracy    <       0.00000023 Ry

     iteration # 13     ecut=   120.00 Ry     beta= 0.70
     Davidson diagonalization with overlap
     ethr =  1.22E-10,  avg # of iterations =  3.4

     total cpu time spent up to now is      267.5 secs

     total energy              =   -3130.54809232 Ry
     Harris-Foulkes estimate   =   -3130.54809245 Ry
     estimated scf accuracy    <       0.00000023 Ry

     iteration # 14     ecut=   120.00 Ry     beta= 0.70
     Davidson diagonalization with overlap
     ethr =  1.22E-10,  avg # of iterations =  2.0

     total cpu time spent up to now is      275.7 secs

     End of self-consistent calculation

          k = 0.0000 0.0000 0.0000 ( 31095 PWs)   bands (ev):

   -66.4460 -66.4456 -66.4444 -66.4440 -30.8115 -30.8062 -30.7752 -30.7752
   -30.7717 -30.7717 -30.7491 -30.7449 -30.6901 -30.6901 -30.6872 -30.6872
   -20.6127 -20.6126 -20.6126 -20.6125 -20.5936 -20.5936 -20.5935 -20.5935
   -20.5925 -20.5925 -20.5923 -20.5923 -20.5902 -20.5899 -20.5843 -20.5840
   -20.5814 -20.5813 -20.5809 -20.5808 -20.5800 -20.5800 -20.5788 -20.5788
   -20.5749 -20.5749 -20.5739 -20.5739 -10.1626  -9.8467  -9.3432  -9.2284
    -9.2113  -9.0891  -8.0584  -7.9487  -7.8985  -7.8985  -7.8758  -7.8758
     0.9314   0.9317   1.0812   1.3214   1.3290   1.4995   2.2782   2.3674
     2.4448   2.4448   3.9304   3.9304   4.7167   4.7167   4.8440   5.3499
     5.3499   5.3517   5.3517   5.6181   5.6181   5.7593   5.7635   6.5199
     6.5199   6.6720   6.8758   6.8802   7.0678   7.0678   7.0952   7.0952
     7.8902   7.8962   7.9408   7.9408   8.8516   8.8517   9.6085   9.6085
    12.1274  12.1274  12.9462  12.9478  13.1198  13.1198  13.4246  13.9265
    13.9265  14.5929  14.6864  14.6931  15.2504  16.3906

          k = 0.0000 0.0000 0.1118 ( 31063 PWs)   bands (ev):

   -66.4460 -66.4456 -66.4444 -66.4440 -30.8074 -30.8021 -30.7749 -30.7749
   -30.7719 -30.7719 -30.7533 -30.7490 -30.6899 -30.6899 -30.6874 -30.6874
   -20.6127 -20.6126 -20.6126 -20.6125 -20.5936 -20.5936 -20.5935 -20.5935
   -20.5924 -20.5924 -20.5923 -20.5923 -20.5898 -20.5895 -20.5847 -20.5844
   -20.5814 -20.5813 -20.5809 -20.5808 -20.5799 -20.5799 -20.5788 -20.5788
   -20.5749 -20.5749 -20.5739 -20.5739 -10.1302  -9.8592  -9.2669  -9.2273
    -9.2124  -9.0437  -8.1585  -8.0600  -7.8970  -7.8970  -7.8774  -7.8774
     0.9314   0.9317   1.2083   1.3209   1.4998   1.6983   2.2840   2.3612
     2.5136   2.5136   3.7792   3.7792   4.5983   4.7151   4.7151   5.2551
     5.2551   5.4040   5.4054   5.4054   5.7260   5.7260   5.7993   6.5482
     6.5482   6.6859   6.6929   6.8664   7.0712   7.0712   7.0944   7.0944
     7.8832   7.8832   7.8925   7.8960   8.8515   8.8517   9.8068   9.8068
    11.9823  11.9823  12.9463  12.9477  13.1378  13.1378  13.7419  13.8352
    13.8352  14.6868  14.6926  14.7760  15.6578  16.1080

          k = 0.0000 0.0000 0.2236 ( 31059 PWs)   bands (ev):

   -66.4459 -66.4457 -66.4443 -66.4441 -30.7960 -30.7910 -30.7743 -30.7743
   -30.7726 -30.7726 -30.7648 -30.7603 -30.6893 -30.6893 -30.6879 -30.6879
   -20.6127 -20.6126 -20.6126 -20.6125 -20.5936 -20.5936 -20.5935 -20.5935
   -20.5924 -20.5924 -20.5923 -20.5923 -20.5888 -20.5885 -20.5858 -20.5855
   -20.5814 -20.5813 -20.5809 -20.5808 -20.5797 -20.5797 -20.5791 -20.5791
   -20.5747 -20.5747 -20.5741 -20.5741 -10.0512  -9.8979  -9.2241  -9.2156
    -9.0511  -8.9010  -8.4135  -8.3395  -7.8929  -7.8929  -7.8815  -7.8815
     0.9315   0.9316   1.2944   1.3187   2.0872   2.3000   2.3445   2.3879
     2.7147   2.7147   3.4187   3.4187   3.9067   4.4975   4.8157   4.8157
     5.1597   5.1597   5.4426   5.4426   5.6679   5.6679   5.9166   6.3711
     6.7241   6.8283   6.8437   6.8437   7.0758   7.0758   7.0967   7.0967
     7.6726   7.6726   7.8944   7.8956   8.8516   8.8517  10.3179  10.3179
    11.5647  11.5647  12.9466  12.9473  13.2187  13.2187  13.6181  13.6181
    14.3605  14.6880  14.6912  15.3856  15.5568  16.6718

          k = 0.0000 0.0000-0.3355 ( 31108 PWs)   bands (ev):

   -66.4458 -66.4458 -66.4442 -66.4442 -30.7805 -30.7805 -30.7757 -30.7757
   -30.7734 -30.7734 -30.7734 -30.7734 -30.6886 -30.6886 -30.6886 -30.6886
   -20.6126 -20.6126 -20.6126 -20.6126 -20.5936 -20.5935 -20.5935 -20.5935
   -20.5924 -20.5924 -20.5924 -20.5924 -20.5873 -20.5873 -20.5870 -20.5870
   -20.5813 -20.5813 -20.5809 -20.5809 -20.5794 -20.5794 -20.5794 -20.5794
   -20.5744 -20.5744 -20.5744 -20.5744  -9.9643  -9.9643  -9.2199  -9.2198
    -8.7390  -8.7390  -8.6567  -8.6567  -7.8872  -7.8872  -7.8872  -7.8872
     0.9316   0.9316   1.3129   1.3129   2.3221   2.3221   2.9767   2.9767
     3.0303   3.0303   3.0303   3.0303   3.3952   3.3952   5.0013   5.0013
     5.0013   5.0013   5.5205   5.5205   5.5205   5.5205   6.1067   6.1067
     6.7763   6.7763   7.0739   7.0739   7.0739   7.0739   7.3087   7.3087
     7.3087   7.3087   7.8951   7.8951   8.8516   8.8516  10.9618  10.9618
    10.9618  10.9618  12.9469  12.9469  13.3864  13.3864  13.3864  13.3864
    14.6896  14.6896  14.9604  14.9604  16.2371  16.2371

          k = 0.0000 0.1650 0.0000 ( 31090 PWs)   bands (ev):

   -66.4459 -66.4455 -66.4445 -66.4441 -30.8117 -30.8068 -30.7707 -30.7695
   -30.7661 -30.7657 -30.7477 -30.7457 -30.6958 -30.6954 -30.6929 -30.6928
   -20.6127 -20.6126 -20.6126 -20.6125 -20.5935 -20.5935 -20.5935 -20.5934
   -20.5925 -20.5925 -20.5924 -20.5924 -20.5902 -20.5899 -20.5843 -20.5840
   -20.5816 -20.5816 -20.5810 -20.5810 -20.5796 -20.5793 -20.5785 -20.5783
   -20.5753 -20.5752 -20.5742 -20.5741 -10.0739  -9.7394  -9.3614  -9.1551
    -9.1378  -9.0669  -8.0884  -8.0492  -8.0092  -8.0050  -7.9870  -7.9551
     1.1390   1.1891   1.1897   1.3128   1.5863   1.7096   2.4350   2.5120
     2.5426   2.5469   3.8678   3.8907   4.4171   4.4939   4.8206   5.0460
     5.0967   5.1552   5.2300   5.5897   5.6222   5.7824   6.1443   6.3619
     6.3807   6.3921   6.4213   6.6613   6.7187   6.8920   6.9936   7.0442
     7.8173   7.8283   7.9030   7.9317   9.4672   9.5111   9.8735   9.9670
    12.1609  12.1979  12.7923  12.8894  12.9676  13.1526  13.6829  13.7538
    13.8179  14.8107  14.9080  14.9152  15.1820  16.7123

          k = 0.0000 0.1650 0.1118 ( 31091 PWs)   bands (ev):

   -66.4459 -66.4455 -66.4445 -66.4442 -30.8076 -30.8027 -30.7707 -30.7693
   -30.7663 -30.7658 -30.7517 -30.7498 -30.6956 -30.6953 -30.6931 -30.6930
   -20.6127 -20.6126 -20.6126 -20.6125 -20.5935 -20.5935 -20.5935 -20.5934
   -20.5925 -20.5925 -20.5924 -20.5924 -20.5898 -20.5896 -20.5847 -20.5845
   -20.5816 -20.5816 -20.5810 -20.5810 -20.5795 -20.5792 -20.5785 -20.5783
   -20.5752 -20.5751 -20.5743 -20.5742 -10.0389  -9.7520  -9.2852  -9.1539
    -9.1389  -9.0242  -8.1708  -8.0817  -8.0475  -8.0091  -8.0074  -7.9885
     1.1891   1.1897   1.3351   1.5172   1.5855   1.8012   2.4484   2.5340
     2.5862   2.6067   3.7502   3.7856   4.4102   4.4941   4.5749   5.0285
     5.0290   5.1335   5.1528   5.4120   5.6310   5.7015   6.1681   6.3721
     6.3796   6.4231   6.4537   6.6538   6.7578   6.8981   6.9939   7.0471
     7.8076   7.8221   7.8480   7.8728   9.4774   9.5081  10.0392  10.1206
    12.0305  12.0698  12.7928  12.9075  12.9634  13.1616  13.6572  13.7291
    14.0072  14.9080  14.9149  14.9693  15.5903  16.4017

          k = 0.0000 0.1650 0.2236 ( 31086 PWs)   bands (ev):

   -66.4458 -66.4456 -66.4444 -66.4442 -30.7965 -30.7916 -30.7720 -30.7687
   -30.7670 -30.7662 -30.7613 -30.7610 -30.6951 -30.6948 -30.6936 -30.6935
   -20.6127 -20.6126 -20.6126 -20.6126 -20.5935 -20.5935 -20.5935 -20.5934
   -20.5925 -20.5925 -20.5924 -20.5924 -20.5887 -20.5885 -20.5858 -20.5856
   -20.5816 -20.5816 -20.5810 -20.5810 -20.5793 -20.5790 -20.5788 -20.5785
   -20.5750 -20.5749 -20.5745 -20.5744  -9.9535  -9.7915  -9.1508  -9.1422
    -9.0694  -8.8884  -8.4229  -8.3489  -8.0429  -8.0273  -8.0036  -7.9926
     1.1891   1.1895   1.5377   1.5822   2.0914   2.3578   2.4707   2.5215
     2.7971   2.8071   3.4241   3.4711   3.8967   4.4947   4.5208   4.6049
     4.9211   4.9498   5.1379   5.1621   5.4380   5.4641   6.2493   6.3705
     6.3977   6.5119   6.7789   6.7832   6.8599   6.9141   7.0135   7.0642
     7.6192   7.6510   7.8283   7.8334   9.4907   9.5036  10.4829  10.5478
    11.6383  11.6834  12.8277  12.9326  13.0020  13.2041  13.4276  13.5233
    14.6595  14.9093  14.9137  15.5302  15.8480  16.5981

          k = 0.0000 0.1650-0.3355 ( 31080 PWs)   bands (ev):

   -66.4457 -66.4457 -66.4443 -66.4443 -30.7819 -30.7819 -30.7763 -30.7763
   -30.7678 -30.7678 -30.7662 -30.7662 -30.6944 -30.6944 -30.6942 -30.6942
   -20.6126 -20.6126 -20.6126 -20.6126 -20.5935 -20.5935 -20.5935 -20.5934
   -20.5925 -20.5924 -20.5924 -20.5924 -20.5873 -20.5873 -20.5871 -20.5870
   -20.5816 -20.5816 -20.5810 -20.5810 -20.5791 -20.5790 -20.5788 -20.5788
   -20.5748 -20.5748 -20.5746 -20.5746  -9.8608  -9.8608  -9.1465  -9.1465
    -8.7556  -8.7556  -8.6529  -8.6529  -8.0360  -8.0360  -7.9981  -7.9981
     1.1893   1.1893   1.5727   1.5727   2.4941   2.4941   2.9749   2.9749
     3.0253   3.0254   3.1020   3.1020   3.4420   3.4420   4.7322   4.7322
     4.7979   4.7979   5.2178   5.2178   5.2457   5.2457   6.3489   6.3489
     6.4161   6.4161   6.8935   6.8935   6.9845   6.9845   7.2650   7.2650
     7.3092   7.3092   7.8301   7.8301   9.4985   9.4985  11.0702  11.0702
    11.1243  11.1243  12.8903  12.8903  13.1757  13.1757  13.3249  13.3249
    14.9114  14.9114  15.2625  15.2625  16.3729  16.3729

          k = 0.0000 0.3301 0.0000 ( 31158 PWs)   bands (ev):

   -66.4456 -66.4452 -66.4448 -66.4444 -30.8115 -30.8083 -30.7602 -30.7540
   -30.7507 -30.7498 -30.7479 -30.7423 -30.7115 -30.7099 -30.7085 -30.7080
   -20.6127 -20.6126 -20.6126 -20.6125 -20.5933 -20.5933 -20.5932 -20.5932
   -20.5927 -20.5927 -20.5926 -20.5925 -20.5901 -20.5900 -20.5844 -20.5842
   -20.5819 -20.5817 -20.5814 -20.5814 -20.5787 -20.5781 -20.5776 -20.5772
   -20.5762 -20.5758 -20.5752 -20.5748  -9.8426  -9.4339  -9.4281  -8.9828
    -8.9469  -8.9287  -8.4729  -8.4085  -8.2902  -8.2694  -8.0195  -7.9727
     1.1951   1.2754   1.8813   1.8945   2.2435   2.3113   2.6902   2.7292
     3.0233   3.0876   3.5907   3.6023   3.9234   4.0217   4.2992   4.3172
     4.7717   4.7738   5.0481   5.2214   5.2295   5.5099   5.6880   5.8241
     6.1591   6.2154   6.2398   6.4336   6.7873   7.0478   7.1324   7.2861
     7.6071   7.6172   7.7343   7.8448  10.4416  10.5319  10.5851  10.8095
    12.0490  12.0997  12.5251  12.5575  12.6559  12.7077  13.3289  13.4602
    14.1727  14.9745  15.4658  15.9268  15.9534  17.3804

          k = 0.0000 0.3301 0.1118 ( 31139 PWs)   bands (ev):

   -66.4456 -66.4452 -66.4448 -66.4444 -30.8074 -30.8042 -30.7617 -30.7538
   -30.7519 -30.7509 -30.7499 -30.7447 -30.7113 -30.7099 -30.7087 -30.7082
   -20.6127 -20.6126 -20.6126 -20.6126 -20.5933 -20.5932 -20.5932 -20.5932
   -20.5927 -20.5927 -20.5926 -20.5926 -20.5897 -20.5896 -20.5848 -20.5846
   -20.5819 -20.5817 -20.5814 -20.5814 -20.5786 -20.5780 -20.5777 -20.5772
   -20.5761 -20.5758 -20.5753 -20.5749  -9.7976  -9.4469  -9.3541  -8.9502
    -8.9457  -8.9298  -8.4917  -8.4048  -8.2889  -8.2708  -8.1155  -8.0702
     1.4314   1.5095   1.8822   1.8938   2.2432   2.3244   2.7633   2.7852
     3.0304   3.0827   3.5558   3.5946   3.9405   4.0454   4.3091   4.3283
     4.5196   4.6029   4.8186   5.2113   5.2115   5.3497   5.4426   5.6217
     6.2926   6.3172   6.5161   6.5202   6.7984   7.0389   7.1383   7.2753
     7.6000   7.6110   7.6847   7.7894  10.4769  10.5586  10.6629  10.8839
    12.0447  12.1225  12.4610  12.5169  12.5471  12.7081  13.2206  13.3611
    14.5388  15.3652  15.5868  15.9290  15.9513  17.0435

          k = 0.0000 0.3301 0.2236 ( 31107 PWs)   bands (ev):

   -66.4455 -66.4453 -66.4447 -66.4445 -30.7964 -30.7931 -30.7685 -30.7628
   -30.7532 -30.7516 -30.7502 -30.7487 -30.7107 -30.7097 -30.7092 -30.7087
   -20.6126 -20.6126 -20.6126 -20.6126 -20.5932 -20.5932 -20.5932 -20.5932
   -20.5927 -20.5927 -20.5926 -20.5926 -20.5887 -20.5886 -20.5858 -20.5857
   -20.5818 -20.5818 -20.5814 -20.5814 -20.5784 -20.5779 -20.5779 -20.5774
   -20.5760 -20.5756 -20.5755 -20.5751  -9.6872  -9.4895  -9.1463  -8.9426
    -8.9327  -8.8398  -8.5919  -8.3922  -8.3551  -8.2849  -8.2746  -8.2648
     1.8847   1.8914   2.0118   2.1048   2.2379   2.4504   2.9286   2.9893
     3.0651   3.0707   3.3816   3.4790   3.8736   4.0604   4.1321   4.2734
     4.3686   4.3839   4.5397   4.6737   4.9382   5.0729   5.2302   5.2339
     6.6440   6.6809   6.7551   6.8242   6.8486   7.0186   7.1681   7.2347
     7.4797   7.5536   7.6298   7.6629  10.5268  10.5595  10.9646  11.1468
    11.8612  12.0018  12.3590  12.4133  12.5230  12.7426  12.9640  13.1265
    15.3446  15.9255  15.9458  15.9682  16.3683  16.5396

          k = 0.0000 0.3301-0.3355 ( 31132 PWs)   bands (ev):

   -66.4454 -66.4454 -66.4446 -66.4446 -30.7818 -30.7818 -30.7780 -30.7780
   -30.7524 -30.7524 -30.7502 -30.7502 -30.7100 -30.7100 -30.7092 -30.7092
   -20.6126 -20.6126 -20.6126 -20.6126 -20.5932 -20.5932 -20.5932 -20.5932
   -20.5926 -20.5926 -20.5926 -20.5926 -20.5873 -20.5873 -20.5871 -20.5871
   -20.5818 -20.5818 -20.5814 -20.5814 -20.5782 -20.5782 -20.5776 -20.5776
   -20.5757 -20.5757 -20.5753 -20.5753  -9.5704  -9.5704  -8.9395  -8.9395
    -8.8508  -8.8508  -8.6318  -8.6318  -8.3614  -8.3614  -8.2798  -8.2798
     1.8882   1.8882   2.2120   2.2120   2.9168   2.9168   2.9976   2.9976
     3.0984   3.0984   3.2456   3.2456   3.5059   3.5059   4.2512   4.2512
     4.3234   4.3234   4.5556   4.5556   4.6588   4.6588   5.2233   5.2233
     6.7503   6.7504   6.9649   6.9649   7.0898   7.0898   7.1910   7.1910
     7.3185   7.3185   7.6307   7.6307  10.5507  10.5507  11.4122  11.4122
    11.5745  11.5745  12.4123  12.4123  12.6513  12.6513  12.9008  12.9008
    15.9345  15.9345  16.0106  16.0106  16.7276  16.7276

          k = 0.0000-0.4951 0.0000 ( 31138 PWs)   bands (ev):

   -66.4452 -66.4452 -66.4448 -66.4448 -30.8101 -30.8101 -30.7520 -30.7520
   -30.7328 -30.7328 -30.7297 -30.7297 -30.7288 -30.7288 -30.7282 -30.7282
   -20.6126 -20.6126 -20.6126 -20.6126 -20.5930 -20.5930 -20.5930 -20.5930
   -20.5929 -20.5929 -20.5928 -20.5928 -20.5900 -20.5900 -20.5844 -20.5844
   -20.5818 -20.5818 -20.5817 -20.5817 -20.5774 -20.5774 -20.5769 -20.5769
   -20.5764 -20.5764 -20.5759 -20.5759  -9.5853  -9.5853  -8.9824  -8.9824
    -8.7773  -8.7773  -8.6332  -8.6331  -8.6118  -8.6117  -7.9968  -7.9967
     1.2346   1.2346   2.6626   2.6626   2.8093   2.8093   2.8526   2.8526
     3.0594   3.0594   3.6349   3.6349   3.6639   3.6639   3.9557   3.9557
[...]
    11.8967  11.8967  12.4110  12.4110  12.5026  12.5026  13.3782  13.3782
    14.9202  14.9202  16.5842  16.5842  16.8647  16.8648

          k = 0.1653-0.4959 0.2239 ( 31496 PWs)   bands (ev):

   -66.3613 -66.3613 -66.3611 -66.3611 -30.7182 -30.7182 -30.6899 -30.6899
   -30.6777 -30.6777 -30.6764 -30.6764 -30.6317 -30.6317 -30.6304 -30.6304
   -20.5247 -20.5247 -20.5247 -20.5247 -20.5062 -20.5062 -20.5061 -20.5061
   -20.5040 -20.5040 -20.5039 -20.5039 -20.5008 -20.5008 -20.4979 -20.4979
   -20.4937 -20.4937 -20.4936 -20.4936 -20.4902 -20.4902 -20.4897 -20.4897
   -20.4878 -20.4878 -20.4873 -20.4873  -9.3879  -9.3879  -9.1758  -9.1758
    -8.7864  -8.7864  -8.3804  -8.3804  -8.3108  -8.3108  -8.2310  -8.2310
     1.9837   1.9837   2.0625   2.0625   2.2943   2.2943   2.9983   2.9983
     3.4789   3.4789   3.9323   3.9323   4.0031   4.0031   4.2038   4.2038
     4.3229   4.3229   4.6968   4.6968   4.7285   4.7285   5.1435   5.1435
     6.6699   6.6700   6.8556   6.8556   7.0188   7.0188   7.0876   7.0876
     7.1996   7.1996   7.6246   7.6246  11.1103  11.1103  11.8321  11.8321
    11.8845  11.8845  12.1544  12.1544  12.5559  12.5559  13.1067  13.1067
    15.7048  15.7048  16.6132  16.6132  16.9512  16.9512

          k = 0.1653-0.4959-0.3359 ( 31476 PWs)   bands (ev):

   -66.3612 -66.3612 -66.3612 -66.3612 -30.7032 -30.7032 -30.7032 -30.7032
   -30.6779 -30.6779 -30.6779 -30.6779 -30.6311 -30.6311 -30.6311 -30.6311
   -20.5247 -20.5247 -20.5247 -20.5247 -20.5061 -20.5061 -20.5061 -20.5061
   -20.5039 -20.5039 -20.5039 -20.5039 -20.4994 -20.4994 -20.4994 -20.4994
   -20.4936 -20.4936 -20.4936 -20.4936 -20.4900 -20.4900 -20.4900 -20.4900
   -20.4875 -20.4875 -20.4875 -20.4875  -9.2539  -9.2538  -9.2536  -9.2535
    -8.6027  -8.6026  -8.6016  -8.6016  -8.2975  -8.2975  -8.2967  -8.2967
     2.0506   2.0506   2.0519   2.0519   3.0279   3.0279   3.0317   3.0317
     3.4046   3.4046   3.4368   3.4368   3.9423   3.9423   4.0310   4.0310
     4.4899   4.4899   4.5391   4.5391   4.7890   4.7890   4.7930   4.7930
     6.9052   6.9052   6.9282   6.9282   7.0167   7.0167   7.0912   7.0912
     7.3346   7.3346   7.3740   7.3740  11.5286  11.5286  11.5835  11.5835
    11.8676  11.8676  11.9727  11.9727  12.7778  12.7778  12.8214  12.8214
    16.3174  16.3174  16.3603  16.3603  17.2704  17.2704

          k = 0.3306 0.3306 0.0000 ( 31476 PWs)   bands (ev):

   -66.3616 -66.3612 -66.3612 -66.3608 -30.7334 -30.7324 -30.7039 -30.7004
   -30.6848 -30.6782 -30.6709 -30.6666 -30.6311 -30.6286 -30.6101 -30.6072
   -20.5248 -20.5247 -20.5247 -20.5247 -20.5069 -20.5069 -20.5066 -20.5065
   -20.5036 -20.5036 -20.5033 -20.5032 -20.5022 -20.5022 -20.4964 -20.4963
   -20.4934 -20.4934 -20.4934 -20.4933 -20.4921 -20.4908 -20.4904 -20.4894
   -20.4880 -20.4870 -20.4869 -20.4858  -9.7771  -9.5200  -9.4647  -9.0815
    -9.0373  -8.8783  -8.3433  -8.3424  -7.9430  -7.9143  -7.9019  -7.8773
     1.0736   1.1091   1.3175   1.3511   2.0554   2.0768   2.4074   2.7060
     3.6029   3.6956   3.9881   4.0028   4.0935   4.6194   4.6562   4.8153
     4.9207   4.9918   5.2308   5.5145   5.5387   5.5748   5.8104   5.9472
     6.1546   6.1994   6.3070   6.3388   6.5999   6.6321   6.9072   6.9780
     6.9913   7.1724   7.8555   8.0530   9.7173  10.6768  11.6090  11.6430
    12.3351  12.3397  12.4001  12.4142  12.6839  13.0809  13.5167  14.0024
    14.0288  14.6203  15.5117  16.0675  16.9241  17.0768

          k = 0.3306 0.3306 0.1120 ( 31506 PWs)   bands (ev):

   -66.3616 -66.3612 -66.3612 -66.3608 -30.7292 -30.7283 -30.7037 -30.7006
   -30.6853 -30.6784 -30.6751 -30.6701 -30.6310 -30.6288 -30.6099 -30.6074
   -20.5248 -20.5247 -20.5247 -20.5247 -20.5069 -20.5069 -20.5066 -20.5065
   -20.5036 -20.5036 -20.5033 -20.5032 -20.5018 -20.5018 -20.4968 -20.4967
   -20.4934 -20.4934 -20.4934 -20.4934 -20.4920 -20.4909 -20.4904 -20.4895
   -20.4879 -20.4871 -20.4868 -20.4859  -9.7383  -9.4738  -9.4631  -9.0902
    -8.9986  -8.8569  -8.3503  -8.3402  -8.0436  -8.0179  -7.9004  -7.8790
     1.0938   1.1091   1.5270   1.6047   2.0538   2.0882   2.4788   2.7801
     3.6009   3.6907   3.8849   3.8980   4.0506   4.5982   4.6821   4.7257
     4.8988   4.8997   4.9937   5.1975   5.6325   5.7214   5.7654   5.9413
     5.9985   6.1900   6.3637   6.5273   6.5820   6.7045   6.8777   6.9494
     6.9801   7.1659   7.7947   7.9693   9.9272  10.7928  11.6100  11.6411
    12.1777  12.3557  12.3816  12.4306  12.5829  13.1024  13.4178  13.9330
    14.2679  14.9643  15.4814  16.2127  16.8810  17.1410

          k = 0.3306 0.3306 0.2239 ( 31476 PWs)   bands (ev):

   -66.3615 -66.3613 -66.3611 -66.3609 -30.7178 -30.7171 -30.7031 -30.7013
   -30.6895 -30.6865 -30.6788 -30.6768 -30.6306 -30.6293 -30.6094 -30.6080
   -20.5247 -20.5247 -20.5247 -20.5247 -20.5069 -20.5069 -20.5066 -20.5065
   -20.5036 -20.5036 -20.5033 -20.5032 -20.5008 -20.5008 -20.4979 -20.4978
   -20.4934 -20.4934 -20.4934 -20.4934 -20.4918 -20.4911 -20.4902 -20.4897
   -20.4878 -20.4873 -20.4867 -20.4861  -9.6482  -9.5035  -9.3243  -9.1210
    -8.8694  -8.7733  -8.4049  -8.3332  -8.2913  -8.2418  -7.8959  -7.8835
     1.1048   1.1088   1.9710   2.0487   2.2866   2.2967   2.6879   3.0038
     3.4257   3.5487   3.6655   3.6818   4.2140   4.2313   4.3001   4.6027
     4.6533   4.8162   4.8977   4.9925   5.1837   5.5218   5.9361   5.9637
     6.1011   6.1924   6.4351   6.6779   6.7200   6.8723   6.8956   6.9821
     7.0498   7.1469   7.6087   7.7259  10.4523  11.1125  11.6058  11.6357
    11.7542  12.0712  12.4402  12.4831  12.5330  13.0430  13.3108  13.7053
    14.7843  15.3795  15.7317  16.6415  16.7327  17.3886

          k = 0.3306 0.3306-0.3359 ( 31454 PWs)   bands (ev):

   -66.3614 -66.3614 -66.3610 -66.3610 -30.7022 -30.7022 -30.7022 -30.7022
   -30.7022 -30.7021 -30.6789 -30.6789 -30.6300 -30.6300 -30.6087 -30.6087
   -20.5247 -20.5247 -20.5247 -20.5247 -20.5069 -20.5069 -20.5065 -20.5065
   -20.5035 -20.5035 -20.5033 -20.5033 -20.4994 -20.4994 -20.4993 -20.4993
   -20.4934 -20.4934 -20.4934 -20.4934 -20.4915 -20.4914 -20.4900 -20.4899
   -20.4875 -20.4875 -20.4864 -20.4864  -9.5607  -9.5607  -9.1925  -9.1925
    -8.6400  -8.6400  -8.5780  -8.5780  -8.3178  -8.3178  -7.8898  -7.8898
     1.1079   1.1079   2.0370   2.0370   3.0172   3.0172   3.0368   3.0368
     3.2456   3.2456   3.4606   3.4606   3.6682   3.6682   4.4783   4.4783
     4.6829   4.6829   4.9344   4.9344   5.2259   5.2259   5.9655   5.9655
     6.1738   6.1738   6.5446   6.5446   6.8798   6.8798   7.0412   7.0412
     7.3008   7.3008   7.3712   7.3712  11.0959  11.0959  11.5985  11.5985
    11.6341  11.6341  12.4578  12.4578  12.7693  12.7693  13.4636  13.4636
    15.1687  15.1687  16.3942  16.3942  17.1420  17.1420

          k = 0.3306-0.4959 0.0000 ( 31472 PWs)   bands (ev):

   -66.3614 -66.3614 -66.3610 -66.3610 -30.7328 -30.7328 -30.6992 -30.6992
   -30.6949 -30.6949 -30.6693 -30.6693 -30.6153 -30.6153 -30.6125 -30.6125
   -20.5247 -20.5247 -20.5247 -20.5247 -20.5071 -20.5071 -20.5069 -20.5069
   -20.5033 -20.5033 -20.5031 -20.5031 -20.5022 -20.5022 -20.4963 -20.4963
   -20.4933 -20.4933 -20.4933 -20.4933 -20.4915 -20.4915 -20.4904 -20.4904
   -20.4872 -20.4872 -20.4861 -20.4861  -9.6732  -9.6732  -9.3432  -9.3432
    -8.9980  -8.9980  -8.0404  -8.0404  -8.0242  -8.0242  -7.9251  -7.9251
     1.2352   1.2352   1.3612   1.3612   1.4656   1.4656   2.4774   2.4774
     4.1036   4.1036   4.3064   4.3064   4.3430   4.3430   4.4912   4.4912
     5.3585   5.3586   5.4726   5.4726   5.5241   5.5241   5.5597   5.5597
     6.3543   6.3543   6.4263   6.4263   6.4813   6.4814   6.6705   6.6705
     6.8675   6.8675   8.0051   8.0051  10.0118  10.0118  12.1212  12.1212
    12.1449  12.1450  12.4129  12.4129  12.9066  12.9066  13.8757  13.8757
    14.1968  14.1968  15.9498  15.9498  16.7621  16.7621

          k = 0.3306-0.4959 0.1120 ( 31480 PWs)   bands (ev):

   -66.3614 -66.3614 -66.3610 -66.3610 -30.7287 -30.7287 -30.6990 -30.6990
   -30.6951 -30.6951 -30.6734 -30.6734 -30.6151 -30.6151 -30.6127 -30.6127
   -20.5247 -20.5247 -20.5247 -20.5247 -20.5070 -20.5070 -20.5069 -20.5069
   -20.5033 -20.5033 -20.5031 -20.5031 -20.5018 -20.5018 -20.4967 -20.4967
   -20.4933 -20.4933 -20.4933 -20.4933 -20.4915 -20.4915 -20.4905 -20.4905
   -20.4871 -20.4871 -20.4862 -20.4862  -9.6301  -9.6301  -9.3518  -9.3518
    -8.9630  -8.9630  -8.0605  -8.0604  -8.0376  -8.0375  -7.9970  -7.9970
     1.3168   1.3168   1.3610   1.3610   1.6321   1.6321   2.5510   2.5510
     3.9144   3.9145   4.2839   4.2839   4.3405   4.3405   4.5357   4.5357
     5.0807   5.0807   5.4198   5.4198   5.5257   5.5257   5.6826   5.6826
     6.2215   6.2215   6.4281   6.4281   6.6063   6.6063   6.7002   6.7002
     6.8355   6.8355   7.9265   7.9265  10.1850  10.1850  12.1222  12.1222
    12.1339  12.1339  12.2714  12.2714  12.9450  12.9450  13.7746  13.7746
    14.4889  14.4889  15.9158  15.9158  16.8859  16.8859

          k = 0.3306-0.4959 0.2239 ( 31470 PWs)   bands (ev):

   -66.3613 -66.3613 -66.3611 -66.3611 -30.7175 -30.7175 -30.6988 -30.6988
   -30.6955 -30.6955 -30.6845 -30.6845 -30.6146 -30.6146 -30.6132 -30.6132
   -20.5247 -20.5247 -20.5247 -20.5247 -20.5070 -20.5070 -20.5070 -20.5070
   -20.5032 -20.5032 -20.5031 -20.5031 -20.5008 -20.5008 -20.4978 -20.4978
   -20.4933 -20.4933 -20.4933 -20.4933 -20.4913 -20.4913 -20.4907 -20.4907
   -20.4869 -20.4869 -20.4864 -20.4864  -9.5305  -9.5305  -9.3801  -9.3801
    -8.8406  -8.8406  -8.3060  -8.3060  -8.0333  -8.0333  -8.0186  -8.0186
     1.3510   1.3510   1.3601   1.3601   2.2712   2.2713   2.7738   2.7738
     3.4855   3.4855   4.2614   4.2614   4.2955   4.2955   4.3615   4.3615
     4.7060   4.7060   5.2692   5.2692   5.5353   5.5353   5.6292   5.6292
     6.2756   6.2756   6.4118   6.4118   6.7010   6.7010   6.7875   6.7875
     6.9401   6.9401   7.6938   7.6938  10.6413  10.6413  11.8143  11.8143
    12.1338  12.1338  12.1611  12.1611  13.0633  13.0633  13.5316  13.5316
    15.0851  15.0851  15.7997  15.7997  17.2662  17.2662

          k = 0.3306-0.4959-0.3359 ( 31484 PWs)   bands (ev):

   -66.3612 -66.3612 -66.3612 -66.3612 -30.7033 -30.7033 -30.7032 -30.7032
   -30.6949 -30.6949 -30.6949 -30.6949 -30.6139 -30.6139 -30.6139 -30.6139
   -20.5247 -20.5247 -20.5247 -20.5247 -20.5070 -20.5070 -20.5070 -20.5070
   -20.5032 -20.5032 -20.5032 -20.5032 -20.4993 -20.4993 -20.4993 -20.4993
   -20.4933 -20.4933 -20.4933 -20.4933 -20.4910 -20.4910 -20.4910 -20.4910
   -20.4867 -20.4867 -20.4867 -20.4867  -9.4373  -9.4373  -9.4372  -9.4372
    -8.6076  -8.6076  -8.6074  -8.6074  -8.0266  -8.0266  -8.0265  -8.0265
     1.3577   1.3577   1.3581   1.3581   3.0220   3.0220   3.0257   3.0257
     3.3083   3.3083   3.3129   3.3129   4.2989   4.2989   4.3338   4.3338
     4.9580   4.9580   4.9918   4.9918   5.5509   5.5509   5.5702   5.5702
     6.3613   6.3613   6.3758   6.3758   6.7482   6.7482   6.7570   6.7570
     7.3283   7.3283   7.3369   7.3369  11.2359  11.2359  11.2394  11.2394
    12.1364  12.1365  12.1556  12.1556  13.2603  13.2603  13.2729  13.2729
    15.5454  15.5454  15.5556  15.5556  17.6706  17.6706

          k =-0.4959-0.4959 0.0000 ( 31504 PWs)   bands (ev):

   -66.3614 -66.3614 -66.3610 -66.3610 -30.7323 -30.7323 -30.7052 -30.7052
   -30.7016 -30.7016 -30.6694 -30.6694 -30.6090 -30.6090 -30.6062 -30.6062
   -20.5247 -20.5247 -20.5247 -20.5247 -20.5074 -20.5074 -20.5073 -20.5073
   -20.5031 -20.5031 -20.5028 -20.5028 -20.5023 -20.5023 -20.4962 -20.4962
   -20.4932 -20.4932 -20.4931 -20.4931 -20.4921 -20.4921 -20.4908 -20.4908
   -20.4869 -20.4869 -20.4858 -20.4858  -9.7181  -9.7181  -9.4206  -9.4206
    -9.0254  -9.0254  -7.9298  -7.9298  -7.9260  -7.9260  -7.8995  -7.8995
     1.0736   1.0736   1.0977   1.0977   1.3734   1.3734   2.3850   2.3850
     4.1802   4.1802   4.5706   4.5706   4.6125   4.6125   4.6743   4.6743
     5.3434   5.3434   5.4050   5.4050   5.7343   5.7343   5.8909   5.8909
     6.0295   6.0295   6.1868   6.1868   6.3750   6.3750   6.6081   6.6081
     6.9728   6.9728   8.0507   8.0507   9.7279   9.7279  12.1950  12.1950
    12.2450  12.2450  12.3288  12.3288  13.1179  13.1179  14.0232  14.0232
    14.0328  14.0328  15.6061  15.6061  16.8684  16.8684

          k =-0.4959-0.4959 0.1120 ( 31440 PWs)   bands (ev):

   -66.3614 -66.3614 -66.3610 -66.3610 -30.7281 -30.7281 -30.7049 -30.7049
   -30.7018 -30.7018 -30.6737 -30.6737 -30.6089 -30.6089 -30.6064 -30.6064
   -20.5247 -20.5247 -20.5247 -20.5247 -20.5074 -20.5074 -20.5073 -20.5073
   -20.5030 -20.5030 -20.5028 -20.5028 -20.5019 -20.5019 -20.4967 -20.4967
   -20.4931 -20.4931 -20.4931 -20.4931 -20.4920 -20.4920 -20.4909 -20.4909
   -20.4868 -20.4868 -20.4859 -20.4859  -9.6794  -9.6794  -9.4287  -9.4287
    -8.9859  -8.9859  -8.0356  -8.0355  -7.9242  -7.9242  -7.9013  -7.9013
     1.0863   1.0863   1.0977   1.0977   1.6115   1.6115   2.4575   2.4575
     3.9191   3.9191   4.5736   4.5736   4.6078   4.6078   4.7368   4.7368
     5.1056   5.1056   5.5362   5.5362   5.6801   5.6801   5.8910   5.8910
     6.0237   6.0237   6.1521   6.1521   6.3993   6.3993   6.6646   6.6646
     6.8772   6.8772   7.9660   7.9660   9.9386   9.9386  12.1702  12.1702
    12.2067  12.2067  12.2440  12.2440  13.1520  13.1520  13.9350  13.9350
    14.2874  14.2874  15.5737  15.5737  17.0305  17.0305

          k =-0.4959-0.4959 0.2239 ( 31512 PWs)   bands (ev):

   -66.3613 -66.3613 -66.3611 -66.3611 -30.7167 -30.7167 -30.7043 -30.7043
   -30.7025 -30.7025 -30.6853 -30.6853 -30.6083 -30.6083 -30.6069 -30.6069
   -20.5247 -20.5247 -20.5247 -20.5247 -20.5073 -20.5073 -20.5073 -20.5073
   -20.5030 -20.5030 -20.5028 -20.5028 -20.5008 -20.5008 -20.4978 -20.4978
   -20.4931 -20.4931 -20.4931 -20.4931 -20.4918 -20.4918 -20.4911 -20.4911
   -20.4866 -20.4866 -20.4861 -20.4861  -9.5909  -9.5909  -9.4556  -9.4556
    -8.8521  -8.8521  -8.3002  -8.3002  -7.9194  -7.9194  -7.9062  -7.9062
     1.0944   1.0944   1.0975   1.0975   2.2917   2.2917   2.6708   2.6708
     3.4510   3.4510   4.2847   4.2847   4.5820   4.5820   4.6104   4.6104
     4.9136   4.9136   5.4651   5.4651   5.7876   5.7876   5.8891   5.8891
     6.0187   6.0187   6.0885   6.0885   6.4689   6.4689   6.7143   6.7143
     6.9272   6.9272   7.7177   7.7177  10.4657  10.4657  11.7332  11.7332
    12.2239  12.2239  12.2408  12.2408  13.2602  13.2602  13.7016  13.7016
    14.8187  14.8187  15.4643  15.4643  17.5632  17.5632

          k =-0.4959-0.4959-0.3359 ( 31488 PWs)   bands (ev):

   -66.3612 -66.3612 -66.3612 -66.3612 -30.7034 -30.7034 -30.7034 -30.7034
   -30.7010 -30.7010 -30.7010 -30.7010 -30.6076 -30.6076 -30.6076 -30.6076
   -20.5247 -20.5247 -20.5247 -20.5247 -20.5073 -20.5073 -20.5073 -20.5073
   -20.5029 -20.5029 -20.5029 -20.5029 -20.4993 -20.4993 -20.4993 -20.4993
   -20.4931 -20.4931 -20.4931 -20.4931 -20.4915 -20.4915 -20.4915 -20.4915
   -20.4864 -20.4864 -20.4864 -20.4864  -9.5080  -9.5080  -9.5080  -9.5080
    -8.6082  -8.6082  -8.6082  -8.6082  -7.9128  -7.9128  -7.9128  -7.9128
     1.0968   1.0968   1.0968   1.0968   3.0115   3.0115   3.0115   3.0115
     3.2571   3.2572   3.2572   3.2572   4.5939   4.5939   4.5939   4.5939
     5.1777   5.1777   5.1777   5.1777   5.8723   5.8723   5.8723   5.8723
     6.0429   6.0429   6.0429   6.0429   6.5758   6.5758   6.5758   6.5758
     7.3387   7.3387   7.3387   7.3387  11.1191  11.1191  11.1191  11.1191
    12.2347  12.2347  12.2347  12.2347  13.4502  13.4502  13.4503  13.4503
    15.2347  15.2347  15.2347  15.2347  18.0279  18.0279

     the Fermi energy is     8.8134 ev

!    total energy              =   -3130.54843491 Ry
     Harris-Foulkes estimate   =   -3130.54843491 Ry
     estimated scf accuracy    <          9.3E-13 Ry

     The total energy is the sum of the following terms:

     one-electron contribution =   -2383.80726586 Ry
     hartree contribution      =    1309.06818522 Ry
     xc contribution           =    -482.84500107 Ry
     ewald contribution        =   -1572.96435320 Ry
     smearing contrib. (-TS)   =      -0.00000000 Ry

     convergence has been achieved in  14 iterations

     Forces acting on atoms (cartesian axes, Ry/au):

     atom    1 type  1   force =     0.00000000    0.00000000   -0.00474878
     atom    2 type  1   force =     0.00000000    0.00000000    0.00474878
     atom    3 type  1   force =     0.00000000    0.00000000    0.00474878
     atom    4 type  1   force =     0.00000000    0.00000000   -0.00474878
     atom    5 type  2   force =     0.00000000    0.00000000    0.02658818
     atom    6 type  2   force =     0.00000000    0.00000000   -0.02658818
     atom    7 type  2   force =     0.00000000    0.00000000   -0.02658818
     atom    8 type  2   force =     0.00000000    0.00000000    0.02658818
     atom    9 type  2   force =    -0.00141571    0.00141571    0.00000000
     atom   10 type  2   force =     0.00141571   -0.00141571    0.00000000
     atom   11 type  2   force =     0.00141571   -0.00141571    0.00000000
     atom   12 type  2   force =    -0.00141571    0.00141571    0.00000000
     atom   13 type  2   force =    -0.00141571   -0.00141571    0.00000000
     atom   14 type  2   force =     0.00141571    0.00141571    0.00000000
     atom   15 type  2   force =     0.00141571    0.00141571    0.00000000
     atom   16 type  2   force =    -0.00141571   -0.00141571    0.00000000

     Total force =     0.000000     Total SCF correction =     0.000000


     Computing stress (Cartesian axis) and pressure

          total   stress  (Ry/bohr**3)                   (kbar)     P=    0.36
   0.00000347   0.00000000   0.00000000          0.51      0.00      0.00
   0.00000000   0.00000347   0.00000000          0.00      0.51      0.00
   0.00000000   0.00000000   0.00000035          0.00      0.00      0.05


     Writing output data file Landau_9.save/
 
     init_run     :     18.64s CPU     19.13s WALL (       2 calls)
     electrons    :    668.08s CPU    683.00s WALL (       6 calls)
     update_pot   :     36.40s CPU     36.51s WALL (       4 calls)
     forces       :     33.44s CPU     34.01s WALL (       6 calls)
     stress       :    120.69s CPU    121.48s WALL (       6 calls)

     Called by init_run:
     wfcinit      :      4.04s CPU      4.38s WALL (       2 calls)
     potinit      :      6.84s CPU      6.89s WALL (       2 calls)
     hinit0       :      7.58s CPU      7.65s WALL (       2 calls)

     Called by electrons:
     c_bands      :    563.58s CPU    577.23s WALL (      77 calls)
     sum_band     :     85.74s CPU     86.09s WALL (      77 calls)
     v_of_rho     :      3.04s CPU      3.08s WALL (      82 calls)
     mix_rho      :      4.34s CPU      4.84s WALL (      77 calls)

     Called by c_bands:
     init_us_2    :      4.24s CPU      4.50s WALL (     156 calls)
     cegterg      :    397.05s CPU    410.15s WALL (      77 calls)

     Called by sum_band:

     Called by *egterg:
     h_psi        :    317.99s CPU    323.77s WALL (     289 calls)
     g_psi        :      1.01s CPU      1.01s WALL (     210 calls)
     cdiaghg      :      4.78s CPU      4.81s WALL (     282 calls)

     Called by h_psi:
     h_psi:pot    :    316.40s CPU    317.79s WALL (     289 calls)
     h_psi:calbec :     24.97s CPU     25.26s WALL (     289 calls)
     vloc_psi     :    261.00s CPU    261.94s WALL (     289 calls)
     add_vuspsi   :     30.43s CPU     30.59s WALL (     289 calls)

     General routines
     calbec       :     28.72s CPU     29.02s WALL (     319 calls)
     fft          :      1.69s CPU      1.70s WALL (     293 calls)
     ffts         :      0.47s CPU      0.47s WALL (      77 calls)
     fftw         :    272.68s CPU    273.51s WALL (   50422 calls)
 
     Parallel routines
 
     PWSCF        :  14m39.19s CPU  14m57.03s WALL

 
   This run was terminated on:  18:38:33  19Nov2019            

=------------------------------------------------------------------------------=
   JOB DONE.
=------------------------------------------------------------------------------=
