
     Program PWSCF v.6.4.1 starts on 22Nov2019 at  0:27:39 

     This program is part of the open-source Quantum ESPRESSO suite
     for quantum simulation of materials; please cite
         "P. Giannozzi et al., J. Phys.:Condens. Matter 21 395502 (2009);
         "P. Giannozzi et al., J. Phys.:Condens. Matter 29 465901 (2017);
          URL http://www.quantum-espresso.org", 
     in publications or presentations arising from this work. More details at
     http://www.quantum-espresso.org/quote

     Parallel version (MPI), running on    40 processors

     MPI processes distributed on     6 nodes
     K-points division:     npool     =      40
     Reading input from scf.in

     Current dimensions of program PWSCF are:
     Max number of different atomic species (ntypx) = 10
     Max number of k-points (npk) =  40000
     Max angular momentum in pseudopotentials (lmaxx) =  3

     Subspace diagonalization in iterative solution of the eigenvalue problem:
     a serial algorithm will be used

     Message from routine setup:
     using ibrav=0 with symmetry is DISCOURAGED, use correct ibrav instead
 
     G-vector sticks info
     --------------------
     sticks:   dense  smooth     PW     G-vecs:    dense   smooth      PW
     Sum        7697    7697   2061               503027   503027   69771
 


     bravais-lattice index     =            0
     lattice parameter (alat)  =      14.0808  a.u.
     unit-cell volume          =    2833.1644 (a.u.)^3
     number of atoms/cell      =           32
     number of atomic types    =            2
     number of electrons       =       368.20
     number of Kohn-Sham states=          221
     kinetic-energy cutoff     =     120.0000  Ry
     charge density cutoff     =     480.0000  Ry
     convergence threshold     =      1.0E-08
     mixing beta               =       0.7000
     number of iterations used =            8  plain     mixing
     Exchange-correlation      = SLA PW NOGX NOGC ( 1  4  0  0 0 0)

     celldm(1)=  14.080788  celldm(2)=   0.000000  celldm(3)=   0.000000
     celldm(4)=   0.000000  celldm(5)=   0.000000  celldm(6)=   0.000000

     crystal axes: (cart. coord. in units of alat)
               a(1) = (   1.000000   0.000000   0.000000 )  
               a(2) = (   0.000000   1.016839   0.000000 )  
               a(3) = (   0.000000   0.000000   0.998019 )  

     reciprocal axes: (cart. coord. in units 2 pi/alat)
               b(1) = (  1.000000  0.000000  0.000000 )  
               b(2) = (  0.000000  0.983440  0.000000 )  
               b(3) = (  0.000000  0.000000  1.001985 )  


     PseudoPot. # 1 for W  read from file:
     /cluster/scratch/mnoe/QE/pps/W_ONCV_LDA-4.0.upf
     MD5 check sum: ba0307d5d4cd419d6f1d13dc49d7c13a
     Pseudo is Norm-conserving + core correction, Zval = 28.0
     Generated using ONCVPSP code by D. R. Hamann
     Using radial grid of 1380 points,  8 beta functions with: 
                l(1) =   0
                l(2) =   0
                l(3) =   1
                l(4) =   1
                l(5) =   2
                l(6) =   2
                l(7) =   3
                l(8) =   3

     PseudoPot. # 2 for O  read from file:
     /cluster/scratch/mnoe/QE/pps/O_ONCV_LDA-3.0.upf
     MD5 check sum: b55cdb4f45ae2203d24ad12cf8d61a31
     Pseudo is Norm-conserving + core correction, Zval =  6.0
     Generated using ONCVPSP code by D. R. Hamann
     Using radial grid of  926 points,  5 beta functions with: 
                l(1) =   0
                l(2) =   0
                l(3) =   1
                l(4) =   1
                l(5) =   2

     atomic species   valence    mass     pseudopotential
        W             28.00   183.84000     W ( 1.00)
        O              6.00    15.99940     O ( 1.00)

      8 Sym. Ops., with inversion, found ( 6 have fractional translation)



   Cartesian axes

     site n.     atom                  positions (alat units)
         1           W   tau(   1) = (   0.2370500   0.2962750   0.0122058  )
         2           W   tau(   2) = (   0.7629500   0.7205636   0.9858135  )
         3           W   tau(   3) = (   0.2629500   0.2121443   0.5112154  )
         4           W   tau(   4) = (   0.7370500   0.8046943   0.4868038  )
         5           W   tau(   5) = (   0.7629500   0.2962750   0.4868038  )
         6           W   tau(   6) = (   0.2370500   0.7205636   0.5112154  )
         7           W   tau(   7) = (   0.7370500   0.2121443   0.9858135  )
         8           W   tau(   8) = (   0.2629500   0.8046943   0.0122058  )
         9           O   tau(   9) = (   0.2261100   0.0267559   0.0037925  )
        10           O   tau(  10) = (   0.7738900   0.9900828   0.9942268  )
        11           O   tau(  11) = (   0.2738900   0.4816634   0.5028021  )
        12           O   tau(  12) = (   0.7261100   0.5351752   0.4952171  )
        13           O   tau(  13) = (   0.7738900   0.0267559   0.4952171  )
        14           O   tau(  14) = (   0.2261100   0.9900828   0.5028021  )
        15           O   tau(  15) = (   0.7261100   0.4816634   0.9942268  )
        16           O   tau(  16) = (   0.2738900   0.5351752   0.0037925  )
        17           O   tau(  17) = (   0.5035400   0.2292869   0.4977007  )
        18           O   tau(  18) = (   0.4964600   0.7875517   0.5003186  )
        19           O   tau(  19) = (   0.9964600   0.2791324   0.9967103  )
        20           O   tau(  20) = (   0.0035400   0.7377062   0.0013090  )
        21           O   tau(  21) = (   0.4964600   0.2292869   0.0013090  )
        22           O   tau(  22) = (   0.5035400   0.7875517   0.9967103  )
        23           O   tau(  23) = (   0.0035400   0.2791324   0.5003186  )
        24           O   tau(  24) = (   0.9964600   0.7377062   0.4977007  )
        25           O   tau(  25) = (   0.7486885   0.2487696   0.7431550  )
        26           O   tau(  26) = (   0.2513116   0.7680690   0.2548642  )
        27           O   tau(  27) = (   0.7513116   0.2596497   0.2441454  )
        28           O   tau(  28) = (   0.2486885   0.7571888   0.7538738  )
        29           O   tau(  29) = (   0.2513116   0.2487696   0.7538738  )
        30           O   tau(  30) = (   0.7486885   0.7680690   0.2441454  )
        31           O   tau(  31) = (   0.2486885   0.2596497   0.2548642  )
        32           O   tau(  32) = (   0.7513116   0.7571888   0.7431550  )

     number of k points=    64  gaussian smearing, width (Ry)=  0.0007
                       cart. coord. in units 2pi/alat
        k(    1) = (   0.0000000   0.0000000   0.0000000), wk =   0.0092593
        k(    2) = (   0.0000000   0.0000000   0.1669974), wk =   0.0185185
        k(    3) = (   0.0000000   0.0000000   0.3339949), wk =   0.0185185
        k(    4) = (   0.0000000   0.0000000  -0.5009923), wk =   0.0092593
        k(    5) = (   0.0000000   0.1639067   0.0000000), wk =   0.0185185
        k(    6) = (   0.0000000   0.1639067   0.1669974), wk =   0.0370370
        k(    7) = (   0.0000000   0.1639067   0.3339949), wk =   0.0370370
        k(    8) = (   0.0000000   0.1639067  -0.5009923), wk =   0.0185185
        k(    9) = (   0.0000000   0.3278134   0.0000000), wk =   0.0185185
        k(   10) = (   0.0000000   0.3278134   0.1669974), wk =   0.0370370
        k(   11) = (   0.0000000   0.3278134   0.3339949), wk =   0.0370370
        k(   12) = (   0.0000000   0.3278134  -0.5009923), wk =   0.0185185
        k(   13) = (   0.0000000  -0.4917201   0.0000000), wk =   0.0092593
        k(   14) = (   0.0000000  -0.4917201   0.1669974), wk =   0.0185185
        k(   15) = (   0.0000000  -0.4917201   0.3339949), wk =   0.0185185
        k(   16) = (   0.0000000  -0.4917201  -0.5009923), wk =   0.0092593
        k(   17) = (   0.1666667   0.0000000   0.0000000), wk =   0.0185185
        k(   18) = (   0.1666667   0.0000000   0.1669974), wk =   0.0370370
        k(   19) = (   0.1666667   0.0000000   0.3339949), wk =   0.0370370
        k(   20) = (   0.1666667   0.0000000  -0.5009923), wk =   0.0185185
        k(   21) = (   0.1666667   0.1639067   0.0000000), wk =   0.0370370
        k(   22) = (   0.1666667   0.1639067   0.1669974), wk =   0.0740741
        k(   23) = (   0.1666667   0.1639067   0.3339949), wk =   0.0740741
        k(   24) = (   0.1666667   0.1639067  -0.5009923), wk =   0.0370370
        k(   25) = (   0.1666667   0.3278134   0.0000000), wk =   0.0370370
        k(   26) = (   0.1666667   0.3278134   0.1669974), wk =   0.0740741
        k(   27) = (   0.1666667   0.3278134   0.3339949), wk =   0.0740741
        k(   28) = (   0.1666667   0.3278134  -0.5009923), wk =   0.0370370
        k(   29) = (   0.1666667  -0.4917201   0.0000000), wk =   0.0185185
        k(   30) = (   0.1666667  -0.4917201   0.1669974), wk =   0.0370370
        k(   31) = (   0.1666667  -0.4917201   0.3339949), wk =   0.0370370
        k(   32) = (   0.1666667  -0.4917201  -0.5009923), wk =   0.0185185
        k(   33) = (   0.3333333   0.0000000   0.0000000), wk =   0.0185185
        k(   34) = (   0.3333333   0.0000000   0.1669974), wk =   0.0370370
        k(   35) = (   0.3333333   0.0000000   0.3339949), wk =   0.0370370
        k(   36) = (   0.3333333   0.0000000  -0.5009923), wk =   0.0185185
        k(   37) = (   0.3333333   0.1639067   0.0000000), wk =   0.0370370
        k(   38) = (   0.3333333   0.1639067   0.1669974), wk =   0.0740741
        k(   39) = (   0.3333333   0.1639067   0.3339949), wk =   0.0740741
        k(   40) = (   0.3333333   0.1639067  -0.5009923), wk =   0.0370370
        k(   41) = (   0.3333333   0.3278134   0.0000000), wk =   0.0370370
        k(   42) = (   0.3333333   0.3278134   0.1669974), wk =   0.0740741
        k(   43) = (   0.3333333   0.3278134   0.3339949), wk =   0.0740741
        k(   44) = (   0.3333333   0.3278134  -0.5009923), wk =   0.0370370
        k(   45) = (   0.3333333  -0.4917201   0.0000000), wk =   0.0185185
        k(   46) = (   0.3333333  -0.4917201   0.1669974), wk =   0.0370370
        k(   47) = (   0.3333333  -0.4917201   0.3339949), wk =   0.0370370
        k(   48) = (   0.3333333  -0.4917201  -0.5009923), wk =   0.0185185
        k(   49) = (  -0.5000000   0.0000000   0.0000000), wk =   0.0092593
        k(   50) = (  -0.5000000   0.0000000   0.1669974), wk =   0.0185185
        k(   51) = (  -0.5000000   0.0000000   0.3339949), wk =   0.0185185
        k(   52) = (  -0.5000000   0.0000000  -0.5009923), wk =   0.0092593
        k(   53) = (  -0.5000000   0.1639067   0.0000000), wk =   0.0185185
        k(   54) = (  -0.5000000   0.1639067   0.1669974), wk =   0.0370370
        k(   55) = (  -0.5000000   0.1639067   0.3339949), wk =   0.0370370
        k(   56) = (  -0.5000000   0.1639067  -0.5009923), wk =   0.0185185
        k(   57) = (  -0.5000000   0.3278134   0.0000000), wk =   0.0185185
        k(   58) = (  -0.5000000   0.3278134   0.1669974), wk =   0.0370370
        k(   59) = (  -0.5000000   0.3278134   0.3339949), wk =   0.0370370
        k(   60) = (  -0.5000000   0.3278134  -0.5009923), wk =   0.0185185
        k(   61) = (  -0.5000000  -0.4917201   0.0000000), wk =   0.0092593
        k(   62) = (  -0.5000000  -0.4917201   0.1669974), wk =   0.0185185
        k(   63) = (  -0.5000000  -0.4917201   0.3339949), wk =   0.0185185
        k(   64) = (  -0.5000000  -0.4917201  -0.5009923), wk =   0.0092593

     Dense  grid:   503027 G-vectors     FFT dimensions: ( 100, 100, 100)

     Estimated max dynamical RAM per process >       3.15 GB

     Estimated total dynamical RAM >     126.08 GB

     Initial potential from superposition of free atoms

     starting charge  367.99656, renormalised to  368.20000
     Starting wfcs are  232 randomized atomic wfcs

     total cpu time spent up to now is       29.6 secs

     Self-consistent Calculation

     iteration #  1     ecut=   120.00 Ry     beta= 0.70
     Davidson diagonalization with overlap
     ethr =  1.00E-02,  avg # of iterations =  5.0

     total cpu time spent up to now is      136.3 secs

     total energy              =   -6253.57237563 Ry
     Harris-Foulkes estimate   =   -6264.45502264 Ry
     estimated scf accuracy    <      13.74760304 Ry

     iteration #  2     ecut=   120.00 Ry     beta= 0.70
     Davidson diagonalization with overlap
     ethr =  3.73E-03,  avg # of iterations =  3.5

     total cpu time spent up to now is      235.1 secs

     total energy              =   -6250.34042293 Ry
     Harris-Foulkes estimate   =   -6270.89482213 Ry
     estimated scf accuracy    <      55.32200206 Ry

     iteration #  3     ecut=   120.00 Ry     beta= 0.70
     Davidson diagonalization with overlap
     ethr =  3.73E-03,  avg # of iterations =  3.4

     total cpu time spent up to now is      328.5 secs

     total energy              =   -6260.87343420 Ry
     Harris-Foulkes estimate   =   -6261.15122754 Ry
     estimated scf accuracy    <       0.92810378 Ry

     iteration #  4     ecut=   120.00 Ry     beta= 0.70
     Davidson diagonalization with overlap
     ethr =  2.52E-04,  avg # of iterations =  3.2

     total cpu time spent up to now is      402.9 secs

     total energy              =   -6260.86001375 Ry
     Harris-Foulkes estimate   =   -6260.93768179 Ry
     estimated scf accuracy    <       0.22734073 Ry

     iteration #  5     ecut=   120.00 Ry     beta= 0.70
     Davidson diagonalization with overlap
     ethr =  6.17E-05,  avg # of iterations =  4.9

     total cpu time spent up to now is      489.5 secs

     total energy              =   -6260.87102036 Ry
     Harris-Foulkes estimate   =   -6260.89763478 Ry
     estimated scf accuracy    <       0.06049316 Ry

     iteration #  6     ecut=   120.00 Ry     beta= 0.70
     Davidson diagonalization with overlap
     ethr =  1.64E-05,  avg # of iterations =  6.3

     total cpu time spent up to now is      583.0 secs

     total energy              =   -6260.88371871 Ry
     Harris-Foulkes estimate   =   -6260.88654722 Ry
     estimated scf accuracy    <       0.00767218 Ry

     iteration #  7     ecut=   120.00 Ry     beta= 0.70
     Davidson diagonalization with overlap
     ethr =  2.08E-06,  avg # of iterations =  5.6

     total cpu time spent up to now is      664.2 secs

     total energy              =   -6260.88462207 Ry
     Harris-Foulkes estimate   =   -6260.88475913 Ry
     estimated scf accuracy    <       0.00026263 Ry

     iteration #  8     ecut=   120.00 Ry     beta= 0.70
     Davidson diagonalization with overlap
     ethr =  7.13E-08,  avg # of iterations =  3.1

     total cpu time spent up to now is      756.0 secs

     total energy              =   -6260.88471255 Ry
     Harris-Foulkes estimate   =   -6260.88472760 Ry
     estimated scf accuracy    <       0.00005914 Ry

     iteration #  9     ecut=   120.00 Ry     beta= 0.70
     Davidson diagonalization with overlap
     ethr =  1.61E-08,  avg # of iterations =  2.4

     total cpu time spent up to now is      832.3 secs

     total energy              =   -6260.88471440 Ry
     Harris-Foulkes estimate   =   -6260.88472236 Ry
     estimated scf accuracy    <       0.00003521 Ry

     iteration # 10     ecut=   120.00 Ry     beta= 0.70
     Davidson diagonalization with overlap
     ethr =  9.56E-09,  avg # of iterations =  1.6

     total cpu time spent up to now is      902.1 secs

     total energy              =   -6260.88471171 Ry
     Harris-Foulkes estimate   =   -6260.88471645 Ry
     estimated scf accuracy    <       0.00001105 Ry

     iteration # 11     ecut=   120.00 Ry     beta= 0.70
     Davidson diagonalization with overlap
     ethr =  3.00E-09,  avg # of iterations =  2.9

     total cpu time spent up to now is      977.5 secs

     total energy              =   -6260.88471403 Ry
     Harris-Foulkes estimate   =   -6260.88471409 Ry
     estimated scf accuracy    <       0.00000015 Ry

     iteration # 12     ecut=   120.00 Ry     beta= 0.70
     Davidson diagonalization with overlap
     ethr =  4.02E-11,  avg # of iterations =  2.0

     total cpu time spent up to now is     1068.8 secs

     total energy              =   -6260.88471407 Ry
     Harris-Foulkes estimate   =   -6260.88471408 Ry
     estimated scf accuracy    <       0.00000003 Ry

     iteration # 13     ecut=   120.00 Ry     beta= 0.70
     Davidson diagonalization with overlap
     ethr =  9.21E-12,  avg # of iterations =  2.4

     total cpu time spent up to now is     1155.1 secs

     End of self-consistent calculation

          k = 0.0000 0.0000 0.0000 ( 62873 PWs)   bands (ev):

   -66.2753 -66.2747 -66.2747 -66.2746 -66.2741 -66.2741 -66.2740 -66.2734
   -30.6556 -30.6508 -30.6473 -30.6417 -30.6280 -30.6272 -30.6237 -30.6213
   -30.6211 -30.6131 -30.6111 -30.6016 -30.5748 -30.5713 -30.5632 -30.5604
   -30.5520 -30.5477 -30.5372 -30.5366 -30.5311 -30.5295 -30.5277 -30.5210
   -20.4409 -20.4409 -20.4405 -20.4404 -20.4398 -20.4398 -20.4395 -20.4394
   -20.4292 -20.4291 -20.4287 -20.4285 -20.4278 -20.4276 -20.4274 -20.4272
   -20.4163 -20.4161 -20.4151 -20.4151 -20.4147 -20.4144 -20.4142 -20.4137
   -20.4136 -20.4134 -20.4134 -20.4133 -20.4101 -20.4096 -20.4094 -20.4088
   -20.4044 -20.4043 -20.4043 -20.4042 -20.4011 -20.4009 -20.4004 -20.4003
   -20.3982 -20.3980 -20.3975 -20.3975 -20.3974 -20.3973 -20.3972 -20.3972
   -20.3893 -20.3893 -20.3891 -20.3891 -20.3883 -20.3882 -20.3880 -20.3879
   -10.1039  -9.7226  -9.7193  -9.6982  -9.3456  -9.3210  -9.2874  -9.0456
    -9.0132  -8.9362  -8.9351  -8.9335  -8.0188  -7.9385  -7.9364  -7.8949
    -7.8925  -7.8722  -7.8676  -7.8591  -7.7922  -7.7608  -7.7421  -7.7198
     1.1073   1.1097   1.1402   1.1652   1.1908   1.2022   1.2898   1.3090
     1.3233   1.3856   1.4147   1.5244   2.3345   2.3587   2.3940   2.4298
     2.4338   2.5514   3.9578   4.0440   4.1358   4.2540   4.4923   4.5308
     4.5570   4.5920   4.6111   4.7071   4.7518   4.7700   5.0973   5.4318
     5.4537   5.4723   5.4878   5.5508   5.5670   5.6572   5.7435   5.7481
     5.7741   5.7960   5.8436   5.8936   5.8948   5.8996   6.0401   6.0640
     6.0939   6.3118   6.3335   6.3552   6.3557   6.5948   6.6193   6.6679
     6.6705   6.6757   6.9595   6.9660   6.9927   6.9978   7.0199   7.0212
     7.0631   7.0672   8.0674   8.1101   8.2263   8.2467   8.2751   8.3013
     9.2332   9.2483   9.5907   9.6693   9.7310   9.8278  12.3771  12.4527
    12.4725  12.5356  12.5824  12.6086  12.6219  12.6400  12.6535  12.8041
    13.0722  13.1199  13.1809  13.3365  13.7324  13.8476  13.9214  13.9671
    14.0284  14.0505  14.3321  14.5958  14.6330  14.6594  15.2473  15.3877
    15.6475  16.2880  16.7950  16.8834  16.9932

          k = 0.0000 0.0000 0.1670 ( 62855 PWs)   bands (ev):

   -66.2752 -66.2747 -66.2746 -66.2746 -66.2741 -66.2741 -66.2740 -66.2735
   -30.6552 -30.6512 -30.6468 -30.6420 -30.6271 -30.6246 -30.6215 -30.6188
   -30.6162 -30.6116 -30.6089 -30.5986 -30.5745 -30.5716 -30.5643 -30.5599
   -30.5559 -30.5522 -30.5416 -30.5369 -30.5355 -30.5292 -30.5291 -30.5223
   -20.4408 -20.4408 -20.4404 -20.4404 -20.4399 -20.4398 -20.4396 -20.4395
   -20.4292 -20.4290 -20.4287 -20.4286 -20.4277 -20.4276 -20.4274 -20.4272
   -20.4161 -20.4159 -20.4150 -20.4149 -20.4148 -20.4145 -20.4142 -20.4137
   -20.4136 -20.4135 -20.4135 -20.4133 -20.4100 -20.4096 -20.4094 -20.4088
   -20.4044 -20.4043 -20.4043 -20.4043 -20.4010 -20.4008 -20.4002 -20.4001
   -20.3986 -20.3984 -20.3977 -20.3975 -20.3974 -20.3974 -20.3972 -20.3971
   -20.3893 -20.3892 -20.3891 -20.3890 -20.3884 -20.3883 -20.3881 -20.3880
   -10.0639  -9.7366  -9.6660  -9.6482  -9.3302  -9.2980  -9.2632  -9.0134
    -8.9793  -8.9354  -8.9221  -8.9056  -8.0570  -8.0228  -7.9861  -7.9759
    -7.9446  -7.9420  -7.9114  -7.8754  -7.7997  -7.7643  -7.7547  -7.7231
     1.1358   1.1843   1.2095   1.2249   1.2441   1.2878   1.3021   1.3808
     1.4463   1.5008   1.5718   1.6579   2.3379   2.3913   2.4427   2.5117
     2.5160   2.6312   3.9322   4.0062   4.1246   4.2037   4.2664   4.3014
     4.4438   4.4852   4.6010   4.6144   4.6190   4.7243   5.1045   5.2939
     5.4032   5.4125   5.4792   5.4957   5.5447   5.5586   5.6292   5.6370
     5.7333   5.7385   5.7906   5.8953   5.9163   5.9510   6.0829   6.0890
     6.1200   6.3268   6.4477   6.5101   6.5186   6.5555   6.6179   6.6726
     6.7121   6.7672   6.8135   6.8291   6.8293   6.8789   6.8849   6.9473
     7.0172   7.0210   8.0712   8.1044   8.1564   8.1800   8.2138   8.2412
     9.5616   9.5773   9.6837   9.8239   9.9192  10.0216  12.4187  12.4328
    12.4469  12.5065  12.5395  12.5846  12.6059  12.6090  12.6662  12.8073
    12.8590  12.9056  13.2386  13.3340  13.6633  13.7125  13.8252  13.9042
    14.2161  14.2878  14.5066  14.6311  14.6483  14.7605  15.3687  15.6147
    15.6652  16.4734  16.6298  16.9438  17.0818

          k = 0.0000 0.0000 0.3340 ( 62883 PWs)   bands (ev):

   -66.2751 -66.2748 -66.2745 -66.2745 -66.2742 -66.2742 -66.2739 -66.2736
   -30.6544 -30.6520 -30.6456 -30.6429 -30.6255 -30.6225 -30.6196 -30.6131
   -30.6053 -30.6024 -30.5969 -30.5886 -30.5737 -30.5728 -30.5690 -30.5680
   -30.5647 -30.5582 -30.5548 -30.5460 -30.5358 -30.5318 -30.5282 -30.5246
   -20.4406 -20.4406 -20.4403 -20.4402 -20.4401 -20.4401 -20.4398 -20.4397
   -20.4290 -20.4289 -20.4288 -20.4286 -20.4277 -20.4275 -20.4275 -20.4273
   -20.4158 -20.4156 -20.4150 -20.4148 -20.4147 -20.4146 -20.4141 -20.4139
   -20.4138 -20.4137 -20.4135 -20.4134 -20.4099 -20.4097 -20.4092 -20.4089
   -20.4044 -20.4044 -20.4043 -20.4043 -20.4006 -20.4004 -20.3996 -20.3995
   -20.3993 -20.3991 -20.3982 -20.3980 -20.3973 -20.3972 -20.3971 -20.3970
   -20.3891 -20.3890 -20.3889 -20.3888 -20.3886 -20.3884 -20.3883 -20.3882
    -9.9660  -9.7809  -9.5377  -9.5322  -9.3611  -9.3346  -9.0289  -8.9659
    -8.9409  -8.8567  -8.8257  -8.7954  -8.3134  -8.2889  -8.2797  -8.2554
    -7.9715  -7.9513  -7.9068  -7.8841  -7.7970  -7.7737  -7.7535  -7.7319
     1.1431   1.1696   1.2562   1.2643   1.2832   1.2866   1.3305   1.3700
     2.0943   2.1214   2.1996   2.2294   2.3445   2.3998   2.6641   2.7096
     2.7653   2.8614   3.6398   3.6937   3.7942   3.9255   3.9328   3.9781
     4.1395   4.1432   4.4754   4.6121   4.6334   4.6682   4.8381   4.9631
     5.0792   5.1155   5.2507   5.3002   5.3493   5.4983   5.6428   5.6465
     5.7182   5.7360   5.8425   5.9208   5.9668   6.0431   6.0860   6.1262
     6.1642   6.1907   6.3035   6.3426   6.3792   6.4571   6.4691   6.6021
     6.6636   6.6817   6.7709   6.7781   7.0162   7.0215   7.1063   7.1134
     7.2067   7.2381   7.9414   7.9695   8.0218   8.0498   8.0794   8.0952
     9.7190   9.7929  10.2972  10.3007  10.6606  10.7096  11.8691  11.8882
    12.2936  12.3319  12.6075  12.6079  12.6591  12.6783  12.7091  12.7189
    12.7434  12.8528  13.2629  13.3263  13.3630  13.3803  13.4868  13.5426
    14.5657  14.6246  14.8287  14.8931  15.0398  15.2016  15.3041  15.5027
    16.0960  16.6920  16.9122  17.0875  17.4313

          k = 0.0000 0.0000-0.5010 ( 62806 PWs)   bands (ev):

   -66.2750 -66.2750 -66.2744 -66.2744 -66.2743 -66.2743 -66.2738 -66.2738
   -30.6532 -30.6532 -30.6442 -30.6442 -30.6239 -30.6239 -30.6156 -30.6156
   -30.5867 -30.5867 -30.5840 -30.5840 -30.5809 -30.5809 -30.5725 -30.5725
   -30.5723 -30.5723 -30.5545 -30.5545 -30.5341 -30.5341 -30.5267 -30.5267
   -20.4404 -20.4404 -20.4403 -20.4403 -20.4400 -20.4400 -20.4400 -20.4400
   -20.4289 -20.4289 -20.4288 -20.4288 -20.4276 -20.4276 -20.4274 -20.4274
   -20.4154 -20.4154 -20.4152 -20.4152 -20.4143 -20.4143 -20.4142 -20.4142
   -20.4139 -20.4139 -20.4134 -20.4134 -20.4098 -20.4098 -20.4091 -20.4091
   -20.4044 -20.4044 -20.4044 -20.4044 -20.4000 -20.4000 -20.3998 -20.3998
   -20.3989 -20.3989 -20.3987 -20.3987 -20.3971 -20.3971 -20.3971 -20.3971
   -20.3888 -20.3888 -20.3887 -20.3887 -20.3886 -20.3886 -20.3885 -20.3885
    -9.8597  -9.8597  -9.4248  -9.4248  -9.4116  -9.4116  -8.9497  -8.9497
    -8.6845  -8.6845  -8.6119  -8.6118  -8.5934  -8.5934  -8.5687  -8.5686
    -7.9632  -7.9632  -7.8957  -7.8957  -7.7860  -7.7860  -7.7434  -7.7434
     1.1545   1.1545   1.2706   1.2706   1.2770   1.2770   1.3562   1.3562
     2.3500   2.3500   2.7490   2.7490   2.8094   2.8094   2.9714   2.9714
     3.0360   3.0360   3.1544   3.1544   3.4073   3.4074   3.8129   3.8129
     3.8240   3.8240   4.1331   4.1331   4.6175   4.6175   5.0259   5.0259
     5.0844   5.0844   5.2111   5.2111   5.2407   5.2407   5.6881   5.6881
     5.7825   5.7825   5.9312   5.9312   5.9796   5.9796   6.0177   6.0177
     6.1441   6.1441   6.2606   6.2606   6.3068   6.3068   6.4587   6.4587
     6.6707   6.6707   6.7238   6.7238   7.0194   7.0194   7.5782   7.5783
     7.6047   7.6048   7.6821   7.6821   7.7076   7.7077   8.0869   8.0869
     9.7599   9.7599  11.1151  11.1151  11.1289  11.1290  11.5131  11.5131
    11.5407  11.5407  12.6079  12.6079  12.7434  12.7434  12.9676  12.9676
    12.9949  12.9949  13.0735  13.0735  13.1291  13.1291  13.3133  13.3133
    14.6095  14.6095  15.1653  15.1653  15.2641  15.2641  15.5307  15.5307
    16.1232  16.1232  17.4496  17.4496  17.6974

          k = 0.0000 0.1639 0.0000 ( 62922 PWs)   bands (ev):

   -66.2752 -66.2747 -66.2746 -66.2746 -66.2741 -66.2741 -66.2740 -66.2735
   -30.6546 -30.6498 -30.6477 -30.6421 -30.6267 -30.6242 -30.6236 -30.6210
   -30.6166 -30.6119 -30.6069 -30.5987 -30.5763 -30.5726 -30.5628 -30.5597
   -30.5542 -30.5492 -30.5422 -30.5367 -30.5334 -30.5311 -30.5303 -30.5233
   -20.4409 -20.4409 -20.4405 -20.4404 -20.4398 -20.4398 -20.4395 -20.4394
   -20.4292 -20.4291 -20.4287 -20.4285 -20.4278 -20.4276 -20.4274 -20.4272
   -20.4162 -20.4161 -20.4151 -20.4151 -20.4146 -20.4144 -20.4142 -20.4137
   -20.4137 -20.4134 -20.4133 -20.4133 -20.4100 -20.4095 -20.4094 -20.4088
   -20.4039 -20.4039 -20.4038 -20.4038 -20.4011 -20.4009 -20.4004 -20.4003
   -20.3984 -20.3983 -20.3979 -20.3979 -20.3975 -20.3975 -20.3974 -20.3973
   -20.3893 -20.3893 -20.3891 -20.3891 -20.3883 -20.3882 -20.3880 -20.3880
   -10.0636  -9.7145  -9.6757  -9.6713  -9.3562  -9.3327  -9.2042  -9.0434
    -9.0154  -8.8980  -8.8953  -8.8896  -8.0545  -7.9656  -7.9374  -7.9253
    -7.9127  -7.8945  -7.8749  -7.8571  -7.8498  -7.8480  -7.8423  -7.8023
     1.1068   1.1091   1.1946   1.2026   1.2554   1.2889   1.2948   1.4135
     1.5091   1.5465   1.5847   1.6853   2.4055   2.4098   2.4669   2.4690
     2.5129   2.5488   3.7827   3.8728   3.8893   3.9954   4.4920   4.5263
     4.5431   4.5510   4.5821   4.7444   4.8189   4.8296   4.9830   5.1678
     5.2512   5.4918   5.5313   5.5380   5.5485   5.5608   5.5662   5.5795
     5.7615   5.8586   5.8600   5.9042   5.9397   5.9469   6.0816   6.1035
     6.1075   6.2757   6.2899   6.3801   6.4783   6.5780   6.6217   6.6362
     6.7055   6.7284   6.8677   6.8899   6.9575   6.9585   6.9868   7.0106
     7.0172   7.0310   8.0209   8.0579   8.1846   8.2142   8.2277   8.2451
     9.2393   9.2590   9.8085   9.9249   9.9264  10.0579  12.2360  12.2956
    12.4297  12.4325  12.4562  12.5012  12.6395  12.6417  12.6603  12.8376
    13.0920  13.1488  13.2581  13.4025  13.7635  13.8250  13.8703  13.9513
    14.0595  14.2388  14.3083  14.5812  14.6838  14.8489  15.2242  15.3582
    16.0363  16.0554  16.9967  17.0955  17.1959

          k = 0.0000 0.1639 0.1670 ( 62902 PWs)   bands (ev):

   -66.2752 -66.2747 -66.2747 -66.2746 -66.2741 -66.2741 -66.2740 -66.2735
   -30.6542 -30.6501 -30.6471 -30.6425 -30.6244 -30.6221 -30.6187 -30.6169
   -30.6160 -30.6084 -30.6074 -30.5962 -30.5760 -30.5729 -30.5639 -30.5592
   -30.5576 -30.5533 -30.5418 -30.5416 -30.5354 -30.5330 -30.5322 -30.5249
   -20.4408 -20.4408 -20.4404 -20.4404 -20.4399 -20.4398 -20.4395 -20.4395
   -20.4292 -20.4290 -20.4287 -20.4286 -20.4277 -20.4276 -20.4274 -20.4272
   -20.4161 -20.4159 -20.4150 -20.4149 -20.4147 -20.4145 -20.4141 -20.4137
   -20.4136 -20.4135 -20.4134 -20.4133 -20.4100 -20.4095 -20.4094 -20.4089
   -20.4040 -20.4039 -20.4039 -20.4039 -20.4010 -20.4008 -20.4002 -20.4001
   -20.3987 -20.3986 -20.3979 -20.3978 -20.3977 -20.3975 -20.3974 -20.3973
   -20.3893 -20.3892 -20.3891 -20.3890 -20.3884 -20.3882 -20.3881 -20.3880
   -10.0222  -9.6882  -9.6646  -9.6155  -9.3423  -9.2738  -9.2150  -9.0104
    -8.9814  -8.8981  -8.8787  -8.8708  -8.0889  -8.0207  -8.0089  -7.9739
    -7.9661  -7.9472  -7.9138  -7.8820  -7.8780  -7.8625  -7.8472  -7.8360
     1.1915   1.2084   1.2515   1.2868   1.3771   1.3883   1.4466   1.5227
     1.5709   1.5767   1.6006   1.7501   2.4113   2.4640   2.4920   2.5569
     2.5907   2.6261   3.7804   3.8593   3.9056   3.9708   4.2472   4.2967
     4.4889   4.5410   4.5503   4.5949   4.6061   4.7509   4.9970   5.1300
     5.2170   5.3020   5.4138   5.4357   5.4611   5.5013   5.5052   5.5703
     5.6650   5.8332   5.8352   5.9001   5.9011   6.0023   6.0399   6.0746
     6.1813   6.4208   6.4332   6.4715   6.4799   6.5818   6.6082   6.7055
     6.7169   6.7753   6.8039   6.8405   6.8442   6.8877   6.8993   6.9021
     6.9454   6.9886   8.0253   8.0516   8.1339   8.1582   8.1622   8.1800
     9.5650   9.5823   9.9384  10.0524  10.0877  10.1807  12.3077  12.3673
    12.4030  12.4344  12.4359  12.4559  12.5105  12.5532  12.7053  12.8373
    12.8933  12.9363  13.3016  13.4027  13.6661  13.6972  13.7435  13.7985
    14.3378  14.4980  14.4980  14.6322  14.7049  14.9511  15.3373  15.6426
    16.0220  16.2041  16.8084  17.1056  17.1673

          k = 0.0000 0.1639 0.3340 ( 62893 PWs)   bands (ev):

   -66.2751 -66.2748 -66.2746 -66.2745 -66.2743 -66.2742 -66.2739 -66.2736
   -30.6533 -30.6510 -30.6460 -30.6433 -30.6214 -30.6181 -30.6164 -30.6091
   -30.6053 -30.6023 -30.5969 -30.5874 -30.5753 -30.5741 -30.5688 -30.5686
   -30.5656 -30.5575 -30.5547 -30.5456 -30.5406 -30.5358 -30.5320 -30.5279
   -20.4406 -20.4406 -20.4403 -20.4402 -20.4401 -20.4401 -20.4397 -20.4397
   -20.4290 -20.4289 -20.4288 -20.4286 -20.4277 -20.4275 -20.4275 -20.4273
   -20.4158 -20.4156 -20.4150 -20.4148 -20.4147 -20.4146 -20.4140 -20.4139
   -20.4138 -20.4137 -20.4136 -20.4134 -20.4099 -20.4096 -20.4093 -20.4090
   -20.4040 -20.4040 -20.4039 -20.4039 -20.4006 -20.4004 -20.3997 -20.3995
   -20.3994 -20.3992 -20.3982 -20.3980 -20.3977 -20.3977 -20.3974 -20.3973
   -20.3891 -20.3890 -20.3889 -20.3888 -20.3885 -20.3884 -20.3884 -20.3883
    -9.9213  -9.7326  -9.5483  -9.4753  -9.3741  -9.2529  -9.0399  -8.9440
    -8.9044  -8.8594  -8.8042  -8.7727  -8.3277  -8.2891  -8.2856  -8.2519
    -7.9907  -7.9744  -7.9095  -7.8867  -7.8814  -7.8720  -7.8543  -7.8477
     1.2257   1.2441   1.2630   1.2821   1.4707   1.4884   1.5560   1.5722
     2.0959   2.1308   2.1985   2.2437   2.4186   2.4684   2.7145   2.7819
     2.8019   2.8549   3.6236   3.6359   3.7862   3.8185   3.9123   3.9591
     3.9994   4.0893   4.4714   4.5211   4.6429   4.6557   4.7915   4.9261
     4.9302   4.9692   5.0192   5.0572   5.3530   5.3627   5.3885   5.6133
     5.7470   5.7493   5.8761   5.8855   5.8915   5.9043   5.9450   6.0173
     6.2755   6.3503   6.3664   6.4407   6.4637   6.5575   6.5666   6.6014
     6.6144   6.6627   6.8349   6.8721   6.8983   6.9136   7.1074   7.1454
     7.2108   7.2453   7.9480   7.9583   7.9673   7.9905   8.0336   8.0549
     9.9579  10.0246  10.2982  10.3085  10.7600  10.8111  11.8725  11.8872
    12.3269  12.3525  12.4495  12.4565  12.5409  12.5860  12.6800  12.7001
    12.7639  12.8463  13.3204  13.3610  13.3672  13.3829  13.4004  13.4246
    14.6048  14.6505  14.8814  15.1347  15.1795  15.2747  15.3353  15.9054
    16.2529  16.6618  16.7187  17.0114  17.3958

          k = 0.0000 0.1639-0.5010 ( 62886 PWs)   bands (ev):

   -66.2749 -66.2749 -66.2744 -66.2744 -66.2743 -66.2743 -66.2738 -66.2738
   -30.6521 -30.6521 -30.6446 -30.6446 -30.6195 -30.6195 -30.6119 -30.6119
   -30.5869 -30.5869 -30.5839 -30.5839 -30.5811 -30.5811 -30.5740 -30.5740
   -30.5719 -30.5719 -30.5538 -30.5538 -30.5387 -30.5387 -30.5303 -30.5303
   -20.4404 -20.4404 -20.4403 -20.4403 -20.4400 -20.4400 -20.4400 -20.4400
   -20.4289 -20.4289 -20.4288 -20.4288 -20.4276 -20.4276 -20.4274 -20.4274
   -20.4154 -20.4154 -20.4152 -20.4152 -20.4142 -20.4142 -20.4142 -20.4142
   -20.4139 -20.4139 -20.4135 -20.4135 -20.4098 -20.4098 -20.4091 -20.4091
   -20.4040 -20.4040 -20.4040 -20.4040 -20.4000 -20.4000 -20.3999 -20.3999
   -20.3989 -20.3989 -20.3988 -20.3988 -20.3975 -20.3975 -20.3975 -20.3975
   -20.3888 -20.3888 -20.3887 -20.3887 -20.3886 -20.3886 -20.3885 -20.3885
    -9.8123  -9.8123  -9.4395  -9.4395  -9.3360  -9.3360  -8.9159  -8.9159
    -8.6965  -8.6964  -8.6166  -8.6166  -8.5863  -8.5862  -8.5594  -8.5594
    -7.9858  -7.9858  -7.8984  -7.8984  -7.8730  -7.8730  -7.8565  -7.8565
     1.2359   1.2359   1.2758   1.2758   1.4861   1.4861   1.5657   1.5657
     2.4219   2.4219   2.7780   2.7781   2.8429   2.8429   2.9608   2.9608
     3.0280   3.0280   3.1728   3.1728   3.3925   3.3926   3.8497   3.8497
     3.8751   3.8752   3.9438   3.9438   4.5160   4.5160   4.8510   4.8510
     4.9132   4.9132   5.1524   5.1524   5.1536   5.1536   5.5025   5.5025
     5.7175   5.7175   5.8346   5.8346   5.9194   5.9194   5.9720   5.9720
     6.2060   6.2060   6.4115   6.4115   6.4589   6.4589   6.5922   6.5922
     6.5966   6.5966   6.8138   6.8138   6.8985   6.8985   7.5919   7.5920
     7.5985   7.5985   7.6607   7.6607   7.6785   7.6785   8.0417   8.0417
     9.9963   9.9963  11.1154  11.1154  11.1298  11.1299  11.5741  11.5741
    11.6000  11.6000  12.4424  12.4424  12.7733  12.7733  12.9206  12.9206
    12.9619  12.9619  12.9713  12.9713  13.0389  13.0389  13.3795  13.3795
    14.6398  14.6398  15.1416  15.1416  15.6357  15.6357  15.6930  15.6930
    16.2310  16.2310  17.2326  17.2326  17.7156

          k = 0.0000 0.3278 0.0000 ( 62940 PWs)   bands (ev):

   -66.2751 -66.2748 -66.2745 -66.2745 -66.2742 -66.2742 -66.2739 -66.2736
   -30.6525 -30.6487 -30.6475 -30.6433 -30.6246 -30.6234 -30.6204 -30.6203
   -30.6048 -30.6045 -30.5951 -30.5890 -30.5815 -30.5780 -30.5630 -30.5613
   -30.5571 -30.5555 -30.5535 -30.5426 -30.5369 -30.5346 -30.5309 -30.5276
   -20.4409 -20.4409 -20.4405 -20.4404 -20.4398 -20.4398 -20.4395 -20.4394
   -20.4292 -20.4291 -20.4286 -20.4286 -20.4277 -20.4276 -20.4273 -20.4272
   -20.4162 -20.4161 -20.4151 -20.4151 -20.4145 -20.4144 -20.4141 -20.4138
   -20.4136 -20.4134 -20.4134 -20.4133 -20.4099 -20.4096 -20.4093 -20.4090
   -20.4028 -20.4027 -20.4027 -20.4027 -20.4010 -20.4008 -20.4005 -20.4004
   -20.3994 -20.3994 -20.3992 -20.3991 -20.3976 -20.3976 -20.3975 -20.3973
   -20.3893 -20.3893 -20.3891 -20.3891 -20.3883 -20.3882 -20.3881 -20.3880
    -9.9636  -9.7649  -9.5660  -9.5573  -9.3910  -9.3708  -9.0379  -9.0215
    -8.9680  -8.7672  -8.7632  -8.7445  -8.2753  -8.1998  -8.1880  -8.1518
    -7.9451  -7.9410  -7.8947  -7.8922  -7.8818  -7.8777  -7.8517  -7.8327
     1.1066   1.1080   1.2035   1.2035   1.2780   1.2868   1.3868   1.4102
     2.1132   2.2112   2.2654   2.3493   2.4558   2.4954   2.6575   2.6761
     2.7205   2.7644   3.3841   3.4129   3.4918   3.5233   4.0073   4.3179
     4.3689   4.4979   4.5356   4.5437   4.5854   4.6458   5.0004   5.0098
     5.0136   5.0335   5.3704   5.4014   5.5250   5.5352   5.5628   5.5967
     5.8049   5.8299   5.8490   5.8672   5.9417   5.9426   5.9619   5.9989
     6.1501   6.1852   6.2339   6.4327   6.5133   6.5366   6.6852   6.7746
     6.7798   6.8642   6.9494   6.9537   6.9871   6.9970   7.0252   7.0425
     7.0497   7.0838   7.8361   7.8606   7.9192   7.9534   8.2311   8.2409
     9.2515   9.2662  10.3772  10.4595  10.5387  10.6237  11.7679  11.8180
    11.9558  11.9693  12.4623  12.4812  12.6387  12.6416  12.7770  12.9566
    13.1152  13.2546  13.2754  13.3631  13.6416  13.7131  13.8080  13.8470
    14.2806  14.2845  14.5800  14.6483  14.8803  15.1418  15.2678  15.5200
    15.5235  16.9390  17.0543  17.2970  17.6205

          k = 0.0000 0.3278 0.1670 ( 62936 PWs)   bands (ev):

   -66.2751 -66.2748 -66.2746 -66.2745 -66.2743 -66.2742 -66.2739 -66.2736
   -30.6521 -30.6482 -30.6478 -30.6436 -30.6207 -30.6186 -30.6165 -30.6155
   -30.6049 -30.6033 -30.5957 -30.5875 -30.5812 -30.5783 -30.5649 -30.5627
   -30.5567 -30.5566 -30.5549 -30.5422 -30.5416 -30.5379 -30.5351 -30.5302
   -20.4408 -20.4408 -20.4404 -20.4404 -20.4399 -20.4399 -20.4395 -20.4395
   -20.4291 -20.4290 -20.4287 -20.4286 -20.4277 -20.4276 -20.4274 -20.4273
   -20.4161 -20.4160 -20.4150 -20.4149 -20.4146 -20.4145 -20.4140 -20.4138
   -20.4137 -20.4135 -20.4134 -20.4134 -20.4099 -20.4095 -20.4094 -20.4090
   -20.4028 -20.4028 -20.4028 -20.4027 -20.4009 -20.4008 -20.4003 -20.4001
   -20.3996 -20.3995 -20.3991 -20.3990 -20.3977 -20.3977 -20.3976 -20.3975
   -20.3893 -20.3892 -20.3891 -20.3890 -20.3883 -20.3882 -20.3882 -20.3881
    -9.9191  -9.7156  -9.5728  -9.4961  -9.3817  -9.3091  -9.0042  -8.9873
    -8.9793  -8.7697  -8.7480  -8.7378  -8.2899  -8.2128  -8.1881  -8.1563
    -8.0144  -7.9823  -7.9685  -7.9450  -7.9294  -7.9203  -7.8970  -7.8850
     1.2003   1.2059   1.2754   1.2845   1.4399   1.4468   1.5383   1.5680
     2.1193   2.2065   2.2626   2.3492   2.5326   2.5622   2.6631   2.6824
     2.8052   2.8424   3.4088   3.4577   3.4873   3.5188   3.9955   4.2485
     4.2633   4.3446   4.3674   4.5382   4.5856   4.6632   4.7293   4.7481
     5.0074   5.0588   5.2261   5.3160   5.3339   5.3436   5.5214   5.5258
     5.5895   5.7045   5.7574   5.8194   5.8462   5.8672   5.9452   6.0060
     6.2807   6.3797   6.4593   6.4600   6.5786   6.6919   6.7427   6.7573
     6.7955   6.8109   6.8153   6.8805   6.9114   6.9312   7.0026   7.0499
     7.0899   7.1108   7.8410   7.8540   7.8921   7.9190   8.1649   8.1765
     9.5739   9.5858  10.5469  10.5649  10.6187  10.6383  11.8551  11.9046
    11.9567  11.9706  12.4323  12.4356  12.5172  12.5351  12.8239  12.9545
    12.9928  13.0465  13.2602  13.3609  13.4869  13.5440  13.6813  13.7110
    14.4884  14.5376  14.6758  14.8237  15.0476  15.2400  15.5614  15.6185
    15.6810  17.0153  17.0315  17.2445  17.3551

          k = 0.0000 0.3278 0.3340 ( 62927 PWs)   bands (ev):

   -66.2750 -66.2747 -66.2747 -66.2744 -66.2743 -66.2741 -66.2740 -66.2737
   -30.6511 -30.6487 -30.6471 -30.6445 -30.6124 -30.6093 -30.6058 -30.6055
   -30.6021 -30.5982 -30.5957 -30.5820 -30.5805 -30.5794 -30.5722 -30.5685
   -30.5672 -30.5550 -30.5541 -30.5534 -30.5449 -30.5444 -30.5409 -30.5351
   -20.4406 -20.4406 -20.4402 -20.4402 -20.4401 -20.4401 -20.4397 -20.4397
   -20.4290 -20.4289 -20.4287 -20.4287 -20.4276 -20.4275 -20.4274 -20.4273
   -20.4157 -20.4156 -20.4149 -20.4148 -20.4147 -20.4146 -20.4140 -20.4138
   -20.4138 -20.4137 -20.4137 -20.4135 -20.4098 -20.4095 -20.4094 -20.4091
   -20.4029 -20.4029 -20.4028 -20.4028 -20.4007 -20.4006 -20.3999 -20.3999
   -20.3997 -20.3995 -20.3988 -20.3987 -20.3982 -20.3981 -20.3980 -20.3979
   -20.3891 -20.3890 -20.3889 -20.3888 -20.3885 -20.3884 -20.3884 -20.3883
    -9.8108  -9.6160  -9.5991  -9.4163  -9.3206  -9.0787  -9.0231  -8.9045
    -8.8672  -8.7809  -8.7036  -8.6854  -8.4178  -8.3423  -8.2751  -8.2405
    -8.1915  -8.1694  -8.1320  -8.1012  -7.9303  -7.9169  -7.9063  -7.8938
     1.2498   1.2598   1.2696   1.2795   1.9865   2.0514   2.0946   2.1374
     2.1921   2.2520   2.2928   2.4243   2.6251   2.6704   2.7624   2.8442
     3.0025   3.0216   3.4021   3.4604   3.5067   3.5165   3.7522   3.7622
     3.9807   4.1887   4.2411   4.2779   4.3190   4.4833   4.5250   4.6884
     4.7739   4.8191   4.9116   4.9444   5.0350   5.0841   5.2395   5.2632
     5.2815   5.4260   5.6422   5.7842   5.8844   5.9020   5.9925   6.0254
     6.3907   6.3917   6.4204   6.4864   6.4963   6.5879   6.6616   6.6903
     6.8026   6.9617   6.9787   7.0182   7.0544   7.0855   7.1302   7.1996
     7.2437   7.2528   7.7887   7.8031   7.8249   7.8513   7.9602   7.9880
    10.2793  10.2985  10.5749  10.6073  11.0738  11.1276  11.8609  11.8802
    11.9602  11.9936  12.1373  12.1689  12.4847  12.5165  12.6853  12.6939
    12.8806  12.9461  13.0735  13.1285  13.3029  13.3197  13.3807  13.3913
    14.6921  14.8195  14.8461  15.1840  15.3700  15.8190  15.9528  16.1975
    16.5572  16.6401  16.8845  17.3400  17.4186

          k = 0.0000 0.3278-0.5010 ( 62898 PWs)   bands (ev):

   -66.2748 -66.2748 -66.2745 -66.2745 -66.2742 -66.2742 -66.2739 -66.2739
   -30.6499 -30.6499 -30.6458 -30.6458 -30.6080 -30.6080 -30.6020 -30.6020
   -30.5884 -30.5884 -30.5844 -30.5844 -30.5814 -30.5814 -30.5788 -30.5788
   -30.5698 -30.5698 -30.5515 -30.5515 -30.5503 -30.5503 -30.5387 -30.5387
   -20.4404 -20.4404 -20.4403 -20.4403 -20.4400 -20.4400 -20.4400 -20.4400
   -20.4289 -20.4289 -20.4288 -20.4288 -20.4275 -20.4275 -20.4274 -20.4274
   -20.4153 -20.4153 -20.4152 -20.4152 -20.4142 -20.4142 -20.4142 -20.4142
   -20.4138 -20.4138 -20.4136 -20.4136 -20.4096 -20.4096 -20.4093 -20.4093
   -20.4029 -20.4029 -20.4029 -20.4029 -20.4004 -20.4004 -20.4002 -20.4002
   -20.3989 -20.3989 -20.3988 -20.3988 -20.3984 -20.3984 -20.3983 -20.3983
   -20.3888 -20.3888 -20.3887 -20.3887 -20.3886 -20.3886 -20.3886 -20.3886
    -9.6965  -9.6965  -9.4865  -9.4864  -9.1315  -9.1314  -8.8115  -8.8115
    -8.7453  -8.7452  -8.6339  -8.6339  -8.5557  -8.5557  -8.5226  -8.5226
    -8.1888  -8.1888  -8.1412  -8.1412  -7.9185  -7.9185  -7.9056  -7.9056
     1.2624   1.2624   1.2728   1.2728   2.1174   2.1174   2.2418   2.2418
     2.6186   2.6186   2.8629   2.8629   2.9262   2.9262   2.9321   2.9321
     3.0074   3.0074   3.2220   3.2221   3.3430   3.3431   3.5352   3.5352
     3.9926   3.9926   4.0065   4.0065   4.0452   4.0452   4.2539   4.2539
     4.8377   4.8377   4.9514   4.9514   5.0235   5.0235   5.0893   5.0894
     5.2191   5.2191   5.7130   5.7130   5.9431   5.9431   5.9697   5.9697
     6.3393   6.3393   6.4131   6.4131   6.4585   6.4585   6.6776   6.6776
     6.9381   6.9381   7.0262   7.0262   7.0966   7.0966   7.5673   7.5673
     7.5686   7.5687   7.5780   7.5780   7.6213   7.6214   7.8698   7.8698
    10.5723  10.5723  11.1137  11.1137  11.1357  11.1357  11.7641  11.7641
    11.7908  11.7908  12.0096  12.0096  12.5581  12.5581  12.6018  12.6018
    12.8977  12.8977  12.9747  12.9747  13.0362  13.0362  13.3428  13.3428
    14.7728  14.7728  15.0677  15.0677  16.0537  16.0538  16.5226  16.5226
    16.6637  16.6637  16.8232  16.8233  17.7861

          k = 0.0000-0.4917 0.0000 ( 63006 PWs)   bands (ev):

   -66.2750 -66.2750 -66.2744 -66.2744 -66.2744 -66.2743 -66.2737 -66.2737
   -30.6503 -30.6503 -30.6452 -30.6452 -30.6235 -30.6235 -30.6198 -30.6198
   -30.5919 -30.5919 -30.5895 -30.5895 -30.5785 -30.5785 -30.5730 -30.5730
   -30.5584 -30.5584 -30.5517 -30.5516 -30.5366 -30.5366 -30.5301 -30.5301
   -20.4409 -20.4409 -20.4405 -20.4405 -20.4398 -20.4398 -20.4394 -20.4394
   -20.4291 -20.4291 -20.4286 -20.4286 -20.4277 -20.4277 -20.4273 -20.4273
   -20.4161 -20.4161 -20.4151 -20.4151 -20.4145 -20.4144 -20.4139 -20.4139
   -20.4136 -20.4135 -20.4133 -20.4133 -20.4097 -20.4097 -20.4092 -20.4091
   -20.4013 -20.4013 -20.4013 -20.4013 -20.4011 -20.4011 -20.4011 -20.4010
   -20.4004 -20.4004 -20.4003 -20.4003 -20.3976 -20.3976 -20.3974 -20.3974
   -20.3893 -20.3893 -20.3891 -20.3891 -20.3882 -20.3882 -20.3881 -20.3881
    -9.8515  -9.8515  -9.4594  -9.4594  -9.4444  -9.4444  -9.0296  -9.0296
    -8.6273  -8.6273  -8.5204  -8.5203  -8.5129  -8.5129  -8.4896  -8.4895
    -7.9462  -7.9462  -7.8905  -7.8905  -7.8867  -7.8867  -7.8437  -7.8437
     1.1070   1.1070   1.2043   1.2043   1.2838   1.2838   1.4038   1.4038
     2.4724   2.4724   2.8430   2.8430   2.9084   2.9084   2.9382   2.9382
     3.0063   3.0063   3.1674   3.1674   3.3868   3.3868   3.3941   3.3941
     3.5543   3.5543   4.5141   4.5141   4.5545   4.5545   5.1869   5.1869
     5.2512   5.2512   5.2711   5.2711   5.2946   5.2946   5.6435   5.6435
     5.7107   5.7107   5.8447   5.8447   5.9049   5.9049   5.9572   5.9572
     6.2157   6.2157   6.2543   6.2543   6.5284   6.5284   6.6298   6.6298
     6.8485   6.8485   6.9520   6.9520   6.9989   6.9989   7.4868   7.4868
     7.4869   7.4869   7.5095   7.5095   7.5429   7.5429   8.2359   8.2359
     9.2622   9.2622  11.0908  11.0908  11.1285  11.1285  11.2777  11.2777
    11.3446  11.3446  12.4709  12.4709  12.6402  12.6402  12.9616  12.9616
    13.1557  13.1557  13.4122  13.4122  13.4544  13.4544  13.8320  13.8320
    14.2943  14.2943  14.9641  14.9641  14.9770  14.9770  15.1088  15.1088
    16.3348  16.3348  17.6275  17.6275  17.8702

          k = 0.0000-0.4917 0.1670 ( 62908 PWs)   bands (ev):

   -66.2749 -66.2749 -66.2744 -66.2744 -66.2743 -66.2743 -66.2738 -66.2738
   -30.6499 -30.6499 -30.6455 -30.6455 -30.6189 -30.6189 -30.6151 -30.6151
   -30.5915 -30.5915 -30.5899 -30.5899 -30.5795 -30.5795 -30.5722 -30.5722
   -30.5604 -30.5604 -30.5512 -30.5512 -30.5409 -30.5409 -30.5337 -30.5337
   -20.4408 -20.4408 -20.4404 -20.4404 -20.4399 -20.4399 -20.4395 -20.4395
   -20.4291 -20.4291 -20.4286 -20.4286 -20.4277 -20.4277 -20.4273 -20.4273
   -20.4160 -20.4160 -20.4150 -20.4150 -20.4145 -20.4145 -20.4139 -20.4139
   -20.4136 -20.4136 -20.4134 -20.4134 -20.4097 -20.4097 -20.4092 -20.4092
   -20.4014 -20.4014 -20.4014 -20.4014 -20.4012 -20.4012 -20.4011 -20.4011
   -20.4001 -20.4001 -20.4000 -20.4000 -20.3978 -20.3978 -20.3976 -20.3976
   -20.3893 -20.3892 -20.3891 -20.3891 -20.3883 -20.3883 -20.3882 -20.3882
    -9.8039  -9.8039  -9.4575  -9.4575  -9.3807  -9.3807  -8.9955  -8.9955
    -8.6394  -8.6394  -8.5266  -8.5266  -8.5069  -8.5069  -8.4875  -8.4875
    -8.0039  -8.0039  -7.9599  -7.9599  -7.9278  -7.9277  -7.8935  -7.8935
     1.2032   1.2032   1.2813   1.2813   1.4459   1.4459   1.5611   1.5611
     2.5527   2.5528   2.8515   2.8515   2.9036   2.9036   2.9493   2.9493
     3.0626   3.0626   3.1551   3.1551   3.3845   3.3845   3.4311   3.4311
     3.5744   3.5744   4.2683   4.2683   4.5627   4.5627   4.9903   4.9903
     5.0434   5.0435   5.2022   5.2022   5.3121   5.3121   5.4319   5.4319
     5.5753   5.5753   5.6260   5.6260   5.8656   5.8656   5.9853   5.9853
     6.3665   6.3665   6.4441   6.4441   6.5383   6.5383   6.7835   6.7835
     6.8142   6.8142   6.8441   6.8441   6.9644   6.9645   7.4728   7.4728
     7.4990   7.4990   7.5090   7.5090   7.5335   7.5335   8.1709   8.1709
     9.5822   9.5822  11.1914  11.1914  11.2316  11.2316  11.2894  11.2894
    11.3728  11.3728  12.4343  12.4343  12.5256  12.5256  13.0031  13.0031
    13.1520  13.1520  13.2326  13.2326  13.2745  13.2745  13.6986  13.6986
    14.4975  14.4975  15.0687  15.0687  15.1385  15.1385  15.3818  15.3818
    16.4324  16.4324  17.5674  17.5674  17.6657

          k = 0.0000-0.4917 0.3340 ( 62908 PWs)   bands (ev):

   -66.2748 -66.2748 -66.2745 -66.2745 -66.2742 -66.2742 -66.2739 -66.2739
   -30.6489 -30.6489 -30.6464 -30.6463 -30.6070 -30.6070 -30.6029 -30.6029
   -30.5910 -30.5910 -30.5898 -30.5898 -30.5830 -30.5830 -30.5697 -30.5697
   -30.5677 -30.5677 -30.5518 -30.5518 -30.5496 -30.5496 -30.5412 -30.5412
   -20.4406 -20.4406 -20.4402 -20.4402 -20.4401 -20.4401 -20.4397 -20.4397
   -20.4290 -20.4290 -20.4287 -20.4287 -20.4276 -20.4276 -20.4274 -20.4274
   -20.4157 -20.4157 -20.4148 -20.4148 -20.4146 -20.4146 -20.4138 -20.4138
   -20.4138 -20.4138 -20.4136 -20.4136 -20.4096 -20.4096 -20.4093 -20.4093
   -20.4015 -20.4015 -20.4015 -20.4015 -20.4013 -20.4013 -20.4013 -20.4013
   -20.3995 -20.3995 -20.3994 -20.3994 -20.3982 -20.3982 -20.3981 -20.3980
   -20.3890 -20.3890 -20.3889 -20.3889 -20.3885 -20.3885 -20.3884 -20.3884
    -9.6894  -9.6894  -9.4968  -9.4967  -9.1666  -9.1666  -8.8807  -8.8807
    -8.6987  -8.6987  -8.5562  -8.5562  -8.4843  -8.4842  -8.4770  -8.4769
    -8.2493  -8.2493  -8.2122  -8.2122  -7.9260  -7.9260  -7.9025  -7.9025
     1.2559   1.2559   1.2759   1.2759   2.0829   2.0830   2.1728   2.1728
     2.7646   2.7646   2.8546   2.8546   2.9301   2.9301   2.9757   2.9757
     3.1352   3.1352   3.1681   3.1681   3.3569   3.3569   3.5077   3.5078
     3.6120   3.6120   3.7584   3.7584   4.4439   4.4439   4.5578   4.5578
     4.7239   4.7239   4.8412   4.8412   4.9410   4.9410   5.1663   5.1663
     5.3490   5.3490   5.5360   5.5361   5.9003   5.9003   6.0236   6.0236
     6.4173   6.4173   6.4644   6.4644   6.5381   6.5381   6.5747   6.5747
     7.0245   7.0245   7.1461   7.1461   7.1944   7.1944   7.4461   7.4461
     7.4739   7.4739   7.4999   7.4999   7.5304   7.5304   7.9716   7.9717
    10.2947  10.2947  11.2747  11.2747  11.2907  11.2907  11.5861  11.5862
    11.6439  11.6439  11.8982  11.8982  12.6891  12.6891  12.7381  12.7381
    12.7697  12.7697  13.1044  13.1044  13.1428  13.1428  13.3771  13.3771
    14.7831  14.7832  15.0282  15.0283  15.7216  15.7216  16.3174  16.3174
    16.7603  16.7603  17.0455  17.0455  17.7291

          k = 0.0000-0.4917-0.5010 ( 62904 PWs)   bands (ev):

   -66.2747 -66.2747 -66.2747 -66.2747 -66.2741 -66.2740 -66.2740 -66.2740
   -30.6476 -30.6476 -30.6476 -30.6476 -30.5948 -30.5948 -30.5948 -30.5948
   -30.5909 -30.5909 -30.5909 -30.5909 -30.5815 -30.5815 -30.5815 -30.5815
   -30.5630 -30.5630 -30.5630 -30.5630 -30.5467 -30.5467 -30.5467 -30.5467
   -20.4404 -20.4404 -20.4404 -20.4403 -20.4400 -20.4400 -20.4400 -20.4400
   -20.4288 -20.4288 -20.4288 -20.4288 -20.4275 -20.4275 -20.4275 -20.4275
   -20.4152 -20.4152 -20.4152 -20.4152 -20.4142 -20.4142 -20.4142 -20.4142
   -20.4137 -20.4137 -20.4137 -20.4137 -20.4094 -20.4094 -20.4094 -20.4094
   -20.4015 -20.4015 -20.4015 -20.4015 -20.4014 -20.4014 -20.4014 -20.4014
   -20.3989 -20.3989 -20.3989 -20.3988 -20.3987 -20.3987 -20.3987 -20.3987
   -20.3888 -20.3888 -20.3888 -20.3887 -20.3886 -20.3886 -20.3886 -20.3886
    -9.5734  -9.5734  -9.5734  -9.5734  -8.8873  -8.8873  -8.8872  -8.8872
    -8.6856  -8.6856  -8.6856  -8.6855  -8.4381  -8.4381  -8.4381  -8.4381
    -8.4089  -8.4088  -8.4088  -8.4088  -7.9146  -7.9146  -7.9146  -7.9146
     1.2689   1.2689   1.2689   1.2689   2.7297   2.7297   2.7297   2.7297
     2.8344   2.8344   2.8344   2.8344   3.0610   3.0610   3.0610   3.0610
     3.1370   3.1370   3.1370   3.1370   3.3289   3.3289   3.3289   3.3289
     3.4732   3.4732   3.4732   3.4732   4.3205   4.3205   4.3205   4.3205
     4.3775   4.3775   4.3775   4.3775   5.0570   5.0570   5.0570   5.0570
     5.4142   5.4142   5.4142   5.4142   5.9690   5.9690   5.9690   5.9690
     6.3916   6.3916   6.3916   6.3916   6.5210   6.5210   6.5210   6.5210
     7.3543   7.3543   7.3543   7.3543   7.3753   7.3753   7.3753   7.3753
     7.4048   7.4049   7.4049   7.4049   7.6737   7.6737   7.6737   7.6737
    11.0890  11.0890  11.0890  11.0890  11.3239  11.3239  11.3239  11.3239
    12.1296  12.1296  12.1296  12.1296  12.1834  12.1834  12.1834  12.1834
    12.9666  12.9666  12.9666  12.9666  13.1559  13.1559  13.1559  13.1559
    14.9396  14.9396  14.9396  14.9396  16.4224  16.4224  16.4224  16.4224
    17.3492  17.3492  17.3492  17.3493  17.4312

          k = 0.1667 0.0000 0.0000 ( 62849 PWs)   bands (ev):

   -66.2752 -66.2747 -66.2746 -66.2746 -66.2741 -66.2741 -66.2740 -66.2735
   -30.6516 -30.6471 -30.6428 -30.6372 -30.6277 -30.6274 -30.6231 -30.6220
   -30.6215 -30.6140 -30.6096 -30.6003 -30.5792 -30.5760 -30.5675 -30.5644
   -30.5518 -30.5481 -30.5369 -30.5363 -30.5317 -30.5304 -30.5274 -30.5217
   -20.4409 -20.4408 -20.4405 -20.4405 -20.4398 -20.4397 -20.4395 -20.4394
   -20.4291 -20.4290 -20.4286 -20.4284 -20.4279 -20.4277 -20.4275 -20.4273
   -20.4162 -20.4160 -20.4152 -20.4151 -20.4146 -20.4144 -20.4139 -20.4135
   -20.4135 -20.4134 -20.4133 -20.4130 -20.4104 -20.4099 -20.4097 -20.4091
   -20.4043 -20.4043 -20.4042 -20.4042 -20.4011 -20.4009 -20.4004 -20.4003
   -20.3982 -20.3980 -20.3975 -20.3975 -20.3974 -20.3973 -20.3972 -20.3972
   -20.3893 -20.3892 -20.3891 -20.3891 -20.3883 -20.3882 -20.3880 -20.3879
   -10.0647  -9.7340  -9.6723  -9.6511  -9.3549  -9.2991  -9.2415  -9.0171
    -8.9787  -8.9386  -8.9197  -8.9031  -8.0982  -8.0358  -8.0351  -7.9988
    -7.9029  -7.9000  -7.8711  -7.8625  -7.7911  -7.7653  -7.7460  -7.7238
     1.1312   1.1611   1.1621   1.2018   1.2073   1.2426   1.3029   1.3189
     1.5227   1.5614   1.6195   1.6861   2.3656   2.4199   2.4290   2.4707
     2.5100   2.6324   3.9441   3.9797   4.1445   4.1780   4.2365   4.2791
     4.3791   4.3893   4.6087   4.6436   4.7787   4.7877   5.0455   5.2512
     5.3835   5.4414   5.4703   5.5154   5.5444   5.5927   5.6317   5.6810
     5.7171   5.8292   5.8693   5.8870   5.8968   5.9617   6.0702   6.1085
     6.1808   6.3373   6.3787   6.3910   6.4738   6.5273   6.5673   6.5965
     6.6176   6.7202   6.8483   6.8677   6.8746   6.9151   6.9368   6.9888
     7.0622   7.0843   8.0266   8.0631   8.1526   8.1767   8.2763   8.2979
     9.5000   9.5420   9.6000   9.7590   9.9796  10.0956  12.2492  12.2607
    12.4548  12.4713  12.5497  12.6417  12.6608  12.6782  12.6930  12.7021
    13.0926  13.1189  13.3414  13.4439  13.6662  13.7342  13.9558  13.9585
    14.0246  14.0487  14.4124  14.6650  14.6820  14.7513  15.2266  15.6140
    15.7285  16.4584  16.5451  17.0286  17.0814

          k = 0.1667 0.0000 0.1670 ( 62898 PWs)   bands (ev):

   -66.2752 -66.2747 -66.2747 -66.2746 -66.2741 -66.2741 -66.2741 -66.2735
   -30.6513 -30.6474 -30.6422 -30.6375 -30.6275 -30.6240 -30.6223 -30.6183
   -30.6166 -30.6101 -30.6098 -30.5976 -30.5789 -30.5763 -30.5684 -30.5638
   -30.5557 -30.5525 -30.5413 -30.5365 -30.5362 -30.5300 -30.5288 -30.5230
   -20.4408 -20.4408 -20.4405 -20.4404 -20.4399 -20.4398 -20.4396 -20.4395
   -20.4291 -20.4289 -20.4286 -20.4285 -20.4278 -20.4277 -20.4275 -20.4273
   -20.4161 -20.4159 -20.4151 -20.4150 -20.4147 -20.4145 -20.4139 -20.4136
   -20.4136 -20.4135 -20.4133 -20.4130 -20.4103 -20.4099 -20.4097 -20.4092
   -20.4044 -20.4043 -20.4043 -20.4043 -20.4010 -20.4008 -20.4002 -20.4001
   -20.3985 -20.3984 -20.3977 -20.3975 -20.3974 -20.3974 -20.3971 -20.3971
   -20.3892 -20.3892 -20.3891 -20.3890 -20.3884 -20.3883 -20.3881 -20.3880
   -10.0231  -9.6856  -9.6810  -9.5976  -9.3104  -9.2723  -9.2508  -8.9809
    -8.9494  -8.9127  -8.9076  -8.9046  -8.1116  -8.0513  -8.0369  -8.0187
    -8.0031  -7.9954  -7.9676  -7.9516  -7.8011  -7.7687  -7.7586  -7.7271
     1.1725   1.2243   1.2337   1.2955   1.3493   1.3514   1.4462   1.4971
     1.5261   1.5625   1.6814   1.7567   2.4227   2.4441   2.4766   2.5082
     2.5934   2.7131   3.9193   3.9438   4.1133   4.1267   4.3177   4.3190
     4.3560   4.3718   4.3723   4.4302   4.4888   4.5416   5.0440   5.2180
     5.2581   5.3489   5.3991   5.4209   5.5059   5.5669   5.6319   5.6508
     5.6555   5.7016   5.7256   5.8238   5.9082   6.0469   6.0676   6.0951
     6.2083   6.4474   6.4587   6.5003   6.5156   6.5540   6.5752   6.5782
     6.6352   6.6425   6.7125   6.8218   6.8301   6.9306   6.9430   6.9678
     6.9908   7.0187   8.0302   8.0567   8.0958   8.1172   8.2165   8.2396
     9.7825   9.7996   9.9092   9.9711  10.0663  10.0908  12.3110  12.3153
    12.4704  12.4740  12.5068  12.5388  12.5877  12.6661  12.6690  12.6933
    12.8841  12.9092  13.3756  13.4387  13.5528  13.5994  13.8424  13.9025
    14.2172  14.2825  14.5832  14.7403  14.7425  14.8671  15.5757  15.6509
    15.7107  16.6054  16.6695  16.7571  17.2890

          k = 0.1667 0.0000 0.3340 ( 62907 PWs)   bands (ev):

   -66.2751 -66.2748 -66.2745 -66.2745 -66.2742 -66.2742 -66.2739 -66.2736
   -30.6504 -30.6482 -30.6409 -30.6383 -30.6261 -30.6232 -30.6185 -30.6116
   -30.6049 -30.6028 -30.5979 -30.5880 -30.5782 -30.5773 -30.5722 -30.5680
   -30.5650 -30.5619 -30.5545 -30.5474 -30.5354 -30.5315 -30.5291 -30.5255
   -20.4406 -20.4406 -20.4403 -20.4402 -20.4401 -20.4400 -20.4398 -20.4397
   -20.4290 -20.4288 -20.4287 -20.4285 -20.4278 -20.4276 -20.4275 -20.4274
   -20.4157 -20.4156 -20.4149 -20.4148 -20.4147 -20.4147 -20.4139 -20.4139
   -20.4138 -20.4136 -20.4133 -20.4131 -20.4103 -20.4100 -20.4096 -20.4093
   -20.4044 -20.4044 -20.4043 -20.4043 -20.4006 -20.4004 -20.3996 -20.3995
   -20.3992 -20.3991 -20.3982 -20.3980 -20.3973 -20.3972 -20.3971 -20.3970
   -20.3891 -20.3889 -20.3889 -20.3888 -20.3885 -20.3884 -20.3883 -20.3882
    -9.9213  -9.7304  -9.5529  -9.4695  -9.3477  -9.2826  -9.0387  -8.9303
    -8.9111  -8.8376  -8.8229  -8.7976  -8.3251  -8.2872  -8.2805  -8.2615
    -8.0610  -8.0427  -8.0162  -7.9934  -7.8001  -7.7779  -7.7576  -7.7359
     1.1848   1.2163   1.2489   1.2798   1.5006   1.5111   1.5285   1.5569
     2.0998   2.1224   2.2028   2.2348   2.4276   2.4741   2.6725   2.7067
     2.8457   2.9455   3.6529   3.6889   3.8632   3.9164   3.9710   3.9979
     4.0675   4.1130   4.3747   4.3953   4.4503   4.5907   4.6386   4.7308
     5.0136   5.0843   5.1163   5.2054   5.2890   5.3309   5.5425   5.6476
     5.6970   5.7432   5.7834   5.8064   5.8240   5.8709   5.9607   6.0734
     6.2468   6.3334   6.3570   6.3900   6.4039   6.5276   6.5295   6.5613
     6.6386   6.8050   6.8483   6.8636   6.9213   6.9283   7.1218   7.1582
     7.2105   7.2692   7.9072   7.9256   8.0207   8.0306   8.0389   8.0759
    10.0001  10.0667  10.4340  10.4381  10.6667  10.7156  11.9317  11.9434
    12.3069  12.3288  12.4916  12.5141  12.6044  12.6195  12.6639  12.6698
    12.7454  12.7989  13.2028  13.2303  13.4253  13.4559  13.4981  13.5400
    14.5444  14.6341  14.8212  15.1450  15.1630  15.3210  15.4744  15.6554
    16.2019  16.6701  17.0182  17.0345  17.1357

          k = 0.1667 0.0000-0.5010 ( 62840 PWs)   bands (ev):

   -66.2749 -66.2749 -66.2744 -66.2744 -66.2743 -66.2743 -66.2738 -66.2738
   -30.6493 -30.6493 -30.6396 -30.6396 -30.6246 -30.6246 -30.6143 -30.6143
   -30.5864 -30.5864 -30.5848 -30.5848 -30.5826 -30.5826 -30.5763 -30.5763
   -30.5720 -30.5720 -30.5574 -30.5574 -30.5338 -30.5338 -30.5275 -30.5275
   -20.4404 -20.4404 -20.4403 -20.4403 -20.4400 -20.4400 -20.4400 -20.4400
   -20.4288 -20.4288 -20.4287 -20.4287 -20.4277 -20.4277 -20.4275 -20.4275
   -20.4153 -20.4153 -20.4151 -20.4151 -20.4143 -20.4143 -20.4143 -20.4143
   -20.4137 -20.4137 -20.4132 -20.4132 -20.4101 -20.4101 -20.4094 -20.4094
   -20.4044 -20.4044 -20.4043 -20.4043 -20.4000 -20.4000 -20.3998 -20.3998
   -20.3989 -20.3989 -20.3988 -20.3988 -20.3971 -20.3971 -20.3971 -20.3971
   -20.3888 -20.3888 -20.3887 -20.3887 -20.3886 -20.3886 -20.3885 -20.3885
    -9.8112  -9.8112  -9.4261  -9.4260  -9.3506  -9.3506  -8.9184  -8.9184
    -8.6952  -8.6951  -8.6050  -8.6049  -8.5903  -8.5903  -8.5718  -8.5718
    -8.0543  -8.0543  -8.0067  -8.0067  -7.7898  -7.7898  -7.7475  -7.7475
     1.1985   1.1985   1.2634   1.2634   1.5172   1.5172   1.5493   1.5493
     2.4293   2.4293   2.7489   2.7490   2.7994   2.7994   2.9745   2.9745
     3.0226   3.0226   3.2556   3.2556   3.4810   3.4811   3.8133   3.8133
     3.8251   3.8251   4.0871   4.0871   4.3778   4.3778   4.8470   4.8471
     4.9699   4.9700   5.0099   5.0099   5.1752   5.1752   5.5836   5.5836
     5.7154   5.7154   5.7693   5.7693   5.8607   5.8607   6.0070   6.0070
     6.1850   6.1850   6.3054   6.3054   6.4470   6.4470   6.5479   6.5479
     6.7119   6.7119   6.8507   6.8507   6.9176   6.9176   7.5803   7.5803
     7.5875   7.5875   7.6913   7.6913   7.7052   7.7052   8.0473   8.0473
    10.0371  10.0371  11.1969  11.1970  11.2162  11.2162  11.5198  11.5198
    11.5437  11.5437  12.6167  12.6167  12.6641  12.6641  12.8066  12.8066
    12.8527  12.8527  13.0790  13.0790  13.1192  13.1192  13.4436  13.4436
    14.6145  14.6145  15.2456  15.2456  15.4784  15.4784  15.6368  15.6368
    16.2486  16.2486  17.3822  17.3822  17.6445

          k = 0.1667 0.1639 0.0000 ( 62901 PWs)   bands (ev):

   -66.2752 -66.2747 -66.2747 -66.2746 -66.2741 -66.2741 -66.2740 -66.2735
   -30.6504 -30.6459 -30.6431 -30.6375 -30.6263 -30.6246 -30.6230 -30.6214
   -30.6174 -30.6130 -30.6057 -30.5975 -30.5804 -30.5771 -30.5670 -30.5635
   -30.5540 -30.5497 -30.5418 -30.5364 -30.5344 -30.5317 -30.5300 -30.5241
   -20.4409 -20.4408 -20.4405 -20.4405 -20.4398 -20.4397 -20.4395 -20.4394
   -20.4291 -20.4290 -20.4286 -20.4284 -20.4279 -20.4277 -20.4275 -20.4273
   -20.4162 -20.4160 -20.4152 -20.4151 -20.4145 -20.4144 -20.4138 -20.4135
   -20.4135 -20.4134 -20.4134 -20.4131 -20.4103 -20.4098 -20.4098 -20.4092
   -20.4039 -20.4039 -20.4038 -20.4038 -20.4011 -20.4009 -20.4004 -20.4003
   -20.3984 -20.3983 -20.3979 -20.3979 -20.3975 -20.3975 -20.3974 -20.3973
   -20.3893 -20.3893 -20.3891 -20.3891 -20.3883 -20.3882 -20.3880 -20.3880
   -10.0232  -9.6877  -9.6686  -9.6185  -9.3656  -9.2537  -9.2157  -9.0131
    -8.9809  -8.9001  -8.8773  -8.8695  -8.1133  -8.0458  -8.0385  -8.0130
    -7.9347  -7.9268  -7.9006  -7.8714  -7.8605  -7.8464  -7.8427  -7.8051
     1.1587   1.1618   1.1939   1.2023   1.3850   1.4197   1.5038   1.5374
     1.5517   1.6180   1.6464   1.7624   2.4421   2.4885   2.5103   2.5139
     2.5536   2.6313   3.7781   3.8154   3.9229   4.0085   4.1923   4.2623
     4.3945   4.4342   4.5988   4.6437   4.8328   4.8460   4.8570   5.1504
     5.1961   5.2916   5.2946   5.4386   5.4685   5.5193   5.5271   5.6511
     5.6902   5.8468   5.8742   5.9252   5.9431   6.0123   6.1034   6.1115
     6.1848   6.2817   6.3303   6.3612   6.4932   6.5731   6.6058   6.6359
     6.6579   6.7828   6.8318   6.8534   6.8693   6.8703   6.9521   6.9598
     7.0091   7.0513   7.9860   8.0176   8.1542   8.1701   8.1875   8.2153
     9.5376   9.5430   9.8180   9.9302  10.1814  10.2858  12.1903  12.2562
    12.3014  12.3487  12.4901  12.4913  12.5962  12.6858  12.6864  12.7123
    13.1205  13.1498  13.3807  13.4504  13.6722  13.7297  13.8768  13.9505
    14.0743  14.2428  14.4115  14.6779  14.7864  14.9373  15.2056  15.6965
    16.0187  16.1920  16.7342  17.2078  17.2666

          k = 0.1667 0.1639 0.1670 ( 62892 PWs)   bands (ev):

   -66.2752 -66.2746 -66.2746 -66.2746 -66.2741 -66.2741 -66.2741 -66.2736
   -30.6501 -30.6462 -30.6425 -30.6379 -30.6243 -30.6221 -30.6183 -30.6177
   -30.6163 -30.6093 -30.6062 -30.5952 -30.5802 -30.5774 -30.5680 -30.5630
   -30.5574 -30.5538 -30.5414 -30.5413 -30.5362 -30.5340 -30.5319 -30.5258
   -20.4408 -20.4408 -20.4405 -20.4404 -20.4399 -20.4398 -20.4396 -20.4395
   -20.4291 -20.4289 -20.4286 -20.4285 -20.4278 -20.4277 -20.4275 -20.4273
   -20.4160 -20.4159 -20.4151 -20.4150 -20.4146 -20.4145 -20.4138 -20.4136
   -20.4136 -20.4135 -20.4134 -20.4131 -20.4103 -20.4099 -20.4097 -20.4092
   -20.4039 -20.4039 -20.4039 -20.4038 -20.4009 -20.4008 -20.4002 -20.4001
   -20.3987 -20.3986 -20.3979 -20.3978 -20.3977 -20.3975 -20.3974 -20.3973
   -20.3892 -20.3892 -20.3891 -20.3890 -20.3883 -20.3883 -20.3881 -20.3880
    -9.9801  -9.6353  -9.6294  -9.6132  -9.2836  -9.2632  -9.2268  -8.9787
    -8.9512  -8.8741  -8.8714  -8.8688  -8.1323  -8.0537  -8.0468  -8.0292
    -8.0114  -8.0013  -7.9662  -7.9594  -7.8909  -7.8698  -7.8600  -7.8381
     1.3414   1.3465   1.3752   1.3996   1.4190   1.4489   1.5050   1.5477
     1.5921   1.6406   1.6828   1.8176   2.4964   2.5224   2.5447   2.5867
     2.6106   2.7089   3.7749   3.8052   3.9296   3.9664   4.2831   4.3047
     4.3389   4.3437   4.4127   4.4412   4.5392   4.5961   4.8588   5.1170
     5.1625   5.2472   5.2623   5.2717   5.3968   5.4677   5.4705   5.5027
     5.5231   5.6646   5.8889   5.9159   5.9716   6.0260   6.0460   6.0678
     6.2606   6.3578   6.3776   6.4490   6.4959   6.5795   6.6154   6.6451
     6.7065   6.7170   6.7573   6.8368   6.8856   6.8912   6.9279   6.9582
     7.0032   7.0379   7.9898   8.0112   8.0964   8.1124   8.1366   8.1639
     9.7967   9.8018  10.0858  10.1494  10.2313  10.2810  12.2611  12.3115
    12.3706  12.3964  12.4613  12.4770  12.5000  12.5151  12.6313  12.7150
    12.9155  12.9399  13.4088  13.4506  13.5488  13.5955  13.7456  13.7981
    14.3594  14.5165  14.6370  14.7565  14.8109  15.0370  15.6188  15.6809
    15.9877  16.3278  16.8345  16.9040  17.3256

          k = 0.1667 0.1639 0.3340 ( 62904 PWs)   bands (ev):

   -66.2750 -66.2747 -66.2745 -66.2745 -66.2742 -66.2742 -66.2740 -66.2737
   -30.6492 -30.6470 -30.6413 -30.6387 -30.6220 -30.6188 -30.6158 -30.6079
   -30.6049 -30.6027 -30.5979 -30.5868 -30.5795 -30.5783 -30.5720 -30.5686
   -30.5658 -30.5611 -30.5545 -30.5471 -30.5402 -30.5355 -30.5330 -30.5288
   -20.4406 -20.4406 -20.4403 -20.4402 -20.4401 -20.4400 -20.4398 -20.4397
   -20.4289 -20.4288 -20.4287 -20.4286 -20.4277 -20.4276 -20.4275 -20.4274
   -20.4157 -20.4156 -20.4149 -20.4148 -20.4147 -20.4147 -20.4139 -20.4139
   -20.4138 -20.4136 -20.4133 -20.4131 -20.4102 -20.4099 -20.4096 -20.4093
   -20.4040 -20.4040 -20.4039 -20.4039 -20.4006 -20.4004 -20.3997 -20.3995
   -20.3993 -20.3992 -20.3982 -20.3980 -20.3977 -20.3976 -20.3974 -20.3973
   -20.3891 -20.3890 -20.3889 -20.3888 -20.3885 -20.3884 -20.3883 -20.3883
    -9.8746  -9.6786  -9.4917  -9.4849  -9.2962  -9.2659  -9.0500  -8.9098
    -8.8784  -8.8397  -8.8020  -8.7749  -8.3415  -8.2892  -8.2838  -8.2579
    -8.0635  -8.0494  -8.0218  -8.0005  -7.8977  -7.8793  -7.8681  -7.8492
     1.3874   1.4044   1.4721   1.4891   1.5153   1.5364   1.5849   1.6309
     2.1003   2.1318   2.2012   2.2483   2.5022   2.5459   2.7409   2.7792
     2.8626   2.9395   3.6206   3.6287   3.8548   3.8591   3.9171   3.9656
     4.0126   4.0760   4.3680   4.4153   4.4413   4.5731   4.6400   4.7075
     4.8233   4.8826   4.9996   5.0166   5.1150   5.1874   5.3601   5.4921
     5.5145   5.6885   5.7248   5.7840   5.8102   5.8963   5.9201   5.9467
     6.2218   6.3919   6.4364   6.4708   6.5336   6.5883   6.6033   6.6456
     6.6982   6.8103   6.8785   6.8849   6.8951   6.9792   7.1166   7.1688
     7.2118   7.2693   7.9103   7.9157   7.9675   7.9749   7.9993   8.0321
    10.1888  10.2557  10.4361  10.4480  10.7672  10.8155  11.9339  11.9425
    12.3406  12.3569  12.4744  12.4827  12.5135  12.5155  12.5708  12.5960
    12.6690  12.7367  13.2046  13.2329  13.3770  13.4191  13.4420  13.4741
    14.6663  14.7373  15.1388  15.1609  15.2693  15.4039  15.6292  15.8763
    16.3398  16.6411  16.7711  17.0936  17.1727

          k = 0.1667 0.1639-0.5010 ( 62842 PWs)   bands (ev):

   -66.2749 -66.2749 -66.2744 -66.2744 -66.2743 -66.2743 -66.2738 -66.2738
   -30.6481 -30.6481 -30.6399 -30.6399 -30.6202 -30.6202 -30.6108 -30.6108
   -30.5867 -30.5867 -30.5847 -30.5847 -30.5828 -30.5828 -30.5777 -30.5777
   -30.5716 -30.5716 -30.5568 -30.5568 -30.5383 -30.5383 -30.5313 -30.5313
   -20.4404 -20.4404 -20.4403 -20.4403 -20.4400 -20.4400 -20.4400 -20.4400
   -20.4288 -20.4288 -20.4287 -20.4287 -20.4276 -20.4276 -20.4275 -20.4275
   -20.4153 -20.4153 -20.4151 -20.4151 -20.4143 -20.4143 -20.4143 -20.4142
   -20.4137 -20.4137 -20.4132 -20.4132 -20.4101 -20.4101 -20.4095 -20.4095
   -20.4040 -20.4040 -20.4039 -20.4039 -20.4000 -20.4000 -20.3999 -20.3999
   -20.3989 -20.3989 -20.3988 -20.3988 -20.3975 -20.3975 -20.3974 -20.3974
   -20.3888 -20.3888 -20.3887 -20.3887 -20.3886 -20.3886 -20.3885 -20.3885
    -9.7610  -9.7610  -9.3663  -9.3663  -9.3501  -9.3501  -8.8873  -8.8873
    -8.7078  -8.7077  -8.6094  -8.6093  -8.5832  -8.5832  -8.5625  -8.5625
    -8.0593  -8.0593  -8.0139  -8.0139  -7.8895  -7.8895  -7.8601  -7.8601
     1.3955   1.3955   1.4848   1.4848   1.5303   1.5303   1.6203   1.6203
     2.5008   2.5008   2.7783   2.7784   2.8325   2.8326   2.9645   2.9645
     3.0169   3.0169   3.2709   3.2709   3.4678   3.4678   3.8596   3.8596
     3.8656   3.8657   3.9339   3.9339   4.3821   4.3821   4.7440   4.7440
     4.8017   4.8017   4.9139   4.9139   4.9697   4.9697   5.4776   5.4776
     5.5617   5.5617   5.6152   5.6152   5.7579   5.7579   5.9310   5.9310
     6.3561   6.3561   6.4466   6.4466   6.5807   6.5807   6.5984   6.5984
     6.7029   6.7029   6.8794   6.8794   6.9253   6.9253   7.5802   7.5802
     7.5867   7.5867   7.6648   7.6648   7.6779   7.6779   8.0073   8.0073
    10.2290  10.2290  11.1984  11.1984  11.2149  11.2149  11.5798  11.5798
    11.6041  11.6041  12.4981  12.4981  12.6550  12.6550  12.8013  12.8013
    12.8532  12.8532  12.9421  12.9421  12.9867  12.9867  13.4609  13.4609
    14.7233  14.7233  15.4565  15.4565  15.6232  15.6232  15.7798  15.7798
    16.3334  16.3334  17.2420  17.2420  17.5881

          k = 0.1667 0.3278 0.0000 ( 62938 PWs)   bands (ev):

   -66.2751 -66.2748 -66.2745 -66.2745 -66.2742 -66.2742 -66.2739 -66.2736
   -30.6480 -30.6443 -30.6430 -30.6387 -30.6243 -30.6229 -30.6208 -30.6205
   -30.6064 -30.6057 -30.5942 -30.5881 -30.5850 -30.5815 -30.5652 -30.5626
   -30.5607 -30.5550 -30.5548 -30.5443 -30.5366 -30.5343 -30.5316 -30.5284
   -20.4409 -20.4408 -20.4405 -20.4405 -20.4398 -20.4397 -20.4395 -20.4394
   -20.4291 -20.4290 -20.4285 -20.4285 -20.4278 -20.4277 -20.4274 -20.4273
   -20.4161 -20.4160 -20.4152 -20.4151 -20.4145 -20.4144 -20.4138 -20.4135
   -20.4134 -20.4134 -20.4134 -20.4132 -20.4102 -20.4099 -20.4097 -20.4093
   -20.4028 -20.4027 -20.4027 -20.4027 -20.4010 -20.4008 -20.4005 -20.4004
   -20.3994 -20.3994 -20.3992 -20.3991 -20.3976 -20.3975 -20.3975 -20.3973
   -20.3893 -20.3893 -20.3891 -20.3891 -20.3882 -20.3882 -20.3881 -20.3880
    -9.9206  -9.7190  -9.5779  -9.4938  -9.4011  -9.2926  -9.0065  -8.9871
    -8.9791  -8.7683  -8.7500  -8.7376  -8.2895  -8.2039  -8.2002  -8.1628
    -8.0399  -8.0305  -7.9952  -7.9787  -7.8951  -7.8757  -7.8551  -7.8358
     1.1611   1.1615   1.2030   1.2032   1.5018   1.5148   1.5764   1.6095
     2.1207   2.2059   2.2542   2.3383   2.5283   2.5739   2.7227   2.7463
     2.7632   2.7683   3.3825   3.3929   3.5375   3.5642   3.9935   4.2068
     4.2168   4.3174   4.3820   4.5706   4.6307   4.6659   4.7467   4.7717
     4.9938   5.0379   5.1827   5.2909   5.3063   5.3792   5.4981   5.5583
     5.6071   5.6384   5.6713   5.8850   5.9328   6.0037   6.0341   6.0631
     6.2048   6.3024   6.3127   6.4587   6.6135   6.6490   6.7433   6.7737
     6.8246   6.8375   6.8607   6.8694   6.8784   6.9294   7.0277   7.0534
     7.0960   7.1408   7.8164   7.8374   7.9257   7.9462   8.1596   8.1732
     9.5514   9.5589  10.3829  10.4539  10.7060  10.7787  11.7648  11.8145
    12.0293  12.0408  12.2736  12.2933  12.6845  12.6869  12.7276  12.8348
    13.1841  13.2549  13.2701  13.3174  13.6485  13.6749  13.7362  13.7366
    14.3241  14.4058  14.6555  14.7499  15.0968  15.1287  15.5948  15.6029
    15.6749  17.0083  17.0200  17.2186  17.3581

          k = 0.1667 0.3278 0.1670 ( 62907 PWs)   bands (ev):

   -66.2750 -66.2747 -66.2745 -66.2745 -66.2742 -66.2742 -66.2740 -66.2737
   -30.6476 -30.6440 -30.6431 -30.6390 -30.6204 -30.6182 -30.6168 -30.6158
   -30.6060 -30.6049 -30.5949 -30.5867 -30.5847 -30.5818 -30.5665 -30.5645
   -30.5602 -30.5579 -30.5544 -30.5439 -30.5413 -30.5376 -30.5359 -30.5311
   -20.4408 -20.4408 -20.4404 -20.4404 -20.4399 -20.4398 -20.4396 -20.4395
   -20.4290 -20.4290 -20.4286 -20.4285 -20.4278 -20.4277 -20.4274 -20.4274
   -20.4160 -20.4159 -20.4151 -20.4150 -20.4146 -20.4145 -20.4137 -20.4136
   -20.4135 -20.4135 -20.4134 -20.4132 -20.4102 -20.4098 -20.4097 -20.4093
   -20.4028 -20.4028 -20.4028 -20.4027 -20.4009 -20.4008 -20.4003 -20.4001
   -20.3996 -20.3995 -20.3990 -20.3990 -20.3977 -20.3977 -20.3976 -20.3975
   -20.3892 -20.3892 -20.3891 -20.3890 -20.3883 -20.3882 -20.3882 -20.3881
    -9.8736  -9.6657  -9.5127  -9.5053  -9.3203  -9.3028  -8.9936  -8.9717
    -8.9569  -8.7548  -8.7502  -8.7316  -8.3065  -8.2135  -8.2026  -8.1662
    -8.0422  -8.0374  -8.0032  -7.9970  -7.9832  -7.9720  -7.9587  -7.9362
     1.3452   1.3476   1.4384   1.4449   1.5041   1.5180   1.6309   1.6735
     2.1262   2.2047   2.2480   2.3340   2.6091   2.6445   2.7545   2.7692
     2.8079   2.8410   3.4060   3.4266   3.5434   3.5564   3.9830   4.2454
     4.2767   4.3048   4.3273   4.3639   4.3947   4.6473   4.6816   4.7554
     4.7874   4.7984   5.1451   5.1973   5.2561   5.3017   5.3372   5.3597
     5.5106   5.5292   5.6222   5.6657   5.7232   5.7631   6.0428   6.0579
     6.3821   6.4393   6.4922   6.5857   6.6019   6.6357   6.6959   6.7625
     6.8067   6.8264   6.9090   6.9139   6.9351   6.9811   7.0337   7.0528
     7.1201   7.1513   7.8199   7.8307   7.8958   7.9137   8.1016   8.1163
     9.8038   9.8125  10.5657  10.6245  10.7257  10.7743  11.8514  11.8990
    12.0332  12.0421  12.3274  12.3453  12.4835  12.4874  12.7604  12.8371
    13.0199  13.0494  13.2701  13.3184  13.4902  13.5251  13.5821  13.5965
    14.6484  14.6610  14.8073  14.9856  15.1143  15.5272  15.5885  15.6869
    15.8056  16.9744  17.1013  17.2599  17.2960

          k = 0.1667 0.3278 0.3340 ( 62894 PWs)   bands (ev):

   -66.2749 -66.2746 -66.2746 -66.2744 -66.2743 -66.2741 -66.2741 -66.2738
   -30.6467 -30.6443 -30.6424 -30.6399 -30.6125 -30.6094 -30.6068 -30.6052
   -30.6025 -30.5980 -30.5964 -30.5840 -30.5826 -30.5813 -30.5722 -30.5712
   -30.5681 -30.5584 -30.5539 -30.5529 -30.5460 -30.5445 -30.5425 -30.5364
   -20.4406 -20.4406 -20.4403 -20.4402 -20.4401 -20.4400 -20.4398 -20.4397
   -20.4289 -20.4288 -20.4287 -20.4286 -20.4277 -20.4276 -20.4275 -20.4274
   -20.4156 -20.4156 -20.4148 -20.4148 -20.4147 -20.4147 -20.4139 -20.4138
   -20.4137 -20.4135 -20.4134 -20.4132 -20.4101 -20.4098 -20.4097 -20.4094
   -20.4029 -20.4029 -20.4028 -20.4028 -20.4007 -20.4006 -20.3999 -20.3999
   -20.3997 -20.3995 -20.3987 -20.3987 -20.3982 -20.3981 -20.3980 -20.3979
   -20.3890 -20.3890 -20.3889 -20.3889 -20.3885 -20.3884 -20.3884 -20.3883
    -9.7587  -9.5533  -9.5375  -9.3396  -9.3356  -9.0903  -9.0371  -8.8771
    -8.8478  -8.7633  -8.7002  -8.6880  -8.4361  -8.3398  -8.2732  -8.2461
    -8.1995  -8.1749  -8.1357  -8.1087  -8.0277  -8.0110  -8.0014  -7.9886
     1.4795   1.4900   1.5017   1.5144   1.9904   2.0456   2.0970   2.1418
     2.1938   2.2364   2.2894   2.4100   2.7126   2.7578   2.8413   2.9300
     3.0024   3.0236   3.4009   3.4336   3.5362   3.5630   3.8308   3.8417
     3.9729   4.1841   4.2248   4.2549   4.3123   4.4238   4.4502   4.6289
     4.6701   4.7091   4.7505   4.8033   4.8667   4.9157   5.0669   5.1328
     5.2315   5.3134   5.3783   5.5373   5.5840   5.6874   5.8008   5.8095
     6.4592   6.5453   6.5746   6.6247   6.7083   6.7573   6.7670   6.8013
     6.8625   6.9712   6.9972   7.0508   7.0534   7.1013   7.1628   7.1994
     7.2531   7.2686   7.7857   7.7922   7.8081   7.8329   7.9193   7.9511
    10.4150  10.4361  10.7308  10.7600  11.0824  11.1295  11.9178  11.9351
    12.0236  12.0651  12.1420  12.1706  12.4821  12.4954  12.5146  12.5505
    12.8005  12.8337  13.0742  13.1142  13.2134  13.2335  13.3056  13.3523
    14.9096  15.0358  15.1358  15.4168  15.5515  15.8124  15.9872  16.2650
    16.5365  16.7064  16.8546  17.3645  17.4041

          k = 0.1667 0.3278-0.5010 ( 62880 PWs)   bands (ev):

   -66.2748 -66.2748 -66.2745 -66.2745 -66.2742 -66.2742 -66.2739 -66.2739
   -30.6455 -30.6455 -30.6411 -30.6411 -30.6089 -30.6089 -30.6015 -30.6015
   -30.5885 -30.5885 -30.5848 -30.5848 -30.5832 -30.5832 -30.5819 -30.5819
   -30.5694 -30.5694 -30.5544 -30.5544 -30.5499 -30.5499 -30.5402 -30.5402
   -20.4403 -20.4403 -20.4403 -20.4403 -20.4400 -20.4400 -20.4400 -20.4400
   -20.4288 -20.4288 -20.4287 -20.4287 -20.4276 -20.4276 -20.4275 -20.4275
   -20.4152 -20.4152 -20.4151 -20.4151 -20.4143 -20.4143 -20.4143 -20.4142
   -20.4136 -20.4136 -20.4133 -20.4133 -20.4099 -20.4099 -20.4096 -20.4096
   -20.4029 -20.4029 -20.4028 -20.4028 -20.4004 -20.4004 -20.4002 -20.4002
   -20.3989 -20.3989 -20.3988 -20.3988 -20.3984 -20.3984 -20.3983 -20.3983
   -20.3888 -20.3888 -20.3887 -20.3887 -20.3886 -20.3886 -20.3886 -20.3886
    -9.6373  -9.6373  -9.4143  -9.4142  -9.1472  -9.1472  -8.7905  -8.7905
    -8.7584  -8.7584  -8.6253  -8.6253  -8.5532  -8.5531  -8.5253  -8.5252
    -8.1924  -8.1924  -8.1518  -8.1518  -8.0168  -8.0168  -7.9990  -7.9990
     1.4950   1.4950   1.5101   1.5101   2.1228   2.1228   2.2224   2.2224
     2.6923   2.6923   2.8637   2.8637   2.9154   2.9154   2.9390   2.9391
     3.0086   3.0086   3.3053   3.3053   3.4221   3.4221   3.5722   3.5722
     3.9808   3.9808   4.0147   4.0147   4.0367   4.0368   4.2590   4.2590
     4.6866   4.6866   4.8304   4.8304   4.8771   4.8771   4.9241   4.9241
     5.0278   5.0278   5.4509   5.4509   5.6102   5.6102   5.7018   5.7018
     6.5632   6.5632   6.6067   6.6067   6.6789   6.6789   6.7833   6.7833
     6.9626   6.9626   7.0314   7.0314   7.1311   7.1311   7.5454   7.5455
     7.5643   7.5643   7.5873   7.5873   7.6097   7.6097   7.8498   7.8498
    10.7251  10.7251  11.1982  11.1982  11.2196  11.2196  11.7745  11.7745
    11.7973  11.7973  12.0708  12.0708  12.5514  12.5514  12.6014  12.6014
    12.7663  12.7663  12.8280  12.8280  12.9064  12.9064  13.3272  13.3272
    14.9994  14.9994  15.3821  15.3821  16.1457  16.1458  16.5082  16.5082
    16.6993  16.6993  16.8765  16.8765  17.6165

          k = 0.1667-0.4917 0.0000 ( 62924 PWs)   bands (ev):

   -66.2749 -66.2749 -66.2744 -66.2744 -66.2743 -66.2743 -66.2738 -66.2738
   -30.6458 -30.6458 -30.6406 -30.6406 -30.6231 -30.6231 -30.6201 -30.6201
   -30.5944 -30.5944 -30.5915 -30.5915 -30.5780 -30.5780 -30.5724 -30.5723
   -30.5613 -30.5612 -30.5544 -30.5544 -30.5363 -30.5363 -30.5308 -30.5308
   -20.4408 -20.4408 -20.4405 -20.4405 -20.4398 -20.4398 -20.4395 -20.4395
   -20.4290 -20.4290 -20.4285 -20.4285 -20.4278 -20.4278 -20.4274 -20.4274
   -20.4161 -20.4161 -20.4152 -20.4152 -20.4144 -20.4144 -20.4136 -20.4136
   -20.4134 -20.4134 -20.4133 -20.4133 -20.4100 -20.4100 -20.4095 -20.4095
   -20.4013 -20.4013 -20.4013 -20.4013 -20.4011 -20.4011 -20.4010 -20.4010
   -20.4004 -20.4004 -20.4003 -20.4003 -20.3976 -20.3976 -20.3974 -20.3974
   -20.3893 -20.3893 -20.3891 -20.3891 -20.3882 -20.3882 -20.3881 -20.3881
    -9.8063  -9.8063  -9.4705  -9.4705  -9.3705  -9.3705  -8.9959  -8.9959
    -8.6400  -8.6400  -8.5223  -8.5223  -8.5130  -8.5130  -8.4868  -8.4868
    -8.0421  -8.0421  -7.9950  -7.9950  -7.8868  -7.8868  -7.8470  -7.8470
     1.1613   1.1613   1.2039   1.2039   1.5115   1.5115   1.6017   1.6017
     2.5505   2.5505   2.8428   2.8428   2.9191   2.9191   2.9285   2.9285
     3.0660   3.0660   3.1713   3.1713   3.3835   3.3836   3.4327   3.4328
     3.5706   3.5706   4.2253   4.2253   4.6066   4.6066   4.9568   4.9568
     5.0332   5.0332   5.2214   5.2214   5.3254   5.3254   5.3761   5.3761
     5.5321   5.5321   5.6847   5.6847   5.9180   5.9180   6.0653   6.0653
     6.3202   6.3202   6.3750   6.3750   6.5982   6.5982   6.7505   6.7505
     6.8323   6.8324   6.8660   6.8661   6.9443   6.9443   7.4800   7.4800
     7.4922   7.4922   7.5217   7.5217   7.5426   7.5426   8.1663   8.1663
     9.5589   9.5589  11.0944  11.0944  11.1313  11.1313  11.3757  11.3757
    11.4446  11.4446  12.2814  12.2814  12.6856  12.6856  12.9446  12.9446
    13.0713  13.0713  13.4115  13.4115  13.4506  13.4506  13.7209  13.7209
    14.3971  14.3971  14.9620  14.9621  15.1347  15.1347  15.4055  15.4055
    16.4180  16.4180  17.5518  17.5518  17.6990

          k = 0.1667-0.4917 0.1670 ( 62982 PWs)   bands (ev):

   -66.2749 -66.2749 -66.2744 -66.2744 -66.2744 -66.2743 -66.2738 -66.2738
   -30.6453 -30.6453 -30.6409 -30.6409 -30.6186 -30.6186 -30.6154 -30.6154
   -30.5940 -30.5940 -30.5918 -30.5918 -30.5790 -30.5790 -30.5716 -30.5716
   -30.5630 -30.5630 -30.5539 -30.5539 -30.5406 -30.5406 -30.5346 -30.5346
   -20.4408 -20.4408 -20.4404 -20.4404 -20.4398 -20.4398 -20.4395 -20.4395
   -20.4290 -20.4290 -20.4285 -20.4285 -20.4278 -20.4277 -20.4274 -20.4274
   -20.4159 -20.4159 -20.4150 -20.4150 -20.4145 -20.4145 -20.4136 -20.4136
   -20.4135 -20.4135 -20.4133 -20.4133 -20.4100 -20.4100 -20.4095 -20.4095
   -20.4014 -20.4014 -20.4014 -20.4013 -20.4012 -20.4011 -20.4011 -20.4011
   -20.4001 -20.4001 -20.4000 -20.4000 -20.3978 -20.3978 -20.3976 -20.3976
   -20.3892 -20.3892 -20.3891 -20.3891 -20.3883 -20.3882 -20.3882 -20.3882
    -9.7553  -9.7553  -9.3950  -9.3941  -9.3822  -9.3813  -8.9650  -8.9649
    -8.6532  -8.6531  -8.5207  -8.5203  -8.5146  -8.5142  -8.4845  -8.4842
    -8.0452  -8.0446  -8.0066  -8.0020  -7.9913  -7.9842  -7.9528  -7.9496
     1.3459   1.3466   1.4437   1.4449   1.5140   1.5141   1.6643   1.6643
     2.6274   2.6333   2.8467   2.8627   2.9125   2.9214   2.9449   2.9465
     3.1033   3.1156   3.1555   3.1706   3.4118   3.4215   3.4289   3.4396
     3.5848   3.5878   4.2831   4.2867   4.3353   4.3396   4.9009   4.9553
     4.9727   5.0000   5.0342   5.0660   5.0892   5.0908   5.3437   5.3515
[...]
    11.8855  11.8855  11.8855  11.8855  11.9770  11.9770  11.9770  11.9770
    12.9256  12.9256  12.9256  12.9256  13.0548  13.0548  13.0548  13.0548
    15.4053  15.4053  15.4053  15.4053  16.4820  16.4820  16.4821  16.4821
    17.3044  17.3054  17.3055  17.3058  17.3573

          k =-0.5000 0.3278 0.0000 ( 62882 PWs)   bands (ev):

   -66.2748 -66.2748 -66.2745 -66.2745 -66.2742 -66.2742 -66.2739 -66.2739
   -30.6241 -30.6241 -30.6225 -30.6225 -30.6225 -30.6224 -30.6190 -30.6190
   -30.6107 -30.6107 -30.6089 -30.6089 -30.5851 -30.5851 -30.5788 -30.5788
   -30.5599 -30.5599 -30.5512 -30.5512 -30.5345 -30.5345 -30.5319 -30.5319
   -20.4407 -20.4407 -20.4407 -20.4407 -20.4396 -20.4396 -20.4396 -20.4396
   -20.4284 -20.4284 -20.4284 -20.4284 -20.4280 -20.4280 -20.4279 -20.4279
   -20.4157 -20.4156 -20.4156 -20.4156 -20.4140 -20.4140 -20.4139 -20.4139
   -20.4120 -20.4120 -20.4117 -20.4117 -20.4117 -20.4117 -20.4113 -20.4113
   -20.4027 -20.4027 -20.4026 -20.4026 -20.4009 -20.4009 -20.4004 -20.4004
   -20.3994 -20.3993 -20.3991 -20.3991 -20.3976 -20.3976 -20.3974 -20.3974
   -20.3892 -20.3892 -20.3892 -20.3892 -20.3882 -20.3882 -20.3881 -20.3880
    -9.7030  -9.7030  -9.5034  -9.5034  -9.1394  -9.1394  -8.8212  -8.8212
    -8.7407  -8.7407  -8.6406  -8.6406  -8.5669  -8.5669  -8.5346  -8.5346
    -8.1867  -8.1867  -8.1428  -8.1428  -7.8763  -7.8763  -7.8562  -7.8562
     1.1969   1.1969   1.2019   1.2019   2.1196   2.1196   2.2328   2.2328
     2.7176   2.7176   2.8221   2.8221   2.9105   2.9105   2.9828   2.9828
     3.0250   3.0250   3.2533   3.2533   3.2907   3.2908   3.4456   3.4456
     3.9366   3.9366   3.9604   3.9604   4.1279   4.1279   4.3253   4.3253
     4.8110   4.8110   4.9169   4.9169   4.9773   4.9773   5.1185   5.1185
     5.2418   5.2418   5.7596   5.7596   5.9960   5.9960   6.0511   6.0511
     6.3552   6.3552   6.4211   6.4211   6.4802   6.4802   6.7290   6.7290
     6.9122   6.9122   6.9882   6.9882   7.0688   7.0688   7.5374   7.5374
     7.5508   7.5509   7.5883   7.5883   7.6029   7.6029   7.9519   7.9519
    10.3920  10.3920  11.0183  11.0183  11.0474  11.0474  11.7102  11.7102
    11.7835  11.7835  11.8979  11.8979  12.6246  12.6246  12.6800  12.6800
    13.0605  13.0605  13.1031  13.1031  13.2661  13.2661  13.7039  13.7039
    14.5529  14.5529  14.9394  14.9394  16.0635  16.0635  16.4244  16.4244
    16.5304  16.5304  16.8439  16.8439  17.6563

          k =-0.5000 0.3278 0.1670 ( 62890 PWs)   bands (ev):

   -66.2748 -66.2748 -66.2745 -66.2745 -66.2742 -66.2742 -66.2739 -66.2739
   -30.6227 -30.6227 -30.6206 -30.6205 -30.6187 -30.6187 -30.6176 -30.6176
   -30.6099 -30.6099 -30.6090 -30.6090 -30.5859 -30.5859 -30.5778 -30.5778
   -30.5622 -30.5622 -30.5507 -30.5507 -30.5392 -30.5392 -30.5351 -30.5351
   -20.4406 -20.4406 -20.4406 -20.4406 -20.4397 -20.4397 -20.4397 -20.4397
   -20.4284 -20.4284 -20.4283 -20.4283 -20.4280 -20.4280 -20.4279 -20.4279
   -20.4155 -20.4155 -20.4155 -20.4155 -20.4141 -20.4141 -20.4140 -20.4140
   -20.4120 -20.4120 -20.4117 -20.4117 -20.4117 -20.4117 -20.4114 -20.4114
   -20.4027 -20.4027 -20.4027 -20.4027 -20.4008 -20.4008 -20.4002 -20.4002
   -20.3995 -20.3995 -20.3990 -20.3990 -20.3977 -20.3977 -20.3976 -20.3976
   -20.3892 -20.3891 -20.3891 -20.3891 -20.3883 -20.3882 -20.3881 -20.3881
    -9.6420  -9.6420  -9.4285  -9.4285  -9.1542  -9.1542  -8.8017  -8.8017
    -8.7512  -8.7512  -8.6318  -8.6318  -8.5646  -8.5646  -8.5368  -8.5368
    -8.1929  -8.1929  -8.1467  -8.1467  -7.9850  -7.9850  -7.9572  -7.9572
     1.4373   1.4373   1.4474   1.4474   2.1254   2.1254   2.2213   2.2213
     2.7791   2.7791   2.8349   2.8349   2.8984   2.8984   2.9835   2.9835
     3.0257   3.0257   3.3298   3.3298   3.3721   3.3721   3.4888   3.4888
     3.9309   3.9309   3.9668   3.9668   4.1192   4.1192   4.3282   4.3282
     4.7023   4.7023   4.7811   4.7812   4.8834   4.8834   4.9323   4.9323
     4.9995   4.9995   5.4770   5.4770   5.6276   5.6276   5.7737   5.7738
     6.5847   6.5847   6.6734   6.6734   6.7182   6.7182   6.8025   6.8025
     6.9177   6.9177   6.9907   6.9907   7.1058   7.1058   7.5248   7.5248
     7.5468   7.5468   7.5874   7.5874   7.5951   7.5951   7.9206   7.9206
    10.5736  10.5736  11.1131  11.1131  11.1424  11.1424  11.7339  11.7340
    11.8015  11.8015  11.9498  11.9498  12.6221  12.6221  12.6788  12.6788
    12.8956  12.8956  12.9299  12.9299  13.0711  13.0711  13.5380  13.5380
    14.9076  14.9076  15.3341  15.3341  16.1590  16.1590  16.4292  16.4292
    16.5600  16.5600  16.8952  16.8952  17.5438

          k =-0.5000 0.3278 0.3340 ( 62862 PWs)   bands (ev):

   -66.2747 -66.2747 -66.2744 -66.2744 -66.2744 -66.2743 -66.2741 -66.2741
   -30.6220 -30.6220 -30.6202 -30.6202 -30.6130 -30.6130 -30.6105 -30.6105
   -30.6059 -30.6059 -30.6025 -30.6025 -30.5886 -30.5886 -30.5742 -30.5742
   -30.5706 -30.5706 -30.5514 -30.5514 -30.5492 -30.5492 -30.5416 -30.5416
   -20.4404 -20.4404 -20.4404 -20.4404 -20.4399 -20.4399 -20.4399 -20.4399
   -20.4283 -20.4283 -20.4283 -20.4282 -20.4281 -20.4281 -20.4280 -20.4280
   -20.4152 -20.4152 -20.4151 -20.4151 -20.4143 -20.4143 -20.4143 -20.4143
   -20.4120 -20.4120 -20.4118 -20.4118 -20.4116 -20.4116 -20.4114 -20.4114
   -20.4028 -20.4028 -20.4028 -20.4028 -20.4006 -20.4006 -20.3999 -20.3999
   -20.3996 -20.3996 -20.3987 -20.3987 -20.3981 -20.3981 -20.3979 -20.3979
   -20.3890 -20.3890 -20.3889 -20.3889 -20.3884 -20.3884 -20.3883 -20.3883
    -9.4866  -9.4866  -9.2273  -9.2273  -9.2034  -9.2033  -8.8166  -8.8166
    -8.7107  -8.7107  -8.5991  -8.5991  -8.5579  -8.5579  -8.5423  -8.5423
    -8.2936  -8.2936  -8.2476  -8.2476  -8.1517  -8.1517  -8.1123  -8.1123
     1.9941   1.9941   2.0938   2.0938   2.1453   2.1453   2.2697   2.2697
     2.8151   2.8151   2.8564   2.8564   2.9730   2.9730   2.9855   2.9855
     3.0486   3.0486   3.4193   3.4193   3.5926   3.5926   3.6439   3.6439
     3.9038   3.9038   3.9919   3.9919   4.0854   4.0854   4.2290   4.2290
     4.2722   4.2722   4.4469   4.4469   4.5548   4.5548   4.7880   4.7880
     4.8151   4.8151   4.8576   4.8576   5.0060   5.0060   5.3018   5.3018
     6.8150   6.8150   6.8835   6.8835   6.9054   6.9054   6.9869   6.9869
     7.0768   7.0768   7.1388   7.1388   7.2463   7.2463   7.4754   7.4754
     7.5231   7.5231   7.5658   7.5658   7.6040   7.6040   7.8205   7.8205
    11.0659  11.0659  11.3987  11.3987  11.4350  11.4350  11.7560  11.7560
    11.8315  11.8315  12.1689  12.1689  12.4207  12.4207  12.4569  12.4569
    12.5470  12.5470  12.6884  12.6884  12.6966  12.6966  13.1200  13.1200
    15.6993  15.6993  16.2483  16.2483  16.3962  16.3962  16.4609  16.4609
    16.7258  16.7258  17.0229  17.0229  17.1780

          k =-0.5000 0.3278-0.5010 ( 62832 PWs)   bands (ev):

   -66.2745 -66.2745 -66.2745 -66.2745 -66.2742 -66.2742 -66.2742 -66.2742
   -30.6210 -30.6210 -30.6210 -30.6210 -30.6112 -30.6112 -30.6112 -30.6112
   -30.5950 -30.5950 -30.5950 -30.5950 -30.5860 -30.5860 -30.5860 -30.5860
   -30.5653 -30.5653 -30.5653 -30.5653 -30.5465 -30.5465 -30.5465 -30.5465
   -20.4402 -20.4402 -20.4402 -20.4402 -20.4401 -20.4401 -20.4401 -20.4401
   -20.4282 -20.4282 -20.4282 -20.4282 -20.4281 -20.4281 -20.4281 -20.4281
   -20.4148 -20.4148 -20.4148 -20.4148 -20.4147 -20.4147 -20.4147 -20.4147
   -20.4119 -20.4119 -20.4119 -20.4119 -20.4115 -20.4115 -20.4115 -20.4115
   -20.4028 -20.4028 -20.4028 -20.4028 -20.4003 -20.4003 -20.4003 -20.4003
   -20.3989 -20.3989 -20.3989 -20.3989 -20.3983 -20.3983 -20.3983 -20.3983
   -20.3887 -20.3887 -20.3887 -20.3887 -20.3886 -20.3886 -20.3886 -20.3886
    -9.3172  -9.3172  -9.3172  -9.3172  -8.9721  -8.9721  -8.9721  -8.9721
    -8.5694  -8.5694  -8.5694  -8.5694  -8.5164  -8.5164  -8.5163  -8.5163
    -8.4938  -8.4938  -8.4937  -8.4937  -8.1436  -8.1436  -8.1436  -8.1436
     2.1303   2.1303   2.1303   2.1303   2.7292   2.7292   2.7292   2.7292
     2.8577   2.8577   2.8577   2.8578   2.9386   2.9386   2.9386   2.9386
     3.1250   3.1250   3.1250   3.1250   3.8296   3.8296   3.8297   3.8297
     3.9186   3.9186   3.9186   3.9186   4.0559   4.0559   4.0559   4.0559
     4.1392   4.1392   4.1393   4.1393   4.3151   4.3151   4.3151   4.3151
     4.6778   4.6778   4.6778   4.6778   5.0452   5.0452   5.0453   5.0453
     6.8905   6.8905   6.8905   6.8905   6.9588   6.9588   6.9588   6.9588
     7.2978   7.2978   7.2978   7.2978   7.4256   7.4256   7.4257   7.4257
     7.4948   7.4948   7.4948   7.4948   7.6690   7.6690   7.6690   7.6690
    11.6268  11.6268  11.6268  11.6268  11.8313  11.8313  11.8313  11.8313
    11.9126  11.9126  11.9126  11.9126  12.0160  12.0160  12.0160  12.0161
    12.5783  12.5783  12.5783  12.5783  12.7151  12.7151  12.7151  12.7151
    16.2472  16.2472  16.2472  16.2472  16.7171  16.7171  16.7171  16.7171
    17.1657  17.1657  17.1658  17.1658  17.3582

          k =-0.5000-0.4917 0.0000 ( 62892 PWs)   bands (ev):

   -66.2747 -66.2747 -66.2747 -66.2747 -66.2741 -66.2741 -66.2741 -66.2740
   -30.6233 -30.6233 -30.6233 -30.6233 -30.6162 -30.6162 -30.6146 -30.6146
   -30.6133 -30.6133 -30.6114 -30.6114 -30.5740 -30.5740 -30.5722 -30.5722
   -30.5675 -30.5675 -30.5654 -30.5654 -30.5341 -30.5341 -30.5339 -30.5339
   -20.4407 -20.4407 -20.4407 -20.4407 -20.4396 -20.4396 -20.4396 -20.4396
   -20.4284 -20.4284 -20.4284 -20.4284 -20.4279 -20.4279 -20.4279 -20.4279
   -20.4156 -20.4156 -20.4156 -20.4156 -20.4140 -20.4139 -20.4139 -20.4139
   -20.4120 -20.4120 -20.4118 -20.4118 -20.4116 -20.4116 -20.4114 -20.4114
   -20.4013 -20.4013 -20.4012 -20.4012 -20.4010 -20.4010 -20.4010 -20.4010
   -20.4004 -20.4004 -20.4002 -20.4002 -20.3975 -20.3975 -20.3975 -20.3975
   -20.3892 -20.3892 -20.3892 -20.3892 -20.3881 -20.3881 -20.3881 -20.3881
    -9.5911  -9.5911  -9.5796  -9.5796  -8.9182  -8.9182  -8.8657  -8.8657
    -8.7115  -8.7115  -8.6708  -8.6708  -8.4754  -8.4754  -8.4472  -8.4472
    -8.4089  -8.4089  -8.3860  -8.3860  -7.8681  -7.8681  -7.8675  -7.8675
     1.1978   1.1978   1.2026   1.2026   2.7587   2.7587   2.8064   2.8064
     2.8269   2.8269   2.8396   2.8396   2.9974   2.9974   3.0952   3.0952
     3.1001   3.1001   3.2335   3.2335   3.2669   3.2669   3.3205   3.3206
     3.3510   3.3510   3.6142   3.6142   4.2271   4.2271   4.3039   4.3039
     4.3314   4.3314   4.3892   4.3892   5.0521   5.0521   5.1004   5.1004
     5.3713   5.3713   5.5194   5.5194   6.0050   6.0050   6.0175   6.0175
     6.4229   6.4229   6.4504   6.4504   6.5412   6.5412   6.5826   6.5826
     7.1547   7.1548   7.2028   7.2028   7.4010   7.4011   7.4075   7.4075
     7.4909   7.4909   7.5294   7.5294   7.6465   7.6465   7.6817   7.6817
    10.9081  10.9081  11.0105  11.0105  11.1267  11.1267  11.2497  11.2497
    12.0111  12.0111  12.1521  12.1521  12.2787  12.2787  12.3315  12.3315
    13.0584  13.0584  13.1051  13.1051  13.4499  13.4499  13.4561  13.4561
    14.7927  14.7927  14.8207  14.8207  16.3225  16.3226  16.5057  16.5057
    17.1836  17.1837  17.2303  17.2303  17.3214

          k =-0.5000-0.4917 0.1670 ( 62880 PWs)   bands (ev):

   -66.2746 -66.2746 -66.2746 -66.2746 -66.2741 -66.2741 -66.2741 -66.2741
   -30.6197 -30.6197 -30.6195 -30.6195 -30.6148 -30.6148 -30.6140 -30.6140
   -30.6130 -30.6130 -30.6116 -30.6116 -30.5752 -30.5752 -30.5735 -30.5735
   -30.5668 -30.5668 -30.5648 -30.5648 -30.5384 -30.5384 -30.5381 -30.5381
   -20.4406 -20.4406 -20.4406 -20.4406 -20.4397 -20.4397 -20.4397 -20.4397
   -20.4284 -20.4284 -20.4284 -20.4284 -20.4280 -20.4280 -20.4280 -20.4279
   -20.4155 -20.4155 -20.4155 -20.4155 -20.4140 -20.4140 -20.4140 -20.4140
   -20.4119 -20.4119 -20.4118 -20.4118 -20.4116 -20.4116 -20.4115 -20.4115
   -20.4014 -20.4014 -20.4013 -20.4013 -20.4011 -20.4011 -20.4010 -20.4010
   -20.4001 -20.4001 -20.4000 -20.4000 -20.3977 -20.3977 -20.3977 -20.3976
   -20.3891 -20.3891 -20.3891 -20.3891 -20.3882 -20.3882 -20.3882 -20.3882
    -9.5219  -9.5219  -9.5089  -9.5089  -8.9334  -8.9334  -8.8821  -8.8821
    -8.6973  -8.6973  -8.6578  -8.6578  -8.4736  -8.4736  -8.4494  -8.4494
    -8.4068  -8.4067  -8.3890  -8.3890  -7.9757  -7.9757  -7.9747  -7.9747
     1.4418   1.4418   1.4475   1.4475   2.7672   2.7672   2.8075   2.8075
     2.8277   2.8277   2.8351   2.8351   3.0015   3.0015   3.0742   3.0742
     3.1669   3.1669   3.2692   3.2692   3.3074   3.3074   3.3626   3.3626
     3.4128   3.4128   3.6488   3.6488   4.2301   4.2302   4.2973   4.2973
     4.3348   4.3348   4.3782   4.3782   4.8248   4.8248   4.8570   4.8570
     5.1025   5.1025   5.2283   5.2283   5.6503   5.6503   5.6557   5.6557
     6.6654   6.6654   6.6886   6.6886   6.7381   6.7381   6.7954   6.7954
     7.1523   7.1523   7.2132   7.2132   7.3898   7.3898   7.4112   7.4112
     7.4849   7.4849   7.5308   7.5308   7.6270   7.6270   7.6722   7.6723
    11.0153  11.0154  11.1115  11.1115  11.2367  11.2367  11.3561  11.3561
    12.0226  12.0226  12.1519  12.1519  12.2841  12.2841  12.3263  12.3263
    12.8935  12.8935  12.9304  12.9304  13.2660  13.2660  13.2713  13.2713
    15.1874  15.1874  15.1996  15.1996  16.4067  16.4067  16.5819  16.5819
    17.1701  17.1701  17.2202  17.2203  17.3204

          k =-0.5000-0.4917 0.3340 ( 62876 PWs)   bands (ev):

   -66.2745 -66.2745 -66.2745 -66.2745 -66.2742 -66.2742 -66.2742 -66.2742
   -30.6167 -30.6167 -30.6154 -30.6154 -30.6144 -30.6144 -30.6126 -30.6126
   -30.6046 -30.6046 -30.6040 -30.6040 -30.5797 -30.5797 -30.5783 -30.5783
   -30.5644 -30.5644 -30.5626 -30.5626 -30.5490 -30.5490 -30.5483 -30.5483
   -20.4404 -20.4404 -20.4404 -20.4404 -20.4399 -20.4399 -20.4399 -20.4399
   -20.4283 -20.4283 -20.4283 -20.4283 -20.4280 -20.4280 -20.4280 -20.4280
   -20.4152 -20.4152 -20.4151 -20.4151 -20.4143 -20.4143 -20.4143 -20.4143
   -20.4119 -20.4119 -20.4118 -20.4118 -20.4116 -20.4116 -20.4115 -20.4115
   -20.4015 -20.4015 -20.4014 -20.4014 -20.4013 -20.4013 -20.4012 -20.4012
   -20.3995 -20.3995 -20.3994 -20.3994 -20.3982 -20.3982 -20.3981 -20.3981
   -20.3890 -20.3889 -20.3889 -20.3889 -20.3884 -20.3884 -20.3884 -20.3884
    -9.3389  -9.3389  -9.3199  -9.3199  -8.9906  -8.9906  -8.9448  -8.9447
    -8.6439  -8.6439  -8.6103  -8.6103  -8.4705  -8.4705  -8.4547  -8.4547
    -8.4056  -8.4056  -8.3963  -8.3962  -8.2270  -8.2270  -8.2246  -8.2246
     2.0756   2.0756   2.0886   2.0886   2.7750   2.7750   2.8063   2.8063
     2.8277   2.8278   2.8369   2.8369   3.0311   3.0311   3.0731   3.0731
     3.2077   3.2077   3.3036   3.3036   3.4065   3.4065   3.4285   3.4285
     3.6547   3.6547   3.7891   3.7891   4.2260   4.2260   4.2724   4.2724
     4.2983   4.2983   4.3358   4.3359   4.4300   4.4300   4.4581   4.4581
     4.6192   4.6192   4.7542   4.7542   4.9018   4.9018   4.9174   4.9175
     6.9689   6.9689   7.0124   7.0124   7.0325   7.0325   7.0970   7.0970
     7.1694   7.1694   7.2543   7.2543   7.3510   7.3510   7.4356   7.4356
     7.4606   7.4606   7.5323   7.5323   7.5865   7.5865   7.6363   7.6363
    11.3357  11.3357  11.4032  11.4032  11.5744  11.5744  11.6745  11.6745
    12.0262  12.0262  12.1553  12.1553  12.2691  12.2691  12.3091  12.3091
    12.4773  12.4773  12.5223  12.5223  12.7938  12.7938  12.8003  12.8003
    16.0844  16.0844  16.1393  16.1393  16.6555  16.6555  16.7978  16.7978
    17.0967  17.0967  17.1177  17.1177  17.3548

          k =-0.5000-0.4917-0.5010 ( 62816 PWs)   bands (ev):

   -66.2744 -66.2744 -66.2744 -66.2744 -66.2744 -66.2744 -66.2743 -66.2743
   -30.6156 -30.6155 -30.6155 -30.6155 -30.6137 -30.6137 -30.6137 -30.6137
   -30.5900 -30.5900 -30.5900 -30.5900 -30.5892 -30.5892 -30.5892 -30.5892
   -30.5590 -30.5590 -30.5590 -30.5590 -30.5576 -30.5576 -30.5576 -30.5576
   -20.4402 -20.4402 -20.4402 -20.4402 -20.4401 -20.4401 -20.4401 -20.4401
   -20.4282 -20.4282 -20.4282 -20.4282 -20.4281 -20.4281 -20.4281 -20.4281
   -20.4148 -20.4148 -20.4148 -20.4147 -20.4147 -20.4147 -20.4147 -20.4147
   -20.4118 -20.4118 -20.4118 -20.4118 -20.4116 -20.4116 -20.4116 -20.4116
   -20.4015 -20.4014 -20.4014 -20.4014 -20.4013 -20.4013 -20.4013 -20.4013
   -20.3989 -20.3988 -20.3988 -20.3988 -20.3987 -20.3987 -20.3987 -20.3987
   -20.3887 -20.3887 -20.3887 -20.3887 -20.3887 -20.3887 -20.3887 -20.3886
    -9.1271  -9.1271  -9.1271  -9.1271  -9.0937  -9.0937  -9.0937  -9.0937
    -8.5217  -8.5217  -8.5217  -8.5217  -8.5017  -8.5017  -8.5017  -8.5017
    -8.4283  -8.4283  -8.4283  -8.4283  -8.3789  -8.3789  -8.3789  -8.3789
     2.6444   2.6444   2.6444   2.6444   2.7680   2.7680   2.7680   2.7680
     2.8808   2.8808   2.8808   2.8808   3.0658   3.0659   3.0659   3.0659
     3.1831   3.1831   3.1831   3.1831   3.3401   3.3401   3.3401   3.3401
     4.0449   4.0449   4.0449   4.0449   4.1177   4.1177   4.1177   4.1177
     4.2276   4.2276   4.2276   4.2276   4.2872   4.2872   4.2872   4.2872
     4.4112   4.4112   4.4112   4.4112   4.5010   4.5010   4.5010   4.5010
     7.0810   7.0810   7.0810   7.0810   7.1992   7.1992   7.1993   7.1993
     7.2750   7.2750   7.2750   7.2750   7.3643   7.3643   7.3643   7.3644
     7.4997   7.4997   7.4997   7.4997   7.5826   7.5826   7.5826   7.5826
    11.7546  11.7546  11.7546  11.7546  11.8794  11.8794  11.8794  11.8794
    12.0783  12.0783  12.0783  12.0783  12.1792  12.1792  12.1792  12.1792
    12.2742  12.2742  12.2742  12.2742  12.3790  12.3790  12.3790  12.3790
    16.7352  16.7352  16.7352  16.7352  16.9023  16.9023  16.9024  16.9024
    17.3178  17.3179  17.3180  17.3181  17.3859

     the Fermi energy is     9.5442 ev

!    total energy              =   -6260.88471407 Ry
     Harris-Foulkes estimate   =   -6260.88471407 Ry
     estimated scf accuracy    <          2.5E-09 Ry

     The total energy is the sum of the following terms:

     one-electron contribution =   -4762.12159716 Ry
     hartree contribution      =    2616.57537505 Ry
     xc contribution           =    -965.93000044 Ry
     ewald contribution        =   -3149.40846868 Ry
     smearing contrib. (-TS)   =      -0.00002284 Ry

     convergence has been achieved in  13 iterations

     Writing output data file Landau_28.save/
 
     init_run     :     26.57s CPU     28.52s WALL (       1 calls)
     electrons    :   1100.29s CPU   1125.68s WALL (       1 calls)

     Called by init_run:
     wfcinit      :     24.25s CPU     26.03s WALL (       1 calls)
     potinit      :      0.88s CPU      0.93s WALL (       1 calls)
     hinit0       :      1.26s CPU      1.32s WALL (       1 calls)

     Called by electrons:
     c_bands      :    963.80s CPU    987.18s WALL (      13 calls)
     sum_band     :    129.62s CPU    130.79s WALL (      13 calls)
     v_of_rho     :      1.13s CPU      1.20s WALL (      14 calls)
     mix_rho      :      1.95s CPU      2.54s WALL (      13 calls)

     Called by c_bands:
     init_us_2    :      6.26s CPU      7.26s WALL (      54 calls)
     cegterg      :    772.56s CPU    794.12s WALL (      26 calls)

     Called by sum_band:

     Called by *egterg:
     h_psi        :    613.45s CPU    623.61s WALL (     122 calls)
     g_psi        :      1.37s CPU      1.38s WALL (      94 calls)
     cdiaghg      :     11.78s CPU     11.87s WALL (     120 calls)

     Called by h_psi:
     h_psi:pot    :    611.01s CPU    614.78s WALL (     122 calls)
     h_psi:calbec :     62.91s CPU     64.32s WALL (     122 calls)
     vloc_psi     :    480.02s CPU    481.90s WALL (     122 calls)
     add_vuspsi   :     68.08s CPU     68.56s WALL (     122 calls)

     General routines
     calbec       :     62.91s CPU     64.31s WALL (     122 calls)
     fft          :      0.60s CPU      0.60s WALL (      42 calls)
     ffts         :      0.19s CPU      0.20s WALL (      13 calls)
     fftw         :    499.16s CPU    500.61s WALL (   33804 calls)
 
     Parallel routines
 
     PWSCF        :  18m53.77s CPU  19m24.69s WALL

 
   This run was terminated on:   0:47: 4  22Nov2019            

=------------------------------------------------------------------------------=
   JOB DONE.
=------------------------------------------------------------------------------=
