
     Program PWSCF v.6.2 (svn rev. 14038) starts on 20Mar2020 at 17: 4:23 

     This program is part of the open-source Quantum ESPRESSO suite
     for quantum simulation of materials; please cite
         "P. Giannozzi et al., J. Phys.:Condens. Matter 21 395502 (2009);
         "P. Giannozzi et al., J. Phys.:Condens. Matter 29 465901 (2017);
          URL http://www.quantum-espresso.org", 
     in publications or presentations arising from this work. More details at
     http://www.quantum-espresso.org/quote

     Parallel version (MPI), running on    40 processors

     MPI processes distributed on     5 nodes
     K-points division:     npool     =      40
     Reading input from scf.in

     Current dimensions of program PWSCF are:
     Max number of different atomic species (ntypx) = 10
     Max number of k-points (npk) =  40000
     Max angular momentum in pseudopotentials (lmaxx) =  3

     Subspace diagonalization in iterative solution of the eigenvalue problem:
     a serial algorithm will be used

 
     G-vector sticks info
     --------------------
     sticks:   dense  smooth     PW     G-vecs:    dense   smooth      PW
     Sum        7725    7725   2077               509335   509335   70615
 


     bravais-lattice index     =            0
     lattice parameter (alat)  =      14.1650  a.u.
     unit-cell volume          =    2868.0246 (a.u.)^3
     number of atoms/cell      =           32
     number of atomic types    =            2
     number of electrons       =       368.20
     number of Kohn-Sham states=          221
     kinetic-energy cutoff     =     120.0000  Ry
     charge density cutoff     =     480.0000  Ry
     convergence threshold     =      1.0E-08
     mixing beta               =       0.7000
     number of iterations used =            8  plain     mixing
     Exchange-correlation      = SLA PW NOGX NOGC ( 1  4  0  0 0 0)

     celldm(1)=  14.164986  celldm(2)=   0.000000  celldm(3)=   0.000000
     celldm(4)=   0.000000  celldm(5)=   0.000000  celldm(6)=   0.000000

     crystal axes: (cart. coord. in units of alat)
               a(1) = (   1.000000   0.000000   0.000000 )  
               a(2) = (   0.000000   1.007109   0.000000 )  
               a(3) = (   0.000000   0.000000   1.001978 )  

     reciprocal axes: (cart. coord. in units 2 pi/alat)
               b(1) = (  1.000000  0.000000  0.000000 )  
               b(2) = (  0.000000  0.992941  0.000000 )  
               b(3) = (  0.000000  0.000000  0.998026 )  


     PseudoPot. # 1 for W  read from file:
     /cluster/scratch/mnoe/QE/pps/W_ONCV_LDA-4.0.upf
     MD5 check sum: ba0307d5d4cd419d6f1d13dc49d7c13a
     Pseudo is Norm-conserving + core correction, Zval = 28.0
     Generated using ONCVPSP code by D. R. Hamann
     Using radial grid of 1380 points,  8 beta functions with: 
                l(1) =   0
                l(2) =   0
                l(3) =   1
                l(4) =   1
                l(5) =   2
                l(6) =   2
                l(7) =   3
                l(8) =   3

     PseudoPot. # 2 for O  read from file:
     /cluster/scratch/mnoe/QE/pps/O_ONCV_LDA-3.0.upf
     MD5 check sum: a1bd6164e7280c17a38c229939bfbd54
     Pseudo is Norm-conserving + core correction, Zval =  6.0
     Generated using ONCVPSP code by D. R. Hamann
     Using radial grid of  926 points,  5 beta functions with: 
                l(1) =   0
                l(2) =   0
                l(3) =   1
                l(4) =   1
                l(5) =   2

     atomic species   valence    mass     pseudopotential
        W             28.00   183.84000     W ( 1.00)
        O              6.00    15.99940     O ( 1.00)

      8 Sym. Ops., with inversion, found ( 6 have fractional translation)



   Cartesian axes

     site n.     atom                  positions (alat units)
         1           W   tau(   1) = (   0.2375266   0.2696257   0.0118022  )
         2           W   tau(   2) = (   0.7624733   0.7374831  -0.0118022  )
         3           W   tau(   3) = (   0.2624734   0.2339287   0.5127910  )
         4           W   tau(   4) = (   0.7375266   0.7731802   0.4891866  )
         5           W   tau(   5) = (   0.7624733   0.2696257   0.4891866  )
         6           W   tau(   6) = (   0.2375266   0.7374831   0.5127910  )
         7           W   tau(   7) = (   0.7375266   0.2339287  -0.0118022  )
         8           W   tau(   8) = (   0.2624734   0.7731802   0.0118022  )
         9           O   tau(   9) = (   0.2269883   0.0045003   0.0036683  )
        10           O   tau(  10) = (   0.7730116  -0.0045004  -0.0036683  )
        11           O   tau(  11) = (   0.2730117   0.4990541   0.5046571  )
        12           O   tau(  12) = (   0.7269883   0.5080548   0.4973204  )
        13           O   tau(  13) = (   0.7730116   0.0045003   0.4973204  )
        14           O   tau(  14) = (   0.2269883  -0.0045004   0.5046571  )
        15           O   tau(  15) = (   0.7269883   0.4990541  -0.0036683  )
        16           O   tau(  16) = (   0.2730117   0.5080548   0.0036683  )
        17           O   tau(  17) = (   0.5034116   0.2280044   0.4850663  )
        18           O   tau(  18) = (   0.4965884   0.7791045   0.5169114  )
        19           O   tau(  19) = (  -0.0034117   0.2755500   0.9860551  )
        20           O   tau(  20) = (   0.0034116   0.7315589   0.0159224  )
        21           O   tau(  21) = (   0.4965884   0.2280044   0.0159224  )
        22           O   tau(  22) = (   0.5034116   0.7791045   0.9860551  )
        23           O   tau(  23) = (   0.0034116   0.2755500   0.5169114  )
        24           O   tau(  24) = (  -0.0034117   0.7315589   0.4850663  )
        25           O   tau(  25) = (   0.7341089   0.2465894   0.7463015  )
        26           O   tau(  26) = (   0.2658910   0.7605195   0.2556760  )
        27           O   tau(  27) = (   0.7658912   0.2569650   0.2453128  )
        28           O   tau(  28) = (   0.2341090   0.7501439   0.7566647  )
        29           O   tau(  29) = (   0.2658910   0.2465894   0.7566647  )
        30           O   tau(  30) = (   0.7341089   0.7605195   0.2453128  )
        31           O   tau(  31) = (   0.2341090   0.2569650   0.2556760  )
        32           O   tau(  32) = (   0.7658912   0.7501439   0.7463015  )

     number of k points=    64  gaussian smearing, width (Ry)=  0.0007
                       cart. coord. in units 2pi/alat
        k(    1) = (   0.0000000   0.0000000   0.0000000), wk =   0.0092593
        k(    2) = (   0.0000000   0.0000000   0.1663377), wk =   0.0185185
        k(    3) = (   0.0000000   0.0000000   0.3326754), wk =   0.0185185
        k(    4) = (   0.0000000   0.0000000  -0.4990132), wk =   0.0092593
        k(    5) = (   0.0000000   0.1654902   0.0000000), wk =   0.0185185
        k(    6) = (   0.0000000   0.1654902   0.1663377), wk =   0.0370370
        k(    7) = (   0.0000000   0.1654902   0.3326754), wk =   0.0370370
        k(    8) = (   0.0000000   0.1654902  -0.4990132), wk =   0.0185185
        k(    9) = (   0.0000000   0.3309805   0.0000000), wk =   0.0185185
        k(   10) = (   0.0000000   0.3309805   0.1663377), wk =   0.0370370
        k(   11) = (   0.0000000   0.3309805   0.3326754), wk =   0.0370370
        k(   12) = (   0.0000000   0.3309805  -0.4990132), wk =   0.0185185
        k(   13) = (   0.0000000  -0.4964707   0.0000000), wk =   0.0092593
        k(   14) = (   0.0000000  -0.4964707   0.1663377), wk =   0.0185185
        k(   15) = (   0.0000000  -0.4964707   0.3326754), wk =   0.0185185
        k(   16) = (   0.0000000  -0.4964707  -0.4990132), wk =   0.0092593
        k(   17) = (   0.1666667   0.0000000   0.0000000), wk =   0.0185185
        k(   18) = (   0.1666667   0.0000000   0.1663377), wk =   0.0370370
        k(   19) = (   0.1666667   0.0000000   0.3326754), wk =   0.0370370
        k(   20) = (   0.1666667   0.0000000  -0.4990132), wk =   0.0185185
        k(   21) = (   0.1666667   0.1654902   0.0000000), wk =   0.0370370
        k(   22) = (   0.1666667   0.1654902   0.1663377), wk =   0.0740741
        k(   23) = (   0.1666667   0.1654902   0.3326754), wk =   0.0740741
        k(   24) = (   0.1666667   0.1654902  -0.4990132), wk =   0.0370370
        k(   25) = (   0.1666667   0.3309805   0.0000000), wk =   0.0370370
        k(   26) = (   0.1666667   0.3309805   0.1663377), wk =   0.0740741
        k(   27) = (   0.1666667   0.3309805   0.3326754), wk =   0.0740741
        k(   28) = (   0.1666667   0.3309805  -0.4990132), wk =   0.0370370
        k(   29) = (   0.1666667  -0.4964707   0.0000000), wk =   0.0185185
        k(   30) = (   0.1666667  -0.4964707   0.1663377), wk =   0.0370370
        k(   31) = (   0.1666667  -0.4964707   0.3326754), wk =   0.0370370
        k(   32) = (   0.1666667  -0.4964707  -0.4990132), wk =   0.0185185
        k(   33) = (   0.3333333   0.0000000   0.0000000), wk =   0.0185185
        k(   34) = (   0.3333333   0.0000000   0.1663377), wk =   0.0370370
        k(   35) = (   0.3333333   0.0000000   0.3326754), wk =   0.0370370
        k(   36) = (   0.3333333   0.0000000  -0.4990132), wk =   0.0185185
        k(   37) = (   0.3333333   0.1654902   0.0000000), wk =   0.0370370
        k(   38) = (   0.3333333   0.1654902   0.1663377), wk =   0.0740741
        k(   39) = (   0.3333333   0.1654902   0.3326754), wk =   0.0740741
        k(   40) = (   0.3333333   0.1654902  -0.4990132), wk =   0.0370370
        k(   41) = (   0.3333333   0.3309805   0.0000000), wk =   0.0370370
        k(   42) = (   0.3333333   0.3309805   0.1663377), wk =   0.0740741
        k(   43) = (   0.3333333   0.3309805   0.3326754), wk =   0.0740741
        k(   44) = (   0.3333333   0.3309805  -0.4990132), wk =   0.0370370
        k(   45) = (   0.3333333  -0.4964707   0.0000000), wk =   0.0185185
        k(   46) = (   0.3333333  -0.4964707   0.1663377), wk =   0.0370370
        k(   47) = (   0.3333333  -0.4964707   0.3326754), wk =   0.0370370
        k(   48) = (   0.3333333  -0.4964707  -0.4990132), wk =   0.0185185
        k(   49) = (  -0.5000000   0.0000000   0.0000000), wk =   0.0092593
        k(   50) = (  -0.5000000   0.0000000   0.1663377), wk =   0.0185185
        k(   51) = (  -0.5000000   0.0000000   0.3326754), wk =   0.0185185
        k(   52) = (  -0.5000000   0.0000000  -0.4990132), wk =   0.0092593
        k(   53) = (  -0.5000000   0.1654902   0.0000000), wk =   0.0185185
        k(   54) = (  -0.5000000   0.1654902   0.1663377), wk =   0.0370370
        k(   55) = (  -0.5000000   0.1654902   0.3326754), wk =   0.0370370
        k(   56) = (  -0.5000000   0.1654902  -0.4990132), wk =   0.0185185
        k(   57) = (  -0.5000000   0.3309805   0.0000000), wk =   0.0185185
        k(   58) = (  -0.5000000   0.3309805   0.1663377), wk =   0.0370370
        k(   59) = (  -0.5000000   0.3309805   0.3326754), wk =   0.0370370
        k(   60) = (  -0.5000000   0.3309805  -0.4990132), wk =   0.0185185
        k(   61) = (  -0.5000000  -0.4964707   0.0000000), wk =   0.0092593
        k(   62) = (  -0.5000000  -0.4964707   0.1663377), wk =   0.0185185
        k(   63) = (  -0.5000000  -0.4964707   0.3326754), wk =   0.0185185
        k(   64) = (  -0.5000000  -0.4964707  -0.4990132), wk =   0.0092593

     Dense  grid:   509335 G-vectors     FFT dimensions: ( 100, 100, 100)

     Estimated max dynamical RAM per process >       3.19 GB

     Estimated total dynamical RAM >     127.58 GB

     Initial potential from superposition of free atoms

     starting charge  367.99656, renormalised to  368.20000
     Starting wfc are  232 randomized atomic wfcs

     total cpu time spent up to now is       37.1 secs

     Self-consistent Calculation

     iteration #  1     ecut=   120.00 Ry     beta= 0.70
     Davidson diagonalization with overlap
     ethr =  1.00E-02,  avg # of iterations =  5.1

     total cpu time spent up to now is      163.6 secs

     total energy              =   -6253.73736170 Ry
     Harris-Foulkes estimate   =   -6264.52993411 Ry
     estimated scf accuracy    <      13.63928735 Ry

     iteration #  2     ecut=   120.00 Ry     beta= 0.70
     Davidson diagonalization with overlap
     ethr =  3.70E-03,  avg # of iterations =  3.6

     total cpu time spent up to now is      286.4 secs

     total energy              =   -6250.54847364 Ry
     Harris-Foulkes estimate   =   -6270.78754927 Ry
     estimated scf accuracy    <      54.32344771 Ry

     iteration #  3     ecut=   120.00 Ry     beta= 0.70
     Davidson diagonalization with overlap
     ethr =  3.70E-03,  avg # of iterations =  3.6

     total cpu time spent up to now is      400.8 secs

     total energy              =   -6260.95716782 Ry
     Harris-Foulkes estimate   =   -6261.23480235 Ry
     estimated scf accuracy    <       0.93506339 Ry

     iteration #  4     ecut=   120.00 Ry     beta= 0.70
     Davidson diagonalization with overlap
     ethr =  2.54E-04,  avg # of iterations =  3.6

     total cpu time spent up to now is      497.9 secs

     total energy              =   -6260.90839499 Ry
     Harris-Foulkes estimate   =   -6261.01481465 Ry
     estimated scf accuracy    <       0.22825442 Ry

     iteration #  5     ecut=   120.00 Ry     beta= 0.70
     Davidson diagonalization with overlap
     ethr =  6.20E-05,  avg # of iterations =  4.7

     total cpu time spent up to now is      606.8 secs

     total energy              =   -6260.96155093 Ry
     Harris-Foulkes estimate   =   -6260.96958445 Ry
     estimated scf accuracy    <       0.02861592 Ry

     iteration #  6     ecut=   120.00 Ry     beta= 0.70
     Davidson diagonalization with overlap
     ethr =  7.77E-06,  avg # of iterations =  5.9

     total cpu time spent up to now is      717.2 secs

     total energy              =   -6260.96224271 Ry
     Harris-Foulkes estimate   =   -6260.96571558 Ry
     estimated scf accuracy    <       0.00981223 Ry

     iteration #  7     ecut=   120.00 Ry     beta= 0.70
     Davidson diagonalization with overlap
     ethr =  2.66E-06,  avg # of iterations =  5.0

     total cpu time spent up to now is      823.7 secs

     total energy              =   -6260.96336063 Ry
     Harris-Foulkes estimate   =   -6260.96350937 Ry
     estimated scf accuracy    <       0.00026482 Ry

     iteration #  8     ecut=   120.00 Ry     beta= 0.70
     Davidson diagonalization with overlap
     ethr =  7.19E-08,  avg # of iterations =  3.0

     total cpu time spent up to now is      941.3 secs

     total energy              =   -6260.96346704 Ry
     Harris-Foulkes estimate   =   -6260.96348427 Ry
     estimated scf accuracy    <       0.00008555 Ry

     iteration #  9     ecut=   120.00 Ry     beta= 0.70
     Davidson diagonalization with overlap
     ethr =  2.32E-08,  avg # of iterations =  1.0

     total cpu time spent up to now is     1028.5 secs

     total energy              =   -6260.96346124 Ry
     Harris-Foulkes estimate   =   -6260.96347258 Ry
     estimated scf accuracy    <       0.00004244 Ry

     iteration # 10     ecut=   120.00 Ry     beta= 0.70
     Davidson diagonalization with overlap
     ethr =  1.15E-08,  avg # of iterations =  2.0

     total cpu time spent up to now is     1118.7 secs

     total energy              =   -6260.96346126 Ry
     Harris-Foulkes estimate   =   -6260.96346497 Ry
     estimated scf accuracy    <       0.00000920 Ry

     iteration # 11     ecut=   120.00 Ry     beta= 0.70
     Davidson diagonalization with overlap
     ethr =  2.50E-09,  avg # of iterations =  3.0

     total cpu time spent up to now is     1211.7 secs

     total energy              =   -6260.96346301 Ry
     Harris-Foulkes estimate   =   -6260.96346309 Ry
     estimated scf accuracy    <       0.00000014 Ry

     iteration # 12     ecut=   120.00 Ry     beta= 0.70
     Davidson diagonalization with overlap
     ethr =  3.88E-11,  avg # of iterations =  3.2

     total cpu time spent up to now is     1330.3 secs

     total energy              =   -6260.96346304 Ry
     Harris-Foulkes estimate   =   -6260.96346305 Ry
     estimated scf accuracy    <       0.00000002 Ry

     iteration # 13     ecut=   120.00 Ry     beta= 0.70
     Davidson diagonalization with overlap
     ethr =  5.79E-12,  avg # of iterations =  2.1

     total cpu time spent up to now is     1436.1 secs

     End of self-consistent calculation

          k = 0.0000 0.0000 0.0000 ( 63677 PWs)   bands (ev):

   -66.5306 -66.5300 -66.5300 -66.5299 -66.5294 -66.5293 -66.5293 -66.5287
   -30.8926 -30.8881 -30.8839 -30.8828 -30.8814 -30.8781 -30.8745 -30.8728
   -30.8726 -30.8706 -30.8660 -30.8637 -30.8074 -30.8047 -30.8041 -30.8023
   -30.7958 -30.7950 -30.7949 -30.7877 -30.7872 -30.7858 -30.7807 -30.7767
   -20.6974 -20.6974 -20.6973 -20.6973 -20.6972 -20.6971 -20.6971 -20.6970
   -20.6756 -20.6751 -20.6750 -20.6749 -20.6745 -20.6743 -20.6743 -20.6737
   -20.6704 -20.6701 -20.6700 -20.6695 -20.6694 -20.6692 -20.6691 -20.6688
   -20.6685 -20.6683 -20.6680 -20.6679 -20.6677 -20.6675 -20.6673 -20.6672
   -20.6649 -20.6642 -20.6641 -20.6632 -20.6626 -20.6624 -20.6624 -20.6624
   -20.6619 -20.6617 -20.6607 -20.6605 -20.6576 -20.6576 -20.6575 -20.6575
   -20.6566 -20.6563 -20.6563 -20.6561 -20.6553 -20.6552 -20.6539 -20.6538
   -10.2561  -9.9313  -9.9131  -9.9035  -9.6021  -9.5884  -9.5545  -9.3519
    -9.3282  -9.3216  -9.3034  -9.3023  -8.1182  -8.0648  -8.0542  -8.0521
    -8.0286  -8.0194  -8.0053  -8.0048  -8.0037  -7.9768  -7.9721  -7.9537
     0.7823   0.7959   0.8166   0.8348   0.8388   0.8883   0.9410   0.9875
     1.1033   1.1175   1.1605   1.3651   2.2111   2.2160   2.2620   2.3235
     2.3305   2.3798   4.0689   4.1290   4.1724   4.2770   4.2834   4.2835
     4.3054   4.3167   4.3397   4.3923   4.4288   4.4639   4.9122   4.9808
     4.9960   5.2710   5.2846   5.3140   5.3152   5.3274   5.3410   5.3612
     5.3876   5.4241   5.6798   5.7274   5.7649   5.7932   5.8005   5.8497
     5.8687   5.9960   6.0115   6.1673   6.1810   6.3772   6.6742   6.6909
     6.7222   6.7272   6.7409   6.7654   6.7678   6.7895   6.7988   6.8077
     6.8143   6.8173   7.7796   7.7823   7.8914   7.9042   7.9247   7.9269
     8.9287   8.9781   9.0883   9.1044   9.1674   9.1786  12.0869  12.2146
    12.2376  12.2781  12.2839  12.3253  12.3280  12.3314  12.3333  12.4563
    12.4994  12.5482  13.1566  13.2732  13.4684  13.5249  13.7076  13.7198
    14.1222  14.2100  14.3412  14.4397  14.4437  14.4903  15.4371  15.4920
    15.5466  16.7057  16.7474  16.7652  16.8205

          k = 0.0000 0.0000 0.1663 ( 63633 PWs)   bands (ev):

   -66.5306 -66.5300 -66.5299 -66.5299 -66.5294 -66.5293 -66.5293 -66.5287
   -30.8923 -30.8884 -30.8833 -30.8809 -30.8793 -30.8784 -30.8749 -30.8710
   -30.8690 -30.8672 -30.8614 -30.8595 -30.8071 -30.8070 -30.8048 -30.8020
   -30.7987 -30.7981 -30.7947 -30.7931 -30.7906 -30.7855 -30.7844 -30.7784
   -20.6974 -20.6973 -20.6973 -20.6972 -20.6972 -20.6971 -20.6971 -20.6970
   -20.6755 -20.6751 -20.6750 -20.6748 -20.6745 -20.6744 -20.6743 -20.6737
   -20.6704 -20.6700 -20.6699 -20.6695 -20.6694 -20.6692 -20.6690 -20.6689
   -20.6685 -20.6684 -20.6679 -20.6678 -20.6677 -20.6676 -20.6673 -20.6673
   -20.6645 -20.6637 -20.6637 -20.6629 -20.6625 -20.6625 -20.6624 -20.6623
   -20.6618 -20.6617 -20.6607 -20.6605 -20.6581 -20.6579 -20.6575 -20.6574
   -20.6571 -20.6568 -20.6564 -20.6562 -20.6552 -20.6551 -20.6540 -20.6539
   -10.2156  -9.9244  -9.8800  -9.8501  -9.5960  -9.5617  -9.5133  -9.3304
    -9.3042  -9.2982  -9.2824  -9.2664  -8.1859  -8.1699  -8.1371  -8.1193
    -8.0761  -8.0554  -8.0492  -8.0203  -8.0086  -8.0042  -7.9801  -7.9750
     0.8297   0.8338   0.8810   0.9220   0.9409   0.9644   0.9867   1.1591
     1.1591   1.2838   1.2877   1.4883   2.2240   2.2929   2.3165   2.3440
     2.4099   2.4597   3.9210   4.0136   4.0617   4.0732   4.1188   4.2183
     4.2489   4.3001   4.3492   4.3503   4.3617   4.4570   4.8212   4.8995
     4.9615   5.0435   5.0939   5.2250   5.2799   5.3235   5.3776   5.4052
     5.4112   5.4170   5.6077   5.6694   5.7387   5.7984   5.8085   5.8913
     5.9857   6.0036   6.2475   6.2785   6.3301   6.4792   6.5039   6.5238
     6.5891   6.5901   6.6156   6.6445   6.6566   6.6796   6.7682   6.7829
     6.7858   6.7908   7.7826   7.7887   7.8298   7.8469   7.8567   7.8738
     9.0933   9.1373   9.2954   9.3104   9.4131   9.4783  12.1210  12.1393
    12.1394  12.1832  12.2348  12.2652  12.3244  12.3315  12.3468  12.3832
    12.4135  12.5242  13.1670  13.2723  13.4289  13.5237  13.5669  13.5872
    14.3317  14.3567  14.4377  14.4936  14.5206  14.6538  15.4641  15.5195
    15.8533  16.4893  16.8533  16.8860  16.9316

          k = 0.0000 0.0000 0.3327 ( 63662 PWs)   bands (ev):

   -66.5305 -66.5301 -66.5298 -66.5298 -66.5295 -66.5295 -66.5291 -66.5288
   -30.8915 -30.8892 -30.8820 -30.8793 -30.8787 -30.8760 -30.8758 -30.8720
   -30.8556 -30.8525 -30.8483 -30.8460 -30.8173 -30.8137 -30.8094 -30.8071
   -30.8063 -30.8038 -30.8010 -30.7962 -30.7938 -30.7898 -30.7846 -30.7811
   -20.6974 -20.6973 -20.6973 -20.6972 -20.6972 -20.6971 -20.6971 -20.6971
   -20.6754 -20.6752 -20.6748 -20.6747 -20.6745 -20.6744 -20.6743 -20.6739
   -20.6703 -20.6698 -20.6698 -20.6697 -20.6694 -20.6692 -20.6692 -20.6688
   -20.6686 -20.6686 -20.6678 -20.6677 -20.6676 -20.6676 -20.6674 -20.6673
   -20.6636 -20.6631 -20.6628 -20.6626 -20.6625 -20.6624 -20.6620 -20.6620
   -20.6615 -20.6614 -20.6609 -20.6603 -20.6592 -20.6591 -20.6583 -20.6581
   -20.6573 -20.6572 -20.6566 -20.6565 -20.6549 -20.6548 -20.6542 -20.6542
   -10.1209  -9.9602  -9.7672  -9.7327  -9.6212  -9.5857  -9.3238  -9.3094
    -9.2598  -9.1384  -9.1370  -9.1254  -8.4964  -8.4806  -8.4634  -8.4563
    -8.0867  -8.0644  -8.0413  -8.0175  -8.0127  -8.0027  -7.9889  -7.9827
     0.8304   0.8319   0.9315   0.9408   0.9729   0.9850   1.1115   1.1553
     1.8912   1.9813   1.9837   2.0974   2.2430   2.2995   2.5286   2.5813
     2.6423   2.6874   3.4257   3.5176   3.5550   3.6225   3.8138   4.0566
     4.1312   4.2601   4.2774   4.2838   4.2976   4.3997   4.5649   4.6034
     4.6324   4.7148   4.8364   4.8946   5.0678   5.1372   5.4336   5.4662
     5.5177   5.5415   5.6464   5.7611   5.7798   5.7903   5.8359   5.8687
     5.9563   5.9905   6.0983   6.1334   6.1713   6.2353   6.3643   6.4059
     6.5129   6.6066   6.7585   6.7635   6.7804   6.7858   6.8164   6.8436
     6.8803   6.9101   7.6333   7.6475   7.6617   7.6871   7.7937   7.7959
     9.1063   9.1387  10.0255  10.0396  10.1215  10.1703  11.6193  11.6227
    11.7014  11.7351  12.1951  12.2496  12.3295  12.3346  12.4846  12.5343
    12.5528  12.6327  13.1132  13.1534  13.2284  13.2571  13.2708  13.3448
    14.4025  14.4317  14.8235  14.8572  14.9036  15.3707  15.3800  15.4291
    15.9102  16.9045  17.0260  17.1122  17.4684

          k = 0.0000 0.0000-0.4990 ( 63710 PWs)   bands (ev):

   -66.5303 -66.5303 -66.5297 -66.5297 -66.5296 -66.5296 -66.5290 -66.5290
   -30.8904 -30.8903 -30.8806 -30.8805 -30.8771 -30.8771 -30.8737 -30.8737
   -30.8361 -30.8360 -30.8327 -30.8326 -30.8290 -30.8290 -30.8264 -30.8264
   -30.8052 -30.8052 -30.7993 -30.7992 -30.7923 -30.7923 -30.7831 -30.7831
   -20.6973 -20.6973 -20.6972 -20.6972 -20.6972 -20.6972 -20.6971 -20.6971
   -20.6753 -20.6753 -20.6747 -20.6746 -20.6746 -20.6746 -20.6741 -20.6741
   -20.6700 -20.6700 -20.6696 -20.6696 -20.6695 -20.6695 -20.6689 -20.6688
   -20.6687 -20.6687 -20.6677 -20.6677 -20.6675 -20.6675 -20.6675 -20.6674
   -20.6629 -20.6629 -20.6626 -20.6625 -20.6624 -20.6624 -20.6613 -20.6612
   -20.6608 -20.6608 -20.6606 -20.6606 -20.6599 -20.6599 -20.6596 -20.6596
   -20.6570 -20.6569 -20.6569 -20.6569 -20.6546 -20.6546 -20.6545 -20.6545
   -10.0259 -10.0258  -9.6733  -9.6733  -9.6368  -9.6368  -9.3166  -9.3166
    -8.8844  -8.8844  -8.8547  -8.8547  -8.8474  -8.8474  -8.8383  -8.8382
    -8.0763  -8.0763  -8.0295  -8.0295  -8.0009  -8.0009  -7.9931  -7.9930
     0.8306   0.8306   0.9397   0.9398   0.9822   0.9822   1.1458   1.1458
     2.2674   2.2675   2.8052   2.8053   2.8514   2.8514   2.8709   2.8709
     2.8891   2.8891   2.9517   2.9517   3.2149   3.2149   3.3006   3.3006
     3.3567   3.3567   4.2601   4.2601   4.2770   4.2770   4.7077   4.7077
     4.7672   4.7672   4.8148   4.8148   4.9104   4.9105   5.5726   5.5726
     5.5976   5.5976   5.6355   5.6355   5.7379   5.7379   5.8876   5.8877
     5.9046   5.9047   5.9246   5.9246   6.2188   6.2188   6.2242   6.2242
     6.5326   6.5326   6.7737   6.7738   6.7800   6.7800   7.2877   7.2877
     7.3038   7.3038   7.3272   7.3272   7.3502   7.3502   7.7958   7.7958
     9.1232   9.1233  10.8631  10.8631  10.8680  10.8680  10.9466  10.9466
    10.9829  10.9829  12.2426  12.2426  12.3280  12.3281  12.7779  12.7780
    12.8345  12.8345  12.8464  12.8464  12.8880  12.8880  13.2755  13.2756
    14.4210  14.4211  15.1767  15.1768  15.2421  15.2421  15.3372  15.3372
    16.3123  16.3123  17.6320  17.6321  17.7625

          k = 0.0000 0.1655 0.0000 ( 63618 PWs)   bands (ev):

   -66.5306 -66.5300 -66.5299 -66.5299 -66.5294 -66.5293 -66.5292 -66.5287
   -30.8897 -30.8852 -30.8828 -30.8804 -30.8795 -30.8749 -30.8729 -30.8727
   -30.8725 -30.8680 -30.8654 -30.8623 -30.8114 -30.8087 -30.8087 -30.8072
   -30.7957 -30.7949 -30.7947 -30.7883 -30.7879 -30.7874 -30.7808 -30.7778
   -20.6974 -20.6974 -20.6973 -20.6973 -20.6972 -20.6971 -20.6971 -20.6970
   -20.6755 -20.6750 -20.6750 -20.6748 -20.6745 -20.6743 -20.6742 -20.6737
   -20.6703 -20.6701 -20.6697 -20.6694 -20.6693 -20.6692 -20.6688 -20.6685
   -20.6683 -20.6681 -20.6679 -20.6679 -20.6678 -20.6676 -20.6673 -20.6671
   -20.6650 -20.6642 -20.6641 -20.6632 -20.6628 -20.6627 -20.6624 -20.6623
   -20.6623 -20.6621 -20.6610 -20.6608 -20.6576 -20.6576 -20.6575 -20.6575
   -20.6566 -20.6564 -20.6563 -20.6561 -20.6553 -20.6552 -20.6539 -20.6538
   -10.2189  -9.9427  -9.8660  -9.8580  -9.6091  -9.5963  -9.4683  -9.3494
    -9.3236  -9.2777  -9.2611  -9.2609  -8.2078  -8.1577  -8.1459  -8.1076
    -8.0736  -8.0633  -8.0218  -8.0214  -8.0108  -8.0022  -7.9803  -7.9650
     0.7829   0.7947   0.8651   0.8893   0.9010   0.9416   0.9630   1.1034
     1.2400   1.3313   1.3635   1.5191   2.2193   2.2864   2.3324   2.3460
     2.4021   2.4634   3.8781   3.8839   3.9701   3.9703   4.2613   4.2838
     4.2935   4.3055   4.3201   4.4305   4.4452   4.4591   4.7588   4.9387
     4.9663   5.0064   5.1121   5.2978   5.3142   5.3352   5.3454   5.3726
     5.4085   5.5159   5.5293   5.7588   5.7717   5.7824   5.8646   5.8733
     5.9358   6.0417   6.1364   6.1400   6.1869   6.4264   6.5269   6.5423
     6.6087   6.6352   6.6789   6.7054   6.7072   6.7387   6.7926   6.8016
     6.8079   6.8182   7.7347   7.7430   7.8568   7.8661   7.8920   7.9041
     8.9409   8.9878   9.3527   9.3948   9.4191   9.4589  11.9631  12.0824
    12.1035  12.1549  12.2661  12.2759  12.3283  12.3285  12.3325  12.4887
    12.4972  12.5578  13.1461  13.2904  13.4444  13.5776  13.5927  13.6101
    14.3395  14.3456  14.3534  14.4832  14.5580  14.6304  15.4151  15.5162
    15.9056  16.4011  16.8470  16.9239  17.0019

          k = 0.0000 0.1655 0.1663 ( 63635 PWs)   bands (ev):

   -66.5305 -66.5300 -66.5300 -66.5298 -66.5294 -66.5293 -66.5293 -66.5287
   -30.8894 -30.8855 -30.8811 -30.8787 -30.8778 -30.8752 -30.8732 -30.8689
   -30.8684 -30.8670 -30.8610 -30.8588 -30.8112 -30.8102 -30.8091 -30.8070
   -30.7987 -30.7981 -30.7944 -30.7933 -30.7923 -30.7871 -30.7844 -30.7797
   -20.6974 -20.6973 -20.6973 -20.6972 -20.6972 -20.6971 -20.6971 -20.6970
   -20.6755 -20.6751 -20.6750 -20.6748 -20.6745 -20.6744 -20.6743 -20.6738
   -20.6703 -20.6700 -20.6697 -20.6694 -20.6693 -20.6692 -20.6688 -20.6686
   -20.6684 -20.6682 -20.6679 -20.6678 -20.6677 -20.6676 -20.6673 -20.6672
   -20.6646 -20.6639 -20.6637 -20.6629 -20.6627 -20.6626 -20.6624 -20.6623
   -20.6622 -20.6621 -20.6610 -20.6607 -20.6581 -20.6579 -20.6575 -20.6574
   -20.6571 -20.6568 -20.6564 -20.6562 -20.6552 -20.6551 -20.6540 -20.6539
   -10.1767  -9.8914  -9.8772  -9.7987  -9.6042  -9.5203  -9.4755  -9.3148
    -9.2844  -9.2633  -9.2622  -9.2300  -8.2201  -8.1833  -8.1736  -8.1548
    -8.1346  -8.1338  -8.1119  -8.0753  -8.0648  -8.0248  -8.0239  -7.9836
     0.8751   0.8815   0.9001   0.9414   1.0695   1.0875   1.1601   1.2408
     1.2840   1.3622   1.4007   1.5940   2.3011   2.3019   2.3891   2.4103
     2.4287   2.5438   3.8846   3.8933   3.9479   3.9527   4.0390   4.0534
     4.1625   4.2120   4.2777   4.3469   4.3534   4.4285   4.7381   4.7862
     4.9334   4.9579   5.0523   5.0560   5.1168   5.2971   5.2995   5.3861
     5.3999   5.5548   5.5588   5.7101   5.7630   5.7743   5.8452   5.9160
     5.9557   6.1231   6.1566   6.2877   6.3432   6.3995   6.4572   6.5139
     6.5789   6.5897   6.6276   6.6372   6.6577   6.6632   6.6832   6.7130
     6.7433   6.7480   7.7364   7.7446   7.8012   7.8122   7.8336   7.8474
     9.2663   9.3174   9.4053   9.4622   9.6079   9.6698  12.0145  12.0820
    12.1394  12.1429  12.1506  12.1666  12.2798  12.3083  12.3228  12.3679
    12.3900  12.5069  13.1668  13.2900  13.3666  13.4464  13.5103  13.5448
    14.4823  14.4922  14.5288  14.6114  14.6458  14.7486  15.4884  15.8318
    15.8775  16.5519  16.6333  16.9283  17.0810

          k = 0.0000 0.1655 0.3327 ( 63679 PWs)   bands (ev):

   -66.5304 -66.5301 -66.5299 -66.5297 -66.5296 -66.5294 -66.5292 -66.5289
   -30.8886 -30.8863 -30.8790 -30.8770 -30.8761 -30.8748 -30.8732 -30.8694
   -30.8555 -30.8524 -30.8483 -30.8459 -30.8185 -30.8147 -30.8102 -30.8096
   -30.8072 -30.8071 -30.8057 -30.8000 -30.7935 -30.7895 -30.7862 -30.7826
   -20.6974 -20.6973 -20.6973 -20.6972 -20.6972 -20.6971 -20.6971 -20.6971
   -20.6754 -20.6751 -20.6749 -20.6747 -20.6745 -20.6744 -20.6743 -20.6739
   -20.6701 -20.6698 -20.6696 -20.6695 -20.6694 -20.6691 -20.6689 -20.6685
   -20.6685 -20.6682 -20.6678 -20.6676 -20.6676 -20.6676 -20.6674 -20.6672
   -20.6638 -20.6634 -20.6628 -20.6627 -20.6625 -20.6624 -20.6623 -20.6620
   -20.6617 -20.6615 -20.6611 -20.6605 -20.6592 -20.6591 -20.6583 -20.6582
   -20.6573 -20.6572 -20.6566 -20.6565 -20.6549 -20.6548 -20.6542 -20.6542
   -10.0780  -9.9132  -9.7783  -9.6647  -9.6300  -9.5002  -9.2863  -9.2685
    -9.2671  -9.1396  -9.1279  -9.1060  -8.4935  -8.4887  -8.4656  -8.4604
    -8.1841  -8.1642  -8.1282  -8.1085  -8.0587  -8.0341  -8.0163  -7.9925
     0.8961   0.8991   0.9318   0.9412   1.2205   1.2379   1.3038   1.3584
     1.8920   1.9838   1.9864   2.1105   2.3222   2.3768   2.5373   2.6363
     2.6681   2.7719   3.4359   3.5474   3.5650   3.6885   3.7701   3.9497
     3.9877   4.0397   4.1658   4.2268   4.2573   4.3803   4.3888   4.4971
     4.6266   4.6594   4.7128   4.8088   4.8697   5.1459   5.1644   5.3914
     5.4192   5.5343   5.6254   5.6720   5.7360   5.7542   5.8129   5.8318
     5.9944   6.0990   6.1140   6.1696   6.2284   6.3788   6.3982   6.5436
     6.5912   6.5940   6.6222   6.6486   6.6508   6.7076   6.8354   6.8462
     6.9149   6.9288   7.6215   7.6377   7.6380   7.6503   7.7471   7.7587
     9.4065   9.4381  10.0310  10.0449  10.2384  10.2906  11.6204  11.6263
    11.7454  11.7854  12.1555  12.1645  12.1684  12.2962  12.3374  12.4313
    12.5530  12.6099  13.0352  13.0900  13.1176  13.2284  13.2882  13.3566
    14.5114  14.5387  14.8949  15.0080  15.1683  15.4009  15.4594  15.7813
    16.0478  16.8782  16.9690  17.1150  17.1842

          k = 0.0000 0.1655-0.4990 ( 63700 PWs)   bands (ev):

   -66.5303 -66.5302 -66.5297 -66.5297 -66.5296 -66.5296 -66.5290 -66.5290
   -30.8874 -30.8874 -30.8774 -30.8774 -30.8756 -30.8755 -30.8711 -30.8711
   -30.8362 -30.8361 -30.8327 -30.8327 -30.8292 -30.8291 -30.8265 -30.8265
   -30.8091 -30.8091 -30.8041 -30.8041 -30.7920 -30.7920 -30.7847 -30.7847
   -20.6973 -20.6973 -20.6972 -20.6972 -20.6972 -20.6972 -20.6971 -20.6971
   -20.6753 -20.6752 -20.6747 -20.6747 -20.6745 -20.6745 -20.6741 -20.6741
   -20.6699 -20.6699 -20.6696 -20.6696 -20.6693 -20.6692 -20.6688 -20.6688
   -20.6684 -20.6683 -20.6677 -20.6677 -20.6675 -20.6675 -20.6674 -20.6673
   -20.6632 -20.6632 -20.6628 -20.6628 -20.6625 -20.6625 -20.6614 -20.6614
   -20.6609 -20.6608 -20.6607 -20.6607 -20.6599 -20.6599 -20.6597 -20.6597
   -20.6570 -20.6569 -20.6569 -20.6569 -20.6546 -20.6546 -20.6545 -20.6545
    -9.9799  -9.9799  -9.6832  -9.6832  -9.5553  -9.5553  -9.2764  -9.2764
    -8.8924  -8.8924  -8.8518  -8.8518  -8.8499  -8.8499  -8.8320  -8.8319
    -8.1755  -8.1754  -8.1193  -8.1193  -8.0466  -8.0466  -8.0045  -8.0045
     0.8984   0.8985   0.9401   0.9401   1.2365   1.2366   1.3479   1.3480
     2.3455   2.3455   2.8185   2.8185   2.8570   2.8570   2.8671   2.8671
     2.8872   2.8872   3.0091   3.0091   3.2071   3.2071   3.3538   3.3538
     3.3974   3.3974   4.0112   4.0112   4.1976   4.1976   4.5141   4.5141
     4.6088   4.6088   4.7470   4.7471   4.9153   4.9153   5.2747   5.2747
     5.4949   5.4949   5.5445   5.5445   5.7585   5.7585   5.8562   5.8562
     5.9941   5.9941   6.0553   6.0553   6.2191   6.2191   6.4525   6.4525
     6.6204   6.6204   6.6409   6.6409   6.6467   6.6467   7.2971   7.2971
     7.2980   7.2980   7.3199   7.3199   7.3374   7.3374   7.7517   7.7517
     9.4237   9.4238  10.8655  10.8656  10.8705  10.8705  11.0184  11.0184
    11.0585  11.0585  12.1544  12.1545  12.2794  12.2795  12.6423  12.6423
    12.6875  12.6875  12.8348  12.8349  12.8735  12.8735  13.2923  13.2923
    14.5286  14.5286  15.2209  15.2210  15.4680  15.4680  15.5797  15.5798
    16.4090  16.4090  17.3719  17.3719  17.5069

          k = 0.0000 0.3310 0.0000 ( 63672 PWs)   bands (ev):

   -66.5305 -66.5301 -66.5298 -66.5298 -66.5295 -66.5295 -66.5291 -66.5288
   -30.8855 -30.8831 -30.8805 -30.8767 -30.8760 -30.8731 -30.8723 -30.8719
   -30.8594 -30.8592 -30.8574 -30.8553 -30.8239 -30.8226 -30.8214 -30.8203
   -30.7954 -30.7950 -30.7938 -30.7902 -30.7891 -30.7885 -30.7808 -30.7795
   -20.6974 -20.6974 -20.6973 -20.6973 -20.6971 -20.6971 -20.6970 -20.6970
   -20.6754 -20.6751 -20.6749 -20.6748 -20.6746 -20.6745 -20.6741 -20.6738
   -20.6701 -20.6700 -20.6693 -20.6693 -20.6691 -20.6691 -20.6682 -20.6681
   -20.6679 -20.6679 -20.6677 -20.6676 -20.6675 -20.6673 -20.6670 -20.6665
   -20.6654 -20.6648 -20.6641 -20.6636 -20.6636 -20.6632 -20.6632 -20.6629
   -20.6622 -20.6622 -20.6616 -20.6614 -20.6576 -20.6576 -20.6575 -20.6575
   -20.6566 -20.6564 -20.6562 -20.6561 -20.6552 -20.6552 -20.6539 -20.6539
   -10.1314  -9.9783  -9.7628  -9.7595  -9.6321  -9.6222  -9.3439  -9.3291
    -9.2229  -9.1140  -9.1128  -9.1090  -8.5009  -8.4672  -8.4566  -8.4382
    -8.0733  -8.0612  -8.0263  -8.0188  -8.0149  -7.9952  -7.9897  -7.9750
     0.7849   0.7917   0.8906   0.8916   0.9376   0.9430   1.0714   1.1029
     1.9247   2.0083   2.0512   2.1417   2.2415   2.2948   2.5350   2.6121
     2.6287   2.7215   3.3646   3.4103   3.4515   3.5190   3.8370   4.1275
     4.1995   4.2649   4.2812   4.3025   4.3347   4.4449   4.5811   4.6476
     4.6615   4.7175   4.8999   4.9061   5.1643   5.1727   5.3982   5.4111
     5.5644   5.6592   5.6770   5.7651   5.7851   5.7971   5.8042   5.8802
     5.8855   5.9719   6.0665   6.1240   6.1834   6.2319   6.4017   6.4917
     6.5051   6.6601   6.7746   6.7940   6.8017   6.8081   6.8372   6.8407
     6.8763   6.8807   7.5699   7.5815   7.6436   7.6603   7.8940   7.9014
     8.9565   8.9843   9.9861  10.0472  10.0930  10.1380  11.4836  11.5551
    11.6246  11.6537  12.3005  12.3272  12.3325  12.3366  12.4239  12.5802
    12.6359  12.6812  12.9799  13.1256  13.2236  13.2837  13.5355  13.5727
    14.3383  14.3535  14.8067  14.8184  14.9117  15.3229  15.3343  15.4188
    15.8421  16.9309  16.9382  17.5010  17.5783

          k = 0.0000 0.3310 0.1663 ( 63680 PWs)   bands (ev):

   -66.5304 -66.5301 -66.5299 -66.5297 -66.5296 -66.5294 -66.5292 -66.5289
   -30.8850 -30.8817 -30.8808 -30.8763 -30.8729 -30.8689 -30.8688 -30.8665
   -30.8593 -30.8584 -30.8567 -30.8536 -30.8237 -30.8225 -30.8220 -30.8204
   -30.7985 -30.7981 -30.7941 -30.7938 -30.7934 -30.7898 -30.7841 -30.7819
   -20.6974 -20.6973 -20.6973 -20.6972 -20.6972 -20.6971 -20.6971 -20.6970
   -20.6754 -20.6751 -20.6749 -20.6747 -20.6746 -20.6745 -20.6741 -20.6739
   -20.6701 -20.6700 -20.6693 -20.6692 -20.6692 -20.6691 -20.6683 -20.6682
   -20.6679 -20.6678 -20.6677 -20.6676 -20.6675 -20.6672 -20.6670 -20.6665
   -20.6651 -20.6647 -20.6637 -20.6636 -20.6636 -20.6630 -20.6629 -20.6627
   -20.6622 -20.6621 -20.6616 -20.6613 -20.6580 -20.6579 -20.6575 -20.6575
   -20.6570 -20.6569 -20.6563 -20.6563 -20.6552 -20.6551 -20.6540 -20.6539
   -10.0853  -9.9275  -9.7731  -9.6859  -9.6307  -9.5439  -9.3054  -9.2899
    -9.2303  -9.1155  -9.1065  -9.0927  -8.5012  -8.4736  -8.4550  -8.4448
    -8.1761  -8.1546  -8.1277  -8.1065  -8.0579  -8.0334  -8.0183  -7.9931
     0.8829   0.8859   0.9371   0.9427   1.1546   1.1625   1.2434   1.2837
     1.9266   2.0114   2.0504   2.1528   2.3223   2.3739   2.5410   2.6236
     2.6944   2.8027   3.4084   3.4521   3.4722   3.5112   3.8233   3.9982
     4.0305   4.1424   4.2080   4.2327   4.3400   4.3850   4.4010   4.4587
     4.6426   4.7054   4.7462   4.8778   4.9230   5.0984   5.1786   5.3662
     5.4053   5.5191   5.6268   5.7027   5.7255   5.7389   5.8026   5.8203
     6.0101   6.1457   6.1496   6.1748   6.2678   6.3988   6.4077   6.5556
     6.6001   6.6272   6.6331   6.6365   6.6532   6.7111   6.8222   6.8473
     6.8970   6.9124   7.5724   7.5787   7.6114   7.6222   7.8357   7.8444
     9.2887   9.3139  10.0983  10.1356  10.1505  10.2120  11.5563  11.6255
    11.6309  11.6517  12.1508  12.1566  12.3410  12.3800  12.4488  12.4521
    12.4907  12.5856  13.0058  13.0744  13.1239  13.1262  13.4891  13.5253
    14.4853  14.4891  14.8768  14.9916  15.1732  15.3883  15.4116  15.7513
    15.9870  16.8891  17.0360  17.0381  17.1478

          k = 0.0000 0.3310 0.3327 ( 63704 PWs)   bands (ev):

   -66.5303 -66.5300 -66.5300 -66.5297 -66.5296 -66.5293 -66.5293 -66.5290
   -30.8840 -30.8817 -30.8799 -30.8771 -30.8658 -30.8640 -30.8600 -30.8592
   -30.8555 -30.8521 -30.8473 -30.8448 -30.8258 -30.8236 -30.8222 -30.8198
   -30.8101 -30.8100 -30.8076 -30.8063 -30.7925 -30.7889 -30.7887 -30.7853
   -20.6973 -20.6973 -20.6972 -20.6972 -20.6972 -20.6971 -20.6971 -20.6971
   -20.6753 -20.6750 -20.6750 -20.6746 -20.6746 -20.6744 -20.6743 -20.6740
   -20.6699 -20.6698 -20.6695 -20.6693 -20.6690 -20.6690 -20.6685 -20.6684
   -20.6678 -20.6677 -20.6676 -20.6675 -20.6675 -20.6672 -20.6669 -20.6666
   -20.6645 -20.6643 -20.6637 -20.6637 -20.6627 -20.6623 -20.6623 -20.6623
   -20.6621 -20.6616 -20.6614 -20.6610 -20.6593 -20.6592 -20.6583 -20.6582
   -20.6573 -20.6572 -20.6566 -20.6566 -20.6549 -20.6549 -20.6542 -20.6542
    -9.9781  -9.8137  -9.8079  -9.6584  -9.4999  -9.2932  -9.2576  -9.2000
    -9.1472  -9.1238  -9.0567  -9.0206  -8.5696  -8.5434  -8.4851  -8.4720
    -8.4515  -8.4468  -8.4039  -8.3623  -8.0523  -8.0276  -8.0261  -8.0021
     0.9283   0.9326   0.9363   0.9423   1.7666   1.8114   1.8932   1.9312
     1.9818   2.0467   2.1221   2.2817   2.5438   2.5565   2.5804   2.6471
     2.9315   3.0245   3.3937   3.4829   3.4876   3.5300   3.5646   3.5864
     3.7705   3.8023   3.8867   3.9578   4.0854   4.2180   4.2357   4.3320
     4.4259   4.5237   4.5829   4.6383   4.6603   4.7770   4.8295   4.9907
     5.0687   5.2224   5.2456   5.6055   5.8127   5.8226   5.8429   5.9041
     6.0976   6.1386   6.1695   6.2702   6.2785   6.3759   6.3830   6.3926
     6.5760   6.7559   6.7890   6.7914   6.8008   6.8636   6.8727   6.9233
     6.9445   7.0314   7.4946   7.4979   7.5388   7.5853   7.6516   7.6826
     9.9834  10.0422  10.1195  10.1561  10.6117  10.6726  11.5932  11.6184
    11.6217  11.6880  11.7967  11.8673  11.9533  11.9890  12.4200  12.4829
    12.5459  12.6403  12.6909  12.7364  13.0106  13.1210  13.2294  13.2902
    14.6909  14.8568  14.8651  15.3105  15.4677  15.8722  15.9182  16.4083
    16.4348  16.7775  16.8011  17.3132  17.3434

          k = 0.0000 0.3310-0.4990 ( 63718 PWs)   bands (ev):

   -66.5302 -66.5301 -66.5298 -66.5298 -66.5295 -66.5294 -66.5292 -66.5291
   -30.8828 -30.8828 -30.8784 -30.8784 -30.8624 -30.8624 -30.8606 -30.8605
   -30.8375 -30.8375 -30.8337 -30.8337 -30.8294 -30.8293 -30.8267 -30.8267
   -30.8202 -30.8201 -30.8162 -30.8162 -30.7911 -30.7911 -30.7875 -30.7875
   -20.6973 -20.6973 -20.6973 -20.6972 -20.6972 -20.6971 -20.6971 -20.6971
   -20.6751 -20.6751 -20.6748 -20.6748 -20.6745 -20.6744 -20.6742 -20.6742
   -20.6697 -20.6697 -20.6696 -20.6695 -20.6688 -20.6687 -20.6687 -20.6687
   -20.6678 -20.6677 -20.6676 -20.6676 -20.6673 -20.6673 -20.6667 -20.6667
   -20.6642 -20.6642 -20.6638 -20.6638 -20.6624 -20.6623 -20.6618 -20.6617
   -20.6609 -20.6609 -20.6608 -20.6608 -20.6599 -20.6599 -20.6599 -20.6598
   -20.6570 -20.6569 -20.6569 -20.6569 -20.6546 -20.6546 -20.6545 -20.6545
    -9.8748  -9.8748  -9.7151  -9.7151  -9.3309  -9.3309  -9.1410  -9.1410
    -8.9263  -8.9263  -8.8685  -8.8685  -8.8319  -8.8318  -8.8063  -8.8063
    -8.4655  -8.4655  -8.4246  -8.4246  -8.0402  -8.0401  -8.0142  -8.0142
     0.9350   0.9350   0.9410   0.9410   1.9185   1.9185   2.0243   2.0243
     2.5664   2.5665   2.8384   2.8384   2.8537   2.8537   2.8804   2.8804
     2.8867   2.8867   3.1252   3.1252   3.1775   3.1775   3.4598   3.4598
     3.5599   3.5599   3.6093   3.6093   3.7378   3.7378   3.9714   3.9714
     4.5021   4.5021   4.6566   4.6566   4.7030   4.7030   4.7309   4.7309
     4.9870   4.9871   5.3943   5.3943   5.8735   5.8735   5.8866   5.8866
     6.1055   6.1055   6.1550   6.1550   6.2216   6.2216   6.3741   6.3741
     6.7448   6.7448   6.8280   6.8280   6.8907   6.8908   7.2470   7.2471
     7.2713   7.2713   7.2714   7.2714   7.3432   7.3432   7.6001   7.6001
    10.1081  10.1081  10.8677  10.8677  10.8739  10.8740  11.2595  11.2595
    11.3158  11.3158  11.6618  11.6618  12.1698  12.1698  12.2546  12.2547
    12.5083  12.5084  12.8144  12.8144  12.8837  12.8837  13.1401  13.1401
    14.8023  14.8023  15.1522  15.1522  15.9085  15.9085  16.5189  16.5189
    16.7638  16.7638  16.8949  16.8950  17.5849

          k = 0.0000-0.4965 0.0000 ( 63742 PWs)   bands (ev):

   -66.5303 -66.5303 -66.5297 -66.5297 -66.5296 -66.5296 -66.5290 -66.5290
   -30.8838 -30.8838 -30.8777 -30.8777 -30.8740 -30.8740 -30.8713 -30.8713
   -30.8422 -30.8421 -30.8413 -30.8413 -30.8398 -30.8398 -30.8387 -30.8386
   -30.7951 -30.7951 -30.7923 -30.7923 -30.7891 -30.7890 -30.7805 -30.7805
   -20.6974 -20.6974 -20.6973 -20.6973 -20.6971 -20.6971 -20.6970 -20.6970
   -20.6753 -20.6752 -20.6747 -20.6747 -20.6746 -20.6746 -20.6740 -20.6739
   -20.6700 -20.6700 -20.6692 -20.6692 -20.6691 -20.6691 -20.6681 -20.6680
   -20.6679 -20.6679 -20.6676 -20.6675 -20.6665 -20.6664 -20.6661 -20.6661
   -20.6653 -20.6653 -20.6650 -20.6650 -20.6639 -20.6639 -20.6631 -20.6631
   -20.6620 -20.6620 -20.6619 -20.6618 -20.6576 -20.6576 -20.6575 -20.6575
   -20.6565 -20.6565 -20.6562 -20.6562 -20.6552 -20.6552 -20.6539 -20.6539
   -10.0420 -10.0420  -9.6787  -9.6787  -9.6736  -9.6736  -9.3365  -9.3365
    -8.8666  -8.8665  -8.8292  -8.8291  -8.8254  -8.8253  -8.8210  -8.8209
    -8.0649  -8.0649  -8.0256  -8.0256  -8.0025  -8.0025  -7.9854  -7.9854
     0.7880   0.7881   0.8937   0.8937   0.9436   0.9436   1.0976   1.0976
     2.2666   2.2666   2.7518   2.7518   2.8318   2.8319   2.8750   2.8751
     2.9181   2.9181   2.9570   2.9570   3.2359   3.2360   3.2693   3.2693
     3.3797   3.3797   4.2837   4.2837   4.2915   4.2915   4.7553   4.7554
     4.8003   4.8003   4.8981   4.8982   4.9535   4.9536   5.5429   5.5429
     5.5645   5.5645   5.7027   5.7028   5.7561   5.7561   5.8252   5.8252
     5.9161   5.9161   5.9798   5.9798   6.2258   6.2259   6.2926   6.2926
     6.5762   6.5762   6.7938   6.7939   6.8077   6.8077   7.2542   7.2542
     7.2604   7.2604   7.2969   7.2969   7.3025   7.3026   7.8975   7.8975
     8.9721   8.9721  10.7583  10.7583  10.8030  10.8030  10.9035  10.9035
    10.9517  10.9517  12.3193  12.3194  12.3360  12.3361  12.6819  12.6819
    12.8209  12.8209  12.8989  12.8989  12.9432  12.9433  13.5432  13.5432
    14.3416  14.3416  15.1506  15.1506  15.2311  15.2311  15.2827  15.2828
    16.2319  16.2319  17.4419  17.4420  17.6736

          k = 0.0000-0.4965 0.1663 ( 63708 PWs)   bands (ev):

   -66.5303 -66.5302 -66.5297 -66.5297 -66.5296 -66.5296 -66.5290 -66.5290
   -30.8829 -30.8828 -30.8780 -30.8780 -30.8696 -30.8696 -30.8662 -30.8662
   -30.8418 -30.8418 -30.8410 -30.8410 -30.8401 -30.8401 -30.8385 -30.8385
   -30.7982 -30.7982 -30.7943 -30.7943 -30.7920 -30.7919 -30.7834 -30.7834
   -20.6974 -20.6974 -20.6973 -20.6972 -20.6971 -20.6971 -20.6971 -20.6970
   -20.6752 -20.6752 -20.6747 -20.6747 -20.6746 -20.6746 -20.6740 -20.6740
   -20.6700 -20.6699 -20.6692 -20.6692 -20.6691 -20.6691 -20.6682 -20.6681
   -20.6679 -20.6679 -20.6676 -20.6675 -20.6663 -20.6663 -20.6660 -20.6659
   -20.6653 -20.6653 -20.6651 -20.6650 -20.6636 -20.6635 -20.6628 -20.6628
   -20.6620 -20.6620 -20.6618 -20.6618 -20.6580 -20.6580 -20.6575 -20.6575
   -20.6570 -20.6570 -20.6563 -20.6563 -20.6552 -20.6551 -20.6540 -20.6540
    -9.9926  -9.9926  -9.6833  -9.6833  -9.5936  -9.5936  -9.2974  -9.2974
    -8.8723  -8.8722  -8.8336  -8.8335  -8.8240  -8.8239  -8.8151  -8.8150
    -8.1662  -8.1662  -8.1179  -8.1179  -8.0461  -8.0461  -8.0059  -8.0059
     0.8850   0.8851   0.9433   0.9433   1.1639   1.1639   1.2775   1.2775
     2.3472   2.3472   2.7645   2.7646   2.8271   2.8271   2.8802   2.8802
     2.9466   2.9467   2.9863   2.9863   3.2286   3.2287   3.3203   3.3204
     3.4101   3.4101   4.0170   4.0170   4.3010   4.3010   4.5607   4.5607
     4.6607   4.6608   4.7727   4.7728   4.9500   4.9501   5.2255   5.2255
     5.4657   5.4657   5.5171   5.5171   5.7831   5.7831   5.8302   5.8302
     6.0273   6.0274   6.1484   6.1484   6.2261   6.2261   6.5144   6.5145
     6.6016   6.6016   6.6407   6.6407   6.6885   6.6885   7.2440   7.2440
     7.2707   7.2707   7.2856   7.2856   7.2963   7.2964   7.8399   7.8399
     9.3028   9.3028  10.8476  10.8477  10.8862  10.8862  10.9198  10.9198
    10.9742  10.9743  12.1548  12.1548  12.3691  12.3691  12.7075  12.7075
    12.7228  12.7228  12.7638  12.7638  12.8271  12.8271  13.4997  13.4997
    14.4858  14.4858  15.1953  15.1953  15.4367  15.4368  15.5611  15.5611
    16.3308  16.3308  17.3990  17.3990  17.7265

          k = 0.0000-0.4965 0.3327 ( 63698 PWs)   bands (ev):

   -66.5302 -66.5301 -66.5298 -66.5298 -66.5295 -66.5294 -66.5292 -66.5291
   -30.8814 -30.8814 -30.8789 -30.8788 -30.8573 -30.8573 -30.8533 -30.8533
   -30.8423 -30.8423 -30.8414 -30.8414 -30.8388 -30.8388 -30.8362 -30.8362
   -30.8105 -30.8105 -30.8079 -30.8079 -30.7911 -30.7910 -30.7874 -30.7874
   -20.6973 -20.6973 -20.6972 -20.6972 -20.6972 -20.6972 -20.6971 -20.6971
   -20.6751 -20.6751 -20.6748 -20.6748 -20.6745 -20.6745 -20.6741 -20.6741
   -20.6698 -20.6698 -20.6694 -20.6694 -20.6689 -20.6689 -20.6684 -20.6683
   -20.6678 -20.6678 -20.6676 -20.6676 -20.6660 -20.6660 -20.6657 -20.6657
   -20.6654 -20.6654 -20.6652 -20.6652 -20.6626 -20.6625 -20.6622 -20.6622
   -20.6620 -20.6620 -20.6613 -20.6613 -20.6592 -20.6592 -20.6583 -20.6582
   -20.6573 -20.6572 -20.6566 -20.6566 -20.6549 -20.6549 -20.6542 -20.6542
    -9.8797  -9.8797  -9.7145  -9.7145  -9.3579  -9.3579  -9.1616  -9.1616
    -8.9051  -8.9050  -8.8513  -8.8512  -8.8131  -8.8130  -8.7924  -8.7923
    -8.4696  -8.4696  -8.4339  -8.4338  -8.0395  -8.0394  -8.0151  -8.0150
     0.9331   0.9331   0.9426   0.9427   1.8869   1.8869   1.9653   1.9653
     2.5776   2.5776   2.7798   2.7799   2.8304   2.8305   2.8944   2.8944
     2.9383   2.9384   3.1094   3.1094   3.2012   3.2013   3.4654   3.4654
     3.5065   3.5065   3.5292   3.5292   3.9357   3.9357   4.1126   4.1126
     4.4477   4.4477   4.5689   4.5689   4.6962   4.6962   4.7535   4.7536
     5.0017   5.0017   5.3767   5.3767   5.8542   5.8542   5.8983   5.8983
     6.1320   6.1320   6.1599   6.1599   6.2605   6.2605   6.3683   6.3683
     6.7393   6.7394   6.8555   6.8556   6.9190   6.9191   7.2095   7.2095
     7.2283   7.2283   7.2656   7.2656   7.3038   7.3039   7.6611   7.6611
    10.0313  10.0313  10.9032  10.9033  10.9170  10.9170  11.1934  11.1934
    11.2519  11.2519  11.6370  11.6371  12.2632  12.2632  12.3109  12.3109
    12.5211  12.5212  12.7417  12.7417  12.8313  12.8313  13.2458  13.2458
    14.8033  14.8034  15.1390  15.1391  15.9001  15.9002  16.5102  16.5102
    16.7075  16.7076  16.9107  16.9108  17.5495

          k = 0.0000-0.4965-0.4990 ( 63656 PWs)   bands (ev):

   -66.5300 -66.5300 -66.5300 -66.5300 -66.5293 -66.5293 -66.5293 -66.5293
   -30.8801 -30.8801 -30.8801 -30.8800 -30.8463 -30.8463 -30.8463 -30.8462
   -30.8436 -30.8436 -30.8436 -30.8436 -30.8284 -30.8283 -30.8283 -30.8283
   -30.8254 -30.8254 -30.8254 -30.8254 -30.7896 -30.7896 -30.7896 -30.7896
   -20.6973 -20.6973 -20.6973 -20.6972 -20.6972 -20.6971 -20.6971 -20.6971
   -20.6750 -20.6749 -20.6749 -20.6749 -20.6743 -20.6743 -20.6743 -20.6743
   -20.6696 -20.6696 -20.6696 -20.6696 -20.6687 -20.6686 -20.6686 -20.6686
   -20.6677 -20.6677 -20.6677 -20.6677 -20.6658 -20.6658 -20.6657 -20.6657
   -20.6654 -20.6653 -20.6653 -20.6653 -20.6621 -20.6621 -20.6621 -20.6621
   -20.6609 -20.6609 -20.6609 -20.6608 -20.6599 -20.6599 -20.6599 -20.6599
   -20.6570 -20.6569 -20.6569 -20.6569 -20.6546 -20.6546 -20.6546 -20.6545
    -9.7768  -9.7768  -9.7768  -9.7768  -9.0572  -9.0572  -9.0572  -9.0571
    -8.9405  -8.9405  -8.9405  -8.9405  -8.7499  -8.7499  -8.7498  -8.7498
    -8.7096  -8.7096  -8.7096  -8.7095  -8.0274  -8.0274  -8.0274  -8.0274
     0.9412   0.9412   0.9412   0.9412   2.7013   2.7013   2.7013   2.7013
     2.7658   2.7659   2.7659   2.7659   2.8809   2.8809   2.8809   2.8810
     2.9908   2.9908   2.9909   2.9909   3.1674   3.1674   3.1674   3.1674
     3.3035   3.3035   3.3035   3.3035   3.9125   3.9126   3.9126   3.9126
     3.9913   3.9913   3.9913   3.9913   4.7012   4.7012   4.7013   4.7013
     5.1555   5.1555   5.1555   5.1555   5.9102   5.9102   5.9102   5.9102
     6.1384   6.1384   6.1384   6.1384   6.2241   6.2241   6.2241   6.2241
     7.0757   7.0757   7.0757   7.0757   7.1007   7.1007   7.1007   7.1007
     7.1732   7.1732   7.1732   7.1732   7.4082   7.4082   7.4083   7.4083
    10.8102  10.8102  10.8102  10.8102  10.9727  10.9727  10.9727  10.9727
    11.6954  11.6954  11.6954  11.6955  11.7497  11.7497  11.7497  11.7497
    12.7006  12.7006  12.7006  12.7006  12.9397  12.9397  12.9397  12.9397
    15.0205  15.0205  15.0205  15.0205  16.4138  16.4138  16.4138  16.4138
    17.4068  17.4068  17.4068  17.4068  17.5061

          k = 0.1667 0.0000 0.0000 ( 63633 PWs)   bands (ev):

   -66.5306 -66.5300 -66.5299 -66.5299 -66.5294 -66.5293 -66.5293 -66.5287
   -30.8909 -30.8862 -30.8842 -30.8802 -30.8789 -30.8784 -30.8731 -30.8695
   -30.8694 -30.8667 -30.8664 -30.8615 -30.8098 -30.8062 -30.8044 -30.8019
   -30.8005 -30.8004 -30.7971 -30.7892 -30.7874 -30.7868 -30.7819 -30.7787
   -20.6974 -20.6974 -20.6973 -20.6973 -20.6972 -20.6971 -20.6971 -20.6970
   -20.6755 -20.6750 -20.6750 -20.6749 -20.6745 -20.6743 -20.6743 -20.6737
   -20.6704 -20.6701 -20.6700 -20.6695 -20.6692 -20.6691 -20.6690 -20.6689
   -20.6685 -20.6684 -20.6681 -20.6675 -20.6674 -20.6673 -20.6671 -20.6670
   -20.6648 -20.6641 -20.6641 -20.6634 -20.6630 -20.6628 -20.6626 -20.6624
   -20.6618 -20.6616 -20.6608 -20.6606 -20.6576 -20.6575 -20.6574 -20.6573
   -20.6567 -20.6564 -20.6562 -20.6560 -20.6555 -20.6554 -20.6542 -20.6541
   -10.2154  -9.9155  -9.8825  -9.8607  -9.6098  -9.5628  -9.5005  -9.3385
    -9.3058  -9.2903  -9.2809  -9.2646  -8.2134  -8.1624  -8.1568  -8.1182
    -8.0711  -8.0518  -8.0324  -8.0200  -8.0084  -8.0011  -7.9758  -7.9572
     0.8163   0.8176   0.8469   0.8885   0.9289   0.9551   0.9874   1.1169
     1.2036   1.3125   1.3354   1.5063   2.2647   2.2941   2.2981   2.3714
     2.4077   2.4115   3.9275   3.9654   4.0414   4.0657   4.0976   4.2052
     4.2568   4.3103   4.3293   4.3854   4.3911   4.4702   4.8419   4.8710
     4.9546   5.0544   5.0766   5.2755   5.3124   5.3141   5.3567   5.3838
     5.3870   5.4840   5.6079   5.7421   5.7716   5.7793   5.7927   5.8859
     6.0003   6.0488   6.1911   6.2024   6.2564   6.4403   6.5651   6.5881
     6.6039   6.6164   6.6555   6.6597   6.6776   6.6995   6.7326   6.7382
     6.7398   6.7489   7.7288   7.7364   7.8348   7.8466   7.9281   7.9319
     9.1076   9.1338   9.2671   9.3009   9.4442   9.4660  12.0034  12.0553
    12.1178  12.1785  12.2673  12.2949  12.3612  12.3787  12.3944  12.4036
    12.4605  12.5590  13.2504  13.2796  13.4326  13.4462  13.6951  13.7177
    14.1212  14.1777  14.4320  14.5386  14.5526  14.6575  15.4016  15.4687
    15.9305  16.4426  16.8528  16.8812  17.0049

          k = 0.1667 0.0000 0.1663 ( 63678 PWs)   bands (ev):

   -66.5305 -66.5300 -66.5299 -66.5299 -66.5294 -66.5294 -66.5293 -66.5288
   -30.8905 -30.8865 -30.8836 -30.8788 -30.8771 -30.8764 -30.8696 -30.8681
   -30.8670 -30.8665 -30.8616 -30.8582 -30.8096 -30.8068 -30.8064 -30.8019
   -30.8016 -30.8013 -30.7997 -30.7928 -30.7903 -30.7889 -30.7863 -30.7808
   -20.6974 -20.6973 -20.6973 -20.6972 -20.6972 -20.6971 -20.6971 -20.6970
   -20.6755 -20.6751 -20.6749 -20.6749 -20.6745 -20.6743 -20.6743 -20.6738
   -20.6703 -20.6700 -20.6700 -20.6694 -20.6693 -20.6692 -20.6690 -20.6689
   -20.6685 -20.6685 -20.6680 -20.6674 -20.6674 -20.6673 -20.6671 -20.6670
   -20.6645 -20.6638 -20.6637 -20.6631 -20.6629 -20.6628 -20.6626 -20.6623
   -20.6617 -20.6617 -20.6609 -20.6606 -20.6580 -20.6578 -20.6574 -20.6573
   -20.6572 -20.6569 -20.6563 -20.6561 -20.6554 -20.6553 -20.6542 -20.6542
   -10.1729  -9.8720  -9.8622  -9.8252  -9.5701  -9.5210  -9.5082  -9.3022
    -9.2775  -9.2683  -9.2668  -9.2474  -8.2198  -8.1934  -8.1698  -8.1503
    -8.1496  -8.1357  -8.1240  -8.0886  -8.0546  -8.0230  -8.0078  -7.9787
     0.9076   0.9214   0.9274   0.9865   1.0475   1.0664   1.1596   1.2039
     1.2883   1.3336   1.3897   1.5844   2.3060   2.3446   2.3713   2.4063
     2.4539   2.4918   3.8971   3.9632   4.0023   4.0416   4.0694   4.0799
     4.1209   4.1300   4.2310   4.2933   4.3237   4.3760   4.7641   4.8111
     4.8556   4.9990   5.0282   5.0732   5.0991   5.2565   5.3506   5.3709
     5.3771   5.5161   5.5381   5.7247   5.7924   5.7936   5.8062   5.9628
     5.9688   6.1814   6.2741   6.3025   6.3397   6.3882   6.4067   6.4885
     6.5314   6.5753   6.5903   6.6143   6.6160   6.6375   6.6656   6.7127
     6.7341   6.7616   7.7346   7.7373   7.7838   7.7948   7.8635   7.8759
     9.3678   9.4214   9.4412   9.4525   9.5490   9.6154  12.0240  12.0689
    12.1722  12.1893  12.2011  12.2110  12.2265  12.2727  12.3359  12.3881
    12.4265  12.4473  13.2449  13.2645  13.3841  13.4015  13.5545  13.5821
    14.3218  14.3546  14.5057  14.6985  14.7076  14.7475  15.4335  15.8249
    15.9028  16.5948  16.6330  16.9312  17.0437

          k = 0.1667 0.0000 0.3327 ( 63670 PWs)   bands (ev):

   -66.5304 -66.5301 -66.5298 -66.5298 -66.5295 -66.5295 -66.5292 -66.5289
   -30.8896 -30.8873 -30.8823 -30.8796 -30.8737 -30.8727 -30.8702 -30.8681
   -30.8551 -30.8528 -30.8481 -30.8458 -30.8171 -30.8140 -30.8104 -30.8089
   -30.8072 -30.8068 -30.8006 -30.7991 -30.7958 -30.7941 -30.7879 -30.7841
   -20.6974 -20.6973 -20.6973 -20.6972 -20.6972 -20.6971 -20.6971 -20.6971
   -20.6754 -20.6751 -20.6748 -20.6748 -20.6745 -20.6744 -20.6743 -20.6739
   -20.6702 -20.6698 -20.6698 -20.6696 -20.6693 -20.6692 -20.6692 -20.6688
   -20.6686 -20.6685 -20.6677 -20.6674 -20.6674 -20.6673 -20.6671 -20.6671
   -20.6636 -20.6631 -20.6630 -20.6628 -20.6628 -20.6624 -20.6622 -20.6619
   -20.6615 -20.6614 -20.6610 -20.6604 -20.6591 -20.6590 -20.6583 -20.6582
   -20.6572 -20.6571 -20.6565 -20.6564 -20.6552 -20.6551 -20.6545 -20.6544
   -10.0737  -9.9080  -9.7444  -9.6965  -9.5948  -9.5342  -9.2876  -9.2723
    -9.2678  -9.1327  -9.1254  -9.1178  -8.4940  -8.4826  -8.4702  -8.4620
    -8.1922  -8.1685  -8.1415  -8.1178  -8.0526  -8.0313  -8.0065  -7.9865
     0.9218   0.9253   0.9722   0.9847   1.1919   1.2046   1.2797   1.3310
     1.8925   1.9817   1.9859   2.1064   2.3244   2.3784   2.5791   2.6246
     2.6824   2.7274   3.4617   3.5385   3.6152   3.6185   3.7892   4.0055
     4.0152   4.0667   4.1103   4.2610   4.2995   4.3791   4.4000   4.4578
     4.5590   4.6294   4.7285   4.7927   4.8862   5.0874   5.1192   5.3961
     5.4102   5.5383   5.6355   5.6673   5.6676   5.7201   5.7909   5.8363
     6.0341   6.1185   6.1565   6.2093   6.2414   6.3473   6.3831   6.5478
     6.5744   6.6017   6.6086   6.6362   6.6415   6.7197   6.8355   6.8531
     6.9030   6.9404   7.6100   7.6156   7.6590   7.6819   7.7462   7.7569
     9.4092   9.4427  10.1146  10.1444  10.1763  10.2311  11.6746  11.6824
    11.7103  11.7457  12.0710  12.0992  12.3584  12.3736  12.3820  12.4058
    12.5210  12.5601  13.0457  13.0694  13.1944  13.2296  13.3061  13.3286
    14.4501  14.5083  14.8152  15.0232  15.1996  15.3439  15.4622  15.8110
    16.0472  16.8735  17.0102  17.1259  17.1707

          k = 0.1667 0.0000-0.4990 ( 63664 PWs)   bands (ev):

   -66.5303 -66.5302 -66.5297 -66.5296 -66.5296 -66.5296 -66.5290 -66.5290
   -30.8885 -30.8884 -30.8809 -30.8809 -30.8720 -30.8720 -30.8696 -30.8696
   -30.8358 -30.8357 -30.8330 -30.8330 -30.8290 -30.8290 -30.8266 -30.8266
   -30.8079 -30.8078 -30.7989 -30.7989 -30.7975 -30.7974 -30.7864 -30.7864
   -20.6973 -20.6973 -20.6972 -20.6972 -20.6972 -20.6972 -20.6971 -20.6971
   -20.6753 -20.6753 -20.6746 -20.6746 -20.6746 -20.6746 -20.6742 -20.6741
   -20.6699 -20.6699 -20.6696 -20.6695 -20.6695 -20.6695 -20.6689 -20.6689
   -20.6686 -20.6686 -20.6675 -20.6675 -20.6674 -20.6673 -20.6671 -20.6671
   -20.6631 -20.6631 -20.6628 -20.6628 -20.6624 -20.6624 -20.6615 -20.6614
   -20.6608 -20.6607 -20.6605 -20.6605 -20.6599 -20.6599 -20.6597 -20.6596
   -20.6569 -20.6568 -20.6568 -20.6568 -20.6548 -20.6548 -20.6548 -20.6547
    -9.9750  -9.9750  -9.6471  -9.6471  -9.5901  -9.5901  -9.2797  -9.2796
    -8.8932  -8.8932  -8.8532  -8.8531  -8.8430  -8.8430  -8.8375  -8.8375
    -8.1815  -8.1814  -8.1304  -8.1304  -8.0423  -8.0423  -7.9969  -7.9968
     0.9236   0.9236   0.9816   0.9817   1.2055   1.2055   1.3226   1.3226
     2.3474   2.3474   2.8185   2.8185   2.8467   2.8467   2.8692   2.8692
     2.8881   2.8881   3.0228   3.0229   3.2718   3.2718   3.2953   3.2953
     3.3840   3.3840   4.0197   4.0197   4.2604   4.2604   4.5576   4.5576
     4.6278   4.6278   4.6718   4.6718   4.8435   4.8435   5.2459   5.2459
     5.4731   5.4731   5.5341   5.5341   5.7227   5.7227   5.8382   5.8382
     6.0146   6.0146   6.1254   6.1254   6.2087   6.2087   6.4760   6.4760
     6.6037   6.6037   6.6151   6.6151   6.6636   6.6636   7.2900   7.2900
     7.3029   7.3029   7.3241   7.3241   7.3533   7.3534   7.7496   7.7496
     9.4276   9.4276  10.9257  10.9257  10.9432  10.9433  10.9718  10.9718
    11.0106  11.0106  12.0981  12.0982  12.3783  12.3783  12.6601  12.6602
    12.7103  12.7104  12.8229  12.8229  12.8421  12.8421  13.3053  13.3053
    14.4908  14.4908  15.1575  15.1575  15.4795  15.4795  15.5996  15.5996
    16.4112  16.4113  17.4151  17.4152  17.5011

          k = 0.1667 0.1655 0.0000 ( 63623 PWs)   bands (ev):

   -66.5305 -66.5300 -66.5299 -66.5299 -66.5294 -66.5293 -66.5293 -66.5288
   -30.8871 -30.8827 -30.8801 -30.8797 -30.8787 -30.8733 -30.8728 -30.8698
   -30.8697 -30.8659 -30.8647 -30.8602 -30.8133 -30.8100 -30.8084 -30.8070
   -30.8003 -30.8003 -30.7975 -30.7914 -30.7879 -30.7876 -30.7820 -30.7798
   -20.6974 -20.6974 -20.6973 -20.6973 -20.6971 -20.6971 -20.6971 -20.6970
   -20.6755 -20.6750 -20.6750 -20.6749 -20.6746 -20.6743 -20.6743 -20.6738
   -20.6702 -20.6700 -20.6697 -20.6695 -20.6691 -20.6691 -20.6688 -20.6685
   -20.6684 -20.6682 -20.6680 -20.6675 -20.6674 -20.6672 -20.6672 -20.6671
   -20.6649 -20.6643 -20.6640 -20.6634 -20.6631 -20.6629 -20.6626 -20.6625
   -20.6622 -20.6621 -20.6612 -20.6609 -20.6576 -20.6575 -20.6574 -20.6573
   -20.6567 -20.6564 -20.6562 -20.6560 -20.6555 -20.6554 -20.6542 -20.6541
   -10.1766  -9.8937  -9.8700  -9.8078  -9.6170  -9.5086  -9.4766  -9.3204
    -9.2830  -9.2635  -9.2571  -9.2290  -8.2308  -8.1819  -8.1740  -8.1687
    -8.1421  -8.1350  -8.1214  -8.0850  -8.0490  -8.0100  -8.0058  -7.9683
     0.8477   0.8488   0.8656   0.8895   1.0902   1.0987   1.2019   1.2451
     1.3101   1.3347   1.4385   1.6034   2.2986   2.3532   2.3674   2.4145
     2.4568   2.4862   3.8383   3.8559   3.9676   4.0188   4.0376   4.0402
     4.1069   4.1391   4.2997   4.3803   4.4414   4.4662   4.6714   4.7967
     4.9129   5.0098   5.0255   5.0676   5.0849   5.2921   5.3194   5.3618
     5.4161   5.5395   5.6490   5.6951   5.7813   5.7982   5.8892   5.9194
     6.0110   6.0327   6.1286   6.1966   6.3106   6.4035   6.4614   6.5247
     6.5495   6.5696   6.6137   6.6388   6.6472   6.6995   6.7217   6.7449
     6.7586   6.7653   7.6948   7.6976   7.8349   7.8395   7.8590   7.8737
     9.2650   9.2925   9.3655   9.4166   9.6608   9.6988  11.9315  12.0746
    12.0905  12.1070  12.1572  12.2058  12.2087  12.3335  12.3837  12.3867
    12.5038  12.5598  13.2030  13.2477  13.4323  13.4648  13.5819  13.5926
    14.3438  14.3577  14.4528  14.6578  14.7207  14.7380  15.3873  15.8740
    15.8991  16.5402  16.6010  16.9292  17.1481

          k = 0.1667 0.1655 0.1663 ( 63641 PWs)   bands (ev):

   -66.5305 -66.5299 -66.5299 -66.5299 -66.5294 -66.5293 -66.5293 -66.5288
   -30.8868 -30.8830 -30.8789 -30.8772 -30.8759 -30.8734 -30.8700 -30.8679
   -30.8666 -30.8651 -30.8613 -30.8573 -30.8130 -30.8104 -30.8100 -30.8067
   -30.8018 -30.8014 -30.7994 -30.7931 -30.7920 -30.7910 -30.7864 -30.7823
   -20.6974 -20.6973 -20.6973 -20.6972 -20.6972 -20.6971 -20.6971 -20.6970
   -20.6754 -20.6750 -20.6750 -20.6748 -20.6745 -20.6744 -20.6743 -20.6738
   -20.6702 -20.6700 -20.6697 -20.6694 -20.6692 -20.6691 -20.6688 -20.6686
   -20.6684 -20.6682 -20.6679 -20.6675 -20.6674 -20.6672 -20.6672 -20.6671
   -20.6646 -20.6640 -20.6637 -20.6631 -20.6630 -20.6629 -20.6626 -20.6624
   -20.6622 -20.6621 -20.6612 -20.6609 -20.6580 -20.6578 -20.6574 -20.6573
   -20.6571 -20.6569 -20.6563 -20.6561 -20.6554 -20.6553 -20.6542 -20.6542
   -10.1320  -9.8367  -9.8192  -9.8107  -9.5283  -9.5165  -9.4840  -9.2764
    -9.2537  -9.2496  -9.2323  -9.2310  -8.2423  -8.1933  -8.1845  -8.1742
    -8.1725  -8.1576  -8.1510  -8.1248  -8.1202  -8.1126  -8.0881  -8.0770
     1.0461   1.0611   1.0699   1.0921   1.1023   1.1611   1.2029   1.2448
     1.3871   1.4029   1.4376   1.6639   2.3810   2.3849   2.4329   2.4743
     2.4931   2.5381   3.8422   3.8865   3.9360   3.9916   4.0447   4.0638
     4.0975   4.1156   4.1315   4.1712   4.1830   4.2552   4.6515   4.7251
     4.7592   4.9660   5.0078   5.0316   5.0452   5.0624   5.0832   5.3486
     5.3828   5.4220   5.6735   5.7152   5.7649   5.8021   5.8739   5.9456
     6.0076   6.1587   6.1839   6.2943   6.3178   6.3440   6.3729   6.3967
     6.4201   6.5937   6.6149   6.6374   6.6669   6.6734   6.7112   6.7202
     6.7427   6.7971   7.6957   7.6978   7.7828   7.7880   7.8047   7.8220
     9.5106   9.5476   9.6061   9.6234   9.7014   9.7311  11.9747  12.1060
    12.1204  12.1419  12.1607  12.1944  12.2063  12.2277  12.2464  12.3141
    12.3618  12.3854  13.2038  13.2394  13.3483  13.4087  13.4401  13.4671
    14.5987  14.6122  14.6589  14.7043  14.7492  14.8529  15.7944  15.8519
    15.8746  16.6598  16.7263  16.7506  17.0067

          k = 0.1667 0.1655 0.3327 ( 63662 PWs)   bands (ev):

   -66.5304 -66.5301 -66.5298 -66.5298 -66.5295 -66.5295 -66.5292 -66.5289
   -30.8860 -30.8837 -30.8774 -30.8747 -30.8739 -30.8715 -30.8702 -30.8662
   -30.8550 -30.8526 -30.8481 -30.8457 -30.8182 -30.8150 -30.8122 -30.8105
   -30.8094 -30.8074 -30.8056 -30.7997 -30.7987 -30.7939 -30.7901 -30.7861
   -20.6974 -20.6973 -20.6973 -20.6972 -20.6972 -20.6971 -20.6971 -20.6971
   -20.6753 -20.6751 -20.6748 -20.6747 -20.6745 -20.6744 -20.6744 -20.6740
   -20.6700 -20.6698 -20.6696 -20.6694 -20.6693 -20.6691 -20.6689 -20.6686
   -20.6685 -20.6682 -20.6676 -20.6674 -20.6673 -20.6673 -20.6672 -20.6671
   -20.6638 -20.6634 -20.6631 -20.6629 -20.6628 -20.6625 -20.6624 -20.6622
   -20.6617 -20.6616 -20.6613 -20.6606 -20.6592 -20.6591 -20.6583 -20.6582
   -20.6572 -20.6571 -20.6565 -20.6564 -20.6552 -20.6551 -20.6545 -20.6544
   -10.0276  -9.8557  -9.7079  -9.6766  -9.5431  -9.5094  -9.2755  -9.2511
    -9.2364  -9.1216  -9.1202  -9.1084  -8.4923  -8.4911  -8.4705  -8.4671
    -8.2018  -8.1845  -8.1617  -8.1559  -8.1382  -8.1334  -8.1142  -8.0954
     1.0891   1.0937   1.1897   1.2019   1.2251   1.2437   1.3598   1.4334
     1.8934   1.9860   1.9868   2.1186   2.4049   2.4583   2.6208   2.6784
     2.7215   2.7660   3.4807   3.5771   3.6061   3.6846   3.7518   3.9344
     4.0026   4.0521   4.0589   4.1185   4.1331   4.3131   4.3291   4.3961
     4.4620   4.4866   4.5978   4.6696   4.8172   4.8936   5.0778   5.1318
     5.3748   5.4438   5.4931   5.5448   5.6384   5.6704   5.7750   5.8306
     6.0212   6.1268   6.2667   6.2987   6.3534   6.3761   6.3964   6.4246
     6.5644   6.5934   6.6453   6.6735   6.7147   6.7765   6.8427   6.8541
     6.9224   6.9478   7.6054   7.6087   7.6244   7.6388   7.7067   7.7228
     9.6430   9.6790  10.1706  10.1929  10.2500  10.3021  11.6765  11.6920
    11.7531  11.7913  12.0784  12.1454  12.2121  12.2201  12.3141  12.3541
    12.4065  12.4530  13.0188  13.0505  13.0758  13.1045  13.2759  13.2941
    14.6713  14.6968  15.1299  15.1622  15.1948  15.5160  15.7542  15.7854
    16.1600  16.8491  17.0070  17.0876  17.2003

          k = 0.1667 0.1655-0.4990 ( 63682 PWs)   bands (ev):

   -66.5302 -66.5302 -66.5297 -66.5296 -66.5296 -66.5296 -66.5291 -66.5291
   -30.8849 -30.8848 -30.8759 -30.8759 -30.8722 -30.8722 -30.8679 -30.8679
   -30.8359 -30.8358 -30.8330 -30.8330 -30.8291 -30.8291 -30.8267 -30.8267
   -30.8111 -30.8111 -30.8037 -30.8037 -30.7972 -30.7971 -30.7885 -30.7885
   -20.6973 -20.6973 -20.6972 -20.6972 -20.6972 -20.6972 -20.6971 -20.6971
   -20.6752 -20.6752 -20.6747 -20.6746 -20.6746 -20.6746 -20.6742 -20.6741
   -20.6698 -20.6698 -20.6695 -20.6695 -20.6693 -20.6692 -20.6689 -20.6688
   -20.6683 -20.6683 -20.6675 -20.6674 -20.6673 -20.6673 -20.6672 -20.6671
   -20.6633 -20.6633 -20.6628 -20.6628 -20.6627 -20.6627 -20.6616 -20.6616
   -20.6608 -20.6607 -20.6606 -20.6606 -20.6599 -20.6599 -20.6598 -20.6597
   -20.6569 -20.6568 -20.6568 -20.6568 -20.6548 -20.6548 -20.6548 -20.6547
    -9.9246  -9.9246  -9.6002  -9.6002  -9.5659  -9.5658  -9.2437  -9.2437
    -8.9015  -8.9015  -8.8494  -8.8494  -8.8434  -8.8434  -8.8339  -8.8339
    -8.1943  -8.1943  -8.1523  -8.1523  -8.1444  -8.1444  -8.1056  -8.1055
     1.0909   1.0910   1.2030   1.2031   1.2409   1.2409   1.4210   1.4210
     2.4261   2.4262   2.8357   2.8357   2.8523   2.8524   2.8739   2.8739
     2.8873   2.8873   3.0706   3.0706   3.2666   3.2666   3.3520   3.3520
     3.4148   3.4148   4.0200   4.0200   4.0561   4.0561   4.4317   4.4317
     4.5184   4.5184   4.5640   4.5640   4.6603   4.6603   5.1979   5.1979
     5.2732   5.2732   5.4557   5.4557   5.5133   5.5133   5.8041   5.8041
     6.1621   6.1621   6.2250   6.2250   6.3692   6.3692   6.4542   6.4542
     6.4826   6.4826   6.6726   6.6726   6.7375   6.7375   7.2861   7.2861
     7.2983   7.2983   7.3165   7.3165   7.3403   7.3403   7.7109   7.7110
     9.6639   9.6639  10.9425  10.9425  10.9632  10.9632  11.0285  11.0285
    11.0691  11.0691  12.1399  12.1399  12.2111  12.2111  12.6183  12.6183
    12.6677  12.6677  12.7039  12.7039  12.7293  12.7293  13.2724  13.2725
    14.6885  14.6885  15.5359  15.5360  15.5688  15.5688  15.6196  15.6196
    16.4905  16.4905  17.3666  17.3667  17.4778

          k = 0.1667 0.3310 0.0000 ( 63672 PWs)   bands (ev):

   -66.5304 -66.5301 -66.5298 -66.5298 -66.5295 -66.5295 -66.5292 -66.5289
   -30.8811 -30.8799 -30.8764 -30.8764 -30.8726 -30.8722 -30.8707 -30.8706
   -30.8597 -30.8595 -30.8561 -30.8539 -30.8248 -30.8227 -30.8211 -30.8204
   -30.7998 -30.7996 -30.7979 -30.7950 -30.7889 -30.7882 -30.7823 -30.7815
   -20.6974 -20.6974 -20.6973 -20.6973 -20.6971 -20.6971 -20.6970 -20.6970
   -20.6753 -20.6751 -20.6748 -20.6748 -20.6746 -20.6744 -20.6741 -20.6739
   -20.6700 -20.6699 -20.6694 -20.6693 -20.6691 -20.6690 -20.6682 -20.6682
   -20.6679 -20.6676 -20.6675 -20.6674 -20.6672 -20.6671 -20.6668 -20.6665
   -20.6653 -20.6649 -20.6640 -20.6637 -20.6636 -20.6633 -20.6631 -20.6631
   -20.6625 -20.6624 -20.6618 -20.6615 -20.6576 -20.6575 -20.6574 -20.6573
   -20.6567 -20.6565 -20.6562 -20.6561 -20.6555 -20.6554 -20.6541 -20.6541
   -10.0857  -9.9293  -9.7711  -9.6897  -9.6405  -9.5352  -9.3068  -9.2889
    -9.2312  -9.1127  -9.1051  -9.0951  -8.5001  -8.4656  -8.4626  -8.4468
    -8.1899  -8.1651  -8.1428  -8.1179  -8.0415  -8.0200  -7.9987  -7.9784
     0.8502   0.8556   0.8909   0.8919   1.1937   1.2051   1.2707   1.3130
     1.9285   2.0083   2.0486   2.1450   2.3207   2.3743   2.6192   2.6254
     2.7151   2.7151   3.3605   3.4020   3.5092   3.5814   3.8128   4.0039
     4.0153   4.0843   4.2047   4.2803   4.3418   4.4454   4.4615   4.4718
     4.5706   4.6550   4.7244   4.8775   4.9063   5.1123   5.1857   5.3582
     5.3881   5.5138   5.6065   5.7221   5.7737   5.8084   5.8351   5.8729
     5.9208   6.0657   6.1130   6.1233   6.3200   6.3974   6.4695   6.5799
     6.6081   6.6204   6.6323   6.6375   6.6465   6.7083   6.8328   6.8465
     6.8993   6.9208   7.5455   7.5514   7.6484   7.6540   7.8374   7.8470
     9.2836   9.3073   9.9917  10.0364  10.2548  10.2885  11.4827  11.5501
    11.6939  11.7213  12.1212  12.1276  12.3327  12.3811  12.3890  12.4227
    12.6449  12.6786  12.9630  13.0254  13.2336  13.2771  13.4707  13.4768
    14.4497  14.4592  14.8157  14.9761  15.1785  15.3135  15.4018  15.7917
    15.9817  16.8954  16.9448  17.1109  17.1482

          k = 0.1667 0.3310 0.1663 ( 63675 PWs)   bands (ev):

   -66.5304 -66.5301 -66.5298 -66.5298 -66.5295 -66.5295 -66.5292 -66.5289
   -30.8805 -30.8775 -30.8766 -30.8726 -30.8711 -30.8691 -30.8677 -30.8666
   -30.8597 -30.8579 -30.8562 -30.8523 -30.8245 -30.8228 -30.8218 -30.8203
   -30.8016 -30.8013 -30.7986 -30.7948 -30.7937 -30.7935 -30.7864 -30.7847
   -20.6974 -20.6973 -20.6973 -20.6972 -20.6971 -20.6971 -20.6971 -20.6970
   -20.6753 -20.6750 -20.6749 -20.6747 -20.6746 -20.6745 -20.6742 -20.6739
   -20.6699 -20.6699 -20.6693 -20.6693 -20.6691 -20.6691 -20.6683 -20.6682
   -20.6678 -20.6676 -20.6675 -20.6674 -20.6672 -20.6671 -20.6668 -20.6666
   -20.6650 -20.6647 -20.6637 -20.6636 -20.6636 -20.6631 -20.6630 -20.6629
   -20.6625 -20.6623 -20.6618 -20.6615 -20.6580 -20.6579 -20.6574 -20.6573
   -20.6571 -20.6570 -20.6563 -20.6562 -20.6554 -20.6553 -20.6542 -20.6542
   -10.0360  -9.8730  -9.7012  -9.6970  -9.5526  -9.5437  -9.2703  -9.2551
    -9.2389  -9.0994  -9.0973  -9.0959  -8.5022  -8.4700  -8.4627  -8.4527
    -8.1918  -8.1868  -8.1553  -8.1495  -8.1444  -8.1301  -8.1143  -8.0936
     1.0502   1.0594   1.1538   1.1614   1.1963   1.2076   1.3294   1.3881
     1.9301   2.0121   2.0473   2.1548   2.4030   2.4558   2.6313   2.7013
     2.7103   2.7961   3.4024   3.4553   3.5109   3.5808   3.8011   4.0208
     4.0397   4.0590   4.0849   4.1489   4.1993   4.2953   4.3932   4.4413
     4.4528   4.4851   4.6569   4.6954   4.9161   4.9322   5.0464   5.0949
     5.3851   5.4028   5.4842   5.5080   5.6183   5.6446   5.8828   5.8916
     6.0317   6.1886   6.1910   6.3390   6.3616   6.3681   6.3895   6.4432
     6.5774   6.6188   6.6841   6.7015   6.7160   6.7323   6.8288   6.8620
     6.9119   6.9233   7.5449   7.5484   7.6142   7.6178   7.7858   7.7965
     9.5376   9.5619  10.1517  10.1862  10.2798  10.2862  11.5534  11.6214
    11.7002  11.7183  12.1580  12.1822  12.2075  12.2162  12.3530  12.4136
    12.4680  12.4909  12.9730  13.0185  13.0846  13.1217  13.3915  13.4047
    14.6834  14.6911  15.0941  15.1324  15.2013  15.4678  15.7174  15.7755
    16.1011  16.8625  17.0126  17.0860  17.1905

          k = 0.1667 0.3310 0.3327 ( 63667 PWs)   bands (ev):

   -66.5303 -66.5299 -66.5299 -66.5297 -66.5296 -66.5293 -66.5293 -66.5290
   -30.8796 -30.8774 -30.8748 -30.8719 -30.8651 -30.8642 -30.8603 -30.8578
   -30.8551 -30.8524 -30.8475 -30.8442 -30.8256 -30.8241 -30.8231 -30.8193
   -30.8115 -30.8109 -30.8078 -30.8060 -30.7978 -30.7937 -30.7931 -30.7895
   -20.6973 -20.6973 -20.6973 -20.6972 -20.6972 -20.6971 -20.6971 -20.6971
   -20.6752 -20.6749 -20.6749 -20.6746 -20.6746 -20.6744 -20.6743 -20.6740
   -20.6698 -20.6697 -20.6693 -20.6693 -20.6691 -20.6690 -20.6685 -20.6685
   -20.6677 -20.6676 -20.6674 -20.6673 -20.6671 -20.6670 -20.6669 -20.6666
   -20.6645 -20.6644 -20.6638 -20.6637 -20.6628 -20.6627 -20.6624 -20.6623
   -20.6622 -20.6619 -20.6614 -20.6611 -20.6592 -20.6591 -20.6583 -20.6583
   -20.6572 -20.6571 -20.6565 -20.6565 -20.6551 -20.6551 -20.6545 -20.6544
    -9.9198  -9.7445  -9.7369  -9.5725  -9.5123  -9.3024  -9.2673  -9.1687
    -9.1271  -9.1051  -9.0542  -9.0232  -8.5817  -8.5408  -8.4826  -8.4698
    -8.4579  -8.4532  -8.4018  -8.3654  -8.1747  -8.1502  -8.1483  -8.1247
     1.1863   1.1896   1.1990   1.2077   1.7688   1.8065   1.8943   1.9334
     1.9841   2.0433   2.1226   2.2781   2.6304   2.6391   2.6781   2.7293
     2.9373   3.0183   3.4335   3.4829   3.5224   3.5788   3.6025   3.6367
     3.7640   3.7951   3.8862   3.9383   4.0843   4.1527   4.1986   4.2682
     4.3573   4.3770   4.4744   4.4807   4.5163   4.5398   4.6142   4.9381
     4.9577   4.9926   5.0583   5.3532   5.4154   5.6221   5.6590   5.7091
     6.2051   6.2316   6.3215   6.3591   6.4615   6.4841   6.5491   6.5801
     6.6456   6.7558   6.7707   6.8024   6.8284   6.8583   6.8964   6.9484
     6.9696   7.0283   7.4824   7.4997   7.5151   7.5600   7.6203   7.6525
    10.1232  10.1887  10.2705  10.3105  10.6200  10.6738  11.6488  11.6747
    11.6796  11.7619  11.8030  11.8661  11.9613  11.9867  12.2665  12.3423
    12.4163  12.4626  12.6907  12.7249  12.9545  13.0057  13.1088  13.1564
    14.9971  15.1320  15.1875  15.5572  15.6726  15.8862  15.9172  16.4739
    16.4993  16.7462  16.7824  17.2142  17.3448

          k = 0.1667 0.3310-0.4990 ( 63674 PWs)   bands (ev):

   -66.5301 -66.5301 -66.5298 -66.5298 -66.5295 -66.5295 -66.5292 -66.5292
   -30.8784 -30.8784 -30.8732 -30.8732 -30.8624 -30.8623 -30.8597 -30.8597
   -30.8373 -30.8372 -30.8340 -30.8339 -30.8294 -30.8294 -30.8268 -30.8268
   -30.8214 -30.8213 -30.8158 -30.8158 -30.7963 -30.7962 -30.7921 -30.7921
   -20.6973 -20.6973 -20.6972 -20.6972 -20.6972 -20.6972 -20.6971 -20.6971
   -20.6751 -20.6751 -20.6748 -20.6747 -20.6745 -20.6745 -20.6743 -20.6742
   -20.6696 -20.6696 -20.6695 -20.6694 -20.6688 -20.6688 -20.6687 -20.6687
   -20.6676 -20.6676 -20.6674 -20.6673 -20.6671 -20.6670 -20.6668 -20.6667
   -20.6642 -20.6642 -20.6638 -20.6638 -20.6627 -20.6626 -20.6620 -20.6620
   -20.6608 -20.6608 -20.6608 -20.6607 -20.6600 -20.6599 -20.6599 -20.6599
   -20.6569 -20.6568 -20.6568 -20.6568 -20.6548 -20.6548 -20.6548 -20.6547
    -9.8079  -9.8079  -9.6334  -9.6334  -9.3425  -9.3425  -9.1192  -9.1192
    -8.9369  -8.9369  -8.8610  -8.8610  -8.8280  -8.8280  -8.8095  -8.8095
    -8.4625  -8.4625  -8.4307  -8.4306  -8.1630  -8.1630  -8.1371  -8.1371
     1.1958   1.1958   1.2070   1.2070   1.9216   1.9216   2.0199   2.0199
     2.6456   2.6457   2.8513   2.8514   2.8695   2.8696   2.8860   2.8860
     2.8911   2.8912   3.1791   3.1791   3.2398   3.2398   3.4931   3.4931
     3.5680   3.5680   3.6192   3.6193   3.7253   3.7253   3.9868   3.9869
     4.3285   4.3286   4.4883   4.4883   4.5807   4.5807   4.6634   4.6635
     4.7286   4.7286   5.1002   5.1002   5.4780   5.4781   5.6356   5.6356
     6.3001   6.3001   6.3542   6.3542   6.4447   6.4447   6.5274   6.5275
     6.7523   6.7523   6.8246   6.8246   6.9234   6.9234   7.2389   7.2389
     7.2604   7.2604   7.2814   7.2814   7.3354   7.3354   7.5740   7.5740
    10.2541  10.2541  10.9550  10.9550  10.9679  10.9679  11.2677  11.2677
    11.3173  11.3174  11.7237  11.7237  12.1506  12.1507  12.2486  12.2486
    12.3969  12.3969  12.6729  12.6729  12.7227  12.7228  13.0495  13.0495
    15.1036  15.1037  15.5088  15.5088  15.9859  15.9859  16.5033  16.5033
    16.7947  16.7948  16.9440  16.9440  17.4816

          k = 0.1667-0.4965 0.0000 ( 63718 PWs)   bands (ev):

   -66.5303 -66.5302 -66.5297 -66.5297 -66.5296 -66.5296 -66.5290 -66.5290
   -30.8799 -30.8799 -30.8731 -30.8731 -30.8721 -30.8721 -30.8715 -30.8715
   -30.8427 -30.8427 -30.8412 -30.8412 -30.8393 -30.8392 -30.8385 -30.8385
   -30.7994 -30.7993 -30.7973 -30.7973 -30.7888 -30.7887 -30.7823 -30.7822
   -20.6974 -20.6974 -20.6973 -20.6973 -20.6971 -20.6971 -20.6970 -20.6970
   -20.6752 -20.6752 -20.6747 -20.6747 -20.6746 -20.6746 -20.6740 -20.6740
   -20.6699 -20.6699 -20.6693 -20.6692 -20.6691 -20.6690 -20.6681 -20.6681
   -20.6676 -20.6676 -20.6673 -20.6673 -20.6664 -20.6664 -20.6661 -20.6661
   -20.6652 -20.6652 -20.6651 -20.6650 -20.6638 -20.6638 -20.6633 -20.6633
   -20.6623 -20.6623 -20.6620 -20.6620 -20.6576 -20.6576 -20.6574 -20.6573
   -20.6566 -20.6566 -20.6561 -20.6561 -20.6555 -20.6554 -20.6541 -20.6541
    -9.9937  -9.9937  -9.6881  -9.6881  -9.5902  -9.5902  -9.2973  -9.2973
    -8.8739  -8.8738  -8.8331  -8.8330  -8.8212  -8.8211  -8.8170  -8.8170
    -8.1782  -8.1782  -8.1315  -8.1315  -8.0310  -8.0310  -7.9888  -7.9888
     0.8535   0.8535   0.8939   0.8939   1.2057   1.2057   1.3064   1.3064
     2.3463   2.3463   2.7581   2.7581   2.8359   2.8359   2.8570   2.8571
     2.9562   2.9562   3.0018   3.0018   3.2611   3.2611   3.2929   3.2929
     3.4049   3.4050   4.0168   4.0168   4.2863   4.2864   4.5768   4.5768
     4.6701   4.6702   4.7536   4.7536   4.9299   4.9300   5.2300   5.2300
     5.4537   5.4537   5.5102   5.5102   5.8212   5.8212   5.8350   5.8350
     6.0511   6.0511   6.0889   6.0889   6.2760   6.2760   6.4818   6.4818
     6.6301   6.6301   6.6426   6.6426   6.6851   6.6851   7.2455   7.2455
     7.2579   7.2580   7.2963   7.2963   7.3083   7.3084   7.8418   7.8418
     9.2975   9.2975  10.7633  10.7633  10.8015  10.8016  10.9978  10.9978
    11.0446  11.0447  12.1308  12.1308  12.3873  12.3874  12.6075  12.6076
    12.6937  12.6938  12.9048  12.9049  12.9385  12.9385  13.4675  13.4676
    14.4595  14.4595  15.1445  15.1445  15.4277  15.4278  15.5689  15.5690
    16.3217  16.3217  17.4177  17.4177  17.4872

          k = 0.1667-0.4965 0.1663 ( 63690 PWs)   bands (ev):

   -66.5302 -66.5302 -66.5297 -66.5297 -66.5296 -66.5296 -66.5291 -66.5290
   -30.8782 -30.8782 -30.8730 -30.8729 -30.8689 -30.8688 -30.8665 -30.8664
   -30.8423 -30.8422 -30.8412 -30.8411 -30.8397 -30.8396 -30.8381 -30.8381
   -30.8014 -30.8013 -30.7972 -30.7971 -30.7940 -30.7940 -30.7860 -30.7860
   -20.6974 -20.6973 -20.6973 -20.6973 -20.6971 -20.6971 -20.6971 -20.6970
   -20.6752 -20.6751 -20.6747 -20.6747 -20.6746 -20.6746 -20.6741 -20.6740
   -20.6699 -20.6698 -20.6692 -20.6692 -20.6691 -20.6691 -20.6682 -20.6682
   -20.6676 -20.6675 -20.6673 -20.6673 -20.6662 -20.6662 -20.6660 -20.6660
   -20.6653 -20.6652 -20.6651 -20.6651 -20.6635 -20.6634 -20.6631 -20.6630
   -20.6623 -20.6623 -20.6620 -20.6619 -20.6579 -20.6579 -20.6574 -20.6573
   -20.6571 -20.6570 -20.6562 -20.6562 -20.6554 -20.6553 -20.6542 -20.6542
    -9.9396  -9.9395  -9.6044  -9.6036  -9.5999  -9.5992  -9.2627  -9.2627
    -8.8809  -8.8809  -8.8302  -8.8294  -8.8245  -8.8231  -8.8139  -8.8132
    -8.1870  -8.1868  -8.1523  -8.1509  -8.1446  -8.1428  -8.1046  -8.1043
     1.0540   1.0549   1.1629   1.1630   1.2076   1.2087   1.3786   1.3792
     2.4273   2.4278   2.7709   2.7732   2.8318   2.8334   2.8764   2.8780
     2.9502   2.9549   3.0481   3.0511   3.2759   3.2870   3.3168   3.3199
     3.4276   3.4300   4.0458   4.0537   4.0715   4.0773   4.4661   4.5106
     4.5452   4.5768   4.6440   4.6555   4.6991   4.7087   5.1568   5.1852
     5.2268   5.2413   5.4304   5.4423   5.4852   5.4853   5.8963   5.9006
[...]
    10.9235  10.9235  10.9235  10.9235  11.1108  11.1108  11.1108  11.1108
    11.7004  11.7004  11.7005  11.7005  11.7699  11.7700  11.7700  11.7700
    12.5952  12.5952  12.5952  12.5952  12.7611  12.7611  12.7611  12.7611
    15.3435  15.3435  15.3435  15.3435  16.4653  16.4654  16.4654  16.4654
    17.4194  17.4194  17.4194  17.4194  17.5027

          k =-0.5000 0.3310 0.0000 ( 63680 PWs)   bands (ev):

   -66.5301 -66.5301 -66.5298 -66.5298 -66.5295 -66.5295 -66.5292 -66.5292
   -30.8746 -30.8746 -30.8744 -30.8744 -30.8644 -30.8644 -30.8628 -30.8627
   -30.8416 -30.8416 -30.8387 -30.8387 -30.8326 -30.8325 -30.8320 -30.8320
   -30.8171 -30.8171 -30.8157 -30.8157 -30.7865 -30.7865 -30.7861 -30.7860
   -20.6974 -20.6973 -20.6973 -20.6973 -20.6971 -20.6971 -20.6971 -20.6970
   -20.6751 -20.6751 -20.6749 -20.6748 -20.6745 -20.6745 -20.6741 -20.6741
   -20.6696 -20.6696 -20.6695 -20.6695 -20.6686 -20.6686 -20.6685 -20.6685
   -20.6677 -20.6677 -20.6670 -20.6670 -20.6654 -20.6654 -20.6652 -20.6652
   -20.6651 -20.6651 -20.6650 -20.6650 -20.6645 -20.6645 -20.6633 -20.6633
   -20.6630 -20.6630 -20.6624 -20.6624 -20.6572 -20.6572 -20.6571 -20.6571
   -20.6565 -20.6565 -20.6565 -20.6565 -20.6554 -20.6554 -20.6553 -20.6553
    -9.8752  -9.8752  -9.7242  -9.7242  -9.3393  -9.3393  -9.1447  -9.1447
    -8.9272  -8.9271  -8.8711  -8.8710  -8.8262  -8.8261  -8.8075  -8.8074
    -8.4596  -8.4596  -8.4289  -8.4289  -8.0212  -8.0212  -8.0002  -8.0002
     0.8906   0.8906   0.8930   0.8930   1.9300   1.9300   2.0021   2.0021
     2.6536   2.6536   2.7988   2.7989   2.8287   2.8287   2.8872   2.8872
     2.9289   2.9289   3.1336   3.1336   3.1624   3.1625   3.4009   3.4010
     3.4963   3.4963   3.5322   3.5323   3.8927   3.8928   4.0908   4.0908
     4.5102   4.5102   4.5356   4.5356   4.6888   4.6888   4.7410   4.7410
     4.9823   4.9824   5.4010   5.4010   5.8865   5.8865   5.9681   5.9681
     6.0679   6.0679   6.1313   6.1313   6.2148   6.2148   6.4595   6.4595
     6.7496   6.7496   6.8191   6.8191   6.8910   6.8911   7.2158   7.2159
     7.2434   7.2435   7.2833   7.2834   7.3446   7.3447   7.6697   7.6697
    10.0038  10.0038  10.8393  10.8393  10.8468  10.8469  11.2640  11.2640
    11.3189  11.3189  11.5978  11.5978  12.2712  12.2712  12.2928  12.2928
    12.6525  12.6525  12.8388  12.8388  12.8598  12.8598  13.2774  13.2774
    14.7314  14.7314  15.0679  15.0679  15.9018  15.9019  16.4616  16.4617
    16.5995  16.5995  16.9697  16.9697  17.5559

          k =-0.5000 0.3310 0.1663 ( 63658 PWs)   bands (ev):

   -66.5301 -66.5301 -66.5298 -66.5298 -66.5295 -66.5295 -66.5292 -66.5292
   -30.8711 -30.8711 -30.8692 -30.8692 -30.8631 -30.8631 -30.8625 -30.8625
   -30.8413 -30.8413 -30.8388 -30.8388 -30.8330 -30.8330 -30.8316 -30.8315
   -30.8180 -30.8180 -30.8153 -30.8153 -30.7914 -30.7914 -30.7913 -30.7913
   -20.6974 -20.6973 -20.6973 -20.6973 -20.6971 -20.6971 -20.6971 -20.6971
   -20.6750 -20.6750 -20.6748 -20.6748 -20.6745 -20.6745 -20.6742 -20.6742
   -20.6695 -20.6695 -20.6695 -20.6695 -20.6687 -20.6687 -20.6685 -20.6685
   -20.6676 -20.6676 -20.6670 -20.6670 -20.6654 -20.6654 -20.6652 -20.6652
   -20.6650 -20.6650 -20.6649 -20.6649 -20.6644 -20.6644 -20.6631 -20.6631
   -20.6629 -20.6629 -20.6623 -20.6623 -20.6576 -20.6576 -20.6574 -20.6574
   -20.6565 -20.6565 -20.6565 -20.6565 -20.6555 -20.6555 -20.6554 -20.6554
    -9.8075  -9.8075  -9.6414  -9.6414  -9.3499  -9.3499  -9.1232  -9.1232
    -8.9375  -8.9374  -8.8639  -8.8638  -8.8226  -8.8224  -8.8106  -8.8105
    -8.4579  -8.4579  -8.4335  -8.4335  -8.1478  -8.1478  -8.1260  -8.1260
     1.1572   1.1572   1.1648   1.1648   1.9322   1.9322   2.0033   2.0033
     2.7284   2.7284   2.8118   2.8119   2.8370   2.8371   2.8970   2.8971
     2.9333   2.9334   3.1929   3.1930   3.2182   3.2183   3.4345   3.4345
     3.5037   3.5037   3.5510   3.5510   3.8868   3.8869   4.0905   4.0905
     4.3128   4.3128   4.4684   4.4684   4.5393   4.5394   4.6602   4.6602
     4.7066   4.7066   5.1104   5.1104   5.4832   5.4832   5.6481   5.6481
     6.3117   6.3117   6.3673   6.3674   6.4638   6.4638   6.5573   6.5573
     6.7500   6.7500   6.8169   6.8169   6.9205   6.9205   7.2080   7.2081
     7.2441   7.2442   7.2792   7.2793   7.3331   7.3332   7.6351   7.6351
    10.1646  10.1647  10.9227  10.9228  10.9458  10.9458  11.2754  11.2754
    11.3313  11.3313  11.6551  11.6551  12.2694  12.2695  12.2841  12.2841
    12.4720  12.4720  12.6963  12.6963  12.7114  12.7114  13.1235  13.1235
    15.0934  15.0934  15.4611  15.4611  15.9793  15.9793  16.4538  16.4538
    16.6405  16.6405  17.0110  17.0110  17.4477

          k =-0.5000 0.3310 0.3327 ( 63670 PWs)   bands (ev):

   -66.5300 -66.5300 -66.5297 -66.5296 -66.5296 -66.5296 -66.5293 -66.5293
   -30.8670 -30.8670 -30.8639 -30.8639 -30.8551 -30.8551 -30.8525 -30.8524
   -30.8405 -30.8405 -30.8393 -30.8393 -30.8346 -30.8346 -30.8295 -30.8295
   -30.8225 -30.8225 -30.8140 -30.8139 -30.8054 -30.8054 -30.8027 -30.8026
   -20.6973 -20.6973 -20.6973 -20.6972 -20.6972 -20.6971 -20.6971 -20.6971
   -20.6749 -20.6749 -20.6747 -20.6747 -20.6746 -20.6746 -20.6743 -20.6743
   -20.6694 -20.6693 -20.6693 -20.6693 -20.6688 -20.6688 -20.6687 -20.6687
   -20.6674 -20.6674 -20.6671 -20.6671 -20.6653 -20.6653 -20.6652 -20.6652
   -20.6649 -20.6649 -20.6648 -20.6648 -20.6639 -20.6638 -20.6632 -20.6632
   -20.6619 -20.6619 -20.6616 -20.6616 -20.6588 -20.6587 -20.6587 -20.6587
   -20.6563 -20.6563 -20.6563 -20.6563 -20.6557 -20.6557 -20.6557 -20.6556
    -9.6394  -9.6394  -9.4141  -9.4141  -9.3872  -9.3872  -9.0403  -9.0403
    -8.9808  -8.9807  -8.8391  -8.8390  -8.8200  -8.8199  -8.8074  -8.8073
    -8.4967  -8.4967  -8.4546  -8.4545  -8.4435  -8.4435  -8.3837  -8.3837
     1.7794   1.7794   1.8919   1.8919   1.9361   1.9362   2.0947   2.0947
     2.8258   2.8259   2.8341   2.8342   2.8881   2.8881   2.9158   2.9159
     3.0078   3.0078   3.3466   3.3466   3.3941   3.3942   3.4543   3.4543
     3.5277   3.5278   3.6396   3.6396   3.8064   3.8064   3.8601   3.8601
     3.9635   3.9635   4.1568   4.1569   4.2137   4.2137   4.4555   4.4555
     4.5264   4.5264   4.6378   4.6379   4.6773   4.6773   5.0533   5.0533
     6.6144   6.6144   6.6749   6.6749   6.7301   6.7301   6.7602   6.7602
     6.8062   6.8062   6.8673   6.8673   7.0187   7.0187   7.1804   7.1805
     7.2233   7.2233   7.2861   7.2862   7.2976   7.2976   7.5268   7.5268
    10.6138  10.6138  11.1611  11.1611  11.2249  11.2249  11.3009  11.3009
    11.3980  11.3980  11.8491  11.8491  11.9568  11.9568  12.1930  12.1930
    12.2748  12.2748  12.3175  12.3175  12.3760  12.3760  12.7371  12.7371
    15.8958  15.8958  16.2101  16.2102  16.3621  16.3621  16.4785  16.4785
    16.8163  16.8163  17.0781  17.0782  17.1335

          k =-0.5000 0.3310-0.4990 ( 63688 PWs)   bands (ev):

   -66.5298 -66.5298 -66.5298 -66.5298 -66.5295 -66.5295 -66.5295 -66.5295
   -30.8652 -30.8652 -30.8652 -30.8652 -30.8415 -30.8415 -30.8415 -30.8415
   -30.8393 -30.8393 -30.8392 -30.8392 -30.8352 -30.8352 -30.8352 -30.8351
   -30.8218 -30.8217 -30.8217 -30.8217 -30.8108 -30.8108 -30.8108 -30.8108
   -20.6973 -20.6972 -20.6972 -20.6972 -20.6972 -20.6972 -20.6972 -20.6971
   -20.6748 -20.6748 -20.6748 -20.6747 -20.6745 -20.6745 -20.6745 -20.6745
   -20.6692 -20.6691 -20.6691 -20.6691 -20.6690 -20.6690 -20.6690 -20.6689
   -20.6673 -20.6672 -20.6672 -20.6672 -20.6653 -20.6653 -20.6653 -20.6652
   -20.6648 -20.6648 -20.6648 -20.6648 -20.6635 -20.6634 -20.6634 -20.6634
   -20.6604 -20.6604 -20.6603 -20.6603 -20.6603 -20.6603 -20.6603 -20.6603
   -20.6561 -20.6561 -20.6560 -20.6560 -20.6560 -20.6560 -20.6560 -20.6559
    -9.4758  -9.4757  -9.4757  -9.4757  -9.1327  -9.1327  -9.1326  -9.1326
    -8.8787  -8.8787  -8.8787  -8.8787  -8.7509  -8.7509  -8.7508  -8.7508
    -8.7266  -8.7266  -8.7265  -8.7265  -8.4335  -8.4335  -8.4335  -8.4334
     1.9274   1.9274   1.9275   1.9275   2.7192   2.7193   2.7193   2.7193
     2.8104   2.8105   2.8105   2.8105   2.8898   2.8898   2.8898   2.8898
     3.0591   3.0591   3.0592   3.0592   3.4453   3.4453   3.4453   3.4453
     3.5541   3.5541   3.5541   3.5542   3.7558   3.7558   3.7558   3.7558
     3.8968   3.8968   3.8968   3.8968   4.0176   4.0176   4.0177   4.0177
     4.3408   4.3408   4.3408   4.3408   4.7438   4.7438   4.7438   4.7438
     6.7208   6.7208   6.7208   6.7208   6.7568   6.7568   6.7569   6.7569
     7.0443   7.0443   7.0443   7.0443   7.1173   7.1173   7.1173   7.1173
     7.2058   7.2058   7.2058   7.2059   7.3690   7.3690   7.3690   7.3690
    11.1679  11.1679  11.1679  11.1679  11.3741  11.3741  11.3741  11.3741
    11.7022  11.7023  11.7023  11.7023  11.7729  11.7730  11.7730  11.7730
    12.1998  12.1998  12.1998  12.1998  12.3712  12.3712  12.3712  12.3712
    16.2910  16.2910  16.2910  16.2910  16.6456  16.6456  16.6456  16.6456
    17.2112  17.2112  17.2113  17.2113  17.5119

          k =-0.5000-0.4965 0.0000 ( 63620 PWs)   bands (ev):

   -66.5300 -66.5300 -66.5300 -66.5299 -66.5293 -66.5293 -66.5293 -66.5293
   -30.8738 -30.8738 -30.8737 -30.8737 -30.8513 -30.8513 -30.8498 -30.8498
   -30.8478 -30.8478 -30.8458 -30.8458 -30.8296 -30.8296 -30.8278 -30.8278
   -30.8277 -30.8277 -30.8260 -30.8260 -30.7866 -30.7866 -30.7865 -30.7865
   -20.6974 -20.6973 -20.6973 -20.6973 -20.6971 -20.6971 -20.6971 -20.6970
   -20.6750 -20.6750 -20.6749 -20.6749 -20.6743 -20.6743 -20.6743 -20.6743
   -20.6695 -20.6695 -20.6695 -20.6695 -20.6685 -20.6685 -20.6685 -20.6685
   -20.6665 -20.6665 -20.6664 -20.6664 -20.6659 -20.6659 -20.6655 -20.6655
   -20.6650 -20.6650 -20.6650 -20.6649 -20.6645 -20.6645 -20.6641 -20.6641
   -20.6631 -20.6631 -20.6629 -20.6629 -20.6571 -20.6571 -20.6571 -20.6571
   -20.6565 -20.6565 -20.6565 -20.6565 -20.6554 -20.6554 -20.6553 -20.6553
    -9.7835  -9.7835  -9.7802  -9.7802  -9.0722  -9.0720  -9.0548  -9.0548
    -8.9514  -8.9513  -8.9372  -8.9372  -8.7544  -8.7543  -8.7329  -8.7328
    -8.7209  -8.7209  -8.6993  -8.6992  -8.0111  -8.0111  -8.0109  -8.0109
     0.8929   0.8929   0.8954   0.8954   2.6797   2.6798   2.7077   2.7077
     2.7336   2.7336   2.8384   2.8385   2.8425   2.8425   2.9417   2.9417
     2.9946   2.9947   3.0384   3.0384   3.1217   3.1217   3.1610   3.1610
     3.2104   3.2104   3.4483   3.4483   3.8391   3.8391   3.9278   3.9278
     3.9511   3.9512   4.0160   4.0160   4.6811   4.6811   4.7112   4.7113
     5.1149   5.1150   5.1858   5.1858   5.9127   5.9127   5.9143   5.9143
     6.1623   6.1623   6.1984   6.1984   6.2182   6.2182   6.2640   6.2640
     7.0138   7.0138   7.0607   7.0608   7.0999   7.1000   7.1379   7.1379
     7.1545   7.1546   7.2194   7.2195   7.4127   7.4127   7.4337   7.4338
    10.7044  10.7044  10.7647  10.7647  10.8598  10.8599  10.9281  10.9281
    11.7089  11.7090  11.7689  11.7690  11.8046  11.8046  11.8343  11.8343
    12.7896  12.7896  12.8216  12.8216  12.9401  12.9401  12.9918  12.9918
    14.9583  14.9583  14.9608  14.9608  16.3552  16.3553  16.4291  16.4291
    17.3629  17.3630  17.3701  17.3702  17.4450

          k =-0.5000-0.4965 0.1663 ( 63664 PWs)   bands (ev):

   -66.5299 -66.5299 -66.5299 -66.5299 -66.5294 -66.5294 -66.5294 -66.5293
   -30.8687 -30.8687 -30.8686 -30.8686 -30.8511 -30.8511 -30.8495 -30.8495
   -30.8480 -30.8480 -30.8461 -30.8461 -30.8299 -30.8299 -30.8283 -30.8283
   -30.8275 -30.8275 -30.8257 -30.8256 -30.7918 -30.7918 -30.7917 -30.7917
   -20.6973 -20.6973 -20.6973 -20.6973 -20.6971 -20.6971 -20.6971 -20.6971
   -20.6749 -20.6749 -20.6749 -20.6749 -20.6744 -20.6743 -20.6743 -20.6743
   -20.6694 -20.6694 -20.6694 -20.6694 -20.6686 -20.6686 -20.6686 -20.6686
   -20.6664 -20.6664 -20.6663 -20.6663 -20.6659 -20.6659 -20.6655 -20.6655
   -20.6649 -20.6649 -20.6648 -20.6648 -20.6645 -20.6645 -20.6641 -20.6641
   -20.6628 -20.6628 -20.6627 -20.6627 -20.6575 -20.6575 -20.6575 -20.6575
   -20.6565 -20.6565 -20.6565 -20.6565 -20.6555 -20.6555 -20.6554 -20.6554
    -9.7055  -9.7054  -9.7017  -9.7017  -9.0843  -9.0842  -9.0672  -9.0672
    -8.9389  -8.9388  -8.9247  -8.9247  -8.7524  -8.7524  -8.7310  -8.7309
    -8.7227  -8.7226  -8.7015  -8.7014  -8.1376  -8.1376  -8.1376  -8.1376
     1.1644   1.1644   1.1673   1.1673   2.6861   2.6861   2.7129   2.7130
     2.7559   2.7560   2.8364   2.8365   2.8477   2.8477   2.9187   2.9187
     3.0324   3.0325   3.0897   3.0897   3.1761   3.1762   3.2122   3.2122
     3.2654   3.2654   3.4825   3.4826   3.8407   3.8407   3.9215   3.9215
     3.9527   3.9528   4.0085   4.0085   4.4434   4.4434   4.4766   4.4767
     4.8282   4.8283   4.8882   4.8882   5.5180   5.5180   5.5199   5.5199
     6.4003   6.4003   6.4148   6.4148   6.4631   6.4631   6.4837   6.4838
     7.0046   7.0046   7.0618   7.0618   7.1115   7.1116   7.1265   7.1266
     7.1531   7.1531   7.2208   7.2209   7.3916   7.3917   7.4229   7.4230
    10.7996  10.7996  10.8573  10.8573  10.9605  10.9605  11.0297  11.0297
    11.7115  11.7116  11.7678  11.7678  11.8136  11.8136  11.8277  11.8277
    12.6190  12.6190  12.6813  12.6813  12.7719  12.7719  12.8326  12.8326
    15.3475  15.3476  15.3550  15.3550  16.4271  16.4272  16.4970  16.4970
    17.3322  17.3322  17.3568  17.3568  17.4350

          k =-0.5000-0.4965 0.3327 ( 63640 PWs)   bands (ev):

   -66.5298 -66.5298 -66.5298 -66.5298 -66.5295 -66.5295 -66.5295 -66.5295
   -30.8556 -30.8556 -30.8553 -30.8553 -30.8501 -30.8501 -30.8486 -30.8485
   -30.8483 -30.8482 -30.8469 -30.8469 -30.8320 -30.8320 -30.8306 -30.8306
   -30.8257 -30.8257 -30.8240 -30.8240 -30.8053 -30.8053 -30.8050 -30.8050
   -20.6973 -20.6973 -20.6973 -20.6972 -20.6971 -20.6971 -20.6971 -20.6971
   -20.6748 -20.6748 -20.6748 -20.6748 -20.6745 -20.6745 -20.6744 -20.6744
   -20.6693 -20.6692 -20.6692 -20.6692 -20.6688 -20.6688 -20.6687 -20.6687
   -20.6663 -20.6663 -20.6661 -20.6661 -20.6660 -20.6660 -20.6657 -20.6656
   -20.6648 -20.6647 -20.6645 -20.6645 -20.6645 -20.6645 -20.6642 -20.6642
   -20.6619 -20.6619 -20.6618 -20.6618 -20.6587 -20.6587 -20.6587 -20.6587
   -20.6563 -20.6563 -20.6563 -20.6563 -20.6557 -20.6557 -20.6557 -20.6557
    -9.4973  -9.4972  -9.4913  -9.4913  -9.1314  -9.1313  -9.1153  -9.1153
    -8.8893  -8.8892  -8.8760  -8.8760  -8.7471  -8.7471  -8.7305  -8.7305
    -8.7225  -8.7224  -8.7077  -8.7076  -8.4413  -8.4413  -8.4405  -8.4405
     1.8838   1.8838   1.8909   1.8909   2.6979   2.6980   2.7160   2.7161
     2.7890   2.7891   2.8342   2.8343   2.8598   2.8598   2.9118   2.9118
     3.0880   3.0880   3.1089   3.1089   3.3309   3.3309   3.4021   3.4021
     3.4522   3.4523   3.6164   3.6164   3.8108   3.8108   3.8670   3.8670
     3.9307   3.9307   3.9348   3.9348   4.0276   4.0277   4.0658   4.0659
     4.3302   4.3303   4.3918   4.3918   4.6910   4.6910   4.6962   4.6963
     6.7115   6.7115   6.7672   6.7672   6.7899   6.7899   6.8094   6.8094
     6.9781   6.9781   7.0656   7.0656   7.0779   7.0780   7.1241   7.1242
     7.1785   7.1785   7.2276   7.2276   7.3402   7.3402   7.3779   7.3780
    11.0945  11.0945  11.1387  11.1387  11.2627  11.2627  11.3324  11.3325
    11.6991  11.6991  11.7737  11.7737  11.8026  11.8026  11.8451  11.8451
    12.1776  12.1776  12.2883  12.2883  12.3381  12.3381  12.4090  12.4090
    16.2889  16.2889  16.3258  16.3258  16.6480  16.6481  16.6948  16.6948
    17.1619  17.1620  17.2091  17.2091  17.4306

          k =-0.5000-0.4965-0.4990 ( 63624 PWs)   bands (ev):

   -66.5297 -66.5297 -66.5297 -66.5297 -66.5296 -66.5296 -66.5296 -66.5296
   -30.8499 -30.8499 -30.8499 -30.8499 -30.8482 -30.8482 -30.8482 -30.8482
   -30.8398 -30.8397 -30.8397 -30.8397 -30.8380 -30.8379 -30.8379 -30.8379
   -30.8199 -30.8199 -30.8199 -30.8199 -30.8181 -30.8181 -30.8181 -30.8181
   -20.6973 -20.6972 -20.6972 -20.6972 -20.6972 -20.6972 -20.6972 -20.6972
   -20.6747 -20.6746 -20.6746 -20.6746 -20.6746 -20.6746 -20.6746 -20.6746
   -20.6691 -20.6690 -20.6690 -20.6690 -20.6690 -20.6689 -20.6689 -20.6689
   -20.6662 -20.6662 -20.6662 -20.6662 -20.6658 -20.6658 -20.6658 -20.6658
   -20.6646 -20.6646 -20.6646 -20.6646 -20.6643 -20.6643 -20.6642 -20.6642
   -20.6604 -20.6604 -20.6604 -20.6604 -20.6603 -20.6603 -20.6603 -20.6603
   -20.6561 -20.6560 -20.6560 -20.6560 -20.6560 -20.6560 -20.6560 -20.6559
    -9.2622  -9.2622  -9.2621  -9.2621  -9.2485  -9.2485  -9.2485  -9.2484
    -8.7560  -8.7560  -8.7559  -8.7559  -8.7349  -8.7348  -8.7348  -8.7348
    -8.7271  -8.7271  -8.7271  -8.7271  -8.7111  -8.7111  -8.7110  -8.7110
     2.6418   2.6418   2.6418   2.6418   2.7314   2.7314   2.7314   2.7315
     2.7993   2.7993   2.7993   2.7993   2.8617   2.8617   2.8618   2.8618
     3.0404   3.0405   3.0405   3.0405   3.1864   3.1864   3.1864   3.1864
     3.8028   3.8028   3.8028   3.8029   3.8489   3.8489   3.8489   3.8489
     3.8733   3.8733   3.8733   3.8733   3.9484   3.9484   3.9484   3.9484
     4.0278   4.0278   4.0279   4.0279   4.1140   4.1140   4.1141   4.1141
     6.8903   6.8903   6.8903   6.8903   6.9576   6.9576   6.9577   6.9577
     7.0032   7.0032   7.0033   7.0033   7.0667   7.0667   7.0668   7.0668
     7.2488   7.2488   7.2488   7.2489   7.2972   7.2972   7.2972   7.2972
    11.4812  11.4813  11.4813  11.4813  11.5709  11.5710  11.5710  11.5710
    11.7230  11.7230  11.7230  11.7230  11.8511  11.8511  11.8511  11.8511
    11.8640  11.8640  11.8640  11.8640  11.9627  11.9628  11.9628  11.9628
    16.8387  16.8387  16.8388  16.8388  16.9130  16.9130  16.9130  16.9130
    17.4199  17.4199  17.4199  17.4199  17.4575

     the Fermi energy is     9.1176 ev

!    total energy              =   -6260.96346304 Ry
     Harris-Foulkes estimate   =   -6260.96346304 Ry
     estimated scf accuracy    <          1.9E-09 Ry

     The total energy is the sum of the following terms:

     one-electron contribution =   -4817.28584392 Ry
     hartree contribution      =    2640.87377478 Ry
     xc contribution           =    -965.89938324 Ry
     ewald contribution        =   -3118.65199897 Ry
     smearing contrib. (-TS)   =      -0.00001169 Ry

     convergence has been achieved in  13 iterations

     Writing output data file Landau_18.save
 
     init_run     :     33.31s CPU     35.48s WALL (       1 calls)
     electrons    :   1360.92s CPU   1399.15s WALL (       1 calls)

     Called by init_run:
     wfcinit      :     30.57s CPU     32.59s WALL (       1 calls)
     potinit      :      1.08s CPU      1.11s WALL (       1 calls)

     Called by electrons:
     c_bands      :   1191.22s CPU   1227.04s WALL (      13 calls)
     sum_band     :    163.03s CPU    164.48s WALL (      13 calls)
     v_of_rho     :      1.36s CPU      1.39s WALL (      14 calls)
     mix_rho      :      2.75s CPU      3.43s WALL (      13 calls)

     Called by c_bands:
     init_us_2    :     10.91s CPU     11.72s WALL (      54 calls)
     cegterg      :    898.04s CPU    931.64s WALL (      26 calls)

     Called by sum_band:

     Called by *egterg:
     h_psi        :    726.75s CPU    732.29s WALL (     124 calls)
     g_psi        :      1.89s CPU      1.90s WALL (      96 calls)
     cdiaghg      :     13.23s CPU     13.29s WALL (     122 calls)

     Called by h_psi:
     h_psi:pot    :    720.37s CPU    725.50s WALL (     124 calls)
     h_psi:calbec :     72.68s CPU     75.24s WALL (     124 calls)
     vloc_psi     :    569.81s CPU    571.97s WALL (     124 calls)
     add_vuspsi   :     77.88s CPU     78.29s WALL (     124 calls)

     General routines
     calbec       :     72.68s CPU     75.24s WALL (     124 calls)
     fft          :      0.94s CPU      0.95s WALL (      56 calls)
     fftw         :    569.01s CPU    570.75s WALL (   33860 calls)
 
     Parallel routines
 
     PWSCF        : 23m16.43s CPU    23m59.11s WALL

 
   This run was terminated on:  17:28:22  20Mar2020            

=------------------------------------------------------------------------------=
   JOB DONE.
=------------------------------------------------------------------------------=
