
     Program PWSCF v.6.2 (svn rev. 14038) starts on 19Mar2020 at  4: 0:30 

     This program is part of the open-source Quantum ESPRESSO suite
     for quantum simulation of materials; please cite
         "P. Giannozzi et al., J. Phys.:Condens. Matter 21 395502 (2009);
         "P. Giannozzi et al., J. Phys.:Condens. Matter 29 465901 (2017);
          URL http://www.quantum-espresso.org", 
     in publications or presentations arising from this work. More details at
     http://www.quantum-espresso.org/quote

     Parallel version (MPI), running on    40 processors

     MPI processes distributed on     6 nodes
     K-points division:     npool     =      40
     Reading input from scf.in

     Current dimensions of program PWSCF are:
     Max number of different atomic species (ntypx) = 10
     Max number of k-points (npk) =  40000
     Max angular momentum in pseudopotentials (lmaxx) =  3

     Subspace diagonalization in iterative solution of the eigenvalue problem:
     a serial algorithm will be used

 
     G-vector sticks info
     --------------------
     sticks:   dense  smooth     PW     G-vecs:    dense   smooth      PW
     Sum        7631    7631   2057               501217   501217   69551
 


     bravais-lattice index     =            0
     lattice parameter (alat)  =      14.0236  a.u.
     unit-cell volume          =    2822.6601 (a.u.)^3
     number of atoms/cell      =           32
     number of atomic types    =            2
     number of electrons       =       368.20
     number of Kohn-Sham states=          221
     kinetic-energy cutoff     =     120.0000  Ry
     charge density cutoff     =     480.0000  Ry
     convergence threshold     =      1.0E-08
     mixing beta               =       0.7000
     number of iterations used =            8  plain     mixing
     Exchange-correlation      = SLA PW NOGX NOGC ( 1  4  0  0 0 0)

     celldm(1)=  14.023648  celldm(2)=   0.000000  celldm(3)=   0.000000
     celldm(4)=   0.000000  celldm(5)=   0.000000  celldm(6)=   0.000000

     crystal axes: (cart. coord. in units of alat)
               a(1) = (   1.000000   0.000000   0.000000 )  
               a(2) = (   0.000000   1.018161   0.000000 )  
               a(3) = (   0.000000   0.000000   1.005215 )  

     reciprocal axes: (cart. coord. in units 2 pi/alat)
               b(1) = (  1.000000  0.000000  0.000000 )  
               b(2) = (  0.000000  0.982163  0.000000 )  
               b(3) = (  0.000000  0.000000  0.994812 )  


     PseudoPot. # 1 for W  read from file:
     /cluster/scratch/mnoe/QE/pps/W_ONCV_LDA-4.0.upf
     MD5 check sum: ba0307d5d4cd419d6f1d13dc49d7c13a
     Pseudo is Norm-conserving + core correction, Zval = 28.0
     Generated using ONCVPSP code by D. R. Hamann
     Using radial grid of 1380 points,  8 beta functions with: 
                l(1) =   0
                l(2) =   0
                l(3) =   1
                l(4) =   1
                l(5) =   2
                l(6) =   2
                l(7) =   3
                l(8) =   3

     PseudoPot. # 2 for O  read from file:
     /cluster/scratch/mnoe/QE/pps/O_ONCV_LDA-3.0.upf
     MD5 check sum: a1bd6164e7280c17a38c229939bfbd54
     Pseudo is Norm-conserving + core correction, Zval =  6.0
     Generated using ONCVPSP code by D. R. Hamann
     Using radial grid of  926 points,  5 beta functions with: 
                l(1) =   0
                l(2) =   0
                l(3) =   1
                l(4) =   1
                l(5) =   2

     atomic species   valence    mass     pseudopotential
        W             28.00   183.84000     W ( 1.00)
        O              6.00    15.99940     O ( 1.00)

      8 Sym. Ops., with inversion, found ( 6 have fractional translation)



   Cartesian axes

     site n.     atom                  positions (alat units)
         1           W   tau(   1) = (   0.2333500   0.2797179   0.0158020  )
         2           W   tau(   2) = (   0.7666500   0.7384431   0.9894133  )
         3           W   tau(   3) = (   0.2666500   0.2293626   0.5184096  )
         4           W   tau(   4) = (   0.7333499   0.7887985   0.4868057  )
         5           W   tau(   5) = (   0.7666500   0.2797179   0.4868057  )
         6           W   tau(   6) = (   0.2333500   0.7384431   0.5184096  )
         7           W   tau(   7) = (   0.7333499   0.2293626   0.9894133  )
         8           W   tau(   8) = (   0.2666500   0.7887985   0.0158020  )
         9           O   tau(   9) = (   0.2192900   0.0064930   0.0049155  )
        10           O   tau(  10) = (   0.7807099   1.0116679   1.0002998  )
        11           O   tau(  11) = (   0.2807100   0.5025875   0.5075232  )
        12           O   tau(  12) = (   0.7192900   0.5155735   0.4976921  )
        13           O   tau(  13) = (   0.7807099   0.0064930   0.4976921  )
        14           O   tau(  14) = (   0.2192900   1.0116679   0.5075232  )
        15           O   tau(  15) = (   0.7192900   0.5025875   1.0002998  )
        16           O   tau(  16) = (   0.2807100   0.5155735   0.0049155  )
        17           O   tau(  17) = (   0.5045500   0.2224580   0.4694132  )
        18           O   tau(  18) = (   0.4954500   0.7957030   0.5358022  )
        19           O   tau(  19) = (   0.9954500   0.2866225   0.9720208  )
        20           O   tau(  20) = (   0.0045500   0.7315385   0.0331944  )
        21           O   tau(  21) = (   0.4954500   0.2224580   0.0331944  )
        22           O   tau(  22) = (   0.5045500   0.7957030   0.9720208  )
        23           O   tau(  23) = (   0.0045500   0.2866225   0.5358022  )
        24           O   tau(  24) = (   0.9954500   0.7315385   0.4694132  )
        25           O   tau(  25) = (   0.7169777   0.2475353   0.7469754  )
        26           O   tau(  26) = (   0.2830222   0.7706257   0.2582398  )
        27           O   tau(  27) = (   0.7830224   0.2615452   0.2443678  )
        28           O   tau(  28) = (   0.2169777   0.7566158   0.7608475  )
        29           O   tau(  29) = (   0.2830222   0.2475353   0.7608475  )
        30           O   tau(  30) = (   0.7169777   0.7706257   0.2443678  )
        31           O   tau(  31) = (   0.2169777   0.2615452   0.2582398  )
        32           O   tau(  32) = (   0.7830224   0.7566158   0.7469754  )

     number of k points=    64  gaussian smearing, width (Ry)=  0.0007
                       cart. coord. in units 2pi/alat
        k(    1) = (   0.0000000   0.0000000   0.0000000), wk =   0.0092593
        k(    2) = (   0.0000000   0.0000000   0.1658020), wk =   0.0185185
        k(    3) = (   0.0000000   0.0000000   0.3316039), wk =   0.0185185
        k(    4) = (   0.0000000   0.0000000  -0.4974059), wk =   0.0092593
        k(    5) = (   0.0000000   0.1636938   0.0000000), wk =   0.0185185
        k(    6) = (   0.0000000   0.1636938   0.1658020), wk =   0.0370370
        k(    7) = (   0.0000000   0.1636938   0.3316039), wk =   0.0370370
        k(    8) = (   0.0000000   0.1636938  -0.4974059), wk =   0.0185185
        k(    9) = (   0.0000000   0.3273877   0.0000000), wk =   0.0185185
        k(   10) = (   0.0000000   0.3273877   0.1658020), wk =   0.0370370
        k(   11) = (   0.0000000   0.3273877   0.3316039), wk =   0.0370370
        k(   12) = (   0.0000000   0.3273877  -0.4974059), wk =   0.0185185
        k(   13) = (   0.0000000  -0.4910815   0.0000000), wk =   0.0092593
        k(   14) = (   0.0000000  -0.4910815   0.1658020), wk =   0.0185185
        k(   15) = (   0.0000000  -0.4910815   0.3316039), wk =   0.0185185
        k(   16) = (   0.0000000  -0.4910815  -0.4974059), wk =   0.0092593
        k(   17) = (   0.1666667   0.0000000   0.0000000), wk =   0.0185185
        k(   18) = (   0.1666667   0.0000000   0.1658020), wk =   0.0370370
        k(   19) = (   0.1666667   0.0000000   0.3316039), wk =   0.0370370
        k(   20) = (   0.1666667   0.0000000  -0.4974059), wk =   0.0185185
        k(   21) = (   0.1666667   0.1636938   0.0000000), wk =   0.0370370
        k(   22) = (   0.1666667   0.1636938   0.1658020), wk =   0.0740741
        k(   23) = (   0.1666667   0.1636938   0.3316039), wk =   0.0740741
        k(   24) = (   0.1666667   0.1636938  -0.4974059), wk =   0.0370370
        k(   25) = (   0.1666667   0.3273877   0.0000000), wk =   0.0370370
        k(   26) = (   0.1666667   0.3273877   0.1658020), wk =   0.0740741
        k(   27) = (   0.1666667   0.3273877   0.3316039), wk =   0.0740741
        k(   28) = (   0.1666667   0.3273877  -0.4974059), wk =   0.0370370
        k(   29) = (   0.1666667  -0.4910815   0.0000000), wk =   0.0185185
        k(   30) = (   0.1666667  -0.4910815   0.1658020), wk =   0.0370370
        k(   31) = (   0.1666667  -0.4910815   0.3316039), wk =   0.0370370
        k(   32) = (   0.1666667  -0.4910815  -0.4974059), wk =   0.0185185
        k(   33) = (   0.3333333   0.0000000   0.0000000), wk =   0.0185185
        k(   34) = (   0.3333333   0.0000000   0.1658020), wk =   0.0370370
        k(   35) = (   0.3333333   0.0000000   0.3316039), wk =   0.0370370
        k(   36) = (   0.3333333   0.0000000  -0.4974059), wk =   0.0185185
        k(   37) = (   0.3333333   0.1636938   0.0000000), wk =   0.0370370
        k(   38) = (   0.3333333   0.1636938   0.1658020), wk =   0.0740741
        k(   39) = (   0.3333333   0.1636938   0.3316039), wk =   0.0740741
        k(   40) = (   0.3333333   0.1636938  -0.4974059), wk =   0.0370370
        k(   41) = (   0.3333333   0.3273877   0.0000000), wk =   0.0370370
        k(   42) = (   0.3333333   0.3273877   0.1658020), wk =   0.0740741
        k(   43) = (   0.3333333   0.3273877   0.3316039), wk =   0.0740741
        k(   44) = (   0.3333333   0.3273877  -0.4974059), wk =   0.0370370
        k(   45) = (   0.3333333  -0.4910815   0.0000000), wk =   0.0185185
        k(   46) = (   0.3333333  -0.4910815   0.1658020), wk =   0.0370370
        k(   47) = (   0.3333333  -0.4910815   0.3316039), wk =   0.0370370
        k(   48) = (   0.3333333  -0.4910815  -0.4974059), wk =   0.0185185
        k(   49) = (  -0.5000000   0.0000000   0.0000000), wk =   0.0092593
        k(   50) = (  -0.5000000   0.0000000   0.1658020), wk =   0.0185185
        k(   51) = (  -0.5000000   0.0000000   0.3316039), wk =   0.0185185
        k(   52) = (  -0.5000000   0.0000000  -0.4974059), wk =   0.0092593
        k(   53) = (  -0.5000000   0.1636938   0.0000000), wk =   0.0185185
        k(   54) = (  -0.5000000   0.1636938   0.1658020), wk =   0.0370370
        k(   55) = (  -0.5000000   0.1636938   0.3316039), wk =   0.0370370
        k(   56) = (  -0.5000000   0.1636938  -0.4974059), wk =   0.0185185
        k(   57) = (  -0.5000000   0.3273877   0.0000000), wk =   0.0185185
        k(   58) = (  -0.5000000   0.3273877   0.1658020), wk =   0.0370370
        k(   59) = (  -0.5000000   0.3273877   0.3316039), wk =   0.0370370
        k(   60) = (  -0.5000000   0.3273877  -0.4974059), wk =   0.0185185
        k(   61) = (  -0.5000000  -0.4910815   0.0000000), wk =   0.0092593
        k(   62) = (  -0.5000000  -0.4910815   0.1658020), wk =   0.0185185
        k(   63) = (  -0.5000000  -0.4910815   0.3316039), wk =   0.0185185
        k(   64) = (  -0.5000000  -0.4910815  -0.4974059), wk =   0.0092593

     Dense  grid:   501217 G-vectors     FFT dimensions: ( 100, 100, 100)

     Estimated max dynamical RAM per process >       3.14 GB

     Estimated total dynamical RAM >     125.63 GB

     Initial potential from superposition of free atoms

     starting charge  367.99656, renormalised to  368.20000
     Starting wfc are  232 randomized atomic wfcs

     total cpu time spent up to now is       48.0 secs

     Self-consistent Calculation

     iteration #  1     ecut=   120.00 Ry     beta= 0.70
     Davidson diagonalization with overlap
     ethr =  1.00E-02,  avg # of iterations =  5.1

     total cpu time spent up to now is      215.5 secs

     total energy              =   -6253.81784875 Ry
     Harris-Foulkes estimate   =   -6264.47951574 Ry
     estimated scf accuracy    <      13.47911914 Ry

     iteration #  2     ecut=   120.00 Ry     beta= 0.70
     Davidson diagonalization with overlap
     ethr =  3.66E-03,  avg # of iterations =  3.6

     total cpu time spent up to now is      381.5 secs

     total energy              =   -6250.65275794 Ry
     Harris-Foulkes estimate   =   -6270.59176182 Ry
     estimated scf accuracy    <      53.42998778 Ry

     iteration #  3     ecut=   120.00 Ry     beta= 0.70
     Davidson diagonalization with overlap
     ethr =  3.66E-03,  avg # of iterations =  3.5

     total cpu time spent up to now is      537.2 secs

     total energy              =   -6260.95872601 Ry
     Harris-Foulkes estimate   =   -6261.22988130 Ry
     estimated scf accuracy    <       0.89639665 Ry

     iteration #  4     ecut=   120.00 Ry     beta= 0.70
     Davidson diagonalization with overlap
     ethr =  2.43E-04,  avg # of iterations =  2.9

     total cpu time spent up to now is      664.2 secs

     total energy              =   -6260.93489476 Ry
     Harris-Foulkes estimate   =   -6261.01871764 Ry
     estimated scf accuracy    <       0.21108243 Ry

     iteration #  5     ecut=   120.00 Ry     beta= 0.70
     Davidson diagonalization with overlap
     ethr =  5.73E-05,  avg # of iterations =  5.5

     total cpu time spent up to now is      807.5 secs

     total energy              =   -6260.96182686 Ry
     Harris-Foulkes estimate   =   -6260.97992626 Ry
     estimated scf accuracy    <       0.04581643 Ry

     iteration #  6     ecut=   120.00 Ry     beta= 0.70
     Davidson diagonalization with overlap
     ethr =  1.24E-05,  avg # of iterations =  5.2

     total cpu time spent up to now is      947.6 secs

     total energy              =   -6260.96950226 Ry
     Harris-Foulkes estimate   =   -6260.97245403 Ry
     estimated scf accuracy    <       0.00821050 Ry

     iteration #  7     ecut=   120.00 Ry     beta= 0.70
     Davidson diagonalization with overlap
     ethr =  2.23E-06,  avg # of iterations =  5.6

     total cpu time spent up to now is     1088.7 secs

     total energy              =   -6260.97039058 Ry
     Harris-Foulkes estimate   =   -6260.97054079 Ry
     estimated scf accuracy    <       0.00027857 Ry

     iteration #  8     ecut=   120.00 Ry     beta= 0.70
     Davidson diagonalization with overlap
     ethr =  7.57E-08,  avg # of iterations =  3.0

     total cpu time spent up to now is     1248.7 secs

     total energy              =   -6260.97049385 Ry
     Harris-Foulkes estimate   =   -6260.97050766 Ry
     estimated scf accuracy    <       0.00005984 Ry

     iteration #  9     ecut=   120.00 Ry     beta= 0.70
     Davidson diagonalization with overlap
     ethr =  1.63E-08,  avg # of iterations =  2.0

     total cpu time spent up to now is     1371.1 secs

     total energy              =   -6260.97049173 Ry
     Harris-Foulkes estimate   =   -6260.97049868 Ry
     estimated scf accuracy    <       0.00002831 Ry

     iteration # 10     ecut=   120.00 Ry     beta= 0.70
     Davidson diagonalization with overlap
     ethr =  7.69E-09,  avg # of iterations =  1.9

     total cpu time spent up to now is     1492.2 secs

     total energy              =   -6260.97049064 Ry
     Harris-Foulkes estimate   =   -6260.97049402 Ry
     estimated scf accuracy    <       0.00000808 Ry

     iteration # 11     ecut=   120.00 Ry     beta= 0.70
     Davidson diagonalization with overlap
     ethr =  2.20E-09,  avg # of iterations =  2.8

     total cpu time spent up to now is     1621.9 secs

     total energy              =   -6260.97049229 Ry
     Harris-Foulkes estimate   =   -6260.97049234 Ry
     estimated scf accuracy    <       0.00000010 Ry

     iteration # 12     ecut=   120.00 Ry     beta= 0.70
     Davidson diagonalization with overlap
     ethr =  2.80E-11,  avg # of iterations =  2.7

     total cpu time spent up to now is     1782.5 secs

     total energy              =   -6260.97049231 Ry
     Harris-Foulkes estimate   =   -6260.97049232 Ry
     estimated scf accuracy    <       0.00000002 Ry

     iteration # 13     ecut=   120.00 Ry     beta= 0.70
     Davidson diagonalization with overlap
     ethr =  5.27E-12,  avg # of iterations =  2.2

     total cpu time spent up to now is     1925.7 secs

     End of self-consistent calculation

          k = 0.0000 0.0000 0.0000 ( 62665 PWs)   bands (ev):

   -66.2266 -66.2259 -66.2259 -66.2258 -66.2252 -66.2251 -66.2250 -66.2244
   -30.6124 -30.6055 -30.6053 -30.6021 -30.5998 -30.5953 -30.5927 -30.5866
   -30.5850 -30.5779 -30.5745 -30.5617 -30.5284 -30.5272 -30.5244 -30.5103
   -30.5099 -30.5079 -30.5013 -30.4937 -30.4905 -30.4834 -30.4816 -30.4725
   -20.3871 -20.3870 -20.3868 -20.3867 -20.3866 -20.3865 -20.3862 -20.3861
   -20.3675 -20.3675 -20.3671 -20.3671 -20.3669 -20.3667 -20.3664 -20.3663
   -20.3615 -20.3612 -20.3611 -20.3608 -20.3608 -20.3605 -20.3605 -20.3602
   -20.3576 -20.3571 -20.3561 -20.3556 -20.3554 -20.3554 -20.3549 -20.3546
   -20.3546 -20.3545 -20.3516 -20.3515 -20.3509 -20.3507 -20.3495 -20.3487
   -20.3485 -20.3479 -20.3478 -20.3467 -20.3464 -20.3462 -20.3453 -20.3447
   -20.3382 -20.3382 -20.3371 -20.3371 -20.3369 -20.3369 -20.3359 -20.3358
   -10.0166  -9.6860  -9.6323  -9.6214  -9.3267  -9.2878  -9.2371  -9.0689
    -9.0356  -9.0182  -8.9900  -8.9827  -7.9494  -7.8865  -7.8537  -7.8273
    -7.8140  -7.8130  -7.8098  -7.7924  -7.7664  -7.7466  -7.7449  -7.7350
     1.1395   1.1565   1.1902   1.2189   1.2209   1.2232   1.3150   1.3746
     1.4523   1.4766   1.5321   1.7242   2.3922   2.4407   2.5045   2.5116
     2.5589   2.6473   4.1386   4.2400   4.3334   4.5242   4.5415   4.5423
     4.5831   4.5963   4.6068   4.6724   4.8296   4.8926   5.1989   5.3033
     5.3930   5.3955   5.5160   5.5203   5.5287   5.5877   5.6342   5.6560
     5.6589   5.7163   5.7900   5.8995   5.9253   5.9559   5.9873   6.0201
     6.0547   6.2887   6.2967   6.3021   6.3139   6.5779   6.8087   6.8206
     6.8560   6.8725   6.9249   6.9593   6.9619   6.9860   6.9881   6.9987
     7.0654   7.0694   7.8667   7.8751   7.9309   7.9571   8.0940   8.1270
     9.4682   9.5149   9.7184   9.7610   9.7687   9.8079  12.1516  12.3324
    12.3709  12.4594  12.5272  12.5349  12.5580  12.5721  12.6511  12.7556
    12.9493  13.0276  13.1596  13.4061  13.4468  13.5574  13.9577  13.9621
    14.5054  14.5975  14.8012  14.8332  14.9621  15.0253  15.6985  15.7042
    15.8713  16.7879  16.8407  16.9930  17.2495

          k = 0.0000 0.0000 0.1658 ( 62683 PWs)   bands (ev):

   -66.2265 -66.2259 -66.2259 -66.2257 -66.2253 -66.2251 -66.2251 -66.2245
   -30.6114 -30.6057 -30.6035 -30.5978 -30.5967 -30.5931 -30.5901 -30.5854
   -30.5851 -30.5752 -30.5743 -30.5596 -30.5317 -30.5294 -30.5240 -30.5140
   -30.5132 -30.5074 -30.5065 -30.4933 -30.4930 -30.4850 -30.4812 -30.4737
   -20.3871 -20.3870 -20.3868 -20.3867 -20.3866 -20.3865 -20.3863 -20.3862
   -20.3675 -20.3674 -20.3671 -20.3670 -20.3669 -20.3668 -20.3665 -20.3664
   -20.3615 -20.3612 -20.3611 -20.3609 -20.3608 -20.3606 -20.3606 -20.3602
   -20.3574 -20.3569 -20.3561 -20.3556 -20.3554 -20.3551 -20.3549 -20.3546
   -20.3545 -20.3541 -20.3514 -20.3513 -20.3512 -20.3508 -20.3495 -20.3486
   -20.3486 -20.3481 -20.3477 -20.3470 -20.3464 -20.3463 -20.3457 -20.3450
   -20.3382 -20.3381 -20.3372 -20.3372 -20.3369 -20.3369 -20.3360 -20.3359
    -9.9742  -9.6460  -9.6328  -9.5662  -9.2981  -9.2452  -9.2409  -9.0309
    -9.0082  -9.0000  -8.9854  -8.9576  -7.9990  -7.9960  -7.9168  -7.9120
    -7.8716  -7.8577  -7.8226  -7.8111  -7.7748  -7.7705  -7.7514  -7.7478
     1.2080   1.2206   1.2526   1.3050   1.3150   1.3291   1.3725   1.4760
     1.5297   1.5978   1.6274   1.8312   2.4495   2.4766   2.5517   2.5871
     2.5937   2.7276   4.0828   4.1413   4.2520   4.3107   4.3733   4.4165
     4.5083   4.5149   4.6158   4.6552   4.7255   4.8491   5.1402   5.1971
     5.2773   5.3277   5.3997   5.4356   5.5348   5.5351   5.5538   5.5992
     5.7162   5.7260   5.7630   5.8346   5.9325   5.9414   6.0427   6.0602
     6.0684   6.2880   6.3903   6.4390   6.5724   6.6678   6.6889   6.7098
     6.7440   6.7897   6.8509   6.8762   6.9078   6.9390   6.9454   6.9785
     6.9853   6.9937   7.8603   7.8851   7.8910   7.9404   8.0339   8.0752
     9.6606   9.7182   9.7952   9.8638  10.0146  10.0754  12.1855  12.2829
    12.3342  12.3733  12.4374  12.5678  12.6040  12.6219  12.6455  12.6527
    12.8900  12.9704  13.1696  13.4246  13.4481  13.6218  13.8283  13.8479
    14.6467  14.6717  14.8307  14.9020  15.0329  15.1296  15.6703  15.8433
    16.0449  16.7119  16.9548  17.0129  17.3366

          k = 0.0000 0.0000 0.3316 ( 62613 PWs)   bands (ev):

   -66.2264 -66.2260 -66.2258 -66.2256 -66.2254 -66.2252 -66.2249 -66.2246
   -30.6096 -30.6066 -30.5997 -30.5944 -30.5908 -30.5890 -30.5864 -30.5775
   -30.5774 -30.5751 -30.5628 -30.5520 -30.5425 -30.5388 -30.5267 -30.5230
   -30.5201 -30.5183 -30.5058 -30.4983 -30.4922 -30.4881 -30.4801 -30.4761
   -20.3870 -20.3869 -20.3867 -20.3867 -20.3866 -20.3865 -20.3864 -20.3863
   -20.3674 -20.3673 -20.3670 -20.3670 -20.3669 -20.3669 -20.3666 -20.3665
   -20.3614 -20.3611 -20.3610 -20.3610 -20.3607 -20.3607 -20.3607 -20.3604
   -20.3570 -20.3565 -20.3563 -20.3558 -20.3553 -20.3550 -20.3548 -20.3546
   -20.3540 -20.3532 -20.3518 -20.3513 -20.3507 -20.3504 -20.3492 -20.3490
   -20.3484 -20.3483 -20.3480 -20.3476 -20.3471 -20.3465 -20.3462 -20.3454
   -20.3380 -20.3379 -20.3374 -20.3374 -20.3367 -20.3367 -20.3362 -20.3361
    -9.8725  -9.6889  -9.5099  -9.4402  -9.3317  -9.2724  -9.0125  -8.9968
    -8.9926  -8.8720  -8.8702  -8.8339  -8.2822  -8.2745  -8.2265  -8.2233
    -7.8948  -7.8687  -7.8120  -7.8003  -7.7819  -7.7753  -7.7646  -7.7556
     1.2104   1.2155   1.3121   1.3160   1.3534   1.3679   1.4808   1.5244
     2.1723   2.2532   2.2716   2.3840   2.4692   2.5392   2.7161   2.8218
     2.8327   2.9515   3.6414   3.7761   3.7889   3.9328   3.9539   4.2275
     4.3647   4.4718   4.4872   4.5096   4.6001   4.6883   4.8077   4.9614
     4.9948   5.0516   5.1359   5.2539   5.2761   5.4007   5.6292   5.7093
     5.7374   5.7443   5.7600   5.9049   5.9676   5.9839   6.0745   6.1088
     6.1242   6.2478   6.3123   6.3139   6.4176   6.4947   6.5688   6.6548
     6.7025   6.8192   6.9273   6.9577   6.9614   6.9829   7.0236   7.0708
     7.1001   7.1722   7.7451   7.7473   7.8475   7.9068   7.9083   7.9223
     9.7106   9.7169  10.4404  10.4869  10.6324  10.7078  11.8752  11.9245
    12.0524  12.1632  12.2729  12.3946  12.6570  12.7051  12.7204  12.7476
    12.8447  13.0539  13.1354  13.2734  13.4563  13.5133  13.5662  13.5888
    14.7589  14.8225  15.0577  15.1571  15.2959  15.5768  15.6950  15.7525
    16.1655  16.9663  17.2774  17.4947  17.5655

          k = 0.0000 0.0000-0.4974 ( 62654 PWs)   bands (ev):

   -66.2262 -66.2262 -66.2256 -66.2256 -66.2254 -66.2254 -66.2248 -66.2248
   -30.6080 -30.6080 -30.5966 -30.5966 -30.5880 -30.5880 -30.5818 -30.5818
   -30.5598 -30.5598 -30.5562 -30.5562 -30.5451 -30.5451 -30.5376 -30.5375
   -30.5213 -30.5213 -30.5028 -30.5028 -30.4905 -30.4905 -30.4784 -30.4784
   -20.3869 -20.3869 -20.3867 -20.3867 -20.3865 -20.3865 -20.3864 -20.3864
   -20.3672 -20.3672 -20.3671 -20.3671 -20.3668 -20.3668 -20.3667 -20.3667
   -20.3612 -20.3612 -20.3610 -20.3610 -20.3609 -20.3609 -20.3605 -20.3605
   -20.3566 -20.3566 -20.3561 -20.3561 -20.3551 -20.3551 -20.3547 -20.3547
   -20.3528 -20.3528 -20.3521 -20.3521 -20.3498 -20.3498 -20.3493 -20.3493
   -20.3489 -20.3489 -20.3478 -20.3478 -20.3472 -20.3472 -20.3459 -20.3459
   -20.3377 -20.3377 -20.3377 -20.3377 -20.3364 -20.3364 -20.3364 -20.3364
    -9.7657  -9.7657  -9.3982  -9.3982  -9.3314  -9.3314  -9.0024  -9.0024
    -8.6399  -8.6398  -8.6123  -8.6123  -8.6057  -8.6057  -8.5736  -8.5735
    -7.8832  -7.8832  -7.7971  -7.7971  -7.7826  -7.7826  -7.7660  -7.7660
     1.2118   1.2118   1.3179   1.3179   1.3626   1.3626   1.5150   1.5150
     2.4937   2.4937   2.9822   2.9822   3.0421   3.0421   3.0730   3.0730
     3.1224   3.1224   3.2016   3.2016   3.4803   3.4804   3.6348   3.6348
     3.6655   3.6655   4.4505   4.4505   4.5605   4.5605   4.9592   4.9592
     5.0866   5.0866   5.1195   5.1195   5.2047   5.2048   5.6814   5.6814
     5.8278   5.8278   5.8612   5.8612   5.9442   5.9442   6.0847   6.0847
     6.1491   6.1491   6.1752   6.1752   6.4651   6.4651   6.4658   6.4658
     6.7177   6.7177   6.9490   6.9490   6.9750   6.9750   7.4510   7.4510
     7.4701   7.4701   7.5238   7.5238   7.6002   7.6002   7.9179   7.9179
     9.7149   9.7149  11.1955  11.1955  11.2528  11.2528  11.3809  11.3810
    11.4664  11.4664  12.3610  12.3610  12.6713  12.6713  12.9648  12.9648
    12.9648  12.9648  13.1540  13.1540  13.2528  13.2528  13.4909  13.4909
    14.8047  14.8047  15.3869  15.3869  15.5767  15.5767  15.6087  15.6087
    16.5515  16.5515  17.8744  17.8745  17.9438

          k = 0.0000 0.1637 0.0000 ( 62670 PWs)   bands (ev):

   -66.2265 -66.2260 -66.2258 -66.2257 -66.2253 -66.2252 -66.2250 -66.2244
   -30.6093 -30.6031 -30.6020 -30.6020 -30.5998 -30.5952 -30.5879 -30.5873
   -30.5856 -30.5761 -30.5724 -30.5596 -30.5310 -30.5307 -30.5279 -30.5128
   -30.5103 -30.5100 -30.5013 -30.4932 -30.4927 -30.4832 -30.4830 -30.4739
   -20.3871 -20.3870 -20.3868 -20.3867 -20.3865 -20.3864 -20.3862 -20.3861
   -20.3675 -20.3675 -20.3671 -20.3671 -20.3668 -20.3667 -20.3664 -20.3663
   -20.3614 -20.3611 -20.3611 -20.3608 -20.3607 -20.3605 -20.3604 -20.3602
   -20.3575 -20.3570 -20.3558 -20.3555 -20.3555 -20.3551 -20.3548 -20.3548
   -20.3547 -20.3545 -20.3515 -20.3515 -20.3513 -20.3510 -20.3497 -20.3491
   -20.3484 -20.3479 -20.3477 -20.3466 -20.3465 -20.3462 -20.3453 -20.3448
   -20.3382 -20.3382 -20.3371 -20.3371 -20.3370 -20.3369 -20.3359 -20.3358
    -9.9812  -9.6986  -9.5866  -9.5794  -9.3341  -9.2972  -9.1553  -9.0653
    -9.0377  -8.9707  -8.9485  -8.9437  -8.0091  -7.9428  -7.9134  -7.8856
    -7.8788  -7.8597  -7.8175  -7.8123  -7.7901  -7.7879  -7.7535  -7.7504
     1.1401   1.1545   1.2158   1.2200   1.2793   1.3153   1.3395   1.4763
     1.6004   1.6675   1.7290   1.8724   2.4013   2.4907   2.5329   2.5907
     2.6354   2.7329   3.9763   4.0553   4.1149   4.2225   4.4766   4.5190
     4.5680   4.5946   4.6057   4.7379   4.7947   4.8174   5.0876   5.2171
     5.2761   5.3536   5.4481   5.5649   5.5686   5.5700   5.5874   5.6156
     5.6171   5.7163   5.7246   5.9048   5.9438   5.9815   5.9819   6.0313
     6.0517   6.2415   6.3207   6.3403   6.4183   6.6159   6.6972   6.7423
     6.8377   6.8685   6.8702   6.9069   6.9154   6.9356   6.9911   6.9957
     7.0620   7.0781   7.8438   7.8561   7.9292   7.9530   8.0491   8.0542
     9.4908   9.5217   9.9377   9.9706   9.9915  10.0007  12.0781  12.3406
    12.3544  12.4121  12.4570  12.4761  12.4846  12.5088  12.5640  12.7796
    12.9230  12.9979  13.1475  13.4048  13.4722  13.6501  13.8434  13.8623
    14.7163  14.7619  14.8973  14.9405  14.9592  15.0293  15.6878  15.8381
    16.0892  16.5352  17.0032  17.1579  17.3198

          k = 0.0000 0.1637 0.1658 ( 62662 PWs)   bands (ev):

   -66.2265 -66.2259 -66.2259 -66.2257 -66.2253 -66.2251 -66.2250 -66.2245
   -30.6081 -30.6027 -30.6004 -30.5977 -30.5968 -30.5900 -30.5883 -30.5859
   -30.5858 -30.5737 -30.5723 -30.5577 -30.5340 -30.5325 -30.5276 -30.5142
   -30.5141 -30.5118 -30.5064 -30.4956 -30.4929 -30.4846 -30.4828 -30.4751
   -20.3871 -20.3870 -20.3868 -20.3867 -20.3866 -20.3865 -20.3863 -20.3862
   -20.3675 -20.3674 -20.3671 -20.3670 -20.3669 -20.3668 -20.3665 -20.3664
   -20.3614 -20.3611 -20.3611 -20.3608 -20.3608 -20.3606 -20.3605 -20.3602
   -20.3573 -20.3568 -20.3559 -20.3555 -20.3552 -20.3551 -20.3548 -20.3547
   -20.3546 -20.3542 -20.3515 -20.3513 -20.3512 -20.3511 -20.3496 -20.3490
   -20.3485 -20.3481 -20.3477 -20.3470 -20.3466 -20.3464 -20.3457 -20.3450
   -20.3382 -20.3381 -20.3372 -20.3372 -20.3369 -20.3369 -20.3360 -20.3359
    -9.9373  -9.6455  -9.6001  -9.5193  -9.3078  -9.2484  -9.1634  -9.0277
    -9.0020  -8.9618  -8.9466  -8.9210  -8.0324  -7.9939  -7.9604  -7.9364
    -7.9192  -7.9145  -7.8795  -7.8493  -7.8448  -7.8147  -7.7926  -7.7552
     1.2479   1.2527   1.2776   1.3152   1.4222   1.4428   1.4770   1.6023
     1.6274   1.7189   1.7270   1.9368   2.4858   2.5255   2.5870   2.6302
     2.6737   2.8128   3.9894   4.0341   4.1126   4.1839   4.2846   4.2993
     4.4636   4.4751   4.5838   4.6084   4.6392   4.8010   5.0636   5.1005
     5.1989   5.2670   5.3245   5.3474   5.4331   5.5432   5.5530   5.6194
     5.6827   5.7040   5.7597   5.8707   5.8944   5.9417   5.9840   6.0409
     6.1324   6.3012   6.3886   6.4587   6.6011   6.6387   6.6825   6.7073
     6.7768   6.8258   6.8391   6.8392   6.8881   6.8992   6.9109   6.9330
     6.9682   6.9889   7.8373   7.8653   7.8898   7.9297   7.9915   8.0111
     9.7638   9.8042   9.9720  10.0216  10.1584  10.2224  12.1259  12.2737
    12.3408  12.3941  12.4039  12.4541  12.4841  12.5541  12.6083  12.6558
    12.8366  12.9411  13.1590  13.4055  13.4729  13.6814  13.7117  13.7554
    14.8233  14.8764  14.9677  14.9930  15.0291  15.1517  15.8094  16.0286
    16.0609  16.6902  16.8558  17.1484  17.4046

          k = 0.0000 0.1637 0.3316 ( 62667 PWs)   bands (ev):

   -66.2264 -66.2260 -66.2258 -66.2255 -66.2254 -66.2252 -66.2250 -66.2246
   -30.6064 -30.6035 -30.5958 -30.5910 -30.5902 -30.5881 -30.5869 -30.5778
   -30.5757 -30.5753 -30.5621 -30.5506 -30.5439 -30.5403 -30.5268 -30.5265
   -30.5205 -30.5199 -30.5102 -30.5017 -30.4918 -30.4877 -30.4817 -30.4776
   -20.3870 -20.3869 -20.3867 -20.3867 -20.3866 -20.3866 -20.3864 -20.3863
   -20.3674 -20.3673 -20.3670 -20.3670 -20.3669 -20.3669 -20.3666 -20.3665
   -20.3613 -20.3610 -20.3610 -20.3609 -20.3607 -20.3607 -20.3606 -20.3604
   -20.3568 -20.3563 -20.3560 -20.3556 -20.3551 -20.3549 -20.3548 -20.3547
   -20.3541 -20.3533 -20.3521 -20.3515 -20.3507 -20.3504 -20.3494 -20.3489
   -20.3487 -20.3483 -20.3480 -20.3475 -20.3472 -20.3464 -20.3463 -20.3456
   -20.3380 -20.3379 -20.3374 -20.3374 -20.3367 -20.3367 -20.3362 -20.3361
    -9.8319  -9.6435  -9.5226  -9.3782  -9.3420  -9.1914  -9.0046  -8.9783
    -8.9538  -8.8725  -8.8600  -8.8127  -8.2819  -8.2795  -8.2365  -8.2204
    -7.9698  -7.9505  -7.8905  -7.8713  -7.8403  -7.8056  -7.8041  -7.7684
     1.2737   1.2758   1.3119   1.3161   1.5771   1.5931   1.6645   1.7206
     2.1727   2.2581   2.2724   2.3990   2.5475   2.6132   2.7261   2.8264
     2.9091   3.0332   3.6543   3.7773   3.8050   3.8967   3.9954   4.1128
     4.2293   4.3521   4.4081   4.4148   4.4519   4.6284   4.6483   4.8643
     4.9677   4.9910   5.0306   5.0696   5.2213   5.4116   5.4667   5.6562
     5.6802   5.7264   5.7914   5.8172   5.8741   5.9668   5.9860   6.0287
     6.2272   6.2888   6.3639   6.4113   6.4548   6.6081   6.6346   6.7115
     6.7670   6.8270   6.8374   6.8620   6.8938   6.9041   7.0679   7.0789
     7.1092   7.1824   7.7417   7.7464   7.8201   7.8600   7.8795   7.8954
     9.9633   9.9739  10.4529  10.4937  10.7271  10.7993  11.8822  11.9239
    12.0824  12.1991  12.2604  12.4402  12.4982  12.5742  12.5994  12.7186
    12.7589  13.0191  13.1405  13.2043  13.3837  13.4793  13.5085  13.6113
    14.8817  14.9124  15.2840  15.2852  15.3809  15.7212  15.7387  15.9702
    16.3032  16.9456  17.1552  17.3502  17.6132

          k = 0.0000 0.1637-0.4974 ( 62662 PWs)   bands (ev):

   -66.2262 -66.2262 -66.2256 -66.2256 -66.2254 -66.2253 -66.2248 -66.2248
   -30.6048 -30.6048 -30.5922 -30.5922 -30.5884 -30.5884 -30.5805 -30.5805
   -30.5604 -30.5604 -30.5567 -30.5567 -30.5449 -30.5449 -30.5369 -30.5369
   -30.5245 -30.5245 -30.5069 -30.5069 -30.4901 -30.4901 -30.4799 -30.4799
   -20.3868 -20.3868 -20.3867 -20.3867 -20.3865 -20.3865 -20.3864 -20.3864
   -20.3672 -20.3672 -20.3671 -20.3671 -20.3668 -20.3668 -20.3667 -20.3667
   -20.3611 -20.3611 -20.3609 -20.3609 -20.3609 -20.3608 -20.3605 -20.3605
   -20.3563 -20.3563 -20.3559 -20.3559 -20.3550 -20.3550 -20.3547 -20.3547
   -20.3530 -20.3530 -20.3523 -20.3523 -20.3497 -20.3497 -20.3492 -20.3492
   -20.3490 -20.3490 -20.3480 -20.3480 -20.3471 -20.3471 -20.3460 -20.3460
   -20.3377 -20.3377 -20.3377 -20.3377 -20.3364 -20.3364 -20.3364 -20.3364
    -9.7218  -9.7218  -9.4098  -9.4098  -9.2551  -9.2551  -8.9642  -8.9642
    -8.6478  -8.6477  -8.6100  -8.6100  -8.6075  -8.6075  -8.5664  -8.5663
    -7.9623  -7.9623  -7.8819  -7.8819  -7.8233  -7.8233  -7.7864  -7.7864
     1.2753   1.2753   1.3178   1.3178   1.5922   1.5922   1.7085   1.7085
     2.5695   2.5695   2.9940   2.9940   3.0591   3.0591   3.0678   3.0678
     3.1198   3.1198   3.2525   3.2525   3.4698   3.4698   3.6716   3.6716
     3.7134   3.7134   4.2933   4.2933   4.3568   4.3568   4.7221   4.7221
     4.9594   4.9594   5.0928   5.0929   5.2055   5.2055   5.5441   5.5441
     5.7297   5.7297   5.7728   5.7728   5.9044   5.9044   6.0621   6.0621
     6.2195   6.2195   6.2851   6.2852   6.4612   6.4612   6.6524   6.6525
     6.7951   6.7951   6.8568   6.8568   6.8855   6.8855   7.4592   7.4592
     7.4672   7.4672   7.5183   7.5183   7.5791   7.5791   7.8877   7.8877
     9.9725   9.9725  11.2043  11.2043  11.2539  11.2539  11.4426  11.4426
    11.5231  11.5231  12.3932  12.3932  12.5111  12.5111  12.8638  12.8638
    12.9746  12.9746  13.0130  13.0130  13.2163  13.2163  13.5102  13.5102
    14.9029  14.9029  15.5522  15.5522  15.7152  15.7152  15.7838  15.7838
    16.6249  16.6249  17.6432  17.6432  17.9650

          k = 0.0000 0.3274 0.0000 ( 62742 PWs)   bands (ev):

   -66.2264 -66.2261 -66.2257 -66.2256 -66.2254 -66.2253 -66.2249 -66.2246
   -30.6027 -30.6016 -30.5994 -30.5983 -30.5954 -30.5951 -30.5897 -30.5872
   -30.5750 -30.5687 -30.5650 -30.5526 -30.5415 -30.5401 -30.5380 -30.5249
   -30.5106 -30.5102 -30.5010 -30.4969 -30.4919 -30.4865 -30.4819 -30.4770
   -20.3871 -20.3869 -20.3869 -20.3868 -20.3865 -20.3864 -20.3863 -20.3862
   -20.3675 -20.3675 -20.3671 -20.3671 -20.3668 -20.3667 -20.3664 -20.3664
   -20.3612 -20.3611 -20.3609 -20.3608 -20.3606 -20.3605 -20.3603 -20.3601
   -20.3570 -20.3565 -20.3558 -20.3554 -20.3553 -20.3552 -20.3549 -20.3546
   -20.3544 -20.3543 -20.3522 -20.3519 -20.3512 -20.3512 -20.3502 -20.3498
   -20.3483 -20.3480 -20.3475 -20.3469 -20.3466 -20.3464 -20.3453 -20.3450
   -20.3382 -20.3382 -20.3371 -20.3371 -20.3370 -20.3370 -20.3359 -20.3358
    -9.8962  -9.7377  -9.4881  -9.4814  -9.3585  -9.3275  -9.0589  -9.0433
    -8.9238  -8.8158  -8.8087  -8.8023  -8.2615  -8.2204  -8.1970  -8.1771
    -7.8870  -7.8841  -7.8207  -7.8177  -7.7864  -7.7839  -7.7655  -7.7605
     1.1421   1.1501   1.2228   1.2272   1.3108   1.3161   1.4440   1.4750
     2.2081   2.2954   2.3735   2.4134   2.4719   2.4755   2.7536   2.8535
     2.8712   3.0052   3.5472   3.5593   3.7088   3.7342   4.0318   4.3452
     4.4719   4.5135   4.5761   4.5889   4.6601   4.7196   4.9026   4.9229
     5.0199   5.0517   5.2499   5.2928   5.4559   5.4634   5.6200   5.6717
     5.7684   5.7748   5.7881   5.9179   5.9193   5.9678   5.9792   6.0425
     6.0914   6.1424   6.2896   6.3938   6.4349   6.4802   6.6426   6.7229
     6.7397   6.8646   6.9802   6.9882   7.0455   7.0608   7.0712   7.0762
     7.0874   7.1103   7.7116   7.7483   7.8273   7.8631   7.9346   7.9423
     9.5088   9.5240  10.4313  10.5105  10.5841  10.6053  11.7178  11.8901
    11.9782  12.0227  12.4616  12.4678  12.5030  12.5230  12.5661  12.8292
    12.9497  13.0515  13.0972  13.3555  13.3603  13.5666  13.6631  13.6666
    14.9371  14.9540  15.0921  15.1370  15.2542  15.5893  15.6221  15.7349
    16.0271  17.0513  17.1699  17.5459  17.6889

          k = 0.0000 0.3274 0.1658 ( 62688 PWs)   bands (ev):

   -66.2264 -66.2261 -66.2258 -66.2255 -66.2254 -66.2252 -66.2249 -66.2246
   -30.6005 -30.5974 -30.5970 -30.5963 -30.5940 -30.5902 -30.5882 -30.5874
   -30.5755 -30.5676 -30.5651 -30.5511 -30.5426 -30.5417 -30.5379 -30.5242
   -30.5145 -30.5144 -30.5059 -30.5007 -30.4915 -30.4861 -30.4835 -30.4783
   -20.3870 -20.3869 -20.3869 -20.3867 -20.3865 -20.3864 -20.3863 -20.3862
   -20.3675 -20.3674 -20.3671 -20.3671 -20.3669 -20.3668 -20.3665 -20.3664
   -20.3612 -20.3611 -20.3609 -20.3608 -20.3606 -20.3605 -20.3603 -20.3602
   -20.3567 -20.3563 -20.3555 -20.3554 -20.3553 -20.3551 -20.3549 -20.3545
   -20.3544 -20.3544 -20.3524 -20.3520 -20.3511 -20.3509 -20.3501 -20.3497
   -20.3484 -20.3481 -20.3475 -20.3470 -20.3469 -20.3466 -20.3456 -20.3453
   -20.3382 -20.3381 -20.3372 -20.3372 -20.3369 -20.3369 -20.3360 -20.3359
    -9.8487  -9.6852  -9.4955  -9.4148  -9.3388  -9.2733  -9.0221  -9.0074
    -8.9319  -8.8116  -8.8093  -8.7880  -8.2635  -8.2270  -8.1967  -8.1838
    -7.9881  -7.9681  -7.9084  -7.8877  -7.8470  -7.8242  -7.7913  -7.7654
     1.2535   1.2564   1.3100   1.3158   1.4777   1.4796   1.5880   1.6267
     2.2148   2.2975   2.3710   2.4559   2.5214   2.5583   2.7593   2.8478
     2.9495   3.0825   3.5673   3.6350   3.7090   3.7234   4.0106   4.2405
     4.2694   4.3721   4.4746   4.5479   4.6572   4.6769   4.7056   4.7393
     4.9642   5.0676   5.0973   5.2274   5.2297   5.3425   5.4635   5.6219
     5.6437   5.6803   5.7802   5.8511   5.8931   5.8950   5.9431   6.0153
     6.2260   6.3193   6.3926   6.4459   6.4735   6.6342   6.6700   6.7651
     6.8163   6.8561   6.8740   6.8948   6.9023   6.9195   7.0683   7.0806
     7.1021   7.1212   7.7160   7.7460   7.7960   7.8269   7.8961   7.9085
     9.7978   9.8104  10.5868  10.5905  10.6092  10.6740  11.7935  11.9658
    11.9741  12.0224  12.3462  12.3499  12.5259  12.5744  12.6086  12.7565
    12.8745  12.9619  13.0578  13.2731  13.3557  13.4230  13.6245  13.6702
    14.9652  15.0192  15.1998  15.2971  15.4405  15.6586  15.7032  15.9620
    16.1835  17.0176  17.2462  17.2844  17.5651

          k = 0.0000 0.3274 0.3316 ( 62667 PWs)   bands (ev):

   -66.2262 -66.2259 -66.2259 -66.2256 -66.2254 -66.2251 -66.2251 -66.2247
   -30.5992 -30.5969 -30.5919 -30.5885 -30.5870 -30.5861 -30.5795 -30.5770
   -30.5760 -30.5695 -30.5589 -30.5490 -30.5470 -30.5457 -30.5365 -30.5269
   -30.5248 -30.5214 -30.5188 -30.5093 -30.4905 -30.4864 -30.4851 -30.4809
   -20.3869 -20.3868 -20.3867 -20.3866 -20.3866 -20.3865 -20.3864 -20.3863
   -20.3673 -20.3673 -20.3670 -20.3670 -20.3669 -20.3669 -20.3666 -20.3665
   -20.3611 -20.3610 -20.3608 -20.3608 -20.3607 -20.3607 -20.3605 -20.3603
   -20.3562 -20.3559 -20.3555 -20.3553 -20.3550 -20.3549 -20.3546 -20.3546
   -20.3545 -20.3538 -20.3528 -20.3523 -20.3505 -20.3502 -20.3497 -20.3493
   -20.3488 -20.3485 -20.3479 -20.3476 -20.3473 -20.3466 -20.3463 -20.3458
   -20.3380 -20.3380 -20.3374 -20.3374 -20.3367 -20.3367 -20.3362 -20.3361
    -9.7349  -9.5625  -9.5386  -9.3752  -9.2291  -9.0320  -8.9629  -8.9146
    -8.8791  -8.8204  -8.7742  -8.7246  -8.3448  -8.3088  -8.2714  -8.2223
    -8.2114  -8.1945  -8.1636  -8.1106  -7.8407  -7.8145  -7.8048  -7.7787
     1.3057   1.3098   1.3117   1.3164   2.0625   2.1140   2.1728   2.2312
     2.2707   2.3674   2.3918   2.5743   2.7515   2.7576   2.7952   2.8532
     3.1703   3.2813   3.6137   3.6279   3.6954   3.7478   3.7561   3.8109
     4.0032   4.1116   4.1798   4.2127   4.3195   4.4729   4.4987   4.6444
     4.6494   4.8239   4.9272   5.0062   5.0326   5.0864   5.1826   5.2300
     5.3326   5.4904   5.5346   5.7877   5.9734   6.0029   6.0432   6.0436
     6.3500   6.3652   6.3902   6.4934   6.5202   6.6065   6.6237   6.6279
     6.8439   6.9394   6.9842   7.0062   7.0197   7.0787   7.1142   7.1374
     7.1537   7.2362   7.6871   7.6885   7.7075   7.7459   7.7596   7.8049
    10.4253  10.4675  10.5915  10.6516  11.0331  11.1205  11.8688  11.9127
    11.9911  12.0390  12.0432  12.1952  12.3334  12.3983  12.5724  12.6418
    12.7512  12.9398  13.0190  13.0614  13.0683  13.3642  13.4661  13.5585
    15.0549  15.1900  15.2456  15.6244  15.8034  16.0149  16.0791  16.6529
    16.7159  16.8600  16.9207  17.5113  17.5990

          k = 0.0000 0.3274-0.4974 ( 62648 PWs)   bands (ev):

   -66.2261 -66.2261 -66.2257 -66.2257 -66.2252 -66.2252 -66.2249 -66.2249
   -30.5980 -30.5980 -30.5898 -30.5898 -30.5806 -30.5806 -30.5757 -30.5757
   -30.5630 -30.5630 -30.5590 -30.5590 -30.5442 -30.5442 -30.5343 -30.5343
   -30.5328 -30.5328 -30.5171 -30.5171 -30.4888 -30.4888 -30.4833 -30.4833
   -20.3868 -20.3868 -20.3866 -20.3866 -20.3866 -20.3866 -20.3865 -20.3865
   -20.3672 -20.3672 -20.3671 -20.3671 -20.3668 -20.3668 -20.3667 -20.3667
   -20.3610 -20.3610 -20.3608 -20.3608 -20.3607 -20.3607 -20.3605 -20.3605
   -20.3557 -20.3557 -20.3554 -20.3554 -20.3549 -20.3549 -20.3546 -20.3546
   -20.3536 -20.3536 -20.3529 -20.3529 -20.3496 -20.3496 -20.3492 -20.3492
   -20.3491 -20.3491 -20.3484 -20.3484 -20.3470 -20.3470 -20.3463 -20.3463
   -20.3377 -20.3377 -20.3377 -20.3377 -20.3364 -20.3364 -20.3364 -20.3364
    -9.6185  -9.6185  -9.4468  -9.4468  -9.0474  -9.0474  -8.8405  -8.8405
    -8.6815  -8.6815  -8.6254  -8.6254  -8.5877  -8.5877  -8.5371  -8.5371
    -8.2200  -8.2200  -8.1634  -8.1634  -7.8231  -7.8231  -7.7968  -7.7968
     1.3104   1.3104   1.3177   1.3177   2.2117   2.2117   2.3400   2.3400
     2.7779   2.7779   3.0198   3.0198   3.0525   3.0525   3.1022   3.1022
     3.1109   3.1109   3.3745   3.3745   3.4266   3.4266   3.6803   3.6803
     3.8943   3.8943   3.9279   3.9279   3.9560   3.9560   4.1993   4.1993
     4.7914   4.7914   4.9500   4.9500   5.0486   5.0486   5.0785   5.0786
     5.2894   5.2894   5.6449   5.6449   6.0316   6.0317   6.0792   6.0792
     6.3380   6.3380   6.3999   6.3999   6.4488   6.4488   6.6037   6.6037
     6.9967   6.9967   7.0244   7.0244   7.0679   7.0679   7.4510   7.4510
     7.4527   7.4527   7.4708   7.4708   7.5219   7.5219   7.7563   7.7563
    10.5860  10.5860  11.2196  11.2196  11.2595  11.2595  11.6442  11.6442
    11.7337  11.7337  12.0590  12.0590  12.3847  12.3847  12.5492  12.5492
    12.7493  12.7493  12.9462  12.9462  13.2044  13.2044  13.4124  13.4124
    15.1405  15.1405  15.4758  15.4758  16.2060  16.2060  16.6403  16.6403
    16.8872  16.8872  17.2067  17.2067  17.9326

          k = 0.0000-0.4911 0.0000 ( 62726 PWs)   bands (ev):

   -66.2263 -66.2263 -66.2256 -66.2255 -66.2254 -66.2254 -66.2247 -66.2247
   -30.6012 -30.6012 -30.5957 -30.5957 -30.5942 -30.5941 -30.5902 -30.5902
   -30.5578 -30.5578 -30.5548 -30.5548 -30.5519 -30.5519 -30.5401 -30.5401
   -30.5105 -30.5105 -30.4998 -30.4998 -30.4897 -30.4897 -30.4799 -30.4799
   -20.3870 -20.3870 -20.3868 -20.3868 -20.3864 -20.3864 -20.3863 -20.3863
   -20.3675 -20.3675 -20.3671 -20.3671 -20.3668 -20.3668 -20.3664 -20.3664
   -20.3611 -20.3611 -20.3608 -20.3608 -20.3605 -20.3605 -20.3602 -20.3601
   -20.3563 -20.3563 -20.3558 -20.3558 -20.3552 -20.3552 -20.3548 -20.3548
   -20.3535 -20.3535 -20.3532 -20.3532 -20.3508 -20.3508 -20.3506 -20.3506
   -20.3482 -20.3481 -20.3472 -20.3472 -20.3465 -20.3465 -20.3452 -20.3452
   -20.3382 -20.3382 -20.3371 -20.3371 -20.3370 -20.3370 -20.3359 -20.3359
    -9.8054  -9.8054  -9.4069  -9.4069  -9.3863  -9.3863  -9.0510  -9.0510
    -8.5948  -8.5947  -8.5505  -8.5505  -8.5411  -8.5411  -8.5340  -8.5339
    -7.8850  -7.8850  -7.8214  -7.8214  -7.7753  -7.7753  -7.7739  -7.7739
     1.1456   1.1456   1.2262   1.2262   1.3163   1.3163   1.4693   1.4693
     2.4451   2.4451   2.9211   2.9211   3.0211   3.0211   3.0785   3.0785
     3.1468   3.1468   3.2272   3.2273   3.5236   3.5236   3.6015   3.6015
     3.7151   3.7151   4.5347   4.5347   4.5970   4.5970   5.0657   5.0657
     5.1700   5.1700   5.1913   5.1914   5.2656   5.2656   5.7220   5.7220
     5.7826   5.7826   5.7922   5.7922   5.9629   5.9629   5.9770   5.9770
     6.1290   6.1290   6.2353   6.2353   6.4894   6.4894   6.5725   6.5725
     6.7952   6.7952   6.9923   6.9923   7.0667   7.0668   7.4293   7.4293
     7.4614   7.4614   7.4777   7.4777   7.5286   7.5286   7.9353   7.9353
     9.5191   9.5191  11.0907  11.0907  11.1570  11.1570  11.3268  11.3268
    11.3971  11.3971  12.4692  12.4693  12.5441  12.5441  12.7231  12.7231
    13.1128  13.1128  13.1897  13.1897  13.2668  13.2668  13.6098  13.6098
    14.9495  14.9495  15.4581  15.4581  15.5037  15.5038  15.5486  15.5486
    16.4663  16.4663  17.8564  17.8565  17.9772

          k = 0.0000-0.4911 0.1658 ( 62704 PWs)   bands (ev):

   -66.2262 -66.2262 -66.2256 -66.2256 -66.2254 -66.2254 -66.2248 -66.2248
   -30.5972 -30.5971 -30.5932 -30.5931 -30.5915 -30.5915 -30.5899 -30.5899
   -30.5585 -30.5585 -30.5550 -30.5550 -30.5522 -30.5522 -30.5391 -30.5391
   -30.5147 -30.5146 -30.5044 -30.5044 -30.4893 -30.4893 -30.4814 -30.4813
   -20.3869 -20.3869 -20.3868 -20.3868 -20.3864 -20.3864 -20.3863 -20.3863
   -20.3675 -20.3674 -20.3671 -20.3671 -20.3668 -20.3668 -20.3664 -20.3664
   -20.3611 -20.3611 -20.3608 -20.3608 -20.3605 -20.3605 -20.3602 -20.3602
   -20.3560 -20.3560 -20.3556 -20.3556 -20.3552 -20.3552 -20.3548 -20.3547
   -20.3536 -20.3536 -20.3532 -20.3532 -20.3506 -20.3506 -20.3504 -20.3504
   -20.3483 -20.3483 -20.3472 -20.3472 -20.3469 -20.3468 -20.3455 -20.3455
   -20.3382 -20.3382 -20.3372 -20.3372 -20.3369 -20.3369 -20.3359 -20.3359
    -9.7547  -9.7547  -9.3989  -9.3989  -9.3247  -9.3247  -9.0147  -9.0147
    -8.6001  -8.6001  -8.5549  -8.5549  -8.5417  -8.5416  -8.5283  -8.5282
    -7.9799  -7.9799  -7.8994  -7.8994  -7.8364  -7.8364  -7.7790  -7.7790
     1.2552   1.2552   1.3158   1.3158   1.4820   1.4820   1.6204   1.6204
     2.5285   2.5285   2.9382   2.9382   3.0213   3.0213   3.0809   3.0809
     3.2035   3.2035   3.2206   3.2206   3.5208   3.5208   3.6383   3.6383
     3.7421   3.7421   4.2619   4.2619   4.5980   4.5980   4.8700   4.8700
     4.9551   4.9552   5.1367   5.1367   5.2599   5.2599   5.4370   5.4370
     5.6701   5.6701   5.7325   5.7325   5.9089   5.9089   6.0060   6.0060
     6.2707   6.2707   6.3613   6.3613   6.4927   6.4927   6.7534   6.7534
     6.8353   6.8354   6.8932   6.8932   6.9165   6.9165   7.4370   7.4370
     7.4529   7.4529   7.4720   7.4720   7.5169   7.5169   7.8984   7.8984
     9.8076   9.8076  11.1902  11.1902  11.2501  11.2501  11.3370  11.3370
    11.4141  11.4141  12.3493  12.3493  12.5822  12.5822  12.7789  12.7789
    13.0256  13.0256  13.0924  13.0924  13.1319  13.1319  13.6152  13.6152
    15.0026  15.0026  15.5070  15.5070  15.6756  15.6756  15.7959  15.7959
    16.5419  16.5419  17.7252  17.7253  17.8844

          k = 0.0000-0.4911 0.3316 ( 62710 PWs)   bands (ev):

   -66.2261 -66.2261 -66.2257 -66.2257 -66.2253 -66.2253 -66.2249 -66.2249
   -30.5940 -30.5940 -30.5915 -30.5915 -30.5829 -30.5829 -30.5787 -30.5787
   -30.5608 -30.5608 -30.5589 -30.5589 -30.5496 -30.5496 -30.5356 -30.5356
   -30.5264 -30.5264 -30.5158 -30.5158 -30.4882 -30.4882 -30.4841 -30.4841
   -20.3868 -20.3868 -20.3867 -20.3867 -20.3865 -20.3865 -20.3864 -20.3864
   -20.3673 -20.3673 -20.3670 -20.3670 -20.3669 -20.3669 -20.3666 -20.3666
   -20.3610 -20.3610 -20.3607 -20.3607 -20.3607 -20.3607 -20.3604 -20.3604
   -20.3554 -20.3554 -20.3553 -20.3553 -20.3551 -20.3551 -20.3545 -20.3545
   -20.3539 -20.3538 -20.3535 -20.3534 -20.3502 -20.3502 -20.3499 -20.3499
   -20.3487 -20.3486 -20.3478 -20.3478 -20.3470 -20.3470 -20.3461 -20.3461
   -20.3380 -20.3380 -20.3374 -20.3374 -20.3367 -20.3367 -20.3362 -20.3361
    -9.6342  -9.6342  -9.4389  -9.4389  -9.0971  -9.0971  -8.8904  -8.8904
    -8.6360  -8.6359  -8.5742  -8.5742  -8.5356  -8.5355  -8.5069  -8.5069
    -8.2546  -8.2546  -8.1921  -8.1921  -7.8283  -7.8283  -7.7924  -7.7924
     1.3111   1.3111   1.3160   1.3160   2.1661   2.1661   2.2537   2.2537
     2.7640   2.7640   2.9644   2.9644   3.0252   3.0253   3.1027   3.1027
     3.1871   3.1871   3.3482   3.3482   3.4791   3.4791   3.7365   3.7365
     3.7595   3.7595   3.8187   3.8187   4.2663   4.2663   4.4311   4.4311
     4.6911   4.6911   4.8011   4.8011   5.0556   5.0556   5.1100   5.1100
     5.3014   5.3014   5.6080   5.6080   6.0168   6.0168   6.0648   6.0648
     6.3664   6.3664   6.4171   6.4171   6.5098   6.5098   6.6182   6.6182
     6.9687   6.9687   7.0830   7.0830   7.0987   7.0987   7.4020   7.4020
     7.4312   7.4312   7.4728   7.4728   7.4881   7.4881   7.7665   7.7665
    10.4679  10.4679  11.3088  11.3088  11.3433  11.3433  11.5418  11.5418
    11.6387  11.6387  11.9338  11.9338  12.5837  12.5837  12.6363  12.6363
    12.7096  12.7096  12.8704  12.8704  13.1486  13.1487  13.4864  13.4864
    15.1721  15.1721  15.4520  15.4520  16.1944  16.1944  16.6181  16.6181
    16.8267  16.8267  17.2404  17.2404  17.9021

          k = 0.0000-0.4911-0.4974 ( 62644 PWs)   bands (ev):

   -66.2259 -66.2259 -66.2259 -66.2259 -66.2251 -66.2251 -66.2251 -66.2251
   -30.5927 -30.5927 -30.5927 -30.5927 -30.5689 -30.5689 -30.5689 -30.5689
   -30.5665 -30.5665 -30.5665 -30.5665 -30.5409 -30.5409 -30.5409 -30.5409
   -30.5278 -30.5278 -30.5278 -30.5278 -30.4865 -30.4865 -30.4865 -30.4865
   -20.3867 -20.3867 -20.3867 -20.3867 -20.3866 -20.3866 -20.3865 -20.3865
   -20.3672 -20.3672 -20.3671 -20.3671 -20.3668 -20.3668 -20.3668 -20.3668
   -20.3609 -20.3609 -20.3609 -20.3608 -20.3606 -20.3606 -20.3605 -20.3605
   -20.3552 -20.3552 -20.3552 -20.3552 -20.3546 -20.3546 -20.3546 -20.3546
   -20.3538 -20.3538 -20.3538 -20.3538 -20.3495 -20.3495 -20.3495 -20.3494
   -20.3489 -20.3489 -20.3489 -20.3489 -20.3467 -20.3467 -20.3467 -20.3467
   -20.3377 -20.3377 -20.3377 -20.3377 -20.3364 -20.3364 -20.3364 -20.3364
    -9.5158  -9.5158  -9.5158  -9.5158  -8.8019  -8.8019  -8.8019  -8.8019
    -8.6786  -8.6785  -8.6785  -8.6785  -8.4905  -8.4905  -8.4905  -8.4904
    -8.4336  -8.4336  -8.4336  -8.4336  -7.8106  -7.8106  -7.8106  -7.8106
     1.3170   1.3170   1.3170   1.3170   2.8902   2.8903   2.8903   2.8903
     2.9733   2.9733   2.9733   2.9734   3.0996   3.0996   3.0996   3.0996
     3.2129   3.2129   3.2129   3.2129   3.4422   3.4422   3.4422   3.4422
     3.5937   3.5937   3.5937   3.5937   4.2216   4.2216   4.2216   4.2216
     4.3059   4.3059   4.3059   4.3059   5.0570   5.0570   5.0570   5.0570
     5.4253   5.4253   5.4253   5.4253   6.0799   6.0799   6.0799   6.0800
     6.3842   6.3842   6.3842   6.3842   6.4759   6.4759   6.4759   6.4759
     7.2440   7.2440   7.2440   7.2440   7.3122   7.3122   7.3122   7.3123
     7.3993   7.3993   7.3993   7.3993   7.5601   7.5601   7.5601   7.5602
    11.1848  11.1848  11.1848  11.1848  11.3920  11.3920  11.3920  11.3920
    12.0340  12.0340  12.0340  12.0340  12.1172  12.1172  12.1172  12.1172
    12.8277  12.8277  12.8277  12.8277  13.2639  13.2639  13.2639  13.2639
    15.3409  15.3409  15.3409  15.3409  16.7497  16.7497  16.7497  16.7498
    17.4345  17.4345  17.4345  17.4345  17.5619

          k = 0.1667 0.0000 0.0000 ( 62661 PWs)   bands (ev):

   -66.2265 -66.2259 -66.2258 -66.2258 -66.2252 -66.2252 -66.2251 -66.2245
   -30.6114 -30.6058 -30.6035 -30.6011 -30.5970 -30.5956 -30.5931 -30.5819
   -30.5798 -30.5786 -30.5705 -30.5589 -30.5281 -30.5280 -30.5268 -30.5134
   -30.5126 -30.5073 -30.5009 -30.4991 -30.4900 -30.4867 -30.4853 -30.4752
   -20.3871 -20.3870 -20.3868 -20.3867 -20.3866 -20.3865 -20.3862 -20.3861
   -20.3675 -20.3674 -20.3672 -20.3671 -20.3668 -20.3667 -20.3665 -20.3663
   -20.3615 -20.3613 -20.3611 -20.3608 -20.3608 -20.3605 -20.3605 -20.3602
   -20.3576 -20.3572 -20.3561 -20.3556 -20.3553 -20.3550 -20.3546 -20.3545
   -20.3541 -20.3541 -20.3517 -20.3515 -20.3509 -20.3508 -20.3498 -20.3488
   -20.3486 -20.3485 -20.3480 -20.3467 -20.3466 -20.3461 -20.3454 -20.3449
   -20.3382 -20.3381 -20.3371 -20.3370 -20.3370 -20.3370 -20.3360 -20.3359
    -9.9747  -9.6385  -9.6364  -9.5795  -9.3371  -9.2473  -9.2031  -9.0502
    -8.9950  -8.9937  -8.9875  -8.9476  -8.0231  -7.9503  -7.9384  -7.8862
    -7.8596  -7.8484  -7.8188  -7.8085  -7.7978  -7.7963  -7.7494  -7.7403
     1.1837   1.1889   1.1901   1.2194   1.3143   1.3158   1.3736   1.4513
     1.5581   1.6798   1.6920   1.8657   2.4666   2.5122   2.5242   2.5955
     2.6370   2.6526   4.0472   4.2006   4.2059   4.3017   4.3550   4.3615
     4.5580   4.5715   4.5790   4.6256   4.6744   4.8777   5.1558   5.2612
     5.2711   5.3329   5.3884   5.4864   5.4998   5.5652   5.5970   5.6601
     5.6817   5.6885   5.8378   5.8428   5.9226   5.9513   5.9828   6.0355
     6.1800   6.2801   6.3634   6.3973   6.4986   6.6218   6.7746   6.7971
     6.8147   6.8164   6.8212   6.8347   6.8665   6.8942   6.9234   6.9410
     6.9594   6.9714   7.8273   7.8502   7.9072   7.9257   8.1092   8.1276
     9.7376   9.7696   9.7739   9.7885  10.0108  10.0620  12.0874  12.2295
    12.4086  12.4259  12.4883  12.4988  12.5557  12.5833  12.7131  12.7825
    12.8367  13.0377  13.2864  13.3189  13.5002  13.5105  13.9504  13.9554
    14.5042  14.5678  14.8396  14.9209  15.0378  15.0689  15.6277  15.7121
    16.1870  16.5971  16.9454  17.1691  17.3359

          k = 0.1667 0.0000 0.1658 ( 62666 PWs)   bands (ev):

   -66.2265 -66.2259 -66.2258 -66.2258 -66.2252 -66.2251 -66.2251 -66.2245
   -30.6102 -30.6039 -30.6038 -30.5964 -30.5939 -30.5936 -30.5903 -30.5810
   -30.5802 -30.5749 -30.5712 -30.5570 -30.5315 -30.5299 -30.5265 -30.5163
   -30.5162 -30.5067 -30.5060 -30.4987 -30.4925 -30.4889 -30.4849 -30.4765
   -20.3871 -20.3870 -20.3868 -20.3867 -20.3866 -20.3865 -20.3863 -20.3862
   -20.3675 -20.3674 -20.3671 -20.3671 -20.3669 -20.3667 -20.3665 -20.3664
   -20.3615 -20.3612 -20.3611 -20.3608 -20.3608 -20.3606 -20.3606 -20.3603
   -20.3574 -20.3570 -20.3562 -20.3557 -20.3550 -20.3549 -20.3545 -20.3543
   -20.3541 -20.3540 -20.3515 -20.3512 -20.3511 -20.3509 -20.3498 -20.3489
   -20.3485 -20.3485 -20.3479 -20.3469 -20.3466 -20.3464 -20.3458 -20.3451
   -20.3381 -20.3380 -20.3371 -20.3371 -20.3370 -20.3370 -20.3361 -20.3360
    -9.9305  -9.5931  -9.5814  -9.5803  -9.2556  -9.2513  -9.2136  -9.0078
    -8.9839  -8.9647  -8.9610  -8.9502  -8.0382  -8.0003  -7.9509  -7.9365
    -7.9312  -7.9212  -7.9034  -7.8607  -7.8352  -7.7993  -7.7793  -7.7523
     1.2831   1.3028   1.3104   1.3713   1.3932   1.4114   1.4766   1.5573
     1.6016   1.6844   1.7454   1.9299   2.5332   2.5498   2.5848   2.6555
     2.6788   2.7207   4.0343   4.0937   4.2212   4.2724   4.3344   4.3447
     4.3740   4.4026   4.4248   4.5787   4.6107   4.7327   5.0869   5.1341
     5.1762   5.2418   5.2898   5.3723   5.3926   5.4837   5.6003   5.6090
     5.6093   5.7254   5.7320   5.8165   5.9226   5.9855   6.0436   6.0451
     6.1958   6.4219   6.4805   6.5117   6.5460   6.6426   6.6536   6.6727
     6.7038   6.7427   6.7874   6.7987   6.8414   6.8423   6.8831   6.9359
     6.9827   7.0166   7.8365   7.8393   7.8799   7.9077   8.0503   8.0758
     9.8979   9.9261   9.9847  10.0220  10.0920  10.1906  12.1162  12.2496
    12.3399  12.3913  12.4578  12.4689  12.5358  12.6320  12.6416  12.7093
    12.8497  12.9160  13.3013  13.3231  13.5105  13.5395  13.8195  13.8403
    14.6279  14.6688  14.8483  15.0493  15.1461  15.1653  15.6350  16.0162
    16.1569  16.7553  16.8514  17.1051  17.4191

          k = 0.1667 0.0000 0.3316 ( 62663 PWs)   bands (ev):

   -66.2263 -66.2260 -66.2257 -66.2256 -66.2254 -66.2253 -66.2250 -66.2246
   -30.6080 -30.6048 -30.6001 -30.5949 -30.5867 -30.5860 -30.5811 -30.5766
   -30.5748 -30.5735 -30.5634 -30.5502 -30.5423 -30.5390 -30.5280 -30.5255
   -30.5213 -30.5196 -30.5051 -30.4979 -30.4974 -30.4928 -30.4837 -30.4793
   -20.3870 -20.3869 -20.3867 -20.3867 -20.3866 -20.3866 -20.3864 -20.3863
   -20.3673 -20.3673 -20.3670 -20.3670 -20.3669 -20.3669 -20.3666 -20.3665
   -20.3614 -20.3612 -20.3610 -20.3610 -20.3608 -20.3607 -20.3607 -20.3604
   -20.3570 -20.3566 -20.3563 -20.3559 -20.3548 -20.3546 -20.3543 -20.3542
   -20.3539 -20.3532 -20.3518 -20.3513 -20.3508 -20.3504 -20.3496 -20.3492
   -20.3488 -20.3482 -20.3479 -20.3478 -20.3470 -20.3466 -20.3464 -20.3456
   -20.3379 -20.3379 -20.3373 -20.3373 -20.3368 -20.3368 -20.3363 -20.3362
    -9.8245  -9.6360  -9.4549  -9.4436  -9.2837  -9.2480  -9.0077  -8.9789
    -8.9584  -8.8627  -8.8483  -8.8378  -8.2778  -8.2740  -8.2357  -8.2320
    -7.9805  -7.9498  -7.9195  -7.8850  -7.8308  -7.8081  -7.7800  -7.7602
     1.2955   1.3049   1.3507   1.3662   1.5569   1.5604   1.6372   1.6818
     2.1748   2.2551   2.2711   2.3896   2.5519   2.6169   2.7914   2.8450
     2.9225   2.9492   3.6696   3.8015   3.8474   3.9002   3.9485   4.2185
     4.2187   4.3362   4.3456   4.4726   4.5844   4.6550   4.6882   4.7668
     4.8457   4.9279   5.0737   5.0817   5.1559   5.2950   5.4201   5.6281
     5.6526   5.7468   5.7670   5.8314   5.8453   5.8939   5.9491   6.0641
     6.2948   6.3021   6.3985   6.4369   6.5023   6.5387   6.6196   6.7143
     6.7854   6.8006   6.8119   6.8576   6.8752   6.9329   7.0808   7.0963
     7.1273   7.1815   7.7348   7.7401   7.8448   7.8885   7.8895   7.9105
     9.9602   9.9690  10.5523  10.6311  10.6425  10.7525  11.9341  11.9837
    12.0669  12.1685  12.1982  12.2829  12.6152  12.6788  12.7103  12.7595
    12.8278  12.9409  13.1892  13.2219  13.4316  13.5076  13.5171  13.5789
    14.7582  14.8473  15.0479  15.3164  15.5002  15.5486  15.7374  16.0659
    16.3040  16.9330  17.2278  17.3474  17.5499

          k = 0.1667 0.0000-0.4974 ( 62594 PWs)   bands (ev):

   -66.2262 -66.2262 -66.2255 -66.2255 -66.2254 -66.2254 -66.2248 -66.2248
   -30.6062 -30.6062 -30.5970 -30.5970 -30.5828 -30.5828 -30.5782 -30.5781
   -30.5594 -30.5594 -30.5565 -30.5565 -30.5458 -30.5458 -30.5366 -30.5366
   -30.5240 -30.5240 -30.5022 -30.5022 -30.4957 -30.4957 -30.4818 -30.4818
   -20.3869 -20.3868 -20.3867 -20.3867 -20.3865 -20.3865 -20.3864 -20.3864
   -20.3672 -20.3672 -20.3671 -20.3671 -20.3668 -20.3668 -20.3667 -20.3667
   -20.3612 -20.3612 -20.3610 -20.3610 -20.3609 -20.3609 -20.3606 -20.3606
   -20.3566 -20.3566 -20.3561 -20.3561 -20.3547 -20.3547 -20.3542 -20.3542
   -20.3528 -20.3528 -20.3521 -20.3521 -20.3499 -20.3499 -20.3493 -20.3492
   -20.3492 -20.3492 -20.3477 -20.3477 -20.3474 -20.3474 -20.3461 -20.3461
   -20.3376 -20.3376 -20.3376 -20.3376 -20.3365 -20.3365 -20.3365 -20.3365
    -9.7142  -9.7141  -9.3444  -9.3444  -9.3190  -9.3190  -8.9687  -8.9687
    -8.6525  -8.6525  -8.6104  -8.6104  -8.5961  -8.5961  -8.5742  -8.5742
    -7.9673  -7.9673  -7.9031  -7.9031  -7.8199  -7.8199  -7.7706  -7.7706
     1.2994   1.2994   1.3604   1.3604   1.5669   1.5669   1.6773   1.6773
     2.5727   2.5727   2.9998   2.9999   3.0325   3.0325   3.0901   3.0901
     3.1219   3.1219   3.2632   3.2632   3.5351   3.5351   3.6298   3.6299
     3.6881   3.6881   4.2530   4.2530   4.5239   4.5239   4.8654   4.8654
     4.8934   4.8935   4.9463   4.9463   5.0897   5.0897   5.5217   5.5217
     5.6966   5.6966   5.7090   5.7090   5.8787   5.8787   6.0274   6.0274
     6.2403   6.2403   6.3974   6.3974   6.4429   6.4429   6.7092   6.7092
     6.7815   6.7815   6.8310   6.8311   6.8793   6.8793   7.4666   7.4666
     7.4840   7.4840   7.5385   7.5385   7.5981   7.5981   7.8860   7.8860
     9.9696   9.9696  11.2686  11.2686  11.3390  11.3390  11.3925  11.3925
    11.4896  11.4896  12.2619  12.2619  12.7189  12.7189  12.8599  12.8599
    12.9551  12.9551  13.1408  13.1408  13.1745  13.1745  13.4987  13.4987
    14.8228  14.8228  15.3658  15.3658  15.7429  15.7429  15.8606  15.8606
    16.6210  16.6210  17.7317  17.7319  17.9421

          k = 0.1667 0.1637 0.0000 ( 62669 PWs)   bands (ev):

   -66.2265 -66.2259 -66.2258 -66.2258 -66.2252 -66.2252 -66.2250 -66.2245
   -30.6084 -30.6033 -30.6010 -30.5999 -30.5969 -30.5955 -30.5883 -30.5827
   -30.5804 -30.5767 -30.5688 -30.5570 -30.5315 -30.5310 -30.5298 -30.5137
   -30.5126 -30.5116 -30.5009 -30.4986 -30.4922 -30.4872 -30.4863 -30.4768
   -20.3871 -20.3870 -20.3868 -20.3867 -20.3865 -20.3865 -20.3862 -20.3861
   -20.3675 -20.3674 -20.3672 -20.3671 -20.3668 -20.3667 -20.3665 -20.3664
   -20.3614 -20.3612 -20.3611 -20.3608 -20.3607 -20.3605 -20.3604 -20.3602
   -20.3575 -20.3570 -20.3559 -20.3554 -20.3554 -20.3549 -20.3548 -20.3545
   -20.3541 -20.3541 -20.3516 -20.3514 -20.3512 -20.3511 -20.3500 -20.3490
   -20.3488 -20.3484 -20.3479 -20.3468 -20.3466 -20.3462 -20.3454 -20.3449
   -20.3382 -20.3381 -20.3371 -20.3371 -20.3370 -20.3370 -20.3360 -20.3359
    -9.9381  -9.6510  -9.5945  -9.5288  -9.3447  -9.2127  -9.1655  -9.0369
    -8.9973  -8.9521  -8.9509  -8.9137  -8.0434  -7.9682  -7.9581  -7.9384
    -7.9128  -7.8986  -7.8788  -7.8566  -7.8474  -7.8219  -7.7955  -7.7587
     1.1909   1.2004   1.2161   1.2205   1.4576   1.4633   1.5537   1.6111
     1.6587   1.6949   1.7906   1.9551   2.4792   2.5712   2.5975   2.6211
     2.7234   2.7273   3.9353   4.0251   4.1395   4.2337   4.2606   4.3000
     4.3739   4.4862   4.5403   4.6308   4.7426   4.8140   4.9813   5.1915
     5.2020   5.2667   5.3256   5.3581   5.4272   5.5045   5.5551   5.6457
     5.6841   5.6960   5.8476   5.8601   5.9139   5.9650   5.9858   6.0239
     6.1705   6.3075   6.3175   6.3650   6.5890   6.6371   6.6483   6.7200
     6.7606   6.7926   6.8442   6.8459   6.9038   6.9107   6.9212   6.9663
     6.9784   7.0020   7.8212   7.8216   7.9037   7.9227   8.0531   8.0549
     9.7860   9.7875   9.9420   9.9649  10.2106  10.2361  12.0373  12.2678
    12.3753  12.3846  12.4048  12.4789  12.5067  12.5245  12.5721  12.7642
    12.8279  13.0007  13.2572  13.3151  13.5032  13.5622  13.8412  13.8480
    14.7206  14.7632  14.9442  15.0366  15.0643  15.0919  15.6537  16.0592
    16.1531  16.6766  16.7583  17.2892  17.4011

          k = 0.1667 0.1637 0.1658 ( 62655 PWs)   bands (ev):

   -66.2264 -66.2259 -66.2258 -66.2257 -66.2253 -66.2252 -66.2251 -66.2245
   -30.6068 -30.6010 -30.6001 -30.5962 -30.5941 -30.5903 -30.5888 -30.5818
   -30.5807 -30.5735 -30.5696 -30.5552 -30.5337 -30.5331 -30.5297 -30.5168
   -30.5163 -30.5112 -30.5059 -30.4982 -30.4950 -30.4885 -30.4868 -30.4782
   -20.3871 -20.3870 -20.3868 -20.3867 -20.3866 -20.3865 -20.3863 -20.3862
   -20.3675 -20.3674 -20.3671 -20.3671 -20.3669 -20.3667 -20.3665 -20.3664
   -20.3614 -20.3611 -20.3611 -20.3608 -20.3608 -20.3606 -20.3605 -20.3603
   -20.3573 -20.3568 -20.3559 -20.3555 -20.3551 -20.3548 -20.3546 -20.3544
   -20.3542 -20.3540 -20.3514 -20.3514 -20.3512 -20.3511 -20.3499 -20.3489
   -20.3489 -20.3485 -20.3479 -20.3469 -20.3468 -20.3464 -20.3458 -20.3452
   -20.3381 -20.3380 -20.3371 -20.3371 -20.3370 -20.3370 -20.3361 -20.3360
    -9.8921  -9.5931  -9.5427  -9.5343  -9.2591  -9.2234  -9.1738  -8.9961
    -8.9665  -8.9474  -8.9246  -8.9163  -8.0593  -7.9999  -7.9739  -7.9580
    -7.9397  -7.9374  -7.9238  -7.9088  -7.8917  -7.8765  -7.8514  -7.8488
     1.3876   1.4044   1.4212   1.4558   1.4672   1.4821   1.5570   1.6095
     1.7163   1.7486   1.7892   2.0052   2.5638   2.6094   2.6710   2.6759
     2.7295   2.8049   3.9434   4.0198   4.1221   4.2142   4.2515   4.3032
     4.3428   4.3610   4.4145   4.4689   4.5289   4.6300   4.9630   5.0285
     5.1124   5.1983   5.2639   5.3029   5.3325   5.3486   5.3996   5.5563
     5.6149   5.6875   5.8036   5.8720   5.8912   5.9320   6.0070   6.0404
     6.2511   6.3371   6.4416   6.5457   6.5774   6.5863   6.6223   6.6549
     6.6918   6.7710   6.8117   6.8286   6.8632   6.8927   6.9191   6.9485
     6.9988   7.0332   7.8168   7.8265   7.8720   7.8994   7.9972   8.0117
     9.9906  10.0045  10.1375  10.1609  10.2321  10.3129  12.0799  12.2893
    12.3296  12.3812  12.4139  12.4379  12.4765  12.5468  12.5546  12.6745
    12.7875  12.8480  13.2731  13.3163  13.4900  13.5773  13.7063  13.7412
    14.8567  14.9066  15.0003  15.1194  15.1643  15.1869  15.9686  16.0540
    16.1252  16.8025  16.8916  16.9807  17.4770

          k = 0.1667 0.1637 0.3316 ( 62671 PWs)   bands (ev):

   -66.2263 -66.2259 -66.2258 -66.2256 -66.2254 -66.2252 -66.2250 -66.2247
   -30.6045 -30.6013 -30.5961 -30.5903 -30.5868 -30.5856 -30.5816 -30.5769
   -30.5752 -30.5722 -30.5628 -30.5489 -30.5436 -30.5405 -30.5288 -30.5280
   -30.5232 -30.5193 -30.5095 -30.5011 -30.4971 -30.4923 -30.4856 -30.4810
   -20.3870 -20.3869 -20.3867 -20.3867 -20.3866 -20.3866 -20.3864 -20.3863
   -20.3673 -20.3673 -20.3670 -20.3670 -20.3669 -20.3669 -20.3666 -20.3666
   -20.3613 -20.3611 -20.3610 -20.3609 -20.3607 -20.3607 -20.3607 -20.3604
   -20.3568 -20.3564 -20.3561 -20.3557 -20.3547 -20.3546 -20.3543 -20.3542
   -20.3540 -20.3533 -20.3520 -20.3516 -20.3508 -20.3504 -20.3497 -20.3492
   -20.3489 -20.3484 -20.3479 -20.3477 -20.3472 -20.3466 -20.3465 -20.3457
   -20.3379 -20.3379 -20.3373 -20.3373 -20.3368 -20.3368 -20.3363 -20.3362
    -9.7815  -9.5863  -9.4565  -9.3932  -9.2585  -9.2029  -9.0157  -8.9443
    -8.9239  -8.8533  -8.8505  -8.8166  -8.2826  -8.2751  -8.2452  -8.2290
    -7.9960  -7.9745  -7.9314  -7.9236  -7.9001  -7.8946  -7.8799  -7.8598
     1.4519   1.4569   1.5485   1.5544   1.5877   1.6059   1.7116   1.7840
     2.1753   2.2601   2.2718   2.4028   2.6313   2.6935   2.8142   2.9158
     2.9227   3.0282   3.6847   3.8267   3.8330   3.8732   3.9943   4.1183
     4.2041   4.2773   4.3077   4.3711   4.4196   4.5813   4.6024   4.6900
     4.7633   4.8106   4.9176   5.0144   5.0358   5.1631   5.3854   5.4172
     5.5837   5.6867   5.7083   5.7621   5.8244   5.8616   5.9041   5.9459
     6.2576   6.3850   6.4869   6.5391   6.5937   6.6118   6.6357   6.6649
     6.7409   6.7975   6.8471   6.8839   6.9342   6.9819   7.0822   7.1040
     7.1379   7.1885   7.7333   7.7367   7.8122   7.8505   7.8645   7.8727
    10.1642  10.1807  10.5840  10.6406  10.7384  10.8240  11.9406  11.9837
    12.0999  12.1871  12.2190  12.3280  12.5499  12.5624  12.6102  12.6719
    12.7052  12.8576  13.1620  13.2113  13.3555  13.3794  13.5203  13.5430
    14.9586  15.0002  15.3713  15.4100  15.4946  15.7653  15.9415  16.0400
    16.4177  16.9165  17.2022  17.3071  17.4224

          k = 0.1667 0.1637-0.4974 ( 62644 PWs)   bands (ev):

   -66.2261 -66.2261 -66.2256 -66.2256 -66.2254 -66.2254 -66.2249 -66.2249
   -30.6027 -30.6027 -30.5926 -30.5926 -30.5832 -30.5832 -30.5772 -30.5772
   -30.5601 -30.5601 -30.5569 -30.5569 -30.5457 -30.5457 -30.5360 -30.5359
   -30.5269 -30.5269 -30.5062 -30.5062 -30.4952 -30.4952 -30.4837 -30.4837
   -20.3868 -20.3868 -20.3867 -20.3867 -20.3865 -20.3865 -20.3864 -20.3864
   -20.3672 -20.3672 -20.3671 -20.3671 -20.3668 -20.3668 -20.3667 -20.3667
   -20.3611 -20.3611 -20.3609 -20.3609 -20.3609 -20.3609 -20.3606 -20.3606
   -20.3564 -20.3564 -20.3559 -20.3559 -20.3546 -20.3546 -20.3543 -20.3543
   -20.3530 -20.3530 -20.3523 -20.3523 -20.3499 -20.3499 -20.3493 -20.3493
   -20.3492 -20.3492 -20.3479 -20.3479 -20.3473 -20.3473 -20.3462 -20.3462
   -20.3376 -20.3376 -20.3376 -20.3376 -20.3365 -20.3365 -20.3365 -20.3365
    -9.6667  -9.6667  -9.3309  -9.3309  -9.2684  -9.2684  -8.9338  -8.9338
    -8.6606  -8.6605  -8.6093  -8.6093  -8.5954  -8.5954  -8.5684  -8.5683
    -7.9879  -7.9879  -7.9192  -7.9192  -7.9065  -7.9065  -7.8717  -7.8717
     1.4539   1.4539   1.5593   1.5593   1.6020   1.6020   1.7727   1.7727
     2.6486   2.6486   3.0140   3.0140   3.0492   3.0492   3.0901   3.0901
     3.1202   3.1203   3.3093   3.3093   3.5253   3.5253   3.6802   3.6803
     3.7197   3.7197   4.2285   4.2285   4.3147   4.3147   4.6927   4.6927
     4.7773   4.7773   4.8790   4.8790   4.9526   4.9526   5.4724   5.4724
     5.5378   5.5378   5.6647   5.6647   5.7652   5.7652   5.9136   5.9136
     6.3698   6.3698   6.4853   6.4853   6.5884   6.5884   6.6856   6.6856
     6.7305   6.7306   6.8510   6.8510   6.9548   6.9548   7.4688   7.4688
     7.4811   7.4811   7.5242   7.5242   7.5774   7.5774   7.8596   7.8596
    10.1814  10.1814  11.2817  11.2817  11.3432  11.3432  11.4530  11.4530
    11.5400  11.5400  12.2994  12.2994  12.5618  12.5619  12.8254  12.8254
    12.9182  12.9182  13.0060  13.0060  13.0993  13.0993  13.4900  13.4900
    14.9903  14.9903  15.7244  15.7244  15.8013  15.8013  15.8992  15.8992
    16.6836  16.6836  17.6312  17.6313  17.8321

          k = 0.1667 0.3274 0.0000 ( 62713 PWs)   bands (ev):

   -66.2264 -66.2261 -66.2257 -66.2256 -66.2253 -66.2253 -66.2249 -66.2246
   -30.6023 -30.6006 -30.5985 -30.5955 -30.5953 -30.5922 -30.5852 -30.5821
   -30.5755 -30.5693 -30.5628 -30.5505 -30.5422 -30.5408 -30.5383 -30.5240
   -30.5132 -30.5128 -30.5006 -30.4972 -30.4964 -30.4911 -30.4853 -30.4802
   -20.3870 -20.3869 -20.3869 -20.3868 -20.3865 -20.3864 -20.3863 -20.3862
   -20.3675 -20.3674 -20.3671 -20.3671 -20.3668 -20.3667 -20.3664 -20.3664
   -20.3612 -20.3611 -20.3610 -20.3608 -20.3606 -20.3605 -20.3603 -20.3602
   -20.3570 -20.3565 -20.3557 -20.3552 -20.3552 -20.3551 -20.3545 -20.3543
   -20.3542 -20.3540 -20.3522 -20.3520 -20.3514 -20.3510 -20.3504 -20.3497
   -20.3487 -20.3484 -20.3478 -20.3472 -20.3465 -20.3463 -20.3454 -20.3451
   -20.3382 -20.3381 -20.3371 -20.3371 -20.3370 -20.3370 -20.3360 -20.3359
    -9.8505  -9.6898  -9.5017  -9.4121  -9.3697  -9.2438  -9.0231  -9.0036
    -8.9338  -8.8083  -8.8068  -8.7897  -8.2619  -8.2173  -8.2058  -8.1869
    -7.9793  -7.9571  -7.9053  -7.8808  -7.8504  -7.8314  -7.7893  -7.7707
     1.1936   1.2016   1.2234   1.2277   1.5462   1.5577   1.6395   1.6842
     2.2169   2.2935   2.3659   2.4474   2.5110   2.5571   2.8463   2.8806
     2.9448   2.9979   3.5437   3.5491   3.7630   3.7904   4.0059   4.2412
     4.2803   4.3689   4.4783   4.5005   4.6086   4.7320   4.7972   4.8161
     4.8926   4.9257   5.1272   5.2139   5.2202   5.4050   5.4690   5.5792
     5.6241   5.7107   5.7808   5.8483   5.9259   5.9316   5.9807   6.0408
     6.1319   6.2638   6.3274   6.3927   6.5306   6.6771   6.7101   6.7924
     6.8267   6.8419   6.8509   6.8796   6.9189   6.9455   7.0644   7.0865
     7.1198   7.1363   7.6996   7.7265   7.8317   7.8577   7.9043   7.9140
     9.8019   9.8084  10.4365  10.4919  10.7406  10.7478  11.7121  11.8885
    12.0482  12.0831  12.3576  12.3815  12.5131  12.5232  12.5775  12.7568
    12.9102  13.0464  13.1474  13.2286  13.3776  13.5362  13.5764  13.6341
    14.9932  15.0017  15.1470  15.1987  15.4514  15.5965  15.6461  16.0457
    16.1682  17.0137  17.1561  17.3168  17.7739

          k = 0.1667 0.3274 0.1658 ( 62676 PWs)   bands (ev):

   -66.2263 -66.2260 -66.2257 -66.2256 -66.2254 -66.2253 -66.2250 -66.2247
   -30.5991 -30.5959 -30.5949 -30.5939 -30.5923 -30.5903 -30.5844 -30.5824
   -30.5760 -30.5676 -30.5635 -30.5491 -30.5432 -30.5415 -30.5392 -30.5233
   -30.5168 -30.5165 -30.5055 -30.5002 -30.4968 -30.4907 -30.4873 -30.4817
   -20.3870 -20.3869 -20.3868 -20.3867 -20.3865 -20.3864 -20.3863 -20.3862
   -20.3674 -20.3674 -20.3671 -20.3671 -20.3668 -20.3668 -20.3665 -20.3664
   -20.3612 -20.3611 -20.3610 -20.3608 -20.3606 -20.3605 -20.3603 -20.3602
   -20.3567 -20.3563 -20.3554 -20.3553 -20.3551 -20.3550 -20.3545 -20.3543
   -20.3542 -20.3540 -20.3523 -20.3521 -20.3512 -20.3508 -20.3503 -20.3496
   -20.3488 -20.3485 -20.3477 -20.3471 -20.3469 -20.3466 -20.3457 -20.3454
   -20.3381 -20.3381 -20.3371 -20.3371 -20.3370 -20.3370 -20.3361 -20.3360
    -9.8000  -9.6328  -9.4302  -9.4250  -9.2849  -9.2551  -8.9882  -8.9723
    -8.9423  -8.8018  -8.7945  -8.7910  -8.2658  -8.2231  -8.2059  -8.1930
    -7.9953  -7.9898  -7.9359  -7.9329  -7.9237  -7.9037  -7.8884  -7.8670
     1.3925   1.4020   1.4761   1.4783   1.5504   1.5623   1.6845   1.7421
     2.2221   2.2974   2.3622   2.4568   2.5927   2.6439   2.8526   2.9384
     2.9603   3.0746   3.5600   3.6207   3.7634   3.7829   3.9890   4.2446
     4.2629   4.3150   4.3583   4.4049   4.5042   4.6033   4.6946   4.7360
     4.7781   4.8297   5.0098   5.0424   5.2231   5.2343   5.2996   5.3504
     5.6010   5.6235   5.6676   5.6854   5.7958   5.8138   6.0068   6.0082
     6.2887   6.3962   6.4549   6.5484   6.6120   6.6305   6.6534   6.7127
     6.7866   6.8286   6.9067   6.9248   6.9455   6.9581   7.0677   7.0838
     7.1297   7.1437   7.7025   7.7224   7.7995   7.8237   7.8698   7.8831
    10.0293  10.0352  10.5947  10.6342  10.7454  10.7750  11.7863  11.9577
    12.0499  12.0807  12.3754  12.4034  12.4067  12.4418  12.6146  12.7659
    12.7866  12.8714  13.1349  13.2221  13.2958  13.4157  13.5520  13.5790
    15.1095  15.1256  15.3232  15.3951  15.4747  15.7045  15.9261  16.0261
    16.2982  16.9842  17.2219  17.3478  17.3922

          k = 0.1667 0.3274 0.3316 ( 62669 PWs)   bands (ev):

   -66.2262 -66.2259 -66.2258 -66.2255 -66.2255 -66.2252 -66.2251 -66.2248
   -30.5961 -30.5935 -30.5874 -30.5866 -30.5852 -30.5834 -30.5788 -30.5774
   -30.5762 -30.5673 -30.5597 -30.5486 -30.5474 -30.5440 -30.5381 -30.5282
   -30.5267 -30.5207 -30.5182 -30.5087 -30.4957 -30.4909 -30.4895 -30.4849
   -20.3869 -20.3868 -20.3867 -20.3866 -20.3866 -20.3865 -20.3864 -20.3863
   -20.3673 -20.3673 -20.3670 -20.3670 -20.3670 -20.3669 -20.3666 -20.3666
   -20.3611 -20.3610 -20.3609 -20.3608 -20.3607 -20.3607 -20.3605 -20.3604
   -20.3562 -20.3558 -20.3554 -20.3551 -20.3547 -20.3546 -20.3545 -20.3544
   -20.3541 -20.3537 -20.3528 -20.3524 -20.3506 -20.3502 -20.3500 -20.3493
   -20.3491 -20.3488 -20.3479 -20.3476 -20.3474 -20.3469 -20.3465 -20.3460
   -20.3379 -20.3379 -20.3374 -20.3373 -20.3368 -20.3368 -20.3363 -20.3362
    -9.6784  -9.4973  -9.4702  -9.2929  -9.2444  -9.0441  -8.9749  -8.8842
    -8.8565  -8.8017  -8.7702  -8.7285  -8.3556  -8.3080  -8.2669  -8.2203
    -8.2197  -8.1988  -8.1637  -8.1152  -7.9523  -7.9266  -7.9166  -7.8916
     1.5413   1.5463   1.5610   1.5636   2.0658   2.1081   2.1747   2.2335
     2.2710   2.3565   2.3949   2.5610   2.8298   2.8440   2.9043   2.9412
     3.1791   3.2747   3.5988   3.6522   3.7417   3.7748   3.7980   3.8772
     3.9828   4.1138   4.1620   4.2092   4.3169   4.3902   4.4926   4.5673
     4.6196   4.6937   4.7684   4.8132   4.8557   4.8705   4.9662   5.1819
     5.2297   5.2837   5.3076   5.5836   5.6480   5.7986   5.8577   5.8950
     6.4241   6.4842   6.5229   6.6252   6.6831   6.7080   6.7662   6.7925
     6.8875   6.9527   6.9801   7.0146   7.0538   7.1031   7.1085   7.1643
     7.2010   7.2264   7.6811   7.6836   7.6940   7.7392   7.7477   7.7869
    10.5590  10.5951  10.7390  10.7940  11.0434  11.1290  11.9330  11.9462
    12.0229  12.0666  12.1175  12.1960  12.3464  12.4000  12.4511  12.5629
    12.7084  12.8037  12.9485  13.0560  13.1290  13.2087  13.4112  13.4368
    15.2734  15.3787  15.4847  15.8673  15.8863  16.0627  16.0768  16.7133
    16.7413  16.8650  16.9043  17.4539  17.5809

          k = 0.1667 0.3274-0.4974 ( 62652 PWs)   bands (ev):

   -66.2260 -66.2260 -66.2257 -66.2257 -66.2253 -66.2253 -66.2250 -66.2250
   -30.5947 -30.5947 -30.5847 -30.5847 -30.5809 -30.5809 -30.5739 -30.5739
   -30.5627 -30.5627 -30.5592 -30.5592 -30.5451 -30.5451 -30.5347 -30.5347
   -30.5333 -30.5333 -30.5163 -30.5163 -30.4938 -30.4938 -30.4876 -30.4876
   -20.3868 -20.3868 -20.3867 -20.3867 -20.3866 -20.3866 -20.3865 -20.3865
   -20.3672 -20.3672 -20.3671 -20.3671 -20.3668 -20.3668 -20.3668 -20.3668
   -20.3610 -20.3610 -20.3608 -20.3608 -20.3607 -20.3607 -20.3606 -20.3606
   -20.3557 -20.3557 -20.3554 -20.3554 -20.3546 -20.3546 -20.3543 -20.3543
   -20.3536 -20.3536 -20.3529 -20.3529 -20.3498 -20.3498 -20.3495 -20.3495
   -20.3491 -20.3491 -20.3484 -20.3484 -20.3472 -20.3472 -20.3466 -20.3466
   -20.3376 -20.3376 -20.3376 -20.3376 -20.3365 -20.3365 -20.3365 -20.3365
    -9.5540  -9.5540  -9.3692  -9.3692  -9.0620  -9.0620  -8.8188  -8.8188
    -8.6954  -8.6953  -8.6173  -8.6173  -8.5808  -8.5807  -8.5407  -8.5407
    -8.2167  -8.2167  -8.1707  -8.1707  -7.9355  -7.9355  -7.9095  -7.9095
     1.5528   1.5528   1.5658   1.5658   2.2165   2.2165   2.3290   2.3290
     2.8510   2.8510   3.0439   3.0440   3.0684   3.0684   3.1058   3.1058
     3.1223   3.1224   3.4240   3.4240   3.4811   3.4811   3.7223   3.7223
     3.8823   3.8823   3.9223   3.9223   3.9632   3.9632   4.2200   4.2200
     4.6451   4.6451   4.8166   4.8166   4.8652   4.8652   4.9562   4.9562
     5.0440   5.0440   5.3843   5.3843   5.7016   5.7016   5.8160   5.8160
     6.5145   6.5146   6.6207   6.6207   6.6560   6.6560   6.7343   6.7343
     6.9855   6.9855   7.0323   7.0323   7.1167   7.1167   7.4584   7.4584
     7.4619   7.4620   7.4686   7.4686   7.5236   7.5236   7.7392   7.7392
    10.7176  10.7176  11.3039  11.3039  11.3529  11.3529  11.6571  11.6571
    11.7406  11.7406  12.1125  12.1125  12.3461  12.3461  12.5461  12.5461
    12.7039  12.7039  12.8701  12.8701  13.0678  13.0678  13.3330  13.3330
    15.3581  15.3581  15.7473  15.7473  16.2796  16.2797  16.6239  16.6239
    16.9119  16.9119  17.2473  17.2473  17.8046

          k = 0.1667-0.4911 0.0000 ( 62698 PWs)   bands (ev):

   -66.2262 -66.2262 -66.2255 -66.2255 -66.2255 -66.2255 -66.2248 -66.2248
   -30.6004 -30.6004 -30.5960 -30.5959 -30.5900 -30.5900 -30.5857 -30.5857
   -30.5584 -30.5584 -30.5555 -30.5555 -30.5511 -30.5511 -30.5387 -30.5387
   -30.5130 -30.5130 -30.4994 -30.4993 -30.4947 -30.4947 -30.4833 -30.4833
   -20.3870 -20.3870 -20.3869 -20.3868 -20.3864 -20.3864 -20.3863 -20.3863
   -20.3675 -20.3675 -20.3671 -20.3671 -20.3668 -20.3668 -20.3664 -20.3664
   -20.3611 -20.3611 -20.3609 -20.3608 -20.3605 -20.3605 -20.3602 -20.3602
   -20.3563 -20.3563 -20.3558 -20.3558 -20.3549 -20.3549 -20.3545 -20.3545
   -20.3533 -20.3533 -20.3532 -20.3532 -20.3509 -20.3509 -20.3505 -20.3505
   -20.3485 -20.3485 -20.3475 -20.3475 -20.3465 -20.3465 -20.3453 -20.3453
   -20.3382 -20.3382 -20.3371 -20.3371 -20.3370 -20.3370 -20.3360 -20.3360
    -9.7578  -9.7578  -9.4194  -9.4194  -9.3063  -9.3063  -9.0126  -9.0126
    -8.6028  -8.6027  -8.5550  -8.5550  -8.5369  -8.5369  -8.5302  -8.5302
    -7.9704  -7.9704  -7.8950  -7.8950  -7.8412  -7.8412  -7.7805  -7.7805
     1.1975   1.1975   1.2268   1.2268   1.5574   1.5575   1.6766   1.6766
     2.5263   2.5263   2.9235   2.9235   3.0243   3.0243   3.0669   3.0669
     3.2202   3.2202   3.2390   3.2390   3.5438   3.5438   3.6232   3.6232
     3.7357   3.7357   4.2936   4.2936   4.5153   4.5153   4.9230   4.9230
     4.9975   4.9975   5.0913   5.0913   5.2128   5.2129   5.4795   5.4796
     5.6723   5.6723   5.7003   5.7003   5.9192   5.9192   6.0064   6.0064
     6.2805   6.2805   6.3127   6.3127   6.5426   6.5426   6.7404   6.7404
     6.8496   6.8496   6.8828   6.8828   6.9424   6.9424   7.4294   7.4294
     7.4619   7.4619   7.4865   7.4865   7.5249   7.5250   7.9056   7.9056
     9.8093   9.8093  11.0941  11.0942  11.1551  11.1551  11.4212  11.4212
    11.4839  11.4839  12.3959  12.3959  12.5212  12.5212  12.7525  12.7525
    12.9970  12.9970  13.1857  13.1857  13.2622  13.2622  13.5326  13.5326
    15.0014  15.0014  15.4474  15.4474  15.6370  15.6370  15.8164  15.8164
    16.5366  16.5366  17.7500  17.7502  18.0425

          k = 0.1667-0.4911 0.1658 ( 62732 PWs)   bands (ev):

   -66.2262 -66.2262 -66.2255 -66.2255 -66.2254 -66.2254 -66.2248 -66.2248
   -30.5957 -30.5956 -30.5913 -30.5913 -30.5896 -30.5895 -30.5860 -30.5858
   -30.5590 -30.5590 -30.5552 -30.5550 -30.5522 -30.5520 -30.5377 -30.5377
   -30.5168 -30.5168 -30.5039 -30.5038 -30.4943 -30.4943 -30.4851 -30.4850
   -20.3869 -20.3869 -20.3868 -20.3868 -20.3864 -20.3864 -20.3863 -20.3863
   -20.3674 -20.3674 -20.3671 -20.3671 -20.3668 -20.3668 -20.3665 -20.3665
   -20.3611 -20.3611 -20.3608 -20.3608 -20.3605 -20.3605 -20.3603 -20.3602
   -20.3560 -20.3560 -20.3556 -20.3556 -20.3549 -20.3548 -20.3545 -20.3544
   -20.3535 -20.3534 -20.3533 -20.3532 -20.3508 -20.3508 -20.3503 -20.3503
   -20.3487 -20.3486 -20.3475 -20.3475 -20.3468 -20.3468 -20.3456 -20.3456
   -20.3381 -20.3381 -20.3371 -20.3371 -20.3370 -20.3370 -20.3361 -20.3360
    -9.7032  -9.7032  -9.3383  -9.3376  -9.3190  -9.3184  -8.9801  -8.9800
    -8.6102  -8.6098  -8.5538  -8.5528  -8.5409  -8.5389  -8.5274  -8.5255
    -7.9943  -7.9931  -7.9354  -7.9348  -7.9185  -7.9177  -7.8788  -7.8783
     1.3952   1.3983   1.4800   1.4812   1.5608   1.5628   1.7315   1.7338
     2.6101   2.6114   2.9404   2.9423   3.0210   3.0421   3.0687   3.0839
     3.2151   3.2239   3.2678   3.2885   3.5506   3.5662   3.6393   3.6488
     3.7570   3.7579   4.2698   4.2973   4.3420   4.3558   4.7708   4.8221
     4.8974   4.9121   4.9321   4.9719   5.0244   5.0515   5.3846   5.4057
     5.4618   5.4626   5.6089   5.6415   5.7126   5.7135   6.0126   6.0173
[...]
    11.3127  11.3127  11.3127  11.3127  11.4973  11.4973  11.4973  11.4973
    12.0394  12.0394  12.0394  12.0394  12.1529  12.1530  12.1530  12.1530
    12.9037  12.9037  12.9037  12.9037  13.0811  13.0811  13.0811  13.0811
    15.5156  15.5156  15.5156  15.5156  16.7385  16.7386  16.7386  16.7386
    17.4552  17.4552  17.4552  17.4552  17.5650

          k =-0.5000 0.3274 0.0000 ( 62676 PWs)   bands (ev):

   -66.2260 -66.2260 -66.2257 -66.2257 -66.2253 -66.2253 -66.2250 -66.2250
   -30.6004 -30.6004 -30.5976 -30.5976 -30.5801 -30.5801 -30.5771 -30.5771
   -30.5571 -30.5571 -30.5536 -30.5536 -30.5384 -30.5384 -30.5320 -30.5320
   -30.5286 -30.5286 -30.5137 -30.5136 -30.4965 -30.4965 -30.4917 -30.4917
   -20.3870 -20.3870 -20.3868 -20.3868 -20.3864 -20.3864 -20.3863 -20.3862
   -20.3673 -20.3673 -20.3673 -20.3673 -20.3666 -20.3666 -20.3665 -20.3665
   -20.3611 -20.3611 -20.3610 -20.3610 -20.3605 -20.3605 -20.3604 -20.3604
   -20.3568 -20.3568 -20.3554 -20.3554 -20.3550 -20.3550 -20.3528 -20.3528
   -20.3526 -20.3526 -20.3522 -20.3522 -20.3513 -20.3513 -20.3508 -20.3508
   -20.3497 -20.3497 -20.3486 -20.3486 -20.3460 -20.3460 -20.3458 -20.3458
   -20.3377 -20.3377 -20.3376 -20.3376 -20.3366 -20.3366 -20.3365 -20.3365
    -9.6267  -9.6267  -9.4734  -9.4733  -9.0601  -9.0601  -8.8515  -8.8515
    -8.6645  -8.6644  -8.6118  -8.6117  -8.5590  -8.5589  -8.5230  -8.5229
    -8.2037  -8.2037  -8.1695  -8.1695  -7.8237  -7.8237  -7.8044  -7.8044
     1.2258   1.2258   1.2321   1.2321   2.2174   2.2174   2.3111   2.3111
     2.9124   2.9124   2.9525   2.9526   3.0058   3.0059   3.1108   3.1108
     3.1735   3.1735   3.3875   3.3875   3.4814   3.4814   3.6195   3.6195
     3.7742   3.7743   3.8594   3.8595   4.1859   4.1859   4.3576   4.3576
     4.7787   4.7787   4.7886   4.7886   5.0269   5.0269   5.1022   5.1022
     5.2834   5.2834   5.6480   5.6480   6.0516   6.0516   6.0783   6.0784
     6.3127   6.3127   6.3902   6.3902   6.4532   6.4532   6.6775   6.6775
     6.9794   6.9794   7.0349   7.0349   7.0678   7.0678   7.4135   7.4135
     7.4349   7.4349   7.5169   7.5169   7.5445   7.5445   7.8524   7.8524
    10.4559  10.4559  11.2006  11.2006  11.2569  11.2570  11.5138  11.5138
    11.7646  11.7646  12.0327  12.0327  12.5759  12.5759  12.6099  12.6099
    12.9132  12.9132  12.9936  12.9936  13.0772  13.0772  13.5554  13.5554
    15.0731  15.0731  15.3578  15.3578  16.1901  16.1902  16.5777  16.5777
    16.6670  16.6670  17.2598  17.2598  17.8705

          k =-0.5000 0.3274 0.1658 ( 62652 PWs)   bands (ev):

   -66.2260 -66.2260 -66.2256 -66.2256 -66.2253 -66.2253 -66.2250 -66.2250
   -30.5966 -30.5966 -30.5924 -30.5924 -30.5805 -30.5805 -30.5755 -30.5755
   -30.5568 -30.5568 -30.5539 -30.5539 -30.5398 -30.5398 -30.5345 -30.5345
   -30.5281 -30.5281 -30.5131 -30.5131 -30.5009 -30.5009 -30.4948 -30.4948
   -20.3870 -20.3870 -20.3868 -20.3868 -20.3865 -20.3865 -20.3863 -20.3863
   -20.3673 -20.3673 -20.3672 -20.3672 -20.3667 -20.3667 -20.3666 -20.3666
   -20.3611 -20.3611 -20.3610 -20.3610 -20.3605 -20.3605 -20.3604 -20.3604
   -20.3565 -20.3565 -20.3551 -20.3551 -20.3550 -20.3550 -20.3528 -20.3528
   -20.3525 -20.3525 -20.3521 -20.3521 -20.3513 -20.3513 -20.3509 -20.3508
   -20.3496 -20.3496 -20.3485 -20.3485 -20.3463 -20.3463 -20.3461 -20.3461
   -20.3376 -20.3376 -20.3376 -20.3376 -20.3367 -20.3367 -20.3366 -20.3366
    -9.5604  -9.5604  -9.3938  -9.3938  -9.0726  -9.0726  -8.8314  -8.8314
    -8.6778  -8.6777  -8.6047  -8.6047  -8.5538  -8.5538  -8.5259  -8.5258
    -8.2022  -8.2022  -8.1744  -8.1743  -7.9409  -7.9409  -7.9200  -7.9200
     1.4803   1.4803   1.4870   1.4870   2.2237   2.2237   2.3074   2.3074
     2.9575   2.9576   2.9867   2.9867   3.0198   3.0198   3.1322   3.1322
     3.1825   3.1825   3.4357   3.4357   3.5259   3.5259   3.6645   3.6645
     3.7700   3.7700   3.8768   3.8768   4.1765   4.1765   4.3402   4.3402
     4.6105   4.6105   4.7490   4.7490   4.8745   4.8746   4.9436   4.9436
     5.0229   5.0230   5.3832   5.3833   5.6875   5.6875   5.8064   5.8064
     6.5311   6.5311   6.6336   6.6336   6.6888   6.6888   6.7517   6.7518
     6.9644   6.9645   7.0388   7.0388   7.1031   7.1031   7.4094   7.4094
     7.4349   7.4349   7.5193   7.5193   7.5388   7.5388   7.8205   7.8205
    10.6134  10.6134  11.2716  11.2716  11.3461  11.3461  11.5478  11.5478
    11.7831  11.7832  12.0730  12.0730  12.5581  12.5581  12.6009  12.6009
    12.8010  12.8010  12.9245  12.9245  12.9531  12.9531  13.4168  13.4168
    15.3490  15.3491  15.6624  15.6624  16.2602  16.2602  16.5727  16.5727
    16.7104  16.7104  17.3029  17.3029  17.7299

          k =-0.5000 0.3274 0.3316 ( 62650 PWs)   bands (ev):

   -66.2258 -66.2258 -66.2255 -66.2255 -66.2255 -66.2255 -66.2252 -66.2252
   -30.5891 -30.5891 -30.5819 -30.5819 -30.5785 -30.5785 -30.5688 -30.5688
   -30.5561 -30.5561 -30.5547 -30.5547 -30.5450 -30.5450 -30.5434 -30.5434
   -30.5259 -30.5259 -30.5119 -30.5119 -30.5105 -30.5105 -30.5017 -30.5017
   -20.3868 -20.3868 -20.3867 -20.3867 -20.3866 -20.3866 -20.3864 -20.3864
   -20.3672 -20.3672 -20.3671 -20.3671 -20.3668 -20.3668 -20.3667 -20.3667
   -20.3610 -20.3610 -20.3609 -20.3609 -20.3607 -20.3607 -20.3606 -20.3606
   -20.3560 -20.3560 -20.3552 -20.3552 -20.3543 -20.3543 -20.3530 -20.3530
   -20.3522 -20.3522 -20.3519 -20.3519 -20.3515 -20.3514 -20.3511 -20.3511
   -20.3492 -20.3492 -20.3482 -20.3482 -20.3472 -20.3472 -20.3468 -20.3468
   -20.3374 -20.3374 -20.3374 -20.3374 -20.3369 -20.3369 -20.3368 -20.3368
    -9.3927  -9.3926  -9.1758  -9.1758  -9.1165  -9.1165  -8.7601  -8.7601
    -8.7277  -8.7276  -8.5818  -8.5818  -8.5418  -8.5417  -8.5287  -8.5286
    -8.2518  -8.2518  -8.2241  -8.2241  -8.1853  -8.1853  -8.1393  -8.1393
     2.0699   2.0699   2.1729   2.1729   2.2384   2.2384   2.3809   2.3809
     2.9921   2.9921   3.0110   3.0110   3.1214   3.1214   3.1675   3.1675
     3.2641   3.2641   3.5723   3.5723   3.6593   3.6594   3.7161   3.7161
     3.7801   3.7801   3.9429   3.9429   4.0831   4.0831   4.1378   4.1378
     4.2662   4.2662   4.4400   4.4400   4.5478   4.5478   4.7279   4.7279
     4.8076   4.8076   4.9058   4.9059   4.9795   4.9795   5.2966   5.2966
     6.7979   6.7979   6.8696   6.8696   6.9342   6.9342   6.9489   6.9489
     7.0505   7.0505   7.1213   7.1213   7.2071   7.2071   7.3991   7.3991
     7.4356   7.4356   7.5107   7.5107   7.5267   7.5268   7.7202   7.7202
    11.0444  11.0444  11.4665  11.4665  11.5724  11.5724  11.6492  11.6492
    11.8657  11.8657  12.2165  12.2165  12.2855  12.2855  12.4627  12.4627
    12.6016  12.6016  12.6816  12.6816  12.7287  12.7287  13.0647  13.0647
    16.0301  16.0301  16.3928  16.3928  16.4829  16.4830  16.6245  16.6246
    16.8832  16.8832  17.3676  17.3676  17.4616

          k =-0.5000 0.3274-0.4974 ( 62604 PWs)   bands (ev):

   -66.2257 -66.2257 -66.2256 -66.2256 -66.2253 -66.2253 -66.2253 -66.2253
   -30.5843 -30.5843 -30.5843 -30.5843 -30.5612 -30.5612 -30.5612 -30.5612
   -30.5563 -30.5563 -30.5563 -30.5563 -30.5537 -30.5537 -30.5537 -30.5537
   -30.5208 -30.5208 -30.5208 -30.5208 -30.5075 -30.5075 -30.5075 -30.5075
   -20.3867 -20.3867 -20.3867 -20.3867 -20.3865 -20.3865 -20.3865 -20.3865
   -20.3670 -20.3670 -20.3670 -20.3670 -20.3669 -20.3669 -20.3669 -20.3669
   -20.3609 -20.3609 -20.3609 -20.3609 -20.3607 -20.3607 -20.3607 -20.3607
   -20.3556 -20.3555 -20.3555 -20.3555 -20.3535 -20.3535 -20.3535 -20.3535
   -20.3519 -20.3519 -20.3519 -20.3519 -20.3514 -20.3514 -20.3514 -20.3514
   -20.3484 -20.3483 -20.3483 -20.3483 -20.3476 -20.3476 -20.3476 -20.3476
   -20.3372 -20.3371 -20.3371 -20.3371 -20.3371 -20.3371 -20.3371 -20.3371
    -9.2189  -9.2189  -9.2188  -9.2188  -8.9002  -8.9002  -8.9002  -8.9002
    -8.6081  -8.6081  -8.6081  -8.6081  -8.4930  -8.4930  -8.4930  -8.4929
    -8.4569  -8.4569  -8.4569  -8.4569  -8.1762  -8.1762  -8.1762  -8.1762
     2.2243   2.2243   2.2243   2.2243   2.9131   2.9131   2.9132   2.9132
     3.0219   3.0219   3.0219   3.0219   3.1091   3.1091   3.1091   3.1091
     3.3295   3.3295   3.3295   3.3295   3.6880   3.6880   3.6880   3.6880
     3.8666   3.8666   3.8666   3.8666   4.0167   4.0167   4.0167   4.0167
     4.1799   4.1799   4.1799   4.1799   4.3462   4.3462   4.3462   4.3462
     4.6284   4.6285   4.6285   4.6285   5.0358   5.0358   5.0358   5.0358
     6.8888   6.8888   6.8888   6.8888   6.9695   6.9695   6.9695   6.9695
     7.2386   7.2386   7.2386   7.2386   7.3698   7.3698   7.3698   7.3698
     7.4360   7.4361   7.4361   7.4361   7.5800   7.5800   7.5800   7.5800
    11.5497  11.5497  11.5497  11.5497  11.7000  11.7000  11.7000  11.7000
    12.0432  12.0432  12.0432  12.0432  12.1693  12.1693  12.1693  12.1693
    12.5380  12.5380  12.5380  12.5380  12.7393  12.7393  12.7393  12.7393
    16.3982  16.3982  16.3982  16.3982  16.8914  16.8915  16.8915  16.8915
    17.3751  17.3751  17.3751  17.3751  17.5828

          k =-0.5000-0.4911 0.0000 ( 62680 PWs)   bands (ev):

   -66.2259 -66.2259 -66.2258 -66.2258 -66.2251 -66.2251 -66.2251 -66.2251
   -30.5980 -30.5980 -30.5979 -30.5979 -30.5675 -30.5675 -30.5659 -30.5659
   -30.5657 -30.5657 -30.5642 -30.5642 -30.5365 -30.5365 -30.5354 -30.5354
   -30.5240 -30.5240 -30.5219 -30.5219 -30.4952 -30.4952 -30.4947 -30.4947
   -20.3869 -20.3869 -20.3869 -20.3869 -20.3863 -20.3863 -20.3863 -20.3863
   -20.3673 -20.3673 -20.3673 -20.3673 -20.3666 -20.3666 -20.3666 -20.3666
   -20.3610 -20.3610 -20.3610 -20.3610 -20.3604 -20.3604 -20.3604 -20.3604
   -20.3561 -20.3561 -20.3560 -20.3560 -20.3541 -20.3541 -20.3536 -20.3536
   -20.3526 -20.3526 -20.3523 -20.3523 -20.3512 -20.3512 -20.3509 -20.3509
   -20.3494 -20.3494 -20.3491 -20.3491 -20.3459 -20.3459 -20.3459 -20.3459
   -20.3377 -20.3377 -20.3377 -20.3377 -20.3366 -20.3366 -20.3366 -20.3366
    -9.5375  -9.5375  -9.5304  -9.5304  -8.8184  -8.8183  -8.7875  -8.7875
    -8.6899  -8.6899  -8.6636  -8.6636  -8.4923  -8.4923  -8.4476  -8.4476
    -8.4450  -8.4450  -8.4033  -8.4033  -7.8146  -7.8146  -7.8144  -7.8144
     1.2277   1.2277   1.2327   1.2327   2.8459   2.8459   2.9059   2.9060
     2.9142   2.9143   2.9978   2.9978   3.0856   3.0856   3.1914   3.1914
     3.2319   3.2319   3.3212   3.3212   3.4339   3.4339   3.4670   3.4670
     3.4698   3.4698   3.8191   3.8191   4.1213   4.1214   4.2133   4.2133
     4.2681   4.2681   4.3211   4.3211   5.0212   5.0212   5.0725   5.0725
     5.3617   5.3618   5.4610   5.4610   6.0607   6.0607   6.0624   6.0624
     6.4034   6.4034   6.4467   6.4467   6.4575   6.4575   6.5282   6.5282
     7.1912   7.1912   7.2212   7.2213   7.2815   7.2815   7.3609   7.3609
     7.4265   7.4265   7.5069   7.5069   7.5676   7.5676   7.5902   7.5902
    11.0799  11.0799  11.1073  11.1073  11.2579  11.2579  11.2818  11.2818
    12.0742  12.0742  12.1460  12.1460  12.2048  12.2048  12.2230  12.2230
    12.9337  12.9337  12.9686  12.9686  13.2230  13.2230  13.3004  13.3004
    15.2651  15.2651  15.2804  15.2804  16.6257  16.6257  16.7641  16.7641
    17.3609  17.3610  17.3860  17.3861  17.4777

          k =-0.5000-0.4911 0.1658 ( 62632 PWs)   bands (ev):

   -66.2258 -66.2258 -66.2258 -66.2258 -66.2252 -66.2252 -66.2252 -66.2252
   -30.5932 -30.5932 -30.5931 -30.5931 -30.5671 -30.5671 -30.5661 -30.5661
   -30.5651 -30.5651 -30.5647 -30.5647 -30.5383 -30.5383 -30.5373 -30.5373
   -30.5233 -30.5233 -30.5212 -30.5212 -30.4992 -30.4992 -30.4985 -30.4985
   -20.3869 -20.3869 -20.3869 -20.3869 -20.3864 -20.3864 -20.3864 -20.3864
   -20.3673 -20.3673 -20.3673 -20.3672 -20.3666 -20.3666 -20.3666 -20.3666
   -20.3610 -20.3610 -20.3610 -20.3610 -20.3605 -20.3605 -20.3604 -20.3604
   -20.3558 -20.3558 -20.3557 -20.3557 -20.3541 -20.3541 -20.3537 -20.3537
   -20.3525 -20.3525 -20.3522 -20.3522 -20.3513 -20.3513 -20.3510 -20.3510
   -20.3493 -20.3493 -20.3490 -20.3490 -20.3463 -20.3463 -20.3462 -20.3462
   -20.3376 -20.3376 -20.3376 -20.3376 -20.3367 -20.3367 -20.3366 -20.3366
    -9.4627  -9.4626  -9.4546  -9.4546  -8.8332  -8.8332  -8.8026  -8.8025
    -8.6769  -8.6769  -8.6502  -8.6501  -8.4901  -8.4900  -8.4526  -8.4526
    -8.4398  -8.4397  -8.4058  -8.4057  -7.9316  -7.9316  -7.9315  -7.9315
     1.4839   1.4839   1.4901   1.4901   2.8580   2.8581   2.9124   2.9125
     2.9391   2.9392   3.0142   3.0142   3.0732   3.0732   3.1687   3.1687
     3.2900   3.2901   3.3621   3.3621   3.4639   3.4639   3.4996   3.4996
     3.5375   3.5375   3.8477   3.8477   4.1236   4.1237   4.2047   4.2047
     4.2670   4.2671   4.3064   4.3064   4.7626   4.7626   4.8476   4.8476
     5.0837   5.0837   5.1819   5.1819   5.7058   5.7058   5.7198   5.7198
     6.6120   6.6120   6.6665   6.6665   6.6796   6.6796   6.7280   6.7280
     7.1782   7.1782   7.2294   7.2295   7.3031   7.3031   7.3481   7.3481
     7.4194   7.4195   7.5046   7.5046   7.5439   7.5440   7.5932   7.5932
    11.1745  11.1745  11.2114  11.2114  11.3306  11.3306  11.3893  11.3893
    12.0809  12.0809  12.1453  12.1453  12.1976  12.1976  12.2352  12.2352
    12.8165  12.8165  12.9011  12.9011  13.0695  13.0695  13.1603  13.1603
    15.5692  15.5692  15.5872  15.5872  16.6922  16.6922  16.8272  16.8272
    17.3520  17.3521  17.3960  17.3961  17.4749

          k =-0.5000-0.4911 0.3316 ( 62596 PWs)   bands (ev):

   -66.2257 -66.2257 -66.2257 -66.2257 -66.2253 -66.2253 -66.2253 -66.2253
   -30.5810 -30.5810 -30.5809 -30.5809 -30.5677 -30.5677 -30.5661 -30.5661
   -30.5645 -30.5645 -30.5629 -30.5629 -30.5446 -30.5446 -30.5441 -30.5441
   -30.5211 -30.5211 -30.5192 -30.5192 -30.5082 -30.5082 -30.5072 -30.5072
   -20.3868 -20.3868 -20.3868 -20.3868 -20.3865 -20.3865 -20.3865 -20.3865
   -20.3671 -20.3671 -20.3671 -20.3671 -20.3668 -20.3668 -20.3668 -20.3668
   -20.3609 -20.3609 -20.3609 -20.3609 -20.3606 -20.3606 -20.3606 -20.3606
   -20.3552 -20.3552 -20.3551 -20.3551 -20.3543 -20.3543 -20.3539 -20.3539
   -20.3522 -20.3522 -20.3520 -20.3520 -20.3514 -20.3514 -20.3512 -20.3512
   -20.3489 -20.3489 -20.3486 -20.3486 -20.3471 -20.3471 -20.3470 -20.3470
   -20.3374 -20.3374 -20.3374 -20.3374 -20.3369 -20.3369 -20.3369 -20.3369
    -9.2626  -9.2626  -9.2508  -9.2508  -8.8888  -8.8887  -8.8597  -8.8597
    -8.6272  -8.6272  -8.6015  -8.6015  -8.4845  -8.4844  -8.4599  -8.4598
    -8.4314  -8.4314  -8.4128  -8.4128  -8.2107  -8.2107  -8.2093  -8.2093
     2.1587   2.1587   2.1735   2.1735   2.8840   2.8841   2.9160   2.9160
     2.9776   2.9776   3.0562   3.0562   3.0688   3.0688   3.1448   3.1448
     3.3572   3.3572   3.4051   3.4051   3.5536   3.5536   3.6182   3.6182
     3.7530   3.7530   3.9438   3.9438   4.1047   4.1047   4.1377   4.1377
     4.2030   4.2030   4.2473   4.2473   4.3675   4.3675   4.4503   4.4503
     4.6098   4.6098   4.7120   4.7120   4.9414   4.9414   4.9562   4.9562
     6.8899   6.8899   6.9959   6.9959   7.0044   7.0044   7.0363   7.0363
     7.1578   7.1579   7.2560   7.2560   7.3005   7.3005   7.3636   7.3636
     7.4084   7.4084   7.4811   7.4811   7.5142   7.5142   7.5722   7.5722
    11.4591  11.4591  11.5033  11.5033  11.5711  11.5711  11.6840  11.6840
    12.0806  12.0806  12.1411  12.1411  12.1730  12.1730  12.2769  12.2769
    12.4401  12.4401  12.5960  12.5960  12.6952  12.6952  12.7924  12.7924
    16.3823  16.3823  16.4278  16.4278  16.8778  16.8778  17.0030  17.0030
    17.2894  17.2895  17.4118  17.4118  17.4729

          k =-0.5000-0.4911-0.4974 ( 62600 PWs)   bands (ev):

   -66.2255 -66.2255 -66.2255 -66.2255 -66.2255 -66.2255 -66.2255 -66.2255
   -30.5711 -30.5711 -30.5710 -30.5710 -30.5698 -30.5698 -30.5698 -30.5698
   -30.5571 -30.5570 -30.5570 -30.5570 -30.5549 -30.5548 -30.5548 -30.5548
   -30.5167 -30.5167 -30.5167 -30.5167 -30.5145 -30.5145 -30.5145 -30.5145
   -20.3866 -20.3866 -20.3866 -20.3866 -20.3866 -20.3866 -20.3866 -20.3866
   -20.3670 -20.3670 -20.3670 -20.3670 -20.3670 -20.3670 -20.3669 -20.3669
   -20.3608 -20.3608 -20.3608 -20.3608 -20.3607 -20.3607 -20.3607 -20.3607
   -20.3547 -20.3547 -20.3547 -20.3547 -20.3544 -20.3544 -20.3544 -20.3544
   -20.3519 -20.3518 -20.3518 -20.3518 -20.3515 -20.3515 -20.3515 -20.3515
   -20.3482 -20.3482 -20.3482 -20.3482 -20.3479 -20.3479 -20.3479 -20.3479
   -20.3372 -20.3371 -20.3371 -20.3371 -20.3371 -20.3371 -20.3371 -20.3371
    -9.0324  -9.0324  -9.0324  -9.0324  -9.0054  -9.0053  -9.0053  -9.0053
    -8.5064  -8.5063  -8.5063  -8.5063  -8.4728  -8.4728  -8.4727  -8.4727
    -8.4541  -8.4541  -8.4541  -8.4541  -8.4191  -8.4191  -8.4190  -8.4190
     2.8105   2.8105   2.8105   2.8105   2.9146   2.9146   2.9147   2.9147
     3.0503   3.0503   3.0503   3.0503   3.1411   3.1411   3.1412   3.1412
     3.2698   3.2698   3.2698   3.2698   3.4615   3.4615   3.4615   3.4615
     4.0429   4.0429   4.0430   4.0430   4.1014   4.1014   4.1014   4.1014
     4.1833   4.1833   4.1833   4.1833   4.2750   4.2750   4.2750   4.2750
     4.3601   4.3601   4.3601   4.3601   4.4732   4.4732   4.4733   4.4733
     7.0484   7.0484   7.0484   7.0485   7.1607   7.1607   7.1607   7.1607
     7.2317   7.2317   7.2317   7.2317   7.3239   7.3239   7.3239   7.3239
     7.4414   7.4414   7.4415   7.4415   7.5223   7.5223   7.5223   7.5224
    11.8065  11.8065  11.8065  11.8065  11.8875  11.8875  11.8875  11.8875
    12.0110  12.0110  12.0110  12.0110  12.1976  12.1976  12.1976  12.1976
    12.2905  12.2905  12.2905  12.2905  12.4218  12.4218  12.4218  12.4218
    17.0229  17.0229  17.0229  17.0229  17.1322  17.1322  17.1323  17.1323
    17.4573  17.4574  17.4574  17.4574  17.5164

     the Fermi energy is     9.7231 ev

!    total energy              =   -6260.97049231 Ry
     Harris-Foulkes estimate   =   -6260.97049231 Ry
     estimated scf accuracy    <          1.8E-09 Ry

     The total energy is the sum of the following terms:

     one-electron contribution =   -4741.49927530 Ry
     hartree contribution      =    2606.69615540 Ry
     xc contribution           =    -965.88670812 Ry
     ewald contribution        =   -3160.28065391 Ry
     smearing contrib. (-TS)   =      -0.00001039 Ry

     convergence has been achieved in  13 iterations

     Writing output data file Landau_18.save
 
     init_run     :     43.79s CPU     45.59s WALL (       1 calls)
     electrons    :   1844.23s CPU   1878.15s WALL (       1 calls)

     Called by init_run:
     wfcinit      :     40.31s CPU     41.98s WALL (       1 calls)
     potinit      :      1.37s CPU      1.41s WALL (       1 calls)

     Called by electrons:
     c_bands      :   1622.97s CPU   1654.57s WALL (      13 calls)
     sum_band     :    213.29s CPU    214.52s WALL (      13 calls)
     v_of_rho     :      1.80s CPU      1.82s WALL (      14 calls)
     mix_rho      :      3.85s CPU      4.44s WALL (      13 calls)

     Called by c_bands:
     init_us_2    :     16.28s CPU     16.91s WALL (      54 calls)
     cegterg      :   1286.26s CPU   1316.34s WALL (      26 calls)

     Called by sum_band:

     Called by *egterg:
     h_psi        :    990.34s CPU    995.20s WALL (     118 calls)
     g_psi        :      4.43s CPU      4.45s WALL (      90 calls)
     cdiaghg      :     15.94s CPU     15.98s WALL (     116 calls)

     Called by h_psi:
     h_psi:pot    :    981.92s CPU    986.49s WALL (     118 calls)
     h_psi:calbec :    128.74s CPU    131.87s WALL (     118 calls)
     vloc_psi     :    718.35s CPU    719.31s WALL (     118 calls)
     add_vuspsi   :    134.83s CPU    135.31s WALL (     118 calls)

     General routines
     calbec       :    128.74s CPU    131.87s WALL (     118 calls)
     fft          :      1.06s CPU      1.07s WALL (      56 calls)
     fftw         :    703.57s CPU    704.27s WALL (   33894 calls)
 
     Parallel routines
 
     PWSCF        : 31m32.02s CPU    32m10.30s WALL

 
   This run was terminated on:   4:32:40  19Mar2020            

=------------------------------------------------------------------------------=
   JOB DONE.
=------------------------------------------------------------------------------=
