
     Program PWSCF v.6.2 (svn rev. 14038) starts on 11Mar2020 at  2:17:36 

     This program is part of the open-source Quantum ESPRESSO suite
     for quantum simulation of materials; please cite
         "P. Giannozzi et al., J. Phys.:Condens. Matter 21 395502 (2009);
         "P. Giannozzi et al., J. Phys.:Condens. Matter 29 465901 (2017);
          URL http://www.quantum-espresso.org", 
     in publications or presentations arising from this work. More details at
     http://www.quantum-espresso.org/quote

     Parallel version (MPI), running on    40 processors

     MPI processes distributed on    10 nodes
     K-points division:     npool     =      40
     Reading input from rscf.in

     Current dimensions of program PWSCF are:
     Max number of different atomic species (ntypx) = 10
     Max number of k-points (npk) =  40000
     Max angular momentum in pseudopotentials (lmaxx) =  3

     Subspace diagonalization in iterative solution of the eigenvalue problem:
     a serial algorithm will be used

 
     G-vector sticks info
     --------------------
     sticks:   dense  smooth     PW     G-vecs:    dense   smooth      PW
     Sum        7747    7747   2077               498127   498127   69057
 


     bravais-lattice index     =            0
     lattice parameter (alat)  =      13.8397  a.u.
     unit-cell volume          =    2804.9816 (a.u.)^3
     number of atoms/cell      =           32
     number of atomic types    =            2
     number of electrons       =       368.00
     number of Kohn-Sham states=          221
     kinetic-energy cutoff     =     120.0000  Ry
     charge density cutoff     =     480.0000  Ry
     convergence threshold     =      1.0E-08
     mixing beta               =       0.7000
     number of iterations used =            8  plain     mixing
     Exchange-correlation      = SLA PW NOGX NOGC ( 1  4  0  0 0 0)
     nstep                     =           50


     celldm(1)=  13.839685  celldm(2)=   0.000000  celldm(3)=   0.000000
     celldm(4)=   0.000000  celldm(5)=   0.000000  celldm(6)=   0.000000

     crystal axes: (cart. coord. in units of alat)
               a(1) = (   1.000000   0.000000   0.000000 )  
               a(2) = (   0.000000   1.058160   0.000000 )  
               a(3) = (   0.000000   0.000000   1.000000 )  

     reciprocal axes: (cart. coord. in units 2 pi/alat)
               b(1) = (  1.000000  0.000000  0.000000 )  
               b(2) = (  0.000000  0.945037  0.000000 )  
               b(3) = (  0.000000  0.000000  1.000000 )  


     PseudoPot. # 1 for W  read from file:
     /cluster/scratch/mnoe/QE/pps/W_ONCV_LDA-4.0.upf
     MD5 check sum: ba0307d5d4cd419d6f1d13dc49d7c13a
     Pseudo is Norm-conserving + core correction, Zval = 28.0
     Generated using ONCVPSP code by D. R. Hamann
     Using radial grid of 1380 points,  8 beta functions with: 
                l(1) =   0
                l(2) =   0
                l(3) =   1
                l(4) =   1
                l(5) =   2
                l(6) =   2
                l(7) =   3
                l(8) =   3

     PseudoPot. # 2 for O  read from file:
     /cluster/scratch/mnoe/QE/pps/O_ONCV_LDA-3.0.upf
     MD5 check sum: a1bd6164e7280c17a38c229939bfbd54
     Pseudo is Norm-conserving + core correction, Zval =  6.0
     Generated using ONCVPSP code by D. R. Hamann
     Using radial grid of  926 points,  5 beta functions with: 
                l(1) =   0
                l(2) =   0
                l(3) =   1
                l(4) =   1
                l(5) =   2

     atomic species   valence    mass     pseudopotential
        W             28.00   183.84000     W ( 1.00)
        O              6.00    15.99940     O ( 1.00)

      8 Sym. Ops., with inversion, found ( 6 have fractional translation)



   Cartesian axes

     site n.     atom                  positions (alat units)
         1           W   tau(   1) = (   0.2490800   0.2981482   0.0008700  )
         2           W   tau(   2) = (   0.7509200   0.7600119   0.9991300  )
         3           W   tau(   3) = (   0.2509200   0.2309319   0.5008700  )
         4           W   tau(   4) = (   0.7490800   0.8272282   0.4991300  )
         5           W   tau(   5) = (   0.7509200   0.2981482   0.4991300  )
         6           W   tau(   6) = (   0.2490800   0.7600119   0.5008700  )
         7           W   tau(   7) = (   0.7490800   0.2309319   0.9991300  )
         8           W   tau(   8) = (   0.2509200   0.8272282   0.0008700  )
         9           O   tau(   9) = (   0.2482900   0.0087753   0.0002700  )
        10           O   tau(  10) = (   0.7517100   1.0493848   0.9997300  )
        11           O   tau(  11) = (   0.2517100   0.5203047   0.5002700  )
        12           O   tau(  12) = (   0.7482900   0.5378554   0.4997300  )
        13           O   tau(  13) = (   0.7517100   0.0087753   0.4997300  )
        14           O   tau(  14) = (   0.2482900   1.0493848   0.5002700  )
        15           O   tau(  15) = (   0.7482900   0.5203047   0.9997300  )
        16           O   tau(  16) = (   0.2517100   0.5378554   0.0002700  )
        17           O   tau(  17) = (   0.5002500   0.2626882   0.4497822  )
        18           O   tau(  18) = (   0.4997500   0.7954718   0.5502178  )
        19           O   tau(  19) = (   0.9997500   0.2663918   0.9497822  )
        20           O   tau(  20) = (   0.0002500   0.7917683   0.0502178  )
        21           O   tau(  21) = (   0.4997500   0.2626882   0.0502178  )
        22           O   tau(  22) = (   0.5002500   0.7954718   0.9497822  )
        23           O   tau(  23) = (   0.0002500   0.2663918   0.5502178  )
        24           O   tau(  24) = (   0.9997500   0.7917683   0.4497822  )
        25           O   tau(  25) = (   0.6997822   0.2641379   0.7496200  )
        26           O   tau(  26) = (   0.3002178   0.7940222   0.2503800  )
        27           O   tau(  27) = (   0.8002178   0.2649421   0.2496200  )
        28           O   tau(  28) = (   0.1997822   0.7932180   0.7503800  )
        29           O   tau(  29) = (   0.3002178   0.2641379   0.7503800  )
        30           O   tau(  30) = (   0.6997822   0.7940222   0.2496200  )
        31           O   tau(  31) = (   0.1997822   0.2649421   0.2503800  )
        32           O   tau(  32) = (   0.8002178   0.7932180   0.7496200  )

     number of k points=    64  gaussian smearing, width (Ry)=  0.0007
                       cart. coord. in units 2pi/alat
        k(    1) = (   0.0000000   0.0000000   0.0000000), wk =   0.0092593
        k(    2) = (   0.0000000   0.0000000   0.1666667), wk =   0.0185185
        k(    3) = (   0.0000000   0.0000000   0.3333333), wk =   0.0185185
        k(    4) = (   0.0000000   0.0000000  -0.5000000), wk =   0.0092593
        k(    5) = (   0.0000000   0.1575061   0.0000000), wk =   0.0185185
        k(    6) = (   0.0000000   0.1575061   0.1666667), wk =   0.0370370
        k(    7) = (   0.0000000   0.1575061   0.3333333), wk =   0.0370370
        k(    8) = (   0.0000000   0.1575061  -0.5000000), wk =   0.0185185
        k(    9) = (   0.0000000   0.3150122   0.0000000), wk =   0.0185185
        k(   10) = (   0.0000000   0.3150122   0.1666667), wk =   0.0370370
        k(   11) = (   0.0000000   0.3150122   0.3333333), wk =   0.0370370
        k(   12) = (   0.0000000   0.3150122  -0.5000000), wk =   0.0185185
        k(   13) = (   0.0000000  -0.4725183   0.0000000), wk =   0.0092593
        k(   14) = (   0.0000000  -0.4725183   0.1666667), wk =   0.0185185
        k(   15) = (   0.0000000  -0.4725183   0.3333333), wk =   0.0185185
        k(   16) = (   0.0000000  -0.4725183  -0.5000000), wk =   0.0092593
        k(   17) = (   0.1666667   0.0000000   0.1666667), wk =   0.0370370
        k(   18) = (   0.1666667   0.0000000   0.3333333), wk =   0.0370370
        k(   19) = (   0.1666667   0.0000000  -0.5000000), wk =   0.0185185
        k(   20) = (   0.1666667   0.1575061   0.1666667), wk =   0.0740741
        k(   21) = (   0.1666667   0.1575061   0.3333333), wk =   0.0740741
        k(   22) = (   0.1666667   0.1575061  -0.5000000), wk =   0.0370370
        k(   23) = (   0.1666667   0.3150122   0.1666667), wk =   0.0740741
        k(   24) = (   0.1666667   0.3150122   0.3333333), wk =   0.0740741
        k(   25) = (   0.1666667   0.3150122  -0.5000000), wk =   0.0370370
        k(   26) = (   0.1666667  -0.4725183   0.1666667), wk =   0.0370370
        k(   27) = (   0.1666667  -0.4725183   0.3333333), wk =   0.0370370
        k(   28) = (   0.1666667  -0.4725183  -0.5000000), wk =   0.0185185
        k(   29) = (   0.3333333   0.0000000   0.3333333), wk =   0.0370370
        k(   30) = (   0.3333333   0.0000000  -0.5000000), wk =   0.0185185
        k(   31) = (   0.3333333   0.1575061   0.3333333), wk =   0.0740741
        k(   32) = (   0.3333333   0.1575061  -0.5000000), wk =   0.0370370
        k(   33) = (   0.3333333   0.3150122   0.3333333), wk =   0.0740741
        k(   34) = (   0.3333333   0.3150122  -0.5000000), wk =   0.0370370
        k(   35) = (   0.3333333  -0.4725183   0.3333333), wk =   0.0370370
        k(   36) = (   0.3333333  -0.4725183  -0.5000000), wk =   0.0185185
        k(   37) = (  -0.5000000   0.0000000  -0.5000000), wk =   0.0092593
        k(   38) = (  -0.5000000   0.1575061  -0.5000000), wk =   0.0185185
        k(   39) = (  -0.5000000   0.3150122  -0.5000000), wk =   0.0185185
        k(   40) = (  -0.5000000  -0.4725183  -0.5000000), wk =   0.0092593
        k(   41) = (   0.1666667   0.0000000   0.0000000), wk =   0.0185185
        k(   42) = (   0.3333333   0.0000000   0.0000000), wk =   0.0185185
        k(   43) = (  -0.5000000   0.0000000   0.0000000), wk =   0.0092593
        k(   44) = (   0.1666667  -0.1575061   0.0000000), wk =   0.0370370
        k(   45) = (   0.3333333  -0.1575061   0.0000000), wk =   0.0370370
        k(   46) = (  -0.5000000  -0.1575061   0.0000000), wk =   0.0185185
        k(   47) = (   0.1666667  -0.3150122   0.0000000), wk =   0.0370370
        k(   48) = (   0.3333333  -0.3150122   0.0000000), wk =   0.0370370
        k(   49) = (  -0.5000000  -0.3150122   0.0000000), wk =   0.0185185
        k(   50) = (   0.1666667   0.4725183   0.0000000), wk =   0.0185185
        k(   51) = (   0.3333333   0.4725183   0.0000000), wk =   0.0185185
        k(   52) = (  -0.5000000   0.4725183   0.0000000), wk =   0.0092593
        k(   53) = (   0.3333333   0.0000000   0.1666667), wk =   0.0370370
        k(   54) = (  -0.5000000   0.0000000   0.1666667), wk =   0.0185185
        k(   55) = (   0.3333333  -0.1575061   0.1666667), wk =   0.0740741
        k(   56) = (  -0.5000000  -0.1575061   0.1666667), wk =   0.0370370
        k(   57) = (   0.3333333  -0.3150122   0.1666667), wk =   0.0740741
        k(   58) = (  -0.5000000  -0.3150122   0.1666667), wk =   0.0370370
        k(   59) = (   0.3333333   0.4725183   0.1666667), wk =   0.0370370
        k(   60) = (  -0.5000000   0.4725183   0.1666667), wk =   0.0185185
        k(   61) = (  -0.5000000   0.0000000   0.3333333), wk =   0.0185185
        k(   62) = (  -0.5000000  -0.1575061   0.3333333), wk =   0.0370370
        k(   63) = (  -0.5000000  -0.3150122   0.3333333), wk =   0.0370370
        k(   64) = (  -0.5000000   0.4725183   0.3333333), wk =   0.0185185

     Dense  grid:   498127 G-vectors     FFT dimensions: ( 100, 108, 100)

     Estimated max dynamical RAM per process >       3.15 GB

     Estimated total dynamical RAM >     125.81 GB

     Initial potential from superposition of free atoms

     starting charge  367.99656, renormalised to  368.00000
     Starting wfc are  232 randomized atomic wfcs

     total cpu time spent up to now is       45.1 secs

     Self-consistent Calculation

     iteration #  1     ecut=   120.00 Ry     beta= 0.70
     Davidson diagonalization with overlap
     ethr =  1.00E-02,  avg # of iterations =  5.0

     total cpu time spent up to now is      149.2 secs

     total energy              =   -6253.98074175 Ry
     Harris-Foulkes estimate   =   -6264.58703417 Ry
     estimated scf accuracy    <      13.43011500 Ry

     iteration #  2     ecut=   120.00 Ry     beta= 0.70
     Davidson diagonalization with overlap
     ethr =  3.65E-03,  avg # of iterations =  3.5

     total cpu time spent up to now is      248.4 secs

     total energy              =   -6250.81183382 Ry
     Harris-Foulkes estimate   =   -6270.83829310 Ry
     estimated scf accuracy    <      53.87870153 Ry

     iteration #  3     ecut=   120.00 Ry     beta= 0.70
     Davidson diagonalization with overlap
     ethr =  3.65E-03,  avg # of iterations =  3.3

     total cpu time spent up to now is      343.1 secs

     total energy              =   -6261.08668455 Ry
     Harris-Foulkes estimate   =   -6261.38147363 Ry
     estimated scf accuracy    <       0.96295029 Ry

     iteration #  4     ecut=   120.00 Ry     beta= 0.70
     Davidson diagonalization with overlap
     ethr =  2.62E-04,  avg # of iterations =  3.0

     total cpu time spent up to now is      421.6 secs

     total energy              =   -6261.09611945 Ry
     Harris-Foulkes estimate   =   -6261.16649185 Ry
     estimated scf accuracy    <       0.23699172 Ry

     iteration #  5     ecut=   120.00 Ry     beta= 0.70
     Davidson diagonalization with overlap
     ethr =  6.44E-05,  avg # of iterations =  4.5

     total cpu time spent up to now is      504.4 secs

     total energy              =   -6261.09199191 Ry
     Harris-Foulkes estimate   =   -6261.12622061 Ry
     estimated scf accuracy    <       0.07532130 Ry

     iteration #  6     ecut=   120.00 Ry     beta= 0.70
     Davidson diagonalization with overlap
     ethr =  2.05E-05,  avg # of iterations =  4.8

     total cpu time spent up to now is      592.2 secs

     total energy              =   -6261.10861614 Ry
     Harris-Foulkes estimate   =   -6261.11074539 Ry
     estimated scf accuracy    <       0.00574951 Ry

     iteration #  7     ecut=   120.00 Ry     beta= 0.70
     Davidson diagonalization with overlap
     ethr =  1.56E-06,  avg # of iterations =  3.8

     total cpu time spent up to now is      673.6 secs

     total energy              =   -6261.10934032 Ry
     Harris-Foulkes estimate   =   -6261.10942184 Ry
     estimated scf accuracy    <       0.00016480 Ry

     iteration #  8     ecut=   120.00 Ry     beta= 0.70
     Davidson diagonalization with overlap
     ethr =  4.48E-08,  avg # of iterations =  3.1

     total cpu time spent up to now is      772.6 secs

     total energy              =   -6261.10940064 Ry
     Harris-Foulkes estimate   =   -6261.10940502 Ry
     estimated scf accuracy    <       0.00002074 Ry

     iteration #  9     ecut=   120.00 Ry     beta= 0.70
     Davidson diagonalization with overlap
     ethr =  5.64E-09,  avg # of iterations =  2.0

     total cpu time spent up to now is      849.4 secs

     total energy              =   -6261.10939790 Ry
     Harris-Foulkes estimate   =   -6261.10940226 Ry
     estimated scf accuracy    <       0.00001193 Ry

     iteration # 10     ecut=   120.00 Ry     beta= 0.70
     Davidson diagonalization with overlap
     ethr =  3.24E-09,  avg # of iterations =  2.0

     total cpu time spent up to now is      925.2 secs

     total energy              =   -6261.10939941 Ry
     Harris-Foulkes estimate   =   -6261.10939964 Ry
     estimated scf accuracy    <       0.00000053 Ry

     iteration # 11     ecut=   120.00 Ry     beta= 0.70
     Davidson diagonalization with overlap
     ethr =  1.43E-10,  avg # of iterations =  3.0

     total cpu time spent up to now is     1019.2 secs

     total energy              =   -6261.10939955 Ry
     Harris-Foulkes estimate   =   -6261.10939960 Ry
     estimated scf accuracy    <       0.00000014 Ry

     iteration # 12     ecut=   120.00 Ry     beta= 0.70
     Davidson diagonalization with overlap
     ethr =  3.92E-11,  avg # of iterations =  1.9

     total cpu time spent up to now is     1094.5 secs

     total energy              =   -6261.10939954 Ry
     Harris-Foulkes estimate   =   -6261.10939956 Ry
     estimated scf accuracy    <       0.00000003 Ry

     iteration # 13     ecut=   120.00 Ry     beta= 0.70
     Davidson diagonalization with overlap
     ethr =  9.08E-12,  avg # of iterations =  2.7

     total cpu time spent up to now is     1188.9 secs

     End of self-consistent calculation

          k = 0.0000 0.0000 0.0000 ( 62239 PWs)   bands (ev):

   -66.1756 -66.1752 -66.1745 -66.1745 -66.1741 -66.1741 -66.1735 -66.1731
   -30.5681 -30.5648 -30.5648 -30.5616 -30.5215 -30.5212 -30.5182 -30.5180
   -30.5162 -30.5159 -30.5131 -30.5128 -30.5085 -30.5062 -30.5059 -30.5037
   -30.4204 -30.4203 -30.4178 -30.4177 -30.4161 -30.4159 -30.4134 -30.4133
   -20.3356 -20.3355 -20.3355 -20.3355 -20.3354 -20.3354 -20.3354 -20.3354
   -20.3179 -20.3176 -20.3176 -20.3174 -20.3128 -20.3128 -20.3125 -20.3123
   -20.3123 -20.3123 -20.3121 -20.3121 -20.3121 -20.3118 -20.3117 -20.3116
   -20.3112 -20.3112 -20.3110 -20.3109 -20.3105 -20.3105 -20.3102 -20.3102
   -20.3036 -20.3036 -20.3032 -20.3032 -20.3030 -20.3028 -20.3027 -20.3026
   -20.3019 -20.3019 -20.3016 -20.3016 -20.3015 -20.3015 -20.3013 -20.3012
   -20.2956 -20.2956 -20.2950 -20.2950 -20.2950 -20.2950 -20.2945 -20.2945
    -9.9532  -9.6798  -9.5109  -9.5107  -9.2490  -9.2485  -9.0700  -9.0597
    -9.0477  -8.8757  -8.8511  -8.8510  -7.8521  -7.7929  -7.7928  -7.7832
    -7.7829  -7.7575  -7.7573  -7.7412  -7.6289  -7.6286  -7.6079  -7.6077
     1.1760   1.1765   1.2605   1.2610   1.2776   1.2783   1.3661   1.6301
     1.6302   1.6305   1.6370   1.8522   2.3824   2.4555   2.5792   2.5792
     2.7269   2.7269   4.1319   4.1325   4.3489   4.3498   4.8367   4.8367
     4.8396   4.8408   4.8636   4.8638   5.0342   5.0343   5.0652   5.4439
     5.4444   5.5148   5.5162   5.5269   5.5270   5.5794   5.5807   5.8126
     5.8131   5.8789   5.8789   5.9382   5.9626   6.0344   6.0347   6.1045
     6.1047   6.2460   6.2463   6.5714   6.5718   6.8058   6.8065   6.8336
     6.8340   6.8801   7.0182   7.0211   7.0872   7.0877   7.3869   7.3875
     7.4306   7.4312   7.7828   7.7965   8.0755   8.0761   8.1457   8.1463
     9.2230   9.2298   9.9814   9.9816  10.0198  10.0201  12.2274  12.2290
    12.2789  12.2822  12.2978  12.2994  12.4902  12.4907  12.8576  12.8621
    13.2283  13.2291  13.4010  13.4018  13.7692  14.1470  14.1478  14.1497
    14.1525  14.3327  14.3376  14.9130  15.4044  15.4156  15.4541  16.0434
    16.0435  16.8128  17.0523  17.0527  17.4888

          k = 0.0000 0.0000 0.1667 ( 62262 PWs)   bands (ev):

   -66.1755 -66.1751 -66.1746 -66.1745 -66.1742 -66.1741 -66.1736 -66.1732
   -30.5681 -30.5652 -30.5649 -30.5619 -30.5208 -30.5179 -30.5162 -30.5161
   -30.5134 -30.5125 -30.5111 -30.5063 -30.5060 -30.5055 -30.5045 -30.5041
   -30.4271 -30.4245 -30.4227 -30.4201 -30.4200 -30.4174 -30.4162 -30.4136
   -20.3356 -20.3355 -20.3355 -20.3355 -20.3354 -20.3354 -20.3354 -20.3354
   -20.3179 -20.3176 -20.3176 -20.3174 -20.3127 -20.3127 -20.3125 -20.3123
   -20.3123 -20.3122 -20.3122 -20.3121 -20.3119 -20.3119 -20.3117 -20.3115
   -20.3113 -20.3111 -20.3111 -20.3109 -20.3106 -20.3105 -20.3103 -20.3102
   -20.3035 -20.3034 -20.3032 -20.3031 -20.3029 -20.3028 -20.3027 -20.3026
   -20.3017 -20.3017 -20.3014 -20.3014 -20.3013 -20.3013 -20.3012 -20.3012
   -20.2960 -20.2955 -20.2955 -20.2954 -20.2951 -20.2949 -20.2949 -20.2945
    -9.9060  -9.6259  -9.5276  -9.4483  -9.2630  -9.1590  -9.0787  -9.0203
    -9.0057  -8.8643  -8.8555  -8.8218  -7.9041  -7.8897  -7.8532  -7.7966
    -7.7868  -7.7706  -7.7594  -7.7477  -7.7446  -7.7405  -7.6385  -7.6174
     1.2563   1.2641   1.2680   1.2848   1.4325   1.4573   1.5362   1.6231
     1.6291   1.6934   1.8014   1.9696   2.4698   2.5470   2.5886   2.6677
     2.7184   2.8150   4.0736   4.1317   4.3359   4.3623   4.3685   4.4661
     4.6736   4.7819   4.8334   4.9064   4.9175   5.0193   5.0461   5.2769
     5.3418   5.4258   5.5017   5.5218   5.5592   5.5983   5.6221   5.6347
     5.7266   5.7608   5.8041   5.9189   5.9759   6.0919   6.1028   6.1315
     6.2680   6.4072   6.4829   6.5607   6.6710   6.6997   6.7779   6.8257
     6.8435   6.8551   6.9778   7.0128   7.0201   7.0972   7.1568   7.1573
     7.2042   7.2696   7.8021   7.8038   8.0354   8.0915   8.1035   8.1465
     9.5781   9.6120   9.9831  10.0172  10.2440  10.2990  12.1578  12.2033
    12.2484  12.2786  12.3217  12.3567  12.4934  12.5847  12.8729  12.9195
    13.0298  13.2202  13.2802  13.4012  13.8968  14.0061  14.0231  14.1457
    14.1467  14.3312  14.4566  15.0238  15.4194  15.4380  15.4681  16.0152
    16.3543  16.7966  16.9827  17.2407  17.5394

          k = 0.0000 0.0000 0.3333 ( 62268 PWs)   bands (ev):

   -66.1753 -66.1749 -66.1748 -66.1744 -66.1743 -66.1739 -66.1738 -66.1734
   -30.5678 -30.5660 -30.5646 -30.5628 -30.5199 -30.5172 -30.5170 -30.5144
   -30.5100 -30.5088 -30.5072 -30.5050 -30.4932 -30.4926 -30.4892 -30.4877
   -30.4453 -30.4428 -30.4407 -30.4382 -30.4192 -30.4170 -30.4166 -30.4144
   -20.3356 -20.3355 -20.3355 -20.3355 -20.3355 -20.3355 -20.3354 -20.3354
   -20.3179 -20.3177 -20.3176 -20.3175 -20.3126 -20.3125 -20.3124 -20.3124
   -20.3123 -20.3122 -20.3121 -20.3120 -20.3120 -20.3118 -20.3116 -20.3116
   -20.3113 -20.3112 -20.3111 -20.3110 -20.3109 -20.3105 -20.3104 -20.3103
   -20.3035 -20.3033 -20.3030 -20.3027 -20.3027 -20.3027 -20.3026 -20.3025
   -20.3020 -20.3020 -20.3017 -20.3017 -20.3003 -20.3002 -20.3000 -20.2999
   -20.2972 -20.2968 -20.2967 -20.2963 -20.2954 -20.2951 -20.2948 -20.2946
    -9.7915  -9.5797  -9.5016  -9.3070  -9.3019  -9.1083  -8.9317  -8.9026
    -8.8683  -8.8575  -8.7894  -8.7063  -8.2065  -8.2050  -8.1009  -8.0822
    -7.8313  -7.8066  -7.7785  -7.7538  -7.7417  -7.7194  -7.6656  -7.6441
     1.2721   1.2851   1.3018   1.3262   1.5548   1.5736   1.6086   1.6118
     2.2301   2.2650   2.4415   2.5205   2.6137   2.7071   2.7230   2.8149
     2.9085   3.0476   3.7474   3.8362   3.8364   3.9402   4.1868   4.2519
     4.2862   4.5015   4.5396   4.8021   4.8026   4.8168   4.9403   4.9855
     5.1694   5.1777   5.1839   5.3475   5.4512   5.4652   5.6363   5.6576
     5.7176   5.7531   5.7820   5.9828   5.9999   6.1520   6.2497   6.2898
     6.3230   6.3958   6.5238   6.5398   6.5806   6.5830   6.6783   6.7138
     6.8192   6.8426   6.8435   6.9923   7.0107   7.0508   7.0909   7.1079
     7.3251   7.3594   7.7430   7.7642   7.9102   7.9663   8.1282   8.1479
     9.9882  10.0095  10.3075  10.3747  10.8567  10.9696  11.7854  11.8277
    12.0625  12.4312  12.4341  12.5014  12.5150  12.5845  12.6681  12.8481
    12.8727  13.0751  13.1616  13.4079  13.6788  13.6860  14.1110  14.1422
    14.1649  14.3105  14.7771  15.3034  15.3078  15.5856  15.8625  15.9289
    16.2690  17.2005  17.3775  17.5210  17.8126

          k = 0.0000 0.0000-0.5000 ( 62264 PWs)   bands (ev):

   -66.1751 -66.1750 -66.1747 -66.1746 -66.1740 -66.1740 -66.1737 -66.1736
   -30.5670 -30.5670 -30.5638 -30.5638 -30.5185 -30.5185 -30.5157 -30.5157
   -30.5085 -30.5085 -30.5065 -30.5065 -30.4698 -30.4698 -30.4677 -30.4677
   -30.4652 -30.4652 -30.4629 -30.4629 -30.4181 -30.4181 -30.4155 -30.4155
   -20.3356 -20.3356 -20.3355 -20.3355 -20.3355 -20.3355 -20.3354 -20.3354
   -20.3178 -20.3178 -20.3176 -20.3176 -20.3125 -20.3125 -20.3124 -20.3124
   -20.3121 -20.3121 -20.3120 -20.3120 -20.3119 -20.3119 -20.3116 -20.3116
   -20.3113 -20.3113 -20.3110 -20.3110 -20.3109 -20.3109 -20.3103 -20.3103
   -20.3034 -20.3034 -20.3028 -20.3028 -20.3024 -20.3024 -20.3024 -20.3024
   -20.3022 -20.3022 -20.3021 -20.3021 -20.2988 -20.2988 -20.2985 -20.2985
   -20.2984 -20.2983 -20.2981 -20.2981 -20.2953 -20.2953 -20.2947 -20.2947
    -9.6697  -9.6696  -9.3845  -9.3845  -9.1746  -9.1746  -8.8888  -8.8888
    -8.5733  -8.5733  -8.5456  -8.5455  -8.5230  -8.5230  -8.4466  -8.4466
    -7.8198  -7.8198  -7.7663  -7.7663  -7.7032  -7.7032  -7.6813  -7.6813
     1.2813   1.2813   1.3213   1.3213   1.5923   1.5923   1.5942   1.5943
     2.6456   2.6456   2.9578   2.9579   3.0952   3.0952   3.1411   3.1411
     3.2623   3.2623   3.3261   3.3261   3.4374   3.4374   3.7638   3.7638
     3.8932   3.8932   4.4276   4.4276   4.7514   4.7514   4.8933   4.8934
     5.2431   5.2431   5.3168   5.3168   5.3315   5.3315   5.6808   5.6808
     5.7367   5.7367   5.9348   5.9348   6.1743   6.1743   6.2534   6.2534
     6.3230   6.3230   6.4649   6.4649   6.4820   6.4820   6.5072   6.5072
     6.7817   6.7817   6.8199   6.8199   7.0716   7.0716   7.4775   7.4775
     7.5386   7.5386   7.6911   7.6911   7.7140   7.7140   8.1450   8.1450
     9.9985   9.9985  11.1059  11.1059  11.1717  11.1717  11.5457  11.5457
    11.7672  11.7672  12.5277  12.5277  12.6447  12.6447  12.7524  12.7524
    12.9221  12.9221  13.2462  13.2462  13.4570  13.4570  14.1371  14.1371
    14.2645  14.2646  15.0971  15.0971  15.7295  15.7295  15.7811  15.7811
    16.6281  16.6281  17.8424  17.8425  18.1674

          k = 0.0000 0.1575 0.0000 ( 62231 PWs)   bands (ev):

   -66.1755 -66.1752 -66.1745 -66.1745 -66.1742 -66.1742 -66.1735 -66.1732
   -30.5642 -30.5610 -30.5609 -30.5578 -30.5213 -30.5210 -30.5186 -30.5182
   -30.5160 -30.5156 -30.5136 -30.5130 -30.5123 -30.5101 -30.5095 -30.5077
   -30.4203 -30.4202 -30.4180 -30.4178 -30.4159 -30.4158 -30.4136 -30.4135
   -20.3356 -20.3355 -20.3355 -20.3355 -20.3354 -20.3354 -20.3354 -20.3354
   -20.3175 -20.3173 -20.3173 -20.3170 -20.3128 -20.3128 -20.3127 -20.3125
   -20.3125 -20.3123 -20.3123 -20.3123 -20.3122 -20.3122 -20.3117 -20.3117
   -20.3112 -20.3111 -20.3109 -20.3109 -20.3106 -20.3106 -20.3103 -20.3102
   -20.3036 -20.3035 -20.3032 -20.3032 -20.3030 -20.3029 -20.3027 -20.3027
   -20.3019 -20.3019 -20.3016 -20.3016 -20.3016 -20.3015 -20.3013 -20.3012
   -20.2955 -20.2955 -20.2950 -20.2950 -20.2950 -20.2950 -20.2945 -20.2945
    -9.9254  -9.6909  -9.4763  -9.4760  -9.2563  -9.2557  -9.0589  -9.0485
    -8.9966  -8.8285  -8.8111  -8.8109  -7.9472  -7.8926  -7.8925  -7.8476
    -7.7815  -7.7813  -7.7592  -7.7591  -7.6275  -7.6273  -7.6093  -7.6091
     1.1761   1.1765   1.2682   1.2688   1.2775   1.2782   1.4892   1.6294
     1.8124   1.8644   1.8646   2.0351   2.3871   2.4504   2.6504   2.6504
     2.7940   2.7941   4.0010   4.0017   4.0882   4.0890   4.8189   4.8388
     4.8390   4.8572   4.8576   4.9017   4.9052   4.9871   4.9873   5.2831
     5.2835   5.4521   5.4521   5.6104   5.6105   5.6191   5.6381   5.6401
     5.8061   5.8064   5.8772   5.8775   5.9768   6.0388   6.0390   6.1113
     6.1114   6.2375   6.2381   6.5929   6.5933   6.8372   6.8420   6.8425
     6.8701   6.8705   6.8900   7.0059   7.0061   7.0096   7.3952   7.3958
     7.4302   7.4307   7.7879   7.7959   8.0347   8.0351   8.0640   8.0644
     9.2233   9.2293  10.1812  10.1813  10.1898  10.1899  12.1545  12.1551
    12.2456  12.2457  12.2967  12.2971  12.3363  12.3367  12.8581  12.8619
    13.2638  13.2644  13.4083  13.4090  14.0417  14.0507  14.0609  14.0628
    14.1137  14.6104  14.6116  15.0758  15.4048  15.4143  15.8568  16.0094
    16.0095  16.5169  17.1855  17.1859  17.5187

          k = 0.0000 0.1575 0.1667 ( 62237 PWs)   bands (ev):

   -66.1755 -66.1751 -66.1746 -66.1744 -66.1742 -66.1741 -66.1736 -66.1732
   -30.5642 -30.5613 -30.5610 -30.5581 -30.5206 -30.5184 -30.5167 -30.5160
   -30.5144 -30.5140 -30.5113 -30.5098 -30.5081 -30.5080 -30.5066 -30.5062
   -30.4270 -30.4247 -30.4225 -30.4203 -30.4199 -30.4176 -30.4161 -30.4138
   -20.3356 -20.3355 -20.3355 -20.3355 -20.3355 -20.3354 -20.3354 -20.3354
   -20.3175 -20.3173 -20.3173 -20.3170 -20.3128 -20.3127 -20.3127 -20.3126
   -20.3125 -20.3123 -20.3122 -20.3122 -20.3122 -20.3121 -20.3117 -20.3116
   -20.3112 -20.3111 -20.3110 -20.3109 -20.3107 -20.3105 -20.3104 -20.3103
   -20.3035 -20.3034 -20.3032 -20.3031 -20.3029 -20.3028 -20.3027 -20.3027
   -20.3017 -20.3017 -20.3014 -20.3014 -20.3013 -20.3013 -20.3012 -20.3012
   -20.2960 -20.2955 -20.2955 -20.2954 -20.2951 -20.2950 -20.2949 -20.2945
    -9.8771  -9.6370  -9.4931  -9.4092  -9.2705  -9.1664  -9.0190  -9.0066
    -9.0051  -8.8188  -8.8155  -8.7862  -7.9472  -7.9177  -7.9025  -7.8919
    -7.8636  -7.8558  -7.7693  -7.7581  -7.7493  -7.7386  -7.6371  -7.6188
     1.2633   1.2679   1.2738   1.2847   1.5032   1.5360   1.5907   1.8006
     1.8211   1.8585   1.8831   2.0915   2.4754   2.5416   2.6595   2.7409
     2.7860   2.8821   3.9715   4.0167   4.0778   4.1224   4.3932   4.4639
     4.7193   4.7259   4.8015   4.8803   4.8982   4.9247   4.9927   5.2398
     5.2544   5.2870   5.2963   5.4778   5.5730   5.5809   5.6319   5.6860
     5.7213   5.7459   5.8152   5.8536   5.8642   6.1014   6.1016   6.1661
     6.2012   6.3986   6.4565   6.5822   6.7164   6.7776   6.7965   6.8174
     6.8546   6.8836   6.9597   6.9658   7.0155   7.0225   7.1561   7.1574
     7.2215   7.2692   7.8034   7.8050   7.9964   8.0270   8.0364   8.0652
     9.5832   9.6102  10.1823  10.1906  10.4118  10.4385  12.1348  12.1680
    12.2016  12.2357  12.2951  12.2975  12.3396  12.4584  12.8728  12.9176
    13.0705  13.2556  13.2871  13.4063  13.9062  13.9320  14.0444  14.0587
    14.2338  14.6062  14.7568  15.1733  15.4375  15.4688  15.8230  15.9817
    16.3180  16.6746  16.9233  17.3542  17.5821

          k = 0.0000 0.1575 0.3333 ( 62284 PWs)   bands (ev):

   -66.1753 -66.1749 -66.1748 -66.1744 -66.1743 -66.1739 -66.1738 -66.1734
   -30.5639 -30.5621 -30.5608 -30.5589 -30.5196 -30.5175 -30.5170 -30.5149
   -30.5133 -30.5120 -30.5107 -30.5089 -30.4937 -30.4928 -30.4894 -30.4878
   -30.4451 -30.4429 -30.4406 -30.4384 -30.4191 -30.4169 -30.4168 -30.4146
   -20.3356 -20.3355 -20.3355 -20.3355 -20.3355 -20.3355 -20.3354 -20.3354
   -20.3175 -20.3174 -20.3173 -20.3171 -20.3128 -20.3126 -20.3126 -20.3126
   -20.3124 -20.3123 -20.3123 -20.3121 -20.3119 -20.3118 -20.3117 -20.3115
   -20.3113 -20.3112 -20.3110 -20.3110 -20.3109 -20.3106 -20.3105 -20.3103
   -20.3034 -20.3033 -20.3030 -20.3028 -20.3027 -20.3027 -20.3027 -20.3025
   -20.3020 -20.3020 -20.3017 -20.3017 -20.3003 -20.3002 -20.3000 -20.2999
   -20.2972 -20.2967 -20.2967 -20.2963 -20.2954 -20.2951 -20.2949 -20.2946
    -9.7601  -9.5454  -9.5122  -9.3151  -9.2485  -9.0354  -8.9149  -8.9104
    -8.8591  -8.8286  -8.7618  -8.6850  -8.2123  -8.2029  -8.1157  -8.0802
    -7.9224  -7.9013  -7.8770  -7.8506  -7.7405  -7.7209  -7.6642  -7.6456
     1.2870   1.3017   1.3083   1.3261   1.7463   1.7720   1.8525   1.8570
     2.2286   2.2790   2.4432   2.5407   2.6840   2.7320   2.7648   2.8158
     2.9829   3.1081   3.7466   3.8290   3.8313   3.8909   4.0882   4.1190
     4.2459   4.3503   4.5580   4.7421   4.7714   4.8049   4.8071   4.8597
     5.0311   5.1263   5.1625   5.1629   5.3673   5.4136   5.4763   5.6131
     5.6887   5.7328   5.7881   5.8340   5.9608   6.1344   6.1950   6.2483
     6.3518   6.5456   6.5646   6.5768   6.6546   6.6692   6.6878   6.7942
     6.8065   6.8254   6.9180   6.9629   7.0052   7.0297   7.0523   7.0959
     7.3177   7.3529   7.7465   7.7625   7.8767   7.9066   8.0563   8.0677
    10.1837  10.1872  10.3160  10.3759  10.9719  11.0606  11.7872  11.8252
    12.0264  12.3500  12.4021  12.4600  12.4826  12.5527  12.6230  12.7361
    12.8612  13.0750  13.1823  13.4045  13.5849  13.5945  14.0453  14.0547
    14.4510  14.5885  15.1223  15.4255  15.5753  15.7153  15.8827  15.8979
    16.3970  17.1493  17.1570  17.4274  17.7943

          k = 0.0000 0.1575-0.5000 ( 62234 PWs)   bands (ev):

   -66.1750 -66.1750 -66.1747 -66.1747 -66.1740 -66.1740 -66.1737 -66.1737
   -30.5631 -30.5631 -30.5600 -30.5600 -30.5183 -30.5183 -30.5162 -30.5162
   -30.5120 -30.5120 -30.5103 -30.5103 -30.4697 -30.4697 -30.4678 -30.4678
   -30.4651 -30.4651 -30.4631 -30.4631 -30.4180 -30.4180 -30.4157 -30.4157
   -20.3356 -20.3355 -20.3355 -20.3355 -20.3355 -20.3355 -20.3354 -20.3354
   -20.3174 -20.3174 -20.3172 -20.3172 -20.3127 -20.3127 -20.3125 -20.3125
   -20.3125 -20.3125 -20.3120 -20.3120 -20.3119 -20.3119 -20.3116 -20.3116
   -20.3113 -20.3113 -20.3110 -20.3110 -20.3109 -20.3109 -20.3104 -20.3104
   -20.3034 -20.3033 -20.3028 -20.3028 -20.3024 -20.3024 -20.3024 -20.3024
   -20.3022 -20.3022 -20.3021 -20.3021 -20.2988 -20.2988 -20.2985 -20.2985
   -20.2984 -20.2984 -20.2981 -20.2981 -20.2953 -20.2952 -20.2948 -20.2948
    -9.6362  -9.6362  -9.3938  -9.3938  -9.1064  -9.1064  -8.8523  -8.8523
    -8.5767  -8.5766  -8.5397  -8.5396  -8.5319  -8.5318  -8.4400  -8.4400
    -7.9141  -7.9141  -7.8653  -7.8653  -7.7019  -7.7019  -7.6828  -7.6828
     1.3026   1.3026   1.3212   1.3212   1.7745   1.7745   1.8608   1.8608
     2.7130   2.7130   2.9743   2.9743   3.0876   3.0876   3.1855   3.1855
     3.2674   3.2674   3.3236   3.3236   3.4264   3.4264   3.7650   3.7650
     3.9431   3.9431   4.2399   4.2399   4.6517   4.6518   4.7398   4.7398
     5.0740   5.0740   5.2928   5.2928   5.3006   5.3006   5.4877   5.4877
     5.6985   5.6985   5.8128   5.8128   6.1717   6.1717   6.3219   6.3219
     6.3324   6.3324   6.4831   6.4831   6.4995   6.4995   6.6672   6.6672
     6.8471   6.8471   6.8479   6.8479   6.9868   6.9868   7.4874   7.4875
     7.5326   7.5327   7.6659   7.6659   7.6826   7.6826   8.0671   8.0671
    10.1878  10.1878  11.1109  11.1109  11.1690  11.1690  11.6105  11.6105
    11.8283  11.8283  12.4042  12.4042  12.6215  12.6215  12.7550  12.7550
    12.8634  12.8634  13.1473  13.1473  13.4273  13.4273  14.0496  14.0496
    14.5505  14.5505  15.4680  15.4680  15.7571  15.7571  15.8709  15.8709
    16.6682  16.6682  17.6463  17.6463  18.1494

          k = 0.0000 0.3150 0.0000 ( 62175 PWs)   bands (ev):

   -66.1755 -66.1753 -66.1744 -66.1744 -66.1742 -66.1742 -66.1734 -66.1732
   -30.5535 -30.5503 -30.5503 -30.5472 -30.5246 -30.5213 -30.5212 -30.5203
   -30.5203 -30.5188 -30.5184 -30.5181 -30.5150 -30.5150 -30.5136 -30.5132
   -30.4198 -30.4197 -30.4185 -30.4183 -30.4154 -30.4153 -30.4141 -30.4140
   -20.3356 -20.3355 -20.3355 -20.3355 -20.3355 -20.3355 -20.3354 -20.3354
   -20.3165 -20.3163 -20.3163 -20.3160 -20.3138 -20.3135 -20.3135 -20.3132
   -20.3127 -20.3126 -20.3124 -20.3124 -20.3122 -20.3121 -20.3118 -20.3118
   -20.3110 -20.3110 -20.3108 -20.3107 -20.3107 -20.3107 -20.3104 -20.3104
   -20.3034 -20.3034 -20.3031 -20.3031 -20.3031 -20.3030 -20.3028 -20.3028
   -20.3019 -20.3019 -20.3016 -20.3016 -20.3016 -20.3016 -20.3013 -20.3012
   -20.2954 -20.2954 -20.2951 -20.2951 -20.2949 -20.2949 -20.2946 -20.2946
    -9.8576  -9.7251  -9.3983  -9.3979  -9.2799  -9.2794  -9.0567  -9.0507
    -8.7890  -8.6825  -8.6772  -8.6772  -8.1890  -8.1436  -8.1435  -8.1181
    -7.7769  -7.7767  -7.7640  -7.7639  -7.6237  -7.6235  -7.6132  -7.6130
     1.1761   1.1764   1.2742   1.2749   1.2772   1.2779   1.5924   1.6264
     2.3759   2.4001   2.4367   2.5243   2.5246   2.6924   2.8599   2.8601
     2.9901   2.9904   3.6262   3.6270   3.6681   3.6689   4.1442   4.4652
     4.4656   4.7446   4.8450   4.8453   4.8702   4.8705   5.0424   5.0427
     5.0697   5.0700   5.3657   5.3659   5.5898   5.5899   5.6621   5.6623
     5.8412   5.8414   5.8901   5.8905   6.0329   6.0330   6.0895   6.1317
     6.1319   6.2051   6.2062   6.5255   6.6541   6.6545   6.8670   6.8671
     6.9164   6.9855   7.0872   7.0872   7.1065   7.1068   7.4058   7.4060
     7.4322   7.4325   7.7910   7.7943   7.8259   7.8260   7.8610   7.8612
     9.2243   9.2278  10.6427  10.6430  10.6855  10.6856  11.7814  11.7823
    11.9119  11.9122  12.2701  12.2705  12.2930  12.2933  12.8591  12.8613
    13.3751  13.3754  13.4698  13.4705  13.8184  13.8187  13.8489  13.8498
    14.7576  15.1872  15.1873  15.4060  15.4113  15.6613  15.8937  15.8939
    15.9600  16.8534  17.2470  17.6431  17.6436

          k = 0.0000 0.3150 0.1667 ( 62260 PWs)   bands (ev):

   -66.1754 -66.1752 -66.1745 -66.1744 -66.1743 -66.1742 -66.1735 -66.1733
   -30.5536 -30.5507 -30.5505 -30.5476 -30.5249 -30.5224 -30.5217 -30.5200
   -30.5187 -30.5180 -30.5154 -30.5135 -30.5122 -30.5119 -30.5077 -30.5067
   -30.4265 -30.4252 -30.4220 -30.4207 -30.4194 -30.4180 -30.4156 -30.4143
   -20.3356 -20.3355 -20.3355 -20.3355 -20.3355 -20.3355 -20.3354 -20.3354
   -20.3165 -20.3163 -20.3163 -20.3160 -20.3138 -20.3135 -20.3135 -20.3133
   -20.3126 -20.3126 -20.3123 -20.3123 -20.3122 -20.3121 -20.3118 -20.3117
   -20.3111 -20.3110 -20.3109 -20.3108 -20.3108 -20.3106 -20.3105 -20.3104
   -20.3034 -20.3033 -20.3031 -20.3030 -20.3030 -20.3029 -20.3028 -20.3028
   -20.3017 -20.3017 -20.3014 -20.3014 -20.3014 -20.3013 -20.3012 -20.3012
   -20.2959 -20.2956 -20.2954 -20.2954 -20.2951 -20.2951 -20.2949 -20.2946
    -9.8069  -9.6714  -9.4149  -9.3207  -9.2947  -9.1908  -9.0159  -9.0089
    -8.7973  -8.6820  -8.6765  -8.6628  -8.1894  -8.1522  -8.1404  -8.1245
    -7.8982  -7.8852  -7.7653  -7.7548  -7.7531  -7.7432  -7.6333  -7.6227
     1.2664   1.2677   1.2810   1.2844   1.5271   1.5351   1.7521   1.7971
     2.3778   2.4893   2.5002   2.5250   2.5274   2.6803   2.8680   2.9637
     2.9828   3.0864   3.6284   3.6597   3.6707   3.7077   4.1366   4.4064
     4.4204   4.4798   4.5116   4.7476   4.7757   4.8751   4.9042   4.9157
     5.0401   5.0783   5.1584   5.2760   5.4174   5.4500   5.5952   5.5989
     5.6627   5.7546   5.7678   5.8231   6.0287   6.0986   6.1128   6.1270
     6.2573   6.4182   6.4182   6.5875   6.6433   6.8516   6.8894   6.9298
     6.9672   6.9772   7.0684   7.0821   7.0959   7.1044   7.1564   7.1590
     7.2599   7.2769   7.7937   7.8020   7.8043   7.8280   7.8392   7.8487
     9.5925   9.6061  10.6478  10.6857  10.8277  10.8531  11.7808  11.8789
    11.9137  11.9872  12.1808  12.1979  12.3203  12.3543  12.8800  12.9104
    13.1915  13.3423  13.3645  13.4653  13.6682  13.7163  13.8166  13.8453
    14.8917  15.1792  15.3965  15.4337  15.4728  15.7316  15.8686  16.1235
    16.1931  16.8160  17.3112  17.3393  17.7561

          k = 0.0000 0.3150 0.3333 ( 62269 PWs)   bands (ev):

   -66.1752 -66.1750 -66.1747 -66.1745 -66.1742 -66.1740 -66.1737 -66.1735
   -30.5533 -30.5515 -30.5503 -30.5484 -30.5246 -30.5225 -30.5219 -30.5195
   -30.5190 -30.5171 -30.5164 -30.5145 -30.4941 -30.4933 -30.4893 -30.4883
   -30.4447 -30.4434 -30.4401 -30.4388 -30.4186 -30.4172 -30.4164 -30.4151
   -20.3356 -20.3355 -20.3355 -20.3355 -20.3355 -20.3354 -20.3354 -20.3354
   -20.3165 -20.3164 -20.3163 -20.3161 -20.3138 -20.3136 -20.3136 -20.3134
   -20.3125 -20.3122 -20.3122 -20.3122 -20.3119 -20.3119 -20.3118 -20.3114
   -20.3114 -20.3111 -20.3111 -20.3109 -20.3108 -20.3107 -20.3106 -20.3104
   -20.3033 -20.3032 -20.3030 -20.3029 -20.3028 -20.3028 -20.3027 -20.3026
   -20.3020 -20.3020 -20.3017 -20.3017 -20.3002 -20.3001 -20.3001 -20.3000
   -20.2971 -20.2968 -20.2966 -20.2964 -20.2953 -20.2950 -20.2950 -20.2947
    -9.6847  -9.5456  -9.4668  -9.3413  -9.1201  -8.9378  -8.8883  -8.8638
    -8.8293  -8.6981  -8.6491  -8.6014  -8.2566  -8.2379  -8.1966  -8.1463
    -8.1335  -8.0998  -8.0740  -8.0187  -7.7365  -7.7251  -7.6604  -7.6496
     1.2970   1.3013   1.3208   1.3256   2.1573   2.2241   2.2787   2.3925
     2.4406   2.5099   2.5268   2.7289   2.7746   2.7893   2.8894   2.9690
     3.2080   3.2943   3.6093   3.6304   3.7170   3.7457   3.8226   3.8347
     4.1149   4.3042   4.3854   4.4159   4.4966   4.5631   4.6112   4.7667
     4.7909   4.8319   4.9860   5.0639   5.1695   5.1849   5.1931   5.3606
     5.3655   5.5650   5.6430   5.7848   6.1193   6.1729   6.2159   6.2550
     6.4295   6.6075   6.6367   6.6499   6.6930   6.8058   6.8183   6.8295
     6.8965   6.9541   7.0294   7.0577   7.0690   7.1288   7.1614   7.1723
     7.2856   7.3374   7.7255   7.7376   7.7507   7.7533   7.8338   7.8472
    10.3335  10.3578  10.6638  10.6825  11.2821  11.3324  11.7667  11.7932
    11.8181  11.9442  12.1750  12.2029  12.4836  12.5629  12.6107  12.6943
    12.8162  13.0996  13.1541  13.3697  13.4596  13.4662  13.8212  13.8391
    15.0490  15.1538  15.5330  15.7931  15.9141  15.9457  15.9666  16.6442
    16.6870  16.8142  17.0020  17.5254  17.6096

          k = 0.0000 0.3150-0.5000 ( 62306 PWs)   bands (ev):

   -66.1750 -66.1749 -66.1748 -66.1747 -66.1739 -66.1739 -66.1737 -66.1737
   -30.5525 -30.5525 -30.5495 -30.5494 -30.5237 -30.5236 -30.5207 -30.5207
   -30.5177 -30.5177 -30.5158 -30.5158 -30.4694 -30.4694 -30.4683 -30.4683
   -30.4647 -30.4647 -30.4636 -30.4635 -30.4175 -30.4175 -30.4162 -30.4161
   -20.3355 -20.3355 -20.3355 -20.3355 -20.3355 -20.3355 -20.3354 -20.3354
   -20.3165 -20.3165 -20.3162 -20.3162 -20.3137 -20.3137 -20.3135 -20.3135
   -20.3124 -20.3123 -20.3121 -20.3121 -20.3118 -20.3118 -20.3115 -20.3115
   -20.3114 -20.3114 -20.3111 -20.3111 -20.3109 -20.3108 -20.3105 -20.3105
   -20.3033 -20.3032 -20.3029 -20.3029 -20.3024 -20.3024 -20.3024 -20.3024
   -20.3022 -20.3022 -20.3022 -20.3021 -20.2987 -20.2987 -20.2985 -20.2985
   -20.2984 -20.2984 -20.2982 -20.2982 -20.2952 -20.2951 -20.2949 -20.2949
    -9.5577  -9.5577  -9.4235  -9.4235  -8.9207  -8.9207  -8.7436  -8.7436
    -8.5893  -8.5893  -8.5699  -8.5699  -8.5117  -8.5117  -8.4136  -8.4136
    -8.1455  -8.1454  -8.1060  -8.1059  -7.6980  -7.6980  -7.6869  -7.6869
     1.3155   1.3155   1.3207   1.3207   2.3761   2.3761   2.5126   2.5126
     2.9070   2.9071   3.0222   3.0222   3.0632   3.0632   3.2662   3.2662
     3.3116   3.3116   3.3167   3.3167   3.3839   3.3840   3.6252   3.6252
     4.0696   4.0697   4.1100   4.1100   4.1227   4.1227   4.3632   4.3632
     4.8046   4.8046   4.9144   4.9144   5.1266   5.1267   5.2738   5.2739
     5.4097   5.4097   5.7141   5.7141   6.2777   6.2777   6.3324   6.3324
     6.4572   6.4572   6.5037   6.5037   6.5518   6.5518   6.7669   6.7669
     7.0402   7.0402   7.0585   7.0585   7.0928   7.0929   7.4990   7.4990
     7.5177   7.5177   7.5660   7.5661   7.5917   7.5917   7.8416   7.8416
    10.6688  10.6688  11.1240  11.1241  11.1623  11.1624  11.6820  11.6820
    12.0138  12.0138  12.1373  12.1373  12.5130  12.5130  12.6395  12.6395
    12.7763  12.7763  12.9428  12.9428  13.4499  13.4500  13.8307  13.8307
    15.1110  15.1110  15.6727  15.6728  16.2996  16.2996  16.4233  16.4233
    16.8251  16.8251  17.2706  17.2706  17.9369

          k = 0.0000-0.4725 0.0000 ( 62212 PWs)   bands (ev):

   -66.1754 -66.1754 -66.1744 -66.1743 -66.1743 -66.1743 -66.1733 -66.1733
   -30.5389 -30.5388 -30.5358 -30.5358 -30.5358 -30.5357 -30.5328 -30.5328
   -30.5197 -30.5197 -30.5194 -30.5194 -30.5144 -30.5143 -30.5142 -30.5142
   -30.4191 -30.4191 -30.4190 -30.4190 -30.4148 -30.4147 -30.4146 -30.4146
   -20.3356 -20.3356 -20.3355 -20.3355 -20.3355 -20.3355 -20.3354 -20.3354
   -20.3152 -20.3152 -20.3149 -20.3149 -20.3149 -20.3149 -20.3146 -20.3146
   -20.3126 -20.3125 -20.3125 -20.3125 -20.3120 -20.3120 -20.3120 -20.3120
   -20.3109 -20.3109 -20.3108 -20.3108 -20.3106 -20.3106 -20.3105 -20.3105
   -20.3033 -20.3033 -20.3032 -20.3032 -20.3029 -20.3029 -20.3029 -20.3029
   -20.3019 -20.3019 -20.3016 -20.3016 -20.3016 -20.3016 -20.3013 -20.3012
   -20.2953 -20.2953 -20.2953 -20.2953 -20.2948 -20.2947 -20.2947 -20.2947
    -9.7829  -9.7829  -9.3259  -9.3259  -9.3254  -9.3254  -9.0537  -9.0537
    -8.4926  -8.4926  -8.4390  -8.4389  -8.4389  -8.4389  -8.4356  -8.4356
    -7.7705  -7.7705  -7.7702  -7.7702  -7.6185  -7.6185  -7.6183  -7.6183
     1.1762   1.1762   1.2764   1.2764   1.2771   1.2771   1.6182   1.6182
     2.4182   2.4182   3.1902   3.1902   3.1946   3.1946   3.2414   3.2414
     3.2948   3.2948   3.2955   3.2956   3.4640   3.4640   3.4647   3.4647
     3.6716   3.6716   4.8545   4.8545   4.8548   4.8548   5.2082   5.2082
     5.2090   5.2090   5.3181   5.3181   5.3185   5.3185   5.7303   5.7303
     5.7305   5.7305   5.9968   5.9968   5.9974   5.9975   6.1641   6.1641
     6.1647   6.1647   6.2729   6.2729   6.7476   6.7476   6.7478   6.7478
     6.9516   6.9516   7.3934   7.3934   7.3937   7.3937   7.4654   7.4654
     7.4655   7.4655   7.5468   7.5468   7.5469   7.5469   7.7929   7.7929
     9.2259   9.2259  11.2298  11.2298  11.2305  11.2305  11.3159  11.3159
    11.3168  11.3168  12.2853  12.2853  12.2856  12.2856  12.8603  12.8603
    13.5670  13.5671  13.5678  13.5679  13.6244  13.6244  13.6251  13.6251
    15.3639  15.3639  15.4082  15.4082  15.6461  15.6461  15.6464  15.6464
    16.5390  16.5390  18.0099  18.0862  18.0862

          k = 0.0000-0.4725 0.1667 ( 62246 PWs)   bands (ev):

   -66.1753 -66.1753 -66.1744 -66.1744 -66.1743 -66.1743 -66.1734 -66.1734
   -30.5390 -30.5390 -30.5361 -30.5361 -30.5361 -30.5361 -30.5331 -30.5331
   -30.5191 -30.5191 -30.5145 -30.5145 -30.5124 -30.5124 -30.5073 -30.5073
   -30.4258 -30.4258 -30.4214 -30.4214 -30.4187 -30.4187 -30.4149 -30.4149
   -20.3356 -20.3356 -20.3355 -20.3355 -20.3355 -20.3355 -20.3354 -20.3354
   -20.3152 -20.3152 -20.3149 -20.3149 -20.3149 -20.3149 -20.3147 -20.3147
   -20.3125 -20.3125 -20.3124 -20.3124 -20.3120 -20.3120 -20.3119 -20.3119
   -20.3110 -20.3110 -20.3108 -20.3108 -20.3107 -20.3107 -20.3106 -20.3106
   -20.3032 -20.3032 -20.3031 -20.3031 -20.3029 -20.3029 -20.3029 -20.3029
   -20.3017 -20.3017 -20.3014 -20.3014 -20.3014 -20.3014 -20.3012 -20.3012
   -20.2957 -20.2957 -20.2952 -20.2952 -20.2952 -20.2952 -20.2948 -20.2948
    -9.7301  -9.7301  -9.3416  -9.3416  -9.2399  -9.2399  -9.0123  -9.0123
    -8.4982  -8.4982  -8.4452  -8.4451  -8.4352  -8.4352  -8.4327  -8.4327
    -7.8922  -7.8922  -7.7596  -7.7596  -7.7488  -7.7488  -7.6280  -7.6280
     1.2673   1.2673   1.2835   1.2835   1.5331   1.5331   1.7870   1.7870
     2.5084   2.5084   3.1973   3.1973   3.2090   3.2090   3.2406   3.2406
     3.2883   3.2883   3.3338   3.3338   3.4617   3.4617   3.5175   3.5175
     3.6984   3.6984   4.4442   4.4442   4.9023   4.9023   4.9666   4.9666
     5.1319   5.1319   5.1882   5.1883   5.3302   5.3302   5.4708   5.4708
     5.7035   5.7035   5.7601   5.7601   6.1075   6.1075   6.1158   6.1158
     6.4004   6.4004   6.4180   6.4180   6.7366   6.7366   6.9209   6.9209
     7.0088   7.0088   7.1550   7.1550   7.2139   7.2139   7.4513   7.4513
     7.4722   7.4722   7.5068   7.5068   7.5288   7.5288   7.8068   7.8068
     9.6003   9.6003  11.2354  11.2354  11.3095  11.3095  11.3603  11.3603
    11.4384  11.4384  12.1907  12.1907  12.3374  12.3374  12.8967  12.8967
    13.3895  13.3895  13.4897  13.4897  13.5731  13.5731  13.6204  13.6204
    15.3813  15.3813  15.5886  15.5886  15.6280  15.6280  15.9176  15.9176
    16.6007  16.6007  17.9105  17.9105  18.0417

          k = 0.0000-0.4725 0.3333 ( 62268 PWs)   bands (ev):

   -66.1751 -66.1751 -66.1746 -66.1746 -66.1741 -66.1741 -66.1736 -66.1736
   -30.5388 -30.5388 -30.5370 -30.5369 -30.5360 -30.5360 -30.5340 -30.5340
   -30.5181 -30.5181 -30.5155 -30.5155 -30.4938 -30.4938 -30.4889 -30.4889
   -30.4441 -30.4441 -30.4395 -30.4395 -30.4179 -30.4179 -30.4157 -30.4157
   -20.3355 -20.3355 -20.3355 -20.3355 -20.3355 -20.3355 -20.3354 -20.3354
   -20.3152 -20.3152 -20.3150 -20.3150 -20.3149 -20.3149 -20.3148 -20.3148
   -20.3123 -20.3123 -20.3121 -20.3121 -20.3121 -20.3121 -20.3116 -20.3116
   -20.3112 -20.3112 -20.3109 -20.3109 -20.3107 -20.3107 -20.3106 -20.3106
   -20.3032 -20.3032 -20.3030 -20.3030 -20.3028 -20.3028 -20.3026 -20.3026
   -20.3020 -20.3020 -20.3017 -20.3017 -20.3002 -20.3002 -20.3000 -20.3000
   -20.2970 -20.2970 -20.2965 -20.2965 -20.2952 -20.2951 -20.2949 -20.2949
    -9.6046  -9.6046  -9.3911  -9.3911  -9.0012  -9.0012  -8.8724  -8.8724
    -8.5332  -8.5332  -8.4733  -8.4733  -8.4279  -8.4279  -8.4091  -8.4091
    -8.1817  -8.1817  -8.0612  -8.0612  -7.7308  -7.7308  -7.6550  -7.6550
     1.3001   1.3002   1.3243   1.3243   2.2137   2.2137   2.4203   2.4203
     2.7705   2.7705   3.2067   3.2068   3.2290   3.2290   3.2358   3.2358
     3.2681   3.2681   3.4095   3.4095   3.4499   3.4499   3.6743   3.6743
     3.7542   3.7542   3.8177   3.8177   4.4815   4.4815   4.6442   4.6442
     4.7786   4.7786   4.8370   4.8370   5.1992   5.1992   5.2495   5.2495
     5.3732   5.3732   5.6316   5.6317   6.1711   6.1711   6.2563   6.2563
     6.5337   6.5337   6.6805   6.6805   6.7029   6.7030   6.8478   6.8478
     6.9886   6.9886   7.1904   7.1904   7.1923   7.1923   7.4297   7.4298
     7.4646   7.4646   7.4923   7.4923   7.5035   7.5035   7.7607   7.7607
    10.3491  10.3491  11.2502  11.2502  11.2897  11.2897  11.7419  11.7419
    11.7797  11.7797  11.8132  11.8132  12.5092  12.5092  12.7168  12.7168
    12.9209  12.9209  13.1871  13.1871  13.5852  13.5853  13.6126  13.6126
    15.4030  15.4030  15.5726  15.5726  16.2092  16.2092  16.6328  16.6328
    16.8086  16.8086  17.3980  17.3980  17.8684

          k = 0.0000-0.4725-0.5000 ( 62284 PWs)   bands (ev):

   -66.1749 -66.1749 -66.1748 -66.1748 -66.1738 -66.1738 -66.1738 -66.1738
   -30.5380 -30.5380 -30.5380 -30.5380 -30.5351 -30.5351 -30.5351 -30.5351
   -30.5168 -30.5168 -30.5168 -30.5168 -30.4689 -30.4689 -30.4689 -30.4689
   -30.4642 -30.4642 -30.4642 -30.4642 -30.4168 -30.4168 -30.4168 -30.4168
   -20.3355 -20.3355 -20.3355 -20.3355 -20.3355 -20.3354 -20.3354 -20.3354
   -20.3151 -20.3151 -20.3151 -20.3151 -20.3149 -20.3149 -20.3149 -20.3148
   -20.3122 -20.3122 -20.3122 -20.3122 -20.3116 -20.3116 -20.3116 -20.3116
   -20.3113 -20.3113 -20.3113 -20.3112 -20.3107 -20.3107 -20.3107 -20.3107
   -20.3031 -20.3031 -20.3031 -20.3031 -20.3024 -20.3024 -20.3024 -20.3024
   -20.3022 -20.3022 -20.3022 -20.3022 -20.2986 -20.2986 -20.2986 -20.2986
   -20.2983 -20.2983 -20.2983 -20.2983 -20.2950 -20.2950 -20.2950 -20.2950
    -9.4784  -9.4784  -9.4784  -9.4784  -8.6955  -8.6955  -8.6955  -8.6955
    -8.6285  -8.6285  -8.6285  -8.6285  -8.3913  -8.3913  -8.3912  -8.3912
    -8.3276  -8.3276  -8.3276  -8.3276  -7.6925  -7.6925  -7.6925  -7.6925
     1.3193   1.3193   1.3193   1.3193   2.9929   2.9929   2.9930   2.9930
     3.1416   3.1416   3.1416   3.1416   3.2266   3.2266   3.2266   3.2266
     3.2760   3.2760   3.2760   3.2760   3.4391   3.4391   3.4391   3.4391
     3.6126   3.6126   3.6126   3.6126   4.3036   4.3036   4.3036   4.3036
     4.4174   4.4174   4.4174   4.4175   5.2197   5.2197   5.2197   5.2197
     5.4955   5.4955   5.4955   5.4955   6.3237   6.3237   6.3237   6.3237
     6.5058   6.5058   6.5058   6.5058   6.6508   6.6508   6.6508   6.6508
     7.2885   7.2885   7.2885   7.2885   7.3733   7.3733   7.3733   7.3733
     7.4617   7.4617   7.4617   7.4617   7.5758   7.5758   7.5758   7.5758
    11.1289  11.1289  11.1289  11.1289  11.2835  11.2835  11.2835  11.2835
    12.2646  12.2647  12.2647  12.2647  12.3097  12.3097  12.3097  12.3097
    12.8210  12.8210  12.8210  12.8210  13.6003  13.6003  13.6003  13.6003
    15.4861  15.4861  15.4861  15.4861  16.8847  16.8847  16.8848  16.8848
    17.3072  17.3072  17.3072  17.3073  17.4394

          k = 0.1667 0.0000 0.1667 ( 62234 PWs)   bands (ev):

   -66.1754 -66.1750 -66.1745 -66.1745 -66.1741 -66.1741 -66.1737 -66.1733
   -30.5681 -30.5652 -30.5652 -30.5623 -30.5159 -30.5156 -30.5144 -30.5108
   -30.5107 -30.5097 -30.5072 -30.5063 -30.5049 -30.5044 -30.5041 -30.5038
   -30.4269 -30.4267 -30.4242 -30.4241 -30.4230 -30.4229 -30.4204 -30.4202
   -20.3356 -20.3355 -20.3355 -20.3355 -20.3354 -20.3354 -20.3354 -20.3354
   -20.3179 -20.3176 -20.3176 -20.3174 -20.3127 -20.3126 -20.3125 -20.3123
   -20.3123 -20.3123 -20.3122 -20.3119 -20.3119 -20.3119 -20.3116 -20.3115
   -20.3113 -20.3112 -20.3111 -20.3110 -20.3106 -20.3106 -20.3103 -20.3103
   -20.3035 -20.3033 -20.3033 -20.3031 -20.3028 -20.3028 -20.3026 -20.3021
   -20.3015 -20.3015 -20.3014 -20.3013 -20.3013 -20.3012 -20.3012 -20.3010
   -20.2961 -20.2959 -20.2955 -20.2955 -20.2955 -20.2953 -20.2950 -20.2950
    -9.8565  -9.5669  -9.4651  -9.4649  -9.1738  -9.1733  -9.0877  -8.9811
    -8.9687  -8.8551  -8.8267  -8.8265  -7.8956  -7.8952  -7.8772  -7.8771
    -7.8579  -7.7924  -7.7899  -7.7873  -7.7683  -7.7499  -7.7454  -7.7272
     1.4323   1.4373   1.4377   1.4542   1.4545   1.5430   1.5436   1.6209
     1.6927   1.6931   1.8886   2.0472   2.5598   2.6431   2.6764   2.6765
     2.7922   2.8239   4.0690   4.0813   4.3047   4.3050   4.4726   4.4727
     4.5316   4.5318   4.6902   4.6906   4.7396   4.8131   5.0289   5.2231
     5.2850   5.2994   5.3670   5.4857   5.4863   5.6190   5.6192   5.6907
     5.6908   5.7371   5.7373   5.7380   5.7983   5.9851   6.3377   6.4379
     6.4391   6.5188   6.5218   6.6474   6.6688   6.6902   6.6968   6.6990
     6.7192   6.8563   6.8566   6.8817   6.8860   6.9927   6.9929   7.1133
     7.3003   7.3647   7.8019   7.8039   8.0347   8.0815   8.1041   8.1046
     9.8114   9.8789  10.2467  10.2471  10.2575  10.3488  12.2088  12.2096
    12.2377  12.2378  12.2991  12.3425  12.5782  12.5786  12.9089  12.9541
    13.0255  13.0307  13.1890  13.3435  13.9801  13.9823  14.0007  14.0271
    14.0550  14.4481  14.4495  15.1453  15.3858  15.5218  15.5365  16.3209
    16.3210  16.9675  16.9676  17.1222  17.5882

          k = 0.1667 0.0000 0.3333 ( 62265 PWs)   bands (ev):

   -66.1752 -66.1748 -66.1747 -66.1744 -66.1743 -66.1740 -66.1738 -66.1735
   -30.5678 -30.5660 -30.5649 -30.5631 -30.5149 -30.5141 -30.5098 -30.5090
   -30.5080 -30.5067 -30.5054 -30.5048 -30.4930 -30.4923 -30.4895 -30.4880
   -30.4450 -30.4425 -30.4410 -30.4385 -30.4259 -30.4237 -30.4233 -30.4210
   -20.3356 -20.3355 -20.3355 -20.3355 -20.3355 -20.3355 -20.3354 -20.3354
   -20.3179 -20.3177 -20.3176 -20.3175 -20.3125 -20.3125 -20.3124 -20.3123
   -20.3123 -20.3123 -20.3120 -20.3120 -20.3119 -20.3116 -20.3116 -20.3115
   -20.3113 -20.3113 -20.3112 -20.3111 -20.3109 -20.3106 -20.3105 -20.3103
   -20.3034 -20.3033 -20.3031 -20.3029 -20.3028 -20.3026 -20.3022 -20.3019
   -20.3018 -20.3018 -20.3016 -20.3015 -20.3003 -20.3001 -20.3000 -20.2998
   -20.2972 -20.2968 -20.2967 -20.2963 -20.2959 -20.2956 -20.2953 -20.2951
    -9.7363  -9.5172  -9.4288  -9.3177  -9.2183  -9.1186  -8.9186  -8.8939
    -8.8395  -8.8343  -8.7847  -8.7133  -8.1953  -8.1943  -8.1174  -8.0943
    -7.8650  -7.8529  -7.8311  -7.7986  -7.7887  -7.7817  -7.7683  -7.7569
     1.4352   1.4471   1.5613   1.5635   1.5785   1.6030   1.6535   1.6946
     2.2372   2.2723   2.4249   2.5088   2.6997   2.7829   2.8355   2.9145
     2.9295   3.0530   3.7971   3.8443   3.9071   3.9175   4.1730   4.2642
     4.2865   4.4819   4.5278   4.5475   4.6305   4.7060   4.7575   4.9078
     4.9742   5.0501   5.0868   5.1861   5.2852   5.3701   5.5440   5.6573
     5.6877   5.7440   5.7562   5.8100   5.8335   5.9951   6.1511   6.1938
     6.4345   6.4394   6.4957   6.5783   6.6088   6.6325   6.6607   6.6810
     6.8077   6.8686   6.8697   6.8941   7.1253   7.1424   7.1504   7.2292
     7.3341   7.3850   7.7523   7.7677   7.9292   7.9687   8.0952   8.1065
    10.2369  10.2532  10.4677  10.5145  10.8657  10.9866  11.8403  11.8780
    12.1134  12.3620  12.3776  12.5089  12.5317  12.5797  12.7249  12.8310
    12.8649  12.9987  13.0431  13.2757  13.6529  13.6649  13.9954  14.0170
    14.2245  14.4214  14.7628  15.2778  15.4482  15.7807  15.9534  16.2237
    16.4142  17.1704  17.4355  17.4893  17.5770

          k = 0.1667 0.0000-0.5000 ( 62322 PWs)   bands (ev):

   -66.1750 -66.1750 -66.1746 -66.1746 -66.1741 -66.1741 -66.1737 -66.1737
   -30.5670 -30.5670 -30.5641 -30.5641 -30.5143 -30.5143 -30.5089 -30.5089
   -30.5068 -30.5068 -30.5058 -30.5058 -30.4695 -30.4695 -30.4674 -30.4673
   -30.4655 -30.4655 -30.4632 -30.4632 -30.4248 -30.4248 -30.4222 -30.4221
   -20.3356 -20.3355 -20.3355 -20.3355 -20.3355 -20.3355 -20.3354 -20.3354
   -20.3178 -20.3178 -20.3176 -20.3176 -20.3124 -20.3124 -20.3124 -20.3124
   -20.3122 -20.3122 -20.3119 -20.3119 -20.3118 -20.3117 -20.3116 -20.3116
   -20.3112 -20.3112 -20.3111 -20.3111 -20.3109 -20.3109 -20.3104 -20.3104
   -20.3034 -20.3033 -20.3030 -20.3030 -20.3023 -20.3023 -20.3022 -20.3022
   -20.3019 -20.3019 -20.3017 -20.3016 -20.2988 -20.2988 -20.2985 -20.2985
   -20.2984 -20.2984 -20.2981 -20.2981 -20.2958 -20.2957 -20.2952 -20.2952
    -9.6092  -9.6092  -9.3000  -9.3000  -9.1873  -9.1873  -8.8590  -8.8590
    -8.5671  -8.5670  -8.5656  -8.5656  -8.5088  -8.5088  -8.4492  -8.4492
    -7.8316  -7.8316  -7.8256  -7.8256  -7.7958  -7.7958  -7.7694  -7.7694
     1.4399   1.4399   1.5813   1.5813   1.5846   1.5846   1.6946   1.6946
     2.7249   2.7249   2.9724   2.9724   3.0625   3.0625   3.1833   3.1833
     3.2873   3.2873   3.4008   3.4008   3.4916   3.4917   3.7808   3.7809
     3.8860   3.8861   4.3949   4.3949   4.5498   4.5498   4.8671   4.8671
     5.0202   5.0202   5.0369   5.0369   5.2434   5.2434   5.6199   5.6199
     5.7819   5.7819   5.7906   5.7906   5.8794   5.8794   5.9686   5.9686
     6.3562   6.3562   6.4494   6.4495   6.6594   6.6594   6.7389   6.7389
     6.8026   6.8026   6.9659   6.9659   7.0200   7.0200   7.5229   7.5229
     7.5640   7.5640   7.7035   7.7035   7.7210   7.7210   8.1058   8.1058
    10.2588  10.2588  11.1825  11.1825  11.2479  11.2479  11.5696  11.5696
    11.7779  11.7779  12.5886  12.5886  12.6030  12.6030  12.6625  12.6625
    12.8924  12.8925  13.2250  13.2250  13.3452  13.3452  14.0027  14.0027
    14.3601  14.3601  15.0741  15.0741  15.8791  15.8792  16.0493  16.0493
    16.7270  16.7270  17.8652  17.8956  17.8986

          k = 0.1667 0.1575 0.1667 ( 62255 PWs)   bands (ev):

   -66.1754 -66.1750 -66.1745 -66.1745 -66.1742 -66.1742 -66.1736 -66.1733
   -30.5642 -30.5613 -30.5613 -30.5584 -30.5170 -30.5162 -30.5160 -30.5110
   -30.5109 -30.5096 -30.5089 -30.5083 -30.5078 -30.5065 -30.5057 -30.5056
   -30.4267 -30.4265 -30.4244 -30.4242 -30.4228 -30.4227 -30.4205 -30.4204
   -20.3356 -20.3355 -20.3355 -20.3355 -20.3354 -20.3354 -20.3354 -20.3354
   -20.3175 -20.3173 -20.3173 -20.3171 -20.3128 -20.3126 -20.3126 -20.3126
   -20.3126 -20.3123 -20.3122 -20.3122 -20.3120 -20.3120 -20.3116 -20.3116
   -20.3112 -20.3112 -20.3110 -20.3110 -20.3107 -20.3106 -20.3104 -20.3103
   -20.3035 -20.3033 -20.3032 -20.3032 -20.3029 -20.3028 -20.3026 -20.3022
   -20.3015 -20.3015 -20.3014 -20.3013 -20.3013 -20.3012 -20.3012 -20.3010
   -20.2960 -20.2959 -20.2955 -20.2955 -20.2955 -20.2953 -20.2950 -20.2950
    -9.8262  -9.5781  -9.4263  -9.4260  -9.1814  -9.1809  -9.0145  -8.9803
    -8.9693  -8.8105  -8.7909  -8.7907  -7.9492  -7.9135  -7.9135  -7.8911
    -7.8906  -7.8655  -7.8571  -7.8570  -7.7881  -7.7636  -7.7460  -7.7286
     1.4373   1.4377   1.5070   1.5075   1.5428   1.5433   1.6152   1.8212
     1.8786   1.8789   1.8878   2.1403   2.5667   2.6379   2.7492   2.7492
     2.8631   2.8875   3.9720   4.0010   4.1026   4.1031   4.4561   4.4565
     4.5347   4.5350   4.6909   4.7262   4.7297   4.7715   4.7946   5.1953
     5.1998   5.2508   5.2518   5.3398   5.3432   5.5770   5.5773   5.6289
     5.7249   5.7252   5.7596   5.7781   5.7782   5.8491   6.3560   6.3672
     6.3684   6.5120   6.5152   6.6588   6.6638   6.7152   6.7692   6.7847
     6.7852   6.8269   6.8744   6.8745   6.9613   6.9724   6.9732   7.1186
     7.3044   7.3631   7.8023   7.8047   7.9821   8.0278   8.0281   8.0284
     9.8261   9.8759  10.4027  10.4142  10.4149  10.4825  12.1923  12.2159
    12.2166  12.2258  12.2264  12.2393  12.4385  12.4387  12.8969  12.9525
    13.0671  13.0700  13.1970  13.3489  13.8877  13.8996  13.9009  13.9661
    14.3456  14.7502  14.7506  15.2812  15.5227  15.5356  15.7910  16.2863
    16.2865  16.8024  17.0733  17.0735  17.6376

          k = 0.1667 0.1575 0.3333 ( 62260 PWs)   bands (ev):

   -66.1752 -66.1749 -66.1747 -66.1744 -66.1743 -66.1740 -66.1738 -66.1735
   -30.5640 -30.5622 -30.5611 -30.5592 -30.5162 -30.5159 -30.5123 -30.5100
   -30.5092 -30.5092 -30.5080 -30.5065 -30.4934 -30.4925 -30.4896 -30.4882
   -30.4448 -30.4426 -30.4409 -30.4387 -30.4257 -30.4235 -30.4234 -30.4212
   -20.3356 -20.3355 -20.3355 -20.3355 -20.3355 -20.3355 -20.3354 -20.3354
   -20.3175 -20.3174 -20.3173 -20.3171 -20.3128 -20.3127 -20.3126 -20.3125
   -20.3124 -20.3123 -20.3122 -20.3119 -20.3119 -20.3117 -20.3117 -20.3115
   -20.3113 -20.3112 -20.3111 -20.3110 -20.3109 -20.3106 -20.3105 -20.3104
   -20.3034 -20.3033 -20.3031 -20.3030 -20.3028 -20.3026 -20.3022 -20.3019
   -20.3018 -20.3018 -20.3016 -20.3015 -20.3003 -20.3001 -20.3000 -20.2998
   -20.2972 -20.2968 -20.2967 -20.2963 -20.2958 -20.2956 -20.2953 -20.2951
    -9.7027  -9.4789  -9.4398  -9.2649  -9.2265  -9.0459  -8.9266  -8.8790
    -8.8355  -8.8037  -8.7575  -8.6914  -8.2011  -8.1924  -8.1330  -8.0922
    -7.9204  -7.9068  -7.8845  -7.8625  -7.8570  -7.8358  -7.7880  -7.7683
     1.5175   1.5352   1.5611   1.5782   1.7619   1.7712   1.8475   1.8758
     2.2358   2.2860   2.4261   2.5267   2.7714   2.8290   2.8664   2.9277
     2.9880   3.1099   3.7930   3.8374   3.8802   3.8990   4.0868   4.1590
     4.2502   4.3589   4.5429   4.5679   4.6625   4.6758   4.7281   4.7436
     4.8928   4.9011   4.9455   5.1507   5.1870   5.2268   5.3118   5.5960
     5.6202   5.6541   5.7316   5.7717   5.8091   5.8245   6.1515   6.1944
     6.3727   6.5203   6.5245   6.6366   6.6953   6.7009   6.7358   6.7530
     6.8576   6.8686   6.9038   6.9366   7.1195   7.1351   7.1438   7.2357
     7.3241   7.3785   7.7537   7.7652   7.8832   7.9092   8.0285   8.0315
    10.3534  10.4171  10.4917  10.5357  10.9802  11.0758  11.8414  11.8746
    12.0868  12.3425  12.3835  12.4321  12.4537  12.5586  12.6651  12.7095
    12.8546  13.0242  13.0369  13.2753  13.5489  13.5684  13.8991  13.9254
    14.5605  14.7280  15.1111  15.5406  15.6998  15.7761  15.9659  16.1927
    16.5220  17.1313  17.2122  17.4906  17.5335

          k = 0.1667 0.1575-0.5000 ( 62292 PWs)   bands (ev):

   -66.1750 -66.1749 -66.1746 -66.1746 -66.1741 -66.1741 -66.1737 -66.1737
   -30.5632 -30.5632 -30.5603 -30.5603 -30.5159 -30.5159 -30.5106 -30.5106
   -30.5094 -30.5094 -30.5076 -30.5076 -30.4694 -30.4694 -30.4675 -30.4675
   -30.4654 -30.4654 -30.4634 -30.4634 -30.4246 -30.4246 -30.4223 -30.4223
   -20.3356 -20.3355 -20.3355 -20.3355 -20.3355 -20.3355 -20.3354 -20.3354
   -20.3175 -20.3174 -20.3172 -20.3172 -20.3128 -20.3128 -20.3125 -20.3125
   -20.3124 -20.3123 -20.3119 -20.3119 -20.3118 -20.3118 -20.3116 -20.3116
   -20.3113 -20.3113 -20.3111 -20.3111 -20.3110 -20.3109 -20.3105 -20.3105
   -20.3033 -20.3033 -20.3030 -20.3030 -20.3023 -20.3023 -20.3022 -20.3022
   -20.3019 -20.3019 -20.3017 -20.3017 -20.2988 -20.2988 -20.2985 -20.2985
   -20.2984 -20.2984 -20.2981 -20.2981 -20.2957 -20.2957 -20.2952 -20.2952
    -9.5725  -9.5725  -9.3096  -9.3096  -9.1196  -9.1196  -8.8255  -8.8254
    -8.5696  -8.5696  -8.5679  -8.5679  -8.5099  -8.5099  -8.4430  -8.4430
    -7.9139  -7.9139  -7.8736  -7.8736  -7.8251  -7.8250  -7.8028  -7.8028
     1.5298   1.5298   1.5811   1.5811   1.7829   1.7829   1.8740   1.8740
     2.7917   2.7917   2.9906   2.9907   3.0718   3.0718   3.2047   3.2048
     3.2900   3.2900   3.4056   3.4056   3.4829   3.4829   3.7842   3.7842
     3.9359   3.9359   4.2452   4.2452   4.5713   4.5713   4.6490   4.6490
     4.9255   4.9255   4.9963   4.9963   5.0934   5.0934   5.4297   5.4297
     5.6855   5.6855   5.7451   5.7451   5.8454   5.8454   5.8751   5.8751
     6.4783   6.4783   6.6088   6.6088   6.6511   6.6511   6.7852   6.7852
     6.8896   6.8897   6.9232   6.9232   7.0452   7.0453   7.5235   7.5235
     7.5585   7.5585   7.6731   7.6731   7.6893   7.6893   8.0331   8.0331
    10.4167  10.4167  11.1882  11.1882  11.2464  11.2464  11.6361  11.6361
    11.8388  11.8389  12.4698  12.4698  12.5834  12.5834  12.6485  12.6485
    12.8707  12.8707  13.1205  13.1205  13.2897  13.2898  13.9084  13.9084
    14.6779  14.6779  15.4501  15.4502  15.9955  15.9955  16.0308  16.0308
    16.7583  16.7583  17.6646  17.6646  17.9360

          k = 0.1667 0.3150 0.1667 ( 62249 PWs)   bands (ev):

   -66.1753 -66.1751 -66.1744 -66.1744 -66.1742 -66.1742 -66.1736 -66.1734
   -30.5536 -30.5508 -30.5508 -30.5479 -30.5253 -30.5227 -30.5227 -30.5190
   -30.5121 -30.5120 -30.5115 -30.5112 -30.5087 -30.5073 -30.5071 -30.5067
   -30.4262 -30.4260 -30.4249 -30.4247 -30.4223 -30.4222 -30.4210 -30.4209
   -20.3356 -20.3355 -20.3355 -20.3355 -20.3355 -20.3355 -20.3354 -20.3354
   -20.3165 -20.3163 -20.3163 -20.3161 -20.3138 -20.3136 -20.3136 -20.3133
   -20.3125 -20.3125 -20.3122 -20.3122 -20.3121 -20.3120 -20.3118 -20.3117
   -20.3111 -20.3111 -20.3109 -20.3108 -20.3108 -20.3107 -20.3105 -20.3105
   -20.3034 -20.3032 -20.3032 -20.3031 -20.3029 -20.3029 -20.3025 -20.3023
   -20.3015 -20.3015 -20.3013 -20.3013 -20.3013 -20.3013 -20.3011 -20.3010
   -20.2959 -20.2958 -20.2956 -20.2955 -20.2954 -20.2954 -20.2951 -20.2951
    -9.7528  -9.6130  -9.3379  -9.3376  -9.2064  -9.2059  -8.9780  -8.9720
    -8.8061  -8.6708  -8.6676  -8.6675  -8.1913  -8.1488  -8.1487  -8.1304
    -7.8880  -7.8878  -7.8744  -7.8743  -7.7841  -7.7716  -7.7424  -7.7323
     1.4373   1.4376   1.5334   1.5340   1.5419   1.5425   1.8268   1.8838
     2.3791   2.5014   2.5016   2.5828   2.6081   2.6811   2.9703   2.9705
     3.0762   3.0836   3.6696   3.6702   3.6754   3.7238   4.1298   4.4355
     4.4358   4.4770   4.4773   4.5692   4.5697   4.7366   4.7462   4.8367
     4.8874   4.8879   5.1063   5.1295   5.3449   5.3802   5.4149   5.4150
     5.6121   5.6362   5.7344   5.7346   5.7945   5.7947   6.3928   6.3944
     6.4317   6.4996   6.5022   6.6273   6.7102   6.7388   6.8764   6.8768
     6.9266   6.9268   6.9872   7.0153   7.0905   7.0942   7.0951   7.1494
     7.3261   7.3654   7.7919   7.7965   7.8039   7.8051   7.8140   7.8521
     9.8475   9.8698  10.8023  10.8535  10.8550  10.8664  11.8542  11.9013
    11.9843  11.9845  12.2283  12.2284  12.2666  12.2667  12.8948  12.9406
    13.1904  13.1913  13.2586  13.4007  13.6585  13.6602  13.6643  13.7564
    15.0437  15.3888  15.3894  15.5253  15.5328  15.8020  16.1661  16.1663
    16.2481  16.7807  17.3693  17.4289  17.4292

          k = 0.1667 0.3150 0.3333 ( 62265 PWs)   bands (ev):

   -66.1751 -66.1749 -66.1746 -66.1744 -66.1743 -66.1741 -66.1738 -66.1736
   -30.5534 -30.5516 -30.5506 -30.5487 -30.5251 -30.5234 -30.5221 -30.5198
   -30.5112 -30.5104 -30.5089 -30.5077 -30.4938 -30.4929 -30.4896 -30.4887
   -30.4444 -30.4431 -30.4404 -30.4392 -30.4252 -30.4239 -30.4230 -30.4217
   -20.3356 -20.3355 -20.3355 -20.3355 -20.3355 -20.3354 -20.3354 -20.3354
   -20.3165 -20.3164 -20.3163 -20.3162 -20.3138 -20.3137 -20.3136 -20.3134
   -20.3124 -20.3122 -20.3121 -20.3121 -20.3119 -20.3118 -20.3118 -20.3115
   -20.3114 -20.3111 -20.3111 -20.3110 -20.3109 -20.3107 -20.3107 -20.3105
   -20.3033 -20.3032 -20.3031 -20.3030 -20.3027 -20.3026 -20.3021 -20.3020
   -20.3018 -20.3018 -20.3016 -20.3015 -20.3003 -20.3001 -20.3001 -20.2999
   -20.2971 -20.2968 -20.2967 -20.2964 -20.2957 -20.2955 -20.2954 -20.2952
    -9.6218  -9.4744  -9.3909  -9.2538  -9.1376  -8.9547  -8.8584  -8.8487
    -8.8306  -8.6826  -8.6445  -8.6067  -8.2525  -8.2466  -8.1868  -8.1458
    -8.1391  -8.0959  -8.0853  -8.0248  -7.8590  -7.8469  -7.7843  -7.7734
     1.5505   1.5602   1.5697   1.5775   2.1628   2.2314   2.2683   2.3891
     2.4244   2.5019   2.5164   2.7064   2.8596   2.9254   2.9874   3.0676
     3.2105   3.2920   3.6459   3.6496   3.7233   3.7367   3.8726   3.9508
     4.1099   4.3078   4.3874   4.4110   4.4867   4.5600   4.5945   4.6095
     4.6881   4.7771   4.8198   4.8671   4.9189   4.9757   5.1300   5.1366
     5.3151   5.3186   5.4466   5.5907   5.7629   5.8044   6.1796   6.1965
     6.5273   6.6094   6.6321   6.7449   6.8153   6.8464   6.9169   6.9603
     7.0086   7.0280   7.0483   7.0622   7.1496   7.1558   7.1831   7.2735
     7.2922   7.3613   7.7261   7.7291   7.7499   7.7590   7.8111   7.8382
    10.4563  10.4951  10.8497  10.8537  11.2941  11.3455  11.8413  11.8498
    11.8623  12.0478  12.1768  12.1897  12.3920  12.4955  12.6276  12.7031
    12.8133  13.0294  13.1109  13.3238  13.3314  13.3490  13.6649  13.7075
    15.2449  15.3657  15.7476  15.9078  16.0035  16.0351  16.0855  16.6586
    16.7040  16.8570  17.0150  17.5628  17.6670

          k = 0.1667 0.3150-0.5000 ( 62264 PWs)   bands (ev):

   -66.1749 -66.1749 -66.1747 -66.1747 -66.1740 -66.1740 -66.1738 -66.1738
   -30.5526 -30.5526 -30.5498 -30.5498 -30.5243 -30.5243 -30.5210 -30.5210
   -30.5102 -30.5102 -30.5090 -30.5090 -30.4691 -30.4691 -30.4680 -30.4680
   -30.4651 -30.4650 -30.4639 -30.4639 -30.4241 -30.4241 -30.4228 -30.4228
   -20.3355 -20.3355 -20.3355 -20.3355 -20.3355 -20.3355 -20.3354 -20.3354
   -20.3165 -20.3165 -20.3163 -20.3162 -20.3138 -20.3137 -20.3135 -20.3135
   -20.3122 -20.3122 -20.3119 -20.3119 -20.3118 -20.3118 -20.3115 -20.3115
   -20.3114 -20.3114 -20.3111 -20.3111 -20.3109 -20.3109 -20.3106 -20.3106
   -20.3033 -20.3033 -20.3031 -20.3031 -20.3023 -20.3023 -20.3022 -20.3022
   -20.3019 -20.3019 -20.3017 -20.3017 -20.2987 -20.2987 -20.2985 -20.2985
   -20.2984 -20.2984 -20.2982 -20.2982 -20.2956 -20.2956 -20.2953 -20.2953
    -9.4860  -9.4860  -9.3406  -9.3406  -8.9358  -8.9358  -8.7244  -8.7244
    -8.5927  -8.5927  -8.5778  -8.5778  -8.4979  -8.4979  -8.4176  -8.4175
    -8.1428  -8.1428  -8.1114  -8.1114  -7.8214  -7.8214  -7.8099  -7.8099
     1.5697   1.5697   1.5802   1.5802   2.3782   2.3782   2.4931   2.4931
     2.9710   2.9710   3.0555   3.0555   3.0686   3.0686   3.2646   3.2646
     3.3007   3.3007   3.4254   3.4254   3.4490   3.4490   3.6692   3.6692
     4.0732   4.0732   4.1100   4.1100   4.1154   4.1154   4.3711   4.3711
     4.7310   4.7310   4.7952   4.7952   4.9834   4.9834   5.0255   5.0255
     5.1231   5.1231   5.5112   5.5113   5.8753   5.8753   5.8844   5.8844
     6.6722   6.6722   6.7861   6.7861   6.8305   6.8305   6.8696   6.8696
     7.0152   7.0152   7.0665   7.0665   7.1702   7.1703   7.5131   7.5131
     7.5415   7.5416   7.5722   7.5722   7.6033   7.6033   7.8222   7.8222
    10.8314  10.8314  11.2018  11.2018  11.2452  11.2452  11.7456  11.7456
    12.0234  12.0234  12.1744  12.1744  12.4960  12.4960  12.5934  12.5934
    12.7513  12.7513  12.8980  12.8980  13.2839  13.2839  13.6819  13.6819
    15.3219  15.3219  15.9467  15.9467  16.3465  16.3466  16.4356  16.4356
    16.8848  16.8848  17.3089  17.3090  17.8708

          k = 0.1667-0.4725 0.1667 ( 62220 PWs)   bands (ev):

   -66.1752 -66.1752 -66.1744 -66.1743 -66.1743 -66.1743 -66.1735 -66.1735
   -30.5392 -30.5392 -30.5364 -30.5364 -30.5364 -30.5364 -30.5334 -30.5334
   -30.5122 -30.5121 -30.5119 -30.5119 -30.5080 -30.5079 -30.5073 -30.5073
   -30.4255 -30.4255 -30.4254 -30.4254 -30.4217 -30.4217 -30.4216 -30.4215
   -20.3356 -20.3355 -20.3355 -20.3355 -20.3355 -20.3355 -20.3354 -20.3354
   -20.3152 -20.3152 -20.3150 -20.3149 -20.3149 -20.3149 -20.3147 -20.3147
   -20.3124 -20.3124 -20.3123 -20.3123 -20.3119 -20.3119 -20.3119 -20.3119
   -20.3109 -20.3109 -20.3109 -20.3109 -20.3107 -20.3107 -20.3106 -20.3106
   -20.3033 -20.3033 -20.3030 -20.3030 -20.3030 -20.3030 -20.3024 -20.3024
   -20.3015 -20.3015 -20.3013 -20.3013 -20.3013 -20.3013 -20.3011 -20.3011
   -20.2958 -20.2958 -20.2956 -20.2956 -20.2953 -20.2953 -20.2952 -20.2952
    -9.6732  -9.6732  -9.2565  -9.2564  -9.2561  -9.2559  -8.9750  -8.9750
    -8.5054  -8.5054  -8.4390  -8.4389  -8.4386  -8.4385  -8.4337  -8.4337
    -7.8819  -7.8816  -7.8815  -7.8813  -7.7782  -7.7782  -7.7374  -7.7374
     1.4373   1.4374   1.5395   1.5400   1.5401   1.5406   1.8718   1.8718
     2.6020   2.6020   3.2073   3.2110   3.2122   3.2174   3.2401   3.2411
     3.2898   3.2900   3.3713   3.3718   3.5116   3.5121   3.5180   3.5185
     3.7187   3.7187   4.4851   4.4854   4.5338   4.5342   4.9242   4.9245
     4.9984   4.9984   5.1110   5.1113   5.1593   5.1597   5.4182   5.4183
     5.4537   5.4537   5.7402   5.7406   5.7723   5.7726   6.4527   6.4550
     6.4758   6.4786   6.5377   6.5380   6.7188   6.7192   6.9069   6.9070
     6.9194   6.9197   7.0810   7.0810   7.2814   7.2815   7.4532   7.4532
     7.4642   7.4644   7.4834   7.4836   7.5437   7.5437   7.8065   7.8066
     9.8612   9.8612  11.3386  11.3389  11.3923  11.3928  11.4299  11.4307
    11.4326  11.4331  12.2331  12.2333  12.2545  12.2547  12.9174  12.9175
    13.3890  13.3894  13.4023  13.4030  13.4224  13.4227  13.5417  13.5418
    15.5285  15.5285  15.6633  15.6634  15.8945  15.8948  15.9051  15.9053
    16.6571  16.6571  17.9183  17.9380  17.9417

          k = 0.1667-0.4725 0.3333 ( 62252 PWs)   bands (ev):

   -66.1750 -66.1750 -66.1745 -66.1745 -66.1742 -66.1742 -66.1737 -66.1736
   -30.5391 -30.5390 -30.5372 -30.5372 -30.5363 -30.5363 -30.5343 -30.5343
   -30.5110 -30.5110 -30.5085 -30.5085 -30.4935 -30.4935 -30.4892 -30.4892
   -30.4438 -30.4438 -30.4398 -30.4398 -30.4246 -30.4246 -30.4224 -30.4224
   -20.3355 -20.3355 -20.3355 -20.3355 -20.3355 -20.3355 -20.3354 -20.3354
   -20.3152 -20.3152 -20.3150 -20.3150 -20.3150 -20.3149 -20.3148 -20.3148
   -20.3122 -20.3122 -20.3120 -20.3120 -20.3120 -20.3120 -20.3116 -20.3116
   -20.3112 -20.3112 -20.3109 -20.3109 -20.3108 -20.3108 -20.3107 -20.3107
   -20.3033 -20.3033 -20.3031 -20.3031 -20.3027 -20.3027 -20.3021 -20.3020
   -20.3018 -20.3018 -20.3016 -20.3016 -20.3002 -20.3002 -20.3000 -20.3000
   -20.2970 -20.2970 -20.2966 -20.2965 -20.2956 -20.2956 -20.2954 -20.2953
    -9.5364  -9.5363  -9.3071  -9.3070  -9.0192  -9.0189  -8.8466  -8.8466
    -8.5447  -8.5439  -8.4660  -8.4643  -8.4255  -8.4246  -8.4146  -8.4145
    -8.1722  -8.1715  -8.0717  -8.0711  -7.8535  -7.8531  -7.7792  -7.7788
     1.5573   1.5583   1.5749   1.5762   2.2207   2.2214   2.4052   2.4064
     2.8725   2.8773   3.2135   3.2161   3.2258   3.2330   3.2341   3.2420
     3.2730   3.3049   3.4242   3.4672   3.4875   3.5173   3.6551   3.6655
     3.7561   3.7704   3.8755   3.9426   4.4530   4.5038   4.6062   4.6065
     4.6651   4.7272   4.7401   4.7802   4.9782   4.9898   4.9979   5.0659
     5.1430   5.2001   5.3214   5.3983   5.7685   5.7846   6.1924   6.1935
     6.6065   6.6143   6.7006   6.7153   6.8602   6.8672   7.0126   7.0775
     7.0935   7.1175   7.1725   7.1972   7.2106   7.2139   7.4255   7.4370
     7.4543   7.4659   7.4699   7.4942   7.4963   7.5317   7.7641   7.7671
    10.4813  10.4848  11.3680  11.3840  11.4019  11.4149  11.7459  11.7563
    11.7603  11.7770  11.8564  11.9085  12.3950  12.4485  12.7101  12.7348
    12.9183  12.9472  13.0936  13.1724  13.4007  13.4281  13.4521  13.5049
    15.6316  15.6499  15.8364  15.8535  16.2404  16.2668  16.6062  16.6319
    16.8444  16.8486  17.4225  17.4629  17.8517

          k = 0.1667-0.4725-0.5000 ( 62232 PWs)   bands (ev):

   -66.1748 -66.1748 -66.1748 -66.1748 -66.1739 -66.1739 -66.1739 -66.1739
   -30.5383 -30.5383 -30.5382 -30.5382 -30.5354 -30.5354 -30.5354 -30.5354
   -30.5098 -30.5098 -30.5098 -30.5098 -30.4686 -30.4686 -30.4686 -30.4686
   -30.4645 -30.4645 -30.4645 -30.4645 -30.4235 -30.4235 -30.4235 -30.4235
   -20.3355 -20.3355 -20.3355 -20.3355 -20.3355 -20.3354 -20.3354 -20.3354
   -20.3151 -20.3151 -20.3151 -20.3151 -20.3149 -20.3149 -20.3149 -20.3149
   -20.3121 -20.3121 -20.3121 -20.3121 -20.3116 -20.3116 -20.3116 -20.3116
   -20.3113 -20.3113 -20.3113 -20.3113 -20.3108 -20.3108 -20.3108 -20.3107
   -20.3032 -20.3032 -20.3032 -20.3032 -20.3023 -20.3023 -20.3023 -20.3023
   -20.3018 -20.3018 -20.3018 -20.3018 -20.2986 -20.2986 -20.2986 -20.2986
   -20.2983 -20.2983 -20.2983 -20.2983 -20.2955 -20.2955 -20.2955 -20.2955
    -9.3993  -9.3993  -9.3992  -9.3992  -8.7185  -8.7185  -8.7159  -8.7158
    -8.6110  -8.6110  -8.6063  -8.6063  -8.3910  -8.3910  -8.3859  -8.3858
    -8.3321  -8.3321  -8.3285  -8.3285  -7.8161  -7.8161  -7.8156  -7.8156
     1.5769   1.5769   1.5783   1.5783   2.9919   2.9919   2.9985   2.9985
     3.1260   3.1260   3.1524   3.1524   3.2179   3.2180   3.2682   3.2682
     3.2830   3.2830   3.3830   3.3830   3.4746   3.4746   3.5009   3.5009
     3.6354   3.6354   3.6514   3.6514   4.3004   4.3004   4.3093   4.3094
     4.4075   4.4075   4.4125   4.4125   4.8680   4.8680   5.0488   5.0488
     5.1294   5.1294   5.2913   5.2913   5.8771   5.8771   5.8853   5.8853
     6.7552   6.7552   6.7836   6.7836   6.8677   6.8677   6.9023   6.9023
     7.2704   7.2705   7.3137   7.3137   7.3593   7.3594   7.3920   7.3920
     7.4487   7.4487   7.4841   7.4841   7.5790   7.5790   7.6050   7.6050
    11.1808  11.1808  11.2071  11.2071  11.3911  11.3911  11.4456  11.4456
    12.2479  12.2479  12.2753  12.2753  12.3126  12.3126  12.3238  12.3238
    12.7228  12.7228  12.7905  12.7905  13.4182  13.4182  13.4621  13.4621
    15.7423  15.7423  15.7623  15.7623  16.9351  16.9352  16.9444  16.9444
    17.3138  17.3138  17.3269  17.3270  17.4180

          k = 0.3333 0.0000 0.3333 ( 62316 PWs)   bands (ev):

   -66.1750 -66.1747 -66.1745 -66.1745 -66.1741 -66.1741 -66.1740 -66.1736
   -30.5675 -30.5657 -30.5657 -30.5639 -30.5117 -30.5096 -30.5096 -30.5063
   -30.4929 -30.4925 -30.4919 -30.4914 -30.4913 -30.4890 -30.4885 -30.4885
   -30.4445 -30.4437 -30.4420 -30.4418 -30.4415 -30.4414 -30.4393 -30.4392
   -20.3356 -20.3355 -20.3355 -20.3355 -20.3355 -20.3354 -20.3354 -20.3354
   -20.3178 -20.3177 -20.3177 -20.3176 -20.3125 -20.3124 -20.3123 -20.3122
   -20.3122 -20.3121 -20.3120 -20.3120 -20.3115 -20.3115 -20.3115 -20.3114
   -20.3114 -20.3113 -20.3113 -20.3112 -20.3108 -20.3107 -20.3106 -20.3106
   -20.3034 -20.3032 -20.3030 -20.3030 -20.3028 -20.3028 -20.3021 -20.3021
   -20.3012 -20.3007 -20.3005 -20.3005 -20.3001 -20.3001 -20.2998 -20.2994
   -20.2975 -20.2969 -20.2969 -20.2969 -20.2968 -20.2964 -20.2964 -20.2963
    -9.6019  -9.3681  -9.3680  -9.2459  -9.1536  -8.9678  -8.9673  -8.7767
    -8.7595  -8.7451  -8.7308  -8.7305  -8.2283  -8.1731  -8.1711  -8.1710
    -8.1593  -8.1592  -8.0484  -8.0299  -7.8161  -7.7914  -7.7913  -7.7665
     1.5000   1.5417   1.5417   1.5836   2.1407   2.1494   2.2547   2.2552
     2.2905   2.2910   2.5006   2.6032   2.9296   2.9297   2.9688   3.0153
     3.2134   3.2419   3.7922   3.7980   3.8906   3.8916   4.1194   4.1194
     4.1460   4.1460   4.2253   4.3177   4.4212   4.4220   4.4668   4.5086
     4.8610   4.8628   4.9000   4.9525   5.0487   5.0490   5.1661   5.4115
     5.4121   5.5009   5.5055   5.6241   5.8713   5.8785   5.8786   6.0329
     6.4552   6.4582   6.4810   6.4810   6.5253   6.5591   6.5592   6.6215
     6.9947   7.1861   7.1863   7.2088   7.2089   7.3240   7.3562   7.3568
     7.4135   7.5004   7.7166   7.7252   7.8993   7.9757   7.9760   8.0214
    10.7087  10.8638  10.8768  10.8791  10.9254  11.1779  12.0112  12.0115
    12.0570  12.0571  12.1758  12.2786  12.5248  12.5256  12.6925  12.7789
    12.8097  12.8101  12.9590  13.0250  13.5647  13.6344  13.6347  13.7312
    14.4387  14.7151  14.7151  15.1815  15.8291  16.2993  16.3463  16.7491
    16.7492  17.1736  17.1737  17.7786  17.8170

          k = 0.3333 0.0000-0.5000 ( 62288 PWs)   bands (ev):

   -66.1748 -66.1748 -66.1744 -66.1744 -66.1743 -66.1743 -66.1739 -66.1739
   -30.5668 -30.5667 -30.5649 -30.5649 -30.5105 -30.5105 -30.5077 -30.5077
   -30.4916 -30.4916 -30.4899 -30.4899 -30.4687 -30.4687 -30.4665 -30.4665
   -30.4663 -30.4663 -30.4641 -30.4641 -30.4429 -30.4429 -30.4403 -30.4403
   -20.3355 -20.3355 -20.3355 -20.3355 -20.3355 -20.3355 -20.3354 -20.3354
   -20.3178 -20.3178 -20.3177 -20.3177 -20.3124 -20.3124 -20.3123 -20.3123
   -20.3121 -20.3121 -20.3118 -20.3118 -20.3117 -20.3117 -20.3114 -20.3114
   -20.3114 -20.3114 -20.3112 -20.3111 -20.3109 -20.3109 -20.3107 -20.3107
   -20.3032 -20.3032 -20.3030 -20.3030 -20.3025 -20.3025 -20.3025 -20.3025
   -20.3007 -20.3007 -20.3003 -20.3003 -20.2989 -20.2989 -20.2985 -20.2985
   -20.2984 -20.2984 -20.2981 -20.2981 -20.2969 -20.2969 -20.2964 -20.2964
    -9.4627  -9.4627  -9.2301  -9.2301  -9.0668  -9.0668  -8.7531  -8.7531
    -8.6175  -8.6175  -8.5497  -8.5497  -8.4851  -8.4850  -8.4514  -8.4514
    -8.1259  -8.1259  -8.1205  -8.1205  -7.8041  -7.8041  -7.7791  -7.7791
     1.5203   1.5203   1.5638   1.5638   2.2727   2.2727   2.2983   2.2983
     2.9161   2.9162   3.0079   3.0079   3.0422   3.0422   3.2056   3.2056
     3.3180   3.3180   3.5898   3.5898   3.7140   3.7140   3.8448   3.8448
     3.8755   3.8756   4.0501   4.0501   4.1932   4.1932   4.3505   4.3505
     4.7016   4.7016   4.9076   4.9076   5.0362   5.0362   5.1109   5.1109
[...]
   -20.3151 -20.3151 -20.3147 -20.3147 -20.3147 -20.3146 -20.3143 -20.3143
   -20.3069 -20.3069 -20.3068 -20.3068 -20.3060 -20.3060 -20.3059 -20.3059
   -20.3055 -20.3055 -20.3054 -20.3054 -20.3024 -20.3024 -20.3022 -20.3022
   -20.3021 -20.3021 -20.3019 -20.3019 -20.2993 -20.2993 -20.2990 -20.2990
    -9.4871  -9.4871  -9.3402  -9.3402  -8.9413  -8.9413  -8.7279  -8.7279
    -8.5934  -8.5934  -8.5777  -8.5777  -8.4992  -8.4992  -8.4191  -8.4191
    -8.1481  -8.1481  -8.1168  -8.1168  -7.8228  -7.8228  -7.8114  -7.8114
     1.5700   1.5700   1.5807   1.5807   2.3719   2.3719   2.4870   2.4870
     2.9692   2.9692   3.0543   3.0543   3.0678   3.0678   3.2640   3.2640
     3.3002   3.3002   3.4257   3.4257   3.4489   3.4489   3.6677   3.6677
     4.0693   4.0693   4.1017   4.1017   4.1183   4.1183   4.3682   4.3682
     4.7264   4.7264   4.7908   4.7908   4.9791   4.9791   5.0223   5.0223
     5.1217   5.1217   5.5062   5.5062   5.8733   5.8733   5.8823   5.8823
     6.6706   6.6706   6.7840   6.7840   6.8292   6.8292   6.8680   6.8680
     7.0122   7.0122   7.0637   7.0637   7.1676   7.1676   7.5106   7.5106
     7.5394   7.5394   7.5704   7.5704   7.6014   7.6014   7.8194   7.8194
    10.8285  10.8285  11.1978  11.1978  11.2409  11.2409  11.7416  11.7416
    12.0194  12.0194  12.1721  12.1721  12.4918  12.4918  12.5902  12.5902
    12.7469  12.7469  12.8943  12.8943  13.2789  13.2789  13.6782  13.6782
    15.3178  15.3178  15.9383  15.9383  16.3470  16.3470  16.4348  16.4348
    16.8768  16.8768  17.3047  17.3047  17.8675

          k = 0.3333 0.4726 0.1666 ( 62262 PWs)   bands (ev):

   -66.1785 -66.1785 -66.1780 -66.1780 -66.1777 -66.1777 -66.1772 -66.1772
   -30.5435 -30.5435 -30.5417 -30.5417 -30.5407 -30.5407 -30.5388 -30.5388
   -30.5136 -30.5136 -30.5111 -30.5111 -30.4959 -30.4959 -30.4917 -30.4917
   -30.4463 -30.4463 -30.4424 -30.4424 -30.4274 -30.4273 -30.4251 -30.4251
   -20.3392 -20.3392 -20.3392 -20.3392 -20.3392 -20.3391 -20.3391 -20.3391
   -20.3189 -20.3189 -20.3187 -20.3187 -20.3186 -20.3186 -20.3185 -20.3185
   -20.3159 -20.3159 -20.3157 -20.3157 -20.3157 -20.3157 -20.3153 -20.3153
   -20.3149 -20.3149 -20.3146 -20.3146 -20.3146 -20.3145 -20.3144 -20.3144
   -20.3070 -20.3070 -20.3067 -20.3067 -20.3064 -20.3064 -20.3057 -20.3057
   -20.3055 -20.3055 -20.3052 -20.3052 -20.3039 -20.3039 -20.3037 -20.3037
   -20.3006 -20.3006 -20.3002 -20.3002 -20.2993 -20.2993 -20.2990 -20.2990
    -9.5363  -9.5362  -9.3073  -9.3071  -9.0197  -9.0193  -8.8459  -8.8458
    -8.5508  -8.5499  -8.4712  -8.4695  -8.4313  -8.4303  -8.4200  -8.4200
    -8.1731  -8.1724  -8.0729  -8.0723  -7.8549  -7.8545  -7.7806  -7.7803
     1.5578   1.5588   1.5757   1.5769   2.2210   2.2216   2.4051   2.4063
     2.8743   2.8790   3.2090   3.2093   3.2254   3.2256   3.2323   3.2388
     3.2715   3.3023   3.4210   3.4667   3.4801   3.5129   3.6517   3.6621
     3.7515   3.7658   3.8762   3.9435   4.4482   4.4986   4.6044   4.6055
     4.6617   4.7205   4.7413   4.7770   4.9726   4.9882   4.9950   5.0599
     5.1375   5.1944   5.3194   5.3949   5.7661   5.7822   6.1913   6.1922
     6.6063   6.6141   6.6982   6.7127   6.8584   6.8653   7.0110   7.0758
     7.0930   7.1159   7.1695   7.1948   7.2086   7.2115   7.4222   7.4348
     7.4501   7.4648   7.4669   7.4905   7.4944   7.5293   7.7626   7.7656
    10.4778  10.4813  11.3655  11.3821  11.3985  11.4120  11.7439  11.7528
    11.7597  11.7735  11.8518  11.9042  12.3896  12.4431  12.7051  12.7295
    12.9143  12.9431  13.0893  13.1679  13.3959  13.4235  13.4472  13.4999
    15.6242  15.6426  15.8300  15.8473  16.2337  16.2601  16.6010  16.6269
    16.8454  16.8495  17.4207  17.4618  17.8428

          k =-0.4999 0.4726 0.1666 ( 62240 PWs)   bands (ev):

   -66.1783 -66.1783 -66.1783 -66.1783 -66.1774 -66.1774 -66.1774 -66.1774
   -30.5427 -30.5427 -30.5426 -30.5426 -30.5399 -30.5399 -30.5398 -30.5398
   -30.5124 -30.5124 -30.5124 -30.5124 -30.4711 -30.4711 -30.4710 -30.4710
   -30.4670 -30.4670 -30.4669 -30.4669 -30.4263 -30.4263 -30.4262 -30.4262
   -20.3392 -20.3392 -20.3392 -20.3392 -20.3391 -20.3391 -20.3391 -20.3391
   -20.3188 -20.3188 -20.3188 -20.3188 -20.3186 -20.3186 -20.3186 -20.3186
   -20.3158 -20.3158 -20.3158 -20.3158 -20.3153 -20.3153 -20.3152 -20.3152
   -20.3149 -20.3149 -20.3149 -20.3149 -20.3145 -20.3145 -20.3145 -20.3145
   -20.3069 -20.3069 -20.3069 -20.3069 -20.3059 -20.3059 -20.3059 -20.3059
   -20.3054 -20.3054 -20.3054 -20.3054 -20.3023 -20.3023 -20.3023 -20.3023
   -20.3020 -20.3020 -20.3020 -20.3020 -20.2992 -20.2991 -20.2991 -20.2991
    -9.3997  -9.3997  -9.3991  -9.3991  -8.7217  -8.7217  -8.7182  -8.7182
    -8.6122  -8.6122  -8.6072  -8.6071  -8.3963  -8.3963  -8.3898  -8.3898
    -8.3364  -8.3363  -8.3312  -8.3312  -7.8175  -7.8175  -7.8171  -7.8171
     1.5773   1.5774   1.5789   1.5789   2.9876   2.9876   3.0001   3.0001
     3.1243   3.1243   3.1495   3.1495   3.2134   3.2135   3.2701   3.2701
     3.2777   3.2777   3.3835   3.3835   3.4721   3.4721   3.5004   3.5004
     3.6220   3.6220   3.6580   3.6580   4.2957   4.2957   4.3063   4.3063
     4.3993   4.3993   4.4119   4.4119   4.8652   4.8653   5.0455   5.0455
     5.1260   5.1260   5.2871   5.2871   5.8751   5.8751   5.8835   5.8835
     6.7533   6.7533   6.7826   6.7826   6.8662   6.8662   6.9011   6.9011
     7.2677   7.2678   7.3099   7.3099   7.3556   7.3557   7.3909   7.3909
     7.4451   7.4451   7.4828   7.4828   7.5772   7.5772   7.6031   7.6031
    11.1774  11.1774  11.2035  11.2035  11.3880  11.3880  11.4422  11.4422
    12.2432  12.2432  12.2725  12.2725  12.3069  12.3069  12.3236  12.3236
    12.7177  12.7177  12.7854  12.7854  13.4135  13.4135  13.4575  13.4575
    15.7354  15.7354  15.7555  15.7555  16.9296  16.9296  16.9426  16.9427
    17.3098  17.3099  17.3262  17.3262  17.4159

          k =-0.4999 0.0000 0.3333 ( 62304 PWs)   bands (ev):

   -66.1783 -66.1783 -66.1779 -66.1779 -66.1778 -66.1778 -66.1774 -66.1774
   -30.5713 -30.5713 -30.5695 -30.5695 -30.5147 -30.5147 -30.5120 -30.5120
   -30.4943 -30.4943 -30.4926 -30.4926 -30.4712 -30.4712 -30.4691 -30.4691
   -30.4687 -30.4687 -30.4665 -30.4665 -30.4456 -30.4456 -30.4431 -30.4431
   -20.3392 -20.3392 -20.3392 -20.3392 -20.3391 -20.3391 -20.3391 -20.3391
   -20.3215 -20.3215 -20.3214 -20.3214 -20.3161 -20.3161 -20.3159 -20.3159
   -20.3158 -20.3158 -20.3155 -20.3155 -20.3153 -20.3153 -20.3151 -20.3151
   -20.3151 -20.3151 -20.3148 -20.3148 -20.3146 -20.3146 -20.3144 -20.3144
   -20.3068 -20.3068 -20.3067 -20.3067 -20.3062 -20.3062 -20.3061 -20.3061
   -20.3044 -20.3044 -20.3039 -20.3039 -20.3026 -20.3026 -20.3022 -20.3022
   -20.3021 -20.3021 -20.3017 -20.3017 -20.3006 -20.3006 -20.3001 -20.3001
    -9.4666  -9.4666  -9.2365  -9.2365  -9.0664  -9.0664  -8.7561  -8.7561
    -8.6174  -8.6174  -8.5499  -8.5499  -8.4852  -8.4852  -8.4520  -8.4520
    -8.1268  -8.1268  -8.1213  -8.1213  -7.8091  -7.8091  -7.7842  -7.7842
     1.5126   1.5126   1.5559   1.5559   2.2726   2.2726   2.2982   2.2982
     2.9137   2.9137   3.0060   3.0060   3.0406   3.0406   3.2045   3.2045
     3.3176   3.3176   3.5898   3.5898   3.7140   3.7140   3.8443   3.8443
     3.8722   3.8722   4.0463   4.0463   4.1905   4.1905   4.3503   4.3503
     4.7014   4.7014   4.9069   4.9069   5.0358   5.0358   5.1097   5.1097
     5.2544   5.2544   5.5030   5.5030   5.8958   5.8958   5.9891   5.9891
     6.4015   6.4015   6.4177   6.4177   6.4637   6.4637   6.5785   6.5785
     7.1668   7.1668   7.3050   7.3050   7.3951   7.3951   7.5518   7.5518
     7.5768   7.5768   7.6977   7.6977   7.7454   7.7454   7.9856   7.9856
    10.8684  10.8684  11.4064  11.4064  11.4833  11.4833  11.6113  11.6113
    11.8357  11.8357  12.2343  12.2343  12.3535  12.3535  12.6131  12.6131
    12.8246  12.8246  13.1817  13.1817  13.2229  13.2229  13.6442  13.6442
    14.6170  14.6170  15.0000  15.0000  16.2825  16.2825  16.7220  16.7220
    17.0714  17.0714  17.4934  17.4934  17.9207

          k =-0.4999-0.1575 0.3333 ( 62330 PWs)   bands (ev):

   -66.1783 -66.1783 -66.1779 -66.1779 -66.1778 -66.1778 -66.1774 -66.1774
   -30.5675 -30.5675 -30.5657 -30.5657 -30.5182 -30.5182 -30.5158 -30.5158
   -30.4944 -30.4944 -30.4928 -30.4928 -30.4711 -30.4711 -30.4692 -30.4692
   -30.4687 -30.4687 -30.4667 -30.4667 -30.4454 -30.4454 -30.4432 -30.4432
   -20.3392 -20.3392 -20.3392 -20.3392 -20.3392 -20.3392 -20.3391 -20.3391
   -20.3211 -20.3211 -20.3210 -20.3210 -20.3165 -20.3165 -20.3163 -20.3163
   -20.3158 -20.3158 -20.3155 -20.3155 -20.3153 -20.3153 -20.3152 -20.3152
   -20.3150 -20.3150 -20.3149 -20.3149 -20.3147 -20.3147 -20.3144 -20.3144
   -20.3068 -20.3068 -20.3067 -20.3067 -20.3062 -20.3062 -20.3062 -20.3061
   -20.3043 -20.3043 -20.3039 -20.3039 -20.3025 -20.3025 -20.3021 -20.3021
   -20.3021 -20.3021 -20.3018 -20.3018 -20.3006 -20.3006 -20.3001 -20.3001
    -9.4192  -9.4192  -9.1706  -9.1706  -9.0771  -9.0771  -8.7321  -8.7321
    -8.6249  -8.6249  -8.5476  -8.5476  -8.4841  -8.4841  -8.4480  -8.4480
    -8.1263  -8.1263  -8.1253  -8.1253  -7.9030  -7.9030  -7.8780  -7.8780
     1.7400   1.7400   1.7832   1.7832   2.2718   2.2718   2.3084   2.3084
     2.9579   2.9579   3.0421   3.0421   3.0579   3.0579   3.2154   3.2154
     3.3186   3.3186   3.6039   3.6039   3.7105   3.7105   3.8351   3.8352
     3.9191   3.9191   4.0763   4.0763   4.1917   4.1917   4.3573   4.3573
     4.5732   4.5732   4.6840   4.6840   4.9806   4.9806   5.0316   5.0316
     5.0834   5.0834   5.2990   5.2990   5.6859   5.6859   5.7640   5.7640
     6.5300   6.5300   6.5654   6.5654   6.6231   6.6231   6.7480   6.7480
     7.1697   7.1697   7.2961   7.2961   7.3929   7.3929   7.5473   7.5473
     7.5713   7.5713   7.6681   7.6681   7.7139   7.7139   7.9295   7.9295
    10.9710  10.9710  11.4215  11.4215  11.4919  11.4919  11.6743  11.6743
    11.8886  11.8886  12.2525  12.2525  12.3503  12.3503  12.6222  12.6223
    12.7076  12.7076  13.0644  13.0644  13.1077  13.1077  13.5400  13.5400
    14.9841  14.9841  15.3835  15.3835  16.3686  16.3686  16.7218  16.7218
    17.0748  17.0748  17.5028  17.5028  17.7833

          k =-0.4999-0.3151 0.3333 ( 62264 PWs)   bands (ev):

   -66.1782 -66.1782 -66.1780 -66.1780 -66.1777 -66.1777 -66.1775 -66.1775
   -30.5569 -30.5569 -30.5551 -30.5551 -30.5283 -30.5283 -30.5263 -30.5263
   -30.4943 -30.4943 -30.4933 -30.4933 -30.4708 -30.4708 -30.4696 -30.4696
   -30.4684 -30.4684 -30.4672 -30.4672 -30.4450 -30.4450 -30.4437 -30.4437
   -20.3392 -20.3392 -20.3392 -20.3392 -20.3392 -20.3392 -20.3391 -20.3391
   -20.3202 -20.3202 -20.3200 -20.3200 -20.3175 -20.3175 -20.3173 -20.3173
   -20.3157 -20.3157 -20.3154 -20.3154 -20.3153 -20.3153 -20.3151 -20.3151
   -20.3150 -20.3150 -20.3149 -20.3149 -20.3148 -20.3148 -20.3146 -20.3146
   -20.3068 -20.3068 -20.3067 -20.3067 -20.3062 -20.3062 -20.3062 -20.3062
   -20.3043 -20.3043 -20.3040 -20.3040 -20.3025 -20.3025 -20.3022 -20.3022
   -20.3021 -20.3021 -20.3018 -20.3018 -20.3005 -20.3005 -20.3002 -20.3002
    -9.3039  -9.3039  -9.1135  -9.1135  -8.9930  -8.9930  -8.6792  -8.6792
    -8.6323  -8.6323  -8.5423  -8.5423  -8.4746  -8.4746  -8.4281  -8.4281
    -8.1754  -8.1754  -8.1373  -8.1373  -8.1162  -8.1162  -8.0659  -8.0659
     2.1979   2.1979   2.2683   2.2683   2.3791   2.3791   2.4984   2.4984
     3.0259   3.0259   3.0748   3.0748   3.1784   3.1784   3.2555   3.2555
     3.3461   3.3461   3.5914   3.5914   3.6936   3.6936   3.7832   3.7832
     4.0611   4.0611   4.0885   4.0885   4.1287   4.1287   4.2366   4.2366
     4.3209   4.3209   4.4479   4.4479   4.6121   4.6121   4.8373   4.8373
     4.9566   4.9566   5.0005   5.0005   5.0545   5.0545   5.2806   5.2806
     6.8526   6.8526   6.9082   6.9082   6.9670   6.9670   7.0318   7.0318
     7.1742   7.1742   7.2754   7.2754   7.3957   7.3957   7.5028   7.5028
     7.5407   7.5407   7.6015   7.6015   7.6327   7.6327   7.7675   7.7675
    11.2365  11.2365  11.4435  11.4435  11.5324  11.5324  11.8418  11.8418
    12.0568  12.0568  12.2809  12.2809  12.3405  12.3405  12.3452  12.3452
    12.6863  12.6863  12.7831  12.7831  12.8793  12.8793  13.2876  13.2876
    15.8284  15.8284  16.3252  16.3252  16.6282  16.6282  16.7002  16.7002
    17.1014  17.1014  17.3732  17.3732  17.6603

          k =-0.4999 0.4726 0.3333 ( 62212 PWs)   bands (ev):

   -66.1781 -66.1781 -66.1781 -66.1781 -66.1776 -66.1776 -66.1776 -66.1776
   -30.5426 -30.5426 -30.5425 -30.5425 -30.5407 -30.5407 -30.5407 -30.5407
   -30.4939 -30.4939 -30.4939 -30.4939 -30.4703 -30.4703 -30.4702 -30.4702
   -30.4679 -30.4679 -30.4678 -30.4678 -30.4444 -30.4444 -30.4444 -30.4444
   -20.3392 -20.3392 -20.3392 -20.3392 -20.3391 -20.3391 -20.3391 -20.3391
   -20.3188 -20.3188 -20.3188 -20.3188 -20.3187 -20.3187 -20.3187 -20.3187
   -20.3155 -20.3155 -20.3155 -20.3155 -20.3152 -20.3152 -20.3152 -20.3152
   -20.3150 -20.3150 -20.3150 -20.3150 -20.3147 -20.3147 -20.3147 -20.3147
   -20.3068 -20.3068 -20.3067 -20.3067 -20.3062 -20.3062 -20.3062 -20.3062
   -20.3042 -20.3042 -20.3041 -20.3041 -20.3024 -20.3024 -20.3023 -20.3023
   -20.3020 -20.3020 -20.3019 -20.3019 -20.3004 -20.3004 -20.3004 -20.3004
    -9.1879  -9.1879  -9.1870  -9.1870  -8.7865  -8.7865  -8.7840  -8.7839
    -8.5533  -8.5533  -8.5492  -8.5492  -8.3905  -8.3905  -8.3841  -8.3841
    -8.3426  -8.3426  -8.3372  -8.3372  -8.1110  -8.1110  -8.1097  -8.1097
     2.2579   2.2579   2.2608   2.2608   2.9911   2.9911   3.0003   3.0003
     3.1193   3.1193   3.1288   3.1288   3.2607   3.2607   3.2908   3.2908
     3.3664   3.3664   3.3967   3.3967   3.6406   3.6406   3.6488   3.6488
     3.7675   3.7675   3.8105   3.8105   4.2478   4.2479   4.2796   4.2796
     4.3342   4.3342   4.3912   4.3912   4.4568   4.4568   4.5655   4.5655
     4.6502   4.6503   4.8051   4.8051   5.0638   5.0638   5.0771   5.0771
     7.0347   7.0347   7.0586   7.0586   7.1873   7.1873   7.1901   7.1901
     7.2699   7.2700   7.3156   7.3156   7.3290   7.3290   7.3995   7.3995
     7.4803   7.4803   7.5423   7.5423   7.6058   7.6058   7.6249   7.6249
    11.4040  11.4040  11.4332  11.4332  11.7445  11.7445  11.8103  11.8103
    12.1690  12.1690  12.2099  12.2099  12.3266  12.3266  12.3341  12.3341
    12.4882  12.4882  12.5840  12.5840  12.9729  12.9729  13.0480  13.0480
    16.4623  16.4623  16.5078  16.5078  17.0827  17.0827  17.0914  17.0914
    17.3190  17.3190  17.3613  17.3616  17.3809

     the Fermi energy is     8.5408 ev

!    total energy              =   -6261.10941115 Ry
     Harris-Foulkes estimate   =   -6261.10941115 Ry
     estimated scf accuracy    <          7.5E-11 Ry

     The total energy is the sum of the following terms:

     one-electron contribution =   -4722.65933542 Ry
     hartree contribution      =    2597.98425410 Ry
     xc contribution           =    -965.67002994 Ry
     ewald contribution        =   -3170.76429989 Ry
     smearing contrib. (-TS)   =      -0.00000000 Ry

     convergence has been achieved in  14 iterations

     Forces acting on atoms (cartesian axes, Ry/au):

     atom    1 type  1   force =    -0.00039018    0.00025739    0.00026131
     atom    2 type  1   force =     0.00039018   -0.00025739   -0.00026131
     atom    3 type  1   force =     0.00039018   -0.00025739    0.00026131
     atom    4 type  1   force =    -0.00039018    0.00025739   -0.00026131
     atom    5 type  1   force =     0.00039018    0.00025739   -0.00026131
     atom    6 type  1   force =    -0.00039018   -0.00025739    0.00026131
     atom    7 type  1   force =    -0.00039018   -0.00025739   -0.00026131
     atom    8 type  1   force =     0.00039018    0.00025739    0.00026131
     atom    9 type  2   force =    -0.00006149   -0.00009499    0.00003914
     atom   10 type  2   force =     0.00006149    0.00009499   -0.00003914
     atom   11 type  2   force =     0.00006149    0.00009499    0.00003914
     atom   12 type  2   force =    -0.00006149   -0.00009499   -0.00003914
     atom   13 type  2   force =     0.00006149   -0.00009499   -0.00003914
     atom   14 type  2   force =    -0.00006149    0.00009499    0.00003914
     atom   15 type  2   force =    -0.00006149    0.00009499   -0.00003914
     atom   16 type  2   force =     0.00006149   -0.00009499    0.00003914
     atom   17 type  2   force =    -0.00018276    0.00001043   -0.00007094
     atom   18 type  2   force =     0.00018276   -0.00001043    0.00007094
     atom   19 type  2   force =     0.00018276   -0.00001043   -0.00007094
     atom   20 type  2   force =    -0.00018276    0.00001043    0.00007094
     atom   21 type  2   force =     0.00018276    0.00001043    0.00007094
     atom   22 type  2   force =    -0.00018276   -0.00001043   -0.00007094
     atom   23 type  2   force =    -0.00018276   -0.00001043    0.00007094
     atom   24 type  2   force =     0.00018276    0.00001043   -0.00007094
     atom   25 type  2   force =    -0.00008286   -0.00017256    0.00013161
     atom   26 type  2   force =     0.00008286    0.00017256   -0.00013161
     atom   27 type  2   force =     0.00008286    0.00017256    0.00013161
     atom   28 type  2   force =    -0.00008286   -0.00017256   -0.00013161
     atom   29 type  2   force =     0.00008286   -0.00017256   -0.00013161
     atom   30 type  2   force =    -0.00008286    0.00017256    0.00013161
     atom   31 type  2   force =    -0.00008286    0.00017256   -0.00013161
     atom   32 type  2   force =     0.00008286   -0.00017256    0.00013161

     Total force =     0.000000     Total SCF correction =     0.000000


     Computing stress (Cartesian axis) and pressure

          total   stress  (Ry/bohr**3)                   (kbar)     P=    0.04
   0.00000024   0.00000000   0.00000000          0.04      0.00      0.00
   0.00000000   0.00000033   0.00000000          0.00      0.05      0.00
   0.00000000   0.00000000   0.00000023          0.00      0.00      0.03


     Writing output data file Landau_2.save
 
     init_run     :     71.54s CPU     74.80s WALL (       2 calls)
     electrons    :   4288.84s CPU   4422.12s WALL (       4 calls)
     update_pot   :     42.48s CPU     42.65s WALL (       2 calls)
     forces       :     83.89s CPU     85.46s WALL (       4 calls)
     stress       :    677.88s CPU    689.28s WALL (       4 calls)

     Called by init_run:
     wfcinit      :     52.99s CPU     55.92s WALL (       2 calls)
     potinit      :      7.72s CPU      7.80s WALL (       2 calls)

     Called by electrons:
     c_bands      :   3756.92s CPU   3883.59s WALL (      50 calls)
     sum_band     :    511.92s CPU    515.76s WALL (      50 calls)
     v_of_rho     :      4.80s CPU      4.90s WALL (      53 calls)
     mix_rho      :      7.54s CPU      9.48s WALL (      50 calls)

     Called by c_bands:
     init_us_2    :     30.38s CPU     32.69s WALL (     220 calls)
     cegterg      :   3287.87s CPU   3409.47s WALL (     100 calls)

     Called by sum_band:

     Called by *egterg:
     h_psi        :   2628.61s CPU   2644.53s WALL (     394 calls)
     g_psi        :      5.58s CPU      5.65s WALL (     290 calls)
     cdiaghg      :     42.99s CPU     43.17s WALL (     384 calls)

     Called by h_psi:
     h_psi:pot    :   2612.28s CPU   2627.45s WALL (     394 calls)
     h_psi:calbec :    251.03s CPU    257.70s WALL (     394 calls)
     vloc_psi     :   2088.92s CPU   2096.13s WALL (     394 calls)
     add_vuspsi   :    272.33s CPU    273.61s WALL (     394 calls)

     General routines
     calbec       :    290.47s CPU    297.25s WALL (     434 calls)
     fft          :      4.00s CPU      4.02s WALL (     244 calls)
     fftw         :   2156.25s CPU   2162.44s WALL (  129406 calls)
 
     Parallel routines
 
     PWSCF        :     1h26m CPU        1h28m WALL

 
   This run was terminated on:   3:46:16  11Mar2020            

=------------------------------------------------------------------------------=
   JOB DONE.
=------------------------------------------------------------------------------=
