
     Program PWSCF v.6.4.1 starts on 16Dec2019 at 18:11:58 

     This program is part of the open-source Quantum ESPRESSO suite
     for quantum simulation of materials; please cite
         "P. Giannozzi et al., J. Phys.:Condens. Matter 21 395502 (2009);
         "P. Giannozzi et al., J. Phys.:Condens. Matter 29 465901 (2017);
          URL http://www.quantum-espresso.org", 
     in publications or presentations arising from this work. More details at
     http://www.quantum-espresso.org/quote

     Parallel version (MPI), running on    40 processors

     MPI processes distributed on     5 nodes
     K-points division:     npool     =      40
     Reading input from scf.in

     Current dimensions of program PWSCF are:
     Max number of different atomic species (ntypx) = 10
     Max number of k-points (npk) =  40000
     Max angular momentum in pseudopotentials (lmaxx) =  3

     Subspace diagonalization in iterative solution of the eigenvalue problem:
     a serial algorithm will be used

     Message from routine setup:
     using ibrav=0 with symmetry is DISCOURAGED, use correct ibrav instead
 
     G-vector sticks info
     --------------------
     sticks:   dense  smooth     PW     G-vecs:    dense   smooth      PW
     Sum        7757    7757   2083               504565   504565   69917
 


     bravais-lattice index     =            0
     lattice parameter (alat)  =      13.9930  a.u.
     unit-cell volume          =    2841.3769 (a.u.)^3
     number of atoms/cell      =           32
     number of atomic types    =            2
     number of electrons       =       368.10
     number of Kohn-Sham states=          221
     kinetic-energy cutoff     =     120.0000  Ry
     charge density cutoff     =     480.0000  Ry
     convergence threshold     =      1.0E-08
     mixing beta               =       0.7000
     number of iterations used =            8  plain     mixing
     Exchange-correlation      = SLA PW NOGX NOGC ( 1  4  0  0 0 0)

     celldm(1)=  13.993030  celldm(2)=   0.000000  celldm(3)=   0.000000
     celldm(4)=   0.000000  celldm(5)=   0.000000  celldm(6)=   0.000000

     crystal axes: (cart. coord. in units of alat)
               a(1) = (   1.000000   0.000000   0.000000 )  
               a(2) = (   0.000000   1.036754   0.000000 )  
               a(3) = (   0.000000   0.000000   1.000271 )  

     reciprocal axes: (cart. coord. in units 2 pi/alat)
               b(1) = (  1.000000  0.000000  0.000000 )  
               b(2) = (  0.000000  0.964549  0.000000 )  
               b(3) = (  0.000000  0.000000  0.999729 )  


     PseudoPot. # 1 for W  read from file:
     /cluster/scratch/mnoe/QE/pps/W_ONCV_LDA-4.0.upf
     MD5 check sum: ba0307d5d4cd419d6f1d13dc49d7c13a
     Pseudo is Norm-conserving + core correction, Zval = 28.0
     Generated using ONCVPSP code by D. R. Hamann
     Using radial grid of 1380 points,  8 beta functions with: 
                l(1) =   0
                l(2) =   0
                l(3) =   1
                l(4) =   1
                l(5) =   2
                l(6) =   2
                l(7) =   3
                l(8) =   3

     PseudoPot. # 2 for O  read from file:
     /cluster/scratch/mnoe/QE/pps/O_ONCV_LDA-3.0.upf
     MD5 check sum: b55cdb4f45ae2203d24ad12cf8d61a31
     Pseudo is Norm-conserving + core correction, Zval =  6.0
     Generated using ONCVPSP code by D. R. Hamann
     Using radial grid of  926 points,  5 beta functions with: 
                l(1) =   0
                l(2) =   0
                l(3) =   1
                l(4) =   1
                l(5) =   2

     atomic species   valence    mass     pseudopotential
        W             28.00   183.84000     W ( 1.00)
        O              6.00    15.99940     O ( 1.00)

      8 Sym. Ops., with inversion, found ( 6 have fractional translation)



   Cartesian axes

     site n.     atom                  positions (alat units)
         1           W   tau(   1) = (   0.2439900   0.2967966   0.0056815  )
         2           W   tau(   2) = (   0.7560100   0.7399576   0.9945897  )
         3           W   tau(   3) = (   0.2560100   0.2215805   0.5058172  )
         4           W   tau(   4) = (   0.7439900   0.8151737   0.4944541  )
         5           W   tau(   5) = (   0.7560100   0.2967966   0.4944541  )
         6           W   tau(   6) = (   0.2439900   0.7399576   0.5058172  )
         7           W   tau(   7) = (   0.7439900   0.2215805   0.9945897  )
         8           W   tau(   8) = (   0.2560100   0.8151737   0.0056815  )
         9           O   tau(   9) = (   0.2389100   0.0172866   0.0017705  )
        10           O   tau(  10) = (   0.7610900   1.0194676   0.9985008  )
        11           O   tau(  11) = (   0.2610900   0.5010905   0.5019061  )
        12           O   tau(  12) = (   0.7389100   0.5356637   0.4983651  )
        13           O   tau(  13) = (   0.7610900   0.0172866   0.4983651  )
        14           O   tau(  14) = (   0.2389100   1.0194676   0.5019061  )
        15           O   tau(  15) = (   0.7389100   0.5010905   0.9985008  )
        16           O   tau(  16) = (   0.2610900   0.5356637   0.0017705  )
        17           O   tau(  17) = (   0.5016400   0.2473903   0.4724870  )
        18           O   tau(  18) = (   0.4983600   0.7893639   0.5277842  )
        19           O   tau(  19) = (   0.9983600   0.2709868   0.9726227  )
        20           O   tau(  20) = (   0.0016401   0.7657674   0.0276486  )
        21           O   tau(  21) = (   0.4983600   0.2473903   0.0276486  )
        22           O   tau(  22) = (   0.5016400   0.7893639   0.9726227  )
        23           O   tau(  23) = (   0.0016401   0.2709868   0.5277842  )
        24           O   tau(  24) = (   0.9983600   0.7657674   0.4724870  )
        25           O   tau(  25) = (   0.7223590   0.2566174   0.7477128  )
        26           O   tau(  26) = (   0.2776411   0.7801368   0.2525585  )
        27           O   tau(  27) = (   0.7776411   0.2617597   0.2475771  )
        28           O   tau(  28) = (   0.2223589   0.7749945   0.7526941  )
        29           O   tau(  29) = (   0.2776411   0.2566174   0.7526941  )
        30           O   tau(  30) = (   0.7223590   0.7801368   0.2475771  )
        31           O   tau(  31) = (   0.2223589   0.2617597   0.2525585  )
        32           O   tau(  32) = (   0.7776411   0.7749945   0.7477128  )

     number of k points=    64  gaussian smearing, width (Ry)=  0.0007
                       cart. coord. in units 2pi/alat
        k(    1) = (   0.0000000   0.0000000   0.0000000), wk =   0.0092593
        k(    2) = (   0.0000000   0.0000000   0.1666215), wk =   0.0185185
        k(    3) = (   0.0000000   0.0000000   0.3332429), wk =   0.0185185
        k(    4) = (   0.0000000   0.0000000  -0.4998644), wk =   0.0092593
        k(    5) = (   0.0000000   0.1607581   0.0000000), wk =   0.0185185
        k(    6) = (   0.0000000   0.1607581   0.1666215), wk =   0.0370370
        k(    7) = (   0.0000000   0.1607581   0.3332429), wk =   0.0370370
        k(    8) = (   0.0000000   0.1607581  -0.4998644), wk =   0.0185185
        k(    9) = (   0.0000000   0.3215163   0.0000000), wk =   0.0185185
        k(   10) = (   0.0000000   0.3215163   0.1666215), wk =   0.0370370
        k(   11) = (   0.0000000   0.3215163   0.3332429), wk =   0.0370370
        k(   12) = (   0.0000000   0.3215163  -0.4998644), wk =   0.0185185
        k(   13) = (   0.0000000  -0.4822744   0.0000000), wk =   0.0092593
        k(   14) = (   0.0000000  -0.4822744   0.1666215), wk =   0.0185185
        k(   15) = (   0.0000000  -0.4822744   0.3332429), wk =   0.0185185
        k(   16) = (   0.0000000  -0.4822744  -0.4998644), wk =   0.0092593
        k(   17) = (   0.1666667   0.0000000   0.0000000), wk =   0.0185185
        k(   18) = (   0.1666667   0.0000000   0.1666215), wk =   0.0370370
        k(   19) = (   0.1666667   0.0000000   0.3332429), wk =   0.0370370
        k(   20) = (   0.1666667   0.0000000  -0.4998644), wk =   0.0185185
        k(   21) = (   0.1666667   0.1607581   0.0000000), wk =   0.0370370
        k(   22) = (   0.1666667   0.1607581   0.1666215), wk =   0.0740741
        k(   23) = (   0.1666667   0.1607581   0.3332429), wk =   0.0740741
        k(   24) = (   0.1666667   0.1607581  -0.4998644), wk =   0.0370370
        k(   25) = (   0.1666667   0.3215163   0.0000000), wk =   0.0370370
        k(   26) = (   0.1666667   0.3215163   0.1666215), wk =   0.0740741
        k(   27) = (   0.1666667   0.3215163   0.3332429), wk =   0.0740741
        k(   28) = (   0.1666667   0.3215163  -0.4998644), wk =   0.0370370
        k(   29) = (   0.1666667  -0.4822744   0.0000000), wk =   0.0185185
        k(   30) = (   0.1666667  -0.4822744   0.1666215), wk =   0.0370370
        k(   31) = (   0.1666667  -0.4822744   0.3332429), wk =   0.0370370
        k(   32) = (   0.1666667  -0.4822744  -0.4998644), wk =   0.0185185
        k(   33) = (   0.3333333   0.0000000   0.0000000), wk =   0.0185185
        k(   34) = (   0.3333333   0.0000000   0.1666215), wk =   0.0370370
        k(   35) = (   0.3333333   0.0000000   0.3332429), wk =   0.0370370
        k(   36) = (   0.3333333   0.0000000  -0.4998644), wk =   0.0185185
        k(   37) = (   0.3333333   0.1607581   0.0000000), wk =   0.0370370
        k(   38) = (   0.3333333   0.1607581   0.1666215), wk =   0.0740741
        k(   39) = (   0.3333333   0.1607581   0.3332429), wk =   0.0740741
        k(   40) = (   0.3333333   0.1607581  -0.4998644), wk =   0.0370370
        k(   41) = (   0.3333333   0.3215163   0.0000000), wk =   0.0370370
        k(   42) = (   0.3333333   0.3215163   0.1666215), wk =   0.0740741
        k(   43) = (   0.3333333   0.3215163   0.3332429), wk =   0.0740741
        k(   44) = (   0.3333333   0.3215163  -0.4998644), wk =   0.0370370
        k(   45) = (   0.3333333  -0.4822744   0.0000000), wk =   0.0185185
        k(   46) = (   0.3333333  -0.4822744   0.1666215), wk =   0.0370370
        k(   47) = (   0.3333333  -0.4822744   0.3332429), wk =   0.0370370
        k(   48) = (   0.3333333  -0.4822744  -0.4998644), wk =   0.0185185
        k(   49) = (  -0.5000000   0.0000000   0.0000000), wk =   0.0092593
        k(   50) = (  -0.5000000   0.0000000   0.1666215), wk =   0.0185185
        k(   51) = (  -0.5000000   0.0000000   0.3332429), wk =   0.0185185
        k(   52) = (  -0.5000000   0.0000000  -0.4998644), wk =   0.0092593
        k(   53) = (  -0.5000000   0.1607581   0.0000000), wk =   0.0185185
        k(   54) = (  -0.5000000   0.1607581   0.1666215), wk =   0.0370370
        k(   55) = (  -0.5000000   0.1607581   0.3332429), wk =   0.0370370
        k(   56) = (  -0.5000000   0.1607581  -0.4998644), wk =   0.0185185
        k(   57) = (  -0.5000000   0.3215163   0.0000000), wk =   0.0185185
        k(   58) = (  -0.5000000   0.3215163   0.1666215), wk =   0.0370370
        k(   59) = (  -0.5000000   0.3215163   0.3332429), wk =   0.0370370
        k(   60) = (  -0.5000000   0.3215163  -0.4998644), wk =   0.0185185
        k(   61) = (  -0.5000000  -0.4822744   0.0000000), wk =   0.0092593
        k(   62) = (  -0.5000000  -0.4822744   0.1666215), wk =   0.0185185
        k(   63) = (  -0.5000000  -0.4822744   0.3332429), wk =   0.0185185
        k(   64) = (  -0.5000000  -0.4822744  -0.4998644), wk =   0.0092593

     Dense  grid:   504565 G-vectors     FFT dimensions: ( 100, 108, 100)

     Estimated max dynamical RAM per process >       3.17 GB

     Estimated total dynamical RAM >     126.65 GB

     Initial potential from superposition of free atoms

     starting charge  367.99656, renormalised to  368.10000
     Starting wfcs are  232 randomized atomic wfcs

     total cpu time spent up to now is       50.8 secs

     Self-consistent Calculation

     iteration #  1     ecut=   120.00 Ry     beta= 0.70
     Davidson diagonalization with overlap
     ethr =  1.00E-02,  avg # of iterations =  5.1

     total cpu time spent up to now is      225.2 secs

     total energy              =   -6253.81075790 Ry
     Harris-Foulkes estimate   =   -6264.55033670 Ry
     estimated scf accuracy    <      13.58447256 Ry

     iteration #  2     ecut=   120.00 Ry     beta= 0.70
     Davidson diagonalization with overlap
     ethr =  3.69E-03,  avg # of iterations =  3.6

     total cpu time spent up to now is      395.7 secs

     total energy              =   -6250.67085229 Ry
     Harris-Foulkes estimate   =   -6270.85077341 Ry
     estimated scf accuracy    <      54.20309106 Ry

     iteration #  3     ecut=   120.00 Ry     beta= 0.70
     Davidson diagonalization with overlap
     ethr =  3.69E-03,  avg # of iterations =  3.5

     total cpu time spent up to now is      548.3 secs

     total energy              =   -6261.00801823 Ry
     Harris-Foulkes estimate   =   -6261.28647958 Ry
     estimated scf accuracy    <       0.92333830 Ry

     iteration #  4     ecut=   120.00 Ry     beta= 0.70
     Davidson diagonalization with overlap
     ethr =  2.51E-04,  avg # of iterations =  2.8

     total cpu time spent up to now is      679.7 secs

     total energy              =   -6260.99758856 Ry
     Harris-Foulkes estimate   =   -6261.07322812 Ry
     estimated scf accuracy    <       0.22056721 Ry

     iteration #  5     ecut=   120.00 Ry     beta= 0.70
     Davidson diagonalization with overlap
     ethr =  5.99E-05,  avg # of iterations =  4.7

     total cpu time spent up to now is      822.2 secs

     total energy              =   -6261.00840837 Ry
     Harris-Foulkes estimate   =   -6261.03492151 Ry
     estimated scf accuracy    <       0.06152116 Ry

     iteration #  6     ecut=   120.00 Ry     beta= 0.70
     Davidson diagonalization with overlap
     ethr =  1.67E-05,  avg # of iterations =  6.1

     total cpu time spent up to now is      979.9 secs

     total energy              =   -6261.02076720 Ry
     Harris-Foulkes estimate   =   -6261.02364113 Ry
     estimated scf accuracy    <       0.00730553 Ry

     iteration #  7     ecut=   120.00 Ry     beta= 0.70
     Davidson diagonalization with overlap
     ethr =  1.98E-06,  avg # of iterations =  6.3

     total cpu time spent up to now is     1126.0 secs

     total energy              =   -6261.02185687 Ry
     Harris-Foulkes estimate   =   -6261.02189823 Ry
     estimated scf accuracy    <       0.00007069 Ry

     iteration #  8     ecut=   120.00 Ry     beta= 0.70
     Davidson diagonalization with overlap
     ethr =  1.92E-08,  avg # of iterations =  3.9

     total cpu time spent up to now is     1305.4 secs

     total energy              =   -6261.02190103 Ry
     Harris-Foulkes estimate   =   -6261.02191005 Ry
     estimated scf accuracy    <       0.00004571 Ry

     iteration #  9     ecut=   120.00 Ry     beta= 0.70
     Davidson diagonalization with overlap
     ethr =  1.24E-08,  avg # of iterations =  2.1

     total cpu time spent up to now is     1431.0 secs

     total energy              =   -6261.02189879 Ry
     Harris-Foulkes estimate   =   -6261.02190461 Ry
     estimated scf accuracy    <       0.00002559 Ry

     iteration # 10     ecut=   120.00 Ry     beta= 0.70
     Davidson diagonalization with overlap
     ethr =  6.95E-09,  avg # of iterations =  1.5

     total cpu time spent up to now is     1557.8 secs

     total energy              =   -6261.02189688 Ry
     Harris-Foulkes estimate   =   -6261.02190040 Ry
     estimated scf accuracy    <       0.00000804 Ry

     iteration # 11     ecut=   120.00 Ry     beta= 0.70
     Davidson diagonalization with overlap
     ethr =  2.18E-09,  avg # of iterations =  3.0

     total cpu time spent up to now is     1687.5 secs

     total energy              =   -6261.02189870 Ry
     Harris-Foulkes estimate   =   -6261.02189882 Ry
     estimated scf accuracy    <       0.00000032 Ry

     iteration # 12     ecut=   120.00 Ry     beta= 0.70
     Davidson diagonalization with overlap
     ethr =  8.74E-11,  avg # of iterations =  2.0

     total cpu time spent up to now is     1825.8 secs

     total energy              =   -6261.02189871 Ry
     Harris-Foulkes estimate   =   -6261.02189875 Ry
     estimated scf accuracy    <       0.00000007 Ry

     iteration # 13     ecut=   120.00 Ry     beta= 0.70
     Davidson diagonalization with overlap
     ethr =  1.92E-11,  avg # of iterations =  3.0

     total cpu time spent up to now is     1983.4 secs

     End of self-consistent calculation

          k = 0.0000 0.0000 0.0000 ( 63095 PWs)   bands (ev):

   -66.3623 -66.3618 -66.3616 -66.3616 -66.3611 -66.3611 -66.3608 -66.3604
   -30.7380 -30.7344 -30.7331 -30.7298 -30.7082 -30.7077 -30.7073 -30.7034
   -30.7027 -30.7011 -30.7001 -30.6977 -30.6663 -30.6657 -30.6637 -30.6636
   -30.6194 -30.6178 -30.6163 -30.6159 -30.6154 -30.6152 -30.6105 -30.6096
   -20.5240 -20.5239 -20.5238 -20.5238 -20.5236 -20.5236 -20.5235 -20.5235
   -20.5066 -20.5064 -20.5054 -20.5053 -20.5051 -20.5051 -20.5043 -20.5039
   -20.5034 -20.5033 -20.5019 -20.5018 -20.5016 -20.5015 -20.5014 -20.5014
   -20.5012 -20.5012 -20.5000 -20.4996 -20.4958 -20.4957 -20.4954 -20.4954
   -20.4952 -20.4951 -20.4942 -20.4940 -20.4936 -20.4933 -20.4923 -20.4919
   -20.4902 -20.4902 -20.4901 -20.4897 -20.4884 -20.4882 -20.4881 -20.4873
   -20.4871 -20.4870 -20.4869 -20.4865 -20.4852 -20.4851 -20.4844 -20.4844
   -10.1415  -9.8042  -9.7529  -9.7524  -9.4361  -9.4305  -9.3245  -9.1791
    -9.1584  -9.0481  -9.0421  -9.0408  -8.0158  -7.9497  -7.9441  -7.9387
    -7.9351  -7.9247  -7.9163  -7.8784  -7.8732  -7.8671  -7.8516  -7.8443
     0.9651   0.9662   1.0636   1.0712   1.0890   1.0918   1.1047   1.3226
     1.3280   1.3323   1.3355   1.5030   2.3154   2.3423   2.3534   2.4197
     2.4292   2.4390   3.9586   3.9751   4.1488   4.1759   4.5139   4.5169
     4.5543   4.5606   4.6146   4.6558   4.7216   4.7224   4.9263   5.3389
     5.3537   5.3610   5.3795   5.4224   5.4318   5.4378   5.4775   5.6634
     5.6898   5.7258   5.7270   5.7796   5.8041   5.8533   5.8979   6.0282
     6.0500   6.1635   6.2042   6.3277   6.3277   6.5414   6.5638   6.5680
     6.5821   6.6788   6.9238   6.9362   6.9519   6.9524   7.0505   7.0590
     7.0736   7.0794   8.0037   8.0193   8.0334   8.0392   8.0410   8.0640
     8.9520   8.9604   9.6260   9.6266   9.7009   9.7049  12.2380  12.2416
    12.2747  12.3043  12.3093  12.3181  12.3357  12.3614  12.9047  13.0575
    13.1338  13.1774  13.2173  13.3402  13.4636  13.7309  13.9840  14.0121
    14.0158  14.0808  14.2452  14.6095  14.6247  14.6426  15.4060  15.4773
    15.5011  16.4331  16.8223  16.8448  17.1875

          k = 0.0000 0.0000 0.1666 ( 63071 PWs)   bands (ev):

   -66.3623 -66.3618 -66.3616 -66.3615 -66.3612 -66.3610 -66.3609 -66.3604
   -30.7379 -30.7347 -30.7332 -30.7301 -30.7071 -30.7065 -30.7030 -30.7028
   -30.7015 -30.6981 -30.6953 -30.6916 -30.6662 -30.6657 -30.6643 -30.6630
   -30.6235 -30.6213 -30.6205 -30.6191 -30.6185 -30.6149 -30.6141 -30.6107
   -20.5239 -20.5239 -20.5238 -20.5237 -20.5237 -20.5236 -20.5236 -20.5235
   -20.5065 -20.5063 -20.5054 -20.5053 -20.5052 -20.5050 -20.5044 -20.5040
   -20.5033 -20.5031 -20.5019 -20.5019 -20.5017 -20.5015 -20.5014 -20.5013
   -20.5012 -20.5010 -20.5000 -20.4997 -20.4959 -20.4957 -20.4955 -20.4953
   -20.4952 -20.4949 -20.4943 -20.4937 -20.4934 -20.4934 -20.4921 -20.4918
   -20.4905 -20.4904 -20.4903 -20.4899 -20.4883 -20.4881 -20.4881 -20.4872
   -20.4871 -20.4870 -20.4868 -20.4864 -20.4854 -20.4853 -20.4846 -20.4846
   -10.0990  -9.7667  -9.7533  -9.6950  -9.4402  -9.3494  -9.3338  -9.1441
    -9.1201  -9.0435  -9.0348  -9.0112  -8.0674  -8.0620  -8.0222  -7.9978
    -7.9627  -7.9479  -7.9316  -7.9193  -7.9161  -7.8817  -7.8718  -7.8565
     1.0356   1.0545   1.0695   1.1065   1.1581   1.2090   1.3198   1.3259
     1.3469   1.4359   1.5105   1.6324   2.3478   2.3965   2.4237   2.4394
     2.5042   2.5250   3.9322   3.9420   4.1429   4.1504   4.1695   4.2392
     4.4166   4.4613   4.6108   4.6117   4.6174   4.7261   4.9219   5.1648
     5.2657   5.3230   5.3984   5.4075   5.4278   5.4369   5.4575   5.4809
     5.5164   5.6440   5.7008   5.7458   5.8093   5.9071   5.9586   6.0698
     6.1635   6.3199   6.3520   6.3976   6.4016   6.4366   6.5456   6.5790
     6.6294   6.7064   6.7857   6.8216   6.8408   6.8548   6.9018   6.9387
     6.9459   6.9658   7.9645   7.9857   8.0024   8.0135   8.0192   8.0292
     9.3157   9.3213   9.6317   9.7045   9.9383   9.9914  12.1104  12.1499
    12.2808  12.3144  12.3262  12.3300  12.3622  12.4325  12.8590  12.9163
    12.9280  13.1348  13.2674  13.3205  13.5896  13.7289  13.8581  13.8787
    14.0977  14.1872  14.2428  14.7089  14.7257  14.7667  15.3714  15.4806
    15.8629  16.5770  16.6137  16.9997  17.1046

          k = 0.0000 0.0000 0.3332 ( 63081 PWs)   bands (ev):

   -66.3621 -66.3618 -66.3617 -66.3614 -66.3613 -66.3610 -66.3609 -66.3605
   -30.7375 -30.7355 -30.7328 -30.7309 -30.7062 -30.7050 -30.7038 -30.7024
   -30.6887 -30.6845 -30.6799 -30.6757 -30.6679 -30.6662 -30.6633 -30.6605
   -30.6383 -30.6371 -30.6347 -30.6331 -30.6183 -30.6160 -30.6142 -30.6119
   -20.5239 -20.5238 -20.5238 -20.5237 -20.5237 -20.5237 -20.5236 -20.5236
   -20.5063 -20.5061 -20.5056 -20.5054 -20.5052 -20.5049 -20.5046 -20.5043
   -20.5029 -20.5028 -20.5021 -20.5021 -20.5018 -20.5016 -20.5014 -20.5012
   -20.5009 -20.5006 -20.5002 -20.4999 -20.4959 -20.4958 -20.4956 -20.4954
   -20.4950 -20.4945 -20.4944 -20.4937 -20.4929 -20.4927 -20.4918 -20.4914
   -20.4911 -20.4910 -20.4907 -20.4903 -20.4883 -20.4881 -20.4878 -20.4872
   -20.4868 -20.4865 -20.4864 -20.4863 -20.4858 -20.4857 -20.4852 -20.4852
    -9.9964  -9.8102  -9.6375  -9.5598  -9.4717  -9.3658  -9.1024  -9.0853
    -9.0510  -8.9819  -8.9381  -8.8951  -8.3603  -8.3582  -8.3283  -8.3038
    -7.9836  -7.9581  -7.9202  -7.9131  -7.9062  -7.8906  -7.8847  -7.8698
     1.0550   1.0653   1.1087   1.1110   1.2617   1.2676   1.3020   1.3119
     2.0384   2.0586   2.1638   2.2081   2.3612   2.4161   2.6258   2.6699
     2.7530   2.7542   3.5770   3.6865   3.7115   3.7421   3.9488   3.9549
     4.0822   4.1798   4.4139   4.5913   4.5995   4.6305   4.8043   4.8872
     4.8895   4.9747   5.0730   5.2221   5.2919   5.3331   5.5340   5.5384
     5.5553   5.6170   5.7201   5.7925   5.8496   5.9341   6.1037   6.1311
     6.1321   6.1430   6.2709   6.2926   6.3272   6.3389   6.3753   6.5743
     6.5796   6.6272   6.6475   6.7809   6.9309   6.9385   6.9587   7.0002
     7.1419   7.1805   7.7669   7.8185   7.8494   7.8732   8.0273   8.0300
     9.6465   9.6775  10.0618  10.1039  10.6510  10.6804  11.6284  11.6639
    12.1051  12.3116  12.3658  12.4634  12.4873  12.4911  12.5355  12.6799
    12.9052  13.0971  13.1431  13.1437  13.4905  13.5166  13.6951  13.7232
    14.1729  14.2346  14.6384  15.0072  15.0188  15.2566  15.3543  15.4124
    16.0327  16.8426  17.0024  17.2068  17.3565

          k = 0.0000 0.0000-0.4999 ( 63072 PWs)   bands (ev):

   -66.3619 -66.3619 -66.3615 -66.3615 -66.3612 -66.3612 -66.3607 -66.3607
   -30.7366 -30.7365 -30.7320 -30.7320 -30.7050 -30.7050 -30.7037 -30.7037
   -30.6737 -30.6737 -30.6714 -30.6714 -30.6585 -30.6585 -30.6551 -30.6551
   -30.6543 -30.6543 -30.6519 -30.6519 -30.6172 -30.6172 -30.6131 -30.6131
   -20.5238 -20.5238 -20.5237 -20.5237 -20.5237 -20.5237 -20.5236 -20.5236
   -20.5060 -20.5060 -20.5058 -20.5058 -20.5049 -20.5049 -20.5046 -20.5046
   -20.5025 -20.5025 -20.5025 -20.5024 -20.5017 -20.5017 -20.5013 -20.5013
   -20.5006 -20.5006 -20.5002 -20.5002 -20.4959 -20.4959 -20.4956 -20.4955
   -20.4947 -20.4947 -20.4941 -20.4941 -20.4920 -20.4920 -20.4919 -20.4918
   -20.4913 -20.4913 -20.4908 -20.4908 -20.4882 -20.4882 -20.4875 -20.4875
   -20.4864 -20.4863 -20.4861 -20.4861 -20.4859 -20.4859 -20.4859 -20.4858
    -9.8882  -9.8882  -9.5338  -9.5338  -9.4356  -9.4355  -9.0630  -9.0630
    -8.7378  -8.7377  -8.7102  -8.7101  -8.6887  -8.6887  -8.6476  -8.6475
    -7.9717  -7.9717  -7.9037  -7.9037  -7.9010  -7.9010  -7.8880  -7.8880
     1.0605   1.0605   1.1150   1.1150   1.2839   1.2839   1.2953   1.2953
     2.3785   2.3785   2.7382   2.7382   2.8331   2.8331   2.9450   2.9451
     3.0765   3.0765   3.0864   3.0864   3.2361   3.2361   3.6449   3.6449
     3.7397   3.7397   4.1429   4.1429   4.5821   4.5821   4.8339   4.8339
     5.0634   5.0634   5.1142   5.1142   5.1445   5.1445   5.5840   5.5840
     5.6602   5.6602   5.7502   5.7502   5.9260   5.9261   6.0297   6.0297
     6.0470   6.0470   6.2069   6.2070   6.2398   6.2398   6.4001   6.4001
     6.5750   6.5751   6.6619   6.6619   6.9512   6.9512   7.4151   7.4151
     7.4839   7.4840   7.5635   7.5635   7.5879   7.5879   8.0312   8.0312
     9.6647   9.6647  10.8902  10.8902  10.9331  10.9331  11.4511  11.4511
    11.5224  11.5224  12.3810  12.3810  12.7027  12.7028  12.7732  12.7732
    12.8687  12.8687  13.0639  13.0639  13.2047  13.2047  13.7139  13.7139
    14.2162  14.2162  15.0263  15.0264  15.2717  15.2717  15.4714  15.4714
    16.2346  16.2346  17.5091  17.5091  17.7028

          k = 0.0000 0.1608 0.0000 ( 63115 PWs)   bands (ev):

   -66.3623 -66.3619 -66.3615 -66.3615 -66.3611 -66.3611 -66.3608 -66.3604
   -30.7342 -30.7304 -30.7289 -30.7255 -30.7080 -30.7079 -30.7075 -30.7033
   -30.7032 -30.7005 -30.6997 -30.6978 -30.6704 -30.6700 -30.6678 -30.6677
   -30.6191 -30.6177 -30.6161 -30.6158 -30.6156 -30.6156 -30.6106 -30.6098
   -20.5240 -20.5239 -20.5238 -20.5238 -20.5236 -20.5236 -20.5235 -20.5235
   -20.5066 -20.5064 -20.5054 -20.5053 -20.5051 -20.5051 -20.5043 -20.5040
   -20.5034 -20.5033 -20.5018 -20.5017 -20.5014 -20.5013 -20.5013 -20.5010
   -20.5010 -20.5010 -20.4999 -20.4996 -20.4962 -20.4960 -20.4958 -20.4956
   -20.4953 -20.4951 -20.4942 -20.4940 -20.4936 -20.4934 -20.4922 -20.4920
   -20.4902 -20.4902 -20.4901 -20.4898 -20.4883 -20.4882 -20.4880 -20.4873
   -20.4871 -20.4871 -20.4870 -20.4865 -20.4852 -20.4851 -20.4845 -20.4844
   -10.1071  -9.8175  -9.7118  -9.7113  -9.4448  -9.4394  -9.2460  -9.1777
    -9.1598  -9.0030  -9.0022  -9.0021  -8.1061  -8.0454  -8.0407  -7.9941
    -7.9479  -7.9471  -7.9266  -7.9215  -7.8725  -7.8716  -7.8534  -7.8488
     0.9651   0.9660   1.0790   1.0891   1.0901   1.1046   1.2229   1.3349
     1.5047   1.5593   1.5670   1.6996   2.3237   2.4018   2.4261   2.4268
     2.4994   2.5106   3.7953   3.8145   3.8884   3.9116   4.5131   4.5178
     4.5480   4.5570   4.5684   4.7192   4.7334   4.7402   4.7939   5.0871
     5.1012   5.3291   5.3330   5.4592   5.4645   5.4694   5.5155   5.5314
     5.6871   5.7068   5.7977   5.8185   5.8278   5.8537   5.8542   6.0151
     6.0470   6.1131   6.1685   6.3510   6.3647   6.5631   6.5771   6.6252
     6.6360   6.6988   6.7558   6.8500   6.8625   6.9116   7.0528   7.0594
     7.0731   7.0773   7.9444   7.9470   7.9724   7.9747   8.0369   8.0379
     8.9542   8.9610   9.8317   9.8415   9.9099   9.9207  12.0882  12.1243
    12.1731  12.1964  12.2820  12.2881  12.3040  12.3099  12.9300  13.0783
    13.1542  13.1965  13.2240  13.3494  13.6986  13.7770  13.9162  13.9220
    14.0569  14.2378  14.3592  14.6233  14.6364  14.8061  15.4473  15.4691
    15.8159  16.1442  16.9961  17.0191  17.2062

          k = 0.0000 0.1608 0.1666 ( 63117 PWs)   bands (ev):

   -66.3622 -66.3618 -66.3616 -66.3615 -66.3612 -66.3611 -66.3608 -66.3604
   -30.7341 -30.7307 -30.7290 -30.7258 -30.7076 -30.7060 -30.7035 -30.7027
   -30.7008 -30.6981 -30.6952 -30.6917 -30.6704 -30.6697 -30.6683 -30.6670
   -30.6235 -30.6215 -30.6203 -30.6188 -30.6186 -30.6153 -30.6140 -30.6110
   -20.5239 -20.5239 -20.5238 -20.5238 -20.5237 -20.5236 -20.5236 -20.5235
   -20.5065 -20.5063 -20.5054 -20.5053 -20.5052 -20.5050 -20.5043 -20.5041
   -20.5032 -20.5031 -20.5019 -20.5018 -20.5014 -20.5012 -20.5011 -20.5011
   -20.5009 -20.5009 -20.5000 -20.4997 -20.4962 -20.4961 -20.4959 -20.4957
   -20.4952 -20.4949 -20.4942 -20.4937 -20.4935 -20.4934 -20.4921 -20.4918
   -20.4905 -20.4904 -20.4903 -20.4899 -20.4883 -20.4881 -20.4880 -20.4872
   -20.4871 -20.4870 -20.4868 -20.4865 -20.4853 -20.4853 -20.4847 -20.4847
   -10.0633  -9.7666  -9.7253  -9.6498  -9.4494  -9.3582  -9.2554  -9.1418
    -9.1215  -9.0049  -8.9912  -8.9765  -8.1183  -8.0751  -8.0656  -8.0452
    -8.0118  -8.0067  -7.9962  -7.9559  -7.9415  -7.9212  -7.8774  -7.8583
     1.0492   1.0544   1.0907   1.1064   1.3016   1.3269   1.3467   1.5098
     1.5197   1.5619   1.5885   1.7528   2.4064   2.4197   2.4868   2.5058
     2.5139   2.5950   3.7975   3.7989   3.8918   3.9132   4.1815   4.2354
     4.4514   4.4888   4.5552   4.5969   4.6134   4.7394   4.7987   5.0552
     5.0865   5.1671   5.1947   5.3332   5.3729   5.4224   5.4722   5.4810
     5.6265   5.6616   5.7116   5.7647   5.7903   5.8633   6.0016   6.0317
     6.0628   6.3309   6.3359   6.3541   6.4486   6.5459   6.5616   6.6279
     6.6641   6.6959   6.7913   6.8018   6.8131   6.8525   6.8598   6.8860
     6.9104   6.9655   7.9238   7.9325   7.9416   7.9474   7.9895   7.9958
     9.3187   9.3232   9.8485   9.9185  10.1020  10.1626  12.0863  12.1412
    12.1610  12.1741  12.2003  12.2341  12.3347  12.3698  12.8877  12.9421
    12.9541  13.1536  13.2723  13.3229  13.7570  13.7604  13.7774  13.7872
    14.1260  14.3478  14.4746  14.7235  14.7613  14.9003  15.4486  15.7812
    15.8308  16.3075  16.7320  17.1478  17.2736

          k = 0.0000 0.1608 0.3332 ( 63071 PWs)   bands (ev):

   -66.3621 -66.3617 -66.3617 -66.3613 -66.3613 -66.3610 -66.3609 -66.3606
   -30.7336 -30.7315 -30.7286 -30.7267 -30.7067 -30.7044 -30.7044 -30.7017
   -30.6891 -30.6851 -30.6800 -30.6758 -30.6719 -30.6701 -30.6667 -30.6640
   -30.6385 -30.6372 -30.6348 -30.6332 -30.6181 -30.6158 -30.6145 -30.6123
   -20.5239 -20.5238 -20.5238 -20.5237 -20.5237 -20.5237 -20.5236 -20.5236
   -20.5063 -20.5061 -20.5056 -20.5054 -20.5051 -20.5049 -20.5046 -20.5043
   -20.5029 -20.5028 -20.5021 -20.5020 -20.5015 -20.5013 -20.5010 -20.5009
   -20.5009 -20.5006 -20.5002 -20.4999 -20.4963 -20.4962 -20.4960 -20.4958
   -20.4949 -20.4945 -20.4944 -20.4937 -20.4929 -20.4927 -20.4918 -20.4914
   -20.4911 -20.4910 -20.4907 -20.4903 -20.4882 -20.4880 -20.4878 -20.4873
   -20.4868 -20.4866 -20.4865 -20.4864 -20.4858 -20.4857 -20.4852 -20.4852
    -9.9578  -9.7688  -9.6503  -9.5013  -9.4817  -9.2882  -9.1116  -9.0636
    -9.0131  -8.9841  -8.9168  -8.8736  -8.3684  -8.3558  -8.3426  -8.3012
    -8.0721  -8.0530  -8.0200  -7.9978  -7.9282  -7.9081  -7.8910  -7.8716
     1.0898   1.0926   1.1085   1.1109   1.4533   1.4820   1.5555   1.5623
     2.0371   2.0688   2.1635   2.2253   2.4333   2.4837   2.6435   2.7444
     2.7475   2.8112   3.5749   3.6474   3.6810   3.7264   3.8409   3.8851
     4.0077   4.0623   4.4271   4.5224   4.5767   4.6458   4.7089   4.7644
     4.8322   4.8586   4.9067   4.9687   5.2010   5.2478   5.3006   5.4938
     5.5713   5.6622   5.7255   5.7413   5.7788   5.9037   5.9523   6.1217
     6.1835   6.2910   6.3200   6.3260   6.3360   6.4850   6.5207   6.5404
     6.5631   6.6545   6.7065   6.8161   6.8528   6.8541   6.9704   6.9892
     7.1381   7.1777   7.7559   7.7939   7.8118   7.8361   7.9524   7.9593
     9.8562   9.8904  10.0659  10.1136  10.7571  10.7893  11.6291  11.6624
    12.0557  12.2019  12.3542  12.4027  12.4098  12.4260  12.5028  12.5883
    12.9174  13.1073  13.1291  13.1585  13.3837  13.4335  13.7727  13.7787
    14.2580  14.3389  14.9802  15.0074  15.1767  15.3819  15.3896  15.6645
    16.1813  16.7980  16.8045  17.0757  17.5195

          k = 0.0000 0.1608-0.4999 ( 63052 PWs)   bands (ev):

   -66.3619 -66.3619 -66.3615 -66.3615 -66.3612 -66.3612 -66.3608 -66.3608
   -30.7326 -30.7326 -30.7277 -30.7277 -30.7056 -30.7055 -30.7030 -30.7030
   -30.6763 -30.6763 -30.6743 -30.6742 -30.6587 -30.6586 -30.6565 -30.6565
   -30.6545 -30.6545 -30.6531 -30.6531 -30.6170 -30.6170 -30.6134 -30.6134
   -20.5238 -20.5238 -20.5237 -20.5237 -20.5237 -20.5237 -20.5236 -20.5236
   -20.5060 -20.5059 -20.5058 -20.5058 -20.5049 -20.5049 -20.5046 -20.5046
   -20.5025 -20.5025 -20.5024 -20.5024 -20.5014 -20.5014 -20.5010 -20.5010
   -20.5005 -20.5005 -20.5002 -20.5002 -20.4963 -20.4963 -20.4960 -20.4959
   -20.4946 -20.4946 -20.4941 -20.4941 -20.4920 -20.4920 -20.4919 -20.4919
   -20.4913 -20.4913 -20.4909 -20.4909 -20.4881 -20.4881 -20.4875 -20.4875
   -20.4863 -20.4863 -20.4861 -20.4861 -20.4860 -20.4859 -20.4859 -20.4859
    -9.8474  -9.8474  -9.5451  -9.5451  -9.3632  -9.3632  -9.0279  -9.0279
    -8.7479  -8.7479  -8.7146  -8.7145  -8.6830  -8.6829  -8.6399  -8.6399
    -8.0649  -8.0648  -8.0102  -8.0102  -7.9096  -7.9096  -7.8899  -7.8899
     1.0943   1.0943   1.1148   1.1148   1.4770   1.4770   1.5625   1.5625
     2.4487   2.4487   2.7630   2.7630   2.8711   2.8711   2.9352   2.9353
     3.0680   3.0681   3.0949   3.0949   3.2268   3.2268   3.6515   3.6516
     3.7884   3.7884   3.9679   3.9679   4.4875   4.4875   4.6719   4.6719
     4.8604   4.8604   5.0785   5.0785   5.0898   5.0898   5.3385   5.3385
     5.5649   5.5649   5.7626   5.7626   5.8919   5.8919   6.0358   6.0358
     6.1065   6.1065   6.2790   6.2790   6.3830   6.3830   6.4578   6.4578
     6.5835   6.5836   6.7287   6.7287   6.8457   6.8457   7.4260   7.4260
     7.4775   7.4775   7.5352   7.5353   7.5593   7.5593   7.9569   7.9569
     9.8806   9.8806  10.8927  10.8927  10.9325  10.9325  11.5192  11.5193
    11.5875  11.5875  12.2222  12.2222  12.6751  12.6751  12.7814  12.7814
    12.7828  12.7828  12.9668  12.9668  13.1887  13.1887  13.7733  13.7733
    14.3138  14.3138  15.2472  15.2472  15.4050  15.4050  15.6365  15.6365
    16.2984  16.2984  17.2924  17.2924  17.7246

          k = 0.0000 0.3215 0.0000 ( 63146 PWs)   bands (ev):

   -66.3622 -66.3620 -66.3615 -66.3614 -66.3612 -66.3612 -66.3607 -66.3605
   -30.7245 -30.7203 -30.7178 -30.7138 -30.7099 -30.7076 -30.7071 -30.7051
   -30.7032 -30.6981 -30.6977 -30.6976 -30.6817 -30.6816 -30.6786 -30.6784
   -30.6185 -30.6173 -30.6165 -30.6161 -30.6158 -30.6156 -30.6108 -30.6104
   -20.5239 -20.5239 -20.5238 -20.5238 -20.5236 -20.5236 -20.5235 -20.5235
   -20.5065 -20.5064 -20.5053 -20.5052 -20.5052 -20.5051 -20.5042 -20.5040
   -20.5034 -20.5033 -20.5017 -20.5016 -20.5013 -20.5013 -20.5002 -20.5000
   -20.5000 -20.4999 -20.4999 -20.4996 -20.4972 -20.4971 -20.4969 -20.4968
   -20.4953 -20.4952 -20.4940 -20.4940 -20.4937 -20.4936 -20.4922 -20.4921
   -20.4902 -20.4902 -20.4900 -20.4898 -20.4882 -20.4882 -20.4878 -20.4873
   -20.4873 -20.4872 -20.4870 -20.4867 -20.4850 -20.4850 -20.4846 -20.4846
   -10.0227  -9.8588  -9.6179  -9.6162  -9.4734  -9.4687  -9.1739  -9.1636
    -9.0237  -8.8698  -8.8694  -8.8577  -8.3654  -8.3131  -8.3102  -8.2829
    -7.9467  -7.9435  -7.9313  -7.9274  -7.8704  -7.8672  -7.8582  -7.8546
     0.9652   0.9657   1.0873   1.0893   1.1006   1.1044   1.3090   1.3327
     2.0984   2.2369   2.2489   2.3414   2.3916   2.3939   2.6337   2.6503
     2.7038   2.7252   3.4144   3.4167   3.4392   3.4412   3.9455   4.2592
     4.2736   4.5180   4.5263   4.5495   4.5499   4.5592   4.8643   4.8730
     4.9004   4.9101   5.2270   5.2287   5.4529   5.4599   5.4974   5.5021
     5.7390   5.7437   5.7831   5.7913   5.8541   5.8550   5.9403   6.0018
     6.0262   6.0496   6.1013   6.4190   6.4254   6.4368   6.6755   6.6958
     6.7452   6.8488   6.8797   6.8838   6.9134   6.9272   7.0570   7.0604
     7.0765   7.0790   7.7110   7.7239   7.7303   7.7445   8.0365   8.0376
     8.9578   8.9614  10.3610  10.3857  10.4397  10.4592  11.6524  11.6911
    11.7269  11.7499  12.2926  12.2963  12.3029  12.3079  13.0006  13.1117
    13.2412  13.2728  13.2833  13.3862  13.6383  13.6852  13.6879  13.6983
    14.4356  14.6220  14.6279  14.7404  14.7749  15.3449  15.3629  15.4432
    15.5883  16.8341  16.9489  17.5576  17.5801

          k = 0.0000 0.3215 0.1666 ( 63133 PWs)   bands (ev):

   -66.3621 -66.3619 -66.3615 -66.3614 -66.3613 -66.3612 -66.3608 -66.3605
   -30.7243 -30.7206 -30.7178 -30.7141 -30.7095 -30.7054 -30.7046 -30.7028
   -30.6986 -30.6984 -30.6943 -30.6915 -30.6821 -30.6804 -30.6790 -30.6773
   -30.6232 -30.6220 -30.6200 -30.6189 -30.6182 -30.6162 -30.6135 -30.6118
   -20.5239 -20.5239 -20.5238 -20.5238 -20.5236 -20.5236 -20.5235 -20.5235
   -20.5065 -20.5064 -20.5053 -20.5053 -20.5052 -20.5051 -20.5043 -20.5041
   -20.5032 -20.5031 -20.5018 -20.5017 -20.5012 -20.5012 -20.5002 -20.5001
   -20.5000 -20.4999 -20.4999 -20.4997 -20.4973 -20.4971 -20.4970 -20.4968
   -20.4952 -20.4950 -20.4941 -20.4937 -20.4937 -20.4935 -20.4921 -20.4919
   -20.4905 -20.4904 -20.4902 -20.4900 -20.4882 -20.4881 -20.4878 -20.4873
   -20.4872 -20.4871 -20.4869 -20.4866 -20.4852 -20.4852 -20.4848 -20.4848
    -9.9760  -9.8081  -9.6295  -9.5451  -9.4794  -9.3876  -9.1367  -9.1254
    -9.0331  -8.8733  -8.8540  -8.8510  -8.3709  -8.3219  -8.3081  -8.2880
    -8.0605  -8.0439  -7.9916  -7.9764  -7.9394  -7.9263  -7.8754  -7.8631
     1.0530   1.0542   1.1021   1.1061   1.3383   1.3462   1.4748   1.5071
     2.1018   2.2219   2.2463   2.3775   2.4295   2.4751   2.6372   2.7004
     2.7457   2.8143   3.4321   3.4386   3.4400   3.4661   3.9376   4.1927
     4.2094   4.2682   4.2858   4.5508   4.5658   4.6143   4.6194   4.6689
     4.8710   4.9245   5.0380   5.1587   5.2417   5.2766   5.4551   5.4621
     5.5153   5.5393   5.6179   5.7240   5.8464   5.8714   5.9759   6.0499
     6.1222   6.2845   6.3420   6.4169   6.4779   6.6674   6.6757   6.7604
     6.7763   6.7876   6.8244   6.8431   6.8649   6.8803   6.9094   6.9501
     6.9548   7.0066   7.6973   7.7140   7.7148   7.7207   7.9869   7.9913
     9.3229   9.3250  10.3923  10.4563  10.5516  10.6203  11.6912  11.7456
    11.7483  11.8143  12.1377  12.1476  12.3460  12.3568  12.9702  13.0223
    13.0449  13.2386  13.2775  13.3284  13.5147  13.5871  13.6365  13.6782
    14.5302  14.7180  14.7595  14.8049  15.0415  15.3428  15.5208  15.7204
    15.7525  16.7959  17.0291  17.1722  17.3662

          k = 0.0000 0.3215 0.3332 ( 63051 PWs)   bands (ev):

   -66.3620 -66.3618 -66.3616 -66.3614 -66.3613 -66.3610 -66.3609 -66.3607
   -30.7236 -30.7214 -30.7172 -30.7150 -30.7086 -30.7062 -30.7023 -30.6993
   -30.6919 -30.6890 -30.6832 -30.6804 -30.6800 -30.6760 -30.6743 -30.6714
   -30.6385 -30.6377 -30.6347 -30.6337 -30.6174 -30.6154 -30.6151 -30.6131
   -20.5239 -20.5238 -20.5237 -20.5237 -20.5237 -20.5237 -20.5236 -20.5236
   -20.5062 -20.5061 -20.5056 -20.5055 -20.5051 -20.5049 -20.5045 -20.5043
   -20.5029 -20.5028 -20.5021 -20.5020 -20.5009 -20.5009 -20.5003 -20.5002
   -20.5001 -20.5000 -20.4999 -20.4998 -20.4973 -20.4972 -20.4970 -20.4969
   -20.4949 -20.4946 -20.4942 -20.4939 -20.4929 -20.4928 -20.4917 -20.4915
   -20.4911 -20.4910 -20.4906 -20.4904 -20.4881 -20.4879 -20.4878 -20.4874
   -20.4868 -20.4867 -20.4865 -20.4865 -20.4857 -20.4856 -20.4854 -20.4853
    -9.8642  -9.6910  -9.6717  -9.5140  -9.3578  -9.1443  -9.0696  -9.0245
    -8.9906  -8.8856  -8.8171  -8.7898  -8.4560  -8.4195  -8.3483  -8.3076
    -8.2995  -8.2930  -8.2510  -8.2081  -7.9264  -7.9132  -7.8891  -7.8766
     1.1034   1.1059   1.1080   1.1105   1.9475   2.0210   2.0323   2.1185
     2.1584   2.2494   2.2514   2.4359   2.6402   2.6718   2.6729   2.7481
     2.9711   3.0057   3.4056   3.4317   3.4381   3.5160   3.6530   3.6674
     3.9229   4.1112   4.1876   4.2043   4.2628   4.4080   4.4819   4.5904
     4.6551   4.7051   4.8093   4.8531   4.8839   4.9768   5.0661   5.1717
     5.1720   5.3668   5.5214   5.6803   5.9006   5.9209   6.0646   6.1430
     6.2700   6.3471   6.3493   6.4135   6.4875   6.6094   6.6099   6.6498
     6.7028   6.8533   6.8599   6.8810   6.8876   6.9713   7.0130   7.0539
     7.1335   7.1611   7.6095   7.6142   7.6927   7.7218   7.8163   7.8391
    10.0739  10.0751  10.4125  10.4516  11.0651  11.1086  11.6090  11.6578
    11.7091  11.7708  12.0333  12.0783  12.4743  12.4894  12.5265  12.5286
    12.8902  13.0197  13.1158  13.1699  13.2388  13.3409  13.6325  13.6500
    14.6118  14.7361  14.9658  15.2813  15.5043  15.7261  15.7994  16.2724
    16.6008  16.6599  16.6643  17.3074  17.4631

          k = 0.0000 0.3215-0.4999 ( 63042 PWs)   bands (ev):

   -66.3618 -66.3618 -66.3616 -66.3616 -66.3611 -66.3611 -66.3609 -66.3608
   -30.7225 -30.7225 -30.7162 -30.7161 -30.7074 -30.7074 -30.7007 -30.7007
   -30.6856 -30.6856 -30.6829 -30.6829 -30.6590 -30.6590 -30.6585 -30.6585
   -30.6548 -30.6548 -30.6547 -30.6547 -30.6163 -30.6163 -30.6143 -30.6143
   -20.5238 -20.5238 -20.5238 -20.5237 -20.5237 -20.5237 -20.5236 -20.5236
   -20.5059 -20.5059 -20.5058 -20.5058 -20.5048 -20.5048 -20.5046 -20.5046
   -20.5024 -20.5024 -20.5024 -20.5023 -20.5006 -20.5006 -20.5005 -20.5005
   -20.5000 -20.5000 -20.4999 -20.4999 -20.4973 -20.4973 -20.4970 -20.4970
   -20.4945 -20.4945 -20.4942 -20.4942 -20.4920 -20.4920 -20.4919 -20.4919
   -20.4912 -20.4912 -20.4910 -20.4910 -20.4880 -20.4879 -20.4876 -20.4876
   -20.4863 -20.4863 -20.4861 -20.4861 -20.4861 -20.4860 -20.4860 -20.4860
    -9.7500  -9.7500  -9.5817  -9.5817  -9.1663  -9.1662  -8.9185  -8.9185
    -8.7911  -8.7911  -8.7309  -8.7309  -8.6577  -8.6576  -8.6096  -8.6096
    -8.3078  -8.3078  -8.2709  -8.2709  -7.9078  -7.9078  -7.8949  -7.8949
     1.1092   1.1092   1.1143   1.1143   2.1082   2.1082   2.2400   2.2400
     2.6492   2.6492   2.8331   2.8331   2.9047   2.9048   2.9665   2.9665
     3.0378   3.0379   3.1211   3.1212   3.1980   3.1980   3.4344   3.4344
     3.9031   3.9031   3.9307   3.9308   3.9556   3.9556   4.1830   4.1830
     4.6850   4.6850   4.7957   4.7957   4.9184   4.9184   5.0318   5.0318
     5.1627   5.1628   5.5969   5.5970   6.0064   6.0064   6.0424   6.0424
     6.2775   6.2775   6.3504   6.3504   6.3880   6.3880   6.6232   6.6232
     6.8273   6.8273   6.8805   6.8805   6.9677   6.9677   7.3974   7.3974
     7.4341   7.4342   7.4491   7.4491   7.5073   7.5073   7.7376   7.7376
    10.4156  10.4157  10.8977  10.8977  10.9340  10.9340  11.6302  11.6302
    11.7876  11.7876  11.8801  11.8801  12.4699  12.4699  12.5034  12.5034
    12.7941  12.7941  12.8337  12.8337  13.2468  13.2468  13.6364  13.6364
    14.6857  14.6857  15.1638  15.1638  16.0747  16.0747  16.3296  16.3296
    16.5819  16.5820  16.8885  16.8886  17.7763

          k = 0.0000-0.4823 0.0000 ( 63082 PWs)   bands (ev):

   -66.3621 -66.3621 -66.3614 -66.3613 -66.3613 -66.3613 -66.3606 -66.3606
   -30.7148 -30.7148 -30.7100 -30.7100 -30.7072 -30.7071 -30.7060 -30.7060
   -30.6977 -30.6977 -30.6942 -30.6942 -30.6910 -30.6910 -30.6906 -30.6906
   -30.6175 -30.6175 -30.6167 -30.6167 -30.6156 -30.6156 -30.6108 -30.6108
   -20.5239 -20.5239 -20.5238 -20.5238 -20.5236 -20.5236 -20.5235 -20.5235
   -20.5065 -20.5065 -20.5052 -20.5052 -20.5052 -20.5052 -20.5041 -20.5041
   -20.5033 -20.5033 -20.5017 -20.5017 -20.5013 -20.5013 -20.4998 -20.4998
   -20.4987 -20.4987 -20.4986 -20.4986 -20.4985 -20.4985 -20.4984 -20.4983
   -20.4952 -20.4952 -20.4939 -20.4939 -20.4938 -20.4938 -20.4921 -20.4921
   -20.4902 -20.4902 -20.4899 -20.4899 -20.4882 -20.4882 -20.4875 -20.4875
   -20.4872 -20.4872 -20.4869 -20.4869 -20.4849 -20.4848 -20.4848 -20.4848
    -9.9298  -9.9298  -9.5294  -9.5294  -9.5259  -9.5259  -9.1688  -9.1687
    -8.7019  -8.7019  -8.6252  -8.6251  -8.6235  -8.6235  -8.6084  -8.6083
    -7.9419  -7.9419  -7.9332  -7.9332  -7.8646  -7.8646  -7.8610  -7.8610
     0.9654   0.9654   1.0891   1.0891   1.1035   1.1035   1.3270   1.3270
     2.3668   2.3668   2.9000   2.9000   2.9815   2.9815   2.9916   2.9916
     2.9984   2.9984   3.0764   3.0764   3.2588   3.2589   3.2709   3.2709
     3.4426   3.4426   4.5312   4.5313   4.5394   4.5394   5.0540   5.0540
     5.0755   5.0755   5.1662   5.1662   5.1762   5.1762   5.5763   5.5763
     5.5846   5.5846   5.8443   5.8443   5.8527   5.8527   6.0016   6.0016
     6.0508   6.0508   6.1562   6.1562   6.5296   6.5296   6.5491   6.5491
     6.8054   6.8054   7.0574   7.0574   7.0615   7.0615   7.3327   7.3327
     7.3399   7.3399   7.3554   7.3554   7.3626   7.3626   8.0370   8.0370
     8.9603   8.9603  11.0268  11.0268  11.0615  11.0615  11.0923  11.0924
    11.1346  11.1346  12.2997  12.2997  12.3036  12.3037  13.0819  13.0819
    13.4142  13.4142  13.4217  13.4218  13.4587  13.4587  13.5136  13.5136
    14.6231  14.6231  14.9976  14.9977  15.1295  15.1295  15.1478  15.1478
    16.2940  16.2940  17.6296  17.6296  17.9149

          k = 0.0000-0.4823 0.1666 ( 63132 PWs)   bands (ev):

   -66.3620 -66.3620 -66.3614 -66.3614 -66.3613 -66.3613 -66.3606 -66.3606
   -30.7144 -30.7144 -30.7103 -30.7103 -30.7053 -30.7053 -30.7023 -30.7023
   -30.6980 -30.6980 -30.6916 -30.6915 -30.6905 -30.6905 -30.6879 -30.6879
   -30.6226 -30.6226 -30.6194 -30.6194 -30.6172 -30.6172 -30.6128 -30.6128
   -20.5239 -20.5239 -20.5238 -20.5238 -20.5236 -20.5236 -20.5235 -20.5235
   -20.5064 -20.5064 -20.5053 -20.5053 -20.5052 -20.5052 -20.5042 -20.5042
   -20.5032 -20.5032 -20.5018 -20.5018 -20.5012 -20.5012 -20.4999 -20.4999
   -20.4987 -20.4987 -20.4986 -20.4986 -20.4985 -20.4985 -20.4984 -20.4984
   -20.4951 -20.4951 -20.4939 -20.4939 -20.4936 -20.4936 -20.4920 -20.4920
   -20.4904 -20.4904 -20.4901 -20.4901 -20.4881 -20.4881 -20.4876 -20.4875
   -20.4871 -20.4871 -20.4868 -20.4868 -20.4850 -20.4850 -20.4850 -20.4850
    -9.8804  -9.8804  -9.5379  -9.5379  -9.4472  -9.4472  -9.1309  -9.1309
    -8.7105  -8.7105  -8.6308  -8.6308  -8.6173  -8.6173  -8.6066  -8.6066
    -8.0532  -8.0532  -7.9849  -7.9849  -7.9332  -7.9332  -7.8695  -7.8695
     1.0538   1.0538   1.1051   1.1051   1.3446   1.3446   1.4999   1.4999
     2.4509   2.4509   2.9091   2.9091   2.9624   2.9624   3.0018   3.0018
     3.0486   3.0486   3.0746   3.0746   3.2642   3.2642   3.3122   3.3122
     3.4675   3.4675   4.2108   4.2108   4.5973   4.5973   4.8280   4.8280
     4.9475   4.9475   5.0529   5.0529   5.1888   5.1889   5.3187   5.3187
     5.5289   5.5289   5.5517   5.5517   5.8751   5.8751   6.0339   6.0339
     6.2707   6.2707   6.3212   6.3212   6.5254   6.5254   6.7292   6.7292
     6.8040   6.8040   6.8733   6.8733   6.9217   6.9217   7.3249   7.3249
     7.3424   7.3424   7.3465   7.3465   7.3519   7.3519   7.9890   7.9890
     9.3251   9.3251  11.0647  11.0647  11.1168  11.1168  11.1620  11.1620
    11.2250  11.2250  12.1424  12.1424  12.3526  12.3526  13.0570  13.0570
    13.2368  13.2368  13.3113  13.3113  13.4114  13.4114  13.5172  13.5172
    14.7025  14.7025  15.1293  15.1293  15.1841  15.1841  15.4836  15.4837
    16.3730  16.3730  17.5926  17.5929  17.6645

          k = 0.0000-0.4823 0.3332 ( 63058 PWs)   bands (ev):

   -66.3619 -66.3619 -66.3615 -66.3615 -66.3611 -66.3611 -66.3608 -66.3608
   -30.7135 -30.7135 -30.7112 -30.7111 -30.7025 -30.7024 -30.6992 -30.6992
   -30.6967 -30.6966 -30.6925 -30.6925 -30.6790 -30.6789 -30.6754 -30.6754
   -30.6382 -30.6382 -30.6343 -30.6343 -30.6164 -30.6164 -30.6142 -30.6142
   -20.5239 -20.5238 -20.5237 -20.5237 -20.5237 -20.5237 -20.5236 -20.5236
   -20.5062 -20.5062 -20.5055 -20.5055 -20.5050 -20.5050 -20.5044 -20.5044
   -20.5028 -20.5028 -20.5020 -20.5020 -20.5009 -20.5009 -20.5001 -20.5001
   -20.4987 -20.4987 -20.4987 -20.4987 -20.4985 -20.4985 -20.4985 -20.4984
   -20.4948 -20.4947 -20.4941 -20.4941 -20.4929 -20.4929 -20.4917 -20.4916
   -20.4911 -20.4911 -20.4905 -20.4905 -20.4879 -20.4879 -20.4876 -20.4876
   -20.4867 -20.4867 -20.4865 -20.4865 -20.4855 -20.4855 -20.4855 -20.4855
    -9.7640  -9.7640  -9.5764  -9.5764  -9.2198  -9.2198  -9.0025  -9.0025
    -8.7550  -8.7550  -8.6565  -8.6564  -8.5971  -8.5971  -8.5931  -8.5931
    -8.3316  -8.3316  -8.2749  -8.2749  -7.9201  -7.9201  -7.8831  -7.8831
     1.1067   1.1067   1.1093   1.1093   2.0206   2.0206   2.1401   2.1401
     2.6925   2.6925   2.9152   2.9152   2.9610   2.9610   3.0162   3.0162
     3.0484   3.0484   3.1405   3.1405   3.2490   3.2490   3.4377   3.4377
     3.5126   3.5126   3.6556   3.6556   4.3534   4.3534   4.4597   4.4597
     4.6420   4.6420   4.6925   4.6925   4.8893   4.8893   5.0643   5.0643
     5.2221   5.2221   5.4619   5.4619   5.9234   5.9234   6.1309   6.1309
     6.3416   6.3416   6.4126   6.4126   6.5100   6.5100   6.6035   6.6035
     6.8899   6.8899   7.0250   7.0250   7.0706   7.0706   7.2959   7.2959
     7.3158   7.3158   7.3277   7.3277   7.3739   7.3739   7.8226   7.8226
    10.0794  10.0794  11.0756  11.0756  11.1091  11.1091  11.5346  11.5346
    11.5832  11.5832  11.6609  11.6609  12.5170  12.5171  12.6851  12.6852
    12.7442  12.7442  13.1192  13.1192  13.4060  13.4060  13.4436  13.4436
    14.8594  14.8594  15.0809  15.0809  15.8074  15.8074  16.3499  16.3499
    16.6512  16.6512  17.0708  17.0709  17.7494

          k = 0.0000-0.4823-0.4999 ( 63088 PWs)   bands (ev):

   -66.3617 -66.3617 -66.3617 -66.3617 -66.3610 -66.3610 -66.3610 -66.3609
   -30.7123 -30.7123 -30.7123 -30.7123 -30.7005 -30.7005 -30.7005 -30.7005
   -30.6941 -30.6941 -30.6941 -30.6941 -30.6592 -30.6591 -30.6591 -30.6591
   -30.6551 -30.6551 -30.6551 -30.6551 -30.6154 -30.6154 -30.6154 -30.6153
   -20.5238 -20.5238 -20.5238 -20.5238 -20.5237 -20.5237 -20.5237 -20.5236
   -20.5059 -20.5059 -20.5059 -20.5058 -20.5047 -20.5047 -20.5047 -20.5047
   -20.5024 -20.5024 -20.5024 -20.5024 -20.5005 -20.5005 -20.5005 -20.5004
   -20.4987 -20.4987 -20.4987 -20.4987 -20.4985 -20.4985 -20.4985 -20.4985
   -20.4944 -20.4944 -20.4944 -20.4944 -20.4920 -20.4920 -20.4919 -20.4919
   -20.4911 -20.4911 -20.4911 -20.4911 -20.4878 -20.4877 -20.4877 -20.4877
   -20.4862 -20.4862 -20.4862 -20.4862 -20.4861 -20.4861 -20.4861 -20.4861
    -9.6502  -9.6502  -9.6502  -9.6502  -8.9273  -8.9273  -8.9273  -8.9273
    -8.7839  -8.7839  -8.7839  -8.7839  -8.5519  -8.5519  -8.5519  -8.5519
    -8.5136  -8.5135  -8.5135  -8.5135  -7.9016  -7.9016  -7.9016  -7.9016
     1.1129   1.1130   1.1130   1.1130   2.7755   2.7755   2.7755   2.7755
     2.8856   2.8856   2.8856   2.8856   2.9992   2.9992   2.9992   2.9992
     3.0912   3.0912   3.0912   3.0912   3.2280   3.2280   3.2280   3.2280
     3.3580   3.3580   3.3580   3.3580   4.1791   4.1791   4.1791   4.1791
     4.2666   4.2666   4.2666   4.2666   4.9925   4.9925   4.9925   4.9925
     5.3138   5.3138   5.3138   5.3138   6.0392   6.0392   6.0392   6.0392
     6.3482   6.3482   6.3482   6.3482   6.4787   6.4787   6.4787   6.4787
     7.1823   7.1823   7.1823   7.1823   7.2257   7.2257   7.2257   7.2257
     7.2828   7.2829   7.2829   7.2829   7.5347   7.5347   7.5347   7.5347
    10.8847  10.8847  10.8847  10.8847  11.1229  11.1229  11.1229  11.1229
    12.0939  12.0939  12.0940  12.0940  12.1356  12.1356  12.1356  12.1356
    12.8031  12.8031  12.8031  12.8032  13.4126  13.4126  13.4126  13.4126
    14.9913  14.9913  14.9913  14.9913  16.4928  16.4928  16.4928  16.4928
    17.2452  17.2454  17.2455  17.2456  17.3132

          k = 0.1667 0.0000 0.0000 ( 63083 PWs)   bands (ev):

   -66.3623 -66.3618 -66.3616 -66.3615 -66.3611 -66.3611 -66.3609 -66.3604
   -30.7377 -30.7341 -30.7335 -30.7301 -30.7079 -30.7045 -30.7037 -30.7022
   -30.6996 -30.6980 -30.6955 -30.6952 -30.6669 -30.6663 -30.6629 -30.6628
   -30.6251 -30.6218 -30.6204 -30.6190 -30.6175 -30.6151 -30.6123 -30.6112
   -20.5240 -20.5239 -20.5238 -20.5238 -20.5236 -20.5236 -20.5236 -20.5235
   -20.5065 -20.5063 -20.5055 -20.5052 -20.5052 -20.5050 -20.5044 -20.5040
   -20.5032 -20.5031 -20.5018 -20.5018 -20.5016 -20.5015 -20.5015 -20.5013
   -20.5013 -20.5011 -20.5001 -20.4997 -20.4958 -20.4957 -20.4954 -20.4953
   -20.4951 -20.4950 -20.4941 -20.4939 -20.4937 -20.4931 -20.4920 -20.4918
   -20.4905 -20.4904 -20.4900 -20.4896 -20.4888 -20.4887 -20.4881 -20.4875
   -20.4872 -20.4871 -20.4867 -20.4866 -20.4852 -20.4851 -20.4844 -20.4844
   -10.0991  -9.7664  -9.7542  -9.6959  -9.4459  -9.3442  -9.3341  -9.1451
    -9.1196  -9.0449  -9.0337  -9.0097  -8.0835  -8.0522  -8.0136  -8.0097
    -7.9537  -7.9437  -7.9388  -7.9173  -7.9115  -7.8820  -7.8781  -7.8491
     1.0313   1.0455   1.0623   1.0909   1.1561   1.2104   1.3159   1.3202
     1.3607   1.4483   1.5198   1.6376   2.3531   2.3986   2.4287   2.4330
     2.5051   2.5179   3.9259   3.9513   4.1280   4.1499   4.1741   4.2339
     4.4028   4.4498   4.6112   4.6192   4.6646   4.7138   4.9005   5.1709
     5.2988   5.3158   5.3921   5.3950   5.3959   5.4673   5.4685   5.4792
     5.5120   5.6692   5.6836   5.7448   5.8604   5.8683   5.9548   6.0881
     6.1828   6.3132   6.3474   6.3486   6.4276   6.4476   6.5302   6.5645
     6.5796   6.7458   6.7541   6.8473   6.8562   6.8700   6.8936   6.9375
     6.9504   6.9614   7.9425   7.9729   7.9957   7.9984   8.0484   8.0631
     9.3110   9.3254   9.6321   9.6927   9.9451   9.9898  12.1204  12.1433
    12.2231  12.2986  12.3359  12.3371  12.3820  12.4553  12.7847  12.8726
    13.0821  13.1772  13.2643  13.2867  13.5660  13.7607  13.9578  13.9796
    14.0091  14.0154  14.2831  14.7061  14.7260  14.7623  15.3677  15.4597
    15.8779  16.5589  16.6106  17.0218  17.2319

          k = 0.1667 0.0000 0.1666 ( 63081 PWs)   bands (ev):

   -66.3622 -66.3617 -66.3616 -66.3616 -66.3611 -66.3611 -66.3609 -66.3605
   -30.7376 -30.7344 -30.7335 -30.7304 -30.7025 -30.7022 -30.7020 -30.6984
   -30.6979 -30.6958 -30.6938 -30.6916 -30.6668 -30.6663 -30.6635 -30.6622
   -30.6250 -30.6235 -30.6228 -30.6214 -30.6207 -30.6201 -30.6164 -30.6151
   -20.5239 -20.5239 -20.5238 -20.5238 -20.5237 -20.5236 -20.5236 -20.5235
   -20.5064 -20.5062 -20.5054 -20.5053 -20.5051 -20.5051 -20.5044 -20.5041
   -20.5031 -20.5030 -20.5019 -20.5018 -20.5016 -20.5015 -20.5015 -20.5013
   -20.5011 -20.5011 -20.5001 -20.4998 -20.4959 -20.4958 -20.4955 -20.4953
   -20.4950 -20.4948 -20.4939 -20.4938 -20.4934 -20.4932 -20.4919 -20.4916
   -20.4907 -20.4906 -20.4902 -20.4898 -20.4887 -20.4886 -20.4881 -20.4875
   -20.4871 -20.4869 -20.4867 -20.4865 -20.4854 -20.4853 -20.4846 -20.4846
   -10.0546  -9.7101  -9.7091  -9.6978  -9.3594  -9.3540  -9.3436  -9.1072
    -9.0864  -9.0254  -9.0139  -9.0123  -8.0902  -8.0637  -8.0484  -8.0470
    -8.0315  -8.0268  -7.9869  -7.9627  -7.9487  -7.9204  -7.9192  -7.8851
     1.1458   1.2009   1.2014   1.2224   1.2245   1.3119   1.3491   1.3630
     1.4354   1.4477   1.6040   1.7190   2.4336   2.4385   2.4659   2.5038
     2.5443   2.5913   3.9041   3.9179   4.0802   4.0887   4.2744   4.2752
     4.3133   4.3176   4.4098   4.4351   4.4422   4.5072   4.8940   5.1193
     5.1585   5.2154   5.2924   5.3473   5.3975   5.4671   5.4735   5.4896
     5.4971   5.5570   5.5572   5.6624   5.6921   5.8746   6.1553   6.2571
     6.2631   6.3735   6.4015   6.4144   6.4236   6.4400   6.4449   6.4976
     6.5200   6.6190   6.6353   6.7092   6.7844   6.8341   6.8510   6.9215
     6.9876   7.0334   7.9236   7.9438   7.9779   7.9842   8.0083   8.0164
     9.5610   9.5916   9.8991   9.9622   9.9894  10.0214  12.1666  12.1716
    12.1882  12.1963  12.2884  12.3516  12.4174  12.4407  12.7954  12.8678
    12.8987  12.9417  13.2288  13.2962  13.6452  13.7459  13.8564  13.8776
    13.9997  14.1806  14.2793  14.8241  14.8960  14.8986  15.3371  15.8412
    15.8564  16.7072  16.7146  16.7656  17.2747

          k = 0.1667 0.0000 0.3332 ( 63076 PWs)   bands (ev):

   -66.3621 -66.3617 -66.3616 -66.3614 -66.3612 -66.3611 -66.3610 -66.3606
   -30.7372 -30.7352 -30.7332 -30.7313 -30.7013 -30.7010 -30.6973 -30.6965
   -30.6884 -30.6846 -30.6795 -30.6759 -30.6684 -30.6655 -30.6639 -30.6598
   -30.6382 -30.6368 -30.6351 -30.6335 -30.6239 -30.6215 -30.6196 -30.6172
   -20.5239 -20.5238 -20.5238 -20.5237 -20.5237 -20.5236 -20.5236 -20.5236
   -20.5062 -20.5060 -20.5056 -20.5054 -20.5052 -20.5049 -20.5047 -20.5043
   -20.5028 -20.5027 -20.5021 -20.5020 -20.5017 -20.5016 -20.5014 -20.5012
   -20.5010 -20.5007 -20.5003 -20.5000 -20.4960 -20.4958 -20.4956 -20.4955
   -20.4947 -20.4944 -20.4941 -20.4935 -20.4930 -20.4928 -20.4916 -20.4913
   -20.4913 -20.4911 -20.4906 -20.4902 -20.4886 -20.4886 -20.4880 -20.4876
   -20.4868 -20.4865 -20.4864 -20.4863 -20.4858 -20.4857 -20.4852 -20.4851
    -9.9471  -9.7540  -9.5736  -9.5683  -9.3864  -9.3765  -9.1128  -9.0472
    -9.0198  -8.9618  -8.9347  -8.8983  -8.3576  -8.3536  -8.3394  -8.3115
    -8.0586  -8.0374  -8.0197  -8.0016  -7.9485  -7.9292  -7.9168  -7.8938
     1.1583   1.1865   1.2570   1.2939   1.3601   1.3681   1.4064   1.4467
     2.0414   2.0609   2.1629   2.2112   2.4453   2.4947   2.6665   2.6858
     2.7933   2.8475   3.6062   3.6991   3.7516   3.7576   3.9344   4.0036
     4.0359   4.1532   4.3448   4.3810   4.4115   4.5342   4.5783   4.6415
     4.8648   4.9418   5.0302   5.0338   5.1963   5.2314   5.4690   5.5020
     5.5160   5.6172   5.6317   5.6759   5.7198   5.8340   5.8942   5.8964
     6.2012   6.2573   6.2636   6.3489   6.3924   6.4283   6.4324   6.5396
     6.5625   6.7311   6.7518   6.7558   6.8772   6.9496   7.0200   7.0314
     7.1455   7.2048   7.7655   7.7936   7.8499   7.8663   7.9850   7.9876
     9.9293   9.9676  10.2145  10.2512  10.6565  10.6901  11.6909  11.7224
    12.1420  12.2964  12.3435  12.3593  12.4386  12.4913  12.5433  12.6555
    12.7872  12.9155  13.0129  13.0917  13.4757  13.4917  13.7145  13.7482
    14.1421  14.2651  14.6270  15.1303  15.2271  15.3072  15.4914  15.7863
    16.1562  16.8233  17.1112  17.1277  17.2410

          k = 0.1667 0.0000-0.4999 ( 63086 PWs)   bands (ev):

   -66.3619 -66.3619 -66.3614 -66.3614 -66.3612 -66.3612 -66.3608 -66.3608
   -30.7363 -30.7363 -30.7323 -30.7323 -30.7008 -30.7008 -30.6972 -30.6971
   -30.6737 -30.6737 -30.6712 -30.6712 -30.6582 -30.6582 -30.6553 -30.6553
   -30.6546 -30.6546 -30.6518 -30.6518 -30.6228 -30.6228 -30.6185 -30.6185
   -20.5238 -20.5238 -20.5237 -20.5237 -20.5237 -20.5237 -20.5236 -20.5236
   -20.5059 -20.5059 -20.5057 -20.5057 -20.5050 -20.5050 -20.5047 -20.5046
   -20.5024 -20.5024 -20.5023 -20.5023 -20.5017 -20.5017 -20.5013 -20.5013
   -20.5007 -20.5007 -20.5003 -20.5003 -20.4959 -20.4959 -20.4956 -20.4956
   -20.4944 -20.4944 -20.4939 -20.4939 -20.4921 -20.4921 -20.4920 -20.4920
   -20.4912 -20.4912 -20.4907 -20.4907 -20.4885 -20.4885 -20.4878 -20.4878
   -20.4863 -20.4863 -20.4861 -20.4861 -20.4859 -20.4859 -20.4858 -20.4858
    -9.8343  -9.8343  -9.4526  -9.4526  -9.4479  -9.4479  -9.0305  -9.0304
    -8.7500  -8.7499  -8.7043  -8.7043  -8.6819  -8.6818  -8.6507  -8.6507
    -8.0428  -8.0428  -8.0166  -8.0166  -7.9402  -7.9402  -7.9056  -7.9056
     1.1703   1.1703   1.2753   1.2753   1.3729   1.3730   1.4417   1.4417
     2.4588   2.4588   2.7406   2.7406   2.8135   2.8136   2.9567   2.9568
     3.0382   3.0382   3.2163   3.2163   3.3163   3.3164   3.6555   3.6555
     3.7326   3.7327   4.1022   4.1022   4.3521   4.3521   4.7679   4.7679
     4.8478   4.8478   4.9057   4.9058   5.0954   5.0954   5.5643   5.5643
     5.5754   5.5754   5.6223   5.6223   5.6944   5.6944   5.8304   5.8304
     6.1329   6.1329   6.1873   6.1873   6.4268   6.4268   6.5006   6.5006
     6.6746   6.6746   6.7860   6.7860   6.8395   6.8395   7.4466   7.4466
     7.4830   7.4830   7.5686   7.5686   7.5873   7.5873   7.9874   7.9875
     9.9561   9.9561  10.9773  10.9773  11.0169  11.0169  11.4631  11.4631
    11.5283  11.5283  12.4472  12.4472  12.5854  12.5854  12.6341  12.6341
    12.8151  12.8152  13.0399  13.0399  13.1023  13.1023  13.7333  13.7333
    14.2282  14.2282  15.0050  15.0050  15.5929  15.5930  15.6227  15.6227
    16.3704  16.3704  17.4905  17.4907  17.5853

          k = 0.1667 0.1608 0.0000 ( 63122 PWs)   bands (ev):

   -66.3622 -66.3618 -66.3616 -66.3615 -66.3612 -66.3611 -66.3608 -66.3604
   -30.7337 -30.7301 -30.7293 -30.7258 -30.7077 -30.7046 -30.7036 -30.7027
   -30.6998 -30.6981 -30.6951 -30.6950 -30.6710 -30.6705 -30.6669 -30.6668
   -30.6249 -30.6218 -30.6207 -30.6191 -30.6174 -30.6153 -30.6124 -30.6113
   -20.5240 -20.5239 -20.5238 -20.5238 -20.5236 -20.5236 -20.5235 -20.5235
   -20.5065 -20.5063 -20.5055 -20.5052 -20.5052 -20.5050 -20.5043 -20.5041
   -20.5032 -20.5031 -20.5017 -20.5016 -20.5015 -20.5014 -20.5012 -20.5011
   -20.5010 -20.5009 -20.5000 -20.4997 -20.4962 -20.4961 -20.4958 -20.4957
   -20.4951 -20.4951 -20.4941 -20.4938 -20.4937 -20.4932 -20.4920 -20.4918
   -20.4904 -20.4904 -20.4900 -20.4897 -20.4887 -20.4886 -20.4880 -20.4876
   -20.4872 -20.4871 -20.4868 -20.4866 -20.4851 -20.4851 -20.4845 -20.4844
   -10.0635  -9.7675  -9.7255  -9.6502  -9.4548  -9.3532  -9.2556  -9.1423
    -9.1210  -9.0059  -8.9905  -8.9753  -8.1227  -8.0788  -8.0557  -8.0479
    -8.0199  -8.0103  -7.9854  -7.9600  -7.9417  -7.9167  -7.8767  -7.8537
     1.0426   1.0455   1.0800   1.0910   1.3083   1.3280   1.3601   1.5164
     1.5219   1.5567   1.5973   1.7549   2.4025   2.4326   2.4828   2.5073
     2.5165   2.5859   3.7819   3.8069   3.8813   3.9343   4.1730   4.2320
     4.4339   4.4481   4.5884   4.6136   4.6860   4.7286   4.7425   5.0648
     5.0952   5.1730   5.1768   5.3406   5.3708   5.4114   5.4427   5.5244
     5.6363   5.6472   5.7297   5.7549   5.8101   5.8621   5.9729   6.0658
     6.0824   6.2739   6.3444   6.3463   6.4542   6.5354   6.5628   6.6104
     6.6399   6.7150   6.7652   6.8209   6.8399   6.8616   6.8752   6.8839
     6.9106   6.9633   7.8989   7.9068   7.9671   7.9743   7.9916   7.9978
     9.3154   9.3246   9.8384   9.9010  10.1167  10.1675  12.0779  12.1207
    12.1440  12.1717  12.2064  12.2510  12.3388  12.3799  12.8193  12.8914
    13.1107  13.1950  13.2620  13.2910  13.6793  13.7223  13.9132  13.9212
    14.0450  14.2367  14.5004  14.7306  14.7547  14.8995  15.4260  15.7807
    15.8444  16.3044  16.7175  17.1674  17.2760

          k = 0.1667 0.1608 0.1666 ( 63096 PWs)   bands (ev):

   -66.3622 -66.3618 -66.3615 -66.3615 -66.3611 -66.3611 -66.3609 -66.3605
   -30.7336 -30.7304 -30.7293 -30.7262 -30.7028 -30.7022 -30.7021 -30.6985
   -30.6983 -30.6952 -30.6937 -30.6916 -30.6710 -30.6703 -30.6674 -30.6661
   -30.6248 -30.6234 -30.6228 -30.6213 -30.6210 -30.6204 -30.6165 -30.6154
   -20.5239 -20.5239 -20.5238 -20.5238 -20.5237 -20.5236 -20.5236 -20.5235
   -20.5064 -20.5062 -20.5054 -20.5053 -20.5051 -20.5051 -20.5044 -20.5041
   -20.5031 -20.5030 -20.5018 -20.5017 -20.5014 -20.5014 -20.5011 -20.5011
   -20.5010 -20.5009 -20.5001 -20.4998 -20.4962 -20.4961 -20.4959 -20.4957
   -20.4950 -20.4949 -20.4939 -20.4938 -20.4935 -20.4933 -20.4919 -20.4917
   -20.4907 -20.4906 -20.4901 -20.4898 -20.4887 -20.4886 -20.4880 -20.4876
   -20.4871 -20.4870 -20.4867 -20.4866 -20.4853 -20.4852 -20.4847 -20.4846
   -10.0174  -9.7115  -9.6642  -9.6637  -9.3684  -9.3633  -9.2653  -9.1058
    -9.0877  -8.9825  -8.9791  -8.9780  -8.1360  -8.0772  -8.0758  -8.0616
    -8.0554  -8.0314  -8.0203  -8.0082  -8.0016  -7.9764  -7.9641  -7.9579
     1.2213   1.2218   1.3016   1.3083   1.3457   1.3491   1.3640   1.5241
     1.5828   1.5936   1.6053   1.8062   2.4832   2.5064   2.5172   2.5699
     2.5929   2.6007   3.7758   3.7987   3.8957   3.9019   4.2501   4.2634
     4.2957   4.3063   4.4217   4.4464   4.4788   4.5320   4.6847   5.0460
     5.0607   5.1049   5.1256   5.1912   5.2228   5.3953   5.3987   5.4448
     5.4925   5.5291   5.7008   5.7201   5.7254   5.7898   6.1376   6.1760
     6.2227   6.3004   6.3409   6.4362   6.4482   6.4737   6.5144   6.5790
     6.5919   6.6683   6.6792   6.7160   6.7977   6.8157   6.8228   6.9224
     6.9882   7.0398   7.8891   7.9055   7.9292   7.9328   7.9527   7.9629
     9.5707   9.5903  10.0722  10.1277  10.1666  10.1868  12.1397  12.1547
    12.1719  12.1756  12.1899  12.2294  12.2749  12.2941  12.8302  12.8860
    12.9219  12.9615  13.2247  13.2983  13.6909  13.6988  13.7560  13.7922
    14.1671  14.4627  14.5050  14.8961  14.8972  14.9949  15.7432  15.8120
    15.8241  16.4348  16.8406  16.8532  17.2450

          k = 0.1667 0.1608 0.3332 ( 63068 PWs)   bands (ev):

   -66.3620 -66.3617 -66.3616 -66.3614 -66.3613 -66.3610 -66.3610 -66.3606
   -30.7332 -30.7312 -30.7290 -30.7270 -30.7019 -30.7011 -30.6974 -30.6960
   -30.6888 -30.6852 -30.6796 -30.6761 -30.6724 -30.6692 -30.6673 -30.6632
   -30.6383 -30.6370 -30.6352 -30.6337 -30.6237 -30.6213 -30.6200 -30.6176
   -20.5239 -20.5238 -20.5238 -20.5237 -20.5237 -20.5237 -20.5236 -20.5236
   -20.5062 -20.5060 -20.5056 -20.5054 -20.5052 -20.5050 -20.5046 -20.5044
   -20.5027 -20.5027 -20.5020 -20.5019 -20.5014 -20.5013 -20.5011 -20.5010
   -20.5009 -20.5007 -20.5003 -20.5000 -20.4963 -20.4962 -20.4960 -20.4959
   -20.4947 -20.4944 -20.4940 -20.4936 -20.4930 -20.4928 -20.4916 -20.4913
   -20.4913 -20.4912 -20.4906 -20.4902 -20.4885 -20.4885 -20.4880 -20.4877
   -20.4868 -20.4865 -20.4864 -20.4864 -20.4857 -20.4856 -20.4852 -20.4852
    -9.9062  -9.7086  -9.5815  -9.5154  -9.3965  -9.2992  -9.1223  -9.0271
    -8.9860  -8.9636  -8.9140  -8.8767  -8.3682  -8.3522  -8.3511  -8.3088
    -8.0838  -8.0737  -8.0376  -8.0369  -8.0121  -8.0065  -7.9941  -7.9745
     1.3045   1.3071   1.3590   1.3669   1.4745   1.4839   1.5594   1.5884
     2.0400   2.0710   2.1622   2.2273   2.5183   2.5643   2.7183   2.7472
     2.8284   2.8424   3.5935   3.6373   3.7416   3.7499   3.8519   3.9225
     4.0064   4.0621   4.3525   4.4169   4.4326   4.5175   4.5377   4.6083
     4.6787   4.7557   4.8284   4.9579   5.0394   5.0838   5.1765   5.4374
     5.4681   5.5356   5.5583   5.6684   5.7368   5.7639   5.8406   5.8910
     6.1404   6.3273   6.3561   6.4225   6.4624   6.5139   6.5323   6.5729
     6.6169   6.7452   6.7607   6.7956   6.8639   6.9658   7.0129   7.0306
     7.1422   7.2008   7.7518   7.7862   7.7959   7.8207   7.9147   7.9247
    10.0839  10.1357  10.2260  10.2733  10.7637  10.7962  11.6909  11.7205
    12.1092  12.2744  12.3060  12.3453  12.3756  12.3900  12.4608  12.5288
    12.8161  12.9045  13.0076  13.1016  13.3663  13.3911  13.6945  13.7098
    14.3674  14.4900  14.9712  15.2753  15.3007  15.5106  15.6362  15.7562
    16.2825  16.7856  16.8570  17.1722  17.2093

          k = 0.1667 0.1608-0.4999 ( 63072 PWs)   bands (ev):

   -66.3619 -66.3619 -66.3615 -66.3614 -66.3612 -66.3612 -66.3608 -66.3608
   -30.7323 -30.7323 -30.7281 -30.7281 -30.7012 -30.7012 -30.6968 -30.6968
   -30.6764 -30.6764 -30.6738 -30.6738 -30.6584 -30.6584 -30.6565 -30.6565
   -30.6548 -30.6548 -30.6532 -30.6532 -30.6226 -30.6226 -30.6189 -30.6189
   -20.5238 -20.5238 -20.5237 -20.5237 -20.5237 -20.5237 -20.5236 -20.5236
   -20.5059 -20.5059 -20.5057 -20.5057 -20.5049 -20.5049 -20.5047 -20.5047
   -20.5023 -20.5023 -20.5023 -20.5023 -20.5014 -20.5014 -20.5010 -20.5010
   -20.5006 -20.5006 -20.5003 -20.5003 -20.4963 -20.4963 -20.4960 -20.4960
   -20.4944 -20.4943 -20.4940 -20.4939 -20.4921 -20.4921 -20.4920 -20.4920
   -20.4911 -20.4911 -20.4907 -20.4907 -20.4885 -20.4885 -20.4878 -20.4878
   -20.4863 -20.4863 -20.4861 -20.4861 -20.4859 -20.4859 -20.4858 -20.4858
    -9.7901  -9.7901  -9.4643  -9.4642  -9.3759  -9.3759  -8.9984  -8.9984
    -8.7603  -8.7603  -8.7078  -8.7077  -8.6768  -8.6767  -8.6432  -8.6432
    -8.0789  -8.0789  -8.0340  -8.0340  -8.0135  -8.0135  -7.9881  -7.9881
     1.3072   1.3072   1.3716   1.3716   1.4890   1.4890   1.5839   1.5839
     2.5289   2.5289   2.7658   2.7659   2.8469   2.8469   2.9498   2.9499
     3.0336   3.0336   3.2210   3.2210   3.3096   3.3096   3.6630   3.6631
     3.7814   3.7814   3.9634   3.9635   4.3728   4.3728   4.5690   4.5690
     4.7632   4.7632   4.8239   4.8240   4.8875   4.8875   5.3116   5.3116
     5.5405   5.5405   5.5497   5.5497   5.6376   5.6376   5.7541   5.7541
     6.2644   6.2644   6.4062   6.4062   6.4406   6.4406   6.5495   6.5495
     6.7014   6.7015   6.7632   6.7632   6.8745   6.8745   7.4437   7.4437
     7.4758   7.4759   7.5418   7.5418   7.5583   7.5583   7.9191   7.9192
    10.1308  10.1308  10.9792  10.9792  11.0175  11.0175  11.5306  11.5306
    11.5939  11.5939  12.2903  12.2903  12.5782  12.5782  12.6218  12.6219
    12.7853  12.7853  12.9284  12.9284  13.0417  13.0417  13.6988  13.6988
    14.4540  14.4540  15.3885  15.3885  15.5966  15.5966  15.7364  15.7364
    16.4193  16.4193  17.3142  17.3142  17.5823

          k = 0.1667 0.3215 0.0000 ( 63131 PWs)   bands (ev):

   -66.3621 -66.3619 -66.3615 -66.3614 -66.3613 -66.3612 -66.3608 -66.3605
   -30.7236 -30.7196 -30.7181 -30.7141 -30.7079 -30.7050 -30.7045 -30.7036
   -30.7014 -30.6981 -30.6936 -30.6930 -30.6821 -30.6821 -30.6771 -30.6770
   -30.6242 -30.6223 -30.6207 -30.6195 -30.6170 -30.6158 -30.6124 -30.6117
   -20.5239 -20.5239 -20.5238 -20.5238 -20.5236 -20.5236 -20.5235 -20.5235
   -20.5065 -20.5064 -20.5054 -20.5052 -20.5052 -20.5051 -20.5043 -20.5041
   -20.5032 -20.5031 -20.5016 -20.5015 -20.5015 -20.5014 -20.5002 -20.5001
   -20.5000 -20.5000 -20.4999 -20.4997 -20.4972 -20.4971 -20.4970 -20.4968
   -20.4951 -20.4951 -20.4940 -20.4938 -20.4937 -20.4934 -20.4920 -20.4919
   -20.4904 -20.4904 -20.4899 -20.4897 -20.4886 -20.4886 -20.4879 -20.4877
   -20.4872 -20.4872 -20.4868 -20.4867 -20.4850 -20.4850 -20.4846 -20.4846
    -9.9763  -9.8089  -9.6311  -9.5440  -9.4841  -9.3833  -9.1368  -9.1250
    -9.0333  -8.8733  -8.8539  -8.8509  -8.3707  -8.3198  -8.3103  -8.2885
    -8.0617  -8.0466  -7.9936  -7.9790  -7.9369  -7.9229  -7.8722  -7.8595
     1.0455   1.0457   1.0890   1.0912   1.3490   1.3588   1.4818   1.5154
     2.1018   2.2212   2.2452   2.3776   2.4252   2.4752   2.6542   2.7163
     2.7367   2.7957   3.4035   3.4116   3.4812   3.4822   3.9379   4.1931
     4.1937   4.2782   4.2930   4.5353   4.5659   4.5915   4.6445   4.6815
     4.8680   4.9129   5.0405   5.1637   5.2378   5.2815   5.4485   5.4672
     5.5126   5.5419   5.6114   5.7302   5.8617   5.8722   5.9809   6.0788
     6.1149   6.2374   6.3301   6.4206   6.4869   6.6531   6.6832   6.7608
     6.7807   6.7941   6.8316   6.8379   6.8634   6.8859   6.9018   6.9467
     6.9722   7.0076   7.6855   7.7028   7.7268   7.7360   7.9874   7.9920
     9.3210   9.3245  10.3675  10.4307  10.5791  10.6337  11.6526  11.7219
    11.7863  11.8342  12.1326  12.1419  12.3462  12.3619  12.9205  12.9624
    13.1928  13.2469  13.2835  13.3085  13.5284  13.5462  13.6852  13.6976
    14.5223  14.7056  14.7355  14.7892  15.0542  15.3262  15.5183  15.7295
    15.7485  16.7949  17.0258  17.1688  17.6707

          k = 0.1667 0.3215 0.1666 ( 63087 PWs)   bands (ev):

   -66.3621 -66.3619 -66.3615 -66.3614 -66.3612 -66.3612 -66.3608 -66.3606
   -30.7234 -30.7199 -30.7181 -30.7145 -30.7053 -30.7026 -30.7020 -30.7000
   -30.6987 -30.6934 -30.6931 -30.6907 -30.6825 -30.6809 -30.6775 -30.6760
   -30.6242 -30.6231 -30.6228 -30.6217 -30.6211 -30.6207 -30.6166 -30.6161
   -20.5239 -20.5239 -20.5238 -20.5238 -20.5236 -20.5236 -20.5236 -20.5235
   -20.5064 -20.5063 -20.5053 -20.5053 -20.5052 -20.5052 -20.5043 -20.5042
   -20.5031 -20.5030 -20.5017 -20.5016 -20.5013 -20.5013 -20.5002 -20.5001
   -20.5001 -20.4999 -20.4999 -20.4997 -20.4973 -20.4971 -20.4970 -20.4969
   -20.4950 -20.4949 -20.4938 -20.4938 -20.4935 -20.4935 -20.4919 -20.4917
   -20.4906 -20.4906 -20.4901 -20.4899 -20.4885 -20.4885 -20.4880 -20.4877
   -20.4871 -20.4870 -20.4867 -20.4867 -20.4852 -20.4851 -20.4848 -20.4848
    -9.9265  -9.7535  -9.5588  -9.5574  -9.3985  -9.3942  -9.1020  -9.0916
    -9.0431  -8.8575  -8.8572  -8.8448  -8.3785  -8.3193  -8.3171  -8.2925
    -8.0579  -8.0573  -8.0424  -8.0388  -8.0134  -7.9964  -7.9770  -7.9649
     1.2213   1.2218   1.3400   1.3468   1.3527   1.3613   1.5554   1.5994
     2.1047   2.2199   2.2294   2.3628   2.5107   2.5638   2.7338   2.7483
     2.7908   2.8132   3.4316   3.4328   3.4750   3.4990   3.9308   4.2277
     4.2429   4.2614   4.2687   4.3135   4.3337   4.5479   4.5650   4.6437
     4.6870   4.6964   4.9921   5.0216   5.1943   5.2138   5.2538   5.2599
     5.4974   5.5031   5.5069   5.5345   5.6170   5.6255   6.1954   6.2063
     6.2914   6.3388   6.3565   6.4674   6.5060   6.5693   6.6444   6.6722
     6.7565   6.7685   6.8243   6.8407   6.8839   6.9163   6.9297   6.9530
     7.0180   7.0701   7.6816   7.6925   7.6998   7.7185   7.9448   7.9510
     9.5818   9.5890  10.5352  10.5827  10.6318  10.6372  11.7361  11.7824
    11.8204  11.8316  12.1794  12.1893  12.2024  12.2089  12.9314  12.9476
    13.0277  13.0558  13.2109  13.3013  13.4789  13.5100  13.5254  13.5983
    14.7274  14.8764  14.8922  15.0313  15.0549  15.5872  15.6995  15.7132
    15.8770  16.7593  17.0955  17.2300  17.2338

          k = 0.1667 0.3215 0.3332 ( 63050 PWs)   bands (ev):

   -66.3620 -66.3617 -66.3616 -66.3614 -66.3613 -66.3611 -66.3609 -66.3607
   -30.7228 -30.7207 -30.7176 -30.7153 -30.7043 -30.7026 -30.6967 -30.6942
   -30.6916 -30.6884 -30.6836 -30.6796 -30.6789 -30.6762 -30.6744 -30.6708
   -30.6383 -30.6375 -30.6351 -30.6341 -30.6230 -30.6210 -30.6206 -30.6186
   -20.5239 -20.5238 -20.5238 -20.5237 -20.5237 -20.5237 -20.5236 -20.5236
   -20.5062 -20.5061 -20.5055 -20.5054 -20.5051 -20.5050 -20.5046 -20.5044
   -20.5027 -20.5026 -20.5019 -20.5018 -20.5010 -20.5010 -20.5004 -20.5003
   -20.5001 -20.5000 -20.4999 -20.4999 -20.4973 -20.4972 -20.4971 -20.4970
   -20.4946 -20.4945 -20.4940 -20.4937 -20.4930 -20.4929 -20.4916 -20.4914
   -20.4912 -20.4912 -20.4905 -20.4903 -20.4884 -20.4884 -20.4880 -20.4878
   -20.4868 -20.4866 -20.4865 -20.4864 -20.4857 -20.4856 -20.4854 -20.4853
    -9.8065  -9.6236  -9.6012  -9.4300  -9.3722  -9.1560  -9.0809  -8.9953
    -8.9692  -8.8683  -8.8134  -8.7928  -8.4714  -8.4147  -8.3438  -8.3113
    -8.3022  -8.2999  -8.2492  -8.2117  -8.0431  -8.0282  -8.0063  -7.9926
     1.3497   1.3538   1.3598   1.3663   1.9502   2.0144   2.0355   2.1184
     2.1570   2.2297   2.2528   2.4171   2.7330   2.7447   2.7910   2.8389
     2.9692   3.0053   3.4148   3.4336   3.4609   3.5192   3.7273   3.7691
     3.9183   4.1139   4.1820   4.2046   4.2509   4.3987   4.4058   4.5066
     4.5179   4.6230   4.6434   4.7003   4.7307   4.7562   4.9690   5.0195
     5.1353   5.1634   5.2897   5.4772   5.5307   5.6238   5.8728   5.8883
     6.3634   6.4794   6.5027   6.6170   6.6316   6.6396   6.7384   6.7691
     6.8010   6.8553   6.8708   6.8908   6.9401   7.0046   7.0463   7.0775
     7.1442   7.1824   7.6028   7.6130   7.6740   7.6990   7.7946   7.8158
    10.2115  10.2229  10.5953  10.6260  11.0737  11.1122  11.6744  11.7064
    11.7902  11.8660  12.0361  12.0736  12.3409  12.3930  12.4839  12.5153
    12.8484  12.9362  12.9778  13.1145  13.1447  13.2006  13.4900  13.5172
    14.8777  15.0118  15.2705  15.5796  15.6552  15.7209  15.8468  16.3360
    16.6019  16.6389  16.7031  17.3315  17.4029

          k = 0.1667 0.3215-0.4999 ( 63062 PWs)   bands (ev):

   -66.3618 -66.3618 -66.3615 -66.3615 -66.3611 -66.3611 -66.3609 -66.3609
   -30.7218 -30.7218 -30.7165 -30.7165 -30.7033 -30.7033 -30.6953 -30.6953
   -30.6859 -30.6859 -30.6815 -30.6815 -30.6587 -30.6587 -30.6583 -30.6583
   -30.6551 -30.6551 -30.6549 -30.6549 -30.6219 -30.6219 -30.6199 -30.6199
   -20.5238 -20.5238 -20.5237 -20.5237 -20.5237 -20.5237 -20.5237 -20.5236
   -20.5058 -20.5058 -20.5057 -20.5057 -20.5049 -20.5049 -20.5047 -20.5047
   -20.5023 -20.5023 -20.5022 -20.5022 -20.5007 -20.5007 -20.5006 -20.5006
   -20.5000 -20.5000 -20.5000 -20.5000 -20.4973 -20.4973 -20.4971 -20.4971
   -20.4943 -20.4943 -20.4941 -20.4940 -20.4921 -20.4921 -20.4920 -20.4920
   -20.4911 -20.4911 -20.4909 -20.4908 -20.4883 -20.4883 -20.4879 -20.4879
   -20.4863 -20.4862 -20.4861 -20.4861 -20.4860 -20.4860 -20.4859 -20.4859
    -9.6840  -9.6840  -9.5024  -9.5024  -9.1801  -9.1801  -8.8971  -8.8971
    -8.8046  -8.8045  -8.7218  -8.7217  -8.6533  -8.6532  -8.6129  -8.6128
    -8.3070  -8.3070  -8.2763  -8.2763  -8.0251  -8.0251  -8.0105  -8.0105
     1.3600   1.3600   1.3708   1.3708   2.1110   2.1110   2.2210   2.2211
     2.7258   2.7258   2.8386   2.8386   2.8987   2.8987   2.9627   2.9627
     3.0162   3.0162   3.2290   3.2290   3.2885   3.2886   3.4733   3.4733
     3.9068   3.9068   3.9279   3.9280   3.9492   3.9492   4.1914   4.1915
     4.5794   4.5794   4.6744   4.6744   4.8015   4.8015   4.8403   4.8403
     4.9047   4.9047   5.3661   5.3661   5.6245   5.6245   5.6656   5.6656
     6.4938   6.4938   6.6065   6.6065   6.6554   6.6554   6.6862   6.6862
     6.8219   6.8219   6.8865   6.8865   7.0237   7.0238   7.3934   7.3935
     7.4269   7.4269   7.4637   7.4637   7.5104   7.5104   7.7162   7.7162
    10.5864  10.5864  10.9829  10.9829  11.0240  11.0240  11.6792  11.6793
    11.7955  11.7955  11.9201  11.9201  12.4552  12.4552  12.4811  12.4811
    12.6637  12.6637  12.7398  12.7398  13.0717  13.0717  13.4961  13.4961
    14.9638  14.9638  15.5125  15.5125  16.1506  16.1506  16.3183  16.3183
    16.6422  16.6422  16.9392  16.9392  17.6038

          k = 0.1667-0.4823 0.0000 ( 63118 PWs)   bands (ev):

   -66.3620 -66.3620 -66.3614 -66.3614 -66.3613 -66.3613 -66.3606 -66.3606
   -30.7127 -30.7127 -30.7079 -30.7079 -30.7064 -30.7064 -30.7051 -30.7051
   -30.6981 -30.6981 -30.6946 -30.6946 -30.6884 -30.6884 -30.6872 -30.6872
   -30.6233 -30.6233 -30.6201 -30.6201 -30.6164 -30.6164 -30.6122 -30.6122
   -20.5239 -20.5239 -20.5238 -20.5238 -20.5236 -20.5236 -20.5235 -20.5235
   -20.5064 -20.5064 -20.5053 -20.5053 -20.5051 -20.5051 -20.5042 -20.5042
   -20.5032 -20.5031 -20.5015 -20.5015 -20.5014 -20.5014 -20.4999 -20.4999
   -20.4987 -20.4987 -20.4986 -20.4986 -20.4985 -20.4985 -20.4984 -20.4984
   -20.4951 -20.4951 -20.4939 -20.4939 -20.4936 -20.4936 -20.4919 -20.4919
   -20.4904 -20.4904 -20.4898 -20.4898 -20.4886 -20.4885 -20.4878 -20.4878
   -20.4872 -20.4872 -20.4868 -20.4868 -20.4848 -20.4848 -20.4848 -20.4848
    -9.8809  -9.8809  -9.5413  -9.5413  -9.4443  -9.4443  -9.1307  -9.1307
    -8.7107  -8.7107  -8.6300  -8.6300  -8.6185  -8.6185  -8.6060  -8.6060
    -8.0554  -8.0554  -7.9874  -7.9874  -7.9300  -7.9300  -7.8660  -7.8660
     1.0457   1.0457   1.0910   1.0910   1.3564   1.3564   1.5077   1.5077
     2.4505   2.4505   2.9024   2.9024   2.9622   2.9622   3.0024   3.0024
     3.0523   3.0523   3.0798   3.0798   3.2588   3.2588   3.3177   3.3177
     3.4659   3.4659   4.2123   4.2123   4.5820   4.5820   4.8395   4.8395
     4.9465   4.9465   5.0516   5.0517   5.1899   5.1900   5.3195   5.3195
     5.5252   5.5252   5.5529   5.5529   5.8790   5.8790   6.0483   6.0483
     6.2743   6.2743   6.2927   6.2927   6.5392   6.5392   6.7186   6.7186
     6.8131   6.8131   6.8771   6.8771   6.9182   6.9182   7.3184   7.3184
     7.3435   7.3435   7.3488   7.3488   7.3598   7.3598   7.9896   7.9896
     9.3238   9.3238  11.0317  11.0317  11.0875  11.0875  11.1908  11.1908
    11.2513  11.2513  12.1380  12.1380  12.3548  12.3548  13.0269  13.0270
    13.2265  13.2265  13.3949  13.3949  13.4418  13.4418  13.4736  13.4736
    14.6982  14.6982  15.1162  15.1162  15.1747  15.1747  15.4872  15.4872
    16.3717  16.3717  17.5934  17.5945  17.6659

          k = 0.1667-0.4823 0.1666 ( 63104 PWs)   bands (ev):

   -66.3620 -66.3620 -66.3614 -66.3613 -66.3613 -66.3613 -66.3607 -66.3607
   -30.7121 -30.7121 -30.7081 -30.7081 -30.7054 -30.7052 -30.7006 -30.7004
   -30.6984 -30.6984 -30.6909 -30.6908 -30.6881 -30.6881 -30.6860 -30.6859
   -30.6233 -30.6233 -30.6226 -30.6225 -30.6209 -30.6209 -30.6166 -30.6165
   -20.5239 -20.5239 -20.5238 -20.5238 -20.5236 -20.5236 -20.5235 -20.5235
   -20.5063 -20.5063 -20.5053 -20.5053 -20.5052 -20.5052 -20.5043 -20.5043
   -20.5030 -20.5030 -20.5016 -20.5016 -20.5013 -20.5013 -20.5000 -20.5000
   -20.4987 -20.4987 -20.4986 -20.4986 -20.4985 -20.4985 -20.4984 -20.4984
   -20.4950 -20.4949 -20.4937 -20.4937 -20.4936 -20.4936 -20.4918 -20.4918
   -20.4906 -20.4906 -20.4900 -20.4900 -20.4885 -20.4885 -20.4879 -20.4879
   -20.4871 -20.4871 -20.4867 -20.4867 -20.4850 -20.4850 -20.4850 -20.4850
    -9.8275  -9.8275  -9.4596  -9.4595  -9.4565  -9.4565  -9.0968  -9.0968
    -8.7203  -8.7202  -8.6246  -8.6238  -8.6235  -8.6232  -8.6038  -8.6037
    -8.0544  -8.0541  -8.0460  -8.0457  -8.0071  -8.0068  -7.9713  -7.9712
     1.2213   1.2217   1.3457   1.3466   1.3590   1.3592   1.5899   1.5901
     2.5354   2.5361   2.9118   2.9133   2.9600   2.9662   3.0028   3.0050
     3.0644   3.0678   3.1012   3.1110   3.3032   3.3087   3.3140   3.3198
     3.4846   3.4863   4.2613   4.2694   4.2877   4.2968   4.7834   4.7990
     4.8495   4.8591   4.9410   4.9550   4.9709   4.9813   5.2727   5.2795
[...]
    11.7866  11.7866  11.7866  11.7866  11.8862  11.8862  11.8862  11.8862
    12.8233  12.8233  12.8233  12.8233  12.9689  12.9689  12.9689  12.9689
    15.1707  15.1707  15.1707  15.1708  16.4913  16.4913  16.4913  16.4913
    17.4337  17.4337  17.4338  17.4338  17.5800

          k =-0.5000 0.3215 0.0000 ( 63046 PWs)   bands (ev):

   -66.3618 -66.3618 -66.3616 -66.3616 -66.3611 -66.3611 -66.3609 -66.3608
   -30.7205 -30.7204 -30.7165 -30.7165 -30.7056 -30.7056 -30.7004 -30.7004
   -30.6870 -30.6870 -30.6865 -30.6865 -30.6602 -30.6602 -30.6584 -30.6584
   -30.6551 -30.6550 -30.6537 -30.6537 -30.6151 -30.6151 -30.6139 -30.6139
   -20.5239 -20.5239 -20.5238 -20.5238 -20.5236 -20.5236 -20.5236 -20.5235
   -20.5059 -20.5059 -20.5058 -20.5058 -20.5048 -20.5048 -20.5046 -20.5046
   -20.5023 -20.5023 -20.5022 -20.5022 -20.5008 -20.5008 -20.5006 -20.5006
   -20.5000 -20.5000 -20.4999 -20.4999 -20.4971 -20.4971 -20.4970 -20.4970
   -20.4945 -20.4945 -20.4943 -20.4943 -20.4919 -20.4919 -20.4918 -20.4918
   -20.4905 -20.4905 -20.4904 -20.4904 -20.4891 -20.4891 -20.4890 -20.4890
   -20.4869 -20.4869 -20.4869 -20.4869 -20.4850 -20.4850 -20.4846 -20.4846
    -9.7517  -9.7517  -9.5857  -9.5857  -9.1677  -9.1677  -8.9206  -8.9206
    -8.7886  -8.7886  -8.7302  -8.7302  -8.6561  -8.6561  -8.6093  -8.6093
    -8.3057  -8.3057  -8.2713  -8.2713  -7.9048  -7.9048  -7.8915  -7.8915
     1.0964   1.0964   1.1007   1.1007   2.1063   2.1063   2.2384   2.2384
     2.6726   2.6726   2.8159   2.8159   2.8992   2.8992   2.9698   2.9698
     3.0377   3.0378   3.1608   3.1608   3.1749   3.1749   3.4231   3.4231
     3.8928   3.8928   3.9022   3.9023   3.9981   3.9981   4.2008   4.2008
     4.6775   4.6775   4.7732   4.7732   4.9175   4.9175   5.0412   5.0412
     5.1653   5.1653   5.6023   5.6023   6.0145   6.0145   6.0437   6.0437
     6.2807   6.2807   6.3557   6.3557   6.3889   6.3889   6.6349   6.6349
     6.8178   6.8178   6.8763   6.8763   6.9619   6.9619   7.3923   7.3923
     7.4229   7.4229   7.4675   7.4675   7.5105   7.5105   7.7484   7.7484
    10.3949  10.3949  10.8946  10.8946  10.9226  10.9226  11.5840  11.5840
    11.7826  11.7826  11.8906  11.8906  12.4815  12.4815  12.5257  12.5257
    12.7986  12.7986  12.8585  12.8585  13.2748  13.2748  13.6909  13.6909
    14.6555  14.6555  15.1430  15.1430  16.0742  16.0742  16.3172  16.3172
    16.5526  16.5526  16.8897  16.8897  17.7478

          k =-0.5000 0.3215 0.1666 ( 63066 PWs)   bands (ev):

   -66.3618 -66.3618 -66.3615 -66.3615 -66.3611 -66.3611 -66.3609 -66.3609
   -30.7204 -30.7204 -30.7168 -30.7168 -30.7011 -30.7011 -30.6947 -30.6947
   -30.6869 -30.6869 -30.6857 -30.6857 -30.6599 -30.6599 -30.6584 -30.6584
   -30.6550 -30.6550 -30.6541 -30.6541 -30.6207 -30.6207 -30.6196 -30.6196
   -20.5239 -20.5239 -20.5238 -20.5238 -20.5236 -20.5236 -20.5236 -20.5236
   -20.5059 -20.5059 -20.5057 -20.5057 -20.5048 -20.5048 -20.5047 -20.5047
   -20.5021 -20.5021 -20.5021 -20.5021 -20.5009 -20.5009 -20.5007 -20.5007
   -20.5000 -20.5000 -20.5000 -20.4999 -20.4972 -20.4972 -20.4971 -20.4971
   -20.4943 -20.4943 -20.4941 -20.4941 -20.4920 -20.4920 -20.4920 -20.4920
   -20.4904 -20.4904 -20.4904 -20.4903 -20.4892 -20.4892 -20.4891 -20.4891
   -20.4868 -20.4868 -20.4868 -20.4868 -20.4851 -20.4851 -20.4848 -20.4848
    -9.6853  -9.6853  -9.5060  -9.5060  -9.1814  -9.1813  -8.8994  -8.8994
    -8.8020  -8.8020  -8.7210  -8.7210  -8.6519  -8.6519  -8.6125  -8.6125
    -8.3052  -8.3052  -8.2761  -8.2761  -8.0233  -8.0233  -8.0080  -8.0080
     1.3490   1.3490   1.3586   1.3586   2.1095   2.1096   2.2208   2.2208
     2.7474   2.7474   2.8266   2.8267   2.8882   2.8882   2.9662   2.9662
     3.0258   3.0258   3.2467   3.2467   3.2771   3.2771   3.4617   3.4617
     3.8905   3.8905   3.9051   3.9051   3.9934   3.9934   4.2069   4.2069
     4.5743   4.5743   4.6575   4.6575   4.8059   4.8059   4.8445   4.8445
     4.9036   4.9036   5.3696   5.3696   5.6242   5.6242   5.6688   5.6688
     6.4988   6.4988   6.6203   6.6203   6.6631   6.6631   6.6911   6.6911
     6.8079   6.8079   6.8803   6.8803   7.0178   7.0178   7.3890   7.3890
     7.4216   7.4216   7.4746   7.4746   7.5117   7.5117   7.7246   7.7247
    10.5715  10.5715  10.9777  10.9777  11.0130  11.0130  11.6387  11.6387
    11.7913  11.7913  11.9278  11.9278  12.4622  12.4622  12.5084  12.5084
    12.6729  12.6729  12.7604  12.7604  13.0860  13.0860  13.5247  13.5247
    14.9552  14.9552  15.5020  15.5020  16.1501  16.1501  16.3098  16.3098
    16.6143  16.6143  16.9407  16.9407  17.5905

          k =-0.5000 0.3215 0.3332 ( 63044 PWs)   bands (ev):

   -66.3616 -66.3616 -66.3614 -66.3614 -66.3613 -66.3613 -66.3610 -66.3610
   -30.7198 -30.7198 -30.7177 -30.7177 -30.6929 -30.6929 -30.6878 -30.6878
   -30.6793 -30.6793 -30.6781 -30.6781 -30.6591 -30.6591 -30.6587 -30.6587
   -30.6556 -30.6556 -30.6543 -30.6542 -30.6355 -30.6355 -30.6350 -30.6350
   -20.5238 -20.5238 -20.5238 -20.5238 -20.5237 -20.5236 -20.5236 -20.5236
   -20.5057 -20.5057 -20.5055 -20.5055 -20.5051 -20.5051 -20.5049 -20.5049
   -20.5018 -20.5018 -20.5018 -20.5018 -20.5011 -20.5011 -20.5010 -20.5009
   -20.5001 -20.5000 -20.5000 -20.5000 -20.4972 -20.4972 -20.4971 -20.4971
   -20.4937 -20.4937 -20.4936 -20.4936 -20.4924 -20.4924 -20.4923 -20.4923
   -20.4902 -20.4902 -20.4902 -20.4901 -20.4895 -20.4895 -20.4894 -20.4894
   -20.4866 -20.4866 -20.4864 -20.4864 -20.4856 -20.4856 -20.4853 -20.4853
    -9.5167  -9.5167  -9.2879  -9.2879  -9.2296  -9.2296  -8.8600  -8.8600
    -8.8151  -8.8151  -8.6877  -8.6877  -8.6401  -8.6401  -8.6208  -8.6208
    -8.3604  -8.3604  -8.3103  -8.3103  -8.2844  -8.2844  -8.2304  -8.2304
     1.9659   1.9659   2.0427   2.0427   2.1207   2.1207   2.2372   2.2372
     2.8078   2.8078   2.8672   2.8672   2.9309   2.9309   2.9766   2.9766
     3.0359   3.0359   3.3988   3.3989   3.5295   3.5295   3.5736   3.5736
     3.8684   3.8684   3.9234   3.9234   3.9791   3.9791   4.1062   4.1062
     4.1572   4.1572   4.3204   4.3204   4.4413   4.4413   4.6915   4.6915
     4.7489   4.7489   4.8030   4.8030   4.8681   4.8681   5.1417   5.1417
     6.7068   6.7069   6.7535   6.7535   6.7987   6.7987   6.8545   6.8545
     7.0137   7.0137   7.0652   7.0652   7.2071   7.2071   7.3689   7.3689
     7.4000   7.4000   7.4928   7.4928   7.4971   7.4971   7.6541   7.6542
    11.0364  11.0364  11.2393  11.2393  11.3085  11.3085  11.7097  11.7097
    11.8205  11.8205  12.1044  12.1044  12.2120  12.2120  12.2530  12.2530
    12.5322  12.5322  12.6002  12.6002  12.6291  12.6291  13.1003  13.1003
    15.6378  15.6379  16.2406  16.2406  16.3577  16.3577  16.4358  16.4359
    16.8683  16.8683  17.0504  17.0505  17.2388

          k =-0.5000 0.3215-0.4999 ( 63052 PWs)   bands (ev):

   -66.3615 -66.3615 -66.3615 -66.3614 -66.3612 -66.3612 -66.3612 -66.3612
   -30.7188 -30.7188 -30.7188 -30.7188 -30.6894 -30.6894 -30.6894 -30.6894
   -30.6630 -30.6629 -30.6629 -30.6629 -30.6615 -30.6614 -30.6614 -30.6614
   -30.6539 -30.6539 -30.6539 -30.6539 -30.6505 -30.6505 -30.6505 -30.6505
   -20.5237 -20.5237 -20.5237 -20.5237 -20.5237 -20.5237 -20.5237 -20.5237
   -20.5054 -20.5054 -20.5054 -20.5054 -20.5052 -20.5052 -20.5052 -20.5052
   -20.5016 -20.5015 -20.5015 -20.5015 -20.5013 -20.5012 -20.5012 -20.5012
   -20.5000 -20.5000 -20.5000 -20.5000 -20.4972 -20.4972 -20.4972 -20.4972
   -20.4930 -20.4930 -20.4930 -20.4930 -20.4929 -20.4929 -20.4929 -20.4929
   -20.4900 -20.4900 -20.4900 -20.4900 -20.4897 -20.4897 -20.4897 -20.4896
   -20.4861 -20.4861 -20.4861 -20.4861 -20.4859 -20.4859 -20.4859 -20.4859
    -9.3381  -9.3381  -9.3381  -9.3381  -9.0178  -9.0177  -9.0177  -9.0177
    -8.6645  -8.6645  -8.6645  -8.6645  -8.5913  -8.5913  -8.5912  -8.5912
    -8.5769  -8.5769  -8.5769  -8.5769  -8.2746  -8.2746  -8.2746  -8.2745
     2.1230   2.1230   2.1230   2.1231   2.7393   2.7393   2.7393   2.7393
     2.8424   2.8425   2.8425   2.8425   2.9493   2.9493   2.9494   2.9494
     3.0470   3.0470   3.0470   3.0470   3.7991   3.7991   3.7991   3.7991
     3.8561   3.8561   3.8561   3.8561   3.9279   3.9279   3.9279   3.9279
     4.0844   4.0844   4.0844   4.0844   4.1553   4.1553   4.1553   4.1553
     4.5682   4.5682   4.5682   4.5682   4.8921   4.8921   4.8922   4.8922
     6.7723   6.7723   6.7723   6.7723   6.8249   6.8249   6.8249   6.8249
     7.2693   7.2693   7.2693   7.2693   7.2980   7.2980   7.2980   7.2980
     7.4118   7.4118   7.4119   7.4119   7.5542   7.5542   7.5542   7.5542
    11.5676  11.5676  11.5676  11.5676  11.6130  11.6130  11.6130  11.6130
    11.8500  11.8500  11.8500  11.8500  11.9935  11.9935  11.9935  11.9935
    12.4938  12.4938  12.4938  12.4938  12.6517  12.6517  12.6517  12.6517
    16.1032  16.1032  16.1032  16.1032  16.6975  16.6975  16.6975  16.6975
    17.1936  17.1936  17.1936  17.1936  17.5796

          k =-0.5000-0.4823 0.0000 ( 63088 PWs)   bands (ev):

   -66.3617 -66.3617 -66.3617 -66.3617 -66.3610 -66.3610 -66.3610 -66.3610
   -30.7087 -30.7087 -30.7084 -30.7084 -30.7015 -30.7015 -30.7007 -30.7007
   -30.6980 -30.6980 -30.6974 -30.6974 -30.6597 -30.6597 -30.6587 -30.6587
   -30.6558 -30.6558 -30.6550 -30.6550 -30.6146 -30.6146 -30.6146 -30.6145
   -20.5239 -20.5239 -20.5239 -20.5239 -20.5236 -20.5236 -20.5236 -20.5236
   -20.5059 -20.5059 -20.5058 -20.5058 -20.5047 -20.5047 -20.5047 -20.5047
   -20.5022 -20.5022 -20.5022 -20.5022 -20.5007 -20.5007 -20.5007 -20.5007
   -20.4987 -20.4987 -20.4986 -20.4986 -20.4986 -20.4985 -20.4985 -20.4984
   -20.4944 -20.4944 -20.4944 -20.4944 -20.4919 -20.4919 -20.4918 -20.4918
   -20.4905 -20.4905 -20.4904 -20.4904 -20.4891 -20.4891 -20.4890 -20.4890
   -20.4869 -20.4869 -20.4869 -20.4869 -20.4848 -20.4848 -20.4848 -20.4848
    -9.6552  -9.6552  -9.6512  -9.6512  -8.9374  -8.9374  -8.9176  -8.9175
    -8.7917  -8.7917  -8.7760  -8.7760  -8.5645  -8.5645  -8.5362  -8.5362
    -8.5269  -8.5269  -8.4997  -8.4997  -7.8984  -7.8984  -7.8982  -7.8982
     1.0981   1.0981   1.1011   1.1011   2.7488   2.7488   2.8119   2.8119
     2.8898   2.8898   2.9008   2.9008   2.9655   2.9655   2.9749   2.9749
     3.1308   3.1309   3.1469   3.1469   3.1664   3.1664   3.2475   3.2475
     3.2627   3.2627   3.4611   3.4611   4.1491   4.1492   4.1959   4.1959
     4.2262   4.2262   4.2891   4.2891   4.9822   4.9822   5.0101   5.0101
     5.2912   5.2912   5.3395   5.3395   6.0389   6.0389   6.0432   6.0432
     6.3532   6.3532   6.3606   6.3606   6.4702   6.4702   6.4995   6.4995
     7.1234   7.1234   7.1622   7.1622   7.2010   7.2010   7.2579   7.2579
     7.2927   7.2927   7.3430   7.3430   7.5307   7.5307   7.5366   7.5366
    10.8689  10.8689  10.9005  10.9005  11.0646  11.0646  11.1017  11.1017
    12.0329  12.0329  12.0974  12.0974  12.1730  12.1730  12.1916  12.1916
    12.8153  12.8153  12.8168  12.8168  13.4406  13.4406  13.4581  13.4581
    14.9706  14.9706  14.9801  14.9801  16.4474  16.4474  16.5269  16.5269
    17.1964  17.1964  17.2477  17.2477  17.2866

          k =-0.5000-0.4823 0.1666 ( 63072 PWs)   bands (ev):

   -66.3617 -66.3617 -66.3617 -66.3616 -66.3610 -66.3610 -66.3610 -66.3610
   -30.7073 -30.7073 -30.7069 -30.7069 -30.7018 -30.7018 -30.7010 -30.7010
   -30.6935 -30.6935 -30.6931 -30.6931 -30.6593 -30.6593 -30.6584 -30.6584
   -30.6562 -30.6562 -30.6553 -30.6553 -30.6202 -30.6202 -30.6202 -30.6202
   -20.5239 -20.5238 -20.5238 -20.5238 -20.5236 -20.5236 -20.5236 -20.5236
   -20.5058 -20.5058 -20.5058 -20.5058 -20.5048 -20.5048 -20.5048 -20.5048
   -20.5021 -20.5021 -20.5021 -20.5021 -20.5008 -20.5008 -20.5007 -20.5007
   -20.4987 -20.4987 -20.4986 -20.4986 -20.4986 -20.4985 -20.4985 -20.4985
   -20.4942 -20.4942 -20.4942 -20.4942 -20.4920 -20.4920 -20.4920 -20.4920
   -20.4904 -20.4904 -20.4903 -20.4903 -20.4892 -20.4892 -20.4891 -20.4891
   -20.4868 -20.4868 -20.4868 -20.4868 -20.4850 -20.4850 -20.4850 -20.4850
    -9.5803  -9.5803  -9.5758  -9.5758  -8.9525  -8.9525  -8.9329  -8.9329
    -8.7777  -8.7777  -8.7619  -8.7619  -8.5622  -8.5622  -8.5354  -8.5354
    -8.5278  -8.5278  -8.5024  -8.5024  -8.0165  -8.0165  -8.0164  -8.0164
     1.3544   1.3544   1.3581   1.3581   2.7538   2.7538   2.8141   2.8141
     2.8707   2.8707   2.8742   2.8743   2.9943   2.9943   3.0033   3.0033
     3.1317   3.1317   3.1888   3.1888   3.2494   3.2494   3.3080   3.3081
     3.3114   3.3114   3.4930   3.4930   4.1531   4.1531   4.1950   4.1950
     4.2201   4.2201   4.2813   4.2813   4.6962   4.6962   4.8099   4.8099
     4.9918   4.9918   5.0994   5.0994   5.6290   5.6290   5.6389   5.6389
     6.5864   6.5864   6.6346   6.6346   6.6725   6.6725   6.7109   6.7109
     7.1185   7.1185   7.1545   7.1545   7.2232   7.2232   7.2450   7.2450
     7.2906   7.2907   7.3516   7.3516   7.5187   7.5187   7.5432   7.5432
    10.9503  10.9503  10.9831  10.9831  11.1833  11.1833  11.2350  11.2350
    12.0376  12.0376  12.0980  12.0981  12.1719  12.1719  12.1929  12.1929
    12.6552  12.6552  12.7202  12.7202  13.2475  13.2475  13.2917  13.2917
    15.3131  15.3131  15.3315  15.3315  16.5233  16.5233  16.5983  16.5984
    17.1977  17.1981  17.2613  17.2615  17.2808

          k =-0.5000-0.4823 0.3332 ( 63056 PWs)   bands (ev):

   -66.3615 -66.3615 -66.3615 -66.3615 -66.3612 -66.3612 -66.3611 -66.3611
   -30.7055 -30.7055 -30.7048 -30.7048 -30.7027 -30.7027 -30.7019 -30.7019
   -30.6795 -30.6795 -30.6793 -30.6793 -30.6586 -30.6586 -30.6578 -30.6578
   -30.6569 -30.6569 -30.6559 -30.6559 -30.6355 -30.6355 -30.6354 -30.6354
   -20.5238 -20.5238 -20.5238 -20.5238 -20.5236 -20.5236 -20.5236 -20.5236
   -20.5056 -20.5056 -20.5056 -20.5056 -20.5050 -20.5050 -20.5050 -20.5050
   -20.5018 -20.5018 -20.5018 -20.5018 -20.5010 -20.5010 -20.5010 -20.5010
   -20.4987 -20.4987 -20.4987 -20.4987 -20.4986 -20.4986 -20.4985 -20.4985
   -20.4937 -20.4937 -20.4936 -20.4936 -20.4924 -20.4924 -20.4923 -20.4923
   -20.4902 -20.4902 -20.4901 -20.4901 -20.4895 -20.4895 -20.4894 -20.4894
   -20.4865 -20.4865 -20.4865 -20.4865 -20.4854 -20.4854 -20.4854 -20.4854
    -9.3809  -9.3809  -9.3739  -9.3739  -9.0089  -9.0089  -8.9909  -8.9909
    -8.7249  -8.7249  -8.7103  -8.7102  -8.5559  -8.5559  -8.5406  -8.5406
    -8.5229  -8.5229  -8.5108  -8.5108  -8.2969  -8.2969  -8.2962  -8.2962
     2.0287   2.0287   2.0359   2.0359   2.7657   2.7657   2.8032   2.8033
     2.8504   2.8504   2.8581   2.8581   3.0106   3.0106   3.0428   3.0428
     3.1529   3.1529   3.2078   3.2078   3.3905   3.3905   3.4028   3.4028
     3.5688   3.5688   3.6410   3.6410   4.1431   4.1431   4.1506   4.1506
     4.1863   4.1863   4.2311   4.2311   4.3087   4.3087   4.3870   4.3870
     4.5179   4.5180   4.6261   4.6261   4.8345   4.8345   4.8454   4.8454
     6.8697   6.8697   6.9389   6.9390   6.9896   6.9897   7.0003   7.0003
     7.1057   7.1057   7.1608   7.1608   7.2122   7.2122   7.2390   7.2391
     7.3273   7.3273   7.3878   7.3878   7.4962   7.4962   7.5272   7.5273
    11.2176  11.2176  11.2450  11.2450  11.5342  11.5342  11.5988  11.5988
    12.0125  12.0125  12.0918  12.0918  12.1382  12.1382  12.1748  12.1748
    12.2954  12.2954  12.4182  12.4182  12.7675  12.7675  12.8335  12.8335
    16.1619  16.1619  16.2119  16.2119  16.7520  16.7520  16.8023  16.8023
    17.1297  17.1297  17.2489  17.2492  17.2878

          k =-0.5000-0.4823-0.4999 ( 63024 PWs)   bands (ev):

   -66.3614 -66.3614 -66.3613 -66.3613 -66.3613 -66.3613 -66.3613 -66.3613
   -30.7040 -30.7040 -30.7040 -30.7040 -30.7032 -30.7032 -30.7032 -30.7032
   -30.6628 -30.6628 -30.6628 -30.6628 -30.6615 -30.6614 -30.6614 -30.6614
   -30.6535 -30.6535 -30.6535 -30.6535 -30.6521 -30.6521 -30.6521 -30.6521
   -20.5237 -20.5237 -20.5237 -20.5237 -20.5237 -20.5237 -20.5237 -20.5237
   -20.5054 -20.5053 -20.5053 -20.5053 -20.5053 -20.5052 -20.5052 -20.5052
   -20.5015 -20.5015 -20.5015 -20.5015 -20.5013 -20.5012 -20.5012 -20.5012
   -20.4988 -20.4987 -20.4987 -20.4987 -20.4986 -20.4986 -20.4986 -20.4986
   -20.4930 -20.4930 -20.4930 -20.4930 -20.4929 -20.4929 -20.4929 -20.4929
   -20.4899 -20.4899 -20.4899 -20.4899 -20.4898 -20.4898 -20.4898 -20.4898
   -20.4860 -20.4860 -20.4860 -20.4860 -20.4860 -20.4860 -20.4860 -20.4860
    -9.1497  -9.1497  -9.1496  -9.1496  -9.1368  -9.1368  -9.1368  -9.1368
    -8.5940  -8.5940  -8.5940  -8.5940  -8.5846  -8.5846  -8.5846  -8.5846
    -8.5267  -8.5266  -8.5266  -8.5266  -8.5062  -8.5062  -8.5062  -8.5062
     2.7181   2.7181   2.7181   2.7181   2.7877   2.7877   2.7877   2.7877
     2.8468   2.8468   2.8469   2.8469   2.9360   2.9360   2.9360   2.9360
     3.1814   3.1814   3.1814   3.1814   3.2685   3.2685   3.2685   3.2685
     3.9679   3.9679   3.9679   3.9679   4.0025   4.0025   4.0025   4.0025
     4.1715   4.1715   4.1715   4.1715   4.1938   4.1938   4.1938   4.1938
     4.2990   4.2990   4.2990   4.2990   4.3324   4.3324   4.3324   4.3324
     7.0112   7.0112   7.0112   7.0112   7.1137   7.1138   7.1138   7.1138
     7.1571   7.1571   7.1572   7.1572   7.1888   7.1888   7.1888   7.1888
     7.4317   7.4317   7.4317   7.4317   7.4656   7.4656   7.4656   7.4656
    11.6354  11.6354  11.6354  11.6354  11.6585  11.6585  11.6586  11.6586
    12.0382  12.0382  12.0382  12.0382  12.1432  12.1432  12.1432  12.1432
    12.2567  12.2567  12.2567  12.2567  12.3177  12.3177  12.3177  12.3177
    16.8290  16.8291  16.8291  16.8291  16.8954  16.8954  16.8954  16.8954
    17.2786  17.2786  17.2786  17.2786  17.3162

     the Fermi energy is     8.9683 ev

!    total energy              =   -6261.02189872 Ry
     Harris-Foulkes estimate   =   -6261.02189872 Ry
     estimated scf accuracy    <          6.7E-10 Ry

     The total energy is the sum of the following terms:

     one-electron contribution =   -4775.15144701 Ry
     hartree contribution      =    2621.87674165 Ry
     xc contribution           =    -965.80631484 Ry
     ewald contribution        =   -3141.94086898 Ry
     smearing contrib. (-TS)   =      -0.00000954 Ry

     convergence has been achieved in  13 iterations

     Writing output data file chempot_1.save/
 
     init_run     :     44.96s CPU     46.86s WALL (       1 calls)
     electrons    :   1906.83s CPU   1932.73s WALL (       1 calls)

     Called by init_run:
     wfcinit      :     41.57s CPU     43.30s WALL (       1 calls)
     potinit      :      1.35s CPU      1.39s WALL (       1 calls)
     hinit0       :      1.84s CPU      1.91s WALL (       1 calls)

     Called by electrons:
     c_bands      :   1664.27s CPU   1687.90s WALL (      13 calls)
     sum_band     :    233.93s CPU    235.26s WALL (      13 calls)
     v_of_rho     :      2.13s CPU      2.20s WALL (      14 calls)
     mix_rho      :      3.93s CPU      4.60s WALL (      13 calls)

     Called by c_bands:
     init_us_2    :     15.82s CPU     16.72s WALL (      54 calls)
     cegterg      :   1335.68s CPU   1357.45s WALL (      26 calls)

     Called by sum_band:

     Called by *egterg:
     h_psi        :   1048.02s CPU   1058.68s WALL (     121 calls)
     g_psi        :      4.23s CPU      4.26s WALL (      93 calls)
     cdiaghg      :     16.15s CPU     16.23s WALL (     119 calls)

     Called by h_psi:
     h_psi:pot    :   1044.92s CPU   1049.10s WALL (     121 calls)
     h_psi:calbec :    125.19s CPU    127.70s WALL (     121 calls)
     vloc_psi     :    787.05s CPU    788.05s WALL (     121 calls)
     add_vuspsi   :    132.68s CPU    133.35s WALL (     121 calls)

     General routines
     calbec       :    125.19s CPU    127.70s WALL (     121 calls)
     fft          :      0.92s CPU      0.94s WALL (      42 calls)
     ffts         :      0.28s CPU      0.28s WALL (      13 calls)
     fftw         :    781.88s CPU    782.36s WALL (   33774 calls)
 
     Parallel routines
 
     PWSCF        :  32m36.46s CPU  33m 7.98s WALL

 
   This run was terminated on:  18:45: 6  16Dec2019            

=------------------------------------------------------------------------------=
   JOB DONE.
=------------------------------------------------------------------------------=
