
     Program PWSCF v.6.2 (svn rev. 14038) starts on 13Sep2019 at 17:15:25 

     This program is part of the open-source Quantum ESPRESSO suite
     for quantum simulation of materials; please cite
         "P. Giannozzi et al., J. Phys.:Condens. Matter 21 395502 (2009);
         "P. Giannozzi et al., J. Phys.:Condens. Matter 29 465901 (2017);
          URL http://www.quantum-espresso.org", 
     in publications or presentations arising from this work. More details at
     http://www.quantum-espresso.org/quote

     Parallel version (MPI), running on    40 processors

     MPI processes distributed on     9 nodes
     K-points division:     npool     =      40
     Reading input from scf.in

     Current dimensions of program PWSCF are:
     Max number of different atomic species (ntypx) = 10
     Max number of k-points (npk) =  40000
     Max angular momentum in pseudopotentials (lmaxx) =  3

     Subspace diagonalization in iterative solution of the eigenvalue problem:
     a serial algorithm will be used

 
     G-vector sticks info
     --------------------
     sticks:   dense  smooth     PW     G-vecs:    dense   smooth      PW
     Sum        7731    7731   2077               497623   497623   68993
 


     bravais-lattice index     =            0
     lattice parameter (alat)  =      13.8415  a.u.
     unit-cell volume          =    2802.3234 (a.u.)^3
     number of atoms/cell      =           32
     number of atomic types    =            2
     number of electrons       =       368.20
     number of Kohn-Sham states=          221
     kinetic-energy cutoff     =     120.0000  Ry
     charge density cutoff     =     480.0000  Ry
     convergence threshold     =      1.0E-08
     mixing beta               =       0.7000
     number of iterations used =            8  plain     mixing
     Exchange-correlation      = SLA PW NOGX NOGC ( 1  4  0  0 0 0)

     celldm(1)=  13.841495  celldm(2)=   0.000000  celldm(3)=   0.000000
     celldm(4)=   0.000000  celldm(5)=   0.000000  celldm(6)=   0.000000

     crystal axes: (cart. coord. in units of alat)
               a(1) = (   1.000000   0.000000   0.000000 )  
               a(2) = (   0.000000   1.056743   0.000000 )  
               a(3) = (   0.000000   0.000000   1.000000 )  

     reciprocal axes: (cart. coord. in units 2 pi/alat)
               b(1) = (  1.000000  0.000000  0.000000 )  
               b(2) = (  0.000000  0.946304  0.000000 )  
               b(3) = (  0.000000  0.000000  1.000000 )  


     PseudoPot. # 1 for W  read from file:
     /cluster/scratch/mnoe/QE/pps/W_ONCV_LDA-4.0.upf
     MD5 check sum: ba0307d5d4cd419d6f1d13dc49d7c13a
     Pseudo is Norm-conserving + core correction, Zval = 28.0
     Generated using ONCVPSP code by D. R. Hamann
     Using radial grid of 1380 points,  8 beta functions with: 
                l(1) =   0
                l(2) =   0
                l(3) =   1
                l(4) =   1
                l(5) =   2
                l(6) =   2
                l(7) =   3
                l(8) =   3

     PseudoPot. # 2 for O  read from file:
     /cluster/scratch/mnoe/QE/pps/O_ONCV_LDA-3.0.upf
     MD5 check sum: ca1549d10c4e927e51167f6fca52ae32
     Pseudo is Norm-conserving + core correction, Zval =  6.0
     Generated using ONCVPSP code by D. R. Hamann
     Using radial grid of  926 points,  5 beta functions with: 
                l(1) =   0
                l(2) =   0
                l(3) =   1
                l(4) =   1
                l(5) =   2

     atomic species   valence    mass     pseudopotential
        W             28.00   183.84000     W ( 1.00)
        O              6.00    15.99940     O ( 1.00)

      8 Sym. Ops. (no inversion) found ( 4 have fractional translation)



   Cartesian axes

     site n.     atom                  positions (alat units)
         1           W   tau(   1) = (   0.2563000   0.2978535   0.2501800  )
         2           W   tau(   2) = (  -0.2501800   0.7588892  -0.7437000  )
         3           W   tau(   3) = (   0.2437000   0.2305179   0.7501800  )
         4           W   tau(   4) = (   0.7501800   0.8262248   0.7563000  )
         5           W   tau(   5) = (   0.7437000   0.2978535   0.7498200  )
         6           W   tau(   6) = (   0.2501800   0.7588892   0.7437000  )
         7           W   tau(   7) = (  -0.2437000   0.2305179  -0.7501800  )
         8           W   tau(   8) = (   0.2498200   0.8262248   0.2437000  )
         9           O   tau(   9) = (   0.2569200   0.0087921   0.2550200  )
        10           O   tau(  10) = (  -0.2550200   1.0479507  -0.7430800  )
        11           O   tau(  11) = (   0.2430800   0.5195793   0.7550200  )
        12           O   tau(  12) = (   0.7550200   0.5371634   0.7569200  )
        13           O   tau(  13) = (   0.7430800   0.0087921   0.7449800  )
        14           O   tau(  14) = (   0.2550200   1.0479507   0.7430800  )
        15           O   tau(  15) = (  -0.2430800   0.5195793  -0.7550200  )
        16           O   tau(  16) = (   0.2449800   0.5371634   0.2430800  )
        17           O   tau(  17) = (   0.4977800   0.2720795   0.6995400  )
        18           O   tau(  18) = (   0.4995400   0.7874952   0.8004600  )
        19           O   tau(  19) = (  -0.9977801   0.2562918   1.1995400  )
        20           O   tau(  20) = (   0.0004599   0.7976187   0.3004600  )
        21           O   tau(  21) = (   0.5022200   0.2720795   0.3004600  )
        22           O   tau(  22) = (   0.5004600   0.7874952   1.1995400  )
        23           O   tau(  23) = (  -0.0022200   0.2562918   0.8004600  )
        24           O   tau(  24) = (  -1.0004600   0.7976187   0.6995400  )
        25           O   tau(  25) = (   0.6995400   0.2591239   2.0004600  )
        26           O   tau(  26) = (   0.3004600   0.7846631   0.4977800  )
        27           O   tau(  27) = (   0.8004600   0.2692475   0.5004599  )
        28           O   tau(  28) = (   0.1995400   0.8004509   1.9977800  )
        29           O   tau(  29) = (   0.3004600   0.2591239   0.9995400  )
        30           O   tau(  30) = (   0.6995400   0.7846631   0.5022199  )
        31           O   tau(  31) = (   0.1995400   0.2692475   0.4995400  )
        32           O   tau(  32) = (   0.8004600   0.8004509   1.0022200  )

     number of k points=    40  gaussian smearing, width (Ry)=  0.0007
                       cart. coord. in units 2pi/alat
        k(    1) = (   0.0000000   0.0000000   0.0000000), wk =   0.0092593
        k(    2) = (   0.0000000   0.0000000   0.1666667), wk =   0.0370370
        k(    3) = (   0.0000000   0.0000000   0.3333333), wk =   0.0370370
        k(    4) = (   0.0000000   0.0000000  -0.5000000), wk =   0.0185185
        k(    5) = (   0.0000000   0.1577174   0.0000000), wk =   0.0185185
        k(    6) = (   0.0000000   0.1577174   0.1666667), wk =   0.0740741
        k(    7) = (   0.0000000   0.1577174   0.3333333), wk =   0.0740741
        k(    8) = (   0.0000000   0.1577174  -0.5000000), wk =   0.0370370
        k(    9) = (   0.0000000   0.3154347   0.0000000), wk =   0.0185185
        k(   10) = (   0.0000000   0.3154347   0.1666667), wk =   0.0740741
        k(   11) = (   0.0000000   0.3154347   0.3333333), wk =   0.0740741
        k(   12) = (   0.0000000   0.3154347  -0.5000000), wk =   0.0370370
        k(   13) = (   0.0000000  -0.4731521   0.0000000), wk =   0.0092593
        k(   14) = (   0.0000000  -0.4731521   0.1666667), wk =   0.0370370
        k(   15) = (   0.0000000  -0.4731521   0.3333333), wk =   0.0370370
        k(   16) = (   0.0000000  -0.4731521  -0.5000000), wk =   0.0185185
        k(   17) = (   0.1666667   0.0000000   0.1666667), wk =   0.0370370
        k(   18) = (   0.1666667   0.0000000   0.3333333), wk =   0.0740741
        k(   19) = (   0.1666667   0.0000000  -0.5000000), wk =   0.0370370
        k(   20) = (   0.1666667   0.1577174   0.1666667), wk =   0.0740741
        k(   21) = (   0.1666667   0.1577174   0.3333333), wk =   0.1481481
        k(   22) = (   0.1666667   0.1577174  -0.5000000), wk =   0.0740741
        k(   23) = (   0.1666667   0.3154347   0.1666667), wk =   0.0740741
        k(   24) = (   0.1666667   0.3154347   0.3333333), wk =   0.1481481
        k(   25) = (   0.1666667   0.3154347  -0.5000000), wk =   0.0740741
        k(   26) = (   0.1666667  -0.4731521   0.1666667), wk =   0.0370370
        k(   27) = (   0.1666667  -0.4731521   0.3333333), wk =   0.0740741
        k(   28) = (   0.1666667  -0.4731521  -0.5000000), wk =   0.0370370
        k(   29) = (   0.3333333   0.0000000   0.3333333), wk =   0.0370370
        k(   30) = (   0.3333333   0.0000000  -0.5000000), wk =   0.0370370
        k(   31) = (   0.3333333   0.1577174   0.3333333), wk =   0.0740741
        k(   32) = (   0.3333333   0.1577174  -0.5000000), wk =   0.0740741
        k(   33) = (   0.3333333   0.3154347   0.3333333), wk =   0.0740741
        k(   34) = (   0.3333333   0.3154347  -0.5000000), wk =   0.0740741
        k(   35) = (   0.3333333  -0.4731521   0.3333333), wk =   0.0370370
        k(   36) = (   0.3333333  -0.4731521  -0.5000000), wk =   0.0370370
        k(   37) = (  -0.5000000   0.0000000  -0.5000000), wk =   0.0092593
        k(   38) = (  -0.5000000   0.1577174  -0.5000000), wk =   0.0185185
        k(   39) = (  -0.5000000   0.3154347  -0.5000000), wk =   0.0185185
        k(   40) = (  -0.5000000  -0.4731521  -0.5000000), wk =   0.0092593

     Dense  grid:   497623 G-vectors     FFT dimensions: ( 100, 108, 100)

     Estimated max dynamical RAM per process >       2.71 GB

     Estimated total dynamical RAM >     108.58 GB

     Initial potential from superposition of free atoms

     starting charge  367.99656, renormalised to  368.20000
     Starting wfc are  232 randomized atomic wfcs

     total cpu time spent up to now is       23.7 secs

     Self-consistent Calculation

     iteration #  1     ecut=   120.00 Ry     beta= 0.70
     Davidson diagonalization with overlap
     ethr =  1.00E-02,  avg # of iterations =  5.0

     total cpu time spent up to now is      103.7 secs

     total energy              =   -6253.80838315 Ry
     Harris-Foulkes estimate   =   -6264.47671758 Ry
     estimated scf accuracy    <      13.48551025 Ry

     iteration #  2     ecut=   120.00 Ry     beta= 0.70
     Davidson diagonalization with overlap
     ethr =  3.66E-03,  avg # of iterations =  3.5

     total cpu time spent up to now is      181.9 secs

     total energy              =   -6250.68336100 Ry
     Harris-Foulkes estimate   =   -6270.64839247 Ry
     estimated scf accuracy    <      53.51325930 Ry

     iteration #  3     ecut=   120.00 Ry     beta= 0.70
     Davidson diagonalization with overlap
     ethr =  3.66E-03,  avg # of iterations =  3.3

     total cpu time spent up to now is      254.0 secs

     total energy              =   -6260.95160856 Ry
     Harris-Foulkes estimate   =   -6261.23779235 Ry
     estimated scf accuracy    <       0.94081357 Ry

     iteration #  4     ecut=   120.00 Ry     beta= 0.70
     Davidson diagonalization with overlap
     ethr =  2.56E-04,  avg # of iterations =  3.1

     total cpu time spent up to now is      313.5 secs

     total energy              =   -6260.95672056 Ry
     Harris-Foulkes estimate   =   -6261.02715384 Ry
     estimated scf accuracy    <       0.23300918 Ry

     iteration #  5     ecut=   120.00 Ry     beta= 0.70
     Davidson diagonalization with overlap
     ethr =  6.33E-05,  avg # of iterations =  5.1

     total cpu time spent up to now is      378.0 secs

     total energy              =   -6260.95420037 Ry
     Harris-Foulkes estimate   =   -6260.98728704 Ry
     estimated scf accuracy    <       0.07273698 Ry

     iteration #  6     ecut=   120.00 Ry     beta= 0.70
     Davidson diagonalization with overlap
     ethr =  1.98E-05,  avg # of iterations =  5.0

     total cpu time spent up to now is      446.2 secs

     total energy              =   -6260.97024448 Ry
     Harris-Foulkes estimate   =   -6260.97252621 Ry
     estimated scf accuracy    <       0.00607393 Ry

     iteration #  7     ecut=   120.00 Ry     beta= 0.70
     Davidson diagonalization with overlap
     ethr =  1.65E-06,  avg # of iterations =  5.2

     total cpu time spent up to now is      508.2 secs

     total energy              =   -6260.97103150 Ry
     Harris-Foulkes estimate   =   -6260.97110929 Ry
     estimated scf accuracy    <       0.00015004 Ry

     iteration #  8     ecut=   120.00 Ry     beta= 0.70
     Davidson diagonalization with overlap
     ethr =  4.08E-08,  avg # of iterations =  3.0

     total cpu time spent up to now is      584.6 secs

     total energy              =   -6260.97109216 Ry
     Harris-Foulkes estimate   =   -6260.97109789 Ry
     estimated scf accuracy    <       0.00002718 Ry

     iteration #  9     ecut=   120.00 Ry     beta= 0.70
     Davidson diagonalization with overlap
     ethr =  7.38E-09,  avg # of iterations =  2.0

     total cpu time spent up to now is      641.7 secs

     total energy              =   -6260.97108852 Ry
     Harris-Foulkes estimate   =   -6260.97109390 Ry
     estimated scf accuracy    <       0.00001359 Ry

     iteration # 10     ecut=   120.00 Ry     beta= 0.70
     Davidson diagonalization with overlap
     ethr =  3.69E-09,  avg # of iterations =  2.0

     total cpu time spent up to now is      699.1 secs

     total energy              =   -6260.97109081 Ry
     Harris-Foulkes estimate   =   -6260.97109089 Ry
     estimated scf accuracy    <       0.00000018 Ry

     iteration # 11     ecut=   120.00 Ry     beta= 0.70
     Davidson diagonalization with overlap
     ethr =  4.91E-11,  avg # of iterations =  2.8

     total cpu time spent up to now is      773.7 secs

     total energy              =   -6260.97109086 Ry
     Harris-Foulkes estimate   =   -6260.97109088 Ry
     estimated scf accuracy    <       0.00000006 Ry

     iteration # 12     ecut=   120.00 Ry     beta= 0.70
     Davidson diagonalization with overlap
     ethr =  1.66E-11,  avg # of iterations =  1.6

     total cpu time spent up to now is      828.1 secs

     total energy              =   -6260.97109085 Ry
     Harris-Foulkes estimate   =   -6260.97109087 Ry
     estimated scf accuracy    <       0.00000003 Ry

     iteration # 13     ecut=   120.00 Ry     beta= 0.70
     Davidson diagonalization with overlap
     ethr =  6.86E-12,  avg # of iterations =  2.0

     total cpu time spent up to now is      895.2 secs

     End of self-consistent calculation

          k = 0.0000 0.0000 0.0000 ( 62199 PWs)   bands (ev):

   -66.1084 -66.1080 -66.1074 -66.1074 -66.1070 -66.1070 -66.1064 -66.1060
   -30.5201 -30.5163 -30.5163 -30.5126 -30.4681 -30.4613 -30.4612 -30.4560
   -30.4541 -30.4484 -30.4465 -30.4465 -30.4459 -30.4455 -30.4409 -30.4409
   -30.3553 -30.3553 -30.3521 -30.3505 -30.3467 -30.3467 -30.3427 -30.3416
   -20.2642 -20.2641 -20.2640 -20.2640 -20.2639 -20.2639 -20.2639 -20.2638
   -20.2534 -20.2532 -20.2531 -20.2529 -20.2481 -20.2478 -20.2477 -20.2474
   -20.2444 -20.2442 -20.2438 -20.2438 -20.2437 -20.2436 -20.2429 -20.2428
   -20.2428 -20.2424 -20.2418 -20.2417 -20.2414 -20.2414 -20.2410 -20.2407
   -20.2342 -20.2339 -20.2334 -20.2333 -20.2328 -20.2328 -20.2322 -20.2320
   -20.2277 -20.2276 -20.2268 -20.2267 -20.2261 -20.2261 -20.2258 -20.2258
   -20.2206 -20.2206 -20.2198 -20.2198 -20.2195 -20.2194 -20.2188 -20.2187
    -9.9252  -9.6428  -9.4833  -9.4833  -9.2081  -9.2081  -9.0554  -9.0177
    -9.0055  -8.8544  -8.8250  -8.8250  -7.8420  -7.7766  -7.7765  -7.7565
    -7.7552  -7.7311  -7.7233  -7.7228  -7.6030  -7.6030  -7.5757  -7.5757
     1.2349   1.2353   1.3113   1.3113   1.3346   1.3346   1.4000   1.6551
     1.6551   1.6570   1.6782   1.8903   2.4169   2.4924   2.5933   2.6035
     2.7483   2.7483   4.1605   4.1605   4.3874   4.3882   4.8305   4.8576
     4.8704   4.8704   4.8967   4.8967   5.0623   5.0623   5.1093   5.4582
     5.4583   5.5366   5.5366   5.5573   5.5573   5.6208   5.6208   5.8354
     5.8354   5.8988   5.9006   5.9470   5.9824   6.0478   6.0544   6.1380
     6.1391   6.2668   6.2687   6.5907   6.5907   6.8274   6.8274   6.8562
     6.8579   6.8895   7.0292   7.0348   7.1009   7.1009   7.4019   7.4019
     7.4565   7.4565   7.8007   7.8149   8.0898   8.0898   8.1497   8.1652
     9.3214   9.3252  10.0345  10.0383  10.0730  10.0730  12.2734  12.2735
    12.3189  12.3189  12.3702  12.3702  12.5354  12.5551  12.8481  12.8897
    13.2512  13.2938  13.4273  13.4273  13.7874  14.1347  14.1347  14.1767
    14.2259  14.4356  14.4356  14.9176  15.4574  15.4698  15.5036  16.0808
    16.0808  16.8339  17.0733  17.0733  17.5006

          k = 0.0000 0.0000 0.1667 ( 62186 PWs)   bands (ev):

   -66.1083 -66.1079 -66.1074 -66.1073 -66.1070 -66.1069 -66.1064 -66.1060
   -30.5200 -30.5166 -30.5162 -30.5129 -30.4671 -30.4616 -30.4603 -30.4545
   -30.4532 -30.4468 -30.4460 -30.4440 -30.4413 -30.4410 -30.4391 -30.4342
   -30.3620 -30.3579 -30.3550 -30.3538 -30.3514 -30.3484 -30.3464 -30.3425
   -20.2641 -20.2641 -20.2640 -20.2640 -20.2640 -20.2639 -20.2639 -20.2638
   -20.2534 -20.2532 -20.2531 -20.2529 -20.2481 -20.2478 -20.2477 -20.2474
   -20.2443 -20.2442 -20.2439 -20.2438 -20.2437 -20.2436 -20.2430 -20.2428
   -20.2427 -20.2423 -20.2418 -20.2417 -20.2415 -20.2414 -20.2410 -20.2407
   -20.2341 -20.2339 -20.2334 -20.2333 -20.2329 -20.2328 -20.2323 -20.2321
   -20.2275 -20.2273 -20.2266 -20.2264 -20.2262 -20.2259 -20.2257 -20.2254
   -20.2211 -20.2206 -20.2203 -20.2199 -20.2197 -20.2195 -20.2192 -20.2188
    -9.8784  -9.5891  -9.5004  -9.4225  -9.2228  -9.1188  -9.0640  -8.9790
    -8.9638  -8.8422  -8.8296  -8.7942  -7.8860  -7.8565  -7.8333  -7.7803
    -7.7739  -7.7455  -7.7281  -7.7263  -7.7174  -7.7061  -7.6129  -7.5854
     1.3093   1.3140   1.3267   1.3407   1.4655   1.4974   1.5892   1.6479
     1.6496   1.7285   1.8493   2.0111   2.5039   2.5838   2.6075   2.6873
     2.7397   2.8371   4.0978   4.1594   4.3758   4.3933   4.4081   4.5009
     4.6853   4.8109   4.8384   4.9331   4.9416   5.0496   5.0895   5.3172
     5.3781   5.4426   5.5250   5.5488   5.5803   5.6312   5.6513   5.6588
     5.7557   5.7776   5.8244   5.9423   6.0000   6.1050   6.1361   6.1417
     6.2951   6.4167   6.5015   6.5776   6.6940   6.7208   6.7958   6.8442
     6.8485   6.8864   6.9895   7.0181   7.0458   7.1076   7.1871   7.2017
     7.2242   7.2948   7.8210   7.8236   8.0493   8.1051   8.1142   8.1599
     9.6620   9.6936  10.0394  10.0704  10.2941  10.3510  12.2062  12.2516
    12.3068  12.3265  12.3655  12.4176  12.5473  12.6403  12.8907  12.9082
    13.0929  13.2578  13.3207  13.4279  13.8853  14.0336  14.0729  14.1330
    14.2143  14.4297  14.5302  15.0283  15.4688  15.4888  15.5178  16.0525
    16.3866  16.8128  17.0023  17.2600  17.5498

          k = 0.0000 0.0000 0.3333 ( 62188 PWs)   bands (ev):

   -66.1081 -66.1077 -66.1076 -66.1072 -66.1071 -66.1067 -66.1066 -66.1062
   -30.5195 -30.5174 -30.5157 -30.5137 -30.4654 -30.4625 -30.4585 -30.4554
   -30.4509 -30.4478 -30.4449 -30.4422 -30.4284 -30.4241 -30.4212 -30.4161
   -30.3800 -30.3758 -30.3718 -30.3671 -30.3542 -30.3519 -30.3456 -30.3434
   -20.2641 -20.2641 -20.2640 -20.2640 -20.2640 -20.2639 -20.2639 -20.2639
   -20.2534 -20.2533 -20.2531 -20.2530 -20.2480 -20.2479 -20.2477 -20.2475
   -20.2442 -20.2441 -20.2439 -20.2438 -20.2436 -20.2434 -20.2431 -20.2430
   -20.2425 -20.2421 -20.2420 -20.2416 -20.2415 -20.2412 -20.2412 -20.2408
   -20.2339 -20.2337 -20.2335 -20.2331 -20.2330 -20.2327 -20.2325 -20.2323
   -20.2272 -20.2267 -20.2265 -20.2261 -20.2258 -20.2252 -20.2245 -20.2241
   -20.2224 -20.2217 -20.2212 -20.2206 -20.2203 -20.2198 -20.2195 -20.2190
    -9.7649  -9.5528  -9.4645  -9.2815  -9.2675  -9.0936  -8.8990  -8.8642
    -8.8425  -8.8177  -8.7591  -8.6744  -8.1838  -8.1645  -8.0723  -8.0468
    -7.8155  -7.7906  -7.7601  -7.7356  -7.7158  -7.6881  -7.6399  -7.6123
     1.3211   1.3330   1.3570   1.3817   1.5857   1.5964   1.6322   1.6354
     2.2761   2.3119   2.4859   2.5649   2.6329   2.7292   2.7556   2.8509
     2.9285   3.0728   3.7789   3.8583   3.8744   3.9717   4.2022   4.2928
     4.3303   4.5383   4.5637   4.8040   4.8141   4.8452   4.9764   5.0279
     5.1868   5.2140   5.2489   5.3679   5.4836   5.4998   5.6494   5.6869
     5.7320   5.7745   5.8034   6.0040   6.0239   6.1810   6.2552   6.2966
     6.3607   6.4123   6.5457   6.5581   6.5905   6.6042   6.6688   6.7638
     6.8406   6.8650   6.8668   7.0148   7.0517   7.0625   7.1053   7.1450
     7.3444   7.3771   7.7656   7.7855   7.9245   7.9802   8.1408   8.1606
    10.0373  10.0625  10.3755  10.4522  10.8988  11.0166  11.8386  11.8903
    12.1000  12.4715  12.4960  12.5239  12.5681  12.6288  12.7199  12.9003
    12.9072  13.1136  13.1977  13.4368  13.7065  13.7261  14.0919  14.1283
    14.2779  14.4105  14.8306  15.3117  15.3568  15.6306  15.8968  15.9662
    16.2813  17.2221  17.3947  17.5374  17.8256

          k = 0.0000 0.0000-0.5000 ( 62224 PWs)   bands (ev):

   -66.1079 -66.1079 -66.1075 -66.1075 -66.1069 -66.1069 -66.1065 -66.1065
   -30.5185 -30.5185 -30.5148 -30.5148 -30.4639 -30.4639 -30.4568 -30.4568
   -30.4493 -30.4492 -30.4436 -30.4435 -30.4045 -30.4045 -30.4001 -30.4001
   -30.3965 -30.3965 -30.3916 -30.3916 -30.3531 -30.3531 -30.3445 -30.3445
   -20.2641 -20.2641 -20.2640 -20.2640 -20.2640 -20.2640 -20.2639 -20.2639
   -20.2533 -20.2533 -20.2531 -20.2531 -20.2480 -20.2480 -20.2477 -20.2477
   -20.2441 -20.2441 -20.2439 -20.2439 -20.2434 -20.2433 -20.2432 -20.2432
   -20.2422 -20.2422 -20.2419 -20.2418 -20.2414 -20.2413 -20.2410 -20.2410
   -20.2337 -20.2337 -20.2334 -20.2334 -20.2328 -20.2327 -20.2325 -20.2325
   -20.2268 -20.2268 -20.2264 -20.2264 -20.2241 -20.2241 -20.2234 -20.2234
   -20.2229 -20.2229 -20.2224 -20.2223 -20.2201 -20.2200 -20.2193 -20.2193
    -9.6432  -9.6432  -9.3463  -9.3462  -9.1588  -9.1588  -8.8623  -8.8623
    -8.5396  -8.5395  -8.5097  -8.5097  -8.4871  -8.4871  -8.4117  -8.4117
    -7.8042  -7.8042  -7.7481  -7.7481  -7.6775  -7.6775  -7.6498  -7.6498
     1.3292   1.3292   1.3762   1.3762   1.6153   1.6153   1.6211   1.6211
     2.6654   2.6654   2.9909   2.9909   3.1310   3.1310   3.1669   3.1669
     3.2966   3.2966   3.3607   3.3607   3.4932   3.4932   3.7982   3.7982
     3.9128   3.9128   4.4657   4.4657   4.7553   4.7553   4.9334   4.9334
     5.2634   5.2634   5.3552   5.3552   5.3743   5.3743   5.6929   5.6929
     5.7636   5.7636   5.9570   5.9570   6.1875   6.1875   6.2798   6.2798
     6.3392   6.3392   6.4753   6.4753   6.5000   6.5000   6.5523   6.5523
     6.8032   6.8032   6.8427   6.8428   7.0839   7.0839   7.5035   7.5035
     7.5636   7.5636   7.7055   7.7055   7.7320   7.7320   8.1575   8.1575
    10.0506  10.0506  11.1644  11.1645  11.2400  11.2400  11.5812  11.5812
    11.8064  11.8064  12.5818  12.5818  12.6883  12.6883  12.8057  12.8057
    12.9531  12.9532  13.2920  13.2920  13.4923  13.4923  14.1205  14.1205
    14.3687  14.3687  15.1463  15.1464  15.7369  15.7369  15.8236  15.8236
    16.6522  16.6522  17.8528  17.8528  18.1719

          k = 0.0000 0.1577 0.0000 ( 62171 PWs)   bands (ev):

   -66.1084 -66.1080 -66.1074 -66.1073 -66.1070 -66.1070 -66.1063 -66.1060
   -30.5163 -30.5124 -30.5124 -30.5087 -30.4705 -30.4642 -30.4641 -30.4581
   -30.4557 -30.4490 -30.4472 -30.4472 -30.4466 -30.4461 -30.4412 -30.4412
   -30.3553 -30.3553 -30.3519 -30.3506 -30.3467 -30.3467 -30.3427 -30.3417
   -20.2641 -20.2641 -20.2640 -20.2640 -20.2639 -20.2639 -20.2639 -20.2638
   -20.2531 -20.2528 -20.2528 -20.2525 -20.2484 -20.2481 -20.2481 -20.2478
   -20.2443 -20.2442 -20.2438 -20.2438 -20.2436 -20.2436 -20.2429 -20.2428
   -20.2428 -20.2425 -20.2418 -20.2418 -20.2415 -20.2414 -20.2410 -20.2407
   -20.2342 -20.2339 -20.2333 -20.2333 -20.2329 -20.2328 -20.2322 -20.2320
   -20.2277 -20.2276 -20.2268 -20.2267 -20.2261 -20.2261 -20.2258 -20.2258
   -20.2206 -20.2206 -20.2198 -20.2198 -20.2195 -20.2194 -20.2188 -20.2187
    -9.8965  -9.6542  -9.4471  -9.4471  -9.2155  -9.2155  -9.0169  -9.0062
    -8.9817  -8.8079  -8.7863  -8.7863  -7.9334  -7.8758  -7.8758  -7.8295
    -7.7588  -7.7540  -7.7323  -7.7250  -7.6025  -7.6025  -7.5768  -7.5768
     1.2349   1.2353   1.3191   1.3191   1.3359   1.3359   1.5293   1.6774
     1.8345   1.8870   1.8870   2.0634   2.4219   2.4872   2.6648   2.6758
     2.8162   2.8162   4.0295   4.0295   4.1209   4.1212   4.7897   4.8704
     4.8705   4.8894   4.8894   4.9191   4.9717   5.0104   5.0104   5.3106
     5.3106   5.4879   5.4879   5.6196   5.6476   5.6476   5.6552   5.6788
     5.8262   5.8275   5.8987   5.8987   5.9860   6.0554   6.0602   6.1404
     6.1436   6.2612   6.2632   6.6131   6.6131   6.8365   6.8623   6.8623
     6.8906   6.8998   6.9102   7.0229   7.0237   7.0237   7.4093   7.4093
     7.4571   7.4571   7.8054   7.8142   8.0500   8.0500   8.0727   8.0836
     9.3220   9.3260  10.2334  10.2341  10.2413  10.2413  12.1947  12.1947
    12.3000  12.3000  12.3599  12.3599  12.3810  12.3978  12.8532  12.8891
    13.2866  13.3242  13.4315  13.4315  13.9988  14.0720  14.0721  14.0803
    14.2434  14.6826  14.6826  15.0842  15.4575  15.4678  15.9051  16.0473
    16.0473  16.5347  17.2068  17.2068  17.5354

          k = 0.0000 0.1577 0.1667 ( 62191 PWs)   bands (ev):

   -66.1083 -66.1079 -66.1074 -66.1073 -66.1071 -66.1069 -66.1064 -66.1061
   -30.5161 -30.5127 -30.5123 -30.5090 -30.4697 -30.4645 -30.4635 -30.4584
   -30.4533 -30.4476 -30.4462 -30.4449 -30.4416 -30.4414 -30.4395 -30.4344
   -30.3619 -30.3579 -30.3550 -30.3539 -30.3515 -30.3484 -30.3464 -30.3425
   -20.2641 -20.2641 -20.2640 -20.2640 -20.2640 -20.2639 -20.2639 -20.2638
   -20.2531 -20.2528 -20.2528 -20.2526 -20.2484 -20.2481 -20.2481 -20.2478
   -20.2443 -20.2441 -20.2438 -20.2437 -20.2437 -20.2436 -20.2430 -20.2428
   -20.2427 -20.2424 -20.2418 -20.2417 -20.2415 -20.2414 -20.2410 -20.2407
   -20.2341 -20.2339 -20.2334 -20.2333 -20.2329 -20.2328 -20.2322 -20.2321
   -20.2275 -20.2273 -20.2266 -20.2264 -20.2262 -20.2259 -20.2257 -20.2254
   -20.2211 -20.2206 -20.2203 -20.2199 -20.2197 -20.2195 -20.2192 -20.2188
    -9.8486  -9.6005  -9.4644  -9.3818  -9.2304  -9.1263  -8.9904  -8.9774
    -8.9646  -8.7977  -8.7909  -8.7600  -7.9360  -7.8960  -7.8754  -7.8718
    -7.8381  -7.8371  -7.7464  -7.7300  -7.7187  -7.7044  -7.6123  -7.5866
     1.3168   1.3238   1.3283   1.3422   1.5514   1.5896   1.6268   1.8433
     1.8481   1.8819   1.9081   2.1244   2.5098   2.5782   2.6791   2.7611
     2.8082   2.9048   3.9972   4.0428   4.1126   4.1568   4.4250   4.4983
     4.7107   4.7441   4.8253   4.9209   4.9241   4.9549   5.0185   5.2645
     5.2777   5.3338   5.3395   5.5094   5.6010   5.6046   5.6502   5.7085
     5.7587   5.7663   5.8372   5.8733   5.8879   6.1159   6.1316   6.1688
     6.2420   6.4071   6.4780   6.6014   6.7342   6.7885   6.8174   6.8328
     6.8737   6.9029   6.9737   6.9861   7.0276   7.0473   7.1876   7.2012
     7.2389   7.2955   7.8225   7.8238   8.0116   8.0408   8.0517   8.0805
     9.6678   9.6940  10.2346  10.2420  10.4600  10.4898  12.1680  12.2242
    12.2639  12.2797  12.3372  12.3705  12.3928  12.5128  12.8990  12.9081
    13.1251  13.2827  13.3302  13.4299  13.9223  13.9515  14.0550  14.0703
    14.3250  14.6770  14.8180  15.1810  15.4884  15.5176  15.8701  16.0203
    16.3510  16.6911  16.9399  17.3724  17.5997

          k = 0.0000 0.1577 0.3333 ( 62215 PWs)   bands (ev):

   -66.1081 -66.1078 -66.1076 -66.1073 -66.1071 -66.1067 -66.1066 -66.1062
   -30.5156 -30.5135 -30.5118 -30.5099 -30.4682 -30.4654 -30.4622 -30.4593
   -30.4514 -30.4486 -30.4452 -30.4425 -30.4286 -30.4242 -30.4213 -30.4163
   -30.3800 -30.3757 -30.3718 -30.3672 -30.3542 -30.3519 -30.3456 -30.3434
   -20.2641 -20.2640 -20.2640 -20.2640 -20.2640 -20.2639 -20.2639 -20.2639
   -20.2530 -20.2529 -20.2528 -20.2526 -20.2484 -20.2482 -20.2481 -20.2479
   -20.2442 -20.2440 -20.2439 -20.2438 -20.2435 -20.2434 -20.2431 -20.2430
   -20.2425 -20.2422 -20.2420 -20.2417 -20.2416 -20.2412 -20.2412 -20.2409
   -20.2339 -20.2337 -20.2335 -20.2331 -20.2330 -20.2327 -20.2324 -20.2323
   -20.2272 -20.2267 -20.2265 -20.2261 -20.2258 -20.2252 -20.2245 -20.2241
   -20.2224 -20.2217 -20.2212 -20.2206 -20.2203 -20.2198 -20.2195 -20.2190
    -9.7324  -9.5172  -9.4755  -9.2758  -9.2267  -9.0205  -8.8814  -8.8709
    -8.8191  -8.8039  -8.7346  -8.6544  -8.1867  -8.1660  -8.0864  -8.0469
    -7.9049  -7.8845  -7.8585  -7.8318  -7.7159  -7.6894  -7.6395  -7.6135
     1.3369   1.3581   1.3591   1.3835   1.7704   1.7958   1.8747   1.8805
     2.2750   2.3241   2.4882   2.5833   2.7039   2.7654   2.7886   2.8504
     3.0035   3.1336   3.7784   3.8534   3.8685   3.9209   4.1279   4.1574
     4.2597   4.3799   4.5807   4.7450   4.7749   4.8370   4.8477   4.8964
     5.0559   5.1684   5.1885   5.2125   5.3964   5.4456   5.5117   5.6352
     5.7113   5.7559   5.8079   5.8537   5.9824   6.1556   6.2161   6.2681
     6.3712   6.5560   6.5909   6.5927   6.6522   6.6867   6.7214   6.8136
     6.8340   6.8530   6.9391   6.9802   7.0244   7.0488   7.0894   7.1346
     7.3386   7.3718   7.7687   7.7833   7.8923   7.9237   8.0706   8.0825
    10.2272  10.2395  10.3849  10.4556  11.0132  11.1067  11.8399  11.8883
    12.0674  12.4016  12.4508  12.5027  12.5378  12.5748  12.6698  12.7893
    12.8995  13.1117  13.2156  13.4300  13.6113  13.6391  14.0595  14.0665
    14.5232  14.6589  15.1710  15.4372  15.6222  15.7586  15.9155  15.9384
    16.4090  17.1608  17.1807  17.4466  17.8068

          k = 0.0000 0.1577-0.5000 ( 62178 PWs)   bands (ev):

   -66.1079 -66.1078 -66.1075 -66.1075 -66.1069 -66.1068 -66.1065 -66.1065
   -30.5146 -30.5146 -30.5109 -30.5109 -30.4667 -30.4667 -30.4607 -30.4607
   -30.4500 -30.4499 -30.4439 -30.4438 -30.4045 -30.4045 -30.4001 -30.4001
   -30.3966 -30.3966 -30.3917 -30.3917 -30.3530 -30.3530 -30.3446 -30.3445
   -20.2641 -20.2641 -20.2640 -20.2640 -20.2640 -20.2639 -20.2639 -20.2639
   -20.2530 -20.2530 -20.2527 -20.2527 -20.2483 -20.2483 -20.2480 -20.2480
   -20.2440 -20.2440 -20.2439 -20.2439 -20.2433 -20.2433 -20.2432 -20.2432
   -20.2422 -20.2422 -20.2419 -20.2419 -20.2414 -20.2414 -20.2410 -20.2410
   -20.2337 -20.2337 -20.2334 -20.2334 -20.2327 -20.2327 -20.2325 -20.2325
   -20.2268 -20.2268 -20.2264 -20.2264 -20.2241 -20.2241 -20.2234 -20.2234
   -20.2229 -20.2229 -20.2224 -20.2223 -20.2201 -20.2200 -20.2193 -20.2193
    -9.6086  -9.6085  -9.3558  -9.3558  -9.0901  -9.0900  -8.8263  -8.8262
    -8.5424  -8.5424  -8.5060  -8.5060  -8.4951  -8.4951  -8.4056  -8.4056
    -7.8975  -7.8975  -7.8472  -7.8471  -7.6773  -7.6773  -7.6510  -7.6510
     1.3524   1.3524   1.3778   1.3778   1.7967   1.7967   1.8837   1.8837
     2.7335   2.7335   3.0073   3.0073   3.1238   3.1238   3.2096   3.2096
     3.3032   3.3032   3.3592   3.3592   3.4828   3.4828   3.7990   3.7990
     3.9621   3.9621   4.2715   4.2715   4.6628   4.6628   4.7702   4.7702
     5.0976   5.0976   5.3276   5.3277   5.3403   5.3403   5.5163   5.5163
     5.7208   5.7208   5.8325   5.8325   6.1869   6.1869   6.3376   6.3376
     6.3609   6.3609   6.4949   6.4949   6.5413   6.5413   6.6861   6.6861
     6.8659   6.8659   6.8700   6.8700   7.0049   7.0049   7.5128   7.5128
     7.5572   7.5572   7.6821   7.6821   7.7032   7.7032   8.0815   8.0815
    10.2376  10.2376  11.1702  11.1702  11.2376  11.2376  11.6458  11.6458
    11.8668  11.8668  12.4569  12.4569  12.6659  12.6659  12.8076  12.8076
    12.8973  12.8973  13.1923  13.1923  13.4583  13.4583  14.0623  14.0623
    14.6209  14.6209  15.5124  15.5124  15.7968  15.7968  15.8848  15.8848
    16.6919  16.6919  17.6565  17.6565  18.1543

          k = 0.0000 0.3154 0.0000 ( 62131 PWs)   bands (ev):

   -66.1083 -66.1081 -66.1073 -66.1073 -66.1071 -66.1071 -66.1063 -66.1061
   -30.5058 -30.5018 -30.5018 -30.4980 -30.4786 -30.4734 -30.4734 -30.4688
   -30.4549 -30.4514 -30.4483 -30.4483 -30.4471 -30.4465 -30.4416 -30.4416
   -30.3552 -30.3552 -30.3516 -30.3508 -30.3469 -30.3469 -30.3426 -30.3420
   -20.2641 -20.2641 -20.2640 -20.2640 -20.2640 -20.2639 -20.2639 -20.2638
   -20.2521 -20.2518 -20.2518 -20.2515 -20.2494 -20.2491 -20.2491 -20.2488
   -20.2442 -20.2441 -20.2437 -20.2437 -20.2436 -20.2436 -20.2428 -20.2428
   -20.2427 -20.2426 -20.2418 -20.2418 -20.2416 -20.2416 -20.2410 -20.2408
   -20.2341 -20.2340 -20.2333 -20.2333 -20.2329 -20.2329 -20.2321 -20.2321
   -20.2277 -20.2276 -20.2268 -20.2267 -20.2261 -20.2261 -20.2258 -20.2258
   -20.2206 -20.2206 -20.2198 -20.2198 -20.2195 -20.2194 -20.2188 -20.2187
    -9.8264  -9.6894  -9.3655  -9.3654  -9.2396  -9.2396  -9.0146  -9.0084
    -8.7735  -8.6636  -8.6559  -8.6559  -8.1733  -8.1263  -8.1263  -8.1005
    -7.7565  -7.7517  -7.7347  -7.7292  -7.6004  -7.6004  -7.5794  -7.5794
     1.2349   1.2351   1.3236   1.3236   1.3379   1.3379   1.6393   1.6744
     2.3930   2.4353   2.4730   2.5418   2.5419   2.7099   2.8748   2.8918
     3.0160   3.0160   3.6511   3.6555   3.6940   3.6940   4.1634   4.4897
     4.4897   4.7653   4.8754   4.8755   4.9027   4.9027   5.0705   5.0705
     5.0875   5.0930   5.3988   5.3988   5.6073   5.6093   5.6995   5.6995
     5.8682   5.8682   5.9102   5.9130   6.0533   6.0580   6.0922   6.1553
     6.1636   6.2364   6.2375   6.5439   6.6731   6.6731   6.8872   6.8872
     6.9325   7.0006   7.1045   7.1064   7.1283   7.1283   7.4186   7.4186
     7.4604   7.4605   7.8026   7.8084   7.8468   7.8493   7.8790   7.8790
     9.3233   9.3261  10.6919  10.6919  10.7320  10.7387  11.8285  11.8285
    11.9561  11.9695  12.3182  12.3182  12.3585  12.3585  12.8652  12.8857
    13.3981  13.4240  13.4895  13.4895  13.8408  13.8511  13.8682  13.8682
    14.7975  15.2405  15.2405  15.4580  15.4636  15.6835  15.9335  15.9335
    15.9769  16.8977  17.2696  17.6655  17.6655

          k = 0.0000 0.3154 0.1667 ( 62195 PWs)   bands (ev):

   -66.1082 -66.1080 -66.1073 -66.1072 -66.1071 -66.1070 -66.1063 -66.1061
   -30.5056 -30.5021 -30.5017 -30.4984 -30.4782 -30.4737 -30.4732 -30.4691
   -30.4533 -30.4486 -30.4472 -30.4457 -30.4420 -30.4419 -30.4399 -30.4347
   -30.3618 -30.3577 -30.3549 -30.3540 -30.3515 -30.3484 -30.3466 -30.3427
   -20.2641 -20.2641 -20.2640 -20.2640 -20.2640 -20.2639 -20.2639 -20.2639
   -20.2521 -20.2519 -20.2518 -20.2516 -20.2494 -20.2491 -20.2491 -20.2488
   -20.2442 -20.2441 -20.2437 -20.2436 -20.2436 -20.2435 -20.2429 -20.2428
   -20.2427 -20.2425 -20.2419 -20.2417 -20.2416 -20.2415 -20.2410 -20.2409
   -20.2340 -20.2339 -20.2334 -20.2333 -20.2329 -20.2328 -20.2322 -20.2321
   -20.2275 -20.2273 -20.2266 -20.2264 -20.2262 -20.2259 -20.2257 -20.2254
   -20.2211 -20.2206 -20.2203 -20.2199 -20.2198 -20.2195 -20.2192 -20.2188
    -9.7760  -9.6359  -9.3826  -9.2892  -9.2552  -9.1512  -8.9743  -8.9669
    -8.7819  -8.6607  -8.6573  -8.6405  -8.1737  -8.1346  -8.1231  -8.1069
    -7.8742  -7.8517  -7.7446  -7.7291  -7.7214  -7.7069  -7.6103  -7.5892
     1.3190   1.3283   1.3303   1.3443   1.5756   1.5918   1.7979   1.8452
     2.3956   2.5177   2.5240   2.5437   2.5637   2.6989   2.8909   2.9847
     3.0104   3.1114   3.6539   3.6818   3.6993   3.7378   4.1544   4.4330
     4.4542   4.5045   4.5439   4.7669   4.7938   4.8971   4.9272   4.9481
     5.0696   5.0990   5.1957   5.3165   5.4380   5.4839   5.6137   5.6328
     5.6933   5.7863   5.7968   5.8490   6.0513   6.1088   6.1411   6.1571
     6.2791   6.4142   6.4539   6.6047   6.6629   6.8699   6.9011   6.9501
     6.9844   6.9971   7.0905   7.0937   7.1112   7.1258   7.1937   7.2042
     7.2746   7.3071   7.8039   7.8123   7.8340   7.8495   7.8593   7.8677
     9.6776   9.6922  10.6963  10.7342  10.8753  10.9021  11.8261  11.9231
    11.9657  12.0378  12.2301  12.2651  12.3707  12.4159  12.9083  12.9169
    13.2325  13.3532  13.4092  13.4853  13.6979  13.7404  13.8462  13.8648
    14.9312  15.2318  15.4329  15.4948  15.5206  15.7514  15.9077  16.1397
    16.2287  16.8604  17.3255  17.3626  17.7758

          k = 0.0000 0.3154 0.3333 ( 62206 PWs)   bands (ev):

   -66.1080 -66.1078 -66.1075 -66.1073 -66.1070 -66.1068 -66.1065 -66.1063
   -30.5050 -30.5030 -30.5012 -30.4992 -30.4771 -30.4746 -30.4724 -30.4700
   -30.4522 -30.4496 -30.4456 -30.4429 -30.4289 -30.4243 -30.4216 -30.4165
   -30.3800 -30.3757 -30.3720 -30.3673 -30.3541 -30.3518 -30.3458 -30.3435
   -20.2641 -20.2641 -20.2640 -20.2640 -20.2640 -20.2639 -20.2639 -20.2639
   -20.2521 -20.2519 -20.2518 -20.2517 -20.2494 -20.2492 -20.2491 -20.2489
   -20.2441 -20.2440 -20.2438 -20.2437 -20.2435 -20.2433 -20.2430 -20.2429
   -20.2425 -20.2423 -20.2420 -20.2418 -20.2416 -20.2413 -20.2412 -20.2410
   -20.2339 -20.2337 -20.2335 -20.2331 -20.2330 -20.2327 -20.2324 -20.2323
   -20.2272 -20.2267 -20.2265 -20.2261 -20.2258 -20.2252 -20.2245 -20.2241
   -20.2224 -20.2217 -20.2212 -20.2206 -20.2203 -20.2198 -20.2196 -20.2190
    -9.6543  -9.5099  -9.4353  -9.3026  -9.0936  -8.9010  -8.8497  -8.8233
    -8.8135  -8.6763  -8.6277  -8.5752  -8.2316  -8.2167  -8.1643  -8.1276
    -8.1156  -8.0783  -8.0412  -7.9899  -7.7138  -7.6923  -7.6374  -7.6162
     1.3449   1.3610   1.3693   1.3863   2.1974   2.2692   2.3124   2.4160
     2.4824   2.5346   2.5479   2.7584   2.8039   2.8244   2.9141   2.9945
     3.2300   3.3202   3.6358   3.6540   3.7429   3.7850   3.8619   3.8713
     4.1306   4.3194   4.4148   4.4437   4.5095   4.5868   4.6328   4.8025
     4.8290   4.8563   5.0130   5.0864   5.1984   5.2209   5.2328   5.3894
     5.3964   5.6006   5.6635   5.8095   6.1435   6.2010   6.2243   6.2829
     6.4491   6.6140   6.6354   6.6845   6.7197   6.8275   6.8329   6.8589
     6.9324   6.9815   7.0521   7.0731   7.0928   7.1532   7.1745   7.2041
     7.3134   7.3601   7.7362   7.7577   7.7751   7.7807   7.8515   7.8659
    10.4033  10.4287  10.7107  10.7359  11.3224  11.3777  11.7981  11.8598
    11.8858  11.9948  12.2182  12.2503  12.5371  12.6118  12.6506  12.7157
    12.8642  13.1225  13.1984  13.3954  13.4795  13.5069  13.8456  13.8592
    15.0946  15.2051  15.5702  15.8300  15.9621  15.9643  15.9989  16.6554
    16.7312  16.8282  17.0284  17.5476  17.6293

          k = 0.0000 0.3154-0.5000 ( 62270 PWs)   bands (ev):

   -66.1078 -66.1078 -66.1076 -66.1076 -66.1068 -66.1068 -66.1066 -66.1066
   -30.5041 -30.5040 -30.5003 -30.5003 -30.4759 -30.4759 -30.4712 -30.4712
   -30.4509 -30.4509 -30.4443 -30.4443 -30.4046 -30.4046 -30.4001 -30.4001
   -30.3968 -30.3967 -30.3919 -30.3918 -30.3530 -30.3529 -30.3447 -30.3446
   -20.2641 -20.2641 -20.2640 -20.2640 -20.2640 -20.2639 -20.2639 -20.2639
   -20.2520 -20.2520 -20.2517 -20.2517 -20.2493 -20.2493 -20.2490 -20.2490
   -20.2439 -20.2439 -20.2439 -20.2438 -20.2433 -20.2433 -20.2431 -20.2431
   -20.2423 -20.2422 -20.2421 -20.2420 -20.2414 -20.2414 -20.2412 -20.2412
   -20.2337 -20.2337 -20.2334 -20.2334 -20.2327 -20.2327 -20.2325 -20.2325
   -20.2268 -20.2268 -20.2264 -20.2264 -20.2241 -20.2241 -20.2234 -20.2234
   -20.2229 -20.2229 -20.2224 -20.2223 -20.2201 -20.2200 -20.2193 -20.2193
    -9.5270  -9.5270  -9.3864  -9.3864  -8.9023  -8.9023  -8.7174  -8.7174
    -8.5548  -8.5548  -8.5364  -8.5364  -8.4798  -8.4798  -8.3813  -8.3813
    -8.1274  -8.1274  -8.0865  -8.0865  -7.6752  -7.6752  -7.6538  -7.6538
     1.3632   1.3632   1.3806   1.3806   2.3944   2.3944   2.5327   2.5328
     2.9302   2.9303   3.0540   3.0540   3.1004   3.1005   3.2852   3.2852
     3.3330   3.3330   3.3693   3.3693   3.4443   3.4443   3.6582   3.6582
     4.0886   4.0886   4.1112   4.1112   4.1696   4.1696   4.3856   4.3856
     4.8315   4.8315   4.9395   4.9395   5.1481   5.1481   5.3087   5.3087
     5.4487   5.4487   5.7368   5.7368   6.2935   6.2935   6.3503   6.3503
     6.4866   6.4866   6.5365   6.5365   6.5750   6.5750   6.7852   6.7852
     7.0601   7.0602   7.0780   7.0780   7.1112   7.1113   7.5213   7.5213
     7.5387   7.5387   7.5905   7.5905   7.6180   7.6180   7.8593   7.8593
    10.7152  10.7152  11.1840  11.1840  11.2321  11.2321  11.7238  11.7238
    12.0506  12.0506  12.1820  12.1820  12.5578  12.5578  12.6775  12.6775
    12.8274  12.8274  12.9880  12.9880  13.4742  13.4742  13.8518  13.8518
    15.1603  15.1603  15.7088  15.7088  16.3184  16.3184  16.4628  16.4628
    16.8488  16.8489  17.2821  17.2821  17.9525

          k = 0.0000-0.4732 0.0000 ( 62108 PWs)   bands (ev):

   -66.1082 -66.1082 -66.1072 -66.1072 -66.1072 -66.1071 -66.1062 -66.1062
   -30.4917 -30.4917 -30.4884 -30.4883 -30.4864 -30.4864 -30.4835 -30.4834
   -30.4536 -30.4535 -30.4486 -30.4486 -30.4469 -30.4469 -30.4418 -30.4418
   -30.3551 -30.3551 -30.3512 -30.3512 -30.3469 -30.3469 -30.3423 -30.3423
   -20.2641 -20.2641 -20.2640 -20.2640 -20.2640 -20.2639 -20.2639 -20.2639
   -20.2508 -20.2508 -20.2505 -20.2505 -20.2504 -20.2504 -20.2502 -20.2502
   -20.2441 -20.2441 -20.2436 -20.2436 -20.2436 -20.2436 -20.2428 -20.2428
   -20.2427 -20.2427 -20.2418 -20.2418 -20.2416 -20.2416 -20.2410 -20.2409
   -20.2341 -20.2340 -20.2333 -20.2333 -20.2329 -20.2329 -20.2321 -20.2321
   -20.2276 -20.2276 -20.2268 -20.2268 -20.2261 -20.2261 -20.2258 -20.2258
   -20.2206 -20.2206 -20.2198 -20.2198 -20.2195 -20.2195 -20.2187 -20.2187
    -9.7492  -9.7492  -9.2986  -9.2986  -9.2782  -9.2782  -9.0115  -9.0115
    -8.4765  -8.4765  -8.4213  -8.4213  -8.4197  -8.4196  -8.4181  -8.4181
    -7.7525  -7.7525  -7.7338  -7.7337  -7.5990  -7.5990  -7.5809  -7.5809
     1.2349   1.2349   1.3245   1.3245   1.3385   1.3385   1.6660   1.6661
     2.4540   2.4540   3.1583   3.1584   3.2248   3.2248   3.2689   3.2689
     3.3039   3.3039   3.3287   3.3287   3.4821   3.4821   3.5331   3.5331
     3.6988   3.6989   4.8844   4.8844   4.8871   4.8871   5.2330   5.2331
     5.2419   5.2419   5.3352   5.3353   5.3385   5.3386   5.7613   5.7613
     5.7672   5.7672   6.0026   6.0026   6.0363   6.0363   6.1752   6.1752
     6.1969   6.1970   6.3002   6.3002   6.7519   6.7520   6.7825   6.7826
     6.9678   6.9678   7.4033   7.4033   7.4245   7.4245   7.4748   7.4748
     7.4906   7.4906   7.5664   7.5664   7.5687   7.5687   7.8125   7.8125
     9.3249   9.3250  11.2676  11.2676  11.2886  11.2886  11.3537  11.3537
    11.3779  11.3779  12.3249  12.3249  12.3590  12.3590  12.8775  12.8775
    13.5880  13.5880  13.6095  13.6095  13.6423  13.6423  13.6451  13.6451
    15.3829  15.3829  15.4621  15.4621  15.6767  15.6767  15.7033  15.7033
    16.5658  16.5658  18.0149  18.0150  18.1131

          k = 0.0000-0.4732 0.1667 ( 62188 PWs)   bands (ev):

   -66.1081 -66.1081 -66.1073 -66.1072 -66.1071 -66.1071 -66.1062 -66.1062
   -30.4917 -30.4913 -30.4887 -30.4881 -30.4868 -30.4865 -30.4838 -30.4838
   -30.4533 -30.4489 -30.4478 -30.4458 -30.4421 -30.4421 -30.4401 -30.4349
   -30.3618 -30.3577 -30.3548 -30.3540 -30.3516 -30.3484 -30.3466 -30.3427
   -20.2641 -20.2641 -20.2640 -20.2640 -20.2640 -20.2639 -20.2639 -20.2639
   -20.2508 -20.2508 -20.2505 -20.2505 -20.2505 -20.2504 -20.2502 -20.2502
   -20.2441 -20.2441 -20.2437 -20.2436 -20.2436 -20.2435 -20.2428 -20.2428
   -20.2427 -20.2427 -20.2419 -20.2418 -20.2417 -20.2416 -20.2410 -20.2410
   -20.2340 -20.2340 -20.2334 -20.2332 -20.2329 -20.2328 -20.2322 -20.2322
   -20.2275 -20.2273 -20.2266 -20.2264 -20.2262 -20.2259 -20.2257 -20.2254
   -20.2211 -20.2206 -20.2203 -20.2199 -20.2198 -20.2195 -20.2192 -20.2188
    -9.6978  -9.6954  -9.3149  -9.2948  -9.2133  -9.1933  -8.9714  -8.9695
    -8.4823  -8.4822  -8.4279  -8.4261  -8.4175  -8.4173  -8.4142  -8.4128
    -7.8728  -7.8541  -7.7432  -7.7285  -7.7227  -7.7084  -7.6089  -7.5907
     1.3193   1.3288   1.3310   1.3450   1.5788   1.5929   1.8301   1.8390
     2.5439   2.5442   3.1595   3.1716   3.2302   3.2398   3.2630   3.2914
     3.2997   3.3227   3.3296   3.3729   3.4781   3.5301   3.5391   3.5778
     3.7259   3.7273   4.4776   4.4802   4.8986   4.9201   5.0004   5.0255
     5.1522   5.1538   5.2134   5.2191   5.3467   5.3519   5.5000   5.5113
     5.7341   5.7377   5.7893   5.7946   6.1096   6.1368   6.1389   6.1547
     6.4104   6.4110   6.4252   6.4602   6.7402   6.7710   6.9242   6.9529
     7.0244   7.0297   7.1801   7.1967   7.2203   7.2502   7.4622   7.4750
     7.4870   7.4972   7.5231   7.5354   7.5457   7.5546   7.8271   7.8277
     9.6832   9.6896  11.2723  11.2926  11.3462  11.3623  11.4054  11.4176
    11.4756  11.4988  12.2335  12.2641  12.3772  12.4095  12.9176  12.9187
    13.4145  13.4219  13.5009  13.5158  13.6020  13.6199  13.6384  13.6424
    15.4084  15.4333  15.6051  15.6263  15.6581  15.6868  15.9464  15.9687
    16.6266  16.6276  17.9087  17.9195  18.0761

          k = 0.0000-0.4732 0.3333 ( 62216 PWs)   bands (ev):

   -66.1079 -66.1079 -66.1074 -66.1074 -66.1069 -66.1069 -66.1064 -66.1064
   -30.4913 -30.4903 -30.4894 -30.4877 -30.4872 -30.4863 -30.4847 -30.4845
   -30.4525 -30.4499 -30.4458 -30.4431 -30.4290 -30.4244 -30.4217 -30.4166
   -30.3799 -30.3756 -30.3720 -30.3674 -30.3540 -30.3517 -30.3458 -30.3436
   -20.2641 -20.2641 -20.2640 -20.2640 -20.2640 -20.2639 -20.2639 -20.2639
   -20.2507 -20.2507 -20.2506 -20.2506 -20.2505 -20.2504 -20.2503 -20.2503
   -20.2440 -20.2440 -20.2437 -20.2437 -20.2434 -20.2433 -20.2430 -20.2429
   -20.2425 -20.2424 -20.2420 -20.2419 -20.2416 -20.2414 -20.2412 -20.2411
   -20.2339 -20.2337 -20.2335 -20.2332 -20.2330 -20.2327 -20.2324 -20.2323
   -20.2272 -20.2267 -20.2265 -20.2261 -20.2258 -20.2252 -20.2245 -20.2241
   -20.2224 -20.2217 -20.2212 -20.2206 -20.2203 -20.2198 -20.2196 -20.2190
    -9.5755  -9.5667  -9.3647  -9.3458  -8.9771  -8.9588  -8.8358  -8.8289
    -8.5173  -8.5157  -8.4539  -8.4529  -8.4096  -8.4094  -8.3900  -8.3871
    -8.1594  -8.1423  -8.0380  -8.0210  -7.7122  -7.6940  -7.6360  -7.6178
     1.3463   1.3618   1.3707   1.3871   2.2535   2.2661   2.4587   2.4709
     2.8046   2.8051   3.1603   3.1919   3.2397   3.2488   3.2554   3.2994
     3.2999   3.3064   3.4069   3.4486   3.4646   3.5178   3.7039   3.7150
     3.7854   3.7900   3.8530   3.8602   4.4983   4.4991   4.6662   4.6734
     4.7861   4.8027   4.8741   4.8883   5.2301   5.2457   5.2730   5.2739
     5.3922   5.4027   5.6633   5.6651   6.1974   6.2004   6.2483   6.2981
     6.5463   6.5574   6.6541   6.7189   6.7295   6.7374   6.8556   6.8889
     7.0181   7.0401   7.1951   7.2018   7.2136   7.2179   7.4397   7.4587
     7.4825   7.4969   7.5045   7.5183   7.5236   7.5332   7.7833   7.7838
    10.4147  10.4276  11.2860  11.3046  11.3297  11.3490  11.7773  11.7906
    11.8159  11.8362  11.8632  11.8864  12.5499  12.5764  12.7476  12.7528
    12.9491  12.9571  13.2146  13.2295  13.6107  13.6125  13.6315  13.6376
    15.4279  15.4554  15.6002  15.6274  16.2175  16.2376  16.6590  16.6738
    16.8322  16.8376  17.4070  17.4086  17.9022

          k = 0.0000-0.4732-0.5000 ( 62200 PWs)   bands (ev):

   -66.1077 -66.1077 -66.1077 -66.1077 -66.1067 -66.1067 -66.1067 -66.1067
   -30.4905 -30.4904 -30.4890 -30.4890 -30.4860 -30.4860 -30.4855 -30.4855
   -30.4512 -30.4512 -30.4445 -30.4444 -30.4046 -30.4046 -30.4001 -30.4001
   -30.3968 -30.3968 -30.3919 -30.3919 -30.3529 -30.3529 -30.3447 -30.3447
   -20.2641 -20.2640 -20.2640 -20.2640 -20.2639 -20.2639 -20.2639 -20.2639
   -20.2507 -20.2507 -20.2507 -20.2506 -20.2504 -20.2504 -20.2504 -20.2504
   -20.2439 -20.2439 -20.2438 -20.2438 -20.2432 -20.2432 -20.2431 -20.2431
   -20.2422 -20.2422 -20.2422 -20.2421 -20.2414 -20.2414 -20.2412 -20.2412
   -20.2337 -20.2337 -20.2334 -20.2334 -20.2327 -20.2327 -20.2325 -20.2325
   -20.2268 -20.2268 -20.2264 -20.2264 -20.2241 -20.2241 -20.2234 -20.2234
   -20.2229 -20.2229 -20.2224 -20.2223 -20.2201 -20.2200 -20.2193 -20.2193
    -9.4517  -9.4516  -9.4361  -9.4361  -8.6780  -8.6780  -8.6637  -8.6636
    -8.6001  -8.6001  -8.5900  -8.5900  -8.3770  -8.3769  -8.3617  -8.3616
    -8.3092  -8.3092  -8.2930  -8.2929  -7.6737  -7.6737  -7.6555  -7.6554
     1.3649   1.3649   1.3815   1.3816   2.9972   2.9972   3.0382   3.0382
     3.1645   3.1645   3.1752   3.1752   3.2242   3.2242   3.2326   3.2327
     3.3260   3.3260   3.3354   3.3354   3.4572   3.4572   3.4998   3.4998
     3.5874   3.5875   3.7024   3.7024   4.3162   4.3162   4.3399   4.3399
     4.4209   4.4209   4.4606   4.4607   5.2401   5.2402   5.2540   5.2541
     5.5179   5.5179   5.5362   5.5362   6.3379   6.3379   6.3444   6.3444
     6.5282   6.5283   6.5491   6.5491   6.6551   6.6551   6.6858   6.6858
     7.2966   7.2966   7.3147   7.3147   7.3535   7.3535   7.4323   7.4324
     7.4649   7.4649   7.5091   7.5091   7.5951   7.5951   7.6043   7.6043
    11.1767  11.1767  11.1927  11.1927  11.3330  11.3331  11.3477  11.3477
    12.2787  12.2787  12.3201  12.3201  12.3318  12.3318  12.3736  12.3736
    12.8595  12.8595  12.8793  12.8793  13.6168  13.6168  13.6276  13.6276
    15.5111  15.5111  15.5395  15.5395  16.8750  16.8751  16.9098  16.9099
    17.3211  17.3212  17.3533  17.3534  17.4611

          k = 0.1667 0.0000 0.1667 ( 62198 PWs)   bands (ev):

   -66.1083 -66.1078 -66.1074 -66.1074 -66.1070 -66.1070 -66.1065 -66.1061
   -30.5199 -30.5165 -30.5165 -30.5132 -30.4659 -30.4607 -30.4605 -30.4548
   -30.4486 -30.4432 -30.4414 -30.4413 -30.4388 -30.4388 -30.4347 -30.4342
   -30.3617 -30.3616 -30.3591 -30.3576 -30.3530 -30.3528 -30.3497 -30.3485
   -20.2641 -20.2641 -20.2640 -20.2640 -20.2640 -20.2639 -20.2639 -20.2638
   -20.2534 -20.2532 -20.2532 -20.2530 -20.2481 -20.2478 -20.2478 -20.2475
   -20.2443 -20.2441 -20.2438 -20.2438 -20.2436 -20.2436 -20.2430 -20.2429
   -20.2426 -20.2422 -20.2418 -20.2418 -20.2414 -20.2414 -20.2411 -20.2407
   -20.2340 -20.2338 -20.2333 -20.2333 -20.2329 -20.2329 -20.2323 -20.2322
   -20.2271 -20.2271 -20.2263 -20.2263 -20.2258 -20.2258 -20.2254 -20.2254
   -20.2210 -20.2210 -20.2203 -20.2202 -20.2201 -20.2200 -20.2193 -20.2192
    -9.8295  -9.5303  -9.4396  -9.4393  -9.1341  -9.1336  -9.0731  -8.9397
    -8.9272  -8.8329  -8.7993  -8.7990  -7.8863  -7.8656  -7.8502  -7.8409
    -7.8292  -7.7814  -7.7761  -7.7526  -7.7401  -7.7299  -7.7132  -7.6952
     1.4602   1.4873   1.4927   1.4946   1.5002   1.5955   1.5963   1.6412
     1.7290   1.7291   1.9351   2.0889   2.5933   2.6797   2.6904   2.7012
     2.8137   2.8468   4.0958   4.1019   4.3434   4.3448   4.4982   4.5011
     4.5609   4.5670   4.6943   4.7161   4.7713   4.8435   5.0708   5.2608
     5.3063   5.3361   5.3911   5.5095   5.5166   5.6438   5.6467   5.7131
     5.7133   5.7560   5.7635   5.7702   5.8143   6.0139   6.3446   6.4258
     6.4704   6.5013   6.5549   6.6653   6.6989   6.7083   6.7084   6.7339
     6.7675   6.8789   6.8834   6.9003   6.9199   7.0055   7.0129   7.1312
     7.3232   7.3866   7.8224   7.8237   8.0480   8.0950   8.1093   8.1246
     9.8878   9.9554  10.2931  10.2938  10.3162  10.4045  12.2580  12.2586
    12.2883  12.2930  12.3519  12.3914  12.6232  12.6424  12.9165  12.9387
    13.0545  13.1307  13.2261  13.3775  13.9335  13.9929  14.0321  14.0665
    14.1660  14.5217  14.5221  15.1486  15.4352  15.5689  15.5823  16.3512
    16.3548  16.9779  16.9830  17.1441  17.5979

          k = 0.1667 0.0000 0.3333 ( 62197 PWs)   bands (ev):

   -66.1081 -66.1077 -66.1076 -66.1072 -66.1072 -66.1068 -66.1067 -66.1063
   -30.5193 -30.5173 -30.5160 -30.5141 -30.4642 -30.4614 -30.4588 -30.4557
   -30.4451 -30.4424 -30.4382 -30.4359 -30.4278 -30.4244 -30.4209 -30.4164
   -30.3797 -30.3761 -30.3715 -30.3675 -30.3608 -30.3584 -30.3522 -30.3500
   -20.2641 -20.2640 -20.2640 -20.2640 -20.2640 -20.2639 -20.2639 -20.2639
   -20.2534 -20.2532 -20.2531 -20.2530 -20.2481 -20.2479 -20.2478 -20.2476
   -20.2442 -20.2440 -20.2439 -20.2437 -20.2436 -20.2435 -20.2432 -20.2431
   -20.2424 -20.2420 -20.2419 -20.2416 -20.2416 -20.2412 -20.2412 -20.2409
   -20.2338 -20.2336 -20.2335 -20.2331 -20.2331 -20.2328 -20.2325 -20.2323
   -20.2268 -20.2263 -20.2261 -20.2257 -20.2256 -20.2251 -20.2246 -20.2242
   -20.2223 -20.2216 -20.2213 -20.2209 -20.2206 -20.2202 -20.2200 -20.2195
    -9.7106  -9.4920  -9.3923  -9.2972  -9.1795  -9.1039  -8.8812  -8.8603
    -8.8125  -8.7947  -8.7536  -8.6817  -8.1730  -8.1535  -8.0880  -8.0601
    -7.8456  -7.8211  -7.8082  -7.7849  -7.7635  -7.7564  -7.7389  -7.7354
     1.4675   1.4832   1.5860   1.6127   1.6239   1.6316   1.6997   1.7334
     2.2831   2.3194   2.4683   2.5521   2.7188   2.8054   2.8665   2.9342
     2.9667   3.0793   3.8227   3.8724   3.9429   3.9473   4.1903   4.3077
     4.3250   4.5182   4.5337   4.5708   4.6475   4.7610   4.7844   4.9363
     5.0179   5.0770   5.1255   5.2217   5.3066   5.4049   5.5685   5.6820
     5.7054   5.7729   5.7782   5.8271   5.8544   6.0215   6.1693   6.2138
     6.4357   6.4760   6.5131   6.5889   6.6173   6.6722   6.6812   6.7057
     6.8180   6.8899   6.8941   6.9165   7.1385   7.1652   7.1802   7.2606
     7.3560   7.4014   7.7744   7.7890   7.9431   7.9828   8.1083   8.1198
    10.2866  10.2986  10.5330  10.5911  10.9082  11.0355  11.8940  11.9402
    12.1484  12.4093  12.4353  12.5325  12.5707  12.6348  12.7759  12.8827
    12.8942  13.0367  13.0963  13.3128  13.6859  13.6999  14.0047  14.0312
    14.3079  14.4945  14.8169  15.3274  15.4541  15.8194  15.9845  16.2552
    16.4252  17.1911  17.4419  17.5041  17.5964

          k = 0.1667 0.0000-0.5000 ( 62242 PWs)   bands (ev):

   -66.1078 -66.1078 -66.1074 -66.1074 -66.1069 -66.1069 -66.1065 -66.1065
   -30.5184 -30.5184 -30.5151 -30.5151 -30.4627 -30.4627 -30.4571 -30.4571
   -30.4436 -30.4436 -30.4370 -30.4370 -30.4042 -30.4042 -30.4004 -30.4004
   -30.3962 -30.3962 -30.3919 -30.3919 -30.3597 -30.3597 -30.3511 -30.3511
   -20.2641 -20.2641 -20.2640 -20.2640 -20.2640 -20.2640 -20.2639 -20.2639
   -20.2533 -20.2533 -20.2531 -20.2531 -20.2480 -20.2480 -20.2477 -20.2477
   -20.2440 -20.2440 -20.2439 -20.2439 -20.2434 -20.2434 -20.2432 -20.2432
   -20.2421 -20.2421 -20.2418 -20.2418 -20.2414 -20.2414 -20.2410 -20.2410
   -20.2336 -20.2336 -20.2333 -20.2333 -20.2328 -20.2328 -20.2326 -20.2325
   -20.2264 -20.2264 -20.2260 -20.2259 -20.2241 -20.2240 -20.2234 -20.2234
   -20.2230 -20.2230 -20.2224 -20.2224 -20.2205 -20.2205 -20.2198 -20.2198
    -9.5842  -9.5842  -9.2625  -9.2625  -9.1715  -9.1715  -8.8317  -8.8317
    -8.5392  -8.5391  -8.5236  -8.5236  -8.4737  -8.4737  -8.4141  -8.4141
    -7.8186  -7.8186  -7.7917  -7.7916  -7.7669  -7.7668  -7.7512  -7.7512
     1.4738   1.4738   1.6059   1.6059   1.6332   1.6332   1.7364   1.7364
     2.7448   2.7448   3.0060   3.0060   3.0954   3.0954   3.2158   3.2159
     3.3198   3.3198   3.4329   3.4329   3.5452   3.5452   3.8164   3.8164
     3.9055   3.9055   4.4311   4.4311   4.5633   4.5633   4.9012   4.9012
     5.0514   5.0514   5.0724   5.0724   5.2783   5.2783   5.6404   5.6404
     5.8065   5.8065   5.8112   5.8112   5.9074   5.9074   5.9930   5.9930
     6.3738   6.3738   6.4653   6.4654   6.6794   6.6794   6.7468   6.7469
     6.8334   6.8334   6.9867   6.9867   7.0428   7.0428   7.5460   7.5461
     7.5882   7.5882   7.7189   7.7189   7.7390   7.7390   8.1188   8.1188
    10.3068  10.3068  11.2411  11.2411  11.3162  11.3162  11.6042  11.6043
    11.8186  11.8186  12.6348  12.6348  12.6510  12.6510  12.7150  12.7150
    12.9299  12.9299  13.2715  13.2715  13.3859  13.3859  14.0155  14.0156
    14.4350  14.4350  15.1241  15.1242  15.8859  15.8859  16.0834  16.0834
    16.7496  16.7496  17.8663  17.8663  17.9123

          k = 0.1667 0.1577 0.1667 ( 62195 PWs)   bands (ev):

   -66.1082 -66.1079 -66.1074 -66.1073 -66.1070 -66.1070 -66.1065 -66.1061
   -30.5160 -30.5126 -30.5126 -30.5093 -30.4688 -30.4639 -30.4638 -30.4587
   -30.4485 -30.4440 -30.4418 -30.4416 -30.4393 -30.4389 -30.4348 -30.4344
   -30.3617 -30.3616 -30.3590 -30.3577 -30.3530 -30.3529 -30.3496 -30.3486
   -20.2641 -20.2641 -20.2640 -20.2640 -20.2640 -20.2639 -20.2639 -20.2638
   -20.2531 -20.2528 -20.2528 -20.2526 -20.2484 -20.2482 -20.2481 -20.2479
   -20.2442 -20.2441 -20.2438 -20.2437 -20.2436 -20.2436 -20.2430 -20.2429
   -20.2426 -20.2423 -20.2418 -20.2418 -20.2415 -20.2414 -20.2411 -20.2408
   -20.2340 -20.2338 -20.2333 -20.2333 -20.2329 -20.2329 -20.2323 -20.2322
   -20.2271 -20.2271 -20.2263 -20.2263 -20.2258 -20.2258 -20.2254 -20.2254
   -20.2210 -20.2210 -20.2203 -20.2202 -20.2200 -20.2200 -20.2193 -20.2192
    -9.7982  -9.5419  -9.3992  -9.3989  -9.1418  -9.1413  -8.9996  -8.9389
    -8.9278  -8.7891  -8.7649  -8.7647  -7.9393  -7.8926  -7.8924  -7.8640
    -7.8601  -7.8464  -7.8323  -7.8281  -7.7587  -7.7379  -7.7126  -7.6968
     1.4931   1.4938   1.5550   1.5552   1.5962   1.5963   1.6481   1.8434
     1.9035   1.9046   1.9349   2.1754   2.6008   2.6745   2.7634   2.7748
     2.8855   2.9107   3.9996   4.0217   4.1371   4.1417   4.4821   4.4845
     4.5630   4.5690   4.6962   4.7155   4.7549   4.7944   4.8703   5.2142
     5.2305   5.2774   5.2903   5.3776   5.3819   5.5962   5.5983   5.6482
     5.7541   5.7614   5.7818   5.8022   5.8056   5.8704   6.3588   6.3654
     6.4122   6.4867   6.5465   6.6754   6.7035   6.7356   6.7921   6.8031
     6.8171   6.8487   6.9009   6.9092   6.9756   6.9886   7.0057   7.1371
     7.3277   7.3848   7.8227   7.8241   7.9971   8.0379   8.0429   8.0488
     9.9044   9.9545  10.4447  10.4583  10.4727  10.5377  12.2250  12.2504
    12.2665  12.2717  12.2995  12.3135  12.4841  12.5000  12.9291  12.9307
    13.0915  13.1524  13.2294  13.3805  13.9039  13.9117  13.9350  13.9897
    14.4190  14.8105  14.8121  15.2869  15.5700  15.5809  15.8383  16.3183
    16.3203  16.8175  17.0873  17.0884  17.6533

          k = 0.1667 0.1577 0.3333 ( 62207 PWs)   bands (ev):

   -66.1080 -66.1077 -66.1075 -66.1072 -66.1072 -66.1068 -66.1067 -66.1063
   -30.5154 -30.5134 -30.5121 -30.5102 -30.4673 -30.4647 -30.4625 -30.4597
   -30.4454 -30.4427 -30.4384 -30.4361 -30.4280 -30.4245 -30.4210 -30.4166
   -30.3797 -30.3761 -30.3716 -30.3675 -30.3608 -30.3583 -30.3523 -30.3500
   -20.2641 -20.2640 -20.2640 -20.2640 -20.2640 -20.2639 -20.2639 -20.2639
   -20.2530 -20.2529 -20.2528 -20.2527 -20.2484 -20.2482 -20.2481 -20.2480
   -20.2441 -20.2440 -20.2438 -20.2437 -20.2436 -20.2434 -20.2431 -20.2430
   -20.2424 -20.2421 -20.2419 -20.2416 -20.2416 -20.2413 -20.2412 -20.2409
   -20.2338 -20.2336 -20.2334 -20.2331 -20.2331 -20.2328 -20.2325 -20.2323
   -20.2268 -20.2263 -20.2261 -20.2257 -20.2256 -20.2251 -20.2246 -20.2242
   -20.2223 -20.2216 -20.2213 -20.2209 -20.2206 -20.2202 -20.2200 -20.2195
    -9.6758  -9.4523  -9.4036  -9.2430  -9.1880  -9.0311  -8.8891  -8.8432
    -8.7957  -8.7779  -8.7301  -8.6611  -8.1759  -8.1552  -8.1032  -8.0596
    -7.9041  -7.8884  -7.8658  -7.8379  -7.8342  -7.8058  -7.7608  -7.7356
     1.5635   1.5812   1.6135   1.6323   1.7879   1.7960   1.8726   1.9022
     2.2822   2.3314   2.4699   2.5684   2.7912   2.8578   2.8933   2.9629
     3.0098   3.1360   3.8196   3.8685   3.9062   3.9358   4.1277   4.1922
     4.2683   4.3893   4.5408   4.5942   4.6715   4.7103   4.7587   4.7928
     4.9197   4.9442   4.9862   5.1669   5.2275   5.2620   5.3417   5.6171
     5.6451   5.6732   5.7620   5.7992   5.8309   5.8480   6.1676   6.2135
     6.3976   6.5342   6.5520   6.6516   6.7070   6.7210   6.7475   6.7889
     6.8740   6.8890   6.9270   6.9597   7.1329   7.1580   7.1778   7.2650
     7.3477   7.3964   7.7758   7.7860   7.8989   7.9263   8.0430   8.0473
    10.4072  10.4567  10.5621  10.6078  11.0219  11.1231  11.8948  11.9373
    12.1250  12.3923  12.4364  12.4770  12.5050  12.5828  12.7092  12.7640
    12.8914  13.0509  13.0899  13.3095  13.5833  13.6046  13.9226  13.9484
    14.6236  14.7887  15.1610  15.5540  15.7409  15.8159  15.9956  16.2261
    16.5325  17.1527  17.2245  17.4996  17.5500

          k = 0.1667 0.1577-0.5000 ( 62250 PWs)   bands (ev):

   -66.1078 -66.1078 -66.1074 -66.1074 -66.1069 -66.1069 -66.1066 -66.1066
   -30.5145 -30.5145 -30.5112 -30.5112 -30.4660 -30.4659 -30.4610 -30.4610
   -30.4440 -30.4440 -30.4372 -30.4372 -30.4042 -30.4042 -30.4004 -30.4004
   -30.3963 -30.3963 -30.3920 -30.3920 -30.3597 -30.3596 -30.3512 -30.3512
   -20.2641 -20.2641 -20.2640 -20.2640 -20.2640 -20.2640 -20.2639 -20.2639
   -20.2530 -20.2530 -20.2527 -20.2527 -20.2484 -20.2483 -20.2481 -20.2481
   -20.2440 -20.2440 -20.2439 -20.2438 -20.2434 -20.2434 -20.2432 -20.2432
   -20.2422 -20.2421 -20.2418 -20.2418 -20.2414 -20.2414 -20.2411 -20.2411
   -20.2336 -20.2336 -20.2334 -20.2333 -20.2328 -20.2328 -20.2326 -20.2326
   -20.2264 -20.2264 -20.2260 -20.2259 -20.2241 -20.2240 -20.2234 -20.2234
   -20.2230 -20.2230 -20.2224 -20.2224 -20.2205 -20.2205 -20.2198 -20.2198
    -9.5462  -9.5462  -9.2723  -9.2723  -9.1032  -9.1032  -8.7987  -8.7987
    -8.5413  -8.5412  -8.5268  -8.5268  -8.4750  -8.4750  -8.4085  -8.4085
    -7.8977  -7.8977  -7.8548  -7.8548  -7.7977  -7.7977  -7.7710  -7.7710
     1.5751   1.5751   1.6337   1.6337   1.8057   1.8057   1.9009   1.9009
     2.8124   2.8124   3.0241   3.0242   3.1065   3.1066   3.2358   3.2359
     3.3227   3.3227   3.4386   3.4386   3.5365   3.5365   3.8194   3.8194
     3.9548   3.9548   4.2777   4.2777   4.5724   4.5725   4.6894   4.6894
     4.9495   4.9496   5.0364   5.0364   5.1297   5.1297   5.4567   5.4567
     5.7060   5.7060   5.7688   5.7688   5.8698   5.8698   5.9058   5.9058
     6.4961   6.4961   6.6254   6.6254   6.6699   6.6699   6.7993   6.7993
     6.9129   6.9129   6.9497   6.9497   7.0672   7.0672   7.5466   7.5466
     7.5822   7.5822   7.6908   7.6908   7.7095   7.7095   8.0480   8.0480
    10.4633  10.4633  11.2476  11.2476  11.3149  11.3149  11.6705  11.6705
    11.8785  11.8785  12.5213  12.5213  12.6276  12.6276  12.6982  12.6982
    12.9102  12.9102  13.1664  13.1664  13.3265  13.3265  13.9310  13.9310
    14.7391  14.7391  15.4972  15.4972  16.0011  16.0011  16.0677  16.0677
    16.7806  16.7806  17.6736  17.6736  17.9415

          k = 0.1667 0.3154 0.1667 ( 62189 PWs)   bands (ev):

   -66.1082 -66.1079 -66.1073 -66.1073 -66.1071 -66.1071 -66.1064 -66.1062
   -30.5054 -30.5020 -30.5020 -30.4987 -30.4777 -30.4735 -30.4735 -30.4695
   -30.4479 -30.4455 -30.4423 -30.4422 -30.4398 -30.4393 -30.4351 -30.4349
   -30.3616 -30.3615 -30.3587 -30.3579 -30.3531 -30.3530 -30.3495 -30.3489
   -20.2641 -20.2641 -20.2640 -20.2640 -20.2640 -20.2639 -20.2639 -20.2639
   -20.2521 -20.2519 -20.2518 -20.2516 -20.2494 -20.2492 -20.2491 -20.2489
   -20.2441 -20.2440 -20.2437 -20.2437 -20.2436 -20.2435 -20.2429 -20.2428
   -20.2427 -20.2424 -20.2418 -20.2418 -20.2416 -20.2416 -20.2411 -20.2409
   -20.2340 -20.2338 -20.2333 -20.2333 -20.2329 -20.2329 -20.2323 -20.2322
   -20.2271 -20.2271 -20.2263 -20.2263 -20.2258 -20.2258 -20.2254 -20.2254
   -20.2210 -20.2210 -20.2203 -20.2202 -20.2200 -20.2200 -20.2193 -20.2193
    -9.7223  -9.5778  -9.3068  -9.3064  -9.1674  -9.1669  -8.9366  -8.9304
    -8.7908  -8.6513  -8.6453  -8.6451  -8.1756  -8.1312  -8.1311  -8.1128
    -7.8656  -7.8621  -7.8435  -7.8390  -7.7559  -7.7446  -7.7100  -7.7006
     1.4934   1.4935   1.5817   1.5819   1.5986   1.5988   1.8710   1.9302
     2.3975   2.5192   2.5205   2.6180   2.6402   2.7047   2.9848   3.0004
     3.1018   3.1086   3.6905   3.6924   3.7072   3.7566   4.1464   4.4599
     4.4599   4.5055   4.5096   4.5993   4.6014   4.7585   4.7722   4.8573
     4.9101   4.9172   5.1391   5.1601   5.3812   5.4132   5.4341   5.4428
     5.6396   5.6617   5.7659   5.7672   5.8226   5.8258   6.3898   6.4123
     6.4510   6.4878   6.5295   6.6519   6.7686   6.7754   6.8869   6.8922
     6.9478   6.9505   7.0110   7.0365   7.1082   7.1114   7.1256   7.1727
     7.3503   7.3865   7.8025   7.8074   7.8232   7.8351   7.8391   7.8701
     9.9280   9.9503  10.8473  10.8887  10.9024  10.9287  11.8989  11.9436
    12.0293  12.0422  12.2807  12.2832  12.3284  12.3286  12.9262  12.9491
    13.2128  13.2392  13.2865  13.4263  13.6767  13.6853  13.7035  13.7854
    15.0816  15.4301  15.4370  15.5772  15.5773  15.8192  16.2004  16.2007
    16.2649  16.8253  17.3817  17.4425  17.4526

          k = 0.1667 0.3154 0.3333 ( 62204 PWs)   bands (ev):

   -66.1080 -66.1078 -66.1075 -66.1073 -66.1071 -66.1069 -66.1066 -66.1064
   -30.5049 -30.5028 -30.5015 -30.4995 -30.4768 -30.4744 -30.4727 -30.4703
   -30.4459 -30.4433 -30.4388 -30.4364 -30.4283 -30.4247 -30.4213 -30.4168
   -30.3796 -30.3760 -30.3717 -30.3677 -30.3607 -30.3582 -30.3524 -30.3502
   -20.2641 -20.2641 -20.2640 -20.2640 -20.2640 -20.2639 -20.2639 -20.2639
   -20.2521 -20.2519 -20.2518 -20.2517 -20.2494 -20.2492 -20.2491 -20.2490
   -20.2440 -20.2439 -20.2437 -20.2437 -20.2435 -20.2434 -20.2431 -20.2430
   -20.2424 -20.2422 -20.2419 -20.2417 -20.2416 -20.2414 -20.2412 -20.2410
   -20.2338 -20.2337 -20.2334 -20.2331 -20.2331 -20.2328 -20.2325 -20.2324
   -20.2268 -20.2263 -20.2261 -20.2257 -20.2256 -20.2251 -20.2246 -20.2242
   -20.2223 -20.2216 -20.2213 -20.2209 -20.2206 -20.2202 -20.2200 -20.2195
    -9.5922  -9.4393  -9.3605  -9.2159  -9.1112  -8.9180  -8.8282  -8.8182
    -8.7962  -8.6600  -8.6231  -8.5807  -8.2337  -8.2184  -8.1559  -8.1270
    -8.1207  -8.0742  -8.0523  -7.9967  -7.8345  -7.8130  -7.7597  -7.7388
     1.5977   1.6152   1.6183   1.6354   2.2028   2.2762   2.3029   2.4122
     2.4657   2.5244   2.5402   2.7333   2.8935   2.9589   3.0111   3.0924
     3.2332   3.3182   3.6673   3.6794   3.7431   3.7853   3.9080   3.9848
     4.1249   4.3243   4.4151   4.4380   4.4964   4.5651   4.6058   4.6692
     4.7445   4.8043   4.8488   4.8892   4.9518   5.0109   5.1605   5.1669
     5.3404   5.3529   5.4691   5.6168   5.7941   5.8339   6.1975   6.2153
     6.5564   6.6393   6.6469   6.7597   6.8342   6.8650   6.9365   6.9834
     7.0255   7.0452   7.0678   7.0884   7.1650   7.1853   7.2100   7.2905
     7.3256   7.3845   7.7396   7.7459   7.7787   7.7831   7.8299   7.8568
    10.5252  10.5654  10.8934  10.9059  11.3347  11.3914  11.8760  11.9070
    11.9328  12.0982  12.2195  12.2392  12.4476  12.5487  12.6645  12.7256
    12.8619  13.0611  13.1438  13.3494  13.3603  13.3939  13.6929  13.7345
    15.2873  15.4120  15.7750  15.9598  16.0273  16.0499  16.1249  16.7021
    16.7156  16.8727  17.0381  17.5810  17.6869

          k = 0.1667 0.3154-0.5000 ( 62210 PWs)   bands (ev):

   -66.1077 -66.1077 -66.1075 -66.1075 -66.1068 -66.1068 -66.1066 -66.1066
   -30.5039 -30.5039 -30.5006 -30.5006 -30.4756 -30.4756 -30.4716 -30.4715
   -30.4445 -30.4445 -30.4375 -30.4375 -30.4042 -30.4042 -30.4004 -30.4004
   -30.3965 -30.3964 -30.3922 -30.3921 -30.3596 -30.3596 -30.3513 -30.3513
   -20.2641 -20.2640 -20.2640 -20.2640 -20.2640 -20.2639 -20.2639 -20.2639
   -20.2520 -20.2520 -20.2518 -20.2518 -20.2493 -20.2493 -20.2491 -20.2491
   -20.2439 -20.2439 -20.2438 -20.2438 -20.2433 -20.2433 -20.2432 -20.2432
   -20.2422 -20.2422 -20.2420 -20.2420 -20.2414 -20.2414 -20.2412 -20.2412
   -20.2336 -20.2336 -20.2334 -20.2334 -20.2328 -20.2328 -20.2326 -20.2326
   -20.2264 -20.2264 -20.2260 -20.2259 -20.2241 -20.2240 -20.2234 -20.2234
   -20.2230 -20.2230 -20.2224 -20.2224 -20.2205 -20.2205 -20.2198 -20.2198
    -9.4564  -9.4564  -9.3043  -9.3043  -8.9173  -8.9173  -8.6976  -8.6976
    -8.5620  -8.5620  -8.5412  -8.5412  -8.4656  -8.4656  -8.3852  -8.3852
    -8.1246  -8.1246  -8.0919  -8.0918  -7.7970  -7.7969  -7.7756  -7.7756
     1.6169   1.6169   1.6362   1.6362   2.3970   2.3970   2.5136   2.5137
     2.9957   2.9957   3.0845   3.0845   3.1080   3.1080   3.2924   3.2924
     3.3326   3.3326   3.4616   3.4616   3.5025   3.5026   3.7041   3.7041
     4.0871   4.0871   4.1132   4.1132   4.1646   4.1646   4.3934   4.3934
     4.7558   4.7558   4.8246   4.8246   5.0090   5.0090   5.0582   5.0583
     5.1597   5.1597   5.5351   5.5351   5.9028   5.9028   5.9146   5.9146
     6.6890   6.6890   6.8032   6.8032   6.8524   6.8524   6.8920   6.8920
     7.0361   7.0361   7.0888   7.0888   7.1895   7.1895   7.5335   7.5335
     7.5601   7.5601   7.5990   7.5991   7.6301   7.6301   7.8404   7.8404
    10.8758  10.8758  11.2625  11.2625  11.3143  11.3143  11.7850  11.7850
    12.0612  12.0613  12.2197  12.2198  12.5419  12.5419  12.6345  12.6345
    12.8005  12.8005  12.9445  12.9445  13.3126  13.3127  13.7079  13.7079
    15.3672  15.3672  15.9752  15.9752  16.3760  16.3760  16.4641  16.4641
    16.9069  16.9069  17.3200  17.3200  17.8820

          k = 0.1667-0.4732 0.1667 ( 62148 PWs)   bands (ev):

   -66.1081 -66.1080 -66.1072 -66.1072 -66.1072 -66.1071 -66.1063 -66.1063
   -30.4913 -30.4913 -30.4884 -30.4884 -30.4868 -30.4868 -30.4841 -30.4841
   -30.4470 -30.4469 -30.4425 -30.4425 -30.4397 -30.4397 -30.4352 -30.4351
   -30.3615 -30.3615 -30.3583 -30.3583 -30.3531 -30.3531 -30.3493 -30.3492
   -20.2641 -20.2641 -20.2640 -20.2640 -20.2640 -20.2639 -20.2639 -20.2639
   -20.2508 -20.2508 -20.2505 -20.2505 -20.2505 -20.2505 -20.2503 -20.2502
   -20.2440 -20.2440 -20.2436 -20.2436 -20.2435 -20.2435 -20.2429 -20.2428
   -20.2426 -20.2426 -20.2418 -20.2418 -20.2416 -20.2416 -20.2410 -20.2410
   -20.2339 -20.2339 -20.2333 -20.2333 -20.2329 -20.2329 -20.2323 -20.2322
   -20.2271 -20.2271 -20.2263 -20.2263 -20.2258 -20.2258 -20.2254 -20.2254
   -20.2210 -20.2210 -20.2203 -20.2202 -20.2200 -20.2200 -20.2193 -20.2193
    -9.6400  -9.6399  -9.2300  -9.2300  -9.2103  -9.2103  -8.9334  -8.9334
    -8.4895  -8.4894  -8.4220  -8.4220  -8.4192  -8.4192  -8.4142  -8.4142
    -7.8625  -7.8625  -7.8435  -7.8435  -7.7505  -7.7505  -7.7055  -7.7055
     1.4934   1.4934   1.5852   1.5852   1.5998   1.5998   1.9180   1.9180
     2.6374   2.6374   3.1738   3.1738   3.2431   3.2431   3.2754   3.2754
     3.3114   3.3114   3.3960   3.3960   3.5361   3.5361   3.5756   3.5756
     3.7473   3.7473   4.5161   4.5161   4.5657   4.5658   4.9509   4.9509
     5.0224   5.0224   5.1318   5.1319   5.1821   5.1822   5.4516   5.4516
     5.4875   5.4875   5.7715   5.7715   5.8043   5.8043   6.4421   6.4421
     6.5026   6.5026   6.5577   6.5577   6.7737   6.7737   6.9171   6.9171
     6.9476   6.9476   7.0992   7.0992   7.3036   7.3036   7.4667   7.4668
     7.4859   7.4859   7.5090   7.5090   7.5658   7.5658   7.8278   7.8278
     9.9423   9.9423  11.3815  11.3815  11.4346  11.4346  11.4713  11.4713
    11.4961  11.4962  12.2837  12.2837  12.3195  12.3195  12.9434  12.9435
    13.4107  13.4107  13.4246  13.4246  13.4526  13.4526  13.5785  13.5785
    15.5695  15.5695  15.6832  15.6832  15.9273  15.9273  15.9529  15.9529
    16.6830  16.6830  17.9172  17.9177  17.9443

          k = 0.1667-0.4732 0.3333 ( 62190 PWs)   bands (ev):

   -66.1079 -66.1079 -66.1074 -66.1074 -66.1070 -66.1070 -66.1065 -66.1065
   -30.4909 -30.4903 -30.4891 -30.4878 -30.4875 -30.4866 -30.4850 -30.4849
   -30.4460 -30.4434 -30.4390 -30.4365 -30.4284 -30.4247 -30.4214 -30.4169
   -30.3796 -30.3760 -30.3718 -30.3677 -30.3607 -30.3582 -30.3524 -30.3502
   -20.2641 -20.2641 -20.2640 -20.2640 -20.2640 -20.2639 -20.2639 -20.2639
   -20.2507 -20.2507 -20.2506 -20.2506 -20.2505 -20.2505 -20.2503 -20.2503
   -20.2439 -20.2439 -20.2437 -20.2437 -20.2435 -20.2434 -20.2430 -20.2430
   -20.2424 -20.2424 -20.2419 -20.2418 -20.2416 -20.2415 -20.2412 -20.2411
   -20.2338 -20.2337 -20.2334 -20.2331 -20.2331 -20.2328 -20.2325 -20.2324
   -20.2268 -20.2263 -20.2261 -20.2257 -20.2256 -20.2251 -20.2246 -20.2242
   -20.2223 -20.2216 -20.2213 -20.2209 -20.2206 -20.2202 -20.2200 -20.2195
    -9.5069  -9.5001  -9.2812  -9.2629  -8.9949  -8.9770  -8.8093  -8.8039
    -8.5284  -8.5266  -8.4462  -8.4437  -8.4075  -8.4062  -8.3948  -8.3924
    -8.1494  -8.1322  -8.0481  -8.0319  -7.8331  -7.8152  -7.7583  -7.7405
     1.6018   1.6165   1.6212   1.6365   2.2606   2.2736   2.4436   2.4554
     2.9065   2.9110   3.1738   3.1971   3.2501   3.2516   3.2588   3.2866
     3.3096   3.3285   3.4506   3.4889   3.5228   3.5668   3.6904   3.7044
     3.7878   3.8006   3.9128   3.9801   4.4654   4.5131   4.6365   4.6419
     4.6925   4.7375   4.7954   4.8179   4.9947   5.0244   5.0351   5.0904
     5.1677   5.2259   5.3552   5.4307   5.7988   5.8162   6.2089   6.2140
     6.6346   6.6472   6.7122   6.7349   6.8719   6.8944   7.0329   7.0931
     7.1159   7.1523   7.1862   7.2205   7.2271   7.2352   7.4387   7.4643
     7.4674   7.4880   7.4975   7.5139   7.5276   7.5563   7.7868   7.7899
    10.5498  10.5592  11.4077  11.4267  11.4502  11.4670  11.7830  11.7987
    11.8093  11.8298  11.9153  11.9699  12.4484  12.5065  12.7462  12.7699
    12.9498  12.9791  13.1286  13.2058  13.4281  13.4546  13.4823  13.5362
    15.6584  15.6893  15.8664  15.8946  16.2563  16.2891  16.6360  16.6677
    16.8696  16.8746  17.4305  17.4741  17.8440

          k = 0.1667-0.4732-0.5000 ( 62192 PWs)   bands (ev):

   -66.1076 -66.1076 -66.1076 -66.1076 -66.1067 -66.1067 -66.1067 -66.1067
   -30.4902 -30.4901 -30.4890 -30.4890 -30.4863 -30.4863 -30.4858 -30.4858
   -30.4447 -30.4447 -30.4377 -30.4377 -30.4042 -30.4042 -30.4004 -30.4004
   -30.3965 -30.3965 -30.3922 -30.3922 -30.3595 -30.3595 -30.3514 -30.3513
   -20.2641 -20.2640 -20.2640 -20.2640 -20.2640 -20.2639 -20.2639 -20.2639
   -20.2507 -20.2507 -20.2507 -20.2506 -20.2504 -20.2504 -20.2504 -20.2504
   -20.2438 -20.2438 -20.2438 -20.2438 -20.2433 -20.2433 -20.2431 -20.2431
   -20.2422 -20.2421 -20.2421 -20.2421 -20.2414 -20.2414 -20.2413 -20.2413
   -20.2336 -20.2336 -20.2334 -20.2334 -20.2328 -20.2328 -20.2326 -20.2326
   -20.2264 -20.2264 -20.2260 -20.2259 -20.2241 -20.2240 -20.2234 -20.2234
   -20.2230 -20.2230 -20.2224 -20.2224 -20.2205 -20.2205 -20.2198 -20.2198
    -9.3729  -9.3729  -9.3583  -9.3583  -8.6990  -8.6989  -8.6849  -8.6849
    -8.5812  -8.5811  -8.5702  -8.5702  -8.3743  -8.3743  -8.3588  -8.3588
    -8.3117  -8.3116  -8.2956  -8.2955  -7.7956  -7.7956  -7.7775  -7.7775
     1.6213   1.6213   1.6375   1.6375   3.0015   3.0015   3.0411   3.0411
     3.1508   3.1508   3.1742   3.1742   3.2309   3.2309   3.2930   3.2930
     3.3177   3.3177   3.4271   3.4271   3.5045   3.5045   3.5506   3.5507
     3.6226   3.6227   3.7313   3.7313   4.3184   4.3184   4.3395   4.3396
     4.4137   4.4137   4.4532   4.4533   4.8983   4.8983   5.0790   5.0791
     5.1588   5.1588   5.3210   5.3211   5.9045   5.9045   5.9162   5.9162
     6.7665   6.7666   6.8074   6.8074   6.8906   6.8906   6.9274   6.9274
     7.2870   7.2870   7.3221   7.3221   7.3728   7.3728   7.4262   7.4262
     7.4654   7.4655   7.5179   7.5179   7.6035   7.6035   7.6303   7.6304
    11.2363  11.2363  11.2679  11.2679  11.4419  11.4419  11.5011  11.5011
    12.2760  12.2760  12.3184  12.3184  12.3405  12.3405  12.3816  12.3816
    12.7714  12.7714  12.8416  12.8416  13.4434  13.4434  13.4891  13.4891
    15.7700  15.7701  15.8020  15.8020  16.9299  16.9299  16.9633  16.9633
    17.3316  17.3316  17.3669  17.3669  17.4497

          k = 0.3333 0.0000 0.3333 ( 62256 PWs)   bands (ev):

   -66.1079 -66.1075 -66.1074 -66.1074 -66.1070 -66.1070 -66.1069 -66.1065
   -30.5188 -30.5168 -30.5168 -30.5149 -30.4624 -30.4597 -30.4596 -30.4567
   -30.4298 -30.4273 -30.4255 -30.4246 -30.4205 -30.4197 -30.4172 -30.4166
   -30.3792 -30.3788 -30.3779 -30.3766 -30.3702 -30.3698 -30.3685 -30.3673
   -20.2641 -20.2640 -20.2640 -20.2640 -20.2640 -20.2640 -20.2639 -20.2639
   -20.2534 -20.2532 -20.2532 -20.2531 -20.2480 -20.2479 -20.2478 -20.2477
   -20.2440 -20.2439 -20.2437 -20.2437 -20.2436 -20.2436 -20.2433 -20.2432
   -20.2422 -20.2418 -20.2417 -20.2417 -20.2414 -20.2414 -20.2413 -20.2410
   -20.2337 -20.2334 -20.2333 -20.2332 -20.2330 -20.2329 -20.2327 -20.2325
   -20.2256 -20.2256 -20.2251 -20.2251 -20.2247 -20.2247 -20.2244 -20.2244
   -20.2222 -20.2221 -20.2216 -20.2215 -20.2213 -20.2213 -20.2209 -20.2208
    -9.5786  -9.3480  -9.3471  -9.2104  -9.1389  -8.9318  -8.9294  -8.7528
    -8.7207  -8.7057  -8.7004  -8.6979  -8.2005  -8.1486  -8.1457  -8.1310
    -8.1292  -8.1177  -8.0152  -7.9956  -7.7979  -7.7732  -7.7731  -7.7484
     1.5240   1.5645   1.5648   1.6048   2.1909   2.1986   2.2980   2.3039
     2.3364   2.3401   2.5410   2.6441   2.9430   2.9549   2.9925   3.0407
     3.2469   3.2770   3.8067   3.8174   3.9316   3.9339   4.1389   4.1520
     4.1627   4.1702   4.2653   4.3516   4.4410   4.4587   4.5251   4.5511
     4.8598   4.9008   4.9543   4.9914   5.0692   5.0820   5.1981   5.4377
     5.4422   5.5351   5.5374   5.6474   5.8884   5.8989   5.8991   6.0587
     6.4718   6.4728   6.4961   6.4978   6.5427   6.5734   6.5828   6.6363
     7.0110   7.1986   7.2073   7.2308   7.2392   7.3402   7.3800   7.3859
     7.4387   7.5156   7.7386   7.7478   7.9145   7.9825   7.9974   8.0351
    10.7571  10.8912  10.9207  10.9290  11.0056  11.2363  12.0623  12.0684
    12.1110  12.1170  12.2078  12.3108  12.5512  12.5579  12.7532  12.8318
    12.8528  12.8699  13.0098  13.0747  13.5970  13.6689  13.6705  13.7682
    14.4996  14.7692  14.7716  15.2317  15.8325  16.3255  16.3699  16.7463
    16.7707  17.1798  17.2035  17.7793  17.8130

          k = 0.3333 0.0000-0.5000 ( 62228 PWs)   bands (ev):

   -66.1076 -66.1076 -66.1072 -66.1072 -66.1071 -66.1071 -66.1067 -66.1067
   -30.5179 -30.5179 -30.5160 -30.5159 -30.4609 -30.4609 -30.4580 -30.4580
   -30.4268 -30.4268 -30.4192 -30.4191 -30.4031 -30.4031 -30.4014 -30.4013
   -30.3955 -30.3955 -30.3928 -30.3928 -30.3775 -30.3775 -30.3692 -30.3691
   -20.2641 -20.2640 -20.2640 -20.2640 -20.2640 -20.2640 -20.2639 -20.2639
   -20.2533 -20.2533 -20.2532 -20.2532 -20.2480 -20.2480 -20.2478 -20.2478
   -20.2439 -20.2439 -20.2437 -20.2437 -20.2435 -20.2435 -20.2434 -20.2433
   -20.2420 -20.2420 -20.2416 -20.2416 -20.2415 -20.2415 -20.2412 -20.2412
   -20.2334 -20.2334 -20.2332 -20.2332 -20.2330 -20.2329 -20.2328 -20.2327
   -20.2253 -20.2252 -20.2247 -20.2247 -20.2238 -20.2238 -20.2232 -20.2232
   -20.2232 -20.2232 -20.2227 -20.2227 -20.2218 -20.2218 -20.2211 -20.2211
    -9.4415  -9.4415  -9.2140  -9.2140  -9.0312  -9.0312  -8.7241  -8.7241
    -8.5844  -8.5844  -8.5145  -8.5145  -8.4504  -8.4503  -8.4150  -8.4150
    -8.0994  -8.0994  -8.0815  -8.0815  -7.7860  -7.7860  -7.7611  -7.7611
     1.5436   1.5436   1.5856   1.5856   2.3175   2.3175   2.3464   2.3465
     2.9383   2.9383   3.0408   3.0408   3.0762   3.0763   3.2421   3.2421
     3.3533   3.3533   3.6143   3.6143   3.7550   3.7550   3.8844   3.8844
     3.8971   3.8971   4.0739   4.0740   4.2259   4.2259   4.3920   4.3921
     4.7316   4.7316   4.9371   4.9371   5.0728   5.0728   5.1473   5.1473
     5.2867   5.2867   5.5325   5.5325   5.9206   5.9206   6.0172   6.0172
     6.4212   6.4212   6.4380   6.4380   6.4857   6.4857   6.5972   6.5972
     7.1855   7.1855   7.3304   7.3304   7.4172   7.4173   7.5744   7.5744
     7.6025   7.6026   7.7203   7.7203   7.7638   7.7638   8.0024   8.0024
    10.9124  10.9125  11.4634  11.4634  11.5522  11.5522  11.6525  11.6525
    11.8884  11.8884  12.2747  12.2747  12.4160  12.4160  12.6675  12.6675
    12.8765  12.8765  13.2284  13.2284  13.2700  13.2700  13.6822  13.6822
    14.6733  14.6733  15.0502  15.0502  16.2912  16.2912  16.7472  16.7472
    17.0995  17.0995  17.5057  17.5057  17.9360

          k = 0.3333 0.1577 0.3333 ( 62227 PWs)   bands (ev):

   -66.1079 -66.1075 -66.1074 -66.1073 -66.1070 -66.1070 -66.1068 -66.1065
   -30.5149 -30.5130 -30.5130 -30.5110 -30.4659 -30.4634 -30.4633 -30.4606
   -30.4296 -30.4275 -30.4256 -30.4249 -30.4205 -30.4198 -30.4173 -30.4168
   -30.3791 -30.3788 -30.3779 -30.3767 -30.3703 -30.3699 -30.3685 -30.3674
   -20.2641 -20.2640 -20.2640 -20.2640 -20.2640 -20.2640 -20.2639 -20.2639
   -20.2530 -20.2529 -20.2529 -20.2527 -20.2484 -20.2482 -20.2482 -20.2481
   -20.2440 -20.2439 -20.2437 -20.2436 -20.2436 -20.2435 -20.2433 -20.2432
   -20.2422 -20.2419 -20.2418 -20.2418 -20.2415 -20.2414 -20.2413 -20.2410
   -20.2336 -20.2335 -20.2332 -20.2332 -20.2330 -20.2329 -20.2327 -20.2325
   -20.2256 -20.2256 -20.2251 -20.2251 -20.2247 -20.2247 -20.2244 -20.2244
   -20.2222 -20.2221 -20.2216 -20.2215 -20.2213 -20.2213 -20.2209 -20.2208
    -9.5375  -9.2957  -9.2947  -9.2223  -9.0672  -8.9409  -8.9385  -8.7205
    -8.7195  -8.7036  -8.6786  -8.6769  -8.2179  -8.1486  -8.1471  -8.1356
    -8.1273  -8.1199  -8.0143  -7.9969  -7.8903  -7.8662  -7.8661  -7.8403
     1.7500   1.7862   1.7865   1.8305   2.1915   2.1982   2.2976   2.3032
     2.3482   2.3506   2.5430   2.6551   3.0145   3.0273   3.0673   3.0859
[...]
    11.0146  11.0146  11.4808  11.4808  11.5621  11.5621  11.7134  11.7134
    11.9389  11.9389  12.2953  12.2953  12.4115  12.4115  12.6733  12.6733
    12.7596  12.7596  13.1110  13.1111  13.1543  13.1543  13.5792  13.5793
    15.0364  15.0364  15.4313  15.4313  16.3769  16.3770  16.7478  16.7479
    17.1025  17.1025  17.5139  17.5140  17.7985

          k = 0.3333 0.3154 0.3333 ( 62204 PWs)   bands (ev):

   -66.1078 -66.1076 -66.1073 -66.1073 -66.1071 -66.1071 -66.1068 -66.1066
   -30.5044 -30.5024 -30.5024 -30.5004 -30.4759 -30.4736 -30.4736 -30.4712
   -30.4292 -30.4280 -30.4258 -30.4254 -30.4206 -30.4201 -30.4175 -30.4172
   -30.3789 -30.3787 -30.3777 -30.3770 -30.3703 -30.3701 -30.3684 -30.3678
   -20.2641 -20.2640 -20.2640 -20.2640 -20.2640 -20.2639 -20.2639 -20.2639
   -20.2520 -20.2519 -20.2519 -20.2518 -20.2494 -20.2492 -20.2492 -20.2491
   -20.2439 -20.2438 -20.2436 -20.2436 -20.2435 -20.2435 -20.2432 -20.2431
   -20.2422 -20.2420 -20.2418 -20.2418 -20.2416 -20.2415 -20.2414 -20.2412
   -20.2336 -20.2335 -20.2332 -20.2332 -20.2330 -20.2330 -20.2327 -20.2326
   -20.2256 -20.2256 -20.2251 -20.2251 -20.2247 -20.2247 -20.2244 -20.2244
   -20.2222 -20.2221 -20.2215 -20.2215 -20.2213 -20.2213 -20.2208 -20.2208
    -9.4378  -9.2610  -9.1684  -9.1671  -8.9729  -8.9705  -8.8664  -8.7172
    -8.7068  -8.6044  -8.5957  -8.5942  -8.3173  -8.1959  -8.1939  -8.1355
    -8.1333  -8.1204  -8.1139  -8.0595  -8.0571  -8.0221  -8.0062  -7.9999
     2.1865   2.1918   2.2194   2.2248   2.2921   2.2963   2.3090   2.4142
     2.5352   2.5473   2.5519   2.7664   3.1685   3.2271   3.2374   3.2753
     3.2988   3.3484   3.6640   3.7008   3.7330   3.8019   4.0732   4.0862
     4.1126   4.1795   4.1801   4.3031   4.3507   4.4012   4.4054   4.4936
     4.5341   4.5659   4.5777   4.6438   4.7516   4.8688   4.8944   4.9255
     4.9336   4.9394   5.1538   5.2752   5.3163   5.3263   5.5550   5.5575
     6.8238   6.8350   6.8417   6.9047   6.9706   7.0197   7.0320   7.0600
     7.1084   7.1792   7.1933   7.2519   7.2573   7.3129   7.3646   7.3647
     7.4463   7.4715   7.6878   7.7198   7.7564   7.7645   7.7648   7.8332
    10.8962  10.9634  11.3012  11.3412  11.3540  11.5144  12.0358  12.0456
    12.0895  12.1102  12.1142  12.2527  12.3879  12.4004  12.6050  12.6736
    12.7552  12.7581  12.8036  13.0820  13.2376  13.2984  13.3005  13.4502
    15.7046  15.9230  15.9275  16.2570  16.3467  16.3566  16.6016  16.8558
    16.8650  16.9484  17.2108  17.2264  17.7031

          k = 0.3333 0.3154-0.5000 ( 62208 PWs)   bands (ev):

   -66.1075 -66.1075 -66.1073 -66.1073 -66.1070 -66.1070 -66.1068 -66.1068
   -30.5034 -30.5034 -30.5014 -30.5014 -30.4748 -30.4747 -30.4724 -30.4724
   -30.4270 -30.4270 -30.4195 -30.4195 -30.4031 -30.4031 -30.4014 -30.4014
   -30.3957 -30.3957 -30.3930 -30.3930 -30.3774 -30.3774 -30.3694 -30.3693
   -20.2641 -20.2640 -20.2640 -20.2640 -20.2640 -20.2640 -20.2639 -20.2639
   -20.2520 -20.2520 -20.2518 -20.2518 -20.2493 -20.2493 -20.2492 -20.2491
   -20.2438 -20.2437 -20.2437 -20.2436 -20.2434 -20.2434 -20.2433 -20.2433
   -20.2420 -20.2420 -20.2418 -20.2418 -20.2416 -20.2415 -20.2414 -20.2413
   -20.2334 -20.2334 -20.2333 -20.2332 -20.2329 -20.2329 -20.2328 -20.2328
   -20.2253 -20.2252 -20.2247 -20.2247 -20.2238 -20.2238 -20.2232 -20.2232
   -20.2232 -20.2232 -20.2227 -20.2227 -20.2218 -20.2218 -20.2211 -20.2211
    -9.2758  -9.2757  -9.0795  -9.0795  -8.9689  -8.9689  -8.6471  -8.6471
    -8.6020  -8.6020  -8.5071  -8.5071  -8.4404  -8.4404  -8.3939  -8.3939
    -8.1461  -8.1461  -8.1138  -8.1137  -8.0824  -8.0824  -8.0359  -8.0359
     2.2382   2.2382   2.3128   2.3128   2.4079   2.4079   2.5297   2.5297
     3.0584   3.0584   3.1108   3.1109   3.2112   3.2113   3.2908   3.2908
     3.3810   3.3810   3.6256   3.6256   3.7306   3.7306   3.8233   3.8233
     4.0646   4.0646   4.1202   4.1202   4.1618   4.1618   4.2710   4.2710
     4.3538   4.3538   4.4866   4.4866   4.6445   4.6446   4.8680   4.8680
     4.9833   4.9833   5.0379   5.0379   5.0939   5.0939   5.3134   5.3134
     6.8687   6.8687   6.9255   6.9255   6.9892   6.9892   7.0526   7.0526
     7.1992   7.1993   7.3039   7.3039   7.4162   7.4162   7.5266   7.5266
     7.5659   7.5659   7.6279   7.6279   7.6579   7.6579   7.7896   7.7896
    11.2826  11.2826  11.5080  11.5080  11.5983  11.5983  11.8824  11.8824
    12.1027  12.1027  12.3294  12.3294  12.3815  12.3815  12.4087  12.4087
    12.7324  12.7324  12.8325  12.8325  12.9236  12.9236  13.3274  13.3274
    15.8723  15.8723  16.3646  16.3646  16.6379  16.6379  16.7281  16.7282
    17.1279  17.1279  17.3861  17.3861  17.6732

          k = 0.3333-0.4732 0.3333 ( 62206 PWs)   bands (ev):

   -66.1077 -66.1077 -66.1072 -66.1072 -66.1072 -66.1071 -66.1067 -66.1067
   -30.4900 -30.4900 -30.4883 -30.4883 -30.4875 -30.4875 -30.4858 -30.4858
   -30.4286 -30.4286 -30.4257 -30.4257 -30.4204 -30.4204 -30.4175 -30.4175
   -30.3788 -30.3787 -30.3774 -30.3774 -30.3702 -30.3702 -30.3681 -30.3681
   -20.2641 -20.2640 -20.2640 -20.2640 -20.2640 -20.2639 -20.2639 -20.2639
   -20.2507 -20.2507 -20.2506 -20.2506 -20.2505 -20.2505 -20.2504 -20.2504
   -20.2438 -20.2438 -20.2436 -20.2436 -20.2435 -20.2435 -20.2431 -20.2431
   -20.2422 -20.2422 -20.2418 -20.2418 -20.2417 -20.2416 -20.2413 -20.2413
   -20.2336 -20.2335 -20.2332 -20.2332 -20.2330 -20.2330 -20.2326 -20.2326
   -20.2256 -20.2256 -20.2251 -20.2251 -20.2247 -20.2247 -20.2244 -20.2244
   -20.2222 -20.2221 -20.2215 -20.2215 -20.2214 -20.2213 -20.2208 -20.2208
    -9.3335  -9.3335  -9.0514  -9.0514  -9.0353  -9.0353  -8.7163  -8.7162
    -8.5743  -8.5743  -8.4170  -8.4169  -8.4127  -8.4126  -8.3944  -8.3944
    -8.1248  -8.1248  -8.1056  -8.1056  -8.1000  -8.1000  -8.0046  -8.0046
     2.1931   2.1931   2.2796   2.2796   2.2939   2.2940   2.5184   2.5184
     3.1486   3.1486   3.2022   3.2022   3.2570   3.2570   3.2813   3.2813
     3.3644   3.3644   3.5641   3.5641   3.6529   3.6529   3.6930   3.6930
     3.8129   3.8129   4.0982   4.0982   4.2236   4.2236   4.4377   4.4377
     4.5459   4.5460   4.6583   4.6583   4.7365   4.7365   4.7837   4.7837
     4.8916   4.8916   4.9991   4.9991   5.0173   5.0173   5.5502   5.5502
     6.9409   6.9409   7.0575   7.0575   7.0934   7.0934   7.1661   7.1661
     7.2446   7.2446   7.2761   7.2761   7.3024   7.3024   7.4319   7.4319
     7.4681   7.4681   7.5309   7.5310   7.5749   7.5749   7.7573   7.7573
    10.9451  10.9451  11.7074  11.7074  11.7545  11.7545  11.8015  11.8015
    11.9005  11.9005  12.0995  12.0995  12.2143  12.2143  12.6265  12.6265
    12.9289  12.9289  12.9755  12.9755  13.0233  13.0233  13.2332  13.2332
    16.3328  16.3328  16.4191  16.4191  16.5844  16.5844  16.6331  16.6331
    16.9989  16.9989  17.5150  17.5150  17.5947

          k = 0.3333-0.4732-0.5000 ( 62136 PWs)   bands (ev):

   -66.1074 -66.1074 -66.1074 -66.1074 -66.1069 -66.1069 -66.1069 -66.1069
   -30.4893 -30.4893 -30.4887 -30.4887 -30.4871 -30.4871 -30.4867 -30.4867
   -30.4270 -30.4270 -30.4196 -30.4196 -30.4031 -30.4031 -30.4014 -30.4014
   -30.3958 -30.3958 -30.3931 -30.3931 -30.3774 -30.3774 -30.3694 -30.3694
   -20.2640 -20.2640 -20.2640 -20.2640 -20.2640 -20.2640 -20.2639 -20.2639
   -20.2507 -20.2507 -20.2506 -20.2506 -20.2505 -20.2505 -20.2505 -20.2505
   -20.2437 -20.2437 -20.2437 -20.2436 -20.2434 -20.2433 -20.2433 -20.2433
   -20.2420 -20.2420 -20.2419 -20.2419 -20.2415 -20.2415 -20.2415 -20.2414
   -20.2334 -20.2334 -20.2333 -20.2333 -20.2329 -20.2329 -20.2328 -20.2328
   -20.2253 -20.2252 -20.2247 -20.2247 -20.2238 -20.2238 -20.2232 -20.2232
   -20.2232 -20.2232 -20.2227 -20.2227 -20.2218 -20.2218 -20.2211 -20.2211
    -9.1612  -9.1612  -9.1506  -9.1506  -8.7634  -8.7633  -8.7514  -8.7514
    -8.5212  -8.5212  -8.5120  -8.5120  -8.3676  -8.3676  -8.3545  -8.3544
    -8.3162  -8.3162  -8.3021  -8.3021  -8.0852  -8.0852  -8.0687  -8.0686
     2.2978   2.2979   2.3126   2.3126   3.0108   3.0108   3.0372   3.0372
     3.1452   3.1452   3.1605   3.1605   3.2835   3.2835   3.3105   3.3105
     3.4035   3.4035   3.4423   3.4423   3.6581   3.6581   3.6905   3.6905
     3.8021   3.8021   3.8680   3.8680   4.2719   4.2719   4.3063   4.3063
     4.3638   4.3638   4.4213   4.4213   4.4909   4.4909   4.6007   4.6007
     4.6808   4.6808   4.8385   4.8385   5.0991   5.0991   5.1163   5.1163
     7.0359   7.0360   7.0851   7.0851   7.2053   7.2053   7.2144   7.2144
     7.2937   7.2937   7.3338   7.3338   7.3665   7.3665   7.4247   7.4247
     7.5027   7.5027   7.5685   7.5685   7.6301   7.6301   7.6545   7.6545
    11.4651  11.4651  11.4976  11.4976  11.7910  11.7910  11.8634  11.8634
    12.2163  12.2163  12.2587  12.2587  12.3602  12.3602  12.3853  12.3853
    12.5386  12.5386  12.6384  12.6384  13.0131  13.0131  13.0896  13.0896
    16.4894  16.4894  16.5390  16.5390  17.0852  17.0852  17.1086  17.1086
    17.3353  17.3354  17.3913  17.3918  17.4257

          k =-0.5000 0.0000-0.5000 ( 62260 PWs)   bands (ev):

   -66.1074 -66.1074 -66.1074 -66.1074 -66.1070 -66.1070 -66.1070 -66.1070
   -30.5170 -30.5170 -30.5170 -30.5170 -30.4594 -30.4594 -30.4593 -30.4593
   -30.4044 -30.4044 -30.4044 -30.4044 -30.4022 -30.4022 -30.4015 -30.4015
   -30.3944 -30.3944 -30.3934 -30.3934 -30.3930 -30.3929 -30.3925 -30.3925
   -20.2641 -20.2640 -20.2640 -20.2640 -20.2640 -20.2640 -20.2639 -20.2639
   -20.2533 -20.2532 -20.2532 -20.2532 -20.2479 -20.2479 -20.2479 -20.2479
   -20.2438 -20.2438 -20.2437 -20.2436 -20.2436 -20.2436 -20.2435 -20.2434
   -20.2418 -20.2418 -20.2417 -20.2417 -20.2414 -20.2414 -20.2414 -20.2413
   -20.2332 -20.2332 -20.2332 -20.2332 -20.2330 -20.2330 -20.2330 -20.2330
   -20.2237 -20.2237 -20.2237 -20.2236 -20.2236 -20.2236 -20.2236 -20.2235
   -20.2229 -20.2229 -20.2228 -20.2228 -20.2228 -20.2228 -20.2227 -20.2227
    -9.3013  -9.3013  -9.3002  -9.3002  -8.7457  -8.7457  -8.7387  -8.7387
    -8.5553  -8.5553  -8.5456  -8.5456  -8.3784  -8.3784  -8.3707  -8.3706
    -8.3570  -8.3570  -8.3466  -8.3465  -7.7740  -7.7740  -7.7739  -7.7739
     1.5646   1.5647   1.5652   1.5653   2.9537   2.9537   2.9577   2.9577
     3.1121   3.1121   3.1176   3.1176   3.1547   3.1547   3.1693   3.1693
     3.3671   3.3671   3.3693   3.3693   3.7974   3.7974   3.8316   3.8316
     3.8632   3.8632   3.9037   3.9037   4.2339   4.2339   4.2387   4.2387
     4.3289   4.3289   4.3394   4.3394   4.9355   4.9355   4.9401   4.9401
     5.3838   5.3838   5.3889   5.3889   6.0048   6.0048   6.0051   6.0051
     6.4093   6.4093   6.4116   6.4116   6.4547   6.4547   6.4609   6.4609
     7.4925   7.4925   7.4967   7.4968   7.5371   7.5371   7.5493   7.5493
     7.6455   7.6455   7.6502   7.6502   7.8377   7.8377   7.8518   7.8518
    11.5662  11.5662  11.5830  11.5830  11.6591  11.6591  11.6714  11.6714
    11.9929  11.9929  11.9994  11.9994  12.2012  12.2012  12.2044  12.2044
    13.1448  13.1448  13.1564  13.1564  13.3118  13.3118  13.3223  13.3223
    14.9051  14.9051  14.9064  14.9065  16.7438  16.7438  16.7589  16.7589
    17.7443  17.7443  17.7472  17.7472  17.8977

          k =-0.5000 0.1577-0.5000 ( 62196 PWs)   bands (ev):

   -66.1074 -66.1074 -66.1073 -66.1073 -66.1070 -66.1070 -66.1070 -66.1070
   -30.5132 -30.5131 -30.5131 -30.5131 -30.4632 -30.4632 -30.4631 -30.4631
   -30.4043 -30.4042 -30.4042 -30.4042 -30.4024 -30.4023 -30.4017 -30.4017
   -30.3944 -30.3943 -30.3935 -30.3934 -30.3931 -30.3930 -30.3927 -30.3927
   -20.2641 -20.2640 -20.2640 -20.2640 -20.2640 -20.2640 -20.2639 -20.2639
   -20.2529 -20.2529 -20.2529 -20.2529 -20.2483 -20.2483 -20.2482 -20.2482
   -20.2437 -20.2437 -20.2436 -20.2436 -20.2436 -20.2435 -20.2434 -20.2434
   -20.2418 -20.2418 -20.2417 -20.2417 -20.2415 -20.2414 -20.2414 -20.2414
   -20.2332 -20.2332 -20.2332 -20.2331 -20.2330 -20.2330 -20.2330 -20.2330
   -20.2237 -20.2237 -20.2237 -20.2236 -20.2236 -20.2236 -20.2236 -20.2235
   -20.2229 -20.2229 -20.2228 -20.2228 -20.2228 -20.2228 -20.2227 -20.2227
    -9.2412  -9.2412  -9.2399  -9.2399  -8.7582  -8.7582  -8.7515  -8.7515
    -8.5410  -8.5410  -8.5311  -8.5311  -8.3776  -8.3776  -8.3702  -8.3702
    -8.3577  -8.3577  -8.3469  -8.3469  -7.8683  -7.8683  -7.8682  -7.8682
     1.7947   1.7947   1.7953   1.7953   2.9709   2.9709   2.9760   2.9760
     3.1191   3.1191   3.1222   3.1223   3.1788   3.1788   3.1927   3.1927
     3.3583   3.3583   3.3609   3.3609   3.8392   3.8393   3.8706   3.8706
     3.9096   3.9096   3.9473   3.9473   4.2213   4.2213   4.2257   4.2257
     4.3303   4.3303   4.3408   4.3408   4.7182   4.7182   4.7223   4.7223
     5.1495   5.1495   5.1530   5.1530   5.7390   5.7390   5.7394   5.7394
     6.5944   6.5945   6.6018   6.6018   6.6396   6.6396   6.6442   6.6442
     7.4817   7.4817   7.4862   7.4862   7.5280   7.5281   7.5413   7.5413
     7.6313   7.6313   7.6339   7.6339   7.8058   7.8058   7.8165   7.8165
    11.6190  11.6190  11.6336  11.6337  11.7176  11.7176  11.7287  11.7287
    11.9984  11.9984  12.0047  12.0047  12.2256  12.2256  12.2283  12.2283
    13.0194  13.0194  13.0299  13.0299  13.1954  13.1955  13.2047  13.2047
    15.2878  15.2879  15.2892  15.2892  16.8089  16.8089  16.8230  16.8230
    17.6779  17.6779  17.6868  17.6868  17.9009

          k =-0.5000 0.3154-0.5000 ( 62172 PWs)   bands (ev):

   -66.1073 -66.1073 -66.1073 -66.1073 -66.1071 -66.1071 -66.1071 -66.1071
   -30.5025 -30.5025 -30.5025 -30.5025 -30.4736 -30.4736 -30.4736 -30.4735
   -30.4038 -30.4038 -30.4038 -30.4037 -30.4028 -30.4027 -30.4023 -30.4023
   -30.3941 -30.3941 -30.3936 -30.3935 -30.3933 -30.3933 -30.3931 -30.3931
   -20.2640 -20.2640 -20.2640 -20.2640 -20.2640 -20.2640 -20.2639 -20.2639
   -20.2520 -20.2519 -20.2519 -20.2519 -20.2493 -20.2492 -20.2492 -20.2492
   -20.2436 -20.2436 -20.2436 -20.2435 -20.2435 -20.2435 -20.2434 -20.2434
   -20.2418 -20.2418 -20.2417 -20.2417 -20.2416 -20.2416 -20.2415 -20.2415
   -20.2332 -20.2331 -20.2331 -20.2331 -20.2331 -20.2330 -20.2330 -20.2330
   -20.2237 -20.2237 -20.2237 -20.2236 -20.2236 -20.2236 -20.2236 -20.2236
   -20.2229 -20.2229 -20.2228 -20.2228 -20.2228 -20.2228 -20.2228 -20.2227
    -9.0850  -9.0850  -9.0829  -9.0829  -8.8041  -8.8040  -8.7984  -8.7984
    -8.4881  -8.4881  -8.4774  -8.4774  -8.3762  -8.3762  -8.3702  -8.3702
    -8.3580  -8.3580  -8.3459  -8.3459  -8.0959  -8.0959  -8.0951  -8.0951
     2.4078   2.4078   2.4084   2.4084   3.0101   3.0101   3.0178   3.0178
     3.1111   3.1111   3.1127   3.1127   3.2592   3.2592   3.2758   3.2758
     3.3240   3.3240   3.3305   3.3305   3.9662   3.9662   4.0036   4.0036
     4.0049   4.0049   4.0252   4.0252   4.0995   4.0995   4.1231   4.1231
     4.3374   4.3374   4.3537   4.3537   4.3800   4.3800   4.3803   4.3803
     4.7453   4.7453   4.7454   4.7454   5.0554   5.0554   5.0571   5.0571
     6.9243   6.9243   6.9350   6.9350   7.0250   7.0251   7.0341   7.0341
     7.4210   7.4211   7.4241   7.4241   7.4915   7.4915   7.5043   7.5043
     7.6079   7.6080   7.6083   7.6083   7.7132   7.7133   7.7193   7.7193
    11.7476  11.7476  11.7534  11.7534  11.8406  11.8406  11.8457  11.8457
    12.0590  12.0590  12.0627  12.0627  12.3227  12.3227  12.3248  12.3248
    12.7057  12.7057  12.7142  12.7142  12.9026  12.9026  12.9087  12.9087
    16.2272  16.2272  16.2284  16.2285  16.9915  16.9915  17.0015  17.0015
    17.4796  17.4796  17.4984  17.4984  17.9036

          k =-0.5000-0.4732-0.5000 ( 62208 PWs)   bands (ev):

   -66.1072 -66.1072 -66.1072 -66.1072 -66.1072 -66.1072 -66.1071 -66.1071
   -30.4883 -30.4882 -30.4880 -30.4880 -30.4880 -30.4879 -30.4878 -30.4878
   -30.4033 -30.4033 -30.4033 -30.4032 -30.4032 -30.4032 -30.4029 -30.4029
   -30.3937 -30.3937 -30.3936 -30.3936 -30.3935 -30.3935 -30.3935 -30.3935
   -20.2640 -20.2640 -20.2640 -20.2640 -20.2640 -20.2640 -20.2640 -20.2640
   -20.2506 -20.2506 -20.2506 -20.2506 -20.2506 -20.2506 -20.2506 -20.2505
   -20.2435 -20.2435 -20.2435 -20.2435 -20.2435 -20.2435 -20.2435 -20.2435
   -20.2417 -20.2417 -20.2417 -20.2417 -20.2417 -20.2417 -20.2417 -20.2417
   -20.2331 -20.2331 -20.2331 -20.2331 -20.2331 -20.2331 -20.2331 -20.2331
   -20.2237 -20.2237 -20.2237 -20.2237 -20.2236 -20.2236 -20.2236 -20.2236
   -20.2229 -20.2229 -20.2228 -20.2228 -20.2228 -20.2228 -20.2228 -20.2227
    -8.9174  -8.9173  -8.9076  -8.9075  -8.9075  -8.9075  -8.9053  -8.9053
    -8.3997  -8.3997  -8.3854  -8.3854  -8.3854  -8.3854  -8.3821  -8.3821
    -8.3167  -8.3167  -8.3167  -8.3167  -8.3132  -8.3132  -8.3012  -8.3011
     3.0064   3.0064   3.0124   3.0124   3.0124   3.0124   3.0231   3.0232
     3.1746   3.1746   3.1837   3.1837   3.1837   3.1837   3.1996   3.1997
     3.4162   3.4162   3.4776   3.4776   3.4776   3.4776   3.5187   3.5188
     4.1690   4.1690   4.1821   4.1821   4.1821   4.1821   4.1845   4.1845
     4.3971   4.3971   4.3971   4.3972   4.4078   4.4078   4.4108   4.4108
     4.4840   4.4840   4.5037   4.5037   4.5037   4.5037   4.5056   4.5056
     7.1602   7.1602   7.2182   7.2182   7.2182   7.2183   7.2891   7.2892
     7.3526   7.3526   7.3611   7.3611   7.3611   7.3611   7.3646   7.3647
     7.6110   7.6110   7.6249   7.6249   7.6249   7.6249   7.6444   7.6445
    11.8473  11.8473  11.8494  11.8494  11.8494  11.8494  11.8553  11.8553
    12.2650  12.2651  12.3144  12.3144  12.3144  12.3144  12.3794  12.3794
    12.5489  12.5489  12.5789  12.5789  12.5789  12.5789  12.5975  12.5975
    17.1541  17.1541  17.1787  17.1787  17.1787  17.1787  17.1990  17.1990
    17.3876  17.3876  17.3876  17.3876  17.4093

     the Fermi energy is     9.6698 ev

!    total energy              =   -6260.97109086 Ry
     Harris-Foulkes estimate   =   -6260.97109086 Ry
     estimated scf accuracy    <          1.5E-09 Ry

     The total energy is the sum of the following terms:

     one-electron contribution =   -4717.41459383 Ry
     hartree contribution      =    2596.24741827 Ry
     xc contribution           =    -965.88937680 Ry
     ewald contribution        =   -3173.91450960 Ry
     smearing contrib. (-TS)   =      -0.00002889 Ry

     convergence has been achieved in  13 iterations

     Writing output data file Landau_7.save
 
     init_run     :     19.00s CPU     19.97s WALL (       1 calls)
     electrons    :    857.86s CPU    871.92s WALL (       1 calls)

     Called by init_run:
     wfcinit      :     17.20s CPU     18.04s WALL (       1 calls)
     potinit      :      0.67s CPU      0.70s WALL (       1 calls)

     Called by electrons:
     c_bands      :    745.58s CPU    758.42s WALL (      13 calls)
     sum_band     :    103.88s CPU    104.30s WALL (      13 calls)
     v_of_rho     :      1.72s CPU      1.74s WALL (      14 calls)
     mix_rho      :      2.68s CPU      3.04s WALL (      13 calls)

     Called by c_bands:
     init_us_2    :      5.47s CPU      5.93s WALL (      27 calls)
     cegterg      :    556.81s CPU    569.49s WALL (      13 calls)

     Called by sum_band:

     Called by *egterg:
     h_psi        :    435.53s CPU    437.33s WALL (      53 calls)
     g_psi        :      1.88s CPU      1.90s WALL (      39 calls)
     cdiaghg      :      6.31s CPU      6.33s WALL (      52 calls)

     Called by h_psi:
     h_psi:pot    :    432.37s CPU    434.01s WALL (      53 calls)
     h_psi:calbec :     52.41s CPU     53.50s WALL (      53 calls)
     vloc_psi     :    324.69s CPU    325.06s WALL (      53 calls)
     add_vuspsi   :     55.27s CPU     55.45s WALL (      53 calls)

     General routines
     calbec       :     52.41s CPU     53.50s WALL (      53 calls)
     fft          :      1.06s CPU      1.08s WALL (      56 calls)
     fftw         :    332.70s CPU    332.83s WALL (   16961 calls)
 
     Parallel routines
 
     PWSCF        : 14m42.02s CPU    14m58.32s WALL

 
   This run was terminated on:  17:30:23  13Sep2019            

=------------------------------------------------------------------------------=
   JOB DONE.
=------------------------------------------------------------------------------=
