
     Program PWSCF v.6.2 (svn rev. 14038) starts on 23Mar2020 at  5:20:11 

     This program is part of the open-source Quantum ESPRESSO suite
     for quantum simulation of materials; please cite
         "P. Giannozzi et al., J. Phys.:Condens. Matter 21 395502 (2009);
         "P. Giannozzi et al., J. Phys.:Condens. Matter 29 465901 (2017);
          URL http://www.quantum-espresso.org", 
     in publications or presentations arising from this work. More details at
     http://www.quantum-espresso.org/quote

     Parallel version (MPI), running on    40 processors

     MPI processes distributed on     6 nodes
     K-points division:     npool     =      40
     Reading input from rscf.in

     Current dimensions of program PWSCF are:
     Max number of different atomic species (ntypx) = 10
     Max number of k-points (npk) =  40000
     Max angular momentum in pseudopotentials (lmaxx) =  3

     Subspace diagonalization in iterative solution of the eigenvalue problem:
     a serial algorithm will be used

 
     G-vector sticks info
     --------------------
     sticks:   dense  smooth     PW     G-vecs:    dense   smooth      PW
     Sum        7747    7747   2077               498127   498127   69057
 


     bravais-lattice index     =            0
     lattice parameter (alat)  =      13.8397  a.u.
     unit-cell volume          =    2804.9816 (a.u.)^3
     number of atoms/cell      =           32
     number of atomic types    =            2
     number of electrons       =       368.00
     number of Kohn-Sham states=          221
     kinetic-energy cutoff     =     120.0000  Ry
     charge density cutoff     =     480.0000  Ry
     convergence threshold     =      1.0E-08
     mixing beta               =       0.7000
     number of iterations used =            8  plain     mixing
     Exchange-correlation      = SLA PW NOGX NOGC ( 1  4  0  0 0 0)
     nstep                     =           50


     celldm(1)=  13.839685  celldm(2)=   0.000000  celldm(3)=   0.000000
     celldm(4)=   0.000000  celldm(5)=   0.000000  celldm(6)=   0.000000

     crystal axes: (cart. coord. in units of alat)
               a(1) = (   1.000000   0.000000   0.000000 )  
               a(2) = (   0.000000   1.058160   0.000000 )  
               a(3) = (   0.000000   0.000000   1.000000 )  

     reciprocal axes: (cart. coord. in units 2 pi/alat)
               b(1) = (  1.000000  0.000000  0.000000 )  
               b(2) = (  0.000000  0.945037  0.000000 )  
               b(3) = (  0.000000  0.000000  1.000000 )  


     PseudoPot. # 1 for W  read from file:
     /cluster/scratch/mnoe/QE/pps/W_ONCV_LDA-4.0.upf
     MD5 check sum: ba0307d5d4cd419d6f1d13dc49d7c13a
     Pseudo is Norm-conserving + core correction, Zval = 28.0
     Generated using ONCVPSP code by D. R. Hamann
     Using radial grid of 1380 points,  8 beta functions with: 
                l(1) =   0
                l(2) =   0
                l(3) =   1
                l(4) =   1
                l(5) =   2
                l(6) =   2
                l(7) =   3
                l(8) =   3

     PseudoPot. # 2 for O  read from file:
     /cluster/scratch/mnoe/QE/pps/O_ONCV_LDA-3.0.upf
     MD5 check sum: a1bd6164e7280c17a38c229939bfbd54
     Pseudo is Norm-conserving + core correction, Zval =  6.0
     Generated using ONCVPSP code by D. R. Hamann
     Using radial grid of  926 points,  5 beta functions with: 
                l(1) =   0
                l(2) =   0
                l(3) =   1
                l(4) =   1
                l(5) =   2

     atomic species   valence    mass     pseudopotential
        W             28.00   183.84000     W ( 1.00)
        O              6.00    15.99940     O ( 1.00)

      8 Sym. Ops. (no inversion) found ( 7 have fractional translation)



   Cartesian axes

     site n.     atom                  positions (alat units)
         1           W   tau(   1) = (   0.2338135   0.2973023  -0.0004635  )
         2           W   tau(   2) = (   0.7504635   0.7608578  -0.0161865  )
         3           W   tau(   3) = (   0.2661865   0.2317777   0.4995365  )
         4           W   tau(   4) = (   0.7495365   0.8263823   0.4838135  )
         5           W   tau(   5) = (   0.7661865   0.2973023   0.5004635  )
         6           W   tau(   6) = (   0.2495365   0.7608578   0.5161865  )
         7           W   tau(   7) = (   0.7338135   0.2317777   0.0004635  )
         8           W   tau(   8) = (   0.2504635   0.8263823   0.0161865  )
         9           O   tau(   9) = (   0.2321980   0.0085449  -0.0129150  )
        10           O   tau(  10) = (   0.7629150  -0.0085449  -0.0178020  )
        11           O   tau(  11) = (   0.2678020   0.5205351   0.4870850  )
        12           O   tau(  12) = (   0.7370850   0.5376249   0.4821980  )
        13           O   tau(  13) = (   0.7678020   0.0085449   0.5129150  )
        14           O   tau(  14) = (   0.2370850  -0.0085449   0.5178020  )
        15           O   tau(  15) = (   0.7321980   0.5205351   0.0129150  )
        16           O   tau(  16) = (   0.2629150   0.5376249   0.0178020  )
        17           O   tau(  17) = (   0.5057285   0.2442313   0.4517369  )
        18           O   tau(  18) = (   0.5011745   0.8066529   0.5482631  )
        19           O   tau(  19) = (  -0.0057285   0.2848487   0.9517369  )
        20           O   tau(  20) = (  -0.0011745   0.7805873   0.0482631  )
        21           O   tau(  21) = (   0.4942715   0.2442313   0.0482631  )
        22           O   tau(  22) = (   0.4988255   0.8066529   0.9517369  )
        23           O   tau(  23) = (   0.0057285   0.2848487   0.5482631  )
        24           O   tau(  24) = (   0.0011745   0.7805873   0.4517369  )
        25           O   tau(  25) = (   0.7017369   0.2775728   0.7488255  )
        26           O   tau(  26) = (   0.2982631   0.8139288   0.2557285  )
        27           O   tau(  27) = (   0.7982631   0.2515072   0.2488255  )
        28           O   tau(  28) = (   0.2017369   0.7733113   0.7557285  )
        29           O   tau(  29) = (   0.2982631   0.2775728   0.7511745  )
        30           O   tau(  30) = (   0.7017369   0.8139288   0.2442715  )
        31           O   tau(  31) = (   0.2017369   0.2515072   0.2511745  )
        32           O   tau(  32) = (   0.7982631   0.7733113   0.7442715  )

     number of k points=    40  gaussian smearing, width (Ry)=  0.0007
                       cart. coord. in units 2pi/alat
        k(    1) = (   0.0000000   0.0000000   0.0000000), wk =   0.0092593
        k(    2) = (   0.0000000   0.0000000   0.1666667), wk =   0.0370370
        k(    3) = (   0.0000000   0.0000000   0.3333333), wk =   0.0370370
        k(    4) = (   0.0000000   0.0000000  -0.5000000), wk =   0.0185185
        k(    5) = (   0.0000000   0.1575061   0.0000000), wk =   0.0185185
        k(    6) = (   0.0000000   0.1575061   0.1666667), wk =   0.0740741
        k(    7) = (   0.0000000   0.1575061   0.3333333), wk =   0.0740741
        k(    8) = (   0.0000000   0.1575061  -0.5000000), wk =   0.0370370
        k(    9) = (   0.0000000   0.3150122   0.0000000), wk =   0.0185185
        k(   10) = (   0.0000000   0.3150122   0.1666667), wk =   0.0740741
        k(   11) = (   0.0000000   0.3150122   0.3333333), wk =   0.0740741
        k(   12) = (   0.0000000   0.3150122  -0.5000000), wk =   0.0370370
        k(   13) = (   0.0000000  -0.4725183   0.0000000), wk =   0.0092593
        k(   14) = (   0.0000000  -0.4725183   0.1666667), wk =   0.0370370
        k(   15) = (   0.0000000  -0.4725183   0.3333333), wk =   0.0370370
        k(   16) = (   0.0000000  -0.4725183  -0.5000000), wk =   0.0185185
        k(   17) = (   0.1666667   0.0000000   0.1666667), wk =   0.0370370
        k(   18) = (   0.1666667   0.0000000   0.3333333), wk =   0.0740741
        k(   19) = (   0.1666667   0.0000000  -0.5000000), wk =   0.0370370
        k(   20) = (   0.1666667   0.1575061   0.1666667), wk =   0.0740741
        k(   21) = (   0.1666667   0.1575061   0.3333333), wk =   0.1481481
        k(   22) = (   0.1666667   0.1575061  -0.5000000), wk =   0.0740741
        k(   23) = (   0.1666667   0.3150122   0.1666667), wk =   0.0740741
        k(   24) = (   0.1666667   0.3150122   0.3333333), wk =   0.1481481
        k(   25) = (   0.1666667   0.3150122  -0.5000000), wk =   0.0740741
        k(   26) = (   0.1666667  -0.4725183   0.1666667), wk =   0.0370370
        k(   27) = (   0.1666667  -0.4725183   0.3333333), wk =   0.0740741
        k(   28) = (   0.1666667  -0.4725183  -0.5000000), wk =   0.0370370
        k(   29) = (   0.3333333   0.0000000   0.3333333), wk =   0.0370370
        k(   30) = (   0.3333333   0.0000000  -0.5000000), wk =   0.0370370
        k(   31) = (   0.3333333   0.1575061   0.3333333), wk =   0.0740741
        k(   32) = (   0.3333333   0.1575061  -0.5000000), wk =   0.0740741
        k(   33) = (   0.3333333   0.3150122   0.3333333), wk =   0.0740741
        k(   34) = (   0.3333333   0.3150122  -0.5000000), wk =   0.0740741
        k(   35) = (   0.3333333  -0.4725183   0.3333333), wk =   0.0370370
        k(   36) = (   0.3333333  -0.4725183  -0.5000000), wk =   0.0370370
        k(   37) = (  -0.5000000   0.0000000  -0.5000000), wk =   0.0092593
        k(   38) = (  -0.5000000   0.1575061  -0.5000000), wk =   0.0185185
        k(   39) = (  -0.5000000   0.3150122  -0.5000000), wk =   0.0185185
        k(   40) = (  -0.5000000  -0.4725183  -0.5000000), wk =   0.0092593

     Dense  grid:   498127 G-vectors     FFT dimensions: ( 100, 108, 100)

     Estimated max dynamical RAM per process >       2.74 GB

     Estimated total dynamical RAM >     109.40 GB

     Initial potential from superposition of free atoms

     starting charge  367.99656, renormalised to  368.00000
     Starting wfc are  232 randomized atomic wfcs

     total cpu time spent up to now is       44.6 secs

     Self-consistent Calculation

     iteration #  1     ecut=   120.00 Ry     beta= 0.70
     Davidson diagonalization with overlap
     ethr =  1.00E-02,  avg # of iterations =  5.0

     total cpu time spent up to now is      132.6 secs

     total energy              =   -6253.96654837 Ry
     Harris-Foulkes estimate   =   -6264.56700333 Ry
     estimated scf accuracy    <      13.41969517 Ry

     iteration #  2     ecut=   120.00 Ry     beta= 0.70
     Davidson diagonalization with overlap
     ethr =  3.65E-03,  avg # of iterations =  3.4

     total cpu time spent up to now is      217.8 secs

     total energy              =   -6250.67546457 Ry
     Harris-Foulkes estimate   =   -6270.89638437 Ry
     estimated scf accuracy    <      54.63528293 Ry

     iteration #  3     ecut=   120.00 Ry     beta= 0.70
     Davidson diagonalization with overlap
     ethr =  3.65E-03,  avg # of iterations =  3.5

     total cpu time spent up to now is      298.8 secs

     total energy              =   -6261.06842750 Ry
     Harris-Foulkes estimate   =   -6261.40458569 Ry
     estimated scf accuracy    <       1.08277812 Ry

     iteration #  4     ecut=   120.00 Ry     beta= 0.70
     Davidson diagonalization with overlap
     ethr =  2.94E-04,  avg # of iterations =  2.5

     total cpu time spent up to now is      365.8 secs

     total energy              =   -6261.09445025 Ry
     Harris-Foulkes estimate   =   -6261.17534879 Ry
     estimated scf accuracy    <       0.28232954 Ry

     iteration #  5     ecut=   120.00 Ry     beta= 0.70
     Davidson diagonalization with overlap
     ethr =  7.67E-05,  avg # of iterations =  5.0

     total cpu time spent up to now is      436.6 secs

     total energy              =   -6261.08339762 Ry
     Harris-Foulkes estimate   =   -6261.12369274 Ry
     estimated scf accuracy    <       0.08763020 Ry

     iteration #  6     ecut=   120.00 Ry     beta= 0.70
     Davidson diagonalization with overlap
     ethr =  2.38E-05,  avg # of iterations =  5.3

     total cpu time spent up to now is      512.1 secs

     total energy              =   -6261.10309540 Ry
     Harris-Foulkes estimate   =   -6261.10479867 Ry
     estimated scf accuracy    <       0.00496356 Ry

     iteration #  7     ecut=   120.00 Ry     beta= 0.70
     Davidson diagonalization with overlap
     ethr =  1.35E-06,  avg # of iterations =  4.5

     total cpu time spent up to now is      580.7 secs

     total energy              =   -6261.10358871 Ry
     Harris-Foulkes estimate   =   -6261.10371180 Ry
     estimated scf accuracy    <       0.00030295 Ry

     iteration #  8     ecut=   120.00 Ry     beta= 0.70
     Davidson diagonalization with overlap
     ethr =  8.23E-08,  avg # of iterations =  3.0

     total cpu time spent up to now is      653.9 secs

     total energy              =   -6261.10365005 Ry
     Harris-Foulkes estimate   =   -6261.10365902 Ry
     estimated scf accuracy    <       0.00001690 Ry

     iteration #  9     ecut=   120.00 Ry     beta= 0.70
     Davidson diagonalization with overlap
     ethr =  4.59E-09,  avg # of iterations =  3.0

     total cpu time spent up to now is      734.1 secs

     total energy              =   -6261.10365480 Ry
     Harris-Foulkes estimate   =   -6261.10365756 Ry
     estimated scf accuracy    <       0.00000974 Ry

     iteration # 10     ecut=   120.00 Ry     beta= 0.70
     Davidson diagonalization with overlap
     ethr =  2.65E-09,  avg # of iterations =  2.0

     total cpu time spent up to now is      799.8 secs

     total energy              =   -6261.10365484 Ry
     Harris-Foulkes estimate   =   -6261.10365591 Ry
     estimated scf accuracy    <       0.00000235 Ry

     iteration # 11     ecut=   120.00 Ry     beta= 0.70
     Davidson diagonalization with overlap
     ethr =  6.40E-10,  avg # of iterations =  2.3

     total cpu time spent up to now is      876.0 secs

     total energy              =   -6261.10365535 Ry
     Harris-Foulkes estimate   =   -6261.10365538 Ry
     estimated scf accuracy    <       0.00000007 Ry

     iteration # 12     ecut=   120.00 Ry     beta= 0.70
     Davidson diagonalization with overlap
     ethr =  1.79E-11,  avg # of iterations =  2.0

     total cpu time spent up to now is      953.4 secs

     total energy              =   -6261.10365535 Ry
     Harris-Foulkes estimate   =   -6261.10365536 Ry
     estimated scf accuracy    <       0.00000001 Ry

     iteration # 13     ecut=   120.00 Ry     beta= 0.70
     Davidson diagonalization with overlap
     ethr =  3.39E-12,  avg # of iterations =  2.0

     total cpu time spent up to now is     1021.5 secs

     End of self-consistent calculation

          k = 0.0000 0.0000 0.0000 ( 62239 PWs)   bands (ev):

   -66.1700 -66.1696 -66.1690 -66.1690 -66.1686 -66.1686 -66.1680 -66.1676
   -30.5784 -30.5751 -30.5711 -30.5711 -30.5121 -30.5121 -30.5119 -30.5071
   -30.5069 -30.5036 -30.5023 -30.5023 -30.4791 -30.4699 -30.4699 -30.4602
   -30.4498 -30.4412 -30.4412 -30.4360 -30.4087 -30.4087 -30.4039 -30.4028
   -20.3326 -20.3325 -20.3324 -20.3324 -20.3321 -20.3321 -20.3320 -20.3319
   -20.3143 -20.3140 -20.3138 -20.3137 -20.3135 -20.3135 -20.3133 -20.3131
   -20.3105 -20.3098 -20.3098 -20.3088 -20.3087 -20.3074 -20.3074 -20.3063
   -20.3063 -20.3053 -20.3053 -20.3047 -20.3022 -20.3019 -20.3019 -20.3015
   -20.3013 -20.3009 -20.3007 -20.3006 -20.2966 -20.2966 -20.2964 -20.2963
   -20.2944 -20.2940 -20.2937 -20.2937 -20.2909 -20.2909 -20.2902 -20.2900
   -20.2890 -20.2888 -20.2885 -20.2885 -20.2858 -20.2858 -20.2854 -20.2851
    -9.9637  -9.7256  -9.5117  -9.5117  -9.2718  -9.2718  -9.0741  -9.0643
    -8.9160  -8.7699  -8.7597  -8.7597  -7.9172  -7.8797  -7.7675  -7.7659
    -7.7659  -7.7576  -7.7447  -7.6813  -7.6813  -7.6464  -7.6221  -7.6221
     1.1498   1.1561   1.2300   1.2300   1.3193   1.3193   1.4651   1.6051
     1.7808   1.7808   1.7839   1.9091   2.3161   2.3981   2.6011   2.6672
     2.7825   2.7825   4.1507   4.1507   4.3404   4.3508   4.7035   4.7035
     4.7604   4.7604   4.8124   4.9748   5.1559   5.1559   5.1920   5.4858
     5.5016   5.5016   5.5076   5.5809   5.5809   5.6774   5.6774   5.7930
     5.8698   5.8908   5.9000   5.9000   5.9079   5.9521   5.9650   6.0738
     6.1182   6.2860   6.3189   6.4991   6.4991   6.7190   6.9065   6.9065
     6.9108   6.9390   6.9398   7.0243   7.0278   7.0278   7.1706   7.1706
     7.3711   7.3711   7.7475   7.7652   8.0527   8.0527   8.0716   8.1598
     9.4417   9.4596  10.0218  10.0405  10.0452  10.0452  12.2333  12.2333
    12.2653  12.2653  12.4328  12.5002  12.5002  12.5520  12.6415  12.8170
    13.1731  13.3030  13.3030  13.3605  13.6211  13.8773  13.8773  14.0481
    14.2761  14.4716  14.4716  14.8869  15.3341  15.4329  15.4379  16.0207
    16.0207  16.7488  16.9716  16.9716  17.5050

          k = 0.0000 0.0000 0.1667 ( 62262 PWs)   bands (ev):

   -66.1699 -66.1695 -66.1691 -66.1689 -66.1687 -66.1685 -66.1681 -66.1677
   -30.5769 -30.5715 -30.5703 -30.5651 -30.5139 -30.5128 -30.5112 -30.5067
   -30.5043 -30.5027 -30.5003 -30.4957 -30.4822 -30.4743 -30.4691 -30.4629
   -30.4494 -30.4427 -30.4408 -30.4371 -30.4149 -30.4096 -30.4083 -30.4037
   -20.3326 -20.3325 -20.3324 -20.3323 -20.3321 -20.3321 -20.3320 -20.3319
   -20.3142 -20.3140 -20.3138 -20.3137 -20.3135 -20.3135 -20.3133 -20.3131
   -20.3104 -20.3099 -20.3097 -20.3088 -20.3087 -20.3075 -20.3073 -20.3064
   -20.3062 -20.3053 -20.3052 -20.3048 -20.3022 -20.3019 -20.3019 -20.3015
   -20.3011 -20.3007 -20.3006 -20.3003 -20.2967 -20.2963 -20.2962 -20.2959
   -20.2948 -20.2942 -20.2940 -20.2935 -20.2911 -20.2908 -20.2904 -20.2901
   -20.2889 -20.2887 -20.2885 -20.2884 -20.2861 -20.2857 -20.2856 -20.2852
    -9.9145  -9.6720  -9.5287  -9.4373  -9.2868  -9.1862  -9.0368  -9.0218
    -8.9266  -8.7648  -8.7612  -8.7400  -8.0161  -7.8940  -7.8837  -7.8796
    -7.7737  -7.7589  -7.7523  -7.7360  -7.6918  -7.6868  -7.6502  -7.6310
     1.2118   1.2321   1.2759   1.3241   1.4706   1.5498   1.5622   1.7717
     1.7751   1.7774   1.8074   1.9951   2.4041   2.4885   2.6308   2.7360
     2.7734   2.8709   4.0919   4.1406   4.3088   4.3413   4.3709   4.3739
     4.6804   4.7685   4.7811   4.8414   4.9125   5.1403   5.1589   5.2733
     5.4191   5.4570   5.4999   5.5662   5.6011   5.6426   5.6585   5.6892
     5.6897   5.8697   5.8967   5.9126   5.9726   6.0071   6.0235   6.1112
     6.1986   6.3424   6.4838   6.4861   6.7169   6.7752   6.7789   6.8161
     6.8617   6.9185   6.9296   6.9606   6.9842   7.0372   7.0601   7.0611
     7.1562   7.2333   7.7584   7.7669   8.0166   8.0511   8.0705   8.1466
     9.7444   9.7709  10.0431  10.0433  10.2731  10.3291  12.1776  12.2039
    12.3016  12.3046  12.4083  12.4626  12.5184  12.6282  12.6820  12.8312
    13.0460  13.2288  13.3055  13.3244  13.6670  13.8275  13.8767  13.9678
    14.2617  14.4658  14.5113  15.0025  15.3008  15.4736  15.4760  15.9914
    16.3146  16.7376  16.9091  17.1679  17.5705

          k = 0.0000 0.0000 0.3333 ( 62268 PWs)   bands (ev):

   -66.1698 -66.1694 -66.1693 -66.1689 -66.1688 -66.1684 -66.1682 -66.1679
   -30.5754 -30.5725 -30.5545 -30.5489 -30.5202 -30.5168 -30.5090 -30.5056
   -30.5038 -30.5019 -30.4923 -30.4857 -30.4848 -30.4800 -30.4678 -30.4655
   -30.4479 -30.4459 -30.4413 -30.4395 -30.4305 -30.4254 -30.4075 -30.4049
   -20.3325 -20.3324 -20.3324 -20.3323 -20.3322 -20.3321 -20.3321 -20.3320
   -20.3142 -20.3139 -20.3139 -20.3137 -20.3136 -20.3134 -20.3134 -20.3132
   -20.3103 -20.3099 -20.3095 -20.3089 -20.3084 -20.3077 -20.3071 -20.3066
   -20.3060 -20.3055 -20.3052 -20.3049 -20.3022 -20.3020 -20.3019 -20.3017
   -20.3010 -20.3007 -20.2996 -20.2992 -20.2971 -20.2961 -20.2961 -20.2954
   -20.2950 -20.2947 -20.2944 -20.2930 -20.2919 -20.2910 -20.2907 -20.2903
   -20.2887 -20.2885 -20.2884 -20.2880 -20.2869 -20.2864 -20.2856 -20.2853
    -9.7960  -9.5808  -9.5442  -9.3333  -9.2480  -8.9647  -8.9503  -8.9201
    -8.8798  -8.7806  -8.7177  -8.6592  -8.3094  -8.2034  -8.1863  -8.0851
    -7.8565  -7.7955  -7.7373  -7.7238  -7.7011  -7.6866  -7.6607  -7.6552
     1.2387   1.2482   1.3366   1.3509   1.6951   1.7280   1.7543   1.7635
     2.1922   2.2770   2.4054   2.5071   2.6479   2.6729   2.7512   2.7552
     2.9709   3.0994   3.6769   3.7786   3.8971   3.9257   4.2217   4.2495
     4.3119   4.4656   4.5147   4.6946   4.8313   4.8458   4.9192   5.0659
     5.0891   5.2107   5.2868   5.3589   5.4440   5.4846   5.7121   5.7357
     5.8066   5.8307   5.8771   5.9618   6.0373   6.0834   6.1321   6.2193
     6.3169   6.3797   6.3958   6.5038   6.5825   6.6318   6.6409   6.7393
     6.7545   6.9111   6.9241   6.9674   6.9869   7.0300   7.0408   7.1058
     7.3078   7.3584   7.6956   7.7092   7.8991   7.9460   8.1045   8.1312
    10.0017  10.0361  10.4104  10.5315  10.8560  10.9853  11.8238  11.9353
    12.0734  12.4187  12.4217  12.5105  12.5165  12.6317  12.6772  12.8239
    12.8600  13.0979  13.1718  13.3225  13.5547  13.6299  13.8765  13.8864
    14.3220  14.4466  14.7235  15.1945  15.2674  15.6255  15.8631  15.8941
    16.2500  17.1289  17.3669  17.4328  17.7495

          k = 0.0000 0.0000-0.5000 ( 62264 PWs)   bands (ev):

   -66.1695 -66.1695 -66.1691 -66.1691 -66.1685 -66.1685 -66.1681 -66.1681
   -30.5739 -30.5739 -30.5347 -30.5347 -30.5292 -30.5292 -30.5059 -30.5059
   -30.5024 -30.5024 -30.4963 -30.4963 -30.4728 -30.4728 -30.4586 -30.4586
   -30.4531 -30.4531 -30.4442 -30.4442 -30.4368 -30.4368 -30.4062 -30.4062
   -20.3325 -20.3325 -20.3323 -20.3323 -20.3322 -20.3322 -20.3320 -20.3320
   -20.3140 -20.3140 -20.3138 -20.3138 -20.3135 -20.3135 -20.3133 -20.3133
   -20.3101 -20.3101 -20.3092 -20.3092 -20.3080 -20.3080 -20.3068 -20.3068
   -20.3058 -20.3058 -20.3050 -20.3050 -20.3021 -20.3021 -20.3018 -20.3018
   -20.3008 -20.3008 -20.2982 -20.2982 -20.2977 -20.2977 -20.2958 -20.2958
   -20.2948 -20.2947 -20.2932 -20.2932 -20.2921 -20.2921 -20.2905 -20.2905
   -20.2886 -20.2886 -20.2877 -20.2877 -20.2873 -20.2873 -20.2855 -20.2855
    -9.6714  -9.6714  -9.4177  -9.4177  -9.0602  -9.0601  -8.8170  -8.8170
    -8.6416  -8.6416  -8.5901  -8.5901  -8.5237  -8.5236  -8.4400  -8.4399
    -7.8264  -7.8264  -7.7196  -7.7196  -7.6898  -7.6898  -7.6737  -7.6737
     1.2474   1.2474   1.3507   1.3507   1.7356   1.7356   1.7497   1.7497
     2.6931   2.6931   2.9363   2.9363   3.0368   3.0368   3.1553   3.1553
     3.2104   3.2104   3.2699   3.2699   3.4775   3.4775   3.7815   3.7815
     3.8907   3.8907   4.4201   4.4201   4.7570   4.7571   4.9493   4.9493
     5.2280   5.2280   5.2918   5.2918   5.3641   5.3641   5.7880   5.7880
     5.8062   5.8062   6.0052   6.0052   6.0681   6.0681   6.1851   6.1851
     6.2727   6.2727   6.3799   6.3799   6.5077   6.5077   6.5754   6.5754
     6.7963   6.7963   6.9173   6.9174   7.0016   7.0016   7.4444   7.4444
     7.4853   7.4853   7.6709   7.6709   7.7146   7.7146   8.1223   8.1223
    10.0227  10.0227  11.1679  11.1679  11.3022  11.3022  11.5277  11.5277
    11.7553  11.7553  12.5289  12.5289  12.6545  12.6545  12.8360  12.8360
    12.8773  12.8773  13.2117  13.2117  13.3994  13.3994  13.8804  13.8804
    14.4050  14.4050  14.9990  14.9990  15.6348  15.6348  15.8480  15.8480
    16.6263  16.6263  17.8679  17.8679  18.1246

          k = 0.0000 0.1575 0.0000 ( 62231 PWs)   bands (ev):

   -66.1700 -66.1696 -66.1690 -66.1690 -66.1686 -66.1686 -66.1680 -66.1676
   -30.5781 -30.5753 -30.5710 -30.5710 -30.5102 -30.5102 -30.5089 -30.5068
   -30.5062 -30.5011 -30.5010 -30.5009 -30.4802 -30.4704 -30.4704 -30.4595
   -30.4536 -30.4440 -30.4440 -30.4387 -30.4087 -30.4087 -30.4038 -30.4029
   -20.3326 -20.3325 -20.3324 -20.3323 -20.3321 -20.3321 -20.3320 -20.3319
   -20.3142 -20.3140 -20.3137 -20.3137 -20.3135 -20.3135 -20.3133 -20.3131
   -20.3103 -20.3097 -20.3097 -20.3089 -20.3085 -20.3074 -20.3074 -20.3064
   -20.3060 -20.3051 -20.3051 -20.3046 -20.3025 -20.3021 -20.3021 -20.3018
   -20.3013 -20.3009 -20.3007 -20.3007 -20.2966 -20.2966 -20.2964 -20.2963
   -20.2944 -20.2940 -20.2937 -20.2937 -20.2909 -20.2909 -20.2902 -20.2900
   -20.2890 -20.2888 -20.2885 -20.2885 -20.2858 -20.2858 -20.2854 -20.2851
    -9.9407  -9.7362  -9.4897  -9.4897  -9.2747  -9.2747  -9.0733  -9.0645
    -8.8456  -8.7210  -8.7135  -8.7135  -7.9342  -7.8801  -7.8193  -7.8162
    -7.8162  -7.7671  -7.7562  -7.7471  -7.7252  -7.7252  -7.6225  -7.6225
     1.1503   1.1554   1.2305   1.2305   1.3202   1.3202   1.5301   1.6047
     1.9460   2.0063   2.0063   2.1336   2.3216   2.3924   2.6706   2.7422
     2.8513   2.8513   4.0203   4.0203   4.1042   4.1089   4.6998   4.6998
     4.7052   4.7549   4.7549   5.0372   5.1192   5.1192   5.1446   5.3364
     5.3364   5.5019   5.5019   5.5922   5.6453   5.6520   5.6520   5.6834
     5.8019   5.8350   5.8595   5.9460   5.9741   5.9741   5.9995   6.0602
     6.0790   6.2852   6.3006   6.5325   6.5325   6.6830   6.8840   6.8870
     6.8870   6.9108   6.9556   6.9714   6.9831   6.9831   7.1728   7.1729
     7.3750   7.3750   7.7503   7.7638   8.0182   8.0217   8.0217   8.0814
     9.4500   9.4610  10.2088  10.2088  10.2144  10.2223  12.1283  12.1283
    12.2741  12.2741  12.2823  12.3829  12.4965  12.4965  12.6617  12.8178
    13.1998  13.2991  13.2991  13.3831  13.7799  13.8625  13.8625  13.9656
    14.3582  14.6704  14.6704  15.0157  15.4278  15.4360  15.7333  15.9900
    15.9900  16.4968  17.0901  17.0901  17.4932

          k = 0.0000 0.1575 0.1667 ( 62237 PWs)   bands (ev):

   -66.1699 -66.1696 -66.1690 -66.1689 -66.1687 -66.1686 -66.1680 -66.1677
   -30.5767 -30.5714 -30.5703 -30.5649 -30.5121 -30.5099 -30.5089 -30.5061
   -30.5016 -30.5015 -30.5003 -30.4948 -30.4831 -30.4744 -30.4696 -30.4622
   -30.4531 -30.4457 -30.4435 -30.4399 -30.4149 -30.4096 -30.4083 -30.4038
   -20.3326 -20.3325 -20.3324 -20.3323 -20.3321 -20.3321 -20.3320 -20.3319
   -20.3142 -20.3140 -20.3138 -20.3137 -20.3135 -20.3135 -20.3133 -20.3131
   -20.3103 -20.3097 -20.3096 -20.3088 -20.3085 -20.3075 -20.3073 -20.3065
   -20.3060 -20.3052 -20.3051 -20.3047 -20.3025 -20.3022 -20.3022 -20.3018
   -20.3011 -20.3007 -20.3006 -20.3003 -20.2967 -20.2963 -20.2962 -20.2959
   -20.2948 -20.2942 -20.2940 -20.2935 -20.2911 -20.2908 -20.2904 -20.2901
   -20.2889 -20.2887 -20.2885 -20.2884 -20.2861 -20.2857 -20.2856 -20.2852
    -9.8909  -9.6825  -9.5064  -9.4122  -9.2901  -9.1891  -9.0362  -9.0214
    -8.8562  -8.7189  -8.7136  -8.6971  -8.0197  -7.9088  -7.8894  -7.8836
    -7.8217  -7.8171  -7.7829  -7.7638  -7.7517  -7.7330  -7.7301  -7.6314
     1.2128   1.2328   1.2761   1.3254   1.4778   1.5680   1.6513   1.7789
     1.9534   1.9980   2.0152   2.1621   2.4102   2.4826   2.7015   2.8108
     2.8432   2.9395   3.9883   4.0202   4.1063   4.1478   4.3273   4.3699
     4.6425   4.7526   4.7641   4.8105   4.9105   5.0966   5.1250   5.2302
     5.2891   5.3548   5.4156   5.4946   5.5608   5.5859   5.6294   5.6945
     5.7607   5.8090   5.8647   5.9193   5.9498   5.9953   6.0527   6.0694
     6.2068   6.2976   6.4629   6.5206   6.6903   6.7644   6.7901   6.8463
     6.8531   6.9050   6.9421   6.9533   6.9864   7.0177   7.0512   7.0653
     7.1574   7.2411   7.7589   7.7663   7.9876   8.0006   8.0265   8.0719
     9.7541   9.7847  10.2081  10.2208  10.4267  10.4661  12.0999  12.1882
    12.2106  12.2866  12.3344  12.3985  12.4258  12.5573  12.7062  12.8378
    13.0628  13.2256  13.2999  13.3361  13.7330  13.7919  13.8625  13.9126
    14.4006  14.6648  14.7636  15.1165  15.4723  15.4754  15.6991  15.9644
    16.2815  16.6507  16.8532  17.2616  17.5549

          k = 0.0000 0.1575 0.3333 ( 62284 PWs)   bands (ev):

   -66.1697 -66.1694 -66.1692 -66.1689 -66.1687 -66.1684 -66.1682 -66.1679
   -30.5753 -30.5724 -30.5543 -30.5486 -30.5189 -30.5145 -30.5067 -30.5046
   -30.5026 -30.4994 -30.4923 -30.4849 -30.4846 -30.4797 -30.4673 -30.4661
   -30.4516 -30.4491 -30.4437 -30.4421 -30.4310 -30.4256 -30.4075 -30.4049
   -20.3325 -20.3324 -20.3324 -20.3323 -20.3322 -20.3321 -20.3321 -20.3320
   -20.3141 -20.3139 -20.3139 -20.3136 -20.3136 -20.3134 -20.3134 -20.3132
   -20.3101 -20.3098 -20.3093 -20.3087 -20.3085 -20.3077 -20.3072 -20.3066
   -20.3058 -20.3054 -20.3050 -20.3048 -20.3025 -20.3023 -20.3022 -20.3019
   -20.3010 -20.3008 -20.2996 -20.2992 -20.2971 -20.2961 -20.2961 -20.2954
   -20.2950 -20.2947 -20.2944 -20.2930 -20.2919 -20.2910 -20.2907 -20.2903
   -20.2887 -20.2885 -20.2884 -20.2880 -20.2869 -20.2864 -20.2856 -20.2853
    -9.7713  -9.5581  -9.5532  -9.3378  -9.2104  -8.9519  -8.9178  -8.8953
    -8.8757  -8.7363  -8.6793  -8.6292  -8.3101  -8.2072  -8.1872  -8.0881
    -7.8731  -7.8325  -7.8070  -7.7808  -7.7559  -7.7531  -7.7253  -7.6561
     1.2403   1.2511   1.3391   1.3546   1.8812   1.9100   1.9827   1.9965
     2.2001   2.2919   2.4095   2.5283   2.6644   2.7303   2.7476   2.8259
     3.0458   3.1612   3.6771   3.7736   3.8776   3.8778   4.1292   4.1432
     4.2688   4.3917   4.4757   4.6340   4.7226   4.7884   4.8347   4.9987
     5.0432   5.1725   5.2168   5.2302   5.4076   5.4404   5.4675   5.6934
     5.7559   5.8078   5.8930   5.9086   5.9500   6.0140   6.1055   6.2311
     6.3102   6.3403   6.4720   6.5737   6.6332   6.6738   6.7071   6.7609
     6.8304   6.8831   6.9127   6.9288   6.9826   7.0197   7.0705   7.1166
     7.3121   7.3603   7.6972   7.7077   7.8763   7.9074   8.0447   8.0621
    10.1792  10.2073  10.4229  10.5418  10.9632  11.0690  11.8220  11.9325
    12.0511  12.3302  12.4147  12.4482  12.4697  12.5923  12.6166  12.7767
    12.8337  13.0837  13.1750  13.3095  13.4712  13.5681  13.8628  13.8852
    14.5332  14.6478  15.0469  15.3457  15.5891  15.6323  15.8810  15.8877
    16.3524  17.0858  17.1382  17.4278  17.7236

          k = 0.0000 0.1575-0.5000 ( 62234 PWs)   bands (ev):

   -66.1695 -66.1695 -66.1691 -66.1691 -66.1685 -66.1685 -66.1681 -66.1681
   -30.5738 -30.5738 -30.5342 -30.5342 -30.5283 -30.5283 -30.5045 -30.5045
   -30.5010 -30.5010 -30.4944 -30.4944 -30.4725 -30.4725 -30.4590 -30.4590
   -30.4548 -30.4548 -30.4466 -30.4466 -30.4389 -30.4389 -30.4062 -30.4062
   -20.3325 -20.3325 -20.3323 -20.3323 -20.3322 -20.3322 -20.3320 -20.3320
   -20.3140 -20.3140 -20.3138 -20.3138 -20.3135 -20.3135 -20.3133 -20.3133
   -20.3099 -20.3099 -20.3090 -20.3090 -20.3081 -20.3081 -20.3069 -20.3069
   -20.3056 -20.3056 -20.3049 -20.3049 -20.3024 -20.3024 -20.3021 -20.3021
   -20.3009 -20.3009 -20.2982 -20.2982 -20.2977 -20.2977 -20.2958 -20.2958
   -20.2948 -20.2948 -20.2932 -20.2932 -20.2921 -20.2921 -20.2905 -20.2905
   -20.2886 -20.2886 -20.2877 -20.2877 -20.2873 -20.2873 -20.2855 -20.2855
    -9.6471  -9.6471  -9.4244  -9.4244  -9.0008  -9.0008  -8.7837  -8.7837
    -8.6380  -8.6380  -8.5932  -8.5932  -8.5165  -8.5164  -8.4320  -8.4320
    -7.8532  -7.8532  -7.7821  -7.7821  -7.7684  -7.7684  -7.6903  -7.6903
     1.2501   1.2501   1.3544   1.3544   1.9199   1.9199   1.9990   1.9991
     2.7598   2.7598   2.9469   2.9469   3.0328   3.0328   3.1758   3.1758
     3.2170   3.2170   3.2796   3.2796   3.4779   3.4779   3.7905   3.7905
     3.9430   3.9430   4.2440   4.2440   4.6181   4.6181   4.8069   4.8069
     5.1628   5.1628   5.2687   5.2687   5.3099   5.3099   5.5517   5.5517
     5.7677   5.7677   5.9214   5.9214   6.0542   6.0542   6.1671   6.1671
     6.3254   6.3254   6.4290   6.4290   6.5119   6.5119   6.7267   6.7267
     6.8567   6.8567   6.8912   6.8912   6.9680   6.9680   7.4540   7.4540
     7.4792   7.4792   7.6600   7.6600   7.6968   7.6968   8.0566   8.0566
    10.2021  10.2021  11.1744  11.1744  11.3044  11.3044  11.5878  11.5878
    11.8086  11.8086  12.3989  12.3989  12.6368  12.6368  12.8097  12.8097
    12.8493  12.8493  13.1182  13.1182  13.3655  13.3655  13.8683  13.8683
    14.6140  14.6140  15.3493  15.3493  15.7032  15.7032  15.8877  15.8877
    16.6664  16.6664  17.6781  17.6781  18.0825

          k = 0.0000 0.3150 0.0000 ( 62175 PWs)   bands (ev):

   -66.1699 -66.1697 -66.1689 -66.1689 -66.1687 -66.1687 -66.1679 -66.1677
   -30.5774 -30.5758 -30.5709 -30.5708 -30.5078 -30.5077 -30.5066 -30.5061
   -30.5008 -30.4958 -30.4958 -30.4914 -30.4841 -30.4725 -30.4725 -30.4639
   -30.4571 -30.4500 -30.4500 -30.4454 -30.4087 -30.4087 -30.4036 -30.4031
   -20.3326 -20.3325 -20.3324 -20.3323 -20.3321 -20.3321 -20.3320 -20.3319
   -20.3142 -20.3141 -20.3137 -20.3137 -20.3135 -20.3135 -20.3132 -20.3131
   -20.3099 -20.3094 -20.3094 -20.3091 -20.3079 -20.3074 -20.3074 -20.3067
   -20.3054 -20.3047 -20.3047 -20.3042 -20.3033 -20.3029 -20.3029 -20.3025
   -20.3012 -20.3010 -20.3008 -20.3008 -20.2966 -20.2966 -20.2964 -20.2963
   -20.2943 -20.2941 -20.2937 -20.2937 -20.2909 -20.2909 -20.2901 -20.2901
   -20.2890 -20.2889 -20.2885 -20.2885 -20.2858 -20.2858 -20.2853 -20.2852
    -9.8842  -9.7680  -9.4453  -9.4453  -9.2823  -9.2823  -9.0710  -9.0657
    -8.6481  -8.5717  -8.5680  -8.5680  -8.0998  -8.0417  -8.0417  -8.0059
    -7.8813  -7.8787  -7.7656  -7.7593  -7.7385  -7.7385  -7.6232  -7.6232
     1.1511   1.1539   1.2309   1.2309   1.3210   1.3210   1.5829   1.6032
     2.3363   2.3767   2.4711   2.6156   2.6156   2.7697   2.8709   2.9840
     3.0611   3.0611   3.6599   3.6750   3.6979   3.6979   4.1728   4.5289
     4.5289   4.7088   4.7088   4.7734   4.7734   4.8158   5.1972   5.2079
     5.2079   5.2313   5.4448   5.4448   5.6224   5.6644   5.6945   5.6945
     5.7929   5.8303   5.9116   5.9304   5.9304   5.9960   6.0448   6.0568
     6.1244   6.2371   6.2449   6.4876   6.5685   6.5685   6.8253   6.8253
     6.8553   6.9171   7.1259   7.1310   7.1360   7.1360   7.1944   7.1944
     7.3849   7.3849   7.7402   7.7562   7.8397   7.8578   7.8700   7.8700
     9.4600   9.4633  10.6510  10.6510  10.6809  10.7248  11.7779  11.7779
    11.8712  11.9547  12.2873  12.2873  12.4993  12.4993  12.7057  12.8051
    13.2925  13.3472  13.3472  13.4387  13.7034  13.7034  13.7139  13.7759
    14.8591  15.1833  15.1833  15.4115  15.4151  15.5606  15.8844  15.8844
    15.9899  16.6988  17.1352  17.5057  17.5057

          k = 0.0000 0.3150 0.1667 ( 62260 PWs)   bands (ev):

   -66.1698 -66.1696 -66.1690 -66.1688 -66.1688 -66.1686 -66.1680 -66.1678
   -30.5763 -30.5712 -30.5703 -30.5647 -30.5095 -30.5060 -30.5047 -30.5022
   -30.5003 -30.4968 -30.4939 -30.4894 -30.4864 -30.4749 -30.4717 -30.4633
   -30.4597 -30.4527 -30.4495 -30.4468 -30.4150 -30.4096 -30.4084 -30.4038
   -20.3325 -20.3325 -20.3324 -20.3323 -20.3321 -20.3321 -20.3320 -20.3319
   -20.3142 -20.3140 -20.3138 -20.3137 -20.3135 -20.3135 -20.3133 -20.3132
   -20.3099 -20.3094 -20.3092 -20.3090 -20.3080 -20.3075 -20.3074 -20.3068
   -20.3053 -20.3047 -20.3046 -20.3042 -20.3033 -20.3029 -20.3029 -20.3026
   -20.3011 -20.3008 -20.3007 -20.3004 -20.2967 -20.2963 -20.2962 -20.2959
   -20.2948 -20.2942 -20.2940 -20.2935 -20.2911 -20.2908 -20.2903 -20.2902
   -20.2889 -20.2888 -20.2885 -20.2884 -20.2861 -20.2857 -20.2856 -20.2853
    -9.8330  -9.7142  -9.4611  -9.3614  -9.2987  -9.1968  -9.0350  -9.0210
    -8.6582  -8.5746  -8.5673  -8.5583  -8.1076  -8.0593  -8.0412  -8.0172
    -7.9847  -7.8796  -7.8711  -7.8586  -7.7527  -7.7475  -7.7453  -7.6321
     1.2133   1.2334   1.2760   1.3266   1.4821   1.5728   1.7270   1.7883
     2.4249   2.4636   2.4789   2.5893   2.6201   2.7540   2.9119   3.0346
     3.0691   3.1526   3.6622   3.6816   3.7101   3.7586   4.1532   4.3380
     4.3516   4.5428   4.5509   4.7341   4.7733   4.8278   4.9215   5.0067
     5.1784   5.2189   5.2353   5.3580   5.4475   5.4984   5.6254   5.6595
     5.7220   5.7384   5.7967   5.8736   5.9344   6.0111   6.0720   6.0909
     6.2138   6.2879   6.4287   6.5359   6.5827   6.7902   6.8111   6.9202
     6.9309   6.9515   6.9908   7.0171   7.1113   7.1123   7.1363   7.1688
     7.2197   7.2786   7.7420   7.7590   7.8315   7.8473   7.8526   7.8666
     9.7651   9.7982  10.6542  10.6939  10.8259  10.8742  11.7728  11.8609
    11.9031  12.0081  12.2046  12.3447  12.3932  12.5438  12.7595  12.8409
    13.1501  13.2466  13.3452  13.3729  13.5675  13.6386  13.7014  13.7572
    14.9693  15.1762  15.3326  15.4610  15.4765  15.6343  15.8594  16.1418
    16.1744  16.6651  17.1791  17.2522  17.6235

          k = 0.0000 0.3150 0.3333 ( 62269 PWs)   bands (ev):

   -66.1697 -66.1695 -66.1692 -66.1690 -66.1687 -66.1685 -66.1681 -66.1680
   -30.5751 -30.5722 -30.5540 -30.5482 -30.5168 -30.5092 -30.5046 -30.5006
   -30.4995 -30.4925 -30.4910 -30.4842 -30.4813 -30.4783 -30.4688 -30.4655
   -30.4612 -30.4576 -30.4502 -30.4478 -30.4316 -30.4259 -30.4075 -30.4049
   -20.3325 -20.3324 -20.3324 -20.3323 -20.3322 -20.3321 -20.3321 -20.3320
   -20.3141 -20.3140 -20.3139 -20.3137 -20.3136 -20.3135 -20.3134 -20.3133
   -20.3097 -20.3095 -20.3089 -20.3087 -20.3081 -20.3078 -20.3073 -20.3069
   -20.3052 -20.3049 -20.3046 -20.3043 -20.3032 -20.3030 -20.3029 -20.3027
   -20.3010 -20.3008 -20.2997 -20.2993 -20.2972 -20.2961 -20.2961 -20.2954
   -20.2950 -20.2947 -20.2944 -20.2930 -20.2919 -20.2910 -20.2907 -20.2903
   -20.2887 -20.2885 -20.2884 -20.2880 -20.2869 -20.2864 -20.2856 -20.2853
    -9.7130  -9.5815  -9.5092  -9.3497  -9.1314  -8.9577  -8.9153  -8.8692
    -8.7022  -8.5995  -8.5492  -8.5198  -8.3170  -8.2383  -8.1937  -8.1123
    -8.0520  -8.0349  -8.0116  -7.9673  -7.8406  -7.7723  -7.7263  -7.6569
     1.2415   1.2530   1.3411   1.3571   2.1416   2.2286   2.2922   2.4173
     2.4996   2.5775   2.6272   2.6817   2.7272   2.7838   2.9518   3.0311
     3.2706   3.3423   3.6160   3.6549   3.7095   3.7698   3.8044   3.8549
     4.1173   4.3237   4.4103   4.4642   4.5221   4.5676   4.6055   4.7272
     4.8525   4.9081   5.0411   5.1324   5.2138   5.2823   5.2868   5.3819
     5.4356   5.5640   5.7376   5.8688   6.0125   6.0664   6.1124   6.2851
     6.3212   6.4090   6.5254   6.6211   6.6560   6.7035   6.7778   6.8325
     6.9142   6.9744   7.0385   7.0422   7.0956   7.1289   7.1612   7.2210
     7.3330   7.3757   7.6786   7.7073   7.7659   7.7746   7.8501   7.8617
    10.4271  10.4887  10.6652  10.7255  11.2579  11.3329  11.7317  11.8535
    11.9314  11.9926  12.1498  12.2118  12.5234  12.5732  12.6014  12.7022
    12.8513  13.0023  13.1747  13.2550  13.3455  13.4773  13.6985  13.7271
    15.0836  15.1554  15.5019  15.7652  15.8301  15.8839  15.9789  16.5449
    16.6388  16.7562  16.9420  17.3988  17.5888

          k = 0.0000 0.3150-0.5000 ( 62306 PWs)   bands (ev):

   -66.1694 -66.1694 -66.1692 -66.1692 -66.1684 -66.1684 -66.1682 -66.1682
   -30.5736 -30.5736 -30.5332 -30.5332 -30.5267 -30.5267 -30.5025 -30.5025
   -30.4971 -30.4971 -30.4873 -30.4873 -30.4713 -30.4713 -30.4623 -30.4623
   -30.4606 -30.4606 -30.4510 -30.4510 -30.4426 -30.4426 -30.4062 -30.4062
   -20.3324 -20.3324 -20.3323 -20.3323 -20.3322 -20.3322 -20.3320 -20.3320
   -20.3140 -20.3140 -20.3138 -20.3138 -20.3135 -20.3135 -20.3134 -20.3134
   -20.3096 -20.3096 -20.3085 -20.3085 -20.3082 -20.3082 -20.3071 -20.3071
   -20.3050 -20.3050 -20.3045 -20.3045 -20.3031 -20.3031 -20.3028 -20.3028
   -20.3009 -20.3009 -20.2983 -20.2983 -20.2978 -20.2978 -20.2958 -20.2958
   -20.2948 -20.2948 -20.2932 -20.2932 -20.2921 -20.2921 -20.2905 -20.2905
   -20.2886 -20.2886 -20.2877 -20.2877 -20.2873 -20.2873 -20.2855 -20.2855
    -9.5934  -9.5933  -9.4433  -9.4433  -8.8518  -8.8518  -8.7108  -8.7108
    -8.6211  -8.6211  -8.6064  -8.6064  -8.4706  -8.4706  -8.3937  -8.3937
    -8.0512  -8.0512  -8.0037  -8.0037  -7.8066  -7.8066  -7.6912  -7.6912
     1.2519   1.2519   1.3572   1.3572   2.4683   2.4683   2.6084   2.6084
     2.9458   2.9458   2.9798   2.9798   3.0270   3.0270   3.2054   3.2054
     3.2279   3.2279   3.3242   3.3242   3.4785   3.4785   3.6754   3.6754
     4.0385   4.0385   4.0943   4.0943   4.2253   4.2253   4.4009   4.4009
     4.8844   4.8844   5.0096   5.0096   5.2313   5.2313   5.2767   5.2767
     5.4024   5.4024   5.8103   5.8103   6.1343   6.1343   6.1733   6.1733
     6.4155   6.4155   6.5074   6.5074   6.5302   6.5302   6.7347   6.7347
     7.0721   7.0721   7.0831   7.0831   7.1063   7.1063   7.4571   7.4571
     7.4769   7.4769   7.6019   7.6019   7.6282   7.6282   7.8556   7.8556
    10.6643  10.6643  11.1882  11.1882  11.3080  11.3080  11.6757  11.6757
    11.9773  11.9773  12.1121  12.1121  12.5361  12.5361  12.5904  12.5904
    12.8359  12.8359  12.9630  12.9630  13.3702  13.3702  13.7035  13.7035
    15.1239  15.1239  15.6528  15.6528  16.2008  16.2008  16.3248  16.3248
    16.8048  16.8048  17.3120  17.3120  17.8165

          k = 0.0000-0.4725 0.0000 ( 62212 PWs)   bands (ev):

   -66.1698 -66.1698 -66.1688 -66.1688 -66.1688 -66.1688 -66.1678 -66.1678
   -30.5765 -30.5765 -30.5708 -30.5708 -30.5071 -30.5071 -30.5063 -30.5063
   -30.4913 -30.4913 -30.4908 -30.4907 -30.4777 -30.4777 -30.4750 -30.4750
   -30.4533 -30.4533 -30.4524 -30.4524 -30.4087 -30.4087 -30.4034 -30.4034
   -20.3325 -20.3325 -20.3324 -20.3323 -20.3321 -20.3321 -20.3319 -20.3319
   -20.3141 -20.3141 -20.3137 -20.3137 -20.3135 -20.3135 -20.3132 -20.3132
   -20.3095 -20.3095 -20.3092 -20.3092 -20.3074 -20.3074 -20.3072 -20.3072
   -20.3043 -20.3043 -20.3040 -20.3040 -20.3037 -20.3037 -20.3035 -20.3034
   -20.3011 -20.3011 -20.3008 -20.3008 -20.2966 -20.2966 -20.2964 -20.2963
   -20.2942 -20.2942 -20.2937 -20.2937 -20.2909 -20.2909 -20.2901 -20.2901
   -20.2889 -20.2889 -20.2885 -20.2885 -20.2858 -20.2858 -20.2853 -20.2852
    -9.8199  -9.8199  -9.4225  -9.4225  -9.2875  -9.2875  -9.0682  -9.0682
    -8.3747  -8.3747  -8.3303  -8.3302  -8.3236  -8.3236  -8.3192  -8.3192
    -7.8827  -7.8827  -7.7628  -7.7628  -7.7397  -7.7397  -7.6235  -7.6235
     1.1523   1.1523   1.2309   1.2309   1.3212   1.3212   1.5984   1.5984
     2.3565   2.3565   3.0660   3.0660   3.1543   3.1543   3.2897   3.2898
     3.3935   3.3935   3.4100   3.4100   3.5402   3.5402   3.7128   3.7128
     3.7978   3.7978   4.7074   4.7074   4.7506   4.7506   5.3211   5.3211
     5.3638   5.3638   5.4101   5.4101   5.4522   5.4522   5.7803   5.7803
     5.7878   5.7878   5.8266   5.8266   6.0140   6.0140   6.0516   6.0516
     6.1739   6.1739   6.2819   6.2819   6.5949   6.5949   6.7589   6.7589
     6.8865   6.8865   7.1720   7.1720   7.3550   7.3550   7.4434   7.4434
     7.5354   7.5354   7.5363   7.5363   7.6006   7.6006   7.7690   7.7690
     9.4638   9.4638  11.1667  11.1668  11.2463  11.2464  11.3007  11.3007
    11.4008  11.4008  12.2921  12.2921  12.5020  12.5020  12.7631  12.7631
    13.4494  13.4494  13.4898  13.4898  13.4979  13.4979  13.6063  13.6063
    15.3445  15.3445  15.4991  15.4991  15.5546  15.5546  15.7151  15.7152
    16.3966  16.3966  17.8587  17.8587  18.2076

          k = 0.0000-0.4725 0.1667 ( 62246 PWs)   bands (ev):

   -66.1698 -66.1697 -66.1689 -66.1688 -66.1688 -66.1687 -66.1679 -66.1679
   -30.5761 -30.5711 -30.5703 -30.5646 -30.5087 -30.5059 -30.5032 -30.5003
   -30.4947 -30.4927 -30.4917 -30.4888 -30.4771 -30.4768 -30.4754 -30.4744
   -30.4570 -30.4559 -30.4530 -30.4527 -30.4150 -30.4096 -30.4084 -30.4038
   -20.3325 -20.3325 -20.3324 -20.3323 -20.3321 -20.3321 -20.3320 -20.3320
   -20.3141 -20.3141 -20.3137 -20.3137 -20.3136 -20.3135 -20.3132 -20.3132
   -20.3095 -20.3093 -20.3092 -20.3091 -20.3075 -20.3074 -20.3073 -20.3072
   -20.3043 -20.3043 -20.3040 -20.3040 -20.3037 -20.3037 -20.3035 -20.3035
   -20.3011 -20.3008 -20.3007 -20.3004 -20.2967 -20.2963 -20.2962 -20.2959
   -20.2948 -20.2943 -20.2940 -20.2935 -20.2911 -20.2908 -20.2903 -20.2902
   -20.2889 -20.2888 -20.2885 -20.2884 -20.2861 -20.2857 -20.2856 -20.2853
    -9.7746  -9.7594  -9.4375  -9.3353  -9.3046  -9.2023  -9.0343  -9.0211
    -8.3808  -8.3802  -8.3399  -8.3343  -8.3274  -8.3227  -8.3182  -8.3178
    -7.9978  -7.8817  -7.8731  -7.8643  -7.7530  -7.7487  -7.7464  -7.6325
     1.2132   1.2335   1.2758   1.3269   1.4829   1.5738   1.7383   1.7925
     2.4451   2.4467   3.0639   3.0773   3.1687   3.1981   3.2947   3.3010
     3.3716   3.3956   3.4149   3.4613   3.5353   3.6048   3.7027   3.7452
     3.8199   3.8267   4.3537   4.3597   4.7454   4.7484   5.0579   5.1107
     5.2191   5.2324   5.2854   5.3173   5.4215   5.4736   5.5145   5.5452
     5.7258   5.7370   5.7477   5.7562   5.8982   6.0551   6.0697   6.1037
     6.2317   6.3545   6.3908   6.4481   6.5845   6.7474   6.8009   6.9470
     6.9570   6.9865   6.9906   7.0357   7.1356   7.1978   7.4350   7.4538
     7.5094   7.5287   7.5343   7.5448   7.5874   7.5954   7.7746   7.7765
     9.7688   9.8021  11.1704  11.2396  11.2773  11.3024  11.3676  11.4092
    11.4196  11.5158  12.2070  12.3466  12.3940  12.5450  12.8154  12.8200
    13.2928  13.3245  13.3375  13.3953  13.4875  13.4942  13.5549  13.6210
    15.3253  15.4474  15.5360  15.5757  15.6711  15.7217  15.8287  15.9568
    16.4536  16.4603  17.7460  17.7962  17.9103

          k = 0.0000-0.4725 0.3333 ( 62268 PWs)   bands (ev):

   -66.1696 -66.1696 -66.1691 -66.1690 -66.1686 -66.1685 -66.1681 -66.1680
   -30.5750 -30.5721 -30.5539 -30.5479 -30.5159 -30.5063 -30.5045 -30.4980
   -30.4970 -30.4927 -30.4847 -30.4814 -30.4766 -30.4751 -30.4725 -30.4709
   -30.4648 -30.4631 -30.4554 -30.4507 -30.4318 -30.4260 -30.4075 -30.4049
   -20.3325 -20.3324 -20.3324 -20.3323 -20.3322 -20.3321 -20.3321 -20.3320
   -20.3141 -20.3140 -20.3138 -20.3137 -20.3136 -20.3135 -20.3133 -20.3133
   -20.3094 -20.3093 -20.3089 -20.3086 -20.3078 -20.3076 -20.3074 -20.3073
   -20.3043 -20.3042 -20.3041 -20.3039 -20.3039 -20.3037 -20.3036 -20.3036
   -20.3010 -20.3009 -20.2997 -20.2993 -20.2972 -20.2961 -20.2961 -20.2954
   -20.2950 -20.2947 -20.2944 -20.2930 -20.2919 -20.2910 -20.2907 -20.2903
   -20.2887 -20.2885 -20.2884 -20.2880 -20.2869 -20.2864 -20.2856 -20.2853
    -9.6682  -9.6112  -9.4827  -9.3584  -9.0897  -8.9635  -8.9147  -8.8667
    -8.4527  -8.4234  -8.4020  -8.3847  -8.3280  -8.3230  -8.3096  -8.3017
    -8.2286  -8.1480  -8.1336  -8.0420  -7.8422  -7.7737  -7.7268  -7.6572
     1.2417   1.2533   1.3416   1.3576   2.1576   2.2401   2.3560   2.4314
     2.7028   2.7041   3.0609   3.0900   3.2142   3.2672   3.2911   3.3076
     3.3674   3.3836   3.4340   3.4917   3.5501   3.6611   3.7550   3.7789
     3.7871   3.8269   3.8593   3.8857   4.4536   4.4737   4.6275   4.6957
     4.7491   4.8287   4.8978   4.9170   5.1402   5.2480   5.3255   5.3381
     5.4627   5.5292   5.6496   5.6985   6.0239   6.0909   6.1186   6.3101
     6.3290   6.4598   6.5287   6.5972   6.6577   6.6983   6.7126   6.8691
     6.9669   7.0303   7.1158   7.1376   7.2079   7.2312   7.4092   7.4705
     7.4859   7.5193   7.5332   7.5648   7.5655   7.5841   7.7212   7.7254
    10.4391  10.5115  11.1798  11.2273  11.3121  11.3603  11.6717  11.7164
    11.7632  11.8363  11.8528  11.9906  12.5203  12.6557  12.6981  12.7018
    12.8324  12.8862  13.0961  13.1915  13.4863  13.4874  13.5184  13.5646
    15.3287  15.4822  15.4922  15.6477  16.1731  16.2968  16.5211  16.6033
    16.6367  16.6723  17.3177  17.3571  17.6853

          k = 0.0000-0.4725-0.5000 ( 62284 PWs)   bands (ev):

   -66.1693 -66.1693 -66.1693 -66.1693 -66.1683 -66.1683 -66.1683 -66.1683
   -30.5735 -30.5735 -30.5328 -30.5328 -30.5260 -30.5260 -30.5020 -30.5020
   -30.4943 -30.4943 -30.4785 -30.4785 -30.4714 -30.4714 -30.4690 -30.4690
   -30.4640 -30.4640 -30.4528 -30.4528 -30.4439 -30.4439 -30.4062 -30.4062
   -20.3324 -20.3324 -20.3323 -20.3323 -20.3322 -20.3322 -20.3320 -20.3320
   -20.3140 -20.3140 -20.3138 -20.3138 -20.3135 -20.3135 -20.3134 -20.3134
   -20.3094 -20.3094 -20.3083 -20.3083 -20.3081 -20.3081 -20.3073 -20.3073
   -20.3042 -20.3042 -20.3041 -20.3041 -20.3038 -20.3038 -20.3036 -20.3036
   -20.3009 -20.3009 -20.2983 -20.2983 -20.2978 -20.2978 -20.2958 -20.2958
   -20.2948 -20.2948 -20.2932 -20.2932 -20.2921 -20.2921 -20.2905 -20.2905
   -20.2886 -20.2885 -20.2877 -20.2877 -20.2873 -20.2873 -20.2855 -20.2855
    -9.5604  -9.5604  -9.4591  -9.4591  -8.7458  -8.7458  -8.6752  -8.6752
    -8.6362  -8.6362  -8.6014  -8.6014  -8.3222  -8.3222  -8.2892  -8.2892
    -8.2761  -8.2761  -8.2341  -8.2341  -7.8082  -7.8082  -7.6916  -7.6916
     1.2523   1.2523   1.3578   1.3578   2.9001   2.9001   2.9784   2.9784
     3.0610   3.0610   3.1538   3.1538   3.1706   3.1706   3.2247   3.2247
     3.3164   3.3164   3.3938   3.3938   3.4352   3.4352   3.5244   3.5244
     3.6193   3.6193   3.8159   3.8159   4.3273   4.3273   4.3905   4.3905
     4.4333   4.4333   4.5187   4.5187   5.2288   5.2288   5.2726   5.2726
     5.5232   5.5232   5.6129   5.6129   6.1625   6.1625   6.1733   6.1733
     6.4409   6.4409   6.5349   6.5349   6.5590   6.5590   6.6618   6.6618
     7.2449   7.2449   7.2848   7.2848   7.3140   7.3140   7.4168   7.4168
     7.5151   7.5151   7.5404   7.5404   7.5618   7.5619   7.6129   7.6129
    11.1074  11.1074  11.2175  11.2175  11.3099  11.3099  11.4075  11.4075
    12.1627  12.1627  12.2073  12.2073  12.3122  12.3122  12.3450  12.3450
    12.8108  12.8108  12.9320  12.9320  13.4877  13.4877  13.5075  13.5075
    15.4019  15.4019  15.5720  15.5720  16.8208  16.8208  16.8771  16.8772
    17.1778  17.1780  17.2041  17.2042  17.3039

          k = 0.1667 0.0000 0.1667 ( 62234 PWs)   bands (ev):

   -66.1699 -66.1695 -66.1690 -66.1690 -66.1686 -66.1686 -66.1681 -66.1677
   -30.5721 -30.5686 -30.5655 -30.5654 -30.5141 -30.5127 -30.5125 -30.5053
   -30.5006 -30.4998 -30.4974 -30.4948 -30.4847 -30.4735 -30.4733 -30.4659
   -30.4489 -30.4424 -30.4422 -30.4382 -30.4147 -30.4144 -30.4105 -30.4095
   -20.3325 -20.3325 -20.3323 -20.3323 -20.3321 -20.3321 -20.3320 -20.3320
   -20.3142 -20.3140 -20.3138 -20.3138 -20.3135 -20.3135 -20.3133 -20.3131
   -20.3103 -20.3098 -20.3097 -20.3088 -20.3086 -20.3074 -20.3074 -20.3064
   -20.3061 -20.3053 -20.3053 -20.3048 -20.3022 -20.3020 -20.3019 -20.3016
   -20.3008 -20.3005 -20.3003 -20.3003 -20.2964 -20.2963 -20.2959 -20.2958
   -20.2950 -20.2946 -20.2939 -20.2939 -20.2911 -20.2911 -20.2905 -20.2903
   -20.2888 -20.2886 -20.2883 -20.2883 -20.2861 -20.2860 -20.2857 -20.2854
    -9.8623  -9.6141  -9.4556  -9.4537  -9.2027  -9.2000  -8.9970  -8.9888
    -8.9372  -8.7533  -8.7456  -8.7442  -8.0204  -7.9926  -7.8956  -7.8936
    -7.8790  -7.8693  -7.7732  -7.7490  -7.7366  -7.6963  -7.6953  -7.6539
     1.4035   1.4142   1.4715   1.4726   1.5646   1.5650   1.5806   1.7696
     1.7991   1.8017   1.8649   2.0591   2.4955   2.5831   2.6973   2.7651
     2.8503   2.8768   4.0784   4.0889   4.2993   4.3018   4.4142   4.4241
     4.4529   4.4639   4.6307   4.7830   4.7924   4.8979   5.1194   5.2266
     5.2328   5.3335   5.3648   5.5458   5.5807   5.5818   5.6090   5.6584
     5.7067   5.7757   5.7863   5.8491   5.9130   6.0737   6.1667   6.1743
     6.2854   6.5249   6.5287   6.6373   6.6649   6.7246   6.7623   6.7874
     6.8040   6.8371   6.8613   6.8678   6.8822   6.9568   6.9919   7.0864
     7.2048   7.2546   7.7584   7.7617   8.0195   8.0384   8.0573   8.1252
     9.9543  10.0048  10.2529  10.2686  10.3170  10.4001  12.2356  12.2379
    12.2418  12.2674  12.4304  12.4462  12.5305  12.6377  12.7100  12.8386
    13.0001  13.1199  13.2516  13.3088  13.6870  13.7840  13.8618  13.8965
    14.2426  14.5022  14.5041  15.1308  15.2692  15.5304  15.5540  16.2715
    16.2896  16.8984  16.9239  17.0609  17.6249

          k = 0.1667 0.0000 0.3333 ( 62265 PWs)   bands (ev):

   -66.1697 -66.1693 -66.1692 -66.1688 -66.1688 -66.1684 -66.1683 -66.1679
   -30.5695 -30.5665 -30.5539 -30.5493 -30.5193 -30.5174 -30.5103 -30.5040
   -30.5007 -30.4963 -30.4935 -30.4860 -30.4840 -30.4800 -30.4719 -30.4684
   -30.4475 -30.4455 -30.4420 -30.4409 -30.4305 -30.4262 -30.4137 -30.4111
   -20.3325 -20.3324 -20.3324 -20.3323 -20.3322 -20.3321 -20.3321 -20.3320
   -20.3141 -20.3139 -20.3139 -20.3137 -20.3136 -20.3135 -20.3134 -20.3132
   -20.3102 -20.3098 -20.3095 -20.3090 -20.3083 -20.3076 -20.3072 -20.3066
   -20.3060 -20.3055 -20.3052 -20.3050 -20.3022 -20.3021 -20.3019 -20.3017
   -20.3006 -20.3004 -20.2996 -20.2992 -20.2969 -20.2962 -20.2957 -20.2956
   -20.2949 -20.2947 -20.2946 -20.2933 -20.2919 -20.2911 -20.2909 -20.2905
   -20.2886 -20.2883 -20.2883 -20.2880 -20.2868 -20.2864 -20.2859 -20.2856
    -9.7357  -9.5082  -9.4746  -9.2659  -9.2486  -8.9781  -8.9617  -8.8891
    -8.8588  -8.7602  -8.7119  -8.6650  -8.3004  -8.2146  -8.1768  -8.1053
    -7.9678  -7.9028  -7.8490  -7.7832  -7.7345  -7.7071  -7.6906  -7.6641
     1.4763   1.4822   1.5719   1.5848   1.7169   1.7258   1.7546   1.7906
     2.1972   2.2842   2.3886   2.4941   2.7410   2.7699   2.8429   2.8625
     2.9813   3.0994   3.7219   3.8473   3.9024   3.9112   4.2049   4.2684
     4.2934   4.4115   4.4942   4.5948   4.6479   4.6842   4.7668   4.8495
     5.0277   5.0503   5.1032   5.1672   5.2565   5.4267   5.6075   5.6197
     5.6993   5.7865   5.8545   5.9070   5.9296   5.9766   6.0431   6.1084
     6.3791   6.4993   6.5110   6.5747   6.6195   6.6948   6.7111   6.7710
     6.7799   6.8449   6.8757   6.8907   7.0444   7.0646   7.1093   7.1969
     7.3217   7.3726   7.7008   7.7090   7.9169   7.9463   8.0742   8.0975
    10.2495  10.2564  10.5638  10.6631  10.8679  11.0132  11.8856  11.9835
    12.1107  12.3810  12.4253  12.4541  12.5658  12.5704  12.7226  12.7920
    12.8398  13.0460  13.0906  13.2436  13.5461  13.5779  13.8089  13.8302
    14.3183  14.4766  14.7112  15.1675  15.4291  15.8005  15.9321  16.1648
    16.4224  17.0872  17.4113  17.4510  17.5236

          k = 0.1667 0.0000-0.5000 ( 62322 PWs)   bands (ev):

   -66.1694 -66.1694 -66.1690 -66.1690 -66.1686 -66.1686 -66.1682 -66.1682
   -30.5679 -30.5679 -30.5339 -30.5339 -30.5296 -30.5296 -30.5059 -30.5059
   -30.5012 -30.5012 -30.4927 -30.4927 -30.4766 -30.4766 -30.4583 -30.4583
   -30.4536 -30.4535 -30.4440 -30.4440 -30.4383 -30.4383 -30.4125 -30.4125
   -20.3324 -20.3324 -20.3323 -20.3323 -20.3322 -20.3322 -20.3320 -20.3320
   -20.3140 -20.3140 -20.3138 -20.3138 -20.3136 -20.3136 -20.3134 -20.3134
   -20.3100 -20.3100 -20.3092 -20.3092 -20.3080 -20.3080 -20.3069 -20.3069
   -20.3057 -20.3057 -20.3051 -20.3051 -20.3022 -20.3022 -20.3018 -20.3018
   -20.3005 -20.3005 -20.2982 -20.2982 -20.2977 -20.2977 -20.2954 -20.2954
   -20.2952 -20.2951 -20.2931 -20.2931 -20.2922 -20.2922 -20.2907 -20.2907
   -20.2884 -20.2884 -20.2877 -20.2877 -20.2873 -20.2873 -20.2858 -20.2858
    -9.6030  -9.6030  -9.3371  -9.3371  -9.0762  -9.0762  -8.7928  -8.7928
    -8.6426  -8.6426  -8.5937  -8.5937  -8.5183  -8.5183  -8.4428  -8.4428
    -7.9389  -7.9389  -7.8153  -7.8153  -7.7218  -7.7218  -7.6777  -7.6777
     1.4827   1.4827   1.5872   1.5872   1.7400   1.7400   1.7776   1.7776
     2.7686   2.7686   2.9606   2.9606   3.0364   3.0364   3.1718   3.1718
     3.2252   3.2252   3.3455   3.3455   3.5215   3.5215   3.7988   3.7989
     3.8810   3.8810   4.3987   4.3987   4.5905   4.5905   4.8622   4.8622
     4.9709   4.9709   5.0345   5.0346   5.2658   5.2658   5.6904   5.6904
     5.7164   5.7164   5.7857   5.7857   5.9109   5.9109   6.0774   6.0774
     6.3631   6.3631   6.5213   6.5213   6.6331   6.6331   6.7647   6.7647
     6.8196   6.8196   6.9157   6.9157   6.9815   6.9815   7.4751   7.4751
     7.5041   7.5041   7.6847   7.6847   7.7202   7.7202   8.0877   8.0877
    10.2681  10.2681  11.2502  11.2502  11.3762  11.3762  11.5456  11.5456
    11.7747  11.7747  12.5628  12.5628  12.6165  12.6165  12.7370  12.7370
    12.8977  12.8977  13.1927  13.1927  13.2950  13.2950  13.8125  13.8125
    14.4211  14.4211  14.9794  14.9794  15.8215  15.8215  16.0726  16.0726
    16.7123  16.7123  17.8314  17.8317  17.9629

          k = 0.1667 0.1575 0.1667 ( 62255 PWs)   bands (ev):

   -66.1699 -66.1695 -66.1690 -66.1690 -66.1686 -66.1686 -66.1681 -66.1678
   -30.5717 -30.5687 -30.5653 -30.5652 -30.5115 -30.5103 -30.5103 -30.5022
   -30.5005 -30.4997 -30.4967 -30.4937 -30.4856 -30.4736 -30.4735 -30.4651
   -30.4526 -30.4453 -30.4452 -30.4411 -30.4147 -30.4145 -30.4104 -30.4096
   -20.3325 -20.3325 -20.3323 -20.3323 -20.3321 -20.3321 -20.3320 -20.3320
   -20.3142 -20.3140 -20.3138 -20.3137 -20.3135 -20.3135 -20.3133 -20.3132
   -20.3102 -20.3096 -20.3096 -20.3087 -20.3086 -20.3074 -20.3074 -20.3065
   -20.3059 -20.3052 -20.3052 -20.3047 -20.3025 -20.3022 -20.3022 -20.3019
   -20.3008 -20.3005 -20.3003 -20.3003 -20.2964 -20.2963 -20.2959 -20.2958
   -20.2950 -20.2946 -20.2939 -20.2939 -20.2911 -20.2911 -20.2905 -20.2903
   -20.2888 -20.2886 -20.2883 -20.2883 -20.2861 -20.2861 -20.2857 -20.2855
    -9.8377  -9.6247  -9.4303  -9.4283  -9.2060  -9.2033  -8.9962  -8.9884
    -8.8671  -8.7068  -8.7028  -8.7014  -8.0257  -7.9939  -7.9089  -7.9004
    -7.8788  -7.8732  -7.8325  -7.7903  -7.7816  -7.7664  -7.7496  -7.7320
     1.4059   1.4132   1.4803   1.4812   1.5733   1.5746   1.7057   1.8630
     1.9558   2.0068   2.0088   2.1901   2.5022   2.5779   2.7687   2.8411
     2.9227   2.9424   3.9899   3.9912   4.1269   4.1436   4.3793   4.3962
     4.4271   4.4489   4.6019   4.7662   4.8364   4.8578   5.0023   5.1704
     5.1882   5.2940   5.3081   5.3837   5.3956   5.5398   5.5603   5.6121
     5.7018   5.7556   5.8266   5.8811   5.9010   5.9566   6.1366   6.1582
     6.3166   6.4444   6.5075   6.6203   6.6837   6.7185   6.7484   6.7833
     6.8209   6.8537   6.8822   6.9171   6.9555   6.9717   7.0213   7.0912
     7.2104   7.2536   7.7578   7.7618   7.9787   7.9907   8.0144   8.0532
     9.9797  10.0189  10.4001  10.4102  10.4602  10.5300  12.1553  12.1829
    12.2350  12.2465  12.3530  12.4064  12.4594  12.5046  12.7356  12.8536
    13.0035  13.1116  13.2533  13.3048  13.7197  13.7257  13.8159  13.8344
    14.4484  14.7542  14.7598  15.2310  15.5267  15.5579  15.6714  16.2453
    16.2566  16.7737  17.0138  17.0153  17.6067

          k = 0.1667 0.1575 0.3333 ( 62260 PWs)   bands (ev):

   -66.1697 -66.1693 -66.1692 -66.1688 -66.1688 -66.1684 -66.1683 -66.1679
   -30.5693 -30.5663 -30.5537 -30.5490 -30.5178 -30.5151 -30.5080 -30.5012
   -30.5000 -30.4958 -30.4934 -30.4857 -30.4833 -30.4798 -30.4712 -30.4686
   -30.4511 -30.4487 -30.4447 -30.4438 -30.4309 -30.4263 -30.4137 -30.4111
   -20.3325 -20.3324 -20.3324 -20.3323 -20.3322 -20.3321 -20.3321 -20.3320
   -20.3141 -20.3139 -20.3139 -20.3137 -20.3136 -20.3135 -20.3134 -20.3133
   -20.3100 -20.3097 -20.3093 -20.3088 -20.3084 -20.3077 -20.3073 -20.3067
   -20.3058 -20.3053 -20.3051 -20.3048 -20.3025 -20.3023 -20.3022 -20.3020
   -20.3006 -20.3004 -20.2996 -20.2993 -20.2969 -20.2962 -20.2957 -20.2957
   -20.2949 -20.2947 -20.2946 -20.2933 -20.2919 -20.2911 -20.2909 -20.2905
   -20.2886 -20.2883 -20.2883 -20.2880 -20.2868 -20.2864 -20.2859 -20.2856
    -9.7092  -9.4854  -9.4813  -9.2533  -9.2283  -8.9652  -8.9102  -8.8863
    -8.8538  -8.7187  -8.6738  -8.6348  -8.3013  -8.2188  -8.1780  -8.1081
    -7.9702  -7.9075  -7.8547  -7.8268  -7.7944  -7.7836  -7.7780  -7.7496
     1.4887   1.4982   1.5823   1.5980   1.8866   1.9090   1.9761   1.9998
     2.2050   2.2985   2.3924   2.5136   2.7718   2.8186   2.8596   2.9133
     3.0546   3.1597   3.7195   3.8386   3.8627   3.8996   4.1303   4.1769
     4.2653   4.3878   4.4126   4.5483   4.6284   4.6727   4.7637   4.7895
     4.9253   4.9376   4.9893   5.1209   5.2040   5.2576   5.3828   5.5824
     5.6550   5.6914   5.7671   5.8424   5.9083   5.9330   5.9959   6.0284
     6.3677   6.4997   6.5454   6.6446   6.6747   6.7234   6.7487   6.8002
     6.8471   6.8589   6.9243   6.9775   7.0401   7.0741   7.1108   7.2036
     7.3236   7.3749   7.7025   7.7061   7.8831   7.9080   8.0188   8.0325
    10.3815  10.4005  10.5929  10.6789  10.9737  11.0918  11.8840  11.9822
    12.0944  12.3554  12.3890  12.4388  12.4820  12.5305  12.6476  12.7312
    12.8171  13.0188  13.0785  13.2422  13.4592  13.4995  13.7665  13.7862
    14.5912  14.7358  15.0402  15.4643  15.6026  15.8051  15.9472  16.1546
    16.5011  17.0536  17.1982  17.4668  17.5239

          k = 0.1667 0.1575-0.5000 ( 62292 PWs)   bands (ev):

   -66.1694 -66.1694 -66.1691 -66.1691 -66.1685 -66.1685 -66.1682 -66.1682
   -30.5677 -30.5677 -30.5334 -30.5334 -30.5287 -30.5287 -30.5042 -30.5042
   -30.4994 -30.4994 -30.4917 -30.4917 -30.4760 -30.4760 -30.4588 -30.4588
   -30.4550 -30.4550 -30.4465 -30.4465 -30.4406 -30.4406 -30.4125 -30.4125
   -20.3324 -20.3324 -20.3323 -20.3323 -20.3322 -20.3322 -20.3320 -20.3320
   -20.3140 -20.3140 -20.3138 -20.3138 -20.3136 -20.3136 -20.3134 -20.3134
   -20.3098 -20.3098 -20.3090 -20.3090 -20.3080 -20.3080 -20.3070 -20.3070
   -20.3056 -20.3056 -20.3050 -20.3050 -20.3024 -20.3024 -20.3021 -20.3021
   -20.3005 -20.3005 -20.2982 -20.2982 -20.2978 -20.2978 -20.2954 -20.2954
   -20.2952 -20.2952 -20.2932 -20.2931 -20.2922 -20.2922 -20.2907 -20.2907
   -20.2884 -20.2884 -20.2877 -20.2877 -20.2873 -20.2873 -20.2858 -20.2858
    -9.5761  -9.5761  -9.3443  -9.3442  -9.0175  -9.0175  -8.7616  -8.7616
    -8.6384  -8.6384  -8.5978  -8.5978  -8.5103  -8.5102  -8.4352  -8.4352
    -7.9427  -7.9427  -7.8284  -7.8284  -7.8005  -7.8005  -7.7659  -7.7659
     1.4996   1.4996   1.6014   1.6014   1.9255   1.9255   1.9984   1.9984
     2.8320   2.8320   2.9740   2.9740   3.0391   3.0391   3.1877   3.1877
     3.2289   3.2289   3.3583   3.3583   3.5226   3.5226   3.8092   3.8093
     3.9330   3.9330   4.2532   4.2532   4.5520   4.5520   4.7227   4.7227
     4.9072   4.9072   4.9936   4.9936   5.1180   5.1180   5.4995   5.4995
     5.6904   5.6904   5.7353   5.7353   5.8313   5.8313   5.9398   5.9398
     6.4715   6.4715   6.6151   6.6151   6.6769   6.6769   6.7789   6.7790
     6.8677   6.8678   6.9226   6.9226   7.0283   7.0283   7.4783   7.4783
     7.4984   7.4984   7.6684   7.6685   7.7008   7.7008   8.0268   8.0268
    10.4179  10.4180  11.2587  11.2587  11.3790  11.3790  11.6077  11.6077
    11.8263  11.8263  12.4549  12.4549  12.5877  12.5877  12.7140  12.7140
    12.8759  12.8759  13.0932  13.0932  13.2409  13.2409  13.7658  13.7658
    14.6904  14.6904  15.3405  15.3405  15.8953  15.8954  16.0829  16.0829
    16.7448  16.7448  17.6860  17.6860  17.9346

          k = 0.1667 0.3150 0.1667 ( 62249 PWs)   bands (ev):

   -66.1698 -66.1696 -66.1689 -66.1689 -66.1687 -66.1687 -66.1680 -66.1678
   -30.5709 -30.5692 -30.5651 -30.5650 -30.5071 -30.5065 -30.5034 -30.5002
   -30.4997 -30.4949 -30.4937 -30.4886 -30.4882 -30.4741 -30.4740 -30.4627
   -30.4622 -30.4523 -30.4521 -30.4484 -30.4147 -30.4146 -30.4103 -30.4098
   -20.3325 -20.3325 -20.3323 -20.3323 -20.3321 -20.3321 -20.3320 -20.3320
   -20.3141 -20.3140 -20.3137 -20.3137 -20.3135 -20.3135 -20.3133 -20.3132
   -20.3098 -20.3093 -20.3093 -20.3089 -20.3080 -20.3075 -20.3075 -20.3068
   -20.3053 -20.3047 -20.3047 -20.3043 -20.3033 -20.3029 -20.3029 -20.3026
   -20.3008 -20.3006 -20.3004 -20.3004 -20.2964 -20.2964 -20.2959 -20.2958
   -20.2949 -20.2947 -20.2939 -20.2939 -20.2911 -20.2911 -20.2904 -20.2904
   -20.2888 -20.2887 -20.2883 -20.2883 -20.2861 -20.2861 -20.2857 -20.2855
    -9.7775  -9.6569  -9.3783  -9.3767  -9.2145  -9.2124  -8.9940  -8.9890
    -8.6692  -8.5650  -8.5648  -8.5622  -8.1157  -8.0586  -8.0567  -8.0286
    -7.9843  -7.9707  -7.8780  -7.8708  -7.8684  -7.8584  -7.7529  -7.7513
     1.4078   1.4113   1.4853   1.4859   1.5790   1.5796   1.8250   1.8611
     2.4785   2.5162   2.5571   2.5919   2.5991   2.7414   2.9817   3.0816
     3.1397   3.1552   3.6853   3.6929   3.7259   3.7857   4.1383   4.3661
     4.3862   4.4150   4.4175   4.5664   4.5778   4.8115   4.8618   4.9449
     4.9998   5.0256   5.1577   5.1601   5.3678   5.3923   5.4401   5.4743
     5.6860   5.6986   5.7083   5.7194   5.8043   5.8441   6.1331   6.1506
     6.4071   6.4342   6.4864   6.6168   6.7205   6.7377   6.7870   6.8092
     6.9357   6.9427   6.9978   7.0067   7.1140   7.1172   7.1444   7.1643
     7.2717   7.2769   7.7384   7.7568   7.8223   7.8295   7.8478   7.8582
    10.0118  10.0292  10.7920  10.8225  10.8561  10.9237  11.8409  11.8779
    11.9506  12.0327  12.2622  12.2679  12.4403  12.4407  12.7970  12.8669
    13.0939  13.1497  13.2708  13.3118  13.5313  13.5469  13.6349  13.6838
    15.0999  15.3293  15.3563  15.5182  15.5399  15.7170  16.1363  16.1405
    16.2772  16.6339  17.2264  17.3394  17.3634

          k = 0.1667 0.3150 0.3333 ( 62265 PWs)   bands (ev):

   -66.1696 -66.1694 -66.1691 -66.1689 -66.1687 -66.1685 -66.1682 -66.1680
   -30.5690 -30.5661 -30.5535 -30.5485 -30.5151 -30.5098 -30.5030 -30.4990
   -30.4965 -30.4945 -30.4897 -30.4844 -30.4803 -30.4783 -30.4706 -30.4677
   -30.4607 -30.4572 -30.4519 -30.4503 -30.4314 -30.4266 -30.4138 -30.4112
   -20.3325 -20.3324 -20.3324 -20.3323 -20.3322 -20.3321 -20.3321 -20.3320
   -20.3141 -20.3139 -20.3138 -20.3137 -20.3136 -20.3135 -20.3134 -20.3133
   -20.3096 -20.3093 -20.3089 -20.3086 -20.3082 -20.3078 -20.3074 -20.3070
   -20.3052 -20.3048 -20.3046 -20.3044 -20.3032 -20.3030 -20.3029 -20.3027
   -20.3006 -20.3005 -20.2996 -20.2993 -20.2969 -20.2962 -20.2957 -20.2957
   -20.2949 -20.2947 -20.2946 -20.2933 -20.2919 -20.2911 -20.2909 -20.2906
   -20.2886 -20.2883 -20.2883 -20.2880 -20.2868 -20.2864 -20.2859 -20.2857
    -9.6462  -9.5145  -9.4272  -9.2659  -9.1487  -8.9744  -8.8851  -8.8492
    -8.7152  -8.5878  -8.5447  -8.5256  -8.3097  -8.2520  -8.1856  -8.1272
    -8.0544  -8.0412  -8.0167  -7.9750  -7.9476  -7.8861  -7.8429  -7.7762
     1.4953   1.5050   1.5882   1.6041   2.1461   2.2353   2.2830   2.4017
     2.4995   2.5803   2.6063   2.7262   2.7943   2.8673   3.0397   3.1259
     3.2771   3.3398   3.6400   3.6837   3.7320   3.7958   3.8462   3.9282
     4.1056   4.3167   4.3918   4.4164   4.5069   4.5416   4.5584   4.6577
     4.7835   4.8287   4.8795   4.9275   4.9758   5.0413   5.1425   5.1923
     5.3511   5.3881   5.4931   5.6760   5.7176   5.8209   6.0026   6.0264
     6.5037   6.5810   6.6008   6.7095   6.7783   6.8329   6.9082   6.9569
     6.9824   7.0183   7.0398   7.0717   7.1153   7.1507   7.2091   7.2419
     7.3410   7.3890   7.6812   7.7077   7.7564   7.7762   7.8336   7.8490
    10.5613  10.6144  10.8425  10.8824  11.2705  11.3494  11.8132  11.8988
    11.9853  12.0712  12.1528  12.2131  12.4518  12.5719  12.6125  12.6283
    12.8492  12.9724  13.0685  13.2203  13.2788  13.3455  13.5784  13.6121
    15.2567  15.3359  15.6655  15.8490  15.9247  16.0178  16.0870  16.5201
    16.7017  16.8225  16.9430  17.4303  17.6268

          k = 0.1667 0.3150-0.5000 ( 62264 PWs)   bands (ev):

   -66.1693 -66.1693 -66.1691 -66.1691 -66.1685 -66.1685 -66.1683 -66.1683
   -30.5675 -30.5675 -30.5325 -30.5325 -30.5270 -30.5270 -30.5003 -30.5003
   -30.4969 -30.4969 -30.4862 -30.4862 -30.4736 -30.4736 -30.4621 -30.4621
   -30.4605 -30.4605 -30.4511 -30.4511 -30.4446 -30.4446 -30.4125 -30.4125
   -20.3324 -20.3324 -20.3323 -20.3323 -20.3322 -20.3322 -20.3321 -20.3320
   -20.3140 -20.3140 -20.3138 -20.3138 -20.3135 -20.3135 -20.3134 -20.3134
   -20.3094 -20.3094 -20.3085 -20.3085 -20.3082 -20.3082 -20.3072 -20.3072
   -20.3050 -20.3050 -20.3045 -20.3045 -20.3031 -20.3031 -20.3028 -20.3028
   -20.3005 -20.3005 -20.2982 -20.2982 -20.2978 -20.2978 -20.2954 -20.2954
   -20.2952 -20.2952 -20.2932 -20.2932 -20.2922 -20.2922 -20.2908 -20.2908
   -20.2884 -20.2884 -20.2877 -20.2877 -20.2873 -20.2873 -20.2858 -20.2858
    -9.5161  -9.5161  -9.3649  -9.3649  -8.8707  -8.8707  -8.6968  -8.6968
    -8.6237  -8.6237  -8.6042  -8.6041  -8.4645  -8.4645  -8.3976  -8.3976
    -8.0523  -8.0523  -8.0139  -8.0139  -7.9189  -7.9189  -7.8093  -7.8093
     1.5077   1.5077   1.6092   1.6092   2.4730   2.4730   2.5869   2.5869
     2.9691   2.9691   3.0210   3.0210   3.0690   3.0690   3.2206   3.2207
     3.2511   3.2511   3.3915   3.3915   3.5229   3.5229   3.7173   3.7173
     4.0312   4.0312   4.1002   4.1002   4.2186   4.2186   4.4044   4.4044
     4.7860   4.7860   4.8631   4.8631   5.0357   5.0357   5.0879   5.0879
     5.1296   5.1296   5.5700   5.5700   5.7935   5.7935   5.8519   5.8519
     6.6092   6.6092   6.7453   6.7453   6.7827   6.7827   6.8544   6.8544
     7.0463   7.0463   7.0950   7.0950   7.1749   7.1750   7.4745   7.4745
     7.4931   7.4931   7.6021   7.6021   7.6321   7.6321   7.8393   7.8393
    10.8184  10.8184  11.2761  11.2761  11.3849  11.3849  11.7290  11.7290
    11.9921  11.9921  12.1479  12.1479  12.5219  12.5219  12.5719  12.5719
    12.7948  12.7948  12.9095  12.9095  13.2242  13.2242  13.5761  13.5761
    15.3079  15.3079  15.8898  15.8898  16.2502  16.2502  16.3585  16.3585
    16.8602  16.8602  17.3488  17.3488  17.7864

          k = 0.1667-0.4725 0.1667 ( 62220 PWs)   bands (ev):

   -66.1697 -66.1697 -66.1688 -66.1688 -66.1688 -66.1688 -66.1679 -66.1679
   -30.5699 -30.5699 -30.5650 -30.5650 -30.5053 -30.5052 -30.5000 -30.5000
   -30.4950 -30.4950 -30.4902 -30.4902 -30.4762 -30.4762 -30.4748 -30.4748
   -30.4567 -30.4567 -30.4563 -30.4562 -30.4147 -30.4147 -30.4100 -30.4100
   -20.3325 -20.3325 -20.3323 -20.3323 -20.3321 -20.3321 -20.3320 -20.3320
   -20.3141 -20.3141 -20.3137 -20.3137 -20.3136 -20.3135 -20.3132 -20.3132
   -20.3093 -20.3093 -20.3091 -20.3091 -20.3075 -20.3075 -20.3073 -20.3073
   -20.3043 -20.3043 -20.3040 -20.3040 -20.3038 -20.3037 -20.3035 -20.3035
   -20.3007 -20.3007 -20.3004 -20.3004 -20.2964 -20.2964 -20.2958 -20.2958
   -20.2948 -20.2948 -20.2939 -20.2939 -20.2911 -20.2911 -20.2904 -20.2904
   -20.2887 -20.2887 -20.2883 -20.2883 -20.2861 -20.2861 -20.2856 -20.2856
    -9.7102  -9.7102  -9.3505  -9.3505  -9.2198  -9.2198  -8.9912  -8.9912
    -8.3891  -8.3891  -8.3369  -8.3369  -8.3285  -8.3285  -8.3193  -8.3193
    -7.9892  -7.9892  -7.8761  -7.8761  -7.8695  -7.8695  -7.7530  -7.7530
     1.4094   1.4094   1.4864   1.4865   1.5804   1.5804   1.8534   1.8534
     2.5386   2.5386   3.0815   3.0815   3.2011   3.2011   3.3040   3.3040
     3.3755   3.3755   3.4736   3.4736   3.6010   3.6010   3.7369   3.7369
     3.8417   3.8417   4.3860   4.3860   4.4403   4.4403   5.0047   5.0047
     5.0872   5.0872   5.2066   5.2066   5.2584   5.2584   5.4519   5.4519
     5.5040   5.5040   5.7094   5.7094   5.7504   5.7504   6.1517   6.1517
     6.4671   6.4671   6.5300   6.5300   6.7334   6.7334   6.8125   6.8125
     6.9528   6.9528   7.0478   7.0478   7.1858   7.1858   7.4400   7.4400
     7.5124   7.5124   7.5400   7.5400   7.5903   7.5903   7.7731   7.7731
    10.0267  10.0267  11.2845  11.2845  11.3557  11.3557  11.4284  11.4284
    11.5193  11.5193  12.2637  12.2638  12.4394  12.4394  12.8570  12.8570
    13.2687  13.2687  13.3072  13.3072  13.3335  13.3335  13.5500  13.5500
    15.4852  15.4852  15.7087  15.7087  15.8327  15.8327  15.9456  15.9456
    16.5133  16.5133  17.7348  17.7349  17.8657

          k = 0.1667-0.4725 0.3333 ( 62252 PWs)   bands (ev):

   -66.1695 -66.1695 -66.1690 -66.1690 -66.1686 -66.1686 -66.1681 -66.1681
   -30.5688 -30.5660 -30.5534 -30.5483 -30.5140 -30.5067 -30.5003 -30.4986
   -30.4960 -30.4936 -30.4844 -30.4816 -30.4760 -30.4743 -30.4729 -30.4707
   -30.4642 -30.4635 -30.4585 -30.4542 -30.4316 -30.4267 -30.4138 -30.4112
   -20.3325 -20.3324 -20.3324 -20.3323 -20.3322 -20.3321 -20.3321 -20.3320
   -20.3140 -20.3140 -20.3138 -20.3137 -20.3136 -20.3135 -20.3133 -20.3133
   -20.3093 -20.3091 -20.3089 -20.3086 -20.3078 -20.3077 -20.3075 -20.3074
   -20.3043 -20.3042 -20.3041 -20.3039 -20.3039 -20.3037 -20.3036 -20.3036
   -20.3007 -20.3005 -20.2997 -20.2993 -20.2970 -20.2962 -20.2957 -20.2957
   -20.2949 -20.2947 -20.2946 -20.2933 -20.2919 -20.2911 -20.2909 -20.2906
   -20.2886 -20.2883 -20.2883 -20.2880 -20.2868 -20.2864 -20.2859 -20.2857
    -9.5942  -9.5498  -9.3969  -9.2757  -9.1057  -8.9826  -8.8844  -8.8468
    -8.4661  -8.4400  -8.3940  -8.3775  -8.3295  -8.3208  -8.3137  -8.3083
    -8.2226  -8.1417  -8.1381  -8.0536  -7.9560  -7.8906  -7.8448  -7.7773
     1.4964   1.5061   1.5894   1.6051   2.1626   2.2475   2.3441   2.4164
     2.8066   2.8083   3.0838   3.1072   3.2264   3.2596   3.2971   3.3076
     3.3634   3.3766   3.4920   3.5516   3.5985   3.6983   3.7501   3.7860
     3.8203   3.8626   3.8938   3.9333   4.3974   4.4316   4.5913   4.6467
     4.6926   4.7414   4.8344   4.8681   4.9854   5.0149   5.0491   5.1485
     5.2258   5.3002   5.3387   5.4578   5.7234   5.7527   6.0041   6.0270
     6.5570   6.5998   6.6363   6.7143   6.7897   6.8905   6.9524   6.9867
     7.0253   7.0958   7.1229   7.1746   7.2257   7.2268   7.4127   7.4670
     7.4843   7.5136   7.5269   7.5504   7.5831   7.5880   7.7198   7.7281
    10.5851  10.6343  11.2978  11.3454  11.4189  11.4680  11.6744  11.7269
    11.7765  11.8266  11.9241  12.0487  12.4428  12.5874  12.6855  12.7178
    12.8406  12.8929  13.0410  13.1177  13.3125  13.3395  13.4192  13.4669
    15.5553  15.6939  15.7438  15.8841  16.2216  16.3404  16.5090  16.5933
    16.6850  16.7094  17.3593  17.4039  17.6471

          k = 0.1667-0.4725-0.5000 ( 62232 PWs)   bands (ev):

   -66.1693 -66.1693 -66.1692 -66.1692 -66.1684 -66.1684 -66.1684 -66.1684
   -30.5674 -30.5674 -30.5320 -30.5320 -30.5263 -30.5263 -30.4979 -30.4978
   -30.4964 -30.4964 -30.4780 -30.4780 -30.4707 -30.4707 -30.4694 -30.4694
   -30.4654 -30.4654 -30.4529 -30.4529 -30.4460 -30.4460 -30.4126 -30.4125
   -20.3324 -20.3324 -20.3323 -20.3323 -20.3322 -20.3322 -20.3321 -20.3321
   -20.3139 -20.3139 -20.3138 -20.3138 -20.3135 -20.3135 -20.3134 -20.3134
   -20.3092 -20.3092 -20.3083 -20.3083 -20.3081 -20.3081 -20.3074 -20.3074
   -20.3042 -20.3042 -20.3041 -20.3041 -20.3038 -20.3038 -20.3037 -20.3037
   -20.3006 -20.3006 -20.2982 -20.2982 -20.2978 -20.2978 -20.2954 -20.2954
   -20.2952 -20.2952 -20.2932 -20.2932 -20.2922 -20.2922 -20.2908 -20.2908
   -20.2884 -20.2884 -20.2877 -20.2877 -20.2873 -20.2873 -20.2858 -20.2858
    -9.4782  -9.4782  -9.3833  -9.3833  -8.7657  -8.7657  -8.6672  -8.6672
    -8.6512  -8.6511  -8.5822  -8.5822  -8.3197  -8.3197  -8.2898  -8.2898
    -8.2771  -8.2770  -8.2381  -8.2381  -7.9255  -7.9255  -7.8107  -7.8107
     1.5090   1.5090   1.6107   1.6107   2.9108   2.9108   2.9881   2.9881
     3.0813   3.0813   3.1281   3.1281   3.2094   3.2094   3.2623   3.2623
     3.3393   3.3393   3.4294   3.4294   3.4666   3.4666   3.5851   3.5851
     3.6520   3.6520   3.8393   3.8393   4.3274   4.3274   4.3790   4.3790
     4.4304   4.4304   4.5078   4.5078   4.8835   4.8835   5.0334   5.0334
     5.2120   5.2120   5.3711   5.3711   5.7909   5.7909   5.8212   5.8212
     6.6546   6.6546   6.7692   6.7692   6.7934   6.7934   6.8893   6.8893
     7.2496   7.2496   7.2777   7.2777   7.3500   7.3500   7.4274   7.4274
     7.4984   7.4984   7.5453   7.5453   7.5708   7.5708   7.6213   7.6213
    11.1945  11.1945  11.2982  11.2982  11.4152  11.4152  11.5235  11.5235
    12.1645  12.1645  12.2167  12.2167  12.3123  12.3123  12.3503  12.3503
    12.7535  12.7535  12.8608  12.8608  13.3316  13.3316  13.3807  13.3807
    15.6589  15.6589  15.8068  15.8068  16.8740  16.8740  16.9242  16.9242
    17.1926  17.1926  17.2083  17.2084  17.3080

          k = 0.3333 0.0000 0.3333 ( 62316 PWs)   bands (ev):

   -66.1695 -66.1691 -66.1690 -66.1690 -66.1686 -66.1686 -66.1685 -66.1681
   -30.5554 -30.5513 -30.5504 -30.5494 -30.5210 -30.5165 -30.5162 -30.5021
   -30.5021 -30.4915 -30.4909 -30.4810 -30.4809 -30.4781 -30.4753 -30.4729
   -30.4462 -30.4452 -30.4439 -30.4438 -30.4312 -30.4291 -30.4277 -30.4273
   -20.3324 -20.3324 -20.3323 -20.3323 -20.3322 -20.3322 -20.3321 -20.3321
   -20.3141 -20.3138 -20.3138 -20.3138 -20.3136 -20.3135 -20.3135 -20.3133
   -20.3100 -20.3096 -20.3096 -20.3091 -20.3081 -20.3074 -20.3074 -20.3068
   -20.3058 -20.3054 -20.3054 -20.3051 -20.3022 -20.3021 -20.3019 -20.3018
   -20.2997 -20.2995 -20.2993 -20.2992 -20.2966 -20.2965 -20.2964 -20.2960
   -20.2946 -20.2944 -20.2939 -20.2938 -20.2917 -20.2917 -20.2914 -20.2912
   -20.2883 -20.2881 -20.2880 -20.2880 -20.2867 -20.2867 -20.2866 -20.2863
    -9.5866  -9.3267  -9.3191  -9.2972  -9.0253  -9.0157  -9.0036  -8.7813
    -8.7801  -8.6869  -8.6846  -8.6743  -8.3197  -8.2681  -8.2598  -8.2293
    -8.1559  -8.1443  -8.0794  -8.0539  -7.7293  -7.7015  -7.7013  -7.6744
     1.6624   1.6973   1.6993   1.7379   2.1077   2.1111   2.2049   2.2176
     2.3007   2.3029   2.4807   2.5845   2.9382   3.0047   3.0162   3.0394
     3.1718   3.1835   3.7209   3.7847   3.9189   3.9339   4.0089   4.0761
     4.1512   4.1918   4.2499   4.3621   4.3749   4.3975   4.5198   4.5293
     4.7148   4.8234   4.9369   4.9821   4.9935   5.0371   5.1521   5.4010
     5.4056   5.4511   5.4788   5.6955   5.9914   5.9942   6.0045   6.1145
     6.4865   6.5210   6.5467   6.5574   6.5725   6.6077   6.6099   6.6196
     7.0037   7.0936   7.1149   7.1477   7.2145   7.2155   7.3261   7.3289
     7.3506   7.4730   7.6618   7.6636   7.8954   7.9199   8.0014   8.0057
    10.7210  10.8030  10.8877  10.9112  11.0788  11.2528  12.0568  12.0642
    12.1107  12.1281  12.1868  12.2676  12.4749  12.5001  12.7382  12.8040
    12.8052  12.8478  12.9403  13.0595  13.4547  13.5338  13.5456  13.6494
    14.4284  14.6640  14.6709  15.0778  15.8508  16.2817  16.2862  16.6799
    16.8382  17.0290  17.1808  17.6639  17.7096

          k = 0.3333 0.0000-0.5000 ( 62288 PWs)   bands (ev):

   -66.1693 -66.1693 -66.1689 -66.1689 -66.1688 -66.1688 -66.1684 -66.1684
   -30.5519 -30.5519 -30.5323 -30.5323 -30.5305 -30.5305 -30.5120 -30.5120
   -30.4982 -30.4982 -30.4865 -30.4865 -30.4779 -30.4779 -30.4576 -30.4576
   -30.4546 -30.4546 -30.4432 -30.4432 -30.4415 -30.4415 -30.4289 -30.4289
   -20.3324 -20.3324 -20.3323 -20.3323 -20.3322 -20.3322 -20.3321 -20.3321
   -20.3139 -20.3139 -20.3137 -20.3137 -20.3137 -20.3137 -20.3135 -20.3135
   -20.3098 -20.3098 -20.3093 -20.3093 -20.3077 -20.3077 -20.3071 -20.3071
   -20.3056 -20.3056 -20.3052 -20.3052 -20.3022 -20.3022 -20.3019 -20.3019
   -20.2994 -20.2994 -20.2980 -20.2980 -20.2978 -20.2978 -20.2963 -20.2963
   -20.2942 -20.2942 -20.2930 -20.2930 -20.2925 -20.2925 -20.2915 -20.2915
   -20.2881 -20.2881 -20.2875 -20.2875 -20.2873 -20.2873 -20.2865 -20.2865
    -9.4297  -9.4297  -9.1317  -9.1317  -9.1144  -9.1144  -8.7118  -8.7118
    -8.6717  -8.6717  -8.5763  -8.5763  -8.5110  -8.5109  -8.4490  -8.4489
    -8.2188  -8.2188  -8.1139  -8.1139  -7.7158  -7.7158  -7.6883  -7.6883
     1.6808   1.6808   1.7216   1.7216   2.2183   2.2183   2.3028   2.3028
     2.9218   2.9218   3.0152   3.0152   3.0595   3.0596   3.1910   3.1910
     3.2694   3.2694   3.5387   3.5387   3.6875   3.6875   3.8402   3.8402
     3.8652   3.8652   4.0825   4.0825   4.2134   4.2134   4.3508   4.3508
     4.6471   4.6471   4.8883   4.8883   4.9918   4.9918   5.0842   5.0842
     5.2656   5.2656   5.5560   5.5560   6.0230   6.0230   6.1009   6.1009
     6.4443   6.4443   6.4990   6.4990   6.5646   6.5646   6.5894   6.5894
     7.1479   7.1479   7.2247   7.2247   7.3185   7.3185   7.4991   7.4991
     7.5130   7.5130   7.6931   7.6931   7.7303   7.7303   7.9782   7.9782
    10.8539  10.8539  11.4547  11.4547  11.5626  11.5626  11.6313  11.6313
    11.8783  11.8783  12.2122  12.2122  12.4572  12.4572  12.6779  12.6779
    12.8007  12.8007  13.1405  13.1405  13.1779  13.1779  13.5563  13.5563
    14.5759  14.5759  14.9101  14.9101  16.2989  16.2989  16.7062  16.7062
    17.0291  17.0291  17.4852  17.4852  17.9559

          k = 0.3333 0.1575 0.3333 ( 62283 PWs)   bands (ev):

   -66.1695 -66.1691 -66.1690 -66.1690 -66.1686 -66.1686 -66.1685 -66.1681
   -30.5548 -30.5512 -30.5501 -30.5494 -30.5188 -30.5150 -30.5148 -30.5026
   -30.4990 -30.4902 -30.4896 -30.4809 -30.4796 -30.4779 -30.4754 -30.4727
   -30.4497 -30.4481 -30.4471 -30.4466 -30.4312 -30.4296 -30.4279 -30.4275
   -20.3324 -20.3324 -20.3323 -20.3323 -20.3322 -20.3322 -20.3321 -20.3321
   -20.3140 -20.3138 -20.3138 -20.3138 -20.3136 -20.3136 -20.3135 -20.3134
   -20.3098 -20.3094 -20.3094 -20.3089 -20.3081 -20.3075 -20.3075 -20.3069
   -20.3056 -20.3053 -20.3052 -20.3049 -20.3025 -20.3023 -20.3022 -20.3021
   -20.2997 -20.2995 -20.2993 -20.2993 -20.2966 -20.2965 -20.2964 -20.2960
   -20.2946 -20.2944 -20.2939 -20.2938 -20.2917 -20.2917 -20.2914 -20.2912
   -20.2883 -20.2881 -20.2880 -20.2880 -20.2867 -20.2867 -20.2866 -20.2863
    -9.5553  -9.3091  -9.2885  -9.2816  -9.0230  -9.0088  -8.9570  -8.7793
    -8.7754  -8.6538  -8.6526  -8.6435  -8.3283  -8.2674  -8.2623  -8.2264
    -8.1567  -8.1460  -8.0799  -8.0547  -7.8179  -7.7916  -7.7911  -7.7650
     1.8639   1.8959   1.8969   1.9508   2.1091   2.1150   2.2092   2.2276
[...]
   -20.2414 -20.2414 -20.2411 -20.2411 -20.2397 -20.2397 -20.2395 -20.2395
   -20.2353 -20.2353 -20.2338 -20.2338 -20.2336 -20.2336 -20.2321 -20.2321
   -20.2303 -20.2303 -20.2290 -20.2290 -20.2287 -20.2287 -20.2276 -20.2276
   -20.2240 -20.2240 -20.2235 -20.2235 -20.2233 -20.2233 -20.2226 -20.2226
    -9.2582  -9.2582  -9.0527  -9.0527  -8.9475  -8.9475  -8.6269  -8.6269
    -8.5780  -8.5780  -8.4828  -8.4828  -8.4071  -8.4071  -8.3577  -8.3576
    -8.1375  -8.1375  -8.0778  -8.0778  -8.0486  -8.0486  -7.9846  -7.9846
     2.2412   2.2412   2.3452   2.3452   2.4334   2.4334   2.5499   2.5499
     3.0712   3.0712   3.1366   3.1366   3.2155   3.2155   3.3114   3.3114
     3.4024   3.4024   3.6529   3.6529   3.7676   3.7676   3.8711   3.8711
     4.0000   4.0000   4.1385   4.1385   4.1898   4.1898   4.3092   4.3092
     4.3976   4.3976   4.5527   4.5527   4.6716   4.6716   4.9087   4.9087
     4.9869   4.9869   5.0697   5.0697   5.1255   5.1255   5.3742   5.3742
     6.8685   6.8685   6.9599   6.9599   7.0131   7.0131   7.0856   7.0856
     7.2317   7.2317   7.3055   7.3055   7.3969   7.3969   7.5503   7.5503
     7.5755   7.5755   7.6470   7.6470   7.6824   7.6824   7.8252   7.8252
    11.2878  11.2878  11.5757  11.5757  11.6860  11.6860  11.8771  11.8771
    12.0991  12.0991  12.3404  12.3404  12.4160  12.4160  12.4823  12.4823
    12.7448  12.7448  12.8633  12.8633  12.9211  12.9211  13.3111  13.3111
    15.9365  15.9365  16.4103  16.4103  16.6199  16.6199  16.7489  16.7489
    17.0706  17.0706  17.4537  17.4537  17.7203

          k = 0.3323-0.4769 0.3323 ( 62130 PWs)   bands (ev):

   -66.1084 -66.1084 -66.1080 -66.1080 -66.1079 -66.1079 -66.1075 -66.1075
   -30.4896 -30.4896 -30.4869 -30.4869 -30.4696 -30.4696 -30.4672 -30.4672
   -30.4418 -30.4418 -30.4398 -30.4398 -30.4174 -30.4174 -30.4105 -30.4105
   -30.4062 -30.4062 -30.3998 -30.3998 -30.3608 -30.3608 -30.3581 -30.3581
   -20.2693 -20.2693 -20.2692 -20.2692 -20.2690 -20.2690 -20.2689 -20.2689
   -20.2510 -20.2510 -20.2508 -20.2508 -20.2506 -20.2506 -20.2504 -20.2504
   -20.2452 -20.2452 -20.2451 -20.2451 -20.2444 -20.2444 -20.2443 -20.2443
   -20.2408 -20.2408 -20.2406 -20.2406 -20.2404 -20.2404 -20.2402 -20.2402
   -20.2354 -20.2354 -20.2352 -20.2352 -20.2323 -20.2323 -20.2320 -20.2320
   -20.2304 -20.2304 -20.2300 -20.2300 -20.2278 -20.2278 -20.2275 -20.2275
   -20.2241 -20.2241 -20.2239 -20.2239 -20.2228 -20.2228 -20.2225 -20.2225
    -9.3098  -9.3098  -9.0696  -9.0696  -8.9669  -8.9669  -8.6698  -8.6698
    -8.5472  -8.5471  -8.3898  -8.3898  -8.3682  -8.3682  -8.3538  -8.3538
    -8.1536  -8.1536  -8.1072  -8.1072  -8.0394  -8.0394  -7.9670  -7.9670
     2.2090   2.2090   2.2758   2.2758   2.3643   2.3643   2.5479   2.5479
     3.1146   3.1146   3.1529   3.1529   3.2739   3.2739   3.3175   3.3175
     3.3606   3.3606   3.6373   3.6373   3.7467   3.7468   3.7849   3.7849
     3.8596   3.8596   4.1082   4.1082   4.2271   4.2271   4.4400   4.4400
     4.5806   4.5806   4.6699   4.6699   4.7558   4.7558   4.8315   4.8315
     4.9435   4.9435   5.0183   5.0183   5.0541   5.0541   5.5140   5.5140
     6.9172   6.9172   7.0442   7.0442   7.1158   7.1158   7.1729   7.1729
     7.2431   7.2431   7.2857   7.2857   7.3371   7.3371   7.4788   7.4788
     7.5186   7.5186   7.5768   7.5768   7.6348   7.6348   7.7676   7.7676
    11.0435  11.0435  11.7009  11.7009  11.7489  11.7489  11.8784  11.8784
    11.9557  11.9557  12.1644  12.1644  12.2938  12.2938  12.6523  12.6523
    12.8558  12.8558  12.9523  12.9523  13.0002  13.0002  13.2366  13.2366
    16.2133  16.2133  16.4607  16.4607  16.5708  16.5708  16.6721  16.6721
    17.0417  17.0417  17.5707  17.5707  17.6468

          k = 0.3323-0.4769-0.4985 ( 62052 PWs)   bands (ev):

   -66.1082 -66.1082 -66.1082 -66.1082 -66.1077 -66.1077 -66.1077 -66.1077
   -30.4882 -30.4882 -30.4772 -30.4772 -30.4748 -30.4748 -30.4684 -30.4684
   -30.4409 -30.4409 -30.4304 -30.4304 -30.4274 -30.4274 -30.4125 -30.4125
   -30.4046 -30.4046 -30.3836 -30.3836 -30.3803 -30.3803 -30.3595 -30.3595
   -20.2692 -20.2692 -20.2692 -20.2691 -20.2691 -20.2691 -20.2690 -20.2690
   -20.2509 -20.2509 -20.2508 -20.2508 -20.2506 -20.2506 -20.2505 -20.2505
   -20.2452 -20.2452 -20.2448 -20.2448 -20.2447 -20.2447 -20.2444 -20.2444
   -20.2407 -20.2407 -20.2406 -20.2406 -20.2404 -20.2404 -20.2403 -20.2403
   -20.2353 -20.2353 -20.2339 -20.2338 -20.2336 -20.2336 -20.2321 -20.2321
   -20.2303 -20.2303 -20.2290 -20.2290 -20.2287 -20.2287 -20.2276 -20.2276
   -20.2240 -20.2240 -20.2235 -20.2235 -20.2233 -20.2233 -20.2226 -20.2226
    -9.1650  -9.1650  -9.1010  -9.1010  -8.7676  -8.7676  -8.7063  -8.7062
    -8.5000  -8.5000  -8.4681  -8.4681  -8.3431  -8.3431  -8.3133  -8.3133
    -8.2957  -8.2957  -8.2437  -8.2437  -8.1117  -8.1117  -8.0070  -8.0070
     2.2868   2.2868   2.3746   2.3746   2.9776   2.9776   3.0505   3.0505
     3.1398   3.1398   3.1860   3.1860   3.2649   3.2649   3.3104   3.3104
     3.4568   3.4568   3.5000   3.5000   3.6444   3.6444   3.7709   3.7709
     3.8509   3.8509   3.9600   3.9600   4.2513   4.2513   4.3234   4.3234
     4.4130   4.4130   4.4492   4.4492   4.5400   4.5400   4.6205   4.6205
     4.7257   4.7257   4.8823   4.8823   5.0989   5.0989   5.1299   5.1299
     6.9878   6.9878   7.1196   7.1196   7.1920   7.1920   7.2124   7.2124
     7.3172   7.3172   7.3517   7.3517   7.4484   7.4485   7.4681   7.4681
     7.5309   7.5309   7.6007   7.6007   7.6371   7.6371   7.6916   7.6916
    11.5159  11.5159  11.5850  11.5850  11.8170  11.8170  11.9176  11.9176
    12.2146  12.2146  12.2921  12.2921  12.3544  12.3544  12.4164  12.4164
    12.5564  12.5564  12.6690  12.6690  12.9910  12.9910  13.0692  13.0692
    16.4275  16.4275  16.5391  16.5391  17.0772  17.0773  17.1649  17.1650
    17.3319  17.3320  17.4071  17.4073  17.4968

          k =-0.4985 0.0000-0.4985 ( 62188 PWs)   bands (ev):

   -66.1082 -66.1082 -66.1082 -66.1082 -66.1077 -66.1077 -66.1077 -66.1077
   -30.4996 -30.4996 -30.4992 -30.4992 -30.4619 -30.4619 -30.4611 -30.4611
   -30.4378 -30.4378 -30.4375 -30.4375 -30.4118 -30.4118 -30.4105 -30.4104
   -30.3833 -30.3833 -30.3820 -30.3820 -30.3818 -30.3818 -30.3812 -30.3812
   -20.2691 -20.2691 -20.2691 -20.2691 -20.2691 -20.2691 -20.2691 -20.2690
   -20.2509 -20.2509 -20.2508 -20.2508 -20.2506 -20.2506 -20.2506 -20.2506
   -20.2466 -20.2466 -20.2465 -20.2465 -20.2436 -20.2436 -20.2436 -20.2436
   -20.2418 -20.2418 -20.2418 -20.2418 -20.2386 -20.2386 -20.2385 -20.2385
   -20.2340 -20.2340 -20.2338 -20.2338 -20.2335 -20.2335 -20.2335 -20.2335
   -20.2290 -20.2290 -20.2290 -20.2290 -20.2287 -20.2287 -20.2287 -20.2287
   -20.2236 -20.2236 -20.2235 -20.2235 -20.2232 -20.2232 -20.2232 -20.2232
    -9.2860  -9.2860  -9.2795  -9.2795  -8.7488  -8.7488  -8.7108  -8.7108
    -8.5645  -8.5645  -8.5153  -8.5153  -8.3620  -8.3620  -8.3396  -8.3396
    -8.3200  -8.3200  -8.2855  -8.2855  -7.7154  -7.7154  -7.7150  -7.7150
     1.5844   1.5844   1.5882   1.5882   2.9515   2.9515   2.9699   2.9699
     3.1059   3.1059   3.1170   3.1170   3.1895   3.1895   3.2428   3.2428
     3.4091   3.4091   3.4157   3.4157   3.7156   3.7156   3.8094   3.8094
     3.8205   3.8205   3.9551   3.9551   4.2468   4.2468   4.2788   4.2788
     4.3365   4.3365   4.4029   4.4029   4.9875   4.9875   5.0123   5.0123
     5.4227   5.4227   5.4537   5.4537   6.0939   6.0939   6.0939   6.0939
     6.4537   6.4537   6.4551   6.4551   6.4802   6.4802   6.5029   6.5029
     7.4725   7.4725   7.4810   7.4811   7.4886   7.4886   7.5521   7.5521
     7.6353   7.6353   7.6689   7.6689   7.7977   7.7977   7.8865   7.8865
    11.4926  11.4926  11.5665  11.5665  11.6504  11.6504  11.7067  11.7067
    12.0622  12.0622  12.0935  12.0935  12.2488  12.2488  12.2688  12.2688
    13.1531  13.1531  13.2158  13.2158  13.3316  13.3316  13.3896  13.3896
    15.0218  15.0218  15.0243  15.0243  16.7608  16.7608  16.8677  16.8677
    17.5971  17.5971  17.6165  17.6165  17.7509

          k =-0.4985 0.1590-0.4985 ( 62136 PWs)   bands (ev):

   -66.1082 -66.1082 -66.1081 -66.1081 -66.1077 -66.1077 -66.1077 -66.1077
   -30.4961 -30.4961 -30.4957 -30.4957 -30.4632 -30.4632 -30.4625 -30.4625
   -30.4370 -30.4370 -30.4367 -30.4367 -30.4146 -30.4146 -30.4134 -30.4134
   -30.3832 -30.3832 -30.3821 -30.3821 -30.3819 -30.3819 -30.3814 -30.3814
   -20.2691 -20.2691 -20.2691 -20.2691 -20.2691 -20.2691 -20.2691 -20.2691
   -20.2509 -20.2508 -20.2508 -20.2508 -20.2506 -20.2506 -20.2506 -20.2506
   -20.2463 -20.2463 -20.2463 -20.2462 -20.2437 -20.2437 -20.2437 -20.2437
   -20.2417 -20.2417 -20.2417 -20.2417 -20.2389 -20.2389 -20.2388 -20.2388
   -20.2340 -20.2340 -20.2338 -20.2338 -20.2335 -20.2335 -20.2335 -20.2335
   -20.2290 -20.2290 -20.2290 -20.2290 -20.2288 -20.2287 -20.2287 -20.2287
   -20.2235 -20.2235 -20.2235 -20.2235 -20.2233 -20.2232 -20.2232 -20.2232
    -9.2257  -9.2257  -9.2181  -9.2180  -8.7605  -8.7605  -8.7240  -8.7239
    -8.5491  -8.5491  -8.4996  -8.4996  -8.3607  -8.3607  -8.3408  -8.3408
    -8.3202  -8.3202  -8.2855  -8.2855  -7.8130  -7.8130  -7.8123  -7.8123
     1.8132   1.8132   1.8171   1.8171   2.9662   2.9662   2.9890   2.9890
     3.1094   3.1094   3.1159   3.1159   3.2153   3.2153   3.2712   3.2712
     3.4027   3.4027   3.4099   3.4099   3.7621   3.7621   3.8518   3.8518
     3.8675   3.8675   4.0006   4.0006   4.2297   4.2297   4.2615   4.2615
     4.3365   4.3365   4.4032   4.4032   4.7707   4.7707   4.7921   4.7921
     5.1844   5.1844   5.2053   5.2053   5.8201   5.8201   5.8210   5.8210
     6.6130   6.6130   6.6515   6.6515   6.6792   6.6792   6.7018   6.7018
     7.4710   7.4710   7.4802   7.4802   7.4828   7.4828   7.5509   7.5509
     7.6279   7.6279   7.6504   7.6504   7.7823   7.7823   7.8519   7.8519
    11.5555  11.5555  11.6294  11.6294  11.7044  11.7044  11.7667  11.7667
    12.0646  12.0646  12.0935  12.0935  12.2674  12.2674  12.2845  12.2845
    13.0229  13.0229  13.0808  13.0808  13.2152  13.2152  13.2674  13.2674
    15.3927  15.3927  15.3961  15.3961  16.8234  16.8234  16.9230  16.9230
    17.5557  17.5557  17.6000  17.6000  17.7571

          k =-0.4985 0.3179-0.4985 ( 62088 PWs)   bands (ev):

   -66.1081 -66.1081 -66.1081 -66.1081 -66.1078 -66.1078 -66.1078 -66.1078
   -30.4871 -30.4871 -30.4866 -30.4866 -30.4678 -30.4678 -30.4671 -30.4671
   -30.4343 -30.4343 -30.4339 -30.4339 -30.4216 -30.4216 -30.4206 -30.4206
   -30.3829 -30.3829 -30.3823 -30.3823 -30.3821 -30.3821 -30.3818 -30.3818
   -20.2691 -20.2691 -20.2691 -20.2691 -20.2691 -20.2691 -20.2691 -20.2691
   -20.2508 -20.2508 -20.2508 -20.2507 -20.2507 -20.2507 -20.2506 -20.2506
   -20.2456 -20.2456 -20.2456 -20.2456 -20.2441 -20.2441 -20.2441 -20.2441
   -20.2413 -20.2413 -20.2412 -20.2412 -20.2396 -20.2396 -20.2396 -20.2396
   -20.2339 -20.2339 -20.2338 -20.2338 -20.2336 -20.2336 -20.2336 -20.2336
   -20.2290 -20.2289 -20.2289 -20.2289 -20.2288 -20.2288 -20.2288 -20.2288
   -20.2235 -20.2235 -20.2235 -20.2235 -20.2233 -20.2233 -20.2233 -20.2233
    -9.0710  -9.0710  -9.0585  -9.0584  -8.8028  -8.8028  -8.7716  -8.7716
    -8.4925  -8.4925  -8.4408  -8.4408  -8.3571  -8.3571  -8.3436  -8.3436
    -8.3237  -8.3237  -8.2830  -8.2830  -8.0495  -8.0495  -8.0452  -8.0452
     2.4171   2.4171   2.4203   2.4203   2.9964   2.9964   3.0273   3.0273
     3.1143   3.1143   3.1146   3.1146   3.2768   3.2768   3.3467   3.3467
     3.3761   3.3761   3.3897   3.3897   3.8913   3.8913   3.9490   3.9490
     4.0021   4.0021   4.0382   4.0382   4.1397   4.1397   4.1913   4.1913
     4.3315   4.3315   4.4096   4.4096   4.4423   4.4423   4.4569   4.4569
     4.7750   4.7750   4.7781   4.7781   5.1258   5.1258   5.1344   5.1344
     6.9266   6.9266   6.9828   6.9828   7.0382   7.0382   7.0880   7.0880
     7.4433   7.4433   7.4591   7.4591   7.4596   7.4596   7.5362   7.5362
     7.6031   7.6031   7.6093   7.6093   7.7162   7.7162   7.7562   7.7562
    11.7366  11.7366  11.7845  11.7845  11.8562  11.8562  11.9047  11.9047
    12.0871  12.0871  12.1090  12.1090  12.3452  12.3452  12.3551  12.3551
    12.7005  12.7005  12.7480  12.7481  12.9178  12.9178  12.9538  12.9538
    16.3020  16.3020  16.3054  16.3054  16.9984  16.9984  17.0690  17.0690
    17.4165  17.4165  17.5339  17.5339  17.7784

          k =-0.4985-0.4769-0.4985 ( 62080 PWs)   bands (ev):

   -66.1080 -66.1080 -66.1079 -66.1079 -66.1079 -66.1079 -66.1079 -66.1079
   -30.4771 -30.4771 -30.4757 -30.4757 -30.4757 -30.4756 -30.4754 -30.4754
   -30.4292 -30.4292 -30.4291 -30.4291 -30.4291 -30.4291 -30.4277 -30.4277
   -30.3825 -30.3825 -30.3823 -30.3823 -30.3822 -30.3822 -30.3822 -30.3822
   -20.2691 -20.2691 -20.2691 -20.2691 -20.2691 -20.2691 -20.2691 -20.2691
   -20.2507 -20.2507 -20.2507 -20.2507 -20.2507 -20.2507 -20.2507 -20.2507
   -20.2448 -20.2448 -20.2448 -20.2448 -20.2448 -20.2448 -20.2446 -20.2446
   -20.2405 -20.2405 -20.2405 -20.2405 -20.2405 -20.2405 -20.2405 -20.2405
   -20.2338 -20.2338 -20.2337 -20.2337 -20.2337 -20.2337 -20.2337 -20.2337
   -20.2289 -20.2289 -20.2289 -20.2289 -20.2289 -20.2289 -20.2289 -20.2289
   -20.2234 -20.2234 -20.2234 -20.2234 -20.2234 -20.2234 -20.2234 -20.2234
    -8.9195  -8.9195  -8.8871  -8.8871  -8.8815  -8.8814  -8.8814  -8.8814
    -8.4024  -8.4024  -8.3549  -8.3549  -8.3549  -8.3549  -8.3472  -8.3472
    -8.2900  -8.2900  -8.2900  -8.2900  -8.2580  -8.2580  -8.2357  -8.2357
     2.9747   2.9747   2.9748   2.9748   2.9795   2.9795   2.9978   2.9978
     3.2458   3.2458   3.2458   3.2458   3.2518   3.2518   3.2643   3.2643
     3.3488   3.3488   3.5130   3.5130   3.5130   3.5130   3.5825   3.5825
     4.1666   4.1666   4.1903   4.1903   4.2099   4.2099   4.2099   4.2099
     4.4040   4.4040   4.4040   4.4040   4.4211   4.4211   4.4675   4.4675
     4.5486   4.5486   4.5497   4.5497   4.5766   4.5766   4.5766   4.5766
     7.0997   7.0997   7.2128   7.2128   7.2128   7.2128   7.3476   7.3476
     7.4040   7.4040   7.4064   7.4064   7.4064   7.4064   7.4470   7.4470
     7.5944   7.5944   7.6255   7.6255   7.6255   7.6255   7.6834   7.6834
    11.9095  11.9095  11.9095  11.9095  11.9149  11.9149  11.9189  11.9189
    12.2139  12.2139  12.2895  12.2895  12.2895  12.2895  12.4563  12.4563
    12.5192  12.5192  12.6078  12.6078  12.6078  12.6078  12.6365  12.6365
    17.1439  17.1439  17.1646  17.1646  17.1646  17.1646  17.2147  17.2147
    17.4115  17.4115  17.4115  17.4115  17.4893

     the Fermi energy is     8.9869 ev

!    total energy              =   -6261.10954523 Ry
     Harris-Foulkes estimate   =   -6261.10954523 Ry
     estimated scf accuracy    <          8.8E-11 Ry

     The total energy is the sum of the following terms:

     one-electron contribution =   -4702.45712909 Ry
     hartree contribution      =    2588.70460800 Ry
     xc contribution           =    -965.66177834 Ry
     ewald contribution        =   -3181.69524581 Ry
     smearing contrib. (-TS)   =      -0.00000000 Ry

     convergence has been achieved in  14 iterations

     Forces acting on atoms (cartesian axes, Ry/au):

     atom    1 type  1   force =     0.00840253   -0.00290365    0.00129748
     atom    2 type  1   force =    -0.00129748    0.00290365    0.00840253
     atom    3 type  1   force =    -0.00840253    0.00290365    0.00129748
     atom    4 type  1   force =     0.00129748   -0.00290365    0.00840253
     atom    5 type  1   force =    -0.00840253   -0.00290365   -0.00129748
     atom    6 type  1   force =     0.00129748    0.00290365   -0.00840253
     atom    7 type  1   force =     0.00840253    0.00290365   -0.00129748
     atom    8 type  1   force =    -0.00129748   -0.00290365   -0.00840253
     atom    9 type  2   force =    -0.00101197    0.00133217    0.00069588
     atom   10 type  2   force =    -0.00069588   -0.00133217   -0.00101197
     atom   11 type  2   force =     0.00101197   -0.00133217    0.00069588
     atom   12 type  2   force =     0.00069588    0.00133217   -0.00101197
     atom   13 type  2   force =     0.00101197    0.00133217   -0.00069588
     atom   14 type  2   force =     0.00069588   -0.00133217    0.00101197
     atom   15 type  2   force =    -0.00101197   -0.00133217   -0.00069588
     atom   16 type  2   force =    -0.00069588    0.00133217    0.00101197
     atom   17 type  2   force =     0.00614135   -0.00106688   -0.00019514
     atom   18 type  2   force =     0.00017629   -0.00201950   -0.00112684
     atom   19 type  2   force =    -0.00614135    0.00106688   -0.00019514
     atom   20 type  2   force =    -0.00017629    0.00201950   -0.00112684
     atom   21 type  2   force =    -0.00614135   -0.00106688    0.00019514
     atom   22 type  2   force =    -0.00017629   -0.00201950    0.00112684
     atom   23 type  2   force =     0.00614135    0.00106688    0.00019514
     atom   24 type  2   force =     0.00017629    0.00201950    0.00112684
     atom   25 type  2   force =     0.00112684   -0.00201950   -0.00017629
     atom   26 type  2   force =     0.00019514    0.00106688    0.00614135
     atom   27 type  2   force =    -0.00112684    0.00201950   -0.00017629
     atom   28 type  2   force =    -0.00019514   -0.00106688    0.00614135
     atom   29 type  2   force =    -0.00112684   -0.00201950    0.00017629
     atom   30 type  2   force =    -0.00019514    0.00106688   -0.00614135
     atom   31 type  2   force =     0.00112684    0.00201950    0.00017629
     atom   32 type  2   force =     0.00019514   -0.00106688   -0.00614135

     Total force =     0.000000     Total SCF correction =     0.000000


     Computing stress (Cartesian axis) and pressure

          total   stress  (Ry/bohr**3)                   (kbar)     P=   -0.05
   0.00000030   0.00000000   0.00000000          0.04      0.00      0.00
   0.00000000  -0.00000153   0.00000000          0.00     -0.23      0.00
   0.00000000   0.00000000   0.00000030          0.00      0.00      0.04


     Writing output data file Landau_9.save
 
     init_run     :     59.03s CPU     60.59s WALL (       2 calls)
     electrons    :   6206.78s CPU   6306.51s WALL (       6 calls)
     update_pot   :    115.50s CPU    115.66s WALL (       4 calls)
     forces       :    152.41s CPU    154.32s WALL (       6 calls)
     stress       :    984.85s CPU    995.12s WALL (       6 calls)

     Called by init_run:
     wfcinit      :     35.63s CPU     36.90s WALL (       2 calls)
     potinit      :     10.04s CPU     10.12s WALL (       2 calls)

     Called by electrons:
     c_bands      :   5389.63s CPU   5481.04s WALL (      84 calls)
     sum_band     :    742.79s CPU    746.50s WALL (      84 calls)
     v_of_rho     :     11.06s CPU     11.20s WALL (      89 calls)
     mix_rho      :     17.94s CPU     21.21s WALL (      84 calls)

     Called by c_bands:
     init_us_2    :     36.85s CPU     39.03s WALL (     170 calls)
     cegterg      :   3782.27s CPU   3872.62s WALL (      84 calls)

     Called by sum_band:

     Called by *egterg:
     h_psi        :   2878.32s CPU   2887.57s WALL (     336 calls)
     g_psi        :     12.43s CPU     12.45s WALL (     250 calls)
     cdiaghg      :     41.77s CPU     41.87s WALL (     329 calls)

     Called by h_psi:
     h_psi:pot    :   2857.65s CPU   2866.63s WALL (     336 calls)
     h_psi:calbec :    351.92s CPU    358.72s WALL (     336 calls)
     vloc_psi     :   2138.03s CPU   2139.33s WALL (     336 calls)
     add_vuspsi   :    367.69s CPU    368.58s WALL (     336 calls)

     General routines
     calbec       :    402.19s CPU    409.57s WALL (     366 calls)
     fft          :      7.79s CPU      7.79s WALL (     404 calls)
     fftw         :   2181.40s CPU   2182.13s WALL (  107736 calls)
 
     Parallel routines
 
     PWSCF        :     2h 5m CPU        2h 7m WALL

 
   This run was terminated on:   7:27:41  23Mar2020            

=------------------------------------------------------------------------------=
   JOB DONE.
=------------------------------------------------------------------------------=
