
     Program PWSCF v.6.4.1 starts on  3Dec2019 at 16:40:46 

     This program is part of the open-source Quantum ESPRESSO suite
     for quantum simulation of materials; please cite
         "P. Giannozzi et al., J. Phys.:Condens. Matter 21 395502 (2009);
         "P. Giannozzi et al., J. Phys.:Condens. Matter 29 465901 (2017);
          URL http://www.quantum-espresso.org", 
     in publications or presentations arising from this work. More details at
     http://www.quantum-espresso.org/quote

     Parallel version (MPI), running on    40 processors

     MPI processes distributed on    10 nodes
     K-points division:     npool     =      40
     Reading input from scf.in

     Current dimensions of program PWSCF are:
     Max number of different atomic species (ntypx) = 10
     Max number of k-points (npk) =  40000
     Max angular momentum in pseudopotentials (lmaxx) =  3

     Subspace diagonalization in iterative solution of the eigenvalue problem:
     a serial algorithm will be used

     Message from routine setup:
     using ibrav=0 with symmetry is DISCOURAGED, use correct ibrav instead
 
     G-vector sticks info
     --------------------
     sticks:   dense  smooth     PW     G-vecs:    dense   smooth      PW
     Sum        7785    7785   2099               505629   505629   70073
 


     bravais-lattice index     =            0
     lattice parameter (alat)  =      13.9697  a.u.
     unit-cell volume          =    2847.0031 (a.u.)^3
     number of atoms/cell      =           32
     number of atomic types    =            2
     number of electrons       =       369.00
     number of Kohn-Sham states=          222
     kinetic-energy cutoff     =     120.0000  Ry
     charge density cutoff     =     480.0000  Ry
     convergence threshold     =      1.0E-08
     mixing beta               =       0.7000
     number of iterations used =            8  plain     mixing
     Exchange-correlation      = SLA PW NOGX NOGC ( 1  4  0  0 0 0)

     celldm(1)=  13.969694  celldm(2)=   0.000000  celldm(3)=   0.000000
     celldm(4)=   0.000000  celldm(5)=   0.000000  celldm(6)=   0.000000

     crystal axes: (cart. coord. in units of alat)
               a(1) = (   1.000000   0.000000   0.000000 )  
               a(2) = (   0.000000   1.045884   0.000000 )  
               a(3) = (   0.000000   0.000000   0.998490 )  

     reciprocal axes: (cart. coord. in units 2 pi/alat)
               b(1) = (  1.000000  0.000000  0.000000 )  
               b(2) = (  0.000000  0.956129  0.000000 )  
               b(3) = (  0.000000  0.000000  1.001513 )  


     PseudoPot. # 1 for W  read from file:
     /cluster/scratch/mnoe/QE/pps/W_ONCV_LDA-4.0.upf
     MD5 check sum: ba0307d5d4cd419d6f1d13dc49d7c13a
     Pseudo is Norm-conserving + core correction, Zval = 28.0
     Generated using ONCVPSP code by D. R. Hamann
     Using radial grid of 1380 points,  8 beta functions with: 
                l(1) =   0
                l(2) =   0
                l(3) =   1
                l(4) =   1
                l(5) =   2
                l(6) =   2
                l(7) =   3
                l(8) =   3

     PseudoPot. # 2 for O  read from file:
     /cluster/scratch/mnoe/QE/pps/O_ONCV_LDA-3.0.upf
     MD5 check sum: b55cdb4f45ae2203d24ad12cf8d61a31
     Pseudo is Norm-conserving + core correction, Zval =  6.0
     Generated using ONCVPSP code by D. R. Hamann
     Using radial grid of  926 points,  5 beta functions with: 
                l(1) =   0
                l(2) =   0
                l(3) =   1
                l(4) =   1
                l(5) =   2

     atomic species   valence    mass     pseudopotential
        W             28.00   183.84000     W ( 1.00)
        O              6.00    15.99940     O ( 1.00)

      8 Sym. Ops., with inversion, found ( 6 have fractional translation)



   Cartesian axes

     site n.     atom                  positions (alat units)
         1           W   tau(   1) = (   0.2379800   0.2947930   0.0113428  )
         2           W   tau(   2) = (   0.7620200   0.7510914   0.9871468  )
         3           W   tau(   3) = (   0.2620200   0.2281492   0.5105877  )
         4           W   tau(   4) = (   0.7379800   0.8177351   0.4879020  )
         5           W   tau(   5) = (   0.7620200   0.2947930   0.4879020  )
         6           W   tau(   6) = (   0.2379800   0.7510914   0.5105877  )
         7           W   tau(   7) = (   0.7379800   0.2281492   0.9871468  )
         8           W   tau(   8) = (   0.2620200   0.8177351   0.0113428  )
         9           O   tau(   9) = (   0.2278200   0.0087018   0.0035247  )
        10           O   tau(  10) = (   0.7721800   1.0371826   0.9949650  )
        11           O   tau(  11) = (   0.2721800   0.5142404   0.5027695  )
        12           O   tau(  12) = (   0.7278200   0.5316439   0.4957202  )
        13           O   tau(  13) = (   0.7721800   0.0087018   0.4957202  )
        14           O   tau(  14) = (   0.2278200   1.0371826   0.5027695  )
        15           O   tau(  15) = (   0.7278200   0.5142404   0.9949650  )
        16           O   tau(  16) = (   0.2721800   0.5316439   0.0035247  )
        17           O   tau(  17) = (   0.5032900   0.2376667   0.4488610  )
        18           O   tau(  18) = (   0.4967100   0.8082176   0.5496286  )
        19           O   tau(  19) = (   0.9967100   0.2852754   0.9481059  )
        20           O   tau(  20) = (   0.0032899   0.7606089   0.0503838  )
        21           O   tau(  21) = (   0.4967100   0.2376667   0.0503838  )
        22           O   tau(  22) = (   0.5032900   0.8082176   0.9481059  )
        23           O   tau(  23) = (   0.0032899   0.2852754   0.5496286  )
        24           O   tau(  24) = (   0.9967100   0.7606089   0.4488610  )
        25           O   tau(  25) = (   0.6995400   0.2562730   0.7438848  )
        26           O   tau(  26) = (   0.3004600   0.7896113   0.2546049  )
        27           O   tau(  27) = (   0.8004600   0.2666691   0.2446400  )
        28           O   tau(  28) = (   0.1995400   0.7792152   0.7538497  )
        29           O   tau(  29) = (   0.3004600   0.2562730   0.7538497  )
        30           O   tau(  30) = (   0.6995400   0.7896113   0.2446400  )
        31           O   tau(  31) = (   0.1995400   0.2666691   0.2546049  )
        32           O   tau(  32) = (   0.8004600   0.7792152   0.7438848  )

     number of k points=    64  gaussian smearing, width (Ry)=  0.0007
                       cart. coord. in units 2pi/alat
        k(    1) = (   0.0000000   0.0000000   0.0000000), wk =   0.0092593
        k(    2) = (   0.0000000   0.0000000   0.1669188), wk =   0.0185185
        k(    3) = (   0.0000000   0.0000000   0.3338375), wk =   0.0185185
        k(    4) = (   0.0000000   0.0000000  -0.5007563), wk =   0.0092593
        k(    5) = (   0.0000000   0.1593548   0.0000000), wk =   0.0185185
        k(    6) = (   0.0000000   0.1593548   0.1669188), wk =   0.0370370
        k(    7) = (   0.0000000   0.1593548   0.3338375), wk =   0.0370370
        k(    8) = (   0.0000000   0.1593548  -0.5007563), wk =   0.0185185
        k(    9) = (   0.0000000   0.3187096   0.0000000), wk =   0.0185185
        k(   10) = (   0.0000000   0.3187096   0.1669188), wk =   0.0370370
        k(   11) = (   0.0000000   0.3187096   0.3338375), wk =   0.0370370
        k(   12) = (   0.0000000   0.3187096  -0.5007563), wk =   0.0185185
        k(   13) = (   0.0000000  -0.4780643   0.0000000), wk =   0.0092593
        k(   14) = (   0.0000000  -0.4780643   0.1669188), wk =   0.0185185
        k(   15) = (   0.0000000  -0.4780643   0.3338375), wk =   0.0185185
        k(   16) = (   0.0000000  -0.4780643  -0.5007563), wk =   0.0092593
        k(   17) = (   0.1666667   0.0000000   0.0000000), wk =   0.0185185
        k(   18) = (   0.1666667   0.0000000   0.1669188), wk =   0.0370370
        k(   19) = (   0.1666667   0.0000000   0.3338375), wk =   0.0370370
        k(   20) = (   0.1666667   0.0000000  -0.5007563), wk =   0.0185185
        k(   21) = (   0.1666667   0.1593548   0.0000000), wk =   0.0370370
        k(   22) = (   0.1666667   0.1593548   0.1669188), wk =   0.0740741
        k(   23) = (   0.1666667   0.1593548   0.3338375), wk =   0.0740741
        k(   24) = (   0.1666667   0.1593548  -0.5007563), wk =   0.0370370
        k(   25) = (   0.1666667   0.3187096   0.0000000), wk =   0.0370370
        k(   26) = (   0.1666667   0.3187096   0.1669188), wk =   0.0740741
        k(   27) = (   0.1666667   0.3187096   0.3338375), wk =   0.0740741
        k(   28) = (   0.1666667   0.3187096  -0.5007563), wk =   0.0370370
        k(   29) = (   0.1666667  -0.4780643   0.0000000), wk =   0.0185185
        k(   30) = (   0.1666667  -0.4780643   0.1669188), wk =   0.0370370
        k(   31) = (   0.1666667  -0.4780643   0.3338375), wk =   0.0370370
        k(   32) = (   0.1666667  -0.4780643  -0.5007563), wk =   0.0185185
        k(   33) = (   0.3333333   0.0000000   0.0000000), wk =   0.0185185
        k(   34) = (   0.3333333   0.0000000   0.1669188), wk =   0.0370370
        k(   35) = (   0.3333333   0.0000000   0.3338375), wk =   0.0370370
        k(   36) = (   0.3333333   0.0000000  -0.5007563), wk =   0.0185185
        k(   37) = (   0.3333333   0.1593548   0.0000000), wk =   0.0370370
        k(   38) = (   0.3333333   0.1593548   0.1669188), wk =   0.0740741
        k(   39) = (   0.3333333   0.1593548   0.3338375), wk =   0.0740741
        k(   40) = (   0.3333333   0.1593548  -0.5007563), wk =   0.0370370
        k(   41) = (   0.3333333   0.3187096   0.0000000), wk =   0.0370370
        k(   42) = (   0.3333333   0.3187096   0.1669188), wk =   0.0740741
        k(   43) = (   0.3333333   0.3187096   0.3338375), wk =   0.0740741
        k(   44) = (   0.3333333   0.3187096  -0.5007563), wk =   0.0370370
        k(   45) = (   0.3333333  -0.4780643   0.0000000), wk =   0.0185185
        k(   46) = (   0.3333333  -0.4780643   0.1669188), wk =   0.0370370
        k(   47) = (   0.3333333  -0.4780643   0.3338375), wk =   0.0370370
        k(   48) = (   0.3333333  -0.4780643  -0.5007563), wk =   0.0185185
        k(   49) = (  -0.5000000   0.0000000   0.0000000), wk =   0.0092593
        k(   50) = (  -0.5000000   0.0000000   0.1669188), wk =   0.0185185
        k(   51) = (  -0.5000000   0.0000000   0.3338375), wk =   0.0185185
        k(   52) = (  -0.5000000   0.0000000  -0.5007563), wk =   0.0092593
        k(   53) = (  -0.5000000   0.1593548   0.0000000), wk =   0.0185185
        k(   54) = (  -0.5000000   0.1593548   0.1669188), wk =   0.0370370
        k(   55) = (  -0.5000000   0.1593548   0.3338375), wk =   0.0370370
        k(   56) = (  -0.5000000   0.1593548  -0.5007563), wk =   0.0185185
        k(   57) = (  -0.5000000   0.3187096   0.0000000), wk =   0.0185185
        k(   58) = (  -0.5000000   0.3187096   0.1669188), wk =   0.0370370
        k(   59) = (  -0.5000000   0.3187096   0.3338375), wk =   0.0370370
        k(   60) = (  -0.5000000   0.3187096  -0.5007563), wk =   0.0185185
        k(   61) = (  -0.5000000  -0.4780643   0.0000000), wk =   0.0092593
        k(   62) = (  -0.5000000  -0.4780643   0.1669188), wk =   0.0185185
        k(   63) = (  -0.5000000  -0.4780643   0.3338375), wk =   0.0185185
        k(   64) = (  -0.5000000  -0.4780643  -0.5007563), wk =   0.0092593

     Dense  grid:   505629 G-vectors     FFT dimensions: ( 100, 108, 100)

     Estimated max dynamical RAM per process >       3.18 GB

     Estimated total dynamical RAM >     127.31 GB

     Initial potential from superposition of free atoms

     starting charge  367.99656, renormalised to  369.00000
     Starting wfcs are  232 randomized atomic wfcs

     total cpu time spent up to now is       41.1 secs

     Self-consistent Calculation

     iteration #  1     ecut=   120.00 Ry     beta= 0.70
     Davidson diagonalization with overlap
     ethr =  1.00E-02,  avg # of iterations =  5.4

     total cpu time spent up to now is      177.0 secs

     total energy              =   -6252.88638334 Ry
     Harris-Foulkes estimate   =   -6264.06550952 Ry
     estimated scf accuracy    <      14.00417330 Ry

     iteration #  2     ecut=   120.00 Ry     beta= 0.70
     Davidson diagonalization with overlap
     ethr =  3.80E-03,  avg # of iterations =  3.7

     total cpu time spent up to now is      306.9 secs

     total energy              =   -6249.34238273 Ry
     Harris-Foulkes estimate   =   -6270.57832237 Ry
     estimated scf accuracy    <      57.22167492 Ry

     iteration #  3     ecut=   120.00 Ry     beta= 0.70
     Davidson diagonalization with overlap
     ethr =  3.80E-03,  avg # of iterations =  3.5

     total cpu time spent up to now is      434.6 secs

     total energy              =   -6260.38990325 Ry
     Harris-Foulkes estimate   =   -6260.66119750 Ry
     estimated scf accuracy    <       0.95497294 Ry

     iteration #  4     ecut=   120.00 Ry     beta= 0.70
     Davidson diagonalization with overlap
     ethr =  2.59E-04,  avg # of iterations =  2.4

     total cpu time spent up to now is      534.3 secs

     total energy              =   -6260.36877630 Ry
     Harris-Foulkes estimate   =   -6260.45242660 Ry
     estimated scf accuracy    <       0.26218176 Ry

     iteration #  5     ecut=   120.00 Ry     beta= 0.70
     Davidson diagonalization with overlap
     ethr =  7.11E-05,  avg # of iterations =  5.2

     total cpu time spent up to now is      648.9 secs

     total energy              =   -6260.37204116 Ry
     Harris-Foulkes estimate   =   -6260.40573530 Ry
     estimated scf accuracy    <       0.07503157 Ry

     iteration #  6     ecut=   120.00 Ry     beta= 0.70
     Davidson diagonalization with overlap
     ethr =  2.03E-05,  avg # of iterations =  5.4

     total cpu time spent up to now is      766.4 secs

     total energy              =   -6260.38863143 Ry
     Harris-Foulkes estimate   =   -6260.39162796 Ry
     estimated scf accuracy    <       0.00901055 Ry

     iteration #  7     ecut=   120.00 Ry     beta= 0.70
     Davidson diagonalization with overlap
     ethr =  2.44E-06,  avg # of iterations =  5.0

     total cpu time spent up to now is      880.2 secs

     total energy              =   -6260.38927481 Ry
     Harris-Foulkes estimate   =   -6260.38966653 Ry
     estimated scf accuracy    <       0.00084484 Ry

     iteration #  8     ecut=   120.00 Ry     beta= 0.70
     Davidson diagonalization with overlap
     ethr =  2.29E-07,  avg # of iterations =  3.3

     total cpu time spent up to now is      992.3 secs

     total energy              =   -6260.38949075 Ry
     Harris-Foulkes estimate   =   -6260.38950416 Ry
     estimated scf accuracy    <       0.00005762 Ry

     iteration #  9     ecut=   120.00 Ry     beta= 0.70
     Davidson diagonalization with overlap
     ethr =  1.56E-08,  avg # of iterations =  2.7

     total cpu time spent up to now is     1100.3 secs

     total energy              =   -6260.38949128 Ry
     Harris-Foulkes estimate   =   -6260.38950053 Ry
     estimated scf accuracy    <       0.00003703 Ry

     iteration # 10     ecut=   120.00 Ry     beta= 0.70
     Davidson diagonalization with overlap
     ethr =  1.00E-08,  avg # of iterations =  1.0

     total cpu time spent up to now is     1193.0 secs

     total energy              =   -6260.38948950 Ry
     Harris-Foulkes estimate   =   -6260.38949341 Ry
     estimated scf accuracy    <       0.00000918 Ry

     iteration # 11     ecut=   120.00 Ry     beta= 0.70
     Davidson diagonalization with overlap
     ethr =  2.49E-09,  avg # of iterations =  3.0

     total cpu time spent up to now is     1297.7 secs

     total energy              =   -6260.38949146 Ry
     Harris-Foulkes estimate   =   -6260.38949151 Ry
     estimated scf accuracy    <       0.00000012 Ry

     iteration # 12     ecut=   120.00 Ry     beta= 0.70
     Davidson diagonalization with overlap
     ethr =  3.31E-11,  avg # of iterations =  2.0

     total cpu time spent up to now is     1420.7 secs

     total energy              =   -6260.38949148 Ry
     Harris-Foulkes estimate   =   -6260.38949150 Ry
     estimated scf accuracy    <       0.00000003 Ry

     iteration # 13     ecut=   120.00 Ry     beta= 0.70
     Davidson diagonalization with overlap
     ethr =  7.00E-12,  avg # of iterations =  3.0

     total cpu time spent up to now is     1540.8 secs

     End of self-consistent calculation

          k = 0.0000 0.0000 0.0000 ( 63291 PWs)   bands (ev):

   -66.2315 -66.2311 -66.2306 -66.2306 -66.2302 -66.2302 -66.2298 -66.2293
   -30.6554 -30.6504 -30.6500 -30.6452 -30.6051 -30.5986 -30.5956 -30.5887
   -30.5575 -30.5568 -30.5523 -30.5492 -30.5267 -30.5240 -30.5178 -30.5177
   -30.4681 -30.4674 -30.4667 -30.4650 -30.4416 -30.4378 -30.4378 -30.4339
   -20.3976 -20.3974 -20.3970 -20.3969 -20.3949 -20.3948 -20.3941 -20.3940
   -20.3871 -20.3869 -20.3867 -20.3862 -20.3860 -20.3858 -20.3858 -20.3852
   -20.3852 -20.3850 -20.3848 -20.3847 -20.3838 -20.3832 -20.3828 -20.3827
   -20.3797 -20.3792 -20.3790 -20.3790 -20.3781 -20.3777 -20.3775 -20.3774
   -20.3674 -20.3673 -20.3672 -20.3670 -20.3664 -20.3662 -20.3661 -20.3659
   -20.3376 -20.3375 -20.3364 -20.3364 -20.3330 -20.3329 -20.3327 -20.3327
   -20.3315 -20.3315 -20.3313 -20.3313 -20.3285 -20.3284 -20.3272 -20.3272
   -10.0231  -9.7089  -9.6218  -9.5696  -9.3295  -9.2179  -9.2074  -9.0748
    -9.0440  -8.9797  -8.9668  -8.9151  -8.0740  -8.0006  -7.9849  -7.9819
    -7.9504  -7.9323  -7.9086  -7.8927  -7.8352  -7.8082  -7.7755  -7.7519
     1.2611   1.2644   1.2734   1.2752   1.3612   1.3772   1.4195   1.5222
     1.5286   1.5771   1.6436   1.7979   2.3843   2.4720   2.4937   2.5208
     2.6473   2.6672   3.9975   4.1098   4.2388   4.4283   4.5654   4.6948
     4.7166   4.7190   4.7586   4.7983   4.9318   4.9650   5.0158   5.2629
     5.3209   5.3440   5.3767   5.3948   5.4297   5.4404   5.5381   5.6532
     5.6599   5.6687   5.6979   5.7244   5.7577   5.8128   5.9127   5.9141
     5.9382   6.1183   6.1260   6.3537   6.4226   6.6021   6.6512   6.6557
     6.7170   6.7308   6.7315   6.8040   6.8320   6.9055   7.1003   7.1419
     7.2175   7.2609   7.5834   7.6018   7.8029   7.8598   7.8839   7.9429
     9.3824   9.3986   9.8897   9.9101   9.9271   9.9512  11.9577  12.0144
    12.1240  12.1396  12.2030  12.2124  12.3060  12.3309  12.3908  12.5222
    12.9724  12.9999  13.0083  13.1190  13.3564  13.5086  13.8213  13.8266
    14.0863  14.1626  14.3483  14.5737  15.0741  15.1031  15.1761  15.6121
    15.6536  16.3456  16.5438  16.5932  17.2209  17.2547

          k = 0.0000 0.0000 0.1669 ( 63213 PWs)   bands (ev):

   -66.2315 -66.2310 -66.2307 -66.2306 -66.2303 -66.2302 -66.2298 -66.2294
   -30.6550 -30.6503 -30.6500 -30.6456 -30.6040 -30.5974 -30.5960 -30.5891
   -30.5520 -30.5519 -30.5467 -30.5444 -30.5261 -30.5244 -30.5183 -30.5170
   -30.4741 -30.4734 -30.4721 -30.4707 -30.4414 -30.4380 -30.4375 -30.4341
   -20.3976 -20.3974 -20.3971 -20.3970 -20.3949 -20.3948 -20.3941 -20.3940
   -20.3871 -20.3869 -20.3866 -20.3863 -20.3859 -20.3858 -20.3856 -20.3851
   -20.3850 -20.3849 -20.3848 -20.3846 -20.3839 -20.3834 -20.3830 -20.3829
   -20.3797 -20.3792 -20.3791 -20.3790 -20.3781 -20.3777 -20.3775 -20.3774
   -20.3674 -20.3672 -20.3672 -20.3670 -20.3664 -20.3662 -20.3661 -20.3659
   -20.3373 -20.3372 -20.3361 -20.3361 -20.3330 -20.3330 -20.3329 -20.3329
   -20.3318 -20.3318 -20.3315 -20.3315 -20.3284 -20.3283 -20.3273 -20.3273
    -9.9764  -9.6505  -9.5869  -9.5665  -9.2457  -9.2267  -9.2233  -9.0346
    -9.0128  -8.9754  -8.9360  -8.9201  -8.1017  -8.0894  -8.0365  -8.0042
    -7.9864  -7.9535  -7.9355  -7.9215  -7.9019  -7.8825  -7.7844  -7.7609
     1.3594   1.3746   1.3880   1.4134   1.4241   1.4314   1.5212   1.5222
     1.5745   1.6126   1.7609   1.8971   2.4703   2.5295   2.5622   2.5792
     2.6589   2.7338   3.9949   4.0135   4.2632   4.3115   4.4067   4.4232
     4.5331   4.5540   4.7328   4.7459   4.7658   4.9410   5.0189   5.1612
     5.1681   5.2732   5.3286   5.3983   5.4305   5.4370   5.4673   5.5235
     5.5405   5.5926   5.6934   5.7269   5.7656   5.8610   5.9418   6.0198
     6.0203   6.2756   6.3352   6.4105   6.4783   6.5310   6.6006   6.6148
     6.6636   6.7243   6.7268   6.8189   6.8192   6.9071   6.9620   6.9760
     7.0486   7.1079   7.6087   7.6138   7.8181   7.8398   7.8640   7.9003
     9.6516   9.6744   9.9065   9.9299  10.1564  10.2120  11.9618  12.0103
    12.0523  12.1651  12.1846  12.2300  12.3686  12.3944  12.4208  12.5346
    12.8180  13.0072  13.0119  13.0147  13.4347  13.5080  13.6918  13.7188
    14.1122  14.2691  14.3437  14.6795  15.0870  15.1449  15.1555  15.5847
    15.9358  16.3624  16.5200  16.7222  17.2695  17.3397

          k = 0.0000 0.0000 0.3338 ( 63212 PWs)   bands (ev):

   -66.2313 -66.2309 -66.2309 -66.2304 -66.2304 -66.2300 -66.2300 -66.2296
   -30.6540 -30.6513 -30.6491 -30.6465 -30.6015 -30.5972 -30.5949 -30.5904
   -30.5391 -30.5377 -30.5315 -30.5304 -30.5257 -30.5228 -30.5203 -30.5142
   -30.4899 -30.4897 -30.4871 -30.4865 -30.4407 -30.4387 -30.4368 -30.4349
   -20.3975 -20.3973 -20.3972 -20.3971 -20.3947 -20.3946 -20.3943 -20.3942
   -20.3870 -20.3869 -20.3865 -20.3863 -20.3859 -20.3858 -20.3853 -20.3850
   -20.3849 -20.3847 -20.3845 -20.3844 -20.3843 -20.3837 -20.3834 -20.3833
   -20.3796 -20.3792 -20.3792 -20.3790 -20.3780 -20.3778 -20.3775 -20.3774
   -20.3673 -20.3672 -20.3672 -20.3671 -20.3663 -20.3661 -20.3661 -20.3660
   -20.3364 -20.3364 -20.3352 -20.3352 -20.3339 -20.3339 -20.3328 -20.3328
   -20.3326 -20.3326 -20.3319 -20.3318 -20.3281 -20.3281 -20.3275 -20.3275
    -9.8611  -9.6407  -9.5080  -9.4373  -9.2728  -9.2567  -9.0077  -8.9675
    -8.9334  -8.9004  -8.8987  -8.8207  -8.3579  -8.3574  -8.2654  -8.2451
    -8.0374  -8.0142  -7.9651  -7.9440  -7.8774  -7.8562  -7.8089  -7.7857
     1.3616   1.3692   1.4376   1.4615   1.4829   1.5085   1.5511   1.5723
     2.1790   2.2171   2.3462   2.4223   2.5538   2.6466   2.7131   2.8129
     2.8222   2.9687   3.6753   3.7763   3.8177   3.8253   4.0440   4.1303
     4.3095   4.3758   4.5189   4.5390   4.5848   4.6840   4.7974   4.9717
     5.0224   5.0764   5.1004   5.1739   5.3077   5.3365   5.4711   5.5471
     5.5757   5.6022   5.6672   5.7725   5.8005   5.9739   6.0219   6.1020
     6.1605   6.2259   6.3157   6.3655   6.3799   6.3929   6.4275   6.6187
     6.6952   6.7138   6.7419   6.8217   6.8504   6.9117   6.9344   7.0189
     7.0965   7.1682   7.5731   7.5868   7.6966   7.7654   7.8485   7.8672
     9.8456   9.8949  10.2990  10.4140  10.7237  10.8318  11.6399  11.7257
    11.9226  12.1489  12.2262  12.3239  12.3667  12.4061  12.4146  12.5395
    12.6616  12.8445  12.9029  13.0428  13.3819  13.4431  13.5086  13.5218
    14.2096  14.3280  14.5576  14.9439  15.0439  15.1938  15.5019  15.5421
    15.8684  16.7325  17.0179  17.0651  17.2720  17.4045

          k = 0.0000 0.0000-0.5008 ( 63204 PWs)   bands (ev):

   -66.2311 -66.2311 -66.2306 -66.2306 -66.2302 -66.2302 -66.2298 -66.2298
   -30.6526 -30.6526 -30.6478 -30.6478 -30.5991 -30.5991 -30.5923 -30.5923
   -30.5282 -30.5282 -30.5258 -30.5258 -30.5113 -30.5113 -30.5106 -30.5105
   -30.5076 -30.5076 -30.5049 -30.5049 -30.4397 -30.4397 -30.4358 -30.4358
   -20.3974 -20.3974 -20.3972 -20.3972 -20.3945 -20.3945 -20.3944 -20.3944
   -20.3870 -20.3870 -20.3864 -20.3864 -20.3859 -20.3859 -20.3849 -20.3849
   -20.3848 -20.3848 -20.3842 -20.3842 -20.3839 -20.3839 -20.3839 -20.3839
   -20.3794 -20.3794 -20.3791 -20.3791 -20.3779 -20.3779 -20.3774 -20.3774
   -20.3673 -20.3673 -20.3671 -20.3671 -20.3662 -20.3662 -20.3660 -20.3660
   -20.3352 -20.3352 -20.3351 -20.3351 -20.3340 -20.3340 -20.3340 -20.3340
   -20.3323 -20.3323 -20.3322 -20.3322 -20.3278 -20.3278 -20.3278 -20.3278
    -9.7349  -9.7349  -9.3652  -9.3652  -9.3213  -9.3213  -8.9506  -8.9506
    -8.6789  -8.6789  -8.6626  -8.6626  -8.6476  -8.6476  -8.5772  -8.5772
    -8.0273  -8.0273  -7.9552  -7.9552  -7.8429  -7.8429  -7.8205  -7.8205
     1.3644   1.3644   1.4553   1.4553   1.4953   1.4953   1.5720   1.5720
     2.5832   2.5832   2.9036   2.9036   3.0250   3.0250   3.0348   3.0348
     3.1932   3.1932   3.2429   3.2429   3.4173   3.4173   3.6448   3.6448
     3.7432   3.7432   4.4804   4.4804   4.4810   4.4810   4.8390   4.8390
     5.0799   5.0799   5.2078   5.2078   5.2120   5.2120   5.5105   5.5105
     5.6316   5.6316   5.7675   5.7675   5.9354   5.9354   6.0844   6.0844
     6.0949   6.0949   6.2577   6.2577   6.3177   6.3177   6.4592   6.4592
     6.6253   6.6253   6.7178   6.7178   6.8831   6.8831   7.3409   7.3409
     7.3910   7.3910   7.4489   7.4489   7.5251   7.5251   7.8639   7.8639
     9.8754   9.8755  11.0196  11.0196  11.1287  11.1287  11.3861  11.3861
    11.5698  11.5698  12.3125  12.3125  12.4255  12.4255  12.5945  12.5945
    12.6345  12.6345  13.0142  13.0142  13.1635  13.1635  13.5171  13.5171
    14.2919  14.2919  14.8516  14.8516  15.3517  15.3517  15.3640  15.3640
    16.2899  16.2899  17.5216  17.5216  17.7842  17.7842

          k = 0.0000 0.1594 0.0000 ( 63195 PWs)   bands (ev):

   -66.2315 -66.2311 -66.2306 -66.2306 -66.2302 -66.2302 -66.2297 -66.2294
   -30.6518 -30.6467 -30.6462 -30.6414 -30.6080 -30.6017 -30.5991 -30.5924
   -30.5576 -30.5571 -30.5524 -30.5498 -30.5263 -30.5237 -30.5186 -30.5182
   -30.4681 -30.4675 -30.4666 -30.4651 -30.4414 -30.4381 -30.4375 -30.4342
   -20.3974 -20.3972 -20.3968 -20.3967 -20.3951 -20.3949 -20.3942 -20.3941
   -20.3870 -20.3868 -20.3866 -20.3862 -20.3860 -20.3859 -20.3857 -20.3852
   -20.3852 -20.3851 -20.3849 -20.3849 -20.3837 -20.3832 -20.3829 -20.3828
   -20.3797 -20.3793 -20.3791 -20.3790 -20.3781 -20.3777 -20.3776 -20.3774
   -20.3674 -20.3673 -20.3672 -20.3670 -20.3664 -20.3662 -20.3661 -20.3659
   -20.3376 -20.3375 -20.3364 -20.3364 -20.3330 -20.3330 -20.3327 -20.3327
   -20.3315 -20.3315 -20.3313 -20.3313 -20.3285 -20.3284 -20.3272 -20.3272
    -9.9916  -9.7216  -9.5842  -9.5246  -9.3375  -9.2169  -9.1463  -9.0690
    -9.0453  -8.9427  -8.9317  -8.8868  -8.1517  -8.0914  -8.0774  -8.0342
    -7.9805  -7.9599  -7.9105  -7.8947  -7.8337  -7.8117  -7.7763  -7.7539
     1.2613   1.2667   1.2755   1.2780   1.4043   1.4195   1.4993   1.6429
     1.7052   1.7458   1.7789   1.9355   2.3914   2.4660   2.5688   2.5931
     2.7205   2.7353   3.8631   3.9722   3.9938   4.1277   4.4881   4.6970
     4.7178   4.7481   4.7543   4.7861   4.8700   4.8844   4.9323   5.1046
     5.1705   5.3493   5.3650   5.3870   5.4801   5.4925   5.5140   5.5586
     5.5970   5.6237   5.7369   5.7500   5.7706   5.8239   5.8868   5.9245
     5.9470   6.0879   6.1430   6.3768   6.4582   6.5828   6.6358   6.6675
     6.7166   6.7269   6.7472   6.7793   6.8042   6.8278   7.1104   7.1395
     7.2302   7.2582   7.5848   7.5999   7.7807   7.8098   7.8429   7.8649
     9.3926   9.4000  10.0815  10.0876  10.0925  10.0983  11.8748  11.9952
    12.1254  12.1386  12.1554  12.1714  12.1803  12.2293  12.3320  12.5203
    12.9919  12.9945  13.0294  13.0995  13.4918  13.5133  13.7282  13.7352
    14.1591  14.4174  14.5012  14.7378  15.0713  15.0995  15.5654  15.5793
    15.6284  16.1017  16.6756  16.7335  17.2025  17.3101

          k = 0.0000 0.1594 0.1669 ( 63190 PWs)   bands (ev):

   -66.2314 -66.2311 -66.2307 -66.2306 -66.2303 -66.2302 -66.2298 -66.2294
   -30.6514 -30.6466 -30.6463 -30.6418 -30.6070 -30.6006 -30.5995 -30.5929
   -30.5522 -30.5520 -30.5467 -30.5449 -30.5256 -30.5241 -30.5188 -30.5179
   -30.4741 -30.4735 -30.4721 -30.4708 -30.4411 -30.4378 -30.4378 -30.4344
   -20.3974 -20.3972 -20.3968 -20.3967 -20.3950 -20.3949 -20.3943 -20.3942
   -20.3870 -20.3868 -20.3865 -20.3862 -20.3860 -20.3859 -20.3856 -20.3851
   -20.3851 -20.3850 -20.3848 -20.3848 -20.3839 -20.3833 -20.3830 -20.3829
   -20.3796 -20.3793 -20.3791 -20.3790 -20.3780 -20.3777 -20.3776 -20.3774
   -20.3674 -20.3672 -20.3672 -20.3671 -20.3663 -20.3662 -20.3661 -20.3659
   -20.3373 -20.3372 -20.3361 -20.3361 -20.3330 -20.3330 -20.3329 -20.3329
   -20.3318 -20.3318 -20.3315 -20.3315 -20.3284 -20.3283 -20.3273 -20.3273
    -9.9434  -9.6634  -9.5423  -9.5246  -9.2538  -9.2330  -9.1551  -9.0312
    -9.0139  -8.9374  -8.9053  -8.8915  -8.1580  -8.1026  -8.0879  -8.0820
    -8.0485  -8.0414  -7.9521  -7.9279  -7.9045  -7.8845  -7.7853  -7.7629
     1.3880   1.3887   1.4072   1.4241   1.4976   1.5214   1.5530   1.7125
     1.7603   1.7668   1.7754   1.9914   2.4786   2.5555   2.6018   2.6557
     2.7276   2.8057   3.8723   3.9418   4.0148   4.1128   4.3457   4.4061
     4.4849   4.5664   4.6431   4.7162   4.7611   4.8740   4.9314   5.0542
     5.0939   5.1715   5.2502   5.3396   5.3636   5.4083   5.4828   5.5155
     5.5926   5.6062   5.6739   5.6957   5.7276   5.8809   5.9239   5.9992
     6.0529   6.2140   6.3328   6.4442   6.5192   6.5860   6.6321   6.6335
     6.6438   6.7387   6.7397   6.7759   6.8331   6.8380   6.9641   6.9798
     7.0681   7.1054   7.6086   7.6117   7.7855   7.8021   7.8153   7.8278
     9.6816   9.6826  10.0854  10.1008  10.2962  10.3341  11.9390  11.9455
    12.0561  12.1027  12.1659  12.1976  12.2335  12.3003  12.3952  12.5413
    12.8282  12.9933  12.9962  13.0248  13.5130  13.5323  13.5950  13.6292
    14.2251  14.4808  14.5618  14.8264  15.0818  15.1572  15.5349  15.5521
    15.9086  16.2710  16.4957  16.8344  17.2603  17.5532

          k = 0.0000 0.1594 0.3338 ( 63202 PWs)   bands (ev):

   -66.2313 -66.2309 -66.2308 -66.2305 -66.2304 -66.2300 -66.2300 -66.2296
   -30.6503 -30.6476 -30.6453 -30.6427 -30.6048 -30.6007 -30.5983 -30.5941
   -30.5390 -30.5378 -30.5315 -30.5307 -30.5254 -30.5224 -30.5207 -30.5151
   -30.4900 -30.4898 -30.4871 -30.4866 -30.4404 -30.4385 -30.4371 -30.4352
   -20.3973 -20.3971 -20.3970 -20.3968 -20.3949 -20.3948 -20.3944 -20.3944
   -20.3870 -20.3869 -20.3864 -20.3862 -20.3860 -20.3859 -20.3852 -20.3850
   -20.3850 -20.3847 -20.3845 -20.3845 -20.3842 -20.3837 -20.3834 -20.3834
   -20.3795 -20.3792 -20.3792 -20.3791 -20.3780 -20.3778 -20.3775 -20.3774
   -20.3673 -20.3672 -20.3672 -20.3671 -20.3663 -20.3661 -20.3661 -20.3660
   -20.3364 -20.3364 -20.3352 -20.3352 -20.3339 -20.3339 -20.3328 -20.3328
   -20.3326 -20.3326 -20.3319 -20.3318 -20.3281 -20.3281 -20.3275 -20.3275
    -9.8243  -9.5973  -9.5210  -9.3830  -9.2834  -9.1857  -9.0162  -8.9447
    -8.9042  -8.9016  -8.8838  -8.8024  -8.3643  -8.3554  -8.2818  -8.2430
    -8.1179  -8.0989  -8.0590  -8.0344  -7.8800  -7.8583  -7.8101  -7.7878
     1.4143   1.4331   1.4375   1.4612   1.6636   1.6842   1.7544   1.7743
     2.1781   2.2241   2.3473   2.4367   2.6252   2.7103   2.7261   2.8183
     2.8904   3.0311   3.6861   3.7592   3.7866   3.8224   4.0056   4.0845
     4.1327   4.3286   4.3998   4.4262   4.5342   4.6156   4.6545   4.8386
     4.8972   5.0046   5.0661   5.0692   5.2652   5.2686   5.3588   5.4622
     5.5363   5.6080   5.6478   5.7017   5.7544   5.9658   6.0172   6.0250
     6.2035   6.3122   6.4014   6.4057   6.4212   6.4740   6.5599   6.6308
     6.6558   6.7061   6.7789   6.7921   6.8267   6.8763   6.9638   7.0127
     7.0981   7.1606   7.5726   7.5847   7.6670   7.7103   7.8028   7.8186
    10.0324  10.0807  10.3108  10.4253  10.8231  10.9090  11.6416  11.7231
    11.9178  12.1240  12.2349  12.2733  12.2850  12.3407  12.4325  12.4703
    12.5490  12.8299  12.8874  13.0213  13.2775  13.3681  13.5149  13.5521
    14.3671  14.4717  14.8895  15.0693  15.1788  15.4257  15.4707  15.5750
    16.0013  16.6958  16.7822  17.0698  17.3417  17.4459

          k = 0.0000 0.1594-0.5008 ( 63266 PWs)   bands (ev):

   -66.2310 -66.2310 -66.2307 -66.2307 -66.2302 -66.2302 -66.2298 -66.2298
   -30.6489 -30.6489 -30.6440 -30.6440 -30.6025 -30.6025 -30.5960 -30.5960
   -30.5280 -30.5280 -30.5259 -30.5259 -30.5113 -30.5113 -30.5107 -30.5107
   -30.5076 -30.5076 -30.5054 -30.5054 -30.4395 -30.4395 -30.4361 -30.4361
   -20.3971 -20.3971 -20.3970 -20.3970 -20.3947 -20.3947 -20.3946 -20.3946
   -20.3869 -20.3869 -20.3863 -20.3863 -20.3859 -20.3859 -20.3850 -20.3850
   -20.3847 -20.3847 -20.3842 -20.3842 -20.3840 -20.3840 -20.3839 -20.3839
   -20.3794 -20.3794 -20.3791 -20.3791 -20.3779 -20.3779 -20.3775 -20.3775
   -20.3673 -20.3673 -20.3671 -20.3671 -20.3662 -20.3662 -20.3660 -20.3660
   -20.3352 -20.3352 -20.3351 -20.3351 -20.3340 -20.3340 -20.3340 -20.3340
   -20.3323 -20.3323 -20.3322 -20.3322 -20.3278 -20.3278 -20.3278 -20.3278
    -9.6940  -9.6940  -9.3772  -9.3772  -9.2545  -9.2545  -8.9210  -8.9210
    -8.6836  -8.6836  -8.6586  -8.6585  -8.6554  -8.6554  -8.5711  -8.5711
    -8.1118  -8.1118  -8.0490  -8.0490  -7.8447  -7.8447  -7.8226  -7.8226
     1.4258   1.4258   1.4551   1.4551   1.6809   1.6809   1.7720   1.7720
     2.6504   2.6504   2.9197   2.9197   3.0284   3.0284   3.0593   3.0593
     3.1892   3.1892   3.2607   3.2607   3.4081   3.4081   3.6606   3.6606
     3.7952   3.7952   4.2475   4.2475   4.3711   4.3711   4.6454   4.6454
     4.9472   4.9472   5.1696   5.1696   5.1964   5.1964   5.3791   5.3791
     5.5385   5.5385   5.6778   5.6778   5.9339   5.9339   6.0992   6.0992
     6.1861   6.1861   6.2926   6.2926   6.4413   6.4413   6.4899   6.4899
     6.6739   6.6739   6.7319   6.7319   6.8225   6.8225   7.3454   7.3454
     7.3871   7.3871   7.4304   7.4305   7.4967   7.4968   7.8147   7.8147
    10.0682  10.0682  11.0276  11.0276  11.1275  11.1275  11.4485  11.4485
    11.6210  11.6210  12.2897  12.2897  12.3204  12.3204  12.5741  12.5741
    12.5917  12.5917  12.9059  12.9059  13.1195  13.1195  13.5263  13.5263
    14.4416  14.4416  15.2090  15.2090  15.3379  15.3379  15.4945  15.4945
    16.3365  16.3365  17.3282  17.3282  17.7389  17.7389

          k = 0.0000 0.3187 0.0000 ( 63229 PWs)   bands (ev):

   -66.2314 -66.2312 -66.2305 -66.2305 -66.2303 -66.2303 -66.2297 -66.2294
   -30.6420 -30.6367 -30.6361 -30.6311 -30.6165 -30.6105 -30.6088 -30.6028
   -30.5578 -30.5575 -30.5523 -30.5511 -30.5250 -30.5227 -30.5207 -30.5196
   -30.4681 -30.4677 -30.4663 -30.4654 -30.4407 -30.4388 -30.4369 -30.4349
   -20.3968 -20.3967 -20.3962 -20.3961 -20.3955 -20.3953 -20.3947 -20.3946
   -20.3868 -20.3867 -20.3863 -20.3862 -20.3862 -20.3861 -20.3856 -20.3855
   -20.3853 -20.3852 -20.3851 -20.3851 -20.3836 -20.3831 -20.3831 -20.3829
   -20.3796 -20.3794 -20.3791 -20.3791 -20.3780 -20.3777 -20.3777 -20.3775
   -20.3674 -20.3673 -20.3671 -20.3671 -20.3663 -20.3662 -20.3660 -20.3660
   -20.3376 -20.3375 -20.3364 -20.3364 -20.3330 -20.3330 -20.3327 -20.3327
   -20.3315 -20.3315 -20.3313 -20.3313 -20.3285 -20.3284 -20.3272 -20.3272
    -9.9139  -9.7608  -9.4975  -9.4175  -9.3638  -9.2487  -9.0607  -9.0488
    -8.9442  -8.8173  -8.8125  -8.7862  -8.3705  -8.3232  -8.3133  -8.2935
    -7.9770  -7.9677  -7.9097  -7.8996  -7.8296  -7.8175  -7.7735  -7.7595
     1.2620   1.2654   1.2765   1.2792   1.4167   1.4195   1.6119   1.6406
     2.2304   2.3562   2.3958   2.4063   2.4494   2.5319   2.8024   2.8057
     2.9307   2.9476   3.4959   3.5152   3.6438   3.6703   3.9689   4.2778
     4.3451   4.5650   4.7211   4.7334   4.7589   4.7746   4.9206   4.9322
     4.9751   4.9795   5.2580   5.2972   5.4254   5.4335   5.5317   5.5702
     5.7093   5.7124   5.7320   5.7432   5.8102   5.8514   5.8819   5.9458
     5.9831   6.0338   6.1367   6.3448   6.4423   6.5084   6.6646   6.6960
     6.7166   6.7857   6.9078   6.9251   6.9303   6.9722   7.1294   7.1354
     7.2481   7.2560   7.5608   7.5808   7.6511   7.6513   7.6531   7.6726
     9.4023   9.4029  10.4962  10.5536  10.5577  10.5775  11.5582  11.6952
    11.7507  11.8037  12.1110  12.1273  12.1643  12.1701  12.3887  12.5035
    13.0300  13.0774  13.0983  13.1342  13.3799  13.4480  13.5081  13.5169
    14.5344  14.8977  14.9485  15.0620  15.0953  15.3454  15.4727  15.5391
    15.6065  16.5176  16.8972  17.1349  17.2083  17.4773

          k = 0.0000 0.3187 0.1669 ( 63212 PWs)   bands (ev):

   -66.2313 -66.2311 -66.2306 -66.2305 -66.2304 -66.2303 -66.2297 -66.2295
   -30.6415 -30.6365 -30.6362 -30.6314 -30.6158 -30.6097 -30.6091 -30.6032
   -30.5524 -30.5522 -30.5467 -30.5458 -30.5243 -30.5231 -30.5201 -30.5200
   -30.4741 -30.4738 -30.4719 -30.4712 -30.4405 -30.4386 -30.4371 -30.4352
   -20.3968 -20.3966 -20.3962 -20.3961 -20.3954 -20.3953 -20.3947 -20.3947
   -20.3868 -20.3867 -20.3863 -20.3862 -20.3862 -20.3860 -20.3854 -20.3854
   -20.3853 -20.3850 -20.3850 -20.3850 -20.3837 -20.3833 -20.3832 -20.3831
   -20.3796 -20.3794 -20.3791 -20.3791 -20.3780 -20.3777 -20.3777 -20.3775
   -20.3674 -20.3673 -20.3671 -20.3671 -20.3663 -20.3662 -20.3661 -20.3660
   -20.3373 -20.3372 -20.3361 -20.3361 -20.3330 -20.3330 -20.3329 -20.3329
   -20.3318 -20.3318 -20.3315 -20.3315 -20.3284 -20.3284 -20.3273 -20.3273
    -9.8621  -9.7034  -9.4358  -9.4273  -9.2809  -9.2655  -9.0262  -9.0170
    -8.9529  -8.8124  -8.7972  -8.7898  -8.3717  -8.3293  -8.3119  -8.2993
    -8.0837  -8.0699  -7.9481  -7.9360  -7.9028  -7.8900  -7.7825  -7.7685
     1.3881   1.3897   1.4209   1.4241   1.5204   1.5220   1.7199   1.7580
     2.2366   2.3481   2.3890   2.4845   2.5379   2.5384   2.8098   2.8960
     2.9238   3.0319   3.5154   3.5781   3.6458   3.6587   3.9532   4.2795
     4.3232   4.3611   4.4332   4.5728   4.6313   4.7370   4.7787   4.7883
     4.9244   4.9946   5.0732   5.1608   5.2432   5.3175   5.4330   5.4921
     5.5300   5.5719   5.6179   5.7193   5.8571   5.9081   5.9208   5.9498
     6.1253   6.2447   6.3091   6.4057   6.4875   6.6673   6.6705   6.7275
     6.7708   6.8000   6.8834   6.8926   6.9058   6.9454   6.9678   7.0181
     7.1129   7.1135   7.5777   7.5781   7.6278   7.6447   7.6577   7.6640
     9.6939   9.7009  10.5560  10.5849  10.6630  10.7216  11.6474  11.6877
    11.8053  11.8222  12.0456  12.0544  12.2136  12.2139  12.4588  12.5474
    12.9048  13.0054  13.0302  13.0607  13.3632  13.3787  13.4288  13.4607
    14.6323  14.8879  15.0621  15.1415  15.1735  15.4095  15.4462  15.7749
    15.8240  16.4840  16.9339  16.9575  17.2360  17.7146

          k = 0.0000 0.3187 0.3338 ( 63196 PWs)   bands (ev):

   -66.2312 -66.2310 -66.2307 -66.2305 -66.2303 -66.2301 -66.2299 -66.2297
   -30.6403 -30.6374 -30.6352 -30.6324 -30.6139 -30.6103 -30.6079 -30.6043
   -30.5388 -30.5381 -30.5316 -30.5312 -30.5244 -30.5218 -30.5213 -30.5171
   -30.4901 -30.4900 -30.4872 -30.4868 -30.4398 -30.4379 -30.4378 -30.4359
   -20.3967 -20.3966 -20.3964 -20.3962 -20.3953 -20.3952 -20.3949 -20.3948
   -20.3868 -20.3867 -20.3862 -20.3862 -20.3862 -20.3860 -20.3853 -20.3853
   -20.3851 -20.3847 -20.3847 -20.3846 -20.3841 -20.3837 -20.3836 -20.3835
   -20.3795 -20.3793 -20.3793 -20.3792 -20.3779 -20.3777 -20.3777 -20.3775
   -20.3673 -20.3672 -20.3672 -20.3671 -20.3662 -20.3662 -20.3661 -20.3660
   -20.3364 -20.3364 -20.3352 -20.3352 -20.3339 -20.3339 -20.3328 -20.3328
   -20.3326 -20.3326 -20.3318 -20.3318 -20.3281 -20.3281 -20.3275 -20.3275
    -9.7338  -9.5622  -9.4928  -9.3184  -9.2487  -9.0467  -8.9858  -8.9197
    -8.9052  -8.8036  -8.7878  -8.7307  -8.4257  -8.3955  -8.3495  -8.3253
    -8.3035  -8.2717  -8.2366  -8.1842  -7.8782  -7.8641  -7.8076  -7.7935
     1.4325   1.4372   1.4559   1.4606   2.0989   2.1753   2.1904   2.2641
     2.3455   2.3783   2.3974   2.5991   2.7583   2.7882   2.8313   2.9142
     3.1244   3.2281   3.5442   3.6049   3.6326   3.6568   3.7878   3.8159
     3.9599   4.1757   4.1892   4.2634   4.2852   4.4443   4.4488   4.6084
     4.6280   4.7047   4.8996   4.9805   5.0694   5.0723   5.0889   5.2172
     5.2520   5.4452   5.5030   5.6759   5.9321   5.9908   6.0438   6.0568
     6.2898   6.3872   6.4133   6.4952   6.4977   6.6421   6.6596   6.6776
     6.7973   6.7989   6.8684   6.8833   6.9252   6.9633   7.0362   7.0386
     7.0977   7.1525   7.5157   7.5460   7.5638   7.5913   7.6359   7.6591
    10.3235  10.3342  10.5599  10.6296  11.1057  11.1648  11.5956  11.7146
    11.7700  11.8297  11.9251  12.0276  12.3279  12.3559  12.3796  12.4536
    12.4853  12.8027  12.8117  13.0216  13.0482  13.2533  13.3793  13.4382
    14.7488  14.8594  15.1258  15.3709  15.6068  15.6353  15.6738  16.3182
    16.3670  16.4402  16.5837  17.1573  17.2501  17.5071

          k = 0.0000 0.3187-0.5008 ( 63186 PWs)   bands (ev):

   -66.2310 -66.2310 -66.2308 -66.2308 -66.2301 -66.2301 -66.2299 -66.2299
   -30.6388 -30.6388 -30.6337 -30.6337 -30.6120 -30.6120 -30.6060 -30.6060
   -30.5274 -30.5274 -30.5262 -30.5262 -30.5113 -30.5113 -30.5110 -30.5110
   -30.5076 -30.5075 -30.5064 -30.5064 -30.4388 -30.4388 -30.4369 -30.4369
   -20.3965 -20.3965 -20.3964 -20.3964 -20.3951 -20.3951 -20.3950 -20.3950
   -20.3867 -20.3867 -20.3862 -20.3862 -20.3861 -20.3861 -20.3853 -20.3853
   -20.3846 -20.3846 -20.3842 -20.3842 -20.3842 -20.3842 -20.3840 -20.3840
   -20.3794 -20.3794 -20.3792 -20.3792 -20.3778 -20.3778 -20.3776 -20.3776
   -20.3672 -20.3672 -20.3672 -20.3672 -20.3662 -20.3662 -20.3661 -20.3661
   -20.3352 -20.3352 -20.3351 -20.3351 -20.3340 -20.3340 -20.3340 -20.3340
   -20.3323 -20.3323 -20.3322 -20.3322 -20.3278 -20.3278 -20.3278 -20.3278
    -9.5943  -9.5943  -9.4163  -9.4163  -9.0722  -9.0722  -8.8279  -8.8279
    -8.7138  -8.7138  -8.6782  -8.6781  -8.6400  -8.6400  -8.5474  -8.5474
    -8.3239  -8.3239  -8.2748  -8.2748  -7.8425  -7.8425  -7.8283  -7.8283
     1.4489   1.4489   1.4545   1.4545   2.2474   2.2475   2.3808   2.3808
     2.8328   2.8328   2.9676   2.9676   3.0124   3.0124   3.1256   3.1256
     3.1756   3.1756   3.3222   3.3222   3.3720   3.3720   3.6107   3.6107
     3.9107   3.9107   3.9401   3.9401   4.0053   4.0053   4.1755   4.1756
     4.6895   4.6895   4.8225   4.8225   5.0098   5.0098   5.1440   5.1440
     5.3043   5.3043   5.5943   5.5943   6.0456   6.0456   6.1044   6.1044
     6.3349   6.3349   6.3679   6.3679   6.4387   6.4387   6.5950   6.5950
     6.8653   6.8653   6.9097   6.9097   6.9291   6.9291   7.3313   7.3313
     7.3518   7.3518   7.3757   7.3757   7.4244   7.4244   7.6428   7.6429
    10.5509  10.5509  11.0439  11.0439  11.1288  11.1288  11.5812  11.5812
    11.7842  11.7842  11.9504  11.9504  12.2915  12.2915  12.3549  12.3549
    12.5919  12.5919  12.6779  12.6779  13.0983  13.0983  13.3944  13.3944
    14.8128  14.8128  15.2533  15.2533  15.9512  15.9512  16.1180  16.1180
    16.4990  16.4990  16.9594  16.9594  17.5151  17.5151

          k = 0.0000-0.4781 0.0000 ( 63326 PWs)   bands (ev):

   -66.2313 -66.2313 -66.2304 -66.2304 -66.2304 -66.2304 -66.2296 -66.2295
   -30.6290 -30.6289 -30.6233 -30.6233 -30.6223 -30.6223 -30.6169 -30.6169
   -30.5578 -30.5578 -30.5520 -30.5520 -30.5230 -30.5230 -30.5212 -30.5212
   -30.4680 -30.4679 -30.4659 -30.4659 -30.4398 -30.4398 -30.4359 -30.4359
   -20.3961 -20.3961 -20.3960 -20.3960 -20.3954 -20.3954 -20.3953 -20.3953
   -20.3865 -20.3865 -20.3865 -20.3865 -20.3859 -20.3859 -20.3858 -20.3858
   -20.3853 -20.3853 -20.3851 -20.3851 -20.3833 -20.3833 -20.3830 -20.3830
   -20.3796 -20.3795 -20.3791 -20.3791 -20.3779 -20.3779 -20.3776 -20.3776
   -20.3673 -20.3673 -20.3671 -20.3671 -20.3663 -20.3663 -20.3660 -20.3660
   -20.3376 -20.3376 -20.3364 -20.3364 -20.3330 -20.3330 -20.3327 -20.3327
   -20.3315 -20.3315 -20.3313 -20.3313 -20.3285 -20.3284 -20.3272 -20.3272
    -9.8276  -9.8276  -9.4156  -9.4156  -9.3132  -9.3132  -9.0541  -9.0541
    -8.6568  -8.6567  -8.5945  -8.5944  -8.5938  -8.5938  -8.5858  -8.5858
    -7.9724  -7.9724  -7.9055  -7.9055  -7.8238  -7.8238  -7.7668  -7.7668
     1.2634   1.2634   1.2780   1.2780   1.4192   1.4192   1.6343   1.6343
     2.4269   2.4269   2.9262   2.9262   3.0560   3.0560   3.1350   3.1350
     3.1423   3.1423   3.2240   3.2240   3.4228   3.4228   3.4852   3.4852
     3.5712   3.5712   4.7360   4.7361   4.7421   4.7421   5.0629   5.0629
     5.1475   5.1475   5.1816   5.1817   5.2071   5.2071   5.5938   5.5938
     5.6403   5.6403   5.7655   5.7655   5.8564   5.8564   5.9381   5.9381
     6.0325   6.0325   6.1408   6.1408   6.5420   6.5420   6.5892   6.5892
     6.7570   6.7570   7.1264   7.1264   7.2129   7.2130   7.2745   7.2745
     7.2890   7.2890   7.3641   7.3642   7.3797   7.3797   7.6066   7.6066
     9.4046   9.4046  11.0426  11.0426  11.1210  11.1211  11.1504  11.1505
    11.2506  11.2506  12.1217  12.1217  12.1701  12.1701  12.4568  12.4568
    13.1730  13.1730  13.1954  13.1954  13.2862  13.2862  13.3140  13.3140
    14.9728  14.9728  15.1539  15.1539  15.2614  15.2614  15.3386  15.3386
    16.2058  16.2059  17.6442  17.6443  17.7547  17.9342

          k = 0.0000-0.4781 0.1669 ( 63254 PWs)   bands (ev):

   -66.2312 -66.2312 -66.2305 -66.2305 -66.2304 -66.2304 -66.2296 -66.2296
   -30.6284 -30.6284 -30.6229 -30.6228 -30.6226 -30.6226 -30.6173 -30.6173
   -30.5524 -30.5524 -30.5465 -30.5465 -30.5223 -30.5223 -30.5217 -30.5217
   -30.4740 -30.4740 -30.4716 -30.4716 -30.4396 -30.4395 -30.4362 -30.4362
   -20.3961 -20.3961 -20.3959 -20.3959 -20.3955 -20.3954 -20.3954 -20.3953
   -20.3865 -20.3865 -20.3865 -20.3865 -20.3858 -20.3858 -20.3858 -20.3858
   -20.3852 -20.3852 -20.3850 -20.3850 -20.3835 -20.3834 -20.3832 -20.3832
   -20.3795 -20.3795 -20.3792 -20.3792 -20.3778 -20.3778 -20.3776 -20.3776
   -20.3673 -20.3673 -20.3671 -20.3671 -20.3663 -20.3663 -20.3660 -20.3660
   -20.3372 -20.3372 -20.3361 -20.3361 -20.3330 -20.3330 -20.3329 -20.3329
   -20.3318 -20.3318 -20.3315 -20.3315 -20.3284 -20.3284 -20.3273 -20.3273
    -9.7723  -9.7723  -9.3364  -9.3364  -9.3311  -9.3311  -9.0214  -9.0214
    -8.6633  -8.6633  -8.5946  -8.5946  -8.5929  -8.5929  -8.5841  -8.5840
    -8.0776  -8.0776  -7.9424  -7.9424  -7.8970  -7.8970  -7.7759  -7.7759
     1.3888   1.3888   1.4236   1.4236   1.5225   1.5225   1.7504   1.7504
     2.5151   2.5151   2.9446   2.9446   3.0546   3.0546   3.1169   3.1169
     3.1990   3.1990   3.2229   3.2229   3.4431   3.4431   3.5015   3.5015
     3.6070   3.6070   4.3878   4.3878   4.7364   4.7364   4.8646   4.8646
     4.9826   4.9826   5.0925   5.0925   5.2022   5.2022   5.3414   5.3414
     5.5727   5.5727   5.6037   5.6037   5.9211   5.9211   5.9381   5.9381
     6.2273   6.2273   6.2937   6.2937   6.5683   6.5683   6.7097   6.7097
     6.8139   6.8139   6.9545   6.9545   7.0460   7.0460   7.2657   7.2657
     7.3052   7.3052   7.3351   7.3351   7.3687   7.3687   7.6251   7.6251
     9.7015   9.7015  11.1383  11.1383  11.1742  11.1742  11.1993  11.1993
    11.2894  11.2894  12.0482  12.0482  12.2139  12.2139  12.5244  12.5244
    13.0477  13.0477  13.1225  13.1225  13.1728  13.1729  13.3290  13.3290
    14.9746  14.9746  15.2339  15.2340  15.3408  15.3408  15.5909  15.5910
    16.2639  16.2639  17.5345  17.5345  17.6162  17.6162

          k = 0.0000-0.4781 0.3338 ( 63134 PWs)   bands (ev):

   -66.2311 -66.2311 -66.2306 -66.2306 -66.2302 -66.2302 -66.2298 -66.2298
   -30.6270 -30.6269 -30.6237 -30.6237 -30.6214 -30.6214 -30.6183 -30.6183
   -30.5385 -30.5385 -30.5315 -30.5315 -30.5232 -30.5231 -30.5194 -30.5194
   -30.4901 -30.4901 -30.4871 -30.4871 -30.4388 -30.4388 -30.4369 -30.4369
   -20.3960 -20.3959 -20.3958 -20.3958 -20.3956 -20.3956 -20.3955 -20.3955
   -20.3865 -20.3865 -20.3865 -20.3865 -20.3858 -20.3858 -20.3857 -20.3857
   -20.3849 -20.3849 -20.3847 -20.3847 -20.3838 -20.3838 -20.3836 -20.3836
   -20.3795 -20.3794 -20.3792 -20.3792 -20.3778 -20.3778 -20.3777 -20.3777
   -20.3673 -20.3673 -20.3672 -20.3671 -20.3662 -20.3662 -20.3661 -20.3661
   -20.3364 -20.3364 -20.3352 -20.3352 -20.3339 -20.3339 -20.3328 -20.3328
   -20.3326 -20.3326 -20.3318 -20.3318 -20.3281 -20.3281 -20.3275 -20.3275
    -9.6353  -9.6353  -9.3873  -9.3873  -9.1181  -9.1181  -8.9108  -8.9108
    -8.6992  -8.6992  -8.6134  -8.6133  -8.5853  -8.5853  -8.5596  -8.5596
    -8.3366  -8.3366  -8.2237  -8.2237  -7.8716  -7.8716  -7.8009  -7.8009
     1.4363   1.4363   1.4595   1.4595   2.1675   2.1675   2.3285   2.3285
     2.7659   2.7659   2.9804   2.9804   3.0407   3.0407   3.1348   3.1349
     3.1797   3.1797   3.3153   3.3153   3.4237   3.4237   3.6079   3.6079
     3.6832   3.6832   3.8054   3.8054   4.3284   4.3285   4.4845   4.4845
     4.6362   4.6362   4.7190   4.7190   5.0859   5.0859   5.1299   5.1299
     5.2604   5.2604   5.5236   5.5236   5.9835   5.9835   6.0737   6.0737
     6.3605   6.3605   6.4518   6.4518   6.5543   6.5543   6.7020   6.7020
     6.9049   6.9049   6.9890   6.9890   6.9998   6.9998   7.2485   7.2485
     7.2823   7.2823   7.3283   7.3283   7.3554   7.3554   7.5920   7.5921
    10.3490  10.3490  11.1493  11.1493  11.2156  11.2156  11.5181  11.5181
    11.5918  11.5918  11.7214  11.7214  12.3536  12.3537  12.4557  12.4557
    12.6301  12.6301  12.8280  12.8280  13.1746  13.1746  13.2824  13.2824
    15.0020  15.0021  15.1809  15.1809  15.9195  15.9196  16.2758  16.2758
    16.4622  16.4622  17.0504  17.0504  17.4611  17.4611

          k = 0.0000-0.4781-0.5008 ( 63168 PWs)   bands (ev):

   -66.2309 -66.2309 -66.2309 -66.2309 -66.2300 -66.2300 -66.2300 -66.2300
   -30.6253 -30.6253 -30.6252 -30.6252 -30.6198 -30.6198 -30.6198 -30.6198
   -30.5268 -30.5268 -30.5268 -30.5268 -30.5112 -30.5112 -30.5112 -30.5112
   -30.5072 -30.5072 -30.5072 -30.5072 -30.4379 -30.4379 -30.4379 -30.4379
   -20.3958 -20.3958 -20.3958 -20.3958 -20.3957 -20.3957 -20.3957 -20.3957
   -20.3865 -20.3865 -20.3865 -20.3865 -20.3857 -20.3857 -20.3857 -20.3857
   -20.3844 -20.3844 -20.3844 -20.3844 -20.3841 -20.3841 -20.3841 -20.3841
   -20.3794 -20.3793 -20.3793 -20.3793 -20.3777 -20.3777 -20.3777 -20.3777
   -20.3672 -20.3672 -20.3672 -20.3672 -20.3661 -20.3661 -20.3661 -20.3661
   -20.3352 -20.3352 -20.3352 -20.3351 -20.3340 -20.3340 -20.3340 -20.3340
   -20.3323 -20.3323 -20.3322 -20.3322 -20.3278 -20.3278 -20.3278 -20.3278
    -9.4894  -9.4894  -9.4894  -9.4894  -8.8456  -8.8456  -8.8456  -8.8456
    -8.7174  -8.7174  -8.7174  -8.7174  -8.5466  -8.5466  -8.5466  -8.5466
    -8.4731  -8.4731  -8.4731  -8.4731  -7.8359  -7.8359  -7.8358  -7.8358
     1.4533   1.4533   1.4533   1.4533   2.8738   2.8738   2.8738   2.8738
     2.9975   2.9976   2.9976   2.9976   3.1464   3.1464   3.1464   3.1464
     3.1824   3.1824   3.1824   3.1824   3.4230   3.4230   3.4230   3.4230
     3.5123   3.5123   3.5123   3.5123   4.1814   4.1814   4.1814   4.1814
     4.2985   4.2985   4.2985   4.2985   5.0932   5.0932   5.0933   5.0933
     5.3922   5.3922   5.3922   5.3922   6.0950   6.0950   6.0950   6.0950
     6.3839   6.3839   6.3839   6.3839   6.5033   6.5033   6.5033   6.5033
     7.1003   7.1003   7.1003   7.1003   7.1805   7.1805   7.1806   7.1806
     7.3094   7.3094   7.3094   7.3094   7.4259   7.4259   7.4259   7.4259
    11.0112  11.0112  11.0112  11.0112  11.2605  11.2605  11.2605  11.2605
    12.0276  12.0276  12.0276  12.0276  12.0757  12.0757  12.0757  12.0757
    12.5889  12.5889  12.5889  12.5889  13.2033  13.2033  13.2033  13.2033
    15.0908  15.0908  15.0908  15.0908  16.5679  16.5679  16.5679  16.5679
    16.9387  16.9387  16.9393  16.9393  17.0683  17.0683

          k = 0.1667 0.0000 0.0000 ( 63227 PWs)   bands (ev):

   -66.2315 -66.2310 -66.2307 -66.2306 -66.2303 -66.2301 -66.2298 -66.2294
   -30.6550 -30.6507 -30.6497 -30.6455 -30.6045 -30.5990 -30.5949 -30.5890
   -30.5571 -30.5560 -30.5527 -30.5496 -30.5213 -30.5185 -30.5129 -30.5125
   -30.4678 -30.4672 -30.4671 -30.4654 -30.4473 -30.4434 -30.4433 -30.4393
   -20.3976 -20.3975 -20.3970 -20.3969 -20.3949 -20.3948 -20.3940 -20.3940
   -20.3871 -20.3868 -20.3867 -20.3863 -20.3859 -20.3859 -20.3856 -20.3852
   -20.3852 -20.3850 -20.3849 -20.3848 -20.3837 -20.3833 -20.3828 -20.3828
   -20.3796 -20.3791 -20.3789 -20.3789 -20.3782 -20.3778 -20.3776 -20.3775
   -20.3673 -20.3672 -20.3671 -20.3670 -20.3664 -20.3662 -20.3661 -20.3660
   -20.3375 -20.3375 -20.3365 -20.3365 -20.3329 -20.3329 -20.3324 -20.3324
   -20.3315 -20.3314 -20.3312 -20.3312 -20.3288 -20.3287 -20.3275 -20.3275
    -9.9838  -9.6656  -9.6391  -9.5229  -9.3441  -9.2272  -9.1269  -9.0539
    -9.0006  -8.9717  -8.9502  -8.8782  -8.0935  -8.0160  -7.9970  -7.9945
    -7.9890  -7.9658  -7.9377  -7.9361  -7.8779  -7.8666  -7.8444  -7.8172
     1.2751   1.2801   1.2856   1.3012   1.4248   1.4631   1.5176   1.5234
     1.6499   1.7209   1.8459   1.9543   2.4603   2.5057   2.5587   2.6054
     2.6376   2.7578   3.9390   4.0834   4.2500   4.2511   4.3729   4.4338
     4.4722   4.6611   4.6999   4.7684   4.7825   4.9392   4.9939   5.2508
     5.2619   5.3295   5.3530   5.3710   5.4143   5.4415   5.4501   5.5420
     5.5502   5.6554   5.6634   5.7053   5.8166   5.8617   5.8947   5.9066
     6.1147   6.2696   6.2763   6.3328   6.5750   6.5812   6.5847   6.6080
     6.6411   6.7316   6.7471   6.7571   6.7936   6.8338   6.9758   7.0059
     7.0703   7.0722   7.6006   7.6083   7.7712   7.8290   7.8959   7.9436
     9.6677   9.7011   9.9159   9.9498  10.1164  10.1898  11.9093  12.0428
    12.0724  12.1189  12.1516  12.2626  12.3384  12.3510  12.4695  12.5849
    12.8597  12.9061  13.0165  13.1205  13.3868  13.4817  13.8177  13.8247
    14.0372  14.1578  14.3694  14.6923  15.1082  15.1153  15.1390  15.6273
    15.8932  16.3264  16.4901  16.7714  17.2606  17.4775

          k = 0.1667 0.0000 0.1669 ( 63236 PWs)   bands (ev):

   -66.2314 -66.2310 -66.2306 -66.2306 -66.2302 -66.2302 -66.2299 -66.2295
   -30.6547 -30.6503 -30.6500 -30.6459 -30.6034 -30.5978 -30.5954 -30.5895
   -30.5514 -30.5512 -30.5470 -30.5447 -30.5207 -30.5189 -30.5131 -30.5123
   -30.4739 -30.4732 -30.4724 -30.4711 -30.4471 -30.4437 -30.4431 -30.4396
   -20.3976 -20.3974 -20.3971 -20.3970 -20.3949 -20.3948 -20.3941 -20.3940
   -20.3870 -20.3869 -20.3867 -20.3863 -20.3859 -20.3858 -20.3855 -20.3852
   -20.3851 -20.3849 -20.3849 -20.3847 -20.3839 -20.3834 -20.3830 -20.3829
   -20.3795 -20.3791 -20.3790 -20.3789 -20.3782 -20.3778 -20.3776 -20.3775
   -20.3673 -20.3672 -20.3671 -20.3670 -20.3664 -20.3662 -20.3662 -20.3660
   -20.3372 -20.3372 -20.3362 -20.3362 -20.3331 -20.3330 -20.3325 -20.3324
   -20.3319 -20.3319 -20.3313 -20.3313 -20.3287 -20.3286 -20.3276 -20.3276
    -9.9356  -9.6033  -9.5836  -9.5398  -9.2605  -9.2364  -9.1428  -9.0154
    -8.9733  -8.9479  -8.9392  -8.8839  -8.1103  -8.0811  -8.0366  -8.0147
    -7.9947  -7.9901  -7.9848  -7.9605  -7.9393  -7.9354  -7.8818  -7.8672
     1.3883   1.4253   1.4510   1.4990   1.5126   1.5166   1.5301   1.6160
     1.6564   1.7250   1.8864   2.0038   2.5472   2.5887   2.6137   2.6525
     2.7162   2.7635   3.9376   4.0018   4.2378   4.2559   4.3716   4.4098
     4.4187   4.4645   4.5346   4.5474   4.6703   4.7475   4.9828   5.1124
     5.1277   5.1823   5.2287   5.3283   5.3871   5.4208   5.4552   5.5315
     5.5533   5.5638   5.5778   5.6045   5.6635   5.8238   6.0549   6.1328
     6.2204   6.3310   6.4285   6.4716   6.5046   6.5165   6.5366   6.5816
     6.5970   6.6336   6.7089   6.7299   6.7590   6.8056   6.8085   6.9187
     7.1043   7.1565   7.6103   7.6121   7.7841   7.8329   7.8637   7.9010
     9.8484   9.9046  10.1213  10.1477  10.1760  10.2729  11.9578  12.0218
    12.0816  12.0925  12.1564  12.2185  12.3933  12.4145  12.4671  12.5953
    12.7775  12.9182  12.9218  13.0560  13.4287  13.4756  13.6884  13.7182
    14.0744  14.2622  14.3627  14.8077  15.1102  15.1629  15.1796  15.8622
    15.9036  16.4953  16.5050  16.6629  17.3076  17.4166

          k = 0.1667 0.0000 0.3338 ( 63193 PWs)   bands (ev):

   -66.2312 -66.2308 -66.2308 -66.2305 -66.2304 -66.2301 -66.2300 -66.2296
   -30.6536 -30.6510 -30.6494 -30.6468 -30.6009 -30.5966 -30.5952 -30.5907
   -30.5378 -30.5365 -30.5316 -30.5308 -30.5201 -30.5187 -30.5151 -30.5101
   -30.4898 -30.4894 -30.4869 -30.4867 -30.4464 -30.4444 -30.4424 -30.4404
   -20.3975 -20.3974 -20.3972 -20.3971 -20.3947 -20.3946 -20.3943 -20.3942
   -20.3870 -20.3869 -20.3865 -20.3863 -20.3858 -20.3858 -20.3852 -20.3850
   -20.3850 -20.3847 -20.3845 -20.3844 -20.3842 -20.3837 -20.3834 -20.3833
   -20.3795 -20.3792 -20.3790 -20.3789 -20.3781 -20.3779 -20.3776 -20.3775
   -20.3673 -20.3671 -20.3671 -20.3670 -20.3664 -20.3662 -20.3662 -20.3660
   -20.3363 -20.3363 -20.3353 -20.3353 -20.3339 -20.3339 -20.3328 -20.3328
   -20.3323 -20.3323 -20.3316 -20.3316 -20.3284 -20.3284 -20.3278 -20.3278
    -9.8168  -9.5930  -9.4533  -9.4486  -9.2676  -9.1936  -9.0232  -8.9360
    -8.8992  -8.8860  -8.8729  -8.8274  -8.3486  -8.3474  -8.2797  -8.2562
    -8.0485  -8.0211  -7.9700  -7.9654  -7.9626  -7.9479  -7.9051  -7.8940
     1.4089   1.4367   1.4752   1.5024   1.6697   1.6897   1.7264   1.7360
     2.1860   2.2241   2.3360   2.4179   2.6358   2.7194   2.7947   2.8312
     2.9244   2.9832   3.6880   3.7935   3.8094   3.8813   4.0328   4.1667
     4.2336   4.3467   4.4009   4.4043   4.5248   4.6528   4.6757   4.7543
     4.8725   4.9533   4.9610   5.0763   5.1576   5.2049   5.4512   5.4768
     5.5535   5.5816   5.6274   5.6669   5.6800   5.8313   5.9271   5.9828
     6.2458   6.2552   6.3280   6.3761   6.3768   6.5121   6.5498   6.5831
     6.5910   6.7259   6.7347   6.7403   6.9399   6.9436   7.0572   7.0578
     7.1317   7.1794   7.5801   7.5943   7.7101   7.7665   7.8272   7.8355
    10.0815  10.0951  10.4472  10.5474  10.7329  10.8563  11.7021  11.7757
    11.9524  12.0962  12.2100  12.2381  12.3027  12.4277  12.4780  12.5905
    12.6443  12.8178  12.8210  12.9930  13.3649  13.3813  13.4770  13.5208
    14.1953  14.3416  14.5448  15.0141  15.0875  15.3626  15.5798  15.7809
    16.0102  16.6954  16.9854  17.0782  17.1512  17.4396

          k = 0.1667 0.0000-0.5008 ( 63226 PWs)   bands (ev):

   -66.2310 -66.2310 -66.2306 -66.2306 -66.2303 -66.2303 -66.2298 -66.2298
   -30.6523 -30.6523 -30.6481 -30.6481 -30.5985 -30.5985 -30.5927 -30.5927
   -30.5237 -30.5237 -30.5223 -30.5223 -30.5109 -30.5109 -30.5106 -30.5106
   -30.5071 -30.5071 -30.5030 -30.5030 -30.4454 -30.4454 -30.4414 -30.4414
   -20.3973 -20.3973 -20.3972 -20.3972 -20.3945 -20.3945 -20.3944 -20.3944
   -20.3869 -20.3869 -20.3864 -20.3864 -20.3858 -20.3858 -20.3850 -20.3850
   -20.3847 -20.3847 -20.3843 -20.3843 -20.3839 -20.3839 -20.3838 -20.3838
   -20.3793 -20.3793 -20.3790 -20.3790 -20.3780 -20.3780 -20.3775 -20.3775
   -20.3672 -20.3672 -20.3670 -20.3670 -20.3663 -20.3663 -20.3661 -20.3661
   -20.3351 -20.3351 -20.3351 -20.3351 -20.3341 -20.3341 -20.3341 -20.3341
   -20.3320 -20.3320 -20.3320 -20.3319 -20.3281 -20.3281 -20.3281 -20.3281
    -9.6877  -9.6877  -9.3346  -9.3346  -9.2919  -9.2919  -8.9178  -8.9178
    -8.6932  -8.6932  -8.6652  -8.6652  -8.6287  -8.6287  -8.5780  -8.5780
    -8.0355  -8.0355  -7.9594  -7.9594  -7.9395  -7.9395  -7.9248  -7.9248
     1.4207   1.4207   1.4884   1.4884   1.6901   1.6901   1.7489   1.7489
     2.6567   2.6567   2.9135   2.9135   2.9893   2.9893   3.0790   3.0790
     3.1857   3.1858   3.3274   3.3274   3.4813   3.4813   3.6713   3.6713
     3.7358   3.7358   4.3112   4.3112   4.4489   4.4489   4.7872   4.7872
     4.8958   4.8958   4.9503   4.9503   5.1072   5.1072   5.4983   5.4983
     5.6067   5.6067   5.6451   5.6451   5.7245   5.7245   5.8109   5.8109
     6.1656   6.1656   6.2830   6.2830   6.4773   6.4773   6.5615   6.5615
     6.7011   6.7011   6.7861   6.7861   6.8406   6.8406   7.3748   7.3748
     7.4181   7.4181   7.4678   7.4678   7.5283   7.5283   7.8338   7.8338
    10.1047  10.1047  11.0992  11.0992  11.2060  11.2060  11.4025  11.4025
    11.5854  11.5854  12.2371  12.2371  12.4671  12.4671  12.5228  12.5228
    12.6600  12.6600  13.0002  13.0002  13.0834  13.0834  13.4861  13.4861
    14.2949  14.2949  14.8293  14.8293  15.4886  15.4886  15.6065  15.6065
    16.3577  16.3577  17.4815  17.4815  17.6005  17.6005

          k = 0.1667 0.1594 0.0000 ( 63210 PWs)   bands (ev):

   -66.2314 -66.2311 -66.2307 -66.2305 -66.2303 -66.2302 -66.2298 -66.2294
   -30.6514 -30.6470 -30.6459 -30.6417 -30.6075 -30.6020 -30.5985 -30.5928
   -30.5572 -30.5563 -30.5527 -30.5502 -30.5209 -30.5182 -30.5136 -30.5130
   -30.4678 -30.4672 -30.4671 -30.4656 -30.4471 -30.4436 -30.4431 -30.4396
   -20.3974 -20.3972 -20.3968 -20.3967 -20.3950 -20.3949 -20.3942 -20.3941
   -20.3870 -20.3868 -20.3866 -20.3862 -20.3860 -20.3859 -20.3856 -20.3852
   -20.3852 -20.3852 -20.3849 -20.3849 -20.3837 -20.3832 -20.3829 -20.3828
   -20.3796 -20.3792 -20.3790 -20.3789 -20.3782 -20.3778 -20.3777 -20.3775
   -20.3673 -20.3672 -20.3671 -20.3670 -20.3664 -20.3663 -20.3661 -20.3660
   -20.3375 -20.3375 -20.3365 -20.3365 -20.3329 -20.3329 -20.3324 -20.3324
   -20.3315 -20.3314 -20.3312 -20.3312 -20.3288 -20.3287 -20.3275 -20.3275
    -9.9513  -9.6782  -9.6016  -9.4739  -9.3523  -9.1558  -9.1363  -9.0415
    -9.0021  -8.9365  -8.9208  -8.8540  -8.1564  -8.0939  -8.0841  -8.0412
    -8.0163  -8.0028  -7.9660  -7.9420  -7.8831  -7.8653  -7.8429  -7.8207
     1.2804   1.2815   1.3019   1.3020   1.5828   1.5884   1.6490   1.7247
     1.7414   1.8218   1.8480   2.0265   2.4714   2.5521   2.5782   2.6783
     2.7124   2.8245   3.8322   3.9391   4.0283   4.1567   4.2754   4.3691
     4.4505   4.5948   4.7350   4.7403   4.7915   4.8443   4.8777   5.0885
     5.1440   5.2405   5.2629   5.3566   5.3750   5.4022   5.4686   5.5550
     5.5952   5.6332   5.6747   5.7044   5.7442   5.8714   5.8967   5.9112
     6.0789   6.2300   6.2840   6.3636   6.5411   6.5761   6.6243   6.6355
     6.6701   6.7212   6.7310   6.8058   6.8117   6.8352   6.9791   7.0048
     7.0701   7.0771   7.5993   7.6075   7.7504   7.7846   7.8437   7.8657
     9.6804   9.7069  10.0850  10.0923  10.2812  10.3317  11.8439  12.0509
    12.0613  12.0934  12.1415  12.1652  12.2036  12.3260  12.3814  12.5735
    12.8600  12.9201  13.0312  13.0984  13.4482  13.4541  13.7263  13.7327
    14.1906  14.4181  14.5689  14.8397  15.1101  15.1107  15.5106  15.6196
    15.8599  16.2421  16.4582  16.8788  17.2601  17.3884

          k = 0.1667 0.1594 0.1669 ( 63216 PWs)   bands (ev):

   -66.2314 -66.2310 -66.2306 -66.2306 -66.2302 -66.2302 -66.2299 -66.2295
   -30.6510 -30.6466 -30.6463 -30.6421 -30.6065 -30.6010 -30.5989 -30.5932
   -30.5515 -30.5514 -30.5470 -30.5452 -30.5203 -30.5186 -30.5135 -30.5131
   -30.4739 -30.4733 -30.4724 -30.4712 -30.4468 -30.4434 -30.4434 -30.4399
   -20.3974 -20.3972 -20.3968 -20.3967 -20.3950 -20.3949 -20.3943 -20.3942
   -20.3870 -20.3868 -20.3866 -20.3862 -20.3859 -20.3859 -20.3855 -20.3852
   -20.3852 -20.3850 -20.3848 -20.3848 -20.3838 -20.3834 -20.3830 -20.3830
   -20.3795 -20.3792 -20.3790 -20.3789 -20.3781 -20.3778 -20.3777 -20.3775
   -20.3673 -20.3672 -20.3671 -20.3670 -20.3664 -20.3662 -20.3662 -20.3660
   -20.3372 -20.3372 -20.3362 -20.3362 -20.3331 -20.3330 -20.3325 -20.3325
   -20.3319 -20.3319 -20.3313 -20.3313 -20.3287 -20.3287 -20.3276 -20.3276
    -9.9014  -9.6161  -9.5420  -9.4913  -9.2688  -9.1652  -9.1524  -9.0042
    -8.9745  -8.9178  -8.9092  -8.8592  -8.1629  -8.1011  -8.0899  -8.0792
    -8.0503  -8.0421  -8.0025  -7.9908  -7.9622  -7.9393  -7.8867  -7.8681
     1.4856   1.4959   1.5093   1.5303   1.5848   1.5898   1.6551   1.7206
     1.7657   1.8220   1.8872   2.0655   2.5603   2.6457   2.6633   2.6873
     2.7909   2.8272   3.8417   3.9250   4.0286   4.1306   4.3026   4.3818
     4.4153   4.4383   4.5012   4.5646   4.5991   4.6875   4.8380   5.0118
     5.0746   5.0961   5.1785   5.2161   5.2617   5.3522   5.3818   5.4290
     5.5514   5.5913   5.6336   5.6607   5.6723   5.7260   6.0482   6.1285
     6.2127   6.2498   6.4267   6.4681   6.5101   6.5476   6.5958   6.6130
     6.6404   6.6602   6.7304   6.7471   6.7856   6.8039   6.8472   6.9297
     7.1107   7.1545   7.6084   7.6118   7.7513   7.7893   7.8151   7.8285
     9.8784   9.9250  10.2604  10.2865  10.3177  10.3954  11.9043  12.0104
    12.0781  12.0946  12.1190  12.1546  12.2777  12.3176  12.4255  12.5922
    12.7774  12.8997  12.9262  13.0453  13.4409  13.4634  13.5928  13.6334
    14.2637  14.5372  14.5726  14.9381  15.1629  15.1782  15.4979  15.8298
    15.8808  16.3811  16.6061  16.6370  17.3080  17.4627

          k = 0.1667 0.1594 0.3338 ( 63205 PWs)   bands (ev):

   -66.2312 -66.2308 -66.2308 -66.2305 -66.2304 -66.2301 -66.2300 -66.2296
   -30.6500 -30.6472 -30.6457 -30.6430 -30.6042 -30.6001 -30.5987 -30.5944
   -30.5378 -30.5366 -30.5316 -30.5310 -30.5198 -30.5183 -30.5154 -30.5109
   -30.4898 -30.4895 -30.4871 -30.4868 -30.4461 -30.4442 -30.4427 -30.4407
   -20.3973 -20.3971 -20.3970 -20.3969 -20.3949 -20.3948 -20.3944 -20.3944
   -20.3869 -20.3868 -20.3865 -20.3863 -20.3859 -20.3859 -20.3852 -20.3851
   -20.3851 -20.3847 -20.3845 -20.3845 -20.3841 -20.3837 -20.3834 -20.3834
   -20.3794 -20.3792 -20.3791 -20.3790 -20.3781 -20.3779 -20.3776 -20.3776
   -20.3673 -20.3671 -20.3671 -20.3670 -20.3663 -20.3662 -20.3662 -20.3661
   -20.3363 -20.3363 -20.3353 -20.3353 -20.3339 -20.3339 -20.3328 -20.3328
   -20.3323 -20.3323 -20.3316 -20.3316 -20.3285 -20.3284 -20.3278 -20.3278
    -9.7781  -9.5460  -9.4618  -9.3994  -9.2050  -9.1964  -9.0320  -8.9083
    -8.8785  -8.8761  -8.8707  -8.8088  -8.3555  -8.3455  -8.2960  -8.2541
    -8.1182  -8.0993  -8.0659  -8.0397  -7.9795  -7.9620  -7.9121  -7.8942
     1.5819   1.5880   1.6587   1.6702   1.6979   1.7075   1.7880   1.8258
     2.1853   2.2311   2.3371   2.4310   2.7079   2.7795   2.8278   2.9022
     2.9202   3.0376   3.6972   3.7459   3.8198   3.8715   4.0220   4.0901
     4.1459   4.2963   4.3240   4.3950   4.4488   4.5694   4.6141   4.6904
     4.7255   4.8206   4.8667   4.9825   5.0587   5.1128   5.2349   5.4375
     5.4403   5.5018   5.6108   5.6359   5.6798   5.7008   5.9264   5.9764
     6.2044   6.3610   6.3779   6.4549   6.5034   6.5220   6.5585   6.6382
     6.6532   6.7174   6.7679   6.8136   6.9365   6.9490   7.0521   7.0643
     7.1326   7.1723   7.5807   7.5915   7.6695   7.7108   7.7837   7.7920
    10.2304  10.2447  10.4754  10.5620  10.8321  10.9292  11.7036  11.7718
    11.9525  12.0842  12.2164  12.2450  12.2795  12.3202  12.4517  12.5084
    12.5264  12.7705  12.8143  12.9811  13.2647  13.2921  13.4676  13.4897
    14.4191  14.5443  14.8788  15.1860  15.3510  15.4052  15.6000  15.7564
    16.1220  16.6678  16.8328  17.0498  17.1482  17.4802

          k = 0.1667 0.1594-0.5008 ( 63204 PWs)   bands (ev):

   -66.2310 -66.2310 -66.2306 -66.2306 -66.2302 -66.2302 -66.2299 -66.2299
   -30.6486 -30.6486 -30.6443 -30.6443 -30.6019 -30.6019 -30.5963 -30.5963
   -30.5235 -30.5235 -30.5224 -30.5224 -30.5109 -30.5109 -30.5107 -30.5107
   -30.5070 -30.5070 -30.5035 -30.5035 -30.4452 -30.4452 -30.4417 -30.4417
   -20.3971 -20.3971 -20.3970 -20.3970 -20.3947 -20.3947 -20.3946 -20.3946
   -20.3869 -20.3869 -20.3864 -20.3863 -20.3859 -20.3859 -20.3851 -20.3851
   -20.3847 -20.3847 -20.3843 -20.3843 -20.3840 -20.3840 -20.3839 -20.3839
   -20.3793 -20.3793 -20.3790 -20.3790 -20.3780 -20.3780 -20.3776 -20.3776
   -20.3672 -20.3672 -20.3671 -20.3671 -20.3663 -20.3663 -20.3661 -20.3661
   -20.3351 -20.3351 -20.3351 -20.3351 -20.3341 -20.3341 -20.3341 -20.3341
   -20.3320 -20.3320 -20.3320 -20.3319 -20.3281 -20.3281 -20.3281 -20.3281
    -9.6439  -9.6439  -9.3044  -9.3044  -9.2682  -9.2682  -8.8907  -8.8907
    -8.6994  -8.6994  -8.6656  -8.6656  -8.6300  -8.6300  -8.5727  -8.5727
    -8.1120  -8.1120  -8.0554  -8.0554  -7.9462  -7.9462  -7.9273  -7.9273
     1.5856   1.5856   1.6727   1.6727   1.7063   1.7063   1.8279   1.8279
     2.7224   2.7224   2.9311   2.9311   3.0056   3.0056   3.0896   3.0897
     3.1854   3.1854   3.3449   3.3449   3.4733   3.4733   3.6865   3.6865
     3.7871   3.7871   4.2320   4.2320   4.3057   4.3057   4.6023   4.6023
     4.7753   4.7753   4.9097   4.9097   4.9879   4.9879   5.3342   5.3342
     5.5184   5.5184   5.5789   5.5789   5.7020   5.7020   5.7364   5.7364
     6.3002   6.3002   6.4339   6.4339   6.4883   6.4883   6.5903   6.5903
     6.7512   6.7512   6.7740   6.7740   6.8751   6.8751   7.3724   7.3725
     7.4144   7.4144   7.4441   7.4441   7.4999   7.4999   7.7887   7.7887
    10.2670  10.2670  11.1076  11.1076  11.2060  11.2060  11.4656  11.4656
    11.6356  11.6356  12.2517  12.2517  12.3475  12.3475  12.4788  12.4788
    12.6363  12.6363  12.8909  12.8909  13.0180  13.0180  13.4628  13.4628
    14.5075  14.5075  15.1906  15.1906  15.5516  15.5516  15.6388  15.6388
    16.3969  16.3969  17.3283  17.3283  17.5906  17.5906

          k = 0.1667 0.3187 0.0000 ( 63203 PWs)   bands (ev):

   -66.2314 -66.2311 -66.2306 -66.2305 -66.2304 -66.2303 -66.2297 -66.2295
   -30.6416 -30.6370 -30.6357 -30.6314 -30.6160 -30.6108 -30.6083 -30.6031
   -30.5573 -30.5569 -30.5527 -30.5514 -30.5197 -30.5174 -30.5153 -30.5142
   -30.4678 -30.4674 -30.4668 -30.4659 -30.4464 -30.4444 -30.4424 -30.4404
   -20.3968 -20.3967 -20.3962 -20.3961 -20.3955 -20.3953 -20.3947 -20.3946
   -20.3868 -20.3867 -20.3863 -20.3862 -20.3861 -20.3860 -20.3855 -20.3855
   -20.3854 -20.3852 -20.3851 -20.3850 -20.3835 -20.3832 -20.3831 -20.3829
   -20.3795 -20.3793 -20.3790 -20.3790 -20.3781 -20.3778 -20.3777 -20.3776
   -20.3673 -20.3672 -20.3671 -20.3670 -20.3664 -20.3663 -20.3661 -20.3660
   -20.3375 -20.3375 -20.3365 -20.3365 -20.3329 -20.3329 -20.3324 -20.3324
   -20.3315 -20.3314 -20.3312 -20.3312 -20.3288 -20.3287 -20.3275 -20.3275
    -9.8718  -9.7171  -9.5149  -9.3793  -9.3553  -9.1694  -9.0242  -9.0064
    -8.9531  -8.8173  -8.8070  -8.7651  -8.3705  -8.3240  -8.3158  -8.2998
    -8.0233  -8.0098  -7.9619  -7.9483  -7.8822  -7.8694  -7.8387  -7.8266
     1.2813   1.2836   1.3028   1.3052   1.6392   1.6476   1.7984   1.8401
     2.2370   2.3475   2.3901   2.4887   2.5241   2.5353   2.8151   2.8881
     2.9462   3.0201   3.4957   3.5049   3.6887   3.7129   3.9591   4.2372
     4.3415   4.3416   4.4431   4.5564   4.6505   4.7042   4.8156   4.8228
     4.9279   4.9287   5.1590   5.2172   5.2579   5.3640   5.4412   5.4820
     5.5583   5.6051   5.6476   5.6979   5.8612   5.8681   5.9055   5.9125
     6.0897   6.2026   6.2755   6.3901   6.4500   6.6462   6.7077   6.7502
     6.7842   6.7952   6.8847   6.9129   6.9167   6.9398   7.0159   7.0193
     7.0835   7.1102   7.5601   7.5880   7.6318   7.6458   7.6526   7.6679
     9.6981   9.7110  10.4993  10.5420  10.7180  10.7307  11.5524  11.7415
    11.7935  11.8646  12.0675  12.0796  12.1602  12.1896  12.4490  12.5505
    12.9040  12.9697  13.1031  13.1297  13.2881  13.3261  13.5077  13.5134
    14.6770  14.9365  15.0150  15.1005  15.1585  15.4011  15.5109  15.7428
    15.7521  16.4807  16.8655  16.9775  17.3088  17.6657

          k = 0.1667 0.3187 0.1669 ( 63199 PWs)   bands (ev):

   -66.2313 -66.2311 -66.2305 -66.2305 -66.2303 -66.2303 -66.2298 -66.2296
   -30.6411 -30.6366 -30.6361 -30.6317 -30.6152 -30.6101 -30.6087 -30.6035
   -30.5517 -30.5517 -30.5470 -30.5462 -30.5192 -30.5177 -30.5148 -30.5147
   -30.4739 -30.4735 -30.4723 -30.4715 -30.4462 -30.4442 -30.4427 -30.4407
   -20.3968 -20.3967 -20.3962 -20.3961 -20.3954 -20.3953 -20.3947 -20.3947
   -20.3868 -20.3867 -20.3863 -20.3862 -20.3861 -20.3860 -20.3855 -20.3854
   -20.3854 -20.3851 -20.3850 -20.3850 -20.3837 -20.3833 -20.3832 -20.3831
   -20.3795 -20.3793 -20.3790 -20.3790 -20.3781 -20.3778 -20.3778 -20.3776
   -20.3673 -20.3672 -20.3671 -20.3670 -20.3664 -20.3663 -20.3661 -20.3660
   -20.3372 -20.3372 -20.3362 -20.3362 -20.3331 -20.3331 -20.3325 -20.3325
   -20.3319 -20.3319 -20.3313 -20.3313 -20.3287 -20.3287 -20.3276 -20.3276
    -9.8177  -9.6561  -9.4450  -9.3736  -9.2966  -9.1866  -8.9916  -8.9791
    -8.9614  -8.8033  -8.8006  -8.7695  -8.3732  -8.3258  -8.3182  -8.3052
    -8.0758  -8.0637  -8.0047  -7.9953  -7.9596  -7.9476  -7.8858  -7.8729
     1.4929   1.4987   1.5279   1.5324   1.6448   1.6535   1.8294   1.8813
     2.2422   2.3457   2.3784   2.5078   2.5858   2.6334   2.8998   2.9042
     3.0151   3.0263   3.5110   3.5639   3.6894   3.7069   3.9453   4.2581
     4.3144   4.3582   4.4012   4.4718   4.4963   4.5789   4.6386   4.7122
     4.7661   4.8216   5.0025   5.0259   5.2280   5.2320   5.2574   5.2885
     5.4938   5.5236   5.5431   5.5797   5.6520   5.6699   6.0829   6.1177
     6.2515   6.3120   6.4120   6.4545   6.5933   6.6449   6.6709   6.6983
     6.7422   6.7668   6.8270   6.8534   6.9028   6.9320   6.9750   6.9947
     7.1448   7.1587   7.5673   7.5843   7.6154   7.6323   7.6534   7.6586
     9.9148   9.9357  10.6557  10.6757  10.7304  10.7748  11.6380  11.7646
    11.8333  11.8633  12.0920  12.1082  12.1218  12.1420  12.5008  12.5833
    12.8435  12.9361  12.9559  13.0530  13.2540  13.3359  13.3617  13.4370
    14.7905  15.0275  15.1320  15.1693  15.1913  15.4652  15.7261  15.7807
    15.8924  16.4497  16.9364  17.0118  17.0606  17.5958

          k = 0.1667 0.3187 0.3338 ( 63189 PWs)   bands (ev):

   -66.2311 -66.2309 -66.2307 -66.2305 -66.2304 -66.2302 -66.2299 -66.2297
   -30.6400 -30.6371 -30.6355 -30.6327 -30.6134 -30.6098 -30.6083 -30.6046
   -30.5377 -30.5370 -30.5317 -30.5315 -30.5190 -30.5176 -30.5159 -30.5127
   -30.4899 -30.4897 -30.4872 -30.4870 -30.4455 -30.4435 -30.4435 -30.4415
   -20.3967 -20.3966 -20.3964 -20.3963 -20.3953 -20.3952 -20.3949 -20.3948
   -20.3867 -20.3867 -20.3862 -20.3862 -20.3861 -20.3861 -20.3854 -20.3854
   -20.3850 -20.3847 -20.3846 -20.3846 -20.3840 -20.3837 -20.3836 -20.3835
   -20.3794 -20.3792 -20.3791 -20.3791 -20.3780 -20.3778 -20.3778 -20.3777
   -20.3672 -20.3671 -20.3671 -20.3670 -20.3663 -20.3662 -20.3662 -20.3661
   -20.3363 -20.3363 -20.3353 -20.3353 -20.3339 -20.3339 -20.3328 -20.3328
   -20.3323 -20.3323 -20.3316 -20.3316 -20.3284 -20.3284 -20.3278 -20.3278
    -9.6829  -9.5039  -9.4314  -9.2664  -9.2410  -9.0634  -8.9976  -8.8882
    -8.8771  -8.7842  -8.7799  -8.7362  -8.4331  -8.3914  -8.3404  -8.3243
    -8.3078  -8.2681  -8.2466  -8.1905  -7.9811  -7.9678  -7.9121  -7.8991
     1.6556   1.6666   1.6796   1.6874   2.1050   2.1785   2.1858   2.2642
     2.3360   2.3734   2.3917   2.5802   2.8442   2.8920   2.9287   3.0052
     3.1313   3.2260   3.5369   3.5952   3.6705   3.6975   3.8262   3.8817
     3.9736   4.1643   4.2002   4.2561   4.2866   4.3977   4.4509   4.5534
     4.5813   4.6631   4.7111   4.7496   4.8106   4.8951   5.0037   5.0367
     5.1831   5.2036   5.3096   5.4942   5.6135   5.6776   5.9585   5.9764
     6.3798   6.4555   6.4699   6.5648   6.6496   6.6780   6.7568   6.7923
     6.8301   6.8480   6.8737   6.9162   6.9710   7.0268   7.0574   7.0846
     7.1395   7.1674   7.5220   7.5335   7.5704   7.5928   7.6259   7.6488
    10.4396  10.4663  10.7247  10.7696  11.1166  11.1782  11.6692  11.7391
    11.8235  11.9150  11.9399  12.0225  12.2401  12.3312  12.3600  12.4433
    12.5154  12.7282  12.7724  12.9906  13.0147  13.1090  13.3087  13.3337
    14.9253  15.0294  15.3181  15.5595  15.6289  15.7019  15.7362  16.3304
    16.3707  16.4738  16.6033  17.1632  17.2626  17.3155

          k = 0.1667 0.3187-0.5008 ( 63198 PWs)   bands (ev):

   -66.2309 -66.2309 -66.2307 -66.2307 -66.2302 -66.2302 -66.2299 -66.2299
   -30.6385 -30.6385 -30.6341 -30.6341 -30.6115 -30.6115 -30.6063 -30.6063
   -30.5232 -30.5232 -30.5225 -30.5225 -30.5110 -30.5110 -30.5109 -30.5109
   -30.5068 -30.5067 -30.5048 -30.5048 -30.4445 -30.4445 -30.4425 -30.4425
   -20.3965 -20.3965 -20.3964 -20.3964 -20.3951 -20.3951 -20.3950 -20.3950
   -20.3867 -20.3867 -20.3862 -20.3862 -20.3861 -20.3861 -20.3854 -20.3854
   -20.3845 -20.3845 -20.3842 -20.3842 -20.3841 -20.3841 -20.3840 -20.3840
   -20.3793 -20.3793 -20.3791 -20.3791 -20.3779 -20.3779 -20.3777 -20.3777
   -20.3672 -20.3672 -20.3671 -20.3671 -20.3662 -20.3662 -20.3661 -20.3661
   -20.3351 -20.3351 -20.3351 -20.3351 -20.3341 -20.3341 -20.3341 -20.3341
   -20.3320 -20.3320 -20.3320 -20.3320 -20.3281 -20.3281 -20.3281 -20.3281
    -9.5364  -9.5364  -9.3451  -9.3451  -9.0874  -9.0874  -8.8047  -8.8047
    -8.7327  -8.7327  -8.6700  -8.6700  -8.6248  -8.6247  -8.5507  -8.5507
    -8.3203  -8.3203  -8.2800  -8.2800  -7.9464  -7.9464  -7.9330  -7.9330
     1.6753   1.6753   1.6870   1.6871   2.2517   2.2517   2.3663   2.3663
     2.8864   2.8864   2.9825   2.9825   3.0242   3.0243   3.1316   3.1316
     3.1890   3.1890   3.3966   3.3967   3.4389   3.4389   3.6517   3.6517
     3.9034   3.9034   3.9448   3.9448   3.9971   3.9971   4.1994   4.1994
     4.6235   4.6235   4.7170   4.7170   4.8591   4.8591   4.9266   4.9267
     5.0240   5.0240   5.3968   5.3968   5.7118   5.7118   5.7417   5.7417
     6.4943   6.4943   6.5954   6.5954   6.6530   6.6530   6.7061   6.7061
     6.8648   6.8648   6.9002   6.9002   7.0133   7.0134   7.3385   7.3386
     7.3561   7.3562   7.4045   7.4045   7.4386   7.4386   7.6291   7.6291
    10.6875  10.6875  11.1242  11.1242  11.2129  11.2129  11.6204  11.6204
    11.7979  11.7979  11.9908  11.9908  12.2619  12.2619  12.3368  12.3368
    12.5570  12.5570  12.6550  12.6550  12.9705  12.9705  13.2932  13.2932
    14.9919  14.9919  15.4878  15.4878  16.0108  16.0108  16.1119  16.1119
    16.5369  16.5369  16.9895  16.9895  17.4810  17.4810

          k = 0.1667-0.4781 0.0000 ( 63224 PWs)   bands (ev):

   -66.2312 -66.2312 -66.2305 -66.2305 -66.2304 -66.2304 -66.2296 -66.2296
   -30.6285 -30.6285 -30.6237 -30.6237 -30.6219 -30.6219 -30.6172 -30.6172
   -30.5573 -30.5573 -30.5523 -30.5523 -30.5180 -30.5180 -30.5156 -30.5156
   -30.4676 -30.4676 -30.4664 -30.4664 -30.4455 -30.4454 -30.4415 -30.4414
   -20.3961 -20.3961 -20.3960 -20.3960 -20.3954 -20.3954 -20.3953 -20.3953
   -20.3865 -20.3865 -20.3864 -20.3864 -20.3859 -20.3859 -20.3858 -20.3858
   -20.3854 -20.3854 -20.3851 -20.3851 -20.3833 -20.3833 -20.3830 -20.3830
   -20.3794 -20.3794 -20.3790 -20.3790 -20.3780 -20.3780 -20.3777 -20.3777
   -20.3673 -20.3673 -20.3670 -20.3670 -20.3663 -20.3663 -20.3661 -20.3661
   -20.3375 -20.3375 -20.3365 -20.3365 -20.3329 -20.3329 -20.3324 -20.3324
   -20.3315 -20.3314 -20.3312 -20.3312 -20.3288 -20.3287 -20.3275 -20.3275
    -9.7841  -9.7841  -9.4321  -9.4321  -9.2391  -9.2391  -9.0134  -9.0134
    -8.6638  -8.6637  -8.6048  -8.6048  -8.5865  -8.5865  -8.5764  -8.5764
    -8.0177  -8.0177  -7.9553  -7.9553  -7.8762  -7.8762  -7.8329  -7.8329
     1.2827   1.2827   1.3041   1.3041   1.6464   1.6464   1.8322   1.8322
     2.5118   2.5118   2.9270   2.9270   3.0395   3.0395   3.1184   3.1185
     3.2185   3.2185   3.2301   3.2301   3.4298   3.4298   3.5278   3.5278
     3.6048   3.6048   4.3667   4.3667   4.6733   4.6733   4.9488   4.9488
     5.0150   5.0150   5.1038   5.1038   5.1921   5.1922   5.3965   5.3965
     5.5773   5.5773   5.6150   5.6150   5.8844   5.8844   5.9183   5.9183
     6.2244   6.2244   6.2420   6.2420   6.5330   6.5330   6.7540   6.7540
     6.8286   6.8286   6.9643   6.9643   7.0455   7.0455   7.2752   7.2752
     7.2859   7.2859   7.3522   7.3522   7.3661   7.3662   7.6179   7.6179
     9.7081   9.7081  11.0452  11.0452  11.1125  11.1125  11.2718  11.2718
    11.3466  11.3466  12.0772  12.0772  12.1733  12.1733  12.5170  12.5170
    13.0228  13.0228  13.1377  13.1377  13.2701  13.2701  13.2905  13.2905
    15.0896  15.0896  15.1955  15.1955  15.3192  15.3192  15.5123  15.5123
    16.2620  16.2620  17.4878  17.4878  17.6981  17.6981

          k = 0.1667-0.4781 0.1669 ( 63190 PWs)   bands (ev):

   -66.2312 -66.2312 -66.2304 -66.2304 -66.2304 -66.2304 -66.2297 -66.2297
   -30.6279 -30.6279 -30.6231 -30.6231 -30.6223 -30.6223 -30.6176 -30.6176
   -30.5518 -30.5518 -30.5468 -30.5468 -30.5176 -30.5175 -30.5159 -30.5159
   -30.4737 -30.4737 -30.4719 -30.4719 -30.4452 -30.4452 -30.4418 -30.4417
   -20.3961 -20.3961 -20.3959 -20.3959 -20.3955 -20.3954 -20.3954 -20.3953
   -20.3865 -20.3865 -20.3864 -20.3864 -20.3859 -20.3859 -20.3858 -20.3858
   -20.3852 -20.3852 -20.3850 -20.3850 -20.3834 -20.3834 -20.3832 -20.3832
   -20.3794 -20.3794 -20.3791 -20.3791 -20.3780 -20.3779 -20.3777 -20.3777
   -20.3672 -20.3672 -20.3670 -20.3670 -20.3663 -20.3663 -20.3661 -20.3661
   -20.3372 -20.3372 -20.3362 -20.3362 -20.3331 -20.3331 -20.3325 -20.3325
   -20.3319 -20.3319 -20.3313 -20.3313 -20.3287 -20.3287 -20.3276 -20.3276
    -9.7257  -9.7256  -9.3533  -9.3530  -9.2573  -9.2573  -8.9838  -8.9838
    -8.6720  -8.6713  -8.6005  -8.6003  -8.5834  -8.5827  -8.5811  -8.5801
    -8.0711  -8.0702  -8.0010  -8.0006  -7.9544  -7.9541  -7.8799  -7.8797
     1.4934   1.4984   1.5292   1.5335   1.6517   1.6529   1.8706   1.8734
[...]
    12.7598  12.7598  12.7598  12.7598  12.9418  12.9418  12.9418  12.9418
    14.9798  14.9798  14.9798  14.9798  16.4500  16.4500  16.4500  16.4500
    17.1278  17.1278  17.1278  17.1278  17.3333  17.3333

          k =-0.5000 0.3187 0.0000 ( 63186 PWs)   bands (ev):

   -66.2310 -66.2310 -66.2308 -66.2308 -66.2301 -66.2301 -66.2299 -66.2299
   -30.6392 -30.6392 -30.6335 -30.6335 -30.6132 -30.6132 -30.6055 -30.6055
   -30.5548 -30.5548 -30.5539 -30.5539 -30.4845 -30.4844 -30.4828 -30.4828
   -30.4801 -30.4801 -30.4795 -30.4795 -30.4647 -30.4647 -30.4644 -30.4644
   -20.3968 -20.3967 -20.3961 -20.3961 -20.3954 -20.3954 -20.3946 -20.3946
   -20.3866 -20.3866 -20.3864 -20.3864 -20.3858 -20.3858 -20.3858 -20.3858
   -20.3854 -20.3854 -20.3851 -20.3851 -20.3833 -20.3833 -20.3830 -20.3830
   -20.3788 -20.3788 -20.3786 -20.3786 -20.3784 -20.3784 -20.3783 -20.3783
   -20.3668 -20.3668 -20.3667 -20.3667 -20.3666 -20.3666 -20.3665 -20.3665
   -20.3370 -20.3370 -20.3370 -20.3370 -20.3322 -20.3322 -20.3322 -20.3322
   -20.3306 -20.3306 -20.3306 -20.3306 -20.3295 -20.3295 -20.3295 -20.3295
    -9.6548  -9.6548  -9.5048  -9.5048  -9.0606  -9.0606  -8.8613  -8.8613
    -8.6360  -8.6360  -8.6223  -8.6223  -8.5622  -8.5622  -8.4755  -8.4755
    -8.3080  -8.3079  -8.2639  -8.2638  -7.8989  -7.8989  -7.8862  -7.8862
     1.3093   1.3093   1.3149   1.3149   2.2396   2.2396   2.3796   2.3797
     2.8543   2.8543   2.9476   2.9476   3.0136   3.0136   3.1579   3.1579
     3.2196   3.2196   3.3730   3.3730   3.4358   3.4358   3.5694   3.5694
     3.8822   3.8822   3.9606   3.9606   4.1303   4.1303   4.2817   4.2817
     4.6979   4.6979   4.7483   4.7483   5.0098   5.0098   5.1975   5.1975
     5.3583   5.3583   5.6037   5.6037   6.0335   6.0335   6.0767   6.0767
     6.3038   6.3038   6.3892   6.3892   6.3981   6.3981   6.5674   6.5674
     6.8480   6.8480   6.9157   6.9157   6.9196   6.9196   7.2983   7.2983
     7.3236   7.3236   7.4251   7.4251   7.4583   7.4584   7.6457   7.6457
    10.5224  10.5224  11.0538  11.0538  11.1161  11.1161  11.4067  11.4067
    11.7806  11.7806  11.9592  11.9592  12.3085  12.3085  12.4419  12.4419
    12.5857  12.5857  12.7388  12.7388  13.1170  13.1170  13.4983  13.4983
    14.8733  14.8733  15.2975  15.2975  15.9396  15.9396  16.0862  16.0862
    16.3249  16.3249  16.9198  16.9198  17.4477  17.4477

          k =-0.5000 0.3187 0.1669 ( 63208 PWs)   bands (ev):

   -66.2309 -66.2309 -66.2307 -66.2307 -66.2302 -66.2301 -66.2299 -66.2299
   -30.6388 -30.6388 -30.6339 -30.6338 -30.6124 -30.6124 -30.6059 -30.6059
   -30.5492 -30.5492 -30.5486 -30.5485 -30.4849 -30.4849 -30.4838 -30.4838
   -30.4808 -30.4808 -30.4799 -30.4799 -30.4695 -30.4695 -30.4687 -30.4687
   -20.3967 -20.3967 -20.3962 -20.3962 -20.3954 -20.3954 -20.3947 -20.3947
   -20.3866 -20.3866 -20.3864 -20.3864 -20.3858 -20.3858 -20.3858 -20.3858
   -20.3852 -20.3852 -20.3850 -20.3850 -20.3834 -20.3834 -20.3831 -20.3831
   -20.3788 -20.3788 -20.3786 -20.3786 -20.3784 -20.3784 -20.3783 -20.3783
   -20.3668 -20.3668 -20.3667 -20.3667 -20.3666 -20.3666 -20.3665 -20.3665
   -20.3367 -20.3367 -20.3367 -20.3367 -20.3325 -20.3325 -20.3325 -20.3325
   -20.3306 -20.3306 -20.3306 -20.3305 -20.3296 -20.3296 -20.3295 -20.3295
    -9.5890  -9.5890  -9.4269  -9.4269  -9.0750  -9.0750  -8.8427  -8.8427
    -8.6571  -8.6570  -8.6165  -8.6165  -8.5500  -8.5500  -8.4801  -8.4801
    -8.3047  -8.3047  -8.2682  -8.2681  -8.0080  -8.0080  -7.9950  -7.9950
     1.5500   1.5500   1.5581   1.5581   2.2455   2.2455   2.3646   2.3646
     2.9136   2.9136   2.9806   2.9806   3.0162   3.0162   3.1770   3.1770
     3.2383   3.2383   3.4314   3.4314   3.4790   3.4790   3.6203   3.6203
     3.8730   3.8731   3.9710   3.9710   4.1233   4.1233   4.2830   4.2830
     4.5916   4.5916   4.6911   4.6911   4.8707   4.8707   4.9467   4.9467
     5.0694   5.0694   5.3905   5.3905   5.6765   5.6765   5.7064   5.7064
     6.4724   6.4724   6.6064   6.6064   6.6697   6.6697   6.7018   6.7018
     6.8317   6.8317   6.9327   6.9327   6.9861   6.9861   7.3084   7.3084
     7.3375   7.3375   7.4324   7.4324   7.4645   7.4645   7.6258   7.6259
    10.6762  10.6762  11.1239  11.1239  11.1928  11.1928  11.4605  11.4605
    11.7970  11.7970  11.9986  11.9986  12.2980  12.2980  12.4097  12.4097
    12.5681  12.5681  12.7042  12.7042  12.9709  12.9709  13.3666  13.3666
    15.0674  15.0674  15.5322  15.5322  15.9959  15.9959  16.0923  16.0923
    16.3814  16.3814  16.9553  16.9553  17.4128  17.4129

          k =-0.5000 0.3187 0.3338 ( 63180 PWs)   bands (ev):

   -66.2308 -66.2307 -66.2305 -66.2305 -66.2303 -66.2303 -66.2301 -66.2301
   -30.6377 -30.6376 -30.6348 -30.6348 -30.6106 -30.6106 -30.6070 -30.6070
   -30.5337 -30.5337 -30.5336 -30.5336 -30.4934 -30.4934 -30.4924 -30.4924
   -30.4817 -30.4817 -30.4796 -30.4796 -30.4772 -30.4772 -30.4751 -30.4751
   -20.3966 -20.3966 -20.3963 -20.3963 -20.3952 -20.3952 -20.3949 -20.3949
   -20.3865 -20.3865 -20.3864 -20.3864 -20.3858 -20.3858 -20.3858 -20.3858
   -20.3849 -20.3849 -20.3846 -20.3846 -20.3838 -20.3838 -20.3835 -20.3835
   -20.3787 -20.3787 -20.3786 -20.3786 -20.3784 -20.3784 -20.3784 -20.3783
   -20.3668 -20.3668 -20.3667 -20.3667 -20.3666 -20.3666 -20.3665 -20.3665
   -20.3358 -20.3358 -20.3358 -20.3358 -20.3334 -20.3334 -20.3334 -20.3334
   -20.3304 -20.3304 -20.3304 -20.3304 -20.3298 -20.3298 -20.3298 -20.3298
    -9.4203  -9.4203  -9.2125  -9.2125  -9.1250  -9.1250  -8.7807  -8.7807
    -8.7255  -8.7255  -8.5944  -8.5944  -8.5267  -8.5266  -8.4917  -8.4917
    -8.3058  -8.3058  -8.2925  -8.2925  -8.2632  -8.2632  -8.2273  -8.2273
     2.1241   2.1241   2.2084   2.2084   2.2664   2.2664   2.3964   2.3965
     2.9695   2.9695   3.0102   3.0102   3.1214   3.1214   3.2026   3.2026
     3.2829   3.2829   3.5621   3.5621   3.6469   3.6469   3.7445   3.7445
     3.8413   3.8413   3.9975   3.9975   4.1024   4.1024   4.1236   4.1236
     4.2486   4.2486   4.3909   4.3909   4.5471   4.5471   4.7418   4.7418
     4.8087   4.8087   4.9118   4.9118   4.9413   4.9413   5.1615   5.1615
     6.6600   6.6600   6.7261   6.7261   6.8089   6.8089   6.8513   6.8513
     7.0017   7.0017   7.1301   7.1301   7.1831   7.1831   7.3174   7.3174
     7.3676   7.3676   7.4461   7.4461   7.4661   7.4661   7.5736   7.5736
    11.0763  11.0763  11.3388  11.3388  11.4369  11.4369  11.5575  11.5575
    11.8620  11.8620  12.1134  12.1134  12.1575  12.1575  12.1930  12.1930
    12.5054  12.5054  12.5858  12.5858  12.6323  12.6323  13.0221  13.0221
    15.5515  15.5515  15.9472  15.9472  16.2399  16.2400  16.3116  16.3116
    16.5861  16.5861  17.0165  17.0165  17.2789  17.2789

          k =-0.5000 0.3187-0.5008 ( 63196 PWs)   bands (ev):

   -66.2305 -66.2305 -66.2305 -66.2305 -66.2303 -66.2303 -66.2303 -66.2303
   -30.6362 -30.6362 -30.6362 -30.6362 -30.6087 -30.6087 -30.6087 -30.6086
   -30.5135 -30.5135 -30.5135 -30.5135 -30.5119 -30.5119 -30.5119 -30.5119
   -30.4807 -30.4807 -30.4807 -30.4807 -30.4776 -30.4776 -30.4776 -30.4776
   -20.3965 -20.3965 -20.3965 -20.3965 -20.3951 -20.3951 -20.3951 -20.3951
   -20.3864 -20.3864 -20.3864 -20.3864 -20.3858 -20.3858 -20.3858 -20.3858
   -20.3844 -20.3844 -20.3844 -20.3844 -20.3841 -20.3841 -20.3841 -20.3840
   -20.3786 -20.3786 -20.3786 -20.3786 -20.3784 -20.3784 -20.3784 -20.3784
   -20.3667 -20.3667 -20.3667 -20.3667 -20.3666 -20.3666 -20.3666 -20.3666
   -20.3347 -20.3347 -20.3347 -20.3347 -20.3345 -20.3345 -20.3345 -20.3345
   -20.3302 -20.3302 -20.3302 -20.3301 -20.3300 -20.3300 -20.3300 -20.3300
    -9.2382  -9.2382  -9.2382  -9.2382  -8.9324  -8.9324  -8.9324  -8.9324
    -8.6284  -8.6284  -8.6284  -8.6284  -8.4938  -8.4938  -8.4938  -8.4938
    -8.4484  -8.4484  -8.4483  -8.4483  -8.2786  -8.2786  -8.2786  -8.2786
     2.2627   2.2627   2.2627   2.2627   2.8931   2.8931   2.8931   2.8931
     3.0205   3.0205   3.0205   3.0205   3.1246   3.1246   3.1246   3.1246
     3.2979   3.2979   3.2979   3.2979   3.7800   3.7800   3.7800   3.7800
     3.8890   3.8890   3.8890   3.8890   4.0069   4.0069   4.0069   4.0069
     4.2461   4.2461   4.2461   4.2461   4.3255   4.3255   4.3255   4.3255
     4.6298   4.6298   4.6298   4.6298   4.9124   4.9124   4.9124   4.9124
     6.7261   6.7261   6.7261   6.7261   6.8459   6.8459   6.8459   6.8459
     7.2073   7.2073   7.2073   7.2073   7.2977   7.2977   7.2977   7.2977
     7.4126   7.4126   7.4126   7.4126   7.5102   7.5102   7.5102   7.5103
    11.4985  11.4985  11.4985  11.4985  11.6445  11.6445  11.6445  11.6445
    11.8413  11.8413  11.8413  11.8413  12.1096  12.1096  12.1096  12.1097
    12.4458  12.4458  12.4458  12.4458  12.6526  12.6526  12.6526  12.6526
    15.8636  15.8636  15.8636  15.8636  16.6067  16.6067  16.6067  16.6067
    17.0345  17.0345  17.0345  17.0345  17.3319  17.3320

          k =-0.5000-0.4781 0.0000 ( 63136 PWs)   bands (ev):

   -66.2309 -66.2309 -66.2309 -66.2309 -66.2300 -66.2300 -66.2300 -66.2300
   -30.6261 -30.6261 -30.6258 -30.6258 -30.6197 -30.6197 -30.6192 -30.6192
   -30.5547 -30.5547 -30.5545 -30.5545 -30.4837 -30.4836 -30.4833 -30.4833
   -30.4803 -30.4803 -30.4797 -30.4797 -30.4647 -30.4647 -30.4645 -30.4645
   -20.3961 -20.3961 -20.3960 -20.3960 -20.3954 -20.3954 -20.3953 -20.3953
   -20.3864 -20.3864 -20.3862 -20.3861 -20.3861 -20.3861 -20.3860 -20.3860
   -20.3854 -20.3854 -20.3851 -20.3851 -20.3832 -20.3832 -20.3831 -20.3831
   -20.3787 -20.3787 -20.3787 -20.3787 -20.3784 -20.3784 -20.3784 -20.3784
   -20.3668 -20.3668 -20.3668 -20.3668 -20.3665 -20.3665 -20.3665 -20.3665
   -20.3370 -20.3370 -20.3370 -20.3370 -20.3322 -20.3322 -20.3322 -20.3322
   -20.3306 -20.3306 -20.3306 -20.3306 -20.3295 -20.3295 -20.3295 -20.3295
    -9.5692  -9.5692  -9.5631  -9.5631  -8.8196  -8.8196  -8.8009  -8.8009
    -8.7097  -8.7097  -8.6946  -8.6946  -8.5239  -8.5239  -8.4822  -8.4822
    -8.4389  -8.4389  -8.4031  -8.4031  -7.8930  -7.8930  -7.8926  -7.8926
     1.3097   1.3097   1.3156   1.3156   2.8181   2.8181   2.9223   2.9223
     2.9771   2.9771   3.0039   3.0039   3.1465   3.1465   3.1530   3.1530
     3.2265   3.2265   3.3071   3.3071   3.3611   3.3611   3.4327   3.4327
     3.4487   3.4487   3.7356   3.7356   4.1622   4.1622   4.2442   4.2442
     4.2543   4.2544   4.3624   4.3624   5.0813   5.0813   5.1302   5.1302
     5.3925   5.3925   5.4549   5.4549   6.0599   6.0599   6.0755   6.0755
     6.3896   6.3896   6.3930   6.3930   6.4325   6.4325   6.4834   6.4834
     7.0824   7.0824   7.0987   7.0987   7.1234   7.1234   7.2453   7.2453
     7.3317   7.3317   7.3645   7.3645   7.3870   7.3870   7.4281   7.4281
    11.0412  11.0412  11.0502  11.0502  11.1144  11.1144  11.1281  11.1281
    11.9797  11.9797  12.0370  12.0370  12.0929  12.0929  12.1636  12.1636
    12.6224  12.6224  12.6329  12.6329  13.2413  13.2413  13.2859  13.2859
    15.1618  15.1618  15.1801  15.1801  16.4224  16.4224  16.5717  16.5717
    16.8011  16.8011  16.9195  16.9195  16.9683  16.9683

          k =-0.5000-0.4781 0.1669 ( 63192 PWs)   bands (ev):

   -66.2308 -66.2308 -66.2308 -66.2308 -66.2301 -66.2300 -66.2300 -66.2300
   -30.6256 -30.6256 -30.6252 -30.6252 -30.6200 -30.6200 -30.6196 -30.6196
   -30.5491 -30.5491 -30.5490 -30.5490 -30.4843 -30.4843 -30.4841 -30.4841
   -30.4809 -30.4808 -30.4802 -30.4802 -30.4694 -30.4694 -30.4691 -30.4691
   -20.3960 -20.3960 -20.3960 -20.3960 -20.3954 -20.3954 -20.3954 -20.3954
   -20.3863 -20.3863 -20.3862 -20.3862 -20.3861 -20.3861 -20.3860 -20.3860
   -20.3852 -20.3852 -20.3850 -20.3850 -20.3833 -20.3833 -20.3832 -20.3832
   -20.3787 -20.3787 -20.3787 -20.3787 -20.3784 -20.3784 -20.3784 -20.3784
   -20.3668 -20.3668 -20.3668 -20.3668 -20.3666 -20.3665 -20.3665 -20.3665
   -20.3367 -20.3367 -20.3367 -20.3367 -20.3325 -20.3325 -20.3325 -20.3325
   -20.3306 -20.3306 -20.3306 -20.3305 -20.3296 -20.3296 -20.3296 -20.3295
    -9.4958  -9.4958  -9.4890  -9.4890  -8.8387  -8.8386  -8.8192  -8.8192
    -8.6961  -8.6961  -8.6793  -8.6793  -8.5203  -8.5203  -8.4833  -8.4832
    -8.4381  -8.4381  -8.4060  -8.4060  -8.0020  -8.0020  -8.0019  -8.0019
     1.5525   1.5525   1.5597   1.5597   2.8318   2.8318   2.9408   2.9408
     2.9671   2.9671   3.0144   3.0144   3.1050   3.1050   3.1780   3.1780
     3.2798   3.2798   3.3584   3.3584   3.4297   3.4297   3.4367   3.4367
     3.5194   3.5194   3.7613   3.7613   4.1665   4.1665   4.2306   4.2306
     4.2573   4.2573   4.3518   4.3518   4.7781   4.7781   4.9360   4.9360
     5.0695   5.0695   5.2040   5.2041   5.6748   5.6748   5.7000   5.7000
     6.5353   6.5353   6.6106   6.6106   6.7107   6.7107   6.7461   6.7461
     7.0646   7.0646   7.1010   7.1010   7.1700   7.1700   7.2309   7.2309
     7.3168   7.3169   7.3565   7.3565   7.4183   7.4183   7.4392   7.4392
    11.0924  11.0924  11.1511  11.1511  11.1868  11.1868  11.2787  11.2787
    11.9900  11.9900  12.0428  12.0428  12.0874  12.0874  12.1753  12.1753
    12.5454  12.5454  12.6117  12.6117  13.0926  13.0926  13.1511  13.1511
    15.3979  15.3979  15.4233  15.4233  16.4735  16.4735  16.6221  16.6221
    16.8083  16.8084  16.9291  16.9291  16.9758  16.9760

          k =-0.5000-0.4781 0.3338 ( 63172 PWs)   bands (ev):

   -66.2307 -66.2306 -66.2306 -66.2306 -66.2302 -66.2302 -66.2302 -66.2302
   -30.6242 -30.6242 -30.6238 -30.6238 -30.6210 -30.6210 -30.6206 -30.6206
   -30.5338 -30.5338 -30.5337 -30.5337 -30.4930 -30.4930 -30.4928 -30.4928
   -30.4809 -30.4809 -30.4803 -30.4803 -30.4767 -30.4767 -30.4761 -30.4761
   -20.3959 -20.3959 -20.3959 -20.3959 -20.3956 -20.3956 -20.3955 -20.3955
   -20.3863 -20.3862 -20.3862 -20.3862 -20.3861 -20.3861 -20.3860 -20.3860
   -20.3848 -20.3848 -20.3847 -20.3847 -20.3837 -20.3837 -20.3836 -20.3836
   -20.3787 -20.3786 -20.3786 -20.3786 -20.3784 -20.3784 -20.3784 -20.3784
   -20.3667 -20.3667 -20.3667 -20.3667 -20.3666 -20.3666 -20.3666 -20.3666
   -20.3358 -20.3358 -20.3358 -20.3358 -20.3334 -20.3334 -20.3334 -20.3334
   -20.3304 -20.3304 -20.3304 -20.3304 -20.3298 -20.3298 -20.3298 -20.3298
    -9.2985  -9.2985  -9.2890  -9.2890  -8.9054  -8.9053  -8.8852  -8.8852
    -8.6471  -8.6471  -8.6308  -8.6308  -8.5109  -8.5109  -8.4883  -8.4883
    -8.4348  -8.4348  -8.4145  -8.4145  -8.2598  -8.2598  -8.2578  -8.2578
     2.1925   2.1925   2.2077   2.2077   2.8643   2.8643   2.9347   2.9347
     2.9724   2.9724   3.0378   3.0378   3.1051   3.1051   3.1677   3.1677
     3.3626   3.3626   3.4096   3.4097   3.5109   3.5109   3.5563   3.5563
     3.7527   3.7527   3.8687   3.8687   4.1469   4.1469   4.1525   4.1525
     4.2307   4.2307   4.2936   4.2936   4.3866   4.3867   4.4982   4.4983
     4.5818   4.5818   4.7223   4.7223   4.9223   4.9223   4.9625   4.9625
     6.7817   6.7817   6.8851   6.8851   6.9910   6.9910   7.0287   7.0287
     7.0847   7.0847   7.1466   7.1467   7.1941   7.1942   7.2326   7.2326
     7.3115   7.3115   7.3885   7.3885   7.4289   7.4289   7.4709   7.4709
    11.3157  11.3157  11.3558  11.3558  11.5105  11.5105  11.6118  11.6118
    11.9849  11.9849  12.0222  12.0222  12.0707  12.0707  12.1869  12.1869
    12.3011  12.3011  12.4217  12.4217  12.7115  12.7115  12.7898  12.7898
    16.0788  16.0788  16.1317  16.1317  16.6094  16.6094  16.7451  16.7451
    16.8190  16.8190  16.9413  16.9413  16.9892  16.9893

          k =-0.5000-0.4781-0.5008 ( 63160 PWs)   bands (ev):

   -66.2304 -66.2304 -66.2304 -66.2304 -66.2304 -66.2304 -66.2304 -66.2304
   -30.6226 -30.6226 -30.6226 -30.6226 -30.6221 -30.6221 -30.6221 -30.6221
   -30.5134 -30.5134 -30.5134 -30.5134 -30.5121 -30.5120 -30.5120 -30.5120
   -30.4800 -30.4800 -30.4800 -30.4799 -30.4785 -30.4785 -30.4785 -30.4785
   -20.3958 -20.3958 -20.3958 -20.3957 -20.3957 -20.3957 -20.3957 -20.3957
   -20.3862 -20.3862 -20.3862 -20.3862 -20.3860 -20.3860 -20.3860 -20.3860
   -20.3843 -20.3843 -20.3843 -20.3843 -20.3842 -20.3842 -20.3841 -20.3841
   -20.3786 -20.3786 -20.3786 -20.3786 -20.3785 -20.3785 -20.3785 -20.3784
   -20.3667 -20.3667 -20.3667 -20.3667 -20.3666 -20.3666 -20.3666 -20.3666
   -20.3347 -20.3347 -20.3347 -20.3347 -20.3345 -20.3345 -20.3345 -20.3345
   -20.3302 -20.3302 -20.3302 -20.3301 -20.3300 -20.3300 -20.3300 -20.3300
    -9.0659  -9.0659  -9.0658  -9.0658  -9.0404  -9.0404  -9.0404  -9.0404
    -8.5499  -8.5499  -8.5499  -8.5498  -8.4985  -8.4985  -8.4985  -8.4985
    -8.4776  -8.4776  -8.4776  -8.4776  -8.4157  -8.4157  -8.4157  -8.4157
     2.8089   2.8089   2.8089   2.8089   2.9030   2.9030   2.9030   2.9030
     3.0555   3.0555   3.0555   3.0555   3.1691   3.1691   3.1691   3.1691
     3.2438   3.2438   3.2438   3.2438   3.4352   3.4352   3.4352   3.4352
     4.0660   4.0660   4.0660   4.0660   4.0818   4.0818   4.0818   4.0818
     4.2495   4.2495   4.2495   4.2495   4.3094   4.3094   4.3094   4.3094
     4.3709   4.3709   4.3709   4.3709   4.4332   4.4332   4.4332   4.4332
     6.9228   6.9228   6.9228   6.9228   7.0815   7.0815   7.0815   7.0815
     7.1456   7.1456   7.1456   7.1456   7.2146   7.2146   7.2146   7.2147
     7.3899   7.3899   7.3899   7.3899   7.4655   7.4655   7.4655   7.4655
    11.6546  11.6546  11.6546  11.6546  11.6739  11.6739  11.6739  11.6739
    11.9594  11.9594  11.9594  11.9594  12.1290  12.1290  12.1290  12.1290
    12.2928  12.2928  12.2929  12.2929  12.3756  12.3756  12.3756  12.3756
    16.6907  16.6907  16.6907  16.6907  16.7556  16.7556  16.7556  16.7556
    16.9841  16.9841  16.9841  16.9841  17.0360  17.0360

     the Fermi energy is     9.9280 ev

!    total energy              =   -6260.38949149 Ry
     Harris-Foulkes estimate   =   -6260.38949149 Ry
     estimated scf accuracy    <          5.3E-10 Ry

     The total energy is the sum of the following terms:

     one-electron contribution =   -4727.33536672 Ry
     hartree contribution      =    2599.84898267 Ry
     xc contribution           =    -966.13364386 Ry
     ewald contribution        =   -3166.76941249 Ry
     smearing contrib. (-TS)   =      -0.00005109 Ry

     convergence has been achieved in  13 iterations

     Writing output data file chempot_10.save/
 
     init_run     :     22.34s CPU     23.86s WALL (       1 calls)
     electrons    :   1476.68s CPU   1499.80s WALL (       1 calls)

     Called by init_run:
     wfcinit      :     19.97s CPU     21.33s WALL (       1 calls)
     potinit      :      0.93s CPU      0.97s WALL (       1 calls)
     hinit0       :      1.17s CPU      1.23s WALL (       1 calls)

     Called by electrons:
     c_bands      :   1272.52s CPU   1293.11s WALL (      13 calls)
     sum_band     :    189.91s CPU    191.65s WALL (      13 calls)
     v_of_rho     :      1.05s CPU      1.12s WALL (      14 calls)
     mix_rho      :      1.77s CPU      2.29s WALL (      13 calls)

     Called by c_bands:
     init_us_2    :      5.49s CPU      6.66s WALL (      54 calls)
     cegterg      :    643.63s CPU    661.08s WALL (      26 calls)

     Called by sum_band:

     Called by *egterg:
     h_psi        :    517.35s CPU    525.89s WALL (     112 calls)
     g_psi        :      1.24s CPU      1.25s WALL (      84 calls)
     cdiaghg      :      9.25s CPU      9.32s WALL (     110 calls)

     Called by h_psi:
     h_psi:pot    :    515.08s CPU    517.96s WALL (     112 calls)
     h_psi:calbec :     49.62s CPU     50.87s WALL (     112 calls)
     vloc_psi     :    409.88s CPU    411.26s WALL (     112 calls)
     add_vuspsi   :     55.58s CPU     55.83s WALL (     112 calls)

     General routines
     calbec       :     49.62s CPU     50.87s WALL (     112 calls)
     fft          :      0.50s CPU      0.52s WALL (      42 calls)
     ffts         :      0.17s CPU      0.17s WALL (      13 calls)
     fftw         :    420.64s CPU    421.87s WALL (   33900 calls)
 
     Parallel routines
 
     PWSCF        :  25m20.04s CPU  25m46.63s WALL

 
   This run was terminated on:  17: 6:32   3Dec2019            

=------------------------------------------------------------------------------=
   JOB DONE.
=------------------------------------------------------------------------------=
