
     Program PWSCF v.6.2 (svn rev. 14038) starts on  4Mar2020 at 20: 2:57 

     This program is part of the open-source Quantum ESPRESSO suite
     for quantum simulation of materials; please cite
         "P. Giannozzi et al., J. Phys.:Condens. Matter 21 395502 (2009);
         "P. Giannozzi et al., J. Phys.:Condens. Matter 29 465901 (2017);
          URL http://www.quantum-espresso.org", 
     in publications or presentations arising from this work. More details at
     http://www.quantum-espresso.org/quote

     Parallel version (MPI), running on    64 processors

     MPI processes distributed on    16 nodes
     K-points division:     npool     =      64
     Reading input from rscf.in

     Current dimensions of program PWSCF are:
     Max number of different atomic species (ntypx) = 10
     Max number of k-points (npk) =  40000
     Max angular momentum in pseudopotentials (lmaxx) =  3

     Subspace diagonalization in iterative solution of the eigenvalue problem:
     a serial algorithm will be used

 
     G-vector sticks info
     --------------------
     sticks:   dense  smooth     PW     G-vecs:    dense   smooth      PW
     Sum        7747    7747   2077               498127   498127   69057
 


     bravais-lattice index     =            0
     lattice parameter (alat)  =      13.8397  a.u.
     unit-cell volume          =    2804.9816 (a.u.)^3
     number of atoms/cell      =           32
     number of atomic types    =            2
     number of electrons       =       368.00
     number of Kohn-Sham states=          221
     kinetic-energy cutoff     =     120.0000  Ry
     charge density cutoff     =     480.0000  Ry
     convergence threshold     =      1.0E-08
     mixing beta               =       0.7000
     number of iterations used =            8  plain     mixing
     Exchange-correlation      = SLA PW NOGX NOGC ( 1  4  0  0 0 0)
     nstep                     =           50


     celldm(1)=  13.839685  celldm(2)=   0.000000  celldm(3)=   0.000000
     celldm(4)=   0.000000  celldm(5)=   0.000000  celldm(6)=   0.000000

     crystal axes: (cart. coord. in units of alat)
               a(1) = (   1.000000   0.000000   0.000000 )  
               a(2) = (   0.000000   1.058160   0.000000 )  
               a(3) = (   0.000000   0.000000   1.000000 )  

     reciprocal axes: (cart. coord. in units 2 pi/alat)
               b(1) = (  1.000000  0.000000  0.000000 )  
               b(2) = (  0.000000  0.945037  0.000000 )  
               b(3) = (  0.000000  0.000000  1.000000 )  


     PseudoPot. # 1 for W  read from file:
     /cluster/scratch/mnoe/QE/pps/W_ONCV_LDA-4.0.upf
     MD5 check sum: ba0307d5d4cd419d6f1d13dc49d7c13a
     Pseudo is Norm-conserving + core correction, Zval = 28.0
     Generated using ONCVPSP code by D. R. Hamann
     Using radial grid of 1380 points,  8 beta functions with: 
                l(1) =   0
                l(2) =   0
                l(3) =   1
                l(4) =   1
                l(5) =   2
                l(6) =   2
                l(7) =   3
                l(8) =   3

     PseudoPot. # 2 for O  read from file:
     /cluster/scratch/mnoe/QE/pps/O_ONCV_LDA-3.0.upf
     MD5 check sum: a1bd6164e7280c17a38c229939bfbd54
     Pseudo is Norm-conserving + core correction, Zval =  6.0
     Generated using ONCVPSP code by D. R. Hamann
     Using radial grid of  926 points,  5 beta functions with: 
                l(1) =   0
                l(2) =   0
                l(3) =   1
                l(4) =   1
                l(5) =   2

     atomic species   valence    mass     pseudopotential
        W             28.00   183.84000     W ( 1.00)
        O              6.00    15.99940     O ( 1.00)

      8 Sym. Ops., with inversion, found ( 6 have fractional translation)



   Cartesian axes

     site n.     atom                  positions (alat units)
         1           W   tau(   1) = (   0.2370500   0.2953074   0.0122300  )
         2           W   tau(   2) = (   0.7629500   0.7628527   0.9877700  )
         3           W   tau(   3) = (   0.2629500   0.2337727   0.5122300  )
         4           W   tau(   4) = (   0.7370500   0.8243874   0.4877700  )
         5           W   tau(   5) = (   0.7629500   0.2953074   0.4877700  )
         6           W   tau(   6) = (   0.2370500   0.7628527   0.5122300  )
         7           W   tau(   7) = (   0.7370500   0.2337727   0.9877700  )
         8           W   tau(   8) = (   0.2629500   0.8243874   0.0122300  )
         9           O   tau(   9) = (   0.2261100   0.0080014   0.0038000  )
        10           O   tau(  10) = (   0.7738900   1.0501587   0.9962000  )
        11           O   tau(  11) = (   0.2738900   0.5210786   0.5038000  )
        12           O   tau(  12) = (   0.7261100   0.5370815   0.4962000  )
        13           O   tau(  13) = (   0.7738900   0.0080014   0.4962000  )
        14           O   tau(  14) = (   0.2261100   1.0501587   0.5038000  )
        15           O   tau(  15) = (   0.7261100   0.5210786   0.9962000  )
        16           O   tau(  16) = (   0.2738900   0.5370815   0.0038000  )
        17           O   tau(  17) = (   0.5035400   0.2386045   0.4563467  )
        18           O   tau(  18) = (   0.4964600   0.8195556   0.5436533  )
        19           O   tau(  19) = (   0.9964600   0.2904755   0.9563468  )
        20           O   tau(  20) = (   0.0035400   0.7676845   0.0436533  )
        21           O   tau(  21) = (   0.4964600   0.2386045   0.0436533  )
        22           O   tau(  22) = (   0.5035400   0.8195556   0.9563468  )
        23           O   tau(  23) = (   0.0035400   0.2904755   0.5436533  )
        24           O   tau(  24) = (   0.9964600   0.7676845   0.4563467  )
        25           O   tau(  25) = (   0.7063468   0.2588789   0.7446299  )
        26           O   tau(  26) = (   0.2936532   0.7992812   0.2553700  )
        27           O   tau(  27) = (   0.7936533   0.2702012   0.2446300  )
        28           O   tau(  28) = (   0.2063468   0.7879589   0.7553700  )
        29           O   tau(  29) = (   0.2936532   0.2588789   0.7553700  )
        30           O   tau(  30) = (   0.7063468   0.7992812   0.2446300  )
        31           O   tau(  31) = (   0.2063468   0.2702012   0.2553700  )
        32           O   tau(  32) = (   0.7936533   0.7879589   0.7446299  )

     number of k points=    64  gaussian smearing, width (Ry)=  0.0007
                       cart. coord. in units 2pi/alat
        k(    1) = (   0.0000000   0.0000000   0.0000000), wk =   0.0092593
        k(    2) = (   0.0000000   0.0000000   0.1666667), wk =   0.0185185
        k(    3) = (   0.0000000   0.0000000   0.3333333), wk =   0.0185185
        k(    4) = (   0.0000000   0.0000000  -0.5000000), wk =   0.0092593
        k(    5) = (   0.0000000   0.1575061   0.0000000), wk =   0.0185185
        k(    6) = (   0.0000000   0.1575061   0.1666667), wk =   0.0370370
        k(    7) = (   0.0000000   0.1575061   0.3333333), wk =   0.0370370
        k(    8) = (   0.0000000   0.1575061  -0.5000000), wk =   0.0185185
        k(    9) = (   0.0000000   0.3150122   0.0000000), wk =   0.0185185
        k(   10) = (   0.0000000   0.3150122   0.1666667), wk =   0.0370370
        k(   11) = (   0.0000000   0.3150122   0.3333333), wk =   0.0370370
        k(   12) = (   0.0000000   0.3150122  -0.5000000), wk =   0.0185185
        k(   13) = (   0.0000000  -0.4725183   0.0000000), wk =   0.0092593
        k(   14) = (   0.0000000  -0.4725183   0.1666667), wk =   0.0185185
        k(   15) = (   0.0000000  -0.4725183   0.3333333), wk =   0.0185185
        k(   16) = (   0.0000000  -0.4725183  -0.5000000), wk =   0.0092593
        k(   17) = (   0.1666667   0.0000000   0.1666667), wk =   0.0370370
        k(   18) = (   0.1666667   0.0000000   0.3333333), wk =   0.0370370
        k(   19) = (   0.1666667   0.0000000  -0.5000000), wk =   0.0185185
        k(   20) = (   0.1666667   0.1575061   0.1666667), wk =   0.0740741
        k(   21) = (   0.1666667   0.1575061   0.3333333), wk =   0.0740741
        k(   22) = (   0.1666667   0.1575061  -0.5000000), wk =   0.0370370
        k(   23) = (   0.1666667   0.3150122   0.1666667), wk =   0.0740741
        k(   24) = (   0.1666667   0.3150122   0.3333333), wk =   0.0740741
        k(   25) = (   0.1666667   0.3150122  -0.5000000), wk =   0.0370370
        k(   26) = (   0.1666667  -0.4725183   0.1666667), wk =   0.0370370
        k(   27) = (   0.1666667  -0.4725183   0.3333333), wk =   0.0370370
        k(   28) = (   0.1666667  -0.4725183  -0.5000000), wk =   0.0185185
        k(   29) = (   0.3333333   0.0000000   0.3333333), wk =   0.0370370
        k(   30) = (   0.3333333   0.0000000  -0.5000000), wk =   0.0185185
        k(   31) = (   0.3333333   0.1575061   0.3333333), wk =   0.0740741
        k(   32) = (   0.3333333   0.1575061  -0.5000000), wk =   0.0370370
        k(   33) = (   0.3333333   0.3150122   0.3333333), wk =   0.0740741
        k(   34) = (   0.3333333   0.3150122  -0.5000000), wk =   0.0370370
        k(   35) = (   0.3333333  -0.4725183   0.3333333), wk =   0.0370370
        k(   36) = (   0.3333333  -0.4725183  -0.5000000), wk =   0.0185185
        k(   37) = (  -0.5000000   0.0000000  -0.5000000), wk =   0.0092593
        k(   38) = (  -0.5000000   0.1575061  -0.5000000), wk =   0.0185185
        k(   39) = (  -0.5000000   0.3150122  -0.5000000), wk =   0.0185185
        k(   40) = (  -0.5000000  -0.4725183  -0.5000000), wk =   0.0092593
        k(   41) = (   0.1666667   0.0000000   0.0000000), wk =   0.0185185
        k(   42) = (   0.3333333   0.0000000   0.0000000), wk =   0.0185185
        k(   43) = (  -0.5000000   0.0000000   0.0000000), wk =   0.0092593
        k(   44) = (   0.1666667  -0.1575061   0.0000000), wk =   0.0370370
        k(   45) = (   0.3333333  -0.1575061   0.0000000), wk =   0.0370370
        k(   46) = (  -0.5000000  -0.1575061   0.0000000), wk =   0.0185185
        k(   47) = (   0.1666667  -0.3150122   0.0000000), wk =   0.0370370
        k(   48) = (   0.3333333  -0.3150122   0.0000000), wk =   0.0370370
        k(   49) = (  -0.5000000  -0.3150122   0.0000000), wk =   0.0185185
        k(   50) = (   0.1666667   0.4725183   0.0000000), wk =   0.0185185
        k(   51) = (   0.3333333   0.4725183   0.0000000), wk =   0.0185185
        k(   52) = (  -0.5000000   0.4725183   0.0000000), wk =   0.0092593
        k(   53) = (   0.3333333   0.0000000   0.1666667), wk =   0.0370370
        k(   54) = (  -0.5000000   0.0000000   0.1666667), wk =   0.0185185
        k(   55) = (   0.3333333  -0.1575061   0.1666667), wk =   0.0740741
        k(   56) = (  -0.5000000  -0.1575061   0.1666667), wk =   0.0370370
        k(   57) = (   0.3333333  -0.3150122   0.1666667), wk =   0.0740741
        k(   58) = (  -0.5000000  -0.3150122   0.1666667), wk =   0.0370370
        k(   59) = (   0.3333333   0.4725183   0.1666667), wk =   0.0370370
        k(   60) = (  -0.5000000   0.4725183   0.1666667), wk =   0.0185185
        k(   61) = (  -0.5000000   0.0000000   0.3333333), wk =   0.0185185
        k(   62) = (  -0.5000000  -0.1575061   0.3333333), wk =   0.0370370
        k(   63) = (  -0.5000000  -0.3150122   0.3333333), wk =   0.0370370
        k(   64) = (  -0.5000000   0.4725183   0.3333333), wk =   0.0185185

     Dense  grid:   498127 G-vectors     FFT dimensions: ( 100, 108, 100)

     Estimated max dynamical RAM per process >       2.74 GB

     Estimated total dynamical RAM >     175.05 GB

     Initial potential from superposition of free atoms

     starting charge  367.99656, renormalised to  368.00000
     Starting wfc are  232 randomized atomic wfcs

     total cpu time spent up to now is       38.3 secs

     Self-consistent Calculation

     iteration #  1     ecut=   120.00 Ry     beta= 0.70
     Davidson diagonalization with overlap
     ethr =  1.00E-02,  avg # of iterations =  5.1

     total cpu time spent up to now is      115.8 secs

     total energy              =   -6253.99370921 Ry
     Harris-Foulkes estimate   =   -6264.56016998 Ry
     estimated scf accuracy    <      13.38350457 Ry

     iteration #  2     ecut=   120.00 Ry     beta= 0.70
     Davidson diagonalization with overlap
     ethr =  3.64E-03,  avg # of iterations =  3.5

     total cpu time spent up to now is      188.5 secs

     total energy              =   -6250.74701855 Ry
     Harris-Foulkes estimate   =   -6270.77193074 Ry
     estimated scf accuracy    <      53.98779895 Ry

     iteration #  3     ecut=   120.00 Ry     beta= 0.70
     Davidson diagonalization with overlap
     ethr =  3.64E-03,  avg # of iterations =  3.4

     total cpu time spent up to now is      261.9 secs

     total energy              =   -6261.04988445 Ry
     Harris-Foulkes estimate   =   -6261.42129792 Ry
     estimated scf accuracy    <       1.18117812 Ry

     iteration #  4     ecut=   120.00 Ry     beta= 0.70
     Davidson diagonalization with overlap
     ethr =  3.21E-04,  avg # of iterations =  2.5

     total cpu time spent up to now is      327.8 secs

     total energy              =   -6261.08836187 Ry
     Harris-Foulkes estimate   =   -6261.17554453 Ry
     estimated scf accuracy    <       0.30244720 Ry

     iteration #  5     ecut=   120.00 Ry     beta= 0.70
     Davidson diagonalization with overlap
     ethr =  8.22E-05,  avg # of iterations =  4.8

     total cpu time spent up to now is      395.3 secs

     total energy              =   -6261.07496173 Ry
     Harris-Foulkes estimate   =   -6261.11724411 Ry
     estimated scf accuracy    <       0.09169293 Ry

     iteration #  6     ecut=   120.00 Ry     beta= 0.70
     Davidson diagonalization with overlap
     ethr =  2.49E-05,  avg # of iterations =  5.3

     total cpu time spent up to now is      460.5 secs

     total energy              =   -6261.09570764 Ry
     Harris-Foulkes estimate   =   -6261.09732321 Ry
     estimated scf accuracy    <       0.00497404 Ry

     iteration #  7     ecut=   120.00 Ry     beta= 0.70
     Davidson diagonalization with overlap
     ethr =  1.35E-06,  avg # of iterations =  3.7

     total cpu time spent up to now is      518.1 secs

     total energy              =   -6261.09610077 Ry
     Harris-Foulkes estimate   =   -6261.09631837 Ry
     estimated scf accuracy    <       0.00061490 Ry

     iteration #  8     ecut=   120.00 Ry     beta= 0.70
     Davidson diagonalization with overlap
     ethr =  1.67E-07,  avg # of iterations =  3.0

     total cpu time spent up to now is      578.5 secs

     total energy              =   -6261.09617035 Ry
     Harris-Foulkes estimate   =   -6261.09620219 Ry
     estimated scf accuracy    <       0.00006949 Ry

     iteration #  9     ecut=   120.00 Ry     beta= 0.70
     Davidson diagonalization with overlap
     ethr =  1.89E-08,  avg # of iterations =  2.9

     total cpu time spent up to now is      642.7 secs

     total energy              =   -6261.09618661 Ry
     Harris-Foulkes estimate   =   -6261.09618908 Ry
     estimated scf accuracy    <       0.00000586 Ry

     iteration # 10     ecut=   120.00 Ry     beta= 0.70
     Davidson diagonalization with overlap
     ethr =  1.59E-09,  avg # of iterations =  2.0

     total cpu time spent up to now is      706.1 secs

     total energy              =   -6261.09618720 Ry
     Harris-Foulkes estimate   =   -6261.09618783 Ry
     estimated scf accuracy    <       0.00000132 Ry

     iteration # 11     ecut=   120.00 Ry     beta= 0.70
     Davidson diagonalization with overlap
     ethr =  3.57E-10,  avg # of iterations =  2.8

     total cpu time spent up to now is      775.2 secs

     total energy              =   -6261.09618749 Ry
     Harris-Foulkes estimate   =   -6261.09618751 Ry
     estimated scf accuracy    <       0.00000004 Ry

     iteration # 12     ecut=   120.00 Ry     beta= 0.70
     Davidson diagonalization with overlap
     ethr =  1.04E-11,  avg # of iterations =  2.0

     total cpu time spent up to now is      843.0 secs

     End of self-consistent calculation

          k = 0.0000 0.0000 0.0000 ( 62239 PWs)   bands (ev):

   -66.1618 -66.1614 -66.1608 -66.1608 -66.1604 -66.1604 -66.1598 -66.1594
   -30.5688 -30.5665 -30.5631 -30.5609 -30.5462 -30.5422 -30.5412 -30.5378
   -30.4839 -30.4819 -30.4782 -30.4744 -30.4680 -30.4639 -30.4545 -30.4503
   -30.4467 -30.4421 -30.4380 -30.4311 -30.4191 -30.4128 -30.4116 -30.4058
   -20.3219 -20.3218 -20.3217 -20.3216 -20.3214 -20.3213 -20.3212 -20.3211
   -20.3009 -20.3006 -20.3004 -20.3002 -20.3001 -20.2999 -20.2996 -20.2993
   -20.2971 -20.2968 -20.2966 -20.2965 -20.2963 -20.2962 -20.2960 -20.2956
   -20.2936 -20.2934 -20.2931 -20.2930 -20.2903 -20.2900 -20.2900 -20.2896
   -20.2893 -20.2887 -20.2885 -20.2880 -20.2879 -20.2878 -20.2878 -20.2877
   -20.2828 -20.2828 -20.2823 -20.2823 -20.2813 -20.2811 -20.2800 -20.2798
   -20.2753 -20.2751 -20.2739 -20.2737 -20.2737 -20.2734 -20.2723 -20.2721
   -10.0019  -9.7873  -9.5742  -9.5082  -9.4169  -9.3191  -9.1473  -9.1278
    -8.8475  -8.7358  -8.7336  -8.7267  -7.8894  -7.8729  -7.8153  -7.7991
    -7.7444  -7.7407  -7.7322  -7.6915  -7.6834  -7.6286  -7.6262  -7.5843
     1.0399   1.0475   1.1228   1.1331   1.2516   1.2532   1.4171   1.5070
     1.8169   1.8231   1.8473   1.9224   2.2485   2.3298   2.6247   2.6397
     2.7763   2.7773   4.0811   4.2038   4.2124   4.3891   4.5964   4.6246
     4.6360   4.6631   4.8332   5.0471   5.1663   5.1950   5.2117   5.4762
     5.4780   5.5556   5.5590   5.5695   5.6127   5.6144   5.7171   5.7295
     5.8646   5.8893   5.8902   5.9056   5.9821   5.9898   6.0406   6.0587
     6.1443   6.2483   6.3124   6.3902   6.5076   6.7158   6.8621   6.9096
     6.9464   6.9800   6.9812   7.0459   7.0466   7.0618   7.1099   7.1377
     7.2115   7.2371   7.7990   7.8180   8.0101   8.0736   8.1221   8.1816
     9.4549   9.4793   9.9509   9.9576   9.9941   9.9969  12.1495  12.2978
    12.4359  12.4769  12.4898  12.4988  12.5067  12.5274  12.6481  12.9563
    13.2127  13.2967  13.3427  13.4356  13.5807  13.6873  14.0653  14.0719
    14.3409  14.3606  14.5892  14.8959  15.3105  15.4375  15.4711  16.1021
    16.1050  16.8553  17.0002  17.0643  17.5500

          k = 0.0000 0.0000 0.1667 ( 62262 PWs)   bands (ev):

   -66.1618 -66.1614 -66.1609 -66.1607 -66.1605 -66.1603 -66.1599 -66.1595
   -30.5624 -30.5602 -30.5565 -30.5546 -30.5456 -30.5416 -30.5416 -30.5382
   -30.4870 -30.4842 -30.4776 -30.4746 -30.4738 -30.4706 -30.4590 -30.4542
   -30.4464 -30.4424 -30.4377 -30.4319 -30.4188 -30.4133 -30.4113 -30.4063
   -20.3219 -20.3218 -20.3216 -20.3215 -20.3214 -20.3213 -20.3212 -20.3211
   -20.3009 -20.3005 -20.3004 -20.3003 -20.3000 -20.2999 -20.2997 -20.2994
   -20.2971 -20.2968 -20.2966 -20.2965 -20.2963 -20.2962 -20.2960 -20.2957
   -20.2936 -20.2934 -20.2932 -20.2930 -20.2903 -20.2900 -20.2900 -20.2897
   -20.2892 -20.2886 -20.2881 -20.2880 -20.2879 -20.2875 -20.2872 -20.2872
   -20.2829 -20.2828 -20.2825 -20.2823 -20.2816 -20.2815 -20.2805 -20.2803
   -20.2752 -20.2750 -20.2738 -20.2738 -20.2736 -20.2735 -20.2725 -20.2722
    -9.9466  -9.7264  -9.5248  -9.4921  -9.3322  -9.3247  -9.1089  -9.0917
    -8.8585  -8.7318  -8.7281  -8.7235  -7.9962  -7.9893  -7.8791  -7.8779
    -7.8321  -7.7925  -7.7479  -7.6911  -7.6878  -7.6332  -7.6286  -7.5877
     1.1720   1.1760   1.2525   1.2558   1.3912   1.3928   1.5132   1.6474
     1.8166   1.8305   1.8383   1.9714   2.3396   2.4211   2.6482   2.7156
     2.7689   2.8625   4.0860   4.1145   4.2515   4.2867   4.3036   4.3675
     4.6706   4.6759   4.7576   4.8136   4.8644   5.1691   5.2210   5.2797
     5.2943   5.4755   5.4929   5.5522   5.5898   5.6458   5.6522   5.6924
     5.7140   5.8839   5.9028   5.9140   5.9893   6.0133   6.1300   6.1337
     6.1507   6.3466   6.4418   6.4946   6.7191   6.7484   6.7863   6.8500
     6.8753   6.8759   6.9371   6.9845   6.9976   7.0261   7.0385   7.0601
     7.0697   7.1152   7.7948   7.8055   8.0312   8.0773   8.0778   8.1383
     9.7393   9.7801   9.9493  10.0004  10.2387  10.2813  12.2133  12.2504
    12.3884  12.4191  12.4757  12.5087  12.5460  12.6027  12.6948  12.8813
    13.0999  13.2200  13.2893  13.4342  13.6717  13.6883  13.9179  13.9563
    14.3523  14.4636  14.5836  15.0137  15.2809  15.4739  15.5500  16.0762
    16.4181  16.8027  17.0283  17.2101  17.6005

          k = 0.0000 0.0000 0.3333 ( 62268 PWs)   bands (ev):

   -66.1616 -66.1612 -66.1611 -66.1607 -66.1606 -66.1602 -66.1601 -66.1597
   -30.5469 -30.5467 -30.5427 -30.5408 -30.5399 -30.5393 -30.5369 -30.5366
   -30.4983 -30.4942 -30.4928 -30.4887 -30.4761 -30.4719 -30.4677 -30.4623
   -30.4455 -30.4432 -30.4367 -30.4336 -30.4177 -30.4147 -30.4103 -30.4075
   -20.3218 -20.3217 -20.3216 -20.3215 -20.3215 -20.3214 -20.3213 -20.3212
   -20.3008 -20.3004 -20.3004 -20.3002 -20.3001 -20.2999 -20.2998 -20.2995
   -20.2971 -20.2969 -20.2966 -20.2964 -20.2964 -20.2963 -20.2959 -20.2957
   -20.2936 -20.2934 -20.2933 -20.2931 -20.2903 -20.2901 -20.2900 -20.2898
   -20.2889 -20.2885 -20.2882 -20.2881 -20.2866 -20.2863 -20.2858 -20.2858
   -20.2835 -20.2832 -20.2826 -20.2825 -20.2825 -20.2822 -20.2815 -20.2814
   -20.2749 -20.2748 -20.2741 -20.2739 -20.2735 -20.2733 -20.2728 -20.2725
    -9.8125  -9.5837  -9.5772  -9.3735  -9.2730  -9.0623  -8.9837  -8.9576
    -8.9019  -8.7500  -8.7053  -8.6739  -8.3119  -8.2997  -8.2311  -8.2010
    -7.8224  -7.7715  -7.7677  -7.7124  -7.6772  -7.6455  -7.6216  -7.5970
     1.2556   1.2563   1.2635   1.2651   1.7396   1.7624   1.8030   1.8203
     2.1165   2.1838   2.2827   2.3916   2.6015   2.6562   2.7002   2.7511
     2.9612   3.0874   3.6207   3.7086   3.9068   3.9284   4.1697   4.2259
     4.3074   4.4601   4.5373   4.7141   4.7416   4.7507   4.8092   5.0201
     5.0835   5.1539   5.2156   5.3380   5.3926   5.4144   5.7490   5.7519
     5.8355   5.8499   5.9447   5.9470   6.0257   6.0570   6.1678   6.2373
     6.2921   6.3825   6.4477   6.4562   6.4634   6.6093   6.7236   6.7304
     6.7614   6.9408   6.9775   7.0229   7.0285   7.0421   7.0514   7.0838
     7.2426   7.3327   7.7129   7.7193   7.9328   7.9976   8.0628   8.0801
     9.9120   9.9432  10.4576  10.5476  10.8623  10.9410  11.9164  11.9957
    12.1773  12.3963  12.4505  12.5187  12.6184  12.6959  12.7118  12.7175
    12.8272  13.1775  13.2573  13.2582  13.5679  13.6751  13.6947  13.7505
    14.4324  14.5643  14.7357  15.1860  15.2968  15.6413  15.9952  16.0058
    16.2706  17.2755  17.4948  17.5788  17.7453

          k = 0.0000 0.0000-0.5000 ( 62264 PWs)   bands (ev):

   -66.1613 -66.1613 -66.1609 -66.1609 -66.1603 -66.1603 -66.1599 -66.1599
   -30.5442 -30.5442 -30.5411 -30.5411 -30.5189 -30.5189 -30.5176 -30.5176
   -30.5143 -30.5143 -30.5134 -30.5134 -30.4732 -30.4732 -30.4684 -30.4684
   -30.4444 -30.4444 -30.4353 -30.4353 -30.4163 -30.4163 -30.4089 -30.4089
   -20.3216 -20.3216 -20.3215 -20.3215 -20.3214 -20.3214 -20.3213 -20.3213
   -20.3006 -20.3006 -20.3002 -20.3002 -20.3001 -20.3001 -20.2997 -20.2997
   -20.2970 -20.2970 -20.2965 -20.2965 -20.2964 -20.2964 -20.2958 -20.2958
   -20.2935 -20.2935 -20.2933 -20.2933 -20.2902 -20.2902 -20.2899 -20.2899
   -20.2886 -20.2886 -20.2883 -20.2883 -20.2849 -20.2849 -20.2848 -20.2848
   -20.2840 -20.2840 -20.2840 -20.2840 -20.2823 -20.2823 -20.2820 -20.2820
   -20.2745 -20.2745 -20.2743 -20.2743 -20.2731 -20.2731 -20.2729 -20.2729
    -9.6734  -9.6734  -9.4526  -9.4526  -9.0280  -9.0280  -8.8122  -8.8121
    -8.6905  -8.6905  -8.6625  -8.6625  -8.6008  -8.6008  -8.5203  -8.5203
    -7.7952  -7.7952  -7.7418  -7.7418  -7.6617  -7.6617  -7.6096  -7.6096
     1.2615   1.2615   1.2724   1.2724   1.7884   1.7884   1.7998   1.7998
     2.6916   2.6916   2.9176   2.9176   3.0169   3.0170   3.0591   3.0591
     3.1261   3.1261   3.2340   3.2340   3.4029   3.4030   3.7324   3.7324
     3.8698   3.8698   4.4477   4.4477   4.6654   4.6654   4.9288   4.9288
     5.1998   5.1999   5.2048   5.2048   5.2654   5.2654   5.8089   5.8089
     5.8313   5.8313   6.0388   6.0388   6.0512   6.0512   6.1942   6.1942
     6.2402   6.2402   6.3262   6.3262   6.5121   6.5121   6.6221   6.6221
     6.7992   6.7992   7.0048   7.0048   7.0425   7.0425   7.4511   7.4511
     7.4768   7.4768   7.6577   7.6577   7.7324   7.7324   8.0773   8.0773
     9.9318   9.9318  11.2382  11.2382  11.3277  11.3277  11.5970  11.5970
    11.7326  11.7326  12.5537  12.5537  12.6121  12.6121  12.9067  12.9067
    12.9411  12.9411  13.1757  13.1757  13.3882  13.3882  13.7169  13.7169
    14.5207  14.5207  15.0075  15.0075  15.7265  15.7265  15.8494  15.8494
    16.7871  16.7871  17.9252  17.9252  18.2490

          k = 0.0000 0.1575 0.0000 ( 62231 PWs)   bands (ev):

   -66.1618 -66.1615 -66.1608 -66.1608 -66.1605 -66.1604 -66.1598 -66.1594
   -30.5687 -30.5666 -30.5629 -30.5610 -30.5459 -30.5424 -30.5410 -30.5380
   -30.4816 -30.4792 -30.4749 -30.4708 -30.4682 -30.4641 -30.4541 -30.4492
   -30.4475 -30.4428 -30.4374 -30.4304 -30.4229 -30.4162 -30.4147 -30.4087
   -20.3219 -20.3218 -20.3217 -20.3216 -20.3214 -20.3213 -20.3212 -20.3211
   -20.3009 -20.3005 -20.3004 -20.3002 -20.3001 -20.2998 -20.2997 -20.2994
   -20.2971 -20.2968 -20.2967 -20.2965 -20.2963 -20.2962 -20.2960 -20.2957
   -20.2933 -20.2931 -20.2928 -20.2926 -20.2902 -20.2901 -20.2899 -20.2897
   -20.2894 -20.2889 -20.2885 -20.2883 -20.2882 -20.2881 -20.2878 -20.2878
   -20.2828 -20.2828 -20.2823 -20.2823 -20.2813 -20.2811 -20.2800 -20.2798
   -20.2753 -20.2751 -20.2738 -20.2737 -20.2737 -20.2734 -20.2723 -20.2721
    -9.9817  -9.7972  -9.5560  -9.4861  -9.4227  -9.3260  -9.1459  -9.1291
    -8.7776  -8.6828  -8.6817  -8.6764  -7.9009  -7.8717  -7.8178  -7.8009
    -7.7776  -7.7670  -7.7575  -7.7429  -7.6974  -7.6855  -7.6846  -7.6838
     1.0402   1.0467   1.1233   1.1320   1.2535   1.2538   1.4557   1.5067
     1.9893   2.0394   2.0721   2.1600   2.2586   2.3240   2.7001   2.7099
     2.8436   2.8493   3.9436   4.0008   4.0748   4.1527   4.5991   4.6169
     4.6272   4.6572   4.7057   5.1047   5.1378   5.1778   5.2020   5.3192
     5.3646   5.5026   5.5335   5.6084   5.6160   5.6419   5.6746   5.7416
     5.7541   5.8466   5.8580   5.9329   5.9900   5.9993   6.0638   6.0664
     6.0907   6.2241   6.3437   6.4136   6.5633   6.7426   6.7658   6.8531
     6.8888   6.9054   6.9868   6.9982   7.0047   7.0322   7.1196   7.1353
     7.2270   7.2332   7.8003   7.8167   7.9906   8.0244   8.0814   8.1026
     9.4667   9.4810  10.1446  10.1463  10.1620  10.1744  12.0391  12.2085
    12.2796  12.3465  12.4615  12.4906  12.5146  12.5193  12.6780  12.9594
    13.2156  13.3052  13.3355  13.4463  13.7138  13.7487  13.9785  13.9840
    14.4527  14.6400  14.7538  15.0029  15.4354  15.4668  15.7092  16.0627
    16.0769  16.5965  17.1098  17.1809  17.4913

          k = 0.0000 0.1575 0.1667 ( 62237 PWs)   bands (ev):

   -66.1617 -66.1614 -66.1609 -66.1607 -66.1605 -66.1604 -66.1598 -66.1595
   -30.5622 -30.5603 -30.5564 -30.5547 -30.5453 -30.5418 -30.5414 -30.5384
   -30.4850 -30.4819 -30.4748 -30.4745 -30.4707 -30.4702 -30.4582 -30.4527
   -30.4472 -30.4432 -30.4370 -30.4313 -30.4225 -30.4168 -30.4143 -30.4092
   -20.3218 -20.3218 -20.3216 -20.3215 -20.3214 -20.3213 -20.3212 -20.3211
   -20.3009 -20.3005 -20.3004 -20.3002 -20.3001 -20.2999 -20.2997 -20.2994
   -20.2971 -20.2968 -20.2967 -20.2964 -20.2963 -20.2962 -20.2960 -20.2957
   -20.2933 -20.2931 -20.2929 -20.2927 -20.2902 -20.2901 -20.2900 -20.2897
   -20.2893 -20.2889 -20.2884 -20.2883 -20.2880 -20.2876 -20.2873 -20.2872
   -20.2829 -20.2827 -20.2825 -20.2823 -20.2816 -20.2815 -20.2805 -20.2803
   -20.2752 -20.2750 -20.2738 -20.2738 -20.2736 -20.2736 -20.2724 -20.2722
    -9.9256  -9.7364  -9.5025  -9.4719  -9.3393  -9.3306  -9.1078  -9.0928
    -8.7887  -8.6825  -8.6766  -8.6720  -7.9944  -7.9944  -7.8891  -7.8774
    -7.8396  -7.7947  -7.7814  -7.7621  -7.7218  -7.6933  -7.6899  -7.6840
     1.1721   1.1760   1.2553   1.2561   1.3932   1.3951   1.5738   1.6472
     1.9929   2.0425   2.0648   2.1760   2.3481   2.4153   2.7180   2.7926
     2.8355   2.9355   3.9576   4.0307   4.0545   4.1358   4.2803   4.2983
     4.6576   4.6609   4.6955   4.7946   4.8575   5.1420   5.1920   5.2181
     5.2784   5.2997   5.4646   5.4723   5.5425   5.5802   5.6505   5.7022
     5.7784   5.8069   5.8505   5.9467   5.9862   5.9963   6.0686   6.1269
     6.1724   6.2742   6.4514   6.5511   6.7318   6.7408   6.7900   6.8289
     6.8574   6.8740   6.9197   6.9626   6.9832   6.9876   6.9882   7.0483
     7.1045   7.1199   7.7952   7.8047   7.9994   8.0292   8.0397   8.0655
     9.7757   9.7863  10.1466  10.1792  10.3736  10.4166  12.1115  12.1819
    12.3399  12.3482  12.3881  12.3906  12.5600  12.5735  12.7270  12.9058
    13.1015  13.2209  13.2764  13.4322  13.7149  13.7954  13.8257  13.8761
    14.4979  14.7239  14.7898  15.1100  15.4695  15.5482  15.6845  16.0381
    16.3865  16.7613  16.9099  17.3015  17.5555

          k = 0.0000 0.1575 0.3333 ( 62284 PWs)   bands (ev):

   -66.1616 -66.1612 -66.1611 -66.1607 -66.1605 -66.1602 -66.1600 -66.1597
   -30.5469 -30.5467 -30.5424 -30.5407 -30.5399 -30.5395 -30.5369 -30.5366
   -30.4972 -30.4930 -30.4929 -30.4887 -30.4730 -30.4685 -30.4657 -30.4599
   -30.4464 -30.4440 -30.4360 -30.4329 -30.4215 -30.4182 -30.4134 -30.4105
   -20.3217 -20.3217 -20.3215 -20.3215 -20.3215 -20.3214 -20.3213 -20.3212
   -20.3007 -20.3004 -20.3004 -20.3003 -20.3000 -20.3000 -20.2999 -20.2996
   -20.2970 -20.2969 -20.2966 -20.2964 -20.2964 -20.2963 -20.2959 -20.2958
   -20.2933 -20.2931 -20.2930 -20.2928 -20.2902 -20.2901 -20.2900 -20.2899
   -20.2891 -20.2888 -20.2885 -20.2884 -20.2866 -20.2864 -20.2858 -20.2858
   -20.2834 -20.2833 -20.2826 -20.2825 -20.2825 -20.2822 -20.2815 -20.2814
   -20.2749 -20.2748 -20.2741 -20.2739 -20.2735 -20.2733 -20.2727 -20.2726
    -9.7898  -9.5936  -9.5543  -9.3812  -9.2441  -9.0682  -8.9810  -8.9590
    -8.8343  -8.7032  -8.6573  -8.6312  -8.3158  -8.2958  -8.2375  -8.1970
    -7.8383  -7.7957  -7.7737  -7.7486  -7.7167  -7.7146  -7.7062  -7.6925
     1.2596   1.2614   1.2637   1.2652   1.9130   1.9346   2.0164   2.0536
     2.1162   2.2202   2.2825   2.4334   2.6095   2.6726   2.7449   2.8191
     3.0379   3.1543   3.6237   3.7017   3.8557   3.9183   4.0636   4.1405
     4.2775   4.4170   4.4732   4.6055   4.6577   4.6775   4.7180   5.0126
     5.0194   5.0462   5.1858   5.2560   5.3607   5.4281   5.4878   5.7340
     5.7872   5.8767   5.8886   5.9041   5.9684   6.0612   6.0673   6.1109
     6.3520   6.3840   6.4616   6.5141   6.5632   6.6968   6.7109   6.7815
     6.8357   6.9058   6.9250   6.9433   7.0026   7.0053   7.0793   7.1194
     7.2520   7.3279   7.7148   7.7180   7.9033   7.9424   8.0179   8.0322
    10.1157  10.1457  10.4677  10.5568  10.9565  11.0222  11.9149  11.9935
    12.1510  12.3325  12.3581  12.4892  12.5177  12.6286  12.7262  12.7395
    12.7679  13.1814  13.2122  13.2515  13.4671  13.6253  13.7213  13.7973
    14.6161  14.7236  15.0877  15.3744  15.5865  15.6258  15.9597  16.0361
    16.3750  17.2282  17.2549  17.5465  17.7800

          k = 0.0000 0.1575-0.5000 ( 62234 PWs)   bands (ev):

   -66.1613 -66.1613 -66.1610 -66.1610 -66.1603 -66.1603 -66.1599 -66.1599
   -30.5440 -30.5440 -30.5413 -30.5413 -30.5185 -30.5185 -30.5176 -30.5176
   -30.5140 -30.5140 -30.5133 -30.5133 -30.4704 -30.4704 -30.4652 -30.4652
   -30.4452 -30.4452 -30.4346 -30.4346 -30.4199 -30.4199 -30.4120 -30.4120
   -20.3216 -20.3216 -20.3215 -20.3215 -20.3214 -20.3214 -20.3213 -20.3213
   -20.3006 -20.3006 -20.3002 -20.3002 -20.3001 -20.3001 -20.2998 -20.2998
   -20.2970 -20.2970 -20.2965 -20.2965 -20.2963 -20.2963 -20.2959 -20.2959
   -20.2932 -20.2932 -20.2930 -20.2930 -20.2901 -20.2901 -20.2900 -20.2900
   -20.2889 -20.2889 -20.2886 -20.2886 -20.2849 -20.2849 -20.2848 -20.2848
   -20.2840 -20.2840 -20.2840 -20.2840 -20.2823 -20.2823 -20.2820 -20.2820
   -20.2745 -20.2745 -20.2744 -20.2744 -20.2731 -20.2731 -20.2730 -20.2730
    -9.6500  -9.6499  -9.4614  -9.4614  -8.9764  -8.9764  -8.7866  -8.7866
    -8.6942  -8.6942  -8.6674  -8.6674  -8.5763  -8.5763  -8.5005  -8.5005
    -7.8168  -7.8168  -7.7440  -7.7440  -7.7284  -7.7284  -7.7046  -7.7046
     1.2669   1.2669   1.2724   1.2724   1.9717   1.9717   2.0460   2.0460
     2.7539   2.7539   2.9277   2.9277   3.0140   3.0140   3.0731   3.0731
     3.1245   3.1245   3.2643   3.2643   3.3955   3.3955   3.7558   3.7559
     3.9266   3.9266   4.2700   4.2700   4.5105   4.5105   4.7663   4.7663
     5.1681   5.1682   5.1753   5.1753   5.2597   5.2597   5.5820   5.5820
     5.8174   5.8174   5.9260   5.9260   6.0399   6.0399   6.1669   6.1669
     6.2879   6.2879   6.3718   6.3718   6.5205   6.5205   6.7626   6.7626
     6.8757   6.8757   6.9247   6.9247   6.9939   6.9939   7.4611   7.4611
     7.4739   7.4739   7.6442   7.6442   7.7024   7.7024   8.0291   8.0291
    10.1400  10.1400  11.2448  11.2448  11.3270  11.3270  11.6558  11.6558
    11.7826  11.7826  12.4045  12.4045  12.6121  12.6121  12.8214  12.8214
    12.9565  12.9565  13.0787  13.0787  13.3683  13.3683  13.7443  13.7443
    14.6921  14.6921  15.3799  15.3799  15.8205  15.8205  15.8313  15.8313
    16.8345  16.8345  17.7255  17.7255  18.1956

          k = 0.0000 0.3150 0.0000 ( 62175 PWs)   bands (ev):

   -66.1617 -66.1615 -66.1607 -66.1607 -66.1605 -66.1605 -66.1597 -66.1595
   -30.5682 -30.5670 -30.5624 -30.5613 -30.5451 -30.5431 -30.5403 -30.5386
   -30.4762 -30.4729 -30.4691 -30.4666 -30.4648 -30.4609 -30.4526 -30.4505
   -30.4453 -30.4449 -30.4351 -30.4331 -30.4280 -30.4253 -30.4223 -30.4158
   -20.3219 -20.3218 -20.3216 -20.3216 -20.3213 -20.3213 -20.3212 -20.3211
   -20.3008 -20.3005 -20.3004 -20.3002 -20.3001 -20.2998 -20.2997 -20.2995
   -20.2970 -20.2968 -20.2967 -20.2964 -20.2964 -20.2961 -20.2961 -20.2958
   -20.2925 -20.2922 -20.2919 -20.2917 -20.2904 -20.2901 -20.2900 -20.2898
   -20.2898 -20.2896 -20.2891 -20.2891 -20.2886 -20.2884 -20.2879 -20.2879
   -20.2827 -20.2827 -20.2824 -20.2824 -20.2812 -20.2811 -20.2800 -20.2799
   -20.2753 -20.2752 -20.2738 -20.2737 -20.2736 -20.2735 -20.2723 -20.2722
    -9.9316  -9.8267  -9.5142  -9.4407  -9.4354  -9.3473  -9.1421  -9.1325
    -8.5826  -8.5252  -8.5242  -8.5199  -8.0454  -7.9920  -7.9757  -7.9438
    -7.8688  -7.8553  -7.8110  -7.8052  -7.7386  -7.7250  -7.7032  -7.6912
     1.0412   1.0448   1.1248   1.1297   1.2543   1.2554   1.4903   1.5056
     2.2633   2.3081   2.5175   2.6265   2.6873   2.7868   2.9129   2.9601
     3.0339   3.0869   3.5813   3.6117   3.7243   3.7580   4.1851   4.5045
     4.5656   4.6070   4.6226   4.6514   4.7217   4.8633   5.2383   5.2650
     5.2705   5.2961   5.4500   5.4591   5.6447   5.6730   5.7075   5.7214
     5.8159   5.8175   5.8914   5.9801   5.9910   5.9922   5.9986   6.0822
     6.0855   6.1453   6.3218   6.4719   6.4831   6.5807   6.7395   6.7656
     6.7980   6.8821   7.1106   7.1292   7.1589   7.1644   7.1683   7.1819
     7.2400   7.2661   7.7768   7.8092   7.8618   7.8681   7.8781   7.9047
     9.4785   9.4832  10.5721  10.6462  10.6471  10.6786  11.6849  11.8427
    11.8570  11.9223  12.4733  12.4922  12.5175  12.5306  12.7595  12.9415
    13.2680  13.3566  13.3897  13.4762  13.6062  13.7511  13.7734  13.7798
    14.9749  15.2138  15.2536  15.4287  15.4341  15.5000  15.9341  15.9721
    16.0880  16.6766  17.0894  17.4999  17.5848

          k = 0.0000 0.3150 0.1667 ( 62260 PWs)   bands (ev):

   -66.1617 -66.1615 -66.1608 -66.1606 -66.1606 -66.1604 -66.1598 -66.1596
   -30.5618 -30.5607 -30.5560 -30.5550 -30.5445 -30.5425 -30.5407 -30.5390
   -30.4806 -30.4768 -30.4754 -30.4712 -30.4662 -30.4605 -30.4553 -30.4502
   -30.4475 -30.4458 -30.4348 -30.4327 -30.4289 -30.4261 -30.4220 -30.4164
   -20.3218 -20.3218 -20.3216 -20.3216 -20.3214 -20.3213 -20.3212 -20.3211
   -20.3008 -20.3005 -20.3004 -20.3002 -20.3001 -20.2998 -20.2998 -20.2995
   -20.2970 -20.2967 -20.2967 -20.2964 -20.2963 -20.2961 -20.2961 -20.2958
   -20.2925 -20.2922 -20.2920 -20.2918 -20.2904 -20.2901 -20.2901 -20.2899
   -20.2898 -20.2896 -20.2892 -20.2891 -20.2880 -20.2879 -20.2873 -20.2873
   -20.2828 -20.2827 -20.2826 -20.2824 -20.2816 -20.2815 -20.2804 -20.2803
   -20.2752 -20.2751 -20.2738 -20.2737 -20.2736 -20.2736 -20.2724 -20.2723
    -9.8738  -9.7663  -9.4511  -9.4261  -9.3612  -9.3488  -9.1046  -9.0960
    -8.5931  -8.5309  -8.5217  -8.5148  -8.0613  -8.0176  -7.9894  -7.9819
    -7.9617  -7.9396  -7.8726  -7.8422  -7.8107  -7.8003  -7.7109  -7.6990
     1.1727   1.1751   1.2567   1.2575   1.3945   1.3972   1.6258   1.6459
     2.3523   2.3993   2.5249   2.6169   2.6768   2.7845   2.9192   3.0264
     3.0465   3.1753   3.6124   3.6771   3.7237   3.7484   4.1536   4.2663
     4.3014   4.5316   4.5638   4.6578   4.7393   4.8692   4.8953   5.0013
     5.1549   5.3112   5.3166   5.3168   5.4537   5.4579   5.6484   5.6488
     5.7343   5.7454   5.8208   5.9301   5.9774   5.9854   6.0106   6.0819
     6.2384   6.2866   6.4173   6.5372   6.5585   6.7248   6.7867   6.8735
     6.8841   6.9210   6.9631   6.9770   7.0225   7.0262   7.1550   7.1946
     7.2080   7.2379   7.7740   7.7968   7.8538   7.8544   7.8732   7.8774
     9.7958   9.7967  10.6495  10.6843  10.7475  10.8220  11.7769  11.8399
    11.9229  11.9406  12.3781  12.3898  12.5617  12.5754  12.8154  12.9486
    13.1652  13.2631  13.2701  13.4032  13.6043  13.6061  13.7189  13.7678
    15.0527  15.2130  15.4407  15.4524  15.5151  15.6061  15.9120  16.2509
    16.2823  16.6458  17.1574  17.2708  17.6292

          k = 0.0000 0.3150 0.3333 ( 62269 PWs)   bands (ev):

   -66.1615 -66.1613 -66.1610 -66.1608 -66.1605 -66.1603 -66.1600 -66.1598
   -30.5467 -30.5466 -30.5418 -30.5403 -30.5402 -30.5397 -30.5368 -30.5367
   -30.4952 -30.4931 -30.4909 -30.4888 -30.4650 -30.4605 -30.4583 -30.4523
   -30.4493 -30.4469 -30.4338 -30.4315 -30.4306 -30.4279 -30.4210 -30.4179
   -20.3217 -20.3217 -20.3215 -20.3215 -20.3215 -20.3214 -20.3213 -20.3212
   -20.3006 -20.3004 -20.3003 -20.3003 -20.3000 -20.3000 -20.2999 -20.2997
   -20.2969 -20.2968 -20.2967 -20.2965 -20.2963 -20.2962 -20.2960 -20.2959
   -20.2924 -20.2922 -20.2921 -20.2919 -20.2904 -20.2902 -20.2901 -20.2899
   -20.2899 -20.2896 -20.2893 -20.2892 -20.2866 -20.2865 -20.2858 -20.2858
   -20.2834 -20.2833 -20.2825 -20.2825 -20.2825 -20.2823 -20.2815 -20.2815
   -20.2749 -20.2748 -20.2741 -20.2740 -20.2735 -20.2734 -20.2727 -20.2726
    -9.7344  -9.6235  -9.5009  -9.4049  -9.1808  -9.0873  -8.9750  -8.9628
    -8.6477  -8.5644  -8.5106  -8.4917  -8.3314  -8.2798  -8.2676  -8.1816
    -8.0139  -7.9904  -7.9567  -7.9279  -7.7906  -7.7796  -7.7320  -7.7204
     1.2631   1.2639   1.2652   1.2654   2.0923   2.1152   2.2140   2.2801
     2.5318   2.5953   2.6311   2.6605   2.6779   2.8074   2.9372   3.0104
     3.2736   3.3641   3.6105   3.6358   3.7088   3.7223   3.7695   3.7953
     4.1309   4.3369   4.3822   4.4280   4.4654   4.5547   4.6119   4.6917
     4.7784   4.9375   5.0156   5.0376   5.2318   5.3127   5.3355   5.3516
     5.4393   5.5465   5.7687   5.9204   6.0588   6.0745   6.1047   6.1139
     6.4162   6.4290   6.4699   6.5707   6.6039   6.6923   6.6982   6.7093
     6.9105   6.9643   7.0489   7.0693   7.1200   7.1659   7.2079   7.2429
     7.2525   7.3355   7.7047   7.7143   7.7683   7.7817   7.8512   7.8675
    10.4599  10.4866  10.6561  10.7323  11.2273  11.2952  11.7997  11.9249
    11.9797  12.0159  12.0731  12.1934  12.5856  12.6414  12.6992  12.7396
    12.8275  13.0447  13.1498  13.2272  13.2912  13.5701  13.6108  13.7167
    15.1343  15.1989  15.5703  15.7801  15.8438  15.8983  16.1434  16.5412
    16.7315  16.7786  17.0784  17.4019  17.7191

          k = 0.0000 0.3150-0.5000 ( 62306 PWs)   bands (ev):

   -66.1612 -66.1612 -66.1610 -66.1610 -66.1602 -66.1602 -66.1600 -66.1600
   -30.5434 -30.5434 -30.5418 -30.5418 -30.5179 -30.5179 -30.5175 -30.5175
   -30.5134 -30.5134 -30.5132 -30.5132 -30.4631 -30.4631 -30.4561 -30.4561
   -30.4481 -30.4481 -30.4323 -30.4323 -30.4299 -30.4299 -30.4195 -30.4195
   -20.3216 -20.3216 -20.3216 -20.3215 -20.3214 -20.3214 -20.3214 -20.3213
   -20.3005 -20.3005 -20.3002 -20.3002 -20.3001 -20.3001 -20.2999 -20.2999
   -20.2969 -20.2969 -20.2966 -20.2966 -20.2962 -20.2962 -20.2960 -20.2960
   -20.2923 -20.2923 -20.2921 -20.2921 -20.2903 -20.2903 -20.2900 -20.2900
   -20.2897 -20.2897 -20.2893 -20.2893 -20.2849 -20.2849 -20.2849 -20.2848
   -20.2840 -20.2840 -20.2840 -20.2840 -20.2822 -20.2822 -20.2821 -20.2821
   -20.2745 -20.2745 -20.2744 -20.2744 -20.2731 -20.2731 -20.2730 -20.2730
    -9.5941  -9.5940  -9.4884  -9.4884  -8.8552  -8.8552  -8.7374  -8.7374
    -8.7088  -8.7088  -8.6822  -8.6822  -8.4736  -8.4736  -8.4189  -8.4189
    -8.0044  -8.0044  -7.9455  -7.9455  -7.7613  -7.7613  -7.7498  -7.7498
     1.2715   1.2715   1.2726   1.2726   2.5132   2.5132   2.6402   2.6402
     2.9018   2.9018   2.9636   2.9636   3.0234   3.0234   3.1142   3.1142
     3.1276   3.1276   3.3484   3.3484   3.3693   3.3693   3.6953   3.6953
     4.0677   4.0677   4.0682   4.0683   4.1379   4.1380   4.3368   4.3368
     4.9076   4.9076   5.0618   5.0618   5.1635   5.1635   5.2352   5.2352
     5.4053   5.4053   5.8465   5.8465   6.1276   6.1276   6.1732   6.1732
     6.3823   6.3823   6.4234   6.4234   6.5288   6.5288   6.6787   6.6787
     7.0969   7.0969   7.1097   7.1097   7.1489   7.1489   7.4658   7.4658
     7.4799   7.4799   7.5721   7.5721   7.6082   7.6082   7.8583   7.8583
    10.6515  10.6515  11.2567  11.2567  11.3281  11.3281  11.7679  11.7679
    11.9457  11.9457  12.0750  12.0750  12.5116  12.5116  12.5763  12.5763
    12.9245  12.9245  12.9569  12.9569  13.3754  13.3754  13.6383  13.6383
    15.1739  15.1739  15.7257  15.7257  16.1733  16.1733  16.3336  16.3336
    16.9965  16.9965  17.3304  17.3304  17.9085

          k = 0.0000-0.4725 0.0000 ( 62212 PWs)   bands (ev):

   -66.1616 -66.1616 -66.1606 -66.1606 -66.1606 -66.1606 -66.1596 -66.1596
   -30.5676 -30.5676 -30.5619 -30.5619 -30.5441 -30.5441 -30.5394 -30.5394
   -30.4714 -30.4714 -30.4673 -30.4673 -30.4571 -30.4571 -30.4498 -30.4498
   -30.4466 -30.4466 -30.4363 -30.4363 -30.4303 -30.4303 -30.4232 -30.4232
   -20.3218 -20.3218 -20.3216 -20.3216 -20.3213 -20.3213 -20.3211 -20.3211
   -20.3007 -20.3007 -20.3003 -20.3003 -20.2999 -20.2999 -20.2996 -20.2996
   -20.2969 -20.2969 -20.2965 -20.2965 -20.2962 -20.2962 -20.2959 -20.2959
   -20.2913 -20.2913 -20.2910 -20.2910 -20.2907 -20.2907 -20.2906 -20.2906
   -20.2899 -20.2899 -20.2896 -20.2896 -20.2886 -20.2886 -20.2879 -20.2879
   -20.2826 -20.2826 -20.2825 -20.2825 -20.2812 -20.2812 -20.2799 -20.2799
   -20.2752 -20.2752 -20.2738 -20.2738 -20.2736 -20.2735 -20.2722 -20.2722
    -9.8741  -9.8740  -9.4717  -9.4717  -9.3843  -9.3843  -9.1373  -9.1373
    -8.3168  -8.3168  -8.2779  -8.2779  -8.2669  -8.2669  -8.2598  -8.2598
    -7.8648  -7.8648  -7.8096  -7.8096  -7.7325  -7.7325  -7.6985  -7.6985
     1.0428   1.0428   1.1271   1.1271   1.2552   1.2552   1.5019   1.5019
     2.2865   2.2865   3.0950   3.0950   3.2080   3.2080   3.2376   3.2376
     3.2733   3.2733   3.4424   3.4424   3.6719   3.6719   3.7105   3.7105
     3.8525   3.8525   4.6193   4.6193   4.6344   4.6345   5.3334   5.3334
     5.4080   5.4080   5.4560   5.4560   5.5245   5.5245   5.7952   5.7952
     5.8361   5.8361   5.8396   5.8397   5.9900   5.9900   6.0465   6.0465
     6.1143   6.1143   6.2770   6.2770   6.5948   6.5948   6.6329   6.6329
     6.8397   6.8397   7.1294   7.1294   7.2203   7.2203   7.5110   7.5110
     7.5211   7.5211   7.5651   7.5651   7.5900   7.5900   7.8210   7.8210
     9.4831   9.4831  11.1435  11.1435  11.2168  11.2168  11.2716  11.2716
    11.3698  11.3698  12.4868  12.4868  12.5283  12.5283  12.8662  12.8662
    13.4112  13.4112  13.4657  13.4657  13.5476  13.5476  13.6579  13.6579
    15.3832  15.3832  15.5894  15.5894  15.6704  15.6704  15.7274  15.7274
    16.3267  16.3267  17.8334  17.8334  18.2350

          k = 0.0000-0.4725 0.1667 ( 62246 PWs)   bands (ev):

   -66.1616 -66.1616 -66.1607 -66.1607 -66.1605 -66.1605 -66.1597 -66.1597
   -30.5612 -30.5612 -30.5554 -30.5554 -30.5434 -30.5434 -30.5398 -30.5398
   -30.4771 -30.4771 -30.4728 -30.4728 -30.4567 -30.4567 -30.4508 -30.4508
   -30.4463 -30.4463 -30.4378 -30.4378 -30.4299 -30.4299 -30.4240 -30.4240
   -20.3218 -20.3218 -20.3216 -20.3216 -20.3213 -20.3213 -20.3212 -20.3212
   -20.3006 -20.3006 -20.3003 -20.3003 -20.3000 -20.3000 -20.2997 -20.2997
   -20.2969 -20.2969 -20.2966 -20.2966 -20.2962 -20.2962 -20.2960 -20.2960
   -20.2914 -20.2914 -20.2911 -20.2911 -20.2908 -20.2908 -20.2906 -20.2906
   -20.2899 -20.2899 -20.2897 -20.2897 -20.2880 -20.2880 -20.2873 -20.2873
   -20.2827 -20.2827 -20.2825 -20.2825 -20.2816 -20.2816 -20.2804 -20.2804
   -20.2751 -20.2751 -20.2737 -20.2737 -20.2737 -20.2737 -20.2724 -20.2723
    -9.8146  -9.8146  -9.3991  -9.3991  -9.3809  -9.3809  -9.1003  -9.1003
    -8.3222  -8.3222  -8.2874  -8.2874  -8.2681  -8.2681  -8.2623  -8.2623
    -7.9804  -7.9804  -7.8644  -7.8644  -7.8072  -7.8072  -7.7063  -7.7063
     1.1737   1.1737   1.2575   1.2575   1.3962   1.3962   1.6414   1.6414
     2.3775   2.3775   3.1203   3.1204   3.1955   3.1955   3.2690   3.2690
     3.3175   3.3175   3.4277   3.4277   3.6840   3.6840   3.7257   3.7257
     3.8757   3.8757   4.2815   4.2815   4.6680   4.6680   5.0579   5.0579
     5.2390   5.2390   5.3352   5.3352   5.5045   5.5045   5.5140   5.5140
     5.7211   5.7211   5.7992   5.7992   5.9704   5.9704   6.0751   6.0751
     6.2937   6.2937   6.3888   6.3888   6.6055   6.6055   6.8391   6.8391
     6.9260   6.9260   6.9722   6.9722   7.0470   7.0470   7.5096   7.5096
     7.5242   7.5242   7.5552   7.5552   7.5803   7.5803   7.8133   7.8133
     9.8001   9.8001  11.2508  11.2508  11.2830  11.2830  11.3064  11.3064
    11.4103  11.4103  12.3847  12.3847  12.5722  12.5722  12.9219  12.9219
    13.2925  13.2925  13.3677  13.3677  13.4132  13.4132  13.6785  13.6785
    15.3839  15.3839  15.6532  15.6532  15.7935  15.7935  15.9924  15.9924
    16.3917  16.3917  17.7773  17.7785  17.8547

          k = 0.0000-0.4725 0.3333 ( 62268 PWs)   bands (ev):

   -66.1614 -66.1614 -66.1609 -66.1609 -66.1604 -66.1604 -66.1599 -66.1599
   -30.5466 -30.5466 -30.5410 -30.5410 -30.5399 -30.5399 -30.5368 -30.5367
   -30.4937 -30.4937 -30.4894 -30.4894 -30.4557 -30.4557 -30.4526 -30.4526
   -30.4451 -30.4451 -30.4406 -30.4406 -30.4289 -30.4289 -30.4257 -30.4257
   -20.3217 -20.3217 -20.3215 -20.3215 -20.3214 -20.3214 -20.3213 -20.3212
   -20.3005 -20.3005 -20.3002 -20.3002 -20.3001 -20.3001 -20.2998 -20.2998
   -20.2968 -20.2968 -20.2966 -20.2966 -20.2962 -20.2962 -20.2960 -20.2960
   -20.2913 -20.2913 -20.2911 -20.2911 -20.2910 -20.2910 -20.2908 -20.2908
   -20.2898 -20.2898 -20.2897 -20.2897 -20.2866 -20.2866 -20.2858 -20.2858
   -20.2834 -20.2834 -20.2825 -20.2825 -20.2824 -20.2824 -20.2815 -20.2815
   -20.2748 -20.2748 -20.2740 -20.2740 -20.2734 -20.2734 -20.2727 -20.2726
    -9.6726  -9.6726  -9.4457  -9.4457  -9.1236  -9.1236  -8.9684  -8.9684
    -8.4135  -8.4135  -8.3825  -8.3825  -8.2763  -8.2763  -8.2538  -8.2538
    -8.2051  -8.2051  -8.1271  -8.1271  -7.7870  -7.7870  -7.7277  -7.7277
     1.2640   1.2640   1.2658   1.2658   2.1118   2.1118   2.2691   2.2691
     2.6389   2.6389   3.1522   3.1522   3.2005   3.2005   3.2896   3.2896
     3.3755   3.3755   3.4580   3.4580   3.6435   3.6435   3.7058   3.7058
     3.8047   3.8047   3.9108   3.9108   4.4699   4.4699   4.6019   4.6019
     4.7900   4.7900   4.8703   4.8703   5.1092   5.1092   5.3186   5.3186
     5.5551   5.5551   5.7167   5.7167   6.0852   6.0852   6.1333   6.1333
     6.4321   6.4321   6.5061   6.5061   6.6003   6.6003   6.7061   6.7061
     6.9790   6.9790   7.1726   7.1726   7.1924   7.1924   7.4788   7.4788
     7.5097   7.5097   7.5448   7.5448   7.5655   7.5655   7.7383   7.7383
    10.4960  10.4960  11.2736  11.2736  11.3277  11.3277  11.6431  11.6431
    11.7319  11.7319  11.9899  11.9899  12.7056  12.7056  12.7705  12.7705
    12.8447  12.8447  13.0871  13.0871  13.4207  13.4207  13.6020  13.6020
    15.4388  15.4388  15.6122  15.6122  16.3689  16.3689  16.6231  16.6232
    16.6932  16.6933  17.3015  17.3015  17.6815

          k = 0.0000-0.4725-0.5000 ( 62284 PWs)   bands (ev):

   -66.1611 -66.1611 -66.1611 -66.1611 -66.1601 -66.1601 -66.1601 -66.1601
   -30.5426 -30.5426 -30.5426 -30.5426 -30.5176 -30.5176 -30.5176 -30.5175
   -30.5131 -30.5131 -30.5131 -30.5131 -30.4543 -30.4543 -30.4543 -30.4543
   -30.4432 -30.4432 -30.4432 -30.4432 -30.4274 -30.4274 -30.4274 -30.4274
   -20.3216 -20.3216 -20.3216 -20.3216 -20.3214 -20.3214 -20.3214 -20.3214
   -20.3003 -20.3003 -20.3003 -20.3003 -20.3000 -20.3000 -20.3000 -20.3000
   -20.2967 -20.2967 -20.2967 -20.2967 -20.2961 -20.2961 -20.2961 -20.2961
   -20.2912 -20.2912 -20.2912 -20.2912 -20.2909 -20.2909 -20.2909 -20.2909
   -20.2898 -20.2898 -20.2898 -20.2898 -20.2849 -20.2849 -20.2849 -20.2849
   -20.2840 -20.2840 -20.2840 -20.2840 -20.2822 -20.2822 -20.2822 -20.2822
   -20.2745 -20.2745 -20.2744 -20.2744 -20.2730 -20.2730 -20.2730 -20.2730
    -9.5341  -9.5341  -9.5341  -9.5341  -8.7533  -8.7533  -8.7533  -8.7533
    -8.7042  -8.7042  -8.7041  -8.7041  -8.2657  -8.2657  -8.2657  -8.2657
    -8.2229  -8.2229  -8.2229  -8.2229  -7.7572  -7.7572  -7.7572  -7.7572
     1.2727   1.2727   1.2727   1.2727   2.9229   2.9229   2.9230   2.9230
     3.0329   3.0329   3.0330   3.0330   3.1896   3.1896   3.1896   3.1897
     3.3165   3.3165   3.3165   3.3165   3.4944   3.4944   3.4944   3.4944
     3.6904   3.6904   3.6904   3.6904   4.3606   4.3606   4.3606   4.3606
     4.4742   4.4742   4.4742   4.4742   5.1726   5.1726   5.1726   5.1726
     5.6185   5.6185   5.6185   5.6185   6.1701   6.1701   6.1701   6.1701
     6.4236   6.4236   6.4236   6.4236   6.5622   6.5622   6.5622   6.5622
     7.2987   7.2987   7.2987   7.2987   7.4044   7.4044   7.4045   7.4045
     7.4680   7.4680   7.4680   7.4680   7.6034   7.6034   7.6034   7.6034
    11.1885  11.1885  11.1885  11.1885  11.4090  11.4090  11.4090  11.4090
    12.2026  12.2026  12.2026  12.2026  12.2591  12.2591  12.2591  12.2591
    12.9249  12.9249  12.9249  12.9249  13.4708  13.4708  13.4708  13.4708
    15.5354  15.5354  15.5354  15.5354  16.8354  16.8354  16.8354  16.8354
    17.3240  17.3240  17.3240  17.3241  17.3932

          k = 0.1667 0.0000 0.1667 ( 62234 PWs)   bands (ev):

   -66.1617 -66.1613 -66.1608 -66.1608 -66.1604 -66.1604 -66.1599 -66.1595
   -30.5619 -30.5597 -30.5569 -30.5549 -30.5395 -30.5358 -30.5348 -30.5318
   -30.4866 -30.4847 -30.4791 -30.4743 -30.4731 -30.4709 -30.4613 -30.4539
   -30.4523 -30.4491 -30.4426 -30.4364 -30.4184 -30.4130 -30.4121 -30.4071
   -20.3218 -20.3217 -20.3217 -20.3216 -20.3214 -20.3213 -20.3212 -20.3211
   -20.3009 -20.3006 -20.3004 -20.3003 -20.3001 -20.3000 -20.2997 -20.2994
   -20.2971 -20.2968 -20.2966 -20.2965 -20.2963 -20.2963 -20.2960 -20.2957
   -20.2936 -20.2934 -20.2932 -20.2930 -20.2899 -20.2898 -20.2893 -20.2891
   -20.2891 -20.2885 -20.2880 -20.2879 -20.2879 -20.2874 -20.2873 -20.2872
   -20.2833 -20.2832 -20.2828 -20.2827 -20.2816 -20.2815 -20.2806 -20.2804
   -20.2751 -20.2750 -20.2739 -20.2737 -20.2737 -20.2735 -20.2726 -20.2723
    -9.8965  -9.6741  -9.5085  -9.4485  -9.3373  -9.2431  -9.0694  -9.0494
    -8.8709  -8.7298  -8.7198  -8.7159  -8.0023  -7.9913  -7.9367  -7.9221
    -7.8938  -7.8872  -7.8491  -7.8143  -7.6885  -7.6414  -7.6333  -7.5921
     1.3039   1.3130   1.3923   1.3959   1.4877   1.5089   1.5776   1.7735
     1.8115   1.8236   1.8620   2.0334   2.4281   2.5132   2.7213   2.7387
     2.8447   2.8710   4.0486   4.0857   4.2264   4.2665   4.3426   4.3611
     4.3720   4.4470   4.6635   4.7476   4.7724   4.9221   5.1191   5.2277
     5.2488   5.3018   5.3272   5.5126   5.5642   5.5738   5.6296   5.6675
     5.6754   5.8051   5.8282   5.9171   6.0149   6.0869   6.1279   6.1450
     6.3455   6.4197   6.5133   6.6153   6.6276   6.7678   6.7697   6.7868
     6.7944   6.8713   6.8753   6.8923   6.9008   6.9520   6.9690   7.0375
     7.0999   7.1651   7.7885   7.7920   8.0040   8.0486   8.1013   8.1392
     9.9654  10.0096  10.1890  10.2384  10.2492  10.3525  12.1717  12.3165
    12.4058  12.4245  12.4352  12.4710  12.5448  12.5961  12.6884  12.9191
    13.0153  13.1343  13.3463  13.3714  13.6381  13.6693  13.9129  13.9511
    14.2972  14.4555  14.5825  15.1628  15.2481  15.5704  15.5881  16.3778
    16.3876  16.9476  16.9697  17.1654  17.6447

          k = 0.1667 0.0000 0.3333 ( 62265 PWs)   bands (ev):

   -66.1615 -66.1611 -66.1610 -66.1606 -66.1606 -66.1602 -66.1601 -66.1597
   -30.5448 -30.5434 -30.5394 -30.5387 -30.5364 -30.5362 -30.5329 -30.5328
   -30.4980 -30.4945 -30.4925 -30.4890 -30.4776 -30.4712 -30.4697 -30.4618
   -30.4516 -30.4497 -30.4418 -30.4386 -30.4174 -30.4143 -30.4112 -30.4083
   -20.3217 -20.3217 -20.3216 -20.3215 -20.3215 -20.3214 -20.3213 -20.3212
   -20.3008 -20.3004 -20.3004 -20.3002 -20.3001 -20.2999 -20.2998 -20.2996
   -20.2971 -20.2969 -20.2965 -20.2965 -20.2964 -20.2963 -20.2960 -20.2958
   -20.2936 -20.2934 -20.2934 -20.2932 -20.2899 -20.2899 -20.2894 -20.2892
   -20.2889 -20.2883 -20.2882 -20.2880 -20.2866 -20.2863 -20.2858 -20.2858
   -20.2837 -20.2833 -20.2831 -20.2826 -20.2826 -20.2825 -20.2817 -20.2816
   -20.2749 -20.2747 -20.2741 -20.2738 -20.2736 -20.2734 -20.2729 -20.2727
    -9.7531  -9.5160  -9.5025  -9.2906  -9.2853  -9.0754  -8.9522  -8.9349
    -8.9121  -8.7326  -8.6988  -8.6792  -8.3048  -8.2921  -8.2441  -8.2097
    -7.9338  -7.9008  -7.8768  -7.8418  -7.6796  -7.6519  -7.6262  -7.6015
     1.4795   1.4857   1.5185   1.5208   1.7485   1.7593   1.7970   1.8454
     2.1212   2.1879   2.2765   2.3910   2.7016   2.7435   2.8066   2.8372
     2.9716   3.0840   3.6673   3.7756   3.8890   3.9461   4.1844   4.2219
     4.2429   4.4315   4.4877   4.5523   4.6016   4.6752   4.7055   4.7910
     4.9432   4.9918   5.0689   5.1411   5.2084   5.3217   5.6053   5.6588
     5.6886   5.8296   5.8722   5.9242   5.9458   5.9877   6.0576   6.1417
     6.3768   6.4586   6.5240   6.5810   6.6662   6.6815   6.7318   6.7883
     6.8557   6.8762   6.8850   6.9469   6.9657   7.0357   7.1155   7.1468
     7.2676   7.3410   7.7148   7.7213   7.9473   7.9985   8.0413   8.0510
    10.1704  10.1746  10.6059  10.6924  10.8710  10.9665  11.9822  12.0504
    12.2104  12.3414  12.4628  12.5271  12.5764  12.5853  12.7424  12.7511
    12.7893  13.0486  13.1929  13.2807  13.5525  13.5728  13.6834  13.7236
    14.3990  14.5572  14.7205  15.1564  15.4642  15.8397  16.0563  16.3017
    16.4329  17.2425  17.4618  17.5669  17.6459

          k = 0.1667 0.0000-0.5000 ( 62322 PWs)   bands (ev):

   -66.1613 -66.1613 -66.1609 -66.1609 -66.1604 -66.1604 -66.1600 -66.1600
   -30.5379 -30.5379 -30.5350 -30.5350 -30.5185 -30.5185 -30.5171 -30.5171
   -30.5146 -30.5145 -30.5136 -30.5136 -30.4749 -30.4749 -30.4678 -30.4678
   -30.4506 -30.4506 -30.4404 -30.4404 -30.4159 -30.4159 -30.4098 -30.4098
   -20.3216 -20.3216 -20.3215 -20.3215 -20.3214 -20.3214 -20.3213 -20.3213
   -20.3006 -20.3006 -20.3003 -20.3003 -20.3000 -20.3000 -20.2998 -20.2998
   -20.2970 -20.2970 -20.2965 -20.2965 -20.2964 -20.2964 -20.2959 -20.2959
   -20.2935 -20.2935 -20.2933 -20.2933 -20.2899 -20.2899 -20.2893 -20.2893
   -20.2886 -20.2886 -20.2882 -20.2882 -20.2849 -20.2849 -20.2847 -20.2847
   -20.2841 -20.2841 -20.2840 -20.2840 -20.2827 -20.2827 -20.2824 -20.2824
   -20.2745 -20.2745 -20.2743 -20.2743 -20.2733 -20.2733 -20.2731 -20.2731
    -9.6039  -9.6039  -9.3697  -9.3697  -9.0458  -9.0458  -8.7900  -8.7899
    -8.6928  -8.6927  -8.6643  -8.6643  -8.5918  -8.5917  -8.5239  -8.5239
    -7.9066  -7.9066  -7.8708  -7.8708  -7.6660  -7.6660  -7.6141  -7.6141
     1.4891   1.4891   1.5324   1.5324   1.7825   1.7825   1.8261   1.8261
     2.7644   2.7644   2.9464   2.9464   3.0177   3.0177   3.0891   3.0891
     3.1282   3.1282   3.3021   3.3021   3.4530   3.4530   3.7496   3.7496
     3.8597   3.8597   4.4099   4.4099   4.5568   4.5568   4.8162   4.8162
     4.8995   4.8995   4.9832   4.9832   5.1445   5.1445   5.6780   5.6780
     5.7351   5.7351   5.7713   5.7713   5.9601   5.9602   6.1245   6.1245
     6.3674   6.3674   6.5888   6.5888   6.5995   6.5995   6.7972   6.7972
     6.8510   6.8511   6.8963   6.8963   6.9726   6.9726   7.4818   7.4818
     7.4998   7.4998   7.6746   7.6746   7.7333   7.7333   8.0492   8.0492
    10.1846  10.1846  11.3229  11.3229  11.4124  11.4124  11.6119  11.6119
    11.7483  11.7483  12.5141  12.5141  12.6144  12.6144  12.8362  12.8362
    12.9549  12.9549  13.1583  13.1583  13.2757  13.2757  13.6798  13.6798
    14.5027  14.5027  14.9836  14.9836  15.8933  15.8933  16.1118  16.1118
    16.8719  16.8719  17.8862  17.8863  18.0320

          k = 0.1667 0.1575 0.1667 ( 62255 PWs)   bands (ev):

   -66.1617 -66.1613 -66.1608 -66.1608 -66.1605 -66.1604 -66.1599 -66.1596
   -30.5617 -30.5598 -30.5567 -30.5550 -30.5392 -30.5358 -30.5348 -30.5320
   -30.4846 -30.4824 -30.4761 -30.4744 -30.4710 -30.4696 -30.4608 -30.4531
   -30.4522 -30.4497 -30.4419 -30.4356 -30.4221 -30.4165 -30.4154 -30.4102
   -20.3218 -20.3218 -20.3216 -20.3216 -20.3214 -20.3213 -20.3212 -20.3211
   -20.3009 -20.3005 -20.3004 -20.3002 -20.3001 -20.2999 -20.2997 -20.2995
   -20.2971 -20.2968 -20.2966 -20.2965 -20.2963 -20.2963 -20.2960 -20.2958
   -20.2933 -20.2931 -20.2929 -20.2927 -20.2899 -20.2899 -20.2894 -20.2893
   -20.2891 -20.2887 -20.2883 -20.2882 -20.2879 -20.2876 -20.2873 -20.2873
   -20.2832 -20.2832 -20.2828 -20.2828 -20.2816 -20.2815 -20.2806 -20.2804
   -20.2751 -20.2750 -20.2739 -20.2737 -20.2737 -20.2735 -20.2726 -20.2724
    -9.8750  -9.6840  -9.4880  -9.4238  -9.3433  -9.2502  -9.0679  -9.0506
    -8.8012  -8.6790  -8.6697  -8.6684  -8.0072  -7.9900  -7.9391  -7.9263
    -7.8951  -7.8932  -7.8514  -7.8187  -7.7726  -7.7281  -7.7234  -7.6852
     1.3044   1.3122   1.3962   1.3974   1.5008   1.5110   1.6658   1.7742
     1.9970   2.0378   2.0700   2.1976   2.4354   2.5082   2.7985   2.8102
     2.9190   2.9373   3.9356   3.9869   4.0967   4.1543   4.2978   4.3350
     4.3605   4.3658   4.6100   4.7602   4.7968   4.9182   5.0288   5.1618
     5.2220   5.2664   5.3079   5.3284   5.4204   5.5314   5.5418   5.6243
     5.6773   5.7936   5.8877   5.9156   5.9507   6.0207   6.0821   6.1447
     6.3374   6.3645   6.5038   6.5769   6.6660   6.7101   6.7476   6.7849
     6.8143   6.8400   6.8731   6.9087   6.9633   6.9846   7.0256   7.0480
     7.1218   7.1699   7.7873   7.7926   7.9731   8.0051   8.0504   8.0666
     9.9984  10.0327  10.3349  10.3702  10.4039  10.4831  12.0855  12.2513
    12.3360  12.3658  12.4225  12.4414  12.4783  12.4938  12.7240  12.9323
    13.0146  13.1251  13.3419  13.3593  13.6515  13.7031  13.8220  13.8745
    14.5121  14.7563  14.8076  15.2535  15.5705  15.5808  15.6542  16.3380
    16.3599  16.8647  17.0418  17.0732  17.6085

          k = 0.1667 0.1575 0.3333 ( 62260 PWs)   bands (ev):

   -66.1615 -66.1611 -66.1610 -66.1606 -66.1606 -66.1603 -66.1601 -66.1598
   -30.5447 -30.5435 -30.5393 -30.5386 -30.5361 -30.5359 -30.5331 -30.5330
   -30.4969 -30.4933 -30.4925 -30.4890 -30.4747 -30.4683 -30.4674 -30.4594
   -30.4523 -30.4503 -30.4410 -30.4377 -30.4211 -30.4179 -30.4144 -30.4115
   -20.3217 -20.3217 -20.3216 -20.3215 -20.3215 -20.3214 -20.3213 -20.3212
   -20.3007 -20.3004 -20.3004 -20.3003 -20.3001 -20.3000 -20.2999 -20.2996
   -20.2970 -20.2969 -20.2966 -20.2965 -20.2964 -20.2963 -20.2960 -20.2958
   -20.2933 -20.2931 -20.2930 -20.2928 -20.2899 -20.2899 -20.2894 -20.2893
   -20.2891 -20.2886 -20.2885 -20.2883 -20.2866 -20.2864 -20.2858 -20.2858
   -20.2836 -20.2834 -20.2830 -20.2827 -20.2826 -20.2825 -20.2817 -20.2816
   -20.2748 -20.2747 -20.2740 -20.2738 -20.2736 -20.2735 -20.2729 -20.2727
    -9.7292  -9.5260  -9.4773  -9.2932  -9.2614  -9.0815  -8.9504  -8.9331
    -8.8479  -8.6881  -8.6512  -8.6369  -8.3088  -8.2883  -8.2509  -8.2054
    -7.9348  -7.9064  -7.8788  -7.8473  -7.7649  -7.7377  -7.7183  -7.6941
     1.4950   1.5026   1.5184   1.5217   1.9157   1.9317   2.0095   2.0572
     2.1216   2.2231   2.2767   2.4291   2.7094   2.7743   2.8413   2.9072
     3.0466   3.1500   3.6674   3.7670   3.8426   3.9435   4.0781   4.1517
     4.2700   4.3952   4.4120   4.4902   4.5682   4.6096   4.6693   4.7836
     4.8731   4.8868   4.9847   5.1209   5.1473   5.1729   5.4311   5.5784
     5.6494   5.7275   5.8168   5.8906   5.8997   5.9546   5.9965   6.0186
     6.3283   6.4766   6.5781   6.6730   6.6954   6.7421   6.7451   6.7640
     6.8297   6.9001   6.9236   6.9830   7.0136   7.0744   7.1141   7.1698
     7.2661   7.3379   7.7163   7.7194   7.9061   7.9423   7.9999   8.0078
    10.3284  10.3432  10.6266  10.7043  10.9657  11.0419  11.9807  12.0455
    12.1911  12.2993  12.4310  12.4875  12.5117  12.5450  12.6595  12.7032
    12.7779  13.0179  13.1653  13.2814  13.4545  13.5033  13.6925  13.7085
    14.6439  14.7779  15.0737  15.4910  15.5992  15.8301  16.0730  16.2717
    16.5209  17.2067  17.2951  17.5226  17.6271

          k = 0.1667 0.1575-0.5000 ( 62292 PWs)   bands (ev):

   -66.1612 -66.1612 -66.1609 -66.1609 -66.1604 -66.1603 -66.1600 -66.1600
   -30.5377 -30.5377 -30.5352 -30.5352 -30.5182 -30.5182 -30.5171 -30.5171
   -30.5142 -30.5142 -30.5136 -30.5136 -30.4723 -30.4723 -30.4646 -30.4646
   -30.4513 -30.4513 -30.4396 -30.4396 -30.4196 -30.4195 -30.4130 -30.4130
   -20.3216 -20.3216 -20.3215 -20.3215 -20.3214 -20.3214 -20.3213 -20.3213
   -20.3006 -20.3006 -20.3002 -20.3002 -20.3001 -20.3001 -20.2998 -20.2998
   -20.2969 -20.2969 -20.2965 -20.2965 -20.2964 -20.2964 -20.2959 -20.2959
   -20.2932 -20.2932 -20.2930 -20.2930 -20.2899 -20.2899 -20.2894 -20.2894
   -20.2889 -20.2889 -20.2884 -20.2884 -20.2849 -20.2849 -20.2848 -20.2848
   -20.2841 -20.2841 -20.2840 -20.2840 -20.2827 -20.2827 -20.2824 -20.2824
   -20.2745 -20.2745 -20.2743 -20.2743 -20.2733 -20.2732 -20.2731 -20.2731
    -9.5785  -9.5785  -9.3787  -9.3787  -8.9947  -8.9947  -8.7676  -8.7676
    -8.6959  -8.6959  -8.6662  -8.6662  -8.5690  -8.5690  -8.5043  -8.5042
    -7.9092  -7.9092  -7.8753  -7.8753  -7.7517  -7.7517  -7.7065  -7.7065
     1.5104   1.5104   1.5316   1.5316   1.9748   1.9748   2.0452   2.0452
     2.8216   2.8216   2.9591   2.9591   3.0262   3.0262   3.0955   3.0956
     3.1313   3.1313   3.3285   3.3285   3.4460   3.4460   3.7743   3.7743
     3.9166   3.9166   4.2699   4.2699   4.4651   4.4651   4.7154   4.7154
     4.8407   4.8407   4.9343   4.9343   5.0442   5.0442   5.5322   5.5322
     5.6738   5.6738   5.7305   5.7305   5.8685   5.8685   5.9853   5.9853
     6.4635   6.4635   6.6049   6.6049   6.7070   6.7070   6.8106   6.8106
     6.8174   6.8174   6.9259   6.9259   7.0434   7.0434   7.4849   7.4849
     7.4976   7.4976   7.6524   7.6524   7.7024   7.7024   8.0055   8.0055
    10.3565  10.3565  11.3297  11.3297  11.4129  11.4129  11.6715  11.6715
    11.7971  11.7971  12.4546  12.4546  12.5368  12.5369  12.7889  12.7889
    12.9314  12.9314  13.0581  13.0581  13.2400  13.2400  13.6736  13.6736
    14.7361  14.7361  15.3579  15.3579  15.9780  15.9781  16.0899  16.0899
    16.9103  16.9104  17.7336  17.7337  17.9955

          k = 0.1667 0.3150 0.1667 ( 62249 PWs)   bands (ev):

   -66.1616 -66.1614 -66.1607 -66.1607 -66.1605 -66.1605 -66.1598 -66.1596
   -30.5613 -30.5602 -30.5563 -30.5553 -30.5383 -30.5363 -30.5342 -30.5326
   -30.4803 -30.4772 -30.4751 -30.4715 -30.4686 -30.4603 -30.4584 -30.4553
   -30.4516 -30.4470 -30.4392 -30.4326 -30.4323 -30.4257 -30.4236 -30.4179
   -20.3218 -20.3218 -20.3216 -20.3216 -20.3214 -20.3213 -20.3212 -20.3211
   -20.3008 -20.3005 -20.3004 -20.3002 -20.3001 -20.2998 -20.2998 -20.2996
   -20.2970 -20.2967 -20.2967 -20.2964 -20.2964 -20.2962 -20.2961 -20.2959
   -20.2925 -20.2922 -20.2920 -20.2918 -20.2904 -20.2900 -20.2899 -20.2895
   -20.2893 -20.2892 -20.2890 -20.2888 -20.2880 -20.2878 -20.2873 -20.2873
   -20.2832 -20.2831 -20.2829 -20.2828 -20.2816 -20.2815 -20.2806 -20.2804
   -20.2751 -20.2750 -20.2738 -20.2738 -20.2737 -20.2735 -20.2725 -20.2724
    -9.8220  -9.7138  -9.4414  -9.3678  -9.3617  -9.2724  -9.0640  -9.0541
    -8.6054  -8.5251  -8.5205  -8.5173  -8.0736  -8.0166  -8.0073  -7.9839
    -7.9771  -7.9389  -7.9205  -7.9066  -7.8807  -7.8484  -7.8255  -7.8132
     1.3054   1.3101   1.3974   1.4002   1.5102   1.5121   1.7449   1.7728
     2.4404   2.4863   2.5334   2.6113   2.6559   2.7618   3.0222   3.0540
     3.1264   3.1708   3.6065   3.6602   3.7740   3.8049   4.1452   4.2844
     4.3053   4.3308   4.3655   4.5547   4.6219   4.8528   4.8740   4.9702
     5.0205   5.0733   5.1627   5.1787   5.3361   5.3830   5.4566   5.4611
     5.6741   5.6898   5.7359   5.7674   5.8524   5.8651   6.0821   6.1073
     6.3677   6.4008   6.4626   6.5948   6.6807   6.6947   6.7796   6.8226
     6.8734   6.8876   6.9791   7.0001   7.0598   7.0686   7.1632   7.1751
     7.2509   7.2565   7.7639   7.7907   7.8314   7.8519   7.8618   7.8800
    10.0323  10.0457  10.7434  10.7684  10.8386  10.8799  11.7705  11.9055
    11.9643  11.9957  12.4235  12.4400  12.4490  12.4671  12.8204  12.9529
    13.0856  13.1815  13.3170  13.3205  13.4837  13.5979  13.6398  13.7098
    15.1990  15.3527  15.4354  15.5590  15.5888  15.6571  16.2055  16.2421
    16.3665  16.6161  17.1916  17.3537  17.3818

          k = 0.1667 0.3150 0.3333 ( 62265 PWs)   bands (ev):

   -66.1614 -66.1612 -66.1609 -66.1607 -66.1605 -66.1603 -66.1600 -66.1598
   -30.5444 -30.5436 -30.5390 -30.5385 -30.5354 -30.5353 -30.5336 -30.5336
   -30.4949 -30.4928 -30.4911 -30.4891 -30.4674 -30.4631 -30.4581 -30.4546
   -30.4526 -30.4517 -30.4382 -30.4347 -30.4311 -30.4275 -30.4226 -30.4194
   -20.3217 -20.3217 -20.3215 -20.3215 -20.3215 -20.3214 -20.3213 -20.3212
   -20.3006 -20.3004 -20.3003 -20.3003 -20.3001 -20.3000 -20.3000 -20.2997
   -20.2969 -20.2968 -20.2967 -20.2965 -20.2964 -20.2962 -20.2961 -20.2959
   -20.2925 -20.2922 -20.2922 -20.2920 -20.2904 -20.2901 -20.2899 -20.2896
   -20.2893 -20.2893 -20.2889 -20.2888 -20.2866 -20.2865 -20.2859 -20.2859
   -20.2836 -20.2834 -20.2830 -20.2827 -20.2826 -20.2826 -20.2817 -20.2816
   -20.2748 -20.2747 -20.2740 -20.2739 -20.2736 -20.2735 -20.2728 -20.2727
    -9.6711  -9.5564  -9.4190  -9.3174  -9.1973  -9.1012  -8.9459  -8.9360
    -8.6631  -8.5538  -8.5059  -8.4990  -8.3258  -8.2817  -8.2727  -8.1891
    -8.0169  -7.9995  -7.9717  -7.9425  -7.9041  -7.8861  -7.8483  -7.8338
     1.5052   1.5095   1.5207   1.5243   2.0965   2.1197   2.2093   2.2750
     2.5377   2.6049   2.6507   2.6979   2.7409   2.8233   3.0396   3.1134
     3.2785   3.3586   3.6176   3.6605   3.7346   3.7706   3.8087   3.8729
     4.1190   4.3103   4.3619   4.3995   4.4488   4.4701   4.6011   4.6333
     4.6587   4.8192   4.8564   4.9349   5.0037   5.0749   5.1209   5.1967
     5.3340   5.4077   5.5027   5.7082   5.7180   5.8595   5.9592   5.9853
     6.4463   6.5247   6.6105   6.7249   6.7772   6.8009   6.8646   6.8754
     6.9546   7.0263   7.0564   7.0802   7.1361   7.1798   7.2379   7.2505
     7.2855   7.3409   7.7049   7.7187   7.7622   7.7740   7.8448   7.8560
    10.5951  10.6184  10.8298  10.8825  11.2393  11.3059  11.8774  11.9565
    12.0290  12.0915  12.1104  12.1936  12.5597  12.6015  12.6342  12.6589
    12.8368  13.0043  13.0365  13.2133  13.2699  13.3700  13.5670  13.5914
    15.2996  15.3594  15.7895  15.8573  15.8916  16.0894  16.2262  16.5104
    16.8170  16.8331  17.0712  17.4264  17.6671

          k = 0.1667 0.3150-0.5000 ( 62264 PWs)   bands (ev):

   -66.1612 -66.1612 -66.1610 -66.1610 -66.1603 -66.1603 -66.1601 -66.1601
   -30.5371 -30.5371 -30.5357 -30.5357 -30.5176 -30.5176 -30.5170 -30.5170
   -30.5137 -30.5137 -30.5134 -30.5134 -30.4657 -30.4657 -30.4557 -30.4557
   -30.4535 -30.4535 -30.4367 -30.4367 -30.4294 -30.4294 -30.4211 -30.4211
   -20.3216 -20.3216 -20.3215 -20.3215 -20.3214 -20.3214 -20.3214 -20.3214
   -20.3005 -20.3005 -20.3002 -20.3002 -20.3001 -20.3001 -20.2999 -20.2999
   -20.2968 -20.2968 -20.2966 -20.2966 -20.2963 -20.2963 -20.2960 -20.2960
   -20.2924 -20.2924 -20.2921 -20.2921 -20.2903 -20.2903 -20.2898 -20.2898
   -20.2893 -20.2893 -20.2889 -20.2889 -20.2849 -20.2849 -20.2848 -20.2848
   -20.2841 -20.2841 -20.2840 -20.2840 -20.2826 -20.2826 -20.2825 -20.2825
   -20.2744 -20.2744 -20.2743 -20.2743 -20.2732 -20.2732 -20.2731 -20.2731
    -9.5182  -9.5182  -9.4066  -9.4066  -8.8749  -8.8749  -8.7381  -8.7380
    -8.6999  -8.6998  -8.6728  -8.6728  -8.4685  -8.4685  -8.4238  -8.4238
    -8.0086  -8.0086  -7.9625  -7.9625  -7.8782  -7.8782  -7.8587  -7.8587
     1.5250   1.5250   1.5309   1.5309   2.5169   2.5169   2.6171   2.6171
     2.9316   2.9316   2.9967   2.9967   3.0669   3.0669   3.1163   3.1163
     3.1779   3.1779   3.4000   3.4000   3.4208   3.4208   3.7357   3.7357
     4.0567   4.0567   4.0767   4.0767   4.1269   4.1269   4.3529   4.3529
     4.7665   4.7665   4.8497   4.8497   5.0043   5.0043   5.1051   5.1051
     5.1287   5.1287   5.5752   5.5752   5.7794   5.7794   5.8763   5.8763
     6.5847   6.5847   6.6896   6.6896   6.7456   6.7456   6.8243   6.8243
     7.0741   7.0741   7.1227   7.1227   7.2082   7.2082   7.4866   7.4866
     7.4995   7.4996   7.5705   7.5705   7.6075   7.6075   7.8471   7.8471
    10.7994  10.7994  11.3420  11.3420  11.4176  11.4176  11.8133  11.8133
    11.9597  11.9597  12.1098  12.1098  12.4859  12.4859  12.5731  12.5731
    12.8433  12.8433  12.9168  12.9168  13.2343  13.2343  13.5267  13.5268
    15.3405  15.3406  15.9839  15.9839  16.2358  16.2358  16.3513  16.3514
    17.0444  17.0444  17.3723  17.3723  17.8590

          k = 0.1667-0.4725 0.1667 ( 62220 PWs)   bands (ev):

   -66.1615 -66.1615 -66.1606 -66.1606 -66.1606 -66.1606 -66.1597 -66.1597
   -30.5607 -30.5607 -30.5558 -30.5558 -30.5373 -30.5373 -30.5334 -30.5334
   -30.4768 -30.4768 -30.4731 -30.4731 -30.4606 -30.4605 -30.4552 -30.4552
   -30.4460 -30.4460 -30.4374 -30.4373 -30.4330 -30.4329 -30.4265 -30.4265
   -20.3218 -20.3218 -20.3216 -20.3216 -20.3213 -20.3213 -20.3212 -20.3212
   -20.3006 -20.3006 -20.3003 -20.3003 -20.3000 -20.3000 -20.2997 -20.2997
   -20.2969 -20.2968 -20.2965 -20.2965 -20.2963 -20.2963 -20.2960 -20.2960
   -20.2914 -20.2914 -20.2911 -20.2910 -20.2909 -20.2909 -20.2906 -20.2906
   -20.2893 -20.2893 -20.2891 -20.2891 -20.2880 -20.2879 -20.2874 -20.2874
   -20.2831 -20.2830 -20.2830 -20.2830 -20.2815 -20.2815 -20.2805 -20.2805
   -20.2750 -20.2750 -20.2738 -20.2738 -20.2736 -20.2736 -20.2725 -20.2725
    -9.7622  -9.7621  -9.3953  -9.3951  -9.3117  -9.3117  -9.0590  -9.0590
    -8.3321  -8.3308  -8.2870  -8.2859  -8.2765  -8.2752  -8.2661  -8.2633
    -7.9785  -7.9764  -7.9225  -7.9216  -7.8751  -7.8744  -7.8240  -7.8234
     1.3064   1.3087   1.3984   1.4000   1.5117   1.5128   1.7656   1.7678
     2.4671   2.4692   3.1223   3.1274   3.1834   3.2262   3.2429   3.2767
     3.3786   3.3817   3.4326   3.4468   3.6985   3.7074   3.7378   3.7456
     3.8875   3.8909   4.2908   4.3348   4.3441   4.3597   5.0005   5.0222
     5.1148   5.1172   5.2039   5.2486   5.2760   5.3013   5.4446   5.4519
     5.5203   5.5306   5.6718   5.7151   5.7557   5.7692   6.1031   6.1042
     6.4130   6.4241   6.5266   6.5279   6.6682   6.6909   6.8336   6.8349
     6.8530   6.8716   7.0215   7.0242   7.0888   7.0955   7.5034   7.5064
     7.5169   7.5243   7.5545   7.5734   7.5772   7.5845   7.8007   7.8048
    10.0441  10.0459  11.2520  11.2753  11.2998  11.3276  11.4107  11.4133
    11.4817  11.4843  12.4257  12.4455  12.4473  12.4689  12.9325  12.9368
    13.2448  13.2575  13.2840  13.2859  13.3484  13.3658  13.6013  13.6053
    15.5340  15.5400  15.7886  15.8224  15.9249  15.9618  15.9742  15.9839
    16.4484  16.4501  17.7007  17.7129  17.8684

          k = 0.1667-0.4725 0.3333 ( 62252 PWs)   bands (ev):

   -66.1613 -66.1613 -66.1608 -66.1608 -66.1604 -66.1604 -66.1599 -66.1599
   -30.5440 -30.5440 -30.5387 -30.5386 -30.5347 -30.5346 -30.5342 -30.5342
   -30.4934 -30.4934 -30.4897 -30.4897 -30.4597 -30.4596 -30.4569 -30.4568
   -30.4448 -30.4447 -30.4402 -30.4401 -30.4319 -30.4319 -30.4284 -30.4284
   -20.3217 -20.3217 -20.3215 -20.3215 -20.3214 -20.3214 -20.3213 -20.3213
   -20.3005 -20.3005 -20.3002 -20.3002 -20.3001 -20.3001 -20.2998 -20.2998
   -20.2968 -20.2968 -20.2966 -20.2966 -20.2962 -20.2962 -20.2961 -20.2961
   -20.2914 -20.2914 -20.2911 -20.2911 -20.2910 -20.2910 -20.2907 -20.2907
   -20.2893 -20.2893 -20.2892 -20.2891 -20.2866 -20.2866 -20.2859 -20.2859
   -20.2835 -20.2835 -20.2829 -20.2829 -20.2826 -20.2826 -20.2817 -20.2817
   -20.2748 -20.2748 -20.2740 -20.2739 -20.2735 -20.2735 -20.2728 -20.2728
    -9.6069  -9.6069  -9.3600  -9.3599  -9.1390  -9.1385  -8.9408  -8.9406
    -8.4305  -8.4271  -8.3804  -8.3732  -8.2803  -8.2744  -8.2614  -8.2569
    -8.2027  -8.1992  -8.1334  -8.1313  -7.9052  -7.9045  -7.8479  -7.8479
     1.5077   1.5094   1.5220   1.5250   2.1152   2.1174   2.2642   2.2660
     2.7342   2.7423   3.1526   3.1691   3.2116   3.2184   3.2777   3.3010
     3.3817   3.3908   3.5056   3.5116   3.6763   3.6829   3.7291   3.7787
     3.7975   3.8252   3.9358   3.9392   4.4133   4.4154   4.5365   4.5586
     4.6387   4.7160   4.8316   4.8414   4.9801   4.9933   5.0269   5.1288
     5.2646   5.3266   5.3449   5.4795   5.7358   5.7586   5.9580   5.9800
     6.5058   6.5139   6.6733   6.6989   6.8079   6.8206   6.8836   6.9052
     7.0007   7.0657   7.1656   7.1863   7.2064   7.2139   7.4806   7.4910
     7.5011   7.5032   7.5395   7.5541   7.5642   7.5798   7.7325   7.7408
    10.6351  10.6369  11.3647  11.3710  11.4357  11.4456  11.6476  11.6583
    11.7241  11.7481  12.0366  12.0740  12.5697  12.6352  12.7698  12.7924
    12.8235  12.8667  13.0037  13.0585  13.2668  13.2882  13.4778  13.5115
    15.6636  15.6684  15.8554  15.8570  16.4155  16.4291  16.6129  16.6655
    16.6816  16.7125  17.3496  17.3499  17.6236

          k = 0.1667-0.4725-0.5000 ( 62232 PWs)   bands (ev):

   -66.1611 -66.1611 -66.1611 -66.1611 -66.1602 -66.1602 -66.1602 -66.1602
   -30.5364 -30.5364 -30.5363 -30.5363 -30.5172 -30.5171 -30.5171 -30.5171
   -30.5134 -30.5134 -30.5134 -30.5134 -30.4584 -30.4583 -30.4583 -30.4583
   -30.4427 -30.4427 -30.4427 -30.4427 -30.4303 -30.4303 -30.4303 -30.4303
   -20.3216 -20.3216 -20.3216 -20.3216 -20.3214 -20.3214 -20.3214 -20.3214
   -20.3003 -20.3003 -20.3003 -20.3003 -20.3000 -20.3000 -20.3000 -20.3000
   -20.2967 -20.2967 -20.2967 -20.2967 -20.2962 -20.2962 -20.2962 -20.2961
   -20.2913 -20.2913 -20.2912 -20.2912 -20.2909 -20.2909 -20.2909 -20.2909
   -20.2892 -20.2892 -20.2892 -20.2892 -20.2849 -20.2849 -20.2849 -20.2849
   -20.2841 -20.2841 -20.2841 -20.2840 -20.2826 -20.2826 -20.2826 -20.2825
   -20.2744 -20.2744 -20.2744 -20.2744 -20.2732 -20.2732 -20.2732 -20.2732
    -9.4544  -9.4544  -9.4543  -9.4543  -8.7751  -8.7751  -8.7728  -8.7728
    -8.6867  -8.6867  -8.6838  -8.6838  -8.2657  -8.2657  -8.2623  -8.2623
    -8.2305  -8.2305  -8.2273  -8.2273  -7.8767  -7.8767  -7.8763  -7.8763
     1.5288   1.5288   1.5299   1.5299   2.9289   2.9289   2.9345   2.9345
     3.0293   3.0294   3.0607   3.0607   3.2035   3.2035   3.2459   3.2459
     3.3266   3.3266   3.3628   3.3628   3.5118   3.5118   3.5386   3.5386
     3.7145   3.7145   3.7407   3.7407   4.3582   4.3582   4.3590   4.3590
     4.4547   4.4547   4.4714   4.4714   4.8242   4.8242   4.9351   4.9351
     5.2584   5.2584   5.3898   5.3898   5.7836   5.7836   5.8132   5.8132
     6.6503   6.6503   6.6600   6.6600   6.8048   6.8049   6.8131   6.8131
     7.2848   7.2848   7.3498   7.3498   7.3956   7.3956   7.4043   7.4043
     7.4717   7.4717   7.4943   7.4943   7.5887   7.5887   7.6223   7.6223
    11.2533  11.2533  11.2926  11.2926  11.4836  11.4836  11.5504  11.5504
    12.2053  12.2053  12.2099  12.2099  12.2456  12.2456  12.2738  12.2738
    12.8149  12.8149  12.8862  12.8862  13.3111  13.3112  13.3625  13.3625
    15.7795  15.7795  15.7866  15.7866  16.8822  16.8822  16.8918  16.8918
    17.3039  17.3040  17.3342  17.3343  17.3929

          k = 0.3333 0.0000 0.3333 ( 62316 PWs)   bands (ev):

   -66.1613 -66.1609 -66.1608 -66.1608 -66.1604 -66.1604 -66.1603 -66.1599
   -30.5428 -30.5412 -30.5399 -30.5386 -30.5216 -30.5194 -30.5167 -30.5158
   -30.4971 -30.4953 -30.4916 -30.4900 -30.4840 -30.4780 -30.4691 -30.4689
   -30.4672 -30.4600 -30.4540 -30.4492 -30.4163 -30.4133 -30.4130 -30.4101
   -20.3217 -20.3216 -20.3216 -20.3215 -20.3215 -20.3214 -20.3214 -20.3213
   -20.3007 -20.3005 -20.3004 -20.3002 -20.3002 -20.3000 -20.2998 -20.2997
   -20.2970 -20.2968 -20.2967 -20.2965 -20.2965 -20.2963 -20.2961 -20.2959
   -20.2936 -20.2935 -20.2934 -20.2932 -20.2894 -20.2891 -20.2889 -20.2884
   -20.2880 -20.2879 -20.2875 -20.2873 -20.2865 -20.2862 -20.2859 -20.2859
   -20.2845 -20.2842 -20.2841 -20.2838 -20.2826 -20.2825 -20.2821 -20.2820
   -20.2746 -20.2745 -20.2739 -20.2739 -20.2738 -20.2736 -20.2732 -20.2730
    -9.6062  -9.3522  -9.3465  -9.3075  -9.1168  -9.0362  -8.9697  -8.8505
    -8.8244  -8.6958  -8.6706  -8.6671  -8.3451  -8.2792  -8.2718  -8.2480
    -8.2162  -8.2140  -8.1427  -8.1183  -7.6716  -7.6451  -7.6388  -7.6136
     1.7095   1.7374   1.7441   1.7841   2.0305   2.0361   2.1259   2.1788
     2.2294   2.2722   2.4181   2.5311   2.9525   2.9698   2.9795   3.0294
     3.1045   3.1547   3.7011   3.8037   3.8037   3.9569   3.9613   4.0016
     4.1706   4.1789   4.2283   4.3068   4.3500   4.3792   4.4653   4.5452
     4.6935   4.7560   4.8590   4.9412   4.9495   4.9704   5.1291   5.3339
     5.3633   5.3897   5.4964   5.7178   6.0631   6.0646   6.0895   6.1565
     6.5148   6.5153   6.5400   6.6194   6.6311   6.6417   6.6849   6.6890
     6.9912   7.0560   7.0770   7.1226   7.1281   7.1664   7.2737   7.2914
     7.3319   7.4496   7.6550   7.6574   7.9004   7.9439   7.9974   8.0105
    10.7028  10.7830  10.8321  10.9041  11.1009  11.2416  12.0511  12.0687
    12.1779  12.2366  12.2488  12.3043  12.4741  12.5112  12.7381  12.7925
    12.8013  12.9115  12.9120  13.1050  13.4297  13.4813  13.5511  13.6358
    14.4446  14.6702  14.6779  15.0633  15.9018  16.3733  16.3928  16.8275
    16.8403  17.1842  17.2123  17.7470  17.8042

          k = 0.3333 0.0000-0.5000 ( 62288 PWs)   bands (ev):

   -66.1611 -66.1611 -66.1607 -66.1607 -66.1606 -66.1606 -66.1602 -66.1602
   -30.5218 -30.5218 -30.5209 -30.5209 -30.5174 -30.5174 -30.5158 -30.5158
   -30.5149 -30.5149 -30.5117 -30.5117 -30.4820 -30.4820 -30.4681 -30.4681
   -30.4656 -30.4656 -30.4522 -30.4522 -30.4149 -30.4149 -30.4116 -30.4116
   -20.3216 -20.3216 -20.3215 -20.3215 -20.3215 -20.3215 -20.3214 -20.3214
   -20.3006 -20.3006 -20.3004 -20.3004 -20.3000 -20.3000 -20.2998 -20.2998
   -20.2969 -20.2969 -20.2966 -20.2966 -20.2964 -20.2964 -20.2960 -20.2960
   -20.2935 -20.2935 -20.2934 -20.2934 -20.2893 -20.2893 -20.2887 -20.2887
   -20.2880 -20.2880 -20.2873 -20.2873 -20.2852 -20.2852 -20.2848 -20.2847
   -20.2842 -20.2842 -20.2842 -20.2841 -20.2835 -20.2835 -20.2834 -20.2834
   -20.2743 -20.2743 -20.2741 -20.2741 -20.2736 -20.2736 -20.2734 -20.2734
    -9.4255  -9.4255  -9.1441  -9.1441  -9.1054  -9.1054  -8.7495  -8.7494
    -8.6936  -8.6935  -8.6297  -8.6297  -8.5740  -8.5740  -8.5325  -8.5325
    -8.1938  -8.1938  -8.1824  -8.1824  -7.6586  -7.6586  -7.6264  -7.6264
     1.7294   1.7294   1.7679   1.7679   2.2181   2.2181   2.2580   2.2580
     2.9083   2.9083   2.9961   2.9961   3.0359   3.0359   3.1153   3.1153
     3.1980   3.1980   3.4752   3.4752   3.6426   3.6426   3.8125   3.8126
     3.8244   3.8244   4.0611   4.0611   4.1819   4.1819   4.3004   4.3004
     4.6061   4.6061   4.8491   4.8491   4.9138   4.9138   5.0374   5.0375
     5.2009   5.2009   5.5749   5.5749   6.0945   6.0945   6.1502   6.1502
     6.4938   6.4938   6.5468   6.5468   6.5866   6.5866   6.6696   6.6696
     7.1044   7.1044   7.1719   7.1719   7.2610   7.2610   7.5009   7.5010
     7.5080   7.5080   7.6837   7.6837   7.7403   7.7403   7.9515   7.9515
    10.7838  10.7838  11.5230  11.5230  11.6265  11.6265  11.6824  11.6824
[...]
   -20.3114 -20.3114 -20.3111 -20.3111 -20.3087 -20.3087 -20.3083 -20.3083
   -20.3053 -20.3053 -20.3052 -20.3052 -20.3035 -20.3035 -20.3033 -20.3033
   -20.3031 -20.3031 -20.3029 -20.3029 -20.2996 -20.2996 -20.2995 -20.2995
   -20.2923 -20.2923 -20.2921 -20.2921 -20.2910 -20.2910 -20.2908 -20.2908
    -9.4914  -9.4914  -9.3354  -9.3353  -8.9699  -8.9699  -8.7399  -8.7398
    -8.6027  -8.6026  -8.5546  -8.5546  -8.4924  -8.4924  -8.4374  -8.4374
    -8.1363  -8.1363  -8.1067  -8.1067  -7.8614  -7.8614  -7.8450  -7.8450
     1.5641   1.5641   1.5727   1.5727   2.3257   2.3257   2.4325   2.4325
     2.9931   2.9931   3.0446   3.0446   3.0733   3.0733   3.2094   3.2094
     3.2546   3.2546   3.4802   3.4802   3.5438   3.5438   3.7139   3.7139
     3.9248   3.9248   4.0164   4.0164   4.2226   4.2226   4.3833   4.3833
     4.7036   4.7037   4.8089   4.8089   4.9880   4.9880   5.0094   5.0094
     5.1172   5.1172   5.4938   5.4938   5.7902   5.7903   5.8509   5.8509
     6.6183   6.6183   6.7534   6.7534   6.7889   6.7889   6.8170   6.8170
     7.0102   7.0102   7.0834   7.0834   7.1462   7.1462   7.4723   7.4723
     7.4966   7.4966   7.5932   7.5933   7.6196   7.6196   7.8458   7.8458
    10.7759  10.7759  11.2904  11.2904  11.3571  11.3571  11.6507  11.6507
    11.9380  11.9380  12.1774  12.1774  12.5617  12.5617  12.6416  12.6416
    12.8074  12.8074  12.9280  12.9280  13.1211  13.1211  13.5661  13.5661
    15.3839  15.3839  15.8074  15.8074  16.3650  16.3650  16.5215  16.5215
    16.7855  16.7855  17.3548  17.3548  17.8385

          k = 0.3315 0.4790 0.1652 ( 62336 PWs)   bands (ev):

   -66.1781 -66.1780 -66.1776 -66.1776 -66.1773 -66.1773 -66.1768 -66.1768
   -30.5419 -30.5419 -30.5388 -30.5387 -30.5311 -30.5310 -30.5263 -30.5263
   -30.5226 -30.5226 -30.5136 -30.5136 -30.4964 -30.4964 -30.4897 -30.4897
   -30.4606 -30.4606 -30.4545 -30.4545 -30.4452 -30.4452 -30.4395 -30.4395
   -20.3414 -20.3414 -20.3413 -20.3413 -20.3409 -20.3409 -20.3408 -20.3408
   -20.3205 -20.3205 -20.3202 -20.3202 -20.3198 -20.3198 -20.3196 -20.3196
   -20.3156 -20.3156 -20.3152 -20.3152 -20.3152 -20.3151 -20.3148 -20.3148
   -20.3102 -20.3102 -20.3099 -20.3099 -20.3098 -20.3098 -20.3095 -20.3095
   -20.3054 -20.3054 -20.3051 -20.3051 -20.3050 -20.3050 -20.3049 -20.3049
   -20.3015 -20.3015 -20.3015 -20.3015 -20.2998 -20.2998 -20.2992 -20.2992
   -20.2924 -20.2924 -20.2920 -20.2920 -20.2911 -20.2911 -20.2907 -20.2907
    -9.5268  -9.5267  -9.3108  -9.3105  -9.0238  -9.0238  -8.8153  -8.8153
    -8.5661  -8.5646  -8.4811  -8.4803  -8.4378  -8.4353  -8.4274  -8.4274
    -8.1690  -8.1688  -8.0984  -8.0968  -7.8820  -7.8816  -7.8253  -7.8252
     1.5557   1.5600   1.5679   1.5713   2.2500   2.2515   2.3997   2.4070
     2.8794   2.8889   3.0471   3.0523   3.1278   3.1453   3.2044   3.2085
     3.3222   3.3262   3.4328   3.4799   3.5899   3.5950   3.7549   3.7585
     3.8010   3.8311   3.9059   3.9530   4.3022   4.3233   4.5749   4.5775
     4.6519   4.6776   4.8242   4.8676   4.8975   4.9876   5.0064   5.0296
     5.1237   5.1737   5.3459   5.4123   5.7284   5.7471   6.0152   6.0174
     6.6032   6.6386   6.6574   6.6648   6.8175   6.8196   6.9058   6.9403
     7.0482   7.0941   7.1204   7.1669   7.1879   7.1981   7.4362   7.4434
     7.4957   7.5038   7.5087   7.5363   7.5579   7.5655   7.7686   7.7705
    10.6099  10.6160  11.3169  11.3328  11.3665  11.3694  11.7786  11.7812
    11.7999  11.8100  11.9621  12.0195  12.4913  12.5347  12.6748  12.6854
    12.8195  12.8375  13.0729  13.1416  13.2516  13.3000  13.3267  13.3950
    15.5401  15.5598  15.7920  15.8022  16.2385  16.2515  16.5896  16.6138
    16.8481  16.8609  17.4298  17.4692  17.8378

          k =-0.4973 0.4790 0.1652 ( 62340 PWs)   bands (ev):

   -66.1778 -66.1778 -66.1778 -66.1778 -66.1771 -66.1771 -66.1771 -66.1771
   -30.5402 -30.5402 -30.5400 -30.5400 -30.5264 -30.5264 -30.5251 -30.5251
   -30.5187 -30.5187 -30.5177 -30.5177 -30.4794 -30.4794 -30.4785 -30.4784
   -30.4747 -30.4747 -30.4731 -30.4730 -30.4435 -30.4435 -30.4432 -30.4432
   -20.3413 -20.3413 -20.3413 -20.3413 -20.3409 -20.3409 -20.3409 -20.3409
   -20.3203 -20.3203 -20.3203 -20.3203 -20.3197 -20.3197 -20.3197 -20.3197
   -20.3154 -20.3154 -20.3154 -20.3154 -20.3150 -20.3150 -20.3150 -20.3150
   -20.3101 -20.3101 -20.3100 -20.3100 -20.3098 -20.3098 -20.3096 -20.3096
   -20.3052 -20.3052 -20.3052 -20.3052 -20.3034 -20.3034 -20.3032 -20.3032
   -20.3032 -20.3032 -20.3031 -20.3031 -20.2995 -20.2995 -20.2995 -20.2995
   -20.2922 -20.2922 -20.2922 -20.2922 -20.2909 -20.2909 -20.2909 -20.2909
    -9.4011  -9.4011  -9.3937  -9.3937  -8.7493  -8.7493  -8.7202  -8.7202
    -8.6115  -8.6115  -8.5853  -8.5853  -8.4175  -8.4174  -8.3739  -8.3739
    -8.3590  -8.3590  -8.3200  -8.3200  -7.8540  -7.8540  -7.8540  -7.8540
     1.5677   1.5677   1.5746   1.5746   2.9091   2.9091   3.0116   3.0116
     3.0444   3.0444   3.0664   3.0664   3.1897   3.1897   3.2321   3.2321
     3.3447   3.3447   3.4220   3.4220   3.5064   3.5064   3.5460   3.5460
     3.5774   3.5774   3.8730   3.8730   4.2314   4.2314   4.2954   4.2954
     4.3352   4.3352   4.4163   4.4163   4.8585   4.8585   4.9952   4.9952
     5.1530   5.1530   5.2769   5.2769   5.7935   5.7935   5.8160   5.8160
     6.6903   6.6903   6.7590   6.7590   6.8001   6.8001   6.8443   6.8443
     7.2294   7.2294   7.2648   7.2648   7.3440   7.3440   7.4129   7.4129
     7.4842   7.4842   7.5603   7.5603   7.5820   7.5820   7.6191   7.6191
    11.2515  11.2515  11.3208  11.3208  11.3400  11.3400  11.4386  11.4386
    12.1805  12.1805  12.2255  12.2255  12.2985  12.2985  12.3575  12.3575
    12.7863  12.7863  12.8570  12.8570  13.2605  13.2605  13.3261  13.3261
    15.6821  15.6821  15.7026  15.7026  16.8336  16.8336  16.9612  16.9612
    17.3015  17.3015  17.3892  17.3892  17.4550

          k =-0.4973 0.0000 0.3303 ( 62360 PWs)   bands (ev):

   -66.1779 -66.1779 -66.1775 -66.1775 -66.1774 -66.1774 -66.1770 -66.1770
   -30.5602 -30.5602 -30.5568 -30.5568 -30.5205 -30.5205 -30.5099 -30.5099
   -30.5023 -30.5023 -30.5005 -30.5005 -30.4840 -30.4840 -30.4810 -30.4810
   -30.4771 -30.4771 -30.4606 -30.4606 -30.4578 -30.4578 -30.4496 -30.4496
   -20.3413 -20.3413 -20.3412 -20.3412 -20.3410 -20.3410 -20.3409 -20.3409
   -20.3205 -20.3205 -20.3201 -20.3201 -20.3200 -20.3200 -20.3196 -20.3196
   -20.3155 -20.3155 -20.3153 -20.3153 -20.3153 -20.3153 -20.3150 -20.3150
   -20.3126 -20.3126 -20.3125 -20.3124 -20.3074 -20.3074 -20.3071 -20.3070
   -20.3041 -20.3041 -20.3041 -20.3041 -20.3035 -20.3035 -20.3033 -20.3033
   -20.3028 -20.3028 -20.3028 -20.3028 -20.3008 -20.3008 -20.3005 -20.3005
   -20.2921 -20.2921 -20.2918 -20.2918 -20.2914 -20.2914 -20.2910 -20.2910
    -9.4917  -9.4917  -9.2767  -9.2767  -9.0659  -9.0659  -8.7772  -8.7772
    -8.6123  -8.6123  -8.5372  -8.5371  -8.4893  -8.4892  -8.4638  -8.4638
    -8.1546  -8.1546  -8.1419  -8.1419  -7.7731  -7.7731  -7.7507  -7.7507
     1.4712   1.4712   1.5017   1.5017   2.2549   2.2549   2.3019   2.3019
     2.9188   2.9188   3.0132   3.0132   3.0290   3.0290   3.1987   3.1987
     3.2751   3.2751   3.5643   3.5643   3.6922   3.6922   3.8086   3.8086
     3.8407   3.8407   4.0052   4.0052   4.1928   4.1928   4.3953   4.3953
     4.6653   4.6653   4.8893   4.8893   5.0513   5.0513   5.0644   5.0644
     5.3227   5.3227   5.5497   5.5497   5.9846   5.9846   6.0847   6.0847
     6.3812   6.3812   6.4181   6.4181   6.5120   6.5120   6.5483   6.5483
     7.1112   7.1112   7.2231   7.2231   7.2884   7.2884   7.4760   7.4760
     7.5275   7.5275   7.6484   7.6484   7.6696   7.6696   7.9716   7.9716
    10.8145  10.8146  11.3757  11.3757  11.4383  11.4383  11.6267  11.6267
    11.8205  11.8205  12.2370  12.2370  12.4618  12.4619  12.6167  12.6167
    12.8623  12.8623  13.2049  13.2049  13.2409  13.2409  13.6013  13.6013
    14.8087  14.8087  15.1592  15.1592  16.2781  16.2781  16.6169  16.6169
    16.9314  16.9314  17.4256  17.4256  17.9596

          k =-0.4973-0.1597 0.3303 ( 62348 PWs)   bands (ev):

   -66.1779 -66.1779 -66.1775 -66.1775 -66.1774 -66.1774 -66.1770 -66.1770
   -30.5563 -30.5563 -30.5527 -30.5527 -30.5212 -30.5212 -30.5100 -30.5100
   -30.5051 -30.5050 -30.5021 -30.5021 -30.4838 -30.4838 -30.4812 -30.4812
   -30.4768 -30.4767 -30.4627 -30.4627 -30.4578 -30.4578 -30.4510 -30.4510
   -20.3413 -20.3413 -20.3412 -20.3412 -20.3410 -20.3410 -20.3409 -20.3409
   -20.3204 -20.3204 -20.3201 -20.3201 -20.3200 -20.3200 -20.3196 -20.3196
   -20.3155 -20.3155 -20.3153 -20.3153 -20.3153 -20.3152 -20.3150 -20.3150
   -20.3123 -20.3123 -20.3121 -20.3121 -20.3077 -20.3077 -20.3074 -20.3074
   -20.3041 -20.3041 -20.3041 -20.3041 -20.3035 -20.3035 -20.3033 -20.3033
   -20.3029 -20.3029 -20.3028 -20.3028 -20.3008 -20.3007 -20.3005 -20.3005
   -20.2921 -20.2921 -20.2918 -20.2918 -20.2913 -20.2913 -20.2911 -20.2910
    -9.4405  -9.4405  -9.2070  -9.2070  -9.0768  -9.0768  -8.7522  -8.7522
    -8.6222  -8.6221  -8.5333  -8.5333  -8.4866  -8.4865  -8.4615  -8.4615
    -8.1526  -8.1526  -8.1463  -8.1463  -7.8740  -7.8740  -7.8519  -7.8519
     1.6976   1.6976   1.7349   1.7349   2.2547   2.2547   2.3098   2.3098
     2.9716   2.9716   3.0377   3.0377   3.0526   3.0526   3.2088   3.2088
     3.2809   3.2809   3.5918   3.5918   3.7178   3.7178   3.8229   3.8229
     3.8410   3.8410   4.0499   4.0499   4.1674   4.1674   4.4007   4.4007
     4.5412   4.5412   4.7086   4.7087   4.9715   4.9715   5.0134   5.0134
     5.0701   5.0701   5.3153   5.3153   5.7452   5.7452   5.8550   5.8550
     6.5478   6.5478   6.5661   6.5661   6.6386   6.6386   6.7534   6.7534
     7.1240   7.1240   7.2211   7.2211   7.2892   7.2893   7.4795   7.4795
     7.5228   7.5228   7.6386   7.6386   7.6625   7.6625   7.9201   7.9201
    10.9112  10.9112  11.4199  11.4199  11.5101  11.5101  11.6322  11.6322
    11.8553  11.8553  12.2660  12.2660  12.4564  12.4564  12.6272  12.6272
    12.7195  12.7195  13.0820  13.0820  13.1157  13.1157  13.4861  13.4861
    15.1604  15.1604  15.5253  15.5253  16.3560  16.3560  16.6204  16.6204
    16.9401  16.9401  17.4529  17.4529  17.8205

          k =-0.4973-0.3194 0.3303 ( 62308 PWs)   bands (ev):

   -66.1778 -66.1778 -66.1775 -66.1775 -66.1774 -66.1774 -66.1771 -66.1771
   -30.5460 -30.5460 -30.5416 -30.5416 -30.5245 -30.5245 -30.5137 -30.5137
   -30.5098 -30.5098 -30.5060 -30.5060 -30.4833 -30.4833 -30.4817 -30.4817
   -30.4754 -30.4754 -30.4675 -30.4675 -30.4575 -30.4575 -30.4539 -30.4539
   -20.3413 -20.3413 -20.3412 -20.3412 -20.3410 -20.3410 -20.3409 -20.3409
   -20.3203 -20.3203 -20.3201 -20.3201 -20.3200 -20.3200 -20.3197 -20.3197
   -20.3154 -20.3154 -20.3153 -20.3153 -20.3152 -20.3152 -20.3150 -20.3150
   -20.3114 -20.3114 -20.3112 -20.3112 -20.3087 -20.3087 -20.3084 -20.3084
   -20.3041 -20.3041 -20.3041 -20.3041 -20.3034 -20.3034 -20.3033 -20.3033
   -20.3030 -20.3030 -20.3030 -20.3029 -20.3007 -20.3007 -20.3006 -20.3006
   -20.2920 -20.2920 -20.2919 -20.2919 -20.2913 -20.2913 -20.2911 -20.2911
    -9.3161  -9.3161  -9.1146  -9.1146  -9.0187  -9.0187  -8.6827  -8.6827
    -8.6471  -8.6470  -8.5262  -8.5262  -8.4734  -8.4733  -8.4442  -8.4442
    -8.1816  -8.1816  -8.1483  -8.1483  -8.1189  -8.1189  -8.0701  -8.0701
     2.1674   2.1674   2.2535   2.2535   2.3438   2.3438   2.4705   2.4705
     3.0300   3.0300   3.0663   3.0663   3.1846   3.1847   3.2378   3.2379
     3.3278   3.3278   3.6480   3.6480   3.6969   3.6969   3.8020   3.8020
     3.8953   3.8953   4.0567   4.0567   4.1917   4.1917   4.2009   4.2009
     4.3327   4.3327   4.4858   4.4858   4.6256   4.6256   4.8278   4.8278
     4.8979   4.8979   5.0017   5.0017   5.0423   5.0423   5.3268   5.3268
     6.8407   6.8407   6.9058   6.9058   6.9859   6.9859   7.0116   7.0116
     7.1544   7.1544   7.2296   7.2296   7.3015   7.3015   7.4726   7.4726
     7.5078   7.5078   7.5952   7.5952   7.6191   7.6191   7.7684   7.7685
    11.2040  11.2040  11.5059  11.5059  11.6123  11.6123  11.7370  11.7370
    12.0009  12.0009  12.3169  12.3169  12.3533  12.3533  12.4324  12.4324
    12.6865  12.6865  12.7852  12.7852  12.8034  12.8035  13.2059  13.2059
    15.9566  15.9566  16.3810  16.3810  16.5918  16.5918  16.6664  16.6664
    16.9879  16.9879  17.4220  17.4220  17.6117

          k =-0.4973 0.4790 0.3303 ( 62320 PWs)   bands (ev):

   -66.1777 -66.1777 -66.1777 -66.1777 -66.1772 -66.1772 -66.1772 -66.1772
   -30.5338 -30.5338 -30.5332 -30.5332 -30.5276 -30.5276 -30.5264 -30.5264
   -30.5093 -30.5093 -30.5086 -30.5086 -30.4828 -30.4828 -30.4822 -30.4822
   -30.4731 -30.4731 -30.4715 -30.4715 -30.4565 -30.4565 -30.4559 -30.4559
   -20.3412 -20.3412 -20.3412 -20.3412 -20.3410 -20.3410 -20.3410 -20.3409
   -20.3202 -20.3202 -20.3202 -20.3202 -20.3199 -20.3199 -20.3199 -20.3199
   -20.3153 -20.3153 -20.3153 -20.3153 -20.3151 -20.3151 -20.3151 -20.3151
   -20.3101 -20.3101 -20.3100 -20.3099 -20.3099 -20.3099 -20.3097 -20.3097
   -20.3041 -20.3041 -20.3041 -20.3041 -20.3033 -20.3033 -20.3032 -20.3032
   -20.3031 -20.3031 -20.3031 -20.3031 -20.3007 -20.3007 -20.3007 -20.3006
   -20.2920 -20.2920 -20.2920 -20.2920 -20.2912 -20.2912 -20.2912 -20.2912
    -9.1973  -9.1973  -9.1862  -9.1862  -8.8103  -8.8103  -8.7825  -8.7825
    -8.5592  -8.5592  -8.5329  -8.5329  -8.4107  -8.4107  -8.3824  -8.3824
    -8.3494  -8.3494  -8.3285  -8.3285  -8.1350  -8.1350  -8.1341  -8.1341
     2.2376   2.2376   2.2525   2.2525   2.9381   2.9381   2.9928   2.9928
     3.0753   3.0753   3.1059   3.1059   3.1840   3.1840   3.2205   3.2205
     3.4333   3.4333   3.4816   3.4816   3.5926   3.5926   3.6518   3.6518
     3.8058   3.8058   3.9571   3.9571   4.2182   4.2182   4.2287   4.2287
     4.2870   4.2870   4.3531   4.3531   4.4664   4.4664   4.5618   4.5618
     4.6792   4.6792   4.8015   4.8016   5.0169   5.0169   5.0477   5.0477
     6.9538   6.9538   7.0617   7.0617   7.1201   7.1201   7.1475   7.1475
     7.2298   7.2298   7.3032   7.3032   7.3712   7.3712   7.4085   7.4085
     7.4702   7.4702   7.5551   7.5551   7.5740   7.5740   7.6280   7.6281
    11.4994  11.4994  11.5493  11.5493  11.6554  11.6554  11.7684  11.7684
    12.1767  12.1767  12.2387  12.2387  12.2438  12.2438  12.3805  12.3805
    12.4831  12.4831  12.6265  12.6265  12.8604  12.8604  12.9452  12.9452
    16.4335  16.4335  16.4817  16.4817  16.9983  16.9983  17.1161  17.1162
    17.2876  17.2876  17.4051  17.4059  17.4590

     the Fermi energy is     8.9921 ev

!    total energy              =   -6261.11334642 Ry
     Harris-Foulkes estimate   =   -6261.11334642 Ry
     estimated scf accuracy    <          5.9E-11 Ry

     The total energy is the sum of the following terms:

     one-electron contribution =   -4719.09143423 Ry
     hartree contribution      =    2596.11143276 Ry
     xc contribution           =    -965.66413083 Ry
     ewald contribution        =   -3172.46921413 Ry
     smearing contrib. (-TS)   =      -0.00000000 Ry

     convergence has been achieved in  14 iterations

     Forces acting on atoms (cartesian axes, Ry/au):

     atom    1 type  1   force =    -0.00118273    0.00108770    0.00075614
     atom    2 type  1   force =     0.00118273   -0.00108770   -0.00075614
     atom    3 type  1   force =     0.00118273   -0.00108770    0.00075614
     atom    4 type  1   force =    -0.00118273    0.00108770   -0.00075614
     atom    5 type  1   force =     0.00118273    0.00108770   -0.00075614
     atom    6 type  1   force =    -0.00118273   -0.00108770    0.00075614
     atom    7 type  1   force =    -0.00118273   -0.00108770   -0.00075614
     atom    8 type  1   force =     0.00118273    0.00108770    0.00075614
     atom    9 type  2   force =    -0.00012204   -0.00045474    0.00005742
     atom   10 type  2   force =     0.00012204    0.00045474   -0.00005742
     atom   11 type  2   force =     0.00012204    0.00045474    0.00005742
     atom   12 type  2   force =    -0.00012204   -0.00045474   -0.00005742
     atom   13 type  2   force =     0.00012204   -0.00045474   -0.00005742
     atom   14 type  2   force =    -0.00012204    0.00045474    0.00005742
     atom   15 type  2   force =    -0.00012204    0.00045474   -0.00005742
     atom   16 type  2   force =     0.00012204   -0.00045474    0.00005742
     atom   17 type  2   force =    -0.00070268   -0.00003204    0.00101409
     atom   18 type  2   force =     0.00070268    0.00003204   -0.00101409
     atom   19 type  2   force =     0.00070268    0.00003204    0.00101409
     atom   20 type  2   force =    -0.00070268   -0.00003204   -0.00101409
     atom   21 type  2   force =     0.00070268   -0.00003204   -0.00101409
     atom   22 type  2   force =    -0.00070268    0.00003204    0.00101409
     atom   23 type  2   force =    -0.00070268    0.00003204   -0.00101409
     atom   24 type  2   force =     0.00070268   -0.00003204    0.00101409
     atom   25 type  2   force =    -0.00127163   -0.00027215    0.00054445
     atom   26 type  2   force =     0.00127163    0.00027215   -0.00054445
     atom   27 type  2   force =     0.00127163    0.00027215    0.00054445
     atom   28 type  2   force =    -0.00127163   -0.00027215   -0.00054445
     atom   29 type  2   force =     0.00127163   -0.00027215   -0.00054445
     atom   30 type  2   force =    -0.00127163    0.00027215    0.00054445
     atom   31 type  2   force =    -0.00127163    0.00027215   -0.00054445
     atom   32 type  2   force =     0.00127163   -0.00027215    0.00054445

     Total force =     0.000000     Total SCF correction =     0.000000


     Computing stress (Cartesian axis) and pressure

          total   stress  (Ry/bohr**3)                   (kbar)     P=    0.13
   0.00000151   0.00000000   0.00000000          0.22      0.00      0.00
   0.00000000  -0.00000147   0.00000000          0.00     -0.22      0.00
   0.00000000   0.00000000   0.00000253          0.00      0.00      0.37


     Writing output data file Landau_28.save
 
     init_run     :     43.52s CPU     45.41s WALL (       2 calls)
     electrons    :   5365.99s CPU   5478.82s WALL (       6 calls)
     update_pot   :     76.01s CPU     76.36s WALL (       4 calls)
     forces       :    112.43s CPU    114.74s WALL (       6 calls)
     stress       :   1142.93s CPU   1156.60s WALL (       6 calls)

     Called by init_run:
     wfcinit      :     25.44s CPU     27.01s WALL (       2 calls)
     potinit      :      8.36s CPU      8.44s WALL (       2 calls)

     Called by electrons:
     c_bands      :   4644.78s CPU   4745.89s WALL (      80 calls)
     sum_band     :    620.45s CPU    626.97s WALL (      80 calls)
     v_of_rho     :      6.98s CPU      7.15s WALL (      85 calls)
     mix_rho      :     13.75s CPU     17.05s WALL (      80 calls)

     Called by c_bands:
     init_us_2    :     24.95s CPU     28.62s WALL (     162 calls)
     cegterg      :   2661.29s CPU   2755.79s WALL (      80 calls)

     Called by sum_band:

     Called by *egterg:
     h_psi        :   2086.07s CPU   2100.00s WALL (     319 calls)
     g_psi        :      5.14s CPU      5.17s WALL (     237 calls)
     cdiaghg      :     34.61s CPU     34.76s WALL (     312 calls)

     Called by h_psi:
     h_psi:pot    :   2071.34s CPU   2084.97s WALL (     319 calls)
     h_psi:calbec :    211.24s CPU    217.90s WALL (     319 calls)
     vloc_psi     :   1636.45s CPU   1641.91s WALL (     319 calls)
     add_vuspsi   :    223.65s CPU    225.15s WALL (     319 calls)

     General routines
     calbec       :    242.72s CPU    250.15s WALL (     349 calls)
     fft          :      5.92s CPU      5.95s WALL (     388 calls)
     fftw         :   1663.75s CPU   1668.54s WALL (  104890 calls)
 
     Parallel routines
 
     PWSCF        :     1h52m CPU        1h55m WALL

 
   This run was terminated on:  21:58: 2   4Mar2020            

=------------------------------------------------------------------------------=
   JOB DONE.
=------------------------------------------------------------------------------=
