
     Program PWSCF v.6.2 (svn rev. 14038) starts on 25Mar2020 at 22:27:39 

     This program is part of the open-source Quantum ESPRESSO suite
     for quantum simulation of materials; please cite
         "P. Giannozzi et al., J. Phys.:Condens. Matter 21 395502 (2009);
         "P. Giannozzi et al., J. Phys.:Condens. Matter 29 465901 (2017);
          URL http://www.quantum-espresso.org", 
     in publications or presentations arising from this work. More details at
     http://www.quantum-espresso.org/quote

     Parallel version (MPI), running on    40 processors

     MPI processes distributed on    10 nodes
     K-points division:     npool     =      40
     Reading input from scf.in

     Current dimensions of program PWSCF are:
     Max number of different atomic species (ntypx) = 10
     Max number of k-points (npk) =  40000
     Max angular momentum in pseudopotentials (lmaxx) =  3

     Subspace diagonalization in iterative solution of the eigenvalue problem:
     a serial algorithm will be used

 
     G-vector sticks info
     --------------------
     sticks:   dense  smooth     PW     G-vecs:    dense   smooth      PW
     Sum        7741    7741   2079               498897   498897   69141
 


     bravais-lattice index     =            0
     lattice parameter (alat)  =      13.8663  a.u.
     unit-cell volume          =    2809.0989 (a.u.)^3
     number of atoms/cell      =           32
     number of atomic types    =            2
     number of electrons       =       369.00
     number of Kohn-Sham states=          222
     kinetic-energy cutoff     =     120.0000  Ry
     charge density cutoff     =     480.0000  Ry
     convergence threshold     =      1.0E-08
     mixing beta               =       0.7000
     number of iterations used =            8  plain     mixing
     Exchange-correlation      = SLA PW NOGX NOGC ( 1  4  0  0 0 0)

     celldm(1)=  13.866316  celldm(2)=   0.000000  celldm(3)=   0.000000
     celldm(4)=   0.000000  celldm(5)=   0.000000  celldm(6)=   0.000000

     crystal axes: (cart. coord. in units of alat)
               a(1) = (   1.000000   0.000000   0.000000 )  
               a(2) = (   0.000000   1.053475   0.000000 )  
               a(3) = (   0.000000   0.000000   1.000138 )  

     reciprocal axes: (cart. coord. in units 2 pi/alat)
               b(1) = (  1.000000  0.000000  0.000000 )  
               b(2) = (  0.000000  0.949240  0.000000 )  
               b(3) = (  0.000000  0.000000  0.999862 )  


     PseudoPot. # 1 for W  read from file:
     /cluster/scratch/mnoe/QE/pps/W_ONCV_LDA-4.0.upf
     MD5 check sum: ba0307d5d4cd419d6f1d13dc49d7c13a
     Pseudo is Norm-conserving + core correction, Zval = 28.0
     Generated using ONCVPSP code by D. R. Hamann
     Using radial grid of 1380 points,  8 beta functions with: 
                l(1) =   0
                l(2) =   0
                l(3) =   1
                l(4) =   1
                l(5) =   2
                l(6) =   2
                l(7) =   3
                l(8) =   3

     PseudoPot. # 2 for O  read from file:
     /cluster/scratch/mnoe/QE/pps/O_ONCV_LDA-3.0.upf
     MD5 check sum: a1bd6164e7280c17a38c229939bfbd54
     Pseudo is Norm-conserving + core correction, Zval =  6.0
     Generated using ONCVPSP code by D. R. Hamann
     Using radial grid of  926 points,  5 beta functions with: 
                l(1) =   0
                l(2) =   0
                l(3) =   1
                l(4) =   1
                l(5) =   2

     atomic species   valence    mass     pseudopotential
        W             28.00   183.84000     W ( 1.00)
        O              6.00    15.99940     O ( 1.00)

      4 Sym. Ops. (no inversion) found ( 3 have fractional translation)



   Cartesian axes

     site n.     atom                  positions (alat units)
         1           W   tau(   1) = (   0.2436825   0.2960981   0.0007222  )
         2           W   tau(   2) = (   0.7510825   0.7573765  -0.0062667  )
         3           W   tau(   3) = (   0.2563175   0.2306392   0.5007910  )
         4           W   tau(   4) = (   0.7489175   0.8228353   0.4938020  )
         5           W   tau(   5) = (   0.7563175   0.2960981   0.4993465  )
         6           W   tau(   6) = (   0.2489175   0.7573765   0.5063355  )
         7           W   tau(   7) = (   0.7436825   0.2306392  -0.0007222  )
         8           W   tau(   8) = (   0.2510825   0.8228353   0.0062667  )
         9           O   tau(   9) = (   0.2423604   0.0085376  -0.0040283  )
        10           O   tau(  10) = (   0.7560124  -0.0085376  -0.0062006  )
        11           O   tau(  11) = (   0.2576396   0.5181996   0.4960405  )
        12           O   tau(  12) = (   0.7439876   0.5352749   0.4938682  )
        13           O   tau(  13) = (   0.7576396   0.0085376   0.5040970  )
        14           O   tau(  14) = (   0.2439876  -0.0085376   0.5062693  )
        15           O   tau(  15) = (   0.7423604   0.5181996   0.0040283  )
        16           O   tau(  16) = (   0.2560124   0.5352749   0.0062006  )
        17           O   tau(  17) = (   0.5021612   0.2547863   0.4515385  )
        18           O   tau(  18) = (   0.5001372   0.7962764   0.5485990  )
        19           O   tau(  19) = (  -0.0021612   0.2719510   0.9516073  )
        20           O   tau(  20) = (  -0.0001372   0.7839354   0.0485302  )
        21           O   tau(  21) = (   0.4978388   0.2547863   0.0485302  )
        22           O   tau(  22) = (   0.4998628   0.7962764   0.9516073  )
        23           O   tau(  23) = (   0.0021612   0.2719510   0.5485990  )
        24           O   tau(  24) = (   0.0001372   0.7839354   0.4515385  )
        25           O   tau(  25) = (   0.7014765   0.2672850   0.7493272  )
        26           O   tau(  26) = (   0.2985236   0.7972417   0.2523268  )
        27           O   tau(  27) = (   0.7985235   0.2594523   0.2492584  )
        28           O   tau(  28) = (   0.2014765   0.7829701   0.7523956  )
        29           O   tau(  29) = (   0.2985236   0.2672850   0.7508791  )
        30           O   tau(  30) = (   0.7014765   0.7972417   0.2477419  )
        31           O   tau(  31) = (   0.2014765   0.2594523   0.2508103  )
        32           O   tau(  32) = (   0.7985235   0.7829701   0.7478107  )

     number of k points=    64  gaussian smearing, width (Ry)=  0.0007
                       cart. coord. in units 2pi/alat
        k(    1) = (   0.0000000   0.0000000   0.0000000), wk =   0.0092593
        k(    2) = (   0.0000000   0.0000000   0.1666437), wk =   0.0185185
        k(    3) = (   0.0000000   0.0000000   0.3332875), wk =   0.0185185
        k(    4) = (   0.0000000   0.0000000  -0.4999312), wk =   0.0092593
        k(    5) = (   0.0000000   0.1582066   0.0000000), wk =   0.0185185
        k(    6) = (   0.0000000   0.1582066   0.1666437), wk =   0.0370370
        k(    7) = (   0.0000000   0.1582066   0.3332875), wk =   0.0370370
        k(    8) = (   0.0000000   0.1582066  -0.4999312), wk =   0.0185185
        k(    9) = (   0.0000000   0.3164133   0.0000000), wk =   0.0185185
        k(   10) = (   0.0000000   0.3164133   0.1666437), wk =   0.0370370
        k(   11) = (   0.0000000   0.3164133   0.3332875), wk =   0.0370370
        k(   12) = (   0.0000000   0.3164133  -0.4999312), wk =   0.0185185
        k(   13) = (   0.0000000  -0.4746199   0.0000000), wk =   0.0092593
        k(   14) = (   0.0000000  -0.4746199   0.1666437), wk =   0.0185185
        k(   15) = (   0.0000000  -0.4746199   0.3332875), wk =   0.0185185
        k(   16) = (   0.0000000  -0.4746199  -0.4999312), wk =   0.0092593
        k(   17) = (   0.1666667   0.0000000   0.0000000), wk =   0.0185185
        k(   18) = (   0.1666667   0.0000000   0.1666437), wk =   0.0370370
        k(   19) = (   0.1666667   0.0000000   0.3332875), wk =   0.0370370
        k(   20) = (   0.1666667   0.0000000  -0.4999312), wk =   0.0185185
        k(   21) = (   0.1666667   0.1582066   0.0000000), wk =   0.0370370
        k(   22) = (   0.1666667   0.1582066   0.1666437), wk =   0.0740741
        k(   23) = (   0.1666667   0.1582066   0.3332875), wk =   0.0740741
        k(   24) = (   0.1666667   0.1582066  -0.4999312), wk =   0.0370370
        k(   25) = (   0.1666667   0.3164133   0.0000000), wk =   0.0370370
        k(   26) = (   0.1666667   0.3164133   0.1666437), wk =   0.0740741
        k(   27) = (   0.1666667   0.3164133   0.3332875), wk =   0.0740741
        k(   28) = (   0.1666667   0.3164133  -0.4999312), wk =   0.0370370
        k(   29) = (   0.1666667  -0.4746199   0.0000000), wk =   0.0185185
        k(   30) = (   0.1666667  -0.4746199   0.1666437), wk =   0.0370370
        k(   31) = (   0.1666667  -0.4746199   0.3332875), wk =   0.0370370
        k(   32) = (   0.1666667  -0.4746199  -0.4999312), wk =   0.0185185
        k(   33) = (   0.3333333   0.0000000   0.0000000), wk =   0.0185185
        k(   34) = (   0.3333333   0.0000000   0.1666437), wk =   0.0370370
        k(   35) = (   0.3333333   0.0000000   0.3332875), wk =   0.0370370
        k(   36) = (   0.3333333   0.0000000  -0.4999312), wk =   0.0185185
        k(   37) = (   0.3333333   0.1582066   0.0000000), wk =   0.0370370
        k(   38) = (   0.3333333   0.1582066   0.1666437), wk =   0.0740741
        k(   39) = (   0.3333333   0.1582066   0.3332875), wk =   0.0740741
        k(   40) = (   0.3333333   0.1582066  -0.4999312), wk =   0.0370370
        k(   41) = (   0.3333333   0.3164133   0.0000000), wk =   0.0370370
        k(   42) = (   0.3333333   0.3164133   0.1666437), wk =   0.0740741
        k(   43) = (   0.3333333   0.3164133   0.3332875), wk =   0.0740741
        k(   44) = (   0.3333333   0.3164133  -0.4999312), wk =   0.0370370
        k(   45) = (   0.3333333  -0.4746199   0.0000000), wk =   0.0185185
        k(   46) = (   0.3333333  -0.4746199   0.1666437), wk =   0.0370370
        k(   47) = (   0.3333333  -0.4746199   0.3332875), wk =   0.0370370
        k(   48) = (   0.3333333  -0.4746199  -0.4999312), wk =   0.0185185
        k(   49) = (  -0.5000000   0.0000000   0.0000000), wk =   0.0092593
        k(   50) = (  -0.5000000   0.0000000   0.1666437), wk =   0.0185185
        k(   51) = (  -0.5000000   0.0000000   0.3332875), wk =   0.0185185
        k(   52) = (  -0.5000000   0.0000000  -0.4999312), wk =   0.0092593
        k(   53) = (  -0.5000000   0.1582066   0.0000000), wk =   0.0185185
        k(   54) = (  -0.5000000   0.1582066   0.1666437), wk =   0.0370370
        k(   55) = (  -0.5000000   0.1582066   0.3332875), wk =   0.0370370
        k(   56) = (  -0.5000000   0.1582066  -0.4999312), wk =   0.0185185
        k(   57) = (  -0.5000000   0.3164133   0.0000000), wk =   0.0185185
        k(   58) = (  -0.5000000   0.3164133   0.1666437), wk =   0.0370370
        k(   59) = (  -0.5000000   0.3164133   0.3332875), wk =   0.0370370
        k(   60) = (  -0.5000000   0.3164133  -0.4999312), wk =   0.0185185
        k(   61) = (  -0.5000000  -0.4746199   0.0000000), wk =   0.0092593
        k(   62) = (  -0.5000000  -0.4746199   0.1666437), wk =   0.0185185
        k(   63) = (  -0.5000000  -0.4746199   0.3332875), wk =   0.0185185
        k(   64) = (  -0.5000000  -0.4746199  -0.4999312), wk =   0.0092593

     Dense  grid:   498897 G-vectors     FFT dimensions: ( 100, 108, 100)

     Estimated max dynamical RAM per process >       3.14 GB

     Estimated total dynamical RAM >     125.68 GB

     Initial potential from superposition of free atoms

     starting charge  367.99656, renormalised to  369.00000
     Starting wfc are  232 randomized atomic wfcs

     total cpu time spent up to now is       48.3 secs

     Self-consistent Calculation

     iteration #  1     ecut=   120.00 Ry     beta= 0.70
     Davidson diagonalization with overlap
     ethr =  1.00E-02,  avg # of iterations =  5.5

     total cpu time spent up to now is      218.1 secs

     total energy              =   -6253.08336535 Ry
     Harris-Foulkes estimate   =   -6264.05629353 Ry
     estimated scf accuracy    <      13.77651758 Ry

     iteration #  2     ecut=   120.00 Ry     beta= 0.70
     Davidson diagonalization with overlap
     ethr =  3.73E-03,  avg # of iterations =  3.6

     total cpu time spent up to now is      385.6 secs

     total energy              =   -6250.15560142 Ry
     Harris-Foulkes estimate   =   -6269.91901314 Ry
     estimated scf accuracy    <      52.16796188 Ry

     iteration #  3     ecut=   120.00 Ry     beta= 0.70
     Davidson diagonalization with overlap
     ethr =  3.73E-03,  avg # of iterations =  3.3

     total cpu time spent up to now is      537.6 secs

     total energy              =   -6260.38670581 Ry
     Harris-Foulkes estimate   =   -6260.64816742 Ry
     estimated scf accuracy    <       0.89102243 Ry

     iteration #  4     ecut=   120.00 Ry     beta= 0.70
     Davidson diagonalization with overlap
     ethr =  2.41E-04,  avg # of iterations =  3.4

     total cpu time spent up to now is      660.4 secs

     total energy              =   -6260.37469290 Ry
     Harris-Foulkes estimate   =   -6260.44987347 Ry
     estimated scf accuracy    <       0.23217709 Ry

     iteration #  5     ecut=   120.00 Ry     beta= 0.70
     Davidson diagonalization with overlap
     ethr =  6.29E-05,  avg # of iterations =  4.9

     total cpu time spent up to now is      795.3 secs

     total energy              =   -6260.37719613 Ry
     Harris-Foulkes estimate   =   -6260.40888024 Ry
     estimated scf accuracy    <       0.07145696 Ry

     iteration #  6     ecut=   120.00 Ry     beta= 0.70
     Davidson diagonalization with overlap
     ethr =  1.94E-05,  avg # of iterations =  5.9

     total cpu time spent up to now is      942.6 secs

     total energy              =   -6260.39319311 Ry
     Harris-Foulkes estimate   =   -6260.39538827 Ry
     estimated scf accuracy    <       0.00807872 Ry

     iteration #  7     ecut=   120.00 Ry     beta= 0.70
     Davidson diagonalization with overlap
     ethr =  2.19E-06,  avg # of iterations =  8.2

     total cpu time spent up to now is     1080.8 secs

     total energy              =   -6260.39290189 Ry
     Harris-Foulkes estimate   =   -6260.39411809 Ry
     estimated scf accuracy    <       0.00407380 Ry

     iteration #  8     ecut=   120.00 Ry     beta= 0.70
     Davidson diagonalization with overlap
     ethr =  1.10E-06,  avg # of iterations =  3.5

     total cpu time spent up to now is     1208.1 secs

     total energy              =   -6260.39346112 Ry
     Harris-Foulkes estimate   =   -6260.39348361 Ry
     estimated scf accuracy    <       0.00005640 Ry

     iteration #  9     ecut=   120.00 Ry     beta= 0.70
     Davidson diagonalization with overlap
     ethr =  1.53E-08,  avg # of iterations =  3.7

     total cpu time spent up to now is     1365.7 secs

     total energy              =   -6260.39347708 Ry
     Harris-Foulkes estimate   =   -6260.39349060 Ry
     estimated scf accuracy    <       0.00005553 Ry

     iteration # 10     ecut=   120.00 Ry     beta= 0.70
     Davidson diagonalization with overlap
     ethr =  1.50E-08,  avg # of iterations =  1.8

     total cpu time spent up to now is     1481.9 secs

     total energy              =   -6260.39347379 Ry
     Harris-Foulkes estimate   =   -6260.39348112 Ry
     estimated scf accuracy    <       0.00001827 Ry

     iteration # 11     ecut=   120.00 Ry     beta= 0.70
     Davidson diagonalization with overlap
     ethr =  4.95E-09,  avg # of iterations =  2.9

     total cpu time spent up to now is     1605.9 secs

     total energy              =   -6260.39347688 Ry
     Harris-Foulkes estimate   =   -6260.39347742 Ry
     estimated scf accuracy    <       0.00000132 Ry

     iteration # 12     ecut=   120.00 Ry     beta= 0.70
     Davidson diagonalization with overlap
     ethr =  3.57E-10,  avg # of iterations =  2.4

     total cpu time spent up to now is     1745.2 secs

     total energy              =   -6260.39347717 Ry
     Harris-Foulkes estimate   =   -6260.39347720 Ry
     estimated scf accuracy    <       0.00000007 Ry

     iteration # 13     ecut=   120.00 Ry     beta= 0.70
     Davidson diagonalization with overlap
     ethr =  1.98E-11,  avg # of iterations =  2.0

     total cpu time spent up to now is     1869.1 secs

     total energy              =   -6260.39347717 Ry
     Harris-Foulkes estimate   =   -6260.39347718 Ry
     estimated scf accuracy    <       0.00000002 Ry

     iteration # 14     ecut=   120.00 Ry     beta= 0.70
     Davidson diagonalization with overlap
     ethr =  4.96E-12,  avg # of iterations =  2.8

     total cpu time spent up to now is     2026.8 secs

     total energy              =   -6260.39347717 Ry
     Harris-Foulkes estimate   =   -6260.39347718 Ry
     estimated scf accuracy    <       0.00000001 Ry

     iteration # 15     ecut=   120.00 Ry     beta= 0.70
     Davidson diagonalization with overlap
     ethr =  2.80E-12,  avg # of iterations =  2.4

     total cpu time spent up to now is     2155.1 secs

     End of self-consistent calculation

          k = 0.0000 0.0000 0.0000 ( 62311 PWs)   bands (ev):

   -65.9709 -65.9705 -65.9699 -65.9699 -65.9695 -65.9695 -65.9689 -65.9685
   -30.4396 -30.4358 -30.4358 -30.4322 -30.3789 -30.3752 -30.3751 -30.3715
   -30.3139 -30.3110 -30.3076 -30.3070 -30.3050 -30.3034 -30.2995 -30.2987
   -30.2129 -30.2121 -30.2093 -30.2077 -30.2045 -30.2037 -30.2002 -30.1989
   -20.1264 -20.1261 -20.1261 -20.1258 -20.1210 -20.1206 -20.1206 -20.1203
   -20.1143 -20.1140 -20.1138 -20.1138 -20.1130 -20.1129 -20.1129 -20.1128
   -20.1126 -20.1122 -20.1121 -20.1119 -20.1112 -20.1109 -20.1108 -20.1106
   -20.1095 -20.1094 -20.1091 -20.1091 -20.1083 -20.1082 -20.1081 -20.1079
   -20.0934 -20.0932 -20.0930 -20.0930 -20.0929 -20.0928 -20.0926 -20.0925
   -20.0495 -20.0494 -20.0490 -20.0490 -20.0479 -20.0478 -20.0476 -20.0474
   -20.0438 -20.0436 -20.0434 -20.0433 -20.0423 -20.0422 -20.0418 -20.0417
    -9.9140  -9.6098  -9.4877  -9.4875  -9.1824  -9.1810  -9.0971  -8.9826
    -8.9694  -8.8746  -8.8366  -8.8362  -7.8633  -7.8010  -7.8002  -7.7473
    -7.7210  -7.7167  -7.6914  -7.6840  -7.5746  -7.5737  -7.5460  -7.5453
     1.2890   1.2900   1.3505   1.3519   1.3817   1.3842   1.3976   1.6242
     1.6358   1.6376   1.7069   1.8965   2.4616   2.5418   2.5774   2.5870
     2.7322   2.7336   4.1878   4.1908   4.4125   4.4178   4.8082   4.8351
     4.8962   4.8986   4.9259   4.9260   5.0370   5.0372   5.0976   5.4378
     5.4412   5.5234   5.5309   5.5644   5.5649   5.6022   5.6080   5.8432
     5.8472   5.8916   5.8930   5.9232   5.9705   6.0900   6.0940   6.1802
     6.1809   6.2916   6.2945   6.5662   6.5673   6.8192   6.8236   6.8628
     6.8659   6.8822   7.0331   7.0379   7.1003   7.1027   7.4169   7.4201
     7.4651   7.4681   7.8668   7.8818   8.0820   8.0865   8.1410   8.1565
     9.4106   9.4111  10.0333  10.0375  10.0610  10.0625  12.3540  12.3546
    12.3962  12.4004  12.4654  12.4693  12.5756  12.5945  12.9754  13.0347
    13.2768  13.3362  13.4456  13.4492  13.8534  14.1736  14.1960  14.2246
    14.2785  14.4902  14.5108  14.8135  15.5281  15.5404  15.5632  16.1538
    16.1569  16.8902  17.1083  17.1123  17.3278  17.3989

          k = 0.0000 0.0000 0.1666 ( 62355 PWs)   bands (ev):

   -65.9708 -65.9704 -65.9700 -65.9698 -65.9696 -65.9694 -65.9690 -65.9686
   -30.4394 -30.4361 -30.4356 -30.4325 -30.3787 -30.3754 -30.3749 -30.3718
   -30.3122 -30.3073 -30.3058 -30.3036 -30.3010 -30.2990 -30.2978 -30.2928
   -30.2197 -30.2155 -30.2118 -30.2116 -30.2089 -30.2058 -30.2034 -30.1995
   -20.1264 -20.1261 -20.1261 -20.1258 -20.1210 -20.1207 -20.1206 -20.1203
   -20.1142 -20.1139 -20.1139 -20.1137 -20.1130 -20.1129 -20.1129 -20.1127
   -20.1126 -20.1121 -20.1120 -20.1118 -20.1111 -20.1108 -20.1108 -20.1105
   -20.1097 -20.1096 -20.1092 -20.1091 -20.1085 -20.1084 -20.1081 -20.1079
   -20.0933 -20.0932 -20.0930 -20.0929 -20.0929 -20.0928 -20.0926 -20.0925
   -20.0493 -20.0491 -20.0488 -20.0487 -20.0479 -20.0476 -20.0475 -20.0472
   -20.0442 -20.0438 -20.0435 -20.0432 -20.0427 -20.0425 -20.0420 -20.0418
    -9.8686  -9.5561  -9.5039  -9.4312  -9.1952  -9.1055  -9.0929  -8.9456
    -8.9281  -8.8596  -8.8407  -8.8013  -7.8692  -7.8353  -7.8236  -7.8048
    -7.7884  -7.7507  -7.7096  -7.7022  -7.6807  -7.6754  -7.5830  -7.5545
     1.3519   1.3532   1.3791   1.3901   1.4681   1.5034   1.6170   1.6325
     1.6379   1.7434   1.8803   2.0266   2.5476   2.5912   2.6328   2.6715
     2.7234   2.8233   4.1190   4.1908   4.4066   4.4161   4.4349   4.5352
     4.6646   4.7955   4.8126   4.9595   4.9670   5.0326   5.0805   5.3408
     5.3735   5.4296   5.5142   5.5536   5.5746   5.6177   5.6298   5.6622
     5.7682   5.7892   5.8310   5.9434   5.9872   6.1122   6.1539   6.1776
     6.3129   6.4548   6.5303   6.5551   6.6822   6.7145   6.7904   6.8372
     6.8573   6.8734   6.9873   7.0153   7.0464   7.1098   7.2039   7.2180
     7.2420   7.3057   7.8789   7.8835   8.0453   8.0983   8.1068   8.1491
     9.7433   9.7707  10.0388  10.0588  10.2975  10.3455  12.2962  12.3368
    12.3785  12.4234  12.4433  12.4961  12.5886  12.6836  12.9871  13.0256
    13.1321  13.3079  13.3647  13.4464  13.9501  14.0869  14.1119  14.1720
    14.2758  14.5051  14.5932  14.9234  15.5290  15.5612  15.5906  16.1288
    16.4648  16.8068  17.0610  17.2964  17.4160  17.4493

          k = 0.0000 0.0000 0.3333 ( 62364 PWs)   bands (ev):

   -65.9707 -65.9702 -65.9702 -65.9697 -65.9697 -65.9692 -65.9692 -65.9687
   -30.4388 -30.4369 -30.4351 -30.4332 -30.3781 -30.3762 -30.3744 -30.3725
   -30.3110 -30.3083 -30.3027 -30.3000 -30.2878 -30.2830 -30.2797 -30.2746
   -30.2380 -30.2336 -30.2298 -30.2252 -30.2110 -30.2087 -30.2026 -30.2004
   -20.1264 -20.1262 -20.1261 -20.1259 -20.1209 -20.1208 -20.1206 -20.1204
   -20.1141 -20.1139 -20.1136 -20.1135 -20.1130 -20.1130 -20.1129 -20.1128
   -20.1124 -20.1122 -20.1115 -20.1114 -20.1109 -20.1108 -20.1104 -20.1102
   -20.1101 -20.1101 -20.1094 -20.1091 -20.1090 -20.1087 -20.1081 -20.1080
   -20.0932 -20.0931 -20.0930 -20.0929 -20.0928 -20.0927 -20.0926 -20.0925
   -20.0490 -20.0486 -20.0482 -20.0481 -20.0478 -20.0478 -20.0466 -20.0462
   -20.0453 -20.0450 -20.0438 -20.0434 -20.0432 -20.0429 -20.0424 -20.0421
    -9.7586  -9.5541  -9.4320  -9.3033  -9.2382  -9.1336  -8.8927  -8.8530
    -8.8381  -8.7823  -8.7460  -8.6680  -8.1475  -8.1286  -8.0454  -8.0209
    -7.8376  -7.8148  -7.7839  -7.7599  -7.6802  -7.6508  -7.6086  -7.5798
     1.3564   1.3625   1.4057   1.4301   1.5691   1.5857   1.6013   1.6237
     2.3279   2.3631   2.5215   2.5998   2.6169   2.7155   2.7965   2.8984
     2.9148   3.0658   3.8080   3.8575   3.9139   4.0205   4.1736   4.3320
     4.3663   4.5487   4.6005   4.7792   4.8090   4.8629   4.9948   5.0251
     5.1862   5.2245   5.2569   5.3590   5.4780   5.5256   5.6307   5.6761
     5.7149   5.7526   5.7998   6.0022   6.0122   6.2173   6.2871   6.3010
     6.3526   6.3933   6.5219   6.5412   6.5916   6.5961   6.6816   6.7863
     6.8505   6.8842   6.8904   7.0272   7.0621   7.0774   7.1063   7.1691
     7.3321   7.3631   7.8078   7.8292   7.9211   7.9706   8.1320   8.1499
    10.0329  10.0525  10.4515  10.5274  10.9133  11.0197  11.9247  11.9775
    12.1502  12.5426  12.5707  12.5899  12.6240  12.6728  12.7785  12.9454
    13.0153  13.1976  13.2393  13.4562  13.7449  13.7724  14.1362  14.1675
    14.3545  14.4866  14.8989  15.2227  15.4190  15.7074  15.9637  16.0429
    16.2351  17.3036  17.4145  17.5904  17.6010  17.6634

          k = 0.0000 0.0000-0.4999 ( 62380 PWs)   bands (ev):

   -65.9704 -65.9704 -65.9700 -65.9700 -65.9694 -65.9694 -65.9690 -65.9690
   -30.4379 -30.4379 -30.4342 -30.4342 -30.3772 -30.3772 -30.3735 -30.3735
   -30.3096 -30.3096 -30.3013 -30.3013 -30.2630 -30.2630 -30.2583 -30.2583
   -30.2547 -30.2547 -30.2498 -30.2498 -30.2099 -30.2099 -30.2015 -30.2015
   -20.1263 -20.1263 -20.1260 -20.1260 -20.1209 -20.1209 -20.1205 -20.1205
   -20.1140 -20.1140 -20.1133 -20.1133 -20.1133 -20.1133 -20.1129 -20.1129
   -20.1123 -20.1122 -20.1109 -20.1109 -20.1108 -20.1108 -20.1107 -20.1107
   -20.1099 -20.1099 -20.1097 -20.1097 -20.1090 -20.1090 -20.1080 -20.1080
   -20.0931 -20.0931 -20.0930 -20.0930 -20.0927 -20.0927 -20.0926 -20.0926
   -20.0486 -20.0486 -20.0482 -20.0482 -20.0467 -20.0467 -20.0464 -20.0464
   -20.0452 -20.0452 -20.0448 -20.0448 -20.0428 -20.0428 -20.0425 -20.0425
    -9.6412  -9.6412  -9.3151  -9.3151  -9.1936  -9.1936  -8.8701  -8.8701
    -8.5040  -8.5040  -8.4791  -8.4791  -8.4601  -8.4601  -8.3916  -8.3916
    -7.8280  -7.8280  -7.7723  -7.7723  -7.6440  -7.6440  -7.6149  -7.6149
     1.3602   1.3602   1.4241   1.4241   1.5857   1.5857   1.6147   1.6147
     2.6504   2.6504   3.0337   3.0337   3.1750   3.1750   3.1885   3.1885
     3.3318   3.3318   3.4007   3.4007   3.5347   3.5347   3.8181   3.8181
     3.9015   3.9015   4.4860   4.4860   4.7341   4.7341   4.9380   4.9380
     5.2540   5.2540   5.3732   5.3732   5.3847   5.3847   5.6745   5.6745
     5.7560   5.7560   5.9392   5.9392   6.1932   6.1932   6.2681   6.2681
     6.3663   6.3663   6.4563   6.4563   6.4906   6.4906   6.5779   6.5779
     6.8158   6.8158   6.8542   6.8542   7.0856   7.0856   7.5291   7.5291
     7.5969   7.5969   7.6995   7.6995   7.7220   7.7220   8.1473   8.1473
    10.0432  10.0432  11.2426  11.2426  11.3190  11.3190  11.6137  11.6137
    11.8168  11.8168  12.6304  12.6304  12.7962  12.7962  12.9024  12.9024
    12.9909  12.9909  13.3365  13.3365  13.5172  13.5172  14.1605  14.1605
    14.4461  14.4461  15.2120  15.2120  15.6704  15.6705  15.8998  15.8998
    16.7039  16.7039  17.7735  17.7735  18.0084  18.0084

          k = 0.0000 0.1582 0.0000 ( 62307 PWs)   bands (ev):

   -65.9709 -65.9705 -65.9699 -65.9699 -65.9695 -65.9695 -65.9689 -65.9685
   -30.4355 -30.4318 -30.4317 -30.4281 -30.3830 -30.3792 -30.3791 -30.3756
   -30.3137 -30.3112 -30.3076 -30.3069 -30.3050 -30.3036 -30.2996 -30.2988
   -30.2129 -30.2121 -30.2092 -30.2078 -30.2046 -30.2038 -30.2002 -30.1990
   -20.1261 -20.1257 -20.1257 -20.1254 -20.1214 -20.1210 -20.1210 -20.1207
   -20.1143 -20.1140 -20.1138 -20.1138 -20.1130 -20.1129 -20.1128 -20.1127
   -20.1127 -20.1122 -20.1121 -20.1119 -20.1112 -20.1109 -20.1108 -20.1106
   -20.1095 -20.1093 -20.1091 -20.1090 -20.1084 -20.1083 -20.1082 -20.1079
   -20.0934 -20.0932 -20.0930 -20.0929 -20.0929 -20.0929 -20.0925 -20.0925
   -20.0495 -20.0494 -20.0490 -20.0490 -20.0479 -20.0478 -20.0476 -20.0474
   -20.0438 -20.0436 -20.0434 -20.0433 -20.0423 -20.0422 -20.0418 -20.0417
    -9.8827  -9.6218  -9.4474  -9.4471  -9.1902  -9.1888  -9.0224  -8.9817
    -8.9702  -8.8299  -8.8012  -8.8008  -7.9581  -7.9016  -7.9009  -7.8555
    -7.7209  -7.7154  -7.6928  -7.6857  -7.5736  -7.5729  -7.5473  -7.5465
     1.2891   1.2899   1.3646   1.3666   1.3831   1.3856   1.5420   1.7062
     1.8094   1.8631   1.8645   2.0503   2.4668   2.5362   2.6499   2.6602
     2.8012   2.8029   4.0505   4.0540   4.1323   4.1367   4.7748   4.8940
     4.8968   4.8980   4.9156   4.9184   4.9541   4.9822   4.9830   5.2939
     5.2965   5.4833   5.4845   5.6067   5.6521   5.6671   5.6686   5.6740
     5.8203   5.8222   5.9066   5.9086   5.9637   6.0933   6.0966   6.1830
     6.1856   6.2885   6.2918   6.5893   6.5913   6.8376   6.8483   6.8515
     6.8925   6.9005   6.9053   7.0204   7.0211   7.0265   7.4232   7.4263
     7.4661   7.4690   7.8708   7.8809   8.0410   8.0447   8.0643   8.0752
     9.4109   9.4122  10.2355  10.2356  10.2357  10.2362  12.2364  12.2425
    12.4042  12.4073  12.4181  12.4345  12.4623  12.4655  12.9838  13.0349
    13.3117  13.3641  13.4505  13.4535  14.0450  14.1124  14.1229  14.1254
    14.3018  14.7460  14.7544  14.9932  15.5282  15.5383  15.9648  16.1201
    16.1229  16.5454  17.2425  17.2463  17.3877  17.4837

          k = 0.0000 0.1582 0.1666 ( 62328 PWs)   bands (ev):

   -65.9708 -65.9704 -65.9699 -65.9698 -65.9696 -65.9694 -65.9690 -65.9686
   -30.4353 -30.4321 -30.4316 -30.4284 -30.3828 -30.3795 -30.3790 -30.3759
   -30.3121 -30.3073 -30.3058 -30.3037 -30.3009 -30.2991 -30.2979 -30.2929
   -30.2196 -30.2154 -30.2118 -30.2116 -30.2090 -30.2057 -30.2035 -30.1996
   -20.1260 -20.1258 -20.1257 -20.1255 -20.1214 -20.1210 -20.1210 -20.1207
   -20.1142 -20.1139 -20.1138 -20.1137 -20.1130 -20.1129 -20.1129 -20.1127
   -20.1126 -20.1121 -20.1120 -20.1118 -20.1111 -20.1108 -20.1108 -20.1106
   -20.1096 -20.1095 -20.1091 -20.1091 -20.1086 -20.1084 -20.1082 -20.1080
   -20.0933 -20.0932 -20.0930 -20.0929 -20.0929 -20.0928 -20.0926 -20.0925
   -20.0493 -20.0491 -20.0488 -20.0487 -20.0479 -20.0476 -20.0475 -20.0472
   -20.0442 -20.0438 -20.0435 -20.0432 -20.0427 -20.0425 -20.0420 -20.0418
    -9.8360  -9.5681  -9.4636  -9.3861  -9.2032  -9.1009  -9.0308  -8.9432
    -8.9289  -8.8178  -8.8052  -8.7706  -7.9579  -7.9110  -7.8996  -7.8619
    -7.8385  -7.8095  -7.7091  -7.7018  -7.6809  -7.6754  -7.5822  -7.5557
     1.3688   1.3708   1.3810   1.3915   1.5878   1.6317   1.6391   1.8185
     1.8595   1.8802   1.8939   2.1232   2.5541   2.6266   2.6635   2.7463
     2.7932   2.8922   4.0186   4.0678   4.1283   4.1704   4.4516   4.5323
     4.6931   4.7189   4.7969   4.9258   4.9481   4.9590   5.0011   5.2517
     5.2715   5.3281   5.3628   5.5052   5.6009   5.6086   5.6628   5.7069
     5.7531   5.7891   5.8430   5.8740   5.8998   6.1425   6.1587   6.1803
     6.2575   6.4396   6.5077   6.5796   6.7192   6.7844   6.8070   6.8317
     6.8577   6.9026   6.9698   6.9889   7.0247   7.0398   7.2045   7.2182
     7.2542   7.3065   7.8808   7.8830   8.0056   8.0332   8.0437   8.0707
     9.7496   9.7725  10.2352  10.2385  10.4647  10.4875  12.2196  12.3134
    12.3218  12.3665  12.4240  12.4363  12.4667  12.5738  13.0052  13.0279
    13.1587  13.3291  13.3716  13.4490  13.9671  13.9996  14.0944  14.1107
    14.3924  14.7486  14.8861  15.0875  15.5604  15.5901  15.9304  16.0956
    16.4289  16.6967  16.9303  17.4095  17.4723  17.5553

          k = 0.0000 0.1582 0.3333 ( 62381 PWs)   bands (ev):

   -65.9706 -65.9703 -65.9701 -65.9698 -65.9696 -65.9693 -65.9691 -65.9688
   -30.4348 -30.4328 -30.4310 -30.4292 -30.3822 -30.3803 -30.3785 -30.3766
   -30.3109 -30.3082 -30.3028 -30.3001 -30.2877 -30.2829 -30.2798 -30.2747
   -30.2380 -30.2336 -30.2298 -30.2252 -30.2110 -30.2086 -30.2027 -30.2005
   -20.1260 -20.1258 -20.1257 -20.1256 -20.1213 -20.1211 -20.1210 -20.1208
   -20.1141 -20.1139 -20.1136 -20.1135 -20.1131 -20.1130 -20.1130 -20.1128
   -20.1123 -20.1121 -20.1115 -20.1114 -20.1109 -20.1109 -20.1104 -20.1103
   -20.1101 -20.1100 -20.1094 -20.1091 -20.1090 -20.1087 -20.1081 -20.1081
   -20.0932 -20.0931 -20.0930 -20.0929 -20.0928 -20.0927 -20.0926 -20.0925
   -20.0490 -20.0486 -20.0482 -20.0481 -20.0478 -20.0478 -20.0466 -20.0462
   -20.0453 -20.0450 -20.0438 -20.0434 -20.0432 -20.0429 -20.0424 -20.0421
    -9.7230  -9.5145  -9.4436  -9.2470  -9.2446  -9.0595  -8.8679  -8.8463
    -8.8173  -8.7837  -8.7300  -8.6510  -8.1511  -8.1310  -8.0649  -8.0214
    -7.9262  -7.9090  -7.8830  -7.8542  -7.6796  -7.6522  -7.6078  -7.5811
     1.3824   1.4034   1.4071   1.4318   1.7537   1.7749   1.8517   1.8592
     2.3267   2.3722   2.5254   2.6150   2.6890   2.7767   2.8075   2.8955
     2.9913   3.1278   3.8081   3.8598   3.9076   3.9653   4.1490   4.1846
     4.2329   4.3695   4.6178   4.7276   4.7885   4.8441   4.8559   4.8947
     5.0316   5.1654   5.1940   5.2306   5.3839   5.4413   5.5411   5.6260
     5.7040   5.7512   5.7967   5.8499   5.9886   6.1689   6.2512   6.2992
     6.3553   6.5377   6.5743   6.5944   6.6595   6.6777   6.7381   6.8335
     6.8390   6.8543   6.9515   6.9816   7.0209   7.0577   7.1109   7.1590
     7.3264   7.3580   7.8113   7.8265   7.8871   7.9144   8.0619   8.0727
    10.2280  10.2361  10.4620  10.5296  11.0284  11.1103  11.9259  11.9755
    12.1170  12.4410  12.5386  12.5620  12.5895  12.6332  12.7229  12.8407
    13.0106  13.1995  13.2537  13.4497  13.6454  13.6844  14.1011  14.1072
    14.5963  14.7310  15.2427  15.3596  15.6967  15.8195  15.9800  16.0132
    16.3602  17.1364  17.2598  17.4688  17.7056  17.8011

          k = 0.0000 0.1582-0.4999 ( 62340 PWs)   bands (ev):

   -65.9704 -65.9704 -65.9700 -65.9700 -65.9694 -65.9694 -65.9690 -65.9690
   -30.4339 -30.4339 -30.4302 -30.4302 -30.3813 -30.3813 -30.3776 -30.3776
   -30.3096 -30.3096 -30.3014 -30.3014 -30.2629 -30.2629 -30.2583 -30.2583
   -30.2548 -30.2548 -30.2499 -30.2499 -30.2098 -30.2098 -30.2016 -30.2016
   -20.1259 -20.1259 -20.1256 -20.1256 -20.1212 -20.1212 -20.1209 -20.1209
   -20.1140 -20.1140 -20.1133 -20.1133 -20.1132 -20.1132 -20.1129 -20.1129
   -20.1122 -20.1122 -20.1110 -20.1110 -20.1107 -20.1107 -20.1106 -20.1106
   -20.1099 -20.1099 -20.1097 -20.1097 -20.1089 -20.1089 -20.1081 -20.1081
   -20.0931 -20.0931 -20.0930 -20.0930 -20.0927 -20.0927 -20.0926 -20.0926
   -20.0486 -20.0486 -20.0482 -20.0482 -20.0467 -20.0467 -20.0464 -20.0464
   -20.0452 -20.0452 -20.0448 -20.0448 -20.0428 -20.0428 -20.0425 -20.0425
    -9.6029  -9.6029  -9.3252  -9.3252  -9.1230  -9.1230  -8.8355  -8.8355
    -8.5071  -8.5070  -8.4767  -8.4767  -8.4689  -8.4689  -8.3864  -8.3864
    -7.9224  -7.9224  -7.8721  -7.8721  -7.6433  -7.6433  -7.6163  -7.6163
     1.3965   1.3965   1.4256   1.4256   1.7744   1.7744   1.8615   1.8615
     2.7197   2.7197   3.0514   3.0514   3.1788   3.1788   3.2245   3.2245
     3.3391   3.3391   3.3982   3.3982   3.5237   3.5237   3.8193   3.8193
     3.9488   3.9488   4.2764   4.2764   4.6517   4.6517   4.7637   4.7637
     5.0760   5.0760   5.3409   5.3409   5.3549   5.3549   5.5086   5.5086
     5.7106   5.7106   5.8249   5.8249   6.1971   6.1971   6.3402   6.3402
     6.3925   6.3925   6.4801   6.4801   6.5649   6.5649   6.6706   6.6706
     6.8719   6.8719   6.8748   6.8748   7.0027   7.0027   7.5382   7.5382
     7.5904   7.5904   7.6738   7.6738   7.6958   7.6958   8.0719   8.0719
    10.2353  10.2353  11.2491  11.2491  11.3169  11.3169  11.6794  11.6794
    11.8771  11.8771  12.4948  12.4948  12.7706  12.7706  12.9105  12.9105
    12.9335  12.9335  13.2383  13.2383  13.4818  13.4818  14.1033  14.1033
    14.6937  14.6937  15.5775  15.5775  15.8146  15.8146  15.8784  15.8784
    16.7446  16.7446  17.5788  17.5788  18.0252  18.0252

          k = 0.0000 0.3164 0.0000 ( 62307 PWs)   bands (ev):

   -65.9708 -65.9706 -65.9698 -65.9698 -65.9696 -65.9696 -65.9688 -65.9686
   -30.4244 -30.4207 -30.4206 -30.4171 -30.3940 -30.3903 -30.3902 -30.3868
   -30.3132 -30.3116 -30.3075 -30.3068 -30.3049 -30.3040 -30.2998 -30.2990
   -30.2128 -30.2120 -30.2089 -30.2079 -30.2047 -30.2039 -30.2001 -30.1993
   -20.1251 -20.1248 -20.1248 -20.1245 -20.1224 -20.1220 -20.1220 -20.1217
   -20.1141 -20.1139 -20.1138 -20.1138 -20.1131 -20.1129 -20.1128 -20.1127
   -20.1126 -20.1121 -20.1120 -20.1120 -20.1111 -20.1109 -20.1109 -20.1108
   -20.1092 -20.1092 -20.1089 -20.1088 -20.1086 -20.1085 -20.1083 -20.1082
   -20.0933 -20.0933 -20.0930 -20.0929 -20.0929 -20.0929 -20.0925 -20.0925
   -20.0495 -20.0494 -20.0490 -20.0490 -20.0479 -20.0478 -20.0476 -20.0474
   -20.0438 -20.0436 -20.0434 -20.0433 -20.0423 -20.0422 -20.0418 -20.0417
    -9.8064  -9.6590  -9.3554  -9.3547  -9.2160  -9.2148  -8.9792  -8.9726
    -8.8115  -8.6895  -8.6784  -8.6782  -8.2012  -8.1544  -8.1538  -8.1299
    -7.7177  -7.7127  -7.6956  -7.6902  -7.5711  -7.5704  -7.5502  -7.5494
     1.2892   1.2896   1.3716   1.3740   1.3854   1.3879   1.6669   1.7033
     2.3734   2.4812   2.5190   2.5210   2.5212   2.6851   2.8628   2.8791
     3.0039   3.0073   3.6505   3.6569   3.6997   3.7042   4.1534   4.4748
     4.4780   4.7463   4.8992   4.9045   4.9258   4.9310   5.0444   5.0472
     5.0667   5.0723   5.3868   5.3889   5.5931   5.5957   5.7259   5.7280
     5.8885   5.8895   5.9316   5.9351   6.0750   6.0878   6.0916   6.1971
     6.2033   6.2665   6.2718   6.5376   6.6523   6.6541   6.8767   6.8779
     6.9279   7.0022   7.0978   7.0994   7.1121   7.1133   7.4310   7.4336
     7.4692   7.4718   7.8253   7.8321   7.8671   7.8688   7.8817   7.8839
     9.4117   9.4130  10.6973  10.7002  10.7419  10.7485  11.8593  11.8654
    11.9854  11.9987  12.4228  12.4264  12.4622  12.4653  13.0032  13.0320
    13.4240  13.4595  13.5118  13.5145  13.8777  13.8903  13.9042  13.9085
    14.8093  15.3099  15.3118  15.5287  15.5340  15.6418  15.9619  16.0058
    16.0077  16.9633  17.2493  17.5672  17.7032  17.7065

          k = 0.0000 0.3164 0.1666 ( 62357 PWs)   bands (ev):

   -65.9707 -65.9705 -65.9699 -65.9697 -65.9697 -65.9695 -65.9689 -65.9687
   -30.4242 -30.4210 -30.4205 -30.4174 -30.3938 -30.3906 -30.3901 -30.3870
   -30.3118 -30.3071 -30.3060 -30.3038 -30.3009 -30.2994 -30.2981 -30.2930
   -30.2195 -30.2153 -30.2117 -30.2117 -30.2090 -30.2057 -30.2036 -30.1997
   -20.1251 -20.1248 -20.1248 -20.1245 -20.1224 -20.1220 -20.1220 -20.1217
   -20.1141 -20.1138 -20.1138 -20.1138 -20.1130 -20.1129 -20.1128 -20.1127
   -20.1124 -20.1121 -20.1120 -20.1119 -20.1110 -20.1109 -20.1108 -20.1107
   -20.1094 -20.1094 -20.1089 -20.1089 -20.1088 -20.1086 -20.1083 -20.1082
   -20.0933 -20.0932 -20.0930 -20.0929 -20.0929 -20.0928 -20.0925 -20.0925
   -20.0493 -20.0491 -20.0488 -20.0487 -20.0479 -20.0476 -20.0475 -20.0472
   -20.0442 -20.0438 -20.0435 -20.0432 -20.0427 -20.0425 -20.0420 -20.0418
    -9.7568  -9.6056  -9.3714  -9.2818  -9.2298  -9.1277  -8.9392  -8.9313
    -8.8196  -8.6829  -8.6821  -8.6601  -8.2012  -8.1615  -8.1504  -8.1356
    -7.8368  -7.8147  -7.7066  -7.7003  -7.6833  -7.6779  -7.5797  -7.5587
     1.3722   1.3792   1.3826   1.3939   1.6241   1.6405   1.8270   1.8765
     2.3760   2.4983   2.5210   2.5698   2.6112   2.6771   2.8776   2.9736
     2.9978   3.1028   3.6574   3.6894   3.7006   3.7456   4.1448   4.4400
     4.4847   4.4910   4.5567   4.7497   4.7668   4.8764   4.9480   4.9701
     5.0454   5.0857   5.1863   5.3296   5.4215   5.4893   5.6016   5.6622
     5.7103   5.8243   5.8279   5.8683   6.0768   6.1377   6.1721   6.1956
     6.2627   6.4458   6.4828   6.5976   6.6432   6.8601   6.8839   6.9412
     6.9783   6.9972   7.0808   7.0870   7.1052   7.1182   7.2090   7.2208
     7.2807   7.3151   7.8065   7.8304   7.8362   7.8532   7.8890   7.8911
     9.7594   9.7719  10.7049  10.7449  10.8810  10.9134  11.8636  11.9537
    11.9953  12.0699  12.3290  12.3631  12.4787  12.5202  13.0316  13.0450
    13.2590  13.3931  13.4425  13.5076  13.7328  13.7824  13.8850  13.9009
    14.9483  15.3026  15.5090  15.5633  15.5909  15.7087  15.9813  16.1231
    16.3059  16.9266  17.3049  17.3366  17.6379  17.8162

          k = 0.0000 0.3164 0.3333 ( 62353 PWs)   bands (ev):

   -65.9705 -65.9703 -65.9701 -65.9698 -65.9696 -65.9693 -65.9691 -65.9689
   -30.4236 -30.4217 -30.4200 -30.4181 -30.3932 -30.3914 -30.3896 -30.3878
   -30.3108 -30.3081 -30.3030 -30.3003 -30.2877 -30.2828 -30.2799 -30.2748
   -30.2379 -30.2334 -30.2300 -30.2254 -30.2108 -30.2085 -30.2028 -30.2006
   -20.1250 -20.1249 -20.1247 -20.1246 -20.1223 -20.1221 -20.1220 -20.1218
   -20.1140 -20.1138 -20.1136 -20.1135 -20.1131 -20.1130 -20.1130 -20.1128
   -20.1122 -20.1121 -20.1116 -20.1114 -20.1110 -20.1108 -20.1105 -20.1104
   -20.1099 -20.1099 -20.1093 -20.1093 -20.1089 -20.1088 -20.1083 -20.1083
   -20.0932 -20.0931 -20.0930 -20.0930 -20.0928 -20.0928 -20.0926 -20.0926
   -20.0490 -20.0486 -20.0482 -20.0481 -20.0478 -20.0478 -20.0466 -20.0462
   -20.0453 -20.0450 -20.0438 -20.0434 -20.0432 -20.0429 -20.0424 -20.0421
    -9.6371  -9.4801  -9.4225  -9.2758  -9.0980  -8.8779  -8.8501  -8.8210
    -8.7883  -8.6962  -8.6438  -8.5826  -8.2345  -8.2208  -8.1544  -8.1407
    -8.1298  -8.0759  -8.0173  -7.9777  -7.6770  -7.6555  -7.6053  -7.5841
     1.3940   1.4098   1.4181   1.4348   2.2294   2.3171   2.3273   2.4021
     2.5108   2.5340   2.5380   2.7702   2.8366   2.8672   2.9015   2.9859
     3.2225   3.3205   3.6446   3.6626   3.7622   3.7998   3.8943   3.9058
     4.1228   4.2950   4.4056   4.4162   4.5015   4.5900   4.6652   4.8162
     4.8407   4.8462   4.9996   5.0637   5.2054   5.2249   5.2414   5.3799
     5.4036   5.6257   5.6525   5.8229   6.1754   6.2368   6.2518   6.3098
     6.4360   6.5999   6.6520   6.6901   6.7375   6.8223   6.8427   6.8731
     6.9368   6.9871   7.0424   7.0645   7.0851   7.1596   7.1795   7.2110
     7.3036   7.3461   7.7312   7.7469   7.8049   7.8210   7.8433   7.8700
    10.4809  10.5013  10.7207  10.7484  11.3421  11.3865  11.8434  11.9383
    11.9709  12.0276  12.2471  12.2994  12.6427  12.6933  12.7128  12.7451
    12.9691  13.1901  13.2483  13.4312  13.5024  13.5471  13.8837  13.8961
    15.1387  15.2744  15.6412  15.8872  15.9045  16.0394  16.0851  16.6234
    16.7632  16.7996  17.1073  17.5595  17.6654  17.7539

          k = 0.0000 0.3164-0.4999 ( 62392 PWs)   bands (ev):

   -65.9703 -65.9703 -65.9701 -65.9701 -65.9693 -65.9693 -65.9691 -65.9691
   -30.4227 -30.4227 -30.4191 -30.4191 -30.3924 -30.3923 -30.3888 -30.3888
   -30.3094 -30.3094 -30.3017 -30.3017 -30.2628 -30.2628 -30.2582 -30.2582
   -30.2550 -30.2550 -30.2501 -30.2501 -30.2097 -30.2097 -30.2017 -30.2017
   -20.1250 -20.1250 -20.1247 -20.1247 -20.1222 -20.1222 -20.1219 -20.1219
   -20.1139 -20.1139 -20.1133 -20.1133 -20.1132 -20.1132 -20.1129 -20.1129
   -20.1121 -20.1121 -20.1111 -20.1111 -20.1106 -20.1106 -20.1105 -20.1105
   -20.1099 -20.1099 -20.1099 -20.1099 -20.1089 -20.1089 -20.1083 -20.1083
   -20.0931 -20.0931 -20.0930 -20.0930 -20.0927 -20.0927 -20.0927 -20.0926
   -20.0486 -20.0486 -20.0482 -20.0482 -20.0467 -20.0467 -20.0464 -20.0464
   -20.0452 -20.0452 -20.0448 -20.0448 -20.0428 -20.0428 -20.0425 -20.0425
    -9.5123  -9.5123  -9.3578  -9.3578  -8.9282  -8.9282  -8.7257  -8.7257
    -8.5243  -8.5243  -8.5139  -8.5139  -8.4582  -8.4582  -8.3664  -8.3664
    -8.1517  -8.1517  -8.1094  -8.1094  -7.6408  -7.6408  -7.6194  -7.6194
     1.4115   1.4115   1.4285   1.4285   2.3780   2.3780   2.5145   2.5145
     2.9206   2.9206   3.1006   3.1006   3.1539   3.1539   3.3143   3.3143
     3.3719   3.3719   3.3986   3.3986   3.4809   3.4809   3.6730   3.6730
     4.0761   4.0761   4.1045   4.1045   4.1534   4.1534   4.3713   4.3713
     4.8229   4.8229   4.9243   4.9243   5.1242   5.1242   5.3116   5.3116
     5.4708   5.4708   5.7373   5.7373   6.3253   6.3253   6.3907   6.3907
     6.4973   6.4973   6.5472   6.5472   6.5724   6.5724   6.7787   6.7787
     7.0511   7.0511   7.0649   7.0649   7.1066   7.1066   7.5329   7.5329
     7.5609   7.5609   7.5878   7.5878   7.6267   7.6267   7.8521   7.8521
    10.7246  10.7246  11.2638  11.2638  11.3116  11.3116  11.7630  11.7630
    12.0632  12.0632  12.2070  12.2070  12.6373  12.6373  12.7057  12.7057
    12.9308  12.9308  13.0532  13.0532  13.4994  13.4994  13.8889  13.8889
    15.2233  15.2233  15.7800  15.7800  16.2554  16.2554  16.5247  16.5247
    16.9173  16.9173  17.2035  17.2035  17.9614  17.9615

          k = 0.0000-0.4746 0.0000 ( 62330 PWs)   bands (ev):

   -65.9707 -65.9707 -65.9697 -65.9697 -65.9697 -65.9697 -65.9687 -65.9687
   -30.4092 -30.4091 -30.4059 -30.4059 -30.4051 -30.4050 -30.4020 -30.4019
   -30.3126 -30.3122 -30.3075 -30.3067 -30.3048 -30.3043 -30.2999 -30.2991
   -30.2127 -30.2119 -30.2086 -30.2081 -30.2047 -30.2040 -30.2000 -30.1995
   -20.1237 -20.1237 -20.1234 -20.1234 -20.1234 -20.1234 -20.1231 -20.1231
   -20.1140 -20.1139 -20.1139 -20.1137 -20.1131 -20.1129 -20.1127 -20.1127
   -20.1125 -20.1121 -20.1121 -20.1120 -20.1111 -20.1110 -20.1109 -20.1109
   -20.1091 -20.1090 -20.1088 -20.1088 -20.1087 -20.1087 -20.1085 -20.1083
   -20.0933 -20.0933 -20.0929 -20.0929 -20.0929 -20.0929 -20.0925 -20.0925
   -20.0495 -20.0494 -20.0490 -20.0490 -20.0479 -20.0478 -20.0476 -20.0474
   -20.0438 -20.0436 -20.0434 -20.0433 -20.0423 -20.0422 -20.0418 -20.0417
    -9.7229  -9.7228  -9.2789  -9.2779  -9.2594  -9.2584  -8.9759  -8.9759
    -8.5092  -8.5092  -8.4495  -8.4491  -8.4478  -8.4478  -8.4476  -8.4473
    -7.7138  -7.7127  -7.6955  -7.6945  -7.5695  -7.5688  -7.5519  -7.5512
     1.2893   1.2894   1.3727   1.3752   1.3862   1.3887   1.6949   1.6950
     2.5009   2.5010   3.1487   3.1501   3.2158   3.2181   3.2622   3.2650
     3.2915   3.2925   3.3212   3.3263   3.4630   3.4692   3.5155   3.5193
     3.6768   3.6768   4.9097   4.9119   4.9148   4.9165   5.2095   5.2159
     5.2193   5.2253   5.3170   5.3178   5.3203   5.3212   5.7879   5.7901
     5.7929   5.7950   6.0312   6.0326   6.0668   6.0676   6.2074   6.2111
     6.2279   6.2335   6.2929   6.2944   6.7359   6.7374   6.7657   6.7673
     6.9662   6.9663   7.4153   7.4169   7.4340   7.4349   7.4658   7.4659
     7.4818   7.4820   7.5536   7.5542   7.5545   7.5547   7.8790   7.8790
     9.4126   9.4126  11.2860  11.2911  11.3069  11.3119  11.3710  11.3752
    11.3954  11.3996  12.4294  12.4329  12.4627  12.4661  13.0215  13.0216
    13.6155  13.6184  13.6440  13.6468  13.6711  13.6733  13.6741  13.6763
    15.3659  15.3667  15.5312  15.5320  15.7484  15.7495  15.7746  15.7757
    16.5517  16.5517  17.8619  17.8619  18.1528  18.1530

          k = 0.0000-0.4746 0.1666 ( 62354 PWs)   bands (ev):

   -65.9706 -65.9706 -65.9698 -65.9698 -65.9696 -65.9696 -65.9688 -65.9688
   -30.4090 -30.4089 -30.4062 -30.4057 -30.4054 -30.4049 -30.4022 -30.4022
   -30.3117 -30.3071 -30.3061 -30.3038 -30.3008 -30.2995 -30.2982 -30.2931
   -30.2195 -30.2152 -30.2118 -30.2116 -30.2091 -30.2057 -30.2037 -30.1998
   -20.1237 -20.1237 -20.1234 -20.1234 -20.1234 -20.1234 -20.1231 -20.1231
   -20.1139 -20.1139 -20.1138 -20.1138 -20.1131 -20.1129 -20.1128 -20.1128
   -20.1123 -20.1121 -20.1120 -20.1119 -20.1110 -20.1109 -20.1108 -20.1108
   -20.1093 -20.1092 -20.1089 -20.1089 -20.1088 -20.1087 -20.1085 -20.1084
   -20.0933 -20.0933 -20.0930 -20.0929 -20.0929 -20.0929 -20.0925 -20.0925
   -20.0493 -20.0491 -20.0488 -20.0487 -20.0479 -20.0476 -20.0475 -20.0472
   -20.0442 -20.0438 -20.0435 -20.0432 -20.0427 -20.0425 -20.0420 -20.0418
    -9.6717  -9.6695  -9.2937  -9.2745  -9.1944  -9.1754  -8.9360  -8.9341
    -8.5149  -8.5149  -8.4554  -8.4533  -8.4461  -8.4461  -8.4414  -8.4395
    -7.8350  -7.8169  -7.7046  -7.6994  -7.6845  -7.6797  -7.5780  -7.5605
     1.3726   1.3805   1.3830   1.3948   1.6282   1.6417   1.8614   1.8703
     2.5903   2.5906   3.1525   3.1629   3.2230   3.2296   3.2561   3.2829
     3.2882   3.3185   3.3220   3.3662   3.4646   3.5157   3.5235   3.5624
     3.7063   3.7078   4.5099   4.5122   4.9133   4.9448   4.9834   5.0184
     5.1292   5.1302   5.2002   5.2049   5.3305   5.3351   5.5198   5.5310
     5.7632   5.7662   5.8288   5.8337   6.1354   6.1740   6.1801   6.1838
     6.3994   6.4080   6.4447   6.4873   6.7248   6.7548   6.9101   6.9381
     7.0243   7.0296   7.1969   7.2141   7.2342   7.2628   7.4530   7.4671
     7.4775   7.4888   7.5098   7.5221   7.5320   7.5402   7.8854   7.8858
     9.7642   9.7702  11.2958  11.3160  11.3687  11.3845  11.4232  11.4350
    11.4940  11.5171  12.3325  12.3622  12.4849  12.5164  13.0503  13.0504
    13.4415  13.4502  13.5314  13.5470  13.6413  13.6580  13.6674  13.6727
    15.4350  15.4590  15.6330  15.6539  15.7301  15.7578  16.0229  16.0451
    16.6161  16.6173  17.8158  17.8237  17.9062  17.9064

          k = 0.0000-0.4746 0.3333 ( 62338 PWs)   bands (ev):

   -65.9704 -65.9704 -65.9700 -65.9699 -65.9695 -65.9694 -65.9690 -65.9690
   -30.4086 -30.4083 -30.4069 -30.4062 -30.4051 -30.4045 -30.4031 -30.4029
   -30.3107 -30.3080 -30.3031 -30.3005 -30.2876 -30.2828 -30.2800 -30.2749
   -30.2378 -30.2334 -30.2300 -30.2254 -30.2108 -30.2084 -30.2029 -30.2007
   -20.1237 -20.1237 -20.1235 -20.1235 -20.1234 -20.1234 -20.1232 -20.1232
   -20.1139 -20.1138 -20.1136 -20.1135 -20.1131 -20.1130 -20.1129 -20.1128
   -20.1121 -20.1120 -20.1117 -20.1113 -20.1110 -20.1107 -20.1106 -20.1105
   -20.1098 -20.1097 -20.1094 -20.1093 -20.1088 -20.1087 -20.1085 -20.1084
   -20.0932 -20.0932 -20.0930 -20.0930 -20.0928 -20.0928 -20.0926 -20.0926
   -20.0490 -20.0486 -20.0482 -20.0481 -20.0478 -20.0478 -20.0466 -20.0462
   -20.0453 -20.0450 -20.0438 -20.0434 -20.0432 -20.0429 -20.0424 -20.0421
    -9.5502  -9.5419  -9.3422  -9.3242  -8.9624  -8.9454  -8.8018  -8.7955
    -8.5467  -8.5455  -8.4765  -8.4747  -8.4357  -8.4352  -8.4122  -8.4087
    -8.1279  -8.1109  -8.0142  -7.9974  -7.6751  -7.6575  -7.6036  -7.5860
     1.3958   1.4108   1.4199   1.4358   2.3050   2.3171   2.4968   2.5088
     2.8493   2.8499   3.1553   3.1859   3.2333   3.2416   3.2489   3.2858
     3.2907   3.3001   3.4009   3.4400   3.4571   3.5057   3.6963   3.7083
     3.7806   3.7843   3.8896   3.8964   4.4866   4.4870   4.6529   4.6579
     4.8031   4.8196   4.8885   4.9047   5.2396   5.2476   5.2552   5.2609
     5.3849   5.3970   5.6882   5.6905   6.2392   6.2432   6.2738   6.3213
     6.5371   6.5513   6.6658   6.7186   6.7201   6.7596   6.8715   6.9042
     7.0417   7.0601   7.1835   7.1964   7.2048   7.2087   7.4320   7.4521
     7.4698   7.4840   7.4976   7.5086   7.5124   7.5184   7.8282   7.8284
    10.4919  10.5042  11.3098  11.3285  11.3528  11.3722  11.7950  11.8085
    11.8420  11.8617  11.9495  11.9721  12.6546  12.6805  12.8319  12.8351
    12.9721  12.9813  13.2787  13.2952  13.6441  13.6453  13.6615  13.6690
    15.4776  15.5053  15.6693  15.6960  16.2028  16.2234  16.7409  16.7557
    16.8505  16.8562  17.3115  17.3119  17.9649  17.9737

          k = 0.0000-0.4746-0.4999 ( 62364 PWs)   bands (ev):

   -65.9702 -65.9702 -65.9702 -65.9702 -65.9692 -65.9692 -65.9692 -65.9692
   -30.4078 -30.4078 -30.4073 -30.4073 -30.4041 -30.4041 -30.4038 -30.4038
   -30.3094 -30.3094 -30.3018 -30.3018 -30.2628 -30.2628 -30.2581 -30.2581
   -30.2550 -30.2550 -30.2501 -30.2501 -30.2097 -30.2097 -30.2018 -30.2018
   -20.1236 -20.1236 -20.1236 -20.1236 -20.1233 -20.1233 -20.1233 -20.1233
   -20.1139 -20.1139 -20.1133 -20.1133 -20.1132 -20.1132 -20.1129 -20.1129
   -20.1121 -20.1121 -20.1112 -20.1112 -20.1105 -20.1105 -20.1104 -20.1104
   -20.1100 -20.1100 -20.1099 -20.1099 -20.1087 -20.1087 -20.1085 -20.1085
   -20.0931 -20.0931 -20.0931 -20.0931 -20.0927 -20.0927 -20.0927 -20.0927
   -20.0486 -20.0486 -20.0482 -20.0482 -20.0467 -20.0467 -20.0464 -20.0464
   -20.0452 -20.0452 -20.0448 -20.0448 -20.0428 -20.0428 -20.0425 -20.0425
    -9.4277  -9.4277  -9.4129  -9.4129  -8.6824  -8.6824  -8.6714  -8.6714
    -8.5811  -8.5811  -8.5740  -8.5740  -8.3848  -8.3848  -8.3714  -8.3714
    -8.3094  -8.3094  -8.2949  -8.2949  -7.6390  -7.6390  -7.6213  -7.6213
     1.4136   1.4136   1.4296   1.4296   3.0346   3.0346   3.0780   3.0780
     3.1759   3.1759   3.1877   3.1877   3.2349   3.2350   3.2455   3.2455
     3.3324   3.3324   3.3522   3.3522   3.4788   3.4788   3.5146   3.5146
     3.5974   3.5974   3.6921   3.6921   4.3054   4.3054   4.3261   4.3261
     4.4065   4.4065   4.4408   4.4408   5.2274   5.2274   5.2399   5.2399
     5.5331   5.5331   5.5509   5.5509   6.3780   6.3780   6.3843   6.3843
     6.5452   6.5452   6.5665   6.5665   6.6468   6.6468   6.6725   6.6725
     7.2924   7.2924   7.3105   7.3105   7.3471   7.3471   7.4130   7.4130
     7.4623   7.4623   7.4949   7.4949   7.6222   7.6222   7.6302   7.6302
    11.2426  11.2426  11.2583  11.2583  11.3734  11.3734  11.3836  11.3836
    12.3220  12.3220  12.3447  12.3447  12.3708  12.3708  12.3899  12.3899
    12.9533  12.9533  12.9728  12.9728  13.6482  13.6482  13.6573  13.6573
    15.5728  15.5728  15.6011  15.6011  16.7921  16.7921  16.8160  16.8160
    17.4043  17.4043  17.4259  17.4260  17.5544  17.5544

          k = 0.1667 0.0000 0.0000 ( 62351 PWs)   bands (ev):

   -65.9708 -65.9704 -65.9700 -65.9698 -65.9696 -65.9694 -65.9690 -65.9686
   -30.4394 -30.4361 -30.4357 -30.4325 -30.3787 -30.3753 -30.3750 -30.3718
   -30.3127 -30.3080 -30.3061 -30.3034 -30.3003 -30.2999 -30.2971 -30.2919
   -30.2189 -30.2149 -30.2126 -30.2109 -30.2087 -30.2058 -30.2042 -30.2002
   -20.1264 -20.1261 -20.1261 -20.1258 -20.1210 -20.1207 -20.1206 -20.1203
   -20.1143 -20.1140 -20.1137 -20.1137 -20.1130 -20.1129 -20.1129 -20.1127
   -20.1127 -20.1122 -20.1119 -20.1117 -20.1111 -20.1109 -20.1106 -20.1105
   -20.1096 -20.1094 -20.1093 -20.1092 -20.1083 -20.1083 -20.1083 -20.1080
   -20.0933 -20.0932 -20.0930 -20.0929 -20.0929 -20.0928 -20.0926 -20.0925
   -20.0494 -20.0492 -20.0488 -20.0486 -20.0480 -20.0477 -20.0474 -20.0471
   -20.0440 -20.0437 -20.0437 -20.0433 -20.0426 -20.0424 -20.0421 -20.0419
    -9.8687  -9.5563  -9.5041  -9.4312  -9.1965  -9.1055  -9.0916  -8.9459
    -8.9279  -8.8593  -8.8412  -8.8008  -7.8705  -7.8325  -7.8229  -7.8040
    -7.7892  -7.7508  -7.7110  -7.7007  -7.6814  -7.6749  -7.5839  -7.5552
     1.3510   1.3519   1.3775   1.3875   1.4678   1.5036   1.6170   1.6307
     1.6402   1.7458   1.8819   2.0276   2.5472   2.5920   2.6327   2.6708
     2.7248   2.8222   4.1173   4.1932   4.4022   4.4149   4.4395   4.5354
     4.6627   4.7927   4.8201   4.9564   4.9680   5.0279   5.0779   5.3458
     5.3802   5.4283   5.5151   5.5507   5.5761   5.6125   5.6336   5.6618
     5.7722   5.7888   5.8286   5.9422   5.9902   6.1133   6.1511   6.1767
     6.3178   6.4533   6.5265   6.5532   6.6866   6.7163   6.7867   6.8338
     6.8544   6.8796   6.9866   7.0157   7.0453   7.1067   7.2066   7.2210
     7.2406   7.3033   7.8790   7.8835   8.0414   8.1027   8.1031   8.1532
     9.7433   9.7731  10.0378  10.0605  10.2963  10.3449  12.3030  12.3274
    12.3797  12.4196  12.4498  12.4940  12.5857  12.6859  12.9756  13.0258
    13.1571  13.2923  13.3663  13.4498  13.9407  14.0750  14.1376  14.1944
    14.2595  14.4844  14.6023  14.9236  15.5288  15.5613  15.5892  16.1258
    16.4676  16.8042  17.0604  17.3005  17.4160  17.4492

          k = 0.1667 0.0000 0.1666 ( 62348 PWs)   bands (ev):

   -65.9708 -65.9703 -65.9699 -65.9699 -65.9695 -65.9695 -65.9691 -65.9686
   -30.4392 -30.4359 -30.4359 -30.4327 -30.3785 -30.3753 -30.3752 -30.3721
   -30.3069 -30.3043 -30.3014 -30.3007 -30.2979 -30.2964 -30.2931 -30.2923
   -30.2194 -30.2186 -30.2164 -30.2149 -30.2108 -30.2100 -30.2072 -30.2058
   -20.1264 -20.1261 -20.1261 -20.1259 -20.1210 -20.1207 -20.1206 -20.1203
   -20.1142 -20.1139 -20.1138 -20.1137 -20.1130 -20.1129 -20.1129 -20.1127
   -20.1125 -20.1120 -20.1119 -20.1116 -20.1110 -20.1108 -20.1106 -20.1104
   -20.1097 -20.1096 -20.1093 -20.1093 -20.1085 -20.1084 -20.1083 -20.1081
   -20.0933 -20.0932 -20.0930 -20.0929 -20.0928 -20.0928 -20.0926 -20.0925
   -20.0490 -20.0490 -20.0485 -20.0485 -20.0477 -20.0475 -20.0473 -20.0472
   -20.0441 -20.0439 -20.0437 -20.0436 -20.0428 -20.0427 -20.0423 -20.0422
    -9.8213  -9.4976  -9.4474  -9.4472  -9.1143  -9.1073  -9.1059  -8.9048
    -8.8918  -8.8501  -8.8063  -8.8057  -7.8738  -7.8291  -7.8259  -7.8214
    -7.8122  -7.7894  -7.7863  -7.7542  -7.7305  -7.7159  -7.6850  -7.6648
     1.4481   1.4964   1.4970   1.5492   1.5495   1.6095   1.6442   1.6466
     1.7464   1.7487   1.9664   2.1079   2.6342   2.6749   2.6846   2.7280
     2.7985   2.8340   4.1216   4.1233   4.3728   4.3750   4.5102   4.5103
     4.5939   4.6000   4.6862   4.7042   4.7614   4.8252   5.0619   5.2924
     5.3039   5.3666   5.3861   5.4971   5.5051   5.6453   5.6477   5.6996
     5.7017   5.7502   5.7988   5.8061   5.8091   6.0018   6.3242   6.4569
     6.5019   6.5212   6.5802   6.6550   6.6969   6.7036   6.7072   6.7429
     6.7787   6.8674   6.8707   6.8978   6.9207   7.0051   7.0108   7.1194
     7.3375   7.3929   7.8787   7.8789   8.0429   8.0881   8.1000   8.1151
     9.9629  10.0321  10.2912  10.2956  10.3138  10.4046  12.3524  12.3594
    12.3722  12.3858  12.4181  12.4443  12.6647  12.6830  12.9870  13.0265
    13.0914  13.2160  13.2497  13.4278  13.9849  14.0382  14.0779  14.1156
    14.2311  14.5851  14.5942  15.0412  15.4957  15.6451  15.6597  16.4288
    16.4341  16.9655  16.9707  17.2006  17.4945  17.5044

          k = 0.1667 0.0000 0.3333 ( 62368 PWs)   bands (ev):

   -65.9706 -65.9702 -65.9701 -65.9697 -65.9697 -65.9693 -65.9692 -65.9688
   -30.4386 -30.4367 -30.4354 -30.4335 -30.3780 -30.3760 -30.3747 -30.3728
   -30.3044 -30.3017 -30.2960 -30.2935 -30.2872 -30.2833 -30.2793 -30.2749
   -30.2377 -30.2340 -30.2295 -30.2256 -30.2177 -30.2152 -30.2093 -30.2071
   -20.1264 -20.1262 -20.1261 -20.1259 -20.1209 -20.1207 -20.1206 -20.1204
   -20.1140 -20.1138 -20.1136 -20.1135 -20.1131 -20.1131 -20.1130 -20.1128
   -20.1122 -20.1120 -20.1115 -20.1113 -20.1108 -20.1107 -20.1104 -20.1102
   -20.1102 -20.1101 -20.1095 -20.1092 -20.1090 -20.1088 -20.1083 -20.1082
   -20.0932 -20.0931 -20.0930 -20.0929 -20.0928 -20.0927 -20.0926 -20.0926
   -20.0486 -20.0483 -20.0480 -20.0478 -20.0476 -20.0474 -20.0467 -20.0463
   -20.0452 -20.0449 -20.0439 -20.0436 -20.0435 -20.0433 -20.0428 -20.0425
    -9.7067  -9.4973  -9.3598  -9.3180  -9.1501  -9.1434  -8.8567  -8.8519
    -8.8187  -8.7599  -8.7379  -8.6753  -8.1375  -8.1183  -8.0607  -8.0339
    -7.8395  -7.8195  -7.7979  -7.7870  -7.7716  -7.7636  -7.7296  -7.7049
     1.4607   1.4831   1.5597   1.5933   1.6628   1.6817   1.7375   1.7579
     2.3346   2.3702   2.5065   2.5882   2.7032   2.7925   2.8989   2.9222
     3.0115   3.0760   3.8413   3.8821   3.9826   3.9908   4.1658   4.3434
     4.3605   4.5323   4.5361   4.5897   4.6297   4.7894   4.8052   4.9570
     5.0204   5.0779   5.1237   5.2545   5.3057   5.3948   5.5600   5.6876
     5.6981   5.7577   5.8119   5.8159   5.8365   6.0131   6.1835   6.2474
     6.4285   6.4669   6.4969   6.5753   6.5983   6.6793   6.6805   6.7082
     6.8019   6.8884   6.9051   6.9195   7.1556   7.1819   7.2050   7.2704
     7.3457   7.3875   7.8163   7.8317   7.9375   7.9731   8.0988   8.1086
    10.2913  10.2982  10.5968  10.6675  10.9214  11.0421  11.9807  12.0288
    12.1965  12.5051  12.5349  12.5554  12.6152  12.6742  12.8301  12.9243
    12.9732  13.1030  13.1637  13.3477  13.7252  13.7446  14.0453  14.0729
    14.3842  14.5673  14.8851  15.3582  15.3896  15.9021  16.0617  16.3322
    16.3759  17.2746  17.3951  17.5322  17.6170  17.6320

          k = 0.1667 0.0000-0.4999 ( 62394 PWs)   bands (ev):

   -65.9703 -65.9703 -65.9699 -65.9699 -65.9695 -65.9695 -65.9691 -65.9691
   -30.4377 -30.4377 -30.4345 -30.4345 -30.3770 -30.3770 -30.3738 -30.3738
   -30.3030 -30.3030 -30.2947 -30.2947 -30.2626 -30.2626 -30.2587 -30.2587
   -30.2544 -30.2544 -30.2502 -30.2502 -30.2166 -30.2166 -30.2082 -30.2082
   -20.1263 -20.1263 -20.1260 -20.1260 -20.1209 -20.1209 -20.1206 -20.1206
   -20.1139 -20.1139 -20.1133 -20.1133 -20.1133 -20.1133 -20.1129 -20.1129
   -20.1120 -20.1120 -20.1108 -20.1108 -20.1108 -20.1108 -20.1106 -20.1106
   -20.1099 -20.1099 -20.1097 -20.1097 -20.1091 -20.1091 -20.1082 -20.1082
   -20.0931 -20.0931 -20.0930 -20.0930 -20.0927 -20.0927 -20.0926 -20.0926
   -20.0482 -20.0482 -20.0479 -20.0479 -20.0466 -20.0466 -20.0463 -20.0463
   -20.0453 -20.0453 -20.0449 -20.0449 -20.0432 -20.0432 -20.0429 -20.0429
    -9.5855  -9.5855  -9.2312  -9.2312  -9.2055  -9.2055  -8.8363  -8.8363
    -8.5066  -8.5066  -8.4901  -8.4901  -8.4468  -8.4468  -8.3937  -8.3937
    -7.8298  -7.8298  -7.7765  -7.7765  -7.7640  -7.7640  -7.7387  -7.7387
     1.4699   1.4699   1.5769   1.5769   1.6821   1.6821   1.7658   1.7658
     2.7317   2.7317   3.0469   3.0469   3.1288   3.1288   3.2518   3.2518
     3.3555   3.3555   3.4672   3.4672   3.5856   3.5856   3.8376   3.8376
     3.8949   3.8949   4.4470   4.4470   4.5466   4.5466   4.9135   4.9135
     5.0670   5.0670   5.0875   5.0875   5.2713   5.2713   5.6329   5.6329
     5.7988   5.7988   5.8183   5.8183   5.9404   5.9404   5.9801   5.9801
     6.3592   6.3592   6.4418   6.4418   6.6744   6.6744   6.7266   6.7266
     6.8467   6.8467   6.9957   6.9957   7.0575   7.0575   7.5703   7.5703
     7.6203   7.6203   7.7120   7.7120   7.7289   7.7289   8.1080   8.1080
    10.3041  10.3041  11.3184  11.3184  11.3964  11.3964  11.6346  11.6346
    11.8310  11.8310  12.6949  12.6949  12.7364  12.7364  12.7946  12.7946
    12.9836  12.9836  13.3134  13.3134  13.4139  13.4139  14.0566  14.0566
    14.5091  14.5091  15.1895  15.1895  15.8116  15.8116  16.1653  16.1653
    16.8123  16.8123  17.7841  17.7841  17.8274  17.8274

          k = 0.1667 0.1582 0.0000 ( 62332 PWs)   bands (ev):

   -65.9708 -65.9704 -65.9699 -65.9698 -65.9696 -65.9695 -65.9690 -65.9686
   -30.4353 -30.4320 -30.4316 -30.4284 -30.3828 -30.3794 -30.3791 -30.3759
   -30.3126 -30.3079 -30.3063 -30.3034 -30.3003 -30.3000 -30.2972 -30.2920
   -30.2188 -30.2148 -30.2126 -30.2110 -30.2087 -30.2058 -30.2043 -30.2003
   -20.1260 -20.1258 -20.1257 -20.1255 -20.1214 -20.1210 -20.1210 -20.1207
   -20.1142 -20.1140 -20.1137 -20.1137 -20.1131 -20.1129 -20.1129 -20.1127
   -20.1126 -20.1122 -20.1119 -20.1117 -20.1111 -20.1109 -20.1107 -20.1105
   -20.1096 -20.1093 -20.1093 -20.1091 -20.1084 -20.1084 -20.1084 -20.1081
   -20.0933 -20.0932 -20.0930 -20.0929 -20.0929 -20.0928 -20.0926 -20.0925
   -20.0494 -20.0492 -20.0488 -20.0486 -20.0480 -20.0477 -20.0474 -20.0471
   -20.0440 -20.0437 -20.0437 -20.0433 -20.0426 -20.0424 -20.0421 -20.0419
    -9.8361  -9.5683  -9.4639  -9.3859  -9.2046  -9.0995  -9.0309  -8.9433
    -8.9287  -8.8176  -8.8056  -8.7702  -7.9581  -7.9105  -7.9001  -7.8619
    -7.8370  -7.8086  -7.7105  -7.7006  -7.6819  -7.6746  -7.5830  -7.5565
     1.3675   1.3688   1.3796   1.3890   1.5890   1.6316   1.6417   1.8187
     1.8577   1.8821   1.8956   2.1238   2.5539   2.6266   2.6645   2.7455
     2.7948   2.8909   4.0157   4.0699   4.1259   4.1740   4.4507   4.5327
     4.6874   4.7157   4.8205   4.9134   4.9419   4.9617   4.9965   5.2524
     5.2806   5.3222   5.3668   5.5059   5.6020   5.6072   5.6612   5.7034
     5.7565   5.7915   5.8425   5.8758   5.8999   6.1449   6.1537   6.1795
     6.2602   6.4418   6.5030   6.5782   6.7199   6.7821   6.8074   6.8308
     6.8575   6.9040   6.9691   6.9899   7.0223   7.0420   7.2072   7.2210
     7.2524   7.3042   7.8807   7.8831   8.0024   8.0309   8.0472   8.0734
     9.7497   9.7738  10.2350  10.2375  10.4648  10.4878  12.2147  12.3199
    12.3222  12.3686  12.4220  12.4348  12.4647  12.5738  12.9971  13.0257
    13.1810  13.3144  13.3745  13.4519  13.9603  13.9926  14.1072  14.1209
    14.3868  14.7408  14.8892  15.0876  15.5608  15.5886  15.9297  16.0934
    16.4314  16.6961  16.9283  17.4124  17.4722  17.5559

          k = 0.1667 0.1582 0.1666 ( 62362 PWs)   bands (ev):

   -65.9707 -65.9704 -65.9699 -65.9699 -65.9695 -65.9695 -65.9690 -65.9687
   -30.4351 -30.4319 -30.4319 -30.4287 -30.3826 -30.3793 -30.3793 -30.3762
   -30.3067 -30.3045 -30.3013 -30.3006 -30.2979 -30.2966 -30.2932 -30.2924
   -30.2193 -30.2185 -30.2163 -30.2149 -30.2108 -30.2101 -30.2072 -30.2059
   -20.1260 -20.1258 -20.1258 -20.1255 -20.1213 -20.1210 -20.1210 -20.1207
   -20.1142 -20.1139 -20.1137 -20.1137 -20.1130 -20.1129 -20.1129 -20.1127
   -20.1125 -20.1120 -20.1119 -20.1116 -20.1110 -20.1108 -20.1107 -20.1105
   -20.1097 -20.1095 -20.1093 -20.1092 -20.1086 -20.1085 -20.1084 -20.1081
   -20.0933 -20.0932 -20.0929 -20.0929 -20.0929 -20.0928 -20.0926 -20.0925
   -20.0490 -20.0490 -20.0485 -20.0485 -20.0477 -20.0475 -20.0473 -20.0472
   -20.0441 -20.0439 -20.0437 -20.0436 -20.0428 -20.0427 -20.0423 -20.0422
    -9.7871  -9.5097  -9.4026  -9.4023  -9.1155  -9.1141  -9.0396  -8.9039
    -8.8923  -8.8086  -8.7754  -8.7749  -7.9589  -7.9090  -7.9084  -7.8691
    -7.8294  -7.8270  -7.8024  -7.7966  -7.7306  -7.7127  -7.6838  -7.6663
     1.5474   1.5489   1.5906   1.5917   1.6407   1.6454   1.6515   1.8178
     1.8918   1.8937   1.9658   2.1814   2.6434   2.7218   2.7489   2.7595
     2.8718   2.8982   4.0240   4.0434   4.1540   4.1594   4.5000   4.5024
     4.5962   4.6012   4.6844   4.6912   4.7358   4.7689   4.8582   5.2142
     5.2443   5.2713   5.2820   5.3903   5.4121   5.5945   5.6003   5.6394
     5.7718   5.7836   5.7908   5.8199   5.8208   5.8708   6.3451   6.3900
     6.4230   6.5165   6.5733   6.6651   6.7022   6.7472   6.7899   6.7962
     6.8157   6.8446   6.8943   6.9033   6.9719   6.9849   7.0016   7.1260
     7.3411   7.3911   7.8786   7.8792   7.9904   8.0291   8.0351   8.0396
     9.9830  10.0318  10.4433  10.4624  10.4755  10.5385  12.2737  12.3115
    12.3626  12.3642  12.3897  12.3977  12.5294  12.5434  13.0135  13.0293
    13.1166  13.2246  13.2515  13.4313  13.9464  13.9536  13.9779  14.0355
    14.4877  14.8792  14.8831  15.1886  15.6460  15.6580  15.8980  16.3958
    16.3994  16.8171  17.0698  17.0721  17.5439  17.6266

          k = 0.1667 0.1582 0.3333 ( 62373 PWs)   bands (ev):

   -65.9706 -65.9702 -65.9701 -65.9697 -65.9697 -65.9693 -65.9692 -65.9688
   -30.4346 -30.4327 -30.4313 -30.4295 -30.3820 -30.3801 -30.3788 -30.3769
   -30.3043 -30.3016 -30.2961 -30.2936 -30.2872 -30.2833 -30.2794 -30.2750
   -30.2376 -30.2339 -30.2296 -30.2256 -30.2177 -30.2151 -30.2094 -30.2071
   -20.1260 -20.1258 -20.1257 -20.1256 -20.1213 -20.1211 -20.1210 -20.1208
   -20.1140 -20.1138 -20.1136 -20.1135 -20.1131 -20.1130 -20.1130 -20.1128
   -20.1122 -20.1119 -20.1115 -20.1114 -20.1108 -20.1107 -20.1104 -20.1103
   -20.1101 -20.1100 -20.1094 -20.1092 -20.1091 -20.1088 -20.1083 -20.1082
   -20.0932 -20.0931 -20.0930 -20.0929 -20.0928 -20.0928 -20.0926 -20.0926
   -20.0486 -20.0483 -20.0480 -20.0478 -20.0476 -20.0474 -20.0467 -20.0463
   -20.0452 -20.0449 -20.0439 -20.0436 -20.0435 -20.0433 -20.0428 -20.0425
    -9.6686  -9.4534  -9.3717  -9.2599  -9.1590  -9.0695  -8.8625  -8.8300
    -8.7874  -8.7606  -8.7243  -8.6577  -8.1412  -8.1210  -8.0809  -8.0338
    -7.9245  -7.9096  -7.8880  -7.8589  -7.8004  -7.7736  -7.7301  -7.7049
     1.5970   1.6113   1.6631   1.6822   1.7732   1.7794   1.8608   1.8940
     2.3335   2.3791   2.5088   2.6013   2.7767   2.8572   2.9185   2.9968
     3.0090   3.1317   3.8434   3.8844   3.9445   3.9742   4.1520   4.1988
     4.2611   4.3838   4.5514   4.6095   4.6558   4.7252   4.7714   4.8009
     4.9125   4.9611   5.0021   5.1579   5.2360   5.2835   5.3311   5.6124
     5.6486   5.6632   5.7624   5.8258   5.8362   5.8458   6.1905   6.2459
     6.3896   6.5195   6.5597   6.6365   6.6951   6.7099   6.7342   6.7958
     6.8551   6.8959   6.9232   6.9609   7.1508   7.1758   7.2013   7.2738
     7.3387   7.3830   7.8167   7.8282   7.8931   7.9169   8.0333   8.0374
    10.4297  10.4619  10.6206  10.6762  11.0358  11.1290  11.9815  12.0258
    12.1732  12.4844  12.5128  12.5287  12.5537  12.6053  12.7577  12.8073
    12.9859  13.1118  13.1446  13.3477  13.6187  13.6478  13.9635  13.9901
    14.6973  14.8608  15.2325  15.4744  15.7937  15.8971  16.0703  16.3052
    16.4784  17.1937  17.2344  17.4529  17.5739  17.7311

          k = 0.1667 0.1582-0.4999 ( 62378 PWs)   bands (ev):

   -65.9703 -65.9703 -65.9699 -65.9699 -65.9695 -65.9695 -65.9691 -65.9691
   -30.4337 -30.4337 -30.4305 -30.4305 -30.3811 -30.3811 -30.3779 -30.3779
   -30.3030 -30.3030 -30.2948 -30.2948 -30.2626 -30.2626 -30.2586 -30.2586
   -30.2545 -30.2545 -30.2502 -30.2502 -30.2165 -30.2165 -30.2083 -30.2083
   -20.1259 -20.1259 -20.1257 -20.1257 -20.1212 -20.1212 -20.1209 -20.1209
   -20.1139 -20.1139 -20.1133 -20.1133 -20.1133 -20.1133 -20.1129 -20.1129
   -20.1120 -20.1120 -20.1109 -20.1109 -20.1108 -20.1108 -20.1106 -20.1106
   -20.1099 -20.1099 -20.1097 -20.1097 -20.1091 -20.1091 -20.1083 -20.1083
   -20.0931 -20.0931 -20.0930 -20.0930 -20.0927 -20.0927 -20.0927 -20.0927
   -20.0482 -20.0482 -20.0479 -20.0479 -20.0466 -20.0466 -20.0463 -20.0463
   -20.0453 -20.0453 -20.0449 -20.0449 -20.0432 -20.0432 -20.0429 -20.0429
    -9.5436  -9.5436  -9.2415  -9.2415  -9.1353  -9.1353  -8.8051  -8.8051
    -8.5101  -8.5101  -8.4939  -8.4939  -8.4487  -8.4487  -8.3891  -8.3891
    -7.9210  -7.9210  -7.8778  -7.8778  -7.7653  -7.7653  -7.7391  -7.7391
     1.6052   1.6052   1.6825   1.6825   1.7839   1.7839   1.8938   1.8938
     2.8013   2.8013   3.0661   3.0661   3.1497   3.1497   3.2667   3.2667
     3.3587   3.3587   3.4718   3.4718   3.5763   3.5763   3.8409   3.8409
     3.9421   3.9421   4.2854   4.2854   4.5505   4.5505   4.6900   4.6900
     4.9478   4.9478   5.0610   5.0610   5.1319   5.1319   5.4471   5.4471
     5.6950   5.6950   5.7686   5.7686   5.8813   5.8813   5.9441   5.9441
     6.4851   6.4851   6.6150   6.6150   6.6568   6.6568   6.7774   6.7774
     6.9162   6.9162   6.9636   6.9636   7.0791   7.0791   7.5684   7.5684
     7.6139   7.6139   7.6837   7.6837   7.7025   7.7025   8.0380   8.0380
    10.4645  10.4645  11.3259  11.3259  11.3955  11.3955  11.7019  11.7019
    11.8904  11.8904  12.5585  12.5585  12.7225  12.7225  12.7808  12.7808
    12.9671  12.9671  13.2085  13.2085  13.3514  13.3514  13.9719  13.9719
    14.8121  14.8121  15.5639  15.5639  15.9327  15.9327  16.1437  16.1437
    16.8426  16.8426  17.5965  17.5965  17.8500  17.8500

          k = 0.1667 0.3164 0.0000 ( 62353 PWs)   bands (ev):

   -65.9707 -65.9705 -65.9699 -65.9697 -65.9697 -65.9695 -65.9689 -65.9687
   -30.4242 -30.4209 -30.4205 -30.4174 -30.3938 -30.3905 -30.3902 -30.3870
   -30.3124 -30.3079 -30.3065 -30.3033 -30.3002 -30.3002 -30.2975 -30.2923
   -30.2187 -30.2147 -30.2125 -30.2111 -30.2087 -30.2059 -30.2044 -30.2004
   -20.1251 -20.1248 -20.1247 -20.1245 -20.1224 -20.1221 -20.1220 -20.1217
   -20.1141 -20.1139 -20.1138 -20.1137 -20.1131 -20.1129 -20.1128 -20.1127
   -20.1125 -20.1121 -20.1118 -20.1118 -20.1111 -20.1110 -20.1107 -20.1107
   -20.1093 -20.1092 -20.1091 -20.1089 -20.1086 -20.1086 -20.1085 -20.1083
   -20.0933 -20.0932 -20.0929 -20.0929 -20.0929 -20.0929 -20.0925 -20.0925
   -20.0494 -20.0492 -20.0488 -20.0486 -20.0480 -20.0477 -20.0474 -20.0471
   -20.0440 -20.0437 -20.0437 -20.0433 -20.0426 -20.0424 -20.0421 -20.0419
    -9.7569  -9.6058  -9.3720  -9.2813  -9.2310  -9.1265  -8.9392  -8.9311
    -8.8196  -8.6829  -8.6821  -8.6600  -8.2012  -8.1610  -8.1509  -8.1356
    -7.8357  -7.8137  -7.7077  -7.6994  -7.6842  -7.6770  -7.5804  -7.5594
     1.3707   1.3768   1.3812   1.3915   1.6260   1.6425   1.8283   1.8780
     2.3760   2.4981   2.5211   2.5696   2.6111   2.6765   2.8801   2.9711
     3.0016   3.1000   3.6525   3.6863   3.7048   3.7498   4.1450   4.4369
     4.4861   4.4927   4.5595   4.7487   4.7678   4.8791   4.9390   4.9675
     5.0474   5.0827   5.1903   5.3319   5.4218   5.4910   5.6014   5.6620
     5.7106   5.8247   5.8283   5.8676   6.0793   6.1361   6.1730   6.1944
     6.2620   6.4430   6.4812   6.5975   6.6441   6.8613   6.8830   6.9402
     6.9786   6.9967   7.0816   7.0867   7.1068   7.1179   7.2119   7.2231
     7.2792   7.3129   7.8049   7.8305   7.8367   7.8554   7.8889   7.8907
     9.7597   9.7726  10.7020  10.7423  10.8849  10.9136  11.8575  11.9583
    11.9944  12.0720  12.3315  12.3655  12.4754  12.5177  13.0314  13.0398
    13.2713  13.3847  13.4461  13.5102  13.7330  13.7774  13.8851  13.9051
    14.9491  15.3011  15.5037  15.5694  15.5883  15.7087  15.9796  16.1220
    16.3074  16.9266  17.2992  17.3414  17.6380  17.8190

          k = 0.1667 0.3164 0.1666 ( 62318 PWs)   bands (ev):

   -65.9707 -65.9705 -65.9698 -65.9698 -65.9696 -65.9696 -65.9689 -65.9687
   -30.4240 -30.4208 -30.4208 -30.4177 -30.3936 -30.3904 -30.3904 -30.3873
   -30.3062 -30.3048 -30.3013 -30.3005 -30.2978 -30.2970 -30.2933 -30.2926
   -30.2192 -30.2184 -30.2160 -30.2151 -30.2109 -30.2102 -30.2071 -30.2062
   -20.1251 -20.1248 -20.1248 -20.1245 -20.1224 -20.1221 -20.1220 -20.1218
   -20.1140 -20.1138 -20.1138 -20.1137 -20.1131 -20.1130 -20.1129 -20.1128
   -20.1123 -20.1119 -20.1118 -20.1118 -20.1110 -20.1108 -20.1108 -20.1106
   -20.1095 -20.1094 -20.1091 -20.1090 -20.1088 -20.1087 -20.1085 -20.1083
   -20.0933 -20.0932 -20.0929 -20.0929 -20.0929 -20.0929 -20.0926 -20.0925
   -20.0490 -20.0490 -20.0485 -20.0485 -20.0477 -20.0475 -20.0473 -20.0472
   -20.0441 -20.0439 -20.0437 -20.0436 -20.0428 -20.0427 -20.0423 -20.0422
    -9.7041  -9.5477  -9.2987  -9.2980  -9.1430  -9.1417  -8.9014  -8.8948
    -8.8280  -8.6755  -8.6646  -8.6643  -8.2026  -8.1578  -8.1573  -8.1408
    -7.8287  -7.8246  -7.8067  -7.8019  -7.7272  -7.7162  -7.6805  -7.6703
     1.5480   1.5486   1.6299   1.6318   1.6471   1.6491   1.8985   1.9616
     2.3781   2.4992   2.5011   2.6511   2.6623   2.7208   2.9730   2.9879
     3.0921   3.0980   3.6929   3.6973   3.7155   3.7661   4.1373   4.4579
     4.4606   4.5316   4.5367   4.6193   4.6234   4.7414   4.7452   4.8333
     4.8861   4.8936   5.1347   5.1651   5.4039   5.4202   5.4212   5.4534
     5.6558   5.6731   5.8062   5.8081   5.8552   5.8580   6.4125   6.4221
     6.4435   6.5169   6.5567   6.6491   6.7901   6.7930   6.8690   6.8748
     6.9404   6.9440   7.0008   7.0269   7.1004   7.1045   7.1175   7.1626
     7.3591   7.3914   7.8045   7.8067   7.8187   7.8458   7.8825   7.8926
    10.0083  10.0286  10.8546  10.8982  10.9135  10.9382  11.9323  11.9778
    12.0631  12.0764  12.3802  12.3829  12.4237  12.4257  13.0376  13.0615
    13.2360  13.2810  13.3102  13.4715  13.7125  13.7211  13.7407  13.8270
    15.1029  15.5042  15.5109  15.6529  15.6543  15.7696  16.2399  16.2775
    16.2810  16.8919  17.3621  17.4026  17.4223  17.6993

          k = 0.1667 0.3164 0.3333 ( 62353 PWs)   bands (ev):

   -65.9705 -65.9703 -65.9700 -65.9698 -65.9696 -65.9694 -65.9691 -65.9689
   -30.4235 -30.4216 -30.4203 -30.4184 -30.3931 -30.3912 -30.3899 -30.3881
   -30.3042 -30.3015 -30.2964 -30.2938 -30.2871 -30.2832 -30.2796 -30.2751
   -30.2375 -30.2338 -30.2297 -30.2258 -30.2176 -30.2150 -30.2095 -30.2073
   -20.1250 -20.1249 -20.1248 -20.1246 -20.1223 -20.1221 -20.1220 -20.1219
   -20.1139 -20.1137 -20.1136 -20.1135 -20.1131 -20.1130 -20.1130 -20.1128
   -20.1120 -20.1118 -20.1115 -20.1114 -20.1108 -20.1108 -20.1105 -20.1104
   -20.1099 -20.1099 -20.1093 -20.1093 -20.1091 -20.1089 -20.1085 -20.1084
   -20.0932 -20.0931 -20.0930 -20.0929 -20.0928 -20.0928 -20.0926 -20.0926
   -20.0486 -20.0483 -20.0480 -20.0478 -20.0476 -20.0474 -20.0467 -20.0463
   -20.0452 -20.0449 -20.0439 -20.0436 -20.0435 -20.0433 -20.0428 -20.0425
    -9.5765  -9.4097  -9.3503  -9.1891  -9.1147  -8.8942  -8.8605  -8.7892
    -8.7637  -8.6773  -8.6395  -8.5880  -8.2448  -8.2140  -8.1546  -8.1471
    -8.1194  -8.0696  -8.0286  -7.9856  -7.7986  -7.7774  -7.7281  -7.7075
     1.6469   1.6650   1.6682   1.6854   2.2340   2.3146   2.3286   2.3968
     2.4951   2.5160   2.5404   2.7399   2.9342   2.9927   3.0049   3.0830
     3.2266   3.3181   3.6789   3.6926   3.7556   3.8046   3.9417   4.0123
     4.1182   4.3016   4.3983   4.4233   4.4905   4.5750   4.6322   4.6844
     4.7574   4.7900   4.8467   4.8723   4.9497   5.0262   5.1620   5.1778
     5.3418   5.3679   5.4561   5.6245   5.8352   5.8678   6.2277   6.2471
     6.5666   6.6303   6.6617   6.7497   6.8278   6.8485   6.9413   6.9735
     7.0151   7.0421   7.0595   7.0884   7.1737   7.1969   7.2186   7.2934
     7.3232   7.3725   7.7331   7.7365   7.7984   7.8205   7.8279   7.8648
    10.6021  10.6400  10.9042  10.9200  11.3528  11.4009  11.9282  11.9843
    12.0064  12.1382  12.2496  12.2920  12.5451  12.6303  12.7159  12.7520
    12.9638  13.1254  13.1749  13.3790  13.3954  13.4391  13.7294  13.7726
    15.3356  15.4848  15.8541  15.9613  16.0363  16.1251  16.2040  16.6806
    16.7707  16.8193  17.1024  17.5803  17.6278  17.7034

          k = 0.1667 0.3164-0.4999 ( 62354 PWs)   bands (ev):

   -65.9702 -65.9702 -65.9700 -65.9700 -65.9694 -65.9694 -65.9692 -65.9692
   -30.4226 -30.4226 -30.4194 -30.4194 -30.3922 -30.3922 -30.3890 -30.3890
   -30.3028 -30.3028 -30.2950 -30.2950 -30.2625 -30.2625 -30.2585 -30.2585
   -30.2546 -30.2546 -30.2504 -30.2504 -30.2164 -30.2164 -30.2084 -30.2084
   -20.1250 -20.1250 -20.1247 -20.1247 -20.1222 -20.1222 -20.1220 -20.1220
   -20.1138 -20.1138 -20.1133 -20.1133 -20.1132 -20.1132 -20.1129 -20.1129
   -20.1119 -20.1119 -20.1110 -20.1110 -20.1106 -20.1106 -20.1105 -20.1105
   -20.1099 -20.1099 -20.1099 -20.1099 -20.1090 -20.1090 -20.1085 -20.1085
   -20.0931 -20.0931 -20.0930 -20.0930 -20.0927 -20.0927 -20.0927 -20.0927
   -20.0482 -20.0482 -20.0479 -20.0479 -20.0466 -20.0466 -20.0463 -20.0463
   -20.0453 -20.0453 -20.0449 -20.0449 -20.0432 -20.0432 -20.0429 -20.0429
    -9.4438  -9.4438  -9.2758  -9.2758  -8.9419  -8.9419  -8.7037  -8.7037
    -8.5417  -8.5417  -8.5088  -8.5088  -8.4443  -8.4443  -8.3705  -8.3705
    -8.1485  -8.1485  -8.1141  -8.1141  -7.7633  -7.7633  -7.7422  -7.7422
     1.6654   1.6654   1.6850   1.6850   2.3805   2.3805   2.4970   2.4970
     2.9986   2.9986   3.1228   3.1228   3.1582   3.1582   3.3244   3.3244
     3.3662   3.3662   3.4915   3.4916   3.5371   3.5371   3.7226   3.7226
     4.0758   4.0759   4.1056   4.1056   4.1492   4.1492   4.3802   4.3802
     4.7457   4.7458   4.8199   4.8199   4.9962   4.9962   5.0592   5.0592
     5.1750   5.1750   5.5289   5.5289   5.9395   5.9395   5.9508   5.9508
     6.6860   6.6860   6.7921   6.7921   6.8584   6.8584   6.8914   6.8914
     7.0320   7.0320   7.0779   7.0779   7.1894   7.1894   7.5355   7.5355
     7.5703   7.5703   7.6094   7.6094   7.6443   7.6443   7.8335   7.8335
    10.8882  10.8882  11.3419  11.3419  11.3942  11.3942  11.8228  11.8228
    12.0748  12.0748  12.2438  12.2438  12.6235  12.6235  12.6763  12.6763
    12.8809  12.8809  13.0030  13.0030  13.3381  13.3381  13.7440  13.7440
    15.4349  15.4349  16.0504  16.0504  16.3248  16.3248  16.5119  16.5119
    16.9763  16.9763  17.2438  17.2438  17.8330  17.8330

          k = 0.1667-0.4746 0.0000 ( 62358 PWs)   bands (ev):

   -65.9706 -65.9706 -65.9698 -65.9698 -65.9696 -65.9696 -65.9688 -65.9688
   -30.4090 -30.4089 -30.4061 -30.4057 -30.4053 -30.4049 -30.4023 -30.4022
   -30.3123 -30.3078 -30.3067 -30.3032 -30.3003 -30.3001 -30.2976 -30.2924
   -30.2186 -30.2146 -30.2124 -30.2112 -30.2088 -30.2059 -30.2045 -30.2005
   -20.1237 -20.1237 -20.1235 -20.1234 -20.1234 -20.1234 -20.1231 -20.1231
   -20.1140 -20.1139 -20.1138 -20.1136 -20.1131 -20.1129 -20.1128 -20.1128
   -20.1125 -20.1121 -20.1119 -20.1118 -20.1111 -20.1110 -20.1108 -20.1107
   -20.1091 -20.1090 -20.1090 -20.1089 -20.1088 -20.1087 -20.1087 -20.1085
   -20.0933 -20.0933 -20.0929 -20.0929 -20.0929 -20.0929 -20.0925 -20.0925
   -20.0494 -20.0492 -20.0488 -20.0486 -20.0480 -20.0477 -20.0474 -20.0471
   -20.0440 -20.0437 -20.0437 -20.0433 -20.0426 -20.0424 -20.0421 -20.0419
    -9.6719  -9.6696  -9.2948  -9.2755  -9.1935  -9.1745  -8.9359  -8.9340
    -8.5150  -8.5150  -8.4554  -8.4534  -8.4459  -8.4458  -8.4415  -8.4396
    -7.8340  -7.8159  -7.7056  -7.6989  -7.6852  -7.6789  -7.5788  -7.5612
     1.3711   1.3781   1.3816   1.3924   1.6302   1.6437   1.8628   1.8718
     2.5903   2.5906   3.1500   3.1616   3.2209   3.2312   3.2572   3.2869
     3.2890   3.3171   3.3208   3.3700   3.4606   3.5140   3.5259   3.5643
     3.7059   3.7074   4.5114   4.5137   4.9050   4.9270   4.9988   5.0242
     5.1303   5.1312   5.1998   5.2047   5.3297   5.3343   5.5220   5.5331
     5.7621   5.7651   5.8294   5.8341   6.1351   6.1752   6.1798   6.1830
     6.3998   6.4090   6.4411   6.4851   6.7256   6.7558   6.9100   6.9379
     7.0247   7.0298   7.1995   7.2165   7.2324   7.2613   7.4532   7.4668
     7.4777   7.4886   7.5094   7.5216   7.5328   7.5412   7.8854   7.8858
     9.7646   9.7707  11.2910  11.3112  11.3633  11.3798  11.4280  11.4404
    11.4978  11.5209  12.3351  12.3648  12.4819  12.5134  13.0488  13.0490
    13.4442  13.4527  13.5351  13.5555  13.6307  13.6528  13.6703  13.6744
    15.4387  15.4626  15.6286  15.6495  15.7288  15.7565  16.0234  16.0456
    16.6161  16.6173  17.8159  17.8236  17.9062  17.9063

          k = 0.1667-0.4746 0.1666 ( 62322 PWs)   bands (ev):

   -65.9706 -65.9706 -65.9697 -65.9697 -65.9697 -65.9697 -65.9688 -65.9688
   -30.4088 -30.4088 -30.4060 -30.4060 -30.4053 -30.4052 -30.4025 -30.4025
   -30.3057 -30.3053 -30.3012 -30.3005 -30.2977 -30.2972 -30.2934 -30.2927
   -30.2192 -30.2183 -30.2158 -30.2153 -30.2110 -30.2103 -30.2069 -30.2064
   -20.1237 -20.1237 -20.1235 -20.1234 -20.1234 -20.1234 -20.1232 -20.1232
   -20.1139 -20.1138 -20.1138 -20.1137 -20.1131 -20.1130 -20.1128 -20.1128
   -20.1122 -20.1119 -20.1119 -20.1118 -20.1109 -20.1109 -20.1108 -20.1107
[...]
    12.0845  12.0845  12.0898  12.0898  12.2770  12.2770  12.2798  12.2798
    13.0536  13.0536  13.0636  13.0636  13.2331  13.2331  13.2419  13.2419
    15.3564  15.3564  15.3573  15.3573  16.7202  16.7202  16.7331  16.7331
    17.6965  17.6965  17.7064  17.7064  17.9697  17.9698

          k =-0.5000 0.3164 0.0000 ( 62384 PWs)   bands (ev):

   -65.9703 -65.9703 -65.9701 -65.9701 -65.9693 -65.9693 -65.9691 -65.9691
   -30.4227 -30.4227 -30.4191 -30.4191 -30.3923 -30.3923 -30.3888 -30.3888
   -30.3101 -30.3101 -30.3025 -30.3025 -30.2620 -30.2620 -30.2575 -30.2575
   -30.2542 -30.2542 -30.2493 -30.2493 -30.2106 -30.2106 -30.2025 -30.2025
   -20.1250 -20.1250 -20.1246 -20.1246 -20.1223 -20.1222 -20.1219 -20.1219
   -20.1140 -20.1140 -20.1134 -20.1134 -20.1132 -20.1132 -20.1129 -20.1129
   -20.1123 -20.1123 -20.1110 -20.1110 -20.1104 -20.1104 -20.1104 -20.1104
   -20.1097 -20.1097 -20.1097 -20.1097 -20.1091 -20.1091 -20.1085 -20.1085
   -20.0931 -20.0931 -20.0930 -20.0930 -20.0927 -20.0927 -20.0927 -20.0927
   -20.0487 -20.0487 -20.0484 -20.0484 -20.0465 -20.0465 -20.0463 -20.0463
   -20.0451 -20.0451 -20.0447 -20.0447 -20.0430 -20.0430 -20.0426 -20.0426
    -9.5129  -9.5129  -9.3589  -9.3589  -8.9284  -8.9284  -8.7260  -8.7260
    -8.5228  -8.5228  -8.5137  -8.5137  -8.4570  -8.4570  -8.3656  -8.3656
    -8.1511  -8.1511  -8.1094  -8.1094  -7.6416  -7.6416  -7.6202  -7.6202
     1.4092   1.4092   1.4261   1.4261   2.3775   2.3775   2.5141   2.5141
     2.9236   2.9236   3.0981   3.0981   3.1527   3.1527   3.3164   3.3164
     3.3636   3.3636   3.4083   3.4083   3.4826   3.4826   3.6726   3.6726
     4.0734   4.0734   4.1001   4.1001   4.1626   4.1626   4.3747   4.3747
     4.8225   4.8225   4.9199   4.9199   5.1240   5.1240   5.3123   5.3123
     5.4711   5.4711   5.7373   5.7373   6.3248   6.3248   6.3890   6.3890
     6.4979   6.4979   6.5513   6.5513   6.5700   6.5700   6.7792   6.7792
     7.0490   7.0490   7.0665   7.0665   7.1052   7.1052   7.5319   7.5319
     7.5575   7.5575   7.5928   7.5928   7.6285   7.6285   7.8529   7.8529
    10.7231  10.7231  11.2653  11.2653  11.3118  11.3118  11.7548  11.7548
    12.0643  12.0643  12.2082  12.2082  12.6373  12.6373  12.7111  12.7111
    12.9301  12.9301  13.0565  13.0565  13.4987  13.4987  13.8917  13.8917
    15.2223  15.2223  15.7775  15.7775  16.2553  16.2553  16.5242  16.5242
    16.9117  16.9117  17.2039  17.2039  17.9595  17.9596

          k =-0.5000 0.3164 0.1666 ( 62346 PWs)   bands (ev):

   -65.9702 -65.9702 -65.9700 -65.9700 -65.9694 -65.9694 -65.9692 -65.9692
   -30.4225 -30.4225 -30.4194 -30.4194 -30.3921 -30.3921 -30.3891 -30.3891
   -30.3035 -30.3035 -30.2958 -30.2958 -30.2616 -30.2616 -30.2578 -30.2578
   -30.2539 -30.2539 -30.2496 -30.2496 -30.2172 -30.2172 -30.2092 -30.2091
   -20.1250 -20.1250 -20.1247 -20.1247 -20.1222 -20.1222 -20.1219 -20.1219
   -20.1139 -20.1139 -20.1134 -20.1134 -20.1132 -20.1132 -20.1129 -20.1129
   -20.1121 -20.1121 -20.1109 -20.1109 -20.1104 -20.1104 -20.1104 -20.1104
   -20.1098 -20.1098 -20.1097 -20.1097 -20.1093 -20.1093 -20.1087 -20.1087
   -20.0931 -20.0930 -20.0930 -20.0930 -20.0927 -20.0927 -20.0927 -20.0927
   -20.0484 -20.0484 -20.0480 -20.0480 -20.0464 -20.0464 -20.0462 -20.0462
   -20.0452 -20.0452 -20.0448 -20.0448 -20.0434 -20.0434 -20.0430 -20.0430
    -9.4443  -9.4443  -9.2768  -9.2768  -8.9421  -8.9421  -8.7042  -8.7042
    -8.5407  -8.5407  -8.5081  -8.5081  -8.4432  -8.4432  -8.3697  -8.3697
    -8.1480  -8.1480  -8.1140  -8.1140  -7.7642  -7.7642  -7.7431  -7.7431
     1.6633   1.6633   1.6828   1.6828   2.3801   2.3801   2.4967   2.4967
     3.0015   3.0015   3.1209   3.1209   3.1566   3.1566   3.3254   3.3254
     3.3662   3.3662   3.4945   3.4945   3.5378   3.5378   3.7223   3.7223
     4.0718   4.0718   4.1026   4.1026   4.1587   4.1588   4.3827   4.3827
     4.7443   4.7443   4.8175   4.8175   4.9962   4.9962   5.0595   5.0595
     5.1758   5.1758   5.5286   5.5286   5.9384   5.9384   5.9501   5.9501
     6.6858   6.6859   6.7938   6.7938   6.8591   6.8591   6.8917   6.8917
     7.0300   7.0300   7.0789   7.0789   7.1881   7.1882   7.5346   7.5346
     7.5683   7.5683   7.6124   7.6124   7.6456   7.6456   7.8339   7.8339
    10.8874  10.8874  11.3428  11.3428  11.3939  11.3939  11.8152  11.8152
    12.0761  12.0761  12.2449  12.2449  12.6234  12.6234  12.6817  12.6817
    12.8813  12.8813  13.0059  13.0059  13.3365  13.3365  13.7454  13.7454
    15.4349  15.4349  16.0482  16.0482  16.3246  16.3246  16.5121  16.5121
    16.9715  16.9715  17.2443  17.2443  17.8311  17.8311

          k =-0.5000 0.3164 0.3333 ( 62358 PWs)   bands (ev):

   -65.9701 -65.9701 -65.9698 -65.9698 -65.9696 -65.9696 -65.9693 -65.9693
   -30.4220 -30.4220 -30.4202 -30.4202 -30.3916 -30.3916 -30.3898 -30.3898
   -30.2855 -30.2855 -30.2778 -30.2778 -30.2605 -30.2605 -30.2588 -30.2588
   -30.2531 -30.2531 -30.2504 -30.2504 -30.2353 -30.2353 -30.2273 -30.2273
   -20.1249 -20.1249 -20.1248 -20.1248 -20.1222 -20.1222 -20.1220 -20.1220
   -20.1137 -20.1137 -20.1133 -20.1133 -20.1132 -20.1132 -20.1130 -20.1130
   -20.1115 -20.1115 -20.1106 -20.1106 -20.1105 -20.1105 -20.1104 -20.1104
   -20.1099 -20.1099 -20.1097 -20.1097 -20.1096 -20.1096 -20.1091 -20.1091
   -20.0930 -20.0930 -20.0929 -20.0929 -20.0928 -20.0928 -20.0927 -20.0927
   -20.0474 -20.0474 -20.0471 -20.0471 -20.0461 -20.0461 -20.0459 -20.0459
   -20.0455 -20.0455 -20.0450 -20.0450 -20.0444 -20.0444 -20.0441 -20.0441
    -9.2716  -9.2716  -9.0524  -9.0523  -8.9892  -8.9892  -8.6312  -8.6312
    -8.5969  -8.5969  -8.4767  -8.4767  -8.4166  -8.4165  -8.3778  -8.3778
    -8.1489  -8.1489  -8.1324  -8.1324  -8.0565  -8.0565  -8.0233  -8.0233
     2.2659   2.2659   2.3590   2.3590   2.3950   2.3950   2.5358   2.5358
     3.1019   3.1019   3.1582   3.1582   3.2288   3.2288   3.3268   3.3268
     3.4035   3.4035   3.6502   3.6502   3.7605   3.7605   3.8572   3.8572
     4.0515   4.0515   4.1131   4.1131   4.1592   4.1592   4.2648   4.2648
     4.3578   4.3578   4.5004   4.5004   4.6380   4.6380   4.8566   4.8566
     4.9798   4.9798   5.0429   5.0429   5.1217   5.1217   5.3171   5.3171
     6.8564   6.8564   6.9136   6.9136   6.9781   6.9781   7.0410   7.0410
     7.1819   7.1819   7.3200   7.3200   7.4277   7.4277   7.5213   7.5213
     7.5737   7.5737   7.6460   7.6460   7.6692   7.6692   7.7838   7.7838
    11.3144  11.3145  11.5836  11.5836  11.6671  11.6671  11.9149  11.9149
    12.1241  12.1241  12.3842  12.3842  12.4333  12.4333  12.4818  12.4818
    12.7779  12.7779  12.8700  12.8700  12.9464  12.9464  13.3605  13.3605
    15.9494  15.9494  16.4346  16.4346  16.5563  16.5563  16.7881  16.7881
    17.1970  17.1970  17.3137  17.3137  17.5912  17.5912

          k =-0.5000 0.3164-0.4999 ( 62340 PWs)   bands (ev):

   -65.9698 -65.9698 -65.9698 -65.9698 -65.9696 -65.9696 -65.9696 -65.9696
   -30.4212 -30.4212 -30.4211 -30.4211 -30.3908 -30.3908 -30.3908 -30.3908
   -30.2615 -30.2615 -30.2614 -30.2614 -30.2603 -30.2603 -30.2602 -30.2602
   -30.2519 -30.2519 -30.2518 -30.2518 -30.2510 -30.2510 -30.2509 -30.2509
   -20.1249 -20.1248 -20.1248 -20.1248 -20.1221 -20.1221 -20.1221 -20.1221
   -20.1134 -20.1134 -20.1134 -20.1134 -20.1132 -20.1132 -20.1132 -20.1132
   -20.1109 -20.1109 -20.1108 -20.1108 -20.1103 -20.1103 -20.1103 -20.1103
   -20.1100 -20.1100 -20.1100 -20.1100 -20.1096 -20.1096 -20.1095 -20.1095
   -20.0929 -20.0929 -20.0929 -20.0929 -20.0928 -20.0928 -20.0928 -20.0928
   -20.0461 -20.0461 -20.0461 -20.0461 -20.0461 -20.0461 -20.0460 -20.0460
   -20.0454 -20.0454 -20.0453 -20.0453 -20.0453 -20.0453 -20.0453 -20.0453
    -9.0947  -9.0947  -9.0931  -9.0931  -8.7777  -8.7777  -8.7727  -8.7727
    -8.4804  -8.4804  -8.4710  -8.4710  -8.3448  -8.3448  -8.3398  -8.3398
    -8.3285  -8.3285  -8.3181  -8.3181  -8.1190  -8.1190  -8.1180  -8.1180
     2.3917   2.3917   2.3922   2.3922   3.0613   3.0613   3.0691   3.0691
     3.1665   3.1665   3.1674   3.1674   3.2867   3.2867   3.3035   3.3035
     3.3659   3.3659   3.3721   3.3721   3.9668   3.9668   3.9990   3.9990
     4.0102   4.0102   4.0307   4.0307   4.0925   4.0925   4.1088   4.1088
     4.3597   4.3597   4.3777   4.3777   4.3962   4.3962   4.4007   4.4007
     4.7317   4.7317   4.7319   4.7319   5.0408   5.0408   5.0426   5.0426
     6.9109   6.9109   6.9209   6.9209   7.0129   7.0129   7.0214   7.0214
     7.4086   7.4086   7.4116   7.4116   7.5059   7.5059   7.5172   7.5172
     7.6262   7.6262   7.6267   7.6267   7.7117   7.7117   7.7174   7.7174
    11.8135  11.8135  11.8235  11.8235  11.8856  11.8856  11.8946  11.8946
    12.1179  12.1179  12.1215  12.1215  12.3586  12.3586  12.3608  12.3608
    12.7345  12.7345  12.7427  12.7427  12.9335  12.9335  12.9394  12.9395
    16.3024  16.3024  16.3029  16.3029  16.9064  16.9064  16.9157  16.9157
    17.4395  17.4395  17.4565  17.4565  17.9742  17.9753

          k =-0.5000-0.4746 0.0000 ( 62368 PWs)   bands (ev):

   -65.9702 -65.9702 -65.9702 -65.9702 -65.9692 -65.9692 -65.9692 -65.9692
   -30.4078 -30.4078 -30.4072 -30.4072 -30.4042 -30.4042 -30.4038 -30.4038
   -30.3101 -30.3101 -30.3026 -30.3026 -30.2619 -30.2619 -30.2574 -30.2574
   -30.2543 -30.2543 -30.2493 -30.2493 -30.2105 -30.2105 -30.2025 -30.2025
   -20.1236 -20.1236 -20.1236 -20.1236 -20.1233 -20.1233 -20.1233 -20.1233
   -20.1140 -20.1140 -20.1134 -20.1134 -20.1131 -20.1131 -20.1129 -20.1129
   -20.1123 -20.1123 -20.1110 -20.1110 -20.1104 -20.1104 -20.1103 -20.1103
   -20.1099 -20.1099 -20.1098 -20.1098 -20.1089 -20.1089 -20.1087 -20.1087
   -20.0931 -20.0931 -20.0931 -20.0931 -20.0927 -20.0927 -20.0927 -20.0927
   -20.0487 -20.0487 -20.0484 -20.0484 -20.0465 -20.0465 -20.0463 -20.0463
   -20.0451 -20.0451 -20.0447 -20.0447 -20.0430 -20.0430 -20.0426 -20.0426
    -9.4286  -9.4286  -9.4137  -9.4137  -8.6828  -8.6827  -8.6707  -8.6707
    -8.5814  -8.5814  -8.5731  -8.5731  -8.3857  -8.3857  -8.3689  -8.3689
    -8.3101  -8.3101  -8.2930  -8.2930  -7.6398  -7.6398  -7.6222  -7.6222
     1.4111   1.4111   1.4273   1.4273   3.0285   3.0285   3.0819   3.0819
     3.1783   3.1783   3.1920   3.1920   3.2256   3.2256   3.2389   3.2389
     3.3416   3.3416   3.3645   3.3645   3.4709   3.4709   3.5181   3.5181
     3.5819   3.5819   3.7098   3.7098   4.3019   4.3019   4.3291   4.3291
     4.3997   4.3997   4.4451   4.4451   5.2249   5.2250   5.2415   5.2415
     5.5311   5.5311   5.5528   5.5528   6.3752   6.3753   6.3835   6.3835
     6.5482   6.5482   6.5692   6.5692   6.6440   6.6440   6.6738   6.6738
     7.2896   7.2896   7.3119   7.3120   7.3371   7.3372   7.4237   7.4237
     7.4583   7.4583   7.5018   7.5018   7.6213   7.6213   7.6305   7.6305
    11.2468  11.2468  11.2624  11.2624  11.3661  11.3661  11.3745  11.3745
    12.3162  12.3162  12.3431  12.3431  12.3763  12.3763  12.3986  12.3986
    12.9544  12.9544  12.9741  12.9741  13.6474  13.6474  13.6600  13.6600
    15.5722  15.5723  15.6005  15.6005  16.7871  16.7872  16.8176  16.8176
    17.3992  17.3992  17.4274  17.4274  17.5471  17.5471

          k =-0.5000-0.4746 0.1666 ( 62320 PWs)   bands (ev):

   -65.9701 -65.9701 -65.9701 -65.9701 -65.9693 -65.9693 -65.9693 -65.9693
   -30.4076 -30.4076 -30.4071 -30.4071 -30.4044 -30.4044 -30.4041 -30.4041
   -30.3035 -30.3035 -30.2959 -30.2959 -30.2616 -30.2616 -30.2578 -30.2578
   -30.2540 -30.2540 -30.2497 -30.2497 -30.2172 -30.2172 -30.2092 -30.2092
   -20.1236 -20.1236 -20.1236 -20.1236 -20.1233 -20.1233 -20.1233 -20.1233
   -20.1139 -20.1139 -20.1134 -20.1134 -20.1132 -20.1131 -20.1129 -20.1129
   -20.1121 -20.1121 -20.1109 -20.1109 -20.1104 -20.1104 -20.1103 -20.1103
   -20.1099 -20.1099 -20.1098 -20.1098 -20.1091 -20.1091 -20.1089 -20.1089
   -20.0930 -20.0930 -20.0930 -20.0930 -20.0927 -20.0927 -20.0927 -20.0927
   -20.0484 -20.0484 -20.0480 -20.0480 -20.0464 -20.0464 -20.0462 -20.0462
   -20.0452 -20.0452 -20.0448 -20.0448 -20.0434 -20.0434 -20.0430 -20.0430
    -9.3505  -9.3505  -9.3367  -9.3366  -8.7010  -8.7010  -8.6889  -8.6889
    -8.5641  -8.5641  -8.5549  -8.5548  -8.3831  -8.3831  -8.3665  -8.3665
    -8.3121  -8.3121  -8.2955  -8.2955  -7.7626  -7.7626  -7.7450  -7.7450
     1.6686   1.6686   1.6843   1.6844   3.0334   3.0334   3.0848   3.0848
     3.1658   3.1658   3.1861   3.1861   3.2339   3.2339   3.2976   3.2976
     3.3397   3.3397   3.4473   3.4473   3.5225   3.5225   3.5702   3.5702
     3.6197   3.6197   3.7396   3.7396   4.3053   4.3053   4.3292   4.3292
     4.3930   4.3930   4.4379   4.4379   4.9013   4.9013   5.0629   5.0629
     5.1766   5.1766   5.3209   5.3209   5.9412   5.9412   5.9533   5.9533
     6.7612   6.7612   6.8067   6.8067   6.8995   6.8995   6.9367   6.9367
     7.2824   7.2824   7.3086   7.3086   7.3622   7.3622   7.4176   7.4176
     7.4564   7.4564   7.5103   7.5103   7.6320   7.6320   7.6565   7.6565
    11.3053  11.3053  11.3493  11.3493  11.4607  11.4607  11.5335  11.5335
    12.3151  12.3151  12.3482  12.3482  12.3772  12.3772  12.4074  12.4074
    12.8568  12.8568  12.9304  12.9304  13.4710  13.4710  13.5215  13.5215
    15.8333  15.8333  15.8682  15.8682  16.8453  16.8453  16.8764  16.8764
    17.3995  17.3995  17.4385  17.4385  17.5316  17.5316

          k =-0.5000-0.4746 0.3333 ( 62308 PWs)   bands (ev):

   -65.9699 -65.9699 -65.9699 -65.9699 -65.9695 -65.9695 -65.9695 -65.9694
   -30.4070 -30.4070 -30.4067 -30.4067 -30.4051 -30.4051 -30.4049 -30.4049
   -30.2854 -30.2854 -30.2779 -30.2779 -30.2605 -30.2605 -30.2587 -30.2587
   -30.2532 -30.2532 -30.2505 -30.2505 -30.2353 -30.2353 -30.2274 -30.2274
   -20.1236 -20.1236 -20.1236 -20.1236 -20.1234 -20.1234 -20.1234 -20.1234
   -20.1136 -20.1136 -20.1133 -20.1133 -20.1132 -20.1132 -20.1131 -20.1131
   -20.1115 -20.1115 -20.1106 -20.1106 -20.1103 -20.1103 -20.1103 -20.1103
   -20.1101 -20.1101 -20.1098 -20.1098 -20.1095 -20.1095 -20.1094 -20.1094
   -20.0929 -20.0929 -20.0929 -20.0929 -20.0928 -20.0928 -20.0927 -20.0927
   -20.0474 -20.0474 -20.0471 -20.0471 -20.0461 -20.0461 -20.0459 -20.0459
   -20.0455 -20.0455 -20.0450 -20.0450 -20.0444 -20.0444 -20.0441 -20.0441
    -9.1422  -9.1422  -9.1321  -9.1321  -8.7611  -8.7611  -8.7503  -8.7503
    -8.5036  -8.5036  -8.4950  -8.4950  -8.3762  -8.3762  -8.3626  -8.3625
    -8.3158  -8.3158  -8.3013  -8.3013  -8.0558  -8.0558  -8.0397  -8.0397
     2.3475   2.3475   2.3622   2.3622   3.0445   3.0445   3.0764   3.0764
     3.1580   3.1580   3.1768   3.1769   3.2895   3.2895   3.3166   3.3166
     3.4236   3.4236   3.4604   3.4604   3.6700   3.6700   3.6968   3.6968
     3.8322   3.8322   3.8889   3.8889   4.2780   4.2780   4.2996   4.2996
     4.3493   4.3493   4.4052   4.4052   4.4796   4.4796   4.5976   4.5976
     4.6770   4.6770   4.8286   4.8286   5.1294   5.1294   5.1455   5.1455
     7.0223   7.0223   7.0757   7.0757   7.2013   7.2013   7.2215   7.2215
     7.2870   7.2870   7.3258   7.3258   7.3568   7.3568   7.4162   7.4162
     7.5051   7.5051   7.5688   7.5688   7.6551   7.6551   7.6773   7.6773
    11.5399  11.5399  11.5827  11.5827  11.8095  11.8095  11.8963  11.8963
    12.2706  12.2706  12.3248  12.3248  12.3804  12.3804  12.4137  12.4137
    12.5831  12.5831  12.6989  12.6989  13.0374  13.0374  13.1210  13.1210
    16.5399  16.5399  16.6025  16.6025  17.0272  17.0272  17.0410  17.0410
    17.3569  17.3569  17.4455  17.4455  17.5029  17.5030

          k =-0.5000-0.4746-0.4999 ( 62360 PWs)   bands (ev):

   -65.9697 -65.9697 -65.9697 -65.9697 -65.9697 -65.9697 -65.9697 -65.9697
   -30.4061 -30.4061 -30.4060 -30.4060 -30.4059 -30.4059 -30.4058 -30.4058
   -30.2612 -30.2612 -30.2610 -30.2610 -30.2607 -30.2607 -30.2605 -30.2605
   -30.2518 -30.2518 -30.2515 -30.2515 -30.2513 -30.2513 -30.2511 -30.2511
   -20.1235 -20.1235 -20.1235 -20.1235 -20.1235 -20.1235 -20.1235 -20.1235
   -20.1133 -20.1133 -20.1133 -20.1133 -20.1133 -20.1133 -20.1133 -20.1133
   -20.1107 -20.1107 -20.1107 -20.1107 -20.1104 -20.1104 -20.1103 -20.1103
   -20.1100 -20.1100 -20.1100 -20.1100 -20.1097 -20.1097 -20.1097 -20.1097
   -20.0928 -20.0928 -20.0928 -20.0928 -20.0928 -20.0928 -20.0928 -20.0928
   -20.0461 -20.0461 -20.0461 -20.0461 -20.0461 -20.0461 -20.0460 -20.0460
   -20.0454 -20.0454 -20.0453 -20.0453 -20.0453 -20.0453 -20.0453 -20.0453
    -8.9064  -8.9064  -8.8985  -8.8985  -8.8970  -8.8970  -8.8954  -8.8954
    -8.3884  -8.3883  -8.3691  -8.3691  -8.3659  -8.3659  -8.3653  -8.3653
    -8.3157  -8.3157  -8.3142  -8.3142  -8.3050  -8.3050  -8.2995  -8.2995
     3.0420   3.0420   3.0457   3.0457   3.0536   3.0536   3.0612   3.0612
     3.2077   3.2077   3.2100   3.2100   3.2199   3.2199   3.2295   3.2295
     3.4327   3.4327   3.4829   3.4829   3.4970   3.4971   3.5280   3.5280
     4.1868   4.1868   4.1959   4.1959   4.1973   4.1973   4.1991   4.1991
     4.3832   4.3832   4.3870   4.3870   4.3978   4.3978   4.4039   4.4039
     4.4786   4.4787   4.4976   4.4976   4.4997   4.4997   4.5023   4.5023
     7.1485   7.1486   7.1972   7.1972   7.2140   7.2140   7.2752   7.2752
     7.3461   7.3461   7.3550   7.3550   7.3585   7.3585   7.3610   7.3611
     7.6290   7.6291   7.6379   7.6379   7.6425   7.6425   7.6577   7.6577
    11.9272  11.9272  11.9295  11.9295  11.9314  11.9314  11.9369  11.9369
    12.2878  12.2878  12.3291  12.3291  12.3451  12.3451  12.4013  12.4013
    12.5780  12.5780  12.6041  12.6041  12.6115  12.6115  12.6268  12.6268
    17.1141  17.1141  17.1387  17.1387  17.1483  17.1483  17.1770  17.1771
    17.4318  17.4318  17.4368  17.4368  17.4425  17.4425

     the Fermi energy is    10.0356 ev

!    total energy              =   -6260.39347718 Ry
     Harris-Foulkes estimate   =   -6260.39347718 Ry
     estimated scf accuracy    <          8.4E-10 Ry

     The total energy is the sum of the following terms:

     one-electron contribution =   -4729.45045076 Ry
     hartree contribution      =    2604.10752458 Ry
     xc contribution           =    -966.77680653 Ry
     ewald contribution        =   -3168.27369046 Ry
     smearing contrib. (-TS)   =      -0.00005400 Ry

     convergence has been achieved in  15 iterations

     Writing output data file Landau_4.save
 
     init_run     :     42.07s CPU     43.78s WALL (       1 calls)
     electrons    :   2069.89s CPU   2106.99s WALL (       1 calls)

     Called by init_run:
     wfcinit      :     38.52s CPU     40.08s WALL (       1 calls)
     potinit      :      1.40s CPU      1.43s WALL (       1 calls)

     Called by electrons:
     c_bands      :   1821.25s CPU   1856.14s WALL (      15 calls)
     sum_band     :    237.48s CPU    238.76s WALL (      15 calls)
     v_of_rho     :      2.06s CPU      2.10s WALL (      16 calls)
     mix_rho      :      3.52s CPU      4.15s WALL (      15 calls)

     Called by c_bands:
     init_us_2    :     14.28s CPU     14.89s WALL (      62 calls)
     cegterg      :   1418.51s CPU   1451.74s WALL (      30 calls)

     Called by sum_band:

     Called by *egterg:
     h_psi        :   1094.48s CPU   1099.70s WALL (     139 calls)
     g_psi        :      4.57s CPU      4.58s WALL (     107 calls)
     cdiaghg      :     18.27s CPU     18.31s WALL (     137 calls)

     Called by h_psi:
     h_psi:pot    :   1087.38s CPU   1092.33s WALL (     139 calls)
     h_psi:calbec :    137.23s CPU    140.47s WALL (     139 calls)
     vloc_psi     :    803.51s CPU    804.61s WALL (     139 calls)
     add_vuspsi   :    146.63s CPU    147.25s WALL (     139 calls)

     General routines
     calbec       :    137.23s CPU    140.47s WALL (     139 calls)
     fft          :      1.30s CPU      1.31s WALL (      64 calls)
     fftw         :    816.49s CPU    817.31s WALL (   38782 calls)
 
     Parallel routines
 
     PWSCF        : 35m17.31s CPU    35m59.73s WALL

 
   This run was terminated on:  23: 3:39  25Mar2020            

=------------------------------------------------------------------------------=
   JOB DONE.
=------------------------------------------------------------------------------=
