
     Program PWSCF v.6.2 (svn rev. 14038) starts on 28Feb2020 at 18:34:40 

     This program is part of the open-source Quantum ESPRESSO suite
     for quantum simulation of materials; please cite
         "P. Giannozzi et al., J. Phys.:Condens. Matter 21 395502 (2009);
         "P. Giannozzi et al., J. Phys.:Condens. Matter 29 465901 (2017);
          URL http://www.quantum-espresso.org", 
     in publications or presentations arising from this work. More details at
     http://www.quantum-espresso.org/quote

     Parallel version (MPI), running on    40 processors

     MPI processes distributed on    10 nodes
     K-points division:     npool     =      40
     Reading input from rscf.in

     Current dimensions of program PWSCF are:
     Max number of different atomic species (ntypx) = 10
     Max number of k-points (npk) =  40000
     Max angular momentum in pseudopotentials (lmaxx) =  3

     Subspace diagonalization in iterative solution of the eigenvalue problem:
     a serial algorithm will be used

 
     G-vector sticks info
     --------------------
     sticks:   dense  smooth     PW     G-vecs:    dense   smooth      PW
     Sum        7747    7747   2077               498127   498127   69057
 


     bravais-lattice index     =            0
     lattice parameter (alat)  =      13.8397  a.u.
     unit-cell volume          =    2804.9816 (a.u.)^3
     number of atoms/cell      =           32
     number of atomic types    =            2
     number of electrons       =       368.00
     number of Kohn-Sham states=          221
     kinetic-energy cutoff     =     120.0000  Ry
     charge density cutoff     =     480.0000  Ry
     convergence threshold     =      1.0E-08
     mixing beta               =       0.7000
     number of iterations used =            8  plain     mixing
     Exchange-correlation      = SLA PW NOGX NOGC ( 1  4  0  0 0 0)
     nstep                     =           50


     celldm(1)=  13.839685  celldm(2)=   0.000000  celldm(3)=   0.000000
     celldm(4)=   0.000000  celldm(5)=   0.000000  celldm(6)=   0.000000

     crystal axes: (cart. coord. in units of alat)
               a(1) = (   1.000000   0.000000   0.000000 )  
               a(2) = (   0.000000   1.058160   0.000000 )  
               a(3) = (   0.000000   0.000000   1.000000 )  

     reciprocal axes: (cart. coord. in units 2 pi/alat)
               b(1) = (  1.000000  0.000000  0.000000 )  
               b(2) = (  0.000000  0.945037  0.000000 )  
               b(3) = (  0.000000  0.000000  1.000000 )  


     PseudoPot. # 1 for W  read from file:
     /cluster/scratch/mnoe/QE/pps/W_ONCV_LDA-4.0.upf
     MD5 check sum: ba0307d5d4cd419d6f1d13dc49d7c13a
     Pseudo is Norm-conserving + core correction, Zval = 28.0
     Generated using ONCVPSP code by D. R. Hamann
     Using radial grid of 1380 points,  8 beta functions with: 
                l(1) =   0
                l(2) =   0
                l(3) =   1
                l(4) =   1
                l(5) =   2
                l(6) =   2
                l(7) =   3
                l(8) =   3

     PseudoPot. # 2 for O  read from file:
     /cluster/scratch/mnoe/QE/pps/O_ONCV_LDA-3.0.upf
     MD5 check sum: a1bd6164e7280c17a38c229939bfbd54
     Pseudo is Norm-conserving + core correction, Zval =  6.0
     Generated using ONCVPSP code by D. R. Hamann
     Using radial grid of  926 points,  5 beta functions with: 
                l(1) =   0
                l(2) =   0
                l(3) =   1
                l(4) =   1
                l(5) =   2

     atomic species   valence    mass     pseudopotential
        W             28.00   183.84000     W ( 1.00)
        O              6.00    15.99940     O ( 1.00)

      8 Sym. Ops. (no inversion) found ( 4 have fractional translation)



   Cartesian axes

     site n.     atom                  positions (alat units)
         1           W   tau(   1) = (   0.2787800   0.3097522   0.2508200  )
         2           W   tau(   2) = (  -0.2508200   0.7484079  -0.7212200  )
         3           W   tau(   3) = (   0.2212200   0.2193278   0.7508200  )
         4           W   tau(   4) = (   0.7508200   0.8388322   0.7787800  )
         5           W   tau(   5) = (   0.7212200   0.3097522   0.7491800  )
         6           W   tau(   6) = (   0.2508200   0.7484079   0.7212200  )
         7           W   tau(   7) = (  -0.2212200   0.2193278  -0.7508200  )
         8           W   tau(   8) = (   0.2491800   0.8388322   0.2212200  )
         9           O   tau(   9) = (   0.2816500   0.0305631   0.2729500  )
        10           O   tau(  10) = (  -0.2729500   1.0275971  -0.7183500  )
        11           O   tau(  11) = (   0.2183500   0.4985170   0.7729500  )
        12           O   tau(  12) = (   0.7729500   0.5596431   0.7816500  )
        13           O   tau(  13) = (   0.7183500   0.0305631   0.7270500  )
        14           O   tau(  14) = (   0.2729500   1.0275971   0.7183500  )
        15           O   tau(  15) = (  -0.2183500   0.4985170  -0.7729500  )
        16           O   tau(  16) = (   0.2270500   0.5596431   0.2183500  )
        17           O   tau(  17) = (   0.4898100   0.3006550   0.7557096  )
        18           O   tau(  18) = (   0.4979100   0.7704568   0.7442904  )
        19           O   tau(  19) = (  -0.9898100   0.2284250   1.2557096  )
        20           O   tau(  20) = (   0.0020900   0.8167831   0.2442904  )
        21           O   tau(  21) = (   0.5101900   0.3006550   0.2442904  )
        22           O   tau(  22) = (   0.5020900   0.7704568   1.2557096  )
        23           O   tau(  23) = (  -0.0101900   0.2284250   0.7442904  )
        24           O   tau(  24) = (  -1.0020900   0.8167831   0.7557096  )
        25           O   tau(  25) = (   0.7557097   0.2413769   2.0020900  )
        26           O   tau(  26) = (   0.2442904   0.7575050   0.4898100  )
        27           O   tau(  27) = (   0.7442904   0.2877031   0.5020900  )
        28           O   tau(  28) = (   0.2557097   0.8297350   1.9898100  )
        29           O   tau(  29) = (   0.2442904   0.2413769   0.9979100  )
        30           O   tau(  30) = (   0.7557097   0.7575050   0.5101900  )
        31           O   tau(  31) = (   0.2557097   0.2877031   0.4979100  )
        32           O   tau(  32) = (   0.7442904   0.8297350   1.0101900  )

     number of k points=    40  gaussian smearing, width (Ry)=  0.0007
                       cart. coord. in units 2pi/alat
        k(    1) = (   0.0000000   0.0000000   0.0000000), wk =   0.0092593
        k(    2) = (   0.0000000   0.0000000   0.1666667), wk =   0.0370370
        k(    3) = (   0.0000000   0.0000000   0.3333333), wk =   0.0370370
        k(    4) = (   0.0000000   0.0000000  -0.5000000), wk =   0.0185185
        k(    5) = (   0.0000000   0.1575061   0.0000000), wk =   0.0185185
        k(    6) = (   0.0000000   0.1575061   0.1666667), wk =   0.0740741
        k(    7) = (   0.0000000   0.1575061   0.3333333), wk =   0.0740741
        k(    8) = (   0.0000000   0.1575061  -0.5000000), wk =   0.0370370
        k(    9) = (   0.0000000   0.3150122   0.0000000), wk =   0.0185185
        k(   10) = (   0.0000000   0.3150122   0.1666667), wk =   0.0740741
        k(   11) = (   0.0000000   0.3150122   0.3333333), wk =   0.0740741
        k(   12) = (   0.0000000   0.3150122  -0.5000000), wk =   0.0370370
        k(   13) = (   0.0000000  -0.4725183   0.0000000), wk =   0.0092593
        k(   14) = (   0.0000000  -0.4725183   0.1666667), wk =   0.0370370
        k(   15) = (   0.0000000  -0.4725183   0.3333333), wk =   0.0370370
        k(   16) = (   0.0000000  -0.4725183  -0.5000000), wk =   0.0185185
        k(   17) = (   0.1666667   0.0000000   0.1666667), wk =   0.0370370
        k(   18) = (   0.1666667   0.0000000   0.3333333), wk =   0.0740741
        k(   19) = (   0.1666667   0.0000000  -0.5000000), wk =   0.0370370
        k(   20) = (   0.1666667   0.1575061   0.1666667), wk =   0.0740741
        k(   21) = (   0.1666667   0.1575061   0.3333333), wk =   0.1481481
        k(   22) = (   0.1666667   0.1575061  -0.5000000), wk =   0.0740741
        k(   23) = (   0.1666667   0.3150122   0.1666667), wk =   0.0740741
        k(   24) = (   0.1666667   0.3150122   0.3333333), wk =   0.1481481
        k(   25) = (   0.1666667   0.3150122  -0.5000000), wk =   0.0740741
        k(   26) = (   0.1666667  -0.4725183   0.1666667), wk =   0.0370370
        k(   27) = (   0.1666667  -0.4725183   0.3333333), wk =   0.0740741
        k(   28) = (   0.1666667  -0.4725183  -0.5000000), wk =   0.0370370
        k(   29) = (   0.3333333   0.0000000   0.3333333), wk =   0.0370370
        k(   30) = (   0.3333333   0.0000000  -0.5000000), wk =   0.0370370
        k(   31) = (   0.3333333   0.1575061   0.3333333), wk =   0.0740741
        k(   32) = (   0.3333333   0.1575061  -0.5000000), wk =   0.0740741
        k(   33) = (   0.3333333   0.3150122   0.3333333), wk =   0.0740741
        k(   34) = (   0.3333333   0.3150122  -0.5000000), wk =   0.0740741
        k(   35) = (   0.3333333  -0.4725183   0.3333333), wk =   0.0370370
        k(   36) = (   0.3333333  -0.4725183  -0.5000000), wk =   0.0370370
        k(   37) = (  -0.5000000   0.0000000  -0.5000000), wk =   0.0092593
        k(   38) = (  -0.5000000   0.1575061  -0.5000000), wk =   0.0185185
        k(   39) = (  -0.5000000   0.3150122  -0.5000000), wk =   0.0185185
        k(   40) = (  -0.5000000  -0.4725183  -0.5000000), wk =   0.0092593

     Dense  grid:   498127 G-vectors     FFT dimensions: ( 100, 108, 100)

     Estimated max dynamical RAM per process >       2.74 GB

     Estimated total dynamical RAM >     109.40 GB

     Initial potential from superposition of free atoms

     starting charge  367.99656, renormalised to  368.00000
     Starting wfc are  232 randomized atomic wfcs

     total cpu time spent up to now is       29.9 secs

     Self-consistent Calculation

     iteration #  1     ecut=   120.00 Ry     beta= 0.70
     Davidson diagonalization with overlap
     ethr =  1.00E-02,  avg # of iterations =  5.0

     total cpu time spent up to now is       79.6 secs

     total energy              =   -6253.60006487 Ry
     Harris-Foulkes estimate   =   -6264.36222114 Ry
     estimated scf accuracy    <      13.62799366 Ry

     iteration #  2     ecut=   120.00 Ry     beta= 0.70
     Davidson diagonalization with overlap
     ethr =  3.70E-03,  avg # of iterations =  3.3

     total cpu time spent up to now is      126.9 secs

     total energy              =   -6249.60762285 Ry
     Harris-Foulkes estimate   =   -6270.95328000 Ry
     estimated scf accuracy    <      58.75390261 Ry

     iteration #  3     ecut=   120.00 Ry     beta= 0.70
     Davidson diagonalization with overlap
     ethr =  3.70E-03,  avg # of iterations =  3.4

     total cpu time spent up to now is      174.1 secs

     total energy              =   -6260.75484798 Ry
     Harris-Foulkes estimate   =   -6261.34746229 Ry
     estimated scf accuracy    <       1.86075297 Ry

     iteration #  4     ecut=   120.00 Ry     beta= 0.70
     Davidson diagonalization with overlap
     ethr =  5.06E-04,  avg # of iterations =  2.3

     total cpu time spent up to now is      213.4 secs

     total energy              =   -6260.84945583 Ry
     Harris-Foulkes estimate   =   -6260.96145631 Ry
     estimated scf accuracy    <       0.41161786 Ry

     iteration #  5     ecut=   120.00 Ry     beta= 0.70
     Davidson diagonalization with overlap
     ethr =  1.12E-04,  avg # of iterations =  4.9

     total cpu time spent up to now is      252.5 secs

     total energy              =   -6260.81464254 Ry
     Harris-Foulkes estimate   =   -6260.87672608 Ry
     estimated scf accuracy    <       0.13351803 Ry

     iteration #  6     ecut=   120.00 Ry     beta= 0.70
     Davidson diagonalization with overlap
     ethr =  3.63E-05,  avg # of iterations =  5.5

     total cpu time spent up to now is      297.4 secs

     total energy              =   -6260.84571869 Ry
     Harris-Foulkes estimate   =   -6260.84841262 Ry
     estimated scf accuracy    <       0.00803681 Ry

     iteration #  7     ecut=   120.00 Ry     beta= 0.70
     Davidson diagonalization with overlap
     ethr =  2.18E-06,  avg # of iterations =  3.9

     total cpu time spent up to now is      340.6 secs

     total energy              =   -6260.84660294 Ry
     Harris-Foulkes estimate   =   -6260.84672681 Ry
     estimated scf accuracy    <       0.00031307 Ry

     iteration #  8     ecut=   120.00 Ry     beta= 0.70
     Davidson diagonalization with overlap
     ethr =  8.51E-08,  avg # of iterations =  3.0

     total cpu time spent up to now is      383.3 secs

     total energy              =   -6260.84667494 Ry
     Harris-Foulkes estimate   =   -6260.84668990 Ry
     estimated scf accuracy    <       0.00002935 Ry

     iteration #  9     ecut=   120.00 Ry     beta= 0.70
     Davidson diagonalization with overlap
     ethr =  7.97E-09,  avg # of iterations =  2.2

     total cpu time spent up to now is      426.2 secs

     total energy              =   -6260.84668184 Ry
     Harris-Foulkes estimate   =   -6260.84668501 Ry
     estimated scf accuracy    <       0.00000975 Ry

     iteration # 10     ecut=   120.00 Ry     beta= 0.70
     Davidson diagonalization with overlap
     ethr =  2.65E-09,  avg # of iterations =  2.0

     total cpu time spent up to now is      464.0 secs

     total energy              =   -6260.84668252 Ry
     Harris-Foulkes estimate   =   -6260.84668324 Ry
     estimated scf accuracy    <       0.00000173 Ry

     iteration # 11     ecut=   120.00 Ry     beta= 0.70
     Davidson diagonalization with overlap
     ethr =  4.71E-10,  avg # of iterations =  2.0

     total cpu time spent up to now is      502.5 secs

     total energy              =   -6260.84668282 Ry
     Harris-Foulkes estimate   =   -6260.84668283 Ry
     estimated scf accuracy    <       0.00000003 Ry

     iteration # 12     ecut=   120.00 Ry     beta= 0.70
     Davidson diagonalization with overlap
     ethr =  7.18E-12,  avg # of iterations =  3.0

     total cpu time spent up to now is      552.9 secs

     End of self-consistent calculation

          k = 0.0000 0.0000 0.0000 ( 62239 PWs)   bands (ev):

   -66.1272 -66.1268 -66.1264 -66.1264 -66.1260 -66.1260 -66.1256 -66.1252
   -30.7349 -30.7341 -30.7307 -30.7307 -30.6410 -30.6410 -30.6381 -30.6376
   -30.4906 -30.4904 -30.4843 -30.4843 -30.4032 -30.4032 -30.3983 -30.3983
   -30.3056 -30.3035 -30.3035 -30.3016 -30.2516 -30.2504 -30.2504 -30.2492
   -20.2888 -20.2887 -20.2883 -20.2883 -20.2857 -20.2857 -20.2852 -20.2851
   -20.2748 -20.2748 -20.2742 -20.2742 -20.2726 -20.2726 -20.2723 -20.2723
   -20.2584 -20.2583 -20.2583 -20.2582 -20.2565 -20.2565 -20.2563 -20.2560
   -20.2537 -20.2535 -20.2527 -20.2527 -20.2523 -20.2523 -20.2515 -20.2513
   -20.2355 -20.2352 -20.2351 -20.2348 -20.2332 -20.2326 -20.2326 -20.2318
   -20.2291 -20.2286 -20.2286 -20.2280 -20.2250 -20.2247 -20.2247 -20.2245
   -20.2209 -20.2208 -20.2207 -20.2207 -20.2199 -20.2198 -20.2198 -20.2196
   -10.0994  -9.9019  -9.7352  -9.7352  -9.3345  -9.3345  -9.0874  -9.0769
    -8.4248  -8.3020  -8.3020  -8.2791  -8.2007  -8.1383  -8.1056  -8.1056
    -7.8249  -7.8227  -7.7770  -7.7770  -7.3307  -7.2556  -7.2556  -7.1847
     0.9127   0.9229   1.0552   1.0552   1.3160   1.3160   1.4217   1.4426
     2.0861   2.1443   2.1569   2.1569   2.1577   2.2122   2.6102   2.6514
     2.6839   2.6839   3.9179   3.9179   4.0504   4.1702   4.1821   4.1821
     4.4544   4.4544   4.9407   5.0122   5.0429   5.2842   5.3078   5.3078
     5.4476   5.4476   5.4630   5.6419   5.6419   5.6514   5.7014   5.7522
     5.7522   5.8417   5.9540   5.9940   5.9940   6.0130   6.0472   6.3081
     6.3471   6.4643   6.5839   6.5839   6.7535   6.8272   6.8272   6.9424
     7.0120   7.0120   7.0790   7.2001   7.2001   7.3055   7.3056   7.3891
     7.3915   7.3915   8.1203   8.1465   8.2578   8.3972   8.3972   8.4064
     9.7755   9.8729   9.9763   9.9763  10.0595  10.3080  12.5014  12.5014
    12.5132  12.5793  12.6067  12.7879  12.7879  12.8883  12.9526  12.9526
    13.2421  13.2421  13.2421  13.3687  13.4068  13.4068  14.0953  14.2359
    14.3884  14.5498  14.5498  14.5785  14.9430  15.1570  15.2005  15.7693
    15.7693  16.3590  16.7964  16.7964  17.1562

          k = 0.0000 0.0000 0.1667 ( 62262 PWs)   bands (ev):

   -66.1272 -66.1268 -66.1265 -66.1264 -66.1261 -66.1260 -66.1257 -66.1253
   -30.7343 -30.7310 -30.7283 -30.7246 -30.6474 -30.6442 -30.6408 -30.6381
   -30.4901 -30.4847 -30.4847 -30.4787 -30.4092 -30.4042 -30.4028 -30.3986
   -30.3054 -30.3035 -30.3033 -30.3016 -30.2515 -30.2504 -30.2502 -30.2492
   -20.2888 -20.2886 -20.2884 -20.2881 -20.2859 -20.2857 -20.2854 -20.2852
   -20.2748 -20.2747 -20.2743 -20.2741 -20.2728 -20.2726 -20.2725 -20.2724
   -20.2584 -20.2583 -20.2582 -20.2581 -20.2566 -20.2565 -20.2564 -20.2561
   -20.2536 -20.2534 -20.2528 -20.2526 -20.2524 -20.2523 -20.2515 -20.2513
   -20.2354 -20.2351 -20.2350 -20.2347 -20.2333 -20.2328 -20.2326 -20.2319
   -20.2291 -20.2286 -20.2286 -20.2281 -20.2250 -20.2248 -20.2247 -20.2246
   -20.2208 -20.2207 -20.2207 -20.2206 -20.2199 -20.2198 -20.2198 -20.2196
   -10.0508  -9.8503  -9.7459  -9.6509  -9.3506  -9.2546  -9.0632  -9.0312
    -8.4735  -8.3454  -8.2971  -8.2753  -8.2532  -8.2086  -8.1521  -8.1090
    -7.9288  -7.8843  -7.8210  -7.7803  -7.3264  -7.2609  -7.2515  -7.1897
     0.9436   1.0452   1.1107   1.2798   1.3152   1.5163   1.5572   1.6483
     2.1370   2.1493   2.1594   2.1713   2.1716   2.2818   2.6268   2.6813
     2.7352   2.7712   3.8300   3.8947   3.9597   4.0475   4.1377   4.1436
     4.3036   4.5037   4.7742   4.8063   5.0333   5.1831   5.1913   5.2054
     5.3038   5.3508   5.3929   5.4950   5.5586   5.6181   5.6744   5.7426
     5.7642   5.8263   5.8746   5.9914   5.9969   6.0314   6.1272   6.3719
     6.3848   6.4382   6.4517   6.6346   6.7750   6.8119   6.8257   6.9185
     6.9754   7.0103   7.1354   7.1923   7.2327   7.2634   7.3321   7.3350
     7.3639   7.3795   8.0447   8.0794   8.2553   8.3744   8.3922   8.3978
     9.9196   9.9842  10.1376  10.2293  10.2840  10.4684  12.4815  12.5282
    12.5686  12.6130  12.6235  12.6619  12.8208  12.8446  12.8767  12.9588
    13.0614  13.2694  13.3105  13.4132  13.4147  13.4379  14.0525  14.1252
    14.3715  14.5429  14.5568  14.6454  15.0403  15.1297  15.3031  15.7360
    16.0483  16.5183  16.5921  16.9967  17.2369

          k = 0.0000 0.0000 0.3333 ( 62268 PWs)   bands (ev):

   -66.1270 -66.1266 -66.1266 -66.1262 -66.1262 -66.1258 -66.1258 -66.1254
   -30.7336 -30.7317 -30.7114 -30.7078 -30.6647 -30.6614 -30.6403 -30.6387
   -30.4890 -30.4859 -30.4690 -30.4632 -30.4255 -30.4203 -30.4019 -30.3995
   -30.3048 -30.3037 -30.3028 -30.3017 -30.2511 -30.2504 -30.2499 -30.2493
   -20.2887 -20.2885 -20.2880 -20.2875 -20.2865 -20.2859 -20.2856 -20.2853
   -20.2746 -20.2743 -20.2743 -20.2738 -20.2732 -20.2728 -20.2725 -20.2724
   -20.2583 -20.2583 -20.2579 -20.2578 -20.2570 -20.2567 -20.2564 -20.2562
   -20.2534 -20.2532 -20.2529 -20.2526 -20.2524 -20.2521 -20.2517 -20.2515
   -20.2353 -20.2352 -20.2346 -20.2344 -20.2336 -20.2332 -20.2325 -20.2321
   -20.2290 -20.2287 -20.2285 -20.2282 -20.2249 -20.2248 -20.2247 -20.2246
   -20.2208 -20.2207 -20.2205 -20.2204 -20.2200 -20.2199 -20.2197 -20.2197
    -9.9430  -9.7803  -9.7063  -9.4121  -9.4073  -9.0314  -8.9887  -8.8737
    -8.6995  -8.5621  -8.4107  -8.3540  -8.2804  -8.2635  -8.1717  -8.1399
    -8.1178  -8.0944  -7.8129  -7.7892  -7.3136  -7.2754  -7.2394  -7.2033
     0.9749   1.0228   1.2786   1.3128   1.8716   1.9545   2.1117   2.1338
     2.1775   2.2010   2.2421   2.3311   2.4072   2.5061   2.6454   2.6884
     2.9597   2.9811   3.3677   3.5412   3.6963   3.9762   4.0000   4.0510
     4.2352   4.3021   4.3784   4.5221   4.5466   4.7689   4.9350   5.0455
     5.0659   5.1631   5.2464   5.2728   5.3387   5.4336   5.6401   5.7488
     5.7742   5.8845   5.9496   5.9813   6.0261   6.0320   6.1430   6.2608
     6.3530   6.4378   6.5264   6.6149   6.7172   6.7925   6.8317   6.9533
     7.0083   7.1137   7.1581   7.1607   7.2279   7.2394   7.3383   7.3438
     7.6196   7.6608   7.8034   7.8914   8.1991   8.2753   8.3757   8.3817
    10.0028  10.0161  10.7132  10.8753  10.9329  11.0188  12.1020  12.3418
    12.3841  12.4547  12.5397  12.5965  12.7646  12.7985  12.8920  12.9250
    13.0761  13.3250  13.3282  13.3702  13.3904  13.4637  13.7975  13.8879
    14.3937  14.5195  14.6673  14.9291  15.0420  15.5018  15.6033  15.6080
    16.1778  16.8612  17.0603  17.1279  17.4122

          k = 0.0000 0.0000-0.5000 ( 62264 PWs)   bands (ev):

   -66.1268 -66.1268 -66.1264 -66.1264 -66.1260 -66.1260 -66.1256 -66.1256
   -30.7327 -30.7327 -30.6882 -30.6882 -30.6847 -30.6847 -30.6395 -30.6395
   -30.4874 -30.4874 -30.4474 -30.4474 -30.4419 -30.4419 -30.4007 -30.4007
   -30.3041 -30.3041 -30.3022 -30.3022 -30.2507 -30.2507 -30.2495 -30.2495
   -20.2886 -20.2886 -20.2872 -20.2872 -20.2867 -20.2867 -20.2855 -20.2855
   -20.2745 -20.2745 -20.2738 -20.2738 -20.2733 -20.2733 -20.2724 -20.2724
   -20.2583 -20.2583 -20.2575 -20.2575 -20.2573 -20.2573 -20.2563 -20.2563
   -20.2532 -20.2532 -20.2529 -20.2529 -20.2520 -20.2520 -20.2518 -20.2518
   -20.2352 -20.2352 -20.2341 -20.2341 -20.2338 -20.2338 -20.2323 -20.2323
   -20.2289 -20.2289 -20.2284 -20.2284 -20.2249 -20.2249 -20.2247 -20.2247
   -20.2208 -20.2208 -20.2202 -20.2202 -20.2202 -20.2201 -20.2197 -20.2197
    -9.8445  -9.8445  -9.5288  -9.5288  -9.0647  -9.0647  -8.8275  -8.8275
    -8.7073  -8.7072  -8.6137  -8.6136  -8.2423  -8.2423  -8.2379  -8.2379
    -8.1275  -8.1275  -7.8012  -7.8012  -7.2949  -7.2949  -7.2216  -7.2216
     0.9987   0.9987   1.3060   1.3060   2.0841   2.0841   2.1143   2.1143
     2.5780   2.5780   2.7188   2.7188   2.7934   2.7934   2.8725   2.8725
     3.0119   3.0119   3.0712   3.0712   3.4174   3.4174   3.9230   3.9231
     3.9423   3.9423   4.0342   4.0342   4.8099   4.8100   4.8883   4.8883
     4.8966   4.8966   5.2139   5.2140   5.3330   5.3330   5.7040   5.7041
     5.8474   5.8474   5.9699   5.9699   6.0048   6.0048   6.1644   6.1644
     6.3940   6.3940   6.5660   6.5660   6.7194   6.7194   6.9440   6.9440
     7.0499   7.0500   7.1902   7.1902   7.3141   7.3141   7.4413   7.4413
     7.5824   7.5824   7.9867   7.9867   8.0406   8.0406   8.3723   8.3723
    10.0205  10.0205  11.4254  11.4254  11.6599  11.6599  11.7049  11.7049
    11.7683  11.7683  12.5470  12.5470  12.9063  12.9063  13.0736  13.0736
    13.1008  13.1008  13.3493  13.3493  13.4014  13.4014  13.6372  13.6372
    14.4715  14.4715  14.8803  14.8803  15.3070  15.3071  15.8271  15.8271
    16.3754  16.3754  17.5700  17.5701  17.9165

          k = 0.0000 0.1575 0.0000 ( 62231 PWs)   bands (ev):

   -66.1272 -66.1268 -66.1264 -66.1264 -66.1260 -66.1260 -66.1256 -66.1253
   -30.7348 -30.7342 -30.7307 -30.7307 -30.6410 -30.6410 -30.6380 -30.6377
   -30.4906 -30.4904 -30.4843 -30.4843 -30.4032 -30.4032 -30.3983 -30.3983
   -30.3020 -30.3000 -30.3000 -30.2981 -30.2553 -30.2539 -30.2539 -30.2528
   -20.2888 -20.2887 -20.2883 -20.2883 -20.2857 -20.2857 -20.2852 -20.2851
   -20.2748 -20.2748 -20.2742 -20.2742 -20.2726 -20.2726 -20.2723 -20.2723
   -20.2584 -20.2583 -20.2582 -20.2582 -20.2565 -20.2565 -20.2562 -20.2561
   -20.2537 -20.2535 -20.2527 -20.2527 -20.2523 -20.2523 -20.2514 -20.2513
   -20.2355 -20.2351 -20.2351 -20.2349 -20.2331 -20.2326 -20.2326 -20.2319
   -20.2288 -20.2284 -20.2284 -20.2278 -20.2252 -20.2250 -20.2250 -20.2248
   -20.2209 -20.2208 -20.2207 -20.2207 -20.2199 -20.2198 -20.2198 -20.2196
   -10.0831  -9.9124  -9.7290  -9.7290  -9.3339  -9.3339  -9.0865  -9.0772
    -8.3700  -8.2510  -8.2510  -8.2282  -8.2007  -8.1269  -8.1024  -8.1024
    -7.8250  -7.8231  -7.7773  -7.7773  -7.4110  -7.3419  -7.3419  -7.2782
     0.9130   0.9217   1.0547   1.0547   1.3155   1.3155   1.4262   1.4420
     2.0935   2.1745   2.2968   2.3475   2.3475   2.4138   2.6698   2.7508
     2.7617   2.7617   3.8130   3.8130   3.8926   4.0104   4.1827   4.1827
     4.4410   4.4410   4.7802   5.0480   5.0605   5.2705   5.2705   5.3080
     5.3816   5.3816   5.4506   5.5931   5.5931   5.6270   5.6828   5.6828
     5.7535   5.8331   5.9172   6.0299   6.0300   6.0394   6.0394   6.2333
     6.3487   6.3613   6.5795   6.5795   6.8287   6.9291   6.9291   7.0074
     7.0074   7.0405   7.1043   7.1087   7.1219   7.1219   7.2632   7.2658
     7.2863   7.2863   8.1219   8.1441   8.2414   8.3347   8.3473   8.3473
     9.8728   9.8781  10.1802  10.1802  10.1884  10.4563  12.3558  12.3558
    12.3707  12.3926  12.6406  12.7872  12.7873  12.9074  12.9822  12.9822
    13.2578  13.2578  13.3385  13.4422  13.4600  13.4600  14.1015  14.2342
    14.4970  14.6144  14.6423  14.6423  14.9244  15.1620  15.5668  15.7560
    15.7560  16.1674  16.9156  16.9156  17.0891

          k = 0.0000 0.1575 0.1667 ( 62237 PWs)   bands (ev):

   -66.1272 -66.1268 -66.1265 -66.1264 -66.1261 -66.1260 -66.1257 -66.1253
   -30.7343 -30.7310 -30.7283 -30.7246 -30.6474 -30.6442 -30.6408 -30.6381
   -30.4901 -30.4848 -30.4847 -30.4787 -30.4092 -30.4042 -30.4028 -30.3986
   -30.3018 -30.3000 -30.2998 -30.2981 -30.2551 -30.2539 -30.2538 -30.2528
   -20.2888 -20.2886 -20.2884 -20.2881 -20.2859 -20.2857 -20.2854 -20.2852
   -20.2748 -20.2747 -20.2743 -20.2741 -20.2728 -20.2726 -20.2725 -20.2724
   -20.2584 -20.2583 -20.2582 -20.2581 -20.2566 -20.2565 -20.2564 -20.2561
   -20.2536 -20.2534 -20.2528 -20.2526 -20.2524 -20.2523 -20.2515 -20.2513
   -20.2354 -20.2351 -20.2350 -20.2348 -20.2332 -20.2327 -20.2325 -20.2320
   -20.2288 -20.2284 -20.2283 -20.2279 -20.2252 -20.2250 -20.2250 -20.2248
   -20.2209 -20.2207 -20.2207 -20.2206 -20.2199 -20.2198 -20.2198 -20.2196
   -10.0346  -9.8605  -9.7394  -9.6444  -9.3501  -9.2538  -9.0629  -9.0310
    -8.4268  -8.3159  -8.2499  -8.2340  -8.2286  -8.1925  -8.1397  -8.1061
    -7.9281  -7.8842  -7.8212  -7.7805  -7.4066  -7.3462  -7.3379  -7.2819
     0.9432   1.0446   1.1106   1.2798   1.3148   1.5219   1.5564   1.6510
     2.1786   2.2446   2.3156   2.3273   2.3515   2.4012   2.6978   2.7563
     2.8268   2.8472   3.7596   3.8037   3.9030   3.9591   4.0137   4.0961
     4.2800   4.4854   4.6971   4.8526   4.9898   5.1398   5.1801   5.2359
     5.2743   5.3089   5.3617   5.4523   5.5232   5.5255   5.6308   5.6713
     5.6960   5.7703   5.8880   5.9880   6.0235   6.0684   6.0984   6.2451
     6.3430   6.3874   6.4817   6.6290   6.8176   6.8596   6.9053   6.9649
     6.9935   7.0402   7.0802   7.1028   7.1763   7.2081   7.2598   7.2674
     7.3343   7.3522   8.0466   8.0767   8.2429   8.3254   8.3337   8.3444
    10.0623  10.1423  10.1990  10.3012  10.4252  10.5990  12.3472  12.3763
    12.4229  12.4483  12.6112  12.6872  12.8471  12.8632  12.9080  12.9868
    13.0744  13.2897  13.3502  13.4448  13.4678  13.4843  14.0605  14.1228
    14.4755  14.6354  14.6934  14.7205  15.0299  15.2709  15.5427  15.7303
    16.0272  16.3173  16.7027  17.0892  17.1700

          k = 0.0000 0.1575 0.3333 ( 62284 PWs)   bands (ev):

   -66.1270 -66.1266 -66.1266 -66.1262 -66.1262 -66.1259 -66.1258 -66.1255
   -30.7336 -30.7317 -30.7114 -30.7078 -30.6647 -30.6614 -30.6403 -30.6387
   -30.4890 -30.4859 -30.4690 -30.4632 -30.4255 -30.4203 -30.4020 -30.3995
   -30.3012 -30.3001 -30.2992 -30.2983 -30.2547 -30.2540 -30.2535 -30.2528
   -20.2887 -20.2885 -20.2880 -20.2875 -20.2865 -20.2859 -20.2856 -20.2853
   -20.2746 -20.2744 -20.2743 -20.2738 -20.2732 -20.2728 -20.2725 -20.2724
   -20.2583 -20.2583 -20.2579 -20.2578 -20.2570 -20.2567 -20.2564 -20.2562
   -20.2534 -20.2532 -20.2529 -20.2526 -20.2524 -20.2521 -20.2517 -20.2515
   -20.2353 -20.2351 -20.2346 -20.2344 -20.2335 -20.2332 -20.2325 -20.2322
   -20.2287 -20.2285 -20.2283 -20.2280 -20.2252 -20.2251 -20.2249 -20.2249
   -20.2208 -20.2208 -20.2205 -20.2204 -20.2200 -20.2200 -20.2198 -20.2197
    -9.9293  -9.7728  -9.7132  -9.4075  -9.4045  -9.0291  -8.9889  -8.8728
    -8.6786  -8.5545  -8.3955  -8.3282  -8.2306  -8.2155  -8.1546  -8.1277
    -8.1063  -8.0872  -7.8131  -7.7894  -7.3943  -7.3588  -7.3263  -7.2932
     0.9744   1.0222   1.2785   1.3125   1.8912   2.0279   2.1755   2.2381
     2.3092   2.3192   2.3812   2.4123   2.4329   2.5076   2.7157   2.7615
     3.0212   3.0560   3.3646   3.5381   3.6568   3.8918   3.9001   3.9498
     4.2773   4.3138   4.3978   4.5041   4.5468   4.7204   4.8013   4.9259
     5.0117   5.1502   5.1694   5.2419   5.3514   5.4047   5.5695   5.6417
     5.7400   5.8364   5.8942   5.9388   5.9913   6.0163   6.1291   6.1745
     6.2165   6.3709   6.5119   6.7204   6.7432   6.9021   6.9299   6.9626
     7.0215   7.0382   7.0757   7.1963   7.2252   7.2339   7.2507   7.2815
     7.6429   7.6848   7.8056   7.8898   8.1965   8.2497   8.3173   8.3354
    10.1981  10.2094  10.7183  10.8904  11.0145  11.1040  12.0991  12.3011
    12.3766  12.3952  12.4387  12.5385  12.6615  12.6920  12.9207  12.9542
    13.0761  13.2842  13.3047  13.4045  13.4324  13.4817  13.7958  13.8809
    14.5208  14.6159  14.9113  15.0117  15.3887  15.5398  15.6232  15.6373
    16.2438  16.8105  16.8454  17.1862  17.3707

          k = 0.0000 0.1575-0.5000 ( 62234 PWs)   bands (ev):

   -66.1268 -66.1268 -66.1265 -66.1264 -66.1260 -66.1260 -66.1257 -66.1257
   -30.7327 -30.7327 -30.6882 -30.6882 -30.6847 -30.6847 -30.6395 -30.6395
   -30.4874 -30.4874 -30.4474 -30.4474 -30.4419 -30.4419 -30.4007 -30.4007
   -30.3006 -30.3006 -30.2987 -30.2987 -30.2543 -30.2543 -30.2531 -30.2531
   -20.2886 -20.2886 -20.2872 -20.2872 -20.2867 -20.2867 -20.2855 -20.2855
   -20.2745 -20.2745 -20.2738 -20.2738 -20.2733 -20.2733 -20.2724 -20.2724
   -20.2583 -20.2583 -20.2575 -20.2575 -20.2573 -20.2573 -20.2563 -20.2563
   -20.2532 -20.2532 -20.2529 -20.2529 -20.2520 -20.2520 -20.2518 -20.2518
   -20.2352 -20.2352 -20.2340 -20.2340 -20.2338 -20.2338 -20.2323 -20.2323
   -20.2286 -20.2286 -20.2281 -20.2281 -20.2251 -20.2251 -20.2249 -20.2249
   -20.2208 -20.2208 -20.2203 -20.2203 -20.2202 -20.2202 -20.2197 -20.2197
    -9.8347  -9.8347  -9.5314  -9.5313  -9.0544  -9.0543  -8.8261  -8.8261
    -8.7010  -8.7009  -8.6084  -8.6084  -8.2053  -8.2052  -8.1916  -8.1916
    -8.1220  -8.1220  -7.8014  -7.8014  -7.3767  -7.3767  -7.3098  -7.3098
     0.9982   0.9982   1.3058   1.3058   2.2433   2.2433   2.3148   2.3148
     2.6320   2.6321   2.7281   2.7281   2.8118   2.8118   2.8765   2.8765
     3.0311   3.0311   3.0810   3.0810   3.4226   3.4226   3.8937   3.8937
     3.9677   3.9677   4.0111   4.0112   4.6931   4.6931   4.8114   4.8115
     4.8341   4.8341   5.1369   5.1369   5.3620   5.3620   5.6429   5.6430
     5.7393   5.7393   5.9063   5.9063   5.9757   5.9757   6.1414   6.1414
     6.2567   6.2568   6.5792   6.5792   6.8622   6.8622   7.0003   7.0003
     7.0717   7.0717   7.1369   7.1370   7.2373   7.2373   7.4348   7.4348
     7.5856   7.5856   7.9986   7.9986   8.0413   8.0413   8.3235   8.3235
    10.2145  10.2145  11.4250  11.4250  11.6740  11.6740  11.7470  11.7470
    11.8114  11.8114  12.4018  12.4018  12.9274  12.9274  12.9666  12.9666
    13.0113  13.0113  13.3941  13.3941  13.4397  13.4397  13.6275  13.6275
    14.5805  14.5805  15.1744  15.1744  15.4184  15.4184  15.8458  15.8458
    16.4209  16.4209  17.3844  17.3844  17.8724

          k = 0.0000 0.3150 0.0000 ( 62175 PWs)   bands (ev):

   -66.1271 -66.1269 -66.1264 -66.1263 -66.1261 -66.1261 -66.1255 -66.1253
   -30.7347 -30.7343 -30.7307 -30.7307 -30.6410 -30.6410 -30.6380 -30.6377
   -30.4905 -30.4904 -30.4843 -30.4843 -30.4032 -30.4032 -30.3983 -30.3983
   -30.2922 -30.2903 -30.2903 -30.2886 -30.2652 -30.2637 -30.2637 -30.2624
   -20.2888 -20.2888 -20.2883 -20.2883 -20.2857 -20.2857 -20.2852 -20.2851
   -20.2748 -20.2748 -20.2742 -20.2742 -20.2726 -20.2726 -20.2723 -20.2723
   -20.2584 -20.2583 -20.2583 -20.2582 -20.2565 -20.2565 -20.2562 -20.2561
   -20.2537 -20.2536 -20.2527 -20.2527 -20.2523 -20.2523 -20.2514 -20.2513
   -20.2353 -20.2351 -20.2351 -20.2350 -20.2328 -20.2325 -20.2325 -20.2321
   -20.2280 -20.2277 -20.2277 -20.2272 -20.2259 -20.2256 -20.2256 -20.2254
   -20.2209 -20.2209 -20.2208 -20.2208 -20.2199 -20.2198 -20.2198 -20.2197
   -10.0410  -9.9430  -9.7168  -9.7168  -9.3328  -9.3328  -9.0842  -9.0786
    -8.2593  -8.2024  -8.1405  -8.1405  -8.0793  -8.0553  -8.0553  -8.0511
    -7.8249  -7.8242  -7.7778  -7.7778  -7.6159  -7.5623  -7.5623  -7.5184
     0.9140   0.9188   1.0539   1.0539   1.3149   1.3149   1.4325   1.4401
     2.1132   2.1638   2.6647   2.7359   2.7359   2.8278   2.8945   3.0978
     3.0978   3.2015   3.5677   3.5723   3.5723   3.6928   4.1837   4.1837
     4.2983   4.4214   4.4214   4.7274   4.7274   4.9875   5.0948   5.1231
     5.3799   5.4291   5.4291   5.5369   5.5388   5.5388   5.6127   5.6127
     5.8037   5.8181   5.8517   5.8969   6.0994   6.1577   6.1577   6.2841
     6.3482   6.3758   6.5759   6.5759   6.7463   6.7625   6.8188   6.8188
     6.9532   6.9532   7.0991   7.0991   7.1005   7.1186   7.3303   7.3701
     7.3897   7.3897   8.1191   8.1263   8.1298   8.1392   8.1750   8.1750
     9.8921   9.9144  10.6666  10.6806  10.6806  10.8484  11.9577  11.9577
    11.9870  12.0081  12.7098  12.7881  12.7881  12.9081  13.0701  13.0701
    13.2684  13.2684  13.3069  13.4459  13.4459  13.5265  14.1710  14.2297
    14.6610  14.8785  14.9194  14.9194  15.0671  15.2361  15.7146  15.7146
    15.7620  16.4723  16.6686  17.3281  17.3281

          k = 0.0000 0.3150 0.1667 ( 62260 PWs)   bands (ev):

   -66.1271 -66.1269 -66.1264 -66.1263 -66.1262 -66.1261 -66.1256 -66.1254
   -30.7343 -30.7310 -30.7283 -30.7246 -30.6474 -30.6442 -30.6408 -30.6381
   -30.4901 -30.4848 -30.4847 -30.4787 -30.4092 -30.4042 -30.4028 -30.3986
   -30.2920 -30.2903 -30.2901 -30.2886 -30.2650 -30.2637 -30.2636 -30.2624
   -20.2888 -20.2886 -20.2884 -20.2881 -20.2859 -20.2857 -20.2854 -20.2852
   -20.2748 -20.2747 -20.2743 -20.2741 -20.2728 -20.2726 -20.2725 -20.2724
   -20.2583 -20.2583 -20.2582 -20.2581 -20.2566 -20.2565 -20.2563 -20.2561
   -20.2536 -20.2535 -20.2528 -20.2526 -20.2524 -20.2523 -20.2515 -20.2514
   -20.2353 -20.2351 -20.2349 -20.2349 -20.2329 -20.2327 -20.2325 -20.2322
   -20.2280 -20.2277 -20.2277 -20.2273 -20.2259 -20.2257 -20.2256 -20.2255
   -20.2209 -20.2208 -20.2208 -20.2207 -20.2199 -20.2199 -20.2198 -20.2197
    -9.9936  -9.8895  -9.7266  -9.6317  -9.3493  -9.2520  -9.0621  -9.0306
    -8.3480  -8.2677  -8.2234  -8.1432  -8.0907  -8.0744  -8.0611  -8.0582
    -7.9206  -7.8823  -7.8217  -7.7810  -7.6103  -7.5637  -7.5572  -7.5170
     0.9423   1.0437   1.1103   1.2796   1.3143   1.5281   1.5556   1.6538
     2.1982   2.2476   2.6736   2.7197   2.7543   2.8706   2.8894   3.0886
     3.1510   3.2356   3.5444   3.5818   3.6144   3.7189   3.9611   4.0488
     4.2644   4.2749   4.4561   4.6643   4.7216   4.9260   5.0549   5.0972
     5.2308   5.2498   5.3210   5.4376   5.4428   5.4612   5.5396   5.5554
     5.6048   5.6483   5.8347   5.8765   5.9403   6.0152   6.1725   6.2264
     6.3661   6.3902   6.5333   6.6174   6.7143   6.8013   6.8583   6.9026
     6.9329   6.9695   7.0456   7.0973   7.2156   7.2534   7.3639   7.3788
     7.4412   7.4705   8.0501   8.0657   8.1296   8.1314   8.1739   8.1811
    10.1245  10.1932  10.6860  10.7074  10.8447  10.9556  11.9562  11.9852
    12.0452  12.0744  12.6093  12.7587  12.8524  12.9258  13.0001  13.0717
    13.0801  13.2539  13.3024  13.3762  13.4465  13.4877  14.1038  14.1226
    14.7070  14.9141  14.9974  15.1215  15.1453  15.3671  15.6986  15.9106
    15.9618  16.4409  16.7476  17.0729  17.4272

          k = 0.0000 0.3150 0.3333 ( 62269 PWs)   bands (ev):

   -66.1269 -66.1267 -66.1265 -66.1263 -66.1261 -66.1259 -66.1257 -66.1255
   -30.7336 -30.7317 -30.7115 -30.7078 -30.6647 -30.6614 -30.6403 -30.6387
   -30.4890 -30.4859 -30.4690 -30.4632 -30.4255 -30.4203 -30.4020 -30.3995
   -30.2914 -30.2904 -30.2896 -30.2887 -30.2646 -30.2638 -30.2632 -30.2625
   -20.2887 -20.2885 -20.2880 -20.2875 -20.2865 -20.2859 -20.2856 -20.2853
   -20.2746 -20.2744 -20.2743 -20.2738 -20.2732 -20.2728 -20.2725 -20.2724
   -20.2583 -20.2583 -20.2579 -20.2578 -20.2570 -20.2567 -20.2564 -20.2562
   -20.2534 -20.2532 -20.2529 -20.2526 -20.2523 -20.2521 -20.2517 -20.2516
   -20.2352 -20.2351 -20.2345 -20.2345 -20.2333 -20.2332 -20.2324 -20.2323
   -20.2280 -20.2278 -20.2276 -20.2274 -20.2259 -20.2257 -20.2256 -20.2255
   -20.2209 -20.2208 -20.2206 -20.2205 -20.2201 -20.2200 -20.2198 -20.2198
    -9.8988  -9.7586  -9.7298  -9.4081  -9.3898  -9.0244  -8.9896  -8.8710
    -8.6449  -8.5409  -8.3593  -8.2822  -8.1404  -8.1293  -8.0677  -8.0573
    -8.0195  -8.0177  -7.8136  -7.7899  -7.5990  -7.5706  -7.5473  -7.5218
     0.9734   1.0213   1.2782   1.3121   1.9066   2.0890   2.1841   2.2527
     2.4375   2.4826   2.6968   2.7036   2.8015   2.8445   2.9750   3.0673
     3.2351   3.3138   3.3560   3.5276   3.5522   3.6615   3.6739   3.7696
     4.1574   4.3061   4.4147   4.4880   4.5157   4.5644   4.6481   4.7433
     4.7642   4.9556   5.0972   5.1315   5.1778   5.2433   5.4498   5.4688
     5.5205   5.5808   5.6654   5.7898   5.8725   5.9214   6.1543   6.1885
     6.2114   6.4544   6.5011   6.7526   6.7793   6.8228   6.8664   6.9399
     6.9726   7.0609   7.1706   7.2057   7.3171   7.3239   7.3617   7.4283
     7.7300   7.7512   7.8092   7.8819   8.1153   8.1443   8.1479   8.1765
    10.6224  10.6722  10.7861  10.9120  11.2821  11.3554  11.9401  11.9976
    12.1317  12.2282  12.2758  12.4910  12.5956  12.6513  12.9941  13.0168
    13.0690  13.0898  13.1320  13.4130  13.4311  13.4413  13.7992  13.8837
    14.7916  14.8948  15.2854  15.5385  15.6174  15.6847  15.7502  16.3101
    16.4069  16.5861  16.7080  17.0141  17.3428

          k = 0.0000 0.3150-0.5000 ( 62306 PWs)   bands (ev):

   -66.1267 -66.1267 -66.1265 -66.1265 -66.1259 -66.1259 -66.1257 -66.1257
   -30.7327 -30.7327 -30.6882 -30.6882 -30.6847 -30.6847 -30.6395 -30.6395
   -30.4874 -30.4874 -30.4474 -30.4474 -30.4419 -30.4419 -30.4007 -30.4007
   -30.2909 -30.2909 -30.2891 -30.2891 -30.2642 -30.2641 -30.2627 -30.2627
   -20.2886 -20.2886 -20.2872 -20.2872 -20.2867 -20.2867 -20.2855 -20.2855
   -20.2745 -20.2745 -20.2738 -20.2738 -20.2733 -20.2733 -20.2724 -20.2724
   -20.2583 -20.2583 -20.2575 -20.2575 -20.2573 -20.2573 -20.2563 -20.2563
   -20.2532 -20.2532 -20.2529 -20.2529 -20.2520 -20.2520 -20.2518 -20.2518
   -20.2351 -20.2351 -20.2339 -20.2339 -20.2338 -20.2338 -20.2324 -20.2324
   -20.2279 -20.2279 -20.2275 -20.2275 -20.2258 -20.2258 -20.2256 -20.2256
   -20.2208 -20.2208 -20.2203 -20.2203 -20.2202 -20.2202 -20.2198 -20.2198
    -9.8147  -9.8147  -9.5368  -9.5368  -9.0355  -9.0355  -8.8237  -8.8237
    -8.6883  -8.6883  -8.5994  -8.5994  -8.1473  -8.1473  -8.0573  -8.0573
    -8.0392  -8.0392  -7.8019  -7.8019  -7.5841  -7.5841  -7.5339  -7.5339
     0.9973   0.9973   1.3056   1.3056   2.5870   2.5871   2.6641   2.6641
     2.7301   2.7301   2.7939   2.7939   2.9295   2.9295   2.9602   2.9602
     3.1012   3.1012   3.1925   3.1926   3.4343   3.4343   3.6295   3.6295
     4.0433   4.0433   4.1458   4.1458   4.3861   4.3861   4.5463   4.5463
     4.8041   4.8042   5.0016   5.0016   5.1741   5.1741   5.3327   5.3327
     5.4912   5.4912   5.7187   5.7187   5.9128   5.9128   6.1781   6.1781
     6.2419   6.2419   6.6196   6.6196   6.7996   6.7996   6.9563   6.9563
     7.1951   7.1951   7.2897   7.2897   7.3169   7.3170   7.4555   7.4556
     7.6034   7.6035   7.9982   7.9982   8.0201   8.0201   8.1620   8.1620
    10.6923  10.6923  11.4249  11.4249  11.6817  11.6817  11.8461  11.8461
    11.9362  11.9362  12.1037  12.1037  12.6858  12.6858  12.7376  12.7376
    13.0382  13.0382  13.3804  13.3804  13.4446  13.4446  13.6222  13.6222
    14.8563  14.8563  15.4846  15.4846  16.0253  16.0254  16.1017  16.1017
    16.5649  16.5649  17.0489  17.0489  17.5782

          k = 0.0000-0.4725 0.0000 ( 62212 PWs)   bands (ev):

   -66.1270 -66.1270 -66.1263 -66.1263 -66.1262 -66.1262 -66.1254 -66.1254
   -30.7345 -30.7345 -30.7307 -30.7307 -30.6410 -30.6410 -30.6379 -30.6379
   -30.4905 -30.4905 -30.4843 -30.4843 -30.4032 -30.4032 -30.3983 -30.3983
   -30.2787 -30.2787 -30.2771 -30.2771 -30.2769 -30.2769 -30.2755 -30.2755
   -20.2888 -20.2888 -20.2883 -20.2883 -20.2857 -20.2857 -20.2852 -20.2851
   -20.2748 -20.2748 -20.2742 -20.2742 -20.2726 -20.2726 -20.2723 -20.2723
   -20.2583 -20.2583 -20.2582 -20.2582 -20.2565 -20.2565 -20.2561 -20.2561
   -20.2536 -20.2536 -20.2527 -20.2527 -20.2524 -20.2523 -20.2514 -20.2513
   -20.2352 -20.2352 -20.2351 -20.2351 -20.2325 -20.2325 -20.2324 -20.2324
   -20.2271 -20.2271 -20.2270 -20.2270 -20.2264 -20.2263 -20.2263 -20.2263
   -20.2209 -20.2209 -20.2208 -20.2208 -20.2199 -20.2199 -20.2198 -20.2198
    -9.9891  -9.9891  -9.7109  -9.7109  -9.3322  -9.3322  -9.0811  -9.0811
    -8.2122  -8.2122  -8.1221  -8.1221  -7.8655  -7.8655  -7.8601  -7.8601
    -7.8282  -7.8282  -7.8095  -7.8095  -7.8081  -7.8081  -7.7766  -7.7766
     0.9160   0.9160   1.0535   1.0535   1.3148   1.3148   1.4370   1.4370
     2.1392   2.1392   2.9177   2.9177   2.9183   2.9183   3.3515   3.3515
     3.3531   3.3531   3.6376   3.6376   3.8072   3.8072   3.9728   3.9728
     4.0823   4.0823   4.1898   4.1898   4.4224   4.4224   5.1132   5.1132
     5.4746   5.4747   5.4847   5.4847   5.5034   5.5034   5.5892   5.5892
     5.7922   5.7922   5.8827   5.8827   6.2570   6.2570   6.3104   6.3104
     6.3650   6.3650   6.5493   6.5493   6.5742   6.5742   6.7717   6.7717
     6.7824   6.7824   7.0645   7.0645   7.0818   7.0818   7.6079   7.6079
     7.6850   7.6850   7.9338   7.9338   7.9642   7.9642   8.1325   8.1325
     9.9082   9.9083  11.1382  11.1382  11.1486  11.1486  11.5456  11.5456
    11.6411  11.6411  12.7888  12.7888  12.8176  12.8176  13.1567  13.1567
    13.2664  13.2664  13.3655  13.3655  13.3951  13.3951  14.2169  14.2169
    14.7990  14.7990  15.0900  15.0900  15.3784  15.3784  15.6792  15.6792
    15.9459  15.9459  17.5330  17.5330  17.9679

          k = 0.0000-0.4725 0.1667 ( 62246 PWs)   bands (ev):

   -66.1270 -66.1270 -66.1263 -66.1262 -66.1262 -66.1261 -66.1255 -66.1255
   -30.7343 -30.7310 -30.7283 -30.7246 -30.6474 -30.6442 -30.6408 -30.6381
   -30.4901 -30.4848 -30.4847 -30.4787 -30.4092 -30.4042 -30.4029 -30.3986
   -30.2785 -30.2785 -30.2771 -30.2770 -30.2770 -30.2767 -30.2755 -30.2754
   -20.2888 -20.2886 -20.2884 -20.2881 -20.2859 -20.2857 -20.2854 -20.2852
   -20.2748 -20.2747 -20.2743 -20.2741 -20.2728 -20.2726 -20.2725 -20.2724
   -20.2583 -20.2583 -20.2582 -20.2581 -20.2566 -20.2565 -20.2563 -20.2562
   -20.2535 -20.2535 -20.2528 -20.2526 -20.2524 -20.2523 -20.2514 -20.2514
   -20.2352 -20.2351 -20.2350 -20.2349 -20.2327 -20.2326 -20.2325 -20.2324
   -20.2271 -20.2271 -20.2270 -20.2269 -20.2264 -20.2263 -20.2263 -20.2263
   -20.2209 -20.2208 -20.2208 -20.2207 -20.2199 -20.2199 -20.2199 -20.2198
    -9.9565  -9.9206  -9.7203  -9.6255  -9.3489  -9.2512  -9.0617  -9.0304
    -8.3274  -8.2455  -8.2204  -8.1249  -7.9818  -7.9461  -7.8776  -7.8633
    -7.8420  -7.8383  -7.8202  -7.8132  -7.7980  -7.7849  -7.7799  -7.7750
     0.9419   1.0433   1.1101   1.2795   1.3141   1.5299   1.5554   1.6547
     2.2215   2.2263   2.8993   2.9010   2.9540   3.0034   3.3348   3.3505
     3.3651   3.4113   3.6292   3.6409   3.7853   3.8404   3.9342   3.9817
     3.9985   4.0384   4.0873   4.0959   4.2674   4.4639   5.0706   5.1663
     5.2053   5.2489   5.3277   5.4275   5.4434   5.4925   5.5095   5.5256
     5.5810   5.6286   5.7857   5.8212   5.8969   5.9478   6.2706   6.3106
     6.3813   6.4059   6.5438   6.5933   6.6444   6.7118   6.7717   6.7729
     6.8987   6.9541   6.9746   7.1392   7.1653   7.2539   7.6182   7.6415
     7.6819   7.7124   7.9400   7.9415   7.9637   7.9851   8.0538   8.0877
    10.1318  10.1981  11.1410  11.1522  11.2357  11.2603  11.5471  11.6349
    11.6573  11.7363  12.6094  12.8448  12.8735  12.8888  13.0607  13.1225
    13.1650  13.2265  13.2701  13.3069  13.3627  13.3746  14.1209  14.1229
    14.8058  14.9841  15.0794  15.3701  15.4735  15.5772  15.6665  15.8876
    16.0182  16.0491  17.4060  17.5054  17.6845

          k = 0.0000-0.4725 0.3333 ( 62268 PWs)   bands (ev):

   -66.1268 -66.1268 -66.1265 -66.1264 -66.1261 -66.1260 -66.1257 -66.1256
   -30.7336 -30.7317 -30.7115 -30.7078 -30.6647 -30.6614 -30.6403 -30.6387
   -30.4890 -30.4859 -30.4690 -30.4632 -30.4255 -30.4203 -30.4020 -30.3995
   -30.2781 -30.2780 -30.2772 -30.2771 -30.2766 -30.2763 -30.2757 -30.2754
   -20.2887 -20.2885 -20.2880 -20.2875 -20.2865 -20.2859 -20.2856 -20.2853
   -20.2746 -20.2744 -20.2743 -20.2738 -20.2732 -20.2728 -20.2725 -20.2724
   -20.2583 -20.2583 -20.2579 -20.2578 -20.2570 -20.2567 -20.2564 -20.2562
   -20.2534 -20.2533 -20.2529 -20.2526 -20.2523 -20.2521 -20.2517 -20.2516
   -20.2351 -20.2351 -20.2345 -20.2344 -20.2332 -20.2331 -20.2324 -20.2324
   -20.2270 -20.2270 -20.2270 -20.2268 -20.2266 -20.2265 -20.2263 -20.2263
   -20.2209 -20.2208 -20.2206 -20.2205 -20.2201 -20.2200 -20.2198 -20.2198
    -9.8808  -9.7532  -9.7390  -9.4084  -9.3828  -9.0219  -8.9900  -8.8702
    -8.6322  -8.5351  -8.3411  -8.2653  -8.1333  -8.1191  -7.8837  -7.8715
    -7.8446  -7.8428  -7.8128  -7.8078  -7.7949  -7.7888  -7.7752  -7.7741
     0.9730   1.0209   1.2781   1.3121   1.9099   2.1008   2.1861   2.2549
     2.4612   2.4637   2.8680   2.9081   3.0326   3.1430   3.2388   3.3487
     3.3497   3.4860   3.5150   3.5461   3.5980   3.6467   3.7113   3.8750
     3.9282   3.9648   4.0685   4.0863   4.4815   4.5144   4.5655   4.6543
     4.7912   4.8385   4.9147   5.0136   5.1091   5.1405   5.1893   5.3699
     5.5127   5.5275   5.6138   5.7509   5.8656   5.9158   6.1650   6.2734
     6.3042   6.4841   6.4915   6.6901   6.7357   6.7595   6.7730   6.8275
     6.9151   7.0776   7.2221   7.2951   7.4054   7.4264   7.6198   7.6426
     7.8177   7.8200   7.8368   7.8482   7.9628   7.9924   8.0223   8.0348
    10.6900  10.8647  11.1582  11.1626  11.4537  11.5498  11.5923  11.7787
    11.8925  12.0132  12.1233  12.4873  12.7568  12.7857  12.8227  12.9087
    13.0462  13.0912  13.1627  13.3406  13.3433  13.4266  13.8018  13.8879
    14.8762  15.0425  15.4012  15.6265  15.7978  16.1450  16.1638  16.2571
    16.3817  16.5003  16.9957  17.0952  17.3891

          k = 0.0000-0.4725-0.5000 ( 62284 PWs)   bands (ev):

   -66.1267 -66.1267 -66.1266 -66.1266 -66.1259 -66.1259 -66.1258 -66.1258
   -30.7327 -30.7327 -30.6882 -30.6882 -30.6847 -30.6847 -30.6395 -30.6395
   -30.4875 -30.4875 -30.4474 -30.4474 -30.4419 -30.4419 -30.4007 -30.4007
   -30.2777 -30.2777 -30.2773 -30.2773 -30.2762 -30.2762 -30.2757 -30.2757
   -20.2886 -20.2886 -20.2872 -20.2872 -20.2867 -20.2867 -20.2855 -20.2855
   -20.2745 -20.2745 -20.2738 -20.2738 -20.2733 -20.2733 -20.2724 -20.2724
   -20.2583 -20.2583 -20.2575 -20.2575 -20.2573 -20.2573 -20.2563 -20.2563
   -20.2531 -20.2531 -20.2529 -20.2529 -20.2520 -20.2520 -20.2519 -20.2519
   -20.2351 -20.2351 -20.2339 -20.2339 -20.2338 -20.2338 -20.2324 -20.2324
   -20.2270 -20.2270 -20.2268 -20.2268 -20.2267 -20.2267 -20.2263 -20.2263
   -20.2209 -20.2208 -20.2203 -20.2203 -20.2202 -20.2202 -20.2198 -20.2198
    -9.8044  -9.8044  -9.5399  -9.5398  -9.0270  -9.0269  -8.8227  -8.8227
    -8.6821  -8.6821  -8.5955  -8.5955  -8.1409  -8.1409  -7.8795  -7.8795
    -7.8440  -7.8440  -7.8020  -7.8020  -7.7994  -7.7993  -7.7735  -7.7734
     0.9969   0.9969   1.3055   1.3055   2.7000   2.7000   2.7060   2.7060
     2.7921   2.7921   2.8224   2.8224   2.9850   2.9850   3.1449   3.1450
     3.3429   3.3429   3.3910   3.3911   3.4773   3.4773   3.6229   3.6229
     3.8088   3.8088   4.0447   4.0447   4.4309   4.4310   4.5276   4.5277
     4.7033   4.7033   4.7480   4.7481   4.8030   4.8030   5.1240   5.1240
     5.5180   5.5180   5.6956   5.6956   5.9086   5.9086   6.2132   6.2132
     6.2971   6.2971   6.6286   6.6286   6.7301   6.7301   6.7863   6.7863
     7.3399   7.3399   7.3775   7.3775   7.4126   7.4127   7.5179   7.5179
     7.6826   7.6826   7.9574   7.9574   7.9961   7.9961   8.0158   8.0158
    11.1126  11.1126  11.4277  11.4277  11.5437  11.5437  11.7204  11.7204
    12.0579  12.0579  12.1881  12.1881  12.4688  12.4688  12.5272  12.5272
    13.1216  13.1216  13.3155  13.3155  13.4198  13.4198  13.6259  13.6259
    14.9739  14.9739  15.5536  15.5536  16.4097  16.4097  16.6063  16.6063
    16.9117  16.9117  16.9820  16.9820  17.1397

          k = 0.1667 0.0000 0.1667 ( 62234 PWs)   bands (ev):

   -66.1271 -66.1267 -66.1264 -66.1264 -66.1260 -66.1260 -66.1257 -66.1254
   -30.7285 -30.7278 -30.7249 -30.7249 -30.6472 -30.6472 -30.6447 -30.6442
   -30.4844 -30.4843 -30.4791 -30.4791 -30.4089 -30.4088 -30.4046 -30.4045
   -30.3051 -30.3033 -30.3033 -30.3016 -30.2513 -30.2502 -30.2502 -30.2492
   -20.2886 -20.2885 -20.2882 -20.2882 -20.2859 -20.2859 -20.2854 -20.2854
   -20.2747 -20.2746 -20.2741 -20.2741 -20.2727 -20.2727 -20.2725 -20.2725
   -20.2583 -20.2582 -20.2581 -20.2581 -20.2566 -20.2566 -20.2564 -20.2562
   -20.2535 -20.2534 -20.2527 -20.2527 -20.2523 -20.2523 -20.2516 -20.2514
   -20.2354 -20.2350 -20.2350 -20.2347 -20.2334 -20.2327 -20.2327 -20.2320
   -20.2290 -20.2286 -20.2286 -20.2281 -20.2250 -20.2248 -20.2247 -20.2246
   -20.2208 -20.2207 -20.2206 -20.2206 -20.2199 -20.2198 -20.2198 -20.2196
    -9.9965  -9.7989  -9.6622  -9.6614  -9.2715  -9.2711  -9.0192  -9.0108
    -8.5152  -8.3547  -8.3310  -8.2745  -8.2717  -8.2256  -8.2198  -8.1747
    -7.9270  -7.9262  -7.9003  -7.8751  -7.3220  -7.2572  -7.2564  -7.1947
     1.1686   1.1773   1.2786   1.2798   1.5561   1.5571   1.6612   1.7035
     2.1351   2.1401   2.1495   2.1808   2.2593   2.3668   2.7042   2.7440
     2.7697   2.7790   3.8150   3.8215   3.9778   3.9983   4.1330   4.1857
     4.1913   4.2226   4.7325   4.7622   4.8916   4.9060   5.1001   5.1556
     5.1912   5.2810   5.2975   5.3959   5.4334   5.5624   5.6074   5.6302
     5.6844   5.7633   5.8033   5.9654   6.0363   6.0643   6.2114   6.3973
     6.4053   6.4392   6.5364   6.5959   6.7499   6.7838   6.8689   6.9370
     7.0281   7.0474   7.1317   7.2063   7.2189   7.2463   7.3076   7.3194
     7.3582   7.3693   7.9863   8.0108   8.2535   8.3630   8.3767   8.3875
    10.1035  10.2327  10.2827  10.3659  10.4581  10.5526  12.5443  12.5459
    12.5771  12.6395  12.6694  12.6771  12.7148  12.8203  12.8381  12.8624
    13.0708  13.1177  13.3766  13.3970  13.4637  13.4643  13.9757  14.0130
    14.3407  14.5413  14.5535  14.7602  15.1036  15.1486  15.4313  16.0052
    16.0204  16.6435  16.7718  16.7883  17.3203

          k = 0.1667 0.0000 0.3333 ( 62265 PWs)   bands (ev):

   -66.1270 -66.1266 -66.1266 -66.1263 -66.1262 -66.1259 -66.1259 -66.1255
   -30.7275 -30.7256 -30.7112 -30.7081 -30.6645 -30.6617 -30.6467 -30.6451
   -30.4833 -30.4802 -30.4686 -30.4636 -30.4251 -30.4207 -30.4080 -30.4055
   -30.3046 -30.3035 -30.3028 -30.3018 -30.2510 -30.2503 -30.2499 -30.2493
   -20.2885 -20.2883 -20.2880 -20.2876 -20.2864 -20.2860 -20.2858 -20.2856
   -20.2745 -20.2743 -20.2742 -20.2738 -20.2732 -20.2728 -20.2727 -20.2725
   -20.2582 -20.2582 -20.2579 -20.2578 -20.2570 -20.2568 -20.2565 -20.2564
   -20.2533 -20.2531 -20.2528 -20.2525 -20.2524 -20.2521 -20.2518 -20.2516
   -20.2352 -20.2350 -20.2346 -20.2343 -20.2336 -20.2332 -20.2326 -20.2323
   -20.2290 -20.2287 -20.2285 -20.2283 -20.2249 -20.2248 -20.2247 -20.2246
   -20.2207 -20.2206 -20.2205 -20.2204 -20.2200 -20.2199 -20.2198 -20.2197
    -9.8745  -9.6975  -9.6528  -9.4238  -9.3314  -9.0492  -8.9522  -8.8630
    -8.7203  -8.5578  -8.4504  -8.3503  -8.3142  -8.2602  -8.2281  -8.2009
    -8.1424  -8.1177  -7.9185  -7.8947  -7.3093  -7.2713  -7.2446  -7.2084
     1.2229   1.2673   1.4915   1.5503   1.8722   1.9600   2.1122   2.1202
     2.1710   2.2018   2.2332   2.3306   2.5050   2.6040   2.7390   2.7701
     2.9606   2.9763   3.4182   3.6089   3.6695   3.9800   4.0031   4.0183
     4.2138   4.2516   4.3231   4.3732   4.5128   4.6102   4.7777   4.8505
     4.9277   5.0454   5.0840   5.1387   5.2222   5.2996   5.4429   5.5457
     5.6550   5.7280   5.7655   5.8887   6.1022   6.1576   6.2840   6.2993
     6.4218   6.5180   6.6143   6.6450   6.7904   6.8164   6.9095   6.9449
     7.0216   7.1069   7.1348   7.2148   7.2321   7.2707   7.2788   7.3001
     7.6287   7.6559   7.7711   7.8385   8.2018   8.2693   8.3592   8.3628
    10.2620  10.2751  10.8834  10.9133  11.0242  11.0329  12.1838  12.3592
    12.4117  12.4911  12.6020  12.6395  12.7540  12.7873  12.8310  12.8391
    12.9329  13.2022  13.3499  13.3736  13.4370  13.4556  13.6804  13.7584
    14.3734  14.5181  14.6588  15.0185  15.0951  15.6297  15.7539  15.8838
    16.3725  16.8041  17.1177  17.2121  17.3050

          k = 0.1667 0.0000-0.5000 ( 62322 PWs)   bands (ev):

   -66.1268 -66.1268 -66.1264 -66.1264 -66.1261 -66.1261 -66.1257 -66.1257
   -30.7266 -30.7266 -30.6880 -30.6880 -30.6850 -30.6850 -30.6459 -30.6459
   -30.4817 -30.4817 -30.4470 -30.4470 -30.4423 -30.4423 -30.4067 -30.4067
   -30.3039 -30.3039 -30.3022 -30.3022 -30.2506 -30.2506 -30.2495 -30.2495
   -20.2884 -20.2884 -20.2872 -20.2872 -20.2868 -20.2868 -20.2857 -20.2857
   -20.2744 -20.2744 -20.2737 -20.2737 -20.2733 -20.2733 -20.2726 -20.2726
   -20.2582 -20.2582 -20.2575 -20.2575 -20.2573 -20.2573 -20.2565 -20.2565
   -20.2531 -20.2531 -20.2528 -20.2528 -20.2521 -20.2521 -20.2519 -20.2519
   -20.2351 -20.2351 -20.2341 -20.2341 -20.2338 -20.2338 -20.2325 -20.2325
   -20.2288 -20.2288 -20.2284 -20.2284 -20.2249 -20.2249 -20.2247 -20.2247
   -20.2207 -20.2207 -20.2202 -20.2202 -20.2202 -20.2202 -20.2198 -20.2198
    -9.7655  -9.7655  -9.4638  -9.4638  -9.0783  -9.0783  -8.8087  -8.8087
    -8.7320  -8.7319  -8.6078  -8.6077  -8.2708  -8.2708  -8.2366  -8.2366
    -8.2054  -8.2054  -7.9069  -7.9069  -7.2906  -7.2906  -7.2268  -7.2268
     1.2471   1.2471   1.5415   1.5415   2.0867   2.0868   2.1012   2.1012
     2.6441   2.6441   2.7671   2.7671   2.7990   2.7991   2.8607   2.8607
     3.0605   3.0605   3.1152   3.1152   3.4556   3.4556   3.9157   3.9158
     3.9372   3.9372   4.0235   4.0236   4.6327   4.6327   4.6886   4.6886
     4.7796   4.7796   5.0293   5.0293   5.1737   5.1737   5.4588   5.4588
     5.7052   5.7053   5.7957   5.7957   6.1436   6.1436   6.3442   6.3443
     6.3987   6.3987   6.6656   6.6656   6.8210   6.8210   6.9423   6.9423
     7.0522   7.0522   7.2324   7.2324   7.2594   7.2594   7.4243   7.4243
     7.5615   7.5615   7.9910   7.9910   8.0362   8.0362   8.3534   8.3534
    10.2834  10.2834  11.5369  11.5369  11.6857  11.6857  11.7364  11.7364
    11.8048  11.8048  12.6067  12.6067  12.8277  12.8277  13.0699  13.0699
    13.0918  13.0918  13.2536  13.2536  13.3892  13.3892  13.5149  13.5149
    14.4607  14.4607  14.8634  14.8634  15.5063  15.5063  16.0363  16.0363
    16.5035  16.5035  17.5095  17.5096  17.8386

          k = 0.1667 0.1575 0.1667 ( 62255 PWs)   bands (ev):

   -66.1271 -66.1267 -66.1264 -66.1264 -66.1261 -66.1260 -66.1257 -66.1254
   -30.7284 -30.7278 -30.7249 -30.7249 -30.6472 -30.6472 -30.6446 -30.6442
   -30.4844 -30.4843 -30.4791 -30.4791 -30.4089 -30.4088 -30.4046 -30.4046
   -30.3016 -30.2998 -30.2998 -30.2981 -30.2550 -30.2538 -30.2538 -30.2528
   -20.2886 -20.2885 -20.2882 -20.2882 -20.2859 -20.2859 -20.2854 -20.2854
   -20.2747 -20.2746 -20.2741 -20.2741 -20.2727 -20.2727 -20.2725 -20.2725
   -20.2583 -20.2582 -20.2581 -20.2581 -20.2566 -20.2566 -20.2564 -20.2562
   -20.2535 -20.2534 -20.2527 -20.2527 -20.2523 -20.2523 -20.2516 -20.2514
   -20.2353 -20.2350 -20.2350 -20.2347 -20.2333 -20.2327 -20.2327 -20.2321
   -20.2288 -20.2284 -20.2283 -20.2279 -20.2252 -20.2250 -20.2250 -20.2248
   -20.2208 -20.2207 -20.2206 -20.2206 -20.2199 -20.2198 -20.2198 -20.2197
    -9.9799  -9.8093  -9.6553  -9.6546  -9.2707  -9.2704  -9.0185  -9.0110
    -8.4703  -8.3371  -8.2992  -8.2586  -8.2283  -8.2030  -8.1966  -8.1576
    -7.9267  -7.9251  -7.9017  -7.8737  -7.4022  -7.3426  -7.3417  -7.2856
     1.1693   1.1768   1.2791   1.2797   1.5556   1.5564   1.6740   1.7027
     2.2663   2.2780   2.3263   2.3355   2.3599   2.4030   2.7683   2.8353
     2.8395   2.8656   3.7538   3.7552   3.8950   3.9507   4.0780   4.1174
     4.1489   4.1646   4.6486   4.8184   4.9178   4.9314   5.0601   5.1368
     5.1670   5.2404   5.2460   5.3811   5.4119   5.4690   5.5377   5.5810
     5.6036   5.6879   5.7172   5.9677   5.9894   6.1046   6.1544   6.2422
     6.4104   6.4154   6.5217   6.6019   6.7643   6.8625   6.8783   6.9685
     6.9690   7.0710   7.1309   7.1447   7.1818   7.2407   7.2770   7.3132
     7.3513   7.3885   7.9888   8.0073   8.2442   8.3155   8.3270   8.3342
    10.2575  10.3415  10.4186  10.4220  10.5081  10.6737  12.3999  12.4049
    12.4430  12.4709  12.6722  12.6729  12.7299  12.8574  12.8773  12.8947
    13.0931  13.1172  13.3847  13.4446  13.4642  13.5035  13.9817  14.0093
    14.4725  14.6990  14.7088  14.8189  15.1398  15.3858  15.5393  15.9913
    16.0056  16.4386  16.8546  16.8797  17.2467

          k = 0.1667 0.1575 0.3333 ( 62260 PWs)   bands (ev):

   -66.1270 -66.1266 -66.1266 -66.1263 -66.1262 -66.1259 -66.1259 -66.1255
   -30.7275 -30.7256 -30.7112 -30.7081 -30.6645 -30.6617 -30.6467 -30.6451
   -30.4833 -30.4802 -30.4687 -30.4636 -30.4251 -30.4206 -30.4080 -30.4055
   -30.3010 -30.2999 -30.2993 -30.2983 -30.2546 -30.2539 -30.2535 -30.2528
   -20.2885 -20.2883 -20.2880 -20.2876 -20.2864 -20.2860 -20.2858 -20.2856
   -20.2745 -20.2743 -20.2742 -20.2738 -20.2732 -20.2728 -20.2727 -20.2725
   -20.2582 -20.2582 -20.2579 -20.2578 -20.2570 -20.2568 -20.2565 -20.2564
   -20.2533 -20.2532 -20.2528 -20.2525 -20.2524 -20.2521 -20.2518 -20.2516
   -20.2351 -20.2350 -20.2346 -20.2344 -20.2335 -20.2332 -20.2326 -20.2323
   -20.2287 -20.2285 -20.2283 -20.2280 -20.2252 -20.2251 -20.2250 -20.2249
   -20.2207 -20.2207 -20.2205 -20.2204 -20.2200 -20.2200 -20.2198 -20.2197
    -9.8596  -9.6898  -9.6605  -9.4157  -9.3315  -9.0474  -8.9522  -8.8621
    -8.6967  -8.5506  -8.4433  -8.3251  -8.2854  -8.2161  -8.1986  -8.1895
    -8.1201  -8.1068  -7.9179  -7.8941  -7.3900  -7.3547  -7.3305  -7.2971
     1.2232   1.2677   1.4914   1.5499   1.8935   2.0328   2.1752   2.2358
     2.3073   2.3136   2.3624   2.4162   2.5147   2.6101   2.8065   2.8443
     3.0223   3.0477   3.4167   3.6013   3.6385   3.9000   3.9139   3.9573
     4.2149   4.2913   4.3256   4.3478   4.5039   4.6036   4.7189   4.8467
     4.8950   4.9995   5.0308   5.0873   5.1376   5.2184   5.4319   5.4925
     5.5297   5.6523   5.6889   5.8116   6.0128   6.0937   6.1687   6.2013
     6.3195   6.5378   6.6288   6.6639   6.8221   6.9017   6.9401   6.9533
     6.9923   7.1192   7.1432   7.1921   7.2348   7.2493   7.3136   7.3347
     7.6492   7.6811   7.7730   7.8372   8.1999   8.2448   8.3054   8.3218
    10.4196  10.4303  10.8862  10.9917  11.0455  11.1149  12.1804  12.3385
    12.4095  12.4469  12.4716  12.5684  12.6617  12.6943  12.8434  12.8667
    12.9355  13.2131  13.2994  13.3204  13.4633  13.4725  13.6768  13.7510
    14.5527  14.6806  14.9326  15.1361  15.4016  15.6441  15.7689  15.9019
    16.4157  16.7715  16.9024  17.2560  17.3476

          k = 0.1667 0.1575-0.5000 ( 62292 PWs)   bands (ev):

   -66.1268 -66.1268 -66.1264 -66.1264 -66.1261 -66.1261 -66.1257 -66.1257
   -30.7266 -30.7266 -30.6880 -30.6880 -30.6850 -30.6850 -30.6459 -30.6459
   -30.4817 -30.4817 -30.4470 -30.4470 -30.4423 -30.4423 -30.4067 -30.4067
   -30.3004 -30.3004 -30.2987 -30.2987 -30.2542 -30.2542 -30.2531 -30.2531
   -20.2884 -20.2884 -20.2872 -20.2872 -20.2868 -20.2868 -20.2857 -20.2857
   -20.2744 -20.2744 -20.2737 -20.2737 -20.2733 -20.2733 -20.2726 -20.2726
   -20.2582 -20.2582 -20.2575 -20.2575 -20.2573 -20.2573 -20.2565 -20.2565
   -20.2531 -20.2531 -20.2528 -20.2528 -20.2521 -20.2521 -20.2519 -20.2519
   -20.2350 -20.2350 -20.2340 -20.2340 -20.2338 -20.2338 -20.2325 -20.2325
   -20.2286 -20.2286 -20.2282 -20.2282 -20.2251 -20.2251 -20.2249 -20.2249
   -20.2207 -20.2207 -20.2203 -20.2203 -20.2202 -20.2202 -20.2198 -20.2198
    -9.7549  -9.7549  -9.4667  -9.4667  -9.0670  -9.0670  -8.8072  -8.8071
    -8.7269  -8.7269  -8.6027  -8.6026  -8.2544  -8.2544  -8.1979  -8.1979
    -8.1738  -8.1738  -7.9064  -7.9064  -7.3725  -7.3725  -7.3138  -7.3138
     1.2476   1.2476   1.5413   1.5413   2.2469   2.2469   2.2971   2.2971
     2.6864   2.6864   2.7743   2.7744   2.8210   2.8211   2.8778   2.8779
     3.0709   3.0710   3.1305   3.1305   3.4612   3.4613   3.8885   3.8885
     3.9741   3.9741   4.0066   4.0066   4.5966   4.5966   4.6474   4.6474
     4.7022   4.7022   4.9735   4.9736   5.0925   5.0925   5.4388   5.4388
     5.5995   5.5995   5.6953   5.6953   6.0410   6.0410   6.1833   6.1833
     6.3972   6.3972   6.6951   6.6951   6.8669   6.8669   7.0327   7.0327
     7.0713   7.0714   7.1878   7.1878   7.2844   7.2844   7.4266   7.4266
     7.5654   7.5654   8.0013   8.0014   8.0384   8.0384   8.3101   8.3101
    10.4391  10.4391  11.5362  11.5362  11.7209  11.7209  11.7731  11.7731
    11.8322  11.8322  12.4603  12.4604  12.8591  12.8591  12.9674  12.9674
    13.0016  13.0016  13.2494  13.2494  13.4173  13.4173  13.5139  13.5139
    14.6337  14.6337  15.1895  15.1895  15.5786  15.5787  16.0458  16.0458
    16.5377  16.5377  17.3855  17.3855  17.7680

          k = 0.1667 0.3150 0.1667 ( 62249 PWs)   bands (ev):

   -66.1270 -66.1268 -66.1263 -66.1263 -66.1261 -66.1261 -66.1256 -66.1254
   -30.7283 -30.7279 -30.7249 -30.7249 -30.6472 -30.6472 -30.6446 -30.6443
   -30.4844 -30.4843 -30.4791 -30.4791 -30.4089 -30.4089 -30.4046 -30.4046
   -30.2918 -30.2901 -30.2901 -30.2886 -30.2649 -30.2636 -30.2636 -30.2624
   -20.2886 -20.2885 -20.2882 -20.2882 -20.2859 -20.2859 -20.2854 -20.2854
   -20.2746 -20.2746 -20.2741 -20.2741 -20.2727 -20.2727 -20.2725 -20.2725
   -20.2583 -20.2582 -20.2581 -20.2581 -20.2566 -20.2566 -20.2564 -20.2563
   -20.2535 -20.2534 -20.2527 -20.2527 -20.2524 -20.2523 -20.2515 -20.2515
   -20.2352 -20.2349 -20.2349 -20.2348 -20.2330 -20.2327 -20.2327 -20.2323
   -20.2280 -20.2277 -20.2277 -20.2273 -20.2259 -20.2257 -20.2256 -20.2255
   -20.2209 -20.2208 -20.2207 -20.2207 -20.2199 -20.2199 -20.2199 -20.2198
    -9.9373  -9.8394  -9.6417  -9.6413  -9.2693  -9.2690  -9.0164  -9.0118
    -8.3818  -8.3250  -8.2622  -8.2450  -8.1044  -8.0894  -8.0762  -8.0592
    -7.9222  -7.9167  -7.9077  -7.8646  -7.6052  -7.5595  -7.5576  -7.5161
     1.1708   1.1751   1.2794   1.2795   1.5554   1.5557   1.6886   1.7004
     2.2857   2.3320   2.6850   2.7250   2.7572   2.8615   2.9293   3.1285
     3.1575   3.2629   3.5659   3.5744   3.6302   3.7275   4.0502   4.0515
     4.1013   4.1165   4.2527   4.6510   4.6635   4.8918   5.0067   5.0622
     5.1404   5.1749   5.2041   5.2910   5.3398   5.3613   5.4293   5.4493
     5.5446   5.5811   5.6329   5.6408   5.8690   5.9510   6.0418   6.0527
     6.4541   6.4593   6.5441   6.6004   6.7728   6.8194   6.8567   6.9090
     7.0089   7.0445   7.1606   7.1895   7.2542   7.2680   7.4256   7.4437
     7.4508   7.4911   7.9943   7.9946   8.1333   8.1368   8.1679   8.1842
    10.3690  10.3810  10.7960  10.8225  10.8829  11.0093  12.0145  12.0168
    12.0883  12.0933  12.6732  12.6738  12.8041  12.9467  12.9710  12.9950
    13.1132  13.1190  13.2372  13.3655  13.3875  13.4390  14.0078  14.0100
    14.8366  15.0689  15.1249  15.1522  15.2050  15.5101  15.9346  15.9447
    16.0410  16.4116  16.8188  17.1485  17.1993

          k = 0.1667 0.3150 0.3333 ( 62265 PWs)   bands (ev):

   -66.1269 -66.1267 -66.1265 -66.1263 -66.1262 -66.1260 -66.1258 -66.1256
   -30.7275 -30.7256 -30.7112 -30.7081 -30.6645 -30.6617 -30.6467 -30.6451
   -30.4833 -30.4802 -30.4687 -30.4636 -30.4251 -30.4206 -30.4080 -30.4055
   -30.2913 -30.2903 -30.2896 -30.2887 -30.2645 -30.2637 -30.2632 -30.2625
   -20.2885 -20.2883 -20.2880 -20.2876 -20.2864 -20.2860 -20.2858 -20.2856
   -20.2745 -20.2743 -20.2742 -20.2738 -20.2732 -20.2728 -20.2727 -20.2725
   -20.2582 -20.2582 -20.2579 -20.2578 -20.2570 -20.2568 -20.2565 -20.2564
   -20.2533 -20.2532 -20.2528 -20.2526 -20.2524 -20.2522 -20.2518 -20.2517
   -20.2350 -20.2349 -20.2345 -20.2345 -20.2333 -20.2332 -20.2326 -20.2325
   -20.2279 -20.2278 -20.2276 -20.2274 -20.2259 -20.2257 -20.2256 -20.2255
   -20.2208 -20.2207 -20.2206 -20.2205 -20.2201 -20.2200 -20.2199 -20.2198
    -9.8251  -9.6843  -9.6707  -9.4001  -9.3317  -9.0437  -8.9522  -8.8605
    -8.6568  -8.5370  -8.4251  -8.2820  -8.2540  -8.1708  -8.0877  -8.0658
    -8.0352  -8.0222  -7.9118  -7.8880  -7.5942  -7.5659  -7.5478  -7.5215
     1.2235   1.2680   1.4911   1.5496   1.9097   2.0908   2.1837   2.2545
     2.5329   2.5629   2.7140   2.7178   2.8011   2.8310   3.0166   3.1155
     3.2359   3.3148   3.4179   3.5442   3.5857   3.6895   3.7175   3.8091
     4.1423   4.2126   4.2847   4.3758   4.4122   4.5420   4.6280   4.7283
     4.7518   4.8635   4.9566   4.9992   5.0910   5.1469   5.2095   5.2670
     5.4241   5.4808   5.5020   5.5961   5.6431   5.6700   5.9708   5.9999
     6.3400   6.5903   6.6508   6.7471   6.8457   6.8961   6.9437   7.0396
     7.1202   7.1575   7.1894   7.2641   7.3182   7.3349   7.4314   7.4828
     7.7292   7.7416   7.7794   7.8358   8.1176   8.1415   8.1497   8.1771
    10.7949  10.8229  10.9365  11.0347  11.2931  11.3615  12.0121  12.0640
    12.2072  12.2438  12.2847  12.5281  12.6134  12.6546  12.8769  12.9571
    12.9969  13.0798  13.1133  13.2333  13.3646  13.3875  13.6771  13.7521
    15.0022  15.1048  15.4098  15.5903  15.7024  15.8205  15.9319  16.3009
    16.4653  16.6577  16.7208  17.0586  17.3810

          k = 0.1667 0.3150-0.5000 ( 62264 PWs)   bands (ev):

   -66.1267 -66.1267 -66.1265 -66.1265 -66.1260 -66.1260 -66.1258 -66.1258
   -30.7266 -30.7266 -30.6880 -30.6880 -30.6850 -30.6850 -30.6459 -30.6459
   -30.4818 -30.4818 -30.4470 -30.4470 -30.4423 -30.4423 -30.4067 -30.4067
   -30.2907 -30.2907 -30.2891 -30.2891 -30.2640 -30.2640 -30.2627 -30.2627
   -20.2884 -20.2884 -20.2872 -20.2872 -20.2868 -20.2868 -20.2857 -20.2857
   -20.2744 -20.2744 -20.2737 -20.2737 -20.2733 -20.2733 -20.2726 -20.2726
   -20.2582 -20.2582 -20.2575 -20.2575 -20.2573 -20.2573 -20.2565 -20.2565
   -20.2531 -20.2531 -20.2529 -20.2529 -20.2521 -20.2521 -20.2519 -20.2519
   -20.2350 -20.2350 -20.2339 -20.2339 -20.2338 -20.2338 -20.2326 -20.2326
   -20.2278 -20.2278 -20.2275 -20.2275 -20.2258 -20.2258 -20.2256 -20.2256
   -20.2208 -20.2207 -20.2203 -20.2203 -20.2202 -20.2202 -20.2198 -20.2198
    -9.7331  -9.7331  -9.4729  -9.4729  -9.0463  -9.0463  -8.8045  -8.8045
    -8.7162  -8.7161  -8.5938  -8.5938  -8.2423  -8.2423  -8.0770  -8.0770
    -8.0432  -8.0432  -7.9006  -7.9006  -7.5795  -7.5795  -7.5340  -7.5340
     1.2479   1.2479   1.5411   1.5411   2.5978   2.5978   2.6646   2.6646
     2.7557   2.7557   2.8065   2.8065   2.9272   2.9272   3.0199   3.0199
     3.1175   3.1175   3.2429   3.2429   3.4730   3.4730   3.6644   3.6644
     4.0352   4.0352   4.1452   4.1453   4.3629   4.3630   4.4942   4.4942
     4.6338   4.6338   4.7864   4.7864   5.0944   5.0944   5.1996   5.1996
     5.3265   5.3265   5.4938   5.4938   5.6480   5.6480   5.9815   5.9815
     6.4163   6.4163   6.7405   6.7406   6.9053   6.9053   7.1360   7.1360
     7.2238   7.2238   7.2937   7.2938   7.3541   7.3542   7.4554   7.4554
     7.5965   7.5965   7.9988   7.9989   8.0190   8.0191   8.1628   8.1628
    10.8479  10.8479  11.5356  11.5357  11.7531  11.7531  11.8825  11.8825
    11.9441  11.9441  12.1491  12.1491  12.6931  12.6931  12.7365  12.7365
    12.9698  12.9698  13.2434  13.2434  13.3653  13.3653  13.4794  13.4794
    15.0713  15.0713  15.6655  15.6655  16.0844  16.0844  16.1663  16.1663
    16.6473  16.6473  17.1001  17.1002  17.5725

          k = 0.1667-0.4725 0.1667 ( 62220 PWs)   bands (ev):

   -66.1269 -66.1269 -66.1263 -66.1263 -66.1262 -66.1262 -66.1256 -66.1255
   -30.7281 -30.7281 -30.7249 -30.7249 -30.6472 -30.6472 -30.6444 -30.6444
   -30.4844 -30.4844 -30.4791 -30.4791 -30.4089 -30.4089 -30.4046 -30.4046
   -30.2784 -30.2783 -30.2769 -30.2769 -30.2768 -30.2768 -30.2755 -30.2755
   -20.2886 -20.2885 -20.2882 -20.2881 -20.2859 -20.2859 -20.2854 -20.2854
   -20.2746 -20.2746 -20.2741 -20.2741 -20.2727 -20.2727 -20.2725 -20.2725
   -20.2582 -20.2582 -20.2581 -20.2581 -20.2566 -20.2566 -20.2563 -20.2563
   -20.2535 -20.2534 -20.2527 -20.2527 -20.2524 -20.2524 -20.2515 -20.2515
   -20.2350 -20.2350 -20.2349 -20.2349 -20.2327 -20.2327 -20.2326 -20.2326
   -20.2270 -20.2270 -20.2269 -20.2269 -20.2264 -20.2264 -20.2263 -20.2263
   -20.2208 -20.2208 -20.2207 -20.2207 -20.2199 -20.2199 -20.2199 -20.2199
    -9.8852  -9.8852  -9.6350  -9.6350  -9.2685  -9.2685  -9.0138  -9.0138
    -8.3349  -8.3349  -8.2481  -8.2481  -7.9792  -7.9792  -7.9489  -7.9489
    -7.8604  -7.8603  -7.8137  -7.8137  -7.8075  -7.8074  -7.7631  -7.7630
     1.1728   1.1728   1.2794   1.2794   1.5555   1.5555   1.6963   1.6963
     2.3103   2.3103   2.9172   2.9172   2.9984   2.9984   3.3541   3.3541
     3.4052   3.4052   3.6331   3.6331   3.8180   3.8180   3.9677   3.9677
     4.0445   4.0445   4.0681   4.0681   4.1453   4.1453   5.0795   5.0795
     5.1774   5.1774   5.2754   5.2755   5.3222   5.3222   5.3987   5.3987
     5.5365   5.5365   5.6169   5.6169   5.8040   5.8040   5.9308   5.9308
     6.4684   6.4684   6.5869   6.5869   6.8250   6.8250   6.8729   6.8729
     6.9713   6.9713   7.1512   7.1512   7.2744   7.2744   7.6518   7.6518
     7.7052   7.7052   7.9442   7.9442   7.9681   7.9681   8.0350   8.0350
    10.3819  10.3819  11.2419  11.2419  11.2638  11.2638  11.6370  11.6370
    11.7491  11.7491  12.6745  12.6745  12.9300  12.9300  13.0782  13.0782
    13.1473  13.1473  13.2159  13.2159  13.2659  13.2659  14.0140  14.0140
    15.0221  15.0221  15.3731  15.3731  15.6459  15.6459  15.8845  15.8845
    16.1098  16.1098  17.4113  17.4114  17.6369

          k = 0.1667-0.4725 0.3333 ( 62252 PWs)   bands (ev):

   -66.1268 -66.1268 -66.1264 -66.1263 -66.1261 -66.1260 -66.1257 -66.1257
   -30.7275 -30.7256 -30.7112 -30.7081 -30.6645 -30.6617 -30.6467 -30.6451
   -30.4833 -30.4802 -30.4687 -30.4636 -30.4251 -30.4206 -30.4080 -30.4055
   -30.2779 -30.2779 -30.2770 -30.2770 -30.2765 -30.2763 -30.2756 -30.2755
   -20.2885 -20.2883 -20.2880 -20.2876 -20.2864 -20.2860 -20.2858 -20.2856
   -20.2745 -20.2743 -20.2742 -20.2738 -20.2732 -20.2728 -20.2727 -20.2725
   -20.2582 -20.2582 -20.2579 -20.2578 -20.2570 -20.2567 -20.2566 -20.2564
   -20.2533 -20.2532 -20.2528 -20.2526 -20.2524 -20.2522 -20.2517 -20.2517
   -20.2350 -20.2349 -20.2345 -20.2344 -20.2332 -20.2331 -20.2326 -20.2326
   -20.2270 -20.2270 -20.2269 -20.2268 -20.2266 -20.2265 -20.2264 -20.2263
   -20.2208 -20.2207 -20.2206 -20.2205 -20.2201 -20.2200 -20.2199 -20.2199
    -9.8033  -9.6977  -9.6643  -9.3926  -9.3318  -9.0418  -8.9522  -8.8598
    -8.6411  -8.5309  -8.4148  -8.2673  -8.2467  -8.1625  -7.9728  -7.9562
    -7.8703  -7.8671  -7.8167  -7.8142  -7.8078  -7.8036  -7.7588  -7.7571
     1.2235   1.2681   1.4910   1.5495   1.9132   2.1016   2.1854   2.2574
     2.5510   2.5589   2.9033   2.9379   3.0463   3.0904   3.3230   3.3402
     3.3733   3.4754   3.5436   3.6016   3.6312   3.6737   3.7479   3.8935
     3.9219   3.9539   4.0499   4.0935   4.2791   4.2947   4.5472   4.6606
     4.7841   4.8169   4.8983   4.9163   5.0018   5.0207   5.1835   5.2259
     5.2896   5.3057   5.4279   5.4749   5.6176   5.6229   5.8300   5.8838
     6.3466   6.6031   6.6643   6.7722   6.8703   6.9209   6.9587   7.0388
     7.0732   7.1364   7.2271   7.3395   7.4005   7.4341   7.6389   7.6746
     7.7814   7.7989   7.8286   7.8484   7.9823   7.9991   8.0251   8.0325
    10.8658  10.9861  11.2656  11.2721  11.4944  11.5963  11.6416  11.8308
    11.9029  12.0192  12.2027  12.5328  12.7710  12.8095  12.8196  12.8879
    12.9132  13.0762  13.1313  13.1882  13.1991  13.2875  13.6783  13.7545
    15.1440  15.3389  15.5753  15.7876  15.9465  16.1482  16.2479  16.2917
    16.4192  16.4997  17.0425  17.1596  17.3510

          k = 0.1667-0.4725-0.5000 ( 62232 PWs)   bands (ev):

   -66.1266 -66.1266 -66.1265 -66.1265 -66.1259 -66.1259 -66.1259 -66.1259
   -30.7266 -30.7266 -30.6880 -30.6880 -30.6850 -30.6850 -30.6459 -30.6459
   -30.4818 -30.4818 -30.4470 -30.4470 -30.4423 -30.4423 -30.4067 -30.4067
   -30.2775 -30.2775 -30.2772 -30.2772 -30.2761 -30.2761 -30.2757 -30.2757
   -20.2884 -20.2884 -20.2872 -20.2872 -20.2868 -20.2868 -20.2857 -20.2857
   -20.2744 -20.2744 -20.2737 -20.2737 -20.2733 -20.2733 -20.2726 -20.2726
   -20.2582 -20.2582 -20.2575 -20.2575 -20.2573 -20.2573 -20.2565 -20.2565
   -20.2531 -20.2530 -20.2529 -20.2529 -20.2521 -20.2520 -20.2519 -20.2519
   -20.2349 -20.2349 -20.2339 -20.2339 -20.2338 -20.2338 -20.2326 -20.2326
   -20.2270 -20.2270 -20.2268 -20.2268 -20.2267 -20.2267 -20.2263 -20.2263
   -20.2208 -20.2208 -20.2203 -20.2203 -20.2202 -20.2202 -20.2199 -20.2199
    -9.7219  -9.7219  -9.4764  -9.4764  -9.0369  -9.0369  -8.8033  -8.8033
    -8.7107  -8.7106  -8.5901  -8.5900  -8.2400  -8.2400  -7.9644  -7.9644
    -7.8702  -7.8702  -7.8170  -7.8170  -7.8039  -7.8039  -7.7573  -7.7573
     1.2480   1.2480   1.5410   1.5410   2.7118   2.7118   2.7378   2.7378
     2.7876   2.7876   2.8329   2.8329   3.0628   3.0628   3.1582   3.1583
     3.3503   3.3504   3.4216   3.4216   3.5004   3.5004   3.6580   3.6580
     3.8099   3.8099   4.0518   4.0518   4.3900   4.3900   4.5157   4.5157
     4.6063   4.6064   4.6351   4.6351   4.7572   4.7572   4.9414   4.9414
     5.2725   5.2725   5.4325   5.4325   5.6240   5.6240   5.8534   5.8534
     6.4226   6.4226   6.7543   6.7543   6.9340   6.9340   7.0893   7.0893
     7.3303   7.3303   7.3801   7.3801   7.4165   7.4165   7.5076   7.5076
     7.7029   7.7029   7.9702   7.9702   7.9962   7.9962   8.0200   8.0200
    11.2295  11.2295  11.5250  11.5250  11.6385  11.6385  11.7985  11.7985
    12.0661  12.0661  12.1945  12.1945  12.4780  12.4780  12.5265  12.5265
    13.0957  13.0957  13.1755  13.1755  13.2880  13.2880  13.4734  13.4734
    15.2655  15.2655  15.7612  15.7612  16.4948  16.4948  16.6726  16.6726
    16.9181  16.9181  17.0021  17.0021  17.1368

          k = 0.3333 0.0000 0.3333 ( 62316 PWs)   bands (ev):

   -66.1268 -66.1264 -66.1264 -66.1264 -66.1260 -66.1260 -66.1260 -66.1256
   -30.7110 -30.7103 -30.7088 -30.7088 -30.6640 -30.6640 -30.6626 -30.6621
   -30.4677 -30.4675 -30.4648 -30.4646 -30.4243 -30.4241 -30.4216 -30.4216
   -30.3040 -30.3030 -30.3029 -30.3019 -30.2506 -30.2500 -30.2500 -30.2494
   -20.2880 -20.2879 -20.2877 -20.2877 -20.2864 -20.2864 -20.2862 -20.2861
   -20.2742 -20.2741 -20.2739 -20.2739 -20.2731 -20.2731 -20.2729 -20.2729
   -20.2580 -20.2579 -20.2579 -20.2578 -20.2570 -20.2569 -20.2569 -20.2567
   -20.2531 -20.2529 -20.2526 -20.2526 -20.2524 -20.2523 -20.2520 -20.2518
   -20.2349 -20.2347 -20.2346 -20.2341 -20.2338 -20.2331 -20.2331 -20.2326
   -20.2289 -20.2287 -20.2286 -20.2284 -20.2249 -20.2248 -20.2247 -20.2247
   -20.2206 -20.2205 -20.2204 -20.2204 -20.2201 -20.2200 -20.2199 -20.2198
    -9.7054  -9.5085  -9.4642  -9.4618  -9.1238  -9.1224  -8.8338  -8.8242
    -8.8213  -8.6374  -8.5157  -8.5130  -8.3435  -8.3357  -8.3083  -8.2475
    -8.1940  -8.1398  -8.1306  -8.0818  -7.2967  -7.2600  -7.2579  -7.2223
     1.8107   1.8279   1.8571   1.8812   2.0811   2.0951   2.1499   2.1539
     2.1951   2.2254   2.3349   2.4230   2.7291   2.8430   2.9080   2.9477
     3.0073   3.0218   3.4725   3.5115   3.7613   3.7682   3.9059   3.9279
     4.0720   4.0810   4.2137   4.2367   4.3096   4.3338   4.4081   4.4771
     4.5154   4.6602   4.8360   4.8694   5.0040   5.0312   5.1573   5.1957
     5.2819   5.4404   5.5581   5.7344   6.2323   6.3044   6.3085   6.4094
     6.5771   6.6451   6.7302   6.7854   6.8421   6.8995   6.9279   6.9568
     7.0746   7.0813   7.1061   7.1749   7.2536   7.2545   7.5133   7.5908
     7.6318   7.6604   7.7026   7.7207   8.1828   8.2361   8.2892   8.2982
    10.7693  10.8683  10.9747  11.1468  11.3533  11.3827  12.3074  12.3851
    12.4103  12.4162  12.4658  12.4881  12.6854  12.7060  12.7920  12.8015
    12.8083  12.8691  13.2352  13.3539  13.3832  13.3971  13.4244  13.4794
    14.4190  14.6076  14.6264  14.9419  15.5484  16.0872  16.2359  16.5471
    16.5616  16.9364  17.0378  17.3401  17.5161

          k = 0.3333 0.0000-0.5000 ( 62288 PWs)   bands (ev):

   -66.1266 -66.1266 -66.1262 -66.1262 -66.1262 -66.1262 -66.1258 -66.1258
   -30.7098 -30.7098 -30.6874 -30.6874 -30.6857 -30.6857 -30.6632 -30.6632
   -30.4662 -30.4662 -30.4460 -30.4460 -30.4433 -30.4433 -30.4229 -30.4229
   -30.3034 -30.3034 -30.3023 -30.3023 -30.2502 -30.2502 -30.2496 -30.2496
   -20.2878 -20.2878 -20.2872 -20.2872 -20.2869 -20.2869 -20.2863 -20.2863
   -20.2740 -20.2740 -20.2737 -20.2737 -20.2733 -20.2733 -20.2730 -20.2730
   -20.2579 -20.2579 -20.2575 -20.2575 -20.2573 -20.2573 -20.2569 -20.2569
   -20.2528 -20.2528 -20.2526 -20.2526 -20.2523 -20.2523 -20.2521 -20.2521
   -20.2347 -20.2347 -20.2341 -20.2341 -20.2337 -20.2337 -20.2329 -20.2329
   -20.2288 -20.2288 -20.2285 -20.2285 -20.2249 -20.2249 -20.2247 -20.2247
   -20.2205 -20.2205 -20.2202 -20.2202 -20.2202 -20.2202 -20.2199 -20.2199
    -9.5490  -9.5490  -9.2956  -9.2955  -9.1311  -9.1311  -8.8560  -8.8559
    -8.7239  -8.7239  -8.5882  -8.5881  -8.4361  -8.4361  -8.3086  -8.3086
    -8.2231  -8.2231  -8.1205  -8.1205  -7.2782  -7.2782  -7.2409  -7.2409
     1.8589   1.8589   2.0635   2.0635   2.1326   2.1326   2.1688   2.1688
     2.7216   2.7216   2.8348   2.8348   2.8645   2.8645   2.8891   2.8891
     3.1174   3.1174   3.3088   3.3088   3.5863   3.5864   3.7821   3.7822
     3.8925   3.8925   3.9903   3.9903   4.1912   4.1912   4.2562   4.2562
     4.4234   4.4234   4.6739   4.6739   4.9312   4.9313   5.0914   5.0914
     5.2901   5.2902   5.5814   5.5814   6.2893   6.2893   6.3863   6.3863
     6.6637   6.6637   6.7815   6.7815   6.9133   6.9133   6.9357   6.9357
     7.0694   7.0695   7.1811   7.1811   7.3802   7.3802   7.4651   7.4651
     7.6128   7.6128   7.9985   7.9985   8.0261   8.0261   8.2661   8.2661
    10.9102  10.9102  11.6887  11.6887  11.7425  11.7425  11.8882  11.8882
    12.0250  12.0250  12.4350  12.4350  12.7783  12.7783  12.8692  12.8692
    12.9599  12.9599  13.0981  13.0981  13.1552  13.1552  13.4055  13.4055
    14.5321  14.5321  14.8014  14.8014  16.0380  16.0380  16.6801  16.6801
    16.9010  16.9011  17.2039  17.2039  17.7523

          k = 0.3333 0.1575 0.3333 ( 62283 PWs)   bands (ev):

   -66.1268 -66.1265 -66.1264 -66.1264 -66.1261 -66.1261 -66.1260 -66.1257
   -30.7109 -30.7103 -30.7088 -30.7088 -30.6640 -30.6640 -30.6625 -30.6621
   -30.4677 -30.4675 -30.4647 -30.4646 -30.4243 -30.4241 -30.4216 -30.4216
   -30.3005 -30.2994 -30.2994 -30.2984 -30.2542 -30.2536 -30.2535 -30.2529
   -20.2880 -20.2879 -20.2877 -20.2877 -20.2864 -20.2864 -20.2861 -20.2861
   -20.2742 -20.2741 -20.2739 -20.2739 -20.2731 -20.2731 -20.2729 -20.2729
   -20.2580 -20.2579 -20.2579 -20.2578 -20.2570 -20.2569 -20.2569 -20.2567
   -20.2531 -20.2529 -20.2526 -20.2526 -20.2524 -20.2523 -20.2520 -20.2518
   -20.2349 -20.2346 -20.2346 -20.2342 -20.2337 -20.2331 -20.2331 -20.2327
   -20.2286 -20.2284 -20.2283 -20.2281 -20.2251 -20.2251 -20.2250 -20.2249
   -20.2206 -20.2205 -20.2204 -20.2204 -20.2201 -20.2200 -20.2199 -20.2198
    -9.6878  -9.5181  -9.4543  -9.4521  -9.1235  -9.1220  -8.8247  -8.8239
    -8.8015  -8.6411  -8.5138  -8.5120  -8.3176  -8.3098  -8.2885  -8.1989
    -8.1950  -8.1197  -8.1092  -8.0645  -7.3779  -7.3442  -7.3416  -7.3089
     1.8311   1.8399   1.8836   1.8925   2.1607   2.1883   2.1982   2.2977
     2.3020   2.3497   2.3548   2.4712   2.7449   2.8499   2.9540   3.0222
     3.0502   3.0883   3.4674   3.5077   3.7381   3.7536   3.8878   3.9066
     4.0337   4.0456   4.2325   4.2772   4.3425   4.3536   4.4019   4.4646
     4.5348   4.6629   4.7960   4.8400   4.9029   4.9376   5.0454   5.1064
     5.1766   5.3053   5.4030   5.6187   6.0356   6.1094   6.1578   6.1854
[...]
   -20.3058 -20.3058 -20.3056 -20.3056 -20.3051 -20.3051 -20.3049 -20.3049
   -20.2855 -20.2855 -20.2850 -20.2850 -20.2843 -20.2843 -20.2836 -20.2836
   -20.2824 -20.2824 -20.2820 -20.2820 -20.2792 -20.2792 -20.2791 -20.2791
   -20.2700 -20.2700 -20.2698 -20.2698 -20.2694 -20.2694 -20.2692 -20.2692
    -9.3968  -9.3968  -9.1284  -9.1284  -9.0909  -9.0909  -8.7580  -8.7579
    -8.5872  -8.5872  -8.4772  -8.4772  -8.4223  -8.4223  -8.2831  -8.2831
    -8.2331  -8.2331  -8.0447  -8.0447  -7.9667  -7.9667  -7.9211  -7.9211
     2.0834   2.0834   2.2606   2.2606   2.3328   2.3328   2.4418   2.4418
     2.8763   2.8763   2.9684   2.9684   3.0735   3.0736   3.1224   3.1224
     3.2632   3.2632   3.5000   3.5000   3.7544   3.7544   3.8413   3.8413
     3.8979   3.8979   4.0845   4.0845   4.1495   4.1495   4.2929   4.2929
     4.4607   4.4607   4.5674   4.5674   4.6698   4.6698   4.8310   4.8310
     4.9636   4.9636   5.0281   5.0281   5.1860   5.1860   5.4343   5.4343
     6.8841   6.8841   6.9535   6.9535   7.0574   7.0575   7.1048   7.1048
     7.1502   7.1503   7.2567   7.2567   7.4624   7.4624   7.5084   7.5084
     7.6017   7.6017   7.7654   7.7654   7.7890   7.7890   7.9710   7.9710
    11.2353  11.2353  11.6732  11.6732  11.7778  11.7778  11.8332  11.8332
    11.9203  11.9203  12.3209  12.3209  12.5144  12.5144  12.6174  12.6174
    12.7335  12.7335  12.7895  12.7895  12.8606  12.8606  13.1240  13.1240
    15.6714  15.6714  16.1390  16.1390  16.5022  16.5022  16.5978  16.5978
    16.6795  16.6795  17.0682  17.0682  17.3126

          k = 0.3269-0.4902 0.3269 ( 62386 PWs)   bands (ev):

   -66.1708 -66.1708 -66.1705 -66.1705 -66.1705 -66.1705 -66.1702 -66.1702
   -30.6426 -30.6426 -30.6412 -30.6412 -30.6057 -30.6057 -30.6043 -30.6043
   -30.4492 -30.4492 -30.4472 -30.4472 -30.4386 -30.4386 -30.4373 -30.4373
   -30.4288 -30.4288 -30.4264 -30.4264 -30.4039 -30.4039 -30.4018 -30.4018
   -20.3469 -20.3469 -20.3467 -20.3467 -20.3459 -20.3459 -20.3457 -20.3457
   -20.3351 -20.3351 -20.3349 -20.3349 -20.3343 -20.3343 -20.3342 -20.3342
   -20.3080 -20.3080 -20.3078 -20.3077 -20.3072 -20.3072 -20.3070 -20.3070
   -20.3060 -20.3060 -20.3056 -20.3055 -20.3051 -20.3051 -20.3046 -20.3046
   -20.2852 -20.2852 -20.2848 -20.2848 -20.2841 -20.2841 -20.2838 -20.2838
   -20.2813 -20.2813 -20.2810 -20.2810 -20.2808 -20.2808 -20.2803 -20.2803
   -20.2699 -20.2698 -20.2698 -20.2698 -20.2695 -20.2695 -20.2694 -20.2694
    -9.3958  -9.3958  -9.2348  -9.2348  -8.9887  -8.9887  -8.6849  -8.6849
    -8.5993  -8.5993  -8.3881  -8.3881  -8.3452  -8.3452  -8.3050  -8.3050
    -8.2514  -8.2514  -8.1935  -8.1935  -7.9799  -7.9799  -7.9596  -7.9595
     2.1031   2.1031   2.1329   2.1329   2.4127   2.4127   2.5305   2.5305
     2.8400   2.8400   2.9553   2.9553   3.1315   3.1315   3.1478   3.1478
     3.3157   3.3157   3.5280   3.5280   3.6661   3.6661   3.7361   3.7361
     3.7969   3.7969   4.1071   4.1072   4.1847   4.1847   4.4127   4.4127
     4.5924   4.5924   4.6262   4.6262   4.7232   4.7232   4.8890   4.8890
     4.9248   4.9248   4.9921   4.9921   5.0706   5.0706   5.2400   5.2400
     6.9296   6.9296   6.9587   6.9587   7.0082   7.0082   7.1027   7.1027
     7.2307   7.2307   7.3172   7.3172   7.4234   7.4234   7.5600   7.5600
     7.5768   7.5768   7.7391   7.7391   7.8598   7.8598   7.8906   7.8906
    11.1939  11.1939  11.6269  11.6269  11.6520  11.6520  11.9531  11.9531
    12.0578  12.0578  12.2426  12.2426  12.4990  12.4990  12.6474  12.6474
    12.7006  12.7006  12.7895  12.7895  12.8137  12.8137  13.1203  13.1203
    15.5514  15.5515  15.9252  15.9252  16.2127  16.2127  16.4075  16.4075
    17.0132  17.0132  17.2771  17.2772  17.4334

          k = 0.3269-0.4902-0.4903 ( 62380 PWs)   bands (ev):

   -66.1707 -66.1707 -66.1706 -66.1706 -66.1704 -66.1704 -66.1704 -66.1703
   -30.6419 -30.6419 -30.6242 -30.6242 -30.6229 -30.6229 -30.6050 -30.6050
   -30.4483 -30.4482 -30.4417 -30.4417 -30.4408 -30.4408 -30.4378 -30.4378
   -30.4278 -30.4278 -30.4178 -30.4178 -30.4162 -30.4162 -30.4028 -30.4028
   -20.3468 -20.3468 -20.3464 -20.3464 -20.3462 -20.3462 -20.3458 -20.3458
   -20.3350 -20.3350 -20.3347 -20.3347 -20.3345 -20.3345 -20.3343 -20.3343
   -20.3079 -20.3079 -20.3076 -20.3076 -20.3073 -20.3073 -20.3071 -20.3071
   -20.3058 -20.3058 -20.3056 -20.3056 -20.3051 -20.3051 -20.3049 -20.3049
   -20.2851 -20.2851 -20.2845 -20.2845 -20.2844 -20.2844 -20.2838 -20.2838
   -20.2812 -20.2812 -20.2809 -20.2809 -20.2809 -20.2809 -20.2803 -20.2803
   -20.2698 -20.2698 -20.2697 -20.2697 -20.2696 -20.2696 -20.2694 -20.2694
    -9.3027  -9.3027  -9.1641  -9.1641  -8.9537  -8.9537  -8.7998  -8.7998
    -8.5240  -8.5239  -8.4463  -8.4463  -8.3534  -8.3533  -8.3083  -8.3083
    -8.2237  -8.2237  -8.1788  -8.1788  -8.1625  -8.1625  -7.9701  -7.9701
     2.1358   2.1358   2.3841   2.3841   2.7690   2.7690   2.7988   2.7989
     2.9101   2.9102   3.0566   3.0566   3.1384   3.1384   3.2105   3.2105
     3.3709   3.3709   3.4341   3.4341   3.5023   3.5023   3.7151   3.7151
     3.8258   3.8258   3.9501   3.9501   4.2261   4.2261   4.3572   4.3572
     4.4106   4.4106   4.5205   4.5205   4.5544   4.5544   4.6265   4.6265
     4.7001   4.7001   4.8505   4.8505   5.0199   5.0199   5.0653   5.0653
     6.9741   6.9741   7.0099   7.0099   7.1512   7.1512   7.2119   7.2119
     7.2686   7.2686   7.3583   7.3583   7.4687   7.4687   7.5676   7.5676
     7.5873   7.5873   7.7594   7.7594   7.7682   7.7682   7.8744   7.8744
    11.5769  11.5769  11.6942  11.6942  11.8347  11.8347  11.9713  11.9713
    12.0657  12.0657  12.2000  12.2000  12.4216  12.4216  12.4387  12.4387
    12.6240  12.6240  12.7126  12.7126  12.7853  12.7853  12.8552  12.8552
    15.7923  15.7923  16.1894  16.1894  16.6645  16.6645  16.8173  16.8173
    17.1072  17.1072  17.2405  17.2405  17.4054

          k =-0.4903 0.0000-0.4903 ( 62420 PWs)   bands (ev):

   -66.1709 -66.1709 -66.1709 -66.1709 -66.1701 -66.1701 -66.1701 -66.1701
   -30.6241 -30.6241 -30.6237 -30.6237 -30.6236 -30.6236 -30.6230 -30.6230
   -30.4793 -30.4793 -30.4793 -30.4793 -30.4260 -30.4260 -30.4260 -30.4260
   -30.4212 -30.4212 -30.4211 -30.4210 -30.3895 -30.3895 -30.3895 -30.3895
   -20.3464 -20.3464 -20.3463 -20.3463 -20.3463 -20.3463 -20.3462 -20.3462
   -20.3348 -20.3348 -20.3346 -20.3346 -20.3346 -20.3346 -20.3345 -20.3345
   -20.3076 -20.3076 -20.3075 -20.3075 -20.3074 -20.3074 -20.3074 -20.3074
   -20.3054 -20.3054 -20.3054 -20.3054 -20.3053 -20.3053 -20.3052 -20.3052
   -20.2864 -20.2864 -20.2862 -20.2862 -20.2840 -20.2840 -20.2835 -20.2835
   -20.2833 -20.2833 -20.2829 -20.2829 -20.2774 -20.2774 -20.2773 -20.2773
   -20.2702 -20.2702 -20.2702 -20.2702 -20.2690 -20.2690 -20.2690 -20.2690
    -9.4485  -9.4485  -9.4443  -9.4443  -8.8587  -8.8587  -8.8553  -8.8553
    -8.6218  -8.6218  -8.6166  -8.6165  -8.3140  -8.3139  -8.3078  -8.3078
    -8.2368  -8.2368  -8.2365  -8.2365  -7.5936  -7.5936  -7.5920  -7.5920
     1.4080   1.4080   1.4175   1.4175   2.7122   2.7122   2.7599   2.7599
     2.8360   2.8360   2.9041   2.9041   3.1008   3.1008   3.1814   3.1814
     3.2434   3.2434   3.3344   3.3344   3.6623   3.6623   3.7301   3.7301
     3.8124   3.8124   3.8152   3.8152   4.1953   4.1953   4.2548   4.2548
     4.3069   4.3069   4.3408   4.3408   5.1092   5.1092   5.1999   5.1999
     5.5332   5.5332   5.6915   5.6915   6.1009   6.1009   6.1483   6.1483
     6.4520   6.4520   6.4612   6.4613   6.5938   6.5938   6.6015   6.6015
     7.3305   7.3305   7.3448   7.3449   7.4491   7.4491   7.4890   7.4890
     7.6364   7.6364   7.7141   7.7141   7.8107   7.8107   7.9240   7.9241
    11.3431  11.3431  11.4432  11.4432  11.6097  11.6097  11.7199  11.7199
    12.0709  12.0709  12.2084  12.2084  12.2727  12.2727  12.2907  12.2907
    13.1968  13.1968  13.2172  13.2172  13.3028  13.3028  13.3127  13.3127
    15.3730  15.3730  15.3910  15.3910  16.3539  16.3539  16.5676  16.5676
    16.9573  16.9573  17.0342  17.0342  17.2300

          k =-0.4903 0.1634-0.4903 ( 62388 PWs)   bands (ev):

   -66.1708 -66.1708 -66.1708 -66.1708 -66.1702 -66.1702 -66.1702 -66.1702
   -30.6241 -30.6241 -30.6237 -30.6237 -30.6236 -30.6236 -30.6230 -30.6230
   -30.4739 -30.4739 -30.4739 -30.4739 -30.4266 -30.4266 -30.4266 -30.4266
   -30.4210 -30.4210 -30.4208 -30.4208 -30.3946 -30.3946 -30.3946 -30.3946
   -20.3464 -20.3464 -20.3463 -20.3463 -20.3463 -20.3463 -20.3462 -20.3462
   -20.3348 -20.3348 -20.3347 -20.3346 -20.3346 -20.3346 -20.3345 -20.3345
   -20.3075 -20.3075 -20.3075 -20.3075 -20.3074 -20.3074 -20.3074 -20.3074
   -20.3054 -20.3054 -20.3054 -20.3054 -20.3053 -20.3053 -20.3052 -20.3052
   -20.2860 -20.2860 -20.2859 -20.2859 -20.2840 -20.2840 -20.2836 -20.2836
   -20.2831 -20.2831 -20.2828 -20.2828 -20.2779 -20.2779 -20.2778 -20.2778
   -20.2701 -20.2701 -20.2701 -20.2701 -20.2691 -20.2691 -20.2691 -20.2691
    -9.3838  -9.3838  -9.3792  -9.3792  -8.8728  -8.8728  -8.8690  -8.8690
    -8.6037  -8.6037  -8.5976  -8.5976  -8.3162  -8.3162  -8.3091  -8.3091
    -8.2359  -8.2359  -8.2354  -8.2354  -7.7042  -7.7042  -7.7023  -7.7023
     1.6457   1.6457   1.6553   1.6553   2.7245   2.7245   2.7846   2.7846
     2.8549   2.8549   2.9140   2.9140   3.1132   3.1132   3.2074   3.2074
     3.2389   3.2389   3.3339   3.3339   3.7110   3.7110   3.7655   3.7655
     3.8505   3.8505   3.8647   3.8647   4.1944   4.1945   4.2359   4.2359
     4.2999   4.2999   4.3394   4.3394   4.8503   4.8503   4.9269   4.9269
     5.2574   5.2574   5.3694   5.3694   5.8704   5.8704   5.9304   5.9304
     6.6725   6.6725   6.7207   6.7207   6.7393   6.7393   6.7534   6.7535
     7.3357   7.3358   7.3386   7.3386   7.4395   7.4395   7.4963   7.4964
     7.6646   7.6646   7.7173   7.7173   7.8236   7.8236   7.9080   7.9081
    11.4210  11.4210  11.5346  11.5346  11.6470  11.6470  11.7764  11.7764
    12.0781  12.0781  12.2112  12.2112  12.2803  12.2803  12.2868  12.2868
    13.0774  13.0774  13.0783  13.0783  13.1834  13.1834  13.1968  13.1968
    15.6743  15.6743  15.6894  15.6894  16.4234  16.4234  16.6128  16.6128
    16.9391  16.9391  17.0367  17.0367  17.2414

          k =-0.4903 0.3268-0.4903 ( 62360 PWs)   bands (ev):

   -66.1707 -66.1707 -66.1707 -66.1707 -66.1703 -66.1703 -66.1703 -66.1703
   -30.6240 -30.6240 -30.6236 -30.6236 -30.6236 -30.6236 -30.6231 -30.6231
   -30.4594 -30.4594 -30.4594 -30.4594 -30.4297 -30.4297 -30.4296 -30.4296
   -30.4203 -30.4203 -30.4200 -30.4200 -30.4072 -30.4072 -30.4071 -30.4071
   -20.3464 -20.3464 -20.3463 -20.3463 -20.3463 -20.3463 -20.3462 -20.3462
   -20.3347 -20.3347 -20.3347 -20.3347 -20.3346 -20.3346 -20.3345 -20.3345
   -20.3075 -20.3075 -20.3075 -20.3075 -20.3074 -20.3074 -20.3074 -20.3074
   -20.3054 -20.3054 -20.3054 -20.3054 -20.3053 -20.3053 -20.3053 -20.3053
   -20.2854 -20.2854 -20.2851 -20.2851 -20.2840 -20.2840 -20.2839 -20.2839
   -20.2823 -20.2823 -20.2822 -20.2822 -20.2792 -20.2792 -20.2791 -20.2791
   -20.2699 -20.2699 -20.2699 -20.2699 -20.2693 -20.2693 -20.2693 -20.2693
    -9.2201  -9.2201  -9.2130  -9.2130  -8.9228  -8.9228  -8.9168  -8.9168
    -8.5417  -8.5417  -8.5301  -8.5300  -8.3310  -8.3309  -8.3167  -8.3167
    -8.2291  -8.2291  -8.2270  -8.2269  -7.9623  -7.9623  -7.9600  -7.9600
     2.2511   2.2511   2.2564   2.2564   2.7443   2.7443   2.8280   2.8280
     2.9150   2.9150   2.9498   2.9498   3.1489   3.1489   3.2234   3.2234
     3.2808   3.2808   3.3177   3.3177   3.7959   3.7959   3.8234   3.8234
     3.9815   3.9815   3.9840   3.9840   4.1354   4.1354   4.1793   4.1793
     4.2750   4.2750   4.3468   4.3468   4.4325   4.4325   4.5576   4.5576
     4.8083   4.8083   4.8855   4.8855   5.1843   5.1843   5.2501   5.2501
     7.0157   7.0157   7.0408   7.0408   7.0756   7.0756   7.0784   7.0785
     7.3200   7.3201   7.3444   7.3444   7.4131   7.4131   7.5143   7.5143
     7.7061   7.7061   7.7301   7.7301   7.8176   7.8176   7.8509   7.8509
    11.6668  11.6668  11.7951  11.7951  11.7979  11.7979  11.9486  11.9486
    12.0944  12.0944  12.2226  12.2226  12.2722  12.2722  12.2971  12.2971
    12.7273  12.7273  12.7473  12.7473  12.8572  12.8572  12.8632  12.8632
    16.3557  16.3557  16.3670  16.3670  16.7056  16.7056  16.7836  16.7836
    16.8638  16.8638  17.0396  17.0396  17.2832

          k =-0.4903-0.4902-0.4903 ( 62368 PWs)   bands (ev):

   -66.1705 -66.1705 -66.1705 -66.1705 -66.1705 -66.1705 -66.1705 -66.1705
   -30.6239 -30.6239 -30.6236 -30.6236 -30.6236 -30.6236 -30.6231 -30.6231
   -30.4424 -30.4424 -30.4412 -30.4412 -30.4412 -30.4412 -30.4399 -30.4399
   -30.4189 -30.4189 -30.4170 -30.4170 -30.4170 -30.4170 -30.4154 -30.4154
   -20.3464 -20.3464 -20.3464 -20.3464 -20.3463 -20.3463 -20.3462 -20.3462
   -20.3347 -20.3347 -20.3347 -20.3347 -20.3345 -20.3345 -20.3345 -20.3345
   -20.3075 -20.3075 -20.3075 -20.3075 -20.3074 -20.3074 -20.3074 -20.3074
   -20.3054 -20.3054 -20.3054 -20.3054 -20.3053 -20.3053 -20.3053 -20.3053
   -20.2850 -20.2850 -20.2844 -20.2844 -20.2844 -20.2844 -20.2841 -20.2841
   -20.2812 -20.2812 -20.2809 -20.2809 -20.2809 -20.2809 -20.2804 -20.2804
   -20.2696 -20.2696 -20.2696 -20.2696 -20.2696 -20.2696 -20.2696 -20.2696
    -9.0771  -9.0771  -9.0340  -9.0340  -9.0340  -9.0340  -8.9921  -8.9920
    -8.4660  -8.4660  -8.4055  -8.4055  -8.4054  -8.4054  -8.3381  -8.3381
    -8.1935  -8.1935  -8.1731  -8.1731  -8.1731  -8.1730  -8.1568  -8.1567
     2.7039   2.7039   2.7039   2.7039   2.7286   2.7286   2.7909   2.7909
     3.1144   3.1144   3.1692   3.1692   3.1891   3.1891   3.1892   3.1892
     3.2228   3.2228   3.4415   3.4415   3.4415   3.4416   3.5306   3.5307
     4.1191   4.1191   4.1551   4.1551   4.1582   4.1582   4.1583   4.1583
     4.3341   4.3341   4.3905   4.3905   4.3905   4.3905   4.4312   4.4312
     4.6130   4.6130   4.6368   4.6368   4.6368   4.6368   4.7417   4.7418
     7.1602   7.1603   7.2160   7.2160   7.2160   7.2160   7.2387   7.2387
     7.3131   7.3131   7.3131   7.3131   7.3861   7.3861   7.5267   7.5267
     7.7604   7.7604   7.7665   7.7665   7.7713   7.7713   7.7714   7.7714
    11.9669  11.9669  11.9880  11.9880  11.9989  11.9989  11.9989  11.9989
    12.1988  12.1988  12.2123  12.2123  12.2872  12.2872  12.2872  12.2872
    12.4921  12.4921  12.5347  12.5347  12.5347  12.5347  12.5384  12.5384
    16.6406  16.6407  16.6917  16.6917  16.6917  16.6917  17.0051  17.0051
    17.2361  17.2362  17.2746  17.2746  17.2746

     the Fermi energy is     8.8487 ev

!    total energy              =   -6260.95712323 Ry
     Harris-Foulkes estimate   =   -6260.95712323 Ry
     estimated scf accuracy    <          7.5E-11 Ry

     The total energy is the sum of the following terms:

     one-electron contribution =   -4715.83295492 Ry
     hartree contribution      =    2594.74053043 Ry
     xc contribution           =    -965.66167024 Ry
     ewald contribution        =   -3174.20302851 Ry
     smearing contrib. (-TS)   =      -0.00000000 Ry

     convergence has been achieved in  14 iterations

     Forces acting on atoms (cartesian axes, Ry/au):

     atom    1 type  1   force =    -0.06367908    0.00341592    0.00223281
     atom    2 type  1   force =    -0.00223281   -0.00341592   -0.06367908
     atom    3 type  1   force =     0.06367908   -0.00341592    0.00223281
     atom    4 type  1   force =     0.00223281    0.00341592   -0.06367908
     atom    5 type  1   force =     0.06367908    0.00341592   -0.00223281
     atom    6 type  1   force =     0.00223281   -0.00341592    0.06367908
     atom    7 type  1   force =    -0.06367908   -0.00341592   -0.00223281
     atom    8 type  1   force =    -0.00223281    0.00341592    0.06367908
     atom    9 type  2   force =    -0.00085821   -0.09184670   -0.01748948
     atom   10 type  2   force =     0.01748948    0.09184670   -0.00085821
     atom   11 type  2   force =     0.00085821    0.09184670   -0.01748948
     atom   12 type  2   force =    -0.01748948   -0.09184670   -0.00085821
     atom   13 type  2   force =     0.00085821   -0.09184670    0.01748948
     atom   14 type  2   force =    -0.01748948    0.09184670    0.00085821
     atom   15 type  2   force =    -0.00085821    0.09184670    0.01748948
     atom   16 type  2   force =     0.01748948   -0.09184670    0.00085821
     atom   17 type  2   force =    -0.03985244    0.00195490    0.00493441
     atom   18 type  2   force =     0.00664751   -0.01182467    0.00546217
     atom   19 type  2   force =     0.03985244   -0.00195490    0.00493441
     atom   20 type  2   force =    -0.00664751    0.01182467    0.00546217
     atom   21 type  2   force =     0.03985244    0.00195490   -0.00493441
     atom   22 type  2   force =    -0.00664751   -0.01182467   -0.00546217
     atom   23 type  2   force =    -0.03985244   -0.00195490   -0.00493441
     atom   24 type  2   force =     0.00664751    0.01182467   -0.00546217
     atom   25 type  2   force =    -0.00546217   -0.01182467   -0.00664751
     atom   26 type  2   force =    -0.00493441   -0.00195490   -0.03985244
     atom   27 type  2   force =     0.00546217    0.01182467   -0.00664751
     atom   28 type  2   force =     0.00493441    0.00195490   -0.03985244
     atom   29 type  2   force =     0.00546217   -0.01182467    0.00664751
     atom   30 type  2   force =     0.00493441   -0.00195490    0.03985244
     atom   31 type  2   force =    -0.00546217    0.01182467    0.00664751
     atom   32 type  2   force =    -0.00493441    0.00195490    0.03985244

     Total force =     0.000000     Total SCF correction =     0.000000


     Computing stress (Cartesian axis) and pressure

          total   stress  (Ry/bohr**3)                   (kbar)     P=    0.92
   0.00000997   0.00000000   0.00000000          1.47      0.00      0.00
   0.00000000  -0.00000113   0.00000000          0.00     -0.17      0.00
   0.00000000   0.00000000   0.00000997          0.00      0.00      1.47


     Writing output data file Landau_32.save
 
     init_run     :     40.90s CPU     42.76s WALL (       2 calls)
     electrons    :   4168.08s CPU   4290.42s WALL (       7 calls)
     update_pot   :    102.76s CPU    103.14s WALL (       5 calls)
     forces       :    112.65s CPU    115.34s WALL (       7 calls)
     stress       :    697.14s CPU    710.31s WALL (       7 calls)

     Called by init_run:
     wfcinit      :     24.36s CPU     25.94s WALL (       2 calls)
     potinit      :      6.80s CPU      6.87s WALL (       2 calls)

     Called by electrons:
     c_bands      :   3645.43s CPU   3761.38s WALL (      98 calls)
     sum_band     :    481.44s CPU    483.94s WALL (      98 calls)
     v_of_rho     :      8.89s CPU      8.99s WALL (     103 calls)
     mix_rho      :     15.66s CPU     18.23s WALL (      98 calls)

     Called by c_bands:
     init_us_2    :     28.97s CPU     31.32s WALL (     198 calls)
     cegterg      :   3213.14s CPU   3326.49s WALL (      98 calls)

     Called by sum_band:

     Called by *egterg:
     h_psi        :   2514.12s CPU   2527.64s WALL (     403 calls)
     g_psi        :      6.16s CPU      6.19s WALL (     303 calls)
     cdiaghg      :     44.02s CPU     44.20s WALL (     394 calls)

     Called by h_psi:
     h_psi:pot    :   2495.62s CPU   2508.49s WALL (     403 calls)
     h_psi:calbec :    243.47s CPU    248.69s WALL (     403 calls)
     vloc_psi     :   1981.35s CPU   1987.59s WALL (     403 calls)
     add_vuspsi   :    270.80s CPU    272.20s WALL (     403 calls)

     General routines
     calbec       :    277.03s CPU    282.84s WALL (     438 calls)
     fft          :      7.32s CPU      7.34s WALL (     470 calls)
     fftw         :   2016.29s CPU   2021.99s WALL (  128832 calls)
 
     Parallel routines
 
     PWSCF        :     1h25m CPU        1h27m WALL

 
   This run was terminated on:  20: 2:30  28Feb2020            

=------------------------------------------------------------------------------=
   JOB DONE.
=------------------------------------------------------------------------------=
