
     Program PWSCF v.6.2 (svn rev. 14038) starts on 11Mar2020 at  7:37:48 

     This program is part of the open-source Quantum ESPRESSO suite
     for quantum simulation of materials; please cite
         "P. Giannozzi et al., J. Phys.:Condens. Matter 21 395502 (2009);
         "P. Giannozzi et al., J. Phys.:Condens. Matter 29 465901 (2017);
          URL http://www.quantum-espresso.org", 
     in publications or presentations arising from this work. More details at
     http://www.quantum-espresso.org/quote

     Parallel version (MPI), running on    40 processors

     MPI processes distributed on     9 nodes
     K-points division:     npool     =      40
     Reading input from rscf.in

     Current dimensions of program PWSCF are:
     Max number of different atomic species (ntypx) = 10
     Max number of k-points (npk) =  40000
     Max angular momentum in pseudopotentials (lmaxx) =  3

     Subspace diagonalization in iterative solution of the eigenvalue problem:
     a serial algorithm will be used

 
     G-vector sticks info
     --------------------
     sticks:   dense  smooth     PW     G-vecs:    dense   smooth      PW
     Sum        7747    7747   2077               498127   498127   69057
 


     bravais-lattice index     =            0
     lattice parameter (alat)  =      13.8397  a.u.
     unit-cell volume          =    2804.9816 (a.u.)^3
     number of atoms/cell      =           32
     number of atomic types    =            2
     number of electrons       =       368.00
     number of Kohn-Sham states=          221
     kinetic-energy cutoff     =     120.0000  Ry
     charge density cutoff     =     480.0000  Ry
     convergence threshold     =      1.0E-08
     mixing beta               =       0.7000
     number of iterations used =            8  plain     mixing
     Exchange-correlation      = SLA PW NOGX NOGC ( 1  4  0  0 0 0)
     nstep                     =           50


     celldm(1)=  13.839685  celldm(2)=   0.000000  celldm(3)=   0.000000
     celldm(4)=   0.000000  celldm(5)=   0.000000  celldm(6)=   0.000000

     crystal axes: (cart. coord. in units of alat)
               a(1) = (   1.000000   0.000000   0.000000 )  
               a(2) = (   0.000000   1.058160   0.000000 )  
               a(3) = (   0.000000   0.000000   1.000000 )  

     reciprocal axes: (cart. coord. in units 2 pi/alat)
               b(1) = (  1.000000  0.000000  0.000000 )  
               b(2) = (  0.000000  0.945037  0.000000 )  
               b(3) = (  0.000000  0.000000  1.000000 )  


     PseudoPot. # 1 for W  read from file:
     /cluster/scratch/mnoe/QE/pps/W_ONCV_LDA-4.0.upf
     MD5 check sum: ba0307d5d4cd419d6f1d13dc49d7c13a
     Pseudo is Norm-conserving + core correction, Zval = 28.0
     Generated using ONCVPSP code by D. R. Hamann
     Using radial grid of 1380 points,  8 beta functions with: 
                l(1) =   0
                l(2) =   0
                l(3) =   1
                l(4) =   1
                l(5) =   2
                l(6) =   2
                l(7) =   3
                l(8) =   3

     PseudoPot. # 2 for O  read from file:
     /cluster/scratch/mnoe/QE/pps/O_ONCV_LDA-3.0.upf
     MD5 check sum: a1bd6164e7280c17a38c229939bfbd54
     Pseudo is Norm-conserving + core correction, Zval =  6.0
     Generated using ONCVPSP code by D. R. Hamann
     Using radial grid of  926 points,  5 beta functions with: 
                l(1) =   0
                l(2) =   0
                l(3) =   1
                l(4) =   1
                l(5) =   2

     atomic species   valence    mass     pseudopotential
        W             28.00   183.84000     W ( 1.00)
        O              6.00    15.99940     O ( 1.00)

      8 Sym. Ops., with inversion, found ( 6 have fractional translation)



   Cartesian axes

     site n.     atom                  positions (alat units)
         1           W   tau(   1) = (   0.2370500   0.2967857   0.0122300  )
         2           W   tau(   2) = (   0.7629500   0.7613744   0.9877700  )
         3           W   tau(   3) = (   0.2629500   0.2322944   0.5122300  )
         4           W   tau(   4) = (   0.7370500   0.8258657   0.4877700  )
         5           W   tau(   5) = (   0.7629500   0.2967857   0.4877700  )
         6           W   tau(   6) = (   0.2370500   0.7613744   0.5122300  )
         7           W   tau(   7) = (   0.7370500   0.2322944   0.9877700  )
         8           W   tau(   8) = (   0.2629500   0.8258657   0.0122300  )
         9           O   tau(   9) = (   0.2261100   0.0084042   0.0038000  )
        10           O   tau(  10) = (   0.7738900   1.0497559   0.9962000  )
        11           O   tau(  11) = (   0.2738900   0.5206759   0.5038000  )
        12           O   tau(  12) = (   0.7261100   0.5374842   0.4962000  )
        13           O   tau(  13) = (   0.7738900   0.0084042   0.4962000  )
        14           O   tau(  14) = (   0.2261100   1.0497559   0.5038000  )
        15           O   tau(  15) = (   0.7261100   0.5206759   0.9962000  )
        16           O   tau(  16) = (   0.2738900   0.5374842   0.0038000  )
        17           O   tau(  17) = (   0.5035400   0.2386045   0.4529307  )
        18           O   tau(  18) = (   0.4964600   0.8195556   0.5470693  )
        19           O   tau(  19) = (   0.9964600   0.2904755   0.9529307  )
        20           O   tau(  20) = (   0.0035400   0.7676845   0.0470693  )
        21           O   tau(  21) = (   0.4964600   0.2386045   0.0470693  )
        22           O   tau(  22) = (   0.5035400   0.8195556   0.9529307  )
        23           O   tau(  23) = (   0.0035400   0.2904755   0.5470693  )
        24           O   tau(  24) = (   0.9964600   0.7676845   0.4529307  )
        25           O   tau(  25) = (   0.7029307   0.2588789   0.7446300  )
        26           O   tau(  26) = (   0.2970693   0.7992812   0.2553700  )
        27           O   tau(  27) = (   0.7970693   0.2702012   0.2446300  )
        28           O   tau(  28) = (   0.2029307   0.7879589   0.7553700  )
        29           O   tau(  29) = (   0.2970693   0.2588789   0.7553700  )
        30           O   tau(  30) = (   0.7029307   0.7992812   0.2446300  )
        31           O   tau(  31) = (   0.2029307   0.2702012   0.2553700  )
        32           O   tau(  32) = (   0.7970693   0.7879589   0.7446300  )

     number of k points=    64  gaussian smearing, width (Ry)=  0.0007
                       cart. coord. in units 2pi/alat
        k(    1) = (   0.0000000   0.0000000   0.0000000), wk =   0.0092593
        k(    2) = (   0.0000000   0.0000000   0.1666667), wk =   0.0185185
        k(    3) = (   0.0000000   0.0000000   0.3333333), wk =   0.0185185
        k(    4) = (   0.0000000   0.0000000  -0.5000000), wk =   0.0092593
        k(    5) = (   0.0000000   0.1575061   0.0000000), wk =   0.0185185
        k(    6) = (   0.0000000   0.1575061   0.1666667), wk =   0.0370370
        k(    7) = (   0.0000000   0.1575061   0.3333333), wk =   0.0370370
        k(    8) = (   0.0000000   0.1575061  -0.5000000), wk =   0.0185185
        k(    9) = (   0.0000000   0.3150122   0.0000000), wk =   0.0185185
        k(   10) = (   0.0000000   0.3150122   0.1666667), wk =   0.0370370
        k(   11) = (   0.0000000   0.3150122   0.3333333), wk =   0.0370370
        k(   12) = (   0.0000000   0.3150122  -0.5000000), wk =   0.0185185
        k(   13) = (   0.0000000  -0.4725183   0.0000000), wk =   0.0092593
        k(   14) = (   0.0000000  -0.4725183   0.1666667), wk =   0.0185185
        k(   15) = (   0.0000000  -0.4725183   0.3333333), wk =   0.0185185
        k(   16) = (   0.0000000  -0.4725183  -0.5000000), wk =   0.0092593
        k(   17) = (   0.1666667   0.0000000   0.1666667), wk =   0.0370370
        k(   18) = (   0.1666667   0.0000000   0.3333333), wk =   0.0370370
        k(   19) = (   0.1666667   0.0000000  -0.5000000), wk =   0.0185185
        k(   20) = (   0.1666667   0.1575061   0.1666667), wk =   0.0740741
        k(   21) = (   0.1666667   0.1575061   0.3333333), wk =   0.0740741
        k(   22) = (   0.1666667   0.1575061  -0.5000000), wk =   0.0370370
        k(   23) = (   0.1666667   0.3150122   0.1666667), wk =   0.0740741
        k(   24) = (   0.1666667   0.3150122   0.3333333), wk =   0.0740741
        k(   25) = (   0.1666667   0.3150122  -0.5000000), wk =   0.0370370
        k(   26) = (   0.1666667  -0.4725183   0.1666667), wk =   0.0370370
        k(   27) = (   0.1666667  -0.4725183   0.3333333), wk =   0.0370370
        k(   28) = (   0.1666667  -0.4725183  -0.5000000), wk =   0.0185185
        k(   29) = (   0.3333333   0.0000000   0.3333333), wk =   0.0370370
        k(   30) = (   0.3333333   0.0000000  -0.5000000), wk =   0.0185185
        k(   31) = (   0.3333333   0.1575061   0.3333333), wk =   0.0740741
        k(   32) = (   0.3333333   0.1575061  -0.5000000), wk =   0.0370370
        k(   33) = (   0.3333333   0.3150122   0.3333333), wk =   0.0740741
        k(   34) = (   0.3333333   0.3150122  -0.5000000), wk =   0.0370370
        k(   35) = (   0.3333333  -0.4725183   0.3333333), wk =   0.0370370
        k(   36) = (   0.3333333  -0.4725183  -0.5000000), wk =   0.0185185
        k(   37) = (  -0.5000000   0.0000000  -0.5000000), wk =   0.0092593
        k(   38) = (  -0.5000000   0.1575061  -0.5000000), wk =   0.0185185
        k(   39) = (  -0.5000000   0.3150122  -0.5000000), wk =   0.0185185
        k(   40) = (  -0.5000000  -0.4725183  -0.5000000), wk =   0.0092593
        k(   41) = (   0.1666667   0.0000000   0.0000000), wk =   0.0185185
        k(   42) = (   0.3333333   0.0000000   0.0000000), wk =   0.0185185
        k(   43) = (  -0.5000000   0.0000000   0.0000000), wk =   0.0092593
        k(   44) = (   0.1666667  -0.1575061   0.0000000), wk =   0.0370370
        k(   45) = (   0.3333333  -0.1575061   0.0000000), wk =   0.0370370
        k(   46) = (  -0.5000000  -0.1575061   0.0000000), wk =   0.0185185
        k(   47) = (   0.1666667  -0.3150122   0.0000000), wk =   0.0370370
        k(   48) = (   0.3333333  -0.3150122   0.0000000), wk =   0.0370370
        k(   49) = (  -0.5000000  -0.3150122   0.0000000), wk =   0.0185185
        k(   50) = (   0.1666667   0.4725183   0.0000000), wk =   0.0185185
        k(   51) = (   0.3333333   0.4725183   0.0000000), wk =   0.0185185
        k(   52) = (  -0.5000000   0.4725183   0.0000000), wk =   0.0092593
        k(   53) = (   0.3333333   0.0000000   0.1666667), wk =   0.0370370
        k(   54) = (  -0.5000000   0.0000000   0.1666667), wk =   0.0185185
        k(   55) = (   0.3333333  -0.1575061   0.1666667), wk =   0.0740741
        k(   56) = (  -0.5000000  -0.1575061   0.1666667), wk =   0.0370370
        k(   57) = (   0.3333333  -0.3150122   0.1666667), wk =   0.0740741
        k(   58) = (  -0.5000000  -0.3150122   0.1666667), wk =   0.0370370
        k(   59) = (   0.3333333   0.4725183   0.1666667), wk =   0.0370370
        k(   60) = (  -0.5000000   0.4725183   0.1666667), wk =   0.0185185
        k(   61) = (  -0.5000000   0.0000000   0.3333333), wk =   0.0185185
        k(   62) = (  -0.5000000  -0.1575061   0.3333333), wk =   0.0370370
        k(   63) = (  -0.5000000  -0.3150122   0.3333333), wk =   0.0370370
        k(   64) = (  -0.5000000   0.4725183   0.3333333), wk =   0.0185185

     Dense  grid:   498127 G-vectors     FFT dimensions: ( 100, 108, 100)

     Estimated max dynamical RAM per process >       3.15 GB

     Estimated total dynamical RAM >     125.81 GB

     Initial potential from superposition of free atoms

     starting charge  367.99656, renormalised to  368.00000
     Starting wfc are  232 randomized atomic wfcs

     total cpu time spent up to now is       66.8 secs

     Self-consistent Calculation

     iteration #  1     ecut=   120.00 Ry     beta= 0.70
     Davidson diagonalization with overlap
     ethr =  1.00E-02,  avg # of iterations =  5.0

     total cpu time spent up to now is      227.4 secs

     total energy              =   -6253.97186657 Ry
     Harris-Foulkes estimate   =   -6264.56292622 Ry
     estimated scf accuracy    <      13.40862213 Ry

     iteration #  2     ecut=   120.00 Ry     beta= 0.70
     Davidson diagonalization with overlap
     ethr =  3.64E-03,  avg # of iterations =  3.4

     total cpu time spent up to now is      388.4 secs

     total energy              =   -6250.64213354 Ry
     Harris-Foulkes estimate   =   -6270.88260053 Ry
     estimated scf accuracy    <      54.73444580 Ry

     iteration #  3     ecut=   120.00 Ry     beta= 0.70
     Davidson diagonalization with overlap
     ethr =  3.64E-03,  avg # of iterations =  3.4

     total cpu time spent up to now is      541.4 secs

     total energy              =   -6261.06359039 Ry
     Harris-Foulkes estimate   =   -6261.41393344 Ry
     estimated scf accuracy    <       1.12388218 Ry

     iteration #  4     ecut=   120.00 Ry     beta= 0.70
     Davidson diagonalization with overlap
     ethr =  3.05E-04,  avg # of iterations =  2.6

     total cpu time spent up to now is      666.1 secs

     total energy              =   -6261.09444621 Ry
     Harris-Foulkes estimate   =   -6261.17833005 Ry
     estimated scf accuracy    <       0.29275114 Ry

     iteration #  5     ecut=   120.00 Ry     beta= 0.70
     Davidson diagonalization with overlap
     ethr =  7.96E-05,  avg # of iterations =  4.6

     total cpu time spent up to now is      793.0 secs

     total energy              =   -6261.08207916 Ry
     Harris-Foulkes estimate   =   -6261.12364235 Ry
     estimated scf accuracy    <       0.09034186 Ry

     iteration #  6     ecut=   120.00 Ry     beta= 0.70
     Davidson diagonalization with overlap
     ethr =  2.45E-05,  avg # of iterations =  5.1

     total cpu time spent up to now is      930.2 secs

     total energy              =   -6261.10246968 Ry
     Harris-Foulkes estimate   =   -6261.10410011 Ry
     estimated scf accuracy    <       0.00502722 Ry

     iteration #  7     ecut=   120.00 Ry     beta= 0.70
     Davidson diagonalization with overlap
     ethr =  1.37E-06,  avg # of iterations =  3.5

     total cpu time spent up to now is     1058.9 secs

     total energy              =   -6261.10285036 Ry
     Harris-Foulkes estimate   =   -6261.10308811 Ry
     estimated scf accuracy    <       0.00066193 Ry

     iteration #  8     ecut=   120.00 Ry     beta= 0.70
     Davidson diagonalization with overlap
     ethr =  1.80E-07,  avg # of iterations =  3.0

     total cpu time spent up to now is     1188.4 secs

     total energy              =   -6261.10292983 Ry
     Harris-Foulkes estimate   =   -6261.10295985 Ry
     estimated scf accuracy    <       0.00006421 Ry

     iteration #  9     ecut=   120.00 Ry     beta= 0.70
     Davidson diagonalization with overlap
     ethr =  1.74E-08,  avg # of iterations =  3.0

     total cpu time spent up to now is     1335.5 secs

     total energy              =   -6261.10294572 Ry
     Harris-Foulkes estimate   =   -6261.10294816 Ry
     estimated scf accuracy    <       0.00000614 Ry

     iteration # 10     ecut=   120.00 Ry     beta= 0.70
     Davidson diagonalization with overlap
     ethr =  1.67E-09,  avg # of iterations =  2.0

     total cpu time spent up to now is     1471.9 secs

     total energy              =   -6261.10294611 Ry
     Harris-Foulkes estimate   =   -6261.10294686 Ry
     estimated scf accuracy    <       0.00000160 Ry

     iteration # 11     ecut=   120.00 Ry     beta= 0.70
     Davidson diagonalization with overlap
     ethr =  4.34E-10,  avg # of iterations =  2.8

     total cpu time spent up to now is     1620.3 secs

     total energy              =   -6261.10294646 Ry
     Harris-Foulkes estimate   =   -6261.10294649 Ry
     estimated scf accuracy    <       0.00000005 Ry

     iteration # 12     ecut=   120.00 Ry     beta= 0.70
     Davidson diagonalization with overlap
     ethr =  1.44E-11,  avg # of iterations =  2.0

     total cpu time spent up to now is     1768.4 secs

     End of self-consistent calculation

          k = 0.0000 0.0000 0.0000 ( 62239 PWs)   bands (ev):

   -66.1656 -66.1652 -66.1646 -66.1646 -66.1642 -66.1642 -66.1636 -66.1632
   -30.5587 -30.5571 -30.5534 -30.5520 -30.5376 -30.5322 -30.5322 -30.5272
   -30.4945 -30.4928 -30.4909 -30.4856 -30.4635 -30.4598 -30.4471 -30.4470
   -30.4460 -30.4396 -30.4325 -30.4297 -30.4238 -30.4233 -30.4166 -30.4104
   -20.3289 -20.3288 -20.3287 -20.3286 -20.3284 -20.3283 -20.3282 -20.3281
   -20.3084 -20.3080 -20.3079 -20.3077 -20.3076 -20.3074 -20.3072 -20.3069
   -20.3045 -20.3041 -20.3041 -20.3038 -20.3036 -20.3035 -20.3034 -20.3030
   -20.3007 -20.3005 -20.3004 -20.3002 -20.2964 -20.2961 -20.2958 -20.2958
   -20.2957 -20.2953 -20.2952 -20.2949 -20.2946 -20.2945 -20.2941 -20.2940
   -20.2888 -20.2887 -20.2882 -20.2882 -20.2878 -20.2876 -20.2867 -20.2865
   -20.2811 -20.2809 -20.2799 -20.2797 -20.2795 -20.2792 -20.2784 -20.2781
    -9.9710  -9.7418  -9.5353  -9.4705  -9.3600  -9.2587  -9.0976  -9.0785
    -8.8765  -8.7459  -8.7458  -8.7318  -7.8913  -7.8722  -7.8140  -7.7954
    -7.7390  -7.7307  -7.7266  -7.7185  -7.6657  -7.6518  -7.6444  -7.6178
     1.1234   1.1309   1.1911   1.2013   1.3197   1.3230   1.4669   1.5827
     1.8017   1.8147   1.8340   1.9262   2.2957   2.3766   2.6361   2.6514
     2.7913   2.7933   4.0869   4.2072   4.2451   4.4259   4.6687   4.6925
     4.7047   4.7293   4.8177   5.0141   5.1651   5.1969   5.2053   5.4679
     5.4919   5.5677   5.5679   5.5887   5.5992   5.6188   5.7326   5.7597
     5.8683   5.8797   5.8885   5.8914   5.9721   5.9928   5.9937   6.0574
     6.1294   6.2339   6.2949   6.4370   6.5363   6.7431   6.8677   6.8707
     6.9336   6.9467   6.9709   7.0050   7.0161   7.0449   7.1478   7.1836
     7.2582   7.2926   7.7481   7.7675   7.9950   8.0596   8.1034   8.1659
     9.4823   9.5032  10.0125  10.0186  10.0571  10.0660  12.1331  12.2570
    12.4123  12.4316  12.4326  12.4522  12.4729  12.5213  12.5837  12.8536
    13.2192  13.2623  13.3484  13.3505  13.5575  13.6857  14.0458  14.0521
    14.3187  14.3541  14.5735  14.8939  15.3123  15.4184  15.4523  16.0327
    16.0413  16.7651  16.9289  16.9946  17.5491

          k = 0.0000 0.0000 0.1667 ( 62262 PWs)   bands (ev):

   -66.1656 -66.1651 -66.1647 -66.1645 -66.1643 -66.1641 -66.1637 -66.1633
   -30.5523 -30.5511 -30.5470 -30.5460 -30.5372 -30.5325 -30.5317 -30.5276
   -30.4956 -30.4944 -30.4902 -30.4848 -30.4694 -30.4654 -30.4532 -30.4509
   -30.4466 -30.4407 -30.4321 -30.4294 -30.4245 -30.4244 -30.4162 -30.4110
   -20.3289 -20.3288 -20.3287 -20.3286 -20.3284 -20.3283 -20.3282 -20.3281
   -20.3084 -20.3080 -20.3079 -20.3078 -20.3075 -20.3074 -20.3072 -20.3069
   -20.3045 -20.3041 -20.3040 -20.3038 -20.3036 -20.3035 -20.3034 -20.3030
   -20.3008 -20.3005 -20.3004 -20.3003 -20.2964 -20.2961 -20.2959 -20.2958
   -20.2958 -20.2952 -20.2952 -20.2949 -20.2941 -20.2940 -20.2935 -20.2934
   -20.2888 -20.2887 -20.2885 -20.2882 -20.2880 -20.2880 -20.2871 -20.2869
   -20.2810 -20.2808 -20.2798 -20.2796 -20.2796 -20.2793 -20.2785 -20.2782
    -9.9169  -9.6813  -9.4882  -9.4575  -9.2730  -9.2698  -9.0599  -9.0433
    -8.8872  -8.7401  -8.7366  -8.7312  -7.9911  -7.9858  -7.8658  -7.8612
    -7.8264  -7.7872  -7.7457  -7.7142  -7.6742  -7.6603  -7.6501  -7.6211
     1.2533   1.2567   1.3209   1.3263   1.4501   1.4543   1.5473   1.7171
     1.8076   1.8176   1.8250   1.9859   2.3869   2.4683   2.6602   2.7262
     2.7849   2.8772   4.0883   4.1238   4.2801   4.3289   4.3610   4.4047
     4.7371   4.7378   4.7561   4.8001   4.8879   5.1667   5.2148   5.2979
     5.3010   5.4773   5.5160   5.5588   5.6023   5.6336   5.6573   5.6911
     5.7277   5.8526   5.9147   5.9202   5.9681   5.9787   6.1240   6.1360
     6.1495   6.3511   6.4399   6.5237   6.7445   6.7501   6.7528   6.8298
     6.8638   6.8759   6.9490   7.0054   7.0177   7.0201   7.0370   7.0416
     7.0900   7.1564   7.7572   7.7665   8.0148   8.0600   8.0636   8.1234
     9.7637   9.7961  10.0161  10.0533  10.2944  10.3412  12.1952  12.2047
    12.3242  12.3866  12.4604  12.4776  12.5251  12.5796  12.6395  12.8245
    13.0865  13.2260  13.2590  13.3476  13.6411  13.6863  13.9043  13.9395
    14.3337  14.4545  14.5680  15.0087  15.2820  15.4445  15.5207  16.0062
    16.3399  16.7502  16.9368  17.1292  17.6002

          k = 0.0000 0.0000 0.3333 ( 62268 PWs)   bands (ev):

   -66.1654 -66.1650 -66.1649 -66.1645 -66.1644 -66.1640 -66.1639 -66.1635
   -30.5364 -30.5356 -30.5347 -30.5335 -30.5312 -30.5302 -30.5286 -30.5281
   -30.5008 -30.4998 -30.4875 -30.4862 -30.4819 -30.4819 -30.4676 -30.4636
   -30.4457 -30.4426 -30.4309 -30.4285 -30.4268 -30.4258 -30.4153 -30.4124
   -20.3288 -20.3287 -20.3286 -20.3285 -20.3285 -20.3284 -20.3283 -20.3282
   -20.3083 -20.3079 -20.3079 -20.3078 -20.3076 -20.3074 -20.3074 -20.3071
   -20.3044 -20.3042 -20.3040 -20.3038 -20.3037 -20.3036 -20.3033 -20.3031
   -20.3007 -20.3005 -20.3005 -20.3004 -20.2964 -20.2960 -20.2960 -20.2959
   -20.2958 -20.2954 -20.2951 -20.2950 -20.2928 -20.2928 -20.2921 -20.2920
   -20.2896 -20.2896 -20.2888 -20.2887 -20.2886 -20.2881 -20.2879 -20.2878
   -20.2807 -20.2805 -20.2799 -20.2797 -20.2795 -20.2793 -20.2788 -20.2785
    -9.7844  -9.5438  -9.5379  -9.3177  -9.2538  -9.0134  -8.9402  -8.9277
    -8.9143  -8.7525  -8.7147  -8.6719  -8.2953  -8.2850  -8.2034  -8.1751
    -7.8198  -7.7647  -7.7634  -7.7025  -7.6977  -7.6653  -7.6544  -7.6303
     1.3256   1.3298   1.3361   1.3440   1.7334   1.7572   1.7927   1.8071
     2.1595   2.2160   2.3345   2.4337   2.6477   2.6772   2.7400   2.7684
     2.9689   3.1009   3.6683   3.7602   3.9051   3.9263   4.1858   4.2397
     4.3345   4.4746   4.5801   4.7436   4.7462   4.7611   4.8445   5.0804
     5.1362   5.1530   5.2198   5.3458   5.4318   5.4384   5.7240   5.7605
     5.8174   5.8330   5.9189   5.9551   6.0163   6.0702   6.1536   6.2307
     6.3034   6.4000   6.4541   6.4762   6.4975   6.5979   6.6877   6.7581
     6.7594   6.9434   6.9780   6.9850   7.0064   7.0291   7.0540   7.1034
     7.2517   7.3428   7.6984   7.7068   7.9175   7.9856   8.0475   8.0668
     9.9637  10.0070  10.4567  10.5617  10.8956  10.9863  11.8735  11.9588
    12.1581  12.3684  12.4537  12.5331  12.5867  12.6295  12.6705  12.7231
    12.8237  13.1186  13.1956  13.2605  13.5676  13.6608  13.6909  13.7280
    14.4167  14.5490  14.7254  15.1847  15.2838  15.5867  15.9242  15.9496
    16.2365  17.1700  17.4411  17.4807  17.7328

          k = 0.0000 0.0000-0.5000 ( 62264 PWs)   bands (ev):

   -66.1651 -66.1651 -66.1647 -66.1647 -66.1641 -66.1641 -66.1637 -66.1637
   -30.5349 -30.5349 -30.5302 -30.5302 -30.5150 -30.5150 -30.5116 -30.5116
   -30.5100 -30.5100 -30.5054 -30.5054 -30.4810 -30.4810 -30.4757 -30.4757
   -30.4443 -30.4443 -30.4290 -30.4290 -30.4272 -30.4272 -30.4139 -30.4139
   -20.3286 -20.3286 -20.3286 -20.3285 -20.3284 -20.3284 -20.3283 -20.3283
   -20.3081 -20.3081 -20.3077 -20.3077 -20.3076 -20.3076 -20.3073 -20.3073
   -20.3043 -20.3043 -20.3039 -20.3039 -20.3037 -20.3037 -20.3032 -20.3032
   -20.3007 -20.3007 -20.3005 -20.3005 -20.2962 -20.2962 -20.2960 -20.2960
   -20.2957 -20.2957 -20.2951 -20.2951 -20.2912 -20.2912 -20.2911 -20.2911
   -20.2903 -20.2903 -20.2903 -20.2903 -20.2884 -20.2884 -20.2880 -20.2880
   -20.2803 -20.2803 -20.2801 -20.2801 -20.2792 -20.2792 -20.2789 -20.2789
    -9.6438  -9.6438  -9.4021  -9.4021  -9.0378  -9.0378  -8.7978  -8.7978
    -8.6578  -8.6577  -8.6243  -8.6243  -8.5899  -8.5899  -8.4986  -8.4986
    -7.7920  -7.7920  -7.7303  -7.7303  -7.6846  -7.6846  -7.6426  -7.6426
     1.3325   1.3325   1.3480   1.3480   1.7772   1.7772   1.7876   1.7876
     2.7059   2.7059   2.9398   2.9398   3.0463   3.0463   3.0855   3.0855
     3.1655   3.1655   3.2611   3.2611   3.4346   3.4346   3.7492   3.7493
     3.8953   3.8954   4.4924   4.4924   4.6705   4.6705   4.9464   4.9464
     5.2461   5.2461   5.2567   5.2568   5.2760   5.2760   5.7775   5.7775
     5.8335   5.8335   6.0231   6.0231   6.0655   6.0655   6.1976   6.1976
     6.2495   6.2495   6.3475   6.3475   6.5393   6.5393   6.5910   6.5910
     6.7856   6.7856   6.9975   6.9975   7.0086   7.0086   7.4551   7.4552
     7.4853   7.4854   7.6507   7.6507   7.7289   7.7289   8.0634   8.0634
     9.9909   9.9909  11.2173  11.2173  11.3175  11.3175  11.6014  11.6014
    11.7595  11.7596  12.5678  12.5678  12.5712  12.5712  12.8692  12.8692
    12.8749  12.8749  13.1814  13.1814  13.3819  13.3819  13.7082  13.7082
    14.5057  14.5057  15.0017  15.0017  15.7037  15.7037  15.7807  15.7807
    16.7190  16.7190  17.9006  17.9006  18.1948

          k = 0.0000 0.1575 0.0000 ( 62231 PWs)   bands (ev):

   -66.1656 -66.1652 -66.1646 -66.1646 -66.1642 -66.1642 -66.1636 -66.1632
   -30.5586 -30.5572 -30.5532 -30.5520 -30.5371 -30.5325 -30.5317 -30.5275
   -30.4913 -30.4899 -30.4876 -30.4823 -30.4643 -30.4608 -30.4491 -30.4471
   -30.4456 -30.4407 -30.4361 -30.4293 -30.4262 -30.4234 -30.4184 -30.4121
   -20.3289 -20.3288 -20.3287 -20.3286 -20.3284 -20.3283 -20.3282 -20.3281
   -20.3084 -20.3080 -20.3080 -20.3077 -20.3076 -20.3074 -20.3072 -20.3069
   -20.3045 -20.3041 -20.3041 -20.3038 -20.3036 -20.3035 -20.3034 -20.3030
   -20.3004 -20.3002 -20.3001 -20.2999 -20.2967 -20.2961 -20.2960 -20.2960
   -20.2957 -20.2956 -20.2953 -20.2950 -20.2946 -20.2946 -20.2941 -20.2940
   -20.2887 -20.2887 -20.2883 -20.2882 -20.2878 -20.2876 -20.2867 -20.2865
   -20.2810 -20.2809 -20.2798 -20.2797 -20.2795 -20.2792 -20.2784 -20.2781
    -9.9492  -9.7522  -9.5144  -9.4451  -9.3662  -9.2660  -9.0962  -9.0797
    -8.8067  -8.6959  -8.6955  -8.6851  -7.9090  -7.8711  -7.8199  -7.7985
    -7.7971  -7.7836  -7.7769  -7.7293  -7.7175  -7.6970  -7.6762  -7.6678
     1.1237   1.1301   1.1916   1.2001   1.3224   1.3232   1.5189   1.5822
     1.9763   2.0243   2.0576   2.1560   2.3040   2.3708   2.7112   2.7219
     2.8595   2.8640   3.9521   4.0254   4.0827   4.1797   4.6705   4.6832
     4.6964   4.6982   4.7236   5.0720   5.1274   5.1663   5.1828   5.3199
     5.3670   5.5220   5.5445   5.6111   5.6281   5.6535   5.6560   5.7516
     5.7636   5.8421   5.8636   5.9313   5.9790   5.9928   6.0440   6.0623
     6.0671   6.2084   6.3246   6.4594   6.5833   6.7546   6.7656   6.8492
     6.9009   6.9193   6.9704   6.9714   6.9757   6.9992   7.1579   7.1804
     7.2736   7.2890   7.7501   7.7661   7.9762   8.0104   8.0636   8.0866
     9.4937   9.5048  10.2046  10.2085  10.2100  10.2291  12.0312  12.1943
    12.2972  12.3612  12.3944  12.4136  12.4485  12.4609  12.6108  12.8525
    13.2191  13.2769  13.3382  13.3633  13.7073  13.7186  13.9588  13.9652
    14.4216  14.6287  14.7368  15.0118  15.4160  15.4481  15.7085  15.9951
    16.0137  16.5188  17.0420  17.1146  17.4927

          k = 0.0000 0.1575 0.1667 ( 62237 PWs)   bands (ev):

   -66.1655 -66.1652 -66.1647 -66.1645 -66.1643 -66.1642 -66.1636 -66.1633
   -30.5522 -30.5510 -30.5469 -30.5460 -30.5367 -30.5321 -30.5320 -30.5279
   -30.4925 -30.4916 -30.4869 -30.4815 -30.4700 -30.4661 -30.4529 -30.4504
   -30.4487 -30.4421 -30.4357 -30.4290 -30.4275 -30.4241 -30.4180 -30.4128
   -20.3289 -20.3288 -20.3287 -20.3286 -20.3284 -20.3283 -20.3282 -20.3281
   -20.3083 -20.3080 -20.3079 -20.3077 -20.3076 -20.3074 -20.3073 -20.3070
   -20.3044 -20.3041 -20.3041 -20.3038 -20.3037 -20.3035 -20.3034 -20.3031
   -20.3005 -20.3002 -20.3001 -20.2999 -20.2967 -20.2962 -20.2960 -20.2960
   -20.2958 -20.2956 -20.2953 -20.2951 -20.2941 -20.2941 -20.2935 -20.2935
   -20.2888 -20.2887 -20.2885 -20.2882 -20.2880 -20.2880 -20.2871 -20.2869
   -20.2810 -20.2808 -20.2798 -20.2796 -20.2796 -20.2793 -20.2785 -20.2782
    -9.8943  -9.6918  -9.4627  -9.4342  -9.2805  -9.2760  -9.0588  -9.0444
    -8.8175  -8.6914  -8.6900  -8.6829  -7.9920  -7.9895  -7.8848  -7.8597
    -7.8392  -7.8008  -7.7892  -7.7770  -7.7515  -7.7154  -7.6837  -7.6763
     1.2534   1.2569   1.3244   1.3265   1.4547   1.4552   1.6261   1.7167
     1.9809   2.0282   2.0502   2.1750   2.3947   2.4624   2.7301   2.8029
     2.8514   2.9497   3.9637   4.0391   4.0756   4.1634   4.3320   4.3550
     4.6764   4.7286   4.7324   4.7957   4.8619   5.1310   5.1797   5.2300
     5.2756   5.3030   5.4682   5.4974   5.5515   5.5912   5.6540   5.6811
     5.7769   5.8031   5.8490   5.9582   5.9598   5.9646   6.0652   6.1174
     6.1874   6.2862   6.4475   6.5697   6.7206   6.7641   6.7842   6.8371
     6.8488   6.8779   6.9274   6.9725   6.9819   6.9831   7.0187   7.0524
     7.1295   7.1570   7.7581   7.7654   7.9842   8.0156   8.0227   8.0499
     9.7966   9.8025  10.2038  10.2287  10.4284  10.4685  12.1027  12.1590
    12.3258  12.3378  12.3475  12.3654  12.4928  12.5257  12.6686  12.8412
    13.0906  13.2238  13.2437  13.3517  13.7080  13.7621  13.8127  13.8576
    14.4713  14.7085  14.7734  15.1138  15.4397  15.5198  15.6822  15.9693
    16.3094  16.6853  16.8624  17.2244  17.5536

          k = 0.0000 0.1575 0.3333 ( 62284 PWs)   bands (ev):

   -66.1653 -66.1650 -66.1648 -66.1645 -66.1643 -66.1640 -66.1638 -66.1635
   -30.5359 -30.5355 -30.5346 -30.5331 -30.5313 -30.5299 -30.5289 -30.5282
   -30.4987 -30.4973 -30.4865 -30.4845 -30.4822 -30.4789 -30.4667 -30.4624
   -30.4478 -30.4444 -30.4345 -30.4301 -30.4281 -30.4254 -30.4171 -30.4142
   -20.3288 -20.3287 -20.3286 -20.3285 -20.3285 -20.3284 -20.3283 -20.3282
   -20.3082 -20.3079 -20.3079 -20.3078 -20.3075 -20.3075 -20.3074 -20.3071
   -20.3044 -20.3042 -20.3040 -20.3038 -20.3037 -20.3036 -20.3033 -20.3032
   -20.3004 -20.3002 -20.3002 -20.3000 -20.2966 -20.2963 -20.2961 -20.2960
   -20.2958 -20.2958 -20.2952 -20.2951 -20.2929 -20.2928 -20.2921 -20.2921
   -20.2896 -20.2896 -20.2888 -20.2887 -20.2886 -20.2882 -20.2879 -20.2878
   -20.2807 -20.2805 -20.2799 -20.2797 -20.2795 -20.2793 -20.2788 -20.2785
    -9.7597  -9.5483  -9.5179  -9.3259  -9.2205  -9.0197  -8.9373  -8.9156
    -8.8597  -8.7085  -8.6692  -8.6339  -8.2992  -8.2817  -8.2107  -8.1717
    -7.8496  -7.8133  -7.7656  -7.7592  -7.7481  -7.7250  -7.7042  -7.6998
     1.3309   1.3362   1.3373   1.3440   1.9099   1.9354   2.0091   2.0409
     2.1591   2.2425   2.3344   2.4677   2.6561   2.7169   2.7610   2.8364
     3.0453   3.1667   3.6714   3.7519   3.8559   3.9192   4.0775   4.1648
     4.2929   4.4477   4.4898   4.6067   4.6789   4.7018   4.7445   5.0313
     5.0750   5.0777   5.1849   5.2450   5.3954   5.4490   5.4910   5.7149
     5.7714   5.8563   5.8749   5.9074   5.9479   6.0757   6.0814   6.1164
     6.3557   6.4012   6.4934   6.5333   6.5792   6.6920   6.7235   6.7669
     6.8319   6.9079   6.9172   6.9487   6.9821   7.0015   7.0981   7.1119
     7.2591   7.3362   7.6995   7.7056   7.8884   7.9296   8.0034   8.0192
    10.1576  10.2007  10.4670  10.5731  10.9903  11.0640  11.8730  11.9563
    12.1371  12.3177  12.3748  12.4917  12.4970  12.6130  12.6835  12.6967
    12.7403  13.1150  13.1615  13.2509  13.4679  13.6035  13.7131  13.7743
    14.5955  14.7063  15.0717  15.3675  15.5712  15.5820  15.8897  15.9800
    16.3466  17.1275  17.1903  17.4910  17.7549

          k = 0.0000 0.1575-0.5000 ( 62234 PWs)   bands (ev):

   -66.1651 -66.1651 -66.1647 -66.1647 -66.1641 -66.1641 -66.1637 -66.1637
   -30.5344 -30.5344 -30.5304 -30.5304 -30.5141 -30.5141 -30.5104 -30.5104
   -30.5100 -30.5100 -30.5055 -30.5055 -30.4789 -30.4789 -30.4732 -30.4732
   -30.4463 -30.4463 -30.4326 -30.4326 -30.4268 -30.4268 -30.4157 -30.4157
   -20.3286 -20.3286 -20.3286 -20.3286 -20.3284 -20.3284 -20.3283 -20.3283
   -20.3081 -20.3081 -20.3077 -20.3077 -20.3076 -20.3076 -20.3073 -20.3073
   -20.3043 -20.3043 -20.3039 -20.3039 -20.3037 -20.3037 -20.3032 -20.3032
   -20.3004 -20.3004 -20.3002 -20.3002 -20.2965 -20.2965 -20.2960 -20.2960
   -20.2959 -20.2959 -20.2952 -20.2952 -20.2912 -20.2912 -20.2911 -20.2911
   -20.2903 -20.2903 -20.2903 -20.2903 -20.2884 -20.2884 -20.2880 -20.2880
   -20.2803 -20.2803 -20.2801 -20.2801 -20.2791 -20.2791 -20.2789 -20.2789
    -9.6179  -9.6179  -9.4114  -9.4114  -8.9824  -8.9824  -8.7695  -8.7695
    -8.6612  -8.6611  -8.6300  -8.6299  -8.5709  -8.5709  -8.4828  -8.4827
    -7.8314  -7.8314  -7.7385  -7.7385  -7.7324  -7.7324  -7.7307  -7.7307
     1.3401   1.3401   1.3479   1.3480   1.9571   1.9571   2.0347   2.0347
     2.7687   2.7687   2.9513   2.9513   3.0424   3.0425   3.1018   3.1018
     3.1637   3.1637   3.2897   3.2897   3.4266   3.4267   3.7694   3.7694
     3.9511   3.9511   4.3078   4.3078   4.5209   4.5209   4.7816   4.7816
     5.1850   5.1850   5.2287   5.2287   5.2746   5.2746   5.5830   5.5830
     5.7960   5.7960   5.9103   5.9103   6.0512   6.0512   6.1812   6.1812
     6.3075   6.3075   6.3878   6.3878   6.5408   6.5408   6.7376   6.7376
     6.8590   6.8590   6.9350   6.9350   6.9689   6.9689   7.4627   7.4628
     7.4822   7.4822   7.6362   7.6362   7.6982   7.6982   8.0157   8.0157
    10.1909  10.1909  11.2239  11.2239  11.3166  11.3166  11.6604  11.6604
    11.8087  11.8087  12.4256  12.4256  12.5716  12.5716  12.7916  12.7916
    12.8858  12.8858  13.0818  13.0818  13.3562  13.3562  13.7325  13.7325
    14.6740  14.6740  15.3696  15.3696  15.7526  15.7526  15.8151  15.8151
    16.7650  16.7650  17.7066  17.7067  18.1353

          k = 0.0000 0.3150 0.0000 ( 62175 PWs)   bands (ev):

   -66.1655 -66.1653 -66.1645 -66.1645 -66.1643 -66.1643 -66.1635 -66.1633
   -30.5582 -30.5573 -30.5529 -30.5521 -30.5359 -30.5333 -30.5306 -30.5282
   -30.4828 -30.4823 -30.4785 -30.4729 -30.4671 -30.4645 -30.4558 -30.4467
   -30.4465 -30.4440 -30.4431 -30.4332 -30.4280 -30.4222 -30.4221 -30.4160
   -20.3289 -20.3289 -20.3287 -20.3286 -20.3283 -20.3283 -20.3281 -20.3281
   -20.3083 -20.3080 -20.3079 -20.3077 -20.3076 -20.3073 -20.3073 -20.3070
   -20.3044 -20.3042 -20.3040 -20.3037 -20.3037 -20.3035 -20.3034 -20.3031
   -20.2996 -20.2994 -20.2992 -20.2990 -20.2973 -20.2970 -20.2968 -20.2965
   -20.2959 -20.2956 -20.2955 -20.2953 -20.2947 -20.2947 -20.2941 -20.2940
   -20.2886 -20.2886 -20.2884 -20.2883 -20.2877 -20.2877 -20.2866 -20.2865
   -20.2810 -20.2809 -20.2798 -20.2797 -20.2794 -20.2793 -20.2783 -20.2782
    -9.8953  -9.7833  -9.4668  -9.3870  -9.3854  -9.2888  -9.0924  -9.0830
    -8.6115  -8.5439  -8.5432  -8.5378  -8.0729  -8.0207  -8.0047  -7.9746
    -7.8681  -7.8563  -7.8077  -7.8014  -7.7252  -7.7123  -7.6853  -7.6733
     1.1245   1.1281   1.1930   1.1976   1.3238   1.3244   1.5626   1.5807
     2.3099   2.3550   2.4998   2.6136   2.6714   2.7842   2.9251   2.9632
     3.0492   3.0984   3.5970   3.6222   3.7423   3.7704   4.1764   4.5077
     4.5628   4.6774   4.6907   4.7157   4.7701   4.8421   5.2217   5.2329
     5.2551   5.2679   5.4620   5.4760   5.6400   5.6755   5.7038   5.7134
     5.8222   5.8287   5.9102   5.9539   5.9731   5.9780   5.9959   6.0821
     6.0892   6.1407   6.3096   6.4777   6.5257   6.6090   6.7727   6.7851
     6.8171   6.8935   7.1283   7.1370   7.1498   7.1629   7.1811   7.1951
     7.2907   7.3031   7.7363   7.7595   7.8442   7.8511   7.8597   7.8903
     9.5051   9.5077  10.6175  10.6859  10.6900  10.7137  11.6937  11.8506
    11.8803  11.9403  12.3962  12.4150  12.4548  12.4650  12.6807  12.8315
    13.2659  13.3413  13.3840  13.4098  13.5968  13.7098  13.7565  13.7572
    14.9090  15.1848  15.2232  15.4081  15.4317  15.5223  15.8716  15.9126
    16.0214  16.6685  17.1074  17.4437  17.5292

          k = 0.0000 0.3150 0.1667 ( 62260 PWs)   bands (ev):

   -66.1655 -66.1653 -66.1646 -66.1644 -66.1644 -66.1642 -66.1636 -66.1634
   -30.5518 -30.5511 -30.5466 -30.5460 -30.5355 -30.5329 -30.5310 -30.5286
   -30.4848 -30.4844 -30.4780 -30.4723 -30.4721 -30.4687 -30.4554 -30.4520
   -30.4483 -30.4467 -30.4449 -30.4351 -30.4277 -30.4227 -30.4219 -30.4167
   -20.3289 -20.3288 -20.3286 -20.3286 -20.3284 -20.3283 -20.3282 -20.3281
   -20.3083 -20.3080 -20.3079 -20.3077 -20.3076 -20.3074 -20.3073 -20.3071
   -20.3044 -20.3041 -20.3040 -20.3038 -20.3037 -20.3035 -20.3034 -20.3032
   -20.2996 -20.2994 -20.2992 -20.2991 -20.2974 -20.2970 -20.2968 -20.2966
   -20.2959 -20.2957 -20.2955 -20.2953 -20.2942 -20.2942 -20.2935 -20.2935
   -20.2887 -20.2886 -20.2885 -20.2883 -20.2880 -20.2880 -20.2870 -20.2869
   -20.2809 -20.2808 -20.2797 -20.2796 -20.2795 -20.2794 -20.2784 -20.2783
    -9.8383  -9.7234  -9.4041  -9.3818  -9.3039  -9.2956  -9.0557  -9.0475
    -8.6218  -8.5472  -8.5407  -8.5329  -8.0825  -8.0397  -8.0082  -7.9876
    -7.9849  -7.9495  -7.8552  -7.8324  -7.8050  -7.7946  -7.6937  -7.6818
     1.2539   1.2561   1.3269   1.3271   1.4558   1.4580   1.6916   1.7151
     2.3971   2.4465   2.5088   2.6043   2.6611   2.7786   2.9318   3.0418
     3.0524   3.1857   3.6231   3.6880   3.7420   3.7608   4.1494   4.3225
     4.3524   4.5228   4.5656   4.7249   4.7898   4.8519   4.8937   4.9965
     5.1561   5.2880   5.3093   5.3166   5.4590   5.4796   5.6463   5.6492
     5.7254   5.7280   5.8034   5.9276   5.9872   5.9938   6.0020   6.0792
     6.2536   6.3048   6.4175   6.5444   6.5858   6.7544   6.8061   6.8785
     6.9035   6.9290   6.9940   7.0120   7.0551   7.0588   7.1351   7.1832
     7.2129   7.2444   7.7426   7.7574   7.8362   7.8420   7.8546   7.8636
     9.8133   9.8170  10.6887  10.7209  10.7907  10.8619  11.7860  11.8461
    11.9414  11.9607  12.3148  12.3256  12.5000  12.5088  12.7451  12.8619
    13.1561  13.2484  13.2672  13.3511  13.5932  13.5964  13.6864  13.7257
    14.9931  15.1812  15.4071  15.4212  15.5115  15.6113  15.8479  16.1803
    16.2169  16.6367  17.1708  17.2417  17.5677

          k = 0.0000 0.3150 0.3333 ( 62269 PWs)   bands (ev):

   -66.1653 -66.1651 -66.1648 -66.1646 -66.1643 -66.1641 -66.1638 -66.1636
   -30.5353 -30.5351 -30.5339 -30.5320 -30.5317 -30.5296 -30.5292 -30.5284
   -30.4940 -30.4914 -30.4874 -30.4832 -30.4761 -30.4702 -30.4635 -30.4581
   -30.4543 -30.4498 -30.4442 -30.4389 -30.4268 -30.4241 -30.4210 -30.4181
   -20.3288 -20.3287 -20.3285 -20.3285 -20.3285 -20.3284 -20.3283 -20.3282
   -20.3081 -20.3079 -20.3078 -20.3078 -20.3075 -20.3075 -20.3075 -20.3072
   -20.3043 -20.3041 -20.3041 -20.3038 -20.3036 -20.3035 -20.3034 -20.3032
   -20.2996 -20.2994 -20.2994 -20.2992 -20.2973 -20.2971 -20.2970 -20.2967
   -20.2959 -20.2957 -20.2955 -20.2953 -20.2929 -20.2928 -20.2921 -20.2921
   -20.2896 -20.2896 -20.2887 -20.2887 -20.2885 -20.2882 -20.2879 -20.2878
   -20.2807 -20.2805 -20.2799 -20.2797 -20.2795 -20.2794 -20.2787 -20.2786
    -9.6995  -9.5800  -9.4576  -9.3513  -9.1468  -9.0403  -8.9311  -8.9192
    -8.6709  -8.5745  -8.5281  -8.5055  -8.3163  -8.2687  -8.2478  -8.1591
    -8.0399  -8.0171  -7.9855  -7.9527  -7.7825  -7.7713  -7.7172  -7.7054
     1.3353   1.3363   1.3425   1.3439   2.1305   2.1575   2.2553   2.3320
     2.5185   2.5893   2.6623   2.6667   2.7081   2.8089   2.9505   3.0264
     3.2791   3.3718   3.6459   3.6496   3.7342   3.7493   3.7769   3.8245
     4.1292   4.3555   4.3822   4.4328   4.4813   4.5670   4.6219   4.7088
     4.7894   4.9378   5.0493   5.0928   5.2273   5.3013   5.3336   5.3666
     5.4330   5.5595   5.7548   5.9026   6.0599   6.0948   6.1160   6.1167
     6.4280   6.4513   6.4925   6.5912   6.6232   6.7240   6.7326   6.7392
     6.9286   6.9667   7.0421   7.0655   7.1134   7.1514   7.1987   7.2312
     7.2584   7.3363   7.6936   7.6960   7.7557   7.7681   7.8385   7.8535
    10.4673  10.4873  10.6936  10.7694  11.2602  11.3256  11.7874  11.9416
    11.9455  11.9990  12.0783  12.1998  12.5718  12.6248  12.6453  12.6942
    12.7657  13.0263  13.0882  13.2292  13.2853  13.5309  13.5999  13.6882
    15.0878  15.1635  15.5161  15.7776  15.7984  15.8657  16.0817  16.5287
    16.7229  16.7275  16.9873  17.3891  17.6587

          k = 0.0000 0.3150-0.5000 ( 62306 PWs)   bands (ev):

   -66.1650 -66.1650 -66.1648 -66.1648 -66.1640 -66.1640 -66.1638 -66.1638
   -30.5333 -30.5333 -30.5311 -30.5311 -30.5124 -30.5124 -30.5103 -30.5102
   -30.5081 -30.5081 -30.5057 -30.5057 -30.4722 -30.4722 -30.4659 -30.4659
   -30.4525 -30.4525 -30.4420 -30.4420 -30.4255 -30.4255 -30.4196 -30.4196
   -20.3286 -20.3286 -20.3286 -20.3286 -20.3284 -20.3284 -20.3284 -20.3284
   -20.3080 -20.3080 -20.3077 -20.3077 -20.3076 -20.3076 -20.3074 -20.3074
   -20.3042 -20.3042 -20.3040 -20.3040 -20.3036 -20.3036 -20.3033 -20.3033
   -20.2995 -20.2995 -20.2993 -20.2993 -20.2972 -20.2972 -20.2969 -20.2969
   -20.2958 -20.2958 -20.2954 -20.2954 -20.2912 -20.2912 -20.2912 -20.2912
   -20.2903 -20.2903 -20.2903 -20.2903 -20.2883 -20.2883 -20.2881 -20.2881
   -20.2803 -20.2803 -20.2802 -20.2801 -20.2791 -20.2791 -20.2790 -20.2790
    -9.5559  -9.5559  -9.4403  -9.4403  -8.8470  -8.8470  -8.7116  -8.7116
    -8.6750  -8.6750  -8.6478  -8.6478  -8.4836  -8.4835  -8.4164  -8.4164
    -8.0317  -8.0317  -7.9741  -7.9741  -7.7497  -7.7497  -7.7381  -7.7381
     1.3460   1.3460   1.3479   1.3479   2.4996   2.4996   2.6309   2.6309
     2.9216   2.9216   2.9908   2.9908   3.0468   3.0468   3.1434   3.1434
     3.1641   3.1641   3.3719   3.3719   3.3983   3.3984   3.7071   3.7071
     4.0721   4.0721   4.0915   4.0915   4.1613   4.1613   4.3461   4.3461
     4.9029   4.9029   5.0595   5.0595   5.2150   5.2150   5.2589   5.2589
     5.4029   5.4029   5.8324   5.8324   6.1365   6.1365   6.1850   6.1850
     6.4092   6.4092   6.4462   6.4462   6.5445   6.5445   6.7012   6.7012
     7.0772   7.0772   7.1064   7.1064   7.1355   7.1355   7.4741   7.4741
     7.4762   7.4762   7.5624   7.5624   7.6028   7.6028   7.8451   7.8451
    10.6858  10.6858  11.2365  11.2365  11.3182  11.3182  11.7727  11.7727
    11.9671  11.9671  12.1010  12.1010  12.5078  12.5078  12.5537  12.5537
    12.8863  12.8863  12.8987  12.8987  13.3562  13.3562  13.6234  13.6234
    15.1337  15.1337  15.6603  15.6603  16.1746  16.1746  16.3177  16.3177
    16.9201  16.9201  17.3271  17.3271  17.8391

          k = 0.0000-0.4725 0.0000 ( 62212 PWs)   bands (ev):

   -66.1654 -66.1654 -66.1644 -66.1644 -66.1644 -66.1644 -66.1634 -66.1634
   -30.5577 -30.5577 -30.5524 -30.5524 -30.5345 -30.5345 -30.5293 -30.5293
   -30.4734 -30.4734 -30.4725 -30.4725 -30.4666 -30.4666 -30.4598 -30.4598
   -30.4456 -30.4456 -30.4401 -30.4401 -30.4257 -30.4257 -30.4196 -30.4196
   -20.3289 -20.3289 -20.3286 -20.3286 -20.3283 -20.3283 -20.3281 -20.3281
   -20.3082 -20.3082 -20.3078 -20.3078 -20.3075 -20.3074 -20.3071 -20.3071
   -20.3043 -20.3043 -20.3039 -20.3038 -20.3036 -20.3036 -20.3033 -20.3033
   -20.2985 -20.2984 -20.2982 -20.2982 -20.2980 -20.2980 -20.2978 -20.2978
   -20.2957 -20.2957 -20.2955 -20.2955 -20.2947 -20.2947 -20.2941 -20.2941
   -20.2885 -20.2885 -20.2884 -20.2884 -20.2877 -20.2877 -20.2866 -20.2866
   -20.2810 -20.2810 -20.2798 -20.2798 -20.2793 -20.2793 -20.2782 -20.2782
    -9.8336  -9.8336  -9.4194  -9.4194  -9.3294  -9.3294  -9.0876  -9.0876
    -8.3439  -8.3439  -8.3024  -8.3024  -8.2919  -8.2919  -8.2874  -8.2873
    -7.8642  -7.8642  -7.8059  -7.8059  -7.7193  -7.7193  -7.6803  -7.6803
     1.1261   1.1261   1.1951   1.1951   1.3244   1.3245   1.5763   1.5763
     2.3336   2.3336   3.0947   3.0947   3.2135   3.2135   3.2531   3.2531
     3.2818   3.2818   3.4370   3.4371   3.6575   3.6575   3.7059   3.7059
     3.8372   3.8372   4.6907   4.6907   4.7010   4.7010   5.3257   5.3257
     5.4139   5.4139   5.4280   5.4280   5.5012   5.5012   5.7777   5.7777
     5.8247   5.8247   5.8462   5.8462   5.9859   5.9859   6.0590   6.0590
     6.1221   6.1221   6.2808   6.2808   6.6321   6.6321   6.6690   6.6690
     6.8573   6.8573   7.1718   7.1719   7.2687   7.2687   7.4947   7.4947
     7.5009   7.5009   7.5585   7.5586   7.5812   7.5812   7.7720   7.7720
     9.5087   9.5087  11.1698  11.1698  11.2462  11.2462  11.2944  11.2944
    11.3970  11.3970  12.4092  12.4092  12.4636  12.4636  12.7686  12.7687
    13.4043  13.4043  13.4469  13.4469  13.5357  13.5357  13.6070  13.6070
    15.3464  15.3464  15.5394  15.5394  15.6200  15.6201  15.6784  15.6784
    16.3597  16.3597  17.8189  17.8189  18.1907

          k = 0.0000-0.4725 0.1667 ( 62246 PWs)   bands (ev):

   -66.1654 -66.1653 -66.1645 -66.1645 -66.1643 -66.1643 -66.1635 -66.1635
   -30.5514 -30.5514 -30.5462 -30.5462 -30.5341 -30.5341 -30.5297 -30.5297
   -30.4770 -30.4770 -30.4751 -30.4751 -30.4662 -30.4662 -30.4593 -30.4593
   -30.4497 -30.4497 -30.4433 -30.4433 -30.4254 -30.4254 -30.4203 -30.4203
   -20.3288 -20.3288 -20.3286 -20.3286 -20.3284 -20.3283 -20.3282 -20.3281
   -20.3081 -20.3081 -20.3078 -20.3078 -20.3075 -20.3075 -20.3072 -20.3072
   -20.3042 -20.3042 -20.3039 -20.3039 -20.3036 -20.3036 -20.3033 -20.3033
   -20.2985 -20.2985 -20.2982 -20.2982 -20.2980 -20.2980 -20.2978 -20.2978
   -20.2957 -20.2957 -20.2955 -20.2955 -20.2942 -20.2942 -20.2935 -20.2935
   -20.2886 -20.2886 -20.2885 -20.2885 -20.2880 -20.2880 -20.2870 -20.2870
   -20.2809 -20.2809 -20.2797 -20.2797 -20.2795 -20.2795 -20.2784 -20.2783
    -9.7748  -9.7748  -9.3455  -9.3455  -9.3309  -9.3309  -9.0516  -9.0516
    -8.3494  -8.3494  -8.3107  -8.3107  -8.2937  -8.2937  -8.2876  -8.2876
    -7.9768  -7.9768  -7.8480  -7.8480  -7.8011  -7.8011  -7.6889  -7.6889
     1.2548   1.2548   1.3274   1.3274   1.4572   1.4572   1.7097   1.7098
     2.4248   2.4248   3.1187   3.1187   3.2033   3.2033   3.2737   3.2737
     3.3309   3.3309   3.4218   3.4218   3.6733   3.6733   3.7193   3.7193
     3.8624   3.8624   4.3387   4.3387   4.7353   4.7353   5.0605   5.0605
     5.2349   5.2349   5.3306   5.3306   5.4825   5.4825   5.5147   5.5147
     5.7158   5.7158   5.7839   5.7839   5.9862   5.9862   6.0713   6.0713
     6.3152   6.3152   6.3996   6.3996   6.6431   6.6431   6.8523   6.8523
     6.9421   6.9421   7.0074   7.0074   7.0932   7.0932   7.4903   7.4903
     7.5097   7.5097   7.5446   7.5447   7.5713   7.5713   7.7767   7.7767
     9.8193   9.8193  11.2758  11.2758  11.3088  11.3088  11.3323  11.3323
    11.4375  11.4375  12.3201  12.3201  12.5069  12.5069  12.8319  12.8320
    13.2825  13.2825  13.3607  13.3607  13.4059  13.4059  13.6253  13.6253
    15.3441  15.3441  15.5999  15.5999  15.7380  15.7380  15.9349  15.9349
    16.4210  16.4210  17.7728  17.7736  17.8443

          k = 0.0000-0.4725 0.3333 ( 62268 PWs)   bands (ev):

   -66.1652 -66.1652 -66.1647 -66.1647 -66.1642 -66.1641 -66.1637 -66.1637
   -30.5351 -30.5351 -30.5326 -30.5326 -30.5307 -30.5307 -30.5287 -30.5287
   -30.4897 -30.4897 -30.4860 -30.4860 -30.4648 -30.4647 -30.4584 -30.4584
   -30.4565 -30.4565 -30.4496 -30.4496 -30.4245 -30.4245 -30.4217 -30.4217
   -20.3287 -20.3287 -20.3285 -20.3285 -20.3285 -20.3284 -20.3283 -20.3282
   -20.3080 -20.3080 -20.3077 -20.3077 -20.3076 -20.3076 -20.3073 -20.3073
   -20.3042 -20.3042 -20.3040 -20.3040 -20.3035 -20.3035 -20.3034 -20.3033
   -20.2985 -20.2985 -20.2982 -20.2982 -20.2982 -20.2982 -20.2980 -20.2980
   -20.2957 -20.2957 -20.2956 -20.2956 -20.2929 -20.2929 -20.2921 -20.2921
   -20.2896 -20.2896 -20.2887 -20.2887 -20.2884 -20.2884 -20.2879 -20.2879
   -20.2806 -20.2806 -20.2798 -20.2798 -20.2794 -20.2794 -20.2787 -20.2786
    -9.6327  -9.6327  -9.3959  -9.3959  -9.0808  -9.0808  -8.9247  -8.9246
    -8.4219  -8.4219  -8.3848  -8.3848  -8.2990  -8.2989  -8.2769  -8.2769
    -8.2127  -8.2127  -8.1189  -8.1189  -7.7784  -7.7784  -7.7125  -7.7125
     1.3364   1.3364   1.3437   1.3437   2.1533   2.1533   2.3198   2.3198
     2.6860   2.6860   3.1536   3.1536   3.2023   3.2023   3.2934   3.2934
     3.3705   3.3705   3.4649   3.4649   3.6364   3.6364   3.7549   3.7550
     3.7999   3.7999   3.9020   3.9020   4.4906   4.4906   4.6242   4.6242
     4.8013   4.8013   4.8781   4.8781   5.1503   5.1503   5.3392   5.3392
     5.5301   5.5301   5.7027   5.7027   6.0938   6.0938   6.1414   6.1415
     6.4525   6.4525   6.5333   6.5333   6.6332   6.6332   6.7458   6.7458
     6.9999   6.9999   7.1659   7.1659   7.1895   7.1895   7.4625   7.4626
     7.4979   7.4979   7.5311   7.5311   7.5571   7.5571   7.7225   7.7225
    10.4990  10.4990  11.2941  11.2941  11.3557  11.3557  11.6658  11.6658
    11.7527  11.7527  11.9533  11.9533  12.6418  12.6418  12.7285  12.7285
    12.8415  12.8415  13.0610  13.0610  13.4113  13.4113  13.5625  13.5625
    15.3854  15.3854  15.5558  15.5558  16.3293  16.3293  16.5911  16.5911
    16.6528  16.6528  17.3186  17.3186  17.6544

          k = 0.0000-0.4725-0.5000 ( 62284 PWs)   bands (ev):

   -66.1649 -66.1649 -66.1649 -66.1649 -66.1639 -66.1639 -66.1639 -66.1639
   -30.5321 -30.5321 -30.5321 -30.5321 -30.5110 -30.5110 -30.5110 -30.5109
   -30.5064 -30.5064 -30.5064 -30.5064 -30.4622 -30.4622 -30.4622 -30.4622
   -30.4544 -30.4544 -30.4544 -30.4544 -30.4232 -30.4232 -30.4232 -30.4232
   -20.3286 -20.3286 -20.3286 -20.3286 -20.3284 -20.3284 -20.3284 -20.3284
   -20.3078 -20.3078 -20.3078 -20.3078 -20.3075 -20.3075 -20.3075 -20.3075
   -20.3041 -20.3041 -20.3041 -20.3041 -20.3034 -20.3034 -20.3034 -20.3034
   -20.2984 -20.2984 -20.2983 -20.2983 -20.2981 -20.2981 -20.2981 -20.2981
   -20.2956 -20.2956 -20.2956 -20.2956 -20.2912 -20.2912 -20.2912 -20.2912
   -20.2903 -20.2903 -20.2903 -20.2903 -20.2882 -20.2882 -20.2882 -20.2882
   -20.2802 -20.2802 -20.2802 -20.2802 -20.2790 -20.2790 -20.2790 -20.2790
    -9.4899  -9.4899  -9.4899  -9.4899  -8.7255  -8.7255  -8.7255  -8.7255
    -8.6735  -8.6735  -8.6734  -8.6734  -8.2870  -8.2870  -8.2869  -8.2869
    -8.2419  -8.2419  -8.2419  -8.2419  -7.7452  -7.7452  -7.7452  -7.7452
     1.3476   1.3477   1.3477   1.3477   2.9422   2.9422   2.9423   2.9423
     3.0631   3.0631   3.0631   3.0631   3.2052   3.2052   3.2053   3.2053
     3.3254   3.3254   3.3254   3.3254   3.5083   3.5083   3.5083   3.5083
     3.6912   3.6912   3.6912   3.6912   4.3678   4.3678   4.3678   4.3678
     4.4871   4.4871   4.4871   4.4871   5.2195   5.2195   5.2196   5.2196
     5.5998   5.5998   5.5998   5.5998   6.1794   6.1794   6.1794   6.1794
     6.4506   6.4506   6.4506   6.4506   6.5909   6.5909   6.5909   6.5909
     7.2907   7.2907   7.2908   7.2908   7.3939   7.3939   7.3939   7.3939
     7.4688   7.4688   7.4688   7.4688   7.5908   7.5908   7.5908   7.5908
    11.1832  11.1832  11.1832  11.1832  11.4229  11.4229  11.4229  11.4229
    12.2142  12.2142  12.2142  12.2142  12.2649  12.2649  12.2649  12.2649
    12.8652  12.8652  12.8652  12.8652  13.4531  13.4531  13.4531  13.4531
    15.4765  15.4765  15.4765  15.4765  16.8595  16.8596  16.8596  16.8596
    17.2552  17.2553  17.2553  17.2553  17.3300

          k = 0.1667 0.0000 0.1667 ( 62234 PWs)   bands (ev):

   -66.1655 -66.1651 -66.1646 -66.1646 -66.1642 -66.1642 -66.1637 -66.1633
   -30.5520 -30.5507 -30.5474 -30.5464 -30.5314 -30.5272 -30.5253 -30.5216
   -30.4962 -30.4934 -30.4911 -30.4836 -30.4691 -30.4657 -30.4544 -30.4511
   -30.4503 -30.4456 -30.4349 -30.4316 -30.4297 -30.4240 -30.4190 -30.4134
   -20.3289 -20.3288 -20.3287 -20.3286 -20.3284 -20.3283 -20.3282 -20.3281
   -20.3084 -20.3080 -20.3079 -20.3078 -20.3076 -20.3075 -20.3072 -20.3070
   -20.3044 -20.3041 -20.3040 -20.3039 -20.3036 -20.3036 -20.3034 -20.3031
   -20.3008 -20.3006 -20.3004 -20.3003 -20.2964 -20.2960 -20.2959 -20.2953
   -20.2952 -20.2952 -20.2948 -20.2945 -20.2941 -20.2940 -20.2935 -20.2935
   -20.2892 -20.2892 -20.2887 -20.2887 -20.2881 -20.2879 -20.2872 -20.2870
   -20.2809 -20.2807 -20.2799 -20.2797 -20.2795 -20.2792 -20.2786 -20.2783
    -9.8682  -9.6299  -9.4750  -9.4167  -9.2836  -9.1859  -9.0215  -9.0017
    -8.8990  -8.7373  -8.7307  -8.7179  -7.9962  -7.9848  -7.9284  -7.9122
    -7.8768  -7.8715  -7.8309  -7.7945  -7.7177  -7.6705  -7.6650  -7.6255
     1.3795   1.3884   1.4517   1.4585   1.5428   1.5673   1.6034   1.8018
     1.8109   1.8343   1.8620   2.0586   2.4749   2.5610   2.7320   2.7498
     2.8590   2.8879   4.0496   4.0958   4.2719   4.2851   4.3955   4.4153
     4.4174   4.4809   4.6654   4.7451   4.7984   4.9341   5.1344   5.2512
     5.2560   5.3100   5.3585   5.5199   5.5766   5.5812   5.6353   5.6729
     5.6803   5.7971   5.8082   5.8756   5.9654   6.0843   6.1226   6.1628
     6.3629   6.4251   6.5233   6.6301   6.6499   6.7502   6.7874   6.7958
     6.7998   6.8352   6.8597   6.8753   6.9060   6.9479   6.9488   7.0512
     7.1452   7.2066   7.7565   7.7594   7.9875   8.0357   8.0836   8.1243
     9.9798  10.0291  10.2471  10.2835  10.3084  10.4067  12.1505  12.2697
    12.3502  12.3651  12.4018  12.4379  12.5507  12.6056  12.6525  12.8747
    13.0127  13.1415  13.2545  13.3227  13.6221  13.6601  13.8999  13.9358
    14.2811  14.4466  14.5698  15.1541  15.2484  15.5303  15.5487  16.2961
    16.3089  16.8879  16.9082  17.0787  17.6416

          k = 0.1667 0.0000 0.3333 ( 62265 PWs)   bands (ev):

   -66.1653 -66.1649 -66.1648 -66.1644 -66.1644 -66.1640 -66.1639 -66.1635
   -30.5348 -30.5346 -30.5307 -30.5303 -30.5301 -30.5278 -30.5240 -30.5225
   -30.5007 -30.4994 -30.4884 -30.4859 -30.4823 -30.4808 -30.4684 -30.4633
   -30.4498 -30.4471 -30.4342 -30.4314 -30.4304 -30.4263 -30.4180 -30.4149
   -20.3288 -20.3287 -20.3286 -20.3285 -20.3285 -20.3284 -20.3283 -20.3282
   -20.3083 -20.3079 -20.3079 -20.3077 -20.3076 -20.3075 -20.3074 -20.3071
   -20.3044 -20.3042 -20.3039 -20.3038 -20.3037 -20.3037 -20.3034 -20.3032
   -20.3008 -20.3006 -20.3005 -20.3004 -20.2964 -20.2961 -20.2959 -20.2955
   -20.2953 -20.2953 -20.2947 -20.2946 -20.2928 -20.2927 -20.2921 -20.2921
   -20.2897 -20.2896 -20.2891 -20.2889 -20.2888 -20.2886 -20.2881 -20.2881
   -20.2806 -20.2804 -20.2799 -20.2796 -20.2796 -20.2794 -20.2789 -20.2786
    -9.7276  -9.4742  -9.4715  -9.2722  -9.2317  -9.0277  -8.9429  -8.9079
    -8.8857  -8.7328  -8.7080  -8.6774  -8.2869  -8.2762  -8.2175  -8.1848
    -7.9219  -7.8882  -7.8597  -7.8229  -7.7092  -7.6813  -7.6589  -7.6347
     1.5351   1.5420   1.5845   1.5913   1.7451   1.7617   1.7865   1.8406
     2.1651   2.2213   2.3256   2.4306   2.7470   2.7622   2.8490   2.8545
     2.9798   3.0993   3.7095   3.8249   3.8877   3.9455   4.1997   4.2396
     4.2732   4.4460   4.5182   4.5923   4.5985   4.7153   4.7247   4.8180
     4.9733   5.0308   5.0894   5.1640   5.2513   5.3422   5.6219   5.6603
     5.6955   5.8052   5.8649   5.9237   5.9525   5.9587   6.0525   6.1196
     6.3839   6.4718   6.5076   6.5745   6.6533   6.6856   6.7183   6.7904
     6.8390   6.8699   6.8804   6.9157   6.9985   7.0445   7.1369   7.1652
     7.2792   7.3509   7.7034   7.7125   7.9321   7.9868   8.0278   8.0383
    10.2132  10.2229  10.6107  10.7031  10.9048  11.0104  11.9394  12.0115
    12.1904  12.3154  12.4668  12.4779  12.5388  12.6004  12.7022  12.7651
    12.7957  13.0369  13.1227  13.2440  13.5520  13.5694  13.6712  13.7160
    14.3863  14.5447  14.7106  15.1548  15.4464  15.7706  15.9900  16.2186
    16.3950  17.1354  17.4083  17.4937  17.5714

          k = 0.1667 0.0000-0.5000 ( 62322 PWs)   bands (ev):

   -66.1651 -66.1651 -66.1647 -66.1646 -66.1642 -66.1642 -66.1638 -66.1638
   -30.5293 -30.5293 -30.5242 -30.5242 -30.5144 -30.5144 -30.5118 -30.5118
   -30.5096 -30.5096 -30.5057 -30.5057 -30.4820 -30.4820 -30.4748 -30.4748
   -30.4486 -30.4486 -30.4329 -30.4329 -30.4286 -30.4286 -30.4166 -30.4166
   -20.3286 -20.3286 -20.3285 -20.3285 -20.3285 -20.3285 -20.3284 -20.3283
   -20.3081 -20.3081 -20.3078 -20.3078 -20.3076 -20.3076 -20.3073 -20.3073
   -20.3043 -20.3043 -20.3038 -20.3038 -20.3037 -20.3037 -20.3033 -20.3033
   -20.3007 -20.3007 -20.3005 -20.3005 -20.2963 -20.2963 -20.2957 -20.2957
   -20.2953 -20.2953 -20.2946 -20.2946 -20.2911 -20.2911 -20.2911 -20.2911
   -20.2904 -20.2904 -20.2903 -20.2903 -20.2888 -20.2888 -20.2884 -20.2884
   -20.2803 -20.2803 -20.2800 -20.2800 -20.2793 -20.2793 -20.2790 -20.2790
    -9.5783  -9.5782  -9.3214  -9.3214  -9.0553  -9.0553  -8.7736  -8.7736
    -8.6593  -8.6592  -8.6326  -8.6326  -8.5758  -8.5757  -8.5020  -8.5020
    -7.8922  -7.8922  -7.8547  -7.8547  -7.6956  -7.6956  -7.6471  -7.6471
     1.5419   1.5420   1.6011   1.6011   1.7713   1.7713   1.8248   1.8248
     2.7773   2.7773   2.9642   2.9642   3.0385   3.0385   3.1187   3.1188
     3.1693   3.1693   3.3347   3.3347   3.4871   3.4871   3.7678   3.7678
     3.8851   3.8851   4.4433   4.4433   4.5599   4.5599   4.8458   4.8458
     4.9429   4.9429   5.0210   5.0210   5.1860   5.1860   5.6961   5.6961
     5.7334   5.7334   5.7834   5.7834   5.9308   5.9308   6.0936   6.0936
     6.3658   6.3658   6.5655   6.5655   6.6061   6.6061   6.8186   6.8186
     6.8312   6.8312   6.8975   6.8975   6.9642   6.9642   7.4884   7.4884
     7.5108   7.5108   7.6688   7.6689   7.7304   7.7304   8.0361   8.0361
    10.2337  10.2338  11.3021  11.3021  11.4001  11.4001  11.6177  11.6177
    11.7748  11.7748  12.4803  12.4803  12.6297  12.6297  12.7772  12.7772
    12.9124  12.9124  13.1654  13.1654  13.2786  13.2786  13.6737  13.6737
    14.4908  14.4908  14.9781  14.9781  15.8642  15.8643  16.0317  16.0317
    16.7942  16.7942  17.8646  17.8646  18.0070

          k = 0.1667 0.1575 0.1667 ( 62255 PWs)   bands (ev):

   -66.1655 -66.1651 -66.1646 -66.1646 -66.1642 -66.1642 -66.1637 -66.1634
   -30.5518 -30.5507 -30.5472 -30.5463 -30.5309 -30.5268 -30.5255 -30.5218
   -30.4931 -30.4908 -30.4878 -30.4804 -30.4697 -30.4664 -30.4543 -30.4524
   -30.4501 -30.4466 -30.4353 -30.4344 -30.4293 -30.4270 -30.4211 -30.4154
   -20.3289 -20.3288 -20.3287 -20.3286 -20.3284 -20.3283 -20.3282 -20.3281
   -20.3083 -20.3080 -20.3079 -20.3077 -20.3076 -20.3074 -20.3073 -20.3070
   -20.3044 -20.3041 -20.3040 -20.3038 -20.3037 -20.3036 -20.3034 -20.3031
   -20.3005 -20.3003 -20.3001 -20.3000 -20.2967 -20.2962 -20.2962 -20.2957
   -20.2953 -20.2952 -20.2948 -20.2946 -20.2941 -20.2940 -20.2936 -20.2935
   -20.2892 -20.2891 -20.2888 -20.2887 -20.2881 -20.2879 -20.2872 -20.2870
   -20.2809 -20.2807 -20.2799 -20.2797 -20.2795 -20.2793 -20.2786 -20.2783
    -9.8449  -9.6403  -9.4515  -9.3884  -9.2900  -9.1934  -9.0199  -9.0029
    -8.8294  -8.6896  -8.6826  -8.6744  -8.0027  -7.9835  -7.9319  -7.9175
    -7.8821  -7.8773  -7.8385  -7.8072  -7.7917  -7.7529  -7.7483  -7.7151
     1.3799   1.3875   1.4579   1.4593   1.5607   1.5739   1.7082   1.8409
     1.9860   2.0239   2.0576   2.2030   2.4823   2.5558   2.8090   2.8213
     2.9330   2.9535   3.9409   4.0007   4.1115   4.1801   4.3446   4.3885
     4.4081   4.4202   4.6133   4.7729   4.7945   4.9202   5.0358   5.1750
     5.2311   5.2710   5.3276   5.3389   5.4307   5.5413   5.5501   5.6193
     5.6814   5.7801   5.8643   5.8965   5.9236   5.9897   6.0925   6.1611
     6.3488   6.3770   6.5167   6.5960   6.6850   6.7015   6.7676   6.7924
     6.8290   6.8351   6.8775   6.8987   6.9454   6.9822   7.0122   7.0635
     7.1600   7.2074   7.7557   7.7597   7.9575   7.9922   8.0339   8.0510
    10.0100  10.0503  10.3879  10.4200  10.4523  10.5336  12.0740  12.2295
    12.3299  12.3315  12.3696  12.3923  12.4534  12.4750  12.6857  12.8785
    13.0142  13.1294  13.2550  13.3143  13.6398  13.6805  13.8096  13.8582
    14.4887  14.7418  14.7906  15.2507  15.5305  15.5439  15.6494  16.2582
    16.2822  16.7909  16.9846  17.0223  17.6043

          k = 0.1667 0.1575 0.3333 ( 62260 PWs)   bands (ev):

   -66.1653 -66.1649 -66.1648 -66.1644 -66.1644 -66.1640 -66.1639 -66.1636
   -30.5345 -30.5344 -30.5306 -30.5302 -30.5296 -30.5272 -30.5243 -30.5228
   -30.4983 -30.4974 -30.4862 -30.4854 -30.4825 -30.4779 -30.4677 -30.4620
   -30.4515 -30.4485 -30.4342 -30.4336 -30.4310 -30.4296 -30.4202 -30.4170
   -20.3288 -20.3287 -20.3286 -20.3285 -20.3285 -20.3284 -20.3283 -20.3282
   -20.3082 -20.3079 -20.3079 -20.3078 -20.3076 -20.3075 -20.3074 -20.3071
   -20.3043 -20.3042 -20.3040 -20.3038 -20.3037 -20.3036 -20.3034 -20.3032
   -20.3005 -20.3003 -20.3002 -20.3001 -20.2966 -20.2963 -20.2962 -20.2958
   -20.2953 -20.2952 -20.2948 -20.2947 -20.2928 -20.2928 -20.2922 -20.2921
   -20.2897 -20.2896 -20.2890 -20.2889 -20.2888 -20.2886 -20.2881 -20.2881
   -20.2806 -20.2804 -20.2798 -20.2796 -20.2796 -20.2794 -20.2789 -20.2786
    -9.7016  -9.4826  -9.4451  -9.2404  -9.2384  -9.0342  -8.9060  -8.8932
    -8.8689  -8.6913  -8.6627  -8.6395  -8.2909  -8.2730  -8.2251  -8.1811
    -7.9254  -7.8953  -7.8659  -7.8311  -7.7894  -7.7612  -7.7492  -7.7248
     1.5588   1.5703   1.5837   1.5911   1.9148   1.9331   2.0019   2.0462
     2.1651   2.2472   2.3260   2.4616   2.7560   2.8134   2.8628   2.9239
     3.0546   3.1637   3.7091   3.8109   3.8468   3.9455   4.0949   4.1765
     4.2856   4.4166   4.4384   4.5184   4.5788   4.6402   4.6920   4.8031
     4.8922   4.9139   4.9988   5.1391   5.1715   5.2062   5.4347   5.5928
     5.6455   5.7164   5.8057   5.8739   5.9221   5.9255   5.9904   6.0214
     6.3423   6.4900   6.5724   6.6630   6.6974   6.7335   6.7557   6.7635
     6.8386   6.8786   6.9293   7.0002   7.0050   7.0724   7.1356   7.1824
     7.2774   7.3456   7.7048   7.7105   7.8912   7.9299   7.9867   7.9954
    10.3651  10.3803  10.6344  10.7176  10.9998  11.0837  11.9389  12.0068
    12.1753  12.2839  12.4448  12.4646  12.4940  12.5138  12.6662  12.6967
    12.7417  13.0012  13.1033  13.2427  13.4554  13.4955  13.6782  13.6977
    14.6259  14.7611  15.0583  15.4800  15.5905  15.7613  16.0078  16.1905
    16.4878  17.1018  17.2361  17.4674  17.5699

          k = 0.1667 0.1575-0.5000 ( 62292 PWs)   bands (ev):

   -66.1650 -66.1650 -66.1647 -66.1647 -66.1641 -66.1641 -66.1638 -66.1638
   -30.5287 -30.5287 -30.5244 -30.5244 -30.5137 -30.5137 -30.5107 -30.5107
   -30.5096 -30.5096 -30.5057 -30.5057 -30.4799 -30.4799 -30.4724 -30.4724
   -30.4502 -30.4502 -30.4327 -30.4327 -30.4319 -30.4319 -30.4187 -30.4187
   -20.3286 -20.3286 -20.3285 -20.3285 -20.3284 -20.3284 -20.3284 -20.3284
   -20.3081 -20.3080 -20.3077 -20.3077 -20.3076 -20.3076 -20.3073 -20.3073
   -20.3043 -20.3043 -20.3039 -20.3038 -20.3037 -20.3037 -20.3033 -20.3033
   -20.3004 -20.3004 -20.3002 -20.3002 -20.2965 -20.2965 -20.2960 -20.2960
   -20.2953 -20.2953 -20.2947 -20.2947 -20.2912 -20.2912 -20.2911 -20.2911
   -20.2904 -20.2904 -20.2903 -20.2903 -20.2888 -20.2888 -20.2885 -20.2885
   -20.2802 -20.2802 -20.2800 -20.2800 -20.2792 -20.2792 -20.2790 -20.2790
    -9.5501  -9.5501  -9.3310  -9.3310  -9.0006  -9.0006  -8.7482  -8.7482
    -8.6622  -8.6622  -8.6338  -8.6337  -8.5603  -8.5602  -8.4864  -8.4864
    -7.8986  -7.8986  -7.8601  -7.8601  -7.7765  -7.7765  -7.7375  -7.7375
     1.5735   1.5735   1.6000   1.6000   1.9613   1.9613   2.0360   2.0360
     2.8352   2.8352   2.9784   2.9784   3.0467   3.0467   3.1263   3.1263
     3.1723   3.1723   3.3595   3.3595   3.4797   3.4797   3.7890   3.7891
     3.9409   3.9410   4.3037   4.3037   4.4720   4.4720   4.7310   4.7310
     4.8759   4.8759   4.9705   4.9705   5.0801   5.0801   5.5342   5.5342
     5.6951   5.6951   5.7317   5.7317   5.8602   5.8602   5.9523   5.9523
     6.4688   6.4688   6.6127   6.6127   6.6952   6.6952   6.8009   6.8009
     6.8392   6.8392   6.9204   6.9204   7.0342   7.0342   7.4909   7.4909
     7.5081   7.5081   7.6458   7.6458   7.6985   7.6985   7.9927   7.9927
    10.4002  10.4002  11.3087  11.3087  11.4004  11.4004  11.6775  11.6775
    11.8232  11.8232  12.4672  12.4672  12.5104  12.5104  12.7403  12.7403
    12.8863  12.8863  13.0636  13.0636  13.2357  13.2357  13.6650  13.6650
    14.7195  14.7195  15.3480  15.3480  15.9451  15.9451  16.0197  16.0197
    16.8323  16.8323  17.7114  17.7115  17.9777

          k = 0.1667 0.3150 0.1667 ( 62249 PWs)   bands (ev):

   -66.1654 -66.1652 -66.1645 -66.1645 -66.1643 -66.1643 -66.1636 -66.1634
   -30.5514 -30.5507 -30.5469 -30.5463 -30.5296 -30.5269 -30.5249 -30.5225
   -30.4851 -30.4841 -30.4792 -30.4718 -30.4714 -30.4691 -30.4581 -30.4536
   -30.4495 -30.4480 -30.4450 -30.4347 -30.4331 -30.4277 -30.4259 -30.4201
   -20.3289 -20.3288 -20.3287 -20.3286 -20.3284 -20.3283 -20.3282 -20.3281
   -20.3082 -20.3080 -20.3079 -20.3077 -20.3076 -20.3074 -20.3074 -20.3071
   -20.3043 -20.3041 -20.3040 -20.3037 -20.3037 -20.3035 -20.3035 -20.3032
   -20.2996 -20.2994 -20.2993 -20.2991 -20.2974 -20.2970 -20.2969 -20.2966
   -20.2953 -20.2951 -20.2950 -20.2948 -20.2941 -20.2941 -20.2936 -20.2935
   -20.2891 -20.2890 -20.2888 -20.2888 -20.2880 -20.2880 -20.2872 -20.2871
   -20.2809 -20.2808 -20.2798 -20.2797 -20.2795 -20.2793 -20.2785 -20.2784
    -9.7877  -9.6717  -9.3984  -9.3239  -9.3100  -9.2173  -9.0159  -9.0062
    -8.6336  -8.5422  -8.5368  -8.5347  -8.0914  -8.0373  -8.0264  -8.0013
    -7.9785  -7.9451  -7.9132  -7.9023  -7.8656  -7.8406  -7.8060  -7.7944
     1.3808   1.3856   1.4596   1.4623   1.5723   1.5750   1.8074   1.8396
     2.4766   2.5183   2.5405   2.5995   2.6419   2.7578   3.0321   3.0602
     3.1406   3.1809   3.6174   3.6714   3.7908   3.8146   4.1401   4.3354
     4.3500   4.3833   4.4199   4.5465   4.6260   4.8371   4.8746   4.9608
     5.0156   5.0708   5.1784   5.1880   5.3511   5.3895   5.4638   5.4671
     5.6743   5.6921   5.7156   5.7514   5.8363   5.8480   6.1072   6.1355
     6.3857   6.4116   6.4823   6.6032   6.6995   6.7271   6.8026   6.8374
     6.8824   6.8966   6.9846   7.0037   7.0875   7.0944   7.1467   7.1726
     7.2555   7.2644   7.7372   7.7567   7.8174   7.8357   7.8447   7.8666
    10.0450  10.0626  10.7852  10.8084  10.8723  10.9188  11.7785  11.9178
    11.9796  12.0102  12.3626  12.3830  12.3886  12.4129  12.7712  12.8825
    13.0808  13.1791  13.2567  13.2991  13.4715  13.5856  13.6008  13.6846
    15.1380  15.3170  15.4008  15.5277  15.5489  15.6768  16.1323  16.1688
    16.3033  16.6057  17.1952  17.3199  17.3539

          k = 0.1667 0.3150 0.3333 ( 62265 PWs)   bands (ev):

   -66.1652 -66.1650 -66.1647 -66.1645 -66.1643 -66.1641 -66.1638 -66.1636
   -30.5342 -30.5339 -30.5302 -30.5301 -30.5283 -30.5260 -30.5252 -30.5235
   -30.4935 -30.4917 -30.4871 -30.4835 -30.4773 -30.4694 -30.4649 -30.4577
   -30.4569 -30.4530 -30.4437 -30.4384 -30.4322 -30.4294 -30.4250 -30.4218
   -20.3287 -20.3287 -20.3286 -20.3285 -20.3285 -20.3284 -20.3283 -20.3282
   -20.3081 -20.3079 -20.3078 -20.3078 -20.3076 -20.3075 -20.3075 -20.3072
   -20.3043 -20.3041 -20.3040 -20.3038 -20.3037 -20.3035 -20.3035 -20.3033
   -20.2996 -20.2994 -20.2994 -20.2992 -20.2974 -20.2971 -20.2970 -20.2968
   -20.2953 -20.2952 -20.2949 -20.2948 -20.2928 -20.2928 -20.2922 -20.2921
   -20.2897 -20.2896 -20.2890 -20.2889 -20.2888 -20.2887 -20.2881 -20.2881
   -20.2806 -20.2805 -20.2798 -20.2797 -20.2796 -20.2795 -20.2788 -20.2787
    -9.6385  -9.5148  -9.3791  -9.2661  -9.1646  -9.0556  -8.9016  -8.8922
    -8.6853  -8.5627  -8.5232  -8.5122  -8.3096  -8.2627  -8.2604  -8.1678
    -8.0401  -8.0218  -7.9962  -7.9629  -7.8941  -7.8793  -7.8313  -7.8186
     1.5734   1.5795   1.5871   1.5920   2.1355   2.1629   2.2488   2.3244
     2.5222   2.5940   2.6372   2.7199   2.7846   2.8517   3.0505   3.1274
     3.2846   3.3670   3.6342   3.6748   3.7585   3.8036   3.8183   3.9063
     4.1190   4.3288   4.3787   4.4083   4.4697   4.4871   4.6180   4.6491
     4.6791   4.8324   4.8792   4.9359   5.0032   5.0819   5.1463   5.2005
     5.3411   5.4006   5.5110   5.7021   5.7247   5.8449   5.9897   6.0106
     6.4672   6.5453   6.6163   6.7272   6.7888   6.8118   6.8879   6.9034
     6.9671   7.0261   7.0537   7.0789   7.1323   7.1752   7.2344   7.2472
     7.2869   7.3436   7.6969   7.7052   7.7490   7.7603   7.8325   7.8428
    10.5963  10.6200  10.8653  10.9153  11.2723  11.3376  11.8657  11.9459
    12.0188  12.0847  12.1039  12.1987  12.5092  12.5829  12.5958  12.6623
    12.7872  12.9754  13.0101  13.2167  13.2451  13.3486  13.5469  13.5710
    15.2506  15.3204  15.7222  15.8463  15.8666  16.0316  16.1545  16.4966
    16.7795  16.7995  16.9836  17.4151  17.6279

          k = 0.1667 0.3150-0.5000 ( 62264 PWs)   bands (ev):

   -66.1650 -66.1650 -66.1648 -66.1647 -66.1641 -66.1641 -66.1639 -66.1639
   -30.5274 -30.5274 -30.5251 -30.5251 -30.5120 -30.5120 -30.5099 -30.5099
   -30.5083 -30.5083 -30.5059 -30.5059 -30.4735 -30.4735 -30.4651 -30.4651
   -30.4554 -30.4554 -30.4415 -30.4415 -30.4310 -30.4310 -30.4236 -30.4236
   -20.3286 -20.3286 -20.3286 -20.3286 -20.3284 -20.3284 -20.3284 -20.3284
   -20.3080 -20.3080 -20.3077 -20.3077 -20.3077 -20.3076 -20.3074 -20.3074
   -20.3042 -20.3042 -20.3039 -20.3039 -20.3036 -20.3036 -20.3034 -20.3034
   -20.2995 -20.2995 -20.2993 -20.2993 -20.2973 -20.2972 -20.2969 -20.2969
   -20.2952 -20.2952 -20.2949 -20.2949 -20.2912 -20.2912 -20.2911 -20.2911
   -20.2904 -20.2904 -20.2903 -20.2903 -20.2887 -20.2887 -20.2885 -20.2885
   -20.2802 -20.2802 -20.2801 -20.2801 -20.2792 -20.2792 -20.2791 -20.2791
    -9.4833  -9.4832  -9.3609  -9.3608  -8.8672  -8.8672  -8.7092  -8.7091
    -8.6672  -8.6672  -8.6399  -8.6398  -8.4777  -8.4777  -8.4209  -8.4209
    -8.0327  -8.0327  -7.9866  -7.9866  -7.8637  -7.8637  -7.8482  -7.8482
     1.5922   1.5922   1.5991   1.5991   2.5034   2.5034   2.6082   2.6082
     2.9511   2.9511   3.0183   3.0183   3.0880   3.0880   3.1483   3.1483
     3.2105   3.2105   3.4281   3.4281   3.4524   3.4524   3.7469   3.7469
     4.0642   4.0642   4.0968   4.0968   4.1492   4.1492   4.3641   4.3641
     4.7868   4.7868   4.8714   4.8714   5.0326   5.0326   5.1069   5.1069
     5.1352   5.1352   5.5855   5.5855   5.7942   5.7942   5.8696   5.8696
     6.6025   6.6025   6.7132   6.7132   6.7584   6.7584   6.8360   6.8360
     7.0619   7.0619   7.1079   7.1079   7.2027   7.2027   7.4968   7.4968
     7.5006   7.5006   7.5619   7.5619   7.6026   7.6026   7.8343   7.8343
    10.8293  10.8293  11.3210  11.3210  11.4067  11.4067  11.8183  11.8183
    11.9814  11.9814  12.1362  12.1362  12.4756  12.4756  12.5510  12.5510
    12.8107  12.8107  12.8783  12.8783  13.2202  13.2202  13.5164  13.5164
    15.2978  15.2978  15.9060  15.9060  16.2228  16.2228  16.3437  16.3437
    16.9636  16.9636  17.3638  17.3638  17.8097

          k = 0.1667-0.4725 0.1667 ( 62220 PWs)   bands (ev):

   -66.1653 -66.1653 -66.1644 -66.1644 -66.1644 -66.1644 -66.1635 -66.1635
   -30.5510 -30.5510 -30.5465 -30.5465 -30.5281 -30.5281 -30.5237 -30.5236
   -30.4767 -30.4766 -30.4756 -30.4756 -30.4679 -30.4679 -30.4586 -30.4586
   -30.4520 -30.4520 -30.4429 -30.4428 -30.4304 -30.4303 -30.4246 -30.4246
   -20.3288 -20.3288 -20.3286 -20.3286 -20.3283 -20.3283 -20.3282 -20.3282
   -20.3081 -20.3081 -20.3078 -20.3078 -20.3075 -20.3075 -20.3072 -20.3072
   -20.3042 -20.3042 -20.3039 -20.3039 -20.3036 -20.3036 -20.3033 -20.3033
   -20.2985 -20.2985 -20.2982 -20.2982 -20.2981 -20.2981 -20.2978 -20.2978
   -20.2952 -20.2952 -20.2950 -20.2950 -20.2942 -20.2941 -20.2936 -20.2936
   -20.2890 -20.2890 -20.2889 -20.2889 -20.2880 -20.2880 -20.2871 -20.2871
   -20.2808 -20.2808 -20.2798 -20.2798 -20.2794 -20.2794 -20.2785 -20.2784
    -9.7233  -9.7233  -9.3465  -9.3463  -9.2606  -9.2606  -9.0109  -9.0109
    -8.3591  -8.3578  -8.3107  -8.3099  -8.2994  -8.2985  -8.2902  -8.2875
    -7.9732  -7.9714  -7.9135  -7.9128  -7.8594  -7.8589  -7.8031  -7.8026
     1.3815   1.3844   1.4603   1.4624   1.5743   1.5755   1.8313   1.8339
     2.5145   2.5169   3.1196   3.1243   3.1869   3.2322   3.2469   3.2845
     3.3861   3.3891   3.4258   3.4496   3.6866   3.6970   3.7350   3.7423
     3.8753   3.8792   4.3422   4.3906   4.3998   4.4196   5.0057   5.0232
     5.1153   5.1244   5.1983   5.2496   5.2700   5.3023   5.4489   5.4489
     5.5119   5.5284   5.6676   5.7143   5.7525   5.7697   6.1296   6.1319
     6.4331   6.4458   6.5292   6.5293   6.7020   6.7266   6.8502   6.8510
     6.8690   6.8910   7.0304   7.0335   7.1342   7.1395   7.4861   7.4914
     7.4972   7.5065   7.5458   7.5619   7.5681   7.5759   7.7688   7.7745
    10.0595  10.0611  11.2783  11.3004  11.3251  11.3542  11.4352  11.4403
    11.5066  11.5090  12.3635  12.3834  12.3882  12.4133  12.8594  12.8635
    13.2379  13.2500  13.2702  13.2708  13.3418  13.3581  13.5525  13.5572
    15.4906  15.4960  15.7207  15.7579  15.8653  15.9053  15.9149  15.9258
    16.4768  16.4778  17.6944  17.7016  17.8593

          k = 0.1667-0.4725 0.3333 ( 62252 PWs)   bands (ev):

   -66.1651 -66.1651 -66.1646 -66.1646 -66.1642 -66.1642 -66.1637 -66.1637
   -30.5340 -30.5339 -30.5300 -30.5300 -30.5267 -30.5266 -30.5246 -30.5245
   -30.4894 -30.4894 -30.4863 -30.4863 -30.4666 -30.4665 -30.4598 -30.4598
   -30.4566 -30.4566 -30.4491 -30.4490 -30.4295 -30.4294 -30.4264 -30.4264
   -20.3287 -20.3287 -20.3285 -20.3285 -20.3284 -20.3284 -20.3283 -20.3283
   -20.3080 -20.3080 -20.3077 -20.3077 -20.3076 -20.3076 -20.3074 -20.3074
   -20.3041 -20.3041 -20.3039 -20.3039 -20.3036 -20.3036 -20.3034 -20.3034
   -20.2985 -20.2985 -20.2983 -20.2982 -20.2982 -20.2982 -20.2980 -20.2980
   -20.2951 -20.2951 -20.2950 -20.2950 -20.2928 -20.2928 -20.2922 -20.2921
   -20.2896 -20.2896 -20.2889 -20.2889 -20.2888 -20.2888 -20.2882 -20.2881
   -20.2805 -20.2805 -20.2797 -20.2797 -20.2795 -20.2795 -20.2788 -20.2787
    -9.5689  -9.5689  -9.3128  -9.3127  -9.0976  -9.0971  -8.8967  -8.8965
    -8.4393  -8.4363  -8.3808  -8.3729  -8.3034  -8.2972  -8.2830  -8.2792
    -8.2087  -8.2054  -8.1258  -8.1240  -7.8929  -7.8922  -7.8290  -7.8289
     1.5769   1.5788   1.5890   1.5924   2.1576   2.1600   2.3127   2.3146
     2.7810   2.7908   3.1517   3.1645   3.2086   3.2230   3.2821   3.3016
     3.3764   3.3841   3.5140   3.5219   3.6736   3.6802   3.7587   3.7843
     3.8229   3.8299   3.9343   3.9451   4.4419   4.4507   4.5642   4.5834
     4.6602   4.7420   4.8297   4.8430   4.9897   5.0044   5.0440   5.1552
     5.2606   5.3300   5.3441   5.4819   5.7378   5.7612   5.9904   6.0099
     6.5274   6.5387   6.6783   6.7030   6.8246   6.8328   6.9172   6.9406
     7.0256   7.0923   7.1613   7.1846   7.2015   7.2073   7.4628   7.4772
     7.4881   7.4889   7.5275   7.5509   7.5544   7.5673   7.7208   7.7275
    10.6355  10.6363  11.3843  11.3901  11.4625  11.4735  11.6708  11.6805
    11.7441  11.7696  11.9993  12.0378  12.5158  12.5792  12.7293  12.7534
    12.8257  12.8609  12.9894  13.0405  13.2609  13.2807  13.4432  13.4770
    15.5979  15.6029  15.7891  15.7921  16.3680  16.3771  16.5683  16.6038
    16.6767  16.6916  17.3631  17.3660  17.6005

          k = 0.1667-0.4725-0.5000 ( 62232 PWs)   bands (ev):

   -66.1649 -66.1649 -66.1649 -66.1648 -66.1640 -66.1640 -66.1640 -66.1640
   -30.5261 -30.5261 -30.5261 -30.5261 -30.5107 -30.5107 -30.5106 -30.5106
   -30.5067 -30.5067 -30.5067 -30.5067 -30.4642 -30.4642 -30.4641 -30.4641
   -30.4538 -30.4538 -30.4538 -30.4538 -30.4281 -30.4281 -30.4281 -30.4281
   -20.3286 -20.3286 -20.3286 -20.3286 -20.3284 -20.3284 -20.3284 -20.3284
   -20.3078 -20.3078 -20.3078 -20.3078 -20.3075 -20.3075 -20.3075 -20.3075
   -20.3040 -20.3040 -20.3040 -20.3040 -20.3035 -20.3035 -20.3035 -20.3035
   -20.2984 -20.2984 -20.2984 -20.2984 -20.2981 -20.2981 -20.2981 -20.2981
   -20.2951 -20.2951 -20.2951 -20.2951 -20.2912 -20.2912 -20.2912 -20.2911
   -20.2904 -20.2904 -20.2904 -20.2904 -20.2887 -20.2886 -20.2886 -20.2886
   -20.2802 -20.2801 -20.2801 -20.2801 -20.2791 -20.2791 -20.2791 -20.2791
    -9.4129  -9.4129  -9.4128  -9.4128  -8.7496  -8.7496  -8.7468  -8.7468
    -8.6544  -8.6544  -8.6507  -8.6507  -8.2869  -8.2868  -8.2826  -8.2825
    -8.2490  -8.2490  -8.2451  -8.2450  -7.8609  -7.8609  -7.8605  -7.8605
     1.5966   1.5966   1.5980   1.5980   2.9441   2.9441   2.9497   2.9497
     3.0565   3.0565   3.0895   3.0895   3.2191   3.2191   3.2623   3.2624
     3.3330   3.3330   3.3677   3.3677   3.5322   3.5322   3.5590   3.5590
     3.7166   3.7166   3.7438   3.7438   4.3662   4.3662   4.3663   4.3663
     4.4677   4.4677   4.4847   4.4847   4.8586   4.8586   4.9892   4.9892
     5.2502   5.2503   5.3974   5.3974   5.7956   5.7956   5.8243   5.8243
     6.6729   6.6729   6.6821   6.6821   6.8203   6.8203   6.8320   6.8320
     7.2780   7.2780   7.3389   7.3389   7.3852   7.3852   7.3950   7.3950
     7.4777   7.4777   7.4957   7.4957   7.5766   7.5766   7.6125   7.6125
    11.2474  11.2474  11.2800  11.2800  11.5010  11.5010  11.5632  11.5632
    12.2154  12.2154  12.2208  12.2208  12.2522  12.2522  12.2819  12.2819
    12.7654  12.7654  12.8351  12.8351  13.3005  13.3005  13.3482  13.3482
    15.7103  15.7103  15.7173  15.7173  16.8998  16.8999  16.9135  16.9135
    17.2445  17.2447  17.2722  17.2722  17.3221

          k = 0.3333 0.0000 0.3333 ( 62316 PWs)   bands (ev):

   -66.1651 -66.1647 -66.1646 -66.1646 -66.1642 -66.1642 -66.1641 -66.1637
   -30.5338 -30.5334 -30.5315 -30.5308 -30.5155 -30.5146 -30.5078 -30.5061
   -30.5019 -30.4957 -30.4918 -30.4852 -30.4830 -30.4767 -30.4725 -30.4638
   -30.4617 -30.4612 -30.4491 -30.4451 -30.4290 -30.4250 -30.4230 -30.4194
   -20.3287 -20.3286 -20.3286 -20.3285 -20.3285 -20.3284 -20.3284 -20.3283
   -20.3082 -20.3080 -20.3079 -20.3077 -20.3077 -20.3075 -20.3073 -20.3072
   -20.3043 -20.3041 -20.3040 -20.3038 -20.3038 -20.3036 -20.3035 -20.3033
   -20.3008 -20.3006 -20.3006 -20.3005 -20.2963 -20.2960 -20.2960 -20.2956
   -20.2939 -20.2939 -20.2934 -20.2933 -20.2927 -20.2926 -20.2922 -20.2922
   -20.2905 -20.2903 -20.2900 -20.2898 -20.2890 -20.2889 -20.2887 -20.2885
   -20.2804 -20.2802 -20.2799 -20.2797 -20.2796 -20.2794 -20.2791 -20.2789
    -9.5868  -9.3301  -9.3122  -9.2935  -9.0725  -8.9914  -8.9890  -8.8090
    -8.7821  -8.6936  -8.6751  -8.6586  -8.3198  -8.2603  -8.2498  -8.2265
    -8.1915  -8.1910  -8.1137  -8.0898  -7.7033  -7.6773  -7.6713  -7.6466
     1.6993   1.7297   1.7363   1.7726   2.0856   2.0911   2.1727   2.2191
     2.2729   2.3117   2.4603   2.5665   2.9721   2.9849   3.0042   3.0416
     3.1494   3.1863   3.7198   3.8081   3.8389   3.9753   4.0042   4.0278
     4.1822   4.1887   4.2524   4.3416   4.3759   4.4032   4.4886   4.5681
     4.7265   4.7745   4.8938   4.9760   4.9871   5.0002   5.1747   5.3808
     5.3983   5.4156   5.5159   5.7139   6.0226   6.0286   6.0421   6.1327
     6.5132   6.5150   6.5327   6.5859   6.6055   6.6149   6.6431   6.6507
     6.9932   7.0738   7.1004   7.1366   7.1517   7.1855   7.2916   7.3209
     7.3514   7.4553   7.6516   7.6571   7.8882   7.9339   7.9864   7.9991
    10.7160  10.8063  10.8673  10.9389  11.1009  11.2649  12.0274  12.0406
    12.1383  12.1896  12.2123  12.2912  12.4658  12.5119  12.7548  12.8027
    12.8045  12.8449  12.9344  13.0740  13.4283  13.4835  13.5504  13.6355
    14.4357  14.6616  14.6682  15.0605  15.8851  16.2751  16.2955  16.7746
    16.7829  17.0966  17.1169  17.6721  17.7277

          k = 0.3333 0.0000-0.5000 ( 62288 PWs)   bands (ev):

   -66.1649 -66.1649 -66.1645 -66.1645 -66.1644 -66.1644 -66.1640 -66.1640
   -30.5178 -30.5178 -30.5133 -30.5132 -30.5107 -30.5107 -30.5095 -30.5095
   -30.5071 -30.5071 -30.5050 -30.5050 -30.4855 -30.4855 -30.4717 -30.4717
   -30.4625 -30.4625 -30.4476 -30.4476 -30.4272 -30.4272 -30.4214 -30.4214
   -20.3286 -20.3286 -20.3285 -20.3285 -20.3285 -20.3285 -20.3284 -20.3284
   -20.3080 -20.3080 -20.3079 -20.3079 -20.3075 -20.3075 -20.3074 -20.3074
   -20.3042 -20.3042 -20.3039 -20.3039 -20.3037 -20.3037 -20.3034 -20.3034
   -20.3007 -20.3007 -20.3006 -20.3006 -20.2962 -20.2962 -20.2958 -20.2958
   -20.2939 -20.2939 -20.2934 -20.2934 -20.2912 -20.2912 -20.2910 -20.2910
   -20.2905 -20.2905 -20.2904 -20.2904 -20.2898 -20.2898 -20.2896 -20.2896
   -20.2801 -20.2801 -20.2798 -20.2798 -20.2795 -20.2795 -20.2793 -20.2793
    -9.4115  -9.4115  -9.1141  -9.1141  -9.1017  -9.1017  -8.7181  -8.7180
    -8.6746  -8.6746  -8.6010  -8.6010  -8.5527  -8.5527  -8.5088  -8.5087
    -8.1671  -8.1671  -8.1548  -8.1548  -7.6906  -7.6906  -7.6593  -7.6592
     1.7191   1.7191   1.7555   1.7555   2.2689   2.2689   2.3020   2.3020
     2.9169   2.9169   3.0121   3.0121   3.0531   3.0531   3.1439   3.1439
     3.2346   3.2346   3.5050   3.5051   3.6823   3.6823   3.8396   3.8396
     3.8504   3.8504   4.0820   4.0820   4.2062   4.2062   4.3344   4.3344
     4.6457   4.6457   4.8820   4.8820   4.9519   4.9519   5.0750   5.0750
     5.2404   5.2404   5.5870   5.5870   6.0545   6.0545   6.1182   6.1182
     6.4720   6.4720   6.5329   6.5329   6.5640   6.5640   6.6303   6.6303
     7.1171   7.1171   7.1921   7.1922   7.2807   7.2807   7.5157   7.5157
     7.5232   7.5233   7.6808   7.6809   7.7371   7.7371   7.9418   7.9418
    10.8102  10.8102  11.5134  11.5134  11.6302  11.6302  11.6658  11.6658
[...]
   -20.2393 -20.2393 -20.2390 -20.2390 -20.2367 -20.2367 -20.2363 -20.2363
   -20.2324 -20.2324 -20.2322 -20.2322 -20.2304 -20.2304 -20.2302 -20.2302
   -20.2300 -20.2300 -20.2298 -20.2298 -20.2267 -20.2267 -20.2266 -20.2266
   -20.2188 -20.2188 -20.2187 -20.2187 -20.2176 -20.2176 -20.2174 -20.2174
    -9.4311  -9.4311  -9.2762  -9.2762  -8.8986  -8.8986  -8.6693  -8.6693
    -8.5373  -8.5373  -8.4963  -8.4963  -8.4293  -8.4293  -8.3657  -8.3657
    -8.0739  -8.0739  -8.0434  -8.0434  -7.8040  -7.8040  -7.7884  -7.7884
     1.6418   1.6418   1.6508   1.6508   2.3988   2.3988   2.5125   2.5125
     3.0399   3.0399   3.0993   3.0993   3.1241   3.1241   3.2716   3.2716
     3.3212   3.3212   3.5382   3.5382   3.6066   3.6066   3.7693   3.7693
     4.0013   4.0013   4.0972   4.0972   4.2879   4.2879   4.4459   4.4459
     4.7736   4.7736   4.8706   4.8706   5.0597   5.0598   5.0875   5.0876
     5.1956   5.1956   5.5639   5.5639   5.8537   5.8537   5.9028   5.9028
     6.6777   6.6777   6.8182   6.8182   6.8512   6.8512   6.8832   6.8832
     7.0613   7.0613   7.1385   7.1385   7.1974   7.1974   7.5200   7.5200
     7.5462   7.5462   7.6525   7.6525   7.6814   7.6814   7.8912   7.8912
    10.8844  10.8844  11.3611  11.3611  11.4318  11.4318  11.7201  11.7201
    12.0450  12.0450  12.2680  12.2680  12.5997  12.5997  12.7090  12.7090
    12.8587  12.8587  12.9948  12.9948  13.2201  13.2201  13.6463  13.6463
    15.4377  15.4377  15.8736  15.8736  16.4249  16.4249  16.5530  16.5530
    16.8287  16.8287  17.4135  17.4135  17.8853

          k = 0.3325 0.4780 0.1656 ( 62090 PWs)   bands (ev):

   -66.1066 -66.1066 -66.1061 -66.1061 -66.1058 -66.1058 -66.1053 -66.1053
   -30.4757 -30.4756 -30.4721 -30.4720 -30.4651 -30.4650 -30.4576 -30.4576
   -30.4564 -30.4564 -30.4452 -30.4452 -30.4259 -30.4259 -30.4193 -30.4193
   -30.3888 -30.3888 -30.3824 -30.3824 -30.3741 -30.3741 -30.3681 -30.3680
   -20.2688 -20.2688 -20.2686 -20.2686 -20.2683 -20.2683 -20.2682 -20.2682
   -20.2481 -20.2481 -20.2479 -20.2479 -20.2475 -20.2475 -20.2473 -20.2473
   -20.2435 -20.2435 -20.2431 -20.2431 -20.2431 -20.2430 -20.2427 -20.2427
   -20.2381 -20.2381 -20.2379 -20.2379 -20.2378 -20.2378 -20.2375 -20.2375
   -20.2325 -20.2325 -20.2322 -20.2322 -20.2319 -20.2319 -20.2318 -20.2318
   -20.2284 -20.2284 -20.2283 -20.2283 -20.2269 -20.2269 -20.2264 -20.2264
   -20.2190 -20.2190 -20.2185 -20.2185 -20.2177 -20.2177 -20.2173 -20.2173
    -9.4713  -9.4711  -9.2474  -9.2470  -8.9565  -8.9565  -8.7546  -8.7545
    -8.4985  -8.4967  -8.4127  -8.4117  -8.3694  -8.3667  -8.3577  -8.3575
    -8.1117  -8.1113  -8.0309  -8.0289  -7.8289  -7.8285  -7.7646  -7.7645
     1.6313   1.6352   1.6475   1.6503   2.3150   2.3166   2.4772   2.4857
     2.9244   2.9342   3.1044   3.1092   3.1859   3.2026   3.2710   3.2738
     3.3868   3.3932   3.4893   3.5413   3.6490   3.6550   3.8174   3.8224
     3.8642   3.8946   3.9646   4.0187   4.3751   4.4003   4.6573   4.6598
     4.7265   4.7407   4.8870   4.9342   4.9711   5.0565   5.0825   5.1118
     5.1981   5.2536   5.4026   5.4731   5.7839   5.8040   6.0883   6.0885
     6.6604   6.6993   6.7167   6.7258   6.8826   6.8859   6.9711   7.0108
     7.1110   7.1557   7.1880   7.2283   7.2402   7.2538   7.4823   7.4917
     7.5422   7.5581   7.5588   7.5894   7.6127   7.6249   7.7988   7.8004
    10.6910  10.6973  11.4024  11.4187  11.4540  11.4565  11.8638  11.8699
    11.8910  11.8944  12.0210  12.0812  12.5309  12.5744  12.7284  12.7387
    12.9110  12.9301  13.1366  13.2005  13.3421  13.3895  13.4109  13.4757
    15.6187  15.6404  15.8536  15.8639  16.2819  16.2979  16.6277  16.6539
    16.9031  16.9127  17.5038  17.5432  17.8812

          k =-0.4988 0.4780 0.1656 ( 62072 PWs)   bands (ev):

   -66.1063 -66.1063 -66.1063 -66.1063 -66.1056 -66.1056 -66.1056 -66.1056
   -30.4737 -30.4737 -30.4734 -30.4734 -30.4609 -30.4609 -30.4597 -30.4597
   -30.4499 -30.4499 -30.4490 -30.4490 -30.4080 -30.4080 -30.4070 -30.4070
   -30.4032 -30.4032 -30.4016 -30.4016 -30.3723 -30.3723 -30.3721 -30.3721
   -20.2687 -20.2687 -20.2687 -20.2687 -20.2682 -20.2682 -20.2682 -20.2682
   -20.2480 -20.2480 -20.2480 -20.2480 -20.2474 -20.2474 -20.2474 -20.2474
   -20.2433 -20.2433 -20.2433 -20.2433 -20.2429 -20.2429 -20.2429 -20.2429
   -20.2381 -20.2381 -20.2379 -20.2379 -20.2378 -20.2378 -20.2376 -20.2376
   -20.2323 -20.2323 -20.2323 -20.2323 -20.2303 -20.2303 -20.2301 -20.2301
   -20.2301 -20.2301 -20.2299 -20.2299 -20.2267 -20.2267 -20.2266 -20.2266
   -20.2188 -20.2188 -20.2188 -20.2188 -20.2175 -20.2175 -20.2175 -20.2175
    -9.3423  -9.3423  -9.3343  -9.3343  -8.6842  -8.6841  -8.6539  -8.6539
    -8.5494  -8.5494  -8.5221  -8.5221  -8.3534  -8.3534  -8.3066  -8.3066
    -8.2896  -8.2896  -8.2480  -8.2480  -7.7971  -7.7971  -7.7969  -7.7969
     1.6451   1.6451   1.6527   1.6527   2.9586   2.9586   3.0661   3.0661
     3.1035   3.1035   3.1200   3.1200   3.2481   3.2481   3.3028   3.3028
     3.4027   3.4027   3.4886   3.4886   3.5642   3.5642   3.6110   3.6110
     3.6457   3.6457   3.9417   3.9417   4.3059   4.3059   4.3691   4.3691
     4.4043   4.4043   4.4921   4.4921   4.9324   4.9324   5.0872   5.0872
     5.2145   5.2145   5.3503   5.3503   5.8544   5.8544   5.8790   5.8790
     6.7481   6.7481   6.8186   6.8186   6.8732   6.8732   6.9153   6.9153
     7.2784   7.2784   7.3127   7.3127   7.3937   7.3937   7.4685   7.4686
     7.5450   7.5450   7.6016   7.6016   7.6420   7.6420   7.6633   7.6633
    11.3306  11.3306  11.3953  11.3953  11.4231  11.4231  11.5191  11.5191
    12.2610  12.2610  12.3123  12.3123  12.3699  12.3699  12.4529  12.4529
    12.8342  12.8342  12.9035  12.9035  13.3517  13.3517  13.4151  13.4151
    15.7455  15.7455  15.7683  15.7683  16.9009  16.9009  17.0405  17.0405
    17.3115  17.3116  17.4128  17.4131  17.4734

          k =-0.4988 0.0000 0.3313 ( 62102 PWs)   bands (ev):

   -66.1064 -66.1064 -66.1060 -66.1060 -66.1059 -66.1059 -66.1055 -66.1055
   -30.4942 -30.4942 -30.4907 -30.4907 -30.4527 -30.4527 -30.4398 -30.4398
   -30.4365 -30.4364 -30.4321 -30.4321 -30.4124 -30.4124 -30.4103 -30.4102
   -30.4055 -30.4055 -30.3908 -30.3907 -30.3868 -30.3868 -30.3792 -30.3792
   -20.2687 -20.2687 -20.2685 -20.2685 -20.2684 -20.2684 -20.2683 -20.2682
   -20.2482 -20.2481 -20.2478 -20.2478 -20.2476 -20.2476 -20.2473 -20.2473
   -20.2434 -20.2434 -20.2432 -20.2432 -20.2432 -20.2432 -20.2429 -20.2429
   -20.2404 -20.2404 -20.2403 -20.2403 -20.2354 -20.2353 -20.2351 -20.2351
   -20.2312 -20.2311 -20.2311 -20.2311 -20.2304 -20.2304 -20.2303 -20.2303
   -20.2298 -20.2298 -20.2297 -20.2297 -20.2279 -20.2279 -20.2277 -20.2277
   -20.2187 -20.2186 -20.2184 -20.2184 -20.2179 -20.2179 -20.2176 -20.2176
    -9.4251  -9.4251  -9.2019  -9.2019  -9.0075  -9.0075  -8.7061  -8.7061
    -8.5526  -8.5526  -8.4775  -8.4775  -8.4229  -8.4229  -8.3938  -8.3938
    -8.0933  -8.0933  -8.0821  -8.0821  -7.7200  -7.7200  -7.6972  -7.6972
     1.5607   1.5607   1.5942   1.5942   2.3252   2.3252   2.3687   2.3687
     2.9745   2.9745   3.0664   3.0664   3.0795   3.0795   3.2607   3.2607
     3.3469   3.3469   3.6274   3.6274   3.7652   3.7652   3.8854   3.8854
     3.9046   3.9047   4.0805   4.0805   4.2650   4.2650   4.4547   4.4547
     4.7278   4.7278   4.9504   4.9504   5.1288   5.1288   5.1311   5.1311
     5.3855   5.3855   5.5970   5.5970   6.0230   6.0230   6.1294   6.1294
     6.4363   6.4363   6.4710   6.4710   6.5581   6.5581   6.6050   6.6050
     7.1775   7.1775   7.2946   7.2946   7.3640   7.3640   7.5275   7.5275
     7.5827   7.5827   7.7170   7.7170   7.7356   7.7356   8.0269   8.0269
    10.9296  10.9296  11.4556  11.4556  11.5277  11.5277  11.6961  11.6962
    11.9243  11.9243  12.3164  12.3164  12.5027  12.5028  12.6904  12.6904
    12.9356  12.9356  13.2786  13.2786  13.3188  13.3188  13.6740  13.6740
    14.8383  14.8383  15.1880  15.1880  16.3445  16.3445  16.6592  16.6592
    16.9768  16.9769  17.5043  17.5043  18.0028

          k =-0.4988-0.1593 0.3313 ( 62098 PWs)   bands (ev):

   -66.1064 -66.1064 -66.1060 -66.1060 -66.1059 -66.1059 -66.1055 -66.1055
   -30.4904 -30.4904 -30.4867 -30.4867 -30.4537 -30.4537 -30.4402 -30.4402
   -30.4391 -30.4391 -30.4335 -30.4335 -30.4123 -30.4123 -30.4103 -30.4103
   -30.4051 -30.4051 -30.3925 -30.3925 -30.3868 -30.3868 -30.3804 -30.3804
   -20.2687 -20.2687 -20.2685 -20.2685 -20.2684 -20.2684 -20.2683 -20.2683
   -20.2481 -20.2481 -20.2478 -20.2478 -20.2477 -20.2477 -20.2473 -20.2473
   -20.2434 -20.2434 -20.2432 -20.2432 -20.2432 -20.2432 -20.2429 -20.2429
   -20.2401 -20.2401 -20.2400 -20.2400 -20.2357 -20.2357 -20.2354 -20.2354
   -20.2312 -20.2311 -20.2311 -20.2311 -20.2303 -20.2303 -20.2303 -20.2303
   -20.2298 -20.2298 -20.2297 -20.2297 -20.2279 -20.2279 -20.2277 -20.2277
   -20.2186 -20.2186 -20.2184 -20.2184 -20.2179 -20.2179 -20.2176 -20.2176
    -9.3755  -9.3755  -9.1338  -9.1338  -9.0184  -9.0184  -8.6813  -8.6813
    -8.5618  -8.5618  -8.4741  -8.4741  -8.4206  -8.4206  -8.3909  -8.3909
    -8.0914  -8.0914  -8.0864  -8.0863  -7.8181  -7.8181  -7.7956  -7.7956
     1.7833   1.7833   1.8233   1.8233   2.3250   2.3250   2.3770   2.3770
     3.0212   3.0212   3.0907   3.0907   3.1069   3.1069   3.2715   3.2716
     3.3525   3.3525   3.6528   3.6528   3.7860   3.7860   3.8967   3.8967
     3.9089   3.9089   4.1220   4.1220   4.2425   4.2425   4.4606   4.4606
     4.6054   4.6054   4.7670   4.7670   5.0475   5.0475   5.0856   5.0856
     5.1374   5.1374   5.3726   5.3726   5.7957   5.7957   5.9011   5.9011
     6.5976   6.5976   6.6155   6.6155   6.6898   6.6898   6.8037   6.8037
     7.1898   7.1898   7.2924   7.2924   7.3623   7.3623   7.5313   7.5313
     7.5781   7.5781   7.7057   7.7057   7.7275   7.7275   7.9740   7.9740
    11.0230  11.0230  11.4962  11.4962  11.5971  11.5971  11.7008  11.7008
    11.9616  11.9616  12.3415  12.3415  12.4972  12.4972  12.7005  12.7005
    12.8009  12.8009  13.1578  13.1578  13.1961  13.1961  13.5627  13.5627
    15.1876  15.1876  15.5513  15.5513  16.4222  16.4222  16.6633  16.6633
    16.9852  16.9852  17.5283  17.5283  17.8784

          k =-0.4988-0.3187 0.3313 ( 62064 PWs)   bands (ev):

   -66.1063 -66.1063 -66.1061 -66.1060 -66.1059 -66.1058 -66.1056 -66.1056
   -30.4803 -30.4803 -30.4759 -30.4759 -30.4581 -30.4581 -30.4483 -30.4483
   -30.4397 -30.4397 -30.4367 -30.4367 -30.4118 -30.4118 -30.4106 -30.4106
   -30.4038 -30.4038 -30.3967 -30.3967 -30.3864 -30.3864 -30.3830 -30.3830
   -20.2686 -20.2686 -20.2686 -20.2686 -20.2684 -20.2683 -20.2683 -20.2683
   -20.2480 -20.2480 -20.2478 -20.2478 -20.2477 -20.2477 -20.2474 -20.2474
   -20.2433 -20.2433 -20.2432 -20.2432 -20.2431 -20.2431 -20.2429 -20.2429
   -20.2393 -20.2392 -20.2391 -20.2391 -20.2367 -20.2367 -20.2364 -20.2364
   -20.2311 -20.2311 -20.2311 -20.2311 -20.2303 -20.2302 -20.2302 -20.2302
   -20.2299 -20.2299 -20.2299 -20.2299 -20.2278 -20.2278 -20.2277 -20.2277
   -20.2186 -20.2186 -20.2185 -20.2185 -20.2179 -20.2179 -20.2177 -20.2177
    -9.2549  -9.2549  -9.0566  -9.0566  -8.9499  -8.9499  -8.6211  -8.6211
    -8.5777  -8.5777  -8.4668  -8.4668  -8.4087  -8.4087  -8.3727  -8.3726
    -8.1196  -8.1196  -8.0878  -8.0878  -8.0560  -8.0560  -8.0083  -8.0083
     2.2410   2.2410   2.3237   2.3237   2.4190   2.4190   2.5426   2.5426
     3.0762   3.0762   3.1148   3.1148   3.2449   3.2449   3.3022   3.3022
     3.3954   3.3954   3.7011   3.7011   3.7573   3.7573   3.8644   3.8644
     3.9686   3.9686   4.1325   4.1325   4.2615   4.2615   4.2685   4.2685
     4.4032   4.4032   4.5455   4.5455   4.7032   4.7032   4.8997   4.8997
     4.9694   4.9694   5.0731   5.0731   5.1130   5.1130   5.3831   5.3832
     6.8887   6.8888   6.9532   6.9532   7.0380   7.0381   7.0673   7.0673
     7.2197   7.2197   7.2995   7.2996   7.3645   7.3645   7.5258   7.5258
     7.5640   7.5640   7.6562   7.6562   7.6820   7.6820   7.8196   7.8196
    11.3024  11.3024  11.5771  11.5771  11.6825  11.6825  11.8119  11.8119
    12.1077  12.1077  12.3882  12.3882  12.4274  12.4274  12.4796  12.4796
    12.7724  12.7724  12.8709  12.8709  12.8941  12.8941  13.2923  13.2923
    15.9803  15.9803  16.4018  16.4018  16.6472  16.6472  16.7179  16.7179
    17.0309  17.0309  17.4764  17.4764  17.6926

          k =-0.4988 0.4780 0.3313 ( 62064 PWs)   bands (ev):

   -66.1062 -66.1062 -66.1062 -66.1062 -66.1057 -66.1057 -66.1057 -66.1057
   -30.4682 -30.4682 -30.4675 -30.4675 -30.4622 -30.4622 -30.4611 -30.4611
   -30.4393 -30.4393 -30.4387 -30.4387 -30.4115 -30.4114 -30.4109 -30.4109
   -30.4017 -30.4017 -30.4002 -30.4002 -30.3855 -30.3855 -30.3849 -30.3849
   -20.2686 -20.2686 -20.2686 -20.2686 -20.2683 -20.2683 -20.2683 -20.2683
   -20.2479 -20.2479 -20.2479 -20.2479 -20.2476 -20.2475 -20.2475 -20.2475
   -20.2432 -20.2432 -20.2432 -20.2432 -20.2430 -20.2430 -20.2430 -20.2430
   -20.2381 -20.2381 -20.2379 -20.2379 -20.2379 -20.2379 -20.2377 -20.2377
   -20.2311 -20.2311 -20.2311 -20.2311 -20.2302 -20.2302 -20.2301 -20.2301
   -20.2301 -20.2300 -20.2300 -20.2300 -20.2278 -20.2278 -20.2278 -20.2278
   -20.2185 -20.2185 -20.2185 -20.2185 -20.2178 -20.2178 -20.2178 -20.2178
    -9.1391  -9.1391  -9.1273  -9.1273  -8.7483  -8.7483  -8.7192  -8.7192
    -8.4962  -8.4962  -8.4682  -8.4682  -8.3465  -8.3465  -8.3158  -8.3158
    -8.2792  -8.2792  -8.2570  -8.2569  -8.0741  -8.0741  -8.0733  -8.0733
     2.3067   2.3067   2.3229   2.3229   2.9894   2.9894   3.0478   3.0478
     3.1314   3.1314   3.1633   3.1633   3.2436   3.2436   3.2904   3.2904
     3.4972   3.4972   3.5508   3.5508   3.6502   3.6502   3.7071   3.7071
     3.8719   3.8719   4.0208   4.0208   4.2860   4.2860   4.2998   4.2998
     4.3615   4.3615   4.4293   4.4293   4.5420   4.5420   4.6480   4.6480
     4.7454   4.7454   4.8783   4.8783   5.0826   5.0826   5.1190   5.1190
     7.0052   7.0052   7.1135   7.1135   7.1857   7.1857   7.2150   7.2150
     7.2873   7.2873   7.3563   7.3563   7.4282   7.4282   7.4621   7.4621
     7.5275   7.5275   7.6026   7.6026   7.6390   7.6390   7.6812   7.6812
    11.5668  11.5668  11.6110  11.6110  11.7449  11.7449  11.8527  11.8527
    12.2532  12.2532  12.3006  12.3006  12.3346  12.3346  12.4678  12.4678
    12.5656  12.5656  12.6984  12.6984  12.9589  12.9589  13.0403  13.0403
    16.4691  16.4691  16.5187  16.5187  17.0546  17.0547  17.1851  17.1852
    17.3063  17.3063  17.4286  17.4293  17.4812

     the Fermi energy is     9.0361 ev

!    total energy              =   -6261.11308529 Ry
     Harris-Foulkes estimate   =   -6261.11308529 Ry
     estimated scf accuracy    <          7.7E-12 Ry

     The total energy is the sum of the following terms:

     one-electron contribution =   -4702.21382512 Ry
     hartree contribution      =    2588.57934541 Ry
     xc contribution           =    -965.66298734 Ry
     ewald contribution        =   -3181.81561823 Ry
     smearing contrib. (-TS)   =      -0.00000000 Ry

     convergence has been achieved in  15 iterations

     Forces acting on atoms (cartesian axes, Ry/au):

     atom    1 type  1   force =     0.00011844   -0.00219385   -0.00067463
     atom    2 type  1   force =    -0.00011844    0.00219385    0.00067463
     atom    3 type  1   force =    -0.00011844    0.00219385   -0.00067463
     atom    4 type  1   force =     0.00011844   -0.00219385    0.00067463
     atom    5 type  1   force =    -0.00011844   -0.00219385    0.00067463
     atom    6 type  1   force =     0.00011844    0.00219385   -0.00067463
     atom    7 type  1   force =     0.00011844    0.00219385    0.00067463
     atom    8 type  1   force =    -0.00011844   -0.00219385   -0.00067463
     atom    9 type  2   force =    -0.00024651    0.00125652    0.00030800
     atom   10 type  2   force =     0.00024651   -0.00125652   -0.00030800
     atom   11 type  2   force =     0.00024651   -0.00125652    0.00030800
     atom   12 type  2   force =    -0.00024651    0.00125652   -0.00030800
     atom   13 type  2   force =     0.00024651    0.00125652   -0.00030800
     atom   14 type  2   force =    -0.00024651   -0.00125652    0.00030800
     atom   15 type  2   force =    -0.00024651   -0.00125652   -0.00030800
     atom   16 type  2   force =     0.00024651    0.00125652    0.00030800
     atom   17 type  2   force =    -0.00005573    0.00026527    0.00156987
     atom   18 type  2   force =     0.00005573   -0.00026527   -0.00156987
     atom   19 type  2   force =     0.00005573   -0.00026527    0.00156987
     atom   20 type  2   force =    -0.00005573    0.00026527   -0.00156987
     atom   21 type  2   force =     0.00005573    0.00026527   -0.00156987
     atom   22 type  2   force =    -0.00005573   -0.00026527    0.00156987
     atom   23 type  2   force =    -0.00005573   -0.00026527   -0.00156987
     atom   24 type  2   force =     0.00005573    0.00026527    0.00156987
     atom   25 type  2   force =    -0.00065603   -0.00084647   -0.00069134
     atom   26 type  2   force =     0.00065603    0.00084647    0.00069134
     atom   27 type  2   force =     0.00065603    0.00084647   -0.00069134
     atom   28 type  2   force =    -0.00065603   -0.00084647    0.00069134
     atom   29 type  2   force =     0.00065603   -0.00084647    0.00069134
     atom   30 type  2   force =    -0.00065603    0.00084647   -0.00069134
     atom   31 type  2   force =    -0.00065603    0.00084647    0.00069134
     atom   32 type  2   force =     0.00065603   -0.00084647   -0.00069134

     Total force =     0.000000     Total SCF correction =     0.000000


     Computing stress (Cartesian axis) and pressure

          total   stress  (Ry/bohr**3)                   (kbar)     P=    0.01
   0.00000036   0.00000000   0.00000000          0.05      0.00      0.00
   0.00000000  -0.00000148   0.00000000          0.00     -0.22      0.00
   0.00000000   0.00000000   0.00000137          0.00      0.00      0.20


     Writing output data file Landau_28.save
 
     init_run     :    111.19s CPU    114.61s WALL (       2 calls)
     electrons    :   9914.18s CPU  10106.90s WALL (       5 calls)
     update_pot   :     87.65s CPU     87.81s WALL (       3 calls)
     forces       :    170.84s CPU    173.28s WALL (       5 calls)
     stress       :   1370.04s CPU   1385.63s WALL (       5 calls)

     Called by init_run:
     wfcinit      :     85.73s CPU     88.81s WALL (       2 calls)
     potinit      :     10.53s CPU     10.62s WALL (       2 calls)

     Called by electrons:
     c_bands      :   8681.27s CPU   8863.32s WALL (      65 calls)
     sum_band     :   1121.99s CPU   1127.69s WALL (      65 calls)
     v_of_rho     :      9.86s CPU     10.01s WALL (      69 calls)
     mix_rho      :     18.96s CPU     22.11s WALL (      65 calls)

     Called by c_bands:
     init_us_2    :     87.02s CPU     91.49s WALL (     284 calls)
     cegterg      :   7374.02s CPU   7546.78s WALL (     130 calls)

     Called by sum_band:

     Called by *egterg:
     h_psi        :   5704.56s CPU   5727.30s WALL (     528 calls)
     g_psi        :     22.51s CPU     22.56s WALL (     394 calls)
     cdiaghg      :     77.02s CPU     77.19s WALL (     516 calls)

     Called by h_psi:
     h_psi:pot    :   5658.29s CPU   5679.59s WALL (     528 calls)
     h_psi:calbec :    622.71s CPU    636.55s WALL (     528 calls)
     vloc_psi     :   4366.97s CPU   4372.43s WALL (     528 calls)
     add_vuspsi   :    668.60s CPU    670.60s WALL (     528 calls)

     General routines
     calbec       :    714.88s CPU    728.84s WALL (     578 calls)
     fft          :      7.52s CPU      7.52s WALL (     316 calls)
     fftw         :   4206.89s CPU   4210.26s WALL (  172338 calls)
 
     Parallel routines
 
     PWSCF        :     3h14m CPU        3h18m WALL

 
   This run was terminated on:  10:55:54  11Mar2020            

=------------------------------------------------------------------------------=
   JOB DONE.
=------------------------------------------------------------------------------=
