
     Program PWSCF v.6.2 (svn rev. 14038) starts on 13Sep2019 at 17:27:27 

     This program is part of the open-source Quantum ESPRESSO suite
     for quantum simulation of materials; please cite
         "P. Giannozzi et al., J. Phys.:Condens. Matter 21 395502 (2009);
         "P. Giannozzi et al., J. Phys.:Condens. Matter 29 465901 (2017);
          URL http://www.quantum-espresso.org", 
     in publications or presentations arising from this work. More details at
     http://www.quantum-espresso.org/quote

     Parallel version (MPI), running on    40 processors

     MPI processes distributed on     6 nodes
     K-points division:     npool     =      40
     Reading input from scf.in

     Current dimensions of program PWSCF are:
     Max number of different atomic species (ntypx) = 10
     Max number of k-points (npk) =  40000
     Max angular momentum in pseudopotentials (lmaxx) =  3

     Subspace diagonalization in iterative solution of the eigenvalue problem:
     a serial algorithm will be used

 
     G-vector sticks info
     --------------------
     sticks:   dense  smooth     PW     G-vecs:    dense   smooth      PW
     Sum        7583    7583   2029               489747   489747   67955
 


     bravais-lattice index     =            0
     lattice parameter (alat)  =      13.8835  a.u.
     unit-cell volume          =    2758.0255 (a.u.)^3
     number of atoms/cell      =           32
     number of atomic types    =            2
     number of electrons       =       368.20
     number of Kohn-Sham states=          221
     kinetic-energy cutoff     =     120.0000  Ry
     charge density cutoff     =     480.0000  Ry
     convergence threshold     =      1.0E-08
     mixing beta               =       0.7000
     number of iterations used =            8  plain     mixing
     Exchange-correlation      = SLA PW NOGX NOGC ( 1  4  0  0 0 0)

     celldm(1)=  13.883470  celldm(2)=   0.000000  celldm(3)=   0.000000
     celldm(4)=   0.000000  celldm(5)=   0.000000  celldm(6)=   0.000000

     crystal axes: (cart. coord. in units of alat)
               a(1) = (   1.000000   0.000000   0.000000 )  
               a(2) = (   0.000000   1.030633   0.000000 )  
               a(3) = (   0.000000   0.000000   1.000000 )  

     reciprocal axes: (cart. coord. in units 2 pi/alat)
               b(1) = (  1.000000  0.000000  0.000000 )  
               b(2) = (  0.000000  0.970277  0.000000 )  
               b(3) = (  0.000000  0.000000  1.000000 )  


     PseudoPot. # 1 for W  read from file:
     /cluster/scratch/mnoe/QE/pps/W_ONCV_LDA-4.0.upf
     MD5 check sum: ba0307d5d4cd419d6f1d13dc49d7c13a
     Pseudo is Norm-conserving + core correction, Zval = 28.0
     Generated using ONCVPSP code by D. R. Hamann
     Using radial grid of 1380 points,  8 beta functions with: 
                l(1) =   0
                l(2) =   0
                l(3) =   1
                l(4) =   1
                l(5) =   2
                l(6) =   2
                l(7) =   3
                l(8) =   3

     PseudoPot. # 2 for O  read from file:
     /cluster/scratch/mnoe/QE/pps/O_ONCV_LDA-3.0.upf
     MD5 check sum: ca1549d10c4e927e51167f6fca52ae32
     Pseudo is Norm-conserving + core correction, Zval =  6.0
     Generated using ONCVPSP code by D. R. Hamann
     Using radial grid of  926 points,  5 beta functions with: 
                l(1) =   0
                l(2) =   0
                l(3) =   1
                l(4) =   1
                l(5) =   2

     atomic species   valence    mass     pseudopotential
        W             28.00   183.84000     W ( 1.00)
        O              6.00    15.99940     O ( 1.00)

      8 Sym. Ops. (no inversion) found ( 4 have fractional translation)



   Cartesian axes

     site n.     atom                  positions (alat units)
         1           W   tau(   1) = (   0.2778800   0.2904943   0.2508000  )
         2           W   tau(   2) = (  -0.2508000   0.7401390  -0.7221200  )
         3           W   tau(   3) = (   0.2221200   0.2248224   0.7508000  )
         4           W   tau(   4) = (   0.7508000   0.8058109   0.7778800  )
         5           W   tau(   5) = (   0.7221200   0.2904943   0.7492000  )
         6           W   tau(   6) = (   0.2508000   0.7401390   0.7221200  )
         7           W   tau(   7) = (  -0.2221200   0.2248224  -0.7508000  )
         8           W   tau(   8) = (   0.2492000   0.8058109   0.2221200  )
         9           O   tau(   9) = (   0.2806600   0.0085749   0.2722400  )
        10           O   tau(  10) = (  -0.2722399   1.0220585  -0.7193400  )
        11           O   tau(  11) = (   0.2193400   0.5067418   0.7722400  )
        12           O   tau(  12) = (   0.7722400   0.5238915   0.7806600  )
        13           O   tau(  13) = (   0.7193400   0.0085749   0.7277600  )
        14           O   tau(  14) = (   0.2722400   1.0220585   0.7193400  )
        15           O   tau(  15) = (  -0.2193400   0.5067418  -0.7722399  )
        16           O   tau(  16) = (   0.2277600   0.5238915   0.2193400  )
        17           O   tau(  17) = (   0.4901399   0.2917207   0.6995400  )
        18           O   tau(  18) = (   0.4979800   0.7511152   0.8004600  )
        19           O   tau(  19) = (  -0.9901400   0.2235959   1.1995400  )
        20           O   tau(  20) = (   0.0020199   0.7948347   0.3004600  )
        21           O   tau(  21) = (   0.5098601   0.2917207   0.3004600  )
        22           O   tau(  22) = (   0.5020200   0.7511152   1.1995400  )
        23           O   tau(  23) = (  -0.0098601   0.2235959   0.8004600  )
        24           O   tau(  24) = (  -1.0020200   0.7948347   0.6995400  )
        25           O   tau(  25) = (   0.6995400   0.2357986   2.0020200  )
        26           O   tau(  26) = (   0.3004600   0.7389125   0.4901400  )
        27           O   tau(  27) = (   0.8004600   0.2795181   0.5020199  )
        28           O   tau(  28) = (   0.1995400   0.8070373   1.9901400  )
        29           O   tau(  29) = (   0.3004600   0.2357986   0.9979801  )
        30           O   tau(  30) = (   0.6995400   0.7389125   0.5098600  )
        31           O   tau(  31) = (   0.1995400   0.2795181   0.4979800  )
        32           O   tau(  32) = (   0.8004600   0.8070373   1.0098601  )

     number of k points=    40  gaussian smearing, width (Ry)=  0.0007
                       cart. coord. in units 2pi/alat
        k(    1) = (   0.0000000   0.0000000   0.0000000), wk =   0.0092593
        k(    2) = (   0.0000000   0.0000000   0.1666667), wk =   0.0370370
        k(    3) = (   0.0000000   0.0000000   0.3333333), wk =   0.0370370
        k(    4) = (   0.0000000   0.0000000  -0.5000000), wk =   0.0185185
        k(    5) = (   0.0000000   0.1617129   0.0000000), wk =   0.0185185
        k(    6) = (   0.0000000   0.1617129   0.1666667), wk =   0.0740741
        k(    7) = (   0.0000000   0.1617129   0.3333333), wk =   0.0740741
        k(    8) = (   0.0000000   0.1617129  -0.5000000), wk =   0.0370370
        k(    9) = (   0.0000000   0.3234257   0.0000000), wk =   0.0185185
        k(   10) = (   0.0000000   0.3234257   0.1666667), wk =   0.0740741
        k(   11) = (   0.0000000   0.3234257   0.3333333), wk =   0.0740741
        k(   12) = (   0.0000000   0.3234257  -0.5000000), wk =   0.0370370
        k(   13) = (   0.0000000  -0.4851386   0.0000000), wk =   0.0092593
        k(   14) = (   0.0000000  -0.4851386   0.1666667), wk =   0.0370370
        k(   15) = (   0.0000000  -0.4851386   0.3333333), wk =   0.0370370
        k(   16) = (   0.0000000  -0.4851386  -0.5000000), wk =   0.0185185
        k(   17) = (   0.1666667   0.0000000   0.1666667), wk =   0.0370370
        k(   18) = (   0.1666667   0.0000000   0.3333333), wk =   0.0740741
        k(   19) = (   0.1666667   0.0000000  -0.5000000), wk =   0.0370370
        k(   20) = (   0.1666667   0.1617129   0.1666667), wk =   0.0740741
        k(   21) = (   0.1666667   0.1617129   0.3333333), wk =   0.1481481
        k(   22) = (   0.1666667   0.1617129  -0.5000000), wk =   0.0740741
        k(   23) = (   0.1666667   0.3234257   0.1666667), wk =   0.0740741
        k(   24) = (   0.1666667   0.3234257   0.3333333), wk =   0.1481481
        k(   25) = (   0.1666667   0.3234257  -0.5000000), wk =   0.0740741
        k(   26) = (   0.1666667  -0.4851386   0.1666667), wk =   0.0370370
        k(   27) = (   0.1666667  -0.4851386   0.3333333), wk =   0.0740741
        k(   28) = (   0.1666667  -0.4851386  -0.5000000), wk =   0.0370370
        k(   29) = (   0.3333333   0.0000000   0.3333333), wk =   0.0370370
        k(   30) = (   0.3333333   0.0000000  -0.5000000), wk =   0.0370370
        k(   31) = (   0.3333333   0.1617129   0.3333333), wk =   0.0740741
        k(   32) = (   0.3333333   0.1617129  -0.5000000), wk =   0.0740741
        k(   33) = (   0.3333333   0.3234257   0.3333333), wk =   0.0740741
        k(   34) = (   0.3333333   0.3234257  -0.5000000), wk =   0.0740741
        k(   35) = (   0.3333333  -0.4851386   0.3333333), wk =   0.0370370
        k(   36) = (   0.3333333  -0.4851386  -0.5000000), wk =   0.0370370
        k(   37) = (  -0.5000000   0.0000000  -0.5000000), wk =   0.0092593
        k(   38) = (  -0.5000000   0.1617129  -0.5000000), wk =   0.0185185
        k(   39) = (  -0.5000000   0.3234257  -0.5000000), wk =   0.0185185
        k(   40) = (  -0.5000000  -0.4851386  -0.5000000), wk =   0.0092593

     Dense  grid:   489747 G-vectors     FFT dimensions: ( 100, 100, 100)

     Estimated max dynamical RAM per process >       2.67 GB

     Estimated total dynamical RAM >     106.73 GB

     Initial potential from superposition of free atoms

     starting charge  367.99656, renormalised to  368.20000
     Starting wfc are  232 randomized atomic wfcs

     total cpu time spent up to now is       20.0 secs

     Self-consistent Calculation

     iteration #  1     ecut=   120.00 Ry     beta= 0.70
     Davidson diagonalization with overlap
     ethr =  1.00E-02,  avg # of iterations =  4.9

     total cpu time spent up to now is       88.8 secs

     total energy              =   -6253.82334523 Ry
     Harris-Foulkes estimate   =   -6264.39197026 Ry
     estimated scf accuracy    <      13.36456314 Ry

     iteration #  2     ecut=   120.00 Ry     beta= 0.70
     Davidson diagonalization with overlap
     ethr =  3.63E-03,  avg # of iterations =  3.6

     total cpu time spent up to now is      154.5 secs

     total energy              =   -6250.61118901 Ry
     Harris-Foulkes estimate   =   -6270.50494700 Ry
     estimated scf accuracy    <      53.42375602 Ry

     iteration #  3     ecut=   120.00 Ry     beta= 0.70
     Davidson diagonalization with overlap
     ethr =  3.63E-03,  avg # of iterations =  3.4

     total cpu time spent up to now is      217.8 secs

     total energy              =   -6260.91019223 Ry
     Harris-Foulkes estimate   =   -6261.18909988 Ry
     estimated scf accuracy    <       0.90582723 Ry

     iteration #  4     ecut=   120.00 Ry     beta= 0.70
     Davidson diagonalization with overlap
     ethr =  2.46E-04,  avg # of iterations =  2.7

     total cpu time spent up to now is      266.8 secs

     total energy              =   -6260.91204368 Ry
     Harris-Foulkes estimate   =   -6260.98134445 Ry
     estimated scf accuracy    <       0.22049351 Ry

     iteration #  5     ecut=   120.00 Ry     beta= 0.70
     Davidson diagonalization with overlap
     ethr =  5.99E-05,  avg # of iterations =  5.4

     total cpu time spent up to now is      325.2 secs

     total energy              =   -6260.91299816 Ry
     Harris-Foulkes estimate   =   -6260.94433469 Ry
     estimated scf accuracy    <       0.06876652 Ry

     iteration #  6     ecut=   120.00 Ry     beta= 0.70
     Davidson diagonalization with overlap
     ethr =  1.87E-05,  avg # of iterations =  5.2

     total cpu time spent up to now is      386.0 secs

     total energy              =   -6260.92820965 Ry
     Harris-Foulkes estimate   =   -6260.93046981 Ry
     estimated scf accuracy    <       0.00609278 Ry

     iteration #  7     ecut=   120.00 Ry     beta= 0.70
     Davidson diagonalization with overlap
     ethr =  1.65E-06,  avg # of iterations =  4.4

     total cpu time spent up to now is      441.1 secs

     total energy              =   -6260.92893646 Ry
     Harris-Foulkes estimate   =   -6260.92904688 Ry
     estimated scf accuracy    <       0.00020915 Ry

     iteration #  8     ecut=   120.00 Ry     beta= 0.70
     Davidson diagonalization with overlap
     ethr =  5.68E-08,  avg # of iterations =  3.0

     total cpu time spent up to now is      506.7 secs

     total energy              =   -6260.92901039 Ry
     Harris-Foulkes estimate   =   -6260.92902104 Ry
     estimated scf accuracy    <       0.00003582 Ry

     iteration #  9     ecut=   120.00 Ry     beta= 0.70
     Davidson diagonalization with overlap
     ethr =  9.73E-09,  avg # of iterations =  2.0

     total cpu time spent up to now is      558.0 secs

     total energy              =   -6260.92901208 Ry
     Harris-Foulkes estimate   =   -6260.92901547 Ry
     estimated scf accuracy    <       0.00001469 Ry

     iteration # 10     ecut=   120.00 Ry     beta= 0.70
     Davidson diagonalization with overlap
     ethr =  3.99E-09,  avg # of iterations =  2.0

     total cpu time spent up to now is      607.0 secs

     total energy              =   -6260.92901119 Ry
     Harris-Foulkes estimate   =   -6260.92901337 Ry
     estimated scf accuracy    <       0.00000517 Ry

     iteration # 11     ecut=   120.00 Ry     beta= 0.70
     Davidson diagonalization with overlap
     ethr =  1.40E-09,  avg # of iterations =  2.8

     total cpu time spent up to now is      659.0 secs

     total energy              =   -6260.92901222 Ry
     Harris-Foulkes estimate   =   -6260.92901225 Ry
     estimated scf accuracy    <       0.00000006 Ry

     iteration # 12     ecut=   120.00 Ry     beta= 0.70
     Davidson diagonalization with overlap
     ethr =  1.55E-11,  avg # of iterations =  3.0

     total cpu time spent up to now is      719.2 secs

     total energy              =   -6260.92901225 Ry
     Harris-Foulkes estimate   =   -6260.92901225 Ry
     estimated scf accuracy    <       0.00000001 Ry

     iteration # 13     ecut=   120.00 Ry     beta= 0.70
     Davidson diagonalization with overlap
     ethr =  3.05E-12,  avg # of iterations =  2.1

     total cpu time spent up to now is      767.7 secs

     End of self-consistent calculation

          k = 0.0000 0.0000 0.0000 ( 61317 PWs)   bands (ev):

   -65.8099 -65.8093 -65.8090 -65.8089 -65.8083 -65.8083 -65.8080 -65.8074
   -30.2969 -30.2907 -30.2888 -30.2888 -30.2244 -30.2203 -30.2203 -30.2019
   -30.1797 -30.1638 -30.1638 -30.1488 -30.1110 -30.1056 -30.1056 -30.0999
   -30.0982 -30.0980 -30.0882 -30.0882 -30.0123 -30.0122 -30.0075 -30.0059
   -19.9605 -19.9603 -19.9601 -19.9601 -19.9599 -19.9599 -19.9597 -19.9595
   -19.9467 -19.9466 -19.9466 -19.9464 -19.9464 -19.9461 -19.9461 -19.9461
   -19.9431 -19.9426 -19.9426 -19.9424 -19.9390 -19.9383 -19.9383 -19.9375
   -19.9350 -19.9341 -19.9341 -19.9334 -19.9296 -19.9287 -19.9287 -19.9280
   -19.9272 -19.9269 -19.9267 -19.9267 -19.9254 -19.9254 -19.9245 -19.9236
   -19.9203 -19.9203 -19.9183 -19.9183 -19.9164 -19.9164 -19.9154 -19.9153
   -19.9125 -19.9122 -19.9118 -19.9118 -19.9093 -19.9093 -19.9088 -19.9084
    -9.6846  -9.3605  -9.2582  -9.2582  -8.8472  -8.8472  -8.7872  -8.6744
    -8.6032  -8.5017  -8.4818  -8.4818  -7.7712  -7.7062  -7.5950  -7.5950
    -7.5091  -7.4415  -7.4415  -7.4042  -7.4035  -7.3873  -7.2554  -7.2554
     1.5956   1.6347   1.6509   1.6509   1.7958   1.8455   1.8455   1.9049
     2.0012   2.0012   2.0994   2.2877   2.6459   2.7387   2.7717   2.9181
     2.9788   2.9788   4.4473   4.4473   4.7785   4.7856   4.8017   4.9532
     4.9532   5.0594   5.0594   5.0706   5.3999   5.3999   5.5451   5.6258
     5.6483   5.7327   5.7327   5.8009   5.9285   5.9285   6.0370   6.0434
     6.0531   6.0531   6.0916   6.1300   6.1300   6.1987   6.2595   6.3542
     6.4403   6.6962   6.6962   6.6978   6.7554   6.7709   7.1299   7.1299
     7.1340   7.2035   7.2073   7.2745   7.2745   7.3718   7.3718   7.4002
     7.7315   7.7315   7.9450   7.9834   8.1812   8.2565   8.2565   8.4131
    10.1158  10.2016  10.5004  10.5043  10.5043  10.5417  12.4729  12.4730
    12.5560  12.6043  12.6043  12.8404  12.9012  13.0346  13.0346  13.2202
    13.3592  13.5406  13.5406  13.5826  13.9586  14.0412  14.0412  14.2959
    14.9028  15.0882  15.0882  15.1936  15.6429  15.8264  15.9816  16.1925
    16.1925  16.9515  17.2012  17.2012  17.9043

          k = 0.0000 0.0000 0.1667 ( 61237 PWs)   bands (ev):

   -65.8098 -65.8092 -65.8090 -65.8089 -65.8084 -65.8083 -65.8081 -65.8074
   -30.2950 -30.2891 -30.2868 -30.2833 -30.2264 -30.2241 -30.2197 -30.2047
   -30.1791 -30.1656 -30.1632 -30.1504 -30.1109 -30.1060 -30.1054 -30.0989
   -30.0985 -30.0925 -30.0892 -30.0830 -30.0180 -30.0124 -30.0119 -30.0070
   -19.9605 -19.9603 -19.9601 -19.9601 -19.9599 -19.9598 -19.9597 -19.9595
   -19.9467 -19.9466 -19.9466 -19.9464 -19.9464 -19.9461 -19.9461 -19.9461
   -19.9429 -19.9426 -19.9423 -19.9422 -19.9391 -19.9385 -19.9383 -19.9377
   -19.9349 -19.9342 -19.9341 -19.9335 -19.9295 -19.9288 -19.9287 -19.9281
   -19.9271 -19.9268 -19.9267 -19.9266 -19.9255 -19.9252 -19.9247 -19.9238
   -19.9202 -19.9200 -19.9185 -19.9181 -19.9166 -19.9164 -19.9155 -19.9154
   -19.9124 -19.9121 -19.9119 -19.9117 -19.9095 -19.9092 -19.9090 -19.9085
    -9.6405  -9.3093  -9.2759  -9.1970  -8.8643  -8.7983  -8.7848  -8.6529
    -8.5704  -8.4892  -8.4727  -8.4399  -7.8437  -7.7251  -7.6963  -7.6030
    -7.5139  -7.5025  -7.4483  -7.4470  -7.4077  -7.3852  -7.3653  -7.2642
     1.6267   1.6468   1.7920   1.8151   1.8296   1.8448   1.9010   1.9681
     2.0017   2.1693   2.2360   2.4173   2.7230   2.7846   2.8602   2.9691
     2.9738   3.0695   4.3419   4.4368   4.5582   4.6781   4.7147   4.7718
     4.8055   5.0089   5.0289   5.0502   5.1385   5.3729   5.5198   5.5547
     5.6625   5.6940   5.7644   5.7743   5.8483   5.8825   5.9439   6.0249
     6.0420   6.0787   6.0860   6.0903   6.1120   6.1631   6.2746   6.3760
     6.4325   6.6697   6.7275   6.7869   6.8319   6.9783   7.0278   7.0414
     7.0833   7.1366   7.1660   7.2027   7.3092   7.3341   7.3636   7.4214
     7.5714   7.6204   7.9671   7.9987   8.1701   8.2251   8.2706   8.4028
    10.3052  10.4030  10.5008  10.5788  10.7177  10.8073  12.4314  12.4976
    12.5105  12.6428  12.6602  12.8685  12.9307  12.9671  13.0605  13.2590
    13.3156  13.4842  13.5526  13.5722  13.9297  14.0431  14.0527  14.2271
    14.9068  15.0814  15.1403  15.2708  15.6649  15.8711  15.9413  16.1568
    16.4255  17.0053  17.1008  17.3635  17.9678

          k = 0.0000 0.0000 0.3333 ( 61182 PWs)   bands (ev):

   -65.8097 -65.8092 -65.8090 -65.8087 -65.8086 -65.8082 -65.8081 -65.8076
   -30.2931 -30.2901 -30.2729 -30.2687 -30.2361 -30.2340 -30.2181 -30.2106
   -30.1773 -30.1698 -30.1613 -30.1543 -30.1101 -30.1072 -30.1042 -30.1006
   -30.0969 -30.0917 -30.0765 -30.0685 -30.0337 -30.0276 -30.0110 -30.0082
   -19.9604 -19.9602 -19.9602 -19.9600 -19.9600 -19.9598 -19.9598 -19.9596
   -19.9467 -19.9466 -19.9466 -19.9465 -19.9464 -19.9462 -19.9462 -19.9461
   -19.9428 -19.9426 -19.9414 -19.9414 -19.9395 -19.9392 -19.9383 -19.9380
   -19.9348 -19.9344 -19.9340 -19.9336 -19.9294 -19.9289 -19.9286 -19.9282
   -19.9270 -19.9267 -19.9265 -19.9262 -19.9258 -19.9251 -19.9249 -19.9241
   -19.9199 -19.9192 -19.9189 -19.9175 -19.9172 -19.9162 -19.9160 -19.9157
   -19.9122 -19.9119 -19.9117 -19.9112 -19.9102 -19.9096 -19.9091 -19.9087
    -9.5337  -9.3292  -9.1763  -9.0502  -8.9197  -8.8351  -8.6149  -8.5938
    -8.5098  -8.4937  -8.3393  -8.2910  -8.0877  -7.9769  -7.7729  -7.7397
    -7.6248  -7.6188  -7.4989  -7.4619  -7.4469  -7.4190  -7.3586  -7.2887
     1.6367   1.6403   1.8445   1.8445   1.8807   1.8938   1.9851   2.0064
     2.5431   2.7232   2.7872   2.8238   2.9427   2.9771   2.9806   3.1112
     3.1802   3.3116   3.9589   4.0649   4.1734   4.2309   4.3179   4.6037
     4.7206   4.7353   4.9037   4.9047   4.9615   5.0458   5.2778   5.3310
     5.4838   5.5306   5.6119   5.7160   5.7212   5.7738   5.9017   5.9888
     5.9973   6.0889   6.1264   6.1454   6.2232   6.2691   6.3157   6.4328
     6.4789   6.5600   6.6713   6.7625   6.8118   6.8528   6.9511   6.9698
     7.0719   7.1770   7.1911   7.2517   7.3323   7.3788   7.3846   7.4649
     7.5897   7.6564   7.9289   7.9730   8.1015   8.1226   8.3054   8.3698
    10.4256  10.4869  10.9118  11.1034  11.2090  11.4322  12.1356  12.2371
    12.4363  12.6134  12.6777  12.8369  12.8398  13.0105  13.1323  13.1728
    13.3899  13.4002  13.4461  13.6036  13.8476  13.9601  14.0520  14.1268
    14.9682  15.0613  15.3324  15.4601  15.8152  15.9514  16.0289  16.0995
    16.5988  17.1200  17.5595  17.5851  17.8615

          k = 0.0000 0.0000-0.5000 ( 61148 PWs)   bands (ev):

   -65.8094 -65.8094 -65.8088 -65.8088 -65.8085 -65.8085 -65.8079 -65.8078
   -30.2915 -30.2915 -30.2538 -30.2537 -30.2499 -30.2499 -30.2152 -30.2152
   -30.1741 -30.1741 -30.1582 -30.1582 -30.1088 -30.1087 -30.1025 -30.1025
   -30.0945 -30.0945 -30.0551 -30.0551 -30.0482 -30.0481 -30.0096 -30.0096
   -19.9603 -19.9603 -19.9601 -19.9601 -19.9599 -19.9599 -19.9597 -19.9597
   -19.9467 -19.9466 -19.9466 -19.9465 -19.9463 -19.9463 -19.9462 -19.9462
   -19.9427 -19.9427 -19.9404 -19.9404 -19.9403 -19.9403 -19.9382 -19.9382
   -19.9346 -19.9346 -19.9338 -19.9338 -19.9292 -19.9291 -19.9284 -19.9284
   -19.9268 -19.9268 -19.9262 -19.9262 -19.9256 -19.9256 -19.9245 -19.9244
   -19.9195 -19.9194 -19.9182 -19.9181 -19.9167 -19.9167 -19.9160 -19.9159
   -19.9121 -19.9120 -19.9110 -19.9110 -19.9105 -19.9105 -19.9089 -19.9089
    -9.4180  -9.4180  -9.0255  -9.0254  -8.9130  -8.9130  -8.5419  -8.5418
    -8.3692  -8.3691  -8.3006  -8.3006  -8.0840  -8.0839  -8.0168  -8.0168
    -7.6524  -7.6523  -7.4816  -7.4816  -7.4341  -7.4340  -7.3231  -7.3231
     1.6376   1.6376   1.8461   1.8461   1.8885   1.8885   2.0111   2.0112
     2.8729   2.8729   3.2291   3.2291   3.3512   3.3512   3.4379   3.4380
     3.5258   3.5258   3.6164   3.6164   3.8387   3.8387   4.0440   4.0441
     4.1554   4.1555   4.8370   4.8370   4.8945   4.8946   5.3280   5.3280
     5.4917   5.4917   5.6012   5.6012   5.7097   5.7097   5.9476   5.9477
     6.1157   6.1157   6.1378   6.1378   6.2334   6.2334   6.3865   6.3865
     6.5430   6.5430   6.6264   6.6265   6.7723   6.7723   6.9018   6.9018
     7.1274   7.1274   7.1867   7.1867   7.2886   7.2887   7.7326   7.7326
     7.7774   7.7774   7.8953   7.8954   7.9462   7.9462   8.3354   8.3354
    10.4616  10.4617  11.5576  11.5576  11.7687  11.7687  11.8189  11.8189
    12.1379  12.1379  12.7400  12.7400  13.0529  13.0529  13.1706  13.1706
    13.2614  13.2614  13.6320  13.6321  13.7443  13.7444  14.0768  14.0768
    15.0273  15.0273  15.5961  15.5961  15.7634  15.7634  16.2476  16.2476
    16.8017  16.8017  18.0033  18.0033  18.3275

          k = 0.0000 0.1617 0.0000 ( 61218 PWs)   bands (ev):

   -65.8098 -65.8093 -65.8089 -65.8089 -65.8084 -65.8083 -65.8080 -65.8074
   -30.2963 -30.2910 -30.2886 -30.2886 -30.2221 -30.2192 -30.2192 -30.2028
   -30.1752 -30.1609 -30.1609 -30.1463 -30.1157 -30.1097 -30.1096 -30.1025
   -30.0996 -30.0981 -30.0884 -30.0884 -30.0123 -30.0122 -30.0074 -30.0060
   -19.9605 -19.9603 -19.9601 -19.9601 -19.9599 -19.9599 -19.9597 -19.9595
   -19.9466 -19.9466 -19.9466 -19.9464 -19.9463 -19.9461 -19.9461 -19.9461
   -19.9430 -19.9426 -19.9426 -19.9425 -19.9388 -19.9383 -19.9383 -19.9376
   -19.9346 -19.9338 -19.9338 -19.9331 -19.9299 -19.9291 -19.9291 -19.9284
   -19.9272 -19.9269 -19.9267 -19.9267 -19.9254 -19.9254 -19.9245 -19.9237
   -19.9203 -19.9203 -19.9183 -19.9183 -19.9164 -19.9164 -19.9154 -19.9153
   -19.9125 -19.9122 -19.9118 -19.9118 -19.9093 -19.9093 -19.9087 -19.9084
    -9.6522  -9.3740  -9.2264  -9.2264  -8.8374  -8.8374  -8.7109  -8.6524
    -8.6027  -8.4781  -8.4543  -8.4543  -7.7862  -7.7070  -7.6265  -7.6265
    -7.5894  -7.5140  -7.5119  -7.5119  -7.4035  -7.3890  -7.2557  -7.2557
     1.6063   1.6315   1.6573   1.6573   1.8810   1.8810   1.9244   2.0994
     2.1005   2.1843   2.1843   2.4023   2.6588   2.7635   2.8085   3.0093
     3.0582   3.0582   4.3231   4.3231   4.4632   4.4798   4.7703   4.9358
     4.9358   5.0600   5.0600   5.1470   5.3015   5.3015   5.4551   5.6455
     5.6455   5.6823   5.7677   5.8086   5.8086   5.8241   5.8834   6.0086
     6.0312   6.0312   6.0998   6.1613   6.1613   6.1781   6.3329   6.3478
     6.3831   6.6491   6.7211   6.7723   6.7723   6.7839   7.1138   7.1138
     7.1306   7.2135   7.2457   7.2812   7.2812   7.3134   7.3486   7.3486
     7.7350   7.7350   7.9449   7.9795   8.1680   8.2416   8.2416   8.3429
    10.1519  10.2049  10.6608  10.6608  10.6681  10.7069  12.4653  12.4653
    12.5608  12.5707  12.5707  12.7332  12.8613  13.0174  13.0174  13.0647
    13.3722  13.4972  13.4972  13.6108  14.0196  14.0196  14.0304  14.2175
    14.9722  15.2140  15.2140  15.3602  15.6280  15.8120  16.1858  16.1858
    16.3635  16.7477  17.3371  17.3371  17.9085

          k = 0.0000 0.1617 0.1667 ( 61183 PWs)   bands (ev):

   -65.8098 -65.8092 -65.8090 -65.8088 -65.8084 -65.8083 -65.8080 -65.8075
   -30.2945 -30.2889 -30.2870 -30.2831 -30.2243 -30.2231 -30.2186 -30.2054
   -30.1747 -30.1625 -30.1603 -30.1478 -30.1156 -30.1102 -30.1094 -30.1031
   -30.0985 -30.0926 -30.0894 -30.0832 -30.0180 -30.0124 -30.0119 -30.0070
   -19.9604 -19.9603 -19.9601 -19.9601 -19.9599 -19.9598 -19.9597 -19.9595
   -19.9466 -19.9466 -19.9466 -19.9464 -19.9464 -19.9462 -19.9461 -19.9461
   -19.9429 -19.9426 -19.9422 -19.9422 -19.9390 -19.9385 -19.9383 -19.9378
   -19.9346 -19.9339 -19.9337 -19.9332 -19.9298 -19.9291 -19.9290 -19.9285
   -19.9271 -19.9268 -19.9267 -19.9265 -19.9255 -19.9253 -19.9246 -19.9238
   -19.9202 -19.9200 -19.9185 -19.9181 -19.9166 -19.9164 -19.9155 -19.9154
   -19.9124 -19.9121 -19.9119 -19.9117 -19.9095 -19.9092 -19.9089 -19.9086
    -9.6072  -9.3226  -9.2438  -9.1607  -8.8559  -8.7744  -8.7218  -8.6280
    -8.5691  -8.4610  -8.4542  -8.4179  -7.8495  -7.7334  -7.7051  -7.6334
    -7.5932  -7.5521  -7.5230  -7.5167  -7.4931  -7.3858  -7.3638  -7.2646
     1.6373   1.6540   1.8001   1.8633   1.8870   1.9706   2.0602   2.1087
     2.1841   2.2361   2.2543   2.4835   2.7424   2.8499   2.8528   3.0456
     3.0679   3.1467   4.2644   4.3227   4.4579   4.4977   4.6028   4.6629
     4.7414   4.9650   5.0091   5.0372   5.1069   5.3031   5.4203   5.4756
     5.5805   5.6816   5.7150   5.7704   5.8092   5.8346   5.8941   5.9181
     5.9572   6.0390   6.0603   6.1209   6.1522   6.1603   6.2474   6.3365
     6.4785   6.6573   6.7553   6.7916   6.8500   6.9704   7.0477   7.0558
     7.0980   7.1693   7.1792   7.2330   7.2853   7.3312   7.3578   7.4048
     7.5652   7.6295   7.9641   7.9959   8.1610   8.2117   8.2459   8.3361
    10.3719  10.4286  10.6584  10.7150  10.8444  10.9331  12.4347  12.4542
    12.5288  12.6220  12.6495  12.7714  12.8824  12.9664  13.0279  13.1186
    13.2878  13.4510  13.5053  13.5832  13.9265  14.0201  14.0529  14.1643
    15.0143  15.2078  15.3015  15.4176  15.6541  15.8672  16.1397  16.3395
    16.4164  16.8944  17.1365  17.4701  17.9655

          k = 0.0000 0.1617 0.3333 ( 61249 PWs)   bands (ev):

   -65.8096 -65.8091 -65.8091 -65.8087 -65.8086 -65.8082 -65.8081 -65.8077
   -30.2928 -30.2899 -30.2728 -30.2683 -30.2353 -30.2326 -30.2171 -30.2108
   -30.1730 -30.1662 -30.1584 -30.1515 -30.1148 -30.1116 -30.1083 -30.1047
   -30.0969 -30.0918 -30.0766 -30.0685 -30.0337 -30.0275 -30.0110 -30.0082
   -19.9604 -19.9602 -19.9602 -19.9600 -19.9600 -19.9598 -19.9598 -19.9596
   -19.9466 -19.9466 -19.9466 -19.9464 -19.9464 -19.9462 -19.9462 -19.9461
   -19.9428 -19.9426 -19.9414 -19.9414 -19.9395 -19.9392 -19.9383 -19.9380
   -19.9344 -19.9340 -19.9336 -19.9333 -19.9297 -19.9293 -19.9289 -19.9286
   -19.9270 -19.9267 -19.9266 -19.9262 -19.9258 -19.9250 -19.9249 -19.9241
   -19.9199 -19.9192 -19.9189 -19.9175 -19.9172 -19.9162 -19.9160 -19.9157
   -19.9122 -19.9119 -19.9117 -19.9112 -19.9102 -19.9096 -19.9091 -19.9087
    -9.4992  -9.2965  -9.1868  -8.9987  -8.9155  -8.7601  -8.6060  -8.5600
    -8.4941  -8.4779  -8.3340  -8.2829  -8.0885  -7.9794  -7.7791  -7.7519
    -7.6466  -7.6270  -7.5820  -7.5484  -7.5346  -7.5171  -7.3591  -7.2891
     1.6498   1.6501   1.8964   1.9152   2.0613   2.0832   2.1565   2.1817
     2.5467   2.7321   2.7894   2.8997   2.9568   3.0000   3.0364   3.1064
     3.2688   3.3790   3.9619   4.0776   4.1567   4.1928   4.3328   4.5249
     4.5485   4.6920   4.7096   4.7992   4.9453   5.0006   5.1500   5.2982
     5.3098   5.4196   5.5018   5.6681   5.6926   5.7608   5.7785   5.9341
     5.9681   5.9979   6.0227   6.1300   6.1521   6.2266   6.3091   6.3370
     6.5704   6.6235   6.6698   6.8202   6.8941   6.9457   6.9815   7.0545
     7.0919   7.1561   7.1911   7.2507   7.3184   7.3856   7.3963   7.4822
     7.5942   7.6694   7.9250   7.9728   8.1020   8.1143   8.2650   8.3104
    10.5928  10.6493  10.9396  11.1328  11.3076  11.4981  12.1394  12.2579
    12.4557  12.6162  12.6849  12.8092  12.8308  12.9005  13.0783  13.0842
    13.2813  13.3601  13.4381  13.5477  13.7682  13.8971  14.0302  14.1079
    15.1076  15.1868  15.5045  15.6356  15.9309  16.0395  16.1259  16.2510
    16.6933  17.1036  17.3565  17.6460  17.8961

          k = 0.0000 0.1617-0.5000 ( 61194 PWs)   bands (ev):

   -65.8094 -65.8094 -65.8088 -65.8088 -65.8084 -65.8084 -65.8079 -65.8079
   -30.2913 -30.2912 -30.2535 -30.2534 -30.2492 -30.2492 -30.2147 -30.2146
   -30.1701 -30.1701 -30.1554 -30.1554 -30.1133 -30.1133 -30.1067 -30.1066
   -30.0946 -30.0946 -30.0551 -30.0551 -30.0482 -30.0482 -30.0096 -30.0096
   -19.9603 -19.9603 -19.9601 -19.9601 -19.9599 -19.9598 -19.9597 -19.9597
   -19.9466 -19.9466 -19.9466 -19.9465 -19.9463 -19.9463 -19.9462 -19.9462
   -19.9427 -19.9427 -19.9404 -19.9403 -19.9403 -19.9403 -19.9382 -19.9382
   -19.9343 -19.9342 -19.9335 -19.9335 -19.9295 -19.9295 -19.9288 -19.9288
   -19.9269 -19.9268 -19.9262 -19.9262 -19.9256 -19.9256 -19.9245 -19.9245
   -19.9195 -19.9194 -19.9182 -19.9181 -19.9167 -19.9167 -19.9160 -19.9159
   -19.9121 -19.9120 -19.9110 -19.9110 -19.9105 -19.9105 -19.9089 -19.9089
    -9.3840  -9.3840  -9.0288  -9.0288  -8.8442  -8.8441  -8.5086  -8.5085
    -8.3677  -8.3677  -8.3007  -8.3007  -8.0846  -8.0846  -8.0190  -8.0189
    -7.6695  -7.6695  -7.5603  -7.5603  -7.5356  -7.5355  -7.3235  -7.3235
     1.6498   1.6498   1.9109   1.9110   2.0813   2.0813   2.1821   2.1821
     2.9477   2.9477   3.2400   3.2401   3.3463   3.3463   3.4819   3.4819
     3.5282   3.5282   3.6206   3.6206   3.8544   3.8544   4.0804   4.0804
     4.1647   4.1647   4.5952   4.5952   4.8381   4.8381   5.1010   5.1010
     5.3992   5.3992   5.5588   5.5589   5.6553   5.6554   5.8541   5.8541
     5.9653   5.9653   6.1306   6.1307   6.1813   6.1813   6.3127   6.3127
     6.5899   6.5899   6.7500   6.7500   6.8578   6.8578   6.9905   6.9905
     7.1351   7.1351   7.1610   7.1610   7.3081   7.3081   7.7321   7.7322
     7.7747   7.7747   7.9043   7.9043   7.9497   7.9497   8.2850   8.2851
    10.6322  10.6322  11.5747  11.5747  11.7891  11.7891  11.8799  11.8800
    12.1748  12.1748  12.7406  12.7406  12.9433  12.9433  13.1422  13.1422
    13.2235  13.2236  13.5169  13.5170  13.6826  13.6826  14.0546  14.0547
    15.1547  15.1547  15.7347  15.7347  16.0250  16.0250  16.3084  16.3085
    16.8403  16.8404  17.9164  17.9164  18.2014

          k = 0.0000 0.3234 0.0000 ( 61226 PWs)   bands (ev):

   -65.8097 -65.8094 -65.8088 -65.8088 -65.8085 -65.8085 -65.8078 -65.8075
   -30.2949 -30.2919 -30.2882 -30.2882 -30.2170 -30.2170 -30.2164 -30.2055
   -30.1630 -30.1525 -30.1525 -30.1387 -30.1286 -30.1206 -30.1206 -30.1131
   -30.0994 -30.0985 -30.0887 -30.0887 -30.0123 -30.0123 -30.0071 -30.0063
   -19.9604 -19.9603 -19.9601 -19.9601 -19.9599 -19.9599 -19.9596 -19.9595
   -19.9466 -19.9466 -19.9465 -19.9464 -19.9463 -19.9462 -19.9461 -19.9461
   -19.9429 -19.9426 -19.9425 -19.9425 -19.9386 -19.9383 -19.9383 -19.9379
   -19.9336 -19.9329 -19.9328 -19.9322 -19.9309 -19.9301 -19.9301 -19.9295
   -19.9272 -19.9270 -19.9267 -19.9266 -19.9255 -19.9255 -19.9243 -19.9239
   -19.9203 -19.9203 -19.9183 -19.9183 -19.9164 -19.9164 -19.9154 -19.9153
   -19.9124 -19.9123 -19.9118 -19.9118 -19.9093 -19.9093 -19.9087 -19.9085
    -9.5727  -9.4151  -9.1650  -9.1650  -8.8136  -8.8136  -8.6181  -8.6022
    -8.4963  -8.3693  -8.3485  -8.3485  -7.9215  -7.8383  -7.8383  -7.7957
    -7.7092  -7.6943  -7.5552  -7.5552  -7.4012  -7.3929  -7.2565  -7.2565
     1.6135   1.6248   1.6602   1.6602   1.8941   1.8941   2.0598   2.0981
     2.6054   2.6824   2.7419   2.7502   2.7502   2.9288   3.0112   3.3068
     3.3069   3.3128   3.9503   3.9863   3.9863   4.0031   4.3730   4.7906
     4.7907   4.9482   4.9482   5.0668   5.0807   5.0807   5.3110   5.4134
     5.4241   5.4241   5.6730   5.7275   5.7275   5.7895   5.8282   5.9906
     6.0494   6.0494   6.0578   6.1393   6.1393   6.2565   6.3104   6.3421
     6.5268   6.5912   6.6419   6.7919   6.7919   6.8024   7.1921   7.2123
     7.2123   7.2196   7.2736   7.2736   7.3667   7.3714   7.4315   7.4315
     7.7470   7.7470   7.9274   7.9670   8.0761   8.1347   8.1347   8.1431
    10.1933  10.2090  11.0771  11.0912  11.0912  11.2203  12.2650  12.2650
    12.3238  12.4817  12.5237  12.5237  12.7681  12.8491  12.9978  12.9978
    13.4366  13.4911  13.4911  13.6324  13.8591  13.8591  13.9883  14.0468
    15.2046  15.5097  15.5098  15.5856  15.7553  16.0596  16.1606  16.1606
    16.3186  17.2673  17.5861  17.8034  17.8034

          k = 0.0000 0.3234 0.1667 ( 61233 PWs)   bands (ev):

   -65.8097 -65.8094 -65.8089 -65.8087 -65.8085 -65.8084 -65.8079 -65.8076
   -30.2935 -30.2886 -30.2874 -30.2826 -30.2214 -30.2189 -30.2165 -30.2078
   -30.1626 -30.1535 -30.1518 -30.1401 -30.1283 -30.1214 -30.1203 -30.1139
   -30.0984 -30.0928 -30.0897 -30.0834 -30.0180 -30.0123 -30.0119 -30.0071
   -19.9604 -19.9603 -19.9601 -19.9600 -19.9599 -19.9599 -19.9597 -19.9596
   -19.9466 -19.9466 -19.9465 -19.9464 -19.9463 -19.9462 -19.9461 -19.9461
   -19.9428 -19.9426 -19.9423 -19.9422 -19.9387 -19.9385 -19.9383 -19.9380
   -19.9336 -19.9329 -19.9328 -19.9322 -19.9308 -19.9302 -19.9301 -19.9295
   -19.9271 -19.9269 -19.9267 -19.9265 -19.9256 -19.9253 -19.9245 -19.9240
   -19.9202 -19.9200 -19.9185 -19.9181 -19.9166 -19.9164 -19.9155 -19.9154
   -19.9124 -19.9122 -19.9119 -19.9117 -19.9095 -19.9092 -19.9089 -19.9086
    -9.5260  -9.3630  -9.1815  -9.0895  -8.8351  -8.7463  -8.5899  -8.5631
    -8.5070  -8.3585  -8.3541  -8.3274  -7.9328  -7.8510  -7.8407  -7.8058
    -7.7871  -7.6922  -7.6579  -7.5643  -7.4995  -7.3869  -7.3643  -7.2653
     1.6408   1.6573   1.7989   1.8802   1.9002   2.1166   2.1433   2.2851
     2.6165   2.7325   2.7467   2.7819   2.8299   2.9227   3.0628   3.2883
     3.3702   3.3853   3.9619   3.9724   3.9992   4.0758   4.3403   4.6252
     4.6472   4.7832   4.8315   4.9369   5.0214   5.0851   5.1712   5.2145
     5.3845   5.4060   5.4771   5.6145   5.6697   5.7793   5.8465   5.9288
     5.9602   5.9853   6.0149   6.0224   6.1415   6.1477   6.2377   6.3256
     6.5995   6.6382   6.7373   6.8024   6.8912   6.9709   7.0892   7.1916
     7.1953   7.2632   7.2840   7.3004   7.3833   7.3918   7.4220   7.4550
     7.5863   7.6513   7.9402   7.9831   8.0778   8.1158   8.1280   8.1452
    10.4215  10.4731  11.0907  11.1231  11.2310  11.3422  12.2479  12.3242
    12.3627  12.4592  12.5383  12.6028  12.8092  12.8836  12.9492  13.0336
    13.2975  13.4366  13.4944  13.5814  13.7529  13.8594  13.9340  14.0344
    15.2764  15.4936  15.6127  15.6656  15.8346  16.1130  16.1363  16.3817
    16.4732  17.2327  17.5479  17.6547  17.8883

          k = 0.0000 0.3234 0.3333 ( 61234 PWs)   bands (ev):

   -65.8095 -65.8092 -65.8090 -65.8087 -65.8086 -65.8082 -65.8081 -65.8078
   -30.2922 -30.2895 -30.2727 -30.2677 -30.2341 -30.2296 -30.2152 -30.2112
   -30.1612 -30.1560 -30.1500 -30.1434 -30.1274 -30.1233 -30.1194 -30.1158
   -30.0969 -30.0920 -30.0767 -30.0686 -30.0337 -30.0275 -30.0110 -30.0082
   -19.9603 -19.9602 -19.9602 -19.9600 -19.9599 -19.9598 -19.9597 -19.9596
   -19.9466 -19.9466 -19.9466 -19.9464 -19.9464 -19.9462 -19.9462 -19.9462
   -19.9427 -19.9426 -19.9415 -19.9413 -19.9393 -19.9392 -19.9383 -19.9381
   -19.9335 -19.9331 -19.9327 -19.9324 -19.9307 -19.9303 -19.9300 -19.9297
   -19.9270 -19.9267 -19.9267 -19.9261 -19.9259 -19.9250 -19.9249 -19.9242
   -19.9199 -19.9192 -19.9189 -19.9175 -19.9172 -19.9162 -19.9160 -19.9157
   -19.9122 -19.9119 -19.9117 -19.9112 -19.9102 -19.9096 -19.9091 -19.9087
    -9.4194  -9.2330  -9.2157  -8.9053  -8.8876  -8.5782  -8.5440  -8.5033
    -8.4604  -8.3697  -8.2958  -8.2410  -8.0975  -8.0047  -7.8858  -7.8619
    -7.8166  -7.7910  -7.7370  -7.6822  -7.6050  -7.5882  -7.3600  -7.2899
     1.6541   1.6557   1.9144   1.9310   2.4538   2.5505   2.6035   2.7002
     2.7705   2.8087   2.8448   3.0062   3.0273   3.0782   3.1617   3.2723
     3.5345   3.5653   3.9051   3.9582   3.9929   4.0865   4.1328   4.2357
     4.3162   4.5046   4.5597   4.7189   4.7754   4.8513   4.9120   4.9508
     5.1449   5.2284   5.3005   5.3843   5.4322   5.5442   5.5986   5.6509
     5.7468   5.8528   5.9075   6.0058   6.1564   6.2352   6.3063   6.3435
     6.6907   6.7217   6.7534   6.8269   6.9455   7.0776   7.1421   7.1646
     7.2338   7.2659   7.3085   7.3477   7.3636   7.4162   7.4489   7.5245
     7.6510   7.7077   7.9025   7.9687   8.0421   8.0524   8.1210   8.1335
    10.9158  11.0145  11.1050  11.2495  11.6049  11.7465  12.1227  12.2415
    12.4024  12.4731  12.5680  12.6504  12.7600  12.8208  12.8813  13.0436
    13.1356  13.2203  13.4261  13.5099  13.5300  13.7893  13.8670  13.9734
    15.3251  15.4465  15.7719  16.0138  16.1484  16.2953  16.3411  16.9107
    17.0132  17.1192  17.1567  17.7945  17.8088

          k = 0.0000 0.3234-0.5000 ( 61274 PWs)   bands (ev):

   -65.8093 -65.8093 -65.8090 -65.8089 -65.8083 -65.8083 -65.8080 -65.8080
   -30.2908 -30.2908 -30.2529 -30.2528 -30.2479 -30.2478 -30.2134 -30.2134
   -30.1589 -30.1588 -30.1471 -30.1470 -30.1256 -30.1256 -30.1178 -30.1177
   -30.0947 -30.0946 -30.0552 -30.0552 -30.0482 -30.0482 -30.0096 -30.0096
   -19.9603 -19.9602 -19.9601 -19.9601 -19.9598 -19.9598 -19.9598 -19.9597
   -19.9466 -19.9466 -19.9465 -19.9465 -19.9464 -19.9463 -19.9462 -19.9462
   -19.9427 -19.9426 -19.9404 -19.9403 -19.9402 -19.9402 -19.9382 -19.9382
   -19.9333 -19.9333 -19.9326 -19.9325 -19.9305 -19.9305 -19.9298 -19.9298
   -19.9268 -19.9268 -19.9263 -19.9263 -19.9256 -19.9255 -19.9246 -19.9246
   -19.9195 -19.9194 -19.9182 -19.9181 -19.9167 -19.9167 -19.9160 -19.9159
   -19.9121 -19.9120 -19.9111 -19.9110 -19.9105 -19.9105 -19.9089 -19.9089
    -9.3118  -9.3118  -9.0382  -9.0382  -8.6641  -8.6640  -8.4057  -8.4057
    -8.3561  -8.3561  -8.3008  -8.3008  -8.0883  -8.0882  -8.0323  -8.0322
    -7.8367  -7.8367  -7.7764  -7.7763  -7.6209  -7.6209  -7.3244  -7.3243
     1.6552   1.6552   1.9314   1.9314   2.6124   2.6125   2.7688   2.7689
     3.1583   3.1584   3.2718   3.2718   3.3339   3.3339   3.5255   3.5255
     3.5720   3.5720   3.6371   3.6371   3.8873   3.8873   4.0109   4.0109
     4.1934   4.1934   4.3327   4.3327   4.5531   4.5531   4.6684   4.6684
     5.1737   5.1737   5.2676   5.2676   5.4453   5.4454   5.5575   5.5575
     5.7015   5.7015   5.9860   5.9860   6.2444   6.2444   6.3025   6.3025
     6.7072   6.7072   6.8293   6.8293   6.9504   6.9504   7.0741   7.0742
     7.3214   7.3214   7.3438   7.3439   7.3759   7.3759   7.7189   7.7189
     7.7750   7.7750   7.9002   7.9002   7.9343   7.9343   8.1218   8.1219
    11.0766  11.0766  11.6135  11.6135  11.8184  11.8184  12.0581  12.0581
    12.3150  12.3151  12.5145  12.5145  12.8341  12.8341  12.9439  12.9440
    13.1479  13.1479  13.2902  13.2902  13.6227  13.6227  13.8969  13.8969
    15.3770  15.3770  15.9115  15.9116  16.6382  16.6383  16.8157  16.8157
    16.9718  16.9718  17.6460  17.6460  18.0208

          k = 0.0000-0.4851 0.0000 ( 61266 PWs)   bands (ev):

   -65.8096 -65.8096 -65.8087 -65.8087 -65.8086 -65.8086 -65.8077 -65.8077
   -30.2933 -30.2933 -30.2880 -30.2880 -30.2159 -30.2159 -30.2102 -30.2102
   -30.1460 -30.1459 -30.1437 -30.1437 -30.1306 -30.1306 -30.1267 -30.1267
   -30.0989 -30.0989 -30.0888 -30.0888 -30.0123 -30.0123 -30.0067 -30.0067
   -19.9604 -19.9604 -19.9601 -19.9601 -19.9599 -19.9599 -19.9596 -19.9596
   -19.9466 -19.9466 -19.9465 -19.9465 -19.9462 -19.9462 -19.9461 -19.9461
   -19.9427 -19.9427 -19.9425 -19.9425 -19.9383 -19.9382 -19.9382 -19.9382
   -19.9322 -19.9322 -19.9316 -19.9316 -19.9314 -19.9314 -19.9309 -19.9309
   -19.9271 -19.9271 -19.9266 -19.9266 -19.9255 -19.9255 -19.9241 -19.9241
   -19.9203 -19.9203 -19.9183 -19.9183 -19.9164 -19.9164 -19.9153 -19.9153
   -19.9124 -19.9124 -19.9118 -19.9118 -19.9093 -19.9093 -19.9086 -19.9086
    -9.4842  -9.4842  -9.1366  -9.1366  -8.7996  -8.7996  -8.6046  -8.6045
    -8.2005  -8.2005  -8.1456  -8.1456  -8.1291  -8.1291  -8.1106  -8.1106
    -7.7100  -7.7100  -7.5594  -7.5594  -7.3975  -7.3975  -7.2568  -7.2568
     1.6184   1.6184   1.6604   1.6604   1.8962   1.8963   2.0909   2.0910
     2.7112   2.7112   3.1307   3.1307   3.2059   3.2059   3.5877   3.5877
     3.6560   3.6560   3.6638   3.6638   3.7992   3.7992   4.0889   4.0889
     4.1040   4.1040   4.9397   4.9397   5.0445   5.0445   5.5162   5.5162
     5.5498   5.5498   5.5860   5.5860   5.6187   5.6187   5.8869   5.8869
     6.0688   6.0688   6.0830   6.0830   6.1914   6.1914   6.3248   6.3248
     6.5522   6.5522   6.6943   6.6943   6.7724   6.7724   7.1913   7.1913
     7.2034   7.2034   7.2773   7.2773   7.6151   7.6151   7.6490   7.6490
     7.8028   7.8028   7.8491   7.8491   7.9543   7.9543   8.0060   8.0060
    10.2078  10.2079  11.5152  11.5152  11.5884  11.5884  11.9058  11.9058
    12.0215  12.0215  12.5270  12.5270  12.7850  12.7850  12.9981  12.9981
    13.5689  13.5689  13.6137  13.6137  13.6481  13.6481  13.9277  13.9277
    15.4710  15.4710  15.6626  15.6626  15.9283  15.9283  16.1371  16.1371
    16.8844  16.8844  18.2779  18.2779  18.4650

          k = 0.0000-0.4851 0.1667 ( 61206 PWs)   bands (ev):

   -65.8095 -65.8095 -65.8088 -65.8086 -65.8086 -65.8085 -65.8078 -65.8078
   -30.2929 -30.2884 -30.2877 -30.2824 -30.2204 -30.2155 -30.2147 -30.2105
   -30.1460 -30.1452 -30.1439 -30.1430 -30.1320 -30.1304 -30.1285 -30.1270
   -30.0984 -30.0929 -30.0897 -30.0834 -30.0180 -30.0123 -30.0119 -30.0071
   -19.9604 -19.9603 -19.9601 -19.9600 -19.9599 -19.9599 -19.9596 -19.9596
   -19.9466 -19.9466 -19.9465 -19.9465 -19.9463 -19.9462 -19.9461 -19.9461
   -19.9427 -19.9425 -19.9424 -19.9422 -19.9385 -19.9384 -19.9383 -19.9382
   -19.9322 -19.9322 -19.9316 -19.9315 -19.9315 -19.9314 -19.9309 -19.9309
   -19.9271 -19.9270 -19.9267 -19.9265 -19.9256 -19.9253 -19.9243 -19.9242
   -19.9202 -19.9200 -19.9185 -19.9181 -19.9167 -19.9164 -19.9155 -19.9154
   -19.9123 -19.9122 -19.9119 -19.9117 -19.9096 -19.9092 -19.9089 -19.9086
    -9.4496  -9.4188  -9.1523  -9.0564  -8.8228  -8.7284  -8.5813  -8.5574
    -8.2079  -8.2077  -8.1559  -8.1399  -8.1350  -8.1233  -8.1143  -8.0996
    -7.8084  -7.7012  -7.6688  -7.5684  -7.5002  -7.3874  -7.3646  -7.2657
     1.6408   1.6576   1.7979   1.8822   1.9020   2.1217   2.1660   2.2980
     2.7947   2.8006   3.1295   3.1332   3.2347   3.2581   3.5643   3.5800
     3.5915   3.6602   3.6707   3.7391   3.8349   3.8798   4.0677   4.1169
     4.1235   4.1415   4.6450   4.6606   4.9451   4.9771   5.3064   5.3282
     5.4086   5.4103   5.5092   5.5468   5.5493   5.6630   5.7903   5.8792
     5.9151   5.9806   6.0054   6.0255   6.0789   6.1479   6.2515   6.3206
     6.6249   6.6487   6.7073   6.7849   6.8771   6.9564   7.0997   7.1730
     7.2231   7.2922   7.3040   7.3591   7.5027   7.5590   7.6234   7.6264
     7.7355   7.7655   7.8580   7.8700   7.9424   7.9482   8.0194   8.0272
    10.4313  10.4868  11.5165  11.5868  11.6167  11.7078  11.9043  11.9984
    12.0225  12.1151  12.4739  12.5836  12.8527  12.8803  12.8941  13.0291
    13.4235  13.4912  13.5309  13.5453  13.6150  13.6497  13.8568  13.9446
    15.4364  15.5941  15.6394  15.8509  16.0271  16.0649  16.1549  16.3411
    16.9324  16.9442  18.0857  18.2212  18.3200

          k = 0.0000-0.4851 0.3333 ( 61246 PWs)   bands (ev):

   -65.8094 -65.8093 -65.8089 -65.8088 -65.8084 -65.8084 -65.8079 -65.8079
   -30.2919 -30.2893 -30.2726 -30.2673 -30.2335 -30.2280 -30.2143 -30.2115
   -30.1459 -30.1446 -30.1430 -30.1408 -30.1356 -30.1328 -30.1298 -30.1278
   -30.0969 -30.0921 -30.0768 -30.0687 -30.0337 -30.0275 -30.0110 -30.0082
   -19.9603 -19.9602 -19.9602 -19.9600 -19.9599 -19.9598 -19.9597 -19.9597
   -19.9466 -19.9466 -19.9465 -19.9465 -19.9464 -19.9462 -19.9462 -19.9462
   -19.9427 -19.9426 -19.9415 -19.9413 -19.9393 -19.9392 -19.9383 -19.9382
   -19.9321 -19.9320 -19.9318 -19.9316 -19.9314 -19.9313 -19.9311 -19.9310
   -19.9269 -19.9267 -19.9267 -19.9261 -19.9259 -19.9250 -19.9248 -19.9243
   -19.9199 -19.9192 -19.9189 -19.9175 -19.9172 -19.9162 -19.9160 -19.9157
   -19.9122 -19.9119 -19.9118 -19.9112 -19.9102 -19.9096 -19.9091 -19.9087
    -9.3657  -9.2480  -9.1976  -8.8988  -8.8322  -8.5404  -8.5021  -8.4185
    -8.2748  -8.2368  -8.1813  -8.1548  -8.1257  -8.1249  -8.1105  -8.0621
    -8.0132  -7.9087  -7.7530  -7.6977  -7.6082  -7.5931  -7.3604  -7.2903
     1.6545   1.6561   1.9171   1.9326   2.4924   2.6898   2.7004   2.8837
     3.0326   3.0454   3.1377   3.1499   3.3248   3.3749   3.4751   3.5722
     3.5901   3.6393   3.6945   3.7271   3.9148   4.0184   4.0674   4.1108
     4.1198   4.1843   4.2013   4.2190   4.6150   4.6942   4.8346   4.9395
     4.9687   5.1100   5.2002   5.2272   5.4193   5.5436   5.5511   5.5965
     5.6315   5.7959   5.8892   5.9028   6.1456   6.2622   6.3091   6.3502
     6.7118   6.7433   6.7457   6.8295   6.9305   7.1048   7.1195   7.2459
     7.2872   7.3204   7.3517   7.4433   7.4975   7.5516   7.6114   7.6511
     7.7471   7.7895   7.8439   7.8938   7.9243   7.9374   8.0014   8.0057
    10.9602  11.0966  11.5202  11.5916  11.8941  11.9002  11.9943  12.0881
    12.2149  12.2604  12.3652  12.4998  12.7550  12.8343  12.9146  13.0209
    13.1232  13.2007  13.2588  13.4161  13.6277  13.6630  13.7652  13.8635
    15.3997  15.5596  15.8146  16.0452  16.3308  16.6454  16.6537  16.9341
    17.0786  17.1336  17.7042  17.7707  18.0692

          k = 0.0000-0.4851-0.5000 ( 61260 PWs)   bands (ev):

   -65.8092 -65.8091 -65.8091 -65.8091 -65.8082 -65.8082 -65.8081 -65.8081
   -30.2906 -30.2906 -30.2526 -30.2526 -30.2472 -30.2472 -30.2128 -30.2128
   -30.1454 -30.1453 -30.1397 -30.1396 -30.1373 -30.1372 -30.1288 -30.1288
   -30.0947 -30.0947 -30.0552 -30.0552 -30.0482 -30.0482 -30.0096 -30.0096
   -19.9603 -19.9602 -19.9601 -19.9601 -19.9598 -19.9598 -19.9598 -19.9597
   -19.9466 -19.9465 -19.9465 -19.9465 -19.9464 -19.9464 -19.9462 -19.9462
   -19.9427 -19.9426 -19.9404 -19.9403 -19.9402 -19.9402 -19.9383 -19.9382
   -19.9320 -19.9319 -19.9319 -19.9318 -19.9312 -19.9312 -19.9312 -19.9312
   -19.9268 -19.9268 -19.9263 -19.9263 -19.9255 -19.9255 -19.9246 -19.9246
   -19.9195 -19.9194 -19.9182 -19.9181 -19.9167 -19.9167 -19.9160 -19.9159
   -19.9120 -19.9120 -19.9111 -19.9110 -19.9105 -19.9105 -19.9089 -19.9089
    -9.2729  -9.2729  -9.0451  -9.0451  -8.5252  -8.5251  -8.3480  -8.3480
    -8.3263  -8.3263  -8.2436  -8.2436  -8.1137  -8.1137  -8.0753  -8.0752
    -8.0021  -8.0020  -7.9158  -7.9157  -7.6258  -7.6258  -7.3248  -7.3247
     1.6557   1.6558   1.9341   1.9341   3.0394   3.0394   3.2636   3.2636
     3.3075   3.3075   3.3487   3.3487   3.4126   3.4126   3.5293   3.5293
     3.5708   3.5708   3.6791   3.6792   3.7527   3.7527   3.8168   3.8168
     4.0341   4.0341   4.1807   4.1807   4.5697   4.5697   4.6465   4.6465
     4.6974   4.6974   4.7985   4.7986   5.4758   5.4759   5.5569   5.5569
     5.6746   5.6747   5.8777   5.8777   6.2823   6.2823   6.2892   6.2893
     6.7204   6.7204   6.8304   6.8304   6.9802   6.9802   7.0654   7.0654
     7.4401   7.4401   7.4840   7.4840   7.6081   7.6081   7.6809   7.6809
     7.7872   7.7872   7.8683   7.8683   7.9070   7.9070   7.9534   7.9534
    11.4337  11.4337  11.7197  11.7197  11.7637  11.7637  12.0328  12.0328
    12.4024  12.4024  12.5100  12.5100  12.6837  12.6837  12.7737  12.7738
    13.0139  13.0140  13.2643  13.2643  13.6775  13.6775  13.7246  13.7246
    15.4586  15.4586  15.9490  15.9490  17.0325  17.0326  17.2899  17.2899
    17.3955  17.3956  17.5656  17.5656  17.6926

          k = 0.1667 0.0000 0.1667 ( 61202 PWs)   bands (ev):

   -65.8098 -65.8091 -65.8090 -65.8089 -65.8083 -65.8083 -65.8081 -65.8075
   -30.2912 -30.2848 -30.2837 -30.2835 -30.2281 -30.2236 -30.2236 -30.2076
   -30.1785 -30.1650 -30.1649 -30.1521 -30.1108 -30.1060 -30.1056 -30.0996
   -30.0930 -30.0914 -30.0841 -30.0838 -30.0177 -30.0176 -30.0135 -30.0119
   -19.9604 -19.9602 -19.9601 -19.9601 -19.9599 -19.9599 -19.9597 -19.9596
   -19.9467 -19.9467 -19.9466 -19.9464 -19.9464 -19.9462 -19.9461 -19.9461
   -19.9427 -19.9423 -19.9423 -19.9420 -19.9392 -19.9386 -19.9385 -19.9378
   -19.9349 -19.9342 -19.9341 -19.9335 -19.9295 -19.9288 -19.9287 -19.9281
   -19.9270 -19.9267 -19.9266 -19.9266 -19.9254 -19.9253 -19.9248 -19.9239
   -19.9199 -19.9198 -19.9183 -19.9182 -19.9166 -19.9166 -19.9157 -19.9155
   -19.9123 -19.9120 -19.9117 -19.9117 -19.9095 -19.9095 -19.9091 -19.9087
    -9.5941  -9.2565  -9.2166  -9.2131  -8.8108  -8.8031  -8.7979  -8.6347
    -8.5323  -8.4534  -8.4509  -8.4430  -7.8545  -7.8032  -7.7070  -7.7043
    -7.5165  -7.5044  -7.4876  -7.4522  -7.4516  -7.4120  -7.3756  -7.3685
     1.7609   1.8044   1.8045   1.8805   1.8968   1.9167   1.9663   1.9686
     2.1747   2.1787   2.3369   2.4824   2.7975   2.8490   2.9529   3.0074
     3.0513   3.0796   4.3106   4.3647   4.5515   4.5633   4.6802   4.7019
     4.7661   4.8165   4.8554   4.9798   5.0970   5.1728   5.4383   5.4690
     5.5601   5.6621   5.6643   5.7746   5.7992   5.8222   5.9081   5.9523
     6.0015   6.0427   6.0434   6.0706   6.1019   6.1845   6.2090   6.4180
     6.4901   6.7574   6.7631   6.8260   6.9153   6.9267   7.0353   7.0368
     7.0652   7.0711   7.1289   7.1885   7.2352   7.2963   7.3801   7.4218
     7.5679   7.5737   7.9756   7.9955   8.1600   8.2221   8.2652   8.3895
    10.4939  10.5016  10.6892  10.7288  10.8408  10.9098  12.4647  12.4865
    12.5388  12.5553  12.7118  12.8630  12.9672  12.9915  13.0165  13.2811
    13.3156  13.4373  13.5491  13.5631  13.9233  13.9748  14.0909  14.1504
    14.9173  15.1319  15.1341  15.3619  15.6894  15.9122  15.9443  16.3671
    16.3896  17.1237  17.1693  17.2670  18.0214

          k = 0.1667 0.0000 0.3333 ( 61212 PWs)   bands (ev):

   -65.8096 -65.8091 -65.8090 -65.8088 -65.8085 -65.8083 -65.8081 -65.8077
   -30.2878 -30.2847 -30.2723 -30.2690 -30.2359 -30.2345 -30.2220 -30.2142
   -30.1767 -30.1692 -30.1631 -30.1561 -30.1100 -30.1071 -30.1047 -30.1012
   -30.0908 -30.0862 -30.0761 -30.0692 -30.0333 -30.0281 -30.0167 -30.0138
   -19.9604 -19.9602 -19.9602 -19.9600 -19.9599 -19.9598 -19.9598 -19.9596
   -19.9467 -19.9467 -19.9466 -19.9465 -19.9464 -19.9462 -19.9462 -19.9462
   -19.9425 -19.9423 -19.9414 -19.9413 -19.9396 -19.9392 -19.9385 -19.9382
   -19.9348 -19.9343 -19.9340 -19.9337 -19.9293 -19.9289 -19.9286 -19.9283
   -19.9269 -19.9266 -19.9265 -19.9262 -19.9257 -19.9251 -19.9250 -19.9242
   -19.9196 -19.9191 -19.9187 -19.9177 -19.9172 -19.9164 -19.9161 -19.9158
   -19.9121 -19.9118 -19.9116 -19.9112 -19.9102 -19.9097 -19.9093 -19.9090
    -9.4817  -9.2691  -9.1182  -9.0675  -8.8563  -8.8464  -8.6271  -8.5797
    -8.4738  -8.4535  -8.3286  -8.3044  -8.0790  -7.9847  -7.8240  -7.7598
    -7.7348  -7.6326  -7.5046  -7.4807  -7.4535  -7.4503  -7.4234  -7.3940
     1.7833   1.7947   1.8737   1.8888   1.9664   1.9716   2.1586   2.1939
     2.5470   2.7258   2.7782   2.8985   2.9340   3.0299   3.0971   3.1941
     3.2287   3.3183   3.9820   4.0865   4.1908   4.2359   4.3016   4.5503
     4.6509   4.7036   4.7677   4.8254   4.9109   4.9773   5.0932   5.1752
     5.3641   5.4027   5.4750   5.5049   5.5873   5.7396   5.8067   5.9201
     5.9646   5.9871   6.0404   6.0807   6.1480   6.1662   6.2434   6.4253
     6.5712   6.6989   6.7310   6.7802   6.8245   6.8599   7.0002   7.0274
     7.0607   7.1225   7.2029   7.2508   7.3484   7.4043   7.4370   7.5257
     7.6006   7.6638   7.9408   7.9618   8.0984   8.1369   8.2846   8.3493
    10.6377  10.6635  11.0391  11.1744  11.2729  11.4844  12.1963  12.2672
    12.4517  12.5927  12.6679  12.7633  12.8554  13.0461  13.0845  13.2127
    13.3765  13.3870  13.4421  13.5689  13.8507  13.8774  14.0304  14.0678
    14.9964  15.1124  15.3341  15.5823  15.8053  16.0029  16.1939  16.2252
    16.7593  17.0512  17.5984  17.6169  17.7247

          k = 0.1667 0.0000-0.5000 ( 61220 PWs)   bands (ev):

   -65.8094 -65.8093 -65.8087 -65.8087 -65.8085 -65.8085 -65.8079 -65.8079
   -30.2861 -30.2861 -30.2533 -30.2533 -30.2503 -30.2503 -30.2192 -30.2191
   -30.1736 -30.1735 -30.1601 -30.1601 -30.1087 -30.1086 -30.1031 -30.1030
   -30.0887 -30.0887 -30.0547 -30.0547 -30.0488 -30.0487 -30.0153 -30.0153
   -19.9603 -19.9602 -19.9601 -19.9600 -19.9599 -19.9599 -19.9597 -19.9597
   -19.9467 -19.9467 -19.9466 -19.9465 -19.9464 -19.9463 -19.9462 -19.9462
   -19.9424 -19.9424 -19.9404 -19.9404 -19.9403 -19.9402 -19.9384 -19.9384
   -19.9346 -19.9346 -19.9339 -19.9339 -19.9291 -19.9291 -19.9285 -19.9284
   -19.9267 -19.9267 -19.9261 -19.9261 -19.9257 -19.9257 -19.9246 -19.9246
   -19.9192 -19.9192 -19.9181 -19.9181 -19.9169 -19.9168 -19.9161 -19.9161
   -19.9119 -19.9119 -19.9110 -19.9110 -19.9105 -19.9105 -19.9092 -19.9091
    -9.3607  -9.3606  -8.9617  -8.9617  -8.9278  -8.9278  -8.5150  -8.5150
    -8.3736  -8.3735  -8.2858  -8.2858  -8.0899  -8.0898  -8.0238  -8.0237
    -7.7397  -7.7397  -7.4908  -7.4908  -7.4391  -7.4391  -7.4252  -7.4252
     1.7870   1.7870   1.8825   1.8825   1.9740   1.9740   2.2004   2.2005
     2.9460   2.9460   3.2504   3.2504   3.3495   3.3496   3.4634   3.4635
     3.5528   3.5528   3.6570   3.6571   3.8752   3.8752   4.0346   4.0347
     4.1786   4.1786   4.6803   4.6803   4.8419   4.8419   5.2186   5.2186
     5.2726   5.2726   5.4119   5.4119   5.6090   5.6091   5.8784   5.8784
     5.9471   5.9471   6.0044   6.0044   6.1704   6.1704   6.3705   6.3706
     6.5871   6.5871   6.7475   6.7475   6.7659   6.7659   7.0128   7.0128
     7.1415   7.1415   7.2364   7.2364   7.3103   7.3103   7.7497   7.7498
     7.7888   7.7889   7.9045   7.9046   7.9564   7.9564   8.3108   8.3108
    10.6684  10.6684  11.6307  11.6307  11.8083  11.8083  11.8570  11.8570
    12.1766  12.1766  12.6978  12.6978  13.0333  13.0333  13.1615  13.1615
    13.2804  13.2804  13.6270  13.6270  13.6721  13.6721  14.0285  14.0285
    15.0726  15.0726  15.6047  15.6048  15.8965  15.8966  16.4040  16.4040
    16.8607  16.8608  17.9136  17.9136  18.2697

          k = 0.1667 0.1617 0.1667 ( 61214 PWs)   bands (ev):

   -65.8097 -65.8092 -65.8089 -65.8089 -65.8084 -65.8083 -65.8081 -65.8075
   -30.2906 -30.2850 -30.2834 -30.2833 -30.2260 -30.2227 -30.2226 -30.2084
   -30.1742 -30.1619 -30.1618 -30.1495 -30.1154 -30.1101 -30.1098 -30.1037
   -30.0929 -30.0915 -30.0842 -30.0840 -30.0177 -30.0176 -30.0134 -30.0120
   -19.9604 -19.9603 -19.9601 -19.9601 -19.9599 -19.9599 -19.9597 -19.9596
   -19.9466 -19.9466 -19.9466 -19.9464 -19.9464 -19.9462 -19.9461 -19.9461
   -19.9427 -19.9423 -19.9422 -19.9421 -19.9391 -19.9385 -19.9385 -19.9379
   -19.9345 -19.9338 -19.9338 -19.9332 -19.9298 -19.9291 -19.9291 -19.9285
   -19.9271 -19.9267 -19.9266 -19.9266 -19.9254 -19.9254 -19.9247 -19.9240
   -19.9199 -19.9199 -19.9183 -19.9182 -19.9166 -19.9166 -19.9157 -19.9156
   -19.9123 -19.9120 -19.9117 -19.9117 -19.9095 -19.9095 -19.9091 -19.9088
    -9.5595  -9.2698  -9.1801  -9.1766  -8.7953  -8.7888  -8.7332  -8.6074
    -8.5321  -8.4358  -8.4280  -8.4219  -7.8613  -7.8045  -7.7176  -7.7107
    -7.6040  -7.5593  -7.5579  -7.5197  -7.4912  -7.4794  -7.3732  -7.3691
     1.8288   1.8587   1.8630   1.8804   2.0209   2.0633   2.0674   2.1122
     2.2408   2.2474   2.3371   2.5362   2.8284   2.9073   2.9447   3.0966
     3.1357   3.1513   4.2497   4.2829   4.4723   4.4796   4.5713   4.6473
     4.6987   4.7643   4.7655   5.0005   5.0298   5.0711   5.3763   5.4061
     5.4079   5.6343   5.6349   5.6908   5.7586   5.7683   5.7771   5.8545
     5.9555   6.0040   6.0166   6.1129   6.1190   6.1758   6.1976   6.2700
     6.5833   6.7308   6.7522   6.8782   6.9190   6.9431   7.0358   7.0363
     7.1003   7.1051   7.1848   7.2178   7.2695   7.3013   7.4067   7.4155
     7.5669   7.5720   7.9722   7.9941   8.1538   8.2017   8.2391   8.3255
    10.5649  10.5664  10.8394  10.8499  10.9179  11.0170  12.4603  12.4753
    12.5398  12.5422  12.7124  12.7954  12.8995  12.9757  13.0182  13.1346
    13.2611  13.3692  13.5334  13.5456  13.9233  13.9246  14.0759  14.0877
    15.0683  15.2923  15.3050  15.4844  15.6790  15.9490  16.2642  16.3829
    16.3995  17.0139  17.2687  17.2729  18.0135

          k = 0.1667 0.1617 0.3333 ( 61206 PWs)   bands (ev):

   -65.8095 -65.8091 -65.8090 -65.8087 -65.8085 -65.8083 -65.8082 -65.8077
   -30.2874 -30.2844 -30.2722 -30.2687 -30.2350 -30.2333 -30.2212 -30.2145
   -30.1725 -30.1656 -30.1601 -30.1532 -30.1146 -30.1114 -30.1089 -30.1054
   -30.0909 -30.0863 -30.0762 -30.0693 -30.0333 -30.0280 -30.0167 -30.0138
   -19.9603 -19.9602 -19.9602 -19.9600 -19.9599 -19.9598 -19.9598 -19.9596
   -19.9467 -19.9466 -19.9466 -19.9464 -19.9464 -19.9462 -19.9462 -19.9462
   -19.9425 -19.9423 -19.9414 -19.9414 -19.9395 -19.9392 -19.9385 -19.9382
   -19.9344 -19.9340 -19.9337 -19.9334 -19.9297 -19.9293 -19.9290 -19.9287
   -19.9269 -19.9266 -19.9265 -19.9262 -19.9257 -19.9251 -19.9250 -19.9243
   -19.9196 -19.9191 -19.9187 -19.9177 -19.9172 -19.9164 -19.9161 -19.9158
   -19.9121 -19.9118 -19.9116 -19.9112 -19.9102 -19.9097 -19.9093 -19.9090
    -9.4447  -9.2323  -9.1296  -9.0163  -8.8506  -8.7731  -8.6194  -8.5472
    -8.4551  -8.4451  -8.3236  -8.2952  -8.0800  -7.9874  -7.8306  -7.7661
    -7.7385  -7.6424  -7.5932  -7.5635  -7.5498  -7.5226  -7.4604  -7.3938
     1.8595   1.8685   2.0614   2.0656   2.0857   2.0986   2.1989   2.2503
     2.5508   2.7338   2.7800   2.9342   2.9812   3.0825   3.1382   3.2140
     3.2905   3.3808   3.9846   4.1001   4.1605   4.2231   4.3181   4.5051
     4.5720   4.6297   4.6936   4.7469   4.8158   4.9183   5.0580   5.0847
     5.2480   5.2892   5.3447   5.3987   5.5495   5.5911   5.7222   5.7648
     5.9052   5.9332   6.0162   6.0312   6.0737   6.1457   6.1882   6.2477
     6.6394   6.7028   6.8308   6.8535   6.8861   6.9550   7.0348   7.0821
     7.1174   7.1291   7.2357   7.3014   7.3515   7.4098   7.4427   7.5300
     7.6106   7.6767   7.9377   7.9626   8.0999   8.1198   8.2472   8.2928
    10.7785  10.7962  11.0862  11.2414  11.3329  11.5397  12.2020  12.2916
    12.4716  12.6021  12.6688  12.7736  12.8488  12.9282  13.0451  13.1157
    13.2646  13.3208  13.3975  13.5346  13.7689  13.8028  13.9885  14.0373
    15.1920  15.2852  15.5563  15.6891  15.9924  16.1534  16.2247  16.2995
    16.8269  17.0489  17.4208  17.6859  17.7170

          k = 0.1667 0.1617-0.5000 ( 61216 PWs)   bands (ev):

   -65.8093 -65.8093 -65.8088 -65.8088 -65.8085 -65.8085 -65.8080 -65.8079
   -30.2858 -30.2858 -30.2530 -30.2530 -30.2496 -30.2496 -30.2187 -30.2187
   -30.1696 -30.1696 -30.1571 -30.1571 -30.1132 -30.1131 -30.1073 -30.1073
   -30.0888 -30.0887 -30.0548 -30.0547 -30.0488 -30.0487 -30.0153 -30.0153
   -19.9603 -19.9602 -19.9601 -19.9601 -19.9599 -19.9599 -19.9598 -19.9597
   -19.9467 -19.9466 -19.9465 -19.9465 -19.9464 -19.9463 -19.9462 -19.9462
   -19.9424 -19.9423 -19.9404 -19.9404 -19.9403 -19.9402 -19.9384 -19.9384
   -19.9342 -19.9342 -19.9336 -19.9335 -19.9295 -19.9294 -19.9288 -19.9288
   -19.9267 -19.9267 -19.9261 -19.9261 -19.9257 -19.9256 -19.9247 -19.9246
   -19.9192 -19.9192 -19.9181 -19.9181 -19.9169 -19.9168 -19.9161 -19.9161
   -19.9119 -19.9119 -19.9110 -19.9110 -19.9105 -19.9105 -19.9092 -19.9092
    -9.3230  -9.3230  -8.9656  -8.9656  -8.8598  -8.8598  -8.4842  -8.4842
    -8.3726  -8.3726  -8.2862  -8.2862  -8.0902  -8.0901  -8.0258  -8.0258
    -7.7438  -7.7438  -7.5811  -7.5810  -7.5404  -7.5404  -7.4266  -7.4266
     1.8638   1.8638   2.0745   2.0745   2.0912   2.0912   2.2529   2.2530
     3.0183   3.0183   3.2629   3.2629   3.3538   3.3539   3.4916   3.4917
     3.5600   3.5600   3.6678   3.6678   3.8896   3.8896   4.0733   4.0734
     4.1840   4.1840   4.6034   4.6034   4.7137   4.7137   5.0535   5.0535
     5.1931   5.1932   5.3397   5.3397   5.4362   5.4362   5.7913   5.7913
     5.8751   5.8751   5.9584   5.9584   6.0678   6.0678   6.2116   6.2116
     6.6914   6.6914   6.8419   6.8419   6.9180   6.9180   7.0378   7.0378
     7.1608   7.1608   7.2385   7.2386   7.3558   7.3558   7.7498   7.7498
     7.7860   7.7860   7.9125   7.9125   7.9549   7.9549   8.2640   8.2640
    10.8140  10.8141  11.6533  11.6533  11.8531  11.8531  11.8938  11.8938
    12.2093  12.2094  12.7151  12.7151  12.9558  12.9558  13.0890  13.0890
    13.2505  13.2505  13.5072  13.5072  13.5964  13.5964  13.9895  13.9895
    15.2553  15.2553  15.8315  15.8316  16.0625  16.0625  16.4456  16.4456
    16.8948  16.8948  17.8674  17.8674  18.1675

          k = 0.1667 0.3234 0.1667 ( 61242 PWs)   bands (ev):

   -65.8096 -65.8093 -65.8088 -65.8088 -65.8085 -65.8085 -65.8080 -65.8077
   -30.2891 -30.2859 -30.2830 -30.2830 -30.2213 -30.2208 -30.2203 -30.2109
   -30.1621 -30.1529 -30.1528 -30.1414 -30.1281 -30.1212 -30.1211 -30.1148
   -30.0928 -30.0919 -30.0843 -30.0842 -30.0177 -30.0177 -30.0131 -30.0123
   -19.9604 -19.9603 -19.9601 -19.9601 -19.9599 -19.9599 -19.9597 -19.9596
   -19.9466 -19.9466 -19.9466 -19.9464 -19.9463 -19.9462 -19.9462 -19.9461
   -19.9426 -19.9422 -19.9422 -19.9422 -19.9388 -19.9385 -19.9385 -19.9381
   -19.9335 -19.9329 -19.9328 -19.9323 -19.9308 -19.9301 -19.9301 -19.9296
   -19.9270 -19.9268 -19.9265 -19.9265 -19.9254 -19.9254 -19.9246 -19.9241
   -19.9199 -19.9199 -19.9183 -19.9183 -19.9166 -19.9166 -19.9156 -19.9156
   -19.9122 -19.9121 -19.9117 -19.9117 -19.9095 -19.9095 -19.9090 -19.9088
    -9.4748  -9.3112  -9.1076  -9.1048  -8.7702  -8.7653  -8.5580  -8.5323
    -8.5181  -8.3482  -8.3355  -8.3309  -7.9416  -7.8541  -7.8516  -7.8167
    -7.7951  -7.7634  -7.6723  -7.6609  -7.4932  -7.4857  -7.3729  -7.3706
     1.8521   1.8650   1.8821   1.8845   2.1231   2.1243   2.2653   2.3339
     2.6261   2.7309   2.7508   2.8631   2.8928   2.9468   3.1181   3.3602
     3.3732   3.4219   3.9755   3.9875   4.0192   4.1045   4.3153   4.6053
     4.6578   4.6981   4.7050   4.8092   4.8611   5.0676   5.0939   5.1702
     5.1916   5.2556   5.3990   5.4345   5.5919   5.6581   5.7401   5.7524
     5.9324   5.9344   5.9706   5.9728   6.0351   6.1024   6.1726   6.2048
     6.6788   6.7686   6.7851   6.9011   6.9791   7.0011   7.0619   7.1101
     7.2641   7.2827   7.2972   7.3220   7.3963   7.4037   7.4379   7.4611
     7.5894   7.6015   7.9463   7.9848   8.0752   8.0985   8.1268   8.1403
    10.6396  10.6459  11.2066  11.2353  11.2525  11.4064  12.2993  12.3297
    12.3909  12.5007  12.5343  12.6250  12.8353  12.9003  12.9794  13.0105
    13.2577  13.3193  13.4889  13.5291  13.7299  13.7526  13.9256  13.9713
    15.3847  15.6256  15.6399  15.7044  15.8968  16.1709  16.3490  16.3661
    16.5942  17.2006  17.5842  17.6497  17.7469

          k = 0.1667 0.3234 0.3333 ( 61226 PWs)   bands (ev):

   -65.8094 -65.8091 -65.8090 -65.8086 -65.8086 -65.8083 -65.8081 -65.8078
   -30.2867 -30.2840 -30.2722 -30.2680 -30.2337 -30.2301 -30.2196 -30.2154
   -30.1607 -30.1555 -30.1511 -30.1446 -30.1271 -30.1232 -30.1202 -30.1166
   -30.0910 -30.0864 -30.0763 -30.0693 -30.0334 -30.0280 -30.0167 -30.0138
   -19.9603 -19.9602 -19.9601 -19.9600 -19.9599 -19.9598 -19.9597 -19.9597
   -19.9466 -19.9466 -19.9466 -19.9465 -19.9464 -19.9463 -19.9462 -19.9462
   -19.9424 -19.9423 -19.9414 -19.9413 -19.9393 -19.9392 -19.9385 -19.9384
   -19.9334 -19.9330 -19.9328 -19.9324 -19.9306 -19.9303 -19.9300 -19.9297
   -19.9269 -19.9266 -19.9266 -19.9261 -19.9258 -19.9251 -19.9250 -19.9244
   -19.9196 -19.9191 -19.9187 -19.9177 -19.9172 -19.9164 -19.9161 -19.9158
   -19.9121 -19.9118 -19.9117 -19.9112 -19.9102 -19.9096 -19.9094 -19.9090
    -9.3573  -9.1685  -9.1531  -8.9055  -8.8389  -8.5961  -8.5592  -8.4762
    -8.4363  -8.3500  -8.2871  -8.2498  -8.0925  -8.0124  -7.8997  -7.8618
    -7.8257  -7.8029  -7.7537  -7.7304  -7.6883  -7.6158  -7.4629  -7.3948
     1.8816   1.8951   2.1274   2.1505   2.4578   2.5479   2.6131   2.6945
     2.7607   2.8009   2.8383   2.9978   3.1173   3.1914   3.2295   3.3550
     3.5450   3.5733   3.9177   3.9984   4.0226   4.0769   4.1937   4.2602
     4.3204   4.5009   4.5594   4.6414   4.7630   4.8245   4.8516   4.9286
     5.0369   5.1276   5.1610   5.2421   5.2562   5.3352   5.4341   5.5041
     5.6074   5.6708   5.7085   5.9043   5.9843   6.0586   6.1205   6.1414
     6.7887   6.8089   6.9170   6.9474   7.0370   7.1609   7.1947   7.2145
     7.2765   7.3071   7.3273   7.3806   7.4018   7.4395   7.5099   7.5413
     7.6586   7.7120   7.9152   7.9623   8.0376   8.0465   8.1146   8.1249
    11.0462  11.1093  11.2715  11.3767  11.6174  11.7705  12.1930  12.2885
    12.4473  12.4975  12.5781  12.6462  12.7671  12.8419  12.8858  13.0082
    13.1130  13.1959  13.3080  13.4724  13.5503  13.6465  13.8243  13.8819
    15.5006  15.6409  15.8751  16.1098  16.2178  16.3418  16.4288  16.9408
    17.0094  17.0986  17.2287  17.7813  17.8704

          k = 0.1667 0.3234-0.5000 ( 61214 PWs)   bands (ev):

   -65.8092 -65.8092 -65.8089 -65.8089 -65.8084 -65.8084 -65.8081 -65.8081
   -30.2853 -30.2853 -30.2525 -30.2524 -30.2482 -30.2482 -30.2179 -30.2178
   -30.1584 -30.1584 -30.1482 -30.1482 -30.1254 -30.1254 -30.1187 -30.1186
   -30.0889 -30.0888 -30.0548 -30.0548 -30.0488 -30.0488 -30.0153 -30.0153
   -19.9602 -19.9602 -19.9601 -19.9601 -19.9599 -19.9598 -19.9598 -19.9598
   -19.9466 -19.9466 -19.9465 -19.9465 -19.9464 -19.9464 -19.9462 -19.9462
   -19.9423 -19.9423 -19.9403 -19.9403 -19.9402 -19.9402 -19.9385 -19.9385
   -19.9332 -19.9332 -19.9326 -19.9326 -19.9305 -19.9305 -19.9299 -19.9299
   -19.9267 -19.9267 -19.9262 -19.9262 -19.9256 -19.9256 -19.9248 -19.9247
   -19.9192 -19.9192 -19.9181 -19.9181 -19.9169 -19.9168 -19.9161 -19.9161
   -19.9119 -19.9119 -19.9110 -19.9110 -19.9105 -19.9105 -19.9092 -19.9092
    -9.2415  -9.2414  -8.9780  -8.9780  -8.6813  -8.6813  -8.3884  -8.3884
    -8.3626  -8.3625  -8.2880  -8.2880  -8.0912  -8.0912  -8.0387  -8.0386
    -7.8364  -7.8364  -7.7837  -7.7837  -7.7107  -7.7107  -7.4281  -7.4280
     1.8899   1.8900   2.1542   2.1542   2.6216   2.6216   2.7548   2.7548
     3.2035   3.2036   3.3046   3.3046   3.3516   3.3516   3.5417   3.5418
     3.5926   3.5927   3.6977   3.6977   3.9169   3.9170   4.0448   4.0448
     4.1953   4.1953   4.3478   4.3478   4.5367   4.5367   4.6678   4.6678
     5.0427   5.0427   5.1606   5.1606   5.3044   5.3045   5.3620   5.3620
     5.4496   5.4496   5.7730   5.7730   6.0163   6.0163   6.0767   6.0767
     6.8197   6.8198   7.0237   7.0237   7.0888   7.0888   7.1685   7.1685
     7.3166   7.3166   7.3617   7.3618   7.4499   7.4499   7.7377   7.7377
     7.7839   7.7839   7.8994   7.8994   7.9356   7.9357   8.1125   8.1125
    11.2060  11.2060  11.7033  11.7033  11.8866  11.8866  12.0811  12.0811
    12.3390  12.3390  12.5576  12.5576  12.8131  12.8131  12.9425  12.9425
    13.1317  13.1317  13.2452  13.2452  13.5198  13.5198  13.8065  13.8065
    15.5779  15.5780  16.0712  16.0712  16.6900  16.6900  16.8235  16.8236
    17.0098  17.0098  17.6620  17.6621  17.9948

          k = 0.1667-0.4851 0.1667 ( 61226 PWs)   bands (ev):

   -65.8095 -65.8094 -65.8087 -65.8087 -65.8086 -65.8086 -65.8078 -65.8078
   -30.2873 -30.2873 -30.2828 -30.2828 -30.2200 -30.2200 -30.2151 -30.2151
   -30.1453 -30.1453 -30.1432 -30.1432 -30.1319 -30.1319 -30.1288 -30.1288
   -30.0924 -30.0924 -30.0843 -30.0843 -30.0177 -30.0177 -30.0127 -30.0127
   -19.9603 -19.9603 -19.9601 -19.9601 -19.9599 -19.9599 -19.9596 -19.9596
   -19.9466 -19.9466 -19.9465 -19.9465 -19.9463 -19.9463 -19.9462 -19.9461
   -19.9424 -19.9424 -19.9422 -19.9422 -19.9385 -19.9385 -19.9385 -19.9384
   -19.9322 -19.9321 -19.9316 -19.9316 -19.9315 -19.9314 -19.9310 -19.9310
   -19.9270 -19.9270 -19.9265 -19.9265 -19.9255 -19.9255 -19.9244 -19.9243
   -19.9199 -19.9199 -19.9183 -19.9183 -19.9166 -19.9166 -19.9156 -19.9156
   -19.9122 -19.9122 -19.9117 -19.9117 -19.9095 -19.9095 -19.9089 -19.9089
    -9.3820  -9.3820  -9.0723  -9.0722  -8.7522  -8.7522  -8.5366  -8.5366
    -8.2175  -8.2175  -8.1505  -8.1505  -8.1262  -8.1262  -8.1036  -8.1036
    -7.7996  -7.7996  -7.6779  -7.6779  -7.4902  -7.4902  -7.3721  -7.3721
     1.8591   1.8591   1.8847   1.8847   2.1288   2.1288   2.3225   2.3225
     2.8867   2.8867   3.1425   3.1425   3.2749   3.2749   3.5652   3.5652
     3.5814   3.5814   3.7848   3.7848   3.8883   3.8883   4.0973   4.0973
     4.1544   4.1545   4.6371   4.6371   4.7388   4.7388   5.2279   5.2279
     5.2924   5.2924   5.3792   5.3792   5.4636   5.4636   5.7565   5.7565
     5.8071   5.8071   5.9588   5.9588   6.0157   6.0157   6.1858   6.1858
     6.7357   6.7357   6.8606   6.8606   6.9822   6.9822   7.1124   7.1124
     7.3371   7.3371   7.3556   7.3556   7.4923   7.4924   7.6228   7.6228
     7.7443   7.7443   7.8733   7.8733   7.9410   7.9410   8.0255   8.0255
    10.6611  10.6611  11.6188  11.6188  11.7047  11.7048  11.9979  11.9979
    12.1159  12.1160  12.5353  12.5353  12.8992  12.8992  12.9623  12.9623
    13.4021  13.4021  13.4910  13.4910  13.5357  13.5358  13.8674  13.8674
    15.5726  15.5726  15.8614  15.8614  16.1594  16.1595  16.3298  16.3298
    16.9895  16.9895  18.0940  18.0940  18.2326

          k = 0.1667-0.4851 0.3333 ( 61240 PWs)   bands (ev):

   -65.8093 -65.8093 -65.8089 -65.8088 -65.8085 -65.8084 -65.8080 -65.8080
   -30.2863 -30.2837 -30.2722 -30.2677 -30.2331 -30.2283 -30.2188 -30.2161
   -30.1452 -30.1439 -30.1430 -30.1410 -30.1355 -30.1330 -30.1314 -30.1295
   -30.0910 -30.0864 -30.0764 -30.0694 -30.0334 -30.0280 -30.0167 -30.0139
   -19.9603 -19.9602 -19.9601 -19.9600 -19.9599 -19.9599 -19.9597 -19.9597
   -19.9466 -19.9466 -19.9465 -19.9465 -19.9464 -19.9463 -19.9463 -19.9462
   -19.9423 -19.9422 -19.9415 -19.9413 -19.9393 -19.9392 -19.9385 -19.9385
   -19.9321 -19.9320 -19.9317 -19.9316 -19.9314 -19.9314 -19.9311 -19.9311
   -19.9268 -19.9267 -19.9266 -19.9261 -19.9258 -19.9251 -19.9249 -19.9245
   -19.9196 -19.9191 -19.9187 -19.9177 -19.9172 -19.9164 -19.9161 -19.9158
   -19.9120 -19.9118 -19.9117 -19.9112 -19.9102 -19.9096 -19.9094 -19.9090
    -9.2930  -9.2034  -9.1186  -8.8505  -8.8297  -8.5659  -8.4662  -8.4040
    -8.2879  -8.2523  -8.1750  -8.1394  -8.1323  -8.1180  -8.1092  -8.0668
    -8.0064  -7.9156  -7.7829  -7.7418  -7.7076  -7.6197  -7.4635  -7.3952
     1.8838   1.8974   2.1313   2.1545   2.4965   2.6781   2.7107   2.8649
     3.1267   3.1297   3.1676   3.1719   3.3539   3.3810   3.4792   3.5498
     3.5721   3.5888   3.7914   3.8364   3.9505   4.0490   4.0693   4.1161
     4.1364   4.1842   4.2350   4.2803   4.5907   4.6187   4.8335   4.8754
     4.9445   5.0199   5.1214   5.2044   5.2302   5.2992   5.3339   5.3940
     5.4437   5.5327   5.6435   5.7463   5.9689   6.0090   6.1143   6.1334
     6.8171   6.8389   6.9463   6.9662   7.0587   7.2334   7.2690   7.2838
     7.3214   7.3788   7.4034   7.4621   7.5151   7.5403   7.6158   7.6653
     7.7455   7.7858   7.8547   7.8965   7.9300   7.9391   7.9959   8.0033
    11.1036  11.1982  11.6206  11.7115  11.9105  11.9598  12.0470  12.1387
    12.2734  12.2815  12.3690  12.5386  12.7188  12.8688  12.9386  13.0299
    13.0432  13.1900  13.2532  13.3104  13.5080  13.5498  13.7275  13.7674
    15.5860  15.7987  15.9204  16.2352  16.4130  16.6306  16.6932  16.9172
    17.1292  17.1690  17.7411  17.8136  18.0057

          k = 0.1667-0.4851-0.5000 ( 61200 PWs)   bands (ev):

   -65.8091 -65.8091 -65.8090 -65.8090 -65.8083 -65.8082 -65.8082 -65.8082
   -30.2850 -30.2850 -30.2522 -30.2522 -30.2476 -30.2475 -30.2174 -30.2174
   -30.1446 -30.1446 -30.1397 -30.1397 -30.1375 -30.1375 -30.1305 -30.1305
   -30.0889 -30.0889 -30.0548 -30.0548 -30.0488 -30.0488 -30.0153 -30.0153
   -19.9602 -19.9602 -19.9601 -19.9601 -19.9598 -19.9598 -19.9598 -19.9598
   -19.9466 -19.9466 -19.9465 -19.9465 -19.9464 -19.9464 -19.9463 -19.9462
   -19.9423 -19.9423 -19.9404 -19.9403 -19.9402 -19.9402 -19.9385 -19.9385
   -19.9319 -19.9319 -19.9318 -19.9318 -19.9313 -19.9313 -19.9312 -19.9312
   -19.9267 -19.9267 -19.9263 -19.9262 -19.9255 -19.9255 -19.9248 -19.9248
   -19.9192 -19.9192 -19.9181 -19.9181 -19.9169 -19.9168 -19.9162 -19.9161
   -19.9119 -19.9119 -19.9110 -19.9110 -19.9105 -19.9105 -19.9092 -19.9092
    -9.1960  -9.1960  -8.9879  -8.9879  -8.5424  -8.5423  -8.3587  -8.3587
    -8.3165  -8.3165  -8.2321  -8.2320  -8.1090  -8.1090  -8.0780  -8.0780
    -8.0008  -8.0007  -7.9196  -7.9195  -7.7220  -7.7220  -7.4286  -7.4285
     1.8925   1.8925   2.1596   2.1597   3.0614   3.0614   3.2607   3.2608
     3.3344   3.3344   3.3519   3.3519   3.4061   3.4061   3.5146   3.5146
     3.6464   3.6464   3.6933   3.6933   3.7777   3.7777   3.9116   3.9117
     4.0591   4.0591   4.2018   4.2018   4.5627   4.5628   4.6255   4.6256
     4.7057   4.7057   4.7855   4.7856   5.1705   5.1705   5.3281   5.3282
     5.4242   5.4242   5.6285   5.6285   6.0058   6.0058   6.0412   6.0412
     6.8447   6.8447   7.0608   7.0609   7.1186   7.1186   7.2312   7.2312
     7.4540   7.4541   7.5004   7.5004   7.6214   7.6214   7.7003   7.7004
     7.7793   7.7793   7.8722   7.8722   7.9137   7.9138   7.9544   7.9545
    11.5268  11.5268  11.7883  11.7883  11.8651  11.8651  12.1117  12.1117
    12.4032  12.4032  12.5307  12.5307  12.6954  12.6954  12.7723  12.7723
    13.0080  13.0080  13.1732  13.1732  13.5766  13.5766  13.6208  13.6208
    15.6867  15.6867  16.1296  16.1296  17.0743  17.0743  17.2943  17.2943
    17.4311  17.4311  17.5721  17.5721  17.6875

          k = 0.3333 0.0000 0.3333 ( 61196 PWs)   bands (ev):

   -65.8094 -65.8090 -65.8089 -65.8088 -65.8085 -65.8083 -65.8083 -65.8079
   -30.2761 -30.2704 -30.2701 -30.2678 -30.2393 -30.2336 -30.2336 -30.2234
   -30.1750 -30.1676 -30.1673 -30.1602 -30.1093 -30.1064 -30.1059 -30.1027
   -30.0757 -30.0741 -30.0712 -30.0708 -30.0324 -30.0322 -30.0301 -30.0284
   -19.9603 -19.9601 -19.9601 -19.9601 -19.9599 -19.9599 -19.9599 -19.9597
   -19.9467 -19.9467 -19.9466 -19.9465 -19.9464 -19.9463 -19.9462 -19.9462
   -19.9419 -19.9415 -19.9415 -19.9411 -19.9398 -19.9392 -19.9392 -19.9386
   -19.9346 -19.9342 -19.9342 -19.9339 -19.9292 -19.9289 -19.9287 -19.9284
   -19.9267 -19.9263 -19.9262 -19.9262 -19.9254 -19.9254 -19.9253 -19.9246
   -19.9189 -19.9188 -19.9180 -19.9180 -19.9170 -19.9170 -19.9164 -19.9163
   -19.9118 -19.9114 -19.9113 -19.9113 -19.9100 -19.9100 -19.9099 -19.9095
    -9.3547  -9.1292  -9.1163  -8.9621  -8.8911  -8.6865  -8.6596  -8.5349
    -8.3620  -8.3394  -8.3329  -8.2754  -8.0940  -8.0406  -8.0058  -7.9819
    -7.7402  -7.7243  -7.6822  -7.6457  -7.4919  -7.4634  -7.4626  -7.4348
     1.8371   1.8555   1.8652   1.8796   2.5015   2.5121   2.5600   2.5625
     2.7723   2.7805   2.8924   2.9978   3.0615   3.2209   3.2518   3.2903
     3.4672   3.5051   3.9261   4.0602   4.1110   4.1307   4.2603   4.3600
     4.3982   4.4565   4.5464   4.6030   4.7164   4.7767   4.8830   4.9071
     4.9782   5.1172   5.2998   5.3377   5.3853   5.4327   5.4714   5.6342
     5.6574   5.7703   5.8257   5.9438   6.2148   6.2536   6.2629   6.4328
     6.6477   6.7257   6.7458   6.7662   6.7965   6.8358   6.8423   6.8731
     7.2577   7.3203   7.4113   7.4268   7.4879   7.5569   7.5960   7.6103
     7.6658   7.7272   7.9192   7.9193   8.0581   8.1178   8.2326   8.2864
    11.0372  11.0982  11.2688  11.2845  11.6331  11.7598  12.2750  12.2846
    12.3632  12.4215  12.5721  12.5808  12.8530  12.8531  13.1624  13.1658
    13.2502  13.3981  13.4484  13.4511  13.7493  13.8343  13.8809  13.9797
    15.1149  15.3107  15.3109  15.7246  15.9908  16.2760  16.5523  16.6859
    16.9247  17.1764  17.3871  17.7618  17.7753

          k = 0.3333 0.0000-0.5000 ( 61224 PWs)   bands (ev):

   -65.8092 -65.8092 -65.8087 -65.8087 -65.8086 -65.8085 -65.8081 -65.8081
   -30.2719 -30.2718 -30.2524 -30.2523 -30.2510 -30.2510 -30.2306 -30.2306
   -30.1718 -30.1718 -30.1644 -30.1643 -30.1079 -30.1079 -30.1046 -30.1045
   -30.0731 -30.0731 -30.0536 -30.0536 -30.0502 -30.0502 -30.0308 -30.0308
   -19.9602 -19.9602 -19.9600 -19.9600 -19.9600 -19.9599 -19.9598 -19.9598
   -19.9467 -19.9467 -19.9466 -19.9465 -19.9464 -19.9464 -19.9463 -19.9463
   -19.9416 -19.9416 -19.9405 -19.9405 -19.9402 -19.9402 -19.9390 -19.9390
   -19.9345 -19.9344 -19.9341 -19.9340 -19.9290 -19.9290 -19.9286 -19.9286
   -19.9265 -19.9264 -19.9258 -19.9258 -19.9258 -19.9258 -19.9250 -19.9250
   -19.9185 -19.9184 -19.9179 -19.9179 -19.9172 -19.9171 -19.9167 -19.9167
   -19.9115 -19.9115 -19.9108 -19.9108 -19.9106 -19.9106 -19.9098 -19.9098
    -9.2201  -9.2200  -8.9786  -8.9785  -8.7822  -8.7821  -8.4491  -8.4490
    -8.3940  -8.3939  -8.2140  -8.2139  -8.1621  -8.1621  -8.0398  -8.0398
    -7.9095  -7.9095  -7.6968  -7.6968  -7.4788  -7.4788  -7.4500  -7.4500
     1.8476   1.8476   1.8722   1.8722   2.5626   2.5626   2.7720   2.7720
     3.1171   3.1171   3.2967   3.2967   3.3780   3.3780   3.5059   3.5059
     3.5895   3.5896   3.7852   3.7852   3.9581   3.9581   4.0330   4.0330
     4.2515   4.2515   4.2997   4.2997   4.5203   4.5204   4.7284   4.7285
     4.9831   4.9831   5.2072   5.2072   5.3669   5.3670   5.4290   5.4290
     5.6128   5.6128   5.8534   5.8534   6.2682   6.2682   6.3937   6.3937
     6.6385   6.6385   6.7224   6.7224   6.7718   6.7719   6.8292   6.8292
     7.3977   7.3978   7.4917   7.4917   7.5768   7.5768   7.7641   7.7641
     7.8037   7.8037   7.9129   7.9129   7.9587   7.9587   8.2291   8.2291
    11.1672  11.1672  11.7697  11.7697  11.8227  11.8228  12.0984  12.0985
    12.3248  12.3248  12.4071  12.4071  12.8451  12.8452  13.0889  13.0889
    13.2655  13.2655  13.5614  13.5614  13.6174  13.6174  13.8909  13.8909
    15.2404  15.2404  15.5566  15.5566  16.3960  16.3960  16.8531  16.8531
    17.0905  17.0906  17.6209  17.6209  18.1364

          k = 0.3333 0.1617 0.3333 ( 61218 PWs)   bands (ev):

   -65.8094 -65.8089 -65.8089 -65.8088 -65.8084 -65.8084 -65.8083 -65.8079
   -30.2753 -30.2701 -30.2697 -30.2681 -30.2377 -30.2332 -30.2332 -30.2241
   -30.1708 -30.1641 -30.1637 -30.1570 -30.1139 -30.1108 -30.1103 -30.1071
   -30.0757 -30.0743 -30.0712 -30.0708 -30.0324 -30.0322 -30.0300 -30.0286
   -19.9603 -19.9601 -19.9601 -19.9600 -19.9599 -19.9599 -19.9598 -19.9597
   -19.9467 -19.9467 -19.9466 -19.9465 -19.9464 -19.9463 -19.9463 -19.9462
   -19.9418 -19.9415 -19.9414 -19.9411 -19.9397 -19.9392 -19.9392 -19.9387
   -19.9343 -19.9339 -19.9339 -19.9335 -19.9295 -19.9292 -19.9291 -19.9288
   -19.9267 -19.9263 -19.9262 -19.9262 -19.9254 -19.9254 -19.9253 -19.9247
   -19.9189 -19.9188 -19.9180 -19.9180 -19.9170 -19.9170 -19.9164 -19.9163
   -19.9117 -19.9114 -19.9113 -19.9113 -19.9100 -19.9100 -19.9099 -19.9096
    -9.3115  -9.0797  -9.0652  -8.9748  -8.8183  -8.6843  -8.6562  -8.5047
    -8.3520  -8.3310  -8.3255  -8.2708  -8.1012  -8.0388  -8.0081  -7.9808
    -7.7451  -7.7297  -7.6943  -7.6467  -7.5837  -7.5576  -7.5563  -7.5279
     2.0357   2.0654   2.0736   2.1073   2.5013   2.5163   2.5580   2.5708
     2.7752   2.7843   2.8951   2.9968   3.1386   3.2966   3.3076   3.3712
[...]
    11.2670  11.2670  11.8118  11.8118  11.8951  11.8951  12.1032  12.1032
    12.3420  12.3420  12.4523  12.4523  12.8332  12.8332  13.0720  13.0720
    13.1456  13.1456  13.4331  13.4331  13.5045  13.5045  13.8087  13.8088
    15.5256  15.5257  15.8745  15.8745  16.4569  16.4569  16.8631  16.8631
    17.1067  17.1067  17.6363  17.6363  18.0985

          k = 0.3333 0.3234 0.3333 ( 61237 PWs)   bands (ev):

   -65.8093 -65.8090 -65.8088 -65.8088 -65.8085 -65.8085 -65.8083 -65.8080
   -30.2734 -30.2698 -30.2690 -30.2687 -30.2338 -30.2323 -30.2321 -30.2260
   -30.1593 -30.1540 -30.1536 -30.1477 -30.1263 -30.1225 -30.1221 -30.1186
   -30.0755 -30.0747 -30.0712 -30.0710 -30.0324 -30.0323 -30.0297 -30.0289
   -19.9602 -19.9601 -19.9601 -19.9600 -19.9599 -19.9599 -19.9598 -19.9597
   -19.9466 -19.9466 -19.9466 -19.9465 -19.9464 -19.9463 -19.9463 -19.9463
   -19.9417 -19.9414 -19.9414 -19.9412 -19.9395 -19.9392 -19.9392 -19.9389
   -19.9333 -19.9329 -19.9329 -19.9326 -19.9305 -19.9302 -19.9301 -19.9298
   -19.9266 -19.9264 -19.9262 -19.9262 -19.9255 -19.9255 -19.9252 -19.9248
   -19.9189 -19.9188 -19.9180 -19.9180 -19.9170 -19.9170 -19.9164 -19.9163
   -19.9117 -19.9115 -19.9113 -19.9113 -19.9101 -19.9100 -19.9098 -19.9096
    -9.2066  -9.0201  -8.9646  -8.9525  -8.6799  -8.6488  -8.6098  -8.4187
    -8.3418  -8.2879  -8.2672  -8.2408  -8.1442  -8.0345  -8.0195  -7.9782
    -7.8499  -7.8350  -7.8189  -7.7894  -7.7037  -7.7032  -7.6482  -7.6387
     2.4286   2.4569   2.4712   2.5134   2.6190   2.6494   2.6620   2.7094
     2.8337   2.8645   2.8968   3.0432   3.3192   3.3939   3.4631   3.5381
     3.5761   3.6566   3.8925   3.9908   4.0529   4.1498   4.1738   4.2794
     4.3187   4.4247   4.4517   4.4971   4.5600   4.6104   4.6937   4.7600
     4.8368   4.8636   4.9762   5.0323   5.0706   5.0987   5.1147   5.1748
     5.2660   5.3435   5.4470   5.5126   5.6249   5.6973   5.7011   5.7553
     6.9573   6.9959   7.0871   7.1262   7.2028   7.2378   7.2805   7.3031
     7.3545   7.3770   7.4724   7.4853   7.5041   7.5731   7.6301   7.6394
     7.7054   7.7531   7.9000   7.9309   8.0079   8.0139   8.0942   8.0960
    11.3572  11.4121  11.6042  11.6657  11.7245  11.9315  12.3478  12.3735
    12.4295  12.5084  12.5377  12.6246  12.7304  12.8346  12.8545  12.9031
    12.9934  13.0120  13.1547  13.3302  13.4222  13.5264  13.5545  13.7144
    16.0001  16.1064  16.1632  16.2706  16.3570  16.6980  16.7798  16.9035
    17.0241  17.2183  17.4305  17.5381  17.9207

          k = 0.3333 0.3234-0.5000 ( 61234 PWs)   bands (ev):

   -65.8090 -65.8090 -65.8087 -65.8087 -65.8086 -65.8085 -65.8083 -65.8082
   -30.2704 -30.2704 -30.2513 -30.2513 -30.2493 -30.2492 -30.2306 -30.2306
   -30.1569 -30.1568 -30.1511 -30.1511 -30.1246 -30.1245 -30.1207 -30.1207
   -30.0732 -30.0732 -30.0537 -30.0537 -30.0503 -30.0502 -30.0309 -30.0308
   -19.9602 -19.9601 -19.9601 -19.9600 -19.9599 -19.9599 -19.9599 -19.9598
   -19.9466 -19.9466 -19.9465 -19.9465 -19.9464 -19.9464 -19.9463 -19.9463
   -19.9415 -19.9414 -19.9404 -19.9403 -19.9403 -19.9402 -19.9392 -19.9392
   -19.9331 -19.9331 -19.9328 -19.9327 -19.9304 -19.9303 -19.9300 -19.9300
   -19.9264 -19.9264 -19.9260 -19.9259 -19.9257 -19.9257 -19.9252 -19.9252
   -19.9185 -19.9184 -19.9179 -19.9179 -19.9172 -19.9171 -19.9167 -19.9167
   -19.9115 -19.9114 -19.9109 -19.9109 -19.9106 -19.9106 -19.9099 -19.9099
    -9.0588  -9.0588  -8.8182  -8.8182  -8.7370  -8.7369  -8.4197  -8.4197
    -8.3376  -8.3376  -8.2153  -8.2152  -8.1396  -8.1396  -8.0461  -8.0460
    -7.9168  -7.9167  -7.8166  -7.8165  -7.7912  -7.7912  -7.6733  -7.6733
     2.4724   2.4724   2.6345   2.6345   2.6847   2.6847   2.8279   2.8279
     3.2591   3.2591   3.3646   3.3646   3.4200   3.4200   3.5671   3.5671
     3.6831   3.6831   3.8496   3.8496   4.0085   4.0085   4.0926   4.0926
     4.2174   4.2174   4.3797   4.3798   4.4162   4.4162   4.5686   4.5686
     4.6879   4.6879   4.8550   4.8550   4.9361   4.9361   5.1587   5.1587
     5.2226   5.2226   5.3084   5.3084   5.4217   5.4217   5.6640   5.6640
     7.0181   7.0181   7.1821   7.1822   7.2083   7.2083   7.3165   7.3165
     7.4570   7.4570   7.5100   7.5101   7.6203   7.6203   7.7622   7.7622
     7.7963   7.7963   7.9010   7.9010   7.9269   7.9269   8.0765   8.0765
    11.5504  11.5504  11.9165  11.9165  12.0886  12.0886  12.1365  12.1365
    12.4210  12.4210  12.5775  12.5775  12.7086  12.7086  12.8409  12.8409
    13.0413  13.0414  13.1651  13.1652  13.2484  13.2484  13.5633  13.5633
    16.1483  16.1483  16.5077  16.5077  16.7678  16.7678  16.9621  16.9621
    17.1717  17.1717  17.6265  17.6265  17.9389

          k = 0.3333-0.4851 0.3333 ( 61272 PWs)   bands (ev):

   -65.8091 -65.8091 -65.8087 -65.8087 -65.8086 -65.8086 -65.8082 -65.8082
   -30.2713 -30.2713 -30.2686 -30.2686 -30.2320 -30.2320 -30.2292 -30.2292
   -30.1430 -30.1430 -30.1417 -30.1416 -30.1353 -30.1353 -30.1336 -30.1336
   -30.0751 -30.0751 -30.0711 -30.0711 -30.0324 -30.0323 -30.0293 -30.0293
   -19.9602 -19.9602 -19.9600 -19.9600 -19.9599 -19.9599 -19.9598 -19.9598
   -19.9466 -19.9466 -19.9465 -19.9465 -19.9464 -19.9463 -19.9463 -19.9463
   -19.9415 -19.9414 -19.9414 -19.9413 -19.9393 -19.9393 -19.9392 -19.9392
   -19.9319 -19.9319 -19.9316 -19.9316 -19.9315 -19.9315 -19.9312 -19.9312
   -19.9265 -19.9265 -19.9262 -19.9262 -19.9255 -19.9255 -19.9250 -19.9250
   -19.9189 -19.9188 -19.9180 -19.9180 -19.9170 -19.9170 -19.9164 -19.9164
   -19.9116 -19.9116 -19.9113 -19.9113 -19.9101 -19.9100 -19.9097 -19.9097
    -9.0962  -9.0962  -8.8982  -8.8982  -8.6554  -8.6554  -8.3695  -8.3695
    -8.3210  -8.3210  -8.1515  -8.1515  -8.1031  -8.1030  -8.0851  -8.0851
    -7.9901  -7.9901  -7.9293  -7.9293  -7.7157  -7.7157  -7.6490  -7.6490
     2.4798   2.4798   2.5159   2.5159   2.7339   2.7339   2.8717   2.8717
     3.2075   3.2076   3.3087   3.3088   3.4562   3.4562   3.5190   3.5190
     3.5682   3.5682   3.9196   3.9197   4.0789   4.0789   4.1127   4.1127
     4.1459   4.1459   4.3389   4.3389   4.4595   4.4595   4.6224   4.6224
     4.8479   4.8479   4.8974   4.8975   5.0170   5.0171   5.1180   5.1180
     5.2252   5.2252   5.2738   5.2738   5.3532   5.3532   5.6610   5.6610
     7.0487   7.0487   7.1993   7.1993   7.3303   7.3303   7.3841   7.3841
     7.4796   7.4796   7.5056   7.5056   7.5715   7.5715   7.6986   7.6986
     7.7759   7.7759   7.8692   7.8692   7.9327   7.9327   7.9826   7.9826
    11.4827  11.4827  11.9126  11.9126  12.0219  12.0220  12.2683  12.2683
    12.3660  12.3660  12.5121  12.5121  12.6721  12.6722  12.8529  12.8529
    13.0184  13.0184  13.1791  13.1791  13.2536  13.2536  13.5456  13.5456
    16.1768  16.1768  16.4966  16.4966  16.7730  16.7730  16.9074  16.9074
    17.2820  17.2820  17.7928  17.7929  17.8908

          k = 0.3333-0.4851-0.5000 ( 61232 PWs)   bands (ev):

   -65.8089 -65.8089 -65.8089 -65.8088 -65.8084 -65.8084 -65.8084 -65.8084
   -30.2699 -30.2699 -30.2512 -30.2512 -30.2485 -30.2484 -30.2306 -30.2305
   -30.1425 -30.1425 -30.1396 -30.1395 -30.1381 -30.1381 -30.1345 -30.1345
   -30.0733 -30.0732 -30.0537 -30.0537 -30.0503 -30.0502 -30.0309 -30.0309
   -19.9601 -19.9601 -19.9601 -19.9600 -19.9599 -19.9599 -19.9599 -19.9599
   -19.9466 -19.9466 -19.9465 -19.9465 -19.9464 -19.9464 -19.9463 -19.9463
   -19.9414 -19.9414 -19.9404 -19.9403 -19.9402 -19.9402 -19.9392 -19.9392
   -19.9318 -19.9318 -19.9317 -19.9317 -19.9314 -19.9314 -19.9314 -19.9314
   -19.9263 -19.9263 -19.9260 -19.9260 -19.9256 -19.9256 -19.9253 -19.9252
   -19.9185 -19.9184 -19.9179 -19.9179 -19.9172 -19.9171 -19.9167 -19.9167
   -19.9114 -19.9114 -19.9109 -19.9109 -19.9106 -19.9106 -19.9099 -19.9099
    -8.9836  -8.9836  -8.8456  -8.8456  -8.5939  -8.5938  -8.4568  -8.4568
    -8.2520  -8.2520  -8.1870  -8.1870  -8.1004  -8.1004  -8.0803  -8.0803
    -8.0001  -8.0001  -7.9599  -7.9599  -7.8913  -7.8913  -7.6819  -7.6819
     2.5183   2.5183   2.7383   2.7384   3.1129   3.1129   3.2311   3.2312
     3.3518   3.3518   3.3993   3.3993   3.4315   3.4315   3.5112   3.5112
     3.7211   3.7212   3.7490   3.7490   3.8841   3.8841   4.1020   4.1020
     4.1600   4.1600   4.2784   4.2784   4.4144   4.4144   4.5733   4.5733
     4.7052   4.7053   4.7332   4.7332   4.8188   4.8189   4.8759   4.8759
     5.0035   5.0035   5.1695   5.1695   5.3333   5.3333   5.3684   5.3684
     7.1059   7.1059   7.3159   7.3159   7.3623   7.3623   7.4202   7.4202
     7.5150   7.5150   7.5614   7.5614   7.6858   7.6858   7.7225   7.7226
     7.7957   7.7957   7.8690   7.8690   7.9015   7.9015   7.9661   7.9661
    11.7974  11.7974  11.9704  11.9704  12.1507  12.1507  12.3007  12.3007
    12.4105  12.4105  12.5875  12.5875  12.6735  12.6735  12.7373  12.7373
    12.8539  12.8539  12.9468  12.9468  13.2766  13.2766  13.3443  13.3443
    16.3829  16.3829  16.6779  16.6780  17.1863  17.1863  17.3064  17.3064
    17.4992  17.4992  17.5916  17.5917  17.6817

          k =-0.5000 0.0000-0.5000 ( 61148 PWs)   bands (ev):

   -65.8090 -65.8089 -65.8089 -65.8089 -65.8084 -65.8083 -65.8083 -65.8083
   -30.2571 -30.2571 -30.2564 -30.2564 -30.2458 -30.2458 -30.2452 -30.2451
   -30.1689 -30.1688 -30.1685 -30.1684 -30.1067 -30.1067 -30.1061 -30.1061
   -30.0530 -30.0530 -30.0526 -30.0526 -30.0514 -30.0514 -30.0510 -30.0509
   -19.9601 -19.9601 -19.9600 -19.9600 -19.9599 -19.9599 -19.9599 -19.9599
   -19.9467 -19.9467 -19.9465 -19.9465 -19.9464 -19.9464 -19.9463 -19.9463
   -19.9409 -19.9408 -19.9407 -19.9407 -19.9399 -19.9398 -19.9398 -19.9397
   -19.9343 -19.9343 -19.9342 -19.9342 -19.9289 -19.9289 -19.9287 -19.9287
   -19.9262 -19.9261 -19.9260 -19.9260 -19.9255 -19.9255 -19.9254 -19.9254
   -19.9177 -19.9177 -19.9176 -19.9175 -19.9175 -19.9175 -19.9174 -19.9174
   -19.9110 -19.9109 -19.9108 -19.9108 -19.9106 -19.9106 -19.9105 -19.9105
    -9.0838  -9.0838  -9.0659  -9.0658  -8.5730  -8.5730  -8.4971  -8.4971
    -8.3858  -8.3858  -8.3016  -8.3015  -8.0674  -8.0674  -8.0277  -8.0276
    -7.9798  -7.9798  -7.9305  -7.9305  -7.4664  -7.4664  -7.4648  -7.4648
     1.8540   1.8540   1.8673   1.8673   3.1360   3.1360   3.1646   3.1646
     3.3116   3.3117   3.3124   3.3125   3.4922   3.4922   3.5787   3.5788
     3.6880   3.6880   3.7083   3.7083   3.8332   3.8332   3.9663   3.9663
     3.9858   3.9858   4.2182   4.2182   4.4829   4.4830   4.5597   4.5598
     4.5909   4.5910   4.7351   4.7351   5.2899   5.2899   5.3432   5.3433
     5.6671   5.6671   5.7355   5.7356   6.3672   6.3672   6.3788   6.3788
     6.6372   6.6372   6.7114   6.7114   6.7194   6.7194   6.7351   6.7351
     7.6150   7.6150   7.6329   7.6329   7.6546   7.6546   7.7738   7.7738
     7.8457   7.8457   7.9175   7.9175   7.9260   7.9260   8.1495   8.1495
    11.6306  11.6306  11.7737  11.7737  11.8720  11.8721  12.0081  12.0081
    12.4612  12.4612  12.5119  12.5119  12.6467  12.6467  12.7034  12.7034
    13.3820  13.3821  13.5144  13.5144  13.6285  13.6285  13.7484  13.7484
    15.4243  15.4243  15.4411  15.4411  16.8400  16.8401  17.1910  17.1910
    17.4524  17.4524  17.5093  17.5093  17.6867

          k =-0.5000 0.1617-0.5000 ( 61272 PWs)   bands (ev):

   -65.8089 -65.8089 -65.8089 -65.8089 -65.8084 -65.8084 -65.8083 -65.8083
   -30.2560 -30.2559 -30.2552 -30.2552 -30.2463 -30.2462 -30.2456 -30.2456
   -30.1651 -30.1651 -30.1647 -30.1647 -30.1112 -30.1111 -30.1106 -30.1105
   -30.0529 -30.0528 -30.0526 -30.0525 -30.0515 -30.0515 -30.0511 -30.0511
   -19.9601 -19.9601 -19.9600 -19.9600 -19.9600 -19.9599 -19.9599 -19.9599
   -19.9467 -19.9467 -19.9465 -19.9465 -19.9465 -19.9464 -19.9463 -19.9463
   -19.9408 -19.9408 -19.9407 -19.9407 -19.9399 -19.9399 -19.9398 -19.9398
   -19.9340 -19.9339 -19.9339 -19.9339 -19.9293 -19.9292 -19.9291 -19.9291
   -19.9261 -19.9261 -19.9260 -19.9260 -19.9256 -19.9255 -19.9255 -19.9255
   -19.9177 -19.9177 -19.9176 -19.9175 -19.9175 -19.9175 -19.9174 -19.9174
   -19.9109 -19.9109 -19.9108 -19.9108 -19.9106 -19.9106 -19.9105 -19.9105
    -9.0250  -9.0250  -9.0041  -9.0041  -8.5843  -8.5842  -8.5105  -8.5104
    -8.3679  -8.3679  -8.2858  -8.2858  -8.0674  -8.0674  -8.0279  -8.0279
    -7.9825  -7.9825  -7.9305  -7.9305  -7.5634  -7.5634  -7.5605  -7.5605
     2.0714   2.0714   2.0850   2.0851   3.1492   3.1492   3.1841   3.1841
     3.3134   3.3134   3.3154   3.3154   3.5103   3.5103   3.6139   3.6140
     3.6861   3.6861   3.7048   3.7049   3.8818   3.8818   4.0038   4.0038
     4.0319   4.0319   4.2626   4.2627   4.4641   4.4641   4.5577   4.5577
     4.5696   4.5696   4.7329   4.7329   5.0640   5.0641   5.1113   5.1113
     5.4346   5.4346   5.4748   5.4748   6.1126   6.1127   6.1136   6.1136
     6.7925   6.7925   6.8735   6.8736   6.9209   6.9209   6.9652   6.9653
     7.6165   7.6166   7.6377   7.6377   7.6682   7.6682   7.7757   7.7757
     7.8481   7.8481   7.9139   7.9139   7.9267   7.9267   8.1196   8.1196
    11.6984  11.6984  11.8522  11.8522  11.9137  11.9137  12.0736  12.0736
    12.4632  12.4632  12.5036  12.5036  12.6610  12.6610  12.7115  12.7115
    13.2496  13.2497  13.3771  13.3771  13.5234  13.5234  13.6353  13.6353
    15.7518  15.7518  15.7624  15.7624  16.8979  16.8979  17.2099  17.2099
    17.4209  17.4209  17.5249  17.5249  17.7066

          k =-0.5000 0.3234-0.5000 ( 61264 PWs)   bands (ev):

   -65.8088 -65.8088 -65.8088 -65.8088 -65.8085 -65.8085 -65.8085 -65.8085
   -30.2532 -30.2532 -30.2525 -30.2525 -30.2477 -30.2476 -30.2471 -30.2471
   -30.1545 -30.1545 -30.1541 -30.1541 -30.1232 -30.1232 -30.1226 -30.1226
   -30.0525 -30.0525 -30.0524 -30.0524 -30.0518 -30.0517 -30.0515 -30.0515
   -19.9601 -19.9600 -19.9600 -19.9600 -19.9600 -19.9599 -19.9599 -19.9599
   -19.9466 -19.9466 -19.9465 -19.9465 -19.9465 -19.9465 -19.9464 -19.9463
   -19.9406 -19.9406 -19.9405 -19.9405 -19.9401 -19.9401 -19.9400 -19.9400
   -19.9330 -19.9329 -19.9329 -19.9329 -19.9303 -19.9302 -19.9301 -19.9301
   -19.9260 -19.9260 -19.9259 -19.9259 -19.9257 -19.9256 -19.9256 -19.9256
   -19.9177 -19.9177 -19.9176 -19.9176 -19.9175 -19.9175 -19.9174 -19.9174
   -19.9109 -19.9109 -19.9108 -19.9107 -19.9107 -19.9107 -19.9106 -19.9106
    -8.8775  -8.8775  -8.8443  -8.8443  -8.6233  -8.6232  -8.5585  -8.5585
    -8.3033  -8.3033  -8.2284  -8.2284  -8.0711  -8.0711  -8.0260  -8.0259
    -8.0022  -8.0022  -7.9292  -7.9292  -7.7952  -7.7952  -7.7797  -7.7796
     2.6355   2.6355   2.6479   2.6479   3.1740   3.1740   3.2171   3.2172
     3.3231   3.3231   3.3249   3.3250   3.5558   3.5558   3.6653   3.6654
     3.6873   3.6873   3.6912   3.6912   3.9978   3.9978   4.0467   4.0467
     4.2095   4.2095   4.2676   4.2676   4.4546   4.4547   4.4851   4.4851
     4.5423   4.5423   4.7235   4.7236   4.7433   4.7433   4.7925   4.7925
     5.0342   5.0342   5.0391   5.0391   5.4328   5.4329   5.4592   5.4592
     7.0872   7.0872   7.2035   7.2035   7.2257   7.2257   7.3351   7.3352
     7.6100   7.6100   7.6446   7.6447   7.6706   7.6706   7.7748   7.7748
     7.8511   7.8511   7.8806   7.8806   7.9127   7.9128   8.0326   8.0326
    11.9109  11.9109  12.0521  12.0521  12.0635  12.0635  12.2401  12.2401
    12.4628  12.4628  12.4796  12.4796  12.7123  12.7124  12.7467  12.7467
    12.9348  12.9348  13.0515  13.0515  13.2340  13.2340  13.3194  13.3194
    16.5551  16.5551  16.5587  16.5587  17.0715  17.0715  17.2530  17.2530
    17.3210  17.3210  17.5554  17.5554  17.7770

          k =-0.5000-0.4851-0.5000 ( 61200 PWs)   bands (ev):

   -65.8087 -65.8087 -65.8086 -65.8086 -65.8086 -65.8086 -65.8086 -65.8086
   -30.2508 -30.2508 -30.2495 -30.2495 -30.2494 -30.2494 -30.2494 -30.2494
   -30.1393 -30.1393 -30.1392 -30.1392 -30.1392 -30.1391 -30.1381 -30.1381
   -30.0522 -30.0522 -30.0521 -30.0521 -30.0521 -30.0521 -30.0519 -30.0519
   -19.9600 -19.9600 -19.9600 -19.9600 -19.9600 -19.9600 -19.9600 -19.9599
   -19.9466 -19.9466 -19.9465 -19.9465 -19.9464 -19.9464 -19.9464 -19.9464
   -19.9404 -19.9404 -19.9403 -19.9403 -19.9403 -19.9403 -19.9402 -19.9401
   -19.9316 -19.9316 -19.9316 -19.9316 -19.9316 -19.9316 -19.9315 -19.9315
   -19.9259 -19.9259 -19.9258 -19.9258 -19.9258 -19.9258 -19.9258 -19.9258
   -19.9176 -19.9176 -19.9176 -19.9176 -19.9175 -19.9175 -19.9174 -19.9174
   -19.9108 -19.9108 -19.9108 -19.9108 -19.9107 -19.9107 -19.9106 -19.9106
    -8.7499  -8.7498  -8.6876  -8.6875  -8.6681  -8.6681  -8.6681  -8.6681
    -8.2055  -8.2054  -8.1171  -8.1171  -8.1171  -8.1171  -8.0813  -8.0813
    -7.9923  -7.9923  -7.9922  -7.9922  -7.9214  -7.9214  -7.9011  -7.9011
     3.1380   3.1380   3.1380   3.1380   3.1466   3.1466   3.1906   3.1906
     3.3563   3.3563   3.4928   3.4928   3.4928   3.4928   3.5918   3.5918
     3.6700   3.6700   3.7924   3.7924   3.7924   3.7924   3.8090   3.8090
     4.3737   4.3737   4.3852   4.3852   4.4710   4.4710   4.4710   4.4711
     4.6687   4.6687   4.6687   4.6688   4.6711   4.6711   4.7758   4.7758
     4.8221   4.8222   4.8972   4.8972   4.9023   4.9023   4.9023   4.9024
     7.2211   7.2211   7.3671   7.3671   7.3671   7.3671   7.5344   7.5345
     7.6196   7.6196   7.6196   7.6196   7.6638   7.6638   7.7572   7.7572
     7.8573   7.8574   7.8725   7.8725   7.8725   7.8725   7.9539   7.9539
    12.1570  12.1570  12.2027  12.2027  12.2027  12.2027  12.2352  12.2352
    12.5465  12.5465  12.5465  12.5465  12.5535  12.5535  12.7835  12.7835
    12.8258  12.8258  12.9650  12.9650  12.9650  12.9650  12.9954  12.9954
    17.1341  17.1341  17.1341  17.1341  17.2291  17.2291  17.2903  17.2903
    17.6117  17.6187  17.6188  17.6188  17.6188

     the Fermi energy is    10.3756 ev

!    total energy              =   -6260.92901225 Ry
     Harris-Foulkes estimate   =   -6260.92901225 Ry
     estimated scf accuracy    <          8.2E-10 Ry

     The total energy is the sum of the following terms:

     one-electron contribution =   -4633.07480043 Ry
     hartree contribution      =    2557.84649789 Ry
     xc contribution           =    -965.85528707 Ry
     ewald contribution        =   -3219.84540924 Ry
     smearing contrib. (-TS)   =      -0.00001339 Ry

     convergence has been achieved in  13 iterations

     Writing output data file Landau_31.save
 
     init_run     :     15.54s CPU     16.81s WALL (       1 calls)
     electrons    :    729.16s CPU    748.22s WALL (       1 calls)

     Called by init_run:
     wfcinit      :     14.09s CPU     15.20s WALL (       1 calls)
     potinit      :      0.57s CPU      0.60s WALL (       1 calls)

     Called by electrons:
     c_bands      :    636.19s CPU    653.40s WALL (      13 calls)
     sum_band     :     85.77s CPU     86.52s WALL (      13 calls)
     v_of_rho     :      1.24s CPU      1.27s WALL (      14 calls)
     mix_rho      :      3.10s CPU      3.54s WALL (      13 calls)

     Called by c_bands:
     init_us_2    :      6.38s CPU      6.90s WALL (      27 calls)
     cegterg      :    460.75s CPU    477.36s WALL (      13 calls)

     Called by sum_band:

     Called by *egterg:
     h_psi        :    374.04s CPU    377.12s WALL (      54 calls)
     g_psi        :      1.00s CPU      1.00s WALL (      40 calls)
     cdiaghg      :      5.95s CPU      6.01s WALL (      53 calls)

     Called by h_psi:
     h_psi:pot    :    370.75s CPU    373.67s WALL (      54 calls)
     h_psi:calbec :     35.82s CPU     37.22s WALL (      54 calls)
     vloc_psi     :    296.78s CPU    298.07s WALL (      54 calls)
     add_vuspsi   :     38.15s CPU     38.37s WALL (      54 calls)

     General routines
     calbec       :     35.82s CPU     37.22s WALL (      54 calls)
     fft          :      0.91s CPU      0.92s WALL (      56 calls)
     fftw         :    295.79s CPU    296.69s WALL (   17119 calls)
 
     Parallel routines
 
     PWSCF        : 12m27.91s CPU    12m50.33s WALL

 
   This run was terminated on:  17:40:17  13Sep2019            

=------------------------------------------------------------------------------=
   JOB DONE.
=------------------------------------------------------------------------------=
