
     Program PWSCF v.6.2 (svn rev. 14038) starts on 28Feb2020 at 17:23:38 

     This program is part of the open-source Quantum ESPRESSO suite
     for quantum simulation of materials; please cite
         "P. Giannozzi et al., J. Phys.:Condens. Matter 21 395502 (2009);
         "P. Giannozzi et al., J. Phys.:Condens. Matter 29 465901 (2017);
          URL http://www.quantum-espresso.org", 
     in publications or presentations arising from this work. More details at
     http://www.quantum-espresso.org/quote

     Parallel version (MPI), running on    40 processors

     MPI processes distributed on     6 nodes
     K-points division:     npool     =      40
     Reading input from rscf.in

     Current dimensions of program PWSCF are:
     Max number of different atomic species (ntypx) = 10
     Max number of k-points (npk) =  40000
     Max angular momentum in pseudopotentials (lmaxx) =  3

     Subspace diagonalization in iterative solution of the eigenvalue problem:
     a serial algorithm will be used

 
     G-vector sticks info
     --------------------
     sticks:   dense  smooth     PW     G-vecs:    dense   smooth      PW
     Sum        7747    7747   2077               498127   498127   69057
 


     bravais-lattice index     =            0
     lattice parameter (alat)  =      13.8397  a.u.
     unit-cell volume          =    2804.9816 (a.u.)^3
     number of atoms/cell      =           32
     number of atomic types    =            2
     number of electrons       =       368.00
     number of Kohn-Sham states=          221
     kinetic-energy cutoff     =     120.0000  Ry
     charge density cutoff     =     480.0000  Ry
     convergence threshold     =      1.0E-08
     mixing beta               =       0.7000
     number of iterations used =            8  plain     mixing
     Exchange-correlation      = SLA PW NOGX NOGC ( 1  4  0  0 0 0)
     nstep                     =           50


     celldm(1)=  13.839685  celldm(2)=   0.000000  celldm(3)=   0.000000
     celldm(4)=   0.000000  celldm(5)=   0.000000  celldm(6)=   0.000000

     crystal axes: (cart. coord. in units of alat)
               a(1) = (   1.000000   0.000000   0.000000 )  
               a(2) = (   0.000000   1.058160   0.000000 )  
               a(3) = (   0.000000   0.000000   1.000000 )  

     reciprocal axes: (cart. coord. in units 2 pi/alat)
               b(1) = (  1.000000  0.000000  0.000000 )  
               b(2) = (  0.000000  0.945037  0.000000 )  
               b(3) = (  0.000000  0.000000  1.000000 )  


     PseudoPot. # 1 for W  read from file:
     /cluster/scratch/mnoe/QE/pps/W_ONCV_LDA-4.0.upf
     MD5 check sum: ba0307d5d4cd419d6f1d13dc49d7c13a
     Pseudo is Norm-conserving + core correction, Zval = 28.0
     Generated using ONCVPSP code by D. R. Hamann
     Using radial grid of 1380 points,  8 beta functions with: 
                l(1) =   0
                l(2) =   0
                l(3) =   1
                l(4) =   1
                l(5) =   2
                l(6) =   2
                l(7) =   3
                l(8) =   3

     PseudoPot. # 2 for O  read from file:
     /cluster/scratch/mnoe/QE/pps/O_ONCV_LDA-3.0.upf
     MD5 check sum: a1bd6164e7280c17a38c229939bfbd54
     Pseudo is Norm-conserving + core correction, Zval =  6.0
     Generated using ONCVPSP code by D. R. Hamann
     Using radial grid of  926 points,  5 beta functions with: 
                l(1) =   0
                l(2) =   0
                l(3) =   1
                l(4) =   1
                l(5) =   2

     atomic species   valence    mass     pseudopotential
        W             28.00   183.84000     W ( 1.00)
        O              6.00    15.99940     O ( 1.00)

      8 Sym. Ops. (no inversion) found ( 4 have fractional translation)



   Cartesian axes

     site n.     atom                  positions (alat units)
         1           W   tau(   1) = (   0.2661800   0.3047213   0.2504600  )
         2           W   tau(   2) = (  -0.2504600   0.7534388  -0.7338200  )
         3           W   tau(   3) = (   0.2338200   0.2243587   0.7504600  )
         4           W   tau(   4) = (   0.7504600   0.8338013   0.7661800  )
         5           W   tau(   5) = (   0.7338200   0.3047213   0.7495400  )
         6           W   tau(   6) = (   0.2504600   0.7534388   0.7338200  )
         7           W   tau(   7) = (  -0.2338200   0.2243587  -0.7504600  )
         8           W   tau(   8) = (   0.2495400   0.8338013   0.2338200  )
         9           O   tau(   9) = (   0.2678100   0.0210434   0.2629100  )
        10           O   tau(  10) = (  -0.2629101   1.0371167  -0.7321900  )
        11           O   tau(  11) = (   0.2321900   0.5080366   0.7629100  )
        12           O   tau(  12) = (   0.7629100   0.5501235   0.7678100  )
        13           O   tau(  13) = (   0.7321900   0.0210434   0.7370900  )
        14           O   tau(  14) = (   0.2629100   1.0371167   0.7321900  )
        15           O   tau(  15) = (  -0.2321900   0.5080366  -0.7629101  )
        16           O   tau(  16) = (   0.2370900   0.5501235   0.2321900  )
        17           O   tau(  17) = (   0.4942701   0.2848461   0.7311354  )
        18           O   tau(  18) = (   0.4988300   0.7805941   0.7688646  )
        19           O   tau(  19) = (  -0.9942701   0.2442339   1.2311354  )
        20           O   tau(  20) = (   0.0011699   0.8066459   0.2688646  )
        21           O   tau(  21) = (   0.5057299   0.2848461   0.2688646  )
        22           O   tau(  22) = (   0.5011700   0.7805941   1.2311354  )
        23           O   tau(  23) = (  -0.0057300   0.2442339   0.7688646  )
        24           O   tau(  24) = (  -1.0011699   0.8066459   0.7311354  )
        25           O   tau(  25) = (   0.7311355   0.2515141   2.0011699  )
        26           O   tau(  26) = (   0.2688646   0.7733139   0.4942700  )
        27           O   tau(  27) = (   0.7688646   0.2775660   0.5011699  )
        28           O   tau(  28) = (   0.2311354   0.8139261   1.9942700  )
        29           O   tau(  29) = (   0.2688646   0.2515141   0.9988300  )
        30           O   tau(  30) = (   0.7311355   0.7733139   0.5057299  )
        31           O   tau(  31) = (   0.2311354   0.2775660   0.4988300  )
        32           O   tau(  32) = (   0.7688646   0.8139261   1.0057300  )

     number of k points=    40  gaussian smearing, width (Ry)=  0.0007
                       cart. coord. in units 2pi/alat
        k(    1) = (   0.0000000   0.0000000   0.0000000), wk =   0.0092593
        k(    2) = (   0.0000000   0.0000000   0.1666667), wk =   0.0370370
        k(    3) = (   0.0000000   0.0000000   0.3333333), wk =   0.0370370
        k(    4) = (   0.0000000   0.0000000  -0.5000000), wk =   0.0185185
        k(    5) = (   0.0000000   0.1575061   0.0000000), wk =   0.0185185
        k(    6) = (   0.0000000   0.1575061   0.1666667), wk =   0.0740741
        k(    7) = (   0.0000000   0.1575061   0.3333333), wk =   0.0740741
        k(    8) = (   0.0000000   0.1575061  -0.5000000), wk =   0.0370370
        k(    9) = (   0.0000000   0.3150122   0.0000000), wk =   0.0185185
        k(   10) = (   0.0000000   0.3150122   0.1666667), wk =   0.0740741
        k(   11) = (   0.0000000   0.3150122   0.3333333), wk =   0.0740741
        k(   12) = (   0.0000000   0.3150122  -0.5000000), wk =   0.0370370
        k(   13) = (   0.0000000  -0.4725183   0.0000000), wk =   0.0092593
        k(   14) = (   0.0000000  -0.4725183   0.1666667), wk =   0.0370370
        k(   15) = (   0.0000000  -0.4725183   0.3333333), wk =   0.0370370
        k(   16) = (   0.0000000  -0.4725183  -0.5000000), wk =   0.0185185
        k(   17) = (   0.1666667   0.0000000   0.1666667), wk =   0.0370370
        k(   18) = (   0.1666667   0.0000000   0.3333333), wk =   0.0740741
        k(   19) = (   0.1666667   0.0000000  -0.5000000), wk =   0.0370370
        k(   20) = (   0.1666667   0.1575061   0.1666667), wk =   0.0740741
        k(   21) = (   0.1666667   0.1575061   0.3333333), wk =   0.1481481
        k(   22) = (   0.1666667   0.1575061  -0.5000000), wk =   0.0740741
        k(   23) = (   0.1666667   0.3150122   0.1666667), wk =   0.0740741
        k(   24) = (   0.1666667   0.3150122   0.3333333), wk =   0.1481481
        k(   25) = (   0.1666667   0.3150122  -0.5000000), wk =   0.0740741
        k(   26) = (   0.1666667  -0.4725183   0.1666667), wk =   0.0370370
        k(   27) = (   0.1666667  -0.4725183   0.3333333), wk =   0.0740741
        k(   28) = (   0.1666667  -0.4725183  -0.5000000), wk =   0.0370370
        k(   29) = (   0.3333333   0.0000000   0.3333333), wk =   0.0370370
        k(   30) = (   0.3333333   0.0000000  -0.5000000), wk =   0.0370370
        k(   31) = (   0.3333333   0.1575061   0.3333333), wk =   0.0740741
        k(   32) = (   0.3333333   0.1575061  -0.5000000), wk =   0.0740741
        k(   33) = (   0.3333333   0.3150122   0.3333333), wk =   0.0740741
        k(   34) = (   0.3333333   0.3150122  -0.5000000), wk =   0.0740741
        k(   35) = (   0.3333333  -0.4725183   0.3333333), wk =   0.0370370
        k(   36) = (   0.3333333  -0.4725183  -0.5000000), wk =   0.0370370
        k(   37) = (  -0.5000000   0.0000000  -0.5000000), wk =   0.0092593
        k(   38) = (  -0.5000000   0.1575061  -0.5000000), wk =   0.0185185
        k(   39) = (  -0.5000000   0.3150122  -0.5000000), wk =   0.0185185
        k(   40) = (  -0.5000000  -0.4725183  -0.5000000), wk =   0.0092593

     Dense  grid:   498127 G-vectors     FFT dimensions: ( 100, 108, 100)

     Estimated max dynamical RAM per process >       2.74 GB

     Estimated total dynamical RAM >     109.40 GB

     Initial potential from superposition of free atoms

     starting charge  367.99656, renormalised to  368.00000
     Starting wfc are  232 randomized atomic wfcs

     total cpu time spent up to now is       45.8 secs

     Self-consistent Calculation

     iteration #  1     ecut=   120.00 Ry     beta= 0.70
     Davidson diagonalization with overlap
     ethr =  1.00E-02,  avg # of iterations =  5.1

     total cpu time spent up to now is      135.2 secs

     total energy              =   -6253.92816110 Ry
     Harris-Foulkes estimate   =   -6264.52578366 Ry
     estimated scf accuracy    <      13.43518435 Ry

     iteration #  2     ecut=   120.00 Ry     beta= 0.70
     Davidson diagonalization with overlap
     ethr =  3.65E-03,  avg # of iterations =  3.6

     total cpu time spent up to now is      221.4 secs

     total energy              =   -6250.78394971 Ry
     Harris-Foulkes estimate   =   -6270.60515466 Ry
     estimated scf accuracy    <      53.21196989 Ry

     iteration #  3     ecut=   120.00 Ry     beta= 0.70
     Davidson diagonalization with overlap
     ethr =  3.65E-03,  avg # of iterations =  3.6

     total cpu time spent up to now is      303.4 secs

     total energy              =   -6260.96983908 Ry
     Harris-Foulkes estimate   =   -6261.38219784 Ry
     estimated scf accuracy    <       1.29841793 Ry

     iteration #  4     ecut=   120.00 Ry     beta= 0.70
     Davidson diagonalization with overlap
     ethr =  3.53E-04,  avg # of iterations =  2.5

     total cpu time spent up to now is      373.2 secs

     total energy              =   -6261.02212043 Ry
     Harris-Foulkes estimate   =   -6261.11317522 Ry
     estimated scf accuracy    <       0.31524719 Ry

     iteration #  5     ecut=   120.00 Ry     beta= 0.70
     Davidson diagonalization with overlap
     ethr =  8.57E-05,  avg # of iterations =  4.2

     total cpu time spent up to now is      442.7 secs

     total energy              =   -6261.00564537 Ry
     Harris-Foulkes estimate   =   -6261.04949842 Ry
     estimated scf accuracy    <       0.09432543 Ry

     iteration #  6     ecut=   120.00 Ry     beta= 0.70
     Davidson diagonalization with overlap
     ethr =  2.56E-05,  avg # of iterations =  6.3

     total cpu time spent up to now is      519.6 secs

     total energy              =   -6261.02730348 Ry
     Harris-Foulkes estimate   =   -6261.02908654 Ry
     estimated scf accuracy    <       0.00532123 Ry

     iteration #  7     ecut=   120.00 Ry     beta= 0.70
     Davidson diagonalization with overlap
     ethr =  1.45E-06,  avg # of iterations =  5.3

     total cpu time spent up to now is      595.9 secs

     total energy              =   -6261.02781517 Ry
     Harris-Foulkes estimate   =   -6261.02794342 Ry
     estimated scf accuracy    <       0.00035993 Ry

     iteration #  8     ecut=   120.00 Ry     beta= 0.70
     Davidson diagonalization with overlap
     ethr =  9.78E-08,  avg # of iterations =  3.0

     total cpu time spent up to now is      668.7 secs

     total energy              =   -6261.02786178 Ry
     Harris-Foulkes estimate   =   -6261.02788902 Ry
     estimated scf accuracy    <       0.00005888 Ry

     iteration #  9     ecut=   120.00 Ry     beta= 0.70
     Davidson diagonalization with overlap
     ethr =  1.60E-08,  avg # of iterations =  3.1

     total cpu time spent up to now is      742.8 secs

     total energy              =   -6261.02787622 Ry
     Harris-Foulkes estimate   =   -6261.02787832 Ry
     estimated scf accuracy    <       0.00000685 Ry

     iteration # 10     ecut=   120.00 Ry     beta= 0.70
     Davidson diagonalization with overlap
     ethr =  1.86E-09,  avg # of iterations =  2.0

     total cpu time spent up to now is      811.9 secs

     total energy              =   -6261.02787621 Ry
     Harris-Foulkes estimate   =   -6261.02787704 Ry
     estimated scf accuracy    <       0.00000185 Ry

     iteration # 11     ecut=   120.00 Ry     beta= 0.70
     Davidson diagonalization with overlap
     ethr =  5.02E-10,  avg # of iterations =  2.5

     total cpu time spent up to now is      883.4 secs

     total energy              =   -6261.02787658 Ry
     Harris-Foulkes estimate   =   -6261.02787659 Ry
     estimated scf accuracy    <       0.00000003 Ry

     iteration # 12     ecut=   120.00 Ry     beta= 0.70
     Davidson diagonalization with overlap
     ethr =  7.11E-12,  avg # of iterations =  3.0

     total cpu time spent up to now is      968.1 secs

     End of self-consistent calculation

          k = 0.0000 0.0000 0.0000 ( 62239 PWs)   bands (ev):

   -66.1273 -66.1269 -66.1264 -66.1264 -66.1260 -66.1260 -66.1256 -66.1252
   -30.5994 -30.5989 -30.5939 -30.5939 -30.5174 -30.5169 -30.5125 -30.5125
   -30.4989 -30.4989 -30.4961 -30.4950 -30.4197 -30.4197 -30.4148 -30.4144
   -30.4079 -30.4045 -30.4045 -30.4013 -30.3503 -30.3480 -30.3480 -30.3457
   -20.2789 -20.2788 -20.2782 -20.2782 -20.2782 -20.2782 -20.2776 -20.2775
   -20.2678 -20.2677 -20.2668 -20.2668 -20.2646 -20.2646 -20.2640 -20.2639
   -20.2566 -20.2564 -20.2550 -20.2550 -20.2543 -20.2543 -20.2530 -20.2530
   -20.2529 -20.2528 -20.2528 -20.2526 -20.2490 -20.2490 -20.2489 -20.2483
   -20.2443 -20.2439 -20.2439 -20.2433 -20.2403 -20.2402 -20.2402 -20.2402
   -20.2386 -20.2386 -20.2386 -20.2386 -20.2354 -20.2353 -20.2353 -20.2351
   -20.2341 -20.2337 -20.2336 -20.2336 -20.2331 -20.2331 -20.2331 -20.2327
   -10.0764  -9.8496  -9.6631  -9.6631  -9.4381  -9.4381  -9.1779  -9.1607
    -8.7754  -8.6424  -8.6424  -8.6178  -7.9507  -7.9221  -7.8633  -7.8633
    -7.7923  -7.7865  -7.7247  -7.7247  -7.5829  -7.5207  -7.5207  -7.4642
     0.8824   0.8827   1.0263   1.0263   1.1308   1.1308   1.2965   1.3425
     1.8169   1.8218   1.8218   1.8632   2.1876   2.2833   2.5287   2.5715
     2.6225   2.6225   3.9755   3.9755   4.1251   4.1409   4.3991   4.3991
     4.5083   4.5083   4.8968   5.1516   5.2170   5.2170   5.2444   5.5436
     5.5436   5.5832   5.5864   5.5933   5.5933   5.7292   5.7292   5.7710
     5.9097   5.9604   5.9731   5.9988   5.9988   6.0333   6.0465   6.1064
     6.2557   6.3752   6.4268   6.4853   6.4853   6.7345   6.8956   6.8956
     6.9430   6.9613   6.9613   6.9642   6.9810   7.1004   7.1004   7.1598
     7.1919   7.1919   8.2090   8.2132   8.2374   8.2769   8.2769   8.3046
     9.3195   9.3307   9.8735   9.8735   9.9508  10.0362  12.4074  12.4074
    12.4257  12.5008  12.6602  12.6602  12.8993  12.8993  13.1215  13.3157
    13.4161  13.4161  13.5365  13.6921  13.8284  13.8284  14.0634  14.2829
    14.3669  14.5019  14.5019  14.6731  15.0198  15.0558  15.3835  15.9139
    15.9139  16.6941  17.0992  17.0992  17.1934

          k = 0.0000 0.0000 0.1667 ( 62262 PWs)   bands (ev):

   -66.1272 -66.1268 -66.1265 -66.1264 -66.1261 -66.1260 -66.1256 -66.1252
   -30.5988 -30.5942 -30.5926 -30.5874 -30.5168 -30.5137 -30.5110 -30.5069
   -30.5049 -30.5024 -30.4978 -30.4958 -30.4268 -30.4219 -30.4193 -30.4149
   -30.4076 -30.4041 -30.4040 -30.4010 -30.3501 -30.3480 -30.3477 -30.3457
   -20.2789 -20.2788 -20.2783 -20.2782 -20.2782 -20.2781 -20.2777 -20.2776
   -20.2677 -20.2675 -20.2668 -20.2666 -20.2648 -20.2646 -20.2641 -20.2640
   -20.2564 -20.2563 -20.2551 -20.2548 -20.2544 -20.2542 -20.2531 -20.2530
   -20.2529 -20.2528 -20.2527 -20.2526 -20.2494 -20.2491 -20.2490 -20.2485
   -20.2443 -20.2440 -20.2439 -20.2434 -20.2403 -20.2402 -20.2401 -20.2399
   -20.2387 -20.2386 -20.2385 -20.2385 -20.2357 -20.2356 -20.2353 -20.2352
   -20.2341 -20.2336 -20.2336 -20.2335 -20.2331 -20.2330 -20.2330 -20.2327
   -10.0259  -9.7965  -9.6754  -9.5779  -9.4487  -9.3490  -9.1408  -9.1178
    -8.7912  -8.6501  -8.6323  -8.6121  -8.0628  -7.9958  -7.9401  -7.9177
    -7.8678  -7.8533  -7.7852  -7.7291  -7.5791  -7.5251  -7.5180  -7.4683
     0.9447   1.0165   1.0239   1.1313   1.2860   1.3930   1.4333   1.5336
     1.8074   1.8309   1.8518   1.8532   2.2742   2.3692   2.5484   2.6172
     2.6515   2.7114   3.9409   3.9544   4.1032   4.1113   4.1493   4.1770
     4.4984   4.5774   4.7621   4.7928   4.9851   5.2179   5.2314   5.3166
     5.4643   5.4932   5.5273   5.5924   5.6251   5.6435   5.6836   5.7595
     5.7657   5.9579   5.9920   5.9968   6.0334   6.0424   6.0767   6.2485
     6.2540   6.4054   6.4740   6.5906   6.6893   6.7053   6.8181   6.8501
     6.8660   6.8715   6.8911   6.9359   6.9546   7.0115   7.0270   7.1012
     7.1045   7.1494   8.1416   8.1544   8.2082   8.2407   8.2805   8.2909
     9.6344   9.6855   9.8823   9.9771  10.2034  10.2838  12.3872  12.4460
    12.4841  12.5019  12.5522  12.6940  12.7199  12.9457  13.0673  13.1761
    13.2772  13.4169  13.6156  13.7395  13.8177  13.8278  14.0306  14.1540
    14.3405  14.4908  14.4979  14.7953  15.1553  15.1860  15.3511  15.8942
    16.2860  16.8132  16.8684  17.2838  17.3088

          k = 0.0000 0.0000 0.3333 ( 62268 PWs)   bands (ev):

   -66.1271 -66.1267 -66.1266 -66.1262 -66.1262 -66.1258 -66.1258 -66.1254
   -30.5979 -30.5952 -30.5748 -30.5697 -30.5261 -30.5206 -30.5157 -30.5120
   -30.5004 -30.4968 -30.4931 -30.4870 -30.4453 -30.4401 -30.4184 -30.4159
   -30.4066 -30.4043 -30.4032 -30.4012 -30.3495 -30.3481 -30.3471 -30.3459
   -20.2788 -20.2787 -20.2784 -20.2783 -20.2781 -20.2780 -20.2778 -20.2777
   -20.2675 -20.2670 -20.2669 -20.2660 -20.2654 -20.2646 -20.2645 -20.2641
   -20.2561 -20.2558 -20.2554 -20.2548 -20.2544 -20.2539 -20.2534 -20.2531
   -20.2529 -20.2528 -20.2522 -20.2520 -20.2502 -20.2499 -20.2489 -20.2487
   -20.2443 -20.2441 -20.2439 -20.2435 -20.2403 -20.2402 -20.2397 -20.2395
   -20.2388 -20.2388 -20.2381 -20.2380 -20.2365 -20.2364 -20.2353 -20.2352
   -20.2339 -20.2336 -20.2335 -20.2334 -20.2332 -20.2330 -20.2329 -20.2327
    -9.9076  -9.7154  -9.6719  -9.4837  -9.3440  -9.0974  -9.0217  -8.9617
    -8.8574  -8.6832  -8.5938  -8.5897  -8.3678  -8.3245  -8.2310  -8.1913
    -7.9114  -7.8802  -7.7735  -7.7411  -7.5687  -7.5371  -7.5085  -7.4793
     0.9941   1.0183   1.1123   1.1322   1.6993   1.7688   1.7797   1.8297
     2.0363   2.1174   2.1896   2.2634   2.5145   2.5605   2.6083   2.6315
     2.8936   2.9236   3.5003   3.5997   3.7464   3.9522   4.0062   4.0758
     4.2334   4.2835   4.4955   4.6576   4.7593   4.8771   4.8880   5.0139
     5.1776   5.1949   5.2905   5.3364   5.3761   5.5075   5.7134   5.7796
     5.8733   5.9702   5.9947   6.0600   6.0637   6.1305   6.2078   6.2604
     6.2996   6.3205   6.4037   6.4619   6.5224   6.5767   6.6318   6.7227
     6.8356   6.9339   6.9460   6.9761   7.0289   7.0872   7.1003   7.1349
     7.3805   7.4281   7.9187   7.9571   8.0817   8.1122   8.2805   8.2837
     9.9039   9.9418  10.3786  10.4620  10.9297  10.9661  11.9568  12.1222
    12.3494  12.4613  12.5914  12.6716  12.7185  12.7565  12.9114  13.0938
    13.2444  13.4253  13.5244  13.5623  13.6158  13.7973  13.8272  13.9004
    14.3962  14.4842  14.7284  15.1274  15.2456  15.5045  15.7550  15.8222
    16.2575  17.2401  17.3549  17.4596  17.5048

          k = 0.0000 0.0000-0.5000 ( 62264 PWs)   bands (ev):

   -66.1269 -66.1269 -66.1265 -66.1265 -66.1260 -66.1260 -66.1256 -66.1256
   -30.5966 -30.5965 -30.5504 -30.5504 -30.5453 -30.5453 -30.5141 -30.5141
   -30.4982 -30.4982 -30.4695 -30.4695 -30.4640 -30.4640 -30.4172 -30.4171
   -30.4053 -30.4053 -30.4021 -30.4021 -30.3487 -30.3487 -30.3464 -30.3464
   -20.2786 -20.2786 -20.2785 -20.2785 -20.2779 -20.2779 -20.2778 -20.2778
   -20.2673 -20.2673 -20.2661 -20.2661 -20.2653 -20.2653 -20.2643 -20.2643
   -20.2557 -20.2557 -20.2553 -20.2553 -20.2539 -20.2539 -20.2535 -20.2535
   -20.2529 -20.2529 -20.2513 -20.2513 -20.2510 -20.2510 -20.2488 -20.2488
   -20.2442 -20.2442 -20.2437 -20.2437 -20.2403 -20.2402 -20.2392 -20.2392
   -20.2391 -20.2391 -20.2373 -20.2373 -20.2373 -20.2372 -20.2353 -20.2353
   -20.2337 -20.2337 -20.2333 -20.2333 -20.2332 -20.2332 -20.2328 -20.2328
    -9.7916  -9.7916  -9.5545  -9.5545  -9.0479  -9.0478  -8.8171  -8.8171
    -8.7253  -8.7253  -8.6893  -8.6893  -8.5094  -8.5094  -8.4764  -8.4764
    -7.8967  -7.8967  -7.7574  -7.7574  -7.5532  -7.5532  -7.4941  -7.4941
     1.0104   1.0104   1.1300   1.1301   1.7519   1.7519   1.8096   1.8096
     2.5622   2.5622   2.8052   2.8052   2.8682   2.8683   3.0074   3.0074
     3.0214   3.0214   3.0424   3.0424   3.3124   3.3124   3.8476   3.8476
     3.9594   3.9594   4.1100   4.1100   4.8289   4.8289   5.0117   5.0117
     5.0801   5.0801   5.2061   5.2061   5.3287   5.3287   5.8387   5.8387
     5.9448   5.9448   5.9892   5.9892   6.1024   6.1024   6.1689   6.1689
     6.2918   6.2918   6.3950   6.3951   6.4726   6.4726   6.5888   6.5888
     6.8688   6.8688   6.9390   6.9390   7.0900   7.0900   7.5392   7.5392
     7.5965   7.5965   7.8073   7.8073   7.8432   7.8432   8.2820   8.2820
     9.9284   9.9284  11.2020  11.2020  11.3311  11.3311  11.7562  11.7562
    11.8098  11.8098  12.4805  12.4805  13.0635  13.0635  13.1044  13.1044
    13.2380  13.2380  13.3338  13.3338  13.4959  13.4959  13.8337  13.8337
    14.4547  14.4547  15.0424  15.0424  15.5784  15.5784  15.7883  15.7883
    16.6227  16.6227  17.7062  17.7062  17.9183

          k = 0.0000 0.1575 0.0000 ( 62231 PWs)   bands (ev):

   -66.1273 -66.1269 -66.1264 -66.1264 -66.1261 -66.1260 -66.1255 -66.1252
   -30.5993 -30.5989 -30.5939 -30.5939 -30.5174 -30.5170 -30.5125 -30.5125
   -30.4989 -30.4989 -30.4960 -30.4950 -30.4197 -30.4197 -30.4148 -30.4144
   -30.4041 -30.4007 -30.4007 -30.3976 -30.3542 -30.3518 -30.3518 -30.3495
   -20.2789 -20.2789 -20.2782 -20.2782 -20.2782 -20.2782 -20.2776 -20.2775
   -20.2678 -20.2677 -20.2668 -20.2668 -20.2646 -20.2646 -20.2640 -20.2639
   -20.2565 -20.2564 -20.2550 -20.2550 -20.2543 -20.2543 -20.2530 -20.2530
   -20.2529 -20.2528 -20.2528 -20.2527 -20.2490 -20.2490 -20.2488 -20.2484
   -20.2440 -20.2436 -20.2436 -20.2430 -20.2404 -20.2402 -20.2402 -20.2401
   -20.2390 -20.2389 -20.2389 -20.2389 -20.2353 -20.2353 -20.2353 -20.2351
   -20.2341 -20.2337 -20.2335 -20.2335 -20.2331 -20.2331 -20.2331 -20.2327
   -10.0559  -9.8605  -9.6483  -9.6483  -9.4412  -9.4412  -9.1767  -9.1617
    -8.7045  -8.5881  -8.5881  -8.5651  -7.9545  -7.9217  -7.8650  -7.8650
    -7.7923  -7.7873  -7.7251  -7.7251  -7.6699  -7.6151  -7.6151  -7.5675
     0.8822   0.8826   1.0261   1.0261   1.1304   1.1304   1.3145   1.3420
     1.9718   2.0502   2.0502   2.1451   2.1942   2.2776   2.5960   2.6457
     2.6906   2.6906   3.8407   3.8407   3.9291   3.9468   4.3991   4.3991
     4.5006   4.5006   4.7282   5.2108   5.2258   5.2258   5.2736   5.3414
     5.3414   5.5823   5.5823   5.6429   5.6549   5.6549   5.6726   5.7597
     5.7894   5.9611   5.9678   5.9942   6.0273   6.0900   6.0900   6.1055
     6.1634   6.3521   6.4245   6.5627   6.5627   6.7760   6.8713   6.8713
     6.9188   6.9427   6.9427   6.9454   6.9861   6.9951   7.0028   7.0028
     7.1810   7.1810   8.1626   8.2092   8.2120   8.2120   8.2229   8.2247
     9.3237   9.3347  10.0773  10.0773  10.1580  10.2189  12.2586  12.2586
    12.2791  12.3343  12.6619  12.6619  12.9028  12.9028  13.1435  13.3383
    13.4375  13.4375  13.6657  13.7788  13.9130  13.9130  14.0742  14.2456
    14.3793  14.6109  14.6109  14.8028  15.0081  15.0546  15.7891  15.8797
    15.8797  16.4058  17.2363  17.2363  17.2619

          k = 0.0000 0.1575 0.1667 ( 62237 PWs)   bands (ev):

   -66.1272 -66.1269 -66.1265 -66.1263 -66.1261 -66.1260 -66.1256 -66.1253
   -30.5988 -30.5942 -30.5926 -30.5874 -30.5168 -30.5137 -30.5111 -30.5069
   -30.5049 -30.5023 -30.4978 -30.4958 -30.4268 -30.4218 -30.4193 -30.4149
   -30.4037 -30.4004 -30.4004 -30.3974 -30.3540 -30.3518 -30.3515 -30.3495
   -20.2789 -20.2788 -20.2783 -20.2782 -20.2782 -20.2781 -20.2776 -20.2776
   -20.2677 -20.2675 -20.2668 -20.2666 -20.2648 -20.2646 -20.2641 -20.2640
   -20.2564 -20.2563 -20.2551 -20.2548 -20.2544 -20.2542 -20.2530 -20.2530
   -20.2529 -20.2528 -20.2527 -20.2526 -20.2493 -20.2491 -20.2490 -20.2485
   -20.2440 -20.2437 -20.2436 -20.2431 -20.2404 -20.2403 -20.2401 -20.2399
   -20.2390 -20.2390 -20.2388 -20.2387 -20.2357 -20.2356 -20.2353 -20.2352
   -20.2340 -20.2337 -20.2335 -20.2335 -20.2331 -20.2331 -20.2330 -20.2327
   -10.0050  -9.8073  -9.6602  -9.5617  -9.4521  -9.3521  -9.1399  -9.1183
    -8.7207  -8.5966  -8.5795  -8.5602  -8.0640  -7.9976  -7.9420  -7.9191
    -7.8692  -7.8547  -7.7856  -7.7295  -7.6663  -7.6184  -7.6129  -7.5692
     0.9447   1.0162   1.0240   1.1311   1.2872   1.3941   1.4636   1.5384
     1.9812   2.0333   2.0546   2.1384   2.2810   2.3636   2.6174   2.6852
     2.7265   2.7805   3.8237   3.8342   3.9279   3.9706   4.1063   4.1621
     4.4884   4.5617   4.6813   4.8340   4.9526   5.2240   5.2333   5.2989
     5.3181   5.3313   5.4666   5.5296   5.5822   5.5919   5.6223   5.7878
     5.8346   5.8504   5.9637   6.0226   6.0547   6.0848   6.1041   6.1133
     6.2589   6.3787   6.5440   6.5564   6.6930   6.7518   6.7975   6.8152
     6.8478   6.8754   6.8958   6.9506   6.9682   6.9773   6.9913   7.0137
     7.0816   7.1322   8.1334   8.1424   8.1678   8.1826   8.2076   8.2168
     9.6422   9.6877  10.0865  10.1703  10.3630  10.4413  12.2507  12.2945
    12.3392  12.3945  12.4932  12.6978  12.7207  12.9482  13.0940  13.2068
    13.3041  13.4385  13.6895  13.7895  13.8224  13.9169  14.0447  14.1315
    14.3964  14.6043  14.7021  14.9145  15.1520  15.1898  15.7536  15.8644
    16.2482  16.5610  16.9388  17.3464  17.3852

          k = 0.0000 0.1575 0.3333 ( 62284 PWs)   bands (ev):

   -66.1270 -66.1267 -66.1266 -66.1263 -66.1262 -66.1258 -66.1258 -66.1254
   -30.5978 -30.5952 -30.5748 -30.5697 -30.5261 -30.5206 -30.5157 -30.5120
   -30.5004 -30.4968 -30.4931 -30.4870 -30.4452 -30.4400 -30.4184 -30.4159
   -30.4028 -30.4006 -30.3995 -30.3976 -30.3533 -30.3520 -30.3509 -30.3497
   -20.2788 -20.2787 -20.2784 -20.2783 -20.2781 -20.2780 -20.2778 -20.2777
   -20.2675 -20.2670 -20.2669 -20.2660 -20.2654 -20.2646 -20.2645 -20.2641
   -20.2561 -20.2558 -20.2554 -20.2548 -20.2544 -20.2539 -20.2534 -20.2531
   -20.2529 -20.2528 -20.2522 -20.2520 -20.2502 -20.2499 -20.2489 -20.2487
   -20.2440 -20.2438 -20.2436 -20.2433 -20.2404 -20.2403 -20.2398 -20.2396
   -20.2392 -20.2391 -20.2382 -20.2382 -20.2365 -20.2364 -20.2353 -20.2352
   -20.2339 -20.2336 -20.2335 -20.2334 -20.2332 -20.2330 -20.2330 -20.2328
    -9.8867  -9.6989  -9.6812  -9.4881  -9.3215  -9.1000  -9.0204  -8.9609
    -8.7922  -8.6361  -8.5472  -8.5418  -8.3664  -8.3260  -8.2291  -8.1888
    -7.9126  -7.8816  -7.7739  -7.7415  -7.6573  -7.6283  -7.6048  -7.5781
     0.9944   1.0183   1.1128   1.1324   1.8782   1.9147   1.9989   2.0424
     2.0801   2.1543   2.2000   2.3053   2.5289   2.5966   2.6471   2.6808
     2.9641   2.9863   3.4996   3.5945   3.6886   3.8467   3.9123   3.9316
     4.2659   4.3166   4.5095   4.6377   4.7143   4.7507   4.8293   4.8833
     5.0783   5.0932   5.2637   5.2994   5.4011   5.4175   5.4660   5.8111
     5.8523   5.9049   5.9490   6.0139   6.0200   6.0731   6.1028   6.2021
     6.2644   6.4020   6.4201   6.5207   6.5464   6.6517   6.7250   6.8066
     6.8294   6.8739   6.9334   6.9812   7.0023   7.0388   7.0794   7.1500
     7.3903   7.4321   7.9236   7.9524   8.0415   8.0663   8.2048   8.2141
    10.0995  10.1328  10.3893  10.4678  11.0246  11.0676  11.9536  12.1239
    12.2429  12.3098  12.5635  12.5865  12.6650  12.7027  12.9067  13.0944
    13.2619  13.4441  13.4542  13.5393  13.6075  13.7854  13.9191  13.9653
    14.5000  14.5896  15.0529  15.2323  15.5065  15.6448  15.7829  15.8061
    16.3639  17.0447  17.1894  17.4197  17.6137

          k = 0.0000 0.1575-0.5000 ( 62234 PWs)   bands (ev):

   -66.1268 -66.1268 -66.1265 -66.1265 -66.1260 -66.1260 -66.1256 -66.1256
   -30.5965 -30.5965 -30.5504 -30.5504 -30.5453 -30.5453 -30.5141 -30.5141
   -30.4982 -30.4982 -30.4695 -30.4695 -30.4640 -30.4640 -30.4172 -30.4172
   -30.4016 -30.4016 -30.3984 -30.3984 -30.3526 -30.3525 -30.3502 -30.3502
   -20.2786 -20.2786 -20.2785 -20.2785 -20.2779 -20.2779 -20.2778 -20.2778
   -20.2673 -20.2673 -20.2661 -20.2661 -20.2653 -20.2653 -20.2643 -20.2643
   -20.2557 -20.2557 -20.2553 -20.2553 -20.2538 -20.2538 -20.2535 -20.2535
   -20.2529 -20.2529 -20.2513 -20.2513 -20.2510 -20.2510 -20.2488 -20.2488
   -20.2439 -20.2439 -20.2434 -20.2434 -20.2403 -20.2403 -20.2395 -20.2395
   -20.2393 -20.2393 -20.2374 -20.2374 -20.2373 -20.2373 -20.2353 -20.2353
   -20.2337 -20.2337 -20.2333 -20.2333 -20.2332 -20.2332 -20.2329 -20.2329
    -9.7727  -9.7727  -9.5611  -9.5611  -9.0066  -9.0066  -8.8030  -8.8030
    -8.7266  -8.7266  -8.6845  -8.6845  -8.4789  -8.4789  -8.4499  -8.4499
    -7.8980  -7.8980  -7.7578  -7.7578  -7.6430  -7.6430  -7.5916  -7.5916
     1.0106   1.0106   1.1306   1.1306   1.9532   1.9532   2.0468   2.0468
     2.6271   2.6271   2.8175   2.8175   2.8782   2.8782   3.0098   3.0098
     3.0266   3.0266   3.0520   3.0520   3.3103   3.3104   3.8183   3.8183
     4.0075   4.0075   4.0371   4.0372   4.6362   4.6362   4.8670   4.8670
     5.0496   5.0496   5.1741   5.1741   5.3277   5.3277   5.5914   5.5914
     5.8971   5.8972   6.0099   6.0099   6.0248   6.0248   6.1366   6.1366
     6.2546   6.2546   6.4624   6.4624   6.5065   6.5065   6.7854   6.7854
     6.8562   6.8562   6.9529   6.9529   6.9926   6.9926   7.5486   7.5486
     7.5958   7.5958   7.7917   7.7917   7.8206   7.8207   8.2096   8.2096
    10.1263  10.1263  11.2030  11.2030  11.3338  11.3338  11.8074  11.8074
    11.8693  11.8693  12.3340  12.3340  12.9849  12.9849  13.0074  13.0074
    13.2180  13.2180  13.3278  13.3278  13.5071  13.5071  13.9246  13.9246
    14.5609  14.5609  15.3966  15.3966  15.6518  15.6518  15.8315  15.8315
    16.6745  16.6745  17.5040  17.5040  17.9377

          k = 0.0000 0.3150 0.0000 ( 62175 PWs)   bands (ev):

   -66.1272 -66.1270 -66.1263 -66.1263 -66.1261 -66.1261 -66.1255 -66.1253
   -30.5992 -30.5990 -30.5938 -30.5938 -30.5173 -30.5171 -30.5126 -30.5126
   -30.4988 -30.4988 -30.4957 -30.4952 -30.4197 -30.4197 -30.4147 -30.4145
   -30.3936 -30.3905 -30.3905 -30.3875 -30.3648 -30.3622 -30.3622 -30.3598
   -20.2789 -20.2789 -20.2782 -20.2782 -20.2782 -20.2782 -20.2776 -20.2776
   -20.2677 -20.2677 -20.2668 -20.2668 -20.2646 -20.2646 -20.2639 -20.2639
   -20.2565 -20.2564 -20.2550 -20.2550 -20.2543 -20.2543 -20.2530 -20.2530
   -20.2529 -20.2528 -20.2528 -20.2527 -20.2490 -20.2489 -20.2487 -20.2484
   -20.2431 -20.2428 -20.2428 -20.2423 -20.2408 -20.2406 -20.2406 -20.2400
   -20.2399 -20.2395 -20.2395 -20.2395 -20.2353 -20.2353 -20.2352 -20.2351
   -20.2340 -20.2338 -20.2335 -20.2335 -20.2332 -20.2332 -20.2330 -20.2328
   -10.0044  -9.8928  -9.6182  -9.6182  -9.4487  -9.4487  -9.1733  -9.1646
    -8.5065  -8.4255  -8.4255  -8.4063  -7.9993  -7.9203  -7.9060  -7.9060
    -7.8580  -7.8302  -7.8185  -7.8185  -7.7919  -7.7889  -7.7255  -7.7255
     0.8820   0.8822   1.0257   1.0257   1.1301   1.1301   1.3307   1.3405
     2.2119   2.2593   2.5013   2.6443   2.6443   2.7743   2.7893   2.9145
     2.9145   2.9306   3.5281   3.5282   3.5307   3.5619   4.1796   4.3978
     4.3978   4.4799   4.4799   4.6029   4.6029   4.9094   5.3608   5.3710
     5.3710   5.4131   5.5309   5.5309   5.6651   5.6867   5.6867   5.7339
     5.8806   5.9339   5.9645   5.9791   6.0345   6.0658   6.0658   6.0945
     6.2039   6.2651   6.3231   6.5554   6.5554   6.5958   6.7994   6.7994
     6.8485   6.9376   6.9376   6.9399   7.1263   7.1263   7.1593   7.1826
     7.2050   7.2050   7.9554   7.9686   7.9921   7.9921   8.2156   8.2203
     9.3313   9.3382  10.5931  10.5931  10.6718  10.6938  11.8402  11.8402
    11.8775  11.9085  12.6660  12.6660  12.9069  12.9069  13.2119  13.3791
    13.5161  13.5161  13.6144  13.8441  13.8542  13.8542  14.1014  14.1726
    14.7076  14.9853  15.0390  15.0390  15.0427  15.3770  15.7663  15.7663
    15.8656  16.7773  16.9476  17.6955  17.6956

          k = 0.0000 0.3150 0.1667 ( 62260 PWs)   bands (ev):

   -66.1271 -66.1269 -66.1264 -66.1263 -66.1262 -66.1261 -66.1255 -66.1253
   -30.5988 -30.5942 -30.5926 -30.5874 -30.5168 -30.5137 -30.5111 -30.5069
   -30.5048 -30.5023 -30.4977 -30.4958 -30.4267 -30.4216 -30.4194 -30.4150
   -30.3933 -30.3903 -30.3902 -30.3874 -30.3646 -30.3622 -30.3619 -30.3597
   -20.2789 -20.2788 -20.2783 -20.2782 -20.2782 -20.2781 -20.2776 -20.2776
   -20.2677 -20.2675 -20.2668 -20.2666 -20.2648 -20.2646 -20.2641 -20.2640
   -20.2564 -20.2563 -20.2551 -20.2548 -20.2545 -20.2542 -20.2530 -20.2530
   -20.2529 -20.2528 -20.2528 -20.2526 -20.2493 -20.2489 -20.2489 -20.2485
   -20.2431 -20.2428 -20.2428 -20.2423 -20.2409 -20.2406 -20.2406 -20.2400
   -20.2399 -20.2395 -20.2392 -20.2392 -20.2357 -20.2356 -20.2353 -20.2352
   -20.2340 -20.2337 -20.2335 -20.2335 -20.2332 -20.2332 -20.2330 -20.2328
    -9.9529  -9.8392  -9.6290  -9.5287  -9.4603  -9.3595  -9.1377  -9.1198
    -8.5237  -8.4370  -8.4200  -8.4042  -8.0782  -8.0173  -7.9629  -7.9381
    -7.8945  -7.8760  -7.8594  -7.8457  -7.8159  -7.8037  -7.7862  -7.7299
     0.9445   1.0159   1.0239   1.1310   1.2883   1.3950   1.4834   1.5447
     2.2986   2.3453   2.5071   2.6070   2.6496   2.7453   2.8332   2.9041
     2.9862   3.0254   3.5152   3.5279   3.5675   3.6091   4.1085   4.1308
     4.1793   4.4755   4.5234   4.5639   4.6211   4.8989   5.0130   5.0893
     5.2921   5.3643   5.3991   5.4223   5.4965   5.5302   5.6344   5.6427
     5.8024   5.8448   5.8597   5.9138   5.9890   6.0445   6.0652   6.1143
     6.2335   6.3914   6.4634   6.5484   6.6564   6.7420   6.7924   6.8154
     6.8232   6.9152   6.9548   6.9803   6.9839   7.0416   7.1469   7.1892
     7.2226   7.2371   7.9433   7.9674   7.9725   7.9848   8.1509   8.1635
     9.6499   9.6922  10.6000  10.6663  10.7955  10.8643  11.8403  11.8828
    11.9394  11.9898  12.4913  12.7022  12.7241  12.9518  13.1759  13.2845
    13.3852  13.5155  13.5848  13.6842  13.7778  13.8542  14.0363  14.0792
    14.8081  15.0331  15.1177  15.1737  15.3111  15.4680  15.7507  16.0246
    16.1179  16.7433  17.0332  17.3116  17.5583

          k = 0.0000 0.3150 0.3333 ( 62269 PWs)   bands (ev):

   -66.1270 -66.1268 -66.1265 -66.1263 -66.1261 -66.1259 -66.1257 -66.1255
   -30.5978 -30.5952 -30.5748 -30.5697 -30.5261 -30.5206 -30.5157 -30.5120
   -30.5004 -30.4967 -30.4930 -30.4869 -30.4451 -30.4399 -30.4184 -30.4159
   -30.3924 -30.3905 -30.3894 -30.3876 -30.3639 -30.3624 -30.3613 -30.3599
   -20.2788 -20.2787 -20.2784 -20.2784 -20.2781 -20.2780 -20.2778 -20.2777
   -20.2675 -20.2670 -20.2669 -20.2660 -20.2654 -20.2646 -20.2645 -20.2641
   -20.2561 -20.2558 -20.2553 -20.2548 -20.2544 -20.2539 -20.2533 -20.2532
   -20.2529 -20.2528 -20.2522 -20.2519 -20.2502 -20.2498 -20.2489 -20.2486
   -20.2431 -20.2429 -20.2427 -20.2424 -20.2409 -20.2407 -20.2405 -20.2401
   -20.2397 -20.2396 -20.2385 -20.2384 -20.2365 -20.2364 -20.2353 -20.2352
   -20.2338 -20.2336 -20.2335 -20.2333 -20.2332 -20.2331 -20.2330 -20.2328
    -9.8371  -9.7084  -9.6638  -9.4990  -9.2762  -9.1066  -9.0181  -8.9598
    -8.6199  -8.5095  -8.4019  -8.3962  -8.3595  -8.3330  -8.2154  -8.1738
    -7.9373  -7.9125  -7.8567  -7.8501  -7.8262  -7.8236  -7.7744  -7.7419
     0.9944   1.0182   1.1132   1.1326   1.9850   2.0891   2.1161   2.2079
     2.5242   2.5482   2.5758   2.5945   2.6651   2.7243   2.8603   2.8960
     3.1748   3.1973   3.4447   3.5000   3.5551   3.6049   3.6333   3.6796
     4.1208   4.3561   4.4509   4.5159   4.5372   4.5951   4.6117   4.6983
     4.8055   4.9377   4.9597   5.0958   5.2749   5.3447   5.3931   5.4264
     5.5101   5.5515   5.8963   5.9464   6.0171   6.0579   6.0883   6.1851
     6.3294   6.4530   6.4850   6.5166   6.5452   6.7043   6.7566   6.7850
     6.8706   7.0508   7.0564   7.0878   7.1194   7.1418   7.1917   7.2871
     7.4277   7.4522   7.8727   7.8929   7.9138   7.9531   7.9769   8.0288
    10.3524  10.4504  10.6289  10.6726  11.3052  11.3598  11.8257  11.8843
    11.9949  12.1287  12.2298  12.2640  12.7617  12.7804  12.9075  13.0954
    13.2247  13.2401  13.4234  13.5179  13.6026  13.7748  13.8544  13.9142
    14.9160  15.0165  15.3817  15.6805  15.7228  15.8842  15.9329  16.5160
    16.6243  16.7386  17.0191  17.3469  17.6102

          k = 0.0000 0.3150-0.5000 ( 62306 PWs)   bands (ev):

   -66.1268 -66.1268 -66.1266 -66.1266 -66.1259 -66.1259 -66.1257 -66.1257
   -30.5965 -30.5965 -30.5503 -30.5503 -30.5453 -30.5453 -30.5141 -30.5141
   -30.4981 -30.4981 -30.4695 -30.4695 -30.4639 -30.4639 -30.4172 -30.4172
   -30.3913 -30.3913 -30.3884 -30.3884 -30.3630 -30.3630 -30.3605 -30.3605
   -20.2786 -20.2786 -20.2785 -20.2785 -20.2779 -20.2779 -20.2779 -20.2779
   -20.2673 -20.2673 -20.2661 -20.2661 -20.2653 -20.2653 -20.2643 -20.2643
   -20.2557 -20.2557 -20.2553 -20.2553 -20.2538 -20.2538 -20.2536 -20.2536
   -20.2529 -20.2529 -20.2513 -20.2512 -20.2510 -20.2509 -20.2487 -20.2487
   -20.2430 -20.2430 -20.2426 -20.2426 -20.2408 -20.2408 -20.2403 -20.2403
   -20.2397 -20.2397 -20.2376 -20.2375 -20.2375 -20.2374 -20.2352 -20.2352
   -20.2337 -20.2337 -20.2334 -20.2334 -20.2331 -20.2331 -20.2329 -20.2329
    -9.7309  -9.7309  -9.5784  -9.5784  -8.9201  -8.9201  -8.7784  -8.7784
    -8.7329  -8.7329  -8.6739  -8.6739  -8.3665  -8.3665  -8.3460  -8.3460
    -7.9272  -7.9272  -7.8455  -7.8455  -7.8343  -7.8343  -7.7582  -7.7582
     1.0107   1.0107   1.1310   1.1311   2.4870   2.4870   2.6279   2.6279
     2.8160   2.8160   2.8477   2.8477   2.9165   2.9165   3.0144   3.0144
     3.0382   3.0382   3.1132   3.1132   3.3087   3.3087   3.5437   3.5437
     4.0728   4.0728   4.1486   4.1486   4.2371   4.2371   4.4242   4.4242
     4.9633   4.9633   5.0563   5.0563   5.1140   5.1140   5.2193   5.2194
     5.4840   5.4841   5.9603   5.9603   6.0719   6.0719   6.0998   6.0998
     6.3209   6.3209   6.4933   6.4933   6.5337   6.5337   6.7675   6.7675
     7.0652   7.0652   7.1320   7.1321   7.1809   7.1809   7.5466   7.5466
     7.6049   7.6050   7.7236   7.7236   7.7400   7.7400   7.9907   7.9907
    10.6234  10.6234  11.2062  11.2062  11.3379  11.3379  11.8191  11.8191
    12.0363  12.0363  12.0994  12.0994  12.7036  12.7036  12.7506  12.7506
    13.2079  13.2079  13.3341  13.3341  13.5578  13.5578  13.8628  13.8628
    14.9807  14.9807  15.5789  15.5789  16.1555  16.1555  16.3653  16.3653
    16.8670  16.8670  17.1232  17.1232  17.9620

          k = 0.0000-0.4725 0.0000 ( 62212 PWs)   bands (ev):

   -66.1271 -66.1271 -66.1263 -66.1263 -66.1262 -66.1262 -66.1254 -66.1254
   -30.5991 -30.5991 -30.5938 -30.5938 -30.5172 -30.5172 -30.5126 -30.5126
   -30.4988 -30.4988 -30.4955 -30.4954 -30.4197 -30.4197 -30.4146 -30.4146
   -30.3793 -30.3793 -30.3770 -30.3770 -30.3758 -30.3758 -30.3737 -30.3737
   -20.2789 -20.2789 -20.2782 -20.2782 -20.2782 -20.2782 -20.2776 -20.2776
   -20.2677 -20.2677 -20.2668 -20.2668 -20.2646 -20.2646 -20.2639 -20.2639
   -20.2565 -20.2565 -20.2550 -20.2550 -20.2543 -20.2543 -20.2530 -20.2530
   -20.2528 -20.2528 -20.2528 -20.2528 -20.2489 -20.2489 -20.2485 -20.2485
   -20.2419 -20.2419 -20.2417 -20.2417 -20.2416 -20.2416 -20.2411 -20.2411
   -20.2398 -20.2398 -20.2397 -20.2397 -20.2353 -20.2353 -20.2352 -20.2352
   -20.2339 -20.2339 -20.2335 -20.2335 -20.2332 -20.2332 -20.2329 -20.2329
    -9.9438  -9.9438  -9.6026  -9.6026  -9.4533  -9.4533  -9.1688  -9.1688
    -8.2330  -8.2330  -8.1722  -8.1722  -8.1704  -8.1704  -8.1465  -8.1465
    -7.9142  -7.9142  -7.8471  -7.8471  -7.7908  -7.7908  -7.7258  -7.7258
     0.8819   0.8819   1.0256   1.0256   1.1301   1.1301   1.3374   1.3374
     2.2358   2.2358   2.9895   2.9895   3.0226   3.0226   3.1976   3.1976
     3.2282   3.2282   3.4149   3.4149   3.5944   3.5945   3.7162   3.7162
     3.8583   3.8583   4.4062   4.4062   4.4900   4.4900   5.4475   5.4475
     5.4899   5.4899   5.5358   5.5358   5.6271   5.6271   5.7899   5.7899
     5.9259   5.9259   5.9348   5.9348   5.9679   5.9679   6.0554   6.0554
     6.2396   6.2396   6.3158   6.3158   6.5648   6.5648   6.6901   6.6901
     6.8888   6.8888   6.9371   6.9371   7.1605   7.1605   7.5182   7.5182
     7.5658   7.5658   7.6551   7.6551   7.6684   7.6684   8.2177   8.2177
     9.3368   9.3368  11.1675  11.1675  11.2227  11.2227  11.3092  11.3092
    11.3914  11.3914  12.6677  12.6677  12.9084  12.9084  13.3191  13.3191
    13.6243  13.6243  13.6875  13.6875  13.7170  13.7170  14.1214  14.1214
    14.9501  14.9501  15.3269  15.3269  15.3753  15.3753  15.6094  15.6094
    16.2260  16.2260  17.8176  17.8181  17.9363

          k = 0.0000-0.4725 0.1667 ( 62246 PWs)   bands (ev):

   -66.1270 -66.1270 -66.1263 -66.1263 -66.1262 -66.1262 -66.1254 -66.1254
   -30.5987 -30.5942 -30.5926 -30.5874 -30.5168 -30.5137 -30.5111 -30.5069
   -30.5048 -30.5022 -30.4977 -30.4958 -30.4267 -30.4216 -30.4194 -30.4150
   -30.3790 -30.3790 -30.3767 -30.3767 -30.3759 -30.3755 -30.3738 -30.3735
   -20.2789 -20.2788 -20.2783 -20.2782 -20.2782 -20.2781 -20.2776 -20.2776
   -20.2677 -20.2675 -20.2668 -20.2666 -20.2648 -20.2646 -20.2641 -20.2640
   -20.2564 -20.2563 -20.2551 -20.2548 -20.2545 -20.2542 -20.2530 -20.2529
   -20.2529 -20.2528 -20.2527 -20.2526 -20.2493 -20.2489 -20.2489 -20.2485
   -20.2420 -20.2419 -20.2418 -20.2416 -20.2416 -20.2415 -20.2412 -20.2411
   -20.2398 -20.2397 -20.2395 -20.2394 -20.2357 -20.2356 -20.2353 -20.2352
   -20.2339 -20.2338 -20.2335 -20.2334 -20.2332 -20.2332 -20.2329 -20.2329
    -9.8999  -9.8822  -9.6127  -9.5117  -9.4654  -9.3641  -9.1364  -9.1208
    -8.2585  -8.2475  -8.1955  -8.1898  -8.1706  -8.1694  -8.1547  -8.1509
    -8.0175  -7.9575  -7.9147  -7.9045  -7.8511  -7.8433  -7.7866  -7.7303
     0.9443   1.0157   1.0237   1.1310   1.2885   1.3953   1.4872   1.5465
     2.3219   2.3230   2.9780   2.9909   3.0468   3.0808   3.1970   3.2225
     3.2250   3.2788   3.4146   3.4150   3.5848   3.6367   3.7072   3.7417
     3.8689   3.8727   4.1187   4.1418   4.4838   4.5459   5.1653   5.2151
     5.3077   5.3214   5.4150   5.4330   5.5316   5.5833   5.6301   5.6625
     5.6788   5.7037   5.7658   5.8735   5.9340   5.9939   6.0433   6.1245
     6.2588   6.4413   6.4547   6.4781   6.5605   6.6850   6.7488   6.8182
     6.8397   6.9179   6.9668   6.9876   6.9910   7.0822   7.5105   7.5303
     7.5669   7.5699   7.6538   7.6613   7.6632   7.6722   8.1522   8.1605
     9.6523   9.6941  11.1715  11.2211  11.2737  11.3121  11.3512  11.4147
    11.4312  11.5158  12.4915  12.7037  12.7256  12.9531  13.2831  13.3148
    13.4785  13.5136  13.5636  13.6209  13.6518  13.7146  14.0406  14.0412
    14.9954  15.1340  15.3643  15.4404  15.5430  15.5979  15.7348  15.9083
    16.3030  16.3178  17.7020  17.7830  17.8528

          k = 0.0000-0.4725 0.3333 ( 62268 PWs)   bands (ev):

   -66.1269 -66.1269 -66.1265 -66.1264 -66.1260 -66.1260 -66.1256 -66.1256
   -30.5978 -30.5952 -30.5748 -30.5697 -30.5260 -30.5206 -30.5157 -30.5120
   -30.5003 -30.4967 -30.4930 -30.4869 -30.4451 -30.4399 -30.4184 -30.4159
   -30.3782 -30.3782 -30.3766 -30.3764 -30.3760 -30.3748 -30.3742 -30.3734
   -20.2787 -20.2787 -20.2784 -20.2784 -20.2781 -20.2780 -20.2778 -20.2777
   -20.2675 -20.2670 -20.2669 -20.2660 -20.2654 -20.2646 -20.2645 -20.2641
   -20.2561 -20.2558 -20.2553 -20.2548 -20.2543 -20.2540 -20.2533 -20.2532
   -20.2529 -20.2528 -20.2522 -20.2519 -20.2502 -20.2498 -20.2488 -20.2486
   -20.2420 -20.2418 -20.2418 -20.2418 -20.2416 -20.2414 -20.2414 -20.2411
   -20.2398 -20.2397 -20.2387 -20.2385 -20.2365 -20.2364 -20.2353 -20.2352
   -20.2337 -20.2337 -20.2335 -20.2333 -20.2333 -20.2331 -20.2330 -20.2329
    -9.8000  -9.7342  -9.6449  -9.5062  -9.2532  -9.1110  -9.0170  -8.9593
    -8.4748  -8.4149  -8.3809  -8.3332  -8.1806  -8.1678  -8.1607  -8.1533
    -8.1191  -8.0899  -8.0866  -8.0534  -7.8952  -7.8631  -7.7749  -7.7423
     0.9943   1.0181   1.1133   1.1326   1.9914   2.0934   2.1383   2.2129
     2.5711   2.5731   2.9574   2.9953   3.1085   3.1724   3.2021   3.2029
     3.2550   3.3563   3.4086   3.4171   3.5429   3.5833   3.5854   3.6852
     3.7405   3.7723   3.8615   3.8848   4.5556   4.5742   4.6583   4.7432
     4.7577   4.7925   4.9485   4.9532   5.0296   5.0443   5.3235   5.3425
     5.6586   5.7008   5.7482   5.8385   5.9981   6.0236   6.0804   6.1951
     6.3525   6.4613   6.4967   6.5371   6.5499   6.6008   6.6678   6.7431
     6.9966   7.0169   7.1597   7.2013   7.2762   7.3055   7.4902   7.5556
     7.5810   7.5947   7.6240   7.6670   7.6807   7.6829   7.9459   7.9819
    10.3640  10.4615  11.1817  11.2155  11.3251  11.3411  11.7248  11.7327
    11.7907  11.8767  11.9777  12.1415  12.9072  12.9421  12.9450  12.9947
    13.0371  13.0992  13.4642  13.5549  13.6402  13.7011  13.7885  13.8378
    15.1275  15.3262  15.3650  15.5596  16.0197  16.1603  16.5643  16.5962
    16.6554  16.6750  17.2012  17.2157  17.7786

          k = 0.0000-0.4725-0.5000 ( 62284 PWs)   bands (ev):

   -66.1267 -66.1267 -66.1266 -66.1266 -66.1258 -66.1258 -66.1258 -66.1258
   -30.5965 -30.5965 -30.5503 -30.5503 -30.5453 -30.5453 -30.5141 -30.5141
   -30.4981 -30.4981 -30.4694 -30.4694 -30.4639 -30.4639 -30.4172 -30.4172
   -30.3774 -30.3774 -30.3770 -30.3770 -30.3751 -30.3751 -30.3739 -30.3739
   -20.2786 -20.2786 -20.2785 -20.2785 -20.2779 -20.2779 -20.2779 -20.2779
   -20.2673 -20.2673 -20.2661 -20.2661 -20.2653 -20.2653 -20.2643 -20.2643
   -20.2557 -20.2557 -20.2553 -20.2553 -20.2538 -20.2538 -20.2536 -20.2536
   -20.2529 -20.2529 -20.2512 -20.2512 -20.2509 -20.2509 -20.2487 -20.2487
   -20.2420 -20.2420 -20.2418 -20.2417 -20.2416 -20.2416 -20.2413 -20.2412
   -20.2398 -20.2398 -20.2376 -20.2376 -20.2375 -20.2375 -20.2352 -20.2352
   -20.2336 -20.2336 -20.2334 -20.2334 -20.2331 -20.2331 -20.2330 -20.2330
    -9.7060  -9.7060  -9.5913  -9.5913  -8.8759  -8.8759  -8.7653  -8.7653
    -8.7409  -8.7409  -8.6689  -8.6689  -8.1794  -8.1794  -8.1482  -8.1482
    -8.1325  -8.1324  -8.1036  -8.1036  -7.8795  -7.8795  -7.7587  -7.7586
     1.0106   1.0106   1.1312   1.1312   2.7982   2.7983   2.8448   2.8449
     2.8836   2.8836   2.9707   2.9707   3.0295   3.0295   3.1267   3.1267
     3.2140   3.2140   3.2485   3.2485   3.3700   3.3700   3.5250   3.5250
     3.5809   3.5809   3.7893   3.7893   4.4155   4.4155   4.4937   4.4937
     4.5216   4.5216   4.5835   4.5836   5.0347   5.0347   5.1422   5.1422
     5.6755   5.6755   5.7904   5.7904   6.0806   6.0806   6.0932   6.0932
     6.3371   6.3371   6.5061   6.5061   6.5508   6.5508   6.6424   6.6424
     7.3248   7.3248   7.3364   7.3364   7.3973   7.3973   7.4694   7.4694
     7.6379   7.6379   7.6437   7.6437   7.6678   7.6678   7.7575   7.7575
    11.0975  11.0975  11.2388  11.2388  11.3637  11.3637  11.3775  11.3775
    12.2154  12.2154  12.2944  12.2944  12.4528  12.4528  12.4759  12.4759
    13.2105  13.2105  13.3388  13.3388  13.6437  13.6437  13.7327  13.7327
    15.2500  15.2500  15.4872  15.4872  16.6161  16.6161  16.7220  16.7221
    17.3067  17.3067  17.3679  17.3679  17.4038

          k = 0.1667 0.0000 0.1667 ( 62234 PWs)   bands (ev):

   -66.1272 -66.1268 -66.1264 -66.1264 -66.1260 -66.1260 -66.1257 -66.1253
   -30.5926 -30.5920 -30.5878 -30.5878 -30.5113 -30.5110 -30.5091 -30.5090
   -30.5032 -30.5024 -30.5024 -30.5020 -30.4268 -30.4261 -30.4223 -30.4220
   -30.4072 -30.4038 -30.4037 -30.4007 -30.3499 -30.3477 -30.3477 -30.3457
   -20.2788 -20.2788 -20.2783 -20.2782 -20.2782 -20.2782 -20.2777 -20.2776
   -20.2675 -20.2674 -20.2666 -20.2666 -20.2648 -20.2648 -20.2642 -20.2641
   -20.2563 -20.2561 -20.2549 -20.2549 -20.2543 -20.2543 -20.2532 -20.2529
   -20.2528 -20.2527 -20.2526 -20.2526 -20.2494 -20.2493 -20.2492 -20.2488
   -20.2443 -20.2440 -20.2440 -20.2434 -20.2403 -20.2401 -20.2400 -20.2398
   -20.2387 -20.2385 -20.2385 -20.2384 -20.2357 -20.2357 -20.2356 -20.2354
   -20.2340 -20.2336 -20.2335 -20.2335 -20.2331 -20.2330 -20.2330 -20.2327
    -9.9713  -9.7387  -9.5912  -9.5903  -9.3602  -9.3592  -9.1018  -9.0853
    -8.8075  -8.6398  -8.6392  -8.6066  -8.0739  -8.0480  -8.0073  -7.9967
    -7.9174  -7.9129  -7.8681  -7.8507  -7.5754  -7.5224  -7.5223  -7.4724
     1.1530   1.1532   1.2844   1.2855   1.3937   1.3944   1.5077   1.6253
     1.8161   1.8181   1.8403   1.8904   2.3629   2.4574   2.6232   2.6691
     2.7053   2.7133   3.9169   3.9184   4.0611   4.0978   4.2263   4.2429
     4.2672   4.2803   4.7188   4.7335   4.8643   4.8738   5.0735   5.2577
     5.2870   5.3829   5.4347   5.5593   5.5710   5.5938   5.6371   5.7431
     5.7466   5.8307   5.8558   6.0401   6.0903   6.0964   6.0975   6.2374
     6.3555   6.5361   6.5756   6.5904   6.6683   6.7075   6.7502   6.7550
     6.8473   6.8564   6.8728   6.9111   6.9464   6.9959   7.0184   7.0257
     7.1123   7.1530   8.0884   8.0989   8.1957   8.2304   8.2539   8.2670
     9.9046   9.9271  10.1553  10.1764  10.3026  10.3234  12.4542  12.4641
    12.4924  12.5559  12.5660  12.5916  12.7442  12.7443  13.0608  13.1571
    13.1989  13.2024  13.6983  13.7228  13.7666  13.8508  13.9845  14.0588
    14.2874  14.4792  14.4898  14.9330  15.3148  15.3202  15.3692  16.2600
    16.2706  16.9660  16.9834  17.0244  17.3700

          k = 0.1667 0.0000 0.3333 ( 62265 PWs)   bands (ev):

   -66.1270 -66.1266 -66.1266 -66.1263 -66.1262 -66.1259 -66.1258 -66.1255
   -30.5914 -30.5888 -30.5745 -30.5701 -30.5256 -30.5210 -30.5093 -30.5066
   -30.5060 -30.5036 -30.4929 -30.4877 -30.4449 -30.4404 -30.4255 -30.4231
   -30.4062 -30.4040 -30.4029 -30.4009 -30.3492 -30.3479 -30.3471 -30.3459
   -20.2787 -20.2786 -20.2784 -20.2783 -20.2781 -20.2780 -20.2778 -20.2777
   -20.2673 -20.2669 -20.2668 -20.2661 -20.2653 -20.2647 -20.2647 -20.2643
   -20.2560 -20.2557 -20.2552 -20.2547 -20.2545 -20.2540 -20.2535 -20.2532
   -20.2527 -20.2526 -20.2522 -20.2520 -20.2502 -20.2500 -20.2493 -20.2490
   -20.2443 -20.2441 -20.2439 -20.2436 -20.2402 -20.2401 -20.2397 -20.2394
   -20.2389 -20.2387 -20.2380 -20.2380 -20.2364 -20.2364 -20.2356 -20.2355
   -20.2339 -20.2336 -20.2335 -20.2334 -20.2332 -20.2330 -20.2329 -20.2327
    -9.8417  -9.6328  -9.6011  -9.3957  -9.3584  -9.1081  -8.9913  -8.9443
    -8.8752  -8.6705  -8.5991  -8.5854  -8.3668  -8.3314  -8.2271  -8.2029
    -8.0338  -8.0032  -7.9038  -7.8719  -7.5653  -7.5342  -7.5128  -7.4835
     1.2548   1.2818   1.3622   1.3948   1.7037   1.7567   1.7905   1.8172
     2.0363   2.1194   2.1877   2.2653   2.6096   2.6511   2.6972   2.7283
     2.8959   2.9234   3.5455   3.6777   3.7318   3.9506   4.0316   4.0512
     4.2262   4.2705   4.3885   4.5014   4.6325   4.7073   4.7712   4.8026
     5.0089   5.0494   5.1125   5.1645   5.2488   5.3969   5.6158   5.6611
     5.7338   5.8369   5.8809   5.9368   6.0183   6.0630   6.1216   6.2490
     6.3906   6.5012   6.5432   6.5608   6.6394   6.7190   6.7228   6.8039
     6.8414   6.8820   6.9097   6.9343   6.9934   7.0271   7.1252   7.1704
     7.3851   7.4388   7.8951   7.9205   8.0852   8.1074   8.2429   8.2480
    10.1956  10.2351  10.5458  10.6019  10.9405  10.9749  12.0296  12.1793
    12.4022  12.5351  12.5945  12.6847  12.6968  12.7379  12.8037  12.9116
    13.1200  13.2176  13.4640  13.5258  13.6185  13.6829  13.8606  13.8859
    14.3405  14.4659  14.7199  15.2188  15.2878  15.7879  15.9126  16.1802
    16.4242  17.2082  17.4120  17.4765  17.4898

          k = 0.1667 0.0000-0.5000 ( 62322 PWs)   bands (ev):

   -66.1268 -66.1268 -66.1264 -66.1264 -66.1261 -66.1261 -66.1257 -66.1257
   -30.5901 -30.5901 -30.5501 -30.5501 -30.5457 -30.5457 -30.5078 -30.5078
   -30.5049 -30.5049 -30.4692 -30.4692 -30.4644 -30.4644 -30.4243 -30.4243
   -30.4050 -30.4050 -30.4018 -30.4018 -30.3485 -30.3485 -30.3464 -30.3464
   -20.2786 -20.2785 -20.2785 -20.2785 -20.2780 -20.2780 -20.2779 -20.2779
   -20.2671 -20.2671 -20.2661 -20.2661 -20.2654 -20.2654 -20.2645 -20.2645
   -20.2556 -20.2556 -20.2552 -20.2552 -20.2540 -20.2540 -20.2536 -20.2536
   -20.2527 -20.2527 -20.2513 -20.2513 -20.2510 -20.2510 -20.2492 -20.2492
   -20.2442 -20.2442 -20.2438 -20.2438 -20.2401 -20.2401 -20.2392 -20.2392
   -20.2389 -20.2389 -20.2373 -20.2373 -20.2373 -20.2373 -20.2356 -20.2356
   -20.2337 -20.2337 -20.2333 -20.2333 -20.2332 -20.2332 -20.2328 -20.2328
    -9.7145  -9.7145  -9.4714  -9.4714  -9.0654  -9.0654  -8.7999  -8.7999
    -8.7344  -8.7344  -8.6820  -8.6820  -8.5061  -8.5061  -8.4799  -8.4799
    -8.0218  -8.0218  -7.8881  -7.8881  -7.5500  -7.5500  -7.4984  -7.4984
     1.2752   1.2752   1.3914   1.3914   1.7628   1.7628   1.7965   1.7965
     2.6444   2.6444   2.8191   2.8191   2.8707   2.8707   2.9805   2.9805
     3.0275   3.0275   3.1694   3.1695   3.3635   3.3635   3.8515   3.8515
     3.9495   3.9495   4.0934   4.0934   4.7167   4.7167   4.7899   4.7899
     4.8733   4.8733   4.9690   4.9690   5.1885   5.1885   5.6665   5.6665
     5.7715   5.7715   5.8072   5.8072   6.0619   6.0619   6.2168   6.2168
     6.3603   6.3603   6.5646   6.5646   6.6507   6.6507   6.7300   6.7300
     6.8437   6.8437   6.9594   6.9594   6.9996   6.9996   7.5446   7.5446
     7.5929   7.5930   7.8123   7.8123   7.8409   7.8409   8.2441   8.2441
    10.2234  10.2234  11.3042  11.3042  11.4137  11.4137  11.7669  11.7669
    11.8181  11.8181  12.5513  12.5513  12.9726  12.9726  13.0544  13.0544
    13.1656  13.1656  13.2328  13.2328  13.3380  13.3380  13.8596  13.8596
    14.4223  14.4223  15.0235  15.0235  15.7709  15.7709  16.0931  16.0931
    16.7831  16.7831  17.6882  17.6883  17.8513

          k = 0.1667 0.1575 0.1667 ( 62255 PWs)   bands (ev):

   -66.1271 -66.1268 -66.1264 -66.1264 -66.1261 -66.1261 -66.1257 -66.1253
   -30.5925 -30.5921 -30.5878 -30.5878 -30.5113 -30.5110 -30.5091 -30.5090
   -30.5031 -30.5024 -30.5024 -30.5021 -30.4267 -30.4262 -30.4222 -30.4220
   -30.4034 -30.4001 -30.4000 -30.3972 -30.3537 -30.3515 -30.3515 -30.3495
   -20.2788 -20.2788 -20.2783 -20.2782 -20.2782 -20.2782 -20.2777 -20.2776
   -20.2675 -20.2674 -20.2666 -20.2666 -20.2648 -20.2648 -20.2642 -20.2641
   -20.2563 -20.2561 -20.2549 -20.2549 -20.2543 -20.2543 -20.2531 -20.2529
   -20.2528 -20.2527 -20.2526 -20.2526 -20.2493 -20.2493 -20.2492 -20.2488
   -20.2440 -20.2437 -20.2437 -20.2432 -20.2404 -20.2402 -20.2401 -20.2397
   -20.2390 -20.2388 -20.2388 -20.2386 -20.2357 -20.2357 -20.2356 -20.2354
   -20.2340 -20.2336 -20.2335 -20.2335 -20.2331 -20.2331 -20.2330 -20.2327
    -9.9498  -9.7496  -9.5744  -9.5736  -9.3636  -9.3626  -9.1006  -9.0862
    -8.7375  -8.5879  -8.5873  -8.5554  -8.0768  -8.0479  -8.0106  -7.9961
    -7.9181  -7.9146  -7.8706  -7.8511  -7.6632  -7.6161  -7.6159  -7.5712
     1.1530   1.1534   1.2861   1.2871   1.3950   1.3954   1.5624   1.6245
     1.9884   2.0366   2.0395   2.1334   2.3698   2.4527   2.6933   2.7447
     2.7782   2.7785   3.8122   3.8176   3.9265   3.9640   4.2072   4.2143
     4.2352   4.2408   4.6434   4.7842   4.8934   4.9237   5.0248   5.2330
     5.2332   5.2778   5.2929   5.4110   5.4529   5.5669   5.6007   5.6522
     5.6670   5.8623   5.9606   5.9902   6.0356   6.0980   6.1096   6.1596
     6.3821   6.4425   6.5563   6.5951   6.6212   6.6973   6.7407   6.7976
     6.7990   6.9043   6.9132   6.9408   6.9542   6.9813   7.0208   7.0319
     7.1379   7.1490   8.0892   8.0904   8.1469   8.1670   8.1886   8.1937
     9.9159   9.9277  10.3176  10.3417  10.4587  10.4719  12.3136  12.3344
    12.3576  12.4189  12.5545  12.5575  12.7458  12.7467  13.0865  13.1883
    13.2193  13.2321  13.6953  13.7515  13.8224  13.8399  13.9991  14.0155
    14.4253  14.6905  14.7086  15.0426  15.3100  15.3734  15.7258  16.2259
    16.2334  16.6822  17.0800  17.0965  17.4201

          k = 0.1667 0.1575 0.3333 ( 62260 PWs)   bands (ev):

   -66.1270 -66.1266 -66.1266 -66.1262 -66.1262 -66.1259 -66.1258 -66.1255
   -30.5914 -30.5888 -30.5745 -30.5701 -30.5256 -30.5210 -30.5093 -30.5066
   -30.5060 -30.5036 -30.4929 -30.4877 -30.4449 -30.4404 -30.4255 -30.4230
   -30.4025 -30.4003 -30.3992 -30.3973 -30.3531 -30.3517 -30.3509 -30.3496
   -20.2787 -20.2786 -20.2784 -20.2783 -20.2781 -20.2781 -20.2778 -20.2777
   -20.2673 -20.2669 -20.2668 -20.2661 -20.2653 -20.2647 -20.2647 -20.2643
   -20.2559 -20.2557 -20.2552 -20.2547 -20.2545 -20.2540 -20.2535 -20.2532
   -20.2527 -20.2526 -20.2522 -20.2520 -20.2502 -20.2499 -20.2492 -20.2490
   -20.2440 -20.2438 -20.2436 -20.2433 -20.2403 -20.2402 -20.2398 -20.2394
   -20.2392 -20.2389 -20.2382 -20.2382 -20.2365 -20.2364 -20.2356 -20.2355
   -20.2338 -20.2335 -20.2335 -20.2333 -20.2332 -20.2330 -20.2329 -20.2328
    -9.8195  -9.6157  -9.6099  -9.4002  -9.3353  -9.1112  -8.9903  -8.9436
    -8.8106  -8.6250  -8.5537  -8.5375  -8.3660  -8.3333  -8.2253  -8.1997
    -8.0343  -8.0036  -7.9052  -7.8734  -7.6545  -7.6260  -7.6075  -7.5804
     1.2571   1.2842   1.3634   1.3966   1.8795   1.9118   2.0000   2.0291
     2.0768   2.1527   2.1969   2.3037   2.6260   2.6920   2.7432   2.7706
     2.9639   2.9849   3.5397   3.6675   3.6817   3.8618   3.9153   3.9677
     4.2635   4.2971   4.3926   4.4612   4.6197   4.6808   4.7193   4.8168
     4.9380   4.9570   5.0277   5.0861   5.1481   5.2544   5.4171   5.6047
     5.6756   5.8002   5.8288   5.8662   5.8843   6.0326   6.1073   6.1436
     6.3102   6.5391   6.5868   6.6435   6.7043   6.7205   6.7387   6.7868
     6.8623   6.8858   6.9505   6.9955   7.0309   7.0485   7.1401   7.1750
     7.3939   7.4432   7.8958   7.9167   8.0433   8.0604   8.1731   8.1837
    10.3444  10.3885  10.5586  10.6124  11.0357  11.0738  12.0260  12.1797
    12.3094  12.3877  12.5564  12.5973  12.6620  12.7060  12.7655  12.9061
    13.1491  13.2305  13.4221  13.4995  13.5714  13.6415  13.8715  13.8915
    14.5576  14.6838  15.0556  15.3760  15.6245  15.7890  15.9248  16.1642
    16.5032  17.0954  17.1725  17.4768  17.5507

          k = 0.1667 0.1575-0.5000 ( 62292 PWs)   bands (ev):

   -66.1268 -66.1268 -66.1264 -66.1264 -66.1260 -66.1260 -66.1257 -66.1257
   -30.5901 -30.5901 -30.5500 -30.5500 -30.5457 -30.5457 -30.5078 -30.5078
   -30.5049 -30.5049 -30.4692 -30.4692 -30.4644 -30.4644 -30.4243 -30.4243
   -30.4013 -30.4013 -30.3982 -30.3982 -30.3523 -30.3523 -30.3502 -30.3502
   -20.2785 -20.2785 -20.2785 -20.2785 -20.2780 -20.2780 -20.2779 -20.2779
   -20.2671 -20.2671 -20.2661 -20.2661 -20.2654 -20.2654 -20.2645 -20.2645
   -20.2556 -20.2556 -20.2552 -20.2552 -20.2539 -20.2539 -20.2536 -20.2536
   -20.2527 -20.2527 -20.2513 -20.2513 -20.2510 -20.2510 -20.2491 -20.2491
   -20.2439 -20.2439 -20.2435 -20.2435 -20.2403 -20.2403 -20.2395 -20.2395
   -20.2391 -20.2391 -20.2374 -20.2374 -20.2373 -20.2373 -20.2356 -20.2356
   -20.2337 -20.2337 -20.2333 -20.2333 -20.2332 -20.2332 -20.2328 -20.2328
    -9.6939  -9.6939  -9.4784  -9.4784  -9.0238  -9.0238  -8.7881  -8.7881
    -8.7360  -8.7359  -8.6766  -8.6766  -8.4757  -8.4757  -8.4538  -8.4538
    -8.0224  -8.0224  -7.8896  -7.8896  -7.6405  -7.6405  -7.5941  -7.5941
     1.2780   1.2780   1.3936   1.3937   1.9580   1.9580   2.0316   2.0316
     2.7071   2.7071   2.8340   2.8340   2.8841   2.8841   2.9871   2.9871
     3.0275   3.0276   3.1771   3.1771   3.3624   3.3624   3.8249   3.8249
     4.0003   4.0003   4.0390   4.0390   4.6047   4.6047   4.7481   4.7482
     4.8188   4.8188   4.9248   4.9248   5.0443   5.0443   5.5507   5.5507
     5.6617   5.6617   5.7330   5.7330   5.9302   5.9302   6.1253   6.1253
     6.4442   6.4442   6.6475   6.6475   6.7275   6.7275   6.7645   6.7645
     6.8028   6.8028   6.9838   6.9838   7.0583   7.0584   7.5452   7.5452
     7.5917   7.5917   7.7943   7.7943   7.8193   7.8193   8.1777   8.1777
    10.3816  10.3816  11.3051  11.3051  11.4168  11.4168  11.8190  11.8190
    11.8773  11.8773  12.4053  12.4053  12.9444  12.9444  12.9803  12.9803
    13.1231  13.1231  13.1810  13.1810  13.3370  13.3371  13.8698  13.8698
    14.6435  14.6435  15.3957  15.3957  15.8649  15.8649  16.0817  16.0817
    16.8210  16.8210  17.5281  17.5282  17.8388

          k = 0.1667 0.3150 0.1667 ( 62249 PWs)   bands (ev):

   -66.1271 -66.1269 -66.1263 -66.1263 -66.1261 -66.1261 -66.1256 -66.1254
   -30.5924 -30.5921 -30.5878 -30.5877 -30.5112 -30.5111 -30.5090 -30.5090
   -30.5028 -30.5024 -30.5023 -30.5022 -30.4265 -30.4262 -30.4221 -30.4219
   -30.3930 -30.3900 -30.3900 -30.3873 -30.3643 -30.3619 -30.3619 -30.3597
   -20.2788 -20.2788 -20.2782 -20.2782 -20.2782 -20.2782 -20.2777 -20.2776
   -20.2675 -20.2674 -20.2666 -20.2666 -20.2648 -20.2648 -20.2642 -20.2641
   -20.2562 -20.2562 -20.2549 -20.2549 -20.2544 -20.2543 -20.2531 -20.2530
   -20.2528 -20.2527 -20.2526 -20.2526 -20.2493 -20.2493 -20.2490 -20.2488
   -20.2431 -20.2428 -20.2428 -20.2424 -20.2409 -20.2406 -20.2406 -20.2400
   -20.2397 -20.2392 -20.2392 -20.2391 -20.2357 -20.2357 -20.2356 -20.2355
   -20.2339 -20.2337 -20.2335 -20.2334 -20.2332 -20.2331 -20.2330 -20.2328
    -9.8961  -9.7820  -9.5401  -9.5395  -9.3717  -9.3710  -9.0973  -9.0888
    -8.5421  -8.4315  -8.4309  -8.4015  -8.1017  -8.0512  -8.0316  -7.9985
    -7.9330  -7.9265  -7.9017  -7.8651  -7.8521  -7.8358  -7.8339  -7.7946
     1.1529   1.1533   1.2876   1.2881   1.3962   1.3964   1.6036   1.6220
     2.3874   2.4296   2.5150   2.6066   2.6182   2.7200   2.9054   2.9860
     2.9993   3.0533   3.5314   3.5373   3.5793   3.6333   4.1390   4.1888
     4.1947   4.2177   4.2267   4.5666   4.5727   4.8827   4.9588   5.0635
     5.0944   5.1310   5.2559   5.2563   5.3782   5.3940   5.5276   5.5397
     5.6448   5.6588   5.8078   5.8314   5.8829   5.9137   6.0307   6.0516
     6.4634   6.4687   6.5289   6.5866   6.6088   6.7453   6.7918   6.8278
     6.9534   6.9646   6.9764   6.9802   7.0427   7.0634   7.1649   7.2052
     7.2382   7.2646   7.9412   7.9475   7.9639   7.9735   8.0976   8.1115
     9.9275   9.9302  10.7560  10.7840  10.8776  10.8834  11.9115  11.9379
    11.9729  12.0154  12.5523  12.5524  12.7490  12.7504  13.1697  13.2718
    13.3093  13.3202  13.5758  13.6566  13.6904  13.7148  13.9546  13.9571
    14.9892  15.2216  15.2744  15.3042  15.3885  15.5593  16.0987  16.1064
    16.1489  16.7113  17.1065  17.3867  17.4043

          k = 0.1667 0.3150 0.3333 ( 62265 PWs)   bands (ev):

   -66.1269 -66.1267 -66.1265 -66.1263 -66.1262 -66.1260 -66.1257 -66.1255
   -30.5914 -30.5887 -30.5745 -30.5700 -30.5256 -30.5209 -30.5093 -30.5065
   -30.5060 -30.5035 -30.4929 -30.4877 -30.4448 -30.4403 -30.4254 -30.4229
   -30.3921 -30.3902 -30.3892 -30.3875 -30.3636 -30.3621 -30.3613 -30.3599
   -20.2787 -20.2787 -20.2784 -20.2783 -20.2781 -20.2781 -20.2778 -20.2778
   -20.2673 -20.2669 -20.2668 -20.2661 -20.2653 -20.2647 -20.2647 -20.2643
   -20.2559 -20.2557 -20.2552 -20.2547 -20.2545 -20.2541 -20.2534 -20.2533
   -20.2527 -20.2526 -20.2521 -20.2520 -20.2502 -20.2499 -20.2492 -20.2490
   -20.2431 -20.2429 -20.2428 -20.2425 -20.2409 -20.2407 -20.2405 -20.2401
   -20.2394 -20.2393 -20.2385 -20.2384 -20.2365 -20.2364 -20.2356 -20.2356
   -20.2338 -20.2335 -20.2335 -20.2333 -20.2332 -20.2331 -20.2330 -20.2328
    -9.7660  -9.6404  -9.5759  -9.4116  -9.2883  -9.1193  -8.9885  -8.9426
    -8.6399  -8.5018  -8.4118  -8.3930  -8.3659  -8.3379  -8.2122  -8.1821
    -8.0410  -8.0093  -7.9218  -7.8981  -7.8634  -7.8464  -7.8335  -7.8083
     1.2587   1.2860   1.3642   1.3981   1.9858   2.0906   2.1173   2.2063
     2.5257   2.5780   2.6203   2.6458   2.6623   2.7387   2.9519   2.9938
     3.1730   3.1932   3.4695   3.5098   3.5771   3.6432   3.6863   3.7671
     4.1104   4.3125   4.4032   4.4123   4.4544   4.5291   4.5823   4.6249
     4.7764   4.8023   4.9495   4.9991   5.0558   5.1132   5.1613   5.2077
     5.3880   5.4706   5.5652   5.6725   5.7639   5.8527   5.8938   5.9170
     6.4466   6.5904   6.6685   6.7532   6.7855   6.8006   6.8755   6.8952
     6.9898   7.0531   7.0674   7.1013   7.1379   7.1594   7.2374   7.2971
     7.4294   7.4597   7.8588   7.8805   7.9016   7.9244   7.9613   8.0066
    10.5212  10.5895  10.8119  10.8484  11.3164  11.3641  11.9123  11.9648
    12.0698  12.1834  12.2414  12.2686  12.7327  12.7772  12.7881  12.9070
    13.1997  13.2382  13.2926  13.3329  13.5317  13.5881  13.7325  13.7750
    15.1642  15.2625  15.6475  15.8162  15.9011  15.9744  16.0905  16.5760
    16.6083  16.8190  17.0110  17.3803  17.6145

          k = 0.1667 0.3150-0.5000 ( 62264 PWs)   bands (ev):

   -66.1267 -66.1267 -66.1265 -66.1265 -66.1260 -66.1260 -66.1258 -66.1258
   -30.5901 -30.5901 -30.5500 -30.5500 -30.5456 -30.5456 -30.5078 -30.5078
   -30.5049 -30.5049 -30.4691 -30.4691 -30.4643 -30.4643 -30.4242 -30.4242
   -30.3910 -30.3910 -30.3882 -30.3882 -30.3628 -30.3628 -30.3605 -30.3605
   -20.2785 -20.2785 -20.2785 -20.2785 -20.2780 -20.2780 -20.2779 -20.2779
   -20.2671 -20.2671 -20.2661 -20.2661 -20.2654 -20.2654 -20.2645 -20.2645
   -20.2556 -20.2555 -20.2552 -20.2552 -20.2539 -20.2539 -20.2537 -20.2537
   -20.2527 -20.2527 -20.2512 -20.2512 -20.2510 -20.2510 -20.2491 -20.2491
   -20.2430 -20.2430 -20.2427 -20.2427 -20.2408 -20.2408 -20.2403 -20.2403
   -20.2393 -20.2393 -20.2375 -20.2375 -20.2375 -20.2374 -20.2356 -20.2356
   -20.2336 -20.2336 -20.2334 -20.2334 -20.2331 -20.2331 -20.2329 -20.2329
    -9.6479  -9.6479  -9.4972  -9.4972  -8.9352  -8.9352  -8.7692  -8.7692
    -8.7426  -8.7426  -8.6653  -8.6653  -8.3648  -8.3648  -8.3511  -8.3511
    -8.0299  -8.0299  -7.9094  -7.9094  -7.8571  -7.8571  -7.8217  -7.8217
     1.2801   1.2801   1.3953   1.3953   2.4920   2.4920   2.5962   2.5962
     2.8477   2.8477   2.8842   2.8842   2.9348   2.9348   3.0169   3.0169
     3.0666   3.0666   3.2041   3.2041   3.3612   3.3612   3.5799   3.5799
     4.0686   4.0686   4.1480   4.1480   4.2311   4.2311   4.4201   4.4201
     4.7613   4.7613   4.8243   4.8243   5.0300   5.0300   5.1251   5.1251
     5.1870   5.1870   5.6204   5.6204   5.7237   5.7237   5.8876   5.8876
     6.5680   6.5680   6.7150   6.7150   6.7606   6.7606   6.9151   6.9151
     7.0767   7.0767   7.1370   7.1371   7.2251   7.2251   7.5364   7.5364
     7.5985   7.5985   7.7228   7.7228   7.7402   7.7402   7.9743   7.9743
    10.8026  10.8026  11.3085  11.3086  11.4220  11.4220  11.8877  11.8877
    12.0473  12.0473  12.1221  12.1222  12.7030  12.7030  12.7469  12.7469
    13.0700  13.0700  13.1717  13.1717  13.3856  13.3856  13.7262  13.7262
    15.2322  15.2322  15.9048  15.9048  16.2470  16.2470  16.3584  16.3584
    16.9636  16.9636  17.1832  17.1833  17.8342

          k = 0.1667-0.4725 0.1667 ( 62220 PWs)   bands (ev):

   -66.1270 -66.1270 -66.1263 -66.1262 -66.1262 -66.1262 -66.1255 -66.1255
   -30.5923 -30.5923 -30.5877 -30.5877 -30.5112 -30.5112 -30.5090 -30.5090
   -30.5026 -30.5026 -30.5023 -30.5023 -30.4263 -30.4263 -30.4219 -30.4219
   -30.3787 -30.3787 -30.3764 -30.3764 -30.3756 -30.3756 -30.3736 -30.3736
   -20.2788 -20.2788 -20.2782 -20.2782 -20.2782 -20.2782 -20.2777 -20.2777
   -20.2675 -20.2675 -20.2666 -20.2666 -20.2648 -20.2648 -20.2642 -20.2642
   -20.2562 -20.2562 -20.2549 -20.2549 -20.2544 -20.2543 -20.2530 -20.2530
   -20.2527 -20.2527 -20.2526 -20.2526 -20.2493 -20.2493 -20.2489 -20.2489
   -20.2420 -20.2419 -20.2417 -20.2417 -20.2416 -20.2416 -20.2412 -20.2412
   -20.2395 -20.2395 -20.2393 -20.2393 -20.2357 -20.2356 -20.2356 -20.2355
   -20.2338 -20.2338 -20.2334 -20.2334 -20.2332 -20.2332 -20.2329 -20.2329
    -9.8337  -9.8337  -9.5219  -9.5219  -9.3766  -9.3766  -9.0929  -9.0929
    -8.2765  -8.2764  -8.1941  -8.1941  -8.1869  -8.1869  -8.1568  -8.1568
    -8.0164  -8.0164  -7.9591  -7.9591  -7.9031  -7.9031  -7.8489  -7.8489
     1.1530   1.1530   1.2881   1.2881   1.3966   1.3966   1.6166   1.6166
     2.4108   2.4108   2.9976   2.9976   3.0788   3.0789   3.2221   3.2221
     3.2803   3.2803   3.4165   3.4165   3.6273   3.6273   3.7330   3.7330
     3.8788   3.8788   4.1940   4.1941   4.2205   4.2205   5.1182   5.1182
     5.2127   5.2127   5.3310   5.3310   5.3656   5.3657   5.4714   5.4714
     5.5695   5.5695   5.6756   5.6756   5.7127   5.7127   6.0451   6.0451
     6.5096   6.5096   6.5732   6.5732   6.6594   6.6594   6.8187   6.8187
     6.9533   6.9533   6.9785   6.9785   7.1088   7.1088   7.5193   7.5193
     7.5697   7.5697   7.6563   7.6563   7.6714   7.6714   8.1023   8.1023
     9.9312   9.9312  11.2882  11.2882  11.3497  11.3497  11.4349  11.4349
    11.5278  11.5278  12.5524  12.5524  12.7511  12.7511  13.2941  13.2941
    13.4772  13.4772  13.4847  13.4847  13.5248  13.5248  13.9368  13.9368
    15.2666  15.2666  15.5960  15.5960  15.7381  15.7381  15.9009  15.9009
    16.3813  16.3813  17.7214  17.7215  17.8093

          k = 0.1667-0.4725 0.3333 ( 62252 PWs)   bands (ev):

   -66.1268 -66.1268 -66.1264 -66.1264 -66.1261 -66.1261 -66.1256 -66.1256
   -30.5913 -30.5887 -30.5745 -30.5700 -30.5255 -30.5209 -30.5093 -30.5065
   -30.5060 -30.5035 -30.4929 -30.4877 -30.4447 -30.4402 -30.4254 -30.4229
   -30.3779 -30.3779 -30.3764 -30.3761 -30.3757 -30.3749 -30.3740 -30.3735
   -20.2787 -20.2787 -20.2783 -20.2783 -20.2781 -20.2781 -20.2778 -20.2778
   -20.2673 -20.2669 -20.2668 -20.2661 -20.2653 -20.2647 -20.2647 -20.2643
   -20.2559 -20.2557 -20.2552 -20.2547 -20.2544 -20.2541 -20.2534 -20.2533
   -20.2527 -20.2526 -20.2521 -20.2519 -20.2502 -20.2498 -20.2492 -20.2490
   -20.2420 -20.2419 -20.2418 -20.2417 -20.2417 -20.2415 -20.2414 -20.2412
   -20.2395 -20.2394 -20.2386 -20.2385 -20.2365 -20.2364 -20.2356 -20.2356
   -20.2337 -20.2336 -20.2335 -20.2333 -20.2332 -20.2331 -20.2330 -20.2329
    -9.7228  -9.6713  -9.5551  -9.4193  -9.2640  -9.1248  -8.9877  -8.9423
    -8.4889  -8.4119  -8.4085  -8.3284  -8.1914  -8.1803  -8.1673  -8.1589
    -8.1205  -8.0991  -8.0869  -8.0635  -7.9983  -7.9707  -7.8919  -7.8610
     1.2590   1.2864   1.3644   1.3985   1.9924   2.0951   2.1393   2.2121
     2.6642   2.6693   2.9857   3.0180   3.1155   3.1359   3.2203   3.2453
     3.2842   3.3547   3.4200   3.4298   3.5901   3.6217   3.6550   3.7171
     3.7597   3.7827   3.8649   3.9059   4.3703   4.4168   4.5829   4.6900
     4.7432   4.7774   4.9072   4.9340   4.9611   5.0133   5.0792   5.1451
     5.3400   5.3720   5.4072   5.5166   5.6967   5.7090   5.8506   5.8782
     6.4843   6.5996   6.7155   6.7781   6.8091   6.8330   6.8676   6.9428
     7.0165   7.0375   7.1598   7.2383   7.2698   7.3181   7.4981   7.5554
     7.5758   7.5945   7.6273   7.6591   7.6806   7.6905   7.9165   7.9456
    10.5319  10.5988  11.3071  11.3425  11.4377  11.4558  11.7262  11.7488
    11.7996  11.8775  12.0521  12.2006  12.7418  12.8972  12.9450  12.9621
    13.0024  13.0450  13.3392  13.4046  13.4853  13.5257  13.6294  13.6994
    15.4654  15.6569  15.6763  15.8481  16.1102  16.2514  16.5549  16.6233
    16.6766  16.6840  17.2491  17.2733  17.7177

          k = 0.1667-0.4725-0.5000 ( 62232 PWs)   bands (ev):

   -66.1266 -66.1266 -66.1266 -66.1266 -66.1259 -66.1259 -66.1259 -66.1259
   -30.5900 -30.5900 -30.5500 -30.5500 -30.5456 -30.5456 -30.5078 -30.5078
   -30.5048 -30.5048 -30.4691 -30.4691 -30.4643 -30.4643 -30.4241 -30.4241
   -30.3771 -30.3771 -30.3768 -30.3767 -30.3748 -30.3748 -30.3740 -30.3740
   -20.2785 -20.2785 -20.2785 -20.2785 -20.2780 -20.2780 -20.2779 -20.2779
   -20.2671 -20.2671 -20.2661 -20.2661 -20.2654 -20.2654 -20.2645 -20.2645
   -20.2555 -20.2555 -20.2552 -20.2552 -20.2539 -20.2539 -20.2537 -20.2537
   -20.2527 -20.2527 -20.2512 -20.2512 -20.2510 -20.2510 -20.2491 -20.2491
   -20.2419 -20.2419 -20.2418 -20.2418 -20.2416 -20.2416 -20.2413 -20.2413
   -20.2394 -20.2394 -20.2376 -20.2376 -20.2375 -20.2375 -20.2356 -20.2356
   -20.2336 -20.2335 -20.2334 -20.2334 -20.2331 -20.2331 -20.2330 -20.2330
    -9.6199  -9.6199  -9.5117  -9.5117  -8.8881  -8.8881  -8.7591  -8.7591
    -8.7518  -8.7518  -8.6601  -8.6601  -8.1855  -8.1855  -8.1590  -8.1590
    -8.1376  -8.1376  -8.1144  -8.1143  -7.9854  -7.9853  -7.8766  -7.8766
     1.2806   1.2806   1.3957   1.3957   2.8072   2.8072   2.8553   2.8553
     2.8974   2.8974   2.9388   2.9388   3.1128   3.1129   3.1709   3.1709
     3.2300   3.2300   3.3061   3.3061   3.3897   3.3897   3.5321   3.5321
     3.6146   3.6146   3.8071   3.8071   4.4092   4.4093   4.4825   4.4825
     4.5167   4.5167   4.5616   4.5616   4.7910   4.7910   4.8767   4.8767
     5.3391   5.3391   5.4419   5.4419   5.7327   5.7327   5.7459   5.7459
     6.5984   6.5984   6.7257   6.7257   6.7891   6.7891   6.9200   6.9200
     7.3195   7.3195   7.3390   7.3390   7.4078   7.4078   7.4766   7.4766
     7.6150   7.6151   7.6534   7.6535   7.6673   7.6673   7.7546   7.7546
    11.2108  11.2108  11.3391  11.3391  11.4515  11.4515  11.5074  11.5074
    12.2226  12.2227  12.2971  12.2971  12.4591  12.4592  12.4722  12.4722
    13.0687  13.0687  13.1757  13.1757  13.4890  13.4890  13.5613  13.5613
    15.6006  15.6006  15.7871  15.7871  16.6994  16.6994  16.7940  16.7940
    17.3207  17.3207  17.3723  17.3723  17.4135

          k = 0.3333 0.0000 0.3333 ( 62316 PWs)   bands (ev):

   -66.1269 -66.1265 -66.1264 -66.1264 -66.1260 -66.1260 -66.1260 -66.1256
   -30.5739 -30.5733 -30.5711 -30.5710 -30.5246 -30.5244 -30.5223 -30.5215
   -30.4922 -30.4918 -30.4893 -30.4889 -30.4445 -30.4435 -30.4415 -30.4412
   -30.4053 -30.4032 -30.4030 -30.4011 -30.3486 -30.3473 -30.3473 -30.3461
   -20.2786 -20.2785 -20.2783 -20.2782 -20.2782 -20.2782 -20.2779 -20.2779
   -20.2667 -20.2667 -20.2663 -20.2663 -20.2652 -20.2652 -20.2648 -20.2648
   -20.2556 -20.2554 -20.2548 -20.2547 -20.2544 -20.2544 -20.2538 -20.2535
   -20.2522 -20.2521 -20.2520 -20.2520 -20.2502 -20.2502 -20.2501 -20.2498
   -20.2442 -20.2440 -20.2440 -20.2437 -20.2401 -20.2398 -20.2397 -20.2391
   -20.2389 -20.2382 -20.2381 -20.2377 -20.2366 -20.2364 -20.2364 -20.2361
   -20.2337 -20.2335 -20.2334 -20.2333 -20.2332 -20.2330 -20.2329 -20.2328
    -9.6784  -9.4255  -9.4068  -9.4058  -9.1500  -9.1448  -8.9469  -8.8843
    -8.8706  -8.6247  -8.6208  -8.5676  -8.4380  -8.3447  -8.3436  -8.2976
    -8.2166  -8.2138  -8.1890  -8.1534  -7.5552  -7.5247  -7.5242  -7.4947
     1.6862   1.7274   1.7286   1.7912   1.8787   1.9033   2.0286   2.0414
     2.1206   2.1232   2.3177   2.3782   2.8231   2.8698   2.8709   2.9028
     2.9911   3.0319   3.5682   3.6287   3.7759   3.8432   3.9227   3.9277
     4.1334   4.1685   4.1711   4.2090   4.3001   4.3201   4.4896   4.5306
     4.6547   4.7485   4.9160   4.9401   4.9903   5.0567   5.1969   5.2636
     5.2947   5.4900   5.5009   5.8239   6.1338   6.1403   6.1900   6.2594
     6.4617   6.5537   6.5614   6.5707   6.6702   6.7009   6.7046   6.7250
     7.0461   7.0547   7.0805   7.1065   7.2005   7.2127   7.2495   7.3602
     7.3942   7.5406   7.7837   7.7882   8.0598   8.0711   8.1366   8.1505
    10.8363  10.8532  10.9150  10.9905  11.0461  11.1608  12.2399  12.2701
    12.3332  12.3652  12.5061  12.5169  12.6331  12.6403  12.7413  12.8140
    12.8243  12.8747  13.1461  13.1966  13.5622  13.6210  13.6295  13.6922
    14.4334  14.6751  14.6826  15.1283  15.6898  16.4557  16.4716  16.7387
    16.8109  17.1731  17.2164  17.6143  17.6990

          k = 0.3333 0.0000-0.5000 ( 62288 PWs)   bands (ev):

   -66.1266 -66.1266 -66.1262 -66.1262 -66.1262 -66.1262 -66.1258 -66.1258
   -30.5723 -30.5723 -30.5492 -30.5492 -30.5466 -30.5466 -30.5232 -30.5232
   -30.4906 -30.4906 -30.4682 -30.4682 -30.4655 -30.4655 -30.4427 -30.4427
   -30.4041 -30.4041 -30.4020 -30.4020 -30.3479 -30.3479 -30.3466 -30.3466
   -20.2784 -20.2784 -20.2784 -20.2784 -20.2781 -20.2781 -20.2780 -20.2780
   -20.2665 -20.2665 -20.2660 -20.2659 -20.2655 -20.2655 -20.2650 -20.2650
   -20.2551 -20.2551 -20.2549 -20.2549 -20.2542 -20.2542 -20.2539 -20.2539
   -20.2521 -20.2521 -20.2512 -20.2512 -20.2511 -20.2511 -20.2501 -20.2501
   -20.2441 -20.2441 -20.2439 -20.2439 -20.2399 -20.2399 -20.2394 -20.2394
   -20.2384 -20.2384 -20.2374 -20.2374 -20.2372 -20.2372 -20.2363 -20.2363
   -20.2335 -20.2335 -20.2333 -20.2333 -20.2331 -20.2331 -20.2328 -20.2328
    -9.5112  -9.5112  -9.2434  -9.2434  -9.1292  -9.1292  -8.7938  -8.7938
    -8.7167  -8.7167  -8.6547  -8.6547  -8.4994  -8.4994  -8.4892  -8.4892
    -8.3172  -8.3172  -8.1979  -8.1979  -7.5401  -7.5401  -7.5098  -7.5098
     1.7088   1.7088   1.7688   1.7688   2.0265   2.0265   2.1023   2.1023
     2.7856   2.7856   2.8561   2.8561   2.8970   2.8970   2.9932   2.9932
     3.0632   3.0632   3.4143   3.4143   3.5549   3.5549   3.7567   3.7567
     3.9149   3.9149   3.9907   3.9907   4.2140   4.2140   4.2952   4.2952
     4.4971   4.4971   4.8029   4.8029   4.9095   4.9095   5.0530   5.0530
     5.3118   5.3118   5.6232   5.6232   6.1839   6.1839   6.2531   6.2531
     6.4762   6.4762   6.5225   6.5225   6.6639   6.6639   6.6771   6.6771
     7.1012   7.1012   7.1952   7.1952   7.3360   7.3360   7.5127   7.5127
     7.5539   7.5539   7.8080   7.8080   7.8455   7.8455   8.1181   8.1181
    10.9181  10.9181  11.5937  11.5937  11.6556  11.6556  11.7939  11.7939
    11.8722  11.8722  12.5084  12.5084  12.6820  12.6820  12.7760  12.7760
    12.8080  12.8080  13.1708  13.1708  13.1948  13.1948  13.6307  13.6307
    14.5875  14.5875  14.9530  14.9530  16.1942  16.1942  16.9513  16.9513
    17.2580  17.2581  17.3288  17.3288  17.8004

          k = 0.3333 0.1575 0.3333 ( 62283 PWs)   bands (ev):

   -66.1268 -66.1265 -66.1264 -66.1264 -66.1261 -66.1261 -66.1260 -66.1256
   -30.5738 -30.5734 -30.5711 -30.5710 -30.5246 -30.5244 -30.5222 -30.5215
   -30.4922 -30.4918 -30.4892 -30.4889 -30.4443 -30.4435 -30.4415 -30.4412
   -30.4015 -30.3995 -30.3994 -30.3975 -30.3524 -30.3511 -30.3511 -30.3498
   -20.2786 -20.2785 -20.2783 -20.2782 -20.2782 -20.2782 -20.2779 -20.2779
   -20.2667 -20.2667 -20.2663 -20.2663 -20.2652 -20.2652 -20.2648 -20.2648
   -20.2556 -20.2554 -20.2548 -20.2547 -20.2544 -20.2544 -20.2538 -20.2535
   -20.2522 -20.2521 -20.2520 -20.2520 -20.2502 -20.2502 -20.2501 -20.2498
   -20.2439 -20.2437 -20.2437 -20.2434 -20.2402 -20.2400 -20.2399 -20.2394
   -20.2389 -20.2383 -20.2383 -20.2379 -20.2366 -20.2364 -20.2364 -20.2362
   -20.2337 -20.2334 -20.2334 -20.2333 -20.2332 -20.2330 -20.2330 -20.2328
    -9.6528  -9.4343  -9.3837  -9.3809  -9.1548  -9.1497  -8.8892  -8.8832
    -8.8686  -8.5859  -8.5815  -8.5217  -8.4456  -8.3425  -8.3422  -8.2881
    -8.2143  -8.2126  -8.1888  -8.1523  -7.6458  -7.6177  -7.6171  -7.5898
     1.8430   1.8603   1.8829   1.9092   1.9466   1.9982   2.0580   2.0735
     2.1450   2.1585   2.3175   2.4027   2.8671   2.9119   2.9250   2.9656
     3.0284   3.0529   3.5446   3.6020   3.7373   3.8037   3.9152   3.9209
     4.0843   4.1102   4.2269   4.2504   4.3567   4.3578   4.4970   4.5345
     4.6288   4.7491   4.7497   4.8552   4.8724   4.9203   5.0442   5.2176
     5.2430   5.2871   5.2903   5.6385   5.8832   6.0324   6.0344   6.0914
[...]
   -20.4889 -20.4889 -20.4881 -20.4881 -20.4880 -20.4879 -20.4871 -20.4871
   -20.4829 -20.4829 -20.4827 -20.4827 -20.4799 -20.4799 -20.4798 -20.4798
   -20.4756 -20.4756 -20.4747 -20.4747 -20.4746 -20.4746 -20.4737 -20.4737
   -20.4706 -20.4706 -20.4703 -20.4703 -20.4703 -20.4703 -20.4700 -20.4700
    -9.5166  -9.5166  -9.2743  -9.2743  -9.2240  -9.2240  -8.8656  -8.8656
    -8.7774  -8.7774  -8.6862  -8.6862  -8.5990  -8.5990  -8.5752  -8.5752
    -8.3744  -8.3744  -8.2844  -8.2844  -8.2259  -8.2259  -8.1790  -8.1790
     1.9556   1.9556   2.0647   2.0647   2.1425   2.1426   2.2396   2.2396
     2.7901   2.7901   2.8545   2.8545   2.9069   2.9069   2.9711   2.9711
     3.0495   3.0495   3.3979   3.3979   3.5587   3.5587   3.6086   3.6086
     3.8358   3.8358   3.9388   3.9389   3.9941   3.9941   4.1408   4.1408
     4.2014   4.2014   4.3778   4.3778   4.4648   4.4648   4.7240   4.7240
     4.7535   4.7535   4.8163   4.8163   4.9326   4.9326   5.1976   5.1976
     6.7164   6.7165   6.7788   6.7788   6.8248   6.8248   6.8840   6.8840
     7.0210   7.0210   7.0862   7.0862   7.2051   7.2051   7.4006   7.4006
     7.4385   7.4385   7.4972   7.4972   7.5269   7.5269   7.7004   7.7004
    11.0546  11.0546  11.3271  11.3271  11.4026  11.4026  11.7240  11.7240
    11.8065  11.8066  12.1310  12.1310  12.2763  12.2763  12.3373  12.3374
    12.5208  12.5208  12.6167  12.6167  12.6338  12.6338  13.0784  13.0784
    15.6494  15.6494  16.2308  16.2308  16.3567  16.3567  16.4252  16.4252
    16.7805  16.7805  17.0366  17.0367  17.2321

          k = 0.3285-0.4807 0.3285 ( 62954 PWs)   bands (ev):

   -66.3531 -66.3531 -66.3528 -66.3528 -66.3528 -66.3528 -66.3524 -66.3524
   -30.7292 -30.7292 -30.7270 -30.7270 -30.6946 -30.6946 -30.6922 -30.6922
   -30.6628 -30.6628 -30.6588 -30.6588 -30.6577 -30.6577 -30.6511 -30.6511
   -30.6468 -30.6468 -30.6448 -30.6448 -30.6114 -30.6114 -30.6094 -30.6094
   -20.5205 -20.5204 -20.5201 -20.5201 -20.5201 -20.5200 -20.5197 -20.5197
   -20.5093 -20.5093 -20.5090 -20.5090 -20.5082 -20.5082 -20.5079 -20.5079
   -20.4955 -20.4954 -20.4948 -20.4948 -20.4946 -20.4946 -20.4940 -20.4940
   -20.4890 -20.4890 -20.4888 -20.4888 -20.4872 -20.4872 -20.4870 -20.4870
   -20.4816 -20.4815 -20.4814 -20.4814 -20.4813 -20.4813 -20.4812 -20.4811
   -20.4756 -20.4756 -20.4755 -20.4755 -20.4738 -20.4738 -20.4737 -20.4737
   -20.4706 -20.4706 -20.4703 -20.4703 -20.4703 -20.4703 -20.4701 -20.4701
    -9.5325  -9.5325  -9.3220  -9.3220  -9.2126  -9.2126  -8.8493  -8.8493
    -8.8127  -8.8127  -8.5929  -8.5929  -8.5654  -8.5654  -8.5382  -8.5381
    -8.3702  -8.3702  -8.3360  -8.3360  -8.2395  -8.2395  -8.2066  -8.2066
     1.9216   1.9216   1.9990   1.9990   2.1045   2.1045   2.2613   2.2613
     2.8232   2.8232   2.8988   2.8988   3.0062   3.0062   3.0667   3.0667
     3.1057   3.1058   3.3128   3.3128   3.4496   3.4496   3.4799   3.4799
     3.5653   3.5653   3.9436   3.9436   4.0153   4.0153   4.3109   4.3109
     4.4228   4.4228   4.4974   4.4974   4.5454   4.5454   4.6546   4.6546
     4.7452   4.7452   4.7868   4.7868   4.8168   4.8168   5.1901   5.1901
     6.7763   6.7763   6.8814   6.8814   6.9041   6.9041   6.9773   6.9773
     7.0201   7.0201   7.0719   7.0720   7.1880   7.1880   7.3136   7.3137
     7.3616   7.3617   7.4216   7.4216   7.4843   7.4843   7.7190   7.7190
    10.7431  10.7431  11.4727  11.4727  11.5380  11.5380  11.6305  11.6305
    11.7302  11.7302  11.9632  11.9632  12.0756  12.0756  12.5825  12.5825
    12.6713  12.6713  12.7368  12.7368  12.7646  12.7646  12.9513  12.9513
    15.8142  15.8142  16.0327  16.0327  16.1802  16.1802  16.3081  16.3081
    16.8394  16.8394  17.2204  17.2204  17.2925

          k = 0.3285-0.4807-0.4928 ( 63000 PWs)   bands (ev):

   -66.3529 -66.3529 -66.3529 -66.3529 -66.3526 -66.3526 -66.3526 -66.3526
   -30.7281 -30.7281 -30.7110 -30.7110 -30.7088 -30.7088 -30.6933 -30.6933
   -30.6607 -30.6607 -30.6601 -30.6601 -30.6556 -30.6556 -30.6530 -30.6530
   -30.6465 -30.6465 -30.6300 -30.6300 -30.6286 -30.6286 -30.6104 -30.6104
   -20.5203 -20.5203 -20.5203 -20.5203 -20.5199 -20.5199 -20.5199 -20.5199
   -20.5092 -20.5092 -20.5088 -20.5088 -20.5084 -20.5084 -20.5080 -20.5080
   -20.4951 -20.4951 -20.4950 -20.4950 -20.4944 -20.4944 -20.4943 -20.4943
   -20.4889 -20.4889 -20.4881 -20.4881 -20.4879 -20.4879 -20.4871 -20.4871
   -20.4815 -20.4815 -20.4814 -20.4814 -20.4813 -20.4813 -20.4812 -20.4812
   -20.4756 -20.4756 -20.4747 -20.4747 -20.4746 -20.4746 -20.4737 -20.4737
   -20.4705 -20.4705 -20.4704 -20.4704 -20.4702 -20.4702 -20.4702 -20.4702
    -9.4033  -9.4033  -9.3357  -9.3357  -9.0320  -9.0320  -8.9639  -8.9638
    -8.7064  -8.7064  -8.6725  -8.6725  -8.5334  -8.5334  -8.5181  -8.5180
    -8.4691  -8.4691  -8.4506  -8.4505  -8.3440  -8.3440  -8.2258  -8.2258
     2.0000   2.0000   2.0998   2.0998   2.7039   2.7039   2.7622   2.7622
     2.8057   2.8057   2.8788   2.8788   3.0177   3.0177   3.0585   3.0585
     3.1702   3.1702   3.2393   3.2393   3.3529   3.3529   3.4712   3.4712
     3.6087   3.6087   3.6895   3.6895   4.1242   4.1242   4.1932   4.1933
     4.2408   4.2408   4.2750   4.2750   4.3601   4.3601   4.3975   4.3975
     4.5548   4.5548   4.6548   4.6548   4.8423   4.8423   4.8594   4.8594
     6.8384   6.8385   6.9476   6.9476   6.9780   6.9780   7.0052   7.0052
     7.1206   7.1206   7.1867   7.1867   7.2753   7.2754   7.3181   7.3182
     7.3712   7.3712   7.4417   7.4417   7.4990   7.4990   7.5682   7.5682
    11.2779  11.2779  11.3528  11.3528  11.5763  11.5763  11.6597  11.6597
    12.0012  12.0012  12.0835  12.0836  12.1770  12.1770  12.2241  12.2241
    12.3356  12.3356  12.4545  12.4546  12.7366  12.7366  12.7995  12.7995
    16.0387  16.0387  16.1839  16.1839  16.6939  16.6939  16.7970  16.7970
    17.1205  17.1205  17.2044  17.2045  17.2945

          k =-0.4928 0.0000-0.4928 ( 63036 PWs)   bands (ev):

   -66.3530 -66.3530 -66.3530 -66.3530 -66.3525 -66.3525 -66.3525 -66.3525
   -30.7204 -30.7204 -30.7199 -30.7199 -30.7064 -30.7063 -30.7062 -30.7062
   -30.6818 -30.6818 -30.6813 -30.6813 -30.6369 -30.6369 -30.6354 -30.6354
   -30.6311 -30.6311 -30.6302 -30.6302 -30.6183 -30.6183 -30.6177 -30.6177
   -20.5202 -20.5202 -20.5201 -20.5201 -20.5201 -20.5201 -20.5200 -20.5200
   -20.5087 -20.5087 -20.5086 -20.5086 -20.5086 -20.5086 -20.5085 -20.5085
   -20.4948 -20.4948 -20.4948 -20.4948 -20.4946 -20.4946 -20.4946 -20.4946
   -20.4883 -20.4883 -20.4883 -20.4883 -20.4880 -20.4880 -20.4879 -20.4878
   -20.4842 -20.4842 -20.4841 -20.4841 -20.4784 -20.4784 -20.4783 -20.4783
   -20.4750 -20.4750 -20.4749 -20.4749 -20.4743 -20.4743 -20.4743 -20.4743
   -20.4706 -20.4706 -20.4705 -20.4705 -20.4700 -20.4700 -20.4699 -20.4699
    -9.5743  -9.5743  -9.5715  -9.5715  -8.9596  -8.9596  -8.9479  -8.9478
    -8.7453  -8.7453  -8.7267  -8.7266  -8.5713  -8.5713  -8.5555  -8.5555
    -8.5349  -8.5348  -8.5165  -8.5165  -7.8642  -7.8642  -7.8638  -7.8638
     1.2382   1.2382   1.2416   1.2416   2.6254   2.6254   2.6570   2.6570
     2.7588   2.7588   2.8061   2.8061   2.8695   2.8695   2.9427   2.9427
     3.0950   3.0950   3.1195   3.1195   3.5787   3.5787   3.6421   3.6421
     3.6883   3.6883   3.7488   3.7488   4.0058   4.0058   4.0331   4.0331
     4.0829   4.0829   4.1452   4.1452   4.8776   4.8776   4.8890   4.8890
     5.3937   5.3937   5.3965   5.3965   5.9340   5.9340   5.9411   5.9411
     6.1234   6.1234   6.1333   6.1333   6.3050   6.3050   6.3126   6.3126
     7.2893   7.2893   7.3112   7.3112   7.3254   7.3254   7.3506   7.3506
     7.4367   7.4367   7.4744   7.4744   7.6484   7.6484   7.7179   7.7179
    11.3180  11.3180  11.4270  11.4270  11.4500  11.4500  11.5388  11.5388
    11.8368  11.8368  11.8543  11.8543  11.9037  11.9037  11.9101  11.9101
    12.9828  12.9828  13.0083  13.0083  13.1154  13.1154  13.1447  13.1447
    14.9036  14.9036  14.9076  14.9077  16.3798  16.3798  16.4638  16.4638
    17.3572  17.3572  17.3691  17.3696  17.4053

          k =-0.4928 0.1602-0.4928 ( 63020 PWs)   bands (ev):

   -66.3530 -66.3530 -66.3530 -66.3530 -66.3525 -66.3525 -66.3525 -66.3525
   -30.7183 -30.7183 -30.7178 -30.7178 -30.7067 -30.7067 -30.7065 -30.7065
   -30.6792 -30.6792 -30.6786 -30.6786 -30.6383 -30.6383 -30.6368 -30.6368
   -30.6310 -30.6310 -30.6302 -30.6302 -30.6215 -30.6215 -30.6209 -30.6209
   -20.5202 -20.5202 -20.5201 -20.5201 -20.5201 -20.5201 -20.5200 -20.5200
   -20.5087 -20.5087 -20.5086 -20.5086 -20.5086 -20.5086 -20.5085 -20.5085
   -20.4948 -20.4948 -20.4948 -20.4948 -20.4946 -20.4946 -20.4946 -20.4946
   -20.4883 -20.4883 -20.4883 -20.4882 -20.4880 -20.4880 -20.4879 -20.4879
   -20.4839 -20.4839 -20.4838 -20.4838 -20.4788 -20.4788 -20.4787 -20.4787
   -20.4750 -20.4750 -20.4749 -20.4749 -20.4744 -20.4743 -20.4743 -20.4743
   -20.4706 -20.4705 -20.4705 -20.4705 -20.4700 -20.4700 -20.4700 -20.4700
    -9.5092  -9.5092  -9.5060  -9.5060  -8.9740  -8.9740  -8.9629  -8.9629
    -8.7298  -8.7298  -8.7108  -8.7108  -8.5703  -8.5702  -8.5549  -8.5549
    -8.5354  -8.5354  -8.5166  -8.5166  -7.9698  -7.9698  -7.9692  -7.9692
     1.4809   1.4809   1.4844   1.4844   2.6423   2.6423   2.6833   2.6833
     2.7761   2.7761   2.8168   2.8168   2.8806   2.8806   2.9590   2.9590
     3.0862   3.0862   3.1110   3.1110   3.6249   3.6249   3.6891   3.6892
     3.7285   3.7285   3.7951   3.7951   3.9989   3.9989   4.0180   4.0180
     4.0842   4.0842   4.1467   4.1467   4.6266   4.6266   4.6421   4.6421
     5.0760   5.0760   5.0811   5.0811   5.6609   5.6609   5.6712   5.6712
     6.4245   6.4245   6.4336   6.4336   6.4616   6.4616   6.4688   6.4688
     7.2825   7.2826   7.3131   7.3131   7.3151   7.3151   7.3587   7.3587
     7.4337   7.4337   7.4577   7.4577   7.6363   7.6363   7.6866   7.6866
    11.3807  11.3807  11.4744  11.4744  11.5147  11.5147  11.5920  11.5920
    11.8439  11.8439  11.8641  11.8641  11.9139  11.9139  11.9232  11.9233
    12.8485  12.8485  12.8716  12.8716  12.9896  12.9896  13.0169  13.0169
    15.2763  15.2764  15.2810  15.2810  16.4513  16.4514  16.5283  16.5283
    17.3097  17.3098  17.3536  17.3546  17.4082

          k =-0.4928 0.3205-0.4928 ( 62952 PWs)   bands (ev):

   -66.3529 -66.3529 -66.3529 -66.3529 -66.3526 -66.3526 -66.3526 -66.3526
   -30.7139 -30.7139 -30.7134 -30.7134 -30.7078 -30.7077 -30.7075 -30.7075
   -30.6709 -30.6709 -30.6703 -30.6702 -30.6447 -30.6447 -30.6435 -30.6435
   -30.6307 -30.6307 -30.6300 -30.6300 -30.6270 -30.6270 -30.6265 -30.6265
   -20.5201 -20.5201 -20.5201 -20.5201 -20.5201 -20.5201 -20.5201 -20.5200
   -20.5087 -20.5087 -20.5086 -20.5086 -20.5086 -20.5086 -20.5085 -20.5085
   -20.4948 -20.4948 -20.4948 -20.4948 -20.4947 -20.4946 -20.4946 -20.4946
   -20.4882 -20.4881 -20.4881 -20.4881 -20.4880 -20.4880 -20.4879 -20.4879
   -20.4829 -20.4829 -20.4828 -20.4828 -20.4799 -20.4799 -20.4798 -20.4798
   -20.4749 -20.4748 -20.4748 -20.4748 -20.4745 -20.4745 -20.4745 -20.4744
   -20.4705 -20.4705 -20.4704 -20.4704 -20.4701 -20.4701 -20.4701 -20.4701
    -9.3400  -9.3400  -9.3349  -9.3349  -9.0263  -9.0263  -9.0174  -9.0174
    -8.6752  -8.6752  -8.6545  -8.6545  -8.5684  -8.5684  -8.5538  -8.5538
    -8.5329  -8.5329  -8.5134  -8.5134  -8.2220  -8.2220  -8.2201  -8.2201
     2.1173   2.1173   2.1199   2.1199   2.6773   2.6773   2.7452   2.7452
     2.8080   2.8080   2.8135   2.8135   2.9394   2.9394   3.0223   3.0223
     3.0579   3.0579   3.0784   3.0784   3.7507   3.7507   3.7658   3.7658
     3.8427   3.8427   3.8599   3.8599   3.9477   3.9477   3.9766   3.9766
     4.0868   4.0868   4.1658   4.1658   4.1937   4.1937   4.2543   4.2543
     4.6023   4.6023   4.6094   4.6095   4.9534   4.9534   4.9680   4.9680
     6.7863   6.7863   6.8195   6.8195   6.8454   6.8454   6.8671   6.8671
     7.2572   7.2573   7.2807   7.2807   7.2979   7.2979   7.3566   7.3566
     7.4160   7.4160   7.4238   7.4238   7.5730   7.5730   7.5946   7.5947
    11.5669  11.5669  11.6181  11.6181  11.6668  11.6668  11.7067  11.7067
    11.8757  11.8757  11.9071  11.9071  11.9788  11.9788  12.0038  12.0038
    12.5177  12.5177  12.5255  12.5255  12.6688  12.6688  12.6826  12.6826
    16.1615  16.1615  16.1721  16.1721  16.6739  16.6740  16.7184  16.7184
    17.1161  17.1161  17.2406  17.2406  17.4176

          k =-0.4928-0.4807-0.4928 ( 62960 PWs)   bands (ev):

   -66.3528 -66.3528 -66.3528 -66.3528 -66.3528 -66.3528 -66.3528 -66.3528
   -30.7108 -30.7108 -30.7097 -30.7097 -30.7097 -30.7097 -30.7094 -30.7094
   -30.6577 -30.6577 -30.6577 -30.6577 -30.6571 -30.6570 -30.6567 -30.6567
   -30.6302 -30.6302 -30.6292 -30.6292 -30.6292 -30.6291 -30.6291 -30.6291
   -20.5201 -20.5201 -20.5201 -20.5201 -20.5201 -20.5201 -20.5201 -20.5201
   -20.5086 -20.5086 -20.5086 -20.5086 -20.5086 -20.5086 -20.5086 -20.5085
   -20.4947 -20.4947 -20.4947 -20.4947 -20.4947 -20.4947 -20.4947 -20.4947
   -20.4881 -20.4881 -20.4881 -20.4880 -20.4880 -20.4880 -20.4879 -20.4879
   -20.4815 -20.4815 -20.4813 -20.4813 -20.4813 -20.4813 -20.4813 -20.4813
   -20.4747 -20.4747 -20.4747 -20.4747 -20.4747 -20.4747 -20.4745 -20.4745
   -20.4703 -20.4703 -20.4703 -20.4703 -20.4703 -20.4703 -20.4703 -20.4703
    -9.1689  -9.1689  -9.1414  -9.1414  -9.1414  -9.1414  -9.1276  -9.1276
    -8.6063  -8.6062  -8.5777  -8.5777  -8.5777  -8.5777  -8.5551  -8.5551
    -8.4706  -8.4706  -8.4642  -8.4642  -8.4641  -8.4641  -8.4367  -8.4367
     2.6606   2.6606   2.6606   2.6606   2.6873   2.6873   2.6981   2.6981
     2.9377   2.9377   2.9658   2.9658   2.9659   2.9659   2.9731   2.9731
     3.0865   3.0865   3.2487   3.2487   3.2487   3.2488   3.3214   3.3214
     3.9523   3.9523   4.0097   4.0097   4.0097   4.0097   4.0281   4.0281
     4.1706   4.1706   4.1926   4.1926   4.1927   4.1927   4.2387   4.2387
     4.3732   4.3732   4.3814   4.3814   4.3814   4.3814   4.4039   4.4039
     6.9646   6.9646   7.0493   7.0493   7.0493   7.0493   7.1433   7.1433
     7.2009   7.2010   7.2183   7.2183   7.2183   7.2183   7.3058   7.3059
     7.4287   7.4287   7.4675   7.4675   7.4675   7.4676   7.5090   7.5090
    11.7193  11.7193  11.7291  11.7291  11.7291  11.7291  11.7403  11.7403
    11.9812  11.9812  12.0736  12.0736  12.0736  12.0736  12.1789  12.1789
    12.2501  12.2501  12.3179  12.3179  12.3179  12.3179  12.3515  12.3515
    16.7713  16.7714  16.8093  16.8093  16.8093  16.8093  16.9725  16.9726
    17.2986  17.2986  17.3021  17.3021  17.3021

     the Fermi energy is     8.6749 ev

!    total energy              =   -6261.06945728 Ry
     Harris-Foulkes estimate   =   -6261.06945728 Ry
     estimated scf accuracy    <          1.3E-11 Ry

     The total energy is the sum of the following terms:

     one-electron contribution =   -4767.27353573 Ry
     hartree contribution      =    2618.01754754 Ry
     xc contribution           =    -965.69944504 Ry
     ewald contribution        =   -3146.11402405 Ry
     smearing contrib. (-TS)   =      -0.00000000 Ry

     convergence has been achieved in  15 iterations

     Forces acting on atoms (cartesian axes, Ry/au):

     atom    1 type  1   force =    -0.00769975    0.00566061   -0.00148327
     atom    2 type  1   force =     0.00148327   -0.00566061   -0.00769975
     atom    3 type  1   force =     0.00769975   -0.00566061   -0.00148327
     atom    4 type  1   force =    -0.00148327    0.00566061   -0.00769975
     atom    5 type  1   force =     0.00769975    0.00566061    0.00148327
     atom    6 type  1   force =    -0.00148327   -0.00566061    0.00769975
     atom    7 type  1   force =    -0.00769975   -0.00566061    0.00148327
     atom    8 type  1   force =     0.00148327    0.00566061    0.00769975
     atom    9 type  2   force =    -0.00037582   -0.05182344   -0.00419882
     atom   10 type  2   force =     0.00419882    0.05182344   -0.00037582
     atom   11 type  2   force =     0.00037582    0.05182344   -0.00419882
     atom   12 type  2   force =    -0.00419882   -0.05182344   -0.00037582
     atom   13 type  2   force =     0.00037582   -0.05182344    0.00419882
     atom   14 type  2   force =    -0.00419882    0.05182344    0.00037582
     atom   15 type  2   force =    -0.00037582    0.05182344    0.00419882
     atom   16 type  2   force =     0.00419882   -0.05182344    0.00037582
     atom   17 type  2   force =    -0.00540122    0.00265399   -0.00065917
     atom   18 type  2   force =     0.00303651   -0.00289863    0.00247866
     atom   19 type  2   force =     0.00540122   -0.00265399   -0.00065917
     atom   20 type  2   force =    -0.00303651    0.00289863    0.00247866
     atom   21 type  2   force =     0.00540122    0.00265399    0.00065917
     atom   22 type  2   force =    -0.00303651   -0.00289863   -0.00247866
     atom   23 type  2   force =    -0.00540122   -0.00265399    0.00065917
     atom   24 type  2   force =     0.00303651    0.00289863   -0.00247866
     atom   25 type  2   force =    -0.00247866   -0.00289863   -0.00303651
     atom   26 type  2   force =     0.00065917   -0.00265399   -0.00540122
     atom   27 type  2   force =     0.00247866    0.00289863   -0.00303651
     atom   28 type  2   force =    -0.00065917    0.00265399   -0.00540122
     atom   29 type  2   force =     0.00247866   -0.00289863    0.00303651
     atom   30 type  2   force =    -0.00065917   -0.00265399    0.00540122
     atom   31 type  2   force =    -0.00247866    0.00289863    0.00303651
     atom   32 type  2   force =     0.00065917    0.00265399    0.00540122

     Total force =     0.000000     Total SCF correction =     0.000000


     Computing stress (Cartesian axis) and pressure

          total   stress  (Ry/bohr**3)                   (kbar)     P=    0.63
   0.00000673   0.00000000   0.00000000          0.99      0.00      0.00
   0.00000000  -0.00000054   0.00000000          0.00     -0.08      0.00
   0.00000000   0.00000000   0.00000673          0.00      0.00      0.99


     Writing output data file Landau_18.save
 
     init_run     :     67.89s CPU     69.70s WALL (       2 calls)
     electrons    :   6617.02s CPU   6746.38s WALL (       6 calls)
     update_pot   :    115.56s CPU    115.72s WALL (       4 calls)
     forces       :    150.88s CPU    152.94s WALL (       6 calls)
     stress       :   1017.18s CPU   1031.42s WALL (       6 calls)

     Called by init_run:
     wfcinit      :     44.90s CPU     46.45s WALL (       2 calls)
     potinit      :      9.76s CPU      9.82s WALL (       2 calls)

     Called by electrons:
     c_bands      :   5778.01s CPU   5898.72s WALL (      85 calls)
     sum_band     :    765.40s CPU    768.48s WALL (      85 calls)
     v_of_rho     :     13.03s CPU     13.19s WALL (      90 calls)
     mix_rho      :     32.83s CPU     37.00s WALL (      85 calls)

     Called by c_bands:
     init_us_2    :     71.17s CPU     73.27s WALL (     172 calls)
     cegterg      :   5005.40s CPU   5124.62s WALL (      85 calls)

     Called by sum_band:

     Called by *egterg:
     h_psi        :   3853.76s CPU   3869.49s WALL (     341 calls)
     g_psi        :     15.08s CPU     15.13s WALL (     254 calls)
     cdiaghg      :     50.58s CPU     50.71s WALL (     334 calls)

     Called by h_psi:
     h_psi:pot    :   3827.50s CPU   3842.76s WALL (     341 calls)
     h_psi:calbec :    441.61s CPU    451.84s WALL (     341 calls)
     vloc_psi     :   2924.22s CPU   2927.59s WALL (     341 calls)
     add_vuspsi   :    461.65s CPU    463.33s WALL (     341 calls)

     General routines
     calbec       :    504.35s CPU    515.54s WALL (     371 calls)
     fft          :      9.03s CPU      9.04s WALL (     408 calls)
     fftw         :   2799.92s CPU   2801.78s WALL (  111773 calls)
 
     Parallel routines
 
     PWSCF        :     2h12m CPU        2h15m WALL

 
   This run was terminated on:  19:39: 4  28Feb2020            

=------------------------------------------------------------------------------=
   JOB DONE.
=------------------------------------------------------------------------------=
