
     Program PWSCF v.6.4.1 starts on 19Nov2019 at 22:20:16 

     This program is part of the open-source Quantum ESPRESSO suite
     for quantum simulation of materials; please cite
         "P. Giannozzi et al., J. Phys.:Condens. Matter 21 395502 (2009);
         "P. Giannozzi et al., J. Phys.:Condens. Matter 29 465901 (2017);
          URL http://www.quantum-espresso.org", 
     in publications or presentations arising from this work. More details at
     http://www.quantum-espresso.org/quote

     Parallel version (MPI), running on    40 processors

     MPI processes distributed on     7 nodes
     K-points division:     npool     =      40
     Reading input from scf.in

     Current dimensions of program PWSCF are:
     Max number of different atomic species (ntypx) = 10
     Max number of k-points (npk) =  40000
     Max angular momentum in pseudopotentials (lmaxx) =  3

     Subspace diagonalization in iterative solution of the eigenvalue problem:
     a serial algorithm will be used

     Message from routine setup:
     using ibrav=0 with symmetry is DISCOURAGED, use correct ibrav instead
 
     G-vector sticks info
     --------------------
     sticks:   dense  smooth     PW     G-vecs:    dense   smooth      PW
     Sum        3761    3761   1033               253269   253269   36093
 


     bravais-lattice index     =            0
     lattice parameter (alat)  =       9.9205  a.u.
     unit-cell volume          =    1425.5787 (a.u.)^3
     number of atoms/cell      =           16
     number of atomic types    =            2
     number of electrons       =       184.07
     number of Kohn-Sham states=          110
     kinetic-energy cutoff     =     120.0000  Ry
     charge density cutoff     =     480.0000  Ry
     convergence threshold     =      1.0E-08
     mixing beta               =       0.7000
     number of iterations used =            8  plain     mixing
     Exchange-correlation      = SLA PW NOGX NOGC ( 1  4  0  0 0 0)

     celldm(1)=   9.920463  celldm(2)=   0.000000  celldm(3)=   0.000000
     celldm(4)=   0.000000  celldm(5)=   0.000000  celldm(6)=   0.000000

     crystal axes: (cart. coord. in units of alat)
               a(1) = (   1.000000   0.000000   0.000000 )  
               a(2) = (   0.000000   1.000000   0.000000 )  
               a(3) = (   0.000000   0.000000   1.460143 )  

     reciprocal axes: (cart. coord. in units 2 pi/alat)
               b(1) = (  1.000000  0.000000  0.000000 )  
               b(2) = (  0.000000  1.000000  0.000000 )  
               b(3) = (  0.000000  0.000000  0.684864 )  


     PseudoPot. # 1 for W  read from file:
     /cluster/scratch/mnoe/QE/pps/W_ONCV_LDA-4.0.upf
     MD5 check sum: ba0307d5d4cd419d6f1d13dc49d7c13a
     Pseudo is Norm-conserving + core correction, Zval = 28.0
     Generated using ONCVPSP code by D. R. Hamann
     Using radial grid of 1380 points,  8 beta functions with: 
                l(1) =   0
                l(2) =   0
                l(3) =   1
                l(4) =   1
                l(5) =   2
                l(6) =   2
                l(7) =   3
                l(8) =   3

     PseudoPot. # 2 for O  read from file:
     /cluster/scratch/mnoe/QE/pps/O_ONCV_LDA-3.0.upf
     MD5 check sum: b55cdb4f45ae2203d24ad12cf8d61a31
     Pseudo is Norm-conserving + core correction, Zval =  6.0
     Generated using ONCVPSP code by D. R. Hamann
     Using radial grid of  926 points,  5 beta functions with: 
                l(1) =   0
                l(2) =   0
                l(3) =   1
                l(4) =   1
                l(5) =   2

     atomic species   valence    mass     pseudopotential
        W             28.00   183.84000     W ( 1.00)
        O              6.00    15.99940     O ( 1.00)

     16 Sym. Ops., with inversion, found (14 have fractional translation)



   Cartesian axes

     site n.     atom                  positions (alat units)
         1           W   tau(   1) = (   0.2500000   0.2500000   0.3085721  )
         2           W   tau(   2) = (   0.7500000   0.7500000   1.1515709  )
         3           W   tau(   3) = (   0.7500000   0.7500000   0.4214994  )
         4           W   tau(   4) = (   0.2500000   0.2500000   1.0386436  )
         5           O   tau(   5) = (   0.2500000   0.2500000   0.6991467  )
         6           O   tau(   6) = (   0.7500000   0.7500000   0.7609963  )
         7           O   tau(   7) = (   0.7500000   0.7500000   0.0309248  )
         8           O   tau(   8) = (   0.2500000   0.2500000   1.4292182  )
         9           O   tau(   9) = (   0.4845182   0.5154817   0.3650357  )
        10           O   tau(  10) = (   0.5154818   0.4845183   1.0951072  )
        11           O   tau(  11) = (   0.0154817   0.9845183   0.3650357  )
        12           O   tau(  12) = (   0.9845182   0.0154818   1.0951072  )
        13           O   tau(  13) = (   0.9845183   0.4845182   0.3650357  )
        14           O   tau(  14) = (   0.0154818   0.5154818   1.0951072  )
        15           O   tau(  15) = (   0.5154817   0.0154817   0.3650357  )
        16           O   tau(  16) = (   0.4845183   0.9845182   1.0951072  )

     number of k points=    40  gaussian smearing, width (Ry)=  0.0007
                       cart. coord. in units 2pi/alat
        k(    1) = (   0.0000000   0.0000000   0.0000000), wk =   0.0092593
        k(    2) = (   0.0000000   0.0000000   0.1141441), wk =   0.0185185
        k(    3) = (   0.0000000   0.0000000   0.2282881), wk =   0.0185185
        k(    4) = (   0.0000000   0.0000000  -0.3424322), wk =   0.0092593
        k(    5) = (   0.0000000   0.1666667   0.0000000), wk =   0.0370370
        k(    6) = (   0.0000000   0.1666667   0.1141441), wk =   0.0740741
        k(    7) = (   0.0000000   0.1666667   0.2282881), wk =   0.0740741
        k(    8) = (   0.0000000   0.1666667  -0.3424322), wk =   0.0370370
        k(    9) = (   0.0000000   0.3333333   0.0000000), wk =   0.0370370
        k(   10) = (   0.0000000   0.3333333   0.1141441), wk =   0.0740741
        k(   11) = (   0.0000000   0.3333333   0.2282881), wk =   0.0740741
        k(   12) = (   0.0000000   0.3333333  -0.3424322), wk =   0.0370370
        k(   13) = (   0.0000000  -0.5000000   0.0000000), wk =   0.0185185
        k(   14) = (   0.0000000  -0.5000000   0.1141441), wk =   0.0370370
        k(   15) = (   0.0000000  -0.5000000   0.2282881), wk =   0.0370370
        k(   16) = (   0.0000000  -0.5000000  -0.3424322), wk =   0.0185185
        k(   17) = (   0.1666667   0.1666667   0.0000000), wk =   0.0370370
        k(   18) = (   0.1666667   0.1666667   0.1141441), wk =   0.0740741
        k(   19) = (   0.1666667   0.1666667   0.2282881), wk =   0.0740741
        k(   20) = (   0.1666667   0.1666667  -0.3424322), wk =   0.0370370
        k(   21) = (   0.1666667   0.3333333   0.0000000), wk =   0.0740741
        k(   22) = (   0.1666667   0.3333333   0.1141441), wk =   0.1481481
        k(   23) = (   0.1666667   0.3333333   0.2282881), wk =   0.1481481
        k(   24) = (   0.1666667   0.3333333  -0.3424322), wk =   0.0740741
        k(   25) = (   0.1666667  -0.5000000   0.0000000), wk =   0.0370370
        k(   26) = (   0.1666667  -0.5000000   0.1141441), wk =   0.0740741
        k(   27) = (   0.1666667  -0.5000000   0.2282881), wk =   0.0740741
        k(   28) = (   0.1666667  -0.5000000  -0.3424322), wk =   0.0370370
        k(   29) = (   0.3333333   0.3333333   0.0000000), wk =   0.0370370
        k(   30) = (   0.3333333   0.3333333   0.1141441), wk =   0.0740741
        k(   31) = (   0.3333333   0.3333333   0.2282881), wk =   0.0740741
        k(   32) = (   0.3333333   0.3333333  -0.3424322), wk =   0.0370370
        k(   33) = (   0.3333333  -0.5000000   0.0000000), wk =   0.0370370
        k(   34) = (   0.3333333  -0.5000000   0.1141441), wk =   0.0740741
        k(   35) = (   0.3333333  -0.5000000   0.2282881), wk =   0.0740741
        k(   36) = (   0.3333333  -0.5000000  -0.3424322), wk =   0.0370370
        k(   37) = (  -0.5000000  -0.5000000   0.0000000), wk =   0.0092593
        k(   38) = (  -0.5000000  -0.5000000   0.1141441), wk =   0.0185185
        k(   39) = (  -0.5000000  -0.5000000   0.2282881), wk =   0.0185185
        k(   40) = (  -0.5000000  -0.5000000  -0.3424322), wk =   0.0092593

     Dense  grid:   253269 G-vectors     FFT dimensions: (  72,  72, 108)

     Estimated max dynamical RAM per process >     789.33 MB

     Estimated total dynamical RAM >      30.83 GB

     Initial potential from superposition of free atoms

     starting charge  183.99828, renormalised to  184.07500
     Starting wfcs are  116 randomized atomic wfcs

     total cpu time spent up to now is        6.7 secs

     Self-consistent Calculation

     iteration #  1     ecut=   120.00 Ry     beta= 0.70
     Davidson diagonalization with overlap
     ethr =  1.00E-02,  avg # of iterations =  4.2

     total cpu time spent up to now is       21.4 secs

     total energy              =   -3126.82625780 Ry
     Harris-Foulkes estimate   =   -3132.26448818 Ry
     estimated scf accuracy    <       6.87295728 Ry

     iteration #  2     ecut=   120.00 Ry     beta= 0.70
     Davidson diagonalization with overlap
     ethr =  3.73E-03,  avg # of iterations =  3.2

     total cpu time spent up to now is       36.2 secs

     total energy              =   -3125.25302232 Ry
     Harris-Foulkes estimate   =   -3135.49551438 Ry
     estimated scf accuracy    <      27.54311600 Ry

     iteration #  3     ecut=   120.00 Ry     beta= 0.70
     Davidson diagonalization with overlap
     ethr =  3.73E-03,  avg # of iterations =  3.1

     total cpu time spent up to now is       49.6 secs

     total energy              =   -3130.47412171 Ry
     Harris-Foulkes estimate   =   -3130.61341220 Ry
     estimated scf accuracy    <       0.46641023 Ry

     iteration #  4     ecut=   120.00 Ry     beta= 0.70
     Davidson diagonalization with overlap
     ethr =  2.53E-04,  avg # of iterations =  2.5

     total cpu time spent up to now is       61.4 secs

     total energy              =   -3130.46621039 Ry
     Harris-Foulkes estimate   =   -3130.50614705 Ry
     estimated scf accuracy    <       0.11334134 Ry

     iteration #  5     ecut=   120.00 Ry     beta= 0.70
     Davidson diagonalization with overlap
     ethr =  6.16E-05,  avg # of iterations =  3.8

     total cpu time spent up to now is       73.8 secs

     total energy              =   -3130.47351617 Ry
     Harris-Foulkes estimate   =   -3130.48601435 Ry
     estimated scf accuracy    <       0.02931124 Ry

     iteration #  6     ecut=   120.00 Ry     beta= 0.70
     Davidson diagonalization with overlap
     ethr =  1.59E-05,  avg # of iterations =  3.5

     total cpu time spent up to now is       86.1 secs

     total energy              =   -3130.47927011 Ry
     Harris-Foulkes estimate   =   -3130.48078296 Ry
     estimated scf accuracy    <       0.00382960 Ry

     iteration #  7     ecut=   120.00 Ry     beta= 0.70
     Davidson diagonalization with overlap
     ethr =  2.08E-06,  avg # of iterations =  3.5

     total cpu time spent up to now is       98.2 secs

     total energy              =   -3130.47985118 Ry
     Harris-Foulkes estimate   =   -3130.47987104 Ry
     estimated scf accuracy    <       0.00003293 Ry

     iteration #  8     ecut=   120.00 Ry     beta= 0.70
     Davidson diagonalization with overlap
     ethr =  1.79E-08,  avg # of iterations =  3.7

     total cpu time spent up to now is      113.4 secs

     total energy              =   -3130.47987464 Ry
     Harris-Foulkes estimate   =   -3130.47987916 Ry
     estimated scf accuracy    <       0.00002495 Ry

     iteration #  9     ecut=   120.00 Ry     beta= 0.70
     Davidson diagonalization with overlap
     ethr =  1.36E-08,  avg # of iterations =  1.9

     total cpu time spent up to now is      123.9 secs

     total energy              =   -3130.47987114 Ry
     Harris-Foulkes estimate   =   -3130.47987584 Ry
     estimated scf accuracy    <       0.00001345 Ry

     iteration # 10     ecut=   120.00 Ry     beta= 0.70
     Davidson diagonalization with overlap
     ethr =  7.31E-09,  avg # of iterations =  2.0

     total cpu time spent up to now is      134.6 secs

     total energy              =   -3130.47987270 Ry
     Harris-Foulkes estimate   =   -3130.47987296 Ry
     estimated scf accuracy    <       0.00000060 Ry

     iteration # 11     ecut=   120.00 Ry     beta= 0.70
     Davidson diagonalization with overlap
     ethr =  3.27E-10,  avg # of iterations =  2.8

     total cpu time spent up to now is      147.0 secs

     total energy              =   -3130.47987283 Ry
     Harris-Foulkes estimate   =   -3130.47987285 Ry
     estimated scf accuracy    <       0.00000004 Ry

     iteration # 12     ecut=   120.00 Ry     beta= 0.70
     Davidson diagonalization with overlap
     ethr =  2.01E-11,  avg # of iterations =  2.0

     total cpu time spent up to now is      159.7 secs

     End of self-consistent calculation

          k = 0.0000 0.0000 0.0000 ( 31663 PWs)   bands (ev):

   -66.4184 -66.4179 -66.4171 -66.4166 -30.7825 -30.7779 -30.7529 -30.7529
   -30.7490 -30.7490 -30.7139 -30.7105 -30.6724 -30.6724 -30.6693 -30.6693
   -20.5805 -20.5805 -20.5804 -20.5804 -20.5631 -20.5631 -20.5630 -20.5630
   -20.5614 -20.5614 -20.5612 -20.5612 -20.5593 -20.5593 -20.5553 -20.5551
   -20.5550 -20.5550 -20.5528 -20.5527 -20.5504 -20.5504 -20.5490 -20.5490
   -20.5468 -20.5468 -20.5454 -20.5454 -10.2020  -9.8365  -9.4064  -9.2088
    -9.1864  -9.0855  -8.0249  -7.9255  -7.9255  -7.9065  -7.9014  -7.9014
     0.9007   0.9008   0.9977   1.2225   1.2597   1.3892   2.3106   2.3358
     2.3358   2.4170   3.9097   3.9097   4.6185   4.6185   4.8377   5.3969
     5.3969   5.4641   5.4641   5.6691   5.6691   5.7759   5.8168   6.4615
     6.4615   6.6716   6.9423   6.9759   7.0119   7.0119   7.0289   7.0289
     8.0764   8.0764   8.1463   8.1527   8.7712   8.7771   9.4440   9.4440
    12.2504  12.2504  13.1448  13.1448  13.3934  13.4246  13.4325  14.0104
    14.0104  14.2274  14.2299  14.5285  15.3814  16.3195

          k = 0.0000 0.0000 0.1141 ( 31699 PWs)   bands (ev):

   -66.4184 -66.4180 -66.4170 -66.4166 -30.7780 -30.7735 -30.7527 -30.7527
   -30.7493 -30.7493 -30.7185 -30.7151 -30.6722 -30.6722 -30.6695 -30.6695
   -20.5805 -20.5805 -20.5804 -20.5804 -20.5631 -20.5631 -20.5630 -20.5630
   -20.5614 -20.5614 -20.5612 -20.5612 -20.5589 -20.5588 -20.5552 -20.5551
   -20.5550 -20.5550 -20.5533 -20.5532 -20.5503 -20.5503 -20.5491 -20.5491
   -20.5467 -20.5467 -20.5455 -20.5455 -10.1648  -9.8507  -9.3258  -9.2073
    -9.1879  -9.0404  -8.1334  -8.0257  -7.9239  -7.9239  -7.9030  -7.9030
     0.9007   0.9008   1.1484   1.2591   1.3956   1.5852   2.3175   2.4065
     2.4065   2.4097   3.7325   3.7325   4.5915   4.6658   4.6658   5.3287
     5.3287   5.4216   5.4216   5.4376   5.8183   5.8369   5.8369   6.4758
     6.4758   6.6891   6.7833   6.9235   7.0116   7.0116   7.0254   7.0254
     7.9954   7.9954   8.1468   8.1526   8.7718   8.7769   9.6799   9.6799
    12.0840  12.0840  13.1737  13.1737  13.4251  13.4320  13.6881  13.9161
    13.9161  14.2277  14.2299  14.7402  15.7978  16.0220

          k = 0.0000 0.0000 0.2283 ( 31654 PWs)   bands (ev):

   -66.4183 -66.4181 -66.4170 -66.4167 -30.7655 -30.7612 -30.7520 -30.7520
   -30.7500 -30.7500 -30.7312 -30.7275 -30.6716 -30.6716 -30.6701 -30.6701
   -20.5805 -20.5804 -20.5804 -20.5804 -20.5631 -20.5631 -20.5630 -20.5630
   -20.5613 -20.5613 -20.5613 -20.5613 -20.5577 -20.5577 -20.5552 -20.5552
   -20.5550 -20.5550 -20.5545 -20.5544 -20.5500 -20.5500 -20.5493 -20.5493
   -20.5465 -20.5465 -20.5458 -20.5458 -10.0732  -9.8951  -9.2032  -9.1920
    -9.0972  -8.8972  -8.4105  -8.3205  -7.9195  -7.9195  -7.9075  -7.9075
     0.9008   0.9008   1.2357   1.2570   2.0099   2.3049   2.3367   2.3899
     2.6135   2.6135   3.3436   3.3436   3.8905   4.4931   4.8213   4.8213
     5.2115   5.2115   5.4516   5.4516   5.7321   5.7321   5.9434   6.4356
     6.7375   6.8235   6.8235   6.8728   7.0114   7.0115   7.0254   7.0254
     7.7419   7.7419   8.1481   8.1516   8.7732   8.7762  10.2593  10.2593
    11.6208  11.6208  13.2719  13.2719  13.4266  13.4306  13.6917  13.6917
    14.2286  14.2298  14.2603  15.3929  15.4537  16.8595

          k = 0.0000 0.0000-0.3424 ( 31762 PWs)   bands (ev):

   -66.4182 -66.4182 -66.4168 -66.4168 -30.7510 -30.7510 -30.7510 -30.7510
   -30.7484 -30.7484 -30.7444 -30.7444 -30.6709 -30.6709 -30.6709 -30.6709
   -20.5805 -20.5804 -20.5804 -20.5804 -20.5631 -20.5631 -20.5631 -20.5631
   -20.5613 -20.5613 -20.5613 -20.5613 -20.5561 -20.5561 -20.5561 -20.5561
   -20.5552 -20.5552 -20.5550 -20.5550 -20.5497 -20.5497 -20.5497 -20.5497
   -20.5461 -20.5461 -20.5461 -20.5461  -9.9721  -9.9721  -9.1976  -9.1976
    -8.7643  -8.7643  -8.6475  -8.6475  -7.9135  -7.9135  -7.9135  -7.9135
     0.9008   0.9008   1.2516   1.2516   2.3631   2.3631   2.9347   2.9347
     2.9392   2.9392   2.9392   2.9392   3.3508   3.3508   5.0388   5.0388
     5.0388   5.0388   5.5404   5.5404   5.5404   5.5404   6.1480   6.1480
     6.8045   6.8045   7.0103   7.0103   7.0104   7.0104   7.3323   7.3323
     7.3323   7.3323   8.1499   8.1499   8.7749   8.7749  10.9646  10.9646
    10.9646  10.9646  13.4286  13.4286  13.4513  13.4513  13.4513  13.4513
    14.2294  14.2294  14.8483  14.8483  16.2310  16.2310

          k = 0.0000 0.1667 0.0000 ( 31683 PWs)   bands (ev):

   -66.4183 -66.4178 -66.4172 -66.4167 -30.7829 -30.7785 -30.7484 -30.7476
   -30.7437 -30.7431 -30.7129 -30.7115 -30.6779 -30.6772 -30.6747 -30.6745
   -20.5805 -20.5805 -20.5804 -20.5804 -20.5630 -20.5630 -20.5630 -20.5629
   -20.5615 -20.5615 -20.5614 -20.5614 -20.5593 -20.5592 -20.5553 -20.5552
   -20.5551 -20.5550 -20.5529 -20.5528 -20.5501 -20.5501 -20.5488 -20.5487
   -20.5470 -20.5470 -20.5457 -20.5456 -10.1180  -9.7316  -9.4259  -9.1382
    -9.1157  -9.0617  -8.0996  -8.0708  -8.0327  -8.0088  -7.9826  -7.9130
     1.0408   1.1560   1.1582   1.2054   1.5290   1.6176   2.4055   2.4101
     2.4883   2.5865   3.8575   3.8954   4.2934   4.3821   4.8221   5.0910
     5.1266   5.2726   5.3583   5.6754   5.6869   5.8388   6.1672   6.2927
     6.3220   6.3381   6.3886   6.6534   6.8031   6.8921   6.9432   6.9868
     7.9949   8.0339   8.0357   8.0446   9.4271   9.4451   9.7492   9.8418
    12.3040  12.3359  12.8859  12.8864  13.3084  13.3483  13.6761  13.8311
    13.8422  14.6449  14.6573  14.7372  15.3122  16.6504

          k = 0.0000 0.1667 0.1141 ( 31646 PWs)   bands (ev):

   -66.4183 -66.4179 -66.4171 -66.4167 -30.7785 -30.7740 -30.7483 -30.7473
   -30.7440 -30.7433 -30.7174 -30.7160 -30.6777 -30.6771 -30.6749 -30.6747
   -20.5805 -20.5805 -20.5804 -20.5804 -20.5630 -20.5630 -20.5629 -20.5629
   -20.5615 -20.5614 -20.5614 -20.5614 -20.5589 -20.5588 -20.5553 -20.5552
   -20.5551 -20.5550 -20.5533 -20.5532 -20.5500 -20.5500 -20.5489 -20.5488
   -20.5469 -20.5469 -20.5458 -20.5457 -10.0779  -9.7460  -9.3455  -9.1367
    -9.1172  -9.0196  -8.1664  -8.0690  -8.0561  -8.0311  -8.0104  -8.0019
     1.1562   1.1580   1.2602   1.4226   1.5280   1.6964   2.4659   2.4776
     2.5087   2.5808   3.7088   3.7496   4.3412   4.4307   4.5727   5.0927
     5.1086   5.1535   5.2089   5.4482   5.7490   5.8089   6.1967   6.3217
     6.3267   6.3636   6.3756   6.7251   6.7657   6.8978   6.9441   6.9973
     7.9270   7.9597   8.0265   8.0388   9.4308   9.4416   9.9379  10.0200
    12.1436  12.1786  12.9124  12.9215  13.3029  13.3500  13.7320  13.7535
    13.9798  14.6451  14.6539  14.9266  15.7286  16.3157

          k = 0.0000 0.1667 0.2283 ( 31643 PWs)   bands (ev):

   -66.4182 -66.4180 -66.4170 -66.4168 -30.7665 -30.7618 -30.7482 -30.7466
   -30.7447 -30.7435 -30.7294 -30.7282 -30.6771 -30.6767 -30.6755 -30.6752
   -20.5805 -20.5804 -20.5804 -20.5804 -20.5630 -20.5629 -20.5629 -20.5629
   -20.5614 -20.5614 -20.5614 -20.5614 -20.5577 -20.5577 -20.5552 -20.5552
   -20.5551 -20.5551 -20.5545 -20.5544 -20.5498 -20.5497 -20.5491 -20.5490
   -20.5467 -20.5466 -20.5460 -20.5460  -9.9794  -9.7914  -9.1326  -9.1216
    -9.1172  -8.8837  -8.4282  -8.3280  -8.0637  -8.0434  -8.0268  -8.0148
     1.1565   1.1576   1.4844   1.5245   2.0149   2.2717   2.5043   2.5588
     2.6917   2.7106   3.3506   3.3948   3.8820   4.4910   4.5149   4.5966
     4.9846   5.0253   5.1489   5.1731   5.4878   5.5197   6.2822   6.3162
     6.3448   6.5698   6.7666   6.7975   6.8633   6.9024   6.9643   7.0328
     7.6890   7.7191   8.0280   8.0359   9.4349   9.4387  10.4315  10.4975
    11.6961  11.7385  13.0066  13.0281  13.2749  13.3522  13.5024  13.5537
    14.5715  14.6455  14.6488  15.5491  15.7438  16.7612

          k = 0.0000 0.1667-0.3424 ( 31652 PWs)   bands (ev):

   -66.4181 -66.4181 -66.4169 -66.4169 -30.7522 -30.7522 -30.7457 -30.7457
   -30.7450 -30.7450 -30.7417 -30.7417 -30.6763 -30.6763 -30.6760 -30.6760
   -20.5805 -20.5804 -20.5804 -20.5804 -20.5630 -20.5629 -20.5629 -20.5629
   -20.5614 -20.5614 -20.5614 -20.5614 -20.5561 -20.5561 -20.5561 -20.5561
   -20.5552 -20.5552 -20.5551 -20.5551 -20.5494 -20.5494 -20.5494 -20.5494
   -20.5464 -20.5464 -20.5463 -20.5463  -9.8717  -9.8717  -9.1270  -9.1270
    -8.7844  -8.7844  -8.6429  -8.6429  -8.0556  -8.0556  -8.0208  -8.0208
     1.1571   1.1571   1.5155   1.5155   2.5302   2.5302   2.9246   2.9246
     2.9495   2.9495   3.0077   3.0077   3.3909   3.3909   4.7710   4.7710
     4.8351   4.8351   5.2408   5.2408   5.2606   5.2606   6.3211   6.3211
     6.4320   6.4320   6.8921   6.8921   6.9685   6.9685   7.2956   7.2957
     7.3323   7.3323   8.0321   8.0321   9.4371   9.4371  11.0736  11.0736
    11.1266  11.1266  13.1524  13.1524  13.2282  13.2282  13.4163  13.4163
    14.6462  14.6462  15.1520  15.1520  16.3916  16.3916

          k = 0.0000 0.3333 0.0000 ( 31674 PWs)   bands (ev):

   -66.4181 -66.4176 -66.4174 -66.4169 -30.7829 -30.7800 -30.7365 -30.7329
   -30.7292 -30.7280 -30.7148 -30.7098 -30.6927 -30.6895 -30.6893 -30.6887
   -20.5805 -20.5805 -20.5804 -20.5804 -20.5627 -20.5627 -20.5627 -20.5626
   -20.5618 -20.5618 -20.5617 -20.5617 -20.5592 -20.5591 -20.5553 -20.5553
   -20.5552 -20.5552 -20.5530 -20.5530 -20.5493 -20.5493 -20.5482 -20.5480
   -20.5476 -20.5475 -20.5464 -20.5462  -9.8995  -9.4963  -9.4328  -8.9734
    -8.9368  -8.9142  -8.4944  -8.4163  -8.3049  -8.2815  -7.9789  -7.9310
     1.0856   1.1661   1.8389   1.8602   2.2093   2.2396   2.5879   2.6206
     3.0139   3.1085   3.5973   3.6205   3.8190   3.9162   4.3264   4.3772
     4.7896   4.8484   5.1657   5.1797   5.2033   5.6472   5.7506   5.8833
     6.0950   6.1494   6.1965   6.4895   6.8197   7.0199   7.0971   7.3085
     7.7172   7.7215   7.8025   7.9224  10.4715  10.4890  10.5513  10.6959
    12.2025  12.2453  12.5686  12.6457  12.6548  12.6865  13.3941  13.4747
    14.2312  15.0999  15.3673  15.9189  15.9241  17.2658

          k = 0.0000 0.3333 0.1141 ( 31629 PWs)   bands (ev):

   -66.4180 -66.4176 -66.4174 -66.4170 -30.7786 -30.7756 -30.7369 -30.7327
   -30.7295 -30.7281 -30.7189 -30.7137 -30.6925 -30.6898 -30.6896 -30.6889
   -20.5805 -20.5805 -20.5804 -20.5804 -20.5627 -20.5627 -20.5626 -20.5626
   -20.5618 -20.5618 -20.5617 -20.5617 -20.5588 -20.5588 -20.5553 -20.5552
   -20.5552 -20.5552 -20.5534 -20.5534 -20.5493 -20.5492 -20.5483 -20.5481
   -20.5475 -20.5474 -20.5465 -20.5463  -9.8493  -9.4477  -9.4183  -8.9414
    -8.9353  -8.9157  -8.5151  -8.4120  -8.3033  -8.2831  -8.0807  -8.0369
     1.3346   1.4134   1.8405   1.8589   2.2070   2.2518   2.6619   2.6824
     3.0189   3.1029   3.5338   3.5758   3.8694   3.9684   4.3397   4.3909
     4.5242   4.6773   4.8979   5.1650   5.1772   5.4193   5.4828   5.7003
     6.2521   6.3121   6.5069   6.5661   6.8281   7.0129   7.1089   7.2998
     7.7066   7.7126   7.7541   7.8657  10.5071  10.5141  10.6196  10.7906
    12.2381  12.2422  12.4598  12.5067  12.6560  12.6872  13.2812  13.3669
    14.5888  15.4705  15.5361  15.9192  15.9237  16.9365

          k = 0.0000 0.3333 0.2283 ( 31622 PWs)   bands (ev):

   -66.4180 -66.4177 -66.4173 -66.4171 -30.7667 -30.7634 -30.7402 -30.7320
   -30.7305 -30.7302 -30.7282 -30.7224 -30.6918 -30.6902 -30.6901 -30.6893
   -20.5805 -20.5805 -20.5804 -20.5804 -20.5627 -20.5626 -20.5626 -20.5626
   -20.5618 -20.5617 -20.5617 -20.5617 -20.5577 -20.5577 -20.5553 -20.5552
   -20.5552 -20.5552 -20.5546 -20.5545 -20.5491 -20.5490 -20.5485 -20.5483
   -20.5473 -20.5472 -20.5467 -20.5465  -9.7247  -9.4967  -9.1993  -8.9313
    -8.9198  -8.8322  -8.6211  -8.3973  -8.3326  -8.2990  -8.2874  -8.2503
     1.8447   1.8554   1.9632   2.0312   2.1976   2.3691   2.8575   2.8924
     3.0304   3.0882   3.3177   3.3994   3.8646   4.0521   4.1312   4.2832
     4.4001   4.4437   4.5836   4.7117   4.9614   5.1040   5.1778   5.1981
     6.7036   6.7200   6.7836   6.8370   6.8490   6.9925   7.1602   7.2628
     7.5444   7.6182   7.7317   7.7608  10.5231  10.5259  10.9354  11.0990
    11.9398  12.0688  12.4124  12.4717  12.6607  12.7002  13.0131  13.1065
    15.3154  15.9189  15.9226  15.9708  16.4261  16.5188

          k = 0.0000 0.3333-0.3424 ( 31616 PWs)   bands (ev):

   -66.4178 -66.4178 -66.4172 -66.4172 -30.7514 -30.7514 -30.7468 -30.7468
   -30.7311 -30.7311 -30.7274 -30.7274 -30.6910 -30.6910 -30.6899 -30.6899
   -20.5805 -20.5804 -20.5804 -20.5804 -20.5627 -20.5627 -20.5626 -20.5626
   -20.5618 -20.5617 -20.5617 -20.5617 -20.5561 -20.5561 -20.5561 -20.5561
   -20.5553 -20.5553 -20.5552 -20.5552 -20.5488 -20.5488 -20.5486 -20.5486
   -20.5471 -20.5471 -20.5469 -20.5469  -9.5904  -9.5904  -8.9262  -8.9262
    -8.8909  -8.8909  -8.6211  -8.6211  -8.3609  -8.3609  -8.2933  -8.2932
     1.8503   1.8503   2.1696   2.1696   2.8678   2.8678   2.9713   2.9713
     3.0759   3.0759   3.1406   3.1406   3.4431   3.4431   4.3123   4.3123
     4.3593   4.3593   4.5767   4.5767   4.6640   4.6640   5.1724   5.1724
     6.8073   6.8074   6.9419   6.9419   7.1470   7.1470   7.2228   7.2228
     7.3373   7.3373   7.7372   7.7372  10.5273  10.5273  11.4213  11.4213
    11.5706  11.5706  12.5474  12.5474  12.7054  12.7054  12.8552  12.8552
    15.8930  15.8930  15.9266  15.9266  16.7936  16.7936

          k = 0.0000-0.5000 0.0000 ( 31638 PWs)   bands (ev):

   -66.4177 -66.4177 -66.4173 -66.4173 -30.7818 -30.7818 -30.7228 -30.7228
   -30.7129 -30.7128 -30.7093 -30.7093 -30.7082 -30.7082 -30.7026 -30.7026
   -20.5805 -20.5805 -20.5804 -20.5804 -20.5623 -20.5623 -20.5622 -20.5622
   -20.5622 -20.5622 -20.5621 -20.5621 -20.5591 -20.5591 -20.5553 -20.5553
   -20.5553 -20.5553 -20.5531 -20.5531 -20.5484 -20.5484 -20.5484 -20.5484
   -20.5473 -20.5473 -20.5471 -20.5471  -9.6541  -9.6541  -8.9899  -8.9899
    -8.7656  -8.7655  -8.6377  -8.6376  -8.6144  -8.6144  -7.9554  -7.9554
     1.1239   1.1239   2.5946   2.5947   2.7122   2.7122   2.8143   2.8143
     3.0107   3.0107   3.6420   3.6420   3.7153   3.7153   3.9210   3.9210
     4.0179   4.0179   4.7955   4.7956   5.3589   5.3589   5.8446   5.8446
     5.9999   5.9999   6.2438   6.2438   7.3275   7.3275   7.3515   7.3515
     7.4200   7.4200   7.6816   7.6816  11.3189  11.3189  11.4709  11.4709
    11.7057  11.7057  11.7094  11.7094  12.9110  12.9110  13.0317  13.0317
    14.7374  14.7374  16.3181  16.3181  17.4730  17.4730

          k = 0.0000-0.5000 0.1141 ( 31632 PWs)   bands (ev):

   -66.4177 -66.4177 -66.4173 -66.4173 -30.7774 -30.7774 -30.7252 -30.7252
   -30.7126 -30.7126 -30.7096 -30.7096 -30.7083 -30.7083 -30.7046 -30.7046
   -20.5805 -20.5805 -20.5804 -20.5804 -20.5623 -20.5623 -20.5622 -20.5622
   -20.5622 -20.5622 -20.5621 -20.5621 -20.5587 -20.5587 -20.5553 -20.5553
   -20.5553 -20.5553 -20.5535 -20.5535 -20.5484 -20.5484 -20.5483 -20.5483
   -20.5474 -20.5474 -20.5471 -20.5471  -9.5870  -9.5870  -9.0061  -9.0060
    -8.7505  -8.7505  -8.6362  -8.6361  -8.6159  -8.6159  -8.0609  -8.0609
     1.3746   1.3746   2.6169   2.6169   2.7513   2.7513   2.8056   2.8056
     2.9958   2.9958   3.6912   3.6912   3.7550   3.7551   3.9185   3.9185
     4.0182   4.0182   4.5410   4.5410   5.0208   5.0208   5.5656   5.5656
     6.3357   6.3357   6.4043   6.4043   7.3185   7.3186   7.3441   7.3441
     7.4042   7.4042   7.6482   7.6482  11.3706  11.3706  11.5171  11.5171
    11.7217  11.7217  11.7317  11.7317  12.7766  12.7766  12.9028  12.9028
    15.1333  15.1333  16.3926  16.3926  17.3533  17.3533

          k = 0.0000-0.5000 0.2283 ( 31628 PWs)   bands (ev):

   -66.4176 -66.4176 -66.4174 -66.4174 -30.7654 -30.7653 -30.7341 -30.7341
   -30.7120 -30.7120 -30.7102 -30.7102 -30.7086 -30.7086 -30.7076 -30.7076
   -20.5805 -20.5805 -20.5804 -20.5804 -20.5622 -20.5622 -20.5622 -20.5622
   -20.5622 -20.5622 -20.5621 -20.5621 -20.5577 -20.5577 -20.5553 -20.5553
   -20.5553 -20.5553 -20.5546 -20.5546 -20.5482 -20.5482 -20.5480 -20.5480
   -20.5477 -20.5477 -20.5474 -20.5474  -9.4095  -9.4095  -9.0657  -9.0657
    -8.6944  -8.6944  -8.6321  -8.6321  -8.6199  -8.6198  -8.3112  -8.3112
     2.0422   2.0422   2.6711   2.6711   2.7785   2.7785   2.8610   2.8610
     2.9424   2.9424   3.8095   3.8095   3.8639   3.8639   3.8768   3.8768
     4.0388   4.0388   4.0604   4.0604   4.5416   4.5416   4.8574   4.8574
     6.7668   6.7669   6.7966   6.7966   7.2699   7.2699   7.2796   7.2796
     7.3992   7.3992   7.5508   7.5508  11.4975  11.4976  11.5845  11.5845
    11.8023  11.8023  11.8677  11.8677  12.4405  12.4405  12.5752  12.5752
    16.0637  16.0637  16.6261  16.6261  17.0894  17.0894

          k = 0.0000-0.5000-0.3424 ( 31664 PWs)   bands (ev):

   -66.4175 -66.4175 -66.4175 -66.4175 -30.7492 -30.7492 -30.7492 -30.7492
   -30.7111 -30.7111 -30.7111 -30.7111 -30.7087 -30.7087 -30.7086 -30.7086
   -20.5804 -20.5804 -20.5804 -20.5804 -20.5622 -20.5622 -20.5622 -20.5622
   -20.5622 -20.5622 -20.5621 -20.5621 -20.5562 -20.5561 -20.5561 -20.5561
   -20.5553 -20.5553 -20.5553 -20.5553 -20.5480 -20.5480 -20.5480 -20.5480
   -20.5477 -20.5477 -20.5477 -20.5477  -9.2024  -9.2024  -9.2024  -9.2024
    -8.6269  -8.6269  -8.6269  -8.6269  -8.5556  -8.5555  -8.5555  -8.5555
     2.7248   2.7248   2.7248   2.7248   2.7678   2.7678   2.7678   2.7678
     3.1623   3.1623   3.1623   3.1623   3.9555   3.9555   3.9555   3.9555
     4.1423   4.1423   4.1423   4.1423   4.2757   4.2757   4.2757   4.2757
     7.0746   7.0746   7.0746   7.0746   7.1370   7.1370   7.1370   7.1370
     7.4428   7.4428   7.4428   7.4428  11.5811  11.5811  11.5811  11.5811
    12.0514  12.0514  12.0514  12.0514  12.1885  12.1885  12.1885  12.1885
    16.7532  16.7532  16.7532  16.7532  17.3155  17.3155

          k = 0.1667 0.1667 0.0000 ( 31651 PWs)   bands (ev):

   -66.4183 -66.4178 -66.4172 -66.4168 -30.7827 -30.7790 -30.7541 -30.7502
   -30.7338 -30.7275 -30.7129 -30.7116 -30.6919 -30.6901 -30.6714 -30.6682
   -20.5805 -20.5805 -20.5804 -20.5804 -20.5635 -20.5635 -20.5623 -20.5622
   -20.5622 -20.5622 -20.5609 -20.5608 -20.5592 -20.5592 -20.5553 -20.5552
   -20.5551 -20.5551 -20.5529 -20.5528 -20.5504 -20.5493 -20.5490 -20.5481
   -20.5475 -20.5468 -20.5463 -20.5454 -10.0619  -9.6740  -9.4490  -9.1239
    -9.0117  -8.9679  -8.3795  -8.3500  -7.9980  -7.9407  -7.9186  -7.9158
     0.9771   1.0369   1.1513   1.1952   2.1007   2.1202   2.3199   2.5953
     2.6657   2.7476   3.6389   3.7408   4.0011   4.4066   4.6102   4.8053
     5.0847   5.2593   5.3525   5.6354   5.7326   5.8530   6.0246   6.1283
     6.2350   6.2869   6.3204   6.4870   6.5986   6.7491   6.9713   7.1705
     7.8180   7.8843   7.8916   8.0786   9.4824   9.9379   9.9617  10.5563
    12.1409  12.3605  12.5575  13.1262  13.1413  13.1469  13.4466  13.6924
    14.0110  14.7952  14.9324  15.1730  15.2281  17.1195

          k = 0.1667 0.1667 0.1141 ( 31653 PWs)   bands (ev):

   -66.4182 -66.4178 -66.4172 -66.4168 -30.7782 -30.7745 -30.7539 -30.7505
   -30.7341 -30.7276 -30.7171 -30.7157 -30.6921 -30.6903 -30.6712 -30.6684
   -20.5805 -20.5805 -20.5804 -20.5804 -20.5635 -20.5635 -20.5623 -20.5622
   -20.5622 -20.5622 -20.5609 -20.5608 -20.5588 -20.5588 -20.5553 -20.5552
   -20.5551 -20.5551 -20.5533 -20.5533 -20.5503 -20.5492 -20.5491 -20.5482
   -20.5475 -20.5467 -20.5464 -20.5455 -10.0205  -9.6877  -9.3695  -9.1018
    -9.0140  -8.9477  -8.3958  -8.3473  -8.0990  -8.0301  -7.9390  -7.9175
     1.0199   1.0368   1.3448   1.4595   2.0989   2.1357   2.3897   2.6315
     2.7028   2.7415   3.5697   3.6957   3.9220   4.4217   4.5497   4.6668
     4.8436   5.2387   5.2667   5.4668   5.5574   5.8244   6.1549   6.2148
     6.2342   6.2975   6.4460   6.4933   6.6022   6.8046   6.8590   7.1672
     7.7859   7.8741   7.8748   7.9981   9.7069   9.9398   9.9667  10.6672
    12.0546  12.3344  12.4081  13.1004  13.1542  13.1725  13.3558  13.9158
    13.9469  14.7839  15.1127  15.2227  15.6418  16.6791

          k = 0.1667 0.1667 0.2283 ( 31671 PWs)   bands (ev):

   -66.4181 -66.4179 -66.4171 -66.4169 -30.7661 -30.7623 -30.7532 -30.7512
   -30.7371 -30.7290 -30.7280 -30.7246 -30.6920 -30.6908 -30.6706 -30.6690
   -20.5805 -20.5805 -20.5804 -20.5804 -20.5635 -20.5635 -20.5622 -20.5622
   -20.5622 -20.5622 -20.5609 -20.5608 -20.5577 -20.5577 -20.5552 -20.5552
   -20.5551 -20.5551 -20.5545 -20.5545 -20.5500 -20.5493 -20.5490 -20.5484
   -20.5473 -20.5467 -20.5464 -20.5458  -9.9193  -9.7313  -9.1449  -9.0596
    -9.0212  -8.8527  -8.5111  -8.3386  -8.3379  -8.2497  -7.9345  -7.9221
     1.0326   1.0364   1.9550   2.0292   2.0915   2.3399   2.5902   2.6641
     2.7299   2.8891   3.3394   3.3589   3.8750   4.0704   4.3724   4.4783
     4.7012   4.8324   5.0414   5.1437   5.3158   5.6814   6.2422   6.2853
     6.2954   6.4580   6.5839   6.6091   6.8032   6.8255   6.9879   7.1477
     7.6103   7.7052   7.8767   7.9001   9.9438   9.9446  10.2952  10.9936
    11.6278  12.0052  12.4519  12.9641  13.1619  13.1939  13.2912  13.6937
    14.3794  14.7429  15.3336  15.7771  16.1360  16.6539

          k = 0.1667 0.1667-0.3424 ( 31674 PWs)   bands (ev):

   -66.4180 -66.4180 -66.4170 -66.4170 -30.7522 -30.7522 -30.7499 -30.7499
   -30.7456 -30.7456 -30.7281 -30.7281 -30.6915 -30.6915 -30.6698 -30.6698
   -20.5805 -20.5804 -20.5804 -20.5804 -20.5635 -20.5635 -20.5622 -20.5622
   -20.5622 -20.5622 -20.5609 -20.5609 -20.5561 -20.5561 -20.5561 -20.5561
   -20.5552 -20.5552 -20.5551 -20.5551 -20.5497 -20.5497 -20.5487 -20.5487
   -20.5470 -20.5470 -20.5461 -20.5461  -9.8104  -9.8104  -9.0345  -9.0345
    -8.8213  -8.8213  -8.6345  -8.6345  -8.3194  -8.3194  -7.9283  -7.9283
     1.0354   1.0354   2.0723   2.0723   2.6864   2.6864   2.9248   2.9248
     2.9356   2.9356   3.0382   3.0382   3.4077   3.4077   4.3489   4.3489
     4.6402   4.6402   5.0261   5.0261   5.4279   5.4279   6.2881   6.2881
     6.3914   6.3914   6.5704   6.5704   7.0716   7.0716   7.2912   7.2912
     7.2987   7.2988   7.8864   7.8864   9.9470   9.9470  10.9843  10.9843
    11.4808  11.4808  12.6881  12.6881  13.1701  13.1701  13.4570  13.4570
    14.6367  14.6367  15.6544  15.6544  16.6242  16.6242

          k = 0.1667 0.3333 0.0000 ( 31637 PWs)   bands (ev):

   -66.4180 -66.4176 -66.4175 -66.4170 -30.7823 -30.7802 -30.7500 -30.7454
   -30.7207 -30.7189 -30.7106 -30.7068 -30.7061 -30.7047 -30.6757 -30.6728
   -20.5805 -20.5805 -20.5804 -20.5804 -20.5637 -20.5637 -20.5629 -20.5629
   -20.5616 -20.5615 -20.5607 -20.5607 -20.5592 -20.5591 -20.5553 -20.5552
   -20.5552 -20.5552 -20.5530 -20.5529 -20.5501 -20.5488 -20.5484 -20.5484
   -20.5472 -20.5472 -20.5469 -20.5457  -9.9054  -9.5319  -9.4932  -9.0707
    -8.7941  -8.7360  -8.7139  -8.6923  -8.0734  -8.0629  -7.9733  -7.9340
     1.0699   1.1663   1.3039   1.3534   2.3805   2.6502   2.7207   2.8957
     2.9847   3.1995   3.2445   3.6525   3.7180   3.9465   4.3408   4.7525
     4.8063   4.8876   5.0765   5.5689   5.5813   5.5983   5.6807   5.8065
     6.0846   6.0916   6.3371   6.5030   6.6631   6.7679   6.8196   7.4727
     7.5009   7.5637   7.5770   8.0286   9.8327  10.8777  10.9050  11.4336
    11.4469  12.3545  12.6206  12.6337  12.8495  12.9723  13.0170  13.8427
    13.9860  14.9661  15.4827  15.5143  16.2663  17.4022

          k = 0.1667 0.3333 0.1141 ( 31640 PWs)   bands (ev):

   -66.4180 -66.4176 -66.4174 -66.4170 -30.7779 -30.7757 -30.7498 -30.7456
   -30.7228 -30.7217 -30.7108 -30.7084 -30.7070 -30.7063 -30.6755 -30.6730
   -20.5805 -20.5805 -20.5804 -20.5804 -20.5637 -20.5637 -20.5629 -20.5629
   -20.5615 -20.5615 -20.5607 -20.5607 -20.5588 -20.5588 -20.5553 -20.5552
   -20.5552 -20.5552 -20.5534 -20.5533 -20.5500 -20.5489 -20.5483 -20.5483
   -20.5473 -20.5473 -20.5469 -20.5458  -9.8583  -9.5057  -9.4579  -9.0397
    -8.8060  -8.7402  -8.7084  -8.6844  -8.1073  -8.0717  -8.0565  -8.0243
     1.2351   1.3036   1.3827   1.4795   2.4523   2.6780   2.7575   2.8846
     2.9765   3.1977   3.2420   3.6568   3.7655   3.8225   4.3991   4.5116
     4.7616   4.7816   4.8386   5.2779   5.5222   5.5353   5.5723   5.7821
     6.2271   6.3316   6.4008   6.5283   6.6737   6.7511   6.8567   7.4664
     7.4924   7.5405   7.5467   7.9497  10.0120  10.8784  10.9053  11.4998
    11.5207  12.1939  12.6152  12.6206  12.8012  12.8562  12.9687  13.7433
    14.2747  15.3559  15.4587  15.6640  16.3222  17.1930

          k = 0.1667 0.3333 0.2283 ( 31629 PWs)   bands (ev):

   -66.4179 -66.4177 -66.4173 -66.4171 -30.7659 -30.7636 -30.7494 -30.7461
   -30.7318 -30.7317 -30.7113 -30.7112 -30.7079 -30.7075 -30.6750 -30.6735
   -20.5805 -20.5805 -20.5804 -20.5804 -20.5637 -20.5637 -20.5629 -20.5629
   -20.5615 -20.5615 -20.5607 -20.5607 -20.5577 -20.5577 -20.5552 -20.5552
   -20.5552 -20.5552 -20.5545 -20.5545 -20.5498 -20.5491 -20.5481 -20.5481
   -20.5475 -20.5475 -20.5466 -20.5460  -9.7440  -9.5467  -9.2559  -8.9402
    -8.8560  -8.7562  -8.6842  -8.6533  -8.3443  -8.3139  -8.0668  -8.0513
     1.2924   1.3024   2.0263   2.1365   2.6618   2.7567   2.8335   2.8731
     2.9436   3.1810   3.2367   3.3853   3.8729   3.8969   3.9258   4.1594
     4.5583   4.6408   4.7535   4.8139   4.8355   5.3526   5.5757   5.6291
     6.4907   6.5882   6.6512   6.6806   6.7649   6.8458   7.0103   7.3896
     7.4264   7.4728   7.5205   7.7291  10.4817  10.8795  10.9106  11.6612
    11.7280  11.8097  12.4363  12.4825  12.6374  12.6872  13.0530  13.5051
    14.8099  15.3730  16.0682  16.2896  16.5947  16.8084

          k = 0.1667 0.3333-0.3424 ( 31640 PWs)   bands (ev):

   -66.4178 -66.4178 -66.4172 -66.4172 -30.7518 -30.7518 -30.7473 -30.7473
   -30.7445 -30.7445 -30.7117 -30.7116 -30.7080 -30.7080 -30.6743 -30.6743
   -20.5804 -20.5804 -20.5804 -20.5804 -20.5637 -20.5637 -20.5629 -20.5629
   -20.5615 -20.5615 -20.5607 -20.5607 -20.5561 -20.5561 -20.5561 -20.5561
   -20.5552 -20.5552 -20.5552 -20.5552 -20.5494 -20.5494 -20.5478 -20.5478
   -20.5478 -20.5478 -20.5463 -20.5463  -9.6261  -9.6260  -9.0069  -9.0066
    -8.8102  -8.8094  -8.5844  -8.5821  -8.5588  -8.5567  -8.0599  -8.0598
     1.2996   1.3000   2.7337   2.7360   2.8053   2.8081   2.9235   2.9399
     3.0579   3.0762   3.2197   3.2233   3.3011   3.3092   4.1589   4.1633
     4.2320   4.2327   4.6712   4.7379   4.9788   5.0418   5.5844   5.5883
     6.5877   6.6172   6.6487   6.6780   7.1717   7.1742   7.1875   7.2253
     7.2568   7.2796   7.5478   7.5567  10.8605  10.8742  11.1328  11.1569
    12.0371  12.0549  12.0944  12.0987  12.6277  12.6702  13.2327  13.2607
    15.1753  15.1865  16.4336  16.4424  17.2199  17.2585

          k = 0.1667-0.5000 0.0000 ( 31646 PWs)   bands (ev):

   -66.4177 -66.4177 -66.4173 -66.4173 -30.7815 -30.7815 -30.7370 -30.7370
   -30.7308 -30.7308 -30.7123 -30.7123 -30.6890 -30.6890 -30.6869 -30.6869
   -20.5805 -20.5805 -20.5804 -20.5804 -20.5635 -20.5635 -20.5634 -20.5634
   -20.5610 -20.5610 -20.5609 -20.5609 -20.5591 -20.5591 -20.5552 -20.5552
   -20.5552 -20.5552 -20.5530 -20.5530 -20.5493 -20.5493 -20.5481 -20.5481
   -20.5475 -20.5475 -20.5463 -20.5463  -9.6982  -9.6982  -9.1892  -9.1892
    -8.9442  -8.9442  -8.3779  -8.3779  -8.3748  -8.3748  -7.9551  -7.9551
     1.1265   1.1265   1.9923   1.9923   1.9991   1.9991   2.5862   2.5862
     3.6129   3.6129   3.8423   3.8423   3.9908   3.9908   4.1130   4.1130
     4.5816   4.5816   4.9493   4.9493   5.3691   5.3691   5.7061   5.7061
     6.1529   6.1529   6.3657   6.3657   7.0403   7.0403   7.0464   7.0464
     7.1296   7.1297   7.8678   7.8678  10.5803  10.5803  11.8170  11.8170
    11.8494  11.8494  12.2890  12.2890  12.5842  12.5842  13.4418  13.4418
    14.5194  14.5194  16.4044  16.4044  16.6851  16.6851

          k = 0.1667-0.5000 0.1141 ( 31638 PWs)   bands (ev):

   -66.4177 -66.4177 -66.4173 -66.4173 -30.7771 -30.7771 -30.7371 -30.7371
   -30.7310 -30.7310 -30.7162 -30.7162 -30.6890 -30.6890 -30.6871 -30.6871
   -20.5805 -20.5805 -20.5804 -20.5804 -20.5635 -20.5635 -20.5634 -20.5634
   -20.5610 -20.5610 -20.5609 -20.5609 -20.5587 -20.5587 -20.5552 -20.5552
   -20.5552 -20.5552 -20.5534 -20.5534 -20.5493 -20.5493 -20.5482 -20.5482
   -20.5475 -20.5475 -20.5464 -20.5464  -9.6382  -9.6382  -9.2008  -9.2008
    -8.9227  -8.9227  -8.3842  -8.3841  -8.3736  -8.3736  -8.0593  -8.0592
     1.3731   1.3731   1.9923   1.9923   2.0060   2.0060   2.6572   2.6572
     3.5608   3.5608   3.8769   3.8769   4.0114   4.0114   4.0715   4.0715
     4.5894   4.5894   4.7379   4.7379   5.0627   5.0627   5.6589   5.6589
     6.2155   6.2155   6.5504   6.5504   7.0300   7.0300   7.0504   7.0504
     7.1329   7.1329   7.8072   7.8072  10.6932  10.6932  11.8148  11.8148
    11.8484  11.8484  12.3354  12.3354  12.4369  12.4369  13.3267  13.3267
    14.8711  14.8711  16.4828  16.4828  16.6544  16.6544

          k = 0.1667-0.5000 0.2283 ( 31658 PWs)   bands (ev):

   -66.4176 -66.4176 -66.4174 -66.4174 -30.7651 -30.7651 -30.7389 -30.7389
   -30.7313 -30.7313 -30.7258 -30.7258 -30.6888 -30.6888 -30.6876 -30.6876
   -20.5805 -20.5805 -20.5804 -20.5804 -20.5635 -20.5635 -20.5635 -20.5635
   -20.5609 -20.5609 -20.5609 -20.5609 -20.5577 -20.5577 -20.5552 -20.5552
   -20.5552 -20.5552 -20.5546 -20.5546 -20.5491 -20.5491 -20.5484 -20.5484
   -20.5473 -20.5473 -20.5466 -20.5466  -9.4880  -9.4880  -9.2419  -9.2419
    -8.8421  -8.8421  -8.4408  -8.4408  -8.3664  -8.3664  -8.2758  -8.2758
     1.8985   1.8985   1.9869   1.9869   2.1663   2.1663   2.8699   2.8699
     3.3519   3.3519   3.9074   3.9074   3.9497   3.9497   4.1572   4.1572
     4.2155   4.2156   4.6202   4.6202   4.7063   4.7063   5.1090   5.1090
     6.6406   6.6406   6.8199   6.8199   6.9971   6.9971   7.0521   7.0521
     7.1634   7.1634   7.6236   7.6236  11.0173  11.0173  11.7970  11.7970
    11.8417  11.8417  12.0664  12.0664  12.4802  12.4802  13.0450  13.0450
    15.6199  15.6199  16.4857  16.4857  16.7894  16.7894

          k = 0.1667-0.5000-0.3424 ( 31640 PWs)   bands (ev):

   -66.4175 -66.4175 -66.4175 -66.4175 -30.7496 -30.7496 -30.7496 -30.7495
   -30.7311 -30.7310 -30.7310 -30.7310 -30.6883 -30.6883 -30.6883 -30.6883
   -20.5804 -20.5804 -20.5804 -20.5804 -20.5635 -20.5635 -20.5635 -20.5635
   -20.5609 -20.5609 -20.5609 -20.5609 -20.5561 -20.5561 -20.5561 -20.5561
   -20.5552 -20.5552 -20.5552 -20.5552 -20.5488 -20.5488 -20.5488 -20.5487
   -20.5470 -20.5470 -20.5470 -20.5469  -9.3338  -9.3338  -9.3336  -9.3336
    -8.6622  -8.6622  -8.6617  -8.6617  -8.3506  -8.3506  -8.3502  -8.3502
     1.9739   1.9739   1.9745   1.9745   2.9148   2.9148   2.9171   2.9171
     3.2970   3.2970   3.3092   3.3092   3.9243   3.9243   3.9638   3.9638
     4.4610   4.4610   4.4809   4.4809   4.7221   4.7221   4.7243   4.7243
     6.8974   6.8974   6.9075   6.9075   6.9924   6.9924   7.0231   7.0231
     7.3361   7.3361   7.3520   7.3520  11.4677  11.4677  11.5000  11.5000
    11.8312  11.8312  11.8900  11.8900  12.7165  12.7165  12.7404  12.7404
    16.1861  16.1861  16.2137  16.2137  17.1343  17.1344

          k = 0.3333 0.3333 0.0000 ( 31624 PWs)   bands (ev):

   -66.4179 -66.4176 -66.4174 -66.4171 -30.7812 -30.7805 -30.7565 -30.7526
   -30.7380 -30.7319 -30.7141 -30.7103 -30.6880 -30.6858 -30.6693 -30.6661
   -20.5805 -20.5805 -20.5804 -20.5804 -20.5643 -20.5643 -20.5639 -20.5639
   -20.5606 -20.5605 -20.5601 -20.5600 -20.5592 -20.5591 -20.5552 -20.5552
   -20.5551 -20.5551 -20.5529 -20.5529 -20.5504 -20.5494 -20.5490 -20.5481
   -20.5475 -20.5468 -20.5463 -20.5454  -9.8818  -9.6415  -9.5157  -9.1467
    -9.0945  -8.9350  -8.3924  -8.3905  -7.9738  -7.9707  -7.9444  -7.9425
     0.9929   1.0439   1.1577   1.1967   1.9888   1.9925   2.2843   2.5870
     3.5571   3.6520   3.8495   3.8979   3.9827   4.5341   4.6261   4.7696
     4.8243   4.9630   5.1972   5.4998   5.5116   5.5527   5.7986   5.8572
     6.1315   6.1824   6.2257   6.2618   6.4802   6.6350   6.9308   6.9817
     6.9870   7.1068   7.8597   8.0742   9.5415  10.5882  11.5557  11.5834
    12.2683  12.2781  12.4880  12.4976  12.6110  13.0970  13.4477  13.7875
    14.0123  14.5692  15.2117  15.9711  16.7520  16.8881

          k = 0.3333 0.3333 0.1141 ( 31639 PWs)   bands (ev):

   -66.4179 -66.4175 -66.4175 -66.4171 -30.7767 -30.7761 -30.7562 -30.7528
   -30.7381 -30.7321 -30.7185 -30.7146 -30.6880 -30.6860 -30.6690 -30.6664
   -20.5805 -20.5805 -20.5804 -20.5804 -20.5643 -20.5643 -20.5639 -20.5639
   -20.5606 -20.5605 -20.5601 -20.5600 -20.5588 -20.5587 -20.5552 -20.5552
   -20.5552 -20.5551 -20.5533 -20.5533 -20.5503 -20.5493 -20.5490 -20.5482
   -20.5475 -20.5467 -20.5464 -20.5455  -9.8374  -9.5802  -9.5262  -9.1568
    -9.0575  -8.9141  -8.4004  -8.3880  -8.0809  -8.0518  -7.9690  -7.9461
     1.0266   1.0439   1.3779   1.4494   1.9868   2.0016   2.3569   2.6608
     3.5521   3.6471   3.7400   3.7900   3.9643   4.5373   4.6700   4.7215
     4.7812   4.7987   4.9144   5.1428   5.6625   5.6945   5.7958   5.8569
     5.8969   6.2162   6.2898   6.4477   6.4700   6.6952   6.8666   6.9708
     6.9788   7.1042   7.7980   7.9873   9.7671  10.7046  11.5560  11.5822
    12.1140  12.3127  12.4020  12.5021  12.5455  13.1250  13.3359  13.9153
    14.0420  14.9108  15.1825  16.1264  16.7095  16.9721

          k = 0.3333 0.3333 0.2283 ( 31655 PWs)   bands (ev):

   -66.4178 -66.4176 -66.4175 -66.4172 -30.7644 -30.7642 -30.7555 -30.7536
   -30.7394 -30.7324 -30.7307 -30.7251 -30.6878 -30.6866 -30.6685 -30.6669
   -20.5805 -20.5805 -20.5804 -20.5804 -20.5643 -20.5643 -20.5639 -20.5639
   -20.5605 -20.5605 -20.5600 -20.5600 -20.5577 -20.5577 -20.5552 -20.5552
   -20.5552 -20.5552 -20.5545 -20.5545 -20.5501 -20.5494 -20.5490 -20.5484
   -20.5473 -20.5467 -20.5464 -20.5458  -9.7325  -9.5610  -9.4279  -9.1930
    -8.9320  -8.8327  -8.4605  -8.3802  -8.3439  -8.2824  -7.9642  -7.9510
     1.0396   1.0436   1.8901   1.9807   2.1583   2.1659   2.5696   2.8836
     3.3225   3.4273   3.6088   3.6342   4.1417   4.1578   4.2060   4.5670
     4.6529   4.7445   4.7583   4.9246   5.1220   5.5189   5.8684   5.8806
     6.0760   6.2036   6.3703   6.6515   6.6541   6.8472   6.8871   6.9578
     7.0454   7.1092   7.6075   7.7338  10.3244  11.0342  11.5410  11.5788
    11.6791  12.0264  12.4552  12.5100  12.5218  13.0222  13.2575  13.6844
    14.5230  15.0839  15.6494  16.5353  16.5667  17.3406

          k = 0.3333 0.3333-0.3424 ( 31634 PWs)   bands (ev):

   -66.4177 -66.4177 -66.4173 -66.4173 -30.7545 -30.7545 -30.7487 -30.7487
   -30.7475 -30.7475 -30.7318 -30.7318 -30.6872 -30.6872 -30.6677 -30.6677
   -20.5804 -20.5804 -20.5804 -20.5804 -20.5643 -20.5643 -20.5639 -20.5639
   -20.5605 -20.5605 -20.5600 -20.5600 -20.5561 -20.5561 -20.5561 -20.5561
   -20.5552 -20.5552 -20.5552 -20.5551 -20.5497 -20.5497 -20.5488 -20.5488
   -20.5470 -20.5470 -20.5461 -20.5461  -9.6287  -9.6287  -9.2770  -9.2770
    -8.7024  -8.7024  -8.6390  -8.6390  -8.3630  -8.3630  -7.9576  -7.9576
     1.0427   1.0427   1.9675   1.9675   2.9056   2.9056   2.9275   2.9275
     3.1430   3.1430   3.3388   3.3388   3.6177   3.6177   4.4309   4.4309
     4.6682   4.6682   4.7828   4.7828   5.2009   5.2009   5.8779   5.8779
     6.1655   6.1655   6.4951   6.4951   6.8804   6.8805   7.0022   7.0022
     7.2868   7.2868   7.3655   7.3655  11.0046  11.0046  11.5186  11.5186
    11.5768  11.5768  12.5137  12.5137  12.7078  12.7078  13.4369  13.4369
    14.8820  14.8820  16.2558  16.2558  16.9654  16.9654

          k = 0.3333-0.5000 0.0000 ( 31636 PWs)   bands (ev):

   -66.4177 -66.4177 -66.4173 -66.4173 -30.7808 -30.7808 -30.7521 -30.7521
   -30.7474 -30.7474 -30.7122 -30.7122 -30.6739 -30.6739 -30.6709 -30.6709
   -20.5805 -20.5805 -20.5804 -20.5804 -20.5644 -20.5644 -20.5644 -20.5644
   -20.5600 -20.5600 -20.5599 -20.5599 -20.5592 -20.5592 -20.5552 -20.5552
   -20.5551 -20.5551 -20.5528 -20.5528 -20.5501 -20.5501 -20.5487 -20.5487
   -20.5470 -20.5470 -20.5457 -20.5457  -9.7849  -9.7849  -9.4009  -9.4009
    -9.0558  -9.0558  -8.0986  -8.0986  -8.0838  -8.0838  -7.9544  -7.9544
     1.1077   1.1077   1.2991   1.2991   1.3602   1.3602   2.3604   2.3604
     3.9872   3.9872   4.2337   4.2337   4.2727   4.2727   4.4089   4.4089
     5.2992   5.2992   5.4287   5.4287   5.4836   5.4836   5.5615   5.5615
     6.3467   6.3467   6.3894   6.3894   6.4430   6.4430   6.5822   6.5822
     6.8526   6.8526   8.0215   8.0215   9.8701   9.8701  12.1447  12.1447
    12.1650  12.1650  12.3546  12.3546  12.8751  12.8751  13.8451  13.8451
    14.0512  14.0512  15.6984  15.6984  16.6599  16.6599

          k = 0.3333-0.5000 0.1141 ( 31648 PWs)   bands (ev):

   -66.4177 -66.4177 -66.4173 -66.4173 -30.7763 -30.7763 -30.7518 -30.7518
   -30.7476 -30.7476 -30.7167 -30.7167 -30.6737 -30.6737 -30.6711 -30.6711
   -20.5805 -20.5805 -20.5804 -20.5804 -20.5644 -20.5644 -20.5644 -20.5644
   -20.5600 -20.5600 -20.5599 -20.5599 -20.5588 -20.5588 -20.5552 -20.5552
   -20.5551 -20.5551 -20.5533 -20.5533 -20.5500 -20.5500 -20.5488 -20.5488
   -20.5469 -20.5469 -20.5457 -20.5457  -9.7363  -9.7363  -9.4108  -9.4108
    -9.0223  -9.0223  -8.1123  -8.1123  -8.0965  -8.0965  -8.0398  -8.0398
     1.2400   1.2400   1.2988   1.2988   1.4861   1.4861   2.4349   2.4349
     3.8026   3.8026   4.2267   4.2267   4.2553   4.2553   4.4608   4.4608
     5.0064   5.0064   5.3837   5.3837   5.4337   5.4337   5.7428   5.7428
     6.1491   6.1491   6.4347   6.4347   6.5605   6.5605   6.6192   6.6192
     6.8160   6.8160   7.9404   7.9404  10.0506  10.0506  12.1358  12.1358
    12.1574  12.1574  12.2108  12.2108  12.9102  12.9102  13.7421  13.7421
    14.3338  14.3338  15.6653  15.6653  16.7980  16.7980

          k = 0.3333-0.5000 0.2283 ( 31658 PWs)   bands (ev):

   -66.4176 -66.4176 -66.4174 -66.4174 -30.7644 -30.7644 -30.7514 -30.7514
   -30.7479 -30.7479 -30.7289 -30.7289 -30.6732 -30.6732 -30.6717 -30.6717
   -20.5805 -20.5805 -20.5804 -20.5804 -20.5644 -20.5644 -20.5644 -20.5644
   -20.5600 -20.5600 -20.5599 -20.5599 -20.5577 -20.5577 -20.5552 -20.5552
   -20.5551 -20.5551 -20.5545 -20.5545 -20.5498 -20.5498 -20.5491 -20.5491
   -20.5466 -20.5466 -20.5460 -20.5460  -9.6218  -9.6218  -9.4440  -9.4440
    -8.9036  -8.9036  -8.3587  -8.3587  -8.0915  -8.0915  -8.0750  -8.0750
     1.2880   1.2880   1.2978   1.2978   2.1369   2.1369   2.6600   2.6600
     3.3797   3.3797   4.1967   4.1967   4.2291   4.2291   4.2601   4.2601
     4.6406   4.6406   5.2378   5.2378   5.4470   5.4470   5.5898   5.5898
     6.2576   6.2576   6.4150   6.4150   6.6380   6.6380   6.7561   6.7561
     6.9012   6.9012   7.6992   7.6992  10.5258  10.5258  11.7467  11.7467
    12.1528  12.1528  12.1672  12.1672  13.0239  13.0239  13.4946  13.4946
    14.8919  14.8919  15.5537  15.5537  17.1741  17.1741

          k = 0.3333-0.5000-0.3424 ( 31668 PWs)   bands (ev):

   -66.4175 -66.4175 -66.4175 -66.4175 -30.7522 -30.7522 -30.7522 -30.7522
   -30.7442 -30.7442 -30.7442 -30.7441 -30.6725 -30.6725 -30.6725 -30.6725
   -20.5804 -20.5804 -20.5804 -20.5804 -20.5644 -20.5644 -20.5644 -20.5644
   -20.5600 -20.5600 -20.5599 -20.5599 -20.5561 -20.5561 -20.5561 -20.5561
   -20.5552 -20.5552 -20.5551 -20.5551 -20.5495 -20.5495 -20.5494 -20.5494
   -20.5463 -20.5463 -20.5463 -20.5463  -9.5118  -9.5118  -9.5118  -9.5117
    -8.6699  -8.6699  -8.6698  -8.6698  -8.0842  -8.0842  -8.0841  -8.0841
     1.2953   1.2953   1.2955   1.2955   2.9155   2.9155   2.9175   2.9175
     3.2024   3.2024   3.2042   3.2042   4.2311   4.2311   4.2473   4.2473
     4.9231   4.9231   4.9385   4.9385   5.4763   5.4763   5.4833   5.4833
     6.3650   6.3650   6.3707   6.3707   6.7013   6.7013   6.7048   6.7048
     7.3188   7.3188   7.3228   7.3228  11.1443  11.1443  11.1466  11.1466
    12.1542  12.1542  12.1648  12.1648  13.2226  13.2226  13.2300  13.2300
    15.3167  15.3167  15.3228  15.3228  17.5115  17.5182

          k =-0.5000-0.5000 0.0000 ( 31560 PWs)   bands (ev):

   -66.4177 -66.4177 -66.4173 -66.4173 -30.7802 -30.7802 -30.7577 -30.7577
   -30.7538 -30.7538 -30.7122 -30.7122 -30.6682 -30.6682 -30.6651 -30.6651
   -20.5805 -20.5805 -20.5804 -20.5804 -20.5647 -20.5647 -20.5647 -20.5647
   -20.5597 -20.5597 -20.5595 -20.5595 -20.5593 -20.5593 -20.5552 -20.5552
   -20.5551 -20.5551 -20.5527 -20.5527 -20.5504 -20.5504 -20.5490 -20.5490
   -20.5467 -20.5467 -20.5454 -20.5454  -9.8266  -9.8266  -9.4780  -9.4780
    -9.0860  -9.0860  -7.9857  -7.9857  -7.9606  -7.9606  -7.9584  -7.9584
     1.0024   1.0024   1.0400   1.0400   1.2170   1.2170   2.2714   2.2714
     4.0766   4.0766   4.4508   4.4508   4.5070   4.5070   4.6188   4.6188
     5.3319   5.3319   5.3383   5.3383   5.7459   5.7459   5.7913   5.7913
     6.0933   6.0933   6.2023   6.2023   6.2910   6.2910   6.4837   6.4837
     6.9770   6.9770   8.0708   8.0708   9.5641   9.5641  12.2769  12.2769
    12.2775  12.2775  12.3027  12.3027  13.0998  13.0998  13.8074  13.8074
    14.0137  14.0137  15.2916  15.2916  16.7955  16.7955

          k =-0.5000-0.5000 0.1141 ( 31628 PWs)   bands (ev):

   -66.4177 -66.4177 -66.4173 -66.4173 -30.7757 -30.7757 -30.7574 -30.7574
   -30.7540 -30.7540 -30.7168 -30.7168 -30.6680 -30.6680 -30.6653 -30.6653
   -20.5805 -20.5805 -20.5804 -20.5804 -20.5647 -20.5647 -20.5647 -20.5647
   -20.5597 -20.5597 -20.5595 -20.5595 -20.5589 -20.5589 -20.5552 -20.5552
   -20.5551 -20.5551 -20.5532 -20.5532 -20.5503 -20.5503 -20.5491 -20.5491
   -20.5467 -20.5467 -20.5455 -20.5455  -9.7824  -9.7824  -9.4875  -9.4875
    -9.0480  -9.0480  -8.0728  -8.0728  -7.9839  -7.9839  -7.9602  -7.9602
     1.0258   1.0258   1.0400   1.0400   1.4541   1.4541   2.3451   2.3451
     3.8220   3.8220   4.4546   4.4546   4.5028   4.5028   4.6833   4.6833
     5.0304   5.0304   5.4868   5.4868   5.7395   5.7395   5.7938   5.7938
     6.0741   6.0741   6.1326   6.1326   6.3182   6.3182   6.5673   6.5673
     6.8661   6.8661   7.9830   7.9830   9.7889   9.7889  12.1125  12.1125
    12.2817  12.2817  12.3017  12.3017  13.1324  13.1324  13.9149  13.9149
    14.0622  14.0622  15.2608  15.2608  16.9858  16.9858

          k =-0.5000-0.5000 0.2283 ( 31696 PWs)   bands (ev):

   -66.4176 -66.4176 -66.4174 -66.4174 -30.7633 -30.7633 -30.7567 -30.7567
   -30.7547 -30.7547 -30.7293 -30.7293 -30.6674 -30.6674 -30.6659 -30.6659
   -20.5805 -20.5805 -20.5804 -20.5804 -20.5647 -20.5647 -20.5647 -20.5647
   -20.5596 -20.5596 -20.5596 -20.5596 -20.5577 -20.5577 -20.5551 -20.5551
   -20.5551 -20.5551 -20.5544 -20.5544 -20.5501 -20.5501 -20.5494 -20.5494
   -20.5464 -20.5464 -20.5458 -20.5458  -9.6795  -9.6795  -9.5190  -9.5190
    -8.9172  -8.9172  -8.3516  -8.3516  -7.9789  -7.9789  -7.9653  -7.9653
     1.0364   1.0364   1.0399   1.0399   2.1561   2.1561   2.5620   2.5620
     3.3530   3.3530   4.2066   4.2066   4.4649   4.4649   4.4949   4.4949
     4.8687   4.8687   5.4352   5.4352   5.7956   5.7956   5.8027   5.8027
     6.0144   6.0144   6.0821   6.0821   6.3963   6.3963   6.6767   6.6767
     6.8784   6.8784   7.7244   7.7244  10.3439  10.3439  11.6601  11.6601
    12.2886  12.2886  12.2988  12.2988  13.2376  13.2376  13.6791  13.6791
    14.5589  14.5589  15.1570  15.1570  17.5858  17.5858

          k =-0.5000-0.5000-0.3424 ( 31680 PWs)   bands (ev):

   -66.4175 -66.4175 -66.4175 -66.4175 -30.7557 -30.7557 -30.7557 -30.7557
   -30.7464 -30.7464 -30.7463 -30.7463 -30.6667 -30.6667 -30.6666 -30.6666
   -20.5804 -20.5804 -20.5804 -20.5804 -20.5647 -20.5647 -20.5647 -20.5647
   -20.5596 -20.5596 -20.5596 -20.5596 -20.5561 -20.5561 -20.5561 -20.5561
   -20.5551 -20.5551 -20.5551 -20.5551 -20.5497 -20.5497 -20.5497 -20.5497
   -20.5461 -20.5461 -20.5461 -20.5461  -9.5812  -9.5812  -9.5811  -9.5811
    -8.6711  -8.6710  -8.6710  -8.6710  -7.9721  -7.9721  -7.9721  -7.9721
     1.0391   1.0391   1.0391   1.0391   2.9082   2.9082   2.9082   2.9082
     3.1509   3.1509   3.1509   3.1509   4.4793   4.4793   4.4793   4.4793
     5.1465   5.1465   5.1466   5.1466   5.8099   5.8099   5.8099   5.8099
     6.0446   6.0446   6.0446   6.0446   6.5175   6.5175   6.5175   6.5175
     7.3250   7.3250   7.3250   7.3250  11.0242  11.0242  11.0242  11.0242
    12.2944  12.2944  12.2944  12.2944  13.4262  13.4262  13.4262  13.4262
    14.9422  14.9422  14.9422  14.9422  17.8154  17.8154

     the Fermi energy is     8.7779 ev

!    total energy              =   -3130.47987283 Ry
     Harris-Foulkes estimate   =   -3130.47987283 Ry
     estimated scf accuracy    <          1.3E-09 Ry

     The total energy is the sum of the following terms:

     one-electron contribution =   -2396.90872841 Ry
     hartree contribution      =    1315.31345622 Ry
     xc contribution           =    -482.93894557 Ry
     ewald contribution        =   -1565.94563515 Ry
     smearing contrib. (-TS)   =      -0.00001992 Ry

     convergence has been achieved in  12 iterations

     Writing output data file Landau_20.save/
 
     init_run     :      5.26s CPU      5.56s WALL (       1 calls)
     electrons    :    150.73s CPU    153.01s WALL (       1 calls)

     Called by init_run:
     wfcinit      :      3.95s CPU      4.15s WALL (       1 calls)
     potinit      :      0.67s CPU      0.70s WALL (       1 calls)
     hinit0       :      0.48s CPU      0.52s WALL (       1 calls)

     Called by electrons:
     c_bands      :    126.20s CPU    128.17s WALL (      12 calls)
     sum_band     :     21.40s CPU     21.50s WALL (      12 calls)
     v_of_rho     :      0.93s CPU      0.96s WALL (      13 calls)
     mix_rho      :      1.45s CPU      1.57s WALL (      12 calls)

     Called by c_bands:
     init_us_2    :      1.40s CPU      1.51s WALL (      25 calls)
     cegterg      :    107.20s CPU    109.15s WALL (      12 calls)

     Called by sum_band:

     Called by *egterg:
     h_psi        :     92.68s CPU     93.61s WALL (      45 calls)
     g_psi        :      0.44s CPU      0.44s WALL (      32 calls)
     cdiaghg      :      0.93s CPU      0.96s WALL (      44 calls)

     Called by h_psi:
     h_psi:pot    :     92.38s CPU     92.65s WALL (      45 calls)
     h_psi:calbec :      6.57s CPU      6.70s WALL (      45 calls)
     vloc_psi     :     78.35s CPU     78.47s WALL (      45 calls)
     add_vuspsi   :      7.46s CPU      7.48s WALL (      45 calls)

     General routines
     calbec       :      6.57s CPU      6.70s WALL (      45 calls)
     fft          :      0.37s CPU      0.39s WALL (      39 calls)
     ffts         :      0.12s CPU      0.12s WALL (      12 calls)
     fftw         :     79.30s CPU     79.36s WALL (    7802 calls)
 
     Parallel routines
 
     PWSCF        :   2m37.01s CPU   2m40.16s WALL

 
   This run was terminated on:  22:22:56  19Nov2019            

=------------------------------------------------------------------------------=
   JOB DONE.
=------------------------------------------------------------------------------=
