
     Program PWSCF v.6.2 (svn rev. 14038) starts on  5Mar2020 at 17:45:46 

     This program is part of the open-source Quantum ESPRESSO suite
     for quantum simulation of materials; please cite
         "P. Giannozzi et al., J. Phys.:Condens. Matter 21 395502 (2009);
         "P. Giannozzi et al., J. Phys.:Condens. Matter 29 465901 (2017);
          URL http://www.quantum-espresso.org", 
     in publications or presentations arising from this work. More details at
     http://www.quantum-espresso.org/quote

     Parallel version (MPI), running on    64 processors

     MPI processes distributed on    14 nodes
     K-points division:     npool     =      64
     Reading input from rscf.in

     Current dimensions of program PWSCF are:
     Max number of different atomic species (ntypx) = 10
     Max number of k-points (npk) =  40000
     Max angular momentum in pseudopotentials (lmaxx) =  3

     Subspace diagonalization in iterative solution of the eigenvalue problem:
     a serial algorithm will be used

 
     G-vector sticks info
     --------------------
     sticks:   dense  smooth     PW     G-vecs:    dense   smooth      PW
     Sum        7747    7747   2077               498127   498127   69057
 


     bravais-lattice index     =            0
     lattice parameter (alat)  =      13.8397  a.u.
     unit-cell volume          =    2804.9816 (a.u.)^3
     number of atoms/cell      =           32
     number of atomic types    =            2
     number of electrons       =       368.00
     number of Kohn-Sham states=          221
     kinetic-energy cutoff     =     120.0000  Ry
     charge density cutoff     =     480.0000  Ry
     convergence threshold     =      1.0E-08
     mixing beta               =       0.7000
     number of iterations used =            8  plain     mixing
     Exchange-correlation      = SLA PW NOGX NOGC ( 1  4  0  0 0 0)
     nstep                     =           50


     celldm(1)=  13.839685  celldm(2)=   0.000000  celldm(3)=   0.000000
     celldm(4)=   0.000000  celldm(5)=   0.000000  celldm(6)=   0.000000

     crystal axes: (cart. coord. in units of alat)
               a(1) = (   1.000000   0.000000   0.000000 )  
               a(2) = (   0.000000   1.058160   0.000000 )  
               a(3) = (   0.000000   0.000000   1.000000 )  

     reciprocal axes: (cart. coord. in units 2 pi/alat)
               b(1) = (  1.000000  0.000000  0.000000 )  
               b(2) = (  0.000000  0.945037  0.000000 )  
               b(3) = (  0.000000  0.000000  1.000000 )  


     PseudoPot. # 1 for W  read from file:
     /cluster/scratch/mnoe/QE/pps/W_ONCV_LDA-4.0.upf
     MD5 check sum: ba0307d5d4cd419d6f1d13dc49d7c13a
     Pseudo is Norm-conserving + core correction, Zval = 28.0
     Generated using ONCVPSP code by D. R. Hamann
     Using radial grid of 1380 points,  8 beta functions with: 
                l(1) =   0
                l(2) =   0
                l(3) =   1
                l(4) =   1
                l(5) =   2
                l(6) =   2
                l(7) =   3
                l(8) =   3

     PseudoPot. # 2 for O  read from file:
     /cluster/scratch/mnoe/QE/pps/O_ONCV_LDA-3.0.upf
     MD5 check sum: a1bd6164e7280c17a38c229939bfbd54
     Pseudo is Norm-conserving + core correction, Zval =  6.0
     Generated using ONCVPSP code by D. R. Hamann
     Using radial grid of  926 points,  5 beta functions with: 
                l(1) =   0
                l(2) =   0
                l(3) =   1
                l(4) =   1
                l(5) =   2

     atomic species   valence    mass     pseudopotential
        W             28.00   183.84000     W ( 1.00)
        O              6.00    15.99940     O ( 1.00)

      8 Sym. Ops., with inversion, found ( 6 have fractional translation)



   Cartesian axes

     site n.     atom                  positions (alat units)
         1           W   tau(   1) = (   0.2430600   0.3010598   0.0065500  )
         2           W   tau(   2) = (   0.7569400   0.7571003   0.9934500  )
         3           W   tau(   3) = (   0.2569400   0.2280203   0.5065500  )
         4           W   tau(   4) = (   0.7430600   0.8301398   0.4934500  )
         5           W   tau(   5) = (   0.7569400   0.3010598   0.4934500  )
         6           W   tau(   6) = (   0.2430600   0.7571003   0.5065500  )
         7           W   tau(   7) = (   0.7430600   0.2280203   0.9934500  )
         8           W   tau(   8) = (   0.2569400   0.8301398   0.0065500  )
         9           O   tau(   9) = (   0.2372000   0.0141149   0.0020400  )
        10           O   tau(  10) = (   0.7628000   1.0440452   0.9979600  )
        11           O   tau(  11) = (   0.2628000   0.5149651   0.5020400  )
        12           O   tau(  12) = (   0.7372000   0.5431949   0.4979600  )
        13           O   tau(  13) = (   0.7628000   0.0141149   0.4979600  )
        14           O   tau(  14) = (   0.2372000   1.0440452   0.5020400  )
        15           O   tau(  15) = (   0.7372000   0.5149651   0.9979600  )
        16           O   tau(  16) = (   0.2628000   0.5431949   0.0020400  )
        17           O   tau(  17) = (   0.5019000   0.2506464   0.4632500  )
        18           O   tau(  18) = (   0.4981000   0.8075137   0.5367500  )
        19           O   tau(  19) = (   0.9981000   0.2784337   0.9632500  )
        20           O   tau(  20) = (   0.0019000   0.7797264   0.0367500  )
        21           O   tau(  21) = (   0.4981000   0.2506464   0.0367500  )
        22           O   tau(  22) = (   0.5019000   0.8075137   0.9632500  )
        23           O   tau(  23) = (   0.0019000   0.2784337   0.5367500  )
        24           O   tau(  24) = (   0.9981000   0.7797264   0.4632500  )
        25           O   tau(  25) = (   0.7132501   0.2615031   0.7471200  )
        26           O   tau(  26) = (   0.2867500   0.7966570   0.2528800  )
        27           O   tau(  27) = (   0.7867500   0.2675769   0.2471200  )
        28           O   tau(  28) = (   0.2132500   0.7905832   0.7528800  )
        29           O   tau(  29) = (   0.2867500   0.2615031   0.7528800  )
        30           O   tau(  30) = (   0.7132501   0.7966570   0.2471200  )
        31           O   tau(  31) = (   0.2132500   0.2675769   0.2528800  )
        32           O   tau(  32) = (   0.7867500   0.7905832   0.7471200  )

     number of k points=    64  gaussian smearing, width (Ry)=  0.0007
                       cart. coord. in units 2pi/alat
        k(    1) = (   0.0000000   0.0000000   0.0000000), wk =   0.0092593
        k(    2) = (   0.0000000   0.0000000   0.1666667), wk =   0.0185185
        k(    3) = (   0.0000000   0.0000000   0.3333333), wk =   0.0185185
        k(    4) = (   0.0000000   0.0000000  -0.5000000), wk =   0.0092593
        k(    5) = (   0.0000000   0.1575061   0.0000000), wk =   0.0185185
        k(    6) = (   0.0000000   0.1575061   0.1666667), wk =   0.0370370
        k(    7) = (   0.0000000   0.1575061   0.3333333), wk =   0.0370370
        k(    8) = (   0.0000000   0.1575061  -0.5000000), wk =   0.0185185
        k(    9) = (   0.0000000   0.3150122   0.0000000), wk =   0.0185185
        k(   10) = (   0.0000000   0.3150122   0.1666667), wk =   0.0370370
        k(   11) = (   0.0000000   0.3150122   0.3333333), wk =   0.0370370
        k(   12) = (   0.0000000   0.3150122  -0.5000000), wk =   0.0185185
        k(   13) = (   0.0000000  -0.4725183   0.0000000), wk =   0.0092593
        k(   14) = (   0.0000000  -0.4725183   0.1666667), wk =   0.0185185
        k(   15) = (   0.0000000  -0.4725183   0.3333333), wk =   0.0185185
        k(   16) = (   0.0000000  -0.4725183  -0.5000000), wk =   0.0092593
        k(   17) = (   0.1666667   0.0000000   0.1666667), wk =   0.0370370
        k(   18) = (   0.1666667   0.0000000   0.3333333), wk =   0.0370370
        k(   19) = (   0.1666667   0.0000000  -0.5000000), wk =   0.0185185
        k(   20) = (   0.1666667   0.1575061   0.1666667), wk =   0.0740741
        k(   21) = (   0.1666667   0.1575061   0.3333333), wk =   0.0740741
        k(   22) = (   0.1666667   0.1575061  -0.5000000), wk =   0.0370370
        k(   23) = (   0.1666667   0.3150122   0.1666667), wk =   0.0740741
        k(   24) = (   0.1666667   0.3150122   0.3333333), wk =   0.0740741
        k(   25) = (   0.1666667   0.3150122  -0.5000000), wk =   0.0370370
        k(   26) = (   0.1666667  -0.4725183   0.1666667), wk =   0.0370370
        k(   27) = (   0.1666667  -0.4725183   0.3333333), wk =   0.0370370
        k(   28) = (   0.1666667  -0.4725183  -0.5000000), wk =   0.0185185
        k(   29) = (   0.3333333   0.0000000   0.3333333), wk =   0.0370370
        k(   30) = (   0.3333333   0.0000000  -0.5000000), wk =   0.0185185
        k(   31) = (   0.3333333   0.1575061   0.3333333), wk =   0.0740741
        k(   32) = (   0.3333333   0.1575061  -0.5000000), wk =   0.0370370
        k(   33) = (   0.3333333   0.3150122   0.3333333), wk =   0.0740741
        k(   34) = (   0.3333333   0.3150122  -0.5000000), wk =   0.0370370
        k(   35) = (   0.3333333  -0.4725183   0.3333333), wk =   0.0370370
        k(   36) = (   0.3333333  -0.4725183  -0.5000000), wk =   0.0185185
        k(   37) = (  -0.5000000   0.0000000  -0.5000000), wk =   0.0092593
        k(   38) = (  -0.5000000   0.1575061  -0.5000000), wk =   0.0185185
        k(   39) = (  -0.5000000   0.3150122  -0.5000000), wk =   0.0185185
        k(   40) = (  -0.5000000  -0.4725183  -0.5000000), wk =   0.0092593
        k(   41) = (   0.1666667   0.0000000   0.0000000), wk =   0.0185185
        k(   42) = (   0.3333333   0.0000000   0.0000000), wk =   0.0185185
        k(   43) = (  -0.5000000   0.0000000   0.0000000), wk =   0.0092593
        k(   44) = (   0.1666667  -0.1575061   0.0000000), wk =   0.0370370
        k(   45) = (   0.3333333  -0.1575061   0.0000000), wk =   0.0370370
        k(   46) = (  -0.5000000  -0.1575061   0.0000000), wk =   0.0185185
        k(   47) = (   0.1666667  -0.3150122   0.0000000), wk =   0.0370370
        k(   48) = (   0.3333333  -0.3150122   0.0000000), wk =   0.0370370
        k(   49) = (  -0.5000000  -0.3150122   0.0000000), wk =   0.0185185
        k(   50) = (   0.1666667   0.4725183   0.0000000), wk =   0.0185185
        k(   51) = (   0.3333333   0.4725183   0.0000000), wk =   0.0185185
        k(   52) = (  -0.5000000   0.4725183   0.0000000), wk =   0.0092593
        k(   53) = (   0.3333333   0.0000000   0.1666667), wk =   0.0370370
        k(   54) = (  -0.5000000   0.0000000   0.1666667), wk =   0.0185185
        k(   55) = (   0.3333333  -0.1575061   0.1666667), wk =   0.0740741
        k(   56) = (  -0.5000000  -0.1575061   0.1666667), wk =   0.0370370
        k(   57) = (   0.3333333  -0.3150122   0.1666667), wk =   0.0740741
        k(   58) = (  -0.5000000  -0.3150122   0.1666667), wk =   0.0370370
        k(   59) = (   0.3333333   0.4725183   0.1666667), wk =   0.0370370
        k(   60) = (  -0.5000000   0.4725183   0.1666667), wk =   0.0185185
        k(   61) = (  -0.5000000   0.0000000   0.3333333), wk =   0.0185185
        k(   62) = (  -0.5000000  -0.1575061   0.3333333), wk =   0.0370370
        k(   63) = (  -0.5000000  -0.3150122   0.3333333), wk =   0.0370370
        k(   64) = (  -0.5000000   0.4725183   0.3333333), wk =   0.0185185

     Dense  grid:   498127 G-vectors     FFT dimensions: ( 100, 108, 100)

     Estimated max dynamical RAM per process >       2.74 GB

     Estimated total dynamical RAM >     175.05 GB

     Initial potential from superposition of free atoms

     starting charge  367.99656, renormalised to  368.00000
     Starting wfc are  232 randomized atomic wfcs

     total cpu time spent up to now is       43.5 secs

     Self-consistent Calculation

     iteration #  1     ecut=   120.00 Ry     beta= 0.70
     Davidson diagonalization with overlap
     ethr =  1.00E-02,  avg # of iterations =  5.1

     total cpu time spent up to now is      135.0 secs

     total energy              =   -6254.00915653 Ry
     Harris-Foulkes estimate   =   -6264.57537894 Ry
     estimated scf accuracy    <      13.39156542 Ry

     iteration #  2     ecut=   120.00 Ry     beta= 0.70
     Davidson diagonalization with overlap
     ethr =  3.64E-03,  avg # of iterations =  3.5

     total cpu time spent up to now is      224.0 secs

     total energy              =   -6250.97630275 Ry
     Harris-Foulkes estimate   =   -6270.63123257 Ry
     estimated scf accuracy    <      52.60148419 Ry

     iteration #  3     ecut=   120.00 Ry     beta= 0.70
     Davidson diagonalization with overlap
     ethr =  3.64E-03,  avg # of iterations =  3.6

     total cpu time spent up to now is      307.7 secs

     total energy              =   -6261.05593834 Ry
     Harris-Foulkes estimate   =   -6261.38786411 Ry
     estimated scf accuracy    <       1.06179230 Ry

     iteration #  4     ecut=   120.00 Ry     beta= 0.70
     Davidson diagonalization with overlap
     ethr =  2.89E-04,  avg # of iterations =  2.8

     total cpu time spent up to now is      375.4 secs

     total energy              =   -6261.08298574 Ry
     Harris-Foulkes estimate   =   -6261.16119605 Ry
     estimated scf accuracy    <       0.26994607 Ry

     iteration #  5     ecut=   120.00 Ry     beta= 0.70
     Davidson diagonalization with overlap
     ethr =  7.34E-05,  avg # of iterations =  4.1

     total cpu time spent up to now is      445.3 secs

     total energy              =   -6261.07285469 Ry
     Harris-Foulkes estimate   =   -6261.11116968 Ry
     estimated scf accuracy    <       0.08309342 Ry

     iteration #  6     ecut=   120.00 Ry     beta= 0.70
     Davidson diagonalization with overlap
     ethr =  2.26E-05,  avg # of iterations =  5.8

     total cpu time spent up to now is      523.3 secs

     total energy              =   -6261.09163018 Ry
     Harris-Foulkes estimate   =   -6261.09332384 Ry
     estimated scf accuracy    <       0.00489011 Ry

     iteration #  7     ecut=   120.00 Ry     beta= 0.70
     Davidson diagonalization with overlap
     ethr =  1.33E-06,  avg # of iterations =  5.0

     total cpu time spent up to now is      600.9 secs

     total energy              =   -6261.09212457 Ry
     Harris-Foulkes estimate   =   -6261.09224014 Ry
     estimated scf accuracy    <       0.00029816 Ry

     iteration #  8     ecut=   120.00 Ry     beta= 0.70
     Davidson diagonalization with overlap
     ethr =  8.10E-08,  avg # of iterations =  3.0

     total cpu time spent up to now is      675.1 secs

     total energy              =   -6261.09217549 Ry
     Harris-Foulkes estimate   =   -6261.09219277 Ry
     estimated scf accuracy    <       0.00003694 Ry

     iteration #  9     ecut=   120.00 Ry     beta= 0.70
     Davidson diagonalization with overlap
     ethr =  1.00E-08,  avg # of iterations =  3.0

     total cpu time spent up to now is      750.5 secs

     total energy              =   -6261.09218521 Ry
     Harris-Foulkes estimate   =   -6261.09218721 Ry
     estimated scf accuracy    <       0.00000829 Ry

     iteration # 10     ecut=   120.00 Ry     beta= 0.70
     Davidson diagonalization with overlap
     ethr =  2.25E-09,  avg # of iterations =  1.5

     total cpu time spent up to now is      812.7 secs

     total energy              =   -6261.09218444 Ry
     Harris-Foulkes estimate   =   -6261.09218583 Ry
     estimated scf accuracy    <       0.00000304 Ry

     iteration # 11     ecut=   120.00 Ry     beta= 0.70
     Davidson diagonalization with overlap
     ethr =  8.25E-10,  avg # of iterations =  2.9

     total cpu time spent up to now is      886.1 secs

     total energy              =   -6261.09218509 Ry
     Harris-Foulkes estimate   =   -6261.09218511 Ry
     estimated scf accuracy    <       0.00000006 Ry

     iteration # 12     ecut=   120.00 Ry     beta= 0.70
     Davidson diagonalization with overlap
     ethr =  1.73E-11,  avg # of iterations =  2.0

     total cpu time spent up to now is      964.2 secs

     total energy              =   -6261.09218510 Ry
     Harris-Foulkes estimate   =   -6261.09218511 Ry
     estimated scf accuracy    <       0.00000002 Ry

     iteration # 13     ecut=   120.00 Ry     beta= 0.70
     Davidson diagonalization with overlap
     ethr =  4.62E-12,  avg # of iterations =  2.2

     total cpu time spent up to now is     1032.4 secs

     End of self-consistent calculation

          k = 0.0000 0.0000 0.0000 ( 62239 PWs)   bands (ev):

   -66.1489 -66.1485 -66.1479 -66.1479 -66.1475 -66.1475 -66.1470 -66.1466
   -30.5396 -30.5378 -30.5366 -30.5338 -30.5330 -30.5321 -30.5313 -30.5280
   -30.4902 -30.4894 -30.4892 -30.4892 -30.4430 -30.4416 -30.4409 -30.4332
   -30.4329 -30.4327 -30.4325 -30.4321 -30.4255 -30.4249 -30.4217 -30.4159
   -20.3032 -20.3031 -20.3030 -20.3029 -20.3028 -20.3027 -20.3027 -20.3026
   -20.2848 -20.2846 -20.2835 -20.2833 -20.2832 -20.2830 -20.2824 -20.2822
   -20.2822 -20.2819 -20.2808 -20.2805 -20.2804 -20.2802 -20.2790 -20.2788
   -20.2786 -20.2784 -20.2783 -20.2781 -20.2736 -20.2734 -20.2731 -20.2730
   -20.2728 -20.2727 -20.2722 -20.2719 -20.2715 -20.2710 -20.2709 -20.2705
   -20.2671 -20.2671 -20.2667 -20.2666 -20.2657 -20.2655 -20.2650 -20.2646
   -20.2640 -20.2638 -20.2637 -20.2636 -20.2619 -20.2619 -20.2614 -20.2613
   -10.0173  -9.7694  -9.5855  -9.5729  -9.3844  -9.3627  -9.1381  -9.1215
    -8.9496  -8.7882  -8.7853  -8.7777  -7.8362  -7.8162  -7.7889  -7.7866
    -7.7303  -7.7259  -7.7122  -7.7074  -7.6861  -7.6621  -7.6619  -7.6235
     1.0011   1.0021   1.1354   1.1355   1.1637   1.1686   1.3372   1.4571
     1.6924   1.7022   1.7277   1.7722   2.2864   2.3710   2.5545   2.5553
     2.6635   2.6673   4.0523   4.0833   4.2165   4.2627   4.6130   4.6249
     4.6483   4.6564   4.8932   4.9953   5.0872   5.0941   5.1061   5.5255
     5.5390   5.5546   5.5586   5.5809   5.5973   5.6116   5.6573   5.8828
     5.8939   5.9386   5.9499   5.9542   6.0045   6.0549   6.0561   6.0608
     6.1173   6.2694   6.3140   6.4650   6.4923   6.7981   6.8127   6.8410
     6.8470   6.8634   6.9882   7.0626   7.0648   7.0772   7.2058   7.2288
     7.2404   7.2608   8.0235   8.0317   8.1337   8.1729   8.1782   8.2176
     9.2167   9.2192   9.9360   9.9429   9.9790   9.9823  12.3164  12.3582
    12.4529  12.4846  12.4849  12.4902  12.5288  12.5290  13.0819  13.2398
    13.4288  13.4343  13.4841  13.5445  13.6656  13.9601  14.2218  14.2229
    14.2570  14.3030  14.4785  14.8180  15.2566  15.2704  15.4470  16.0020
    16.0111  16.8013  17.1105  17.1358  17.4133

          k = 0.0000 0.0000 0.1667 ( 62262 PWs)   bands (ev):

   -66.1488 -66.1484 -66.1480 -66.1478 -66.1476 -66.1475 -66.1470 -66.1466
   -30.5373 -30.5345 -30.5325 -30.5313 -30.5307 -30.5284 -30.5273 -30.5254
   -30.4900 -30.4898 -30.4894 -30.4885 -30.4488 -30.4450 -30.4413 -30.4398
   -30.4366 -30.4353 -30.4326 -30.4321 -30.4274 -30.4258 -30.4213 -30.4165
   -20.3031 -20.3031 -20.3030 -20.3029 -20.3028 -20.3028 -20.3027 -20.3026
   -20.2847 -20.2845 -20.2834 -20.2834 -20.2832 -20.2831 -20.2823 -20.2823
   -20.2821 -20.2820 -20.2809 -20.2806 -20.2803 -20.2801 -20.2791 -20.2789
   -20.2786 -20.2784 -20.2783 -20.2781 -20.2737 -20.2735 -20.2732 -20.2729
   -20.2728 -20.2725 -20.2722 -20.2714 -20.2712 -20.2711 -20.2707 -20.2703
   -20.2674 -20.2674 -20.2670 -20.2669 -20.2657 -20.2655 -20.2650 -20.2646
   -20.2638 -20.2637 -20.2636 -20.2635 -20.2621 -20.2620 -20.2616 -20.2614
    -9.9670  -9.7141  -9.5880  -9.5085  -9.3739  -9.2924  -9.0980  -9.0809
    -8.9603  -8.7898  -8.7717  -8.7699  -7.9429  -7.9327  -7.8510  -7.8467
    -7.8087  -7.7791  -7.7363  -7.7207  -7.6928  -7.6702  -7.6668  -7.6270
     1.1019   1.1048   1.1649   1.1714   1.3846   1.4045   1.4367   1.6280
     1.6907   1.7131   1.7180   1.8486   2.3744   2.4600   2.5623   2.6466
     2.6568   2.7549   4.0430   4.0475   4.2350   4.2360   4.2517   4.3068
     4.7053   4.7121   4.7293   4.7745   4.8809   5.0850   5.1056   5.3139
     5.4048   5.4857   5.5528   5.5751   5.6184   5.6428   5.6618   5.6736
     5.6956   5.8754   5.9397   5.9731   6.0078   6.0574   6.1251   6.1443
     6.2768   6.3910   6.4835   6.4871   6.6753   6.7308   6.7885   6.8162
     6.8315   6.8582   6.9480   6.9575   6.9955   7.0195   7.0559   7.0573
     7.0828   7.1311   7.9953   7.9954   8.1312   8.1489   8.1740   8.1800
     9.5694   9.5828   9.9386   9.9828  10.2377  10.2677  12.3054  12.3900
    12.3940  12.4082  12.4862  12.4915  12.5362  12.6162  13.0948  13.1147
    13.1990  13.4295  13.4680  13.5270  13.7927  13.9588  14.0636  14.0924
    14.3083  14.4067  14.4747  14.9341  15.3269  15.3649  15.4136  15.9891
    16.3562  16.8486  16.9782  17.3118  17.4628

          k = 0.0000 0.0000 0.3333 ( 62268 PWs)   bands (ev):

   -66.1486 -66.1482 -66.1482 -66.1478 -66.1477 -66.1473 -66.1472 -66.1468
   -30.5363 -30.5335 -30.5322 -30.5294 -30.5151 -30.5147 -30.5105 -30.5096
   -30.4925 -30.4918 -30.4862 -30.4848 -30.4660 -30.4615 -30.4566 -30.4526
   -30.4403 -30.4376 -30.4317 -30.4311 -30.4290 -30.4278 -30.4204 -30.4178
   -20.3031 -20.3030 -20.3029 -20.3029 -20.3029 -20.3028 -20.3027 -20.3027
   -20.2844 -20.2842 -20.2837 -20.2834 -20.2832 -20.2829 -20.2826 -20.2822
   -20.2819 -20.2817 -20.2811 -20.2809 -20.2800 -20.2798 -20.2793 -20.2791
   -20.2785 -20.2784 -20.2783 -20.2782 -20.2737 -20.2736 -20.2733 -20.2730
   -20.2726 -20.2723 -20.2720 -20.2713 -20.2704 -20.2703 -20.2701 -20.2698
   -20.2682 -20.2681 -20.2679 -20.2678 -20.2656 -20.2655 -20.2648 -20.2646
   -20.2635 -20.2633 -20.2633 -20.2631 -20.2625 -20.2624 -20.2621 -20.2619
    -9.8463  -9.6355  -9.5889  -9.4094  -9.3100  -9.0301  -9.0006  -8.9756
    -8.9331  -8.8052  -8.7354  -8.7020  -8.2625  -8.2516  -8.2021  -8.1708
    -7.7997  -7.7610  -7.7531  -7.7111  -7.7109  -7.6792  -7.6621  -7.6365
     1.1633   1.1681   1.1774   1.1787   1.5970   1.6518   1.6673   1.6978
     2.1239   2.1583   2.2876   2.3552   2.5760   2.6295   2.6455   2.7253
     2.8896   2.9773   3.6255   3.7151   3.8483   3.9013   4.1064   4.1800
     4.2192   4.3872   4.5482   4.7472   4.8384   4.8527   4.9235   5.0091
     5.0637   5.1238   5.1982   5.3637   5.4271   5.4744   5.7001   5.7586
     5.7847   5.8459   5.9226   6.0172   6.0485   6.1482   6.1980   6.2837
     6.3030   6.3631   6.4518   6.4820   6.5055   6.5637   6.5808   6.7436
     6.7832   6.8446   6.8548   6.9471   7.0378   7.0506   7.0808   7.1012
     7.3206   7.3646   7.8407   7.8652   7.9971   8.0332   8.1726   8.1823
     9.9451   9.9521  10.3153  10.3801  10.9140  10.9648  11.8833  11.9311
    12.2448  12.4935  12.5922  12.6163  12.6474  12.7028  12.7121  12.8693
    13.0812  13.3088  13.3588  13.4374  13.6924  13.7514  13.9318  13.9558
    14.3697  14.4616  14.7654  15.2437  15.3052  15.5560  15.8652  15.9182
    16.2843  17.2781  17.4227  17.5551  17.6027

          k = 0.0000 0.0000-0.5000 ( 62264 PWs)   bands (ev):

   -66.1484 -66.1484 -66.1480 -66.1480 -66.1474 -66.1474 -66.1471 -66.1470
   -30.5349 -30.5349 -30.5308 -30.5308 -30.4992 -30.4992 -30.4970 -30.4970
   -30.4903 -30.4903 -30.4855 -30.4855 -30.4761 -30.4761 -30.4729 -30.4729
   -30.4391 -30.4391 -30.4304 -30.4304 -30.4296 -30.4296 -30.4191 -30.4191
   -20.3030 -20.3030 -20.3029 -20.3029 -20.3028 -20.3028 -20.3028 -20.3028
   -20.2841 -20.2841 -20.2838 -20.2838 -20.2829 -20.2829 -20.2826 -20.2826
   -20.2815 -20.2815 -20.2813 -20.2813 -20.2796 -20.2796 -20.2795 -20.2795
   -20.2785 -20.2785 -20.2783 -20.2783 -20.2737 -20.2737 -20.2732 -20.2732
   -20.2724 -20.2724 -20.2716 -20.2716 -20.2692 -20.2692 -20.2692 -20.2692
   -20.2690 -20.2690 -20.2689 -20.2689 -20.2656 -20.2656 -20.2647 -20.2647
   -20.2630 -20.2630 -20.2629 -20.2629 -20.2627 -20.2627 -20.2626 -20.2625
    -9.7220  -9.7220  -9.4772  -9.4772  -9.1058  -9.1058  -8.8477  -8.8477
    -8.6483  -8.6483  -8.6336  -8.6336  -8.5775  -8.5775  -8.5092  -8.5092
    -7.7764  -7.7764  -7.7359  -7.7359  -7.6956  -7.6956  -7.6494  -7.6494
     1.1709   1.1709   1.1855   1.1855   1.6419   1.6419   1.6779   1.6779
     2.5974   2.5974   2.8802   2.8802   3.0228   3.0228   3.0297   3.0297
     3.1542   3.1542   3.1609   3.1609   3.3432   3.3432   3.7754   3.7754
     3.9308   3.9308   4.2973   4.2973   4.7875   4.7875   4.9528   4.9528
     5.2165   5.2165   5.2422   5.2422   5.2569   5.2569   5.8093   5.8093
     5.8208   5.8208   5.9938   5.9938   6.1361   6.1361   6.2133   6.2133
     6.2395   6.2395   6.3796   6.3796   6.4914   6.4914   6.5005   6.5005
     6.8115   6.8115   6.8488   6.8488   7.0697   7.0697   7.5125   7.5125
     7.5622   7.5622   7.7317   7.7317   7.7682   7.7683   8.1818   8.1818
     9.9521   9.9521  11.1492  11.1492  11.2094  11.2094  11.6815  11.6815
    11.8092  11.8092  12.5239  12.5239  12.8646  12.8646  12.9896  12.9896
    13.0154  13.0154  13.2660  13.2660  13.4888  13.4888  13.9520  13.9520
    14.4322  14.4322  15.0965  15.0965  15.7116  15.7116  15.7809  15.7809
    16.6867  16.6867  17.7883  17.7883  18.0174

          k = 0.0000 0.1575 0.0000 ( 62231 PWs)   bands (ev):

   -66.1488 -66.1485 -66.1479 -66.1479 -66.1476 -66.1475 -66.1469 -66.1466
   -30.5394 -30.5377 -30.5365 -30.5336 -30.5333 -30.5318 -30.5314 -30.5282
   -30.4866 -30.4860 -30.4856 -30.4853 -30.4444 -30.4437 -30.4430 -30.4364
   -30.4333 -30.4327 -30.4326 -30.4322 -30.4272 -30.4253 -30.4236 -30.4175
   -20.3032 -20.3031 -20.3030 -20.3029 -20.3028 -20.3027 -20.3027 -20.3026
   -20.2848 -20.2846 -20.2835 -20.2833 -20.2832 -20.2831 -20.2824 -20.2823
   -20.2822 -20.2819 -20.2808 -20.2806 -20.2804 -20.2802 -20.2790 -20.2788
   -20.2782 -20.2780 -20.2779 -20.2777 -20.2739 -20.2737 -20.2734 -20.2731
   -20.2730 -20.2728 -20.2721 -20.2719 -20.2715 -20.2711 -20.2709 -20.2705
   -20.2671 -20.2671 -20.2667 -20.2666 -20.2656 -20.2654 -20.2650 -20.2646
   -20.2640 -20.2638 -20.2637 -20.2636 -20.2619 -20.2618 -20.2614 -20.2613
    -9.9935  -9.7803  -9.5613  -9.5476  -9.3913  -9.3699  -9.1370  -9.1226
    -8.8768  -8.7382  -8.7361  -8.7269  -7.8690  -7.8148  -7.7924  -7.7919
    -7.7882  -7.7839  -7.7820  -7.7291  -7.7108  -7.6979  -7.6878  -7.6877
     1.0011   1.0019   1.1355   1.1361   1.1656   1.1686   1.3934   1.4565
     1.8688   1.9284   1.9384   2.0479   2.2922   2.3653   2.6254   2.6261
     2.7298   2.7357   3.9092   3.9428   3.9911   4.0313   4.6157   4.6228
     4.6427   4.6519   4.7503   5.0557   5.0863   5.0919   5.1006   5.2885
     5.3077   5.5217   5.5279   5.6344   5.6415   5.6769   5.6776   5.7283
     5.8788   5.9214   5.9519   6.0013   6.0357   6.0360   6.0502   6.0765
     6.0769   6.2443   6.3052   6.4879   6.5260   6.8157   6.8243   6.8442
     6.8492   6.8850   6.9013   6.9699   6.9806   6.9819   7.2114   7.2279
     7.2439   7.2577   8.0234   8.0307   8.0851   8.1062   8.1156   8.1323
     9.2189   9.2201  10.1219  10.1282  10.1761  10.1812  12.1778  12.2296
    12.3011  12.3288  12.4912  12.4988  12.5276  12.5291  13.1005  13.2433
    13.4452  13.4542  13.4970  13.5588  13.9226  13.9976  14.1333  14.1382
    14.3006  14.5359  14.6335  14.9715  15.2562  15.2676  15.8504  15.9670
    15.9741  16.4940  17.2461  17.2727  17.4300

          k = 0.0000 0.1575 0.1667 ( 62237 PWs)   bands (ev):

   -66.1488 -66.1484 -66.1480 -66.1478 -66.1476 -66.1475 -66.1470 -66.1467
   -30.5370 -30.5345 -30.5322 -30.5314 -30.5307 -30.5286 -30.5271 -30.5255
   -30.4864 -30.4862 -30.4858 -30.4849 -30.4497 -30.4464 -30.4434 -30.4398
   -30.4367 -30.4364 -30.4358 -30.4323 -30.4286 -30.4271 -30.4233 -30.4183
   -20.3031 -20.3031 -20.3030 -20.3029 -20.3028 -20.3028 -20.3027 -20.3026
   -20.2847 -20.2845 -20.2834 -20.2834 -20.2832 -20.2832 -20.2823 -20.2822
   -20.2821 -20.2820 -20.2809 -20.2806 -20.2802 -20.2801 -20.2791 -20.2788
   -20.2782 -20.2781 -20.2779 -20.2778 -20.2739 -20.2738 -20.2735 -20.2732
   -20.2728 -20.2725 -20.2722 -20.2715 -20.2712 -20.2712 -20.2707 -20.2704
   -20.2674 -20.2674 -20.2670 -20.2669 -20.2656 -20.2654 -20.2650 -20.2646
   -20.2638 -20.2637 -20.2636 -20.2635 -20.2621 -20.2620 -20.2616 -20.2615
    -9.9424  -9.7251  -9.5625  -9.4815  -9.3813  -9.2994  -9.0968  -9.0820
    -8.8877  -8.7411  -8.7241  -8.7203  -7.9412  -7.9409  -7.8775  -7.8452
    -7.8212  -7.7930  -7.7823  -7.7808  -7.7660  -7.7258  -7.7040  -7.6943
     1.1032   1.1047   1.1675   1.1714   1.3946   1.4045   1.5309   1.6273
     1.8791   1.9256   1.9371   2.0619   2.3807   2.4544   2.6315   2.7203
     2.7236   2.8239   3.9202   3.9230   4.0133   4.0259   4.2604   4.3028
     4.6929   4.7023   4.7373   4.7615   4.8054   5.0847   5.0949   5.2518
     5.2747   5.3178   5.3841   5.5267   5.5736   5.5984   5.6733   5.6996
     5.8209   5.8222   5.9215   5.9710   5.9908   6.0633   6.0789   6.1737
     6.1857   6.3779   6.4559   6.5165   6.6962   6.7846   6.7932   6.8190
     6.8405   6.8806   6.9277   6.9440   6.9650   6.9799   7.0223   7.0233
     7.0761   7.1377   7.9939   7.9959   8.0761   8.0893   8.0949   8.1084
     9.5737   9.5862  10.1328  10.1821  10.3839  10.4260  12.2128  12.2599
    12.3283  12.3652  12.3762  12.3915  12.5491  12.5921  13.1201  13.1338
    13.2254  13.4445  13.4698  13.5342  13.9711  13.9874  13.9983  14.0107
    14.3577  14.6212  14.7167  15.0750  15.3249  15.3658  15.8177  15.9520
    16.3188  16.6544  16.9721  17.4261  17.5005

          k = 0.0000 0.1575 0.3333 ( 62284 PWs)   bands (ev):

   -66.1486 -66.1483 -66.1481 -66.1478 -66.1476 -66.1473 -66.1472 -66.1468
   -30.5359 -30.5332 -30.5324 -30.5296 -30.5147 -30.5146 -30.5100 -30.5095
   -30.4892 -30.4884 -30.4831 -30.4818 -30.4662 -30.4618 -30.4564 -30.4525
   -30.4424 -30.4393 -30.4349 -30.4314 -30.4312 -30.4287 -30.4224 -30.4197
   -20.3031 -20.3030 -20.3029 -20.3029 -20.3029 -20.3028 -20.3027 -20.3027
   -20.2844 -20.2842 -20.2837 -20.2835 -20.2832 -20.2830 -20.2825 -20.2823
   -20.2819 -20.2817 -20.2811 -20.2809 -20.2799 -20.2798 -20.2793 -20.2791
   -20.2782 -20.2781 -20.2780 -20.2779 -20.2740 -20.2739 -20.2736 -20.2733
   -20.2726 -20.2723 -20.2721 -20.2714 -20.2704 -20.2703 -20.2701 -20.2699
   -20.2682 -20.2681 -20.2679 -20.2678 -20.2656 -20.2655 -20.2649 -20.2647
   -20.2635 -20.2633 -20.2633 -20.2631 -20.2625 -20.2624 -20.2621 -20.2620
    -9.8201  -9.6093  -9.5994  -9.4174  -9.2717  -9.0372  -8.9698  -8.9348
    -8.9295  -8.7587  -8.6919  -8.6661  -8.2674  -8.2484  -8.2108  -8.1675
    -7.8344  -7.8043  -7.7675  -7.7627  -7.7606  -7.7366  -7.7210  -7.7125
     1.1693   1.1726   1.1773   1.1786   1.7996   1.8365   1.9176   1.9288
     2.1228   2.1815   2.2873   2.3857   2.6375   2.6426   2.6991   2.7334
     2.9630   3.0398   3.6255   3.7100   3.7915   3.8587   3.9957   4.0056
     4.2691   4.3193   4.5628   4.6758   4.7245   4.8000   4.8292   4.9991
     4.9992   5.0404   5.1251   5.1950   5.4101   5.4184   5.4360   5.7188
     5.7784   5.8637   5.9218   5.9656   5.9780   6.0804   6.1262   6.1975
     6.3405   6.4776   6.4834   6.5003   6.5170   6.6726   6.7127   6.7399
     6.7977   6.8592   6.8695   6.9426   6.9743   7.0068   7.0876   7.0915
     7.3165   7.3580   7.8454   7.8616   7.9508   7.9733   8.1025   8.1104
    10.1327  10.1516  10.3213  10.3912  11.0172  11.0593  11.8829  11.9290
    12.1775  12.3395  12.5176  12.5529  12.6297  12.6764  12.7279  12.8082
    13.0860  13.3190  13.3393  13.4474  13.5985  13.6898  13.9988  14.0133
    14.5050  14.6108  15.1173  15.3646  15.5423  15.7115  15.8830  15.8895
    16.4057  17.1290  17.2312  17.4793  17.7604

          k = 0.0000 0.1575-0.5000 ( 62234 PWs)   bands (ev):

   -66.1484 -66.1484 -66.1480 -66.1480 -66.1474 -66.1474 -66.1471 -66.1471
   -30.5346 -30.5346 -30.5310 -30.5310 -30.4972 -30.4972 -30.4946 -30.4946
   -30.4903 -30.4903 -30.4855 -30.4855 -30.4746 -30.4746 -30.4717 -30.4717
   -30.4410 -30.4410 -30.4333 -30.4333 -30.4301 -30.4301 -30.4211 -30.4211
   -20.3030 -20.3030 -20.3029 -20.3029 -20.3028 -20.3028 -20.3028 -20.3028
   -20.2840 -20.2840 -20.2838 -20.2838 -20.2829 -20.2829 -20.2826 -20.2826
   -20.2814 -20.2814 -20.2813 -20.2813 -20.2796 -20.2796 -20.2794 -20.2794
   -20.2782 -20.2782 -20.2779 -20.2779 -20.2740 -20.2740 -20.2735 -20.2735
   -20.2724 -20.2724 -20.2717 -20.2717 -20.2692 -20.2692 -20.2692 -20.2692
   -20.2690 -20.2690 -20.2690 -20.2690 -20.2655 -20.2655 -20.2648 -20.2648
   -20.2630 -20.2630 -20.2629 -20.2629 -20.2627 -20.2627 -20.2626 -20.2626
    -9.6953  -9.6953  -9.4864  -9.4864  -9.0458  -9.0458  -8.8143  -8.8143
    -8.6537  -8.6537  -8.6389  -8.6389  -8.5620  -8.5620  -8.4950  -8.4949
    -7.8197  -7.8197  -7.7498  -7.7498  -7.7437  -7.7437  -7.7375  -7.7375
     1.1771   1.1771   1.1854   1.1854   1.8433   1.8433   1.9307   1.9307
     2.6629   2.6629   2.8976   2.8976   3.0225   3.0225   3.0482   3.0482
     3.1565   3.1565   3.1722   3.1722   3.3332   3.3333   3.7730   3.7730
     3.9820   3.9820   4.1547   4.1547   4.6086   4.6086   4.8246   4.8246
     5.1393   5.1393   5.2150   5.2150   5.2178   5.2178   5.5430   5.5430
     5.7959   5.7959   5.9566   5.9566   6.1051   6.1051   6.2109   6.2109
     6.2728   6.2728   6.4169   6.4169   6.4912   6.4912   6.6951   6.6951
     6.8421   6.8421   6.8871   6.8871   6.9619   6.9619   7.5264   7.5264
     7.5563   7.5563   7.7043   7.7043   7.7340   7.7340   8.1095   8.1095
    10.1518  10.1518  11.1527  11.1527  11.2081  11.2081  11.7423  11.7423
    11.8673  11.8673  12.3818  12.3818  12.8310  12.8310  12.9287  12.9287
    13.0031  13.0031  13.1863  13.1863  13.4817  13.4817  14.0023  14.0023
    14.5805  14.5805  15.4727  15.4727  15.7522  15.7522  15.8452  15.8452
    16.7341  16.7341  17.5910  17.5910  18.0387

          k = 0.0000 0.3150 0.0000 ( 62175 PWs)   bands (ev):

   -66.1488 -66.1486 -66.1478 -66.1478 -66.1476 -66.1476 -66.1469 -66.1467
   -30.5389 -30.5378 -30.5359 -30.5339 -30.5331 -30.5318 -30.5309 -30.5289
   -30.4767 -30.4761 -30.4756 -30.4751 -30.4511 -30.4505 -30.4503 -30.4470
   -30.4334 -30.4327 -30.4323 -30.4317 -30.4313 -30.4273 -30.4247 -30.4208
   -20.3031 -20.3031 -20.3030 -20.3029 -20.3028 -20.3027 -20.3026 -20.3026
   -20.2847 -20.2846 -20.2834 -20.2833 -20.2832 -20.2831 -20.2824 -20.2823
   -20.2821 -20.2819 -20.2807 -20.2806 -20.2803 -20.2803 -20.2790 -20.2788
   -20.2773 -20.2771 -20.2770 -20.2768 -20.2747 -20.2746 -20.2743 -20.2741
   -20.2729 -20.2728 -20.2720 -20.2719 -20.2716 -20.2714 -20.2709 -20.2707
   -20.2671 -20.2671 -20.2667 -20.2666 -20.2655 -20.2652 -20.2651 -20.2648
   -20.2639 -20.2639 -20.2637 -20.2636 -20.2618 -20.2617 -20.2615 -20.2614
    -9.9345  -9.8135  -9.5062  -9.4899  -9.4129  -9.3924  -9.1339  -9.1256
    -8.6719  -8.5836  -8.5823  -8.5725  -8.0842  -8.0338  -8.0291  -7.9977
    -7.8111  -7.8077  -7.7932  -7.7922  -7.7069  -7.7021  -7.6956  -7.6919
     1.0011   1.0016   1.1358   1.1365   1.1676   1.1685   1.4364   1.4545
     2.3067   2.3495   2.4258   2.5691   2.5889   2.7312   2.8304   2.8510
     2.9222   2.9449   3.5581   3.5715   3.5982   3.6110   4.1514   4.4897
     4.5051   4.6233   4.6256   4.6596   4.6748   4.8185   5.1922   5.1991
     5.2251   5.2309   5.4530   5.4537   5.6765   5.6850   5.7044   5.7271
     5.9139   5.9185   5.9588   5.9636   6.0126   6.0366   6.0426   6.1029
     6.1056   6.1732   6.2468   6.5384   6.5535   6.5775   6.7968   6.8141
     6.8551   6.9462   7.0928   7.1031   7.1093   7.1107   7.2221   7.2268
     7.2558   7.2590   7.8671   7.8799   7.8930   7.9063   8.0326   8.0329
     9.2217   9.2217  10.5965  10.6234  10.6716  10.6885  11.7801  11.8298
    11.8829  11.9080  12.5078  12.5162  12.5256  12.5278  13.1503  13.2395
    13.5184  13.5318  13.5687  13.6105  13.8698  13.9171  13.9241  13.9370
    14.7614  15.1164  15.1359  15.2558  15.2625  15.5373  15.8449  15.8513
    15.9309  16.8492  17.1228  17.7057  17.7341

          k = 0.0000 0.3150 0.1667 ( 62260 PWs)   bands (ev):

   -66.1487 -66.1485 -66.1479 -66.1477 -66.1477 -66.1476 -66.1469 -66.1467
   -30.5362 -30.5347 -30.5313 -30.5313 -30.5308 -30.5293 -30.5267 -30.5256
   -30.4767 -30.4765 -30.4759 -30.4748 -30.4539 -30.4522 -30.4506 -30.4466
   -30.4398 -30.4378 -30.4368 -30.4342 -30.4314 -30.4270 -30.4262 -30.4218
   -20.3031 -20.3031 -20.3029 -20.3029 -20.3028 -20.3028 -20.3027 -20.3026
   -20.2846 -20.2845 -20.2834 -20.2833 -20.2832 -20.2832 -20.2822 -20.2822
   -20.2821 -20.2820 -20.2808 -20.2807 -20.2802 -20.2801 -20.2790 -20.2789
   -20.2773 -20.2771 -20.2770 -20.2768 -20.2748 -20.2746 -20.2744 -20.2742
   -20.2728 -20.2726 -20.2720 -20.2715 -20.2714 -20.2713 -20.2707 -20.2705
   -20.2674 -20.2674 -20.2670 -20.2669 -20.2655 -20.2652 -20.2651 -20.2648
   -20.2638 -20.2637 -20.2636 -20.2635 -20.2620 -20.2619 -20.2617 -20.2616
    -9.8817  -9.7584  -9.5040  -9.4205  -9.4044  -9.3213  -9.0936  -9.0851
    -8.6827  -8.5894  -8.5744  -8.5685  -8.0907  -8.0513  -8.0285  -8.0084
    -7.9365  -7.9129  -7.8409  -7.8221  -7.7958  -7.7853  -7.7088  -7.6986
     1.1041   1.1046   1.1700   1.1713   1.4016   1.4043   1.6008   1.6250
     2.3939   2.4300   2.4386   2.5453   2.5829   2.7111   2.8349   2.9168
     2.9541   3.0448   3.5895   3.5935   3.6065   3.6237   4.1375   4.2675
     4.2901   4.5057   4.5132   4.6894   4.7277   4.8196   4.8777   4.9729
     5.1749   5.2413   5.2628   5.3263   5.4889   5.4922   5.6240   5.6778
     5.7474   5.7507   5.8125   5.9416   6.0222   6.0614   6.0735   6.1032
     6.2640   6.3919   6.3921   6.5619   6.6027   6.7882   6.8422   6.9037
     6.9311   6.9430   7.0005   7.0057   7.0248   7.0317   7.1002   7.1421
     7.1605   7.1867   7.8563   7.8702   7.8790   7.8818   8.0003   8.0060
     9.5809   9.5880  10.6293  10.6877  10.7888  10.8539  11.8296  11.8793
    11.9078  11.9728  12.3741  12.3870  12.5668  12.5807  13.1728  13.1803
    13.3198  13.4881  13.5157  13.5551  13.7515  13.8324  13.8685  13.9178
    14.8800  15.1245  15.3172  15.3616  15.3798  15.6142  15.8280  16.0980
    16.1890  16.8136  17.1990  17.3599  17.6520

          k = 0.0000 0.3150 0.3333 ( 62269 PWs)   bands (ev):

   -66.1485 -66.1483 -66.1481 -66.1479 -66.1476 -66.1474 -66.1471 -66.1469
   -30.5351 -30.5331 -30.5323 -30.5303 -30.5143 -30.5142 -30.5092 -30.5092
   -30.4807 -30.4794 -30.4740 -30.4727 -30.4674 -30.4634 -30.4553 -30.4518
   -30.4496 -30.4457 -30.4445 -30.4399 -30.4305 -30.4278 -30.4261 -30.4234
   -20.3030 -20.3030 -20.3029 -20.3029 -20.3029 -20.3028 -20.3027 -20.3027
   -20.2844 -20.2843 -20.2836 -20.2835 -20.2831 -20.2830 -20.2825 -20.2823
   -20.2818 -20.2817 -20.2810 -20.2809 -20.2799 -20.2798 -20.2792 -20.2791
   -20.2773 -20.2772 -20.2770 -20.2769 -20.2749 -20.2747 -20.2745 -20.2743
   -20.2725 -20.2722 -20.2721 -20.2716 -20.2705 -20.2704 -20.2701 -20.2700
   -20.2682 -20.2682 -20.2679 -20.2678 -20.2654 -20.2653 -20.2650 -20.2649
   -20.2635 -20.2633 -20.2633 -20.2632 -20.2624 -20.2623 -20.2622 -20.2621
    -9.7563  -9.6317  -9.5486  -9.4425  -9.1855  -9.0606  -8.9581  -8.9397
    -8.7310  -8.6163  -8.5524  -8.5416  -8.2912  -8.2582  -8.2370  -8.1559
    -8.0465  -8.0282  -8.0043  -7.9718  -7.7780  -7.7673  -7.7272  -7.7169
     1.1741   1.1764   1.1768   1.1784   2.0831   2.1193   2.2018   2.2835
     2.4412   2.5268   2.5850   2.6448   2.6945   2.7335   2.8482   2.9077
     3.1892   3.2376   3.5471   3.5933   3.6020   3.6783   3.7118   3.7158
     4.1136   4.3536   4.4001   4.4640   4.4785   4.6033   4.6244   4.7296
     4.7993   4.9290   5.0035   5.0090   5.1852   5.2624   5.2858   5.3699
     5.4097   5.5372   5.7854   5.9080   6.0841   6.1141   6.1612   6.2206
     6.4160   6.4980   6.5011   6.5653   6.6342   6.7339   6.7406   6.7707
     6.8704   6.9992   7.0314   7.0630   7.0689   7.1239   7.1832   7.2157
     7.2963   7.3378   7.7761   7.7856   7.8201   7.8674   7.8801   7.9222
    10.3337  10.3392  10.6463  10.6917  11.3035  11.3468  11.8012  11.8939
    11.9226  11.9601  12.1862  12.2433  12.7169  12.7285  12.7567  12.7866
    13.0543  13.2251  13.3276  13.4087  13.5155  13.6267  13.8662  13.8904
    15.0062  15.1056  15.4894  15.7661  15.8438  15.9220  16.0114  16.6223
    16.6899  16.7884  17.0638  17.4705  17.6857

          k = 0.0000 0.3150-0.5000 ( 62306 PWs)   bands (ev):

   -66.1483 -66.1483 -66.1481 -66.1481 -66.1473 -66.1473 -66.1471 -66.1471
   -30.5337 -30.5337 -30.5317 -30.5317 -30.4934 -30.4934 -30.4904 -30.4904
   -30.4897 -30.4897 -30.4856 -30.4856 -30.4690 -30.4690 -30.4667 -30.4667
   -30.4479 -30.4479 -30.4433 -30.4433 -30.4292 -30.4292 -30.4248 -30.4248
   -20.3030 -20.3030 -20.3029 -20.3029 -20.3028 -20.3028 -20.3028 -20.3028
   -20.2840 -20.2840 -20.2839 -20.2839 -20.2828 -20.2828 -20.2827 -20.2827
   -20.2814 -20.2814 -20.2813 -20.2813 -20.2795 -20.2795 -20.2794 -20.2794
   -20.2773 -20.2773 -20.2770 -20.2770 -20.2748 -20.2748 -20.2745 -20.2745
   -20.2722 -20.2722 -20.2718 -20.2718 -20.2692 -20.2692 -20.2692 -20.2692
   -20.2691 -20.2691 -20.2691 -20.2691 -20.2654 -20.2654 -20.2649 -20.2649
   -20.2629 -20.2629 -20.2628 -20.2628 -20.2628 -20.2628 -20.2627 -20.2626
    -9.6317  -9.6317  -9.5149  -9.5149  -8.8947  -8.8947  -8.7363  -8.7363
    -8.6777  -8.6777  -8.6535  -8.6535  -8.4893  -8.4893  -8.4354  -8.4354
    -8.0410  -8.0410  -7.9965  -7.9965  -7.7525  -7.7525  -7.7420  -7.7420
     1.1822   1.1822   1.1849   1.1849   2.4269   2.4269   2.5649   2.5649
     2.8433   2.8433   2.9513   2.9513   3.0057   3.0057   3.1030   3.1030
     3.1438   3.1438   3.2404   3.2404   3.2997   3.2997   3.5837   3.5837
     4.0959   4.0959   4.0990   4.0990   4.1600   4.1600   4.3677   4.3677
     4.8816   4.8816   5.0305   5.0305   5.1854   5.1854   5.2100   5.2100
     5.3510   5.3510   5.8475   5.8475   6.1816   6.1816   6.2205   6.2205
     6.3998   6.3998   6.4653   6.4653   6.5132   6.5132   6.7437   6.7437
     7.0379   7.0379   7.0752   7.0753   7.1331   7.1331   7.5363   7.5363
     7.5428   7.5428   7.6047   7.6047   7.6322   7.6322   7.8913   7.8913
    10.6498  10.6498  11.1599  11.1599  11.2073  11.2073  11.7870  11.7870
    12.0461  12.0461  12.1232  12.1232  12.6459  12.6459  12.6778  12.6779
    13.0190  13.0190  13.0692  13.0692  13.5287  13.5287  13.8707  13.8707
    15.0683  15.0683  15.6544  15.6544  16.2445  16.2445  16.4257  16.4257
    16.9207  16.9207  17.2078  17.2078  17.9907

          k = 0.0000-0.4725 0.0000 ( 62212 PWs)   bands (ev):

   -66.1487 -66.1487 -66.1477 -66.1477 -66.1477 -66.1477 -66.1468 -66.1468
   -30.5383 -30.5383 -30.5349 -30.5349 -30.5324 -30.5324 -30.5299 -30.5299
   -30.4634 -30.4634 -30.4627 -30.4627 -30.4623 -30.4623 -30.4612 -30.4612
   -30.4331 -30.4331 -30.4325 -30.4325 -30.4301 -30.4301 -30.4233 -30.4233
   -20.3031 -20.3031 -20.3030 -20.3030 -20.3028 -20.3028 -20.3026 -20.3026
   -20.2847 -20.2847 -20.2833 -20.2833 -20.2832 -20.2832 -20.2823 -20.2823
   -20.2820 -20.2820 -20.2807 -20.2807 -20.2803 -20.2803 -20.2789 -20.2789
   -20.2760 -20.2760 -20.2758 -20.2758 -20.2756 -20.2756 -20.2755 -20.2755
   -20.2728 -20.2728 -20.2718 -20.2718 -20.2717 -20.2717 -20.2709 -20.2709
   -20.2671 -20.2671 -20.2666 -20.2666 -20.2653 -20.2653 -20.2650 -20.2650
   -20.2639 -20.2639 -20.2637 -20.2637 -20.2617 -20.2617 -20.2616 -20.2616
    -9.8676  -9.8676  -9.4515  -9.4515  -9.4327  -9.4327  -9.1298  -9.1298
    -8.3819  -8.3819  -8.3317  -8.3316  -8.3288  -8.3287  -8.3167  -8.3167
    -7.8079  -7.8079  -7.7953  -7.7953  -7.7015  -7.7015  -7.6975  -7.6975
     1.0013   1.0013   1.1363   1.1363   1.1683   1.1683   1.4496   1.4496
     2.3282   2.3282   3.0952   3.0952   3.1584   3.1584   3.1871   3.1871
     3.2017   3.2017   3.3308   3.3308   3.5475   3.5475   3.5595   3.5595
     3.7497   3.7497   4.6351   4.6351   4.6364   4.6364   5.3316   5.3316
     5.3561   5.3561   5.4605   5.4605   5.4793   5.4793   5.7784   5.7785
     5.7893   5.7893   5.9848   5.9848   6.0102   6.0102   6.1123   6.1123
     6.1446   6.1446   6.2759   6.2759   6.6566   6.6566   6.6741   6.6741
     6.9023   6.9023   7.2210   7.2210   7.2376   7.2376   7.5021   7.5021
     7.5082   7.5082   7.5421   7.5421   7.5491   7.5491   8.0318   8.0318
     9.2225   9.2225  11.2057  11.2057  11.2475  11.2475  11.2796  11.2796
    11.3330  11.3330  12.5196  12.5196  12.5249  12.5249  13.2070  13.2070
    13.6699  13.6699  13.6740  13.6740  13.7227  13.7227  13.7557  13.7557
    15.2519  15.2519  15.3468  15.3468  15.5840  15.5840  15.5942  15.5942
    16.4054  16.4054  17.8991  17.8991  18.0561

          k = 0.0000-0.4725 0.1667 ( 62246 PWs)   bands (ev):

   -66.1486 -66.1486 -66.1478 -66.1478 -66.1477 -66.1476 -66.1468 -66.1468
   -30.5353 -30.5353 -30.5311 -30.5311 -30.5303 -30.5302 -30.5261 -30.5261
   -30.4641 -30.4641 -30.4636 -30.4636 -30.4628 -30.4628 -30.4608 -30.4608
   -30.4393 -30.4393 -30.4366 -30.4366 -30.4298 -30.4297 -30.4246 -30.4246
   -20.3031 -20.3031 -20.3029 -20.3029 -20.3028 -20.3028 -20.3027 -20.3027
   -20.2846 -20.2846 -20.2833 -20.2833 -20.2833 -20.2833 -20.2822 -20.2822
   -20.2821 -20.2821 -20.2807 -20.2807 -20.2802 -20.2802 -20.2789 -20.2789
   -20.2760 -20.2760 -20.2759 -20.2759 -20.2757 -20.2757 -20.2755 -20.2755
   -20.2727 -20.2727 -20.2717 -20.2717 -20.2714 -20.2714 -20.2707 -20.2707
   -20.2674 -20.2674 -20.2670 -20.2670 -20.2653 -20.2653 -20.2650 -20.2650
   -20.2638 -20.2638 -20.2636 -20.2636 -20.2618 -20.2618 -20.2618 -20.2617
    -9.8132  -9.8132  -9.4457  -9.4456  -9.3616  -9.3616  -9.0893  -9.0893
    -8.3902  -8.3902  -8.3406  -8.3405  -8.3250  -8.3250  -8.3182  -8.3182
    -7.9290  -7.9290  -7.8342  -7.8342  -7.7912  -7.7912  -7.7042  -7.7042
     1.1044   1.1044   1.1710   1.1710   1.4037   1.4037   1.6188   1.6189
     2.4170   2.4170   3.1102   3.1102   3.1532   3.1532   3.2043   3.2043
     3.2483   3.2483   3.3242   3.3242   3.5517   3.5517   3.5891   3.5891
     3.7696   3.7696   4.2837   4.2837   4.6983   4.6983   5.0737   5.0737
     5.2322   5.2322   5.3086   5.3086   5.4856   5.4856   5.5193   5.5193
     5.7200   5.7200   5.7525   5.7525   6.0652   6.0652   6.1043   6.1044
     6.3746   6.3746   6.4139   6.4140   6.6539   6.6539   6.8838   6.8838
     6.9595   6.9595   7.0168   7.0168   7.0734   7.0734   7.4945   7.4945
     7.5132   7.5133   7.5342   7.5342   7.5355   7.5355   8.0014   8.0014
     9.5860   9.5860  11.2504  11.2504  11.3101  11.3101  11.3473  11.3473
    11.4213  11.4213  12.3810  12.3810  12.5758  12.5758  13.2086  13.2086
    13.4898  13.4898  13.5582  13.5582  13.6674  13.6675  13.7702  13.7702
    15.2701  15.2701  15.5573  15.5573  15.5800  15.5800  15.8996  15.8996
    16.4785  16.4785  17.8462  17.8462  18.0261

          k = 0.0000-0.4725 0.3333 ( 62268 PWs)   bands (ev):

   -66.1484 -66.1484 -66.1480 -66.1480 -66.1475 -66.1475 -66.1470 -66.1470
   -30.5341 -30.5341 -30.5313 -30.5313 -30.5141 -30.5140 -30.5090 -30.5090
   -30.4718 -30.4717 -30.4691 -30.4691 -30.4615 -30.4614 -30.4593 -30.4593
   -30.4516 -30.4516 -30.4484 -30.4484 -30.4289 -30.4288 -30.4262 -30.4262
   -20.3030 -20.3030 -20.3029 -20.3029 -20.3029 -20.3028 -20.3027 -20.3027
   -20.2843 -20.2843 -20.2836 -20.2835 -20.2831 -20.2831 -20.2824 -20.2824
   -20.2818 -20.2818 -20.2810 -20.2810 -20.2799 -20.2799 -20.2792 -20.2791
   -20.2761 -20.2761 -20.2760 -20.2760 -20.2758 -20.2758 -20.2756 -20.2756
   -20.2723 -20.2723 -20.2719 -20.2718 -20.2704 -20.2704 -20.2701 -20.2701
   -20.2682 -20.2682 -20.2679 -20.2679 -20.2652 -20.2652 -20.2651 -20.2651
   -20.2634 -20.2634 -20.2632 -20.2632 -20.2623 -20.2623 -20.2622 -20.2622
    -9.6862  -9.6862  -9.4868  -9.4868  -9.1077  -9.1077  -8.9476  -8.9476
    -8.4592  -8.4592  -8.4043  -8.4043  -8.3181  -8.3181  -8.3109  -8.3108
    -8.1957  -8.1957  -8.1214  -8.1214  -7.7732  -7.7732  -7.7226  -7.7226
     1.1759   1.1759   1.1778   1.1778   2.1117   2.1117   2.2696   2.2696
     2.6745   2.6745   3.1162   3.1162   3.1648   3.1648   3.2268   3.2269
     3.2890   3.2891   3.3609   3.3609   3.5264   3.5264   3.6873   3.6873
     3.7021   3.7021   3.7929   3.7929   4.5493   4.5494   4.6627   4.6627
     4.8062   4.8062   4.8602   4.8602   5.0724   5.0724   5.3234   5.3234
     5.5178   5.5178   5.6711   5.6711   6.1135   6.1135   6.2168   6.2169
     6.4816   6.4816   6.5563   6.5563   6.6400   6.6400   6.7360   6.7360
     6.9915   6.9915   7.2043   7.2043   7.2179   7.2179   7.4685   7.4685
     7.4982   7.4982   7.5149   7.5150   7.5389   7.5389   7.8723   7.8723
    10.3432  10.3433  11.2612  11.2612  11.3048  11.3048  11.7360  11.7360
    11.7915  11.7915  11.9222  11.9222  12.7415  12.7415  12.8957  12.8957
    12.9892  12.9892  13.3366  13.3366  13.6632  13.6632  13.7101  13.7101
    15.3455  15.3455  15.5284  15.5284  16.1968  16.1968  16.6669  16.6669
    16.7525  16.7525  17.3118  17.3118  17.8711

          k = 0.0000-0.4725-0.5000 ( 62284 PWs)   bands (ev):

   -66.1482 -66.1482 -66.1482 -66.1482 -66.1473 -66.1473 -66.1472 -66.1472
   -30.5327 -30.5327 -30.5326 -30.5326 -30.4911 -30.4911 -30.4911 -30.4911
   -30.4866 -30.4866 -30.4866 -30.4866 -30.4588 -30.4588 -30.4588 -30.4588
   -30.4561 -30.4561 -30.4560 -30.4560 -30.4276 -30.4276 -30.4276 -30.4276
   -20.3030 -20.3029 -20.3029 -20.3029 -20.3028 -20.3028 -20.3028 -20.3028
   -20.2839 -20.2839 -20.2839 -20.2839 -20.2827 -20.2827 -20.2827 -20.2827
   -20.2813 -20.2813 -20.2813 -20.2813 -20.2795 -20.2795 -20.2795 -20.2795
   -20.2761 -20.2761 -20.2761 -20.2761 -20.2758 -20.2757 -20.2757 -20.2757
   -20.2720 -20.2720 -20.2720 -20.2720 -20.2692 -20.2692 -20.2692 -20.2692
   -20.2691 -20.2691 -20.2691 -20.2691 -20.2651 -20.2651 -20.2651 -20.2651
   -20.2629 -20.2629 -20.2629 -20.2629 -20.2627 -20.2627 -20.2627 -20.2627
    -9.5646  -9.5646  -9.5646  -9.5646  -8.7483  -8.7483  -8.7483  -8.7483
    -8.6794  -8.6794  -8.6794  -8.6794  -8.3028  -8.3028  -8.3028  -8.3028
    -8.2699  -8.2699  -8.2699  -8.2699  -7.7479  -7.7479  -7.7479  -7.7479
     1.1841   1.1841   1.1841   1.1841   2.9165   2.9165   2.9165   2.9165
     3.0463   3.0463   3.0463   3.0463   3.1522   3.1522   3.1522   3.1522
     3.2351   3.2351   3.2351   3.2351   3.4155   3.4155   3.4155   3.4156
     3.6119   3.6119   3.6119   3.6119   4.3723   4.3723   4.3723   4.3723
     4.4790   4.4790   4.4790   4.4790   5.1800   5.1800   5.1800   5.1800
     5.5716   5.5716   5.5717   5.5717   6.2170   6.2170   6.2170   6.2170
     6.4555   6.4555   6.4555   6.4555   6.6041   6.6041   6.6041   6.6041
     7.3346   7.3346   7.3346   7.3346   7.4035   7.4035   7.4035   7.4036
     7.4603   7.4603   7.4603   7.4603   7.6370   7.6370   7.6370   7.6370
    11.1354  11.1354  11.1354  11.1354  11.3310  11.3310  11.3310  11.3310
    12.3166  12.3166  12.3166  12.3166  12.3533  12.3533  12.3533  12.3533
    13.0316  13.0316  13.0316  13.0316  13.6706  13.6706  13.6706  13.6706
    15.4490  15.4490  15.4490  15.4490  16.7942  16.7942  16.7942  16.7942
    17.3948  17.3948  17.3948  17.3948  17.4807

          k = 0.1667 0.0000 0.1667 ( 62234 PWs)   bands (ev):

   -66.1487 -66.1483 -66.1479 -66.1479 -66.1475 -66.1475 -66.1471 -66.1467
   -30.5328 -30.5312 -30.5304 -30.5279 -30.5268 -30.5259 -30.5257 -30.5222
   -30.4905 -30.4901 -30.4890 -30.4875 -30.4487 -30.4461 -30.4460 -30.4412
   -30.4404 -30.4382 -30.4371 -30.4318 -30.4317 -30.4255 -30.4233 -30.4184
   -20.3031 -20.3031 -20.3030 -20.3029 -20.3028 -20.3028 -20.3027 -20.3026
   -20.2846 -20.2844 -20.2835 -20.2834 -20.2832 -20.2831 -20.2824 -20.2821
   -20.2820 -20.2819 -20.2808 -20.2805 -20.2804 -20.2802 -20.2792 -20.2789
   -20.2785 -20.2784 -20.2783 -20.2781 -20.2737 -20.2735 -20.2733 -20.2728
   -20.2726 -20.2725 -20.2717 -20.2715 -20.2712 -20.2709 -20.2704 -20.2701
   -20.2673 -20.2673 -20.2672 -20.2671 -20.2660 -20.2660 -20.2653 -20.2651
   -20.2638 -20.2636 -20.2635 -20.2633 -20.2621 -20.2620 -20.2615 -20.2614
    -9.9153  -9.6566  -9.5239  -9.5127  -9.3037  -9.2829  -9.0601  -9.0434
    -8.9717  -8.7759  -8.7718  -8.7625  -7.9494  -7.9372  -7.9163  -7.9148
    -7.8719  -7.8705  -7.8334  -7.8100  -7.7203  -7.6753  -7.6742  -7.6308
     1.2701   1.2710   1.3846   1.4031   1.4097   1.4343   1.4700   1.7040
     1.7079   1.7152   1.7330   1.9182   2.4623   2.5516   2.6507   2.6541
     2.7379   2.7596   4.0146   4.0313   4.1787   4.1886   4.3696   4.3741
     4.3835   4.3899   4.7016   4.7070   4.7346   4.8317   5.0301   5.2552
     5.3156   5.3430   5.4350   5.5110   5.5633   5.6517   5.6622   5.6737
     5.6869   5.7739   5.7784   5.8855   5.9394   6.0944   6.2764   6.3543
     6.3888   6.4500   6.5366   6.6132   6.6198   6.6920   6.7151   6.7383
     6.7407   6.7943   6.8186   6.8431   6.9266   6.9748   6.9795   7.0725
     7.1410   7.2043   7.9647   7.9690   8.1097   8.1404   8.1536   8.1746
     9.8093   9.8571  10.1953  10.2461  10.2569  10.3173  12.3618  12.3772
    12.4071  12.4186  12.4224  12.4728  12.5564  12.5831  13.0242  13.1105
    13.1719  13.2315  13.4206  13.5235  13.8372  13.9404  14.0608  14.0945
    14.2040  14.3988  14.4935  15.0608  15.3801  15.4603  15.4679  16.3314
    16.3346  16.9995  17.0106  17.1194  17.5119

          k = 0.1667 0.0000 0.3333 ( 62265 PWs)   bands (ev):

   -66.1486 -66.1482 -66.1481 -66.1477 -66.1477 -66.1473 -66.1473 -66.1469
   -30.5301 -30.5276 -30.5260 -30.5233 -30.5147 -30.5143 -30.5106 -30.5100
   -30.4927 -30.4913 -30.4868 -30.4841 -30.4657 -30.4618 -30.4565 -30.4531
   -30.4452 -30.4433 -30.4370 -30.4350 -30.4307 -30.4274 -30.4225 -30.4198
   -20.3031 -20.3030 -20.3029 -20.3029 -20.3029 -20.3028 -20.3027 -20.3027
   -20.2844 -20.2841 -20.2836 -20.2834 -20.2833 -20.2830 -20.2826 -20.2823
   -20.2817 -20.2815 -20.2810 -20.2807 -20.2801 -20.2799 -20.2794 -20.2792
   -20.2785 -20.2784 -20.2783 -20.2782 -20.2738 -20.2736 -20.2734 -20.2730
   -20.2723 -20.2720 -20.2717 -20.2711 -20.2705 -20.2703 -20.2699 -20.2696
   -20.2682 -20.2681 -20.2679 -20.2679 -20.2660 -20.2660 -20.2652 -20.2652
   -20.2635 -20.2632 -20.2632 -20.2630 -20.2625 -20.2623 -20.2620 -20.2619
    -9.7860  -9.5619  -9.5160  -9.3263  -9.3192  -9.0419  -9.0138  -8.9434
    -8.9104  -8.7858  -8.7304  -8.7061  -8.2563  -8.2452  -8.2154  -8.1789
    -7.9166  -7.8960  -7.8670  -7.8462  -7.7125  -7.6857  -7.6661  -7.6404
     1.3944   1.4010   1.4377   1.4450   1.6191   1.6406   1.6866   1.6991
     2.1279   2.1617   2.2818   2.3547   2.6643   2.7123   2.7481   2.8304
     2.8926   2.9787   3.6703   3.7902   3.8332   3.9129   4.1314   4.1443
     4.2148   4.3707   4.5033   4.5708   4.6205   4.7044   4.7153   4.8072
     4.9900   5.0309   5.1108   5.1596   5.3100   5.3600   5.6220   5.6836
     5.6971   5.8313   5.8506   5.9125   5.9424   5.9988   6.0576   6.1184
     6.4103   6.4532   6.5346   6.5394   6.5669   6.6737   6.7113   6.7127
     6.7520   6.8726   6.8801   6.8928   7.0158   7.0924   7.1256   7.1618
     7.3294   7.3832   7.8382   7.8515   8.0054   8.0338   8.1391   8.1429
    10.2048  10.2322  10.4770  10.5293  10.9202  10.9799  11.9468  11.9873
    12.2955  12.5359  12.5705  12.5809  12.5915  12.6234  12.7562  12.8221
    13.0022  13.1661  13.2396  13.3692  13.6746  13.6998  13.9165  13.9549
    14.3204  14.4707  14.7514  15.2753  15.3880  15.8083  15.9858  16.2618
    16.4282  17.2582  17.4396  17.5426  17.5806

          k = 0.1667 0.0000-0.5000 ( 62322 PWs)   bands (ev):

   -66.1483 -66.1483 -66.1479 -66.1479 -66.1475 -66.1475 -66.1471 -66.1471
   -30.5288 -30.5288 -30.5246 -30.5246 -30.4990 -30.4990 -30.4969 -30.4969
   -30.4900 -30.4900 -30.4858 -30.4858 -30.4762 -30.4762 -30.4730 -30.4730
   -30.4443 -30.4443 -30.4362 -30.4362 -30.4292 -30.4292 -30.4212 -30.4212
   -20.3030 -20.3030 -20.3029 -20.3029 -20.3028 -20.3028 -20.3028 -20.3028
   -20.2840 -20.2840 -20.2838 -20.2838 -20.2830 -20.2830 -20.2827 -20.2827
   -20.2813 -20.2813 -20.2811 -20.2811 -20.2797 -20.2797 -20.2796 -20.2795
   -20.2785 -20.2785 -20.2783 -20.2783 -20.2737 -20.2737 -20.2733 -20.2732
   -20.2720 -20.2720 -20.2714 -20.2714 -20.2693 -20.2693 -20.2691 -20.2691
   -20.2691 -20.2691 -20.2688 -20.2688 -20.2660 -20.2660 -20.2652 -20.2652
   -20.2630 -20.2630 -20.2628 -20.2628 -20.2627 -20.2627 -20.2625 -20.2625
    -9.6530  -9.6530  -9.3913  -9.3913  -9.1213  -9.1213  -8.8236  -8.8236
    -8.6566  -8.6565  -8.6314  -8.6314  -8.5697  -8.5697  -8.5125  -8.5125
    -7.8929  -7.8929  -7.8708  -7.8708  -7.6994  -7.6994  -7.6534  -7.6534
     1.4017   1.4017   1.4532   1.4532   1.6657   1.6657   1.6778   1.6778
     2.6782   2.6782   2.8928   2.8928   2.9797   2.9797   3.0806   3.0806
     3.1386   3.1386   3.2776   3.2776   3.4004   3.4004   3.7865   3.7865
     3.9222   3.9222   4.2684   4.2684   4.6189   4.6189   4.8343   4.8343
     4.9449   4.9449   5.0040   5.0040   5.1993   5.1993   5.7257   5.7257
     5.7536   5.7536   5.7952   5.7952   5.9134   5.9134   6.0728   6.0728
     6.3416   6.3416   6.4704   6.4704   6.6643   6.6643   6.7187   6.7187
     6.7982   6.7982   6.9265   6.9265   6.9815   6.9815   7.5480   7.5480
     7.5720   7.5720   7.7400   7.7400   7.7697   7.7697   8.1438   8.1438
    10.2316  10.2316  11.2366  11.2366  11.2936  11.2936  11.6989  11.6989
    11.8180  11.8180  12.5918  12.5918  12.7757  12.7757  12.8550  12.8550
    13.0199  13.0199  13.2323  13.2323  13.3536  13.3536  13.9352  13.9352
    14.4215  14.4215  15.0734  15.0734  15.8582  15.8582  16.0964  16.0964
    16.8170  16.8170  17.7860  17.7860  17.9009

          k = 0.1667 0.1575 0.1667 ( 62255 PWs)   bands (ev):

   -66.1487 -66.1484 -66.1479 -66.1479 -66.1476 -66.1475 -66.1471 -66.1467
   -30.5326 -30.5309 -30.5302 -30.5278 -30.5268 -30.5259 -30.5256 -30.5224
   -30.4869 -30.4866 -30.4855 -30.4840 -30.4497 -30.4476 -30.4474 -30.4411
   -30.4405 -30.4382 -30.4372 -30.4356 -30.4316 -30.4283 -30.4258 -30.4206
   -20.3031 -20.3031 -20.3030 -20.3029 -20.3028 -20.3028 -20.3027 -20.3027
   -20.2846 -20.2844 -20.2835 -20.2833 -20.2832 -20.2831 -20.2824 -20.2821
   -20.2821 -20.2819 -20.2807 -20.2805 -20.2803 -20.2802 -20.2792 -20.2789
   -20.2782 -20.2780 -20.2780 -20.2778 -20.2740 -20.2738 -20.2735 -20.2732
   -20.2726 -20.2725 -20.2717 -20.2716 -20.2713 -20.2710 -20.2705 -20.2702
   -20.2673 -20.2673 -20.2672 -20.2671 -20.2660 -20.2660 -20.2653 -20.2652
   -20.2638 -20.2636 -20.2635 -20.2633 -20.2620 -20.2619 -20.2616 -20.2615
    -9.8897  -9.6676  -9.4966  -9.4844  -9.3108  -9.2903  -9.0589  -9.0444
    -8.8992  -8.7291  -8.7259  -8.7136  -7.9575  -7.9357  -7.9210  -7.9204
    -7.8893  -7.8708  -7.8346  -7.8138  -7.8015  -7.7662  -7.7645  -7.7256
     1.2701   1.2708   1.3964   1.4071   1.4212   1.4365   1.5934   1.7302
     1.8856   1.9256   1.9356   2.0820   2.4693   2.5465   2.7242   2.7252
     2.8096   2.8241   3.8988   3.9217   4.0168   4.0285   4.3335   4.3499
     4.3694   4.3781   4.6685   4.7203   4.7820   4.8488   4.8999   5.2192
     5.2473   5.2513   5.3011   5.3555   5.3961   5.6029   5.6089   5.6439
     5.6823   5.7547   5.8903   5.9080   5.9223   6.0035   6.2395   6.3147
     6.3803   6.3927   6.4951   6.5884   6.6320   6.6873   6.7133   6.7775
     6.7888   6.8536   6.8595   6.8826   6.9407   6.9581   6.9667   7.0757
     7.1452   7.2082   7.9650   7.9658   8.0517   8.0743   8.0906   8.0959
     9.8224   9.8567  10.3508  10.3963  10.4253  10.4660  12.2415  12.2962
    12.3515  12.3656  12.4145  12.4296  12.4716  12.4854  13.0547  13.1188
    13.1986  13.2541  13.4193  13.5267  13.8966  13.9078  13.9692  14.0226
    14.3871  14.7033  14.7408  15.1897  15.4613  15.4660  15.7845  16.2936
    16.2977  16.7741  17.1060  17.1182  17.5377

          k = 0.1667 0.1575 0.3333 ( 62260 PWs)   bands (ev):

   -66.1485 -66.1482 -66.1481 -66.1477 -66.1477 -66.1474 -66.1472 -66.1469
   -30.5297 -30.5272 -30.5261 -30.5235 -30.5144 -30.5142 -30.5102 -30.5098
   -30.4893 -30.4880 -30.4838 -30.4810 -30.4660 -30.4621 -30.4564 -30.4530
   -30.4467 -30.4444 -30.4369 -30.4347 -30.4345 -30.4308 -30.4250 -30.4222
   -20.3030 -20.3030 -20.3029 -20.3029 -20.3029 -20.3028 -20.3027 -20.3027
   -20.2843 -20.2841 -20.2836 -20.2834 -20.2833 -20.2830 -20.2826 -20.2823
   -20.2817 -20.2816 -20.2810 -20.2807 -20.2800 -20.2799 -20.2794 -20.2792
   -20.2782 -20.2781 -20.2780 -20.2779 -20.2741 -20.2739 -20.2737 -20.2734
   -20.2723 -20.2720 -20.2717 -20.2711 -20.2705 -20.2704 -20.2700 -20.2697
   -20.2682 -20.2681 -20.2680 -20.2679 -20.2660 -20.2660 -20.2653 -20.2652
   -20.2634 -20.2633 -20.2632 -20.2630 -20.2624 -20.2623 -20.2621 -20.2619
    -9.7581  -9.5331  -9.5266  -9.3274  -9.2878  -9.0492  -8.9443  -8.9390
    -8.9110  -8.7420  -8.6869  -8.6703  -8.2613  -8.2421  -8.2247  -8.1754
    -7.9180  -7.9034  -7.8689  -7.8551  -7.7980  -7.7746  -7.7612  -7.7359
     1.4177   1.4215   1.4380   1.4445   1.8045   1.8348   1.9104   1.9258
     2.1269   2.1843   2.2816   2.3826   2.7326   2.7330   2.8003   2.8326
     2.9649   3.0392   3.6640   3.7762   3.7855   3.8810   3.9900   4.0515
     4.2644   4.3169   4.4899   4.5561   4.6161   4.6465   4.7381   4.7775
     4.8765   4.9102   4.9516   5.1284   5.1715   5.2315   5.3689   5.6391
     5.6656   5.7224   5.7798   5.8820   5.9391   5.9700   6.0031   6.0456
     6.3167   6.5172   6.5390   6.6507   6.6864   6.6901   6.7219   6.7411
     6.8206   6.8868   6.9189   6.9538   7.0015   7.1025   7.1197   7.1709
     7.3229   7.3769   7.8390   7.8473   7.9530   7.9725   8.0728   8.0783
    10.3404  10.3869  10.4981  10.5524  11.0235  11.0722  11.9460  11.9837
    12.2401  12.4194  12.4972  12.5104  12.5809  12.6453  12.7117  12.7301
    13.0234  13.1580  13.2330  13.3816  13.5753  13.6177  13.9075  13.9265
    14.5741  14.7189  15.1057  15.4863  15.6893  15.7996  15.9978  16.2273
    16.5309  17.1827  17.2136  17.5046  17.5950

          k = 0.1667 0.1575-0.5000 ( 62292 PWs)   bands (ev):

   -66.1483 -66.1483 -66.1480 -66.1480 -66.1475 -66.1475 -66.1471 -66.1471
   -30.5284 -30.5284 -30.5248 -30.5248 -30.4970 -30.4970 -30.4946 -30.4946
   -30.4900 -30.4900 -30.4858 -30.4858 -30.4748 -30.4748 -30.4717 -30.4717
   -30.4456 -30.4456 -30.4360 -30.4360 -30.4329 -30.4329 -30.4237 -30.4237
   -20.3030 -20.3030 -20.3029 -20.3029 -20.3028 -20.3028 -20.3028 -20.3028
   -20.2840 -20.2840 -20.2838 -20.2838 -20.2830 -20.2830 -20.2827 -20.2827
   -20.2813 -20.2813 -20.2811 -20.2811 -20.2797 -20.2797 -20.2795 -20.2795
   -20.2782 -20.2782 -20.2780 -20.2780 -20.2740 -20.2740 -20.2736 -20.2736
   -20.2720 -20.2720 -20.2714 -20.2714 -20.2693 -20.2693 -20.2691 -20.2691
   -20.2691 -20.2691 -20.2689 -20.2689 -20.2660 -20.2660 -20.2653 -20.2653
   -20.2630 -20.2630 -20.2628 -20.2628 -20.2627 -20.2627 -20.2625 -20.2625
    -9.6238  -9.6238  -9.4007  -9.4007  -9.0618  -9.0618  -8.7926  -8.7926
    -8.6631  -8.6630  -8.6342  -8.6342  -8.5555  -8.5555  -8.4983  -8.4983
    -7.8967  -7.8967  -7.8765  -7.8765  -7.7874  -7.7874  -7.7488  -7.7488
     1.4288   1.4288   1.4525   1.4525   1.8496   1.8496   1.9245   1.9245
     2.7424   2.7424   2.9120   2.9120   2.9949   2.9949   3.0848   3.0848
     3.1403   3.1403   3.2878   3.2878   3.3921   3.3922   3.7869   3.7869
     3.9738   3.9738   4.1543   4.1543   4.5665   4.5666   4.7166   4.7166
     4.8845   4.8845   4.9411   4.9411   5.0393   5.0393   5.5014   5.5014
     5.7295   5.7295   5.7501   5.7501   5.8392   5.8392   5.9605   5.9605
     6.4469   6.4469   6.6217   6.6217   6.6632   6.6632   6.7499   6.7499
     6.8381   6.8381   6.9179   6.9179   7.0238   7.0238   7.5505   7.5505
     7.5662   7.5662   7.7099   7.7100   7.7348   7.7349   8.0770   8.0770
    10.3947  10.3947  11.2397  11.2397  11.2934  11.2934  11.7608  11.7608
    11.8763  11.8763  12.4491  12.4491  12.7628  12.7628  12.8287  12.8287
    12.9827  12.9827  13.1396  13.1396  13.3255  13.3255  13.9094  13.9094
    14.6756  14.6756  15.4537  15.4537  15.9703  15.9703  16.0702  16.0702
    16.8527  16.8527  17.6133  17.6133  17.9028

          k = 0.1667 0.3150 0.1667 ( 62249 PWs)   bands (ev):

   -66.1486 -66.1484 -66.1478 -66.1478 -66.1476 -66.1476 -66.1470 -66.1468
   -30.5321 -30.5310 -30.5294 -30.5276 -30.5268 -30.5260 -30.5250 -30.5230
   -30.4773 -30.4771 -30.4759 -30.4742 -30.4544 -30.4535 -30.4527 -30.4462
   -30.4409 -30.4406 -30.4381 -30.4366 -30.4340 -30.4314 -30.4302 -30.4252
   -20.3031 -20.3031 -20.3030 -20.3029 -20.3028 -20.3028 -20.3027 -20.3027
   -20.2846 -20.2844 -20.2834 -20.2833 -20.2832 -20.2832 -20.2823 -20.2821
   -20.2820 -20.2819 -20.2807 -20.2805 -20.2803 -20.2802 -20.2791 -20.2790
   -20.2773 -20.2771 -20.2770 -20.2769 -20.2748 -20.2746 -20.2744 -20.2742
   -20.2725 -20.2725 -20.2716 -20.2715 -20.2714 -20.2712 -20.2705 -20.2703
   -20.2673 -20.2673 -20.2672 -20.2671 -20.2659 -20.2658 -20.2654 -20.2653
   -20.2638 -20.2637 -20.2635 -20.2634 -20.2619 -20.2618 -20.2617 -20.2616
    -9.8270  -9.7011  -9.4348  -9.4198  -9.3334  -9.3139  -9.0558  -9.0475
    -8.6944  -8.5812  -8.5799  -8.5642  -8.1010  -8.0492  -8.0461  -8.0186
    -7.9312  -7.9206  -7.9066  -7.9026  -7.8587  -7.8343  -7.8235  -7.8135
     1.2700   1.2706   1.4043   1.4072   1.4315   1.4362   1.6956   1.7274
     2.4301   2.4853   2.5266   2.5420   2.5554   2.6859   2.9432   2.9579
     3.0138   3.0479   3.5815   3.5932   3.6398   3.6676   4.1295   4.3240
     4.3342   4.3466   4.3652   4.5180   4.5407   4.8092   4.8452   4.9367
     4.9858   4.9974   5.1859   5.2018   5.3613   5.3872   5.4971   5.5023
     5.6865   5.6922   5.7149   5.7441   5.8190   5.8264   6.2705   6.2971
     6.4128   6.4487   6.4715   6.5953   6.6520   6.7177   6.8180   6.8410
     6.9030   6.9151   6.9968   7.0131   7.0486   7.0847   7.1135   7.1310
     7.2053   7.2426   7.8427   7.8556   7.8591   7.8814   7.9720   7.9822
     9.8398   9.8546  10.7720  10.8145  10.8635  10.8795  11.8700  11.9266
    11.9799  11.9932  12.4185  12.4269  12.4451  12.4503  13.1328  13.1523
    13.2957  13.3381  13.4236  13.5362  13.7031  13.7472  13.7647  13.8512
    15.0398  15.3275  15.3570  15.4620  15.4788  15.6877  16.1614  16.1682
    16.2169  16.7792  17.2607  17.4379  17.4457

          k = 0.1667 0.3150 0.3333 ( 62265 PWs)   bands (ev):

   -66.1485 -66.1483 -66.1480 -66.1478 -66.1476 -66.1474 -66.1472 -66.1470
   -30.5288 -30.5270 -30.5260 -30.5241 -30.5139 -30.5138 -30.5095 -30.5095
   -30.4807 -30.4794 -30.4750 -30.4720 -30.4672 -30.4637 -30.4556 -30.4524
   -30.4521 -30.4482 -30.4449 -30.4396 -30.4360 -30.4336 -30.4301 -30.4273
   -20.3030 -20.3030 -20.3029 -20.3029 -20.3029 -20.3028 -20.3027 -20.3027
   -20.2843 -20.2842 -20.2836 -20.2835 -20.2832 -20.2831 -20.2825 -20.2824
   -20.2817 -20.2816 -20.2809 -20.2808 -20.2800 -20.2799 -20.2793 -20.2792
   -20.2773 -20.2772 -20.2771 -20.2770 -20.2749 -20.2747 -20.2745 -20.2744
   -20.2722 -20.2720 -20.2717 -20.2713 -20.2705 -20.2704 -20.2700 -20.2698
   -20.2681 -20.2681 -20.2680 -20.2680 -20.2658 -20.2658 -20.2654 -20.2654
   -20.2634 -20.2633 -20.2632 -20.2630 -20.2624 -20.2622 -20.2621 -20.2620
    -9.6905  -9.5600  -9.4661  -9.3530  -9.2011  -9.0734  -8.9309  -8.9167
    -8.7448  -8.6053  -8.5484  -8.5469  -8.2895  -8.2703  -8.2310  -8.1631
    -8.0464  -8.0382  -8.0080  -7.9811  -7.9016  -7.8847  -7.8521  -7.8382
     1.4290   1.4312   1.4408   1.4440   2.0865   2.1231   2.1965   2.2785
     2.4413   2.5286   2.5533   2.6660   2.7579   2.8208   2.9548   3.0127
     3.1874   3.2349   3.5662   3.5861   3.6251   3.6886   3.7698   3.8410
     4.1071   4.3505   4.3980   4.4357   4.4551   4.5101   4.5826   4.6399
     4.6531   4.8260   4.8952   4.9065   4.9678   5.0110   5.1500   5.1766
     5.3370   5.3850   5.5310   5.6924   5.7156   5.8207   6.0281   6.0414
     6.4758   6.5856   6.6400   6.7688   6.7855   6.8083   6.9079   6.9276
     6.9580   7.0236   7.0486   7.0642   7.0958   7.1509   7.2113   7.2466
     7.3050   7.3557   7.7739   7.7792   7.8062   7.8558   7.8626   7.9082
    10.4674  10.4895  10.8336  10.8655  11.3130  11.3559  11.8844  11.9371
    11.9841  12.0676  12.1911  12.2394  12.5813  12.6416  12.7339  12.7851
    13.0302  13.1736  13.1973  13.3578  13.4245  13.4695  13.7267  13.7605
    15.2197  15.3286  15.7600  15.9145  15.9258  16.0364  16.1390  16.6597
    16.6824  16.8541  17.0627  17.5006  17.6715

          k = 0.1667 0.3150-0.5000 ( 62264 PWs)   bands (ev):

   -66.1482 -66.1482 -66.1480 -66.1480 -66.1474 -66.1474 -66.1472 -66.1472
   -30.5275 -30.5275 -30.5255 -30.5255 -30.4931 -30.4931 -30.4901 -30.4901
   -30.4898 -30.4898 -30.4859 -30.4859 -30.4698 -30.4698 -30.4664 -30.4664
   -30.4508 -30.4508 -30.4429 -30.4429 -30.4349 -30.4349 -30.4289 -30.4289
   -20.3029 -20.3029 -20.3029 -20.3029 -20.3028 -20.3028 -20.3028 -20.3028
   -20.2839 -20.2839 -20.2838 -20.2838 -20.2829 -20.2829 -20.2827 -20.2827
   -20.2812 -20.2812 -20.2811 -20.2811 -20.2796 -20.2796 -20.2795 -20.2795
   -20.2773 -20.2773 -20.2771 -20.2771 -20.2749 -20.2748 -20.2745 -20.2745
   -20.2719 -20.2719 -20.2716 -20.2716 -20.2693 -20.2693 -20.2692 -20.2692
   -20.2691 -20.2691 -20.2690 -20.2690 -20.2658 -20.2658 -20.2654 -20.2654
   -20.2629 -20.2629 -20.2628 -20.2628 -20.2627 -20.2627 -20.2626 -20.2626
    -9.5546  -9.5546  -9.4303  -9.4303  -8.9120  -8.9120  -8.7243  -8.7243
    -8.6852  -8.6852  -8.6435  -8.6435  -8.4850  -8.4850  -8.4390  -8.4390
    -8.0430  -8.0430  -8.0072  -8.0072  -7.8774  -7.8774  -7.8612  -7.8612
     1.4444   1.4444   1.4513   1.4513   2.4295   2.4295   2.5369   2.5369
     2.9007   2.9007   2.9745   2.9745   3.0228   3.0228   3.1138   3.1138
     3.1551   3.1551   3.3244   3.3244   3.3645   3.3645   3.6224   3.6224
     4.0905   4.0905   4.1057   4.1057   4.1504   4.1504   4.3763   4.3763
     4.7675   4.7675   4.8457   4.8457   5.0109   5.0109   5.0513   5.0513
     5.0981   5.0982   5.5950   5.5950   5.7969   5.7969   5.8519   5.8519
     6.6239   6.6239   6.7596   6.7596   6.7809   6.7809   6.8369   6.8369
     7.0260   7.0260   7.0852   7.0852   7.1879   7.1879   7.5424   7.5424
     7.5505   7.5505   7.6120   7.6120   7.6348   7.6348   7.8736   7.8736
    10.8196  10.8196  11.2459  11.2459  11.2975  11.2975  11.8543  11.8543
    12.0559  12.0559  12.1512  12.1512  12.6351  12.6351  12.6589  12.6589
    12.9056  12.9056  12.9908  12.9908  13.3588  13.3588  13.7293  13.7293
    15.2933  15.2933  15.9685  15.9685  16.3147  16.3147  16.4191  16.4191
    16.9973  16.9973  17.2577  17.2577  17.8729

          k = 0.1667-0.4725 0.1667 ( 62220 PWs)   bands (ev):

   -66.1485 -66.1485 -66.1477 -66.1477 -66.1477 -66.1477 -66.1469 -66.1469
   -30.5315 -30.5315 -30.5283 -30.5283 -30.5265 -30.5264 -30.5240 -30.5239
   -30.4650 -30.4650 -30.4643 -30.4643 -30.4633 -30.4632 -30.4603 -30.4603
   -30.4408 -30.4407 -30.4376 -30.4373 -30.4348 -30.4346 -30.4287 -30.4287
   -20.3031 -20.3031 -20.3030 -20.3029 -20.3028 -20.3028 -20.3027 -20.3027
   -20.2845 -20.2845 -20.2834 -20.2834 -20.2832 -20.2832 -20.2822 -20.2822
   -20.2820 -20.2820 -20.2806 -20.2806 -20.2803 -20.2803 -20.2791 -20.2790
   -20.2760 -20.2760 -20.2759 -20.2759 -20.2757 -20.2757 -20.2756 -20.2755
   -20.2725 -20.2725 -20.2715 -20.2715 -20.2714 -20.2714 -20.2704 -20.2704
   -20.2673 -20.2673 -20.2672 -20.2672 -20.2658 -20.2657 -20.2655 -20.2655
   -20.2637 -20.2637 -20.2634 -20.2634 -20.2618 -20.2618 -20.2617 -20.2617
    -9.7568  -9.7567  -9.3747  -9.3746  -9.3570  -9.3569  -9.0517  -9.0516
    -8.4011  -8.4008  -8.3370  -8.3359  -8.3344  -8.3340  -8.3178  -8.3175
    -7.9263  -7.9253  -7.9133  -7.9132  -7.8521  -7.8520  -7.8193  -7.8192
     1.2699   1.2705   1.4062   1.4070   1.4347   1.4351   1.7195   1.7200
     2.5070   2.5077   3.1182   3.1194   3.1537   3.1667   3.2050   3.2113
     3.2943   3.2944   3.3251   3.3326   3.5822   3.5832   3.5911   3.5955
     3.7833   3.7847   4.3310   4.3449   4.3637   4.3720   5.0191   5.0312
     5.1040   5.1091   5.2180   5.2386   5.2514   5.2659   5.4499   5.4551
     5.4968   5.4981   5.6965   5.7215   5.7222   5.7403   6.3080   6.3113
     6.4444   6.4594   6.5541   6.5635   6.6538   6.6591   6.8715   6.8736
     6.8800   6.8933   7.0573   7.0574   7.1379   7.1438   7.4900   7.4917
     7.4994   7.5082   7.5170   7.5323   7.5446   7.5490   7.9738   7.9741
     9.8492   9.8501  11.3197  11.3361  11.3647  11.3898  11.4129  11.4247
    11.4586  11.4600  12.4202  12.4297  12.4427  12.4464  13.1857  13.1859
    13.4649  13.4769  13.4793  13.4828  13.5065  13.5181  13.7055  13.7082
    15.4520  15.4547  15.6334  15.6393  15.8718  15.8819  15.8864  15.8918
    16.5407  16.5416  17.8456  17.8484  17.8810

          k = 0.1667-0.4725 0.3333 ( 62252 PWs)   bands (ev):

   -66.1484 -66.1484 -66.1479 -66.1479 -66.1475 -66.1475 -66.1471 -66.1471
   -30.5278 -30.5278 -30.5251 -30.5250 -30.5137 -30.5137 -30.5093 -30.5093
   -30.4717 -30.4716 -30.4694 -30.4694 -30.4630 -30.4630 -30.4588 -30.4588
   -30.4530 -30.4529 -30.4484 -30.4483 -30.4341 -30.4341 -30.4313 -30.4313
   -20.3030 -20.3030 -20.3029 -20.3029 -20.3028 -20.3028 -20.3027 -20.3027
   -20.2842 -20.2842 -20.2835 -20.2835 -20.2831 -20.2831 -20.2825 -20.2825
   -20.2816 -20.2816 -20.2808 -20.2808 -20.2800 -20.2800 -20.2793 -20.2792
   -20.2761 -20.2761 -20.2760 -20.2760 -20.2758 -20.2758 -20.2757 -20.2757
   -20.2721 -20.2721 -20.2715 -20.2715 -20.2705 -20.2705 -20.2699 -20.2699
   -20.2681 -20.2681 -20.2680 -20.2680 -20.2657 -20.2657 -20.2656 -20.2655
   -20.2634 -20.2634 -20.2631 -20.2631 -20.2623 -20.2623 -20.2621 -20.2621
    -9.6167  -9.6166  -9.3996  -9.3995  -9.1220  -9.1217  -8.9230  -8.9229
    -8.4758  -8.4754  -8.3985  -8.3958  -8.3230  -8.3207  -8.3134  -8.3121
    -8.1916  -8.1902  -8.1271  -8.1258  -7.8974  -7.8968  -7.8482  -7.8480
     1.4315   1.4317   1.4425   1.4437   2.1149   2.1162   2.2652   2.2657
     2.7700   2.7755   3.1221   3.1404   3.1767   3.1780   3.2158   3.2386
     3.2986   3.3015   3.3883   3.3995   3.5576   3.5722   3.6572   3.6721
     3.7697   3.7745   3.8271   3.8448   4.4902   4.4908   4.5671   4.5930
     4.6842   4.7467   4.8175   4.8412   4.9702   4.9809   5.0333   5.1379
     5.2348   5.2896   5.3297   5.4364   5.7285   5.7445   6.0329   6.0404
     6.5598   6.5661   6.7119   6.7350   6.8426   6.8463   6.9476   6.9657
     7.0156   7.0682   7.1929   7.2034   7.2339   7.2460   7.4684   7.4708
     7.4840   7.4903   7.5156   7.5290   7.5300   7.5489   7.8585   7.8610
    10.4870  10.4873  11.3794  11.3822  11.4281  11.4306  11.7439  11.7453
    11.7777  11.8007  11.9697  12.0092  12.5812  12.6329  12.8788  12.9153
    12.9824  13.0120  13.1920  13.2871  13.4787  13.4970  13.5511  13.6138
    15.6152  15.6306  15.8198  15.8304  16.2491  16.2751  16.6435  16.6716
    16.7820  16.7848  17.3452  17.3751  17.8039

          k = 0.1667-0.4725-0.5000 ( 62232 PWs)   bands (ev):

   -66.1481 -66.1481 -66.1481 -66.1481 -66.1473 -66.1473 -66.1473 -66.1473
   -30.5264 -30.5264 -30.5264 -30.5264 -30.4908 -30.4908 -30.4908 -30.4908
   -30.4868 -30.4868 -30.4868 -30.4868 -30.4604 -30.4604 -30.4603 -30.4603
   -30.4556 -30.4556 -30.4556 -30.4556 -30.4329 -30.4329 -30.4329 -30.4329
   -20.3029 -20.3029 -20.3029 -20.3029 -20.3028 -20.3028 -20.3028 -20.3028
   -20.2839 -20.2839 -20.2839 -20.2839 -20.2828 -20.2828 -20.2828 -20.2828
   -20.2812 -20.2812 -20.2812 -20.2812 -20.2796 -20.2796 -20.2796 -20.2796
   -20.2761 -20.2761 -20.2761 -20.2761 -20.2758 -20.2758 -20.2758 -20.2758
   -20.2718 -20.2717 -20.2717 -20.2717 -20.2693 -20.2693 -20.2693 -20.2692
   -20.2691 -20.2691 -20.2690 -20.2690 -20.2656 -20.2656 -20.2656 -20.2656
   -20.2628 -20.2628 -20.2628 -20.2628 -20.2627 -20.2627 -20.2626 -20.2626
    -9.4826  -9.4826  -9.4825  -9.4825  -8.7674  -8.7674  -8.7658  -8.7657
    -8.6653  -8.6653  -8.6629  -8.6629  -8.3027  -8.3027  -8.2983  -8.2982
    -8.2771  -8.2770  -8.2727  -8.2727  -7.8730  -7.8730  -7.8725  -7.8725
     1.4487   1.4487   1.4496   1.4496   2.9173   2.9173   2.9215   2.9215
     3.0292   3.0292   3.0572   3.0572   3.1797   3.1797   3.1914   3.1914
     3.2854   3.2854   3.3001   3.3001   3.4414   3.4414   3.4443   3.4443
     3.6329   3.6329   3.6513   3.6513   4.3687   4.3687   4.3750   4.3750
     4.4646   4.4646   4.4738   4.4738   4.8399   4.8399   4.9573   4.9573
     5.2291   5.2291   5.3461   5.3461   5.8003   5.8003   5.8150   5.8150
     6.7060   6.7060   6.7257   6.7257   6.8320   6.8320   6.8520   6.8520
     7.3171   7.3171   7.3592   7.3592   7.3891   7.3891   7.4194   7.4195
     7.4506   7.4506   7.4845   7.4845   7.6272   7.6272   7.6533   7.6533
    11.2015  11.2015  11.2361  11.2361  11.4272  11.4272  11.4856  11.4856
    12.3042  12.3042  12.3295  12.3295  12.3511  12.3511  12.3629  12.3629
    12.8858  12.8858  12.9577  12.9577  13.4859  13.4859  13.5336  13.5336
    15.7375  15.7375  15.7543  15.7543  16.8537  16.8537  16.8661  16.8661
    17.4004  17.4015  17.4154  17.4154  17.4615

          k = 0.3333 0.0000 0.3333 ( 62316 PWs)   bands (ev):

   -66.1484 -66.1480 -66.1479 -66.1479 -66.1475 -66.1475 -66.1474 -66.1471
   -30.5157 -30.5140 -30.5134 -30.5129 -30.5110 -30.5106 -30.5080 -30.5059
   -30.4945 -30.4893 -30.4877 -30.4809 -30.4653 -30.4626 -30.4613 -30.4601
   -30.4593 -30.4539 -30.4522 -30.4479 -30.4296 -30.4264 -30.4256 -30.4228
   -20.3030 -20.3030 -20.3029 -20.3029 -20.3028 -20.3028 -20.3028 -20.3027
   -20.2841 -20.2839 -20.2835 -20.2835 -20.2832 -20.2832 -20.2829 -20.2825
   -20.2813 -20.2811 -20.2806 -20.2804 -20.2803 -20.2802 -20.2797 -20.2795
   -20.2785 -20.2784 -20.2784 -20.2783 -20.2737 -20.2735 -20.2735 -20.2732
   -20.2716 -20.2715 -20.2708 -20.2707 -20.2705 -20.2705 -20.2693 -20.2691
   -20.2687 -20.2684 -20.2678 -20.2677 -20.2672 -20.2670 -20.2663 -20.2662
   -20.2633 -20.2631 -20.2631 -20.2629 -20.2624 -20.2623 -20.2620 -20.2618
    -9.6373  -9.3792  -9.3730  -9.3350  -9.0812  -9.0633  -9.0607  -8.8385
    -8.8199  -8.7184  -8.7105  -8.7066  -8.3231  -8.2436  -8.2346  -8.2260
    -8.2170  -8.2152  -8.1342  -8.1135  -7.7051  -7.6783  -7.6769  -7.6508
     1.5731   1.6162   1.6176   1.6655   1.9933   2.0037   2.1327   2.1562
     2.1703   2.1891   2.3959   2.4757   2.8888   2.8916   2.9253   2.9355
     3.0949   3.1271   3.7041   3.7662   3.7819   3.8811   4.0092   4.0094
     4.1617   4.1646   4.1851   4.2824   4.3055   4.3265   4.4988   4.5166
     4.7619   4.7895   4.9233   4.9393   5.0364   5.0419   5.2058   5.3743
     5.3763   5.4502   5.4777   5.7463   5.9850   5.9854   6.0119   6.1298
     6.4549   6.4751   6.5219   6.5324   6.5334   6.5609   6.5616   6.6620
     7.0306   7.1423   7.1455   7.1726   7.1800   7.2004   7.3090   7.3328
     7.3470   7.4971   7.7636   7.7663   7.9631   8.0135   8.0356   8.0671
    10.7575  10.8537  10.8865  10.9329  10.9673  11.1695  12.1166  12.1427
    12.1683  12.1873  12.3294  12.4189  12.5881  12.6260  12.7825  12.8083
    12.8363  12.9126  12.9282  13.1033  13.5844  13.6468  13.6653  13.7485
    14.4409  14.7041  14.7105  15.1787  15.7684  16.4327  16.4577  16.7867
    16.7872  17.2235  17.2340  17.7190  17.7497

          k = 0.3333 0.0000-0.5000 ( 62288 PWs)   bands (ev):

   -66.1482 -66.1482 -66.1478 -66.1478 -66.1477 -66.1477 -66.1473 -66.1473
   -30.5136 -30.5136 -30.5080 -30.5080 -30.4995 -30.4995 -30.4946 -30.4946
   -30.4891 -30.4891 -30.4867 -30.4867 -30.4777 -30.4777 -30.4721 -30.4721
   -30.4606 -30.4606 -30.4516 -30.4516 -30.4282 -30.4282 -30.4243 -30.4243
   -20.3029 -20.3029 -20.3029 -20.3029 -20.3029 -20.3029 -20.3028 -20.3028
   -20.2838 -20.2838 -20.2836 -20.2836 -20.2832 -20.2832 -20.2829 -20.2829
   -20.2810 -20.2809 -20.2807 -20.2807 -20.2800 -20.2800 -20.2798 -20.2798
   -20.2785 -20.2785 -20.2783 -20.2783 -20.2737 -20.2737 -20.2734 -20.2734
   -20.2712 -20.2712 -20.2708 -20.2708 -20.2697 -20.2697 -20.2694 -20.2694
   -20.2688 -20.2688 -20.2684 -20.2684 -20.2671 -20.2671 -20.2663 -20.2663
   -20.2629 -20.2629 -20.2627 -20.2627 -20.2626 -20.2626 -20.2624 -20.2624
    -9.4776  -9.4776  -9.1751  -9.1751  -9.1542  -9.1542  -8.7386  -8.7386
    -8.6999  -8.6999  -8.6024  -8.6024  -8.5536  -8.5536  -8.5205  -8.5205
    -8.1942  -8.1942  -8.1911  -8.1911  -7.6919  -7.6919  -7.6640  -7.6640
     1.5949   1.5949   1.6433   1.6433   2.1607   2.1607   2.1780   2.1780
     2.8523   2.8523   2.9263   2.9263   2.9675   2.9675   3.0961   3.0961
     3.1756   3.1756   3.5089   3.5089   3.6213   3.6213   3.7863   3.7863
     3.8968   3.8968   4.0315   4.0315   4.1705   4.1705   4.3159   4.3159
     4.6068   4.6068   4.8862   4.8862   4.9275   4.9275   5.0720   5.0720
[...]
   -20.4414 -20.4414 -20.4413 -20.4413 -20.4386 -20.4386 -20.4384 -20.4384
   -20.4350 -20.4350 -20.4348 -20.4348 -20.4326 -20.4326 -20.4326 -20.4325
   -20.4312 -20.4312 -20.4311 -20.4311 -20.4299 -20.4299 -20.4298 -20.4297
   -20.4267 -20.4267 -20.4267 -20.4266 -20.4251 -20.4251 -20.4247 -20.4247
    -9.6137  -9.6137  -9.4480  -9.4480  -9.0931  -9.0931  -8.8374  -8.8374
    -8.7291  -8.7291  -8.6681  -8.6681  -8.5979  -8.5979  -8.5469  -8.5469
    -8.2452  -8.2452  -8.2163  -8.2163  -7.9600  -7.9599  -7.9455  -7.9455
     1.4242   1.4242   1.4337   1.4337   2.2036   2.2036   2.3169   2.3169
     2.8333   2.8333   2.9068   2.9068   2.9507   2.9507   3.0673   3.0673
     3.1173   3.1173   3.3197   3.3197   3.3419   3.3419   3.5422   3.5422
     3.9334   3.9334   3.9633   3.9633   4.0641   4.0641   4.2685   4.2685
     4.6234   4.6235   4.7037   4.7037   4.8773   4.8773   4.9040   4.9040
     4.9848   4.9848   5.4174   5.4174   5.6972   5.6973   5.7317   5.7317
     6.5470   6.5470   6.6795   6.6795   6.7114   6.7114   6.7407   6.7407
     6.8772   6.8772   6.9463   6.9463   7.0625   7.0626   7.4223   7.4223
     7.4477   7.4477   7.5128   7.5128   7.5376   7.5376   7.7538   7.7538
    10.6693  10.6693  11.0655  11.0655  11.1072  11.1072  11.6564  11.6564
    11.8732  11.8733  12.0303  12.0303  12.4748  12.4748  12.5458  12.5458
    12.7005  12.7005  12.8146  12.8146  13.1426  13.1426  13.5678  13.5678
    15.0932  15.0932  15.6393  15.6393  16.2461  16.2461  16.3478  16.3478
    16.6750  16.6750  17.0863  17.0863  17.6979

          k = 0.3309 0.4760 0.1653 ( 62768 PWs)   bands (ev):

   -66.3045 -66.3045 -66.3040 -66.3040 -66.3038 -66.3037 -66.3033 -66.3033
   -30.6558 -30.6557 -30.6526 -30.6524 -30.6500 -30.6499 -30.6449 -30.6449
   -30.6419 -30.6418 -30.6366 -30.6365 -30.6211 -30.6210 -30.6188 -30.6187
   -30.5807 -30.5807 -30.5778 -30.5778 -30.5643 -30.5642 -30.5618 -30.5617
   -20.4675 -20.4675 -20.4674 -20.4674 -20.4672 -20.4672 -20.4671 -20.4671
   -20.4495 -20.4494 -20.4488 -20.4487 -20.4483 -20.4483 -20.4477 -20.4477
   -20.4462 -20.4462 -20.4453 -20.4453 -20.4448 -20.4448 -20.4440 -20.4440
   -20.4401 -20.4401 -20.4400 -20.4399 -20.4399 -20.4399 -20.4398 -20.4397
   -20.4353 -20.4353 -20.4347 -20.4346 -20.4336 -20.4336 -20.4322 -20.4322
   -20.4317 -20.4317 -20.4303 -20.4303 -20.4300 -20.4299 -20.4291 -20.4291
   -20.4269 -20.4268 -20.4266 -20.4266 -20.4250 -20.4249 -20.4249 -20.4249
    -9.6416  -9.6415  -9.4324  -9.4323  -9.1566  -9.1564  -8.9287  -8.9286
    -8.6872  -8.6863  -8.5832  -8.5820  -8.5350  -8.5333  -8.5317  -8.5311
    -8.2729  -8.2727  -8.2127  -8.2116  -7.9767  -7.9766  -7.9297  -7.9296
     1.4184   1.4225   1.4232   1.4269   2.0990   2.0999   2.2387   2.2411
     2.8074   2.8092   2.9855   2.9873   3.0358   3.0408   3.0969   3.1124
     3.1605   3.1731   3.2622   3.2908   3.3828   3.3998   3.5342   3.5349
     3.6131   3.6241   3.7819   3.8290   4.3294   4.3545   4.4915   4.4988
     4.5581   4.5945   4.7108   4.7205   4.8306   4.8546   4.8791   4.9468
     5.0182   5.0784   5.2254   5.2936   5.6143   5.6288   5.9639   5.9650
     6.5197   6.5289   6.6024   6.6162   6.7519   6.7543   6.8672   6.8862
     6.9644   6.9807   7.0407   7.0760   7.1210   7.1235   7.3275   7.3337
     7.3615   7.3869   7.3917   7.4065   7.4242   7.4261   7.7739   7.7764
    10.3283  10.3319  11.2331  11.2503  11.2657  11.2741  11.6435  11.6499
    11.6568  11.6739  11.7597  11.8113  12.3659  12.4136  12.6621  12.6909
    12.8014  12.8213  13.0166  13.1170  13.2816  13.3113  13.3227  13.3922
    15.3180  15.3363  15.5535  15.5705  15.9868  16.0069  16.4080  16.4358
    16.7345  16.7345  17.2319  17.2804  17.7047

          k =-0.4963 0.4760 0.1653 ( 62812 PWs)   bands (ev):

   -66.3043 -66.3043 -66.3042 -66.3042 -66.3036 -66.3035 -66.3035 -66.3035
   -30.6540 -30.6540 -30.6536 -30.6536 -30.6473 -30.6473 -30.6465 -30.6465
   -30.6387 -30.6387 -30.6382 -30.6382 -30.6024 -30.6024 -30.6014 -30.6014
   -30.5993 -30.5993 -30.5984 -30.5984 -30.5632 -30.5632 -30.5631 -30.5631
   -20.4675 -20.4675 -20.4675 -20.4675 -20.4672 -20.4672 -20.4671 -20.4671
   -20.4491 -20.4491 -20.4491 -20.4491 -20.4480 -20.4480 -20.4480 -20.4480
   -20.4458 -20.4457 -20.4457 -20.4457 -20.4444 -20.4444 -20.4444 -20.4444
   -20.4401 -20.4401 -20.4400 -20.4400 -20.4399 -20.4399 -20.4398 -20.4398
   -20.4350 -20.4350 -20.4349 -20.4349 -20.4326 -20.4326 -20.4326 -20.4325
   -20.4312 -20.4312 -20.4311 -20.4311 -20.4299 -20.4299 -20.4298 -20.4298
   -20.4267 -20.4267 -20.4267 -20.4267 -20.4249 -20.4249 -20.4249 -20.4249
    -9.5171  -9.5171  -9.5121  -9.5121  -8.8731  -8.8731  -8.8521  -8.8521
    -8.7202  -8.7202  -8.7029  -8.7029  -8.5066  -8.5066  -8.4766  -8.4766
    -8.4642  -8.4642  -8.4359  -8.4359  -7.9535  -7.9535  -7.9533  -7.9533
     1.4292   1.4292   1.4336   1.4337   2.8158   2.8158   2.8871   2.8871
     2.9548   2.9548   2.9605   2.9605   3.0664   3.0664   3.0879   3.0879
     3.2118   3.2118   3.2721   3.2721   3.3256   3.3256   3.3887   3.3887
     3.3945   3.3945   3.6052   3.6052   4.1937   4.1937   4.2389   4.2389
     4.2656   4.2656   4.3381   4.3382   4.7541   4.7542   4.8968   4.8968
     5.0387   5.0387   5.1691   5.1691   5.6992   5.6992   5.7131   5.7131
     6.6299   6.6299   6.6817   6.6817   6.7328   6.7328   6.7721   6.7721
     7.1636   7.1636   7.1847   7.1847   7.2603   7.2603   7.3003   7.3003
     7.3483   7.3483   7.4151   7.4151   7.5280   7.5280   7.5581   7.5581
    11.0425  11.0425  11.0754  11.0754  11.2535  11.2535  11.3108  11.3108
    12.1024  12.1024  12.1557  12.1557  12.2279  12.2279  12.2595  12.2595
    12.6765  12.6765  12.7481  12.7481  13.2915  13.2915  13.3410  13.3410
    15.4561  15.4561  15.4767  15.4767  16.6601  16.6602  16.7467  16.7467
    17.2110  17.2110  17.2815  17.2823  17.3158

          k =-0.4963 0.0000 0.3307 ( 62824 PWs)   bands (ev):

   -66.3043 -66.3043 -66.3039 -66.3039 -66.3039 -66.3039 -66.3035 -66.3035
   -30.6798 -30.6798 -30.6777 -30.6777 -30.6335 -30.6334 -30.6244 -30.6244
   -30.6215 -30.6215 -30.6185 -30.6185 -30.6029 -30.6029 -30.6027 -30.6027
   -30.5969 -30.5968 -30.5925 -30.5925 -30.5781 -30.5781 -30.5777 -30.5777
   -20.4674 -20.4674 -20.4674 -20.4674 -20.4672 -20.4672 -20.4672 -20.4672
   -20.4490 -20.4490 -20.4488 -20.4488 -20.4484 -20.4484 -20.4481 -20.4481
   -20.4455 -20.4455 -20.4454 -20.4453 -20.4448 -20.4448 -20.4445 -20.4445
   -20.4428 -20.4428 -20.4427 -20.4427 -20.4372 -20.4372 -20.4371 -20.4371
   -20.4344 -20.4344 -20.4342 -20.4342 -20.4330 -20.4330 -20.4329 -20.4329
   -20.4311 -20.4311 -20.4310 -20.4310 -20.4302 -20.4301 -20.4300 -20.4300
   -20.4265 -20.4265 -20.4262 -20.4262 -20.4256 -20.4256 -20.4251 -20.4250
    -9.6165  -9.6165  -9.3963  -9.3963  -9.1749  -9.1749  -8.8631  -8.8631
    -8.7300  -8.7300  -8.6383  -8.6383  -8.6034  -8.6034  -8.5838  -8.5838
    -8.2565  -8.2565  -8.2500  -8.2500  -7.8884  -7.8884  -7.8650  -7.8650
     1.3296   1.3296   1.3700   1.3700   2.1225   2.1225   2.1420   2.1420
     2.7568   2.7568   2.8459   2.8459   2.8782   2.8782   3.0454   3.0454
     3.1342   3.1342   3.5171   3.5171   3.5927   3.5927   3.7110   3.7110
     3.7547   3.7547   3.9208   3.9208   4.0270   4.0270   4.2850   4.2850
     4.5784   4.5784   4.8076   4.8076   4.9170   4.9170   5.0082   5.0082
     5.2325   5.2325   5.4826   5.4826   5.8233   5.8233   5.9164   5.9164
     6.2434   6.2434   6.2451   6.2451   6.3279   6.3279   6.4696   6.4696
     7.0547   7.0547   7.1508   7.1508   7.2411   7.2411   7.4535   7.4535
     7.4775   7.4775   7.5984   7.5984   7.6333   7.6333   7.9068   7.9068
    10.7318  10.7318  11.2814  11.2814  11.3567  11.3567  11.5062  11.5062
    11.6719  11.6719  12.1850  12.1850  12.3015  12.3016  12.5023  12.5023
    12.7120  12.7120  13.0888  13.0888  13.1174  13.1174  13.5341  13.5342
    14.5574  14.5574  14.9663  14.9663  16.0737  16.0737  16.5452  16.5452
    16.8707  16.8707  17.2121  17.2121  17.7141

          k =-0.4963-0.1587 0.3307 ( 62798 PWs)   bands (ev):

   -66.3043 -66.3043 -66.3039 -66.3039 -66.3039 -66.3039 -66.3035 -66.3035
   -30.6758 -30.6758 -30.6736 -30.6736 -30.6345 -30.6344 -30.6251 -30.6250
   -30.6240 -30.6240 -30.6201 -30.6201 -30.6027 -30.6027 -30.6026 -30.6026
   -30.5976 -30.5975 -30.5941 -30.5940 -30.5782 -30.5782 -30.5781 -30.5781
   -20.4674 -20.4674 -20.4674 -20.4674 -20.4672 -20.4672 -20.4672 -20.4672
   -20.4490 -20.4490 -20.4488 -20.4488 -20.4484 -20.4483 -20.4481 -20.4481
   -20.4455 -20.4455 -20.4454 -20.4453 -20.4448 -20.4448 -20.4445 -20.4445
   -20.4424 -20.4424 -20.4424 -20.4424 -20.4376 -20.4376 -20.4375 -20.4375
   -20.4344 -20.4344 -20.4342 -20.4342 -20.4330 -20.4330 -20.4329 -20.4329
   -20.4311 -20.4311 -20.4310 -20.4310 -20.4302 -20.4302 -20.4300 -20.4300
   -20.4265 -20.4265 -20.4263 -20.4262 -20.4256 -20.4256 -20.4251 -20.4251
    -9.5653  -9.5653  -9.3277  -9.3277  -9.1867  -9.1867  -8.8394  -8.8394
    -8.7408  -8.7408  -8.6359  -8.6359  -8.5999  -8.5999  -8.5798  -8.5798
    -8.2551  -8.2551  -8.2546  -8.2545  -7.9870  -7.9870  -7.9643  -7.9643
     1.5632   1.5632   1.6048   1.6048   2.1215   2.1216   2.1512   2.1512
     2.8068   2.8068   2.8807   2.8807   2.9055   2.9055   3.0461   3.0461
     3.1323   3.1323   3.5290   3.5290   3.5907   3.5907   3.6984   3.6984
     3.7995   3.7995   3.9406   3.9406   4.0474   4.0475   4.2917   4.2917
     4.4734   4.4734   4.6125   4.6125   4.8575   4.8575   4.8843   4.8843
     4.9991   4.9991   5.2327   5.2327   5.6088   5.6088   5.7133   5.7133
     6.4002   6.4002   6.4336   6.4336   6.4920   6.4920   6.6303   6.6303
     7.0600   7.0600   7.1443   7.1443   7.2424   7.2424   7.4490   7.4490
     7.4710   7.4710   7.5777   7.5777   7.6106   7.6106   7.8503   7.8503
    10.8331  10.8332  11.2953  11.2953  11.3666  11.3666  11.5680  11.5680
    11.7274  11.7274  12.1993  12.1993  12.2994  12.2994  12.5242  12.5242
    12.5769  12.5769  12.9661  12.9661  12.9940  12.9941  13.4259  13.4259
    14.9184  14.9184  15.3489  15.3490  16.1654  16.1654  16.5409  16.5409
    16.8779  16.8779  17.2392  17.2392  17.5600

          k =-0.4963-0.3173 0.3307 ( 62758 PWs)   bands (ev):

   -66.3042 -66.3042 -66.3040 -66.3040 -66.3038 -66.3038 -66.3036 -66.3036
   -30.6651 -30.6651 -30.6626 -30.6626 -30.6395 -30.6395 -30.6338 -30.6338
   -30.6247 -30.6247 -30.6233 -30.6233 -30.6023 -30.6023 -30.6019 -30.6019
   -30.5990 -30.5990 -30.5971 -30.5971 -30.5787 -30.5787 -30.5785 -30.5785
   -20.4674 -20.4674 -20.4674 -20.4674 -20.4672 -20.4672 -20.4672 -20.4672
   -20.4489 -20.4489 -20.4488 -20.4488 -20.4483 -20.4483 -20.4482 -20.4482
   -20.4455 -20.4455 -20.4454 -20.4454 -20.4447 -20.4447 -20.4446 -20.4446
   -20.4414 -20.4414 -20.4414 -20.4413 -20.4386 -20.4386 -20.4385 -20.4385
   -20.4344 -20.4344 -20.4343 -20.4342 -20.4330 -20.4330 -20.4329 -20.4329
   -20.4310 -20.4310 -20.4309 -20.4309 -20.4302 -20.4302 -20.4301 -20.4301
   -20.4265 -20.4264 -20.4263 -20.4263 -20.4255 -20.4255 -20.4252 -20.4252
    -9.4396  -9.4396  -9.2273  -9.2273  -9.1426  -9.1426  -8.7943  -8.7943
    -8.7521  -8.7521  -8.6348  -8.6348  -8.5827  -8.5827  -8.5553  -8.5553
    -8.2960  -8.2960  -8.2498  -8.2498  -8.2261  -8.2260  -8.1727  -8.1727
     2.0442   2.0442   2.1179   2.1179   2.2156   2.2156   2.3316   2.3316
     2.8829   2.8829   2.9394   2.9394   3.0216   3.0216   3.0739   3.0739
     3.1481   3.1481   3.4784   3.4784   3.5833   3.5834   3.6457   3.6457
     3.9074   3.9074   3.9829   3.9829   4.0512   4.0512   4.1460   4.1460
     4.2209   4.2209   4.3683   4.3683   4.5112   4.5112   4.7464   4.7464
     4.8098   4.8098   4.8797   4.8797   4.9260   4.9260   5.1949   5.1949
     6.7518   6.7518   6.8008   6.8008   6.8548   6.8548   6.9096   6.9096
     7.0684   7.0684   7.1306   7.1306   7.2576   7.2576   7.4077   7.4077
     7.4388   7.4388   7.5274   7.5275   7.5393   7.5393   7.6879   7.6879
    11.1125  11.1125  11.3181  11.3181  11.3971  11.3971  11.7401  11.7401
    11.9089  11.9089  12.1900  12.1900  12.2450  12.2450  12.2885  12.2885
    12.5950  12.5950  12.6759  12.6759  12.7192  12.7192  13.1627  13.1628
    15.7167  15.7167  16.2655  16.2656  16.4553  16.4554  16.5199  16.5199
    16.9217  16.9218  17.1758  17.1758  17.4012

          k =-0.4963 0.4760 0.3307 ( 62752 PWs)   bands (ev):

   -66.3041 -66.3041 -66.3041 -66.3041 -66.3037 -66.3037 -66.3037 -66.3037
   -30.6515 -30.6515 -30.6508 -30.6508 -30.6482 -30.6482 -30.6474 -30.6474
   -30.6248 -30.6248 -30.6246 -30.6246 -30.6019 -30.6019 -30.6011 -30.6011
   -30.5999 -30.5999 -30.5989 -30.5989 -30.5788 -30.5788 -30.5787 -30.5787
   -20.4674 -20.4674 -20.4674 -20.4674 -20.4672 -20.4672 -20.4672 -20.4672
   -20.4489 -20.4489 -20.4489 -20.4489 -20.4482 -20.4482 -20.4482 -20.4482
   -20.4454 -20.4454 -20.4454 -20.4454 -20.4447 -20.4446 -20.4446 -20.4446
   -20.4401 -20.4401 -20.4400 -20.4400 -20.4400 -20.4400 -20.4399 -20.4399
   -20.4343 -20.4343 -20.4343 -20.4343 -20.4329 -20.4329 -20.4329 -20.4329
   -20.4310 -20.4310 -20.4309 -20.4309 -20.4302 -20.4302 -20.4302 -20.4302
   -20.4264 -20.4264 -20.4264 -20.4264 -20.4254 -20.4254 -20.4254 -20.4253
    -9.3138  -9.3138  -9.3063  -9.3063  -8.9319  -8.9319  -8.9124  -8.9124
    -8.6670  -8.6670  -8.6504  -8.6504  -8.5000  -8.4999  -8.4816  -8.4816
    -8.4594  -8.4594  -8.4446  -8.4445  -8.2365  -8.2365  -8.2359  -8.2359
     2.1038   2.1038   2.1126   2.1126   2.8310   2.8310   2.8742   2.8742
     2.9442   2.9442   2.9496   2.9496   3.0949   3.0949   3.1109   3.1109
     3.2554   3.2554   3.2959   3.2959   3.4648   3.4648   3.4922   3.4922
     3.6371   3.6371   3.7318   3.7318   4.1713   4.1713   4.1886   4.1886
     4.2314   4.2314   4.2864   4.2864   4.3684   4.3684   4.4610   4.4610
     4.5670   4.5670   4.6969   4.6969   4.9041   4.9041   4.9222   4.9222
     6.9037   6.9037   6.9811   6.9811   7.0497   7.0497   7.0559   7.0559
     7.1558   7.1558   7.2023   7.2023   7.2675   7.2675   7.2895   7.2895
     7.3741   7.3741   7.4455   7.4455   7.5186   7.5186   7.5575   7.5575
    11.2943  11.2943  11.3232  11.3232  11.6006  11.6006  11.6739  11.6739
    12.0712  12.0712  12.1431  12.1431  12.1853  12.1853  12.2481  12.2481
    12.3696  12.3696  12.4919  12.4919  12.8343  12.8343  12.9081  12.9081
    16.2600  16.2600  16.3128  16.3128  16.8582  16.8582  16.9194  16.9194
    17.1907  17.1907  17.3022  17.3022  17.3087

     the Fermi energy is     8.8059 ev

!    total energy              =   -6261.10269031 Ry
     Harris-Foulkes estimate   =   -6261.10269031 Ry
     estimated scf accuracy    <          1.1E-11 Ry

     The total energy is the sum of the following terms:

     one-electron contribution =   -4753.35731632 Ry
     hartree contribution      =    2611.67848151 Ry
     xc contribution           =    -965.68451807 Ry
     ewald contribution        =   -3153.73933743 Ry
     smearing contrib. (-TS)   =      -0.00000000 Ry

     convergence has been achieved in  15 iterations

     Forces acting on atoms (cartesian axes, Ry/au):

     atom    1 type  1   force =    -0.00247690    0.00259907    0.00255056
     atom    2 type  1   force =     0.00247690   -0.00259907   -0.00255056
     atom    3 type  1   force =     0.00247690   -0.00259907    0.00255056
     atom    4 type  1   force =    -0.00247690    0.00259907   -0.00255056
     atom    5 type  1   force =     0.00247690    0.00259907   -0.00255056
     atom    6 type  1   force =    -0.00247690   -0.00259907    0.00255056
     atom    7 type  1   force =    -0.00247690   -0.00259907   -0.00255056
     atom    8 type  1   force =     0.00247690    0.00259907    0.00255056
     atom    9 type  2   force =     0.00045265   -0.02191489    0.00044099
     atom   10 type  2   force =    -0.00045265    0.02191489   -0.00044099
     atom   11 type  2   force =    -0.00045265    0.02191489    0.00044099
     atom   12 type  2   force =     0.00045265   -0.02191489   -0.00044099
     atom   13 type  2   force =    -0.00045265   -0.02191489   -0.00044099
     atom   14 type  2   force =     0.00045265    0.02191489    0.00044099
     atom   15 type  2   force =     0.00045265    0.02191489   -0.00044099
     atom   16 type  2   force =    -0.00045265   -0.02191489    0.00044099
     atom   17 type  2   force =    -0.00075014   -0.00121037   -0.00136522
     atom   18 type  2   force =     0.00075014    0.00121037    0.00136522
     atom   19 type  2   force =     0.00075014    0.00121037   -0.00136522
     atom   20 type  2   force =    -0.00075014   -0.00121037    0.00136522
     atom   21 type  2   force =     0.00075014   -0.00121037    0.00136522
     atom   22 type  2   force =    -0.00075014    0.00121037   -0.00136522
     atom   23 type  2   force =    -0.00075014    0.00121037    0.00136522
     atom   24 type  2   force =     0.00075014   -0.00121037   -0.00136522
     atom   25 type  2   force =    -0.00192174   -0.00074676    0.00184895
     atom   26 type  2   force =     0.00192174    0.00074676   -0.00184895
     atom   27 type  2   force =     0.00192174    0.00074676    0.00184895
     atom   28 type  2   force =    -0.00192174   -0.00074676   -0.00184895
     atom   29 type  2   force =     0.00192174   -0.00074676   -0.00184895
     atom   30 type  2   force =    -0.00192174    0.00074676    0.00184895
     atom   31 type  2   force =    -0.00192174    0.00074676   -0.00184895
     atom   32 type  2   force =     0.00192174   -0.00074676    0.00184895

     Total force =     0.000000     Total SCF correction =     0.000000


     Computing stress (Cartesian axis) and pressure

          total   stress  (Ry/bohr**3)                   (kbar)     P=    0.26
   0.00000274   0.00000000   0.00000000          0.40      0.00      0.00
   0.00000000  -0.00000028   0.00000000          0.00     -0.04      0.00
   0.00000000   0.00000000   0.00000294          0.00      0.00      0.43


     Writing output data file Landau_15.save
 
     init_run     :     66.25s CPU     68.28s WALL (       2 calls)
     electrons    :   6441.89s CPU   6574.46s WALL (       6 calls)
     update_pot   :     95.19s CPU     95.39s WALL (       4 calls)
     forces       :    148.86s CPU    151.09s WALL (       6 calls)
     stress       :    929.40s CPU    945.07s WALL (       6 calls)

     Called by init_run:
     wfcinit      :     45.57s CPU     47.33s WALL (       2 calls)
     potinit      :      8.56s CPU      8.64s WALL (       2 calls)

     Called by electrons:
     c_bands      :   5734.62s CPU   5858.12s WALL (      83 calls)
     sum_band     :    638.29s CPU    642.00s WALL (      83 calls)
     v_of_rho     :      9.20s CPU      9.37s WALL (      88 calls)
     mix_rho      :     16.83s CPU     20.65s WALL (      83 calls)

     Called by c_bands:
     init_us_2    :     29.13s CPU     31.45s WALL (     168 calls)
     cegterg      :   4896.82s CPU   5019.01s WALL (      83 calls)

     Called by sum_band:

     Called by *egterg:
     h_psi        :   3529.44s CPU   3556.14s WALL (     322 calls)
     g_psi        :      5.95s CPU      6.02s WALL (     237 calls)
     cdiaghg      :     58.50s CPU     58.64s WALL (     315 calls)

     Called by h_psi:
     h_psi:pot    :   3512.44s CPU   3538.61s WALL (     322 calls)
     h_psi:calbec :    542.18s CPU    554.19s WALL (     322 calls)
     vloc_psi     :   2410.46s CPU   2420.29s WALL (     322 calls)
     add_vuspsi   :    559.79s CPU    564.13s WALL (     322 calls)

     General routines
     calbec       :    618.12s CPU    632.89s WALL (     352 calls)
     fft          :      8.92s CPU      8.93s WALL (     400 calls)
     fftw         :   2535.68s CPU   2544.73s WALL (  107941 calls)
 
     Parallel routines
 
     PWSCF        :     2h 8m CPU        2h10m WALL

 
   This run was terminated on:  19:56:30   5Mar2020            

=------------------------------------------------------------------------------=
   JOB DONE.
=------------------------------------------------------------------------------=
