
     Program PWSCF v.6.2 (svn rev. 14038) starts on 12Mar2020 at 23:17:33 

     This program is part of the open-source Quantum ESPRESSO suite
     for quantum simulation of materials; please cite
         "P. Giannozzi et al., J. Phys.:Condens. Matter 21 395502 (2009);
         "P. Giannozzi et al., J. Phys.:Condens. Matter 29 465901 (2017);
          URL http://www.quantum-espresso.org", 
     in publications or presentations arising from this work. More details at
     http://www.quantum-espresso.org/quote

     Parallel version (MPI), running on    40 processors

     MPI processes distributed on     7 nodes
     K-points division:     npool     =      40
     Reading input from rscf.in

     Current dimensions of program PWSCF are:
     Max number of different atomic species (ntypx) = 10
     Max number of k-points (npk) =  40000
     Max angular momentum in pseudopotentials (lmaxx) =  3

     Subspace diagonalization in iterative solution of the eigenvalue problem:
     a serial algorithm will be used

 
     G-vector sticks info
     --------------------
     sticks:   dense  smooth     PW     G-vecs:    dense   smooth      PW
     Sum        7747    7747   2077               498127   498127   69057
 


     bravais-lattice index     =            0
     lattice parameter (alat)  =      13.8397  a.u.
     unit-cell volume          =    2804.9816 (a.u.)^3
     number of atoms/cell      =           32
     number of atomic types    =            2
     number of electrons       =       368.00
     number of Kohn-Sham states=          221
     kinetic-energy cutoff     =     120.0000  Ry
     charge density cutoff     =     480.0000  Ry
     convergence threshold     =      1.0E-08
     mixing beta               =       0.7000
     number of iterations used =            8  plain     mixing
     Exchange-correlation      = SLA PW NOGX NOGC ( 1  4  0  0 0 0)
     nstep                     =           50


     celldm(1)=  13.839685  celldm(2)=   0.000000  celldm(3)=   0.000000
     celldm(4)=   0.000000  celldm(5)=   0.000000  celldm(6)=   0.000000

     crystal axes: (cart. coord. in units of alat)
               a(1) = (   1.000000   0.000000   0.000000 )  
               a(2) = (   0.000000   1.058160   0.000000 )  
               a(3) = (   0.000000   0.000000   1.000000 )  

     reciprocal axes: (cart. coord. in units 2 pi/alat)
               b(1) = (  1.000000  0.000000  0.000000 )  
               b(2) = (  0.000000  0.945037  0.000000 )  
               b(3) = (  0.000000  0.000000  1.000000 )  


     PseudoPot. # 1 for W  read from file:
     /cluster/scratch/mnoe/QE/pps/W_ONCV_LDA-4.0.upf
     MD5 check sum: ba0307d5d4cd419d6f1d13dc49d7c13a
     Pseudo is Norm-conserving + core correction, Zval = 28.0
     Generated using ONCVPSP code by D. R. Hamann
     Using radial grid of 1380 points,  8 beta functions with: 
                l(1) =   0
                l(2) =   0
                l(3) =   1
                l(4) =   1
                l(5) =   2
                l(6) =   2
                l(7) =   3
                l(8) =   3

     PseudoPot. # 2 for O  read from file:
     /cluster/scratch/mnoe/QE/pps/O_ONCV_LDA-3.0.upf
     MD5 check sum: a1bd6164e7280c17a38c229939bfbd54
     Pseudo is Norm-conserving + core correction, Zval =  6.0
     Generated using ONCVPSP code by D. R. Hamann
     Using radial grid of  926 points,  5 beta functions with: 
                l(1) =   0
                l(2) =   0
                l(3) =   1
                l(4) =   1
                l(5) =   2

     atomic species   valence    mass     pseudopotential
        W             28.00   183.84000     W ( 1.00)
        O              6.00    15.99940     O ( 1.00)

      8 Sym. Ops., with inversion, found ( 6 have fractional translation)



   Cartesian axes

     site n.     atom                  positions (alat units)
         1           W   tau(   1) = (   0.2398300   0.2924886   0.0096100  )
         2           W   tau(   2) = (   0.7601699   0.7656715   0.9903900  )
         3           W   tau(   3) = (   0.2601700   0.2365915   0.5096100  )
         4           W   tau(   4) = (   0.7398300   0.8215686   0.4903900  )
         5           W   tau(   5) = (   0.7601699   0.2924886   0.4903900  )
         6           W   tau(   6) = (   0.2398300   0.7656715   0.5096100  )
         7           W   tau(   7) = (   0.7398300   0.2365915   0.9903900  )
         8           W   tau(   8) = (   0.2601700   0.8215686   0.0096100  )
         9           O   tau(   9) = (   0.2312300   0.0072335   0.0029900  )
        10           O   tau(  10) = (   0.7687700   1.0509266   0.9970100  )
        11           O   tau(  11) = (   0.2687700   0.5218466   0.5029900  )
        12           O   tau(  12) = (   0.7312300   0.5363135   0.4970100  )
        13           O   tau(  13) = (   0.7687700   0.0072335   0.4970100  )
        14           O   tau(  14) = (   0.2312300   1.0509266   0.5029900  )
        15           O   tau(  15) = (   0.7312300   0.5218466   0.9970100  )
        16           O   tau(  16) = (   0.2687700   0.5363135   0.0029900  )
        17           O   tau(  17) = (   0.5027800   0.2441704   0.4628605  )
        18           O   tau(  18) = (   0.4972200   0.8139897   0.5371395  )
        19           O   tau(  19) = (   0.9972200   0.2849096   0.9628605  )
        20           O   tau(  20) = (   0.0027800   0.7732505   0.0371395  )
        21           O   tau(  21) = (   0.4972200   0.2441704   0.0371395  )
        22           O   tau(  22) = (   0.5027800   0.8139897   0.9628605  )
        23           O   tau(  23) = (   0.0027800   0.2849096   0.5371395  )
        24           O   tau(  24) = (   0.9972200   0.7732505   0.4628605  )
        25           O   tau(  25) = (   0.7128605   0.2600957   0.7457799  )
        26           O   tau(  26) = (   0.2871395   0.7980644   0.2542200  )
        27           O   tau(  27) = (   0.7871396   0.2689843   0.2457800  )
        28           O   tau(  28) = (   0.2128605   0.7891759   0.7542200  )
        29           O   tau(  29) = (   0.2871395   0.2600957   0.7542200  )
        30           O   tau(  30) = (   0.7128605   0.7980644   0.2457800  )
        31           O   tau(  31) = (   0.2128605   0.2689843   0.2542200  )
        32           O   tau(  32) = (   0.7871396   0.7891759   0.7457799  )

     number of k points=    64  gaussian smearing, width (Ry)=  0.0007
                       cart. coord. in units 2pi/alat
        k(    1) = (   0.0000000   0.0000000   0.0000000), wk =   0.0092593
        k(    2) = (   0.0000000   0.0000000   0.1666667), wk =   0.0185185
        k(    3) = (   0.0000000   0.0000000   0.3333333), wk =   0.0185185
        k(    4) = (   0.0000000   0.0000000  -0.5000000), wk =   0.0092593
        k(    5) = (   0.0000000   0.1575061   0.0000000), wk =   0.0185185
        k(    6) = (   0.0000000   0.1575061   0.1666667), wk =   0.0370370
        k(    7) = (   0.0000000   0.1575061   0.3333333), wk =   0.0370370
        k(    8) = (   0.0000000   0.1575061  -0.5000000), wk =   0.0185185
        k(    9) = (   0.0000000   0.3150122   0.0000000), wk =   0.0185185
        k(   10) = (   0.0000000   0.3150122   0.1666667), wk =   0.0370370
        k(   11) = (   0.0000000   0.3150122   0.3333333), wk =   0.0370370
        k(   12) = (   0.0000000   0.3150122  -0.5000000), wk =   0.0185185
        k(   13) = (   0.0000000  -0.4725183   0.0000000), wk =   0.0092593
        k(   14) = (   0.0000000  -0.4725183   0.1666667), wk =   0.0185185
        k(   15) = (   0.0000000  -0.4725183   0.3333333), wk =   0.0185185
        k(   16) = (   0.0000000  -0.4725183  -0.5000000), wk =   0.0092593
        k(   17) = (   0.1666667   0.0000000   0.1666667), wk =   0.0370370
        k(   18) = (   0.1666667   0.0000000   0.3333333), wk =   0.0370370
        k(   19) = (   0.1666667   0.0000000  -0.5000000), wk =   0.0185185
        k(   20) = (   0.1666667   0.1575061   0.1666667), wk =   0.0740741
        k(   21) = (   0.1666667   0.1575061   0.3333333), wk =   0.0740741
        k(   22) = (   0.1666667   0.1575061  -0.5000000), wk =   0.0370370
        k(   23) = (   0.1666667   0.3150122   0.1666667), wk =   0.0740741
        k(   24) = (   0.1666667   0.3150122   0.3333333), wk =   0.0740741
        k(   25) = (   0.1666667   0.3150122  -0.5000000), wk =   0.0370370
        k(   26) = (   0.1666667  -0.4725183   0.1666667), wk =   0.0370370
        k(   27) = (   0.1666667  -0.4725183   0.3333333), wk =   0.0370370
        k(   28) = (   0.1666667  -0.4725183  -0.5000000), wk =   0.0185185
        k(   29) = (   0.3333333   0.0000000   0.3333333), wk =   0.0370370
        k(   30) = (   0.3333333   0.0000000  -0.5000000), wk =   0.0185185
        k(   31) = (   0.3333333   0.1575061   0.3333333), wk =   0.0740741
        k(   32) = (   0.3333333   0.1575061  -0.5000000), wk =   0.0370370
        k(   33) = (   0.3333333   0.3150122   0.3333333), wk =   0.0740741
        k(   34) = (   0.3333333   0.3150122  -0.5000000), wk =   0.0370370
        k(   35) = (   0.3333333  -0.4725183   0.3333333), wk =   0.0370370
        k(   36) = (   0.3333333  -0.4725183  -0.5000000), wk =   0.0185185
        k(   37) = (  -0.5000000   0.0000000  -0.5000000), wk =   0.0092593
        k(   38) = (  -0.5000000   0.1575061  -0.5000000), wk =   0.0185185
        k(   39) = (  -0.5000000   0.3150122  -0.5000000), wk =   0.0185185
        k(   40) = (  -0.5000000  -0.4725183  -0.5000000), wk =   0.0092593
        k(   41) = (   0.1666667   0.0000000   0.0000000), wk =   0.0185185
        k(   42) = (   0.3333333   0.0000000   0.0000000), wk =   0.0185185
        k(   43) = (  -0.5000000   0.0000000   0.0000000), wk =   0.0092593
        k(   44) = (   0.1666667  -0.1575061   0.0000000), wk =   0.0370370
        k(   45) = (   0.3333333  -0.1575061   0.0000000), wk =   0.0370370
        k(   46) = (  -0.5000000  -0.1575061   0.0000000), wk =   0.0185185
        k(   47) = (   0.1666667  -0.3150122   0.0000000), wk =   0.0370370
        k(   48) = (   0.3333333  -0.3150122   0.0000000), wk =   0.0370370
        k(   49) = (  -0.5000000  -0.3150122   0.0000000), wk =   0.0185185
        k(   50) = (   0.1666667   0.4725183   0.0000000), wk =   0.0185185
        k(   51) = (   0.3333333   0.4725183   0.0000000), wk =   0.0185185
        k(   52) = (  -0.5000000   0.4725183   0.0000000), wk =   0.0092593
        k(   53) = (   0.3333333   0.0000000   0.1666667), wk =   0.0370370
        k(   54) = (  -0.5000000   0.0000000   0.1666667), wk =   0.0185185
        k(   55) = (   0.3333333  -0.1575061   0.1666667), wk =   0.0740741
        k(   56) = (  -0.5000000  -0.1575061   0.1666667), wk =   0.0370370
        k(   57) = (   0.3333333  -0.3150122   0.1666667), wk =   0.0740741
        k(   58) = (  -0.5000000  -0.3150122   0.1666667), wk =   0.0370370
        k(   59) = (   0.3333333   0.4725183   0.1666667), wk =   0.0370370
        k(   60) = (  -0.5000000   0.4725183   0.1666667), wk =   0.0185185
        k(   61) = (  -0.5000000   0.0000000   0.3333333), wk =   0.0185185
        k(   62) = (  -0.5000000  -0.1575061   0.3333333), wk =   0.0370370
        k(   63) = (  -0.5000000  -0.3150122   0.3333333), wk =   0.0370370
        k(   64) = (  -0.5000000   0.4725183   0.3333333), wk =   0.0185185

     Dense  grid:   498127 G-vectors     FFT dimensions: ( 100, 108, 100)

     Estimated max dynamical RAM per process >       3.15 GB

     Estimated total dynamical RAM >     125.81 GB

     Initial potential from superposition of free atoms

     starting charge  367.99656, renormalised to  368.00000
     Starting wfc are  232 randomized atomic wfcs

     total cpu time spent up to now is       67.5 secs

     Self-consistent Calculation

     iteration #  1     ecut=   120.00 Ry     beta= 0.70
     Davidson diagonalization with overlap
     ethr =  1.00E-02,  avg # of iterations =  5.2

     total cpu time spent up to now is      237.8 secs

     total energy              =   -6254.03431065 Ry
     Harris-Foulkes estimate   =   -6264.56166131 Ry
     estimated scf accuracy    <      13.34722101 Ry

     iteration #  2     ecut=   120.00 Ry     beta= 0.70
     Davidson diagonalization with overlap
     ethr =  3.63E-03,  avg # of iterations =  3.5

     total cpu time spent up to now is      397.0 secs

     total energy              =   -6250.96873032 Ry
     Harris-Foulkes estimate   =   -6270.53925692 Ry
     estimated scf accuracy    <      52.38033439 Ry

     iteration #  3     ecut=   120.00 Ry     beta= 0.70
     Davidson diagonalization with overlap
     ethr =  3.63E-03,  avg # of iterations =  3.5

     total cpu time spent up to now is      549.6 secs

     total energy              =   -6261.03227163 Ry
     Harris-Foulkes estimate   =   -6261.40660828 Ry
     estimated scf accuracy    <       1.18608351 Ry

     iteration #  4     ecut=   120.00 Ry     beta= 0.70
     Davidson diagonalization with overlap
     ethr =  3.22E-04,  avg # of iterations =  2.9

     total cpu time spent up to now is      681.5 secs

     total energy              =   -6261.07209697 Ry
     Harris-Foulkes estimate   =   -6261.15857649 Ry
     estimated scf accuracy    <       0.29870915 Ry

     iteration #  5     ecut=   120.00 Ry     beta= 0.70
     Davidson diagonalization with overlap
     ethr =  8.12E-05,  avg # of iterations =  4.2

     total cpu time spent up to now is      816.0 secs

     total energy              =   -6261.05866049 Ry
     Harris-Foulkes estimate   =   -6261.10040156 Ry
     estimated scf accuracy    <       0.09022248 Ry

     iteration #  6     ecut=   120.00 Ry     beta= 0.70
     Davidson diagonalization with overlap
     ethr =  2.45E-05,  avg # of iterations =  5.6

     total cpu time spent up to now is      954.5 secs

     total energy              =   -6261.07919472 Ry
     Harris-Foulkes estimate   =   -6261.08083239 Ry
     estimated scf accuracy    <       0.00498011 Ry

     iteration #  7     ecut=   120.00 Ry     beta= 0.70
     Davidson diagonalization with overlap
     ethr =  1.35E-06,  avg # of iterations =  6.0

     total cpu time spent up to now is     1101.7 secs

     total energy              =   -6261.07961975 Ry
     Harris-Foulkes estimate   =   -6261.07979506 Ry
     estimated scf accuracy    <       0.00050045 Ry

     iteration #  8     ecut=   120.00 Ry     beta= 0.70
     Davidson diagonalization with overlap
     ethr =  1.36E-07,  avg # of iterations =  3.0

     total cpu time spent up to now is     1231.2 secs

     total energy              =   -6261.07967543 Ry
     Harris-Foulkes estimate   =   -6261.07970456 Ry
     estimated scf accuracy    <       0.00006208 Ry

     iteration #  9     ecut=   120.00 Ry     beta= 0.70
     Davidson diagonalization with overlap
     ethr =  1.69E-08,  avg # of iterations =  3.0

     total cpu time spent up to now is     1368.8 secs

     total energy              =   -6261.07969085 Ry
     Harris-Foulkes estimate   =   -6261.07969287 Ry
     estimated scf accuracy    <       0.00000563 Ry

     iteration # 10     ecut=   120.00 Ry     beta= 0.70
     Davidson diagonalization with overlap
     ethr =  1.53E-09,  avg # of iterations =  2.0

     total cpu time spent up to now is     1502.8 secs

     total energy              =   -6261.07969106 Ry
     Harris-Foulkes estimate   =   -6261.07969183 Ry
     estimated scf accuracy    <       0.00000165 Ry

     iteration # 11     ecut=   120.00 Ry     beta= 0.70
     Davidson diagonalization with overlap
     ethr =  4.47E-10,  avg # of iterations =  2.8

     total cpu time spent up to now is     1641.9 secs

     total energy              =   -6261.07969141 Ry
     Harris-Foulkes estimate   =   -6261.07969142 Ry
     estimated scf accuracy    <       0.00000003 Ry

     iteration # 12     ecut=   120.00 Ry     beta= 0.70
     Davidson diagonalization with overlap
     ethr =  8.69E-12,  avg # of iterations =  2.3

     total cpu time spent up to now is     1794.6 secs

     End of self-consistent calculation

          k = 0.0000 0.0000 0.0000 ( 62239 PWs)   bands (ev):

   -66.1573 -66.1569 -66.1563 -66.1563 -66.1559 -66.1559 -66.1553 -66.1549
   -30.5774 -30.5749 -30.5710 -30.5682 -30.5638 -30.5607 -30.5594 -30.5563
   -30.4773 -30.4733 -30.4726 -30.4705 -30.4703 -30.4664 -30.4610 -30.4572
   -30.4559 -30.4526 -30.4519 -30.4443 -30.4132 -30.4085 -30.4083 -30.4037
   -20.3104 -20.3104 -20.3102 -20.3102 -20.3101 -20.3100 -20.3099 -20.3099
   -20.2883 -20.2878 -20.2877 -20.2875 -20.2871 -20.2870 -20.2866 -20.2861
   -20.2854 -20.2850 -20.2847 -20.2846 -20.2843 -20.2843 -20.2842 -20.2841
   -20.2838 -20.2836 -20.2836 -20.2834 -20.2805 -20.2804 -20.2799 -20.2797
   -20.2790 -20.2789 -20.2785 -20.2785 -20.2785 -20.2783 -20.2776 -20.2775
   -20.2734 -20.2732 -20.2729 -20.2727 -20.2705 -20.2704 -20.2692 -20.2691
   -20.2689 -20.2687 -20.2674 -20.2671 -20.2666 -20.2666 -20.2651 -20.2650
   -10.0590  -9.8619  -9.6414  -9.6017  -9.4992  -9.4430  -9.2438  -9.2262
    -8.8561  -8.7618  -8.7589  -8.7564  -7.8525  -7.8402  -7.7987  -7.7908
    -7.7345  -7.7344  -7.7161  -7.6926  -7.6679  -7.6096  -7.6050  -7.5575
     0.8796   0.8852   1.0065   1.0115   1.0835   1.0856   1.2869   1.3632
     1.7774   1.7820   1.7998   1.8729   2.1774   2.2591   2.5839   2.5913
     2.7232   2.7252   4.0910   4.1712   4.1813   4.2861   4.5000   4.5251
     4.5346   4.5591   4.8738   5.0624   5.1272   5.1421   5.1773   5.4452
     5.4836   5.5184   5.5409   5.5672   5.5925   5.6004   5.6430   5.7162
     5.8729   5.8918   5.9389   5.9704   5.9924   6.0238   6.0832   6.0952
     6.1531   6.2985   6.3321   6.3339   6.4362   6.6985   6.8758   6.9755
     6.9900   7.0260   7.0427   7.0567   7.0644   7.0900   7.1177   7.1305
     7.1713   7.1809   7.9211   7.9350   8.0780   8.1357   8.1525   8.2070
     9.2964   9.3204   9.7889   9.8123   9.8141   9.8318  12.2227  12.3247
    12.4138  12.4645  12.5653  12.5818  12.6093  12.6094  12.8859  13.1576
    13.2561  13.3439  13.4072  13.5976  13.7047  13.8243  14.1332  14.1451
    14.3378  14.3577  14.5734  14.8939  15.3560  15.4670  15.4889  16.2491
    16.2559  17.0714  17.2034  17.2427  17.3098

          k = 0.0000 0.0000 0.1667 ( 62262 PWs)   bands (ev):

   -66.1572 -66.1568 -66.1564 -66.1562 -66.1560 -66.1558 -66.1553 -66.1549
   -30.5711 -30.5693 -30.5643 -30.5626 -30.5609 -30.5598 -30.5595 -30.5567
   -30.4818 -30.4775 -30.4774 -30.4734 -30.4722 -30.4701 -30.4637 -30.4586
   -30.4569 -30.4524 -30.4522 -30.4456 -30.4129 -30.4086 -30.4082 -30.4040
   -20.3104 -20.3104 -20.3102 -20.3102 -20.3101 -20.3101 -20.3099 -20.3099
   -20.2883 -20.2878 -20.2877 -20.2874 -20.2871 -20.2871 -20.2866 -20.2862
   -20.2854 -20.2851 -20.2847 -20.2846 -20.2844 -20.2844 -20.2842 -20.2841
   -20.2838 -20.2837 -20.2835 -20.2834 -20.2805 -20.2804 -20.2800 -20.2798
   -20.2792 -20.2789 -20.2785 -20.2784 -20.2779 -20.2778 -20.2769 -20.2769
   -20.2733 -20.2733 -20.2728 -20.2728 -20.2709 -20.2708 -20.2694 -20.2692
   -20.2691 -20.2690 -20.2675 -20.2673 -20.2665 -20.2665 -20.2652 -20.2651
   -10.0038  -9.8023  -9.6159  -9.5538  -9.4539  -9.4028  -9.2023  -9.1853
    -8.8669  -8.7644  -8.7512  -8.7502  -7.9758  -7.9629  -7.8792  -7.8720
    -7.8206  -7.7847  -7.7411  -7.6992  -7.6641  -7.6137  -7.6045  -7.5611
     1.0017   1.0048   1.0848   1.0879   1.2833   1.2908   1.4126   1.5301
     1.7715   1.7916   1.7963   1.9175   2.2680   2.3495   2.5995   2.6759
     2.7146   2.8126   4.0839   4.1034   4.2023   4.2119   4.2243   4.2681
     4.5815   4.5969   4.7316   4.7867   4.8527   5.1306   5.1772   5.2469
     5.2893   5.4385   5.4669   5.5340   5.5810   5.6477   5.6726   5.6753
     5.6915   5.9098   5.9310   5.9542   6.0306   6.0699   6.0909   6.1594
     6.2036   6.3591   6.4239   6.4593   6.6953   6.7546   6.8307   6.8344
     6.9000   6.9252   6.9315   6.9444   6.9901   7.0124   7.0481   7.0735
     7.0741   7.0877   7.8965   7.9035   8.1004   8.1082   8.1383   8.1621
     9.6265   9.6575   9.7892   9.8414  10.0950  10.1281  12.2924  12.2956
    12.4649  12.4656  12.4753  12.4755  12.6323  12.6683  12.9140  12.9785
    13.1061  13.2604  13.4372  13.5895  13.8067  13.8246  13.9741  14.0152
    14.3464  14.4778  14.5679  15.0191  15.3263  15.5325  15.5887  16.2309
    16.5998  16.9269  17.2471  17.4011  17.4297

          k = 0.0000 0.0000 0.3333 ( 62268 PWs)   bands (ev):

   -66.1570 -66.1566 -66.1565 -66.1561 -66.1560 -66.1556 -66.1555 -66.1551
   -30.5643 -30.5618 -30.5609 -30.5578 -30.5490 -30.5474 -30.5448 -30.5427
   -30.4976 -30.4971 -30.4930 -30.4926 -30.4710 -30.4686 -30.4671 -30.4632
   -30.4560 -30.4534 -30.4511 -30.4477 -30.4119 -30.4094 -30.4073 -30.4048
   -20.3103 -20.3103 -20.3102 -20.3101 -20.3101 -20.3101 -20.3100 -20.3100
   -20.2882 -20.2878 -20.2876 -20.2873 -20.2872 -20.2869 -20.2868 -20.2864
   -20.2853 -20.2851 -20.2847 -20.2845 -20.2845 -20.2844 -20.2843 -20.2840
   -20.2840 -20.2837 -20.2836 -20.2834 -20.2804 -20.2804 -20.2801 -20.2800
   -20.2792 -20.2788 -20.2787 -20.2786 -20.2765 -20.2763 -20.2753 -20.2753
   -20.2737 -20.2732 -20.2731 -20.2727 -20.2720 -20.2720 -20.2709 -20.2707
   -20.2688 -20.2687 -20.2679 -20.2677 -20.2663 -20.2662 -20.2655 -20.2654
    -9.8733  -9.6689  -9.6608  -9.4882  -9.3173  -9.1275  -9.0637  -9.0322
    -8.9104  -8.7850  -8.7275  -8.7059  -8.3167  -8.3055  -8.2520  -8.2243
    -7.8083  -7.7668  -7.7592  -7.7172  -7.6541  -7.6247  -7.5961  -7.5706
     1.0823   1.0884   1.0887   1.0941   1.6883   1.7086   1.7592   1.7747
     2.0515   2.1322   2.2147   2.3330   2.5310   2.5983   2.6367   2.6950
     2.9267   3.0432   3.5394   3.6211   3.9134   3.9298   4.1631   4.1826
     4.2324   4.4160   4.4560   4.6717   4.7257   4.7762   4.7844   4.9240
     4.9952   5.1124   5.1714   5.3185   5.3259   5.3766   5.6953   5.8171
     5.8267   5.9191   5.9503   5.9701   6.0667   6.0884   6.1807   6.2575
     6.2767   6.3844   6.4078   6.4239   6.4432   6.6080   6.6790   6.7649
     6.7730   6.9450   6.9988   7.0165   7.0346   7.0553   7.0575   7.0785
     7.2455   7.3150   7.7657   7.7750   7.9629   8.0152   8.1290   8.1409
     9.7836   9.7894  10.3948  10.4502  10.7754  10.8290  11.9659  12.0193
    12.1845  12.4436  12.4719  12.5025  12.6601  12.6673  12.7934  12.8624
    12.9147  13.2867  13.3304  13.3697  13.5964  13.7075  13.8281  13.8743
    14.4268  14.5496  14.7737  15.2312  15.3224  15.7612  16.1019  16.1511
    16.3469  17.5207  17.5920  17.6761  17.7297

          k = 0.0000 0.0000-0.5000 ( 62264 PWs)   bands (ev):

   -66.1568 -66.1568 -66.1564 -66.1564 -66.1558 -66.1558 -66.1554 -66.1554
   -30.5624 -30.5624 -30.5595 -30.5594 -30.5235 -30.5235 -30.5223 -30.5223
   -30.5188 -30.5188 -30.5175 -30.5175 -30.4693 -30.4693 -30.4664 -30.4664
   -30.4547 -30.4547 -30.4496 -30.4495 -30.4107 -30.4107 -30.4060 -30.4060
   -20.3102 -20.3102 -20.3102 -20.3102 -20.3101 -20.3101 -20.3101 -20.3100
   -20.2880 -20.2880 -20.2874 -20.2874 -20.2870 -20.2870 -20.2866 -20.2866
   -20.2852 -20.2852 -20.2846 -20.2846 -20.2844 -20.2844 -20.2843 -20.2842
   -20.2838 -20.2838 -20.2835 -20.2835 -20.2803 -20.2803 -20.2802 -20.2802
   -20.2790 -20.2789 -20.2787 -20.2787 -20.2747 -20.2747 -20.2745 -20.2745
   -20.2735 -20.2734 -20.2734 -20.2734 -20.2724 -20.2724 -20.2722 -20.2722
   -20.2684 -20.2684 -20.2683 -20.2683 -20.2659 -20.2659 -20.2658 -20.2658
    -9.7452  -9.7452  -9.5547  -9.5547  -9.0462  -9.0462  -8.8633  -8.8633
    -8.7293  -8.7293  -8.7097  -8.7097  -8.6240  -8.6240  -8.5587  -8.5586
    -7.7839  -7.7839  -7.7420  -7.7420  -7.6396  -7.6396  -7.5835  -7.5835
     1.0917   1.0917   1.0996   1.0996   1.7452   1.7452   1.7537   1.7537
     2.6448   2.6448   2.8841   2.8841   2.9735   2.9735   3.0323   3.0323
     3.0964   3.0964   3.1730   3.1730   3.3414   3.3414   3.7018   3.7018
     3.8154   3.8154   4.3292   4.3292   4.6818   4.6818   4.9008   4.9008
     5.1121   5.1121   5.1340   5.1340   5.2206   5.2206   5.8068   5.8068
     5.8787   5.8787   6.0581   6.0581   6.0614   6.0614   6.2073   6.2073
     6.2349   6.2349   6.2942   6.2942   6.4528   6.4528   6.6386   6.6386
     6.8235   6.8235   7.0211   7.0211   7.0700   7.0700   7.4605   7.4605
     7.4854   7.4854   7.6804   7.6804   7.7355   7.7355   8.1399   8.1399
     9.7884   9.7884  11.2313  11.2313  11.2900  11.2900  11.5683  11.5683
    11.6684  11.6684  12.4999  12.5000  12.7786  12.7786  12.9754  12.9754
    13.0607  13.0607  13.1943  13.1943  13.4041  13.4041  13.8435  13.8435
    14.5093  14.5093  15.0519  15.0519  15.7759  15.7759  15.9998  15.9998
    16.9131  16.9131  17.9346  17.9346  18.0323

          k = 0.0000 0.1575 0.0000 ( 62231 PWs)   bands (ev):

   -66.1573 -66.1569 -66.1563 -66.1562 -66.1559 -66.1559 -66.1552 -66.1549
   -30.5772 -30.5750 -30.5708 -30.5684 -30.5636 -30.5609 -30.5591 -30.5565
   -30.4756 -30.4713 -30.4702 -30.4699 -30.4668 -30.4663 -30.4605 -30.4575
   -30.4540 -30.4523 -30.4512 -30.4430 -30.4171 -30.4123 -30.4120 -30.4073
   -20.3104 -20.3104 -20.3102 -20.3102 -20.3101 -20.3100 -20.3099 -20.3099
   -20.2883 -20.2878 -20.2876 -20.2875 -20.2872 -20.2869 -20.2867 -20.2862
   -20.2853 -20.2850 -20.2847 -20.2846 -20.2844 -20.2842 -20.2840 -20.2840
   -20.2837 -20.2836 -20.2833 -20.2831 -20.2805 -20.2805 -20.2799 -20.2798
   -20.2793 -20.2793 -20.2788 -20.2787 -20.2786 -20.2785 -20.2776 -20.2775
   -20.2733 -20.2732 -20.2729 -20.2728 -20.2705 -20.2704 -20.2692 -20.2692
   -20.2689 -20.2687 -20.2673 -20.2671 -20.2666 -20.2666 -20.2651 -20.2650
   -10.0404  -9.8710  -9.6251  -9.5834  -9.5046  -9.4490  -9.2426  -9.2274
    -8.7844  -8.7051  -8.7032  -8.7010  -7.8615  -7.8388  -7.7998  -7.7925
    -7.7542  -7.7518  -7.7346  -7.7328  -7.6946  -7.6877  -7.6858  -7.6616
     0.8799   0.8847   1.0070   1.0118   1.0857   1.0859   1.3178   1.3631
     1.9578   2.0118   2.0316   2.1211   2.1855   2.2534   2.6575   2.6613
     2.7901   2.7964   3.9462   3.9736   4.0296   4.0649   4.5029   4.5206
     4.5293   4.5542   4.7339   5.1197   5.1210   5.1468   5.1831   5.3041
     5.3359   5.4476   5.4747   5.6013   5.6124   5.6418   5.6925   5.7383
     5.7550   5.8602   5.8621   5.9547   5.9914   6.0505   6.0866   6.0887
     6.1591   6.2867   6.3566   6.3576   6.4944   6.7248   6.8066   6.8724
     6.8831   6.9005   7.0027   7.0049   7.0406   7.0525   7.1261   7.1302
     7.1785   7.1823   7.9221   7.9342   8.0483   8.0770   8.1088   8.1283
     9.3042   9.3213   9.9937  10.0012  10.0341  10.0362  12.0895  12.1960
    12.2538  12.3025  12.5734  12.5969  12.6063  12.6114  12.9178  13.1790
    13.2685  13.3524  13.4045  13.6035  13.8477  13.8865  14.0420  14.0540
    14.4531  14.6530  14.7547  14.9979  15.4665  15.4856  15.7630  16.2122
    16.2191  16.7532  17.3126  17.3562  17.5145

          k = 0.0000 0.1575 0.1667 ( 62237 PWs)   bands (ev):

   -66.1572 -66.1568 -66.1563 -66.1562 -66.1560 -66.1558 -66.1553 -66.1550
   -30.5709 -30.5694 -30.5641 -30.5626 -30.5609 -30.5597 -30.5595 -30.5569
   -30.4806 -30.4774 -30.4761 -30.4733 -30.4695 -30.4663 -30.4625 -30.4572
   -30.4562 -30.4527 -30.4509 -30.4443 -30.4168 -30.4123 -30.4119 -30.4076
   -20.3104 -20.3104 -20.3102 -20.3102 -20.3101 -20.3101 -20.3099 -20.3099
   -20.2882 -20.2877 -20.2876 -20.2875 -20.2871 -20.2870 -20.2867 -20.2862
   -20.2853 -20.2850 -20.2847 -20.2845 -20.2844 -20.2842 -20.2841 -20.2838
   -20.2837 -20.2836 -20.2833 -20.2832 -20.2805 -20.2805 -20.2800 -20.2799
   -20.2795 -20.2792 -20.2788 -20.2788 -20.2779 -20.2779 -20.2769 -20.2769
   -20.2733 -20.2733 -20.2729 -20.2729 -20.2709 -20.2708 -20.2694 -20.2692
   -20.2691 -20.2690 -20.2675 -20.2673 -20.2665 -20.2665 -20.2652 -20.2651
    -9.9844  -9.8115  -9.5973  -9.5357  -9.4601  -9.4082  -9.2011  -9.1864
    -8.7953  -8.7095  -8.6961  -8.6953  -7.9740  -7.9677  -7.8807  -7.8774
    -7.8246  -7.7868  -7.7587  -7.7483  -7.7023  -7.7012  -7.6906  -7.6618
     1.0019   1.0050   1.0873   1.0882   1.2889   1.2912   1.4634   1.5299
     1.9599   2.0140   2.0263   2.1361   2.2749   2.3438   2.6691   2.7514
     2.7818   2.8844   3.9667   3.9930   4.0306   4.0503   4.1847   4.2083
     4.5724   4.5886   4.7139   4.7582   4.8182   5.1253   5.1673   5.1933
     5.2658   5.2949   5.4041   5.4209   5.5350   5.5603   5.6733   5.7280
     5.8006   5.8176   5.8660   5.9640   6.0385   6.0489   6.0932   6.1256
     6.1918   6.2806   6.4521   6.4925   6.7163   6.7469   6.8074   6.8196
     6.8647   6.8828   6.9117   6.9326   6.9549   6.9695   7.0150   7.0508
     7.0806   7.0874   7.8965   7.9039   8.0568   8.0668   8.0801   8.0895
     9.6519   9.6625  10.0039  10.0442  10.2456  10.2879  12.1654  12.1819
    12.3032  12.3243  12.4594  12.4767  12.6465  12.6599  12.9479  13.0123
    13.1171  13.2711  13.4355  13.5814  13.8487  13.8781  13.9288  13.9334
    14.5039  14.7366  14.8101  15.1148  15.5301  15.5895  15.7358  16.1915
    16.5631  16.9074  17.0269  17.4633  17.5231

          k = 0.0000 0.1575 0.3333 ( 62284 PWs)   bands (ev):

   -66.1570 -66.1567 -66.1565 -66.1562 -66.1560 -66.1556 -66.1555 -66.1551
   -30.5642 -30.5620 -30.5607 -30.5580 -30.5489 -30.5475 -30.5446 -30.5428
   -30.4973 -30.4970 -30.4927 -30.4925 -30.4684 -30.4654 -30.4645 -30.4600
   -30.4563 -30.4537 -30.4498 -30.4463 -30.4158 -30.4132 -30.4110 -30.4085
   -20.3103 -20.3103 -20.3102 -20.3101 -20.3101 -20.3101 -20.3100 -20.3100
   -20.2881 -20.2878 -20.2876 -20.2873 -20.2871 -20.2869 -20.2869 -20.2864
   -20.2853 -20.2851 -20.2847 -20.2845 -20.2845 -20.2843 -20.2842 -20.2839
   -20.2837 -20.2835 -20.2833 -20.2833 -20.2805 -20.2804 -20.2801 -20.2801
   -20.2795 -20.2792 -20.2790 -20.2789 -20.2765 -20.2763 -20.2753 -20.2753
   -20.2736 -20.2733 -20.2730 -20.2727 -20.2720 -20.2720 -20.2709 -20.2707
   -20.2688 -20.2687 -20.2679 -20.2678 -20.2663 -20.2662 -20.2655 -20.2654
    -9.8528  -9.6778  -9.6415  -9.4949  -9.2912  -9.1330  -9.0603  -9.0337
    -8.8412  -8.7333  -8.6764  -8.6587  -8.3207  -8.3014  -8.2580  -8.2200
    -7.8166  -7.7737  -7.7690  -7.7375  -7.7193  -7.7038  -7.6947  -7.6704
     1.0858   1.0888   1.0918   1.0943   1.8658   1.8813   1.9764   2.0132
     2.0513   2.1799   2.2143   2.3820   2.5376   2.6029   2.6935   2.7637
     3.0030   3.1110   3.5416   3.6161   3.8757   3.8954   4.0533   4.0610
     4.2313   4.3172   4.4697   4.6240   4.6514   4.6548   4.6907   4.9260
     4.9313   5.0229   5.1538   5.2301   5.3012   5.3953   5.4382   5.7525
     5.8006   5.8938   5.9073   5.9417   6.0197   6.0562   6.0929   6.1310
     6.3231   6.4117   6.4127   6.4594   6.5345   6.6622   6.7270   6.8030
     6.8497   6.8992   6.9039   6.9492   7.0099   7.0176   7.0480   7.1295
     7.2507   7.3139   7.7707   7.7732   7.9301   7.9604   8.0728   8.0827
    10.0009  10.0113  10.4031  10.4561  10.8765  10.9238  11.9623  12.0179
    12.1390  12.3108  12.4028  12.4845  12.5387  12.6091  12.8138  12.8270
    12.9468  13.2898  13.3117  13.3469  13.4933  13.6646  13.8526  13.9127
    14.6287  14.7299  15.1394  15.4020  15.6427  15.7473  16.1147  16.1307
    16.4448  17.3329  17.4719  17.6455  17.7309

          k = 0.0000 0.1575-0.5000 ( 62234 PWs)   bands (ev):

   -66.1568 -66.1568 -66.1564 -66.1564 -66.1557 -66.1557 -66.1554 -66.1554
   -30.5622 -30.5622 -30.5597 -30.5596 -30.5234 -30.5234 -30.5223 -30.5223
   -30.5187 -30.5187 -30.5175 -30.5175 -30.4669 -30.4669 -30.4628 -30.4628
   -30.4550 -30.4550 -30.4482 -30.4482 -30.4145 -30.4145 -30.4097 -30.4097
   -20.3102 -20.3102 -20.3102 -20.3102 -20.3101 -20.3101 -20.3101 -20.3100
   -20.2879 -20.2879 -20.2873 -20.2873 -20.2871 -20.2871 -20.2867 -20.2867
   -20.2852 -20.2852 -20.2846 -20.2846 -20.2844 -20.2844 -20.2841 -20.2841
   -20.2835 -20.2835 -20.2834 -20.2834 -20.2803 -20.2803 -20.2803 -20.2803
   -20.2793 -20.2793 -20.2790 -20.2790 -20.2747 -20.2747 -20.2745 -20.2745
   -20.2735 -20.2734 -20.2734 -20.2734 -20.2724 -20.2724 -20.2723 -20.2722
   -20.2684 -20.2684 -20.2683 -20.2683 -20.2659 -20.2659 -20.2658 -20.2658
    -9.7248  -9.7248  -9.5624  -9.5623  -8.9959  -8.9959  -8.8363  -8.8363
    -8.7332  -8.7332  -8.7143  -8.7143  -8.5963  -8.5963  -8.5356  -8.5356
    -7.7951  -7.7951  -7.7441  -7.7441  -7.7210  -7.7210  -7.6828  -7.6828
     1.0958   1.0958   1.0998   1.0998   1.9381   1.9381   2.0062   2.0062
     2.7088   2.7088   2.8923   2.8923   2.9703   2.9703   3.0447   3.0447
     3.0944   3.0944   3.2051   3.2051   3.3345   3.3345   3.7277   3.7277
     3.8727   3.8727   4.1616   4.1616   4.5167   4.5167   4.7471   4.7471
     5.0926   5.0926   5.1091   5.1091   5.2221   5.2221   5.5512   5.5512
     5.8378   5.8378   5.9663   5.9663   6.0629   6.0629   6.1778   6.1778
     6.2619   6.2619   6.3485   6.3485   6.4599   6.4599   6.7912   6.7912
     6.8961   6.8961   6.9209   6.9209   7.0005   7.0005   7.4775   7.4775
     7.4818   7.4818   7.6647   7.6647   7.7064   7.7064   8.0812   8.0812
    10.0113  10.0113  11.2368  11.2368  11.2898  11.2898  11.6300  11.6300
    11.7247  11.7247  12.3474  12.3474  12.7516  12.7516  12.8808  12.8808
    13.0795  13.0795  13.1143  13.1143  13.3934  13.3934  13.8680  13.8680
    14.7002  14.7002  15.4373  15.4373  15.8770  15.8770  15.9709  15.9709
    16.9625  16.9625  17.7285  17.7285  18.0564

          k = 0.0000 0.3150 0.0000 ( 62175 PWs)   bands (ev):

   -66.1572 -66.1570 -66.1562 -66.1562 -66.1560 -66.1560 -66.1552 -66.1550
   -30.5768 -30.5755 -30.5703 -30.5689 -30.5630 -30.5615 -30.5586 -30.5570
   -30.4724 -30.4702 -30.4677 -30.4661 -30.4643 -30.4588 -30.4585 -30.4560
   -30.4534 -30.4473 -30.4459 -30.4383 -30.4277 -30.4223 -30.4220 -30.4168
   -20.3104 -20.3104 -20.3102 -20.3102 -20.3100 -20.3100 -20.3099 -20.3099
   -20.2881 -20.2877 -20.2876 -20.2874 -20.2873 -20.2868 -20.2868 -20.2863
   -20.2852 -20.2849 -20.2848 -20.2845 -20.2844 -20.2841 -20.2840 -20.2837
   -20.2831 -20.2828 -20.2824 -20.2822 -20.2809 -20.2804 -20.2803 -20.2801
   -20.2799 -20.2798 -20.2796 -20.2795 -20.2786 -20.2785 -20.2776 -20.2775
   -20.2733 -20.2731 -20.2730 -20.2729 -20.2705 -20.2704 -20.2692 -20.2692
   -20.2688 -20.2687 -20.2673 -20.2672 -20.2666 -20.2666 -20.2651 -20.2650
    -9.9943  -9.8981  -9.5877  -9.5416  -9.5212  -9.4675  -9.2394  -9.2306
    -8.5842  -8.5373  -8.5343  -8.5337  -8.0225  -7.9733  -7.9632  -7.9300
    -7.8354  -7.8263  -7.8012  -7.7969  -7.7283  -7.7146  -7.7124  -7.7001
     0.8807   0.8834   1.0082   1.0113   1.0867   1.0876   1.3479   1.3622
     2.1956   2.2379   2.5130   2.6251   2.6670   2.7633   2.8652   2.9123
     2.9831   3.0238   3.5589   3.6055   3.6462   3.6966   4.1935   4.4808
     4.5102   4.5221   4.5239   4.5863   4.6369   4.8681   5.2216   5.2423
     5.2844   5.3046   5.4029   5.4051   5.6733   5.6828   5.6900   5.7311
     5.8274   5.8442   5.8858   5.9784   5.9907   6.0382   6.0542   6.1037
     6.1068   6.1986   6.3158   6.4293   6.4629   6.5095   6.6987   6.7321
     6.7727   6.8664   7.1169   7.1255   7.1505   7.1739   7.1860   7.1889
     7.1997   7.2264   7.8567   7.8924   7.8928   7.9223   7.9387   7.9448
     9.3133   9.3214  10.4811  10.5343  10.5520  10.5827  11.6920  11.7915
    11.8162  11.8654  12.5928  12.6099  12.6106  12.6138  13.0104  13.2104
    13.3411  13.4144  13.4273  13.6157  13.7177  13.8353  13.8356  13.8561
    15.0767  15.2781  15.3049  15.4274  15.4651  15.4898  16.0774  16.0976
    16.1975  16.7634  17.1191  17.6981  17.7506

          k = 0.0000 0.3150 0.1667 ( 62260 PWs)   bands (ev):

   -66.1571 -66.1569 -66.1563 -66.1561 -66.1561 -66.1559 -66.1552 -66.1550
   -30.5705 -30.5696 -30.5636 -30.5627 -30.5609 -30.5601 -30.5590 -30.5574
   -30.4786 -30.4774 -30.4740 -30.4731 -30.4640 -30.4594 -30.4581 -30.4557
   -30.4538 -30.4484 -30.4456 -30.4393 -30.4273 -30.4225 -30.4218 -30.4172
   -20.3104 -20.3103 -20.3102 -20.3102 -20.3101 -20.3101 -20.3099 -20.3099
   -20.2880 -20.2876 -20.2876 -20.2874 -20.2872 -20.2869 -20.2868 -20.2864
   -20.2852 -20.2849 -20.2848 -20.2845 -20.2844 -20.2841 -20.2841 -20.2837
   -20.2831 -20.2828 -20.2825 -20.2823 -20.2809 -20.2804 -20.2804 -20.2802
   -20.2799 -20.2799 -20.2796 -20.2795 -20.2780 -20.2779 -20.2769 -20.2769
   -20.2732 -20.2732 -20.2730 -20.2730 -20.2709 -20.2709 -20.2694 -20.2693
   -20.2691 -20.2691 -20.2675 -20.2673 -20.2665 -20.2665 -20.2652 -20.2651
    -9.9369  -9.8389  -9.5548  -9.4949  -9.4790  -9.4251  -9.1980  -9.1895
    -8.5944  -8.5444  -8.5320  -8.5282  -8.0357  -8.0029  -7.9686  -7.9668
    -7.9504  -7.9211  -7.8723  -7.8398  -7.8044  -7.7924  -7.7190  -7.7067
     1.0025   1.0046   1.0889   1.0896   1.2923   1.2933   1.5094   1.5288
     2.2854   2.3283   2.5173   2.6102   2.6590   2.7625   2.8715   2.9755
     3.0010   3.1183   3.6032   3.6458   3.6653   3.6877   4.1535   4.1754
     4.2225   4.5238   4.5519   4.5707   4.6570   4.8663   4.8712   4.9803
     5.1348   5.2613   5.3103   5.3162   5.4148   5.4440   5.6385   5.6697
     5.7619   5.7762   5.8519   5.9583   5.9871   6.0098   6.0454   6.1083
     6.2031   6.2834   6.3980   6.4930   6.5311   6.6901   6.7639   6.8676
     6.8709   6.9117   6.9384   6.9502   6.9834   6.9901   7.1767   7.2045
     7.2055   7.2198   7.8520   7.8684   7.8845   7.8928   7.9099   7.9305
     9.6652   9.6682  10.5391  10.5838  10.6639  10.7329  11.7850  11.7913
    11.8650  11.9050  12.4646  12.4757  12.6593  12.6631  13.0456  13.1080
    13.1956  13.3410  13.3901  13.5171  13.6486  13.7169  13.7879  13.8659
    15.1586  15.2822  15.5104  15.5132  15.5203  15.6220  16.0585  16.3591
    16.4303  16.7327  17.2005  17.3552  17.6516

          k = 0.0000 0.3150 0.3333 ( 62269 PWs)   bands (ev):

   -66.1569 -66.1567 -66.1564 -66.1562 -66.1559 -66.1557 -66.1554 -66.1552
   -30.5637 -30.5624 -30.5601 -30.5586 -30.5486 -30.5478 -30.5442 -30.5431
   -30.4968 -30.4968 -30.4923 -30.4922 -30.4630 -30.4604 -30.4572 -30.4547
   -30.4545 -30.4506 -30.4445 -30.4411 -30.4263 -30.4235 -30.4209 -30.4182
   -20.3103 -20.3103 -20.3101 -20.3101 -20.3101 -20.3101 -20.3100 -20.3100
   -20.2879 -20.2875 -20.2874 -20.2874 -20.2871 -20.2870 -20.2870 -20.2866
   -20.2851 -20.2849 -20.2848 -20.2846 -20.2844 -20.2841 -20.2841 -20.2838
   -20.2830 -20.2828 -20.2826 -20.2825 -20.2809 -20.2805 -20.2803 -20.2803
   -20.2800 -20.2800 -20.2797 -20.2796 -20.2765 -20.2764 -20.2753 -20.2753
   -20.2736 -20.2734 -20.2730 -20.2728 -20.2720 -20.2720 -20.2708 -20.2707
   -20.2688 -20.2688 -20.2679 -20.2678 -20.2663 -20.2662 -20.2655 -20.2654
    -9.8032  -9.7044  -9.5967  -9.5154  -9.2346  -9.1507  -9.0527  -9.0381
    -8.6504  -8.5824  -8.5210  -8.5072  -8.3366  -8.2850  -8.2842  -8.2032
    -7.9966  -7.9724  -7.9450  -7.9175  -7.7870  -7.7747  -7.7372  -7.7248
     1.0889   1.0892   1.0949   1.0949   2.0273   2.0505   2.1478   2.2116
     2.5182   2.5539   2.5896   2.6001   2.6594   2.7825   2.8891   2.9583
     3.2392   3.3229   3.5281   3.5955   3.6633   3.6800   3.7124   3.7562
     4.1353   4.2894   4.3973   4.4177   4.4281   4.5461   4.5831   4.6700
     4.7393   4.8895   4.9489   4.9634   5.2048   5.2787   5.2953   5.3327
     5.4367   5.5212   5.7821   5.9510   6.0697   6.0961   6.1295   6.1390
     6.3888   6.4208   6.4394   6.5302   6.5731   6.6583   6.6586   6.6760
     6.8686   6.9553   7.0564   7.0753   7.1248   7.1819   7.2166   7.2423
     7.2634   7.3261   7.7545   7.7719   7.7900   7.8005   7.8838   7.9041
    10.3894  10.4165  10.5526  10.6142  11.1675  11.2262  11.7770  11.8652
    12.0068  12.0209  12.0840  12.1791  12.6082  12.6500  12.8094  12.8301
    13.0090  13.1055  13.2633  13.3269  13.3526  13.6281  13.7178  13.7999
    15.2254  15.2730  15.6951  15.7779  15.9909  15.9933  16.2532  16.6269
    16.7721  16.8288  17.2881  17.5129  17.7917

          k = 0.0000 0.3150-0.5000 ( 62306 PWs)   bands (ev):

   -66.1567 -66.1567 -66.1565 -66.1565 -66.1557 -66.1557 -66.1555 -66.1555
   -30.5617 -30.5617 -30.5602 -30.5602 -30.5231 -30.5231 -30.5224 -30.5224
   -30.5184 -30.5183 -30.5176 -30.5176 -30.4618 -30.4617 -30.4560 -30.4560
   -30.4528 -30.4528 -30.4429 -30.4429 -30.4249 -30.4249 -30.4195 -30.4195
   -20.3102 -20.3102 -20.3102 -20.3102 -20.3101 -20.3101 -20.3101 -20.3101
   -20.2877 -20.2877 -20.2872 -20.2872 -20.2872 -20.2872 -20.2868 -20.2868
   -20.2851 -20.2850 -20.2847 -20.2847 -20.2843 -20.2843 -20.2840 -20.2840
   -20.2828 -20.2828 -20.2827 -20.2827 -20.2807 -20.2807 -20.2802 -20.2802
   -20.2802 -20.2802 -20.2796 -20.2796 -20.2747 -20.2747 -20.2746 -20.2746
   -20.2735 -20.2734 -20.2734 -20.2734 -20.2724 -20.2723 -20.2723 -20.2723
   -20.2684 -20.2684 -20.2683 -20.2683 -20.2659 -20.2659 -20.2658 -20.2658
    -9.6766  -9.6766  -9.5858  -9.5858  -8.8815  -8.8815  -8.7843  -8.7843
    -8.7482  -8.7482  -8.7279  -8.7279  -8.4844  -8.4844  -8.4416  -8.4416
    -7.9861  -7.9860  -7.9339  -7.9339  -7.7621  -7.7621  -7.7498  -7.7498
     1.0996   1.0996   1.1002   1.1002   2.5016   2.5016   2.6213   2.6213
     2.8683   2.8683   2.9203   2.9203   2.9777   2.9777   3.0833   3.0833
     3.0931   3.0931   3.2923   3.2923   3.3101   3.3101   3.6431   3.6431
     4.0076   4.0076   4.0684   4.0684   4.0758   4.0758   4.3232   4.3232
     4.8873   4.8873   5.0276   5.0276   5.0821   5.0821   5.1747   5.1747
     5.3850   5.3850   5.8609   5.8609   6.1639   6.1639   6.1992   6.1992
     6.3438   6.3438   6.3898   6.3898   6.4788   6.4788   6.6516   6.6516
     7.0991   7.0991   7.1258   7.1258   7.1621   7.1621   7.4701   7.4701
     7.5065   7.5065   7.5886   7.5886   7.6140   7.6140   7.8922   7.8922
    10.5528  10.5528  11.2453  11.2453  11.2905  11.2905  11.7277  11.7277
    11.9064  11.9064  12.0275  12.0275  12.5468  12.5468  12.6120  12.6120
    13.0404  13.0404  13.0879  13.0879  13.4209  13.4209  13.7349  13.7349
    15.2547  15.2547  15.8733  15.8733  16.2012  16.2012  16.4145  16.4145
    17.1414  17.1414  17.3128  17.3128  18.0663

          k = 0.0000-0.4725 0.0000 ( 62212 PWs)   bands (ev):

   -66.1571 -66.1571 -66.1561 -66.1561 -66.1561 -66.1561 -66.1551 -66.1551
   -30.5761 -30.5761 -30.5696 -30.5696 -30.5622 -30.5622 -30.5578 -30.5578
   -30.4707 -30.4707 -30.4663 -30.4662 -30.4604 -30.4604 -30.4555 -30.4555
   -30.4420 -30.4420 -30.4355 -30.4355 -30.4349 -30.4349 -30.4288 -30.4288
   -20.3104 -20.3104 -20.3102 -20.3102 -20.3100 -20.3100 -20.3099 -20.3099
   -20.2879 -20.2879 -20.2875 -20.2874 -20.2871 -20.2871 -20.2865 -20.2865
   -20.2850 -20.2850 -20.2847 -20.2847 -20.2842 -20.2842 -20.2839 -20.2839
   -20.2819 -20.2819 -20.2816 -20.2815 -20.2812 -20.2812 -20.2810 -20.2810
   -20.2802 -20.2802 -20.2797 -20.2797 -20.2786 -20.2786 -20.2775 -20.2775
   -20.2731 -20.2731 -20.2730 -20.2730 -20.2705 -20.2704 -20.2692 -20.2692
   -20.2688 -20.2688 -20.2672 -20.2672 -20.2666 -20.2666 -20.2650 -20.2650
    -9.9415  -9.9415  -9.5496  -9.5496  -9.4990  -9.4990  -9.2350  -9.2350
    -8.3098  -8.3098  -8.2746  -8.2746  -8.2677  -8.2676  -8.2571  -8.2571
    -7.8318  -7.8318  -7.8008  -7.8008  -7.7219  -7.7219  -7.7071  -7.7071
     0.8819   0.8819   1.0099   1.0099   1.0876   1.0876   1.3588   1.3588
     2.2169   2.2169   3.1020   3.1020   3.1884   3.1884   3.2091   3.2091
     3.2486   3.2486   3.4121   3.4122   3.6425   3.6425   3.6578   3.6578
     3.8237   3.8237   4.5210   4.5210   4.5337   4.5337   5.3163   5.3163
     5.3531   5.3531   5.4934   5.4934   5.5303   5.5303   5.8266   5.8266
     5.8505   5.8505   5.8707   5.8707   5.9904   5.9904   6.0522   6.0522
     6.1380   6.1380   6.2523   6.2523   6.5447   6.5447   6.5721   6.5721
     6.8166   6.8166   7.1284   7.1284   7.1760   7.1760   7.5389   7.5389
     7.5499   7.5499   7.5745   7.5745   7.5913   7.5913   7.9352   7.9352
     9.3188   9.3188  11.1058  11.1058  11.1751  11.1751  11.1905  11.1905
    11.2752  11.2752  12.6049  12.6049  12.6165  12.6165  13.1377  13.1377
    13.5038  13.5038  13.5351  13.5351  13.5987  13.5987  13.7493  13.7493
    15.4536  15.4536  15.6493  15.6493  15.7893  15.7893  15.8226  15.8226
    16.3327  16.3327  17.9052  17.9584  17.9593

          k = 0.0000-0.4725 0.1667 ( 62246 PWs)   bands (ev):

   -66.1570 -66.1570 -66.1562 -66.1561 -66.1560 -66.1560 -66.1551 -66.1551
   -30.5701 -30.5700 -30.5631 -30.5631 -30.5606 -30.5606 -30.5582 -30.5582
   -30.4776 -30.4776 -30.4732 -30.4732 -30.4601 -30.4601 -30.4558 -30.4558
   -30.4416 -30.4416 -30.4359 -30.4359 -30.4347 -30.4347 -30.4293 -30.4293
   -20.3104 -20.3103 -20.3102 -20.3102 -20.3101 -20.3101 -20.3099 -20.3099
   -20.2878 -20.2878 -20.2874 -20.2874 -20.2871 -20.2871 -20.2866 -20.2866
   -20.2850 -20.2850 -20.2847 -20.2847 -20.2842 -20.2842 -20.2839 -20.2839
   -20.2819 -20.2819 -20.2816 -20.2816 -20.2813 -20.2813 -20.2811 -20.2811
   -20.2802 -20.2802 -20.2798 -20.2798 -20.2780 -20.2780 -20.2769 -20.2769
   -20.2731 -20.2731 -20.2731 -20.2731 -20.2709 -20.2709 -20.2693 -20.2693
   -20.2691 -20.2691 -20.2674 -20.2674 -20.2665 -20.2665 -20.2652 -20.2652
    -9.8829  -9.8829  -9.5112  -9.5112  -9.4543  -9.4543  -9.1938  -9.1938
    -8.3142  -8.3142  -8.2850  -8.2850  -8.2664  -8.2664  -8.2624  -8.2624
    -7.9594  -7.9593  -7.8638  -7.8638  -7.7996  -7.7996  -7.7138  -7.7138
     1.0035   1.0035   1.0897   1.0897   1.2935   1.2935   1.5244   1.5244
     2.3073   2.3073   3.1264   3.1264   3.1788   3.1788   3.2502   3.2502
     3.2863   3.2863   3.4028   3.4028   3.6444   3.6444   3.6828   3.6828
     3.8444   3.8444   4.1892   4.1892   4.5798   4.5798   5.0311   5.0311
     5.2241   5.2241   5.3066   5.3066   5.5029   5.5029   5.5252   5.5252
     5.7520   5.7520   5.8118   5.8118   5.9845   5.9845   6.1095   6.1095
     6.2720   6.2720   6.3580   6.3580   6.5484   6.5484   6.8256   6.8256
     6.9068   6.9068   6.9490   6.9490   7.0005   7.0005   7.5364   7.5364
     7.5486   7.5486   7.5674   7.5674   7.5820   7.5820   7.9087   7.9087
     9.6691   9.6691  11.1882  11.1882  11.2246  11.2246  11.2538  11.2538
    11.3335  11.3335  12.4716  12.4716  12.6652  12.6652  13.1646  13.1646
    13.3474  13.3474  13.4115  13.4115  13.5030  13.5030  13.7707  13.7707
    15.4747  15.4747  15.7765  15.7765  15.8547  15.8547  16.1141  16.1141
    16.4092  16.4092  17.8212  17.8213  17.9517

          k = 0.0000-0.4725 0.3333 ( 62268 PWs)   bands (ev):

   -66.1568 -66.1568 -66.1563 -66.1563 -66.1558 -66.1558 -66.1553 -66.1553
   -30.5630 -30.5630 -30.5593 -30.5593 -30.5482 -30.5482 -30.5437 -30.5437
   -30.4966 -30.4966 -30.4921 -30.4921 -30.4592 -30.4592 -30.4567 -30.4567
   -30.4405 -30.4405 -30.4373 -30.4372 -30.4337 -30.4337 -30.4307 -30.4307
   -20.3103 -20.3103 -20.3101 -20.3101 -20.3101 -20.3101 -20.3100 -20.3100
   -20.2877 -20.2877 -20.2873 -20.2873 -20.2872 -20.2872 -20.2868 -20.2868
   -20.2850 -20.2850 -20.2848 -20.2848 -20.2842 -20.2842 -20.2840 -20.2840
   -20.2819 -20.2819 -20.2816 -20.2816 -20.2815 -20.2815 -20.2812 -20.2812
   -20.2801 -20.2801 -20.2799 -20.2799 -20.2765 -20.2765 -20.2753 -20.2753
   -20.2735 -20.2735 -20.2729 -20.2729 -20.2720 -20.2720 -20.2708 -20.2708
   -20.2688 -20.2688 -20.2678 -20.2678 -20.2662 -20.2662 -20.2655 -20.2655
    -9.7481  -9.7481  -9.5502  -9.5502  -9.1836  -9.1836  -9.0447  -9.0447
    -8.4145  -8.4145  -8.3921  -8.3921  -8.2743  -8.2743  -8.2545  -8.2545
    -8.2031  -8.2031  -8.1397  -8.1397  -7.7821  -7.7821  -7.7320  -7.7320
     1.0895   1.0895   1.0955   1.0955   2.0470   2.0470   2.2004   2.2004
     2.5692   2.5692   3.1436   3.1437   3.1974   3.1974   3.2758   3.2758
     3.3584   3.3585   3.4298   3.4298   3.6048   3.6048   3.6188   3.6188
     3.7756   3.7756   3.8775   3.8775   4.4320   4.4321   4.5706   4.5706
     4.7499   4.7499   4.8424   4.8424   5.0449   5.0449   5.2648   5.2648
     5.5645   5.5645   5.7231   5.7231   6.1048   6.1048   6.1576   6.1576
     6.4210   6.4210   6.4649   6.4649   6.5523   6.5523   6.6592   6.6592
     6.9436   6.9436   7.1886   7.1886   7.1983   7.1983   7.5026   7.5026
     7.5245   7.5245   7.5560   7.5560   7.5764   7.5764   7.7939   7.7939
    10.4213  10.4213  11.2007  11.2007  11.2418  11.2418  11.6158  11.6158
    11.6918  11.6918  12.0144  12.0145  12.8063  12.8063  12.8300  12.8300
    12.8786  12.8786  13.2424  13.2424  13.5055  13.5055  13.6696  13.6696
    15.5616  15.5616  15.7408  15.7408  16.3735  16.3735  16.7530  16.7530
    16.8393  16.8393  17.2921  17.2921  17.8176

          k = 0.0000-0.4725-0.5000 ( 62284 PWs)   bands (ev):

   -66.1566 -66.1566 -66.1566 -66.1566 -66.1556 -66.1556 -66.1556 -66.1556
   -30.5609 -30.5609 -30.5609 -30.5609 -30.5227 -30.5227 -30.5227 -30.5227
   -30.5179 -30.5179 -30.5179 -30.5179 -30.4580 -30.4580 -30.4580 -30.4580
   -30.4389 -30.4389 -30.4389 -30.4389 -30.4322 -30.4322 -30.4322 -30.4322
   -20.3102 -20.3102 -20.3102 -20.3102 -20.3101 -20.3101 -20.3101 -20.3101
   -20.2875 -20.2875 -20.2875 -20.2875 -20.2870 -20.2870 -20.2870 -20.2870
   -20.2849 -20.2849 -20.2849 -20.2849 -20.2841 -20.2841 -20.2841 -20.2841
   -20.2817 -20.2817 -20.2817 -20.2817 -20.2815 -20.2814 -20.2814 -20.2814
   -20.2800 -20.2800 -20.2800 -20.2800 -20.2747 -20.2747 -20.2747 -20.2747
   -20.2735 -20.2735 -20.2734 -20.2734 -20.2723 -20.2723 -20.2723 -20.2723
   -20.2683 -20.2683 -20.2683 -20.2683 -20.2659 -20.2659 -20.2659 -20.2659
    -9.6251  -9.6251  -9.6251  -9.6251  -8.7897  -8.7897  -8.7897  -8.7897
    -8.7491  -8.7491  -8.7491  -8.7491  -8.2630  -8.2630  -8.2630  -8.2630
    -8.2263  -8.2263  -8.2263  -8.2263  -7.7571  -7.7571  -7.7571  -7.7571
     1.1005   1.1005   1.1005   1.1005   2.9004   2.9004   2.9004   2.9004
     3.0079   3.0079   3.0079   3.0079   3.1593   3.1593   3.1593   3.1593
     3.2758   3.2758   3.2758   3.2758   3.4525   3.4526   3.4526   3.4526
     3.6601   3.6601   3.6601   3.6601   4.3206   4.3206   4.3206   4.3206
     4.4253   4.4253   4.4253   4.4253   5.0919   5.0919   5.0919   5.0919
     5.6207   5.6207   5.6207   5.6207   6.2046   6.2046   6.2046   6.2046
     6.3830   6.3831   6.3831   6.3831   6.5138   6.5138   6.5138   6.5138
     7.3171   7.3171   7.3171   7.3171   7.4180   7.4180   7.4180   7.4180
     7.4700   7.4700   7.4700   7.4700   7.6278   7.6278   7.6278   7.6278
    11.1534  11.1535  11.1535  11.1535  11.3381  11.3381  11.3381  11.3381
    12.1967  12.1967  12.1967  12.1967  12.2513  12.2513  12.2513  12.2513
    13.0657  13.0657  13.0657  13.0657  13.5407  13.5407  13.5407  13.5407
    15.6676  15.6676  15.6676  15.6676  16.8073  16.8073  16.8074  16.8074
    17.4823  17.4824  17.4824  17.4824  17.5721

          k = 0.1667 0.0000 0.1667 ( 62234 PWs)   bands (ev):

   -66.1572 -66.1568 -66.1563 -66.1563 -66.1559 -66.1559 -66.1554 -66.1550
   -30.5701 -30.5676 -30.5645 -30.5619 -30.5564 -30.5536 -30.5527 -30.5499
   -30.4815 -30.4778 -30.4772 -30.4752 -30.4740 -30.4696 -30.4682 -30.4637
   -30.4605 -30.4582 -30.4552 -30.4485 -30.4126 -30.4084 -30.4082 -30.4043
   -20.3103 -20.3103 -20.3102 -20.3102 -20.3101 -20.3101 -20.3099 -20.3099
   -20.2883 -20.2878 -20.2877 -20.2874 -20.2871 -20.2871 -20.2866 -20.2862
   -20.2854 -20.2850 -20.2847 -20.2847 -20.2844 -20.2843 -20.2843 -20.2841
   -20.2838 -20.2838 -20.2836 -20.2834 -20.2802 -20.2801 -20.2795 -20.2793
   -20.2792 -20.2786 -20.2785 -20.2783 -20.2778 -20.2777 -20.2770 -20.2769
   -20.2737 -20.2736 -20.2732 -20.2732 -20.2708 -20.2707 -20.2695 -20.2693
   -20.2690 -20.2689 -20.2674 -20.2672 -20.2668 -20.2667 -20.2655 -20.2653
    -9.9498  -9.7454  -9.5680  -9.5317  -9.4135  -9.3593  -9.1615  -9.1434
    -8.8788  -8.7568  -8.7513  -8.7436  -7.9798  -7.9716  -7.9351  -7.9272
    -7.8973  -7.8891  -7.8586  -7.8294  -7.6625  -7.6148  -7.6089  -7.5652
     1.1611   1.1686   1.2844   1.2932   1.3438   1.3628   1.4791   1.6498
     1.7662   1.7894   1.8103   1.9682   2.3584   2.4417   2.6821   2.6911
     2.7939   2.8161   4.0629   4.0734   4.1557   4.2248   4.2693   4.2774
     4.3014   4.3586   4.6710   4.6996   4.7333   4.8573   5.0467   5.1843
     5.2263   5.2743   5.2917   5.4958   5.5612   5.5706   5.5738   5.6783
     5.6865   5.8229   5.8483   5.9794   6.0791   6.1230   6.1615   6.2086
     6.3171   6.4311   6.4912   6.5956   6.5967   6.7128   6.7244   6.7801
     6.8399   6.8938   6.8994   6.9114   6.9240   6.9609   6.9833   7.0171
     7.0630   7.1310   7.8760   7.8777   8.0654   8.1023   8.1326   8.1630
     9.8734   9.9099  10.0480  10.1013  10.1102  10.1967  12.2603  12.3642
    12.4617  12.4790  12.5026  12.5201  12.5539  12.5802  12.8236  12.9921
    13.0494  13.1223  13.5117  13.5186  13.7585  13.7971  13.9701  14.0122
    14.2838  14.4697  14.5780  15.1675  15.2949  15.6592  15.6709  16.5679
    16.5703  17.0908  17.1055  17.3759  17.4936

          k = 0.1667 0.0000 0.3333 ( 62265 PWs)   bands (ev):

   -66.1570 -66.1566 -66.1565 -66.1561 -66.1561 -66.1557 -66.1556 -66.1552
   -30.5579 -30.5563 -30.5541 -30.5512 -30.5477 -30.5466 -30.5448 -30.5430
   -30.4973 -30.4968 -30.4934 -30.4930 -30.4742 -30.4710 -30.4682 -30.4632
   -30.4627 -30.4612 -30.4546 -30.4512 -30.4116 -30.4091 -30.4075 -30.4051
   -20.3103 -20.3103 -20.3102 -20.3101 -20.3101 -20.3101 -20.3100 -20.3100
   -20.2882 -20.2878 -20.2877 -20.2873 -20.2872 -20.2869 -20.2868 -20.2864
   -20.2853 -20.2851 -20.2847 -20.2846 -20.2845 -20.2844 -20.2844 -20.2840
   -20.2840 -20.2837 -20.2837 -20.2835 -20.2802 -20.2801 -20.2795 -20.2795
   -20.2792 -20.2787 -20.2786 -20.2784 -20.2764 -20.2762 -20.2754 -20.2754
   -20.2739 -20.2735 -20.2734 -20.2730 -20.2720 -20.2719 -20.2710 -20.2708
   -20.2687 -20.2686 -20.2678 -20.2676 -20.2665 -20.2664 -20.2658 -20.2657
    -9.8079  -9.5944  -9.5784  -9.3945  -9.3328  -9.1386  -9.0331  -9.0085
    -8.9234  -8.7703  -8.7218  -8.7109  -8.3108  -8.2993  -8.2641  -8.2319
    -7.9369  -7.9091  -7.8878  -7.8594  -7.6531  -7.6253  -7.6005  -7.5748
     1.3374   1.3375   1.3628   1.3695   1.6943   1.7027   1.7532   1.7946
     2.0550   2.1345   2.2106   2.3342   2.6339   2.6916   2.7387   2.7821
     2.9343   3.0382   3.5962   3.6945   3.9102   3.9289   4.1670   4.1845
     4.1856   4.4056   4.4148   4.4812   4.5757   4.6356   4.6722   4.7604
     4.8880   4.9341   4.9899   5.1050   5.1362   5.2959   5.5919   5.6146
     5.6972   5.8634   5.8863   5.9418   5.9711   6.0330   6.0791   6.1616
     6.3821   6.4559   6.5314   6.5752   6.6419   6.6801   6.7578   6.7934
     6.8442   6.8633   6.9098   6.9444   6.9636   7.0437   7.0821   7.1233
     7.2587   7.3303   7.7622   7.7669   7.9764   8.0159   8.0980   8.1048
    10.0590  10.0688  10.5398  10.6027  10.7821  10.8525  12.0305  12.0784
    12.2235  12.4430  12.4599  12.5411  12.6260  12.6464  12.7069  12.7898
    12.8466  13.0849  13.3088  13.3756  13.5819  13.6217  13.7958  13.8203
    14.3940  14.5523  14.7579  15.2022  15.4926  16.0019  16.1987  16.4886
    16.5102  17.4926  17.5489  17.6893  17.7278

          k = 0.1667 0.0000-0.5000 ( 62322 PWs)   bands (ev):

   -66.1567 -66.1567 -66.1563 -66.1563 -66.1558 -66.1558 -66.1554 -66.1554
   -30.5557 -30.5557 -30.5528 -30.5528 -30.5231 -30.5231 -30.5220 -30.5219
   -30.5192 -30.5192 -30.5179 -30.5179 -30.4727 -30.4727 -30.4660 -30.4660
   -30.4621 -30.4621 -30.4532 -30.4532 -30.4103 -30.4103 -30.4063 -30.4063
   -20.3102 -20.3102 -20.3102 -20.3102 -20.3101 -20.3101 -20.3101 -20.3101
   -20.2880 -20.2880 -20.2875 -20.2874 -20.2870 -20.2870 -20.2867 -20.2867
   -20.2852 -20.2852 -20.2846 -20.2846 -20.2845 -20.2845 -20.2843 -20.2843
   -20.2838 -20.2838 -20.2836 -20.2835 -20.2801 -20.2801 -20.2796 -20.2796
   -20.2790 -20.2790 -20.2785 -20.2785 -20.2748 -20.2748 -20.2745 -20.2745
   -20.2736 -20.2735 -20.2735 -20.2735 -20.2726 -20.2726 -20.2725 -20.2725
   -20.2683 -20.2683 -20.2682 -20.2682 -20.2662 -20.2662 -20.2661 -20.2661
    -9.6682  -9.6682  -9.4654  -9.4654  -9.0627  -9.0627  -8.8432  -8.8431
    -8.7324  -8.7324  -8.7089  -8.7089  -8.6181  -8.6181  -8.5620  -8.5620
    -7.9133  -7.9133  -7.8841  -7.8841  -7.6394  -7.6394  -7.5878  -7.5878
     1.3472   1.3472   1.3778   1.3778   1.7392   1.7392   1.7729   1.7729
     2.7245   2.7245   2.9197   2.9197   2.9853   2.9853   3.0537   3.0537
     3.0958   3.0958   3.2388   3.2388   3.3855   3.3855   3.7161   3.7161
     3.8064   3.8064   4.3135   4.3135   4.5689   4.5689   4.7653   4.7653
     4.8289   4.8289   4.9037   4.9037   5.0805   5.0805   5.6647   5.6647
     5.7237   5.7237   5.7703   5.7703   6.0114   6.0114   6.1548   6.1548
     6.3642   6.3642   6.5877   6.5877   6.6164   6.6164   6.7481   6.7481
     6.8734   6.8734   6.9005   6.9005   6.9812   6.9812   7.4887   7.4887
     7.5020   7.5020   7.6926   7.6926   7.7368   7.7369   8.1048   8.1048
    10.0703  10.0703  11.3166  11.3166  11.3783  11.3783  11.5815  11.5815
    11.6829  11.6829  12.5568  12.5568  12.6714  12.6715  12.9259  12.9259
    13.0273  13.0273  13.1648  13.1648  13.2736  13.2736  13.7946  13.7946
    14.4978  14.4978  15.0279  15.0279  15.9464  15.9464  16.3029  16.3029
    17.0314  17.0314  17.9036  17.9036  18.0214

          k = 0.1667 0.1575 0.1667 ( 62255 PWs)   bands (ev):

   -66.1571 -66.1568 -66.1563 -66.1562 -66.1559 -66.1559 -66.1554 -66.1550
   -30.5700 -30.5678 -30.5644 -30.5621 -30.5562 -30.5537 -30.5525 -30.5501
   -30.4803 -30.4771 -30.4764 -30.4739 -30.4732 -30.4677 -30.4658 -30.4639
   -30.4605 -30.4558 -30.4537 -30.4468 -30.4164 -30.4122 -30.4120 -30.4079
   -20.3103 -20.3103 -20.3102 -20.3102 -20.3101 -20.3101 -20.3099 -20.3099
   -20.2882 -20.2878 -20.2876 -20.2875 -20.2871 -20.2870 -20.2867 -20.2863
   -20.2853 -20.2850 -20.2847 -20.2846 -20.2844 -20.2843 -20.2842 -20.2838
   -20.2837 -20.2837 -20.2833 -20.2832 -20.2803 -20.2801 -20.2796 -20.2794
   -20.2794 -20.2789 -20.2788 -20.2786 -20.2778 -20.2778 -20.2770 -20.2769
   -20.2736 -20.2736 -20.2732 -20.2732 -20.2708 -20.2707 -20.2695 -20.2693
   -20.2690 -20.2689 -20.2674 -20.2672 -20.2668 -20.2667 -20.2655 -20.2653
    -9.9299  -9.7545  -9.5496  -9.5111  -9.4191  -9.3656  -9.1603  -9.1446
    -8.8073  -8.7021  -8.6983  -8.6898  -7.9832  -7.9701  -7.9372  -7.9311
    -7.8969  -7.8962  -7.8581  -7.8320  -7.7529  -7.7089  -7.7042  -7.6632
     1.1615   1.1679   1.2906   1.2937   1.3541   1.3635   1.5537   1.6496
     1.9617   2.0103   2.0294   2.1533   2.3646   2.4368   2.7577   2.7629
     2.8670   2.8833   3.9448   3.9668   4.0530   4.0838   4.2327   4.2608
     4.2731   4.2803   4.6286   4.7054   4.7835   4.8697   4.9533   5.1318
     5.1938   5.2554   5.2668   5.3154   5.3574   5.5300   5.5408   5.6520
     5.6904   5.7962   5.9264   5.9472   5.9830   6.0797   6.1412   6.2071
     6.3278   6.3383   6.4678   6.5501   6.6225   6.7111   6.7314   6.7564
     6.7670   6.8565   6.8779   6.9281   6.9629   7.0005   7.0228   7.0349
     7.0858   7.1415   7.8746   7.8788   8.0233   8.0493   8.0784   8.0907
     9.9017   9.9226  10.2117  10.2502  10.2859  10.3439  12.1462  12.2535
    12.3262  12.3608  12.5018  12.5148  12.5321  12.5474  12.8632  13.0260
    13.0504  13.1278  13.5019  13.5046  13.7625  13.8104  13.8755  13.9358
    14.5291  14.7893  14.8316  15.2599  15.6595  15.6652  15.7087  16.5255
    16.5375  17.0114  17.1800  17.1901  17.5439

          k = 0.1667 0.1575 0.3333 ( 62260 PWs)   bands (ev):

   -66.1569 -66.1566 -66.1564 -66.1561 -66.1561 -66.1557 -66.1556 -66.1552
   -30.5578 -30.5564 -30.5539 -30.5514 -30.5476 -30.5467 -30.5447 -30.5431
   -30.4970 -30.4967 -30.4930 -30.4929 -30.4722 -30.4694 -30.4645 -30.4632
   -30.4613 -30.4595 -30.4528 -30.4493 -30.4155 -30.4129 -30.4112 -30.4087
   -20.3103 -20.3103 -20.3102 -20.3101 -20.3101 -20.3101 -20.3100 -20.3100
   -20.2881 -20.2877 -20.2876 -20.2873 -20.2872 -20.2870 -20.2869 -20.2865
   -20.2852 -20.2851 -20.2847 -20.2845 -20.2845 -20.2843 -20.2842 -20.2839
   -20.2837 -20.2836 -20.2834 -20.2834 -20.2803 -20.2801 -20.2796 -20.2795
   -20.2795 -20.2791 -20.2788 -20.2787 -20.2764 -20.2763 -20.2754 -20.2754
   -20.2739 -20.2735 -20.2734 -20.2731 -20.2720 -20.2720 -20.2710 -20.2708
   -20.2687 -20.2686 -20.2678 -20.2677 -20.2665 -20.2665 -20.2658 -20.2657
    -9.7862  -9.6034  -9.5571  -9.4013  -9.3064  -9.1443  -9.0307  -9.0096
    -8.8548  -8.7205  -8.6711  -8.6641  -8.3149  -8.2953  -8.2704  -8.2273
    -7.9363  -7.9139  -7.8874  -7.8639  -7.7447  -7.7183  -7.6970  -7.6721
     1.3465   1.3480   1.3660   1.3698   1.8661   1.8787   1.9698   2.0169
     2.0554   2.1806   2.2105   2.3791   2.6402   2.7084   2.7880   2.8529
     3.0092   3.1055   3.5965   3.6892   3.8590   3.9211   4.0489   4.0944
     4.2254   4.3206   4.3821   4.4493   4.5543   4.5817   4.6452   4.7561
     4.8226   4.8325   4.9153   5.0869   5.0966   5.1263   5.3823   5.5671
     5.6712   5.7323   5.8157   5.8939   5.9179   5.9931   6.0206   6.0705
     6.3043   6.4697   6.5602   6.6792   6.6884   6.7251   6.7379   6.7470
     6.8277   6.9140   6.9220   6.9780   7.0141   7.0808   7.0846   7.1495
     7.2571   7.3296   7.7639   7.7648   7.9329   7.9604   8.0464   8.0520
    10.2285  10.2501  10.5557  10.6119  10.8842  10.9399  12.0272  12.0745
    12.1896  12.3671  12.3965  12.4901  12.5285  12.6310  12.6567  12.7348
    12.8839  13.0701  13.2730  13.3793  13.4775  13.5507  13.7862  13.7997
    14.6701  14.8061  15.1255  15.5368  15.6437  15.9931  16.2139  16.4537
    16.5932  17.3790  17.4486  17.6094  17.7368

          k = 0.1667 0.1575-0.5000 ( 62292 PWs)   bands (ev):

   -66.1567 -66.1567 -66.1563 -66.1563 -66.1558 -66.1558 -66.1555 -66.1555
   -30.5555 -30.5555 -30.5530 -30.5530 -30.5230 -30.5230 -30.5219 -30.5219
   -30.5191 -30.5190 -30.5179 -30.5179 -30.4709 -30.4709 -30.4626 -30.4626
   -30.4621 -30.4621 -30.4514 -30.4514 -30.4141 -30.4141 -30.4100 -30.4100
   -20.3102 -20.3102 -20.3102 -20.3102 -20.3101 -20.3101 -20.3101 -20.3101
   -20.2879 -20.2879 -20.2874 -20.2874 -20.2871 -20.2871 -20.2867 -20.2867
   -20.2852 -20.2851 -20.2846 -20.2846 -20.2845 -20.2844 -20.2841 -20.2841
   -20.2836 -20.2835 -20.2835 -20.2834 -20.2802 -20.2802 -20.2796 -20.2796
   -20.2793 -20.2793 -20.2787 -20.2787 -20.2748 -20.2748 -20.2745 -20.2745
   -20.2736 -20.2735 -20.2735 -20.2735 -20.2726 -20.2726 -20.2725 -20.2725
   -20.2683 -20.2683 -20.2682 -20.2682 -20.2662 -20.2661 -20.2661 -20.2661
    -9.6460  -9.6460  -9.4733  -9.4733  -9.0128  -9.0128  -8.8187  -8.8187
    -8.7366  -8.7366  -8.7114  -8.7114  -8.5912  -8.5912  -8.5392  -8.5392
    -7.9135  -7.9135  -7.8882  -7.8882  -7.7317  -7.7317  -7.6847  -7.6847
     1.3616   1.3616   1.3775   1.3775   1.9402   1.9402   2.0043   2.0043
     2.7855   2.7855   2.9302   2.9302   2.9915   2.9915   3.0613   3.0613
     3.0972   3.0972   3.2655   3.2655   3.3792   3.3792   3.7438   3.7438
     3.8639   3.8639   4.1729   4.1730   4.4774   4.4774   4.6806   4.6806
     4.7832   4.7832   4.8664   4.8664   4.9659   4.9659   5.4999   5.4999
     5.6570   5.6570   5.7461   5.7461   5.8713   5.8713   6.0423   6.0423
     6.4547   6.4547   6.6075   6.6075   6.6930   6.6931   6.7822   6.7822
     6.8177   6.8177   6.9461   6.9461   7.0442   7.0443   7.4917   7.4917
     7.5009   7.5010   7.6697   7.6697   7.7074   7.7074   8.0512   8.0512
    10.2508  10.2509  11.3226  11.3226  11.3794  11.3794  11.6439  11.6439
    11.7378  11.7378  12.4067  12.4067  12.6680  12.6680  12.8596  12.8596
    13.0106  13.0106  13.0739  13.0739  13.2462  13.2462  13.7741  13.7741
    14.7631  14.7631  15.4158  15.4158  16.0331  16.0331  16.2762  16.2762
    17.0688  17.0688  17.7454  17.7454  17.9890

          k = 0.1667 0.3150 0.1667 ( 62249 PWs)   bands (ev):

   -66.1571 -66.1569 -66.1562 -66.1562 -66.1560 -66.1560 -66.1553 -66.1551
   -30.5695 -30.5682 -30.5639 -30.5625 -30.5557 -30.5542 -30.5521 -30.5506
   -30.4783 -30.4771 -30.4744 -30.4737 -30.4693 -30.4660 -30.4642 -30.4609
   -30.4554 -30.4481 -30.4472 -30.4408 -30.4269 -30.4223 -30.4220 -30.4175
   -20.3103 -20.3103 -20.3102 -20.3102 -20.3101 -20.3101 -20.3099 -20.3099
   -20.2880 -20.2876 -20.2876 -20.2874 -20.2873 -20.2869 -20.2868 -20.2864
   -20.2852 -20.2849 -20.2848 -20.2845 -20.2845 -20.2841 -20.2841 -20.2838
   -20.2831 -20.2829 -20.2825 -20.2823 -20.2808 -20.2804 -20.2803 -20.2798
   -20.2796 -20.2794 -20.2792 -20.2790 -20.2779 -20.2778 -20.2770 -20.2770
   -20.2736 -20.2735 -20.2733 -20.2733 -20.2708 -20.2708 -20.2695 -20.2694
   -20.2690 -20.2689 -20.2674 -20.2673 -20.2668 -20.2667 -20.2654 -20.2654
    -9.8812  -9.7818  -9.5080  -9.4646  -9.4364  -9.3848  -9.1569  -9.1479
    -8.6062  -8.5381  -8.5356  -8.5285  -8.0497  -8.0023  -7.9972  -7.9686
    -7.9633  -7.9312  -7.9189  -7.9058  -7.8821  -7.8453  -7.8430  -7.8299
     1.1626   1.1663   1.2946   1.2956   1.3626   1.3644   1.6214   1.6480
     2.3763   2.4176   2.5209   2.6053   2.6348   2.7402   2.9802   3.0070
     3.0769   3.1150   3.5968   3.6440   3.7007   3.7514   4.1544   4.2185
     4.2415   4.2483   4.2772   4.5542   4.5882   4.8279   4.8575   4.9537
     4.9915   5.0246   5.1092   5.1490   5.3074   5.3726   5.4441   5.4492
     5.6955   5.7052   5.7633   5.7800   5.8841   5.8920   6.1295   6.1554
     6.3396   6.3778   6.4223   6.5707   6.6278   6.6703   6.7501   6.7881
     6.8664   6.8813   6.9714   6.9922   7.0301   7.0402   7.1778   7.1881
     7.2363   7.2406   7.8304   7.8587   7.8692   7.8847   7.8935   7.9154
     9.9250   9.9303  10.6555  10.6869  10.7519  10.7754  11.7794  11.8668
    11.9216  11.9467  12.5059  12.5202  12.5297  12.5407  12.9771  13.0971
    13.1354  13.2041  13.4253  13.4521  13.5686  13.6427  13.7311  13.7790
    15.3129  15.4539  15.5075  15.5997  15.6742  15.6771  16.3820  16.4054
    16.4675  16.7038  17.2527  17.4564  17.4598

          k = 0.1667 0.3150 0.3333 ( 62265 PWs)   bands (ev):

   -66.1569 -66.1567 -66.1564 -66.1562 -66.1560 -66.1558 -66.1555 -66.1553
   -30.5574 -30.5566 -30.5534 -30.5519 -30.5474 -30.5468 -30.5443 -30.5434
   -30.4965 -30.4964 -30.4927 -30.4926 -30.4685 -30.4663 -30.4640 -30.4620
   -30.4542 -30.4502 -30.4462 -30.4428 -30.4259 -30.4231 -30.4212 -30.4185
   -20.3103 -20.3103 -20.3102 -20.3101 -20.3101 -20.3101 -20.3100 -20.3100
   -20.2879 -20.2875 -20.2874 -20.2874 -20.2871 -20.2870 -20.2870 -20.2866
   -20.2851 -20.2849 -20.2848 -20.2846 -20.2844 -20.2842 -20.2841 -20.2839
   -20.2830 -20.2828 -20.2826 -20.2825 -20.2808 -20.2805 -20.2804 -20.2800
   -20.2796 -20.2795 -20.2792 -20.2791 -20.2764 -20.2764 -20.2754 -20.2754
   -20.2738 -20.2736 -20.2733 -20.2731 -20.2720 -20.2720 -20.2709 -20.2709
   -20.2687 -20.2686 -20.2678 -20.2677 -20.2665 -20.2665 -20.2657 -20.2657
    -9.7337  -9.6307  -9.5081  -9.4222  -9.2489  -9.1625  -9.0251  -9.0133
    -8.6654  -8.5734  -8.5168  -8.5143  -8.3317  -8.2983  -8.2784  -8.2095
    -8.0002  -7.9880  -7.9593  -7.9362  -7.9138  -7.8897  -7.8656  -7.8464
     1.3523   1.3538   1.3705   1.3717   2.0304   2.0539   2.1444   2.2085
     2.5257   2.5968   2.6305   2.6475   2.6704   2.7835   2.9959   3.0645
     3.2416   3.3171   3.5670   3.6528   3.6730   3.7036   3.7693   3.8094
     4.1237   4.2750   4.3483   4.3832   4.4105   4.4354   4.5590   4.6015
     4.6058   4.7899   4.8203   4.8953   4.9748   5.0240   5.0579   5.1732
     5.3119   5.4026   5.4816   5.7012   5.7241   5.8853   5.9644   5.9954
     6.4209   6.5081   6.5950   6.7211   6.7530   6.7794   6.8467   6.8568
     6.9375   7.0131   7.0593   7.0793   7.1350   7.1933   7.2318   7.2513
     7.2856   7.3337   7.7443   7.7681   7.7839   7.7937   7.8697   7.8886
    10.5341  10.5584  10.7330  10.7797  11.1781  11.2339  11.8574  11.9286
    12.0444  12.1015  12.1098  12.1795  12.6111  12.6407  12.6801  12.7142
    12.9670  13.0975  13.1041  13.2325  13.3607  13.4413  13.6275  13.6600
    15.4117  15.4613  15.8747  15.9537  15.9856  16.2519  16.3704  16.5985
    16.8651  16.8893  17.2811  17.5315  17.7364

          k = 0.1667 0.3150-0.5000 ( 62264 PWs)   bands (ev):

   -66.1566 -66.1566 -66.1564 -66.1564 -66.1557 -66.1557 -66.1555 -66.1555
   -30.5549 -30.5549 -30.5535 -30.5535 -30.5227 -30.5226 -30.5220 -30.5220
   -30.5187 -30.5187 -30.5180 -30.5180 -30.4673 -30.4673 -30.4631 -30.4631
   -30.4524 -30.4524 -30.4446 -30.4446 -30.4245 -30.4245 -30.4199 -30.4199
   -20.3102 -20.3102 -20.3102 -20.3102 -20.3101 -20.3101 -20.3101 -20.3101
   -20.2877 -20.2877 -20.2872 -20.2872 -20.2872 -20.2872 -20.2868 -20.2868
   -20.2850 -20.2850 -20.2847 -20.2847 -20.2843 -20.2843 -20.2840 -20.2840
   -20.2828 -20.2828 -20.2827 -20.2827 -20.2807 -20.2807 -20.2802 -20.2802
   -20.2796 -20.2796 -20.2792 -20.2792 -20.2748 -20.2747 -20.2746 -20.2746
   -20.2736 -20.2735 -20.2735 -20.2735 -20.2726 -20.2726 -20.2725 -20.2725
   -20.2683 -20.2683 -20.2682 -20.2682 -20.2661 -20.2661 -20.2661 -20.2661
    -9.5937  -9.5937  -9.4974  -9.4974  -8.8990  -8.8990  -8.7797  -8.7797
    -8.7467  -8.7467  -8.7193  -8.7193  -8.4802  -8.4802  -8.4463  -8.4463
    -7.9922  -7.9922  -7.9545  -7.9545  -7.8920  -7.8920  -7.8666  -7.8666
     1.3730   1.3730   1.3774   1.3774   2.5043   2.5044   2.5977   2.5977
     2.9088   2.9088   2.9646   2.9646   3.0308   3.0308   3.0868   3.0868
     3.1284   3.1284   3.3386   3.3386   3.3566   3.3566   3.6864   3.6864
     4.0123   4.0124   4.0596   4.0597   4.0712   4.0712   4.3334   4.3334
     4.7169   4.7169   4.7946   4.7947   4.9459   4.9459   5.0568   5.0568
     5.0997   5.0997   5.5508   5.5508   5.7822   5.7822   5.8982   5.8982
     6.5722   6.5722   6.6760   6.6760   6.7235   6.7235   6.8062   6.8062
     7.0822   7.0822   7.1365   7.1365   7.2090   7.2090   7.4832   7.4832
     7.5162   7.5162   7.5865   7.5865   7.6154   7.6154   7.8758   7.8758
    10.7162  10.7162  11.3322  11.3322  11.3826  11.3827  11.7795  11.7796
    11.9191  11.9191  12.0596  12.0596  12.5357  12.5357  12.6064  12.6064
    12.9244  12.9244  13.0135  13.0135  13.2609  13.2609  13.6002  13.6002
    15.4456  15.4456  16.1720  16.1720  16.2926  16.2926  16.4104  16.4104
    17.2068  17.2069  17.3636  17.3636  17.9404

          k = 0.1667-0.4725 0.1667 ( 62220 PWs)   bands (ev):

   -66.1570 -66.1569 -66.1561 -66.1561 -66.1561 -66.1561 -66.1552 -66.1552
   -30.5688 -30.5688 -30.5632 -30.5632 -30.5549 -30.5549 -30.5513 -30.5513
   -30.4773 -30.4773 -30.4736 -30.4736 -30.4668 -30.4667 -30.4624 -30.4624
   -30.4412 -30.4412 -30.4357 -30.4356 -30.4353 -30.4352 -30.4300 -30.4300
   -20.3103 -20.3103 -20.3102 -20.3102 -20.3101 -20.3101 -20.3099 -20.3099
   -20.2878 -20.2878 -20.2874 -20.2874 -20.2871 -20.2871 -20.2866 -20.2866
   -20.2850 -20.2850 -20.2847 -20.2847 -20.2843 -20.2843 -20.2840 -20.2840
   -20.2819 -20.2819 -20.2816 -20.2816 -20.2813 -20.2813 -20.2811 -20.2811
   -20.2796 -20.2796 -20.2792 -20.2792 -20.2779 -20.2779 -20.2770 -20.2770
   -20.2735 -20.2735 -20.2734 -20.2734 -20.2708 -20.2708 -20.2694 -20.2694
   -20.2690 -20.2690 -20.2673 -20.2673 -20.2668 -20.2668 -20.2654 -20.2654
    -9.8262  -9.8262  -9.4665  -9.4664  -9.4182  -9.4182  -9.1524  -9.1524
    -8.3232  -8.3225  -8.2834  -8.2824  -8.2769  -8.2759  -8.2661  -8.2645
    -7.9585  -7.9569  -7.9273  -7.9267  -7.8765  -7.8764  -7.8407  -7.8404
     1.1637   1.1648   1.2954   1.2963   1.3643   1.3650   1.6415   1.6425
     2.3978   2.3989   3.1351   3.1387   3.1803   3.2031   3.2424   3.2553
     3.3440   3.3474   3.4060   3.4121   3.6687   3.6739   3.6842   3.6907
     3.8567   3.8587   4.2239   4.2524   4.2540   4.2696   4.9686   4.9905
     5.0748   5.0842   5.1997   5.2294   5.2445   5.2633   5.4345   5.4491
     5.5204   5.5231   5.7118   5.7427   5.7626   5.7763   6.1547   6.1552
     6.3793   6.3893   6.5209   6.5210   6.6102   6.6259   6.8149   6.8165
     6.8270   6.8405   7.0073   7.0108   7.0571   7.0622   7.5294   7.5295
     7.5427   7.5486   7.5595   7.5732   7.5839   7.5848   7.8854   7.8865
     9.9305   9.9322  11.2150  11.2396  11.2589  11.2886  11.3359  11.3414
    11.3957  11.3971  12.5082  12.5233  12.5319  12.5407  13.1257  13.1279
    13.3122  13.3267  13.3480  13.3510  13.3831  13.3993  13.6967  13.6983
    15.6432  15.6477  15.9075  15.9221  16.0634  16.0812  16.1000  16.1072
    16.4684  16.4712  17.7842  17.8004  17.8713

          k = 0.1667-0.4725 0.3333 ( 62252 PWs)   bands (ev):

   -66.1568 -66.1568 -66.1563 -66.1563 -66.1559 -66.1559 -66.1554 -66.1554
   -30.5569 -30.5569 -30.5527 -30.5526 -30.5471 -30.5471 -30.5439 -30.5439
   -30.4963 -30.4963 -30.4925 -30.4924 -30.4659 -30.4658 -30.4634 -30.4634
   -30.4401 -30.4401 -30.4369 -30.4369 -30.4344 -30.4344 -30.4313 -30.4313
   -20.3103 -20.3103 -20.3102 -20.3102 -20.3101 -20.3101 -20.3100 -20.3100
   -20.2877 -20.2876 -20.2873 -20.2873 -20.2872 -20.2872 -20.2868 -20.2868
   -20.2849 -20.2849 -20.2848 -20.2847 -20.2843 -20.2842 -20.2840 -20.2840
   -20.2819 -20.2819 -20.2816 -20.2816 -20.2815 -20.2815 -20.2813 -20.2813
   -20.2796 -20.2795 -20.2793 -20.2793 -20.2764 -20.2764 -20.2754 -20.2754
   -20.2737 -20.2737 -20.2732 -20.2732 -20.2720 -20.2720 -20.2709 -20.2709
   -20.2687 -20.2687 -20.2677 -20.2677 -20.2665 -20.2665 -20.2657 -20.2657
    -9.6760  -9.6760  -9.4584  -9.4584  -9.1967  -9.1964  -9.0189  -9.0187
    -8.4307  -8.4284  -8.3899  -8.3854  -8.2765  -8.2726  -8.2628  -8.2596
    -8.2008  -8.1985  -8.1452  -8.1434  -7.9133  -7.9127  -7.8649  -7.8648
     1.3538   1.3543   1.3714   1.3729   2.0497   2.0511   2.1978   2.1984
     2.6673   2.6717   3.1560   3.1745   3.2116   3.2166   3.2648   3.2941
     3.3652   3.3725   3.4683   3.4709   3.6332   3.6352   3.6615   3.7065
     3.7726   3.7894   3.8929   3.8951   4.3691   4.3693   4.4856   4.5036
     4.5988   4.6576   4.8143   4.8220   4.9513   4.9675   4.9902   5.0628
     5.2384   5.2846   5.3352   5.4467   5.7489   5.7683   5.9622   5.9834
     6.4865   6.4900   6.6673   6.6931   6.7846   6.7988   6.8576   6.8763
     6.9641   7.0220   7.1775   7.1873   7.2152   7.2294   7.5043   7.5070
     7.5164   7.5235   7.5519   7.5519   7.5667   7.5891   7.7807   7.7881
    10.5682  10.5702  11.3073  11.3083  11.3580  11.3612  11.6223  11.6290
    11.6823  11.7016  12.0631  12.0984  12.6550  12.7174  12.8267  12.8447
    12.8500  12.8965  13.1181  13.1783  13.3315  13.3513  13.5291  13.5725
    15.8243  15.8320  16.0187  16.0216  16.4379  16.4535  16.7536  16.7793
    16.8320  16.8401  17.3396  17.3467  17.7474

          k = 0.1667-0.4725-0.5000 ( 62232 PWs)   bands (ev):

   -66.1565 -66.1565 -66.1565 -66.1565 -66.1556 -66.1556 -66.1556 -66.1556
   -30.5542 -30.5542 -30.5542 -30.5542 -30.5223 -30.5223 -30.5223 -30.5223
   -30.5183 -30.5183 -30.5183 -30.5183 -30.4646 -30.4646 -30.4646 -30.4646
   -30.4386 -30.4386 -30.4385 -30.4385 -30.4329 -30.4329 -30.4329 -30.4329
   -20.3102 -20.3102 -20.3102 -20.3102 -20.3101 -20.3101 -20.3101 -20.3101
   -20.2875 -20.2874 -20.2874 -20.2874 -20.2870 -20.2870 -20.2870 -20.2870
   -20.2849 -20.2848 -20.2848 -20.2848 -20.2842 -20.2842 -20.2842 -20.2841
   -20.2817 -20.2817 -20.2817 -20.2817 -20.2815 -20.2815 -20.2815 -20.2815
   -20.2795 -20.2794 -20.2794 -20.2794 -20.2747 -20.2747 -20.2747 -20.2747
   -20.2736 -20.2736 -20.2735 -20.2735 -20.2726 -20.2726 -20.2725 -20.2725
   -20.2682 -20.2682 -20.2682 -20.2682 -20.2661 -20.2661 -20.2661 -20.2661
    -9.5387  -9.5387  -9.5387  -9.5387  -8.8081  -8.8081  -8.8065  -8.8065
    -8.7345  -8.7345  -8.7326  -8.7325  -8.2627  -8.2626  -8.2603  -8.2603
    -8.2342  -8.2342  -8.2317  -8.2317  -7.8893  -7.8893  -7.8889  -7.8889
     1.3761   1.3761   1.3769   1.3769   2.9160   2.9160   2.9205   2.9206
     3.0069   3.0069   3.0372   3.0372   3.1686   3.1686   3.2104   3.2104
     3.3044   3.3044   3.3303   3.3303   3.4652   3.4652   3.4789   3.4789
     3.6820   3.6820   3.7019   3.7019   4.3187   4.3187   4.3193   4.3194
     4.4084   4.4084   4.4213   4.4213   4.7603   4.7603   4.8466   4.8466
     5.2391   5.2391   5.3417   5.3417   5.7926   5.7926   5.8174   5.8174
     6.6354   6.6354   6.6514   6.6514   6.7775   6.7775   6.7881   6.7881
     7.3001   7.3001   7.3652   7.3652   7.4080   7.4080   7.4180   7.4180
     7.4634   7.4634   7.4931   7.4932   7.6120   7.6120   7.6407   7.6407
    11.2249  11.2249  11.2738  11.2738  11.4097  11.4097  11.4809  11.4809
    12.1992  12.1992  12.2058  12.2058  12.2395  12.2395  12.2608  12.2608
    12.9265  12.9265  13.0010  13.0010  13.3563  13.3563  13.4149  13.4149
    15.9475  15.9475  15.9565  15.9565  16.8668  16.8669  16.8674  16.8674
    17.4575  17.4576  17.4887  17.4887  17.5740

          k = 0.3333 0.0000 0.3333 ( 62316 PWs)   bands (ev):

   -66.1568 -66.1564 -66.1563 -66.1563 -66.1559 -66.1559 -66.1558 -66.1554
   -30.5502 -30.5479 -30.5468 -30.5445 -30.5367 -30.5354 -30.5334 -30.5325
   -30.4966 -30.4960 -30.4945 -30.4943 -30.4878 -30.4858 -30.4822 -30.4800
   -30.4668 -30.4615 -30.4609 -30.4564 -30.4107 -30.4083 -30.4082 -30.4059
   -20.3103 -20.3103 -20.3102 -20.3102 -20.3101 -20.3101 -20.3100 -20.3100
   -20.2881 -20.2878 -20.2877 -20.2874 -20.2872 -20.2870 -20.2868 -20.2865
   -20.2852 -20.2850 -20.2848 -20.2846 -20.2846 -20.2844 -20.2844 -20.2841
   -20.2840 -20.2838 -20.2837 -20.2836 -20.2798 -20.2794 -20.2793 -20.2788
   -20.2782 -20.2781 -20.2776 -20.2775 -20.2763 -20.2761 -20.2756 -20.2755
   -20.2748 -20.2744 -20.2743 -20.2740 -20.2719 -20.2718 -20.2713 -20.2711
   -20.2684 -20.2683 -20.2675 -20.2674 -20.2672 -20.2670 -20.2664 -20.2662
    -9.6474  -9.4132  -9.3836  -9.3593  -9.1748  -9.1284  -8.9779  -8.9275
    -8.9046  -8.7274  -8.7133  -8.6989  -8.3653  -8.2924  -8.2871  -8.2707
    -8.2556  -8.2508  -8.1797  -8.1559  -7.6436  -7.6164  -7.6123  -7.5862
     1.6613   1.6878   1.6917   1.7407   1.9307   1.9359   2.0597   2.1045
     2.1453   2.1822   2.3478   2.4718   2.9066   2.9305   2.9406   2.9847
     3.0335   3.0833   3.6844   3.7493   3.8034   3.8976   3.9070   3.9533
     4.1395   4.1437   4.1712   4.2618   4.3001   4.3113   4.4278   4.4772
     4.6577   4.7458   4.8136   4.8876   4.8898   4.9020   5.0310   5.2807
     5.3138   5.3586   5.4256   5.7134   6.1033   6.1067   6.1465   6.1780
     6.5119   6.5275   6.5494   6.6324   6.6639   6.6860   6.7198   6.7220
     6.9884   7.0563   7.0630   7.0988   7.1348   7.1542   7.2453   7.2586
     7.2901   7.4496   7.6843   7.6882   7.9301   7.9804   8.0171   8.0389
    10.6683  10.7384  10.7430  10.8125  11.0391  11.1441  12.1442  12.1501
    12.2220  12.2820  12.2842  12.3151  12.4750  12.5028  12.7191  12.7610
    12.7884  12.8687  13.0189  13.1493  13.4767  13.5318  13.5784  13.6650
    14.4664  14.7063  14.7137  15.1109  15.9123  16.6107  16.6342  16.9071
    16.9187  17.4253  17.4502  17.8273  17.8875

          k = 0.3333 0.0000-0.5000 ( 62288 PWs)   bands (ev):

   -66.1565 -66.1565 -66.1561 -66.1561 -66.1560 -66.1560 -66.1556 -66.1556
   -30.5374 -30.5373 -30.5351 -30.5351 -30.5217 -30.5217 -30.5208 -30.5208
   -30.5199 -30.5199 -30.5187 -30.5187 -30.4867 -30.4867 -30.4814 -30.4814
   -30.4646 -30.4646 -30.4591 -30.4591 -30.4094 -30.4094 -30.4071 -30.4071
   -20.3102 -20.3102 -20.3102 -20.3102 -20.3101 -20.3101 -20.3101 -20.3101
   -20.2879 -20.2879 -20.2876 -20.2876 -20.2870 -20.2870 -20.2868 -20.2868
   -20.2851 -20.2851 -20.2847 -20.2847 -20.2845 -20.2845 -20.2843 -20.2843
   -20.2838 -20.2838 -20.2837 -20.2837 -20.2796 -20.2796 -20.2791 -20.2791
   -20.2782 -20.2782 -20.2776 -20.2775 -20.2753 -20.2753 -20.2748 -20.2748
   -20.2737 -20.2737 -20.2736 -20.2736 -20.2731 -20.2730 -20.2730 -20.2730
   -20.2680 -20.2680 -20.2678 -20.2678 -20.2668 -20.2668 -20.2667 -20.2666
    -9.4687  -9.4686  -9.2195  -9.2195  -9.1204  -9.1204  -8.7888  -8.7888
    -8.7493  -8.7493  -8.6767  -8.6767  -8.6047  -8.6047  -8.5710  -8.5710
    -8.2334  -8.2334  -8.2257  -8.2257  -7.6302  -7.6301  -7.5994  -7.5994
     1.6801   1.6801   1.7254   1.7254   2.1122   2.1122   2.1644   2.1644
     2.8988   2.8988   2.9735   2.9735   3.0074   3.0074   3.0877   3.0877
     3.1406   3.1406   3.4297   3.4297   3.5682   3.5682   3.7611   3.7611
     3.7759   3.7759   4.0029   4.0029   4.1343   4.1343   4.2329   4.2329
     4.5371   4.5371   4.7931   4.7931   4.8654   4.8654   4.9752   4.9752
     5.1302   5.1302   5.5300   5.5300   6.1427   6.1427   6.1841   6.1841
     6.5068   6.5068   6.5525   6.5525   6.6183   6.6183   6.7020   6.7020
     7.1069   7.1069   7.1628   7.1628   7.2429   7.2429   7.4859   7.4859
     7.5046   7.5046   7.6903   7.6903   7.7498   7.7498   7.9890   7.9890
    10.7332  10.7332  11.5107  11.5107  11.5847  11.5847  11.6752  11.6752
[...]
   -20.4946 -20.4946 -20.4943 -20.4943 -20.4918 -20.4918 -20.4914 -20.4914
   -20.4883 -20.4883 -20.4882 -20.4882 -20.4863 -20.4863 -20.4862 -20.4862
   -20.4858 -20.4858 -20.4858 -20.4858 -20.4823 -20.4823 -20.4822 -20.4822
   -20.4793 -20.4793 -20.4792 -20.4792 -20.4778 -20.4778 -20.4776 -20.4776
    -9.6402  -9.6402  -9.4846  -9.4846  -9.1361  -9.1361  -8.9118  -8.9118
    -8.7591  -8.7591  -8.7065  -8.7065  -8.6506  -8.6506  -8.6073  -8.6073
    -8.2942  -8.2942  -8.2665  -8.2665  -7.9903  -7.9903  -7.9738  -7.9738
     1.3717   1.3718   1.3806   1.3806   2.1559   2.1559   2.2529   2.2529
     2.8598   2.8598   2.9187   2.9188   2.9554   2.9554   3.0709   3.0709
     3.1032   3.1032   3.3248   3.3248   3.3571   3.3572   3.5716   3.5716
     3.7771   3.7771   3.8371   3.8371   4.0396   4.0396   4.2202   4.2202
     4.5353   4.5353   4.6499   4.6499   4.7937   4.7937   4.8303   4.8303
     4.9268   4.9268   5.3301   5.3301   5.6599   5.6599   5.7336   5.7336
     6.4857   6.4857   6.5992   6.5992   6.6477   6.6477   6.6796   6.6796
     6.8805   6.8805   6.9416   6.9416   7.0254   7.0254   7.3619   7.3619
     7.3811   7.3812   7.4511   7.4511   7.4745   7.4745   7.7236   7.7237
    10.5225  10.5225  11.0828  11.0828  11.1281  11.1281  11.5028  11.5028
    11.6919  11.6919  11.9410  11.9410  12.4317  12.4317  12.4498  12.4498
    12.6658  12.6658  12.7561  12.7561  12.9225  12.9225  13.4013  13.4013
    15.2302  15.2302  15.6870  15.6870  16.2097  16.2097  16.4182  16.4182
    16.7211  16.7211  17.1800  17.1800  17.7087

          k = 0.3296 0.4791 0.1645 ( 62914 PWs)   bands (ev):

   -66.3569 -66.3568 -66.3564 -66.3564 -66.3562 -66.3562 -66.3557 -66.3557
   -30.7068 -30.7068 -30.7039 -30.7037 -30.6984 -30.6983 -30.6950 -30.6949
   -30.6914 -30.6914 -30.6859 -30.6858 -30.6706 -30.6706 -30.6680 -30.6679
   -30.6324 -30.6324 -30.6300 -30.6300 -30.6174 -30.6174 -30.6140 -30.6140
   -20.5228 -20.5228 -20.5227 -20.5227 -20.5225 -20.5225 -20.5224 -20.5224
   -20.5005 -20.5005 -20.5002 -20.5002 -20.4997 -20.4997 -20.4995 -20.4995
   -20.4964 -20.4964 -20.4960 -20.4960 -20.4959 -20.4959 -20.4956 -20.4956
   -20.4934 -20.4934 -20.4931 -20.4931 -20.4930 -20.4930 -20.4927 -20.4927
   -20.4885 -20.4885 -20.4881 -20.4881 -20.4877 -20.4877 -20.4876 -20.4875
   -20.4846 -20.4846 -20.4843 -20.4843 -20.4826 -20.4826 -20.4818 -20.4818
   -20.4796 -20.4796 -20.4789 -20.4789 -20.4779 -20.4779 -20.4774 -20.4774
    -9.6684  -9.6683  -9.4674  -9.4672  -9.1870  -9.1869  -8.9774  -8.9774
    -8.7280  -8.7271  -8.6474  -8.6468  -8.6063  -8.6049  -8.5984  -8.5982
    -8.3105  -8.3104  -8.2546  -8.2537  -8.0051  -8.0050  -7.9595  -7.9595
     1.3668   1.3711   1.3730   1.3768   2.0767   2.0778   2.2094   2.2131
     2.7695   2.7753   2.9423   2.9481   3.0096   3.0257   3.0704   3.0832
     3.1560   3.1638   3.2870   3.3184   3.4087   3.4213   3.5688   3.5727
     3.6247   3.6396   3.7463   3.7889   4.1621   4.1784   4.3835   4.3929
     4.4705   4.5150   4.6596   4.6872   4.7293   4.8181   4.8222   4.8333
     4.9419   4.9844   5.1996   5.2576   5.6027   5.6180   5.8922   5.8971
     6.4670   6.4857   6.5224   6.5253   6.6693   6.6695   6.7832   6.8062
     6.9135   6.9359   6.9834   7.0192   7.0660   7.0694   7.3151   7.3206
     7.3449   7.3639   7.3848   7.4027   7.4108   7.4112   7.6915   7.6965
    10.3579  10.3625  11.1192  11.1351  11.1581  11.1612  11.5382  11.5484
    11.5623  11.5774  11.7758  11.8238  12.3572  12.4028  12.5427  12.5546
    12.6250  12.6411  12.9267  13.0165  13.0730  13.1151  13.1434  13.2224
    15.3810  15.3952  15.6556  15.6662  16.1148  16.1255  16.5088  16.5302
    16.7289  16.7403  17.2367  17.2754  17.7023

          k =-0.4945 0.4791 0.1645 ( 62968 PWs)   bands (ev):

   -66.3566 -66.3566 -66.3566 -66.3566 -66.3560 -66.3559 -66.3559 -66.3559
   -30.7052 -30.7052 -30.7049 -30.7049 -30.6944 -30.6944 -30.6934 -30.6934
   -30.6894 -30.6894 -30.6885 -30.6885 -30.6532 -30.6532 -30.6522 -30.6522
   -30.6508 -30.6508 -30.6496 -30.6496 -30.6162 -30.6162 -30.6161 -30.6161
   -20.5228 -20.5227 -20.5227 -20.5227 -20.5224 -20.5224 -20.5224 -20.5224
   -20.5003 -20.5003 -20.5003 -20.5003 -20.4996 -20.4996 -20.4996 -20.4996
   -20.4962 -20.4962 -20.4962 -20.4962 -20.4958 -20.4958 -20.4958 -20.4958
   -20.4933 -20.4933 -20.4932 -20.4932 -20.4929 -20.4929 -20.4928 -20.4928
   -20.4883 -20.4883 -20.4883 -20.4883 -20.4861 -20.4861 -20.4861 -20.4860
   -20.4860 -20.4860 -20.4859 -20.4859 -20.4823 -20.4823 -20.4823 -20.4823
   -20.4793 -20.4793 -20.4793 -20.4793 -20.4777 -20.4777 -20.4777 -20.4777
    -9.5478  -9.5478  -9.5429  -9.5429  -8.9017  -8.9017  -8.8807  -8.8806
    -8.7666  -8.7665  -8.7478  -8.7478  -8.5733  -8.5733  -8.5412  -8.5411
    -8.5273  -8.5273  -8.4975  -8.4975  -7.9827  -7.9827  -7.9826  -7.9826
     1.3772   1.3772   1.3820   1.3820   2.8008   2.8008   2.8926   2.8926
     2.9237   2.9237   2.9594   2.9594   3.0575   3.0575   3.0647   3.0647
     3.1965   3.1965   3.2553   3.2553   3.3407   3.3407   3.3794   3.3795
     3.3870   3.3870   3.6523   3.6523   4.0657   4.0657   4.1278   4.1278
     4.1584   4.1584   4.2365   4.2365   4.6756   4.6756   4.7828   4.7828
     4.9966   4.9966   5.0997   5.0997   5.6681   5.6681   5.6853   5.6853
     6.5606   6.5606   6.6222   6.6222   6.6461   6.6461   6.6912   6.6912
     7.1212   7.1212   7.1509   7.1509   7.2206   7.2206   7.2779   7.2780
     7.3183   7.3184   7.4031   7.4032   7.4712   7.4712   7.5099   7.5099
    11.0343  11.0343  11.0939  11.0939  11.1464  11.1464  11.2289  11.2289
    11.9810  11.9810  12.0184  12.0184  12.1066  12.1066  12.1190  12.1190
    12.6489  12.6489  12.7204  12.7204  13.0824  13.0824  13.1436  13.1436
    15.5474  15.5474  15.5619  15.5619  16.6831  16.6831  16.7644  16.7644
    17.2722  17.2723  17.3331  17.3333  17.4041

          k =-0.4945 0.0000 0.3290 ( 62888 PWs)   bands (ev):

   -66.3567 -66.3567 -66.3563 -66.3563 -66.3562 -66.3562 -66.3558 -66.3558
   -30.7292 -30.7292 -30.7264 -30.7264 -30.6861 -30.6861 -30.6784 -30.6784
   -30.6689 -30.6689 -30.6688 -30.6688 -30.6557 -30.6557 -30.6541 -30.6541
   -30.6490 -30.6490 -30.6390 -30.6390 -30.6308 -30.6308 -30.6272 -30.6272
   -20.5227 -20.5227 -20.5227 -20.5227 -20.5225 -20.5225 -20.5225 -20.5225
   -20.5005 -20.5005 -20.5002 -20.5001 -20.4999 -20.4999 -20.4995 -20.4995
   -20.4965 -20.4965 -20.4964 -20.4964 -20.4962 -20.4962 -20.4962 -20.4961
   -20.4954 -20.4954 -20.4952 -20.4952 -20.4904 -20.4904 -20.4901 -20.4901
   -20.4872 -20.4872 -20.4871 -20.4871 -20.4865 -20.4865 -20.4860 -20.4860
   -20.4855 -20.4855 -20.4854 -20.4854 -20.4835 -20.4834 -20.4832 -20.4832
   -20.4791 -20.4791 -20.4789 -20.4789 -20.4783 -20.4783 -20.4779 -20.4779
    -9.6491  -9.6491  -9.4486  -9.4486  -9.2118  -9.2118  -8.9469  -8.9469
    -8.7616  -8.7616  -8.6889  -8.6889  -8.6504  -8.6503  -8.6318  -8.6318
    -8.2968  -8.2968  -8.2829  -8.2828  -7.9160  -7.9160  -7.8936  -7.8936
     1.2597   1.2597   1.2872   1.2872   2.0855   2.0855   2.1338   2.1338
     2.7756   2.7756   2.8875   2.8876   2.9096   2.9096   3.0492   3.0492
     3.1149   3.1149   3.4260   3.4260   3.5344   3.5344   3.6228   3.6228
     3.6815   3.6815   3.8340   3.8340   4.0080   4.0080   4.2333   4.2333
     4.5238   4.5238   4.7488   4.7488   4.8807   4.8807   4.8822   4.8822
     5.1401   5.1401   5.4200   5.4200   5.8631   5.8631   5.9437   5.9437
     6.2481   6.2481   6.2805   6.2805   6.3841   6.3841   6.4203   6.4203
     6.9624   6.9624   7.0802   7.0802   7.1451   7.1451   7.3729   7.3730
     7.4055   7.4056   7.4999   7.4999   7.5389   7.5389   7.8388   7.8388
    10.5410  10.5410  11.1980  11.1980  11.2512  11.2512  11.4139  11.4139
    11.5504  11.5504  12.0440  12.0440  12.3164  12.3165  12.4213  12.4213
    12.6700  12.6701  13.0181  13.0181  13.0467  13.0468  13.4346  13.4346
    14.6590  14.6590  15.0240  15.0240  16.1132  16.1132  16.5585  16.5585
    16.8730  16.8730  17.2414  17.2414  17.8201

          k =-0.4945-0.1597 0.3290 ( 62912 PWs)   bands (ev):

   -66.3567 -66.3567 -66.3563 -66.3563 -66.3563 -66.3563 -66.3559 -66.3559
   -30.7249 -30.7249 -30.7221 -30.7221 -30.6866 -30.6866 -30.6786 -30.6785
   -30.6716 -30.6716 -30.6706 -30.6706 -30.6555 -30.6555 -30.6539 -30.6539
   -30.6497 -30.6497 -30.6413 -30.6413 -30.6309 -30.6309 -30.6282 -30.6282
   -20.5227 -20.5227 -20.5227 -20.5227 -20.5225 -20.5225 -20.5225 -20.5225
   -20.5005 -20.5005 -20.5001 -20.5001 -20.4999 -20.4999 -20.4995 -20.4995
   -20.4963 -20.4963 -20.4963 -20.4963 -20.4961 -20.4961 -20.4959 -20.4959
   -20.4953 -20.4952 -20.4951 -20.4951 -20.4908 -20.4908 -20.4905 -20.4905
   -20.4872 -20.4872 -20.4871 -20.4871 -20.4865 -20.4865 -20.4860 -20.4860
   -20.4856 -20.4856 -20.4855 -20.4855 -20.4834 -20.4834 -20.4832 -20.4832
   -20.4791 -20.4791 -20.4789 -20.4789 -20.4783 -20.4783 -20.4779 -20.4779
    -9.5951  -9.5951  -9.3763  -9.3763  -9.2223  -9.2223  -8.9221  -8.9221
    -8.7716  -8.7716  -8.6846  -8.6846  -8.6474  -8.6474  -8.6305  -8.6304
    -8.2947  -8.2947  -8.2878  -8.2878  -8.0216  -8.0216  -7.9995  -7.9995
     1.4962   1.4962   1.5290   1.5290   2.0854   2.0854   2.1414   2.1414
     2.8389   2.8389   2.9088   2.9088   2.9319   2.9319   3.0572   3.0573
     3.1187   3.1187   3.4551   3.4551   3.5576   3.5576   3.6453   3.6453
     3.6829   3.6829   3.8812   3.8812   3.9835   3.9835   4.2401   4.2401
     4.3934   4.3934   4.5558   4.5558   4.7981   4.7981   4.8422   4.8422
     4.8888   4.8888   5.1712   5.1712   5.5981   5.5981   5.7166   5.7166
     6.4139   6.4140   6.4393   6.4393   6.5075   6.5075   6.6282   6.6282
     6.9734   6.9734   7.0765   7.0765   7.1502   7.1502   7.3720   7.3720
     7.4003   7.4003   7.4885   7.4886   7.5267   7.5267   7.7891   7.7891
    10.6490  10.6490  11.2415  11.2415  11.3192  11.3192  11.4274  11.4274
    11.5850  11.5850  12.0795  12.0795  12.3130  12.3130  12.4314  12.4314
    12.5167  12.5167  12.8879  12.8879  12.9142  12.9142  13.3133  13.3133
    15.0265  15.0265  15.4078  15.4078  16.1938  16.1938  16.5591  16.5591
    16.8822  16.8822  17.2716  17.2716  17.6512

          k =-0.4945-0.3194 0.3290 ( 62892 PWs)   bands (ev):

   -66.3566 -66.3566 -66.3564 -66.3564 -66.3562 -66.3562 -66.3560 -66.3560
   -30.7137 -30.7137 -30.7104 -30.7104 -30.6895 -30.6895 -30.6807 -30.6807
   -30.6787 -30.6787 -30.6753 -30.6753 -30.6548 -30.6548 -30.6533 -30.6532
   -30.6509 -30.6509 -30.6459 -30.6459 -30.6310 -30.6310 -30.6299 -30.6299
   -20.5227 -20.5227 -20.5227 -20.5227 -20.5225 -20.5225 -20.5225 -20.5225
   -20.5004 -20.5003 -20.5001 -20.5000 -20.4999 -20.4999 -20.4996 -20.4996
   -20.4962 -20.4962 -20.4960 -20.4960 -20.4960 -20.4960 -20.4958 -20.4958
   -20.4946 -20.4946 -20.4944 -20.4944 -20.4918 -20.4918 -20.4915 -20.4915
   -20.4872 -20.4872 -20.4871 -20.4871 -20.4863 -20.4863 -20.4860 -20.4860
   -20.4858 -20.4858 -20.4856 -20.4856 -20.4834 -20.4834 -20.4833 -20.4833
   -20.4791 -20.4791 -20.4790 -20.4789 -20.4782 -20.4782 -20.4780 -20.4780
    -9.4643  -9.4643  -9.2588  -9.2588  -9.1803  -9.1803  -8.8398  -8.8398
    -8.8082  -8.8082  -8.6783  -8.6783  -8.6336  -8.6335  -8.6146  -8.6146
    -8.3323  -8.3323  -8.2906  -8.2906  -8.2773  -8.2773  -8.2213  -8.2213
     1.9946   1.9946   2.0841   2.0841   2.1669   2.1669   2.2993   2.2993
     2.9173   2.9174   2.9531   2.9531   3.0358   3.0358   3.0868   3.0868
     3.1645   3.1645   3.5110   3.5110   3.5434   3.5434   3.6462   3.6462
     3.7533   3.7533   3.8776   3.8776   4.0192   4.0192   4.0344   4.0344
     4.1546   4.1546   4.3217   4.3217   4.4262   4.4262   4.6596   4.6596
     4.7320   4.7320   4.8357   4.8357   4.8600   4.8600   5.1717   5.1717
     6.7232   6.7232   6.7839   6.7840   6.8519   6.8519   6.8826   6.8826
     7.0022   7.0022   7.0766   7.0766   7.1788   7.1788   7.3474   7.3475
     7.3788   7.3788   7.4544   7.4544   7.4750   7.4751   7.6421   7.6421
    10.9696  10.9696  11.3156  11.3156  11.4002  11.4002  11.5726  11.5726
    11.7447  11.7447  12.0988  12.0988  12.1888  12.1888  12.2844  12.2844
    12.4745  12.4745  12.5718  12.5718  12.5880  12.5880  13.0171  13.0171
    15.8551  15.8551  16.3197  16.3197  16.4476  16.4476  16.5653  16.5653
    16.9333  16.9333  17.2585  17.2585  17.4192

          k =-0.4945 0.4791 0.3290 ( 62880 PWs)   bands (ev):

   -66.3565 -66.3565 -66.3565 -66.3565 -66.3561 -66.3561 -66.3561 -66.3561
   -30.6999 -30.6999 -30.6993 -30.6993 -30.6954 -30.6954 -30.6944 -30.6944
   -30.6785 -30.6785 -30.6781 -30.6781 -30.6541 -30.6541 -30.6534 -30.6534
   -30.6504 -30.6504 -30.6491 -30.6491 -30.6310 -30.6310 -30.6307 -30.6307
   -20.5227 -20.5227 -20.5227 -20.5227 -20.5225 -20.5225 -20.5225 -20.5225
   -20.5002 -20.5002 -20.5002 -20.5002 -20.4998 -20.4998 -20.4998 -20.4998
   -20.4961 -20.4961 -20.4961 -20.4961 -20.4959 -20.4959 -20.4959 -20.4959
   -20.4933 -20.4933 -20.4932 -20.4932 -20.4930 -20.4930 -20.4929 -20.4929
   -20.4871 -20.4871 -20.4871 -20.4871 -20.4862 -20.4862 -20.4861 -20.4861
   -20.4858 -20.4858 -20.4857 -20.4857 -20.4834 -20.4833 -20.4833 -20.4833
   -20.4790 -20.4790 -20.4790 -20.4790 -20.4781 -20.4781 -20.4781 -20.4781
    -9.3395  -9.3395  -9.3319  -9.3319  -8.9569  -8.9568  -8.9369  -8.9369
    -8.7150  -8.7150  -8.6967  -8.6967  -8.5667  -8.5667  -8.5448  -8.5448
    -8.5228  -8.5228  -8.5051  -8.5051  -8.2773  -8.2773  -8.2765  -8.2765
     2.0714   2.0714   2.0815   2.0815   2.8220   2.8220   2.8703   2.8703
     2.9568   2.9568   2.9684   2.9684   3.0567   3.0567   3.0717   3.0717
     3.2655   3.2655   3.3001   3.3002   3.4529   3.4529   3.5119   3.5119
     3.6245   3.6245   3.7583   3.7583   4.0552   4.0552   4.0648   4.0648
     4.1185   4.1185   4.1768   4.1768   4.2759   4.2759   4.3462   4.3462
     4.5076   4.5076   4.6112   4.6112   4.8644   4.8644   4.8836   4.8836
     6.8404   6.8404   6.9346   6.9346   6.9826   6.9826   6.9965   6.9965
     7.1086   7.1086   7.1762   7.1762   7.2412   7.2412   7.2595   7.2595
     7.3260   7.3260   7.4114   7.4115   7.4490   7.4491   7.5024   7.5024
    11.2982  11.2982  11.3472  11.3472  11.4640  11.4640  11.5644  11.5644
    11.9762  11.9762  12.0273  12.0273  12.0683  12.0683  12.1415  12.1415
    12.2930  12.2930  12.4385  12.4385  12.6488  12.6488  12.7363  12.7363
    16.3610  16.3610  16.4053  16.4053  16.8711  16.8711  16.9349  16.9349
    17.2370  17.2370  17.3403  17.3404  17.3995

     the Fermi energy is     8.8251 ev

!    total energy              =   -6261.10963176 Ry
     Harris-Foulkes estimate   =   -6261.10963176 Ry
     estimated scf accuracy    <          1.4E-11 Ry

     The total energy is the sum of the following terms:

     one-electron contribution =   -4762.62893585 Ry
     hartree contribution      =    2615.65842764 Ry
     xc contribution           =    -965.66912008 Ry
     ewald contribution        =   -3148.47000346 Ry
     smearing contrib. (-TS)   =      -0.00000000 Ry

     convergence has been achieved in  15 iterations

     Forces acting on atoms (cartesian axes, Ry/au):

     atom    1 type  1   force =    -0.00503939    0.00879137    0.00438285
     atom    2 type  1   force =     0.00503939   -0.00879137   -0.00438285
     atom    3 type  1   force =     0.00503939   -0.00879137    0.00438285
     atom    4 type  1   force =    -0.00503939    0.00879137   -0.00438285
     atom    5 type  1   force =     0.00503939    0.00879137   -0.00438285
     atom    6 type  1   force =    -0.00503939   -0.00879137    0.00438285
     atom    7 type  1   force =    -0.00503939   -0.00879137   -0.00438285
     atom    8 type  1   force =     0.00503939    0.00879137    0.00438285
     atom    9 type  2   force =    -0.00009174   -0.00443128   -0.00032812
     atom   10 type  2   force =     0.00009174    0.00443128    0.00032812
     atom   11 type  2   force =     0.00009174    0.00443128   -0.00032812
     atom   12 type  2   force =    -0.00009174   -0.00443128    0.00032812
     atom   13 type  2   force =     0.00009174   -0.00443128    0.00032812
     atom   14 type  2   force =    -0.00009174    0.00443128   -0.00032812
     atom   15 type  2   force =    -0.00009174    0.00443128    0.00032812
     atom   16 type  2   force =     0.00009174   -0.00443128   -0.00032812
     atom   17 type  2   force =    -0.00270739   -0.00053660   -0.00027394
     atom   18 type  2   force =     0.00270739    0.00053660    0.00027394
     atom   19 type  2   force =     0.00270739    0.00053660   -0.00027394
     atom   20 type  2   force =    -0.00270739   -0.00053660    0.00027394
     atom   21 type  2   force =     0.00270739   -0.00053660    0.00027394
     atom   22 type  2   force =    -0.00270739    0.00053660   -0.00027394
     atom   23 type  2   force =    -0.00270739    0.00053660    0.00027394
     atom   24 type  2   force =     0.00270739   -0.00053660   -0.00027394
     atom   25 type  2   force =    -0.00181194    0.00047551    0.00344197
     atom   26 type  2   force =     0.00181194   -0.00047551   -0.00344197
     atom   27 type  2   force =     0.00181194   -0.00047551    0.00344197
     atom   28 type  2   force =    -0.00181194    0.00047551   -0.00344197
     atom   29 type  2   force =     0.00181194    0.00047551   -0.00344197
     atom   30 type  2   force =    -0.00181194   -0.00047551    0.00344197
     atom   31 type  2   force =    -0.00181194   -0.00047551   -0.00344197
     atom   32 type  2   force =     0.00181194    0.00047551    0.00344197

     Total force =     0.000000     Total SCF correction =     0.000000


     Computing stress (Cartesian axis) and pressure

          total   stress  (Ry/bohr**3)                   (kbar)     P=    0.49
   0.00000482   0.00000000   0.00000000          0.71      0.00      0.00
   0.00000000  -0.00000050   0.00000000          0.00     -0.07      0.00
   0.00000000   0.00000000   0.00000561          0.00      0.00      0.82


     Writing output data file Landau_22.save
 
     init_run     :    106.95s CPU    109.75s WALL (       2 calls)
     electrons    :  13089.38s CPU  13337.95s WALL (       7 calls)
     update_pot   :    145.94s CPU    146.17s WALL (       5 calls)
     forces       :    245.05s CPU    247.71s WALL (       7 calls)
     stress       :   1817.53s CPU   1836.57s WALL (       7 calls)

     Called by init_run:
     wfcinit      :     80.48s CPU     83.01s WALL (       2 calls)
     potinit      :     12.28s CPU     12.35s WALL (       2 calls)

     Called by electrons:
     c_bands      :  11461.52s CPU  11696.64s WALL (      93 calls)
     sum_band     :   1555.47s CPU   1563.11s WALL (      93 calls)
     v_of_rho     :     13.74s CPU     13.92s WALL (      98 calls)
     mix_rho      :     28.46s CPU     32.79s WALL (      93 calls)

     Called by c_bands:
     init_us_2    :    128.29s CPU    133.47s WALL (     404 calls)
     cegterg      :   9788.34s CPU  10012.02s WALL (     186 calls)

     Called by sum_band:

     Called by *egterg:
     h_psi        :   7514.04s CPU   7543.01s WALL (     764 calls)
     g_psi        :     30.91s CPU     31.13s WALL (     574 calls)
     cdiaghg      :    105.65s CPU    105.92s WALL (     746 calls)

     Called by h_psi:
     h_psi:pot    :   7457.55s CPU   7484.98s WALL (     764 calls)
     h_psi:calbec :    858.39s CPU    876.85s WALL (     764 calls)
     vloc_psi     :   5687.54s CPU   5694.10s WALL (     764 calls)
     add_vuspsi   :    911.61s CPU    914.02s WALL (     764 calls)

     General routines
     calbec       :    985.31s CPU   1003.93s WALL (     834 calls)
     fft          :      9.60s CPU      9.61s WALL (     450 calls)
     fftw         :   5624.86s CPU   5628.16s WALL (  241500 calls)
 
     Parallel routines
 
     PWSCF        :     4h17m CPU        4h21m WALL

 
   This run was terminated on:   3:39:11  13Mar2020            

=------------------------------------------------------------------------------=
   JOB DONE.
=------------------------------------------------------------------------------=
