
     Program PWSCF v.6.4.1 starts on 29Nov2019 at 19:35:51 

     This program is part of the open-source Quantum ESPRESSO suite
     for quantum simulation of materials; please cite
         "P. Giannozzi et al., J. Phys.:Condens. Matter 21 395502 (2009);
         "P. Giannozzi et al., J. Phys.:Condens. Matter 29 465901 (2017);
          URL http://www.quantum-espresso.org", 
     in publications or presentations arising from this work. More details at
     http://www.quantum-espresso.org/quote

     Parallel version (MPI), running on    40 processors

     MPI processes distributed on     5 nodes
     K-points division:     npool     =      40
     Reading input from scf.in

     Current dimensions of program PWSCF are:
     Max number of different atomic species (ntypx) = 10
     Max number of k-points (npk) =  40000
     Max angular momentum in pseudopotentials (lmaxx) =  3

     Subspace diagonalization in iterative solution of the eigenvalue problem:
     a serial algorithm will be used

     Message from routine setup:
     using ibrav=0 with symmetry is DISCOURAGED, use correct ibrav instead
 
     G-vector sticks info
     --------------------
     sticks:   dense  smooth     PW     G-vecs:    dense   smooth      PW
     Sum        3657    3657    997               248967   248967   35569
 


     bravais-lattice index     =            0
     lattice parameter (alat)  =       9.7849  a.u.
     unit-cell volume          =    1402.1515 (a.u.)^3
     number of atoms/cell      =           16
     number of atomic types    =            2
     number of electrons       =       184.06
     number of Kohn-Sham states=          110
     kinetic-energy cutoff     =     120.0000  Ry
     charge density cutoff     =     480.0000  Ry
     convergence threshold     =      1.0E-08
     mixing beta               =       0.7000
     number of iterations used =            8  plain     mixing
     Exchange-correlation      = SLA PW NOGX NOGC ( 1  4  0  0 0 0)

     celldm(1)=   9.784926  celldm(2)=   0.000000  celldm(3)=   0.000000
     celldm(4)=   0.000000  celldm(5)=   0.000000  celldm(6)=   0.000000

     crystal axes: (cart. coord. in units of alat)
               a(1) = (   1.000000   0.000000   0.000000 )  
               a(2) = (   0.000000   1.000000   0.000000 )  
               a(3) = (   0.000000   0.000000   1.496657 )  

     reciprocal axes: (cart. coord. in units 2 pi/alat)
               b(1) = (  1.000000  0.000000  0.000000 )  
               b(2) = (  0.000000  1.000000  0.000000 )  
               b(3) = (  0.000000  0.000000  0.668156 )  


     PseudoPot. # 1 for W  read from file:
     /cluster/scratch/mnoe/QE/pps/W_ONCV_LDA-4.0.upf
     MD5 check sum: ba0307d5d4cd419d6f1d13dc49d7c13a
     Pseudo is Norm-conserving + core correction, Zval = 28.0
     Generated using ONCVPSP code by D. R. Hamann
     Using radial grid of 1380 points,  8 beta functions with: 
                l(1) =   0
                l(2) =   0
                l(3) =   1
                l(4) =   1
                l(5) =   2
                l(6) =   2
                l(7) =   3
                l(8) =   3

     PseudoPot. # 2 for O  read from file:
     /cluster/scratch/mnoe/QE/pps/O_ONCV_LDA-3.0.upf
     MD5 check sum: b55cdb4f45ae2203d24ad12cf8d61a31
     Pseudo is Norm-conserving + core correction, Zval =  6.0
     Generated using ONCVPSP code by D. R. Hamann
     Using radial grid of  926 points,  5 beta functions with: 
                l(1) =   0
                l(2) =   0
                l(3) =   1
                l(4) =   1
                l(5) =   2

     atomic species   valence    mass     pseudopotential
        W             28.00   183.84000     W ( 1.00)
        O              6.00    15.99940     O ( 1.00)

     16 Sym. Ops., with inversion, found (14 have fractional translation)



   Cartesian axes

     site n.     atom                  positions (alat units)
         1           W   tau(   1) = (   0.2500000   0.2500000   0.3264508  )
         2           W   tau(   2) = (   0.7500000   0.7500000   1.1702062  )
         3           W   tau(   3) = (   0.7500000   0.7500000   0.4218777  )
         4           W   tau(   4) = (   0.2500000   0.2500000   1.0747793  )
         5           O   tau(   5) = (   0.2500000   0.2500000   0.7358614  )
         6           O   tau(   6) = (   0.7500000   0.7500000   0.7607956  )
         7           O   tau(   7) = (   0.7500000   0.7500000   0.0124671  )
         8           O   tau(   8) = (   0.2500000   0.2500000   1.4841899  )
         9           O   tau(   9) = (   0.4494100   0.5505900   0.3741643  )
        10           O   tau(  10) = (   0.5505900   0.4494100   1.1224928  )
        11           O   tau(  11) = (   0.0505900   0.9494100   0.3741643  )
        12           O   tau(  12) = (   0.9494099   0.0505900   1.1224928  )
        13           O   tau(  13) = (   0.9494100   0.4494100   0.3741643  )
        14           O   tau(  14) = (   0.0505900   0.5505900   1.1224928  )
        15           O   tau(  15) = (   0.5505900   0.0505900   0.3741643  )
        16           O   tau(  16) = (   0.4494100   0.9494099   1.1224928  )

     number of k points=    40  gaussian smearing, width (Ry)=  0.0007
                       cart. coord. in units 2pi/alat
        k(    1) = (   0.0000000   0.0000000   0.0000000), wk =   0.0092593
        k(    2) = (   0.0000000   0.0000000   0.1113593), wk =   0.0185185
        k(    3) = (   0.0000000   0.0000000   0.2227186), wk =   0.0185185
        k(    4) = (   0.0000000   0.0000000  -0.3340779), wk =   0.0092593
        k(    5) = (   0.0000000   0.1666667   0.0000000), wk =   0.0370370
        k(    6) = (   0.0000000   0.1666667   0.1113593), wk =   0.0740741
        k(    7) = (   0.0000000   0.1666667   0.2227186), wk =   0.0740741
        k(    8) = (   0.0000000   0.1666667  -0.3340779), wk =   0.0370370
        k(    9) = (   0.0000000   0.3333333   0.0000000), wk =   0.0370370
        k(   10) = (   0.0000000   0.3333333   0.1113593), wk =   0.0740741
        k(   11) = (   0.0000000   0.3333333   0.2227186), wk =   0.0740741
        k(   12) = (   0.0000000   0.3333333  -0.3340779), wk =   0.0370370
        k(   13) = (   0.0000000  -0.5000000   0.0000000), wk =   0.0185185
        k(   14) = (   0.0000000  -0.5000000   0.1113593), wk =   0.0370370
        k(   15) = (   0.0000000  -0.5000000   0.2227186), wk =   0.0370370
        k(   16) = (   0.0000000  -0.5000000  -0.3340779), wk =   0.0185185
        k(   17) = (   0.1666667   0.1666667   0.0000000), wk =   0.0370370
        k(   18) = (   0.1666667   0.1666667   0.1113593), wk =   0.0740741
        k(   19) = (   0.1666667   0.1666667   0.2227186), wk =   0.0740741
        k(   20) = (   0.1666667   0.1666667  -0.3340779), wk =   0.0370370
        k(   21) = (   0.1666667   0.3333333   0.0000000), wk =   0.0740741
        k(   22) = (   0.1666667   0.3333333   0.1113593), wk =   0.1481481
        k(   23) = (   0.1666667   0.3333333   0.2227186), wk =   0.1481481
        k(   24) = (   0.1666667   0.3333333  -0.3340779), wk =   0.0740741
        k(   25) = (   0.1666667  -0.5000000   0.0000000), wk =   0.0370370
        k(   26) = (   0.1666667  -0.5000000   0.1113593), wk =   0.0740741
        k(   27) = (   0.1666667  -0.5000000   0.2227186), wk =   0.0740741
        k(   28) = (   0.1666667  -0.5000000  -0.3340779), wk =   0.0370370
        k(   29) = (   0.3333333   0.3333333   0.0000000), wk =   0.0370370
        k(   30) = (   0.3333333   0.3333333   0.1113593), wk =   0.0740741
        k(   31) = (   0.3333333   0.3333333   0.2227186), wk =   0.0740741
        k(   32) = (   0.3333333   0.3333333  -0.3340779), wk =   0.0370370
        k(   33) = (   0.3333333  -0.5000000   0.0000000), wk =   0.0370370
        k(   34) = (   0.3333333  -0.5000000   0.1113593), wk =   0.0740741
        k(   35) = (   0.3333333  -0.5000000   0.2227186), wk =   0.0740741
        k(   36) = (   0.3333333  -0.5000000  -0.3340779), wk =   0.0370370
        k(   37) = (  -0.5000000  -0.5000000   0.0000000), wk =   0.0092593
        k(   38) = (  -0.5000000  -0.5000000   0.1113593), wk =   0.0185185
        k(   39) = (  -0.5000000  -0.5000000   0.2227186), wk =   0.0185185
        k(   40) = (  -0.5000000  -0.5000000  -0.3340779), wk =   0.0092593

     Dense  grid:   248967 G-vectors     FFT dimensions: (  72,  72, 108)

     Estimated max dynamical RAM per process >     777.09 MB

     Estimated total dynamical RAM >      30.36 GB

     Initial potential from superposition of free atoms

     starting charge  183.99828, renormalised to  184.06000
     Starting wfcs are  116 randomized atomic wfcs

     total cpu time spent up to now is        6.5 secs

     Self-consistent Calculation

     iteration #  1     ecut=   120.00 Ry     beta= 0.70
     Davidson diagonalization with overlap
     ethr =  1.00E-02,  avg # of iterations =  4.1

     total cpu time spent up to now is       25.1 secs

     total energy              =   -3126.92986667 Ry
     Harris-Foulkes estimate   =   -3132.26100549 Ry
     estimated scf accuracy    <       6.74306027 Ry

     iteration #  2     ecut=   120.00 Ry     beta= 0.70
     Davidson diagonalization with overlap
     ethr =  3.66E-03,  avg # of iterations =  3.1

     total cpu time spent up to now is       43.5 secs

     total energy              =   -3125.34669861 Ry
     Harris-Foulkes estimate   =   -3135.37780092 Ry
     estimated scf accuracy    <      26.94716643 Ry

     iteration #  3     ecut=   120.00 Ry     beta= 0.70
     Davidson diagonalization with overlap
     ethr =  3.66E-03,  avg # of iterations =  3.1

     total cpu time spent up to now is       60.6 secs

     total energy              =   -3130.50385168 Ry
     Harris-Foulkes estimate   =   -3130.64752497 Ry
     estimated scf accuracy    <       0.47191330 Ry

     iteration #  4     ecut=   120.00 Ry     beta= 0.70
     Davidson diagonalization with overlap
     ethr =  2.56E-04,  avg # of iterations =  2.5

     total cpu time spent up to now is       74.6 secs

     total energy              =   -3130.50643545 Ry
     Harris-Foulkes estimate   =   -3130.54159440 Ry
     estimated scf accuracy    <       0.11594450 Ry

     iteration #  5     ecut=   120.00 Ry     beta= 0.70
     Davidson diagonalization with overlap
     ethr =  6.30E-05,  avg # of iterations =  4.1

     total cpu time spent up to now is       89.9 secs

     total energy              =   -3130.50543906 Ry
     Harris-Foulkes estimate   =   -3130.52190822 Ry
     estimated scf accuracy    <       0.03642338 Ry

     iteration #  6     ecut=   120.00 Ry     beta= 0.70
     Davidson diagonalization with overlap
     ethr =  1.98E-05,  avg # of iterations =  4.0

     total cpu time spent up to now is      106.0 secs

     total energy              =   -3130.51341988 Ry
     Harris-Foulkes estimate   =   -3130.51456023 Ry
     estimated scf accuracy    <       0.00303465 Ry

     iteration #  7     ecut=   120.00 Ry     beta= 0.70
     Davidson diagonalization with overlap
     ethr =  1.65E-06,  avg # of iterations =  3.5

     total cpu time spent up to now is      121.4 secs

     total energy              =   -3130.51381652 Ry
     Harris-Foulkes estimate   =   -3130.51385400 Ry
     estimated scf accuracy    <       0.00007244 Ry

     iteration #  8     ecut=   120.00 Ry     beta= 0.70
     Davidson diagonalization with overlap
     ethr =  3.94E-08,  avg # of iterations =  3.0

     total cpu time spent up to now is      139.6 secs

     total energy              =   -3130.51384661 Ry
     Harris-Foulkes estimate   =   -3130.51384947 Ry
     estimated scf accuracy    <       0.00001407 Ry

     iteration #  9     ecut=   120.00 Ry     beta= 0.70
     Davidson diagonalization with overlap
     ethr =  7.65E-09,  avg # of iterations =  2.0

     total cpu time spent up to now is      153.2 secs

     total energy              =   -3130.51384466 Ry
     Harris-Foulkes estimate   =   -3130.51384748 Ry
     estimated scf accuracy    <       0.00000732 Ry

     iteration # 10     ecut=   120.00 Ry     beta= 0.70
     Davidson diagonalization with overlap
     ethr =  3.97E-09,  avg # of iterations =  2.0

     total cpu time spent up to now is      167.1 secs

     total energy              =   -3130.51384581 Ry
     Harris-Foulkes estimate   =   -3130.51384586 Ry
     estimated scf accuracy    <       0.00000012 Ry

     iteration # 11     ecut=   120.00 Ry     beta= 0.70
     Davidson diagonalization with overlap
     ethr =  6.42E-11,  avg # of iterations =  2.8

     total cpu time spent up to now is      184.3 secs

     total energy              =   -3130.51384584 Ry
     Harris-Foulkes estimate   =   -3130.51384586 Ry
     estimated scf accuracy    <       0.00000003 Ry

     iteration # 12     ecut=   120.00 Ry     beta= 0.70
     Davidson diagonalization with overlap
     ethr =  1.49E-11,  avg # of iterations =  2.0

     total cpu time spent up to now is      199.7 secs

     End of self-consistent calculation

          k = 0.0000 0.0000 0.0000 ( 31095 PWs)   bands (ev):

   -66.1425 -66.1421 -66.1404 -66.1400 -30.5470 -30.5406 -30.4878 -30.4825
   -30.4806 -30.4806 -30.4774 -30.4774 -30.3849 -30.3849 -30.3822 -30.3822
   -20.3001 -20.3000 -20.2999 -20.2999 -20.2872 -20.2867 -20.2817 -20.2811
   -20.2776 -20.2776 -20.2774 -20.2774 -20.2761 -20.2761 -20.2757 -20.2757
   -20.2690 -20.2689 -20.2683 -20.2682 -20.2654 -20.2654 -20.2653 -20.2653
   -20.2585 -20.2585 -20.2582 -20.2582  -9.9416  -9.6637  -9.0685  -9.0420
    -9.0301  -8.8696  -7.8502  -7.7395  -7.6131  -7.6131  -7.5921  -7.5921
     1.2032   1.2038   1.3787   1.6435   1.6542   1.8686   2.3989   2.4720
     2.7350   2.7350   4.1423   4.1423   5.0424   5.0424   5.0716   5.5268
     5.5268   5.5353   5.5353   5.8163   5.8163   5.9483   5.9664   6.8092
     6.8092   6.8916   7.0282   7.0283   7.4056   7.4056   7.4504   7.4504
     7.7881   7.8018   8.0821   8.0821   9.2526   9.2602  10.0429  10.0429
    12.2958  12.2958  12.8726  12.8755  13.4201  13.4201  13.7852  14.1700
    14.1700  14.9097  15.4329  15.4441  15.4718  16.8231

          k = 0.0000 0.0000 0.1114 ( 31063 PWs)   bands (ev):

   -66.1424 -66.1421 -66.1404 -66.1401 -30.5431 -30.5368 -30.4918 -30.4865
   -30.4804 -30.4804 -30.4776 -30.4776 -30.3847 -30.3847 -30.3824 -30.3824
   -20.3001 -20.3000 -20.2999 -20.2999 -20.2868 -20.2863 -20.2821 -20.2815
   -20.2775 -20.2775 -20.2773 -20.2773 -20.2761 -20.2761 -20.2758 -20.2758
   -20.2690 -20.2689 -20.2683 -20.2682 -20.2654 -20.2654 -20.2653 -20.2653
   -20.2585 -20.2585 -20.2583 -20.2583  -9.9133  -9.6749  -9.0412  -9.0309
    -8.9950  -8.8229  -7.9454  -7.8459  -7.6117  -7.6117  -7.5936  -7.5936
     1.2032   1.2037   1.5069   1.6534   1.8194   2.0458   2.4036   2.4670
     2.8022   2.8022   4.0116   4.0116   4.8290   4.9921   4.9921   5.4627
     5.4627   5.6230   5.6230   5.6251   5.8791   5.8791   5.9869   6.8458
     6.8467   6.8467   6.9013   7.0198   7.4140   7.4140   7.4500   7.4500
     7.7932   7.8013   8.0410   8.0410   9.2529   9.2595  10.2118  10.2118
    12.1706  12.1706  12.8728  12.8753  13.4272  13.4272  14.0802  14.0802
    14.1163  15.0752  15.4333  15.4428  15.8739  16.5219

          k = 0.0000 0.0000 0.2227 ( 31059 PWs)   bands (ev):

   -66.1424 -66.1422 -66.1403 -66.1401 -30.5323 -30.5262 -30.5027 -30.4972
   -30.4798 -30.4798 -30.4782 -30.4782 -30.3842 -30.3842 -30.3829 -30.3829
   -20.3001 -20.3001 -20.2999 -20.2999 -20.2858 -20.2853 -20.2831 -20.2826
   -20.2774 -20.2774 -20.2773 -20.2773 -20.2762 -20.2762 -20.2759 -20.2759
   -20.2690 -20.2689 -20.2682 -20.2682 -20.2654 -20.2654 -20.2653 -20.2653
   -20.2584 -20.2584 -20.2583 -20.2583  -9.8443  -9.7096  -9.0390  -9.0331
    -8.7874  -8.6782  -8.1870  -8.1162  -7.6079  -7.6079  -7.5974  -7.5974
     1.2033   1.2036   1.6154   1.6504   2.3813   2.4167   2.4532   2.6995
     2.9985   2.9985   3.6782   3.6782   4.1499   4.7497   5.0457   5.0457
     5.3742   5.3742   5.6754   5.6754   5.8468   5.8468   6.1001   6.5349
     6.9275   6.9959   7.1120   7.1120   7.4245   7.4245   7.4516   7.4516
     7.7966   7.7998   7.8671   7.8671   9.2540   9.2578  10.6629  10.6629
    11.7985  11.7985  12.8733  12.8748  13.4882  13.4882  13.8671  13.8671
    14.7612  15.4345  15.4398  15.6683  15.9612  16.8698

          k = 0.0000 0.0000-0.3341 ( 31108 PWs)   bands (ev):

   -66.1423 -66.1423 -66.1402 -66.1402 -30.5175 -30.5175 -30.5117 -30.5117
   -30.4790 -30.4790 -30.4790 -30.4790 -30.3835 -30.3835 -30.3835 -30.3835
   -20.3001 -20.3001 -20.2999 -20.2999 -20.2845 -20.2845 -20.2840 -20.2840
   -20.2773 -20.2773 -20.2773 -20.2773 -20.2761 -20.2761 -20.2761 -20.2761
   -20.2690 -20.2690 -20.2682 -20.2682 -20.2654 -20.2654 -20.2654 -20.2654
   -20.2584 -20.2584 -20.2584 -20.2584  -9.7683  -9.7683  -9.0361  -9.0361
    -8.4907  -8.4906  -8.4328  -8.4328  -7.6027  -7.6027  -7.6027  -7.6027
     1.2034   1.2034   1.6420   1.6420   2.4348   2.4348   3.2426   3.2426
     3.3052   3.3052   3.3052   3.3052   3.6773   3.6773   5.2133   5.2133
     5.2133   5.2133   5.7413   5.7413   5.7413   5.7413   6.2825   6.2825
     6.9623   6.9623   7.4097   7.4097   7.4097   7.4097   7.5553   7.5553
     7.5554   7.5554   7.7982   7.7982   9.2557   9.2557  11.2483  11.2483
    11.2483  11.2483  12.8740  12.8740  13.6424  13.6424  13.6424  13.6424
    15.3641  15.3641  15.4367  15.4367  16.5497  16.5497

          k = 0.0000 0.1667 0.0000 ( 31090 PWs)   bands (ev):

   -66.1423 -66.1419 -66.1406 -66.1402 -30.5470 -30.5412 -30.4891 -30.4832
   -30.4743 -30.4727 -30.4711 -30.4709 -30.3913 -30.3912 -30.3886 -30.3886
   -20.3001 -20.3000 -20.3000 -20.2999 -20.2872 -20.2868 -20.2817 -20.2812
   -20.2775 -20.2775 -20.2773 -20.2772 -20.2762 -20.2761 -20.2758 -20.2758
   -20.2692 -20.2690 -20.2684 -20.2683 -20.2650 -20.2649 -20.2648 -20.2647
   -20.2590 -20.2589 -20.2587 -20.2586  -9.8453  -9.5508  -9.0861  -8.9635
    -8.9512  -8.8486  -7.8550  -7.7739  -7.7544  -7.7466  -7.7311  -7.7113
     1.4414   1.4637   1.4644   1.6273   1.9116   2.0664   2.5760   2.6600
     2.8002   2.8328   4.0784   4.0901   4.7510   4.8227   5.0359   5.2357
     5.2974   5.3132   5.3795   5.7375   5.7977   5.9889   6.3465   6.6490
     6.6855   6.6934   6.7375   6.8887   6.8990   7.1238   7.3183   7.3834
     7.8097   7.8117   8.0402   8.0878   9.8372   9.9066  10.2793  10.3715
    12.3135  12.3573  12.9241  12.9744  13.2078  13.3621  14.0013  14.0223
    14.0740  15.1407  15.4034  15.5474  15.5624  17.1322

          k = 0.0000 0.1667 0.1114 ( 31091 PWs)   bands (ev):

   -66.1423 -66.1420 -66.1405 -66.1402 -30.5431 -30.5374 -30.4928 -30.4871
   -30.4741 -30.4729 -30.4713 -30.4710 -30.3912 -30.3911 -30.3888 -30.3888
   -20.3001 -20.3000 -20.3000 -20.2999 -20.2868 -20.2864 -20.2821 -20.2816
   -20.2775 -20.2774 -20.2773 -20.2772 -20.2762 -20.2762 -20.2758 -20.2758
   -20.2691 -20.2691 -20.2684 -20.2683 -20.2650 -20.2649 -20.2648 -20.2647
   -20.2590 -20.2589 -20.2588 -20.2587  -9.8145  -9.5622  -9.0127  -8.9627
    -8.9518  -8.8044  -7.9465  -7.8624  -7.7724  -7.7497  -7.7300  -7.7127
     1.4637   1.4643   1.6276   1.8282   1.9107   2.1555   2.5831   2.6547
     2.8713   2.8962   3.9819   4.0109   4.6988   4.7775   4.7977   5.2077
     5.2120   5.3532   5.3579   5.6332   5.7614   5.8502   6.3666   6.6676
     6.6764   6.7300   6.7801   6.8343   6.9717   7.1289   7.3224   7.3817
     7.8100   7.8125   7.9875   8.0340   9.8523   9.9035  10.4249  10.5041
    12.2087  12.2531  12.9119  12.9701  13.2157  13.3672  13.9063  13.9845
    14.3582  15.2789  15.5483  15.5615  15.8079  16.8062

          k = 0.0000 0.1667 0.2227 ( 31086 PWs)   bands (ev):

   -66.1422 -66.1420 -66.1405 -66.1403 -30.5324 -30.5268 -30.5032 -30.4978
   -30.4735 -30.4728 -30.4719 -30.4716 -30.3907 -30.3906 -30.3893 -30.3893
   -20.3001 -20.3000 -20.2999 -20.2999 -20.2858 -20.2854 -20.2831 -20.2826
   -20.2773 -20.2773 -20.2772 -20.2771 -20.2762 -20.2762 -20.2760 -20.2760
   -20.2691 -20.2691 -20.2684 -20.2684 -20.2650 -20.2649 -20.2648 -20.2647
   -20.2589 -20.2588 -20.2588 -20.2587  -9.7398  -9.5975  -8.9605  -8.9545
    -8.8044  -8.6661  -8.1891  -8.1282  -7.7684  -7.7563  -7.7264  -7.7164
     1.4637   1.4641   1.8482   1.9068   2.3846   2.5994   2.6225   2.6911
     3.0848   3.0919   3.6844   3.7333   4.1358   4.7420   4.7514   4.8416
     5.1165   5.1395   5.3588   5.3949   5.6183   5.6419   6.4398   6.6373
     6.7284   6.7561   6.9925   7.0241   7.0985   7.1589   7.3431   7.3830
     7.7981   7.8058   7.8207   7.8582   9.8742   9.8971  10.8224  10.8851
    11.8709  11.9183  12.9093  12.9559  13.2767  13.4189  13.6804  13.7743
    15.0492  15.5506  15.5586  15.8074  16.2487  16.7969

          k = 0.0000 0.1667-0.3341 ( 31080 PWs)   bands (ev):

   -66.1421 -66.1421 -66.1404 -66.1404 -30.5177 -30.5177 -30.5123 -30.5123
   -30.4727 -30.4727 -30.4722 -30.4722 -30.3900 -30.3900 -30.3899 -30.3899
   -20.3001 -20.3001 -20.2999 -20.2999 -20.2845 -20.2845 -20.2840 -20.2840
   -20.2772 -20.2772 -20.2772 -20.2772 -20.2762 -20.2762 -20.2762 -20.2761
   -20.2691 -20.2691 -20.2684 -20.2684 -20.2649 -20.2649 -20.2647 -20.2647
   -20.2589 -20.2589 -20.2588 -20.2588  -9.6587  -9.6587  -8.9574  -8.9574
    -8.5034  -8.5034  -8.4306  -8.4306  -7.7626  -7.7626  -7.7214  -7.7214
     1.4639   1.4639   1.8946   1.8946   2.6187   2.6187   3.2405   3.2405
     3.2989   3.2989   3.3812   3.3812   3.7249   3.7249   4.9310   4.9310
     5.0045   5.0045   5.4301   5.4301   5.4652   5.4652   6.5458   6.5458
     6.7378   6.7378   7.0903   7.0903   7.2972   7.2972   7.4883   7.4883
     7.5520   7.5520   7.8142   7.8142   9.8882   9.8882  11.3571  11.3571
    11.4112  11.4112  12.9319  12.9319  13.4400  13.4400  13.5593  13.5593
    15.5541  15.5542  15.6638  15.6638  16.6675  16.6675

          k = 0.0000 0.3333 0.0000 ( 31158 PWs)   bands (ev):

   -66.1420 -66.1416 -66.1409 -66.1405 -30.5463 -30.5428 -30.4888 -30.4848
   -30.4569 -30.4550 -30.4538 -30.4533 -30.4090 -30.4085 -30.4062 -30.4060
   -20.3001 -20.3000 -20.3000 -20.2999 -20.2871 -20.2869 -20.2817 -20.2814
   -20.2773 -20.2773 -20.2772 -20.2771 -20.2762 -20.2762 -20.2759 -20.2759
   -20.2693 -20.2692 -20.2688 -20.2687 -20.2638 -20.2637 -20.2633 -20.2632
   -20.2603 -20.2601 -20.2600 -20.2598  -9.5928  -9.2298  -9.1513  -8.7681
    -8.7422  -8.7279  -8.2123  -8.1573  -8.0317  -8.0133  -7.8142  -7.7648
     1.5064   1.5898   2.1649   2.1741   2.5196   2.6223   2.9771   3.0267
     3.2307   3.2602   3.8023   3.8074   4.2406   4.3290   4.4791   4.5258
     4.9108   4.9611   5.1790   5.5200   5.5260   5.6289   5.8701   6.0367
     6.4576   6.4586   6.5336   6.6275   7.0019   7.3412   7.4301   7.5090
     7.7275   7.7368   7.9055   8.0282  10.7293  10.8856  10.9492  11.2013
    12.1906  12.2948  12.7096  12.7968  12.9784  13.0459  13.5832  13.7506
    14.4555  15.1990  15.8230  16.3161  16.3651  17.7833

          k = 0.0000 0.3333 0.1114 ( 31139 PWs)   bands (ev):

   -66.1419 -66.1416 -66.1409 -66.1406 -30.5424 -30.5390 -30.4926 -30.4887
   -30.4567 -30.4550 -30.4540 -30.4535 -30.4088 -30.4083 -30.4064 -30.4062
   -20.3001 -20.3000 -20.3000 -20.2999 -20.2868 -20.2865 -20.2821 -20.2818
   -20.2773 -20.2772 -20.2771 -20.2770 -20.2762 -20.2762 -20.2760 -20.2760
   -20.2693 -20.2692 -20.2688 -20.2687 -20.2638 -20.2637 -20.2633 -20.2632
   -20.2603 -20.2601 -20.2600 -20.2598  -9.5522  -9.2415  -9.0798  -8.7414
    -8.7339  -8.7285  -8.2302  -8.1541  -8.0307  -8.0146  -7.9066  -7.8566
     1.7337   1.8154   2.1654   2.1735   2.5215   2.6342   3.0514   3.0716
     3.2450   3.2573   3.7839   3.8199   4.2377   4.3374   4.4878   4.5304
     4.7213   4.7505   4.9796   5.4519   5.5126   5.5631   5.6618   5.8032
     6.5490   6.5710   6.7104   6.7684   7.0155   7.3313   7.4306   7.4972
     7.7269   7.7328   7.8526   7.9740  10.7762  10.9223  11.0095  11.2620
    12.1917  12.3145  12.7014  12.7189  12.8808  13.0315  13.4768  13.6552
    14.8241  15.5826  15.9340  16.3203  16.3616  17.4305

          k = 0.0000 0.3333 0.2227 ( 31107 PWs)   bands (ev):

   -66.1419 -66.1417 -66.1408 -66.1406 -30.5318 -30.5284 -30.5029 -30.4994
   -30.4561 -30.4549 -30.4545 -30.4539 -30.4083 -30.4079 -30.4069 -30.4067
   -20.3001 -20.3000 -20.3000 -20.2999 -20.2858 -20.2856 -20.2831 -20.2828
   -20.2771 -20.2771 -20.2770 -20.2769 -20.2764 -20.2763 -20.2762 -20.2761
   -20.2692 -20.2692 -20.2687 -20.2687 -20.2638 -20.2637 -20.2633 -20.2632
   -20.2603 -20.2602 -20.2600 -20.2598  -9.4538  -9.2796  -8.8798  -8.7395
    -8.7290  -8.6197  -8.3308  -8.1434  -8.1394  -8.0362  -8.0261  -8.0179
     2.1669   2.1717   2.2875   2.3949   2.5207   2.7506   3.1548   3.2528
     3.2816   3.3304   3.6437   3.7572   4.1008   4.2921   4.3484   4.4890
     4.5250   4.6144   4.7329   4.8863   5.1349   5.2640   5.5422   5.5444
     6.8281   6.8897   6.9631   7.0496   7.0950   7.3069   7.4374   7.4574
     7.6732   7.7135   7.7441   7.8216  10.8557  10.9204  11.2885  11.4859
    12.0770  12.2305  12.5810  12.6569  12.7778  13.0582  13.2256  13.4305
    15.6743  16.2498  16.3334  16.3519  16.5775  16.9330

          k = 0.0000 0.3333-0.3341 ( 31132 PWs)   bands (ev):

   -66.1418 -66.1418 -66.1407 -66.1407 -30.5173 -30.5173 -30.5139 -30.5139
   -30.4553 -30.4553 -30.4545 -30.4545 -30.4076 -30.4076 -30.4073 -30.4073
   -20.3000 -20.3000 -20.3000 -20.2999 -20.2845 -20.2845 -20.2842 -20.2842
   -20.2770 -20.2770 -20.2769 -20.2769 -20.2764 -20.2764 -20.2763 -20.2763
   -20.2692 -20.2692 -20.2687 -20.2687 -20.2637 -20.2637 -20.2633 -20.2633
   -20.2602 -20.2602 -20.2599 -20.2599  -9.3510  -9.3510  -8.7385  -8.7385
    -8.5881  -8.5880  -8.4104  -8.4104  -8.1178  -8.1178  -8.0223  -8.0223
     2.1693   2.1693   2.4968   2.4968   3.1387   3.1387   3.2356   3.2356
     3.3525   3.3525   3.5434   3.5434   3.7931   3.7931   4.4205   4.4205
     4.5275   4.5275   4.7609   4.7609   4.8706   4.8706   5.5378   5.5378
     6.9387   6.9387   7.2387   7.2387   7.2745   7.2745   7.4157   7.4158
     7.5583   7.5583   7.7449   7.7449  10.9012  10.9012  11.6980  11.6980
    11.8701  11.8701  12.5999  12.5999  12.9264  12.9264  13.2103  13.2103
    16.3326  16.3326  16.4049  16.4049  16.9849  16.9849

          k = 0.0000-0.5000 0.0000 ( 31138 PWs)   bands (ev):

   -66.1414 -66.1414 -66.1411 -66.1411 -30.5448 -30.5448 -30.4870 -30.4870
   -30.4330 -30.4330 -30.4318 -30.4318 -30.4300 -30.4300 -30.4297 -30.4297
   -20.3000 -20.3000 -20.3000 -20.3000 -20.2870 -20.2870 -20.2816 -20.2816
   -20.2772 -20.2772 -20.2771 -20.2771 -20.2761 -20.2761 -20.2761 -20.2761
   -20.2691 -20.2691 -20.2690 -20.2690 -20.2621 -20.2621 -20.2619 -20.2619
   -20.2616 -20.2616 -20.2614 -20.2614  -9.3132  -9.3132  -8.7597  -8.7596
    -8.5669  -8.5669  -8.3942  -8.3942  -8.3720  -8.3720  -7.7901  -7.7901
     1.5487   1.5487   2.9403   2.9403   3.1007   3.1007   3.1373   3.1373
     3.3414   3.3415   3.8234   3.8234   3.8567   3.8567   4.2161   4.2161
     4.3101   4.3101   4.9166   4.9166   5.3666   5.3666   5.9838   5.9839
     6.3965   6.3965   6.4470   6.4470   7.4895   7.4895   7.5340   7.5340
     7.6361   7.6361   7.8379   7.8379  11.5647  11.5647  11.6347  11.6347
    11.9583  11.9583  12.1676  12.1676  13.1249  13.1249  13.2894  13.2894
    14.8707  14.8707  16.7419  16.7419  17.7508  17.7508

          k = 0.0000-0.5000 0.1114 ( 31140 PWs)   bands (ev):

   -66.1414 -66.1414 -66.1411 -66.1411 -30.5409 -30.5409 -30.4909 -30.4909
   -30.4328 -30.4328 -30.4317 -30.4317 -30.4302 -30.4302 -30.4298 -30.4298
   -20.3000 -20.3000 -20.3000 -20.3000 -20.2867 -20.2867 -20.2820 -20.2820
   -20.2771 -20.2771 -20.2770 -20.2770 -20.2762 -20.2762 -20.2762 -20.2762
   -20.2691 -20.2691 -20.2690 -20.2690 -20.2621 -20.2621 -20.2620 -20.2620
   -20.2616 -20.2616 -20.2614 -20.2614  -9.2533  -9.2533  -8.7721  -8.7721
    -8.5524  -8.5524  -8.3936  -8.3936  -8.3725  -8.3724  -7.8843  -7.8843
     1.7794   1.7794   2.9579   2.9579   3.1070   3.1070   3.1607   3.1607
     3.3323   3.3323   3.8621   3.8621   3.9029   3.9029   4.2055   4.2055
     4.3117   4.3117   4.6986   4.6986   5.1334   5.1334   5.7173   5.7173
     6.5874   6.5874   6.6271   6.6271   7.4771   7.4772   7.5246   7.5246
     7.6207   7.6207   7.8027   7.8027  11.6130  11.6130  11.6936  11.6936
    11.9655  11.9655  12.1934  12.1934  13.0001  13.0001  13.1727  13.1727
    15.2555  15.2555  16.8071  16.8071  17.6830  17.6830

          k = 0.0000-0.5000 0.2227 ( 31130 PWs)   bands (ev):

   -66.1414 -66.1414 -66.1412 -66.1412 -30.5303 -30.5303 -30.5014 -30.5014
   -30.4323 -30.4323 -30.4314 -30.4314 -30.4307 -30.4307 -30.4303 -30.4303
   -20.3000 -20.3000 -20.3000 -20.3000 -20.2857 -20.2857 -20.2830 -20.2830
   -20.2769 -20.2769 -20.2769 -20.2769 -20.2764 -20.2763 -20.2763 -20.2763
   -20.2691 -20.2691 -20.2690 -20.2690 -20.2621 -20.2621 -20.2620 -20.2620
   -20.2615 -20.2615 -20.2615 -20.2615  -9.0976  -9.0976  -8.8179  -8.8179
    -8.4989  -8.4989  -8.3930  -8.3929  -8.3718  -8.3718  -8.1114  -8.1114
     2.3953   2.3953   2.9985   2.9985   3.0951   3.0951   3.2477   3.2477
     3.2966   3.2966   3.9942   3.9942   3.9948   3.9948   4.0919   4.0919
     4.3266   4.3266   4.3473   4.3473   4.7296   4.7296   5.0335   5.0335
     6.9204   6.9204   7.0165   7.0165   7.4080   7.4080   7.4865   7.4865
     7.5984   7.5984   7.7047   7.7047  11.7258  11.7258  11.8093  11.8093
    12.0369  12.0369  12.2952  12.2952  12.6871  12.6871  12.8793  12.8793
    16.2004  16.2005  16.9901  16.9901  17.4810  17.4810

          k = 0.0000-0.5000-0.3341 ( 31128 PWs)   bands (ev):

   -66.1413 -66.1413 -66.1412 -66.1412 -30.5159 -30.5159 -30.5159 -30.5159
   -30.4315 -30.4315 -30.4315 -30.4315 -30.4309 -30.4309 -30.4309 -30.4309
   -20.3000 -20.3000 -20.3000 -20.3000 -20.2844 -20.2844 -20.2844 -20.2844
   -20.2767 -20.2767 -20.2767 -20.2767 -20.2766 -20.2766 -20.2765 -20.2765
   -20.2691 -20.2691 -20.2691 -20.2691 -20.2620 -20.2620 -20.2620 -20.2620
   -20.2615 -20.2615 -20.2615 -20.2615  -8.9248  -8.9248  -8.9248  -8.9248
    -8.4063  -8.4063  -8.4063  -8.4063  -8.3295  -8.3295  -8.3295  -8.3295
     3.0106   3.0106   3.0106   3.0107   3.1508   3.1508   3.1508   3.1508
     3.4582   3.4582   3.4582   3.4582   4.1638   4.1638   4.1638   4.1638
     4.3889   4.3889   4.3889   4.3889   4.4734   4.4734   4.4734   4.4734
     7.2134   7.2134   7.2134   7.2134   7.3426   7.3426   7.3426   7.3426
     7.6156   7.6156   7.6156   7.6156  11.8149  11.8149  11.8149  11.8149
    12.3004  12.3004  12.3004  12.3004  12.5501  12.5501  12.5501  12.5502
    17.1726  17.1726  17.1727  17.1728  17.3771  17.3771

          k = 0.1667 0.1667 0.0000 ( 31116 PWs)   bands (ev):

   -66.1422 -66.1418 -66.1407 -66.1403 -30.5467 -30.5417 -30.4882 -30.4837
   -30.4820 -30.4787 -30.4547 -30.4523 -30.4099 -30.4072 -30.3838 -30.3811
   -20.3001 -20.3000 -20.3000 -20.2999 -20.2872 -20.2868 -20.2817 -20.2813
   -20.2776 -20.2774 -20.2772 -20.2770 -20.2763 -20.2760 -20.2760 -20.2756
   -20.2691 -20.2690 -20.2685 -20.2685 -20.2657 -20.2656 -20.2633 -20.2632
   -20.2604 -20.2602 -20.2583 -20.2580  -9.7806  -9.4853  -9.1064  -8.9187
    -8.8403  -8.7781  -8.0844  -8.0656  -7.8292  -7.7521  -7.6505  -7.6291
     1.3068   1.3516   1.5649   1.6182   2.4635   2.5421   2.7161   2.7388
     2.8319   3.0576   3.8424   3.9541   4.5157   4.5549   4.8250   4.9927
     5.1928   5.4646   5.4799   5.7157   5.7837   6.0038   6.3330   6.4007
     6.5914   6.5948   6.7060   6.8529   6.8576   7.0049   7.0599   7.3679
     7.7532   7.7744   7.9163   8.1340  10.0324  10.3321  10.4004  10.9908
    12.0762  12.6005  12.6848  12.8883  13.0933  13.4270  13.7040  14.1513
    14.1658  15.3026  15.3253  15.6093  15.8807  17.5303

          k = 0.1667 0.1667 0.1114 ( 31132 PWs)   bands (ev):

   -66.1422 -66.1418 -66.1407 -66.1403 -30.5428 -30.5379 -30.4921 -30.4876
   -30.4817 -30.4789 -30.4546 -30.4525 -30.4097 -30.4074 -30.3836 -30.3813
   -20.3001 -20.3000 -20.3000 -20.2999 -20.2868 -20.2864 -20.2821 -20.2817
   -20.2776 -20.2774 -20.2772 -20.2770 -20.2764 -20.2760 -20.2760 -20.2757
   -20.2691 -20.2690 -20.2685 -20.2685 -20.2657 -20.2656 -20.2633 -20.2632
   -20.2604 -20.2602 -20.2583 -20.2580  -9.7486  -9.4961  -9.0335  -8.9007
    -8.8419  -8.7523  -8.1003  -8.0636  -7.9197  -7.8482  -7.6491  -7.6305
     1.3326   1.3515   1.7535   1.8599   2.4656   2.5616   2.7481   2.7743
     2.8319   3.1180   3.8359   3.9045   4.3609   4.5734   4.7527   4.8176
     5.0374   5.4269   5.4910   5.6163   5.6944   5.8342   6.3620   6.5716
     6.5912   6.6710   6.6998   6.8092   6.9292   6.9736   7.0405   7.3614
     7.7565   7.7728   7.8826   8.0619  10.2085  10.3408  10.4011  11.0815
    12.0403  12.4991  12.6398  12.8765  13.0930  13.4232  13.6115  14.0739
    14.4657  15.4275  15.5988  15.7318  15.8997  17.1507

          k = 0.1667 0.1667 0.2227 ( 31121 PWs)   bands (ev):

   -66.1421 -66.1419 -66.1406 -66.1404 -30.5321 -30.5273 -30.5028 -30.4983
   -30.4811 -30.4795 -30.4543 -30.4530 -30.4092 -30.4079 -30.3831 -30.3818
   -20.3001 -20.3000 -20.2999 -20.2999 -20.2858 -20.2855 -20.2831 -20.2827
   -20.2774 -20.2773 -20.2770 -20.2769 -20.2764 -20.2762 -20.2761 -20.2759
   -20.2691 -20.2691 -20.2685 -20.2685 -20.2656 -20.2656 -20.2633 -20.2632
   -20.2603 -20.2602 -20.2582 -20.2581  -9.6717  -9.5300  -8.8721  -8.8466
    -8.8271  -8.6432  -8.2316  -8.1432  -8.0576  -8.0071  -7.6453  -7.6345
     1.3460   1.3510   2.2943   2.3993   2.4634   2.7431   2.7892   2.8059
     2.9777   3.3041   3.6391   3.7298   4.1212   4.3117   4.5732   4.6253
     4.8376   5.0680   5.1910   5.3723   5.5801   5.7897   6.4398   6.6512
     6.6692   6.7095   6.8316   6.8441   7.0367   7.0758   7.1683   7.3453
     7.7433   7.7608   7.7631   7.8525  10.3587  10.3839  10.6839  11.3522
    11.7856  12.1926  12.6272  12.8309  13.1177  13.3893  13.4825  13.8570
    15.0627  15.5555  15.9523  15.9806  16.6445  16.7031

          k = 0.1667 0.1667-0.3341 ( 31118 PWs)   bands (ev):

   -66.1420 -66.1420 -66.1405 -66.1405 -30.5174 -30.5174 -30.5128 -30.5128
   -30.4803 -30.4803 -30.4537 -30.4537 -30.4086 -30.4086 -30.3824 -30.3824
   -20.3001 -20.3000 -20.2999 -20.2999 -20.2845 -20.2845 -20.2841 -20.2841
   -20.2773 -20.2773 -20.2769 -20.2769 -20.2764 -20.2764 -20.2761 -20.2760
   -20.2691 -20.2691 -20.2685 -20.2685 -20.2656 -20.2656 -20.2633 -20.2632
   -20.2603 -20.2603 -20.2582 -20.2582  -9.5900  -9.5900  -8.8554  -8.8553
    -8.5304  -8.5304  -8.4243  -8.4243  -8.0454  -8.0454  -7.6399  -7.6399
     1.3496   1.3497   2.4427   2.4427   2.7871   2.7871   3.2328   3.2328
     3.2760   3.2761   3.4195   3.4196   3.7623   3.7623   4.4909   4.4909
     4.7886   4.7886   5.2562   5.2562   5.6435   5.6435   6.5445   6.5445
     6.7020   6.7020   6.8632   6.8632   7.1994   7.1995   7.4701   7.4701
     7.5092   7.5092   7.7704   7.7704  10.3748  10.3748  11.2682  11.2682
    11.7608  11.7608  12.7318  12.7318  13.2061  13.2061  13.6304  13.6304
    15.4214  15.4214  16.2134  16.2134  16.8199  16.8199

          k = 0.1667 0.3333 0.0000 ( 31159 PWs)   bands (ev):

   -66.1419 -66.1415 -66.1410 -66.1406 -30.5459 -30.5430 -30.4882 -30.4852
   -30.4756 -30.4732 -30.4344 -30.4319 -30.4303 -30.4278 -30.3894 -30.3867
   -20.3001 -20.3000 -20.3000 -20.2999 -20.2871 -20.2869 -20.2817 -20.2814
   -20.2776 -20.2775 -20.2770 -20.2768 -20.2765 -20.2763 -20.2759 -20.2756
   -20.2691 -20.2690 -20.2688 -20.2687 -20.2653 -20.2652 -20.2622 -20.2620
   -20.2614 -20.2613 -20.2585 -20.2583  -9.5993  -9.2833  -9.1841  -8.8493
    -8.5506  -8.5501  -8.4919  -8.4330  -7.8239  -7.8122  -7.7853  -7.7676
     1.4528   1.5909   1.6054   1.7114   2.7326   2.9870   3.0776   3.1993
     3.3064   3.4186   3.5114   3.7952   3.8972   4.4093   4.5566   4.8792
     5.0364   5.0516   5.2560   5.6224   5.7929   5.7976   5.8964   5.9707
     6.3635   6.4525   6.6619   6.7487   6.8142   6.9777   7.0332   7.5345
     7.5769   7.7117   7.7277   8.1117  10.2806  11.2048  11.2714  11.5858
    11.7980  12.6056  12.6204  12.6805  12.9098  13.2444  13.3646  14.0227
    14.3769  15.0915  15.8786  16.0684  16.7395  17.8945

          k = 0.1667 0.3333 0.1114 ( 31139 PWs)   bands (ev):

   -66.1419 -66.1415 -66.1410 -66.1406 -30.5420 -30.5392 -30.4919 -30.4890
   -30.4756 -30.4734 -30.4343 -30.4321 -30.4302 -30.4280 -30.3892 -30.3869
   -20.3001 -20.3000 -20.3000 -20.2999 -20.2868 -20.2865 -20.2820 -20.2818
   -20.2776 -20.2774 -20.2769 -20.2767 -20.2766 -20.2763 -20.2759 -20.2757
   -20.2691 -20.2690 -20.2688 -20.2687 -20.2653 -20.2652 -20.2622 -20.2621
   -20.2614 -20.2613 -20.2585 -20.2583  -9.5618  -9.2930  -9.1161  -8.8162
    -8.5532  -8.5524  -8.4936  -8.4271  -7.9114  -7.8709  -7.8102  -7.7890
     1.5504   1.6051   1.7894   1.8830   2.7996   3.0055   3.0879   3.2209
     3.3090   3.4231   3.5023   3.7975   3.9466   4.2585   4.5791   4.6568
     4.9369   5.0129   5.1082   5.4357   5.6898   5.7552   5.8522   5.8931
     6.4862   6.6138   6.6565   6.7941   6.8989   6.9359   7.0570   7.5349
     7.5714   7.6810   7.6962   8.0387  10.4379  11.2106  11.2698  11.6523
    11.8588  12.4879  12.6004  12.6661  12.8883  13.1401  13.3089  13.9272
    14.6953  15.4670  15.9970  16.0486  16.7701  17.6606

          k = 0.1667 0.3333 0.2227 ( 31125 PWs)   bands (ev):

   -66.1418 -66.1416 -66.1409 -66.1407 -30.5313 -30.5286 -30.5023 -30.4996
   -30.4753 -30.4740 -30.4339 -30.4326 -30.4297 -30.4285 -30.3887 -30.3874
   -20.3000 -20.3000 -20.3000 -20.2999 -20.2858 -20.2856 -20.2830 -20.2828
   -20.2774 -20.2773 -20.2767 -20.2767 -20.2766 -20.2765 -20.2761 -20.2759
   -20.2691 -20.2691 -20.2688 -20.2687 -20.2653 -20.2653 -20.2622 -20.2621
   -20.2614 -20.2613 -20.2585 -20.2584  -9.4733  -9.3246  -8.9308  -8.7150
    -8.5777  -8.5620  -8.4843  -8.4031  -8.1397  -8.1080  -7.8064  -7.7951
     1.5933   1.6042   2.3843   2.5002   2.9814   3.0699   3.0848   3.2828
     3.3187   3.4421   3.4666   3.6804   4.0836   4.1187   4.1256   4.3796
     4.7388   4.8022   4.9904   5.0388   5.1393   5.5179   5.8926   5.9005
     6.6829   6.7944   6.8421   6.8814   7.0222   7.0728   7.1779   7.5220
     7.5536   7.5798   7.6125   7.8274  10.8514  11.2247  11.2681  11.7614
    12.0428  12.1935  12.5122  12.6110  12.7702  12.9179  13.3022  13.7000
    15.3383  15.9648  16.3567  16.4432  16.8957  17.3060

          k = 0.1667 0.3333-0.3341 ( 31112 PWs)   bands (ev):

   -66.1417 -66.1417 -66.1408 -66.1408 -30.5168 -30.5168 -30.5141 -30.5141
   -30.4747 -30.4747 -30.4333 -30.4333 -30.4291 -30.4291 -30.3880 -30.3880
   -20.3000 -20.3000 -20.3000 -20.2999 -20.2844 -20.2844 -20.2842 -20.2842
   -20.2773 -20.2772 -20.2767 -20.2767 -20.2766 -20.2765 -20.2761 -20.2761
   -20.2691 -20.2691 -20.2688 -20.2687 -20.2653 -20.2653 -20.2621 -20.2621
   -20.2614 -20.2613 -20.2584 -20.2584  -9.3845  -9.3844  -8.7084  -8.7058
    -8.5974  -8.5926  -8.3849  -8.3798  -8.3224  -8.3189  -7.8012  -7.8007
     1.6008   1.6023   3.0069   3.0139   3.1389   3.1647   3.2266   3.2816
     3.2931   3.3963   3.4897   3.5148   3.6456   3.6620   4.3087   4.3177
     4.4162   4.4208   4.8803   5.0626   5.1390   5.3012   5.8951   5.9026
     6.7658   6.7942   6.8807   6.9158   7.2766   7.3192   7.3656   7.3987
     7.4554   7.4916   7.5894   7.6146  11.2032  11.2304  11.4088  11.4646
    12.2651  12.2925  12.3311  12.3425  12.7421  12.8100  13.4360  13.4802
    15.7584  15.7793  16.9331  16.9436  17.3260  17.3400

          k = 0.1667-0.5000 0.0000 ( 31142 PWs)   bands (ev):

   -66.1414 -66.1414 -66.1411 -66.1411 -30.5446 -30.5446 -30.4870 -30.4870
   -30.4583 -30.4583 -30.4560 -30.4560 -30.4064 -30.4064 -30.4038 -30.4038
   -20.3000 -20.3000 -20.3000 -20.3000 -20.2870 -20.2870 -20.2816 -20.2816
   -20.2775 -20.2775 -20.2768 -20.2768 -20.2765 -20.2765 -20.2757 -20.2757
   -20.2690 -20.2690 -20.2689 -20.2689 -20.2641 -20.2641 -20.2639 -20.2639
   -20.2597 -20.2597 -20.2595 -20.2595  -9.3611  -9.3611  -8.9503  -8.9502
    -8.7184  -8.7184  -8.1557  -8.1557  -8.1438  -8.1438  -7.7896  -7.7896
     1.5482   1.5482   2.2766   2.2766   2.3117   2.3117   2.9375   2.9375
     3.9065   3.9065   4.1368   4.1368   4.1561   4.1561   4.4390   4.4390
     4.8815   4.8816   5.0633   5.0633   5.4195   5.4195   5.8793   5.8793
     6.4813   6.4813   6.5678   6.5678   7.1963   7.1963   7.2231   7.2231
     7.3685   7.3685   7.9820   7.9820  10.8973  10.8973  12.0314  12.0314
    12.0773  12.0773  12.5441  12.5441  12.8284  12.8284  13.6532  13.6532
    14.7329  14.7329  16.7486  16.7486  17.1873  17.1873

          k = 0.1667-0.5000 0.1114 ( 31132 PWs)   bands (ev):

   -66.1414 -66.1414 -66.1411 -66.1411 -30.5407 -30.5407 -30.4908 -30.4908
   -30.4583 -30.4583 -30.4562 -30.4562 -30.4063 -30.4063 -30.4040 -30.4040
   -20.3000 -20.3000 -20.3000 -20.3000 -20.2867 -20.2867 -20.2819 -20.2819
   -20.2774 -20.2774 -20.2767 -20.2767 -20.2765 -20.2765 -20.2758 -20.2758
   -20.2690 -20.2690 -20.2690 -20.2690 -20.2640 -20.2640 -20.2639 -20.2639
   -20.2597 -20.2597 -20.2595 -20.2595  -9.3092  -9.3092  -8.9593  -8.9593
    -8.6961  -8.6961  -8.1589  -8.1589  -8.1449  -8.1449  -7.8826  -7.8826
     1.7703   1.7703   2.2756   2.2756   2.3237   2.3237   3.0089   3.0089
     3.8843   3.8843   4.1127   4.1127   4.2074   4.2074   4.3596   4.3596
     4.8836   4.8836   4.9339   4.9339   5.2014   5.2014   5.7594   5.7594
     6.5027   6.5027   6.7600   6.7600   7.1960   7.1960   7.2189   7.2189
     7.3620   7.3620   7.9233   7.9233  11.0091  11.0091  12.0291  12.0291
    12.0759  12.0759  12.5934  12.5934  12.6948  12.6948  13.5455  13.5455
    15.0887  15.0887  16.7994  16.7994  17.1692  17.1692

          k = 0.1667-0.5000 0.2227 ( 31146 PWs)   bands (ev):

   -66.1414 -66.1414 -66.1412 -66.1412 -30.5301 -30.5301 -30.5012 -30.5012
   -30.4580 -30.4580 -30.4567 -30.4567 -30.4058 -30.4058 -30.4045 -30.4045
   -20.3000 -20.3000 -20.3000 -20.3000 -20.2857 -20.2857 -20.2830 -20.2830
   -20.2773 -20.2773 -20.2768 -20.2767 -20.2765 -20.2765 -20.2760 -20.2760
   -20.2690 -20.2690 -20.2690 -20.2690 -20.2640 -20.2640 -20.2639 -20.2639
   -20.2597 -20.2597 -20.2595 -20.2595  -9.1832  -9.1832  -8.9909  -8.9909
    -8.6121  -8.6121  -8.2106  -8.2106  -8.1419  -8.1419  -8.0750  -8.0749
     2.1963   2.1963   2.2721   2.2721   2.5299   2.5299   3.2229   3.2229
     3.7056   3.7056   4.0754   4.0754   4.1636   4.1636   4.3803   4.3803
     4.5359   4.5359   4.8842   4.8843   4.9113   4.9113   5.2969   5.2969
     6.8240   6.8240   7.0155   7.0155   7.1694   7.1694   7.2438   7.2438
     7.3504   7.3504   7.7477   7.7477  11.3202  11.3202  12.0056  12.0056
    12.0684  12.0684  12.3631  12.3631  12.7398  12.7398  13.2812  13.2812
    15.9008  15.9008  16.8495  16.8495  17.2100  17.2100

          k = 0.1667-0.5000-0.3341 ( 31128 PWs)   bands (ev):

   -66.1413 -66.1413 -66.1412 -66.1412 -30.5157 -30.5157 -30.5156 -30.5156
   -30.4574 -30.4574 -30.4574 -30.4574 -30.4052 -30.4052 -30.4051 -30.4051
   -20.3000 -20.3000 -20.3000 -20.3000 -20.2843 -20.2843 -20.2843 -20.2843
   -20.2770 -20.2770 -20.2770 -20.2770 -20.2763 -20.2763 -20.2763 -20.2762
   -20.2690 -20.2690 -20.2690 -20.2690 -20.2640 -20.2640 -20.2640 -20.2640
   -20.2596 -20.2596 -20.2596 -20.2596  -9.0613  -9.0613  -9.0609  -9.0608
    -8.4310  -8.4310  -8.4293  -8.4293  -8.1314  -8.1314  -8.1302  -8.1302
     2.2609   2.2609   2.2626   2.2626   3.2391   3.2391   3.2450   3.2450
     3.6162   3.6162   3.6665   3.6665   4.0820   4.0820   4.2112   4.2112
     4.6444   4.6444   4.7223   4.7224   4.9807   4.9807   4.9978   4.9978
     7.0479   7.0479   7.0821   7.0821   7.1582   7.1582   7.2715   7.2715
     7.4539   7.4539   7.5139   7.5139  11.7203  11.7203  11.7731  11.7731
    12.0618  12.0618  12.1775  12.1775  12.9542  12.9542  13.0066  13.0066
    16.5683  16.5683  16.6098  16.6098  17.5063  17.5064

          k = 0.3333 0.3333 0.0000 ( 31140 PWs)   bands (ev):

   -66.1417 -66.1413 -66.1412 -66.1408 -30.5449 -30.5435 -30.4862 -30.4860
   -30.4846 -30.4813 -30.4594 -30.4573 -30.4053 -30.4027 -30.3816 -30.3789
   -20.3000 -20.3000 -20.3000 -20.2999 -20.2870 -20.2869 -20.2815 -20.2814
   -20.2778 -20.2777 -20.2768 -20.2767 -20.2766 -20.2766 -20.2756 -20.2755
   -20.2689 -20.2688 -20.2688 -20.2687 -20.2662 -20.2661 -20.2642 -20.2641
   -20.2595 -20.2593 -20.2578 -20.2576  -9.5688  -9.2952  -9.2894  -8.8843
    -8.8597  -8.6930  -8.1914  -8.1901  -7.8048  -7.7767  -7.7279  -7.7054
     1.2940   1.3259   1.5804   1.6163   2.2516   2.2854   2.6208   2.9157
     3.7650   3.8551   4.1952   4.2687   4.3008   4.8069   4.8203   4.9569
     5.1910   5.1984   5.3540   5.6346   5.6642   5.7564   5.9952   6.1681
     6.2613   6.3008   6.5360   6.5418   6.7142   6.8233   7.0222   7.1003
     7.1202   7.3351   7.9720   8.1537  10.0108  10.8753  11.8064  11.8491
    12.4478  12.4507  12.5197  12.5331  12.8671  13.1773  13.6985  14.1596
    14.3250  14.7951  15.9495  16.2718  17.2149  17.3856

          k = 0.3333 0.3333 0.1114 ( 31142 PWs)   bands (ev):

   -66.1417 -66.1413 -66.1412 -66.1408 -30.5410 -30.5396 -30.4902 -30.4897
   -30.4844 -30.4816 -30.4594 -30.4575 -30.4051 -30.4029 -30.3814 -30.3791
   -20.3000 -20.3000 -20.3000 -20.2999 -20.2867 -20.2866 -20.2819 -20.2818
   -20.2777 -20.2777 -20.2768 -20.2767 -20.2766 -20.2765 -20.2757 -20.2756
   -20.2689 -20.2688 -20.2688 -20.2688 -20.2662 -20.2661 -20.2642 -20.2641
   -20.2594 -20.2593 -20.2578 -20.2576  -9.5337  -9.2976  -9.2409  -8.8922
    -8.8207  -8.6726  -8.1974  -8.1881  -7.8993  -7.8751  -7.7265  -7.7069
     1.3104   1.3258   1.7791   1.8637   2.2500   2.2986   2.6911   2.9902
     3.7641   3.8501   4.1006   4.1333   4.2542   4.7889   4.8147   4.8666
     5.1424   5.1714   5.1840   5.3753   5.7354   5.7888   5.9729   6.1478
     6.2105   6.2605   6.5578   6.6732   6.8127   6.8317   7.0156   7.0619
     7.1083   7.3273   7.9121   8.0731  10.2065  10.9905  11.8083  11.8465
    12.3675  12.4185  12.4776  12.5711  12.7553  13.1984  13.6053  14.0644
    14.6070  15.1398  15.9183  16.3999  17.1709  17.4353

          k = 0.3333 0.3333 0.2227 ( 31138 PWs)   bands (ev):

   -66.1416 -66.1414 -66.1411 -66.1409 -30.5303 -30.5290 -30.5010 -30.5002
   -30.4838 -30.4822 -30.4592 -30.4580 -30.4047 -30.4033 -30.3809 -30.3796
   -20.3000 -20.3000 -20.3000 -20.2999 -20.2857 -20.2856 -20.2829 -20.2828
   -20.2776 -20.2775 -20.2770 -20.2768 -20.2764 -20.2763 -20.2759 -20.2758
   -20.2689 -20.2688 -20.2688 -20.2688 -20.2662 -20.2661 -20.2642 -20.2641
   -20.2594 -20.2593 -20.2577 -20.2576  -9.4530  -9.3242  -9.1092  -8.9203
    -8.6922  -8.5923  -8.2455  -8.1819  -8.1307  -8.0936  -7.7224  -7.7111
     1.3209   1.3254   2.1753   2.2455   2.5185   2.5332   2.8969   3.2158
     3.6196   3.7559   3.8398   3.8528   4.3934   4.4239   4.5053   4.7838
     4.8047   4.9931   5.1906   5.2055   5.3759   5.6468   6.1324   6.1895
     6.2285   6.2671   6.6201   6.8151   6.9068   6.9632   7.0653   7.1378
     7.1786   7.2946   7.7308   7.8386  10.7018  11.3002  11.8112  11.8393
    11.9626  12.2197  12.5011  12.5817  12.7121  13.1714  13.4783  13.8387
    15.1729  15.8130  15.9307  16.8166  17.0162  17.6174

          k = 0.3333 0.3333-0.3341 ( 31136 PWs)   bands (ev):

   -66.1415 -66.1415 -66.1410 -66.1410 -30.5157 -30.5157 -30.5146 -30.5146
   -30.4830 -30.4830 -30.4586 -30.4586 -30.4040 -30.4040 -30.3802 -30.3802
   -20.3000 -20.3000 -20.3000 -20.3000 -20.2843 -20.2843 -20.2842 -20.2842
   -20.2774 -20.2774 -20.2770 -20.2770 -20.2762 -20.2762 -20.2760 -20.2760
   -20.2688 -20.2688 -20.2688 -20.2688 -20.2661 -20.2661 -20.2642 -20.2642
   -20.2594 -20.2594 -20.2577 -20.2577  -9.3752  -9.3752  -8.9860  -8.9860
    -8.4685  -8.4685  -8.4044  -8.4044  -8.1679  -8.1679  -7.7168  -7.7168
     1.3242   1.3242   2.2348   2.2348   3.2191   3.2191   3.2420   3.2420
     3.4544   3.4544   3.6820   3.6820   3.8363   3.8363   4.6555   4.6555
     4.8502   4.8502   5.2175   5.2175   5.3787   5.3788   6.1874   6.1874
     6.2681   6.2681   6.7139   6.7139   7.0007   7.0007   7.1984   7.1984
     7.4348   7.4348   7.4967   7.4967  11.3078  11.3078  11.7985  11.7985
    11.8336  11.8336  12.5271  12.5271  12.9387  12.9388  13.6022  13.6022
    15.5919  15.5919  16.6482  16.6482  17.3973  17.3973

          k = 0.3333-0.5000 0.0000 ( 31140 PWs)   bands (ev):

   -66.1414 -66.1414 -66.1411 -66.1411 -30.5441 -30.5441 -30.4868 -30.4868
   -30.4773 -30.4773 -30.4754 -30.4754 -30.3874 -30.3874 -30.3848 -30.3848
   -20.3000 -20.3000 -20.3000 -20.2999 -20.2870 -20.2870 -20.2815 -20.2815
   -20.2778 -20.2778 -20.2768 -20.2768 -20.2765 -20.2765 -20.2755 -20.2755
   -20.2688 -20.2688 -20.2687 -20.2687 -20.2658 -20.2658 -20.2655 -20.2655
   -20.2581 -20.2581 -20.2579 -20.2579  -9.4549  -9.4549  -9.1553  -9.1553
    -8.8168  -8.8168  -7.8811  -7.8811  -7.8634  -7.8634  -7.7877  -7.7877
     1.4703   1.4703   1.5667   1.5667   1.7060   1.7060   2.6834   2.6834
     4.3203   4.3203   4.4854   4.4854   4.5524   4.5524   4.7021   4.7021
     5.4901   5.4901   5.6313   5.6313   5.6965   5.6965   5.7526   5.7526
     6.4502   6.4502   6.5337   6.5337   6.7011   6.7011   6.8678   6.8678
     7.0022   7.0022   8.1098   8.1098  10.2680  10.2680  12.2279  12.2279
    12.2564  12.2564  12.5964  12.5964  13.0418  13.0418  14.0186  14.0186
    14.4675  14.4675  16.3396  16.3396  16.9737  16.9737

          k = 0.3333-0.5000 0.1114 ( 31146 PWs)   bands (ev):

   -66.1414 -66.1414 -66.1411 -66.1411 -30.5402 -30.5402 -30.4903 -30.4903
   -30.4776 -30.4776 -30.4756 -30.4756 -30.3873 -30.3873 -30.3850 -30.3850
   -20.3000 -20.3000 -20.3000 -20.3000 -20.2866 -20.2866 -20.2818 -20.2818
   -20.2778 -20.2778 -20.2769 -20.2769 -20.2765 -20.2765 -20.2756 -20.2756
   -20.2688 -20.2688 -20.2687 -20.2687 -20.2657 -20.2657 -20.2656 -20.2656
   -20.2581 -20.2581 -20.2579 -20.2579  -9.4150  -9.4150  -9.1630  -9.1630
    -8.7820  -8.7820  -7.9075  -7.9075  -7.8772  -7.8772  -7.8467  -7.8467
     1.5284   1.5284   1.5664   1.5664   1.8867   1.8867   2.7562   2.7562
     4.1147   4.1147   4.4721   4.4721   4.5556   4.5556   4.7395   4.7395
     5.2577   5.2577   5.5899   5.5899   5.7390   5.7390   5.7832   5.7832
     6.3788   6.3788   6.5277   6.5277   6.7898   6.7898   6.8848   6.8848
     6.9815   6.9815   8.0335   8.0335  10.4348  10.4348  12.2349  12.2349
    12.2447  12.2447  12.4570  12.4570  13.0838  13.0838  13.9184  13.9184
    14.7693  14.7693  16.3050  16.3050  17.0793  17.0793

          k = 0.3333-0.5000 0.2227 ( 31146 PWs)   bands (ev):

   -66.1414 -66.1413 -66.1412 -66.1412 -30.5296 -30.5296 -30.5006 -30.5006
   -30.4775 -30.4775 -30.4762 -30.4762 -30.3868 -30.3868 -30.3855 -30.3854
   -20.3000 -20.3000 -20.3000 -20.3000 -20.2856 -20.2856 -20.2829 -20.2829
   -20.2776 -20.2776 -20.2771 -20.2771 -20.2763 -20.2763 -20.2758 -20.2758
   -20.2688 -20.2688 -20.2688 -20.2688 -20.2657 -20.2657 -20.2656 -20.2656
   -20.2581 -20.2581 -20.2580 -20.2580  -9.3240  -9.3240  -9.1885  -9.1885
    -8.6613  -8.6613  -8.1462  -8.1462  -7.8738  -7.8738  -7.8605  -7.8605
     1.5567   1.5567   1.5655   1.5655   2.5076   2.5077   2.9777   2.9777
     3.6795   3.6795   4.4453   4.4453   4.4952   4.4952   4.5873   4.5873
     4.8942   4.8942   5.4226   5.4226   5.7504   5.7504   5.8061   5.8061
     6.4071   6.4071   6.5152   6.5152   6.8871   6.8871   6.9362   6.9362
     7.0990   7.0990   7.8085   7.8085  10.8744  10.8744  12.0022  12.0022
    12.2469  12.2469  12.2857  12.2857  13.2075  13.2075  13.6777  13.6777
    15.4079  15.4079  16.1846  16.1846  17.4332  17.4332

          k = 0.3333-0.5000-0.3341 ( 31120 PWs)   bands (ev):

   -66.1413 -66.1413 -66.1412 -66.1412 -30.5150 -30.5150 -30.5150 -30.5150
   -30.4769 -30.4769 -30.4769 -30.4769 -30.3861 -30.3861 -30.3861 -30.3861
   -20.3000 -20.3000 -20.3000 -20.3000 -20.2843 -20.2843 -20.2843 -20.2842
   -20.2773 -20.2773 -20.2773 -20.2773 -20.2760 -20.2760 -20.2760 -20.2760
   -20.2688 -20.2688 -20.2688 -20.2688 -20.2657 -20.2657 -20.2657 -20.2657
   -20.2580 -20.2580 -20.2580 -20.2580  -9.2400  -9.2400  -9.2398  -9.2398
    -8.4352  -8.4352  -8.4348  -8.4348  -7.8677  -7.8677  -7.8674  -7.8674
     1.5631   1.5631   1.5636   1.5636   3.2202   3.2202   3.2251   3.2251
     3.5172   3.5172   3.5237   3.5237   4.5048   4.5048   4.5550   4.5550
     5.1164   5.1164   5.1660   5.1660   5.7557   5.7557   5.7880   5.7880
     6.4676   6.4676   6.4917   6.4917   6.9171   6.9171   6.9300   6.9300
     7.4573   7.4573   7.4688   7.4688  11.4488  11.4488  11.4512  11.4512
    12.2519  12.2519  12.2734  12.2734  13.4066  13.4066  13.4203  13.4203
    15.9128  15.9128  15.9237  15.9237  17.9171  17.9389

          k =-0.5000-0.5000 0.0000 ( 31144 PWs)   bands (ev):

   -66.1414 -66.1414 -66.1411 -66.1411 -30.5438 -30.5438 -30.4860 -30.4860
   -30.4851 -30.4851 -30.4826 -30.4826 -30.3805 -30.3805 -30.3778 -30.3778
   -20.3000 -20.3000 -20.3000 -20.3000 -20.2869 -20.2869 -20.2814 -20.2814
   -20.2780 -20.2780 -20.2769 -20.2769 -20.2764 -20.2764 -20.2754 -20.2754
   -20.2686 -20.2686 -20.2686 -20.2686 -20.2665 -20.2665 -20.2662 -20.2662
   -20.2576 -20.2576 -20.2573 -20.2573  -9.4995  -9.4995  -9.2302  -9.2302
    -8.8421  -8.8421  -7.7911  -7.7911  -7.7696  -7.7696  -7.7439  -7.7439
     1.2834   1.2834   1.3019   1.3019   1.6374   1.6374   2.5859   2.5859
     4.3636   4.3636   4.8439   4.8439   4.8611   4.8611   4.8878   4.8878
     5.4444   5.4444   5.5863   5.5863   5.8893   5.8893   6.0442   6.0442
     6.1210   6.1210   6.2542   6.2542   6.5844   6.5844   6.8379   6.8379
     7.0972   7.0972   8.1514   8.1514  10.0031  10.0031  12.2459  12.2459
    12.3157  12.3157  12.5080  12.5080  13.2444  13.2444  14.1656  14.1656
    14.3532  14.3532  16.0642  16.0642  17.0638  17.0638

          k =-0.5000-0.5000 0.1114 ( 31148 PWs)   bands (ev):

   -66.1414 -66.1414 -66.1411 -66.1411 -30.5399 -30.5399 -30.4891 -30.4891
   -30.4858 -30.4858 -30.4829 -30.4829 -30.3803 -30.3803 -30.3780 -30.3780
   -20.3000 -20.3000 -20.3000 -20.3000 -20.2866 -20.2866 -20.2818 -20.2818
   -20.2779 -20.2779 -20.2770 -20.2770 -20.2764 -20.2764 -20.2755 -20.2755
   -20.2686 -20.2686 -20.2686 -20.2686 -20.2665 -20.2665 -20.2663 -20.2663
   -20.2575 -20.2575 -20.2573 -20.2573  -9.4639  -9.4639  -9.2375  -9.2375
    -8.8031  -8.8030  -7.8907  -7.8907  -7.7679  -7.7679  -7.7456  -7.7456
     1.2919   1.2919   1.3018   1.3018   1.8709   1.8709   2.6571   2.6571
     4.0999   4.0999   4.8633   4.8633   4.8811   4.8811   4.9049   4.9049
     5.2900   5.2900   5.6416   5.6416   5.8150   5.8150   6.0497   6.0497
     6.1275   6.1275   6.2469   6.2469   6.6058   6.6058   6.8745   6.8745
     7.0166   7.0166   8.0694   8.0694  10.2022  10.2022  12.2628  12.2628
    12.3146  12.3146  12.3542  12.3542  13.2800  13.2800  14.0682  14.0682
    14.6306  14.6306  16.0301  16.0301  17.1969  17.1969

          k =-0.5000-0.5000 0.2227 ( 31116 PWs)   bands (ev):

   -66.1414 -66.1413 -66.1412 -66.1412 -30.5292 -30.5292 -30.4999 -30.4999
   -30.4851 -30.4851 -30.4835 -30.4835 -30.3798 -30.3798 -30.3785 -30.3785
   -20.3000 -20.3000 -20.3000 -20.3000 -20.2856 -20.2856 -20.2828 -20.2828
   -20.2777 -20.2777 -20.2772 -20.2772 -20.2762 -20.2762 -20.2757 -20.2757
   -20.2686 -20.2686 -20.2686 -20.2686 -20.2664 -20.2664 -20.2663 -20.2663
   -20.2575 -20.2575 -20.2574 -20.2574  -9.3834  -9.3834  -9.2616  -9.2616
    -8.6716  -8.6716  -8.1413  -8.1413  -7.7633  -7.7633  -7.7504  -7.7504
     1.2983   1.2983   1.3015   1.3015   2.5305   2.5305   2.8670   2.8670
     3.6355   3.6355   4.4712   4.4712   4.8697   4.8697   4.8946   4.8946
     5.0727   5.0727   5.5937   5.5937   5.8999   5.8999   6.0446   6.0446
     6.1471   6.1471   6.2174   6.2174   6.6670   6.6670   6.8790   6.8790
     7.0913   7.0913   7.8303   7.8303  10.7052  10.7052  11.9301  11.9301
    12.2877  12.2877  12.3109  12.3109  13.3915  13.3915  13.8358  13.8358
    15.2073  15.2073  15.9142  15.9142  17.6545  17.6545

          k =-0.5000-0.5000-0.3341 ( 31088 PWs)   bands (ev):

   -66.1413 -66.1413 -66.1412 -66.1412 -30.5146 -30.5146 -30.5146 -30.5146
   -30.4843 -30.4843 -30.4843 -30.4843 -30.3792 -30.3792 -30.3791 -30.3791
   -20.3000 -20.3000 -20.3000 -20.3000 -20.2842 -20.2842 -20.2842 -20.2842
   -20.2774 -20.2774 -20.2774 -20.2774 -20.2759 -20.2759 -20.2759 -20.2759
   -20.2686 -20.2686 -20.2686 -20.2686 -20.2664 -20.2664 -20.2664 -20.2664
   -20.2574 -20.2574 -20.2574 -20.2574  -9.3087  -9.3087  -9.3087  -9.3087
    -8.4356  -8.4355  -8.4355  -8.4355  -7.7568  -7.7568  -7.7568  -7.7568
     1.3006   1.3006   1.3006   1.3006   3.2023   3.2023   3.2023   3.2023
     3.4688   3.4688   3.4688   3.4688   4.8792   4.8792   4.8792   4.8792
     5.3213   5.3213   5.3213   5.3213   6.0084   6.0084   6.0084   6.0084
     6.1788   6.1788   6.1788   6.1788   6.7602   6.7602   6.7602   6.7602
     7.4696   7.4696   7.4696   7.4696  11.3350  11.3350  11.3350  11.3350
    12.3030  12.3031  12.3031  12.3031  13.5841  13.5841  13.5841  13.5841
    15.6664  15.6664  15.6664  15.6664  18.3520  18.4530

     the Fermi energy is     9.2568 ev

!    total energy              =   -3130.51384584 Ry
     Harris-Foulkes estimate   =   -3130.51384584 Ry
     estimated scf accuracy    <          1.6E-09 Ry

     The total energy is the sum of the following terms:

     one-electron contribution =   -2360.59972747 Ry
     hartree contribution      =    1298.85980404 Ry
     xc contribution           =    -482.90060955 Ry
     ewald contribution        =   -1585.87329152 Ry
     smearing contrib. (-TS)   =      -0.00002134 Ry

     convergence has been achieved in  12 iterations

     Writing output data file chempot_3.save/
 
     init_run     :      4.15s CPU      4.42s WALL (       1 calls)
     electrons    :    191.22s CPU    193.27s WALL (       1 calls)

     Called by init_run:
     wfcinit      :      3.22s CPU      3.40s WALL (       1 calls)
     potinit      :      0.35s CPU      0.37s WALL (       1 calls)
     hinit0       :      0.46s CPU      0.51s WALL (       1 calls)

     Called by electrons:
     c_bands      :    159.34s CPU    161.09s WALL (      12 calls)
     sum_band     :     27.73s CPU     27.82s WALL (      12 calls)
     v_of_rho     :      0.79s CPU      0.82s WALL (      13 calls)
     mix_rho      :      0.97s CPU      1.09s WALL (      12 calls)

     Called by c_bands:
     init_us_2    :      1.06s CPU      1.17s WALL (      25 calls)
     cegterg      :     91.34s CPU     93.06s WALL (      12 calls)

     Called by sum_band:

     Called by *egterg:
     h_psi        :     76.69s CPU     77.50s WALL (      44 calls)
     g_psi        :      0.43s CPU      0.43s WALL (      31 calls)
     cdiaghg      :      0.89s CPU      0.92s WALL (      43 calls)

     Called by h_psi:
     h_psi:pot    :     76.41s CPU     76.62s WALL (      44 calls)
     h_psi:calbec :      6.37s CPU      6.49s WALL (      44 calls)
     vloc_psi     :     62.88s CPU     62.95s WALL (      44 calls)
     add_vuspsi   :      7.16s CPU      7.18s WALL (      44 calls)

     General routines
     calbec       :      6.37s CPU      6.49s WALL (      44 calls)
     fft          :      0.32s CPU      0.34s WALL (      39 calls)
     ffts         :      0.10s CPU      0.10s WALL (      12 calls)
     fftw         :     66.59s CPU     66.61s WALL (    7814 calls)
 
     Parallel routines
 
     PWSCF        :   3m17.86s CPU   3m20.47s WALL

 
   This run was terminated on:  19:39:12  29Nov2019            

=------------------------------------------------------------------------------=
   JOB DONE.
=------------------------------------------------------------------------------=
