
     Program PWSCF v.6.2 (svn rev. 14038) starts on 12Mar2020 at 19:23:43 

     This program is part of the open-source Quantum ESPRESSO suite
     for quantum simulation of materials; please cite
         "P. Giannozzi et al., J. Phys.:Condens. Matter 21 395502 (2009);
         "P. Giannozzi et al., J. Phys.:Condens. Matter 29 465901 (2017);
          URL http://www.quantum-espresso.org", 
     in publications or presentations arising from this work. More details at
     http://www.quantum-espresso.org/quote

     Parallel version (MPI), running on    40 processors

     MPI processes distributed on     6 nodes
     K-points division:     npool     =      40
     Reading input from rscf.in

     Current dimensions of program PWSCF are:
     Max number of different atomic species (ntypx) = 10
     Max number of k-points (npk) =  40000
     Max angular momentum in pseudopotentials (lmaxx) =  3

     Subspace diagonalization in iterative solution of the eigenvalue problem:
     a serial algorithm will be used

 
     G-vector sticks info
     --------------------
     sticks:   dense  smooth     PW     G-vecs:    dense   smooth      PW
     Sum        7747    7747   2077               498127   498127   69057
 


     bravais-lattice index     =            0
     lattice parameter (alat)  =      13.8397  a.u.
     unit-cell volume          =    2804.9816 (a.u.)^3
     number of atoms/cell      =           32
     number of atomic types    =            2
     number of electrons       =       368.00
     number of Kohn-Sham states=          221
     kinetic-energy cutoff     =     120.0000  Ry
     charge density cutoff     =     480.0000  Ry
     convergence threshold     =      1.0E-08
     mixing beta               =       0.7000
     number of iterations used =            8  plain     mixing
     Exchange-correlation      = SLA PW NOGX NOGC ( 1  4  0  0 0 0)
     nstep                     =           50


     celldm(1)=  13.839685  celldm(2)=   0.000000  celldm(3)=   0.000000
     celldm(4)=   0.000000  celldm(5)=   0.000000  celldm(6)=   0.000000

     crystal axes: (cart. coord. in units of alat)
               a(1) = (   1.000000   0.000000   0.000000 )  
               a(2) = (   0.000000   1.058160   0.000000 )  
               a(3) = (   0.000000   0.000000   1.000000 )  

     reciprocal axes: (cart. coord. in units 2 pi/alat)
               b(1) = (  1.000000  0.000000  0.000000 )  
               b(2) = (  0.000000  0.945037  0.000000 )  
               b(3) = (  0.000000  0.000000  1.000000 )  


     PseudoPot. # 1 for W  read from file:
     /cluster/scratch/mnoe/QE/pps/W_ONCV_LDA-4.0.upf
     MD5 check sum: ba0307d5d4cd419d6f1d13dc49d7c13a
     Pseudo is Norm-conserving + core correction, Zval = 28.0
     Generated using ONCVPSP code by D. R. Hamann
     Using radial grid of 1380 points,  8 beta functions with: 
                l(1) =   0
                l(2) =   0
                l(3) =   1
                l(4) =   1
                l(5) =   2
                l(6) =   2
                l(7) =   3
                l(8) =   3

     PseudoPot. # 2 for O  read from file:
     /cluster/scratch/mnoe/QE/pps/O_ONCV_LDA-3.0.upf
     MD5 check sum: a1bd6164e7280c17a38c229939bfbd54
     Pseudo is Norm-conserving + core correction, Zval =  6.0
     Generated using ONCVPSP code by D. R. Hamann
     Using radial grid of  926 points,  5 beta functions with: 
                l(1) =   0
                l(2) =   0
                l(3) =   1
                l(4) =   1
                l(5) =   2

     atomic species   valence    mass     pseudopotential
        W             28.00   183.84000     W ( 1.00)
        O              6.00    15.99940     O ( 1.00)

      8 Sym. Ops., with inversion, found ( 6 have fractional translation)



   Cartesian axes

     site n.     atom                  positions (alat units)
         1           W   tau(   1) = (   0.2398300   0.2936414   0.0096100  )
         2           W   tau(   2) = (   0.7601699   0.7645186   0.9903900  )
         3           W   tau(   3) = (   0.2601700   0.2354386   0.5096100  )
         4           W   tau(   4) = (   0.7398300   0.8227215   0.4903900  )
         5           W   tau(   5) = (   0.7601699   0.2936414   0.4903900  )
         6           W   tau(   6) = (   0.2398300   0.7645186   0.5096100  )
         7           W   tau(   7) = (   0.7398300   0.2354386   0.9903900  )
         8           W   tau(   8) = (   0.2601700   0.8227215   0.0096100  )
         9           O   tau(   9) = (   0.2312300   0.0075476   0.0029900  )
        10           O   tau(  10) = (   0.7687700   1.0506125   0.9970100  )
        11           O   tau(  11) = (   0.2687700   0.5215325   0.5029900  )
        12           O   tau(  12) = (   0.7312300   0.5366276   0.4970100  )
        13           O   tau(  13) = (   0.7687700   0.0075476   0.4970100  )
        14           O   tau(  14) = (   0.2312300   1.0506125   0.5029900  )
        15           O   tau(  15) = (   0.7312300   0.5215325   0.9970100  )
        16           O   tau(  16) = (   0.2687700   0.5366276   0.0029900  )
        17           O   tau(  17) = (   0.5027800   0.2441704   0.4601964  )
        18           O   tau(  18) = (   0.4972200   0.8139897   0.5398036  )
        19           O   tau(  19) = (   0.9972200   0.2849096   0.9601964  )
        20           O   tau(  20) = (   0.0027800   0.7732504   0.0398036  )
        21           O   tau(  21) = (   0.4972200   0.2441704   0.0398036  )
        22           O   tau(  22) = (   0.5027800   0.8139897   0.9601964  )
        23           O   tau(  23) = (   0.0027800   0.2849096   0.5398036  )
        24           O   tau(  24) = (   0.9972200   0.7732504   0.4601964  )
        25           O   tau(  25) = (   0.7101964   0.2600957   0.7457799  )
        26           O   tau(  26) = (   0.2898036   0.7980644   0.2542200  )
        27           O   tau(  27) = (   0.7898036   0.2689843   0.2457800  )
        28           O   tau(  28) = (   0.2101964   0.7891758   0.7542200  )
        29           O   tau(  29) = (   0.2898036   0.2600957   0.7542200  )
        30           O   tau(  30) = (   0.7101964   0.7980644   0.2457800  )
        31           O   tau(  31) = (   0.2101964   0.2689843   0.2542200  )
        32           O   tau(  32) = (   0.7898036   0.7891758   0.7457799  )

     number of k points=    64  gaussian smearing, width (Ry)=  0.0007
                       cart. coord. in units 2pi/alat
        k(    1) = (   0.0000000   0.0000000   0.0000000), wk =   0.0092593
        k(    2) = (   0.0000000   0.0000000   0.1666667), wk =   0.0185185
        k(    3) = (   0.0000000   0.0000000   0.3333333), wk =   0.0185185
        k(    4) = (   0.0000000   0.0000000  -0.5000000), wk =   0.0092593
        k(    5) = (   0.0000000   0.1575061   0.0000000), wk =   0.0185185
        k(    6) = (   0.0000000   0.1575061   0.1666667), wk =   0.0370370
        k(    7) = (   0.0000000   0.1575061   0.3333333), wk =   0.0370370
        k(    8) = (   0.0000000   0.1575061  -0.5000000), wk =   0.0185185
        k(    9) = (   0.0000000   0.3150122   0.0000000), wk =   0.0185185
        k(   10) = (   0.0000000   0.3150122   0.1666667), wk =   0.0370370
        k(   11) = (   0.0000000   0.3150122   0.3333333), wk =   0.0370370
        k(   12) = (   0.0000000   0.3150122  -0.5000000), wk =   0.0185185
        k(   13) = (   0.0000000  -0.4725183   0.0000000), wk =   0.0092593
        k(   14) = (   0.0000000  -0.4725183   0.1666667), wk =   0.0185185
        k(   15) = (   0.0000000  -0.4725183   0.3333333), wk =   0.0185185
        k(   16) = (   0.0000000  -0.4725183  -0.5000000), wk =   0.0092593
        k(   17) = (   0.1666667   0.0000000   0.1666667), wk =   0.0370370
        k(   18) = (   0.1666667   0.0000000   0.3333333), wk =   0.0370370
        k(   19) = (   0.1666667   0.0000000  -0.5000000), wk =   0.0185185
        k(   20) = (   0.1666667   0.1575061   0.1666667), wk =   0.0740741
        k(   21) = (   0.1666667   0.1575061   0.3333333), wk =   0.0740741
        k(   22) = (   0.1666667   0.1575061  -0.5000000), wk =   0.0370370
        k(   23) = (   0.1666667   0.3150122   0.1666667), wk =   0.0740741
        k(   24) = (   0.1666667   0.3150122   0.3333333), wk =   0.0740741
        k(   25) = (   0.1666667   0.3150122  -0.5000000), wk =   0.0370370
        k(   26) = (   0.1666667  -0.4725183   0.1666667), wk =   0.0370370
        k(   27) = (   0.1666667  -0.4725183   0.3333333), wk =   0.0370370
        k(   28) = (   0.1666667  -0.4725183  -0.5000000), wk =   0.0185185
        k(   29) = (   0.3333333   0.0000000   0.3333333), wk =   0.0370370
        k(   30) = (   0.3333333   0.0000000  -0.5000000), wk =   0.0185185
        k(   31) = (   0.3333333   0.1575061   0.3333333), wk =   0.0740741
        k(   32) = (   0.3333333   0.1575061  -0.5000000), wk =   0.0370370
        k(   33) = (   0.3333333   0.3150122   0.3333333), wk =   0.0740741
        k(   34) = (   0.3333333   0.3150122  -0.5000000), wk =   0.0370370
        k(   35) = (   0.3333333  -0.4725183   0.3333333), wk =   0.0370370
        k(   36) = (   0.3333333  -0.4725183  -0.5000000), wk =   0.0185185
        k(   37) = (  -0.5000000   0.0000000  -0.5000000), wk =   0.0092593
        k(   38) = (  -0.5000000   0.1575061  -0.5000000), wk =   0.0185185
        k(   39) = (  -0.5000000   0.3150122  -0.5000000), wk =   0.0185185
        k(   40) = (  -0.5000000  -0.4725183  -0.5000000), wk =   0.0092593
        k(   41) = (   0.1666667   0.0000000   0.0000000), wk =   0.0185185
        k(   42) = (   0.3333333   0.0000000   0.0000000), wk =   0.0185185
        k(   43) = (  -0.5000000   0.0000000   0.0000000), wk =   0.0092593
        k(   44) = (   0.1666667  -0.1575061   0.0000000), wk =   0.0370370
        k(   45) = (   0.3333333  -0.1575061   0.0000000), wk =   0.0370370
        k(   46) = (  -0.5000000  -0.1575061   0.0000000), wk =   0.0185185
        k(   47) = (   0.1666667  -0.3150122   0.0000000), wk =   0.0370370
        k(   48) = (   0.3333333  -0.3150122   0.0000000), wk =   0.0370370
        k(   49) = (  -0.5000000  -0.3150122   0.0000000), wk =   0.0185185
        k(   50) = (   0.1666667   0.4725183   0.0000000), wk =   0.0185185
        k(   51) = (   0.3333333   0.4725183   0.0000000), wk =   0.0185185
        k(   52) = (  -0.5000000   0.4725183   0.0000000), wk =   0.0092593
        k(   53) = (   0.3333333   0.0000000   0.1666667), wk =   0.0370370
        k(   54) = (  -0.5000000   0.0000000   0.1666667), wk =   0.0185185
        k(   55) = (   0.3333333  -0.1575061   0.1666667), wk =   0.0740741
        k(   56) = (  -0.5000000  -0.1575061   0.1666667), wk =   0.0370370
        k(   57) = (   0.3333333  -0.3150122   0.1666667), wk =   0.0740741
        k(   58) = (  -0.5000000  -0.3150122   0.1666667), wk =   0.0370370
        k(   59) = (   0.3333333   0.4725183   0.1666667), wk =   0.0370370
        k(   60) = (  -0.5000000   0.4725183   0.1666667), wk =   0.0185185
        k(   61) = (  -0.5000000   0.0000000   0.3333333), wk =   0.0185185
        k(   62) = (  -0.5000000  -0.1575061   0.3333333), wk =   0.0370370
        k(   63) = (  -0.5000000  -0.3150122   0.3333333), wk =   0.0370370
        k(   64) = (  -0.5000000   0.4725183   0.3333333), wk =   0.0185185

     Dense  grid:   498127 G-vectors     FFT dimensions: ( 100, 108, 100)

     Estimated max dynamical RAM per process >       3.15 GB

     Estimated total dynamical RAM >     125.81 GB

     Initial potential from superposition of free atoms

     starting charge  367.99656, renormalised to  368.00000
     Starting wfc are  232 randomized atomic wfcs

     total cpu time spent up to now is       66.5 secs

     Self-consistent Calculation

     iteration #  1     ecut=   120.00 Ry     beta= 0.70
     Davidson diagonalization with overlap
     ethr =  1.00E-02,  avg # of iterations =  5.1

     total cpu time spent up to now is      246.1 secs

     total energy              =   -6254.02710334 Ry
     Harris-Foulkes estimate   =   -6264.56681269 Ry
     estimated scf accuracy    <      13.35883322 Ry

     iteration #  2     ecut=   120.00 Ry     beta= 0.70
     Davidson diagonalization with overlap
     ethr =  3.63E-03,  avg # of iterations =  3.5

     total cpu time spent up to now is      418.5 secs

     total energy              =   -6250.92831924 Ry
     Harris-Foulkes estimate   =   -6270.60545226 Ry
     estimated scf accuracy    <      52.74514737 Ry

     iteration #  3     ecut=   120.00 Ry     beta= 0.70
     Davidson diagonalization with overlap
     ethr =  3.63E-03,  avg # of iterations =  3.5

     total cpu time spent up to now is      581.6 secs

     total energy              =   -6261.04467925 Ry
     Harris-Foulkes estimate   =   -6261.40904163 Ry
     estimated scf accuracy    <       1.15797845 Ry

     iteration #  4     ecut=   120.00 Ry     beta= 0.70
     Davidson diagonalization with overlap
     ethr =  3.15E-04,  avg # of iterations =  2.7

     total cpu time spent up to now is      719.8 secs

     total energy              =   -6261.08132533 Ry
     Harris-Foulkes estimate   =   -6261.16645803 Ry
     estimated scf accuracy    <       0.29442433 Ry

     iteration #  5     ecut=   120.00 Ry     beta= 0.70
     Davidson diagonalization with overlap
     ethr =  8.00E-05,  avg # of iterations =  4.2

     total cpu time spent up to now is      860.8 secs

     total energy              =   -6261.06853601 Ry
     Harris-Foulkes estimate   =   -6261.10981260 Ry
     estimated scf accuracy    <       0.08934192 Ry

     iteration #  6     ecut=   120.00 Ry     beta= 0.70
     Davidson diagonalization with overlap
     ethr =  2.43E-05,  avg # of iterations =  5.7

     total cpu time spent up to now is     1012.4 secs

     total energy              =   -6261.08880805 Ry
     Harris-Foulkes estimate   =   -6261.09043942 Ry
     estimated scf accuracy    <       0.00493434 Ry

     iteration #  7     ecut=   120.00 Ry     beta= 0.70
     Davidson diagonalization with overlap
     ethr =  1.34E-06,  avg # of iterations =  5.9

     total cpu time spent up to now is     1160.7 secs

     total energy              =   -6261.08923416 Ry
     Harris-Foulkes estimate   =   -6261.08940331 Ry
     estimated scf accuracy    <       0.00047666 Ry

     iteration #  8     ecut=   120.00 Ry     beta= 0.70
     Davidson diagonalization with overlap
     ethr =  1.30E-07,  avg # of iterations =  3.1

     total cpu time spent up to now is     1300.6 secs

     total energy              =   -6261.08928996 Ry
     Harris-Foulkes estimate   =   -6261.08931792 Ry
     estimated scf accuracy    <       0.00005952 Ry

     iteration #  9     ecut=   120.00 Ry     beta= 0.70
     Davidson diagonalization with overlap
     ethr =  1.62E-08,  avg # of iterations =  2.9

     total cpu time spent up to now is     1446.4 secs

     total energy              =   -6261.08930487 Ry
     Harris-Foulkes estimate   =   -6261.08930696 Ry
     estimated scf accuracy    <       0.00000592 Ry

     iteration # 10     ecut=   120.00 Ry     beta= 0.70
     Davidson diagonalization with overlap
     ethr =  1.61E-09,  avg # of iterations =  2.0

     total cpu time spent up to now is     1587.0 secs

     total energy              =   -6261.08930506 Ry
     Harris-Foulkes estimate   =   -6261.08930586 Ry
     estimated scf accuracy    <       0.00000169 Ry

     iteration # 11     ecut=   120.00 Ry     beta= 0.70
     Davidson diagonalization with overlap
     ethr =  4.60E-10,  avg # of iterations =  2.8

     total cpu time spent up to now is     1734.3 secs

     total energy              =   -6261.08930542 Ry
     Harris-Foulkes estimate   =   -6261.08930544 Ry
     estimated scf accuracy    <       0.00000004 Ry

     iteration # 12     ecut=   120.00 Ry     beta= 0.70
     Davidson diagonalization with overlap
     ethr =  1.01E-11,  avg # of iterations =  2.1

     total cpu time spent up to now is     1895.6 secs

     End of self-consistent calculation

          k = 0.0000 0.0000 0.0000 ( 62239 PWs)   bands (ev):

   -66.1598 -66.1594 -66.1588 -66.1588 -66.1584 -66.1584 -66.1578 -66.1574
   -30.5699 -30.5673 -30.5638 -30.5612 -30.5566 -30.5531 -30.5516 -30.5484
   -30.4832 -30.4811 -30.4810 -30.4803 -30.4652 -30.4609 -30.4556 -30.4543
   -30.4521 -30.4477 -30.4472 -30.4404 -30.4234 -30.4179 -30.4175 -30.4122
   -20.3150 -20.3150 -20.3148 -20.3148 -20.3147 -20.3147 -20.3145 -20.3145
   -20.2932 -20.2928 -20.2925 -20.2924 -20.2921 -20.2920 -20.2915 -20.2911
   -20.2903 -20.2899 -20.2896 -20.2895 -20.2892 -20.2892 -20.2891 -20.2891
   -20.2886 -20.2886 -20.2885 -20.2884 -20.2848 -20.2847 -20.2842 -20.2842
   -20.2839 -20.2836 -20.2834 -20.2832 -20.2830 -20.2829 -20.2822 -20.2820
   -20.2774 -20.2773 -20.2769 -20.2768 -20.2752 -20.2751 -20.2736 -20.2733
   -20.2733 -20.2732 -20.2714 -20.2711 -20.2710 -20.2709 -20.2695 -20.2693
   -10.0364  -9.8298  -9.6127  -9.5727  -9.4599  -9.4017  -9.2081  -9.1909
    -8.8776  -8.7718  -8.7673  -8.7671  -7.8534  -7.8403  -7.7985  -7.7894
    -7.7286  -7.7266  -7.7112  -7.6896  -7.6830  -7.6293  -7.6269  -7.5821
     0.9382   0.9434   1.0544   1.0591   1.1316   1.1345   1.3259   1.4147
     1.7703   1.7707   1.7888   1.8683   2.2110   2.2922   2.5909   2.5988
     2.7333   2.7344   4.0949   4.1745   4.2035   4.3108   4.5506   4.5744
     4.5830   4.6070   4.8659   5.0379   5.1233   5.1399   5.1703   5.4569
     5.5039   5.5115   5.5467   5.5660   5.5927   5.5952   5.6541   5.7423
     5.8741   5.8917   5.9404   5.9506   5.9962   6.0147   6.0545   6.0796
     6.1412   6.2794   6.3160   6.3655   6.4523   6.7172   6.8855   6.9472
     6.9887   7.0061   7.0149   7.0304   7.0499   7.0543   7.1424   7.1602
     7.2006   7.2155   7.8860   7.9010   8.0632   8.1250   8.1357   8.1953
     9.3175   9.3389   9.8420   9.8575   9.8674   9.8780  12.2152  12.3143
    12.4254  12.4750  12.5130  12.5295  12.5534  12.5635  12.8503  13.1152
    13.2641  13.3489  13.3518  13.5180  13.6863  13.8253  14.1220  14.1331
    14.3233  14.3576  14.5645  14.8894  15.3592  15.4626  15.4849  16.2040
    16.2075  17.0050  17.1513  17.1916  17.3534

          k = 0.0000 0.0000 0.1667 ( 62262 PWs)   bands (ev):

   -66.1598 -66.1594 -66.1589 -66.1587 -66.1585 -66.1583 -66.1579 -66.1575
   -30.5634 -30.5613 -30.5571 -30.5558 -30.5542 -30.5521 -30.5520 -30.5488
   -30.4855 -30.4827 -30.4806 -30.4797 -30.4722 -30.4678 -30.4611 -30.4587
   -30.4517 -30.4476 -30.4474 -30.4416 -30.4230 -30.4183 -30.4172 -30.4126
   -20.3150 -20.3150 -20.3148 -20.3148 -20.3147 -20.3147 -20.3145 -20.3145
   -20.2932 -20.2927 -20.2926 -20.2923 -20.2920 -20.2920 -20.2916 -20.2912
   -20.2903 -20.2899 -20.2896 -20.2895 -20.2893 -20.2893 -20.2892 -20.2891
   -20.2887 -20.2886 -20.2885 -20.2884 -20.2849 -20.2846 -20.2843 -20.2842
   -20.2841 -20.2835 -20.2834 -20.2832 -20.2824 -20.2824 -20.2815 -20.2814
   -20.2775 -20.2774 -20.2770 -20.2768 -20.2756 -20.2755 -20.2741 -20.2739
   -20.2732 -20.2731 -20.2716 -20.2713 -20.2709 -20.2709 -20.2696 -20.2695
    -9.9819  -9.7706  -9.5877  -9.5279  -9.4133  -9.3649  -9.1672  -9.1507
    -8.8882  -8.7724  -8.7612  -8.7593  -7.9725  -7.9604  -7.8682  -7.8633
    -7.8179  -7.7824  -7.7354  -7.6900  -7.6857  -7.6336  -7.6283  -7.5856
     1.0587   1.0611   1.1331   1.1373   1.3242   1.3335   1.4411   1.5775
     1.7643   1.7804   1.7860   1.9198   2.3016   2.3829   2.6072   2.6823
     2.7247   2.8215   4.0971   4.1043   4.2285   4.2433   4.2537   4.2928
     4.6295   4.6425   4.7316   4.7984   4.8463   5.1255   5.1698   5.2628
     5.2897   5.4581   5.4705   5.5392   5.5891   5.6569   5.6734   5.6744
     5.6776   5.9127   5.9314   5.9451   6.0211   6.0326   6.1003   6.1475
     6.1980   6.3545   6.4404   6.4517   6.7128   6.7595   6.8095   6.8476
     6.8906   6.9014   6.9513   6.9690   7.0097   7.0160   7.0456   7.0474
     7.0564   7.0940   7.8687   7.8764   8.0857   8.0921   8.1277   8.1507
     9.6452   9.6703   9.8416   9.8837  10.1392  10.1719  12.2780  12.2844
    12.4277  12.4301  12.4765  12.4790  12.5793  12.6297  12.8839  12.9640
    13.1064  13.2681  13.3814  13.5145  13.7822  13.8254  13.9670  14.0048
    14.3348  14.4744  14.5591  15.0128  15.3290  15.5180  15.5742  16.1820
    16.5433  16.8929  17.1799  17.3704  17.5830

          k = 0.0000 0.0000 0.3333 ( 62268 PWs)   bands (ev):

   -66.1596 -66.1592 -66.1591 -66.1587 -66.1585 -66.1582 -66.1580 -66.1577
   -30.5563 -30.5536 -30.5531 -30.5498 -30.5425 -30.5413 -30.5380 -30.5364
   -30.4957 -30.4916 -30.4913 -30.4868 -30.4792 -30.4780 -30.4713 -30.4686
   -30.4509 -30.4485 -30.4464 -30.4434 -30.4221 -30.4193 -30.4162 -30.4136
   -20.3149 -20.3149 -20.3148 -20.3148 -20.3147 -20.3147 -20.3146 -20.3146
   -20.2930 -20.2927 -20.2926 -20.2922 -20.2922 -20.2918 -20.2917 -20.2914
   -20.2902 -20.2900 -20.2896 -20.2894 -20.2894 -20.2893 -20.2892 -20.2890
   -20.2890 -20.2887 -20.2885 -20.2884 -20.2849 -20.2846 -20.2845 -20.2844
   -20.2841 -20.2837 -20.2834 -20.2833 -20.2809 -20.2809 -20.2799 -20.2799
   -20.2779 -20.2775 -20.2771 -20.2767 -20.2766 -20.2766 -20.2754 -20.2752
   -20.2729 -20.2728 -20.2720 -20.2718 -20.2707 -20.2706 -20.2699 -20.2698
    -9.8522  -9.6365  -9.6349  -9.4496  -9.3018  -9.0939  -9.0333  -9.0015
    -8.9296  -8.7909  -8.7359  -8.7085  -8.3049  -8.2951  -8.2337  -8.2073
    -7.8059  -7.7631  -7.7542  -7.7094  -7.6755  -7.6452  -7.6203  -7.5951
     1.1351   1.1376   1.1436   1.1449   1.6823   1.7054   1.7510   1.7631
     2.0806   2.1519   2.2495   2.3589   2.5643   2.6182   2.6589   2.7058
     2.9310   3.0503   3.5752   3.6584   3.9093   3.9256   4.1714   4.1918
     4.2514   4.4467   4.4664   4.6919   4.7503   4.7827   4.7956   4.9650
     5.0321   5.1070   5.1727   5.3276   5.3545   5.3948   5.7034   5.7958
     5.8262   5.8971   5.9511   5.9523   6.0579   6.1013   6.1689   6.2636
     6.2662   6.4009   6.4190   6.4453   6.4455   6.5996   6.7049   6.7319
     6.7669   6.9411   6.9971   7.0151   7.0278   7.0354   7.0427   7.0668
     7.2513   7.3206   7.7532   7.7633   7.9497   8.0057   8.1162   8.1303
     9.8264   9.8396  10.3953  10.4602  10.8016  10.8634  11.9360  11.9944
    12.1717  12.4514  12.4841  12.4902  12.6440  12.6841  12.7389  12.8440
    12.8867  13.2742  13.2927  13.3224  13.5992  13.6951  13.8283  13.8620
    14.4173  14.5410  14.7683  15.2321  15.3131  15.7244  16.0611  16.1015
    16.3258  17.4450  17.5594  17.7282  17.7401

          k = 0.0000 0.0000-0.5000 ( 62264 PWs)   bands (ev):

   -66.1593 -66.1593 -66.1589 -66.1589 -66.1583 -66.1583 -66.1579 -66.1579
   -30.5546 -30.5546 -30.5514 -30.5514 -30.5173 -30.5173 -30.5173 -30.5172
   -30.5125 -30.5125 -30.5125 -30.5125 -30.4766 -30.4766 -30.4749 -30.4749
   -30.4497 -30.4497 -30.4450 -30.4450 -30.4207 -30.4207 -30.4149 -30.4149
   -20.3148 -20.3148 -20.3148 -20.3148 -20.3147 -20.3147 -20.3147 -20.3147
   -20.2929 -20.2929 -20.2924 -20.2924 -20.2919 -20.2919 -20.2916 -20.2916
   -20.2901 -20.2901 -20.2895 -20.2895 -20.2893 -20.2893 -20.2892 -20.2892
   -20.2888 -20.2888 -20.2884 -20.2884 -20.2848 -20.2847 -20.2845 -20.2845
   -20.2839 -20.2839 -20.2834 -20.2833 -20.2791 -20.2791 -20.2790 -20.2790
   -20.2780 -20.2780 -20.2780 -20.2780 -20.2766 -20.2766 -20.2764 -20.2764
   -20.2725 -20.2725 -20.2723 -20.2723 -20.2703 -20.2703 -20.2702 -20.2702
    -9.7223  -9.7223  -9.5191  -9.5191  -9.0525  -9.0525  -8.8545  -8.8545
    -8.7062  -8.7062  -8.6838  -8.6838  -8.6182  -8.6182  -8.5461  -8.5461
    -7.7801  -7.7801  -7.7362  -7.7361  -7.6606  -7.6606  -7.6079  -7.6079
     1.1424   1.1424   1.1523   1.1523   1.7359   1.7359   1.7428   1.7428
     2.6535   2.6535   2.9024   2.9024   2.9975   2.9975   3.0473   3.0473
     3.1191   3.1191   3.1865   3.1865   3.3617   3.3617   3.7137   3.7137
     3.8348   3.8348   4.3598   4.3598   4.6896   4.6896   4.9104   4.9104
     5.1531   5.1531   5.1684   5.1684   5.2250   5.2250   5.8091   5.8091
     5.8556   5.8556   6.0496   6.0496   6.0697   6.0697   6.2115   6.2115
     6.2322   6.2322   6.3091   6.3091   6.4705   6.4705   6.6139   6.6139
     6.8108   6.8108   7.0206   7.0206   7.0344   7.0344   7.4594   7.4594
     7.4889   7.4889   7.6747   7.6747   7.7318   7.7318   8.1286   8.1286
     9.8354   9.8354  11.2176  11.2176  11.2840  11.2840  11.5735  11.5735
    11.6905  11.6905  12.5156  12.5156  12.7511  12.7511  12.9491  12.9491
    13.0046  13.0046  13.1965  13.1965  13.4004  13.4004  13.8413  13.8413
    14.5007  14.5007  15.0497  15.0497  15.7614  15.7614  15.9519  15.9519
    16.8616  16.8616  17.9273  17.9273  18.0672

          k = 0.0000 0.1575 0.0000 ( 62231 PWs)   bands (ev):

   -66.1598 -66.1594 -66.1588 -66.1588 -66.1585 -66.1584 -66.1578 -66.1574
   -30.5697 -30.5674 -30.5636 -30.5613 -30.5563 -30.5533 -30.5514 -30.5486
   -30.4803 -30.4780 -30.4777 -30.4765 -30.4653 -30.4609 -30.4555 -30.4537
   -30.4526 -30.4478 -30.4471 -30.4398 -30.4273 -30.4215 -30.4209 -30.4155
   -20.3150 -20.3150 -20.3148 -20.3148 -20.3147 -20.3147 -20.3145 -20.3145
   -20.2932 -20.2927 -20.2924 -20.2924 -20.2921 -20.2919 -20.2916 -20.2912
   -20.2902 -20.2899 -20.2897 -20.2894 -20.2893 -20.2891 -20.2889 -20.2889
   -20.2885 -20.2885 -20.2883 -20.2881 -20.2850 -20.2846 -20.2844 -20.2842
   -20.2842 -20.2839 -20.2837 -20.2834 -20.2830 -20.2829 -20.2822 -20.2820
   -20.2774 -20.2773 -20.2769 -20.2769 -20.2752 -20.2751 -20.2735 -20.2734
   -20.2733 -20.2732 -20.2714 -20.2712 -20.2710 -20.2710 -20.2695 -20.2694
   -10.0167  -9.8392  -9.5948  -9.5526  -9.4655  -9.4080  -9.2069  -9.1920
    -8.8060  -8.7168  -8.7137  -8.7130  -7.8668  -7.8389  -7.7998  -7.7911
    -7.7683  -7.7648  -7.7468  -7.7250  -7.6915  -7.6889  -7.6858  -7.6849
     0.9384   0.9429   1.0548   1.0594   1.1340   1.1348   1.3631   1.4145
     1.9468   1.9999   2.0200   2.1150   2.2180   2.2865   2.6644   2.6690
     2.8001   2.8055   3.9519   3.9904   4.0356   4.0834   4.5533   4.5698
     4.5775   4.6020   4.7317   5.0966   5.1109   5.1374   5.1657   5.3046
     5.3361   5.4621   5.4845   5.6045   5.6180   5.6435   5.6839   5.7479
     5.7601   5.8584   5.8616   5.9571   5.9948   6.0361   6.0830   6.0855
     6.1192   6.2651   6.3380   6.3893   6.5027   6.7406   6.7990   6.8716
     6.8934   6.9097   6.9837   6.9880   7.0144   7.0269   7.1505   7.1588
     7.2114   7.2130   7.8876   7.9002   8.0346   8.0659   8.0933   8.1162
     9.3251   9.3398  10.0415  10.0461  10.0737  10.0752  12.0870  12.1936
    12.2667  12.3136  12.5170  12.5451  12.5536  12.5610  12.8796  13.1289
    13.2742  13.3538  13.3569  13.5270  13.8444  13.8644  14.0306  14.0428
    14.4337  14.6488  14.7456  14.9999  15.4620  15.4815  15.7644  16.1664
    16.1732  16.7020  17.2629  17.3075  17.5101

          k = 0.0000 0.1575 0.1667 ( 62237 PWs)   bands (ev):

   -66.1597 -66.1594 -66.1589 -66.1587 -66.1585 -66.1584 -66.1578 -66.1575
   -30.5633 -30.5614 -30.5570 -30.5557 -30.5542 -30.5523 -30.5518 -30.5490
   -30.4830 -30.4800 -30.4773 -30.4760 -30.4723 -30.4678 -30.4605 -30.4578
   -30.4523 -30.4481 -30.4468 -30.4409 -30.4269 -30.4219 -30.4206 -30.4159
   -20.3150 -20.3150 -20.3148 -20.3148 -20.3147 -20.3147 -20.3145 -20.3145
   -20.2931 -20.2927 -20.2925 -20.2924 -20.2920 -20.2920 -20.2916 -20.2912
   -20.2902 -20.2899 -20.2896 -20.2894 -20.2893 -20.2891 -20.2891 -20.2888
   -20.2886 -20.2885 -20.2883 -20.2882 -20.2851 -20.2846 -20.2845 -20.2844
   -20.2842 -20.2839 -20.2836 -20.2834 -20.2824 -20.2824 -20.2815 -20.2814
   -20.2774 -20.2773 -20.2770 -20.2769 -20.2756 -20.2755 -20.2741 -20.2739
   -20.2732 -20.2731 -20.2716 -20.2713 -20.2709 -20.2709 -20.2696 -20.2695
    -9.9615  -9.7801  -9.5673  -9.5080  -9.4197  -9.3705  -9.1661  -9.1518
    -8.8167  -8.7195  -8.7078  -8.7061  -7.9707  -7.9657  -7.8750  -7.8665
    -7.8250  -7.7845  -7.7683  -7.7639  -7.7250  -7.6947  -7.6920  -7.6852
     1.0588   1.0614   1.1359   1.1376   1.3306   1.3339   1.5018   1.5773
     1.9496   2.0027   2.0145   2.1314   2.3083   2.3772   2.6770   2.7577
     2.7918   2.8931   3.9707   4.0003   4.0442   4.0685   4.2229   4.2499
     4.6207   4.6329   4.7138   4.7621   4.8163   5.1162   5.1542   5.2016
     5.2645   5.2953   5.4070   5.4389   5.5406   5.5666   5.6734   5.7132
     5.7990   5.8141   5.8661   5.9747   6.0200   6.0229   6.0869   6.1349
     6.1796   6.2855   6.4468   6.4955   6.7327   6.7399   6.8046   6.8282
     6.8629   6.8856   6.9215   6.9502   6.9764   6.9807   6.9953   7.0393
     7.0805   7.1021   7.8692   7.8765   8.0432   8.0519   8.0693   8.0776
     9.6685   9.6754  10.0480  10.0826  10.2877  10.3258  12.1628  12.1761
    12.3146  12.3337  12.4156  12.4316  12.5940  12.6150  12.9155  12.9955
    13.1155  13.2764  13.3762  13.5118  13.8452  13.8714  13.9050  13.9207
    14.4879  14.7281  14.8017  15.1138  15.5155  15.5748  15.7365  16.1435
    16.5076  16.8596  16.9968  17.4626  17.5824

          k = 0.0000 0.1575 0.3333 ( 62284 PWs)   bands (ev):

   -66.1595 -66.1592 -66.1590 -66.1587 -66.1585 -66.1582 -66.1580 -66.1577
   -30.5561 -30.5538 -30.5529 -30.5501 -30.5424 -30.5413 -30.5379 -30.5365
   -30.4946 -30.4913 -30.4903 -30.4867 -30.4759 -30.4744 -30.4692 -30.4663
   -30.4514 -30.4490 -30.4458 -30.4427 -30.4259 -30.4230 -30.4197 -30.4170
   -20.3149 -20.3149 -20.3148 -20.3148 -20.3147 -20.3147 -20.3146 -20.3146
   -20.2930 -20.2926 -20.2925 -20.2922 -20.2921 -20.2919 -20.2918 -20.2914
   -20.2902 -20.2900 -20.2896 -20.2894 -20.2894 -20.2892 -20.2891 -20.2888
   -20.2887 -20.2884 -20.2884 -20.2883 -20.2851 -20.2847 -20.2846 -20.2844
   -20.2843 -20.2840 -20.2836 -20.2835 -20.2809 -20.2809 -20.2799 -20.2799
   -20.2779 -20.2776 -20.2771 -20.2767 -20.2766 -20.2766 -20.2754 -20.2753
   -20.2729 -20.2728 -20.2720 -20.2718 -20.2707 -20.2706 -20.2699 -20.2698
    -9.8304  -9.6457  -9.6138  -9.4566  -9.2727  -9.0996  -9.0296  -9.0030
    -8.8601  -8.7408  -8.6866  -8.6643  -8.3090  -8.2914  -8.2402  -8.2035
    -7.8213  -7.7815  -7.7651  -7.7512  -7.7188  -7.7115  -7.7104  -7.6941
     1.1393   1.1417   1.1437   1.1451   1.8657   1.8829   1.9697   2.0024
     2.0803   2.1909   2.2491   2.4016   2.5711   2.6355   2.7027   2.7745
     3.0070   3.1173   3.5773   3.6531   3.8722   3.8937   4.0605   4.0778
     4.2429   4.3392   4.4808   4.6297   4.6677   4.6727   4.7091   4.9646
     4.9656   5.0256   5.1486   5.2215   5.3270   5.4097   5.4402   5.7380
     5.7881   5.8802   5.9066   5.9347   6.0047   6.0653   6.1046   6.1298
     6.3213   6.4222   6.4329   6.4678   6.5493   6.6846   6.7122   6.7895
     6.8493   6.8979   6.9031   6.9406   6.9908   7.0090   7.0588   7.1165
     7.2554   7.3181   7.7576   7.7616   7.9175   7.9503   8.0606   8.0720
    10.0387  10.0518  10.4041  10.4669  10.9034  10.9547  11.9333  11.9927
    12.1306  12.3236  12.3987  12.4921  12.5345  12.6214  12.7612  12.7941
    12.9164  13.2739  13.2861  13.2949  13.4970  13.6438  13.8486  13.9001
    14.6173  14.7206  15.1300  15.3963  15.6418  15.7105  16.0658  16.0889
    16.4276  17.3056  17.3987  17.6127  17.7575

          k = 0.0000 0.1575-0.5000 ( 62234 PWs)   bands (ev):

   -66.1593 -66.1593 -66.1590 -66.1589 -66.1583 -66.1583 -66.1579 -66.1579
   -30.5544 -30.5544 -30.5516 -30.5516 -30.5172 -30.5172 -30.5170 -30.5170
   -30.5124 -30.5124 -30.5123 -30.5123 -30.4737 -30.4737 -30.4715 -30.4715
   -30.4502 -30.4502 -30.4444 -30.4444 -30.4245 -30.4245 -30.4183 -30.4183
   -20.3148 -20.3148 -20.3148 -20.3148 -20.3147 -20.3147 -20.3147 -20.3147
   -20.2928 -20.2928 -20.2923 -20.2923 -20.2920 -20.2920 -20.2916 -20.2916
   -20.2901 -20.2901 -20.2895 -20.2895 -20.2893 -20.2893 -20.2890 -20.2890
   -20.2886 -20.2886 -20.2884 -20.2883 -20.2849 -20.2849 -20.2845 -20.2844
   -20.2843 -20.2843 -20.2835 -20.2835 -20.2791 -20.2791 -20.2791 -20.2790
   -20.2780 -20.2780 -20.2780 -20.2780 -20.2766 -20.2766 -20.2764 -20.2764
   -20.2725 -20.2725 -20.2723 -20.2723 -20.2703 -20.2703 -20.2702 -20.2702
    -9.7003  -9.7003  -9.5272  -9.5272  -8.9990  -8.9990  -8.8251  -8.8251
    -8.7099  -8.7099  -8.6889  -8.6889  -8.5946  -8.5946  -8.5264  -8.5263
    -7.8011  -7.8011  -7.7382  -7.7382  -7.7317  -7.7317  -7.7064  -7.7064
     1.1473   1.1473   1.1525   1.1525   1.9264   1.9264   1.9966   1.9967
     2.7177   2.7177   2.9117   2.9117   2.9937   2.9937   3.0610   3.0610
     3.1170   3.1170   3.2178   3.2178   3.3544   3.3544   3.7367   3.7367
     3.8912   3.8912   4.1891   4.1891   4.5268   4.5268   4.7579   4.7579
     5.1316   5.1316   5.1345   5.1345   5.2197   5.2197   5.5512   5.5512
     5.8209   5.8209   5.9577   5.9577   6.0669   6.0669   6.1888   6.1888
     6.2721   6.2721   6.3587   6.3587   6.4712   6.4712   6.7712   6.7712
     6.8893   6.8893   6.9178   6.9178   6.9801   6.9801   7.4745   7.4745
     7.4853   7.4853   7.6582   7.6582   7.7022   7.7022   8.0701   8.0701
    10.0516  10.0516  11.2233  11.2233  11.2835  11.2835  11.6353  11.6353
    11.7460  11.7460  12.3649  12.3649  12.7318  12.7318  12.8599  12.8599
    13.0220  13.0220  13.1099  13.1099  13.3852  13.3852  13.8625  13.8625
    14.6907  14.6907  15.4317  15.4317  15.8671  15.8671  15.9235  15.9235
    16.9097  16.9097  17.7241  17.7242  18.0894

          k = 0.0000 0.3150 0.0000 ( 62175 PWs)   bands (ev):

   -66.1597 -66.1595 -66.1587 -66.1587 -66.1585 -66.1585 -66.1577 -66.1575
   -30.5692 -30.5679 -30.5631 -30.5618 -30.5556 -30.5539 -30.5508 -30.5492
   -30.4735 -30.4705 -30.4691 -30.4662 -30.4659 -30.4613 -30.4549 -30.4547
   -30.4506 -30.4498 -30.4449 -30.4377 -30.4375 -30.4310 -30.4298 -30.4236
   -20.3150 -20.3150 -20.3148 -20.3148 -20.3147 -20.3147 -20.3145 -20.3145
   -20.2930 -20.2926 -20.2926 -20.2922 -20.2922 -20.2917 -20.2917 -20.2913
   -20.2901 -20.2898 -20.2897 -20.2894 -20.2893 -20.2890 -20.2890 -20.2886
   -20.2880 -20.2877 -20.2875 -20.2873 -20.2857 -20.2852 -20.2851 -20.2847
   -20.2845 -20.2841 -20.2841 -20.2837 -20.2830 -20.2830 -20.2821 -20.2821
   -20.2773 -20.2772 -20.2770 -20.2770 -20.2752 -20.2751 -20.2735 -20.2734
   -20.2733 -20.2732 -20.2714 -20.2712 -20.2710 -20.2710 -20.2695 -20.2694
    -9.9681  -9.8674  -9.5540  -9.5068  -9.4829  -9.4273  -9.2037  -9.1951
    -8.6057  -8.5524  -8.5498  -8.5491  -8.0436  -7.9949  -7.9850  -7.9526
    -7.8354  -7.8268  -7.8003  -7.7955  -7.7207  -7.7075  -7.7025  -7.6902
     0.9391   0.9417   1.0560   1.0590   1.1355   1.1361   1.3976   1.4134
     2.2290   2.2711   2.4985   2.6144   2.6546   2.7610   2.8732   2.9127
     2.9928   3.0309   3.5698   3.6125   3.6586   3.7049   4.1867   4.4996
     4.5409   4.5608   4.5703   4.6090   4.6576   4.8530   5.2102   5.2318
     5.2606   5.2825   5.4106   5.4155   5.6704   5.6774   5.6890   5.7202
     5.8358   5.8515   5.9033   5.9821   5.9942   6.0169   6.0225   6.1000
     6.1034   6.1866   6.3007   6.4596   6.4658   6.5275   6.7212   6.7464
     6.7874   6.8771   7.1322   7.1493   7.1634   7.1696   7.1738   7.1893
     7.2180   7.2418   7.8397   7.8742   7.8822   7.9098   7.9101   7.9158
     9.3338   9.3403  10.5138  10.5643  10.5832  10.6099  11.6996  11.7990
    11.8330  11.8793  12.5356  12.5539  12.5616  12.5630  12.9628  13.1367
    13.3423  13.3975  13.4262  13.5546  13.7126  13.8191  13.8230  13.8263
    15.0270  15.2606  15.2862  15.4509  15.4603  15.4914  16.0345  16.0560
    16.1547  16.7593  17.1258  17.6569  17.7100

          k = 0.0000 0.3150 0.1667 ( 62260 PWs)   bands (ev):

   -66.1597 -66.1595 -66.1588 -66.1586 -66.1586 -66.1584 -66.1578 -66.1576
   -30.5628 -30.5618 -30.5565 -30.5557 -30.5540 -30.5528 -30.5512 -30.5495
   -30.4776 -30.4738 -30.4726 -30.4687 -30.4681 -30.4658 -30.4584 -30.4544
   -30.4535 -30.4501 -30.4446 -30.4386 -30.4373 -30.4316 -30.4294 -30.4242
   -20.3150 -20.3150 -20.3148 -20.3148 -20.3147 -20.3147 -20.3145 -20.3145
   -20.2929 -20.2925 -20.2925 -20.2923 -20.2922 -20.2918 -20.2918 -20.2914
   -20.2901 -20.2898 -20.2898 -20.2894 -20.2893 -20.2890 -20.2890 -20.2887
   -20.2880 -20.2878 -20.2875 -20.2873 -20.2858 -20.2853 -20.2852 -20.2848
   -20.2845 -20.2841 -20.2840 -20.2838 -20.2824 -20.2824 -20.2815 -20.2815
   -20.2773 -20.2772 -20.2771 -20.2770 -20.2756 -20.2755 -20.2740 -20.2739
   -20.2732 -20.2731 -20.2715 -20.2714 -20.2709 -20.2709 -20.2696 -20.2695
    -9.9113  -9.8085  -9.5207  -9.4632  -9.4395  -9.3882  -9.1630  -9.1548
    -8.6158  -8.5588  -8.5471  -8.5433  -8.0525  -8.0187  -7.9869  -7.9690
    -7.9656  -7.9283  -7.8617  -7.8355  -7.8018  -7.7899  -7.7096  -7.6974
     1.0594   1.0611   1.1382   1.1385   1.3348   1.3354   1.5546   1.5759
     2.3186   2.3617   2.5031   2.5998   2.6464   2.7568   2.8797   2.9853
     3.0042   3.1245   3.6111   3.6584   3.6716   3.6958   4.1577   4.2167
     4.2528   4.5313   4.5460   4.6186   4.6858   4.8568   4.8659   4.9756
     5.1376   5.2581   5.2942   5.3095   5.4287   5.4466   5.6368   5.6657
     5.7549   5.7602   5.8397   5.9596   5.9986   6.0127   6.0337   6.1028
     6.2117   6.2940   6.3929   6.5103   6.5360   6.7112   6.7774   6.8724
     6.8815   6.9182   6.9584   6.9724   7.0102   7.0137   7.1609   7.1947
     7.1996   7.2157   7.8344   7.8514   7.8738   7.8782   7.8883   7.9095
     9.6815   9.6823  10.5688  10.6119  10.6953  10.7623  11.7929  11.7981
    11.8793  11.9204  12.4181  12.4301  12.6103  12.6116  13.0042  13.0758
    13.1908  13.3418  13.3515  13.4780  13.6431  13.7116  13.7559  13.8330
    15.1154  15.2624  15.4888  15.5050  15.5370  15.6055  16.0141  16.3193
    16.3798  16.7279  17.2023  17.3398  17.6849

          k = 0.0000 0.3150 0.3333 ( 62269 PWs)   bands (ev):

   -66.1595 -66.1593 -66.1590 -66.1588 -66.1584 -66.1583 -66.1579 -66.1578
   -30.5556 -30.5542 -30.5523 -30.5506 -30.5421 -30.5415 -30.5375 -30.5367
   -30.4927 -30.4913 -30.4881 -30.4867 -30.4676 -30.4647 -30.4628 -30.4586
   -30.4535 -30.4510 -30.4436 -30.4404 -30.4363 -30.4330 -30.4284 -30.4255
   -20.3149 -20.3149 -20.3148 -20.3148 -20.3147 -20.3147 -20.3146 -20.3146
   -20.2928 -20.2924 -20.2924 -20.2923 -20.2920 -20.2919 -20.2919 -20.2915
   -20.2900 -20.2898 -20.2897 -20.2895 -20.2892 -20.2891 -20.2890 -20.2888
   -20.2880 -20.2878 -20.2876 -20.2875 -20.2858 -20.2854 -20.2853 -20.2850
   -20.2844 -20.2842 -20.2840 -20.2838 -20.2809 -20.2809 -20.2800 -20.2799
   -20.2778 -20.2776 -20.2770 -20.2768 -20.2766 -20.2766 -20.2754 -20.2753
   -20.2729 -20.2728 -20.2719 -20.2718 -20.2707 -20.2706 -20.2699 -20.2698
    -9.7776  -9.6734  -9.5650  -9.4780  -9.2097  -9.1181  -9.0218  -9.0073
    -8.6675  -8.5921  -8.5350  -8.5198  -8.3259  -8.2765  -8.2708  -8.1889
    -8.0166  -7.9928  -7.9664  -7.9371  -7.7830  -7.7707  -7.7292  -7.7169
     1.1430   1.1439   1.1453   1.1456   2.0533   2.0791   2.1763   2.2463
     2.5101   2.5737   2.5978   2.6233   2.6472   2.7793   2.8978   2.9685
     3.2417   3.3261   3.5577   3.6250   3.6706   3.6864   3.7320   3.7592
     4.1323   4.3031   4.3980   4.4282   4.4327   4.5558   4.5900   4.6822
     4.7491   4.9069   4.9695   4.9856   5.2028   5.2856   5.3016   5.3192
     5.4301   5.5260   5.7721   5.9375   6.0869   6.0969   6.1360   6.1366
     6.3975   6.4325   6.4520   6.5389   6.5903   6.6808   6.6848   6.6957
     6.8799   6.9597   7.0472   7.0680   7.1165   7.1681   7.2058   7.2401
     7.2569   7.3255   7.7446   7.7574   7.7791   7.7888   7.8724   7.8916
    10.3978  10.4190  10.5806  10.6421  11.1926  11.2490  11.7774  11.8802
    11.9836  12.0000  12.0895  12.1880  12.6112  12.6524  12.7628  12.7793
    12.9723  13.0943  13.2658  13.2704  13.3517  13.5936  13.7121  13.7822
    15.1949  15.2510  15.6585  15.7952  15.9473  15.9693  16.2045  16.6201
    16.7685  16.8081  17.2236  17.4887  17.7942

          k = 0.0000 0.3150-0.5000 ( 62306 PWs)   bands (ev):

   -66.1592 -66.1592 -66.1590 -66.1590 -66.1582 -66.1582 -66.1580 -66.1580
   -30.5538 -30.5538 -30.5522 -30.5522 -30.5169 -30.5169 -30.5167 -30.5167
   -30.5122 -30.5121 -30.5119 -30.5119 -30.4659 -30.4659 -30.4620 -30.4620
   -30.4523 -30.4523 -30.4421 -30.4421 -30.4347 -30.4347 -30.4270 -30.4270
   -20.3148 -20.3148 -20.3148 -20.3148 -20.3147 -20.3147 -20.3147 -20.3147
   -20.2926 -20.2926 -20.2922 -20.2921 -20.2921 -20.2921 -20.2918 -20.2918
   -20.2899 -20.2899 -20.2896 -20.2896 -20.2892 -20.2892 -20.2889 -20.2889
   -20.2878 -20.2878 -20.2877 -20.2876 -20.2856 -20.2856 -20.2852 -20.2852
   -20.2843 -20.2843 -20.2839 -20.2839 -20.2791 -20.2791 -20.2791 -20.2791
   -20.2780 -20.2780 -20.2780 -20.2780 -20.2766 -20.2766 -20.2765 -20.2764
   -20.2724 -20.2724 -20.2724 -20.2723 -20.2703 -20.2703 -20.2702 -20.2702
    -9.6484  -9.6484  -9.5517  -9.5517  -8.8737  -8.8737  -8.7666  -8.7666
    -8.7244  -8.7244  -8.7044  -8.7044  -8.4933  -8.4933  -8.4439  -8.4439
    -8.0068  -8.0068  -7.9554  -7.9554  -7.7560  -7.7560  -7.7437  -7.7437
     1.1517   1.1517   1.1527   1.1527   2.4904   2.4904   2.6135   2.6135
     2.8811   2.8811   2.9426   2.9426   2.9963   2.9963   3.0993   3.0993
     3.1148   3.1148   3.3045   3.3045   3.3287   3.3287   3.6506   3.6506
     4.0257   4.0257   4.0721   4.0722   4.0928   4.0928   4.3303   4.3303
     4.8841   4.8841   5.0281   5.0281   5.1197   5.1197   5.1959   5.1959
     5.3741   5.3741   5.8507   5.8507   6.1683   6.1683   6.2050   6.2050
     6.3627   6.3627   6.4087   6.4087   6.4838   6.4838   6.6681   6.6681
     7.0950   7.0950   7.1094   7.1094   7.1490   7.1490   7.4738   7.4738
     7.5003   7.5003   7.5805   7.5805   7.6084   7.6084   7.8806   7.8806
    10.5806  10.5806  11.2329  11.2329  11.2839  11.2839  11.7316  11.7316
    11.9243  11.9243  12.0496  12.0496  12.5510  12.5510  12.6050  12.6050
    13.0070  13.0070  13.0313  13.0313  13.4094  13.4094  13.7272  13.7272
    15.2294  15.2294  15.8277  15.8277  16.2059  16.2059  16.4030  16.4030
    17.0835  17.0835  17.3177  17.3177  18.0306

          k = 0.0000-0.4725 0.0000 ( 62212 PWs)   bands (ev):

   -66.1596 -66.1596 -66.1586 -66.1586 -66.1586 -66.1586 -66.1576 -66.1576
   -30.5685 -30.5685 -30.5624 -30.5624 -30.5548 -30.5548 -30.5500 -30.5500
   -30.4680 -30.4680 -30.4636 -30.4636 -30.4599 -30.4599 -30.4535 -30.4535
   -30.4514 -30.4514 -30.4426 -30.4426 -30.4394 -30.4394 -30.4323 -30.4323
   -20.3150 -20.3150 -20.3148 -20.3148 -20.3147 -20.3147 -20.3145 -20.3145
   -20.2928 -20.2928 -20.2924 -20.2924 -20.2920 -20.2920 -20.2915 -20.2915
   -20.2899 -20.2899 -20.2896 -20.2896 -20.2891 -20.2891 -20.2888 -20.2888
   -20.2869 -20.2868 -20.2865 -20.2865 -20.2863 -20.2863 -20.2860 -20.2860
   -20.2843 -20.2843 -20.2839 -20.2839 -20.2830 -20.2830 -20.2821 -20.2821
   -20.2772 -20.2772 -20.2771 -20.2771 -20.2751 -20.2751 -20.2735 -20.2735
   -20.2732 -20.2732 -20.2713 -20.2713 -20.2710 -20.2710 -20.2694 -20.2694
    -9.9127  -9.9127  -9.5129  -9.5129  -9.4607  -9.4607  -9.1994  -9.1994
    -8.3301  -8.3301  -8.2937  -8.2937  -8.2869  -8.2869  -8.2778  -8.2778
    -7.8318  -7.8318  -7.7995  -7.7995  -7.7145  -7.7145  -7.6971  -7.6971
     0.9403   0.9403   1.0576   1.0576   1.1362   1.1362   1.4096   1.4096
     2.2503   2.2503   3.1033   3.1033   3.1984   3.1984   3.2139   3.2139
     3.2547   3.2548   3.4057   3.4057   3.6308   3.6308   3.6509   3.6509
     3.8115   3.8116   4.5718   4.5718   4.5815   4.5815   5.3130   5.3130
     5.3555   5.3555   5.4726   5.4726   5.5120   5.5120   5.8089   5.8089
     5.8342   5.8342   5.8792   5.8792   5.9936   5.9936   6.0648   6.0648
     6.1338   6.1338   6.2493   6.2493   6.5716   6.5716   6.5975   6.5975
     6.8311   6.8311   7.1557   7.1557   7.2071   7.2071   7.5258   7.5258
     7.5348   7.5348   7.5667   7.5667   7.5825   7.5825   7.9013   7.9013
     9.3386   9.3386  11.1248  11.1248  11.1967  11.1967  11.2080  11.2080
    11.2958  11.2958  12.5484  12.5484  12.5665  12.5665  13.0714  13.0714
    13.5011  13.5011  13.5263  13.5263  13.5931  13.5931  13.7003  13.7003
    15.4441  15.4441  15.6102  15.6102  15.7557  15.7557  15.7897  15.7897
    16.3514  16.3514  17.9324  17.9516  17.9541

          k = 0.0000-0.4725 0.1667 ( 62246 PWs)   bands (ev):

   -66.1596 -66.1596 -66.1587 -66.1587 -66.1585 -66.1585 -66.1577 -66.1577
   -30.5623 -30.5623 -30.5560 -30.5560 -30.5535 -30.5535 -30.5504 -30.5504
   -30.4739 -30.4739 -30.4694 -30.4694 -30.4595 -30.4595 -30.4544 -30.4544
   -30.4513 -30.4513 -30.4439 -30.4439 -30.4391 -30.4391 -30.4331 -30.4331
   -20.3150 -20.3150 -20.3148 -20.3148 -20.3147 -20.3147 -20.3145 -20.3145
   -20.2927 -20.2927 -20.2923 -20.2923 -20.2920 -20.2920 -20.2916 -20.2916
   -20.2899 -20.2899 -20.2896 -20.2896 -20.2891 -20.2891 -20.2888 -20.2888
   -20.2869 -20.2869 -20.2866 -20.2866 -20.2863 -20.2863 -20.2861 -20.2861
   -20.2843 -20.2843 -20.2840 -20.2840 -20.2824 -20.2824 -20.2815 -20.2815
   -20.2772 -20.2772 -20.2771 -20.2771 -20.2756 -20.2756 -20.2740 -20.2740
   -20.2731 -20.2731 -20.2715 -20.2715 -20.2709 -20.2709 -20.2696 -20.2696
    -9.8545  -9.8545  -9.4737  -9.4737  -9.4193  -9.4193  -9.1589  -9.1589
    -8.3348  -8.3348  -8.3032  -8.3032  -8.2856  -8.2856  -8.2819  -8.2819
    -7.9570  -7.9570  -7.8538  -7.8538  -7.7969  -7.7969  -7.7043  -7.7043
     1.0602   1.0602   1.1388   1.1388   1.3358   1.3358   1.5710   1.5710
     2.3408   2.3408   3.1271   3.1271   3.1847   3.1847   3.2553   3.2553
     3.2928   3.2928   3.3960   3.3960   3.6357   3.6357   3.6743   3.6743
     3.8335   3.8335   4.2311   4.2311   4.6277   4.6278   5.0334   5.0334
     5.2206   5.2206   5.3056   5.3056   5.4992   5.4992   5.5089   5.5089
     5.7463   5.7463   5.7966   5.7966   5.9970   5.9970   6.1036   6.1036
     6.2857   6.2857   6.3646   6.3646   6.5750   6.5750   6.8334   6.8334
     6.9215   6.9215   6.9687   6.9687   7.0306   7.0306   7.5216   7.5216
     7.5363   7.5363   7.5582   7.5582   7.5727   7.5727   7.8814   7.8814
     9.6845   9.6845  11.2059  11.2059  11.2453  11.2453  11.2725  11.2725
    11.3544  11.3544  12.4253  12.4253  12.6147  12.6147  13.1045  13.1045
    13.3437  13.3437  13.4095  13.4095  13.5000  13.5000  13.7229  13.7229
    15.4542  15.4542  15.7404  15.7404  15.8202  15.8202  16.0745  16.0745
    16.4232  16.4232  17.8289  17.8292  17.9403

          k = 0.0000-0.4725 0.3333 ( 62268 PWs)   bands (ev):

   -66.1594 -66.1594 -66.1589 -66.1589 -66.1584 -66.1583 -66.1579 -66.1578
   -30.5549 -30.5549 -30.5514 -30.5514 -30.5417 -30.5417 -30.5370 -30.5370
   -30.4916 -30.4916 -30.4870 -30.4870 -30.4586 -30.4586 -30.4558 -30.4558
   -30.4503 -30.4503 -30.4463 -30.4463 -30.4380 -30.4380 -30.4348 -30.4348
   -20.3149 -20.3149 -20.3148 -20.3148 -20.3147 -20.3147 -20.3146 -20.3146
   -20.2926 -20.2926 -20.2922 -20.2922 -20.2921 -20.2921 -20.2917 -20.2917
   -20.2899 -20.2899 -20.2897 -20.2897 -20.2891 -20.2891 -20.2889 -20.2889
   -20.2868 -20.2868 -20.2866 -20.2866 -20.2865 -20.2865 -20.2862 -20.2862
   -20.2842 -20.2842 -20.2841 -20.2841 -20.2809 -20.2809 -20.2799 -20.2799
   -20.2777 -20.2777 -20.2769 -20.2769 -20.2766 -20.2766 -20.2753 -20.2753
   -20.2728 -20.2728 -20.2719 -20.2719 -20.2706 -20.2706 -20.2699 -20.2699
    -9.7193  -9.7193  -9.5149  -9.5149  -9.1535  -9.1535  -9.0138  -9.0138
    -8.4194  -8.4194  -8.3937  -8.3937  -8.2916  -8.2916  -8.2727  -8.2727
    -8.2100  -8.2100  -8.1376  -8.1376  -7.7780  -7.7780  -7.7239  -7.7239
     1.1439   1.1439   1.1460   1.1460   2.0750   2.0750   2.2344   2.2344
     2.6028   2.6028   3.1474   3.1474   3.1992   3.1992   3.2773   3.2773
     3.3523   3.3523   3.4313   3.4313   3.6000   3.6000   3.6517   3.6517
     3.7694   3.7694   3.8693   3.8693   4.4478   4.4478   4.5859   4.5859
     4.7667   4.7667   4.8448   4.8448   5.0680   5.0680   5.2816   5.2816
     5.5455   5.5455   5.7096   5.7096   6.1139   6.1139   6.1577   6.1577
     6.4335   6.4335   6.4850   6.4851   6.5735   6.5735   6.6880   6.6880
     6.9565   6.9565   7.1840   7.1840   7.1915   7.1916   7.4893   7.4893
     7.5143   7.5143   7.5476   7.5476   7.5647   7.5647   7.7797   7.7797
    10.4258  10.4258  11.2173  11.2173  11.2626  11.2626  11.6332  11.6332
    11.7091  11.7091  11.9884  11.9884  12.7619  12.7619  12.8198  12.8198
    12.8724  12.8724  13.2079  13.2079  13.5015  13.5015  13.6395  13.6395
    15.5253  15.5253  15.7025  15.7025  16.3703  16.3703  16.7219  16.7219
    16.7960  16.7960  17.3052  17.3052  17.8011

          k = 0.0000-0.4725-0.5000 ( 62284 PWs)   bands (ev):

   -66.1591 -66.1591 -66.1591 -66.1591 -66.1581 -66.1581 -66.1581 -66.1581
   -30.5530 -30.5530 -30.5530 -30.5530 -30.5167 -30.5167 -30.5167 -30.5167
   -30.5119 -30.5119 -30.5119 -30.5119 -30.4573 -30.4572 -30.4572 -30.4572
   -30.4485 -30.4485 -30.4485 -30.4485 -30.4366 -30.4365 -30.4365 -30.4365
   -20.3148 -20.3148 -20.3148 -20.3148 -20.3147 -20.3147 -20.3147 -20.3147
   -20.2924 -20.2924 -20.2924 -20.2924 -20.2920 -20.2920 -20.2920 -20.2919
   -20.2898 -20.2898 -20.2898 -20.2898 -20.2890 -20.2890 -20.2890 -20.2890
   -20.2867 -20.2867 -20.2867 -20.2867 -20.2864 -20.2864 -20.2864 -20.2864
   -20.2842 -20.2842 -20.2842 -20.2842 -20.2791 -20.2791 -20.2791 -20.2791
   -20.2781 -20.2780 -20.2780 -20.2780 -20.2765 -20.2765 -20.2765 -20.2765
   -20.2724 -20.2724 -20.2724 -20.2724 -20.2703 -20.2703 -20.2703 -20.2702
    -9.5933  -9.5933  -9.5933  -9.5933  -8.7695  -8.7695  -8.7695  -8.7695
    -8.7277  -8.7277  -8.7277  -8.7277  -8.2797  -8.2797  -8.2797  -8.2797
    -8.2422  -8.2422  -8.2422  -8.2422  -7.7509  -7.7509  -7.7509  -7.7509
     1.1528   1.1528   1.1528   1.1528   2.9172   2.9172   2.9172   2.9172
     3.0268   3.0268   3.0268   3.0268   3.1682   3.1682   3.1682   3.1683
     3.2833   3.2834   3.2834   3.2834   3.4571   3.4571   3.4571   3.4571
     3.6583   3.6583   3.6583   3.6583   4.3265   4.3265   4.3265   4.3265
     4.4343   4.4343   4.4343   4.4343   5.1275   5.1275   5.1275   5.1275
     5.6047   5.6047   5.6047   5.6047   6.2073   6.2073   6.2073   6.2073
     6.4041   6.4041   6.4041   6.4041   6.5332   6.5332   6.5332   6.5333
     7.3104   7.3104   7.3104   7.3104   7.4082   7.4082   7.4082   7.4082
     7.4676   7.4676   7.4676   7.4676   7.6161   7.6161   7.6161   7.6161
    11.1574  11.1574  11.1574  11.1574  11.3432  11.3432  11.3432  11.3432
    12.2086  12.2086  12.2086  12.2086  12.2593  12.2593  12.2593  12.2593
    13.0153  13.0153  13.0153  13.0153  13.5315  13.5315  13.5315  13.5315
    15.6271  15.6271  15.6271  15.6271  16.8252  16.8252  16.8252  16.8252
    17.4435  17.4436  17.4436  17.4436  17.5204

          k = 0.1667 0.0000 0.1667 ( 62234 PWs)   bands (ev):

   -66.1597 -66.1593 -66.1588 -66.1588 -66.1584 -66.1584 -66.1579 -66.1575
   -30.5627 -30.5602 -30.5574 -30.5550 -30.5495 -30.5461 -30.5451 -30.5421
   -30.4851 -30.4834 -30.4821 -30.4792 -30.4719 -30.4682 -30.4633 -30.4589
   -30.4581 -30.4558 -30.4516 -30.4460 -30.4227 -30.4179 -30.4177 -30.4131
   -20.3150 -20.3150 -20.3148 -20.3148 -20.3147 -20.3147 -20.3146 -20.3145
   -20.2932 -20.2928 -20.2926 -20.2923 -20.2921 -20.2920 -20.2916 -20.2912
   -20.2902 -20.2899 -20.2896 -20.2895 -20.2893 -20.2892 -20.2892 -20.2891
   -20.2887 -20.2887 -20.2885 -20.2885 -20.2848 -20.2844 -20.2841 -20.2838
   -20.2837 -20.2835 -20.2831 -20.2829 -20.2823 -20.2823 -20.2816 -20.2815
   -20.2778 -20.2777 -20.2773 -20.2772 -20.2755 -20.2754 -20.2742 -20.2740
   -20.2731 -20.2730 -20.2715 -20.2712 -20.2712 -20.2711 -20.2698 -20.2697
    -9.9290  -9.7143  -9.5429  -9.5065  -9.3762  -9.3202  -9.1269  -9.1093
    -8.8998  -8.7652  -8.7578  -8.7536  -7.9755  -7.9675  -7.9303  -7.9215
    -7.8866  -7.8792  -7.8469  -7.8177  -7.6850  -7.6380  -7.6327  -7.5897
     1.2142   1.2213   1.3254   1.3364   1.3842   1.4065   1.4994   1.6950
     1.7587   1.7791   1.8020   1.9771   2.3919   2.4754   2.6886   2.6982
     2.8029   2.8261   4.0661   4.0806   4.1890   4.2358   4.3076   4.3175
     4.3337   4.3848   4.6686   4.7170   4.7296   4.8642   5.0586   5.2043
     5.2317   5.2946   5.2950   5.5031   5.5685   5.5770   5.5815   5.6793
     5.6870   5.8104   5.8325   5.9473   6.0390   6.1096   6.1670   6.2194
     6.3301   6.4294   6.4967   6.6060   6.6114   6.7383   6.7436   6.7910
     6.8151   6.8756   6.8915   6.8923   6.8991   6.9520   6.9604   7.0250
     7.0923   7.1529   7.8533   7.8553   8.0510   8.0921   8.1177   8.1516
     9.8841   9.9248  10.0933  10.1456  10.1464  10.2395  12.2492  12.3467
    12.4463  12.4486  12.4630  12.4826  12.5416  12.5745  12.8085  12.9824
    13.0501  13.1308  13.4355  13.4608  13.7468  13.7916  13.9633  14.0032
    14.2743  14.4665  14.5713  15.1589  15.2971  15.6337  15.6461  16.5092
    16.5132  17.0545  17.0696  17.3135  17.6308

          k = 0.1667 0.0000 0.3333 ( 62265 PWs)   bands (ev):

   -66.1595 -66.1591 -66.1590 -66.1586 -66.1586 -66.1582 -66.1581 -66.1577
   -30.5499 -30.5482 -30.5465 -30.5434 -30.5411 -30.5407 -30.5381 -30.5367
   -30.4954 -30.4919 -30.4910 -30.4871 -30.4807 -30.4775 -30.4731 -30.4683
   -30.4576 -30.4560 -30.4513 -30.4486 -30.4217 -30.4190 -30.4167 -30.4141
   -20.3149 -20.3149 -20.3148 -20.3148 -20.3147 -20.3147 -20.3146 -20.3146
   -20.2930 -20.2927 -20.2926 -20.2922 -20.2922 -20.2919 -20.2917 -20.2914
   -20.2902 -20.2900 -20.2896 -20.2895 -20.2893 -20.2893 -20.2893 -20.2890
   -20.2890 -20.2887 -20.2886 -20.2885 -20.2848 -20.2845 -20.2842 -20.2838
   -20.2838 -20.2837 -20.2830 -20.2829 -20.2809 -20.2808 -20.2800 -20.2800
   -20.2781 -20.2777 -20.2775 -20.2771 -20.2766 -20.2766 -20.2755 -20.2754
   -20.2728 -20.2727 -20.2719 -20.2717 -20.2709 -20.2708 -20.2701 -20.2700
    -9.7887  -9.5634  -9.5553  -9.3574  -9.3179  -9.1057  -9.0020  -8.9785
    -8.9413  -8.7748  -8.7301  -8.7133  -8.2983  -8.2883  -8.2464  -8.2156
    -7.9295  -7.9017  -7.8767  -7.8482  -7.6760  -7.6484  -7.6246  -7.5992
     1.3799   1.3817   1.4110   1.4151   1.6915   1.6993   1.7448   1.7864
     2.0847   2.1551   2.2438   2.3587   2.6670   2.7072   2.7652   2.7928
     2.9388   3.0460   3.6292   3.7305   3.9063   3.9253   4.1746   4.1976
     4.2049   4.4288   4.4307   4.5119   4.5914   4.6437   4.6799   4.7774
     4.9114   4.9636   5.0040   5.1219   5.1679   5.3118   5.6017   5.6208
     5.6990   5.8473   5.8931   5.9464   5.9578   6.0064   6.0636   6.1449
     6.3833   6.4645   6.5253   6.5705   6.6466   6.6888   6.7283   6.7909
     6.8460   6.8644   6.8791   6.9343   6.9649   7.0464   7.0949   7.1314
     7.2664   7.3355   7.7525   7.7586   7.9643   8.0067   8.0861   8.0946
    10.0990  10.1045  10.5419  10.6104  10.8084  10.8866  12.0003  12.0519
    12.2110  12.4347  12.4607  12.5533  12.6017  12.6054  12.7238  12.7890
    12.8267  13.0857  13.2536  13.3326  13.5846  13.6192  13.7903  13.8175
    14.3869  14.5459  14.7529  15.2029  15.4804  15.9520  16.1486  16.4286
    16.4875  17.4156  17.5269  17.6681  17.7136

          k = 0.1667 0.0000-0.5000 ( 62322 PWs)   bands (ev):

   -66.1593 -66.1592 -66.1589 -66.1589 -66.1584 -66.1584 -66.1580 -66.1580
   -30.5480 -30.5480 -30.5449 -30.5449 -30.5169 -30.5169 -30.5169 -30.5169
   -30.5129 -30.5129 -30.5128 -30.5128 -30.4783 -30.4783 -30.4744 -30.4744
   -30.4567 -30.4567 -30.4503 -30.4503 -30.4204 -30.4203 -30.4155 -30.4154
   -20.3148 -20.3148 -20.3148 -20.3148 -20.3147 -20.3147 -20.3147 -20.3147
   -20.2929 -20.2929 -20.2924 -20.2924 -20.2920 -20.2919 -20.2916 -20.2916
   -20.2901 -20.2901 -20.2895 -20.2895 -20.2894 -20.2894 -20.2892 -20.2892
   -20.2889 -20.2888 -20.2885 -20.2885 -20.2847 -20.2847 -20.2840 -20.2840
   -20.2838 -20.2838 -20.2830 -20.2830 -20.2792 -20.2792 -20.2790 -20.2790
   -20.2781 -20.2781 -20.2781 -20.2781 -20.2769 -20.2769 -20.2767 -20.2767
   -20.2724 -20.2724 -20.2722 -20.2722 -20.2705 -20.2705 -20.2704 -20.2704
    -9.6480  -9.6480  -9.4315  -9.4315  -9.0689  -9.0689  -8.8330  -8.8330
    -8.7081  -8.7081  -8.6861  -8.6860  -8.6106  -8.6106  -8.5495  -8.5495
    -7.9041  -7.9041  -7.8747  -7.8747  -7.6624  -7.6624  -7.6121  -7.6121
     1.3884   1.3884   1.4255   1.4255   1.7302   1.7302   1.7656   1.7656
     2.7322   2.7322   2.9328   2.9328   3.0003   3.0003   3.0751   3.0751
     3.1181   3.1181   3.2589   3.2589   3.4079   3.4079   3.7287   3.7287
     3.8257   3.8257   4.3391   4.3391   4.5679   4.5679   4.7870   4.7870
     4.8631   4.8631   4.9310   4.9310   5.1104   5.1104   5.6771   5.6771
     5.7246   5.7246   5.7776   5.7776   5.9812   5.9813   6.1312   6.1312
     6.3631   6.3631   6.5902   6.5902   6.6009   6.6009   6.7661   6.7661
     6.8602   6.8602   6.8954   6.8954   6.9670   6.9670   7.4907   7.4907
     7.5072   7.5073   7.6879   7.6879   7.7334   7.7334   8.0940   8.0940
    10.1098  10.1098  11.3023  11.3023  11.3707  11.3707  11.5879  11.5879
    11.7048  11.7049  12.5708  12.5708  12.6486  12.6486  12.8840  12.8840
    12.9916  12.9917  13.1705  13.1705  13.2776  13.2776  13.7927  13.7927
    14.4916  14.4916  15.0259  15.0259  15.9295  15.9295  16.2434  16.2434
    16.9716  16.9716  17.8991  17.8991  18.0169

          k = 0.1667 0.1575 0.1667 ( 62255 PWs)   bands (ev):

   -66.1597 -66.1593 -66.1588 -66.1588 -66.1585 -66.1584 -66.1579 -66.1576
   -30.5625 -30.5603 -30.5572 -30.5551 -30.5492 -30.5463 -30.5450 -30.5423
   -30.4826 -30.4807 -30.4789 -30.4755 -30.4719 -30.4682 -30.4631 -30.4588
   -30.4575 -30.4559 -30.4512 -30.4452 -30.4265 -30.4216 -30.4212 -30.4165
   -20.3150 -20.3150 -20.3148 -20.3148 -20.3147 -20.3147 -20.3146 -20.3145
   -20.2931 -20.2927 -20.2925 -20.2924 -20.2921 -20.2920 -20.2916 -20.2913
   -20.2902 -20.2899 -20.2896 -20.2895 -20.2893 -20.2892 -20.2891 -20.2888
   -20.2886 -20.2886 -20.2883 -20.2882 -20.2850 -20.2846 -20.2844 -20.2839
   -20.2838 -20.2836 -20.2833 -20.2830 -20.2823 -20.2823 -20.2816 -20.2815
   -20.2778 -20.2777 -20.2773 -20.2773 -20.2755 -20.2754 -20.2742 -20.2740
   -20.2731 -20.2730 -20.2715 -20.2713 -20.2712 -20.2711 -20.2698 -20.2697
    -9.9079  -9.7237  -9.5227  -9.4839  -9.3821  -9.3266  -9.1257  -9.1104
    -8.8283  -8.7124  -8.7070  -8.7012  -7.9798  -7.9660  -7.9326  -7.9259
    -7.8886  -7.8859  -7.8474  -7.8208  -7.7733  -7.7300  -7.7266  -7.6862
     1.2146   1.2206   1.3327   1.3369   1.3964   1.4075   1.5864   1.6950
     1.9519   1.9989   2.0186   2.1515   2.3981   2.4704   2.7641   2.7701
     2.8759   2.8929   3.9488   3.9759   4.0670   4.0965   4.2689   4.2998
     4.3100   4.3210   4.6279   4.7161   4.7784   4.8703   4.9574   5.1446
     5.2021   5.2578   5.2794   5.3188   5.3657   5.5362   5.5451   5.6477
     5.6908   5.7847   5.9100   5.9315   5.9606   6.0541   6.1431   6.2159
     6.3338   6.3453   6.4754   6.5656   6.6397   6.7192   6.7327   6.7630
     6.7802   6.8528   6.8740   6.9138   6.9618   6.9855   7.0131   7.0362
     7.1069   7.1588   7.8522   7.8563   8.0098   8.0389   8.0646   8.0787
     9.9107   9.9368  10.2522  10.2896  10.3207  10.3832  12.1416  12.2490
    12.3326  12.3628  12.4602  12.4706  12.4979  12.5100  12.8471  13.0117
    13.0501  13.1336  13.4293  13.4510  13.7555  13.7936  13.8690  13.9254
    14.5156  14.7816  14.8220  15.2544  15.6345  15.6419  15.7068  16.4683
    16.4811  16.9669  17.1461  17.1593  17.5825

          k = 0.1667 0.1575 0.3333 ( 62260 PWs)   bands (ev):

   -66.1595 -66.1591 -66.1590 -66.1586 -66.1586 -66.1582 -66.1581 -66.1577
   -30.5497 -30.5482 -30.5463 -30.5436 -30.5410 -30.5406 -30.5380 -30.5368
   -30.4943 -30.4910 -30.4906 -30.4871 -30.4777 -30.4739 -30.4714 -30.4659
   -30.4580 -30.4563 -30.4507 -30.4477 -30.4255 -30.4227 -30.4203 -30.4176
   -20.3149 -20.3149 -20.3148 -20.3148 -20.3147 -20.3147 -20.3146 -20.3146
   -20.2930 -20.2926 -20.2925 -20.2922 -20.2922 -20.2919 -20.2918 -20.2914
   -20.2901 -20.2899 -20.2896 -20.2894 -20.2894 -20.2893 -20.2891 -20.2888
   -20.2887 -20.2885 -20.2884 -20.2883 -20.2850 -20.2847 -20.2845 -20.2841
   -20.2839 -20.2837 -20.2832 -20.2830 -20.2809 -20.2808 -20.2800 -20.2800
   -20.2781 -20.2777 -20.2775 -20.2771 -20.2766 -20.2766 -20.2755 -20.2754
   -20.2728 -20.2727 -20.2719 -20.2717 -20.2709 -20.2708 -20.2701 -20.2700
    -9.7656  -9.5727  -9.5320  -9.3645  -9.2886  -9.1116  -8.9995  -8.9788
    -8.8731  -8.7268  -8.6811  -8.6695  -8.3024  -8.2847  -8.2533  -8.2115
    -7.9296  -7.9070  -7.8773  -7.8535  -7.7658  -7.7395  -7.7202  -7.6954
     1.3930   1.3957   1.4128   1.4152   1.8671   1.8804   1.9624   2.0068
     2.0847   2.1928   2.2438   2.3977   2.6738   2.7398   2.7984   2.8633
     3.0136   3.1124   3.6290   3.7246   3.8560   3.9191   4.0607   4.1081
     4.2365   4.3420   4.4025   4.4778   4.5697   4.5882   4.6588   4.7685
     4.8418   4.8477   4.9233   5.1039   5.1164   5.1451   5.3855   5.5753
     5.6677   5.7236   5.8053   5.9063   5.9132   5.9828   6.0122   6.0454
     6.3144   6.4781   6.5577   6.6819   6.6891   6.7294   6.7402   6.7432
     6.8253   6.9017   6.9255   6.9757   7.0029   7.0779   7.0941   7.1527
     7.2639   7.3336   7.7545   7.7562   7.9210   7.9505   8.0349   8.0416
    10.2619  10.2814  10.5589  10.6207  10.9109  10.9719  11.9979  12.0481
    12.1805  12.3651  12.4043  12.4934  12.5229  12.6111  12.6510  12.7155
    12.8641  13.0661  13.2255  13.3373  13.4810  13.5427  13.7796  13.7941
    14.6603  14.7966  15.1165  15.5281  15.6408  15.9434  16.1634  16.3950
    16.5735  17.3537  17.3737  17.5871  17.7107

          k = 0.1667 0.1575-0.5000 ( 62292 PWs)   bands (ev):

   -66.1592 -66.1592 -66.1589 -66.1589 -66.1583 -66.1583 -66.1580 -66.1580
   -30.5477 -30.5477 -30.5451 -30.5450 -30.5168 -30.5168 -30.5167 -30.5167
   -30.5128 -30.5128 -30.5126 -30.5126 -30.4755 -30.4755 -30.4710 -30.4710
   -30.4571 -30.4571 -30.4495 -30.4495 -30.4241 -30.4241 -30.4189 -30.4189
   -20.3148 -20.3148 -20.3148 -20.3148 -20.3147 -20.3147 -20.3147 -20.3147
   -20.2928 -20.2928 -20.2924 -20.2924 -20.2920 -20.2920 -20.2917 -20.2917
   -20.2900 -20.2900 -20.2895 -20.2895 -20.2894 -20.2893 -20.2890 -20.2890
   -20.2886 -20.2886 -20.2884 -20.2884 -20.2849 -20.2849 -20.2843 -20.2843
   -20.2838 -20.2838 -20.2831 -20.2831 -20.2792 -20.2792 -20.2790 -20.2790
   -20.2781 -20.2781 -20.2781 -20.2781 -20.2769 -20.2769 -20.2767 -20.2767
   -20.2724 -20.2724 -20.2722 -20.2722 -20.2705 -20.2705 -20.2704 -20.2704
    -9.6240  -9.6240  -9.4397  -9.4397  -9.0160  -9.0160  -8.8062  -8.8061
    -8.7122  -8.7122  -8.6884  -8.6884  -8.5884  -8.5884  -8.5299  -8.5299
    -7.9053  -7.9053  -7.8792  -7.8792  -7.7530  -7.7530  -7.7080  -7.7080
     1.4065   1.4065   1.4251   1.4251   1.9291   1.9291   1.9954   1.9954
     2.7935   2.7935   2.9445   2.9445   3.0070   3.0070   3.0823   3.0823
     3.1203   3.1203   3.2840   3.2840   3.4012   3.4012   3.7534   3.7534
     3.8822   3.8822   4.1976   4.1976   4.4839   4.4839   4.6910   4.6910
     4.8122   4.8122   4.8941   4.8941   4.9895   4.9895   5.5015   5.5015
     5.6698   5.6699   5.7464   5.7464   5.8612   5.8612   6.0138   6.0138
     6.4588   6.4589   6.6140   6.6140   6.6914   6.6914   6.7948   6.7948
     6.8073   6.8073   6.9345   6.9345   7.0332   7.0332   7.4945   7.4945
     7.5045   7.5045   7.6644   7.6644   7.7032   7.7032   8.0405   8.0405
    10.2861  10.2861  11.3085  11.3085  11.3714  11.3714  11.6505  11.6505
    11.7592  11.7592  12.4234  12.4234  12.6466  12.6466  12.8306  12.8306
    12.9730  12.9730  13.0745  13.0745  13.2436  13.2436  13.7701  13.7701
    14.7540  14.7540  15.4105  15.4105  16.0191  16.0191  16.2178  16.2178
    17.0086  17.0086  17.7399  17.7400  17.9885

          k = 0.1667 0.3150 0.1667 ( 62249 PWs)   bands (ev):

   -66.1596 -66.1594 -66.1587 -66.1587 -66.1585 -66.1585 -66.1578 -66.1576
   -30.5620 -30.5608 -30.5568 -30.5555 -30.5485 -30.5468 -30.5444 -30.5429
   -30.4774 -30.4744 -30.4723 -30.4713 -30.4684 -30.4654 -30.4622 -30.4601
   -30.4570 -30.4532 -30.4486 -30.4421 -30.4370 -30.4312 -30.4304 -30.4252
   -20.3150 -20.3150 -20.3148 -20.3148 -20.3147 -20.3147 -20.3145 -20.3145
   -20.2929 -20.2926 -20.2925 -20.2923 -20.2922 -20.2918 -20.2918 -20.2914
   -20.2901 -20.2897 -20.2897 -20.2894 -20.2893 -20.2891 -20.2890 -20.2887
   -20.2880 -20.2878 -20.2875 -20.2874 -20.2857 -20.2853 -20.2852 -20.2848
   -20.2839 -20.2836 -20.2835 -20.2832 -20.2823 -20.2823 -20.2816 -20.2815
   -20.2777 -20.2776 -20.2774 -20.2774 -20.2755 -20.2754 -20.2742 -20.2741
   -20.2731 -20.2730 -20.2715 -20.2713 -20.2711 -20.2711 -20.2698 -20.2697
    -9.8564  -9.7522  -9.4771  -9.4327  -9.4002  -9.3468  -9.1224  -9.1136
    -8.6273  -8.5523  -8.5497  -8.5432  -8.0635  -8.0168  -8.0106  -7.9846
    -7.9605  -7.9308  -7.9193  -7.9064  -7.8737  -7.8425  -7.8320  -7.8198
     1.2155   1.2190   1.3375   1.3384   1.4059   1.4082   1.6643   1.6932
     2.4092   2.4504   2.5078   2.5949   2.6237   2.7355   2.9865   3.0107
     3.0854   3.1209   3.6050   3.6502   3.7117   3.7576   4.1515   4.2569
     4.2807   4.2852   4.3163   4.5461   4.5857   4.8298   4.8459   4.9471
     4.9877   5.0219   5.1213   5.1552   5.3176   5.3741   5.4473   5.4514
     5.6945   5.7049   5.7466   5.7671   5.8701   5.8768   6.1449   6.1747
     6.3510   6.3870   6.4345   6.5839   6.6518   6.6730   6.7648   6.7979
     6.8694   6.8824   6.9736   6.9945   7.0551   7.0614   7.1695   7.1727
     7.2343   7.2371   7.8144   7.8469   7.8504   7.8686   7.8815   7.8975
     9.9356   9.9439  10.6862  10.7163  10.7781  10.8051  11.7868  11.8766
    11.9348  11.9595  12.4628  12.4750  12.4876  12.4970  12.9554  13.0673
    13.1332  13.2049  13.3985  13.4023  13.5620  13.6378  13.6943  13.7564
    15.2687  15.4305  15.4852  15.6113  15.6515  15.6590  16.3296  16.3532
    16.4297  16.6980  17.2511  17.4379  17.4445

          k = 0.1667 0.3150 0.3333 ( 62265 PWs)   bands (ev):

   -66.1594 -66.1592 -66.1589 -66.1587 -66.1585 -66.1583 -66.1580 -66.1578
   -30.5493 -30.5484 -30.5457 -30.5441 -30.5409 -30.5406 -30.5377 -30.5369
   -30.4924 -30.4909 -30.4884 -30.4870 -30.4703 -30.4667 -30.4637 -30.4596
   -30.4583 -30.4574 -30.4478 -30.4445 -30.4359 -30.4327 -30.4295 -30.4265
   -20.3149 -20.3149 -20.3148 -20.3148 -20.3147 -20.3147 -20.3146 -20.3146
   -20.2928 -20.2924 -20.2924 -20.2923 -20.2920 -20.2920 -20.2919 -20.2916
   -20.2900 -20.2898 -20.2897 -20.2895 -20.2893 -20.2891 -20.2890 -20.2888
   -20.2880 -20.2878 -20.2877 -20.2875 -20.2857 -20.2854 -20.2854 -20.2850
   -20.2838 -20.2837 -20.2835 -20.2833 -20.2809 -20.2809 -20.2800 -20.2800
   -20.2780 -20.2778 -20.2774 -20.2772 -20.2766 -20.2766 -20.2755 -20.2754
   -20.2728 -20.2727 -20.2719 -20.2718 -20.2709 -20.2708 -20.2701 -20.2700
    -9.7098  -9.6011  -9.4786  -9.3864  -9.2248  -9.1308  -8.9938  -8.9822
    -8.6820  -8.5824  -8.5307  -8.5265  -8.3204  -8.2850  -8.2702  -8.1960
    -8.0176  -8.0033  -7.9774  -7.9509  -7.9085  -7.8882  -7.8565  -7.8400
     1.4011   1.4030   1.4159   1.4174   2.0569   2.0831   2.1717   2.2417
     2.5130   2.5879   2.6195   2.6714   2.6998   2.7937   3.0027   3.0730
     3.2445   3.3207   3.5903   3.6568   3.6931   3.7204   3.7769   3.8281
     4.1215   4.2914   4.3688   4.3891   4.4260   4.4458   4.5726   4.6103
     4.6172   4.8003   4.8358   4.8954   4.9712   5.0261   5.0780   5.1770
     5.3142   5.3964   5.4862   5.6990   5.7259   5.8720   5.9827   6.0072
     6.4360   6.5227   6.5984   6.7258   6.7614   6.7810   6.8663   6.8766
     6.9457   7.0186   7.0519   7.0737   7.1271   7.1822   7.2289   7.2456
     7.2801   7.3347   7.7374   7.7573   7.7720   7.7829   7.8587   7.8766
    10.5385  10.5601  10.7601  10.8054  11.2032  11.2581  11.8581  11.9359
    12.0281  12.0927  12.1011  12.1874  12.6002  12.6290  12.6707  12.6748
    12.9419  13.0814  13.0856  13.2379  13.3335  13.4171  13.6166  13.6472
    15.3795  15.4362  15.8819  15.9085  15.9630  16.1986  16.3165  16.5908
    16.8571  16.8673  17.2161  17.5107  17.7224

          k = 0.1667 0.3150-0.5000 ( 62264 PWs)   bands (ev):

   -66.1592 -66.1591 -66.1590 -66.1589 -66.1583 -66.1583 -66.1581 -66.1581
   -30.5471 -30.5471 -30.5456 -30.5456 -30.5165 -30.5165 -30.5164 -30.5164
   -30.5125 -30.5125 -30.5123 -30.5122 -30.4687 -30.4687 -30.4616 -30.4616
   -30.4585 -30.4585 -30.4464 -30.4464 -30.4344 -30.4343 -30.4281 -30.4281
   -20.3148 -20.3148 -20.3148 -20.3148 -20.3147 -20.3147 -20.3147 -20.3147
   -20.2926 -20.2926 -20.2922 -20.2922 -20.2921 -20.2921 -20.2918 -20.2918
   -20.2899 -20.2899 -20.2896 -20.2896 -20.2892 -20.2892 -20.2889 -20.2889
   -20.2878 -20.2878 -20.2877 -20.2877 -20.2856 -20.2856 -20.2852 -20.2852
   -20.2838 -20.2838 -20.2834 -20.2834 -20.2791 -20.2791 -20.2791 -20.2791
   -20.2781 -20.2781 -20.2781 -20.2781 -20.2769 -20.2769 -20.2768 -20.2768
   -20.2723 -20.2723 -20.2723 -20.2723 -20.2705 -20.2705 -20.2704 -20.2704
    -9.5676  -9.5676  -9.4650  -9.4650  -8.8918  -8.8918  -8.7605  -8.7605
    -8.7231  -8.7231  -8.6963  -8.6963  -8.4888  -8.4888  -8.4483  -8.4483
    -8.0098  -8.0098  -7.9712  -7.9712  -7.8839  -7.8839  -7.8633  -7.8633
     1.4196   1.4197   1.4247   1.4247   2.4932   2.4932   2.5900   2.5900
     2.9222   2.9222   2.9814   2.9814   3.0441   3.0441   3.1055   3.1055
     3.1502   3.1502   3.3549   3.3549   3.3773   3.3773   3.6928   3.6928
     4.0296   4.0296   4.0673   4.0673   4.0847   4.0847   4.3413   4.3413
     4.7358   4.7358   4.8169   4.8169   4.9616   4.9616   5.0596   5.0596
     5.0973   5.0973   5.5575   5.5575   5.7892   5.7892   5.8890   5.8890
     6.5848   6.5848   6.6947   6.6947   6.7363   6.7363   6.8078   6.8078
     7.0721   7.0721   7.1230   7.1230   7.2008   7.2008   7.4898   7.4898
     7.5124   7.5124   7.5794   7.5794   7.6098   7.6098   7.8645   7.8645
    10.7417  10.7417  11.3188  11.3188  11.3748  11.3748  11.7840  11.7840
    11.9370  11.9370  12.0818  12.0818  12.5365  12.5365  12.5986  12.5987
    12.8967  12.8967  12.9732  12.9732  13.2528  13.2528  13.5956  13.5957
    15.4182  15.4182  16.1165  16.1165  16.2889  16.2889  16.4021  16.4021
    17.1457  17.1457  17.3652  17.3652  17.9256

          k = 0.1667-0.4725 0.1667 ( 62220 PWs)   bands (ev):

   -66.1595 -66.1595 -66.1586 -66.1586 -66.1586 -66.1586 -66.1577 -66.1577
   -30.5614 -30.5614 -30.5561 -30.5561 -30.5476 -30.5476 -30.5436 -30.5436
   -30.4737 -30.4736 -30.4697 -30.4697 -30.4642 -30.4642 -30.4596 -30.4596
   -30.4511 -30.4511 -30.4435 -30.4435 -30.4414 -30.4413 -30.4352 -30.4352
   -20.3150 -20.3150 -20.3148 -20.3148 -20.3147 -20.3147 -20.3145 -20.3145
   -20.2927 -20.2927 -20.2924 -20.2924 -20.2920 -20.2920 -20.2916 -20.2916
   -20.2899 -20.2899 -20.2896 -20.2896 -20.2892 -20.2892 -20.2889 -20.2889
   -20.2869 -20.2869 -20.2866 -20.2866 -20.2864 -20.2863 -20.2861 -20.2861
   -20.2838 -20.2838 -20.2834 -20.2834 -20.2823 -20.2823 -20.2816 -20.2816
   -20.2776 -20.2776 -20.2775 -20.2775 -20.2755 -20.2755 -20.2741 -20.2741
   -20.2730 -20.2730 -20.2714 -20.2714 -20.2711 -20.2711 -20.2698 -20.2698
    -9.7986  -9.7985  -9.4322  -9.4321  -9.3823  -9.3823  -9.1180  -9.1180
    -8.3436  -8.3429  -8.3016  -8.3007  -8.2950  -8.2942  -8.2845  -8.2830
    -7.9551  -7.9537  -7.9222  -7.9217  -7.8671  -7.8670  -7.8285  -7.8281
     1.2165   1.2177   1.3382   1.3392   1.4079   1.4086   1.6861   1.6873
     2.4314   2.4326   3.1341   3.1375   3.1830   3.2080   3.2449   3.2612
     3.3499   3.3521   3.3991   3.4089   3.6589   3.6646   3.6787   3.6851
     3.8464   3.8488   4.2624   4.2925   4.2958   4.3123   4.9740   4.9948
     5.0783   5.0858   5.1947   5.2284   5.2398   5.2627   5.4360   5.4475
     5.5151   5.5152   5.7066   5.7401   5.7579   5.7742   6.1720   6.1734
     6.3932   6.4046   6.5195   6.5201   6.6336   6.6505   6.8242   6.8258
     6.8353   6.8507   7.0157   7.0188   7.0845   7.0896   7.5158   7.5168
     7.5273   7.5345   7.5500   7.5657   7.5728   7.5763   7.8627   7.8642
     9.9430   9.9445  11.2342  11.2589  11.2771  11.3085  11.3551  11.3620
    11.4148  11.4164  12.4650  12.4782  12.4877  12.4974  13.0835  13.0856
    13.3096  13.3241  13.3411  13.3429  13.3808  13.3963  13.6500  13.6521
    15.6163  15.6208  15.8644  15.8811  16.0223  16.0431  16.0587  16.0665
    16.4816  16.4840  17.7872  17.8008  17.8765

          k = 0.1667-0.4725 0.3333 ( 62252 PWs)   bands (ev):

   -66.1593 -66.1593 -66.1588 -66.1588 -66.1584 -66.1584 -66.1579 -66.1579
   -30.5488 -30.5488 -30.5450 -30.5449 -30.5408 -30.5407 -30.5373 -30.5373
   -30.4913 -30.4912 -30.4873 -30.4873 -30.4634 -30.4633 -30.4609 -30.4608
   -30.4499 -30.4499 -30.4459 -30.4459 -30.4404 -30.4404 -30.4371 -30.4371
   -20.3149 -20.3149 -20.3148 -20.3148 -20.3147 -20.3147 -20.3146 -20.3146
   -20.2926 -20.2926 -20.2922 -20.2922 -20.2921 -20.2921 -20.2918 -20.2918
   -20.2898 -20.2898 -20.2896 -20.2896 -20.2891 -20.2891 -20.2890 -20.2890
   -20.2869 -20.2869 -20.2866 -20.2866 -20.2865 -20.2865 -20.2863 -20.2863
   -20.2837 -20.2837 -20.2835 -20.2835 -20.2809 -20.2809 -20.2800 -20.2800
   -20.2779 -20.2779 -20.2773 -20.2773 -20.2766 -20.2766 -20.2755 -20.2755
   -20.2727 -20.2727 -20.2718 -20.2718 -20.2709 -20.2709 -20.2701 -20.2701
    -9.6487  -9.6487  -9.4249  -9.4249  -9.1675  -9.1671  -8.9877  -8.9875
    -8.4362  -8.4341  -8.3901  -8.3852  -8.2942  -8.2901  -8.2799  -8.2770
    -8.2069  -8.2046  -8.1432  -8.1415  -7.9062  -7.9056  -7.8539  -7.8538
     1.4029   1.4036   1.4167   1.4186   2.0783   2.0798   2.2304   2.2310
     2.7009   2.7060   3.1563   3.1731   3.2137   3.2144   3.2672   3.2945
     3.3589   3.3659   3.4724   3.4743   3.6319   3.6386   3.6799   3.7270
     3.7744   3.7883   3.8894   3.8898   4.3930   4.3970   4.5054   4.5224
     4.6137   4.6771   4.8116   4.8222   4.9622   4.9730   4.9988   5.0836
     5.2351   5.2858   5.3328   5.4494   5.7471   5.7674   5.9811   6.0012
     6.5024   6.5075   6.6688   6.6936   6.7934   6.8058   6.8819   6.9013
     6.9809   7.0404   7.1725   7.1840   7.2088   7.2224   7.4903   7.4951
     7.5063   7.5112   7.5413   7.5469   7.5562   7.5777   7.7699   7.7769
    10.5706  10.5719  11.3237  11.3247  11.3782  11.3820  11.6398  11.6459
    11.6989  11.7197  12.0357  12.0727  12.6140  12.6747  12.8159  12.8378
    12.8516  12.8958  13.0908  13.1568  13.3295  13.3491  13.5010  13.5461
    15.7770  15.7851  15.9731  15.9757  16.4281  16.4456  16.7199  16.7546
    16.7870  16.8002  17.3506  17.3598  17.7355

          k = 0.1667-0.4725-0.5000 ( 62232 PWs)   bands (ev):

   -66.1591 -66.1591 -66.1591 -66.1590 -66.1582 -66.1582 -66.1582 -66.1582
   -30.5464 -30.5464 -30.5463 -30.5463 -30.5163 -30.5163 -30.5163 -30.5163
   -30.5123 -30.5122 -30.5122 -30.5122 -30.4621 -30.4621 -30.4621 -30.4621
   -30.4482 -30.4481 -30.4481 -30.4481 -30.4389 -30.4389 -30.4389 -30.4389
   -20.3148 -20.3148 -20.3148 -20.3148 -20.3147 -20.3147 -20.3147 -20.3147
   -20.2924 -20.2924 -20.2923 -20.2923 -20.2920 -20.2920 -20.2920 -20.2920
   -20.2897 -20.2897 -20.2897 -20.2897 -20.2891 -20.2891 -20.2891 -20.2891
   -20.2867 -20.2867 -20.2867 -20.2867 -20.2865 -20.2865 -20.2865 -20.2865
   -20.2836 -20.2836 -20.2836 -20.2836 -20.2791 -20.2791 -20.2791 -20.2791
   -20.2781 -20.2781 -20.2781 -20.2781 -20.2768 -20.2768 -20.2768 -20.2768
   -20.2723 -20.2723 -20.2723 -20.2723 -20.2705 -20.2705 -20.2705 -20.2705
    -9.5087  -9.5087  -9.5087  -9.5087  -8.7895  -8.7895  -8.7876  -8.7876
    -8.7120  -8.7119  -8.7096  -8.7096  -8.2793  -8.2792  -8.2763  -8.2763
    -8.2497  -8.2497  -8.2467  -8.2467  -7.8802  -7.8802  -7.8798  -7.8798
     1.4231   1.4231   1.4240   1.4240   2.9273   2.9273   2.9323   2.9324
     3.0246   3.0246   3.0581   3.0581   3.1775   3.1775   3.2212   3.2212
     3.3099   3.3099   3.3344   3.3344   3.4745   3.4745   3.4880   3.4880
     3.6809   3.6809   3.7016   3.7016   4.3246   4.3246   4.3258   4.3258
     4.4174   4.4174   4.4306   4.4306   4.7874   4.7874   4.8865   4.8865
     5.2330   5.2330   5.3468   5.3468   5.7966   5.7966   5.8218   5.8218
     6.6516   6.6517   6.6686   6.6686   6.7865   6.7865   6.7996   6.7996
     7.2941   7.2941   7.3570   7.3570   7.3980   7.3980   7.4104   7.4105
     7.4636   7.4636   7.4910   7.4910   7.6004   7.6004   7.6315   7.6315
    11.2264  11.2264  11.2725  11.2725  11.4174  11.4174  11.4877  11.4877
    12.2105  12.2105  12.2176  12.2176  12.2472  12.2472  12.2704  12.2704
    12.8850  12.8850  12.9584  12.9584  13.3525  13.3525  13.4082  13.4082
    15.8979  15.8979  15.9074  15.9074  16.8829  16.8829  16.8834  16.8834
    17.4241  17.4242  17.4548  17.4549  17.5194

          k = 0.3333 0.0000 0.3333 ( 62316 PWs)   bands (ev):

   -66.1593 -66.1589 -66.1588 -66.1588 -66.1584 -66.1584 -66.1583 -66.1579
   -30.5430 -30.5409 -30.5399 -30.5380 -30.5304 -30.5284 -30.5264 -30.5251
   -30.4947 -30.4929 -30.4903 -30.4884 -30.4875 -30.4822 -30.4761 -30.4758
   -30.4746 -30.4670 -30.4637 -30.4588 -30.4207 -30.4180 -30.4179 -30.4153
   -20.3149 -20.3149 -20.3148 -20.3148 -20.3147 -20.3147 -20.3146 -20.3146
   -20.2930 -20.2927 -20.2926 -20.2924 -20.2921 -20.2920 -20.2917 -20.2915
   -20.2901 -20.2899 -20.2896 -20.2895 -20.2895 -20.2893 -20.2892 -20.2890
   -20.2890 -20.2887 -20.2887 -20.2886 -20.2846 -20.2843 -20.2843 -20.2838
   -20.2825 -20.2823 -20.2819 -20.2817 -20.2808 -20.2806 -20.2801 -20.2801
   -20.2790 -20.2786 -20.2785 -20.2782 -20.2766 -20.2764 -20.2759 -20.2757
   -20.2725 -20.2724 -20.2717 -20.2714 -20.2714 -20.2713 -20.2707 -20.2705
    -9.6327  -9.3852  -9.3704  -9.3467  -9.1439  -9.0957  -8.9937  -8.8968
    -8.8750  -8.7285  -8.7119  -8.7056  -8.3484  -8.2798  -8.2726  -8.2571
    -8.2393  -8.2358  -8.1606  -8.1373  -7.6672  -7.6403  -7.6363  -7.6105
     1.6535   1.6824   1.6863   1.7313   1.9695   1.9736   2.0908   2.1346
     2.1700   2.2067   2.3761   2.4934   2.9285   2.9405   2.9511   2.9912
     3.0644   3.1005   3.7002   3.7756   3.8083   3.9189   3.9309   3.9666
     4.1464   4.1521   4.1872   4.2813   4.3169   4.3278   4.4426   4.4932
     4.6822   4.7574   4.8369   4.9130   4.9158   4.9236   5.0646   5.3118
     5.3399   5.3745   5.4417   5.7126   6.0733   6.0745   6.1084   6.1600
     6.5074   6.5253   6.5434   6.6126   6.6514   6.6515   6.6864   6.6899
     6.9889   7.0709   7.0799   7.1222   7.1381   7.1612   7.2629   7.2707
     7.3025   7.4526   7.6837   7.6854   7.9206   7.9721   8.0080   8.0292
    10.6869  10.7596  10.7660  10.8371  11.0396  11.1619  12.1222  12.1336
    12.1946  12.2520  12.2574  12.3063  12.4744  12.5065  12.7320  12.7722
    12.7993  12.8869  12.9678  13.1193  13.4779  13.5348  13.5799  13.6673
    14.4622  14.7022  14.7088  15.1108  15.8994  16.5372  16.5623  16.8805
    16.8910  17.3550  17.3783  17.8347  17.8781

          k = 0.3333 0.0000-0.5000 ( 62288 PWs)   bands (ev):

   -66.1591 -66.1591 -66.1587 -66.1587 -66.1586 -66.1586 -66.1582 -66.1582
   -30.5300 -30.5300 -30.5274 -30.5274 -30.5160 -30.5160 -30.5155 -30.5155
   -30.5138 -30.5138 -30.5133 -30.5133 -30.4861 -30.4861 -30.4755 -30.4755
   -30.4727 -30.4727 -30.4620 -30.4620 -30.4194 -30.4194 -30.4166 -30.4166
   -20.3148 -20.3148 -20.3148 -20.3148 -20.3147 -20.3147 -20.3147 -20.3147
   -20.2928 -20.2928 -20.2925 -20.2925 -20.2919 -20.2919 -20.2917 -20.2917
   -20.2900 -20.2900 -20.2896 -20.2896 -20.2894 -20.2894 -20.2892 -20.2892
   -20.2889 -20.2888 -20.2887 -20.2887 -20.2845 -20.2845 -20.2841 -20.2841
   -20.2824 -20.2824 -20.2818 -20.2818 -20.2795 -20.2795 -20.2791 -20.2791
   -20.2783 -20.2783 -20.2782 -20.2782 -20.2775 -20.2775 -20.2775 -20.2775
   -20.2721 -20.2721 -20.2719 -20.2719 -20.2711 -20.2711 -20.2709 -20.2709
    -9.4570  -9.4570  -9.1903  -9.1903  -9.1256  -9.1256  -8.7691  -8.7691
    -8.7325  -8.7325  -8.6547  -8.6547  -8.5950  -8.5950  -8.5580  -8.5580
    -8.2160  -8.2160  -8.2079  -8.2079  -7.6539  -7.6539  -7.6236  -7.6236
     1.6726   1.6726   1.7154   1.7154   2.1469   2.1469   2.1924   2.1924
     2.9026   2.9026   2.9815   2.9815   3.0168   3.0168   3.1054   3.1054
     3.1664   3.1664   3.4522   3.4522   3.5959   3.5959   3.7773   3.7773
     3.7954   3.7954   4.0211   4.0211   4.1480   4.1480   4.2584   4.2584
     4.5654   4.5654   4.8171   4.8171   4.8890   4.8890   5.0010   5.0010
     5.1585   5.1585   5.5416   5.5416   6.1098   6.1098   6.1597   6.1597
     6.4908   6.4908   6.5391   6.5391   6.5994   6.5994   6.6698   6.6698
     7.1195   7.1195   7.1730   7.1730   7.2570   7.2570   7.4979   7.4979
     7.5104   7.5105   7.6875   7.6875   7.7460   7.7460   7.9806   7.9807
    10.7567  10.7567  11.5047  11.5047  11.5901  11.5901  11.6647  11.6647
[...]
   -20.4461 -20.4461 -20.4458 -20.4458 -20.4434 -20.4434 -20.4430 -20.4430
   -20.4393 -20.4392 -20.4391 -20.4391 -20.4371 -20.4371 -20.4370 -20.4370
   -20.4367 -20.4366 -20.4366 -20.4366 -20.4333 -20.4333 -20.4332 -20.4332
   -20.4299 -20.4299 -20.4298 -20.4298 -20.4284 -20.4284 -20.4282 -20.4282
    -9.6001  -9.6001  -9.4455  -9.4455  -9.0886  -9.0886  -8.8642  -8.8642
    -8.7165  -8.7165  -8.6679  -8.6679  -8.6090  -8.6090  -8.5602  -8.5601
    -8.2533  -8.2533  -8.2250  -8.2250  -7.9525  -7.9525  -7.9366  -7.9366
     1.4237   1.4237   1.4327   1.4327   2.2058   2.2058   2.3068   2.3068
     2.8944   2.8944   2.9511   2.9511   2.9865   2.9865   3.1119   3.1119
     3.1467   3.1467   3.3617   3.3617   3.3979   3.3980   3.6050   3.6050
     3.8305   3.8305   3.8927   3.8927   4.0816   4.0816   4.2609   4.2609
     4.5832   4.5832   4.6905   4.6905   4.8495   4.8495   4.8756   4.8756
     4.9781   4.9781   5.3771   5.3771   5.7019   5.7019   5.7648   5.7648
     6.5252   6.5252   6.6463   6.6463   6.6891   6.6891   6.7177   6.7178
     6.9139   6.9139   6.9772   6.9772   7.0574   7.0574   7.3945   7.3945
     7.4141   7.4141   7.4881   7.4881   7.5123   7.5123   7.7523   7.7523
    10.5969  10.5969  11.1295  11.1295  11.1785  11.1785  11.5509  11.5509
    11.7666  11.7666  12.0055  12.0055  12.4629  12.4629  12.4972  12.4972
    12.6949  12.6949  12.7944  12.7944  12.9925  12.9925  13.4573  13.4573
    15.2666  15.2666  15.7330  15.7330  16.2544  16.2544  16.4327  16.4327
    16.7448  16.7448  17.2223  17.2223  17.7517

          k = 0.3303 0.4784 0.1648 ( 62744 PWs)   bands (ev):

   -66.3089 -66.3089 -66.3084 -66.3084 -66.3081 -66.3081 -66.3077 -66.3077
   -30.6625 -30.6625 -30.6593 -30.6591 -30.6544 -30.6543 -30.6487 -30.6486
   -30.6478 -30.6477 -30.6402 -30.6402 -30.6236 -30.6235 -30.6209 -30.6208
   -30.5843 -30.5843 -30.5819 -30.5818 -30.5697 -30.5697 -30.5662 -30.5662
   -20.4738 -20.4738 -20.4737 -20.4737 -20.4735 -20.4735 -20.4734 -20.4734
   -20.4518 -20.4518 -20.4516 -20.4516 -20.4511 -20.4511 -20.4509 -20.4508
   -20.4479 -20.4479 -20.4475 -20.4475 -20.4474 -20.4474 -20.4470 -20.4470
   -20.4450 -20.4450 -20.4447 -20.4447 -20.4446 -20.4446 -20.4443 -20.4443
   -20.4394 -20.4394 -20.4390 -20.4390 -20.4386 -20.4386 -20.4384 -20.4384
   -20.4354 -20.4354 -20.4352 -20.4351 -20.4336 -20.4336 -20.4328 -20.4328
   -20.4301 -20.4301 -20.4295 -20.4295 -20.4285 -20.4285 -20.4280 -20.4280
    -9.6315  -9.6314  -9.4257  -9.4254  -9.1431  -9.1430  -8.9369  -8.9369
    -8.6833  -8.6822  -8.6018  -8.6010  -8.5605  -8.5589  -8.5519  -8.5518
    -8.2726  -8.2725  -8.2105  -8.2095  -7.9698  -7.9697  -7.9198  -7.9198
     1.4177   1.4213   1.4258   1.4289   2.1201   2.1213   2.2611   2.2652
     2.7988   2.8045   2.9794   2.9849   3.0474   3.0631   3.1131   3.1257
     3.2001   3.2068   3.3228   3.3575   3.4482   3.4615   3.6097   3.6126
     3.6663   3.6815   3.7849   3.8324   4.2125   4.2320   4.4405   4.4491
     4.5175   4.5597   4.7009   4.7289   4.7802   4.8663   4.8716   4.8884
     4.9912   5.0378   5.2350   5.2975   5.6384   5.6551   5.9402   5.9444
     6.5043   6.5250   6.5622   6.5645   6.7128   6.7129   6.8267   6.8550
     6.9527   6.9795   7.0229   7.0606   7.0996   7.1039   7.3447   7.3515
     7.3810   7.4004   7.4115   7.4356   7.4422   7.4482   7.7104   7.7145
    10.4128  10.4176  11.1766  11.1932  11.2173  11.2204  11.5998  11.6081
    11.6223  11.6367  11.8140  11.8647  12.3807  12.4270  12.5876  12.6021
    12.6874  12.7054  12.9631  13.0515  13.1364  13.1785  13.1994  13.2761
    15.4357  15.4515  15.6974  15.7086  16.1473  16.1600  16.5317  16.5542
    16.7587  16.7687  17.2880  17.3279  17.7436

          k =-0.4955 0.4784 0.1648 ( 62800 PWs)   bands (ev):

   -66.3086 -66.3086 -66.3086 -66.3086 -66.3079 -66.3079 -66.3079 -66.3079
   -30.6607 -30.6607 -30.6604 -30.6604 -30.6508 -30.6508 -30.6498 -30.6498
   -30.6435 -30.6435 -30.6428 -30.6428 -30.6055 -30.6054 -30.6045 -30.6045
   -30.6030 -30.6030 -30.6018 -30.6018 -30.5684 -30.5684 -30.5684 -30.5684
   -20.4738 -20.4738 -20.4737 -20.4737 -20.4734 -20.4734 -20.4734 -20.4734
   -20.4517 -20.4517 -20.4517 -20.4517 -20.4510 -20.4510 -20.4510 -20.4510
   -20.4476 -20.4476 -20.4476 -20.4476 -20.4473 -20.4473 -20.4473 -20.4473
   -20.4449 -20.4449 -20.4448 -20.4448 -20.4445 -20.4445 -20.4444 -20.4444
   -20.4392 -20.4392 -20.4392 -20.4392 -20.4370 -20.4370 -20.4369 -20.4369
   -20.4368 -20.4368 -20.4367 -20.4367 -20.4332 -20.4332 -20.4332 -20.4332
   -20.4299 -20.4299 -20.4298 -20.4298 -20.4283 -20.4283 -20.4283 -20.4283
    -9.5089  -9.5089  -9.5037  -9.5037  -8.8589  -8.8589  -8.8369  -8.8369
    -8.7254  -8.7254  -8.7058  -8.7058  -8.5306  -8.5306  -8.4966  -8.4965
    -8.4815  -8.4815  -8.4501  -8.4501  -7.9451  -7.9451  -7.9450  -7.9450
     1.4288   1.4288   1.4340   1.4340   2.8331   2.8332   2.9287   2.9287
     2.9628   2.9628   2.9933   2.9933   3.1004   3.1004   3.1042   3.1042
     3.2351   3.2351   3.2989   3.2989   3.3817   3.3817   3.4185   3.4185
     3.4319   3.4319   3.6983   3.6983   4.1156   4.1157   4.1767   4.1767
     4.2053   4.2053   4.2877   4.2877   4.7261   4.7261   4.8457   4.8457
     5.0364   5.0364   5.1487   5.1487   5.7075   5.7075   5.7260   5.7260
     6.5992   6.5992   6.6609   6.6609   6.6944   6.6944   6.7378   6.7378
     7.1528   7.1528   7.1805   7.1805   7.2520   7.2521   7.3142   7.3142
     7.3585   7.3585   7.4430   7.4430   7.4967   7.4968   7.5362   7.5362
    11.0882  11.0882  11.1461  11.1461  11.2000  11.2000  11.2831  11.2831
    12.0409  12.0409  12.0760  12.0760  12.1628  12.1628  12.1847  12.1847
    12.6751  12.6751  12.7462  12.7462  13.1465  13.1465  13.2066  13.2066
    15.5908  15.5908  15.6066  15.6066  16.7322  16.7322  16.8186  16.8186
    17.2750  17.2751  17.3420  17.3420  17.4112

          k =-0.4955 0.0000 0.3296 ( 62774 PWs)   bands (ev):

   -66.3087 -66.3087 -66.3083 -66.3083 -66.3082 -66.3082 -66.3078 -66.3078
   -30.6850 -30.6850 -30.6823 -30.6823 -30.6403 -30.6403 -30.6315 -30.6315
   -30.6248 -30.6248 -30.6233 -30.6233 -30.6078 -30.6078 -30.6064 -30.6064
   -30.6019 -30.6018 -30.5926 -30.5926 -30.5833 -30.5833 -30.5801 -30.5800
   -20.4737 -20.4737 -20.4737 -20.4737 -20.4735 -20.4735 -20.4735 -20.4735
   -20.4519 -20.4519 -20.4515 -20.4515 -20.4513 -20.4513 -20.4508 -20.4508
   -20.4481 -20.4481 -20.4478 -20.4478 -20.4477 -20.4477 -20.4476 -20.4476
   -20.4468 -20.4468 -20.4467 -20.4467 -20.4420 -20.4420 -20.4417 -20.4417
   -20.4380 -20.4380 -20.4380 -20.4380 -20.4373 -20.4373 -20.4370 -20.4370
   -20.4364 -20.4364 -20.4363 -20.4363 -20.4344 -20.4344 -20.4342 -20.4342
   -20.4297 -20.4297 -20.4294 -20.4294 -20.4289 -20.4289 -20.4285 -20.4285
    -9.6041  -9.6041  -9.3981  -9.3981  -9.1731  -9.1731  -8.8994  -8.8994
    -8.7220  -8.7220  -8.6488  -8.6487  -8.6071  -8.6070  -8.5866  -8.5865
    -8.2565  -8.2565  -8.2437  -8.2437  -7.8820  -7.8820  -7.8594  -7.8594
     1.3212   1.3212   1.3508   1.3508   2.1325   2.1325   2.1779   2.1779
     2.8134   2.8134   2.9193   2.9193   2.9422   2.9422   3.0892   3.0892
     3.1617   3.1617   3.4687   3.4687   3.5835   3.5835   3.6750   3.6750
     3.7241   3.7241   3.8849   3.8849   4.0548   4.0548   4.2728   4.2729
     4.5640   4.5640   4.7886   4.7886   4.9267   4.9267   4.9332   4.9332
     5.1807   5.1807   5.4489   5.4489   5.8847   5.8847   5.9707   5.9707
     6.2848   6.2848   6.3160   6.3160   6.4117   6.4117   6.4566   6.4566
     7.0081   7.0081   7.1271   7.1271   7.1935   7.1936   7.4067   7.4067
     7.4417   7.4417   7.5452   7.5452   7.5821   7.5821   7.8751   7.8751
    10.6224  10.6224  11.2516  11.2516  11.3157  11.3157  11.4621  11.4621
    11.6220  11.6220  12.1002  12.1003  12.3446  12.3446  12.4703  12.4704
    12.7169  12.7169  13.0667  13.0667  13.0978  13.0978  13.4833  13.4833
    14.6765  14.6765  15.0408  15.0408  16.1585  16.1585  16.5845  16.5845
    16.9022  16.9022  17.2987  17.2988  17.8560

          k =-0.4955-0.1595 0.3296 ( 62750 PWs)   bands (ev):

   -66.3087 -66.3087 -66.3083 -66.3083 -66.3083 -66.3083 -66.3079 -66.3078
   -30.6809 -30.6809 -30.6781 -30.6781 -30.6411 -30.6410 -30.6317 -30.6316
   -30.6277 -30.6277 -30.6251 -30.6251 -30.6076 -30.6076 -30.6062 -30.6062
   -30.6024 -30.6024 -30.5945 -30.5945 -30.5834 -30.5834 -30.5809 -30.5809
   -20.4737 -20.4737 -20.4737 -20.4737 -20.4735 -20.4735 -20.4735 -20.4735
   -20.4519 -20.4518 -20.4515 -20.4515 -20.4513 -20.4513 -20.4509 -20.4509
   -20.4478 -20.4478 -20.4478 -20.4478 -20.4476 -20.4476 -20.4475 -20.4475
   -20.4467 -20.4467 -20.4466 -20.4466 -20.4424 -20.4424 -20.4421 -20.4421
   -20.4380 -20.4380 -20.4380 -20.4380 -20.4372 -20.4372 -20.4369 -20.4369
   -20.4365 -20.4364 -20.4364 -20.4364 -20.4344 -20.4344 -20.4342 -20.4342
   -20.4297 -20.4297 -20.4295 -20.4295 -20.4289 -20.4288 -20.4285 -20.4285
    -9.5514  -9.5513  -9.3269  -9.3269  -9.1837  -9.1837  -8.8746  -8.8746
    -8.7318  -8.7317  -8.6450  -8.6449  -8.6043  -8.6043  -8.5846  -8.5846
    -8.2545  -8.2545  -8.2486  -8.2486  -7.9855  -7.9855  -7.9631  -7.9631
     1.5550   1.5550   1.5896   1.5896   2.1323   2.1323   2.1858   2.1858
     2.8730   2.8730   2.9431   2.9431   2.9638   2.9638   3.0977   3.0977
     3.1655   3.1655   3.4960   3.4960   3.6020   3.6020   3.7008   3.7009
     3.7242   3.7242   3.9293   3.9293   4.0332   4.0332   4.2796   4.2796
     4.4354   4.4354   4.5940   4.5940   4.8490   4.8490   4.8899   4.8899
     4.9339   4.9339   5.2071   5.2071   5.6308   5.6308   5.7437   5.7437
     6.4474   6.4474   6.4715   6.4715   6.5388   6.5389   6.6589   6.6589
     7.0186   7.0186   7.1232   7.1233   7.1969   7.1969   7.4062   7.4062
     7.4364   7.4364   7.5324   7.5324   7.5690   7.5690   7.8242   7.8242
    10.7280  10.7280  11.2914  11.2914  11.3803  11.3803  11.4768  11.4768
    11.6595  11.6595  12.1325  12.1325  12.3406  12.3406  12.4825  12.4825
    12.5674  12.5674  12.9386  12.9386  12.9675  12.9675  13.3649  13.3649
    15.0420  15.0420  15.4223  15.4223  16.2393  16.2393  16.5854  16.5854
    16.9107  16.9107  17.3271  17.3271  17.6932

          k =-0.4955-0.3189 0.3296 ( 62714 PWs)   bands (ev):

   -66.3086 -66.3086 -66.3084 -66.3084 -66.3082 -66.3082 -66.3079 -66.3079
   -30.6699 -30.6699 -30.6666 -30.6666 -30.6451 -30.6451 -30.6371 -30.6371
   -30.6318 -30.6318 -30.6292 -30.6292 -30.6070 -30.6070 -30.6056 -30.6056
   -30.6032 -30.6032 -30.5985 -30.5985 -30.5835 -30.5835 -30.5824 -30.5824
   -20.4737 -20.4737 -20.4737 -20.4737 -20.4735 -20.4735 -20.4735 -20.4735
   -20.4517 -20.4517 -20.4514 -20.4514 -20.4513 -20.4513 -20.4510 -20.4510
   -20.4477 -20.4477 -20.4475 -20.4475 -20.4475 -20.4475 -20.4473 -20.4473
   -20.4461 -20.4461 -20.4459 -20.4459 -20.4434 -20.4434 -20.4432 -20.4431
   -20.4380 -20.4380 -20.4380 -20.4380 -20.4371 -20.4371 -20.4369 -20.4369
   -20.4366 -20.4366 -20.4365 -20.4365 -20.4344 -20.4344 -20.4343 -20.4343
   -20.4297 -20.4296 -20.4295 -20.4295 -20.4288 -20.4288 -20.4286 -20.4286
    -9.4235  -9.4234  -9.2204  -9.2204  -9.1343  -9.1343  -8.7959  -8.7959
    -8.7650  -8.7650  -8.6390  -8.6390  -8.5910  -8.5910  -8.5676  -8.5675
    -8.2917  -8.2917  -8.2508  -8.2508  -8.2360  -8.2359  -8.1810  -8.1810
     2.0440   2.0440   2.1308   2.1308   2.2181   2.2181   2.3476   2.3476
     2.9463   2.9464   2.9844   2.9844   3.0749   3.0749   3.1286   3.1286
     3.2083   3.2083   3.5440   3.5440   3.5835   3.5835   3.6848   3.6848
     3.8048   3.8048   3.9302   3.9302   4.0636   4.0636   4.0808   4.0808
     4.2012   4.2012   4.3617   4.3617   4.4782   4.4782   4.7062   4.7062
     4.7803   4.7803   4.8827   4.8827   4.9070   4.9070   5.2078   5.2078
     6.7540   6.7540   6.8149   6.8149   6.8848   6.8848   6.9178   6.9178
     7.0459   7.0459   7.1227   7.1227   7.2188   7.2188   7.3838   7.3838
     7.4156   7.4156   7.4925   7.4925   7.5155   7.5155   7.6746   7.6746
    11.0397  11.0397  11.3606  11.3606  11.4480  11.4481  11.6272  11.6272
    11.8196  11.8196  12.1583  12.1583  12.2301  12.2301  12.3136  12.3136
    12.5326  12.5326  12.6320  12.6320  12.6481  12.6481  13.0763  13.0763
    15.8680  15.8680  16.3298  16.3298  16.4922  16.4922  16.5932  16.5933
    16.9583  16.9583  17.2980  17.2980  17.4775

          k =-0.4955 0.4784 0.3296 ( 62728 PWs)   bands (ev):

   -66.3085 -66.3085 -66.3085 -66.3085 -66.3081 -66.3081 -66.3081 -66.3081
   -30.6562 -30.6562 -30.6555 -30.6555 -30.6518 -30.6518 -30.6509 -30.6509
   -30.6317 -30.6317 -30.6313 -30.6313 -30.6064 -30.6064 -30.6057 -30.6057
   -30.6026 -30.6026 -30.6013 -30.6013 -30.5834 -30.5834 -30.5832 -30.5832
   -20.4737 -20.4737 -20.4737 -20.4737 -20.4735 -20.4735 -20.4735 -20.4735
   -20.4516 -20.4516 -20.4515 -20.4515 -20.4511 -20.4511 -20.4511 -20.4511
   -20.4476 -20.4476 -20.4475 -20.4475 -20.4473 -20.4473 -20.4473 -20.4473
   -20.4449 -20.4449 -20.4448 -20.4448 -20.4446 -20.4446 -20.4445 -20.4445
   -20.4380 -20.4380 -20.4380 -20.4380 -20.4370 -20.4370 -20.4369 -20.4369
   -20.4367 -20.4367 -20.4366 -20.4366 -20.4343 -20.4343 -20.4343 -20.4343
   -20.4296 -20.4296 -20.4296 -20.4296 -20.4287 -20.4287 -20.4287 -20.4287
    -9.3010  -9.3010  -9.2930  -9.2930  -8.9159  -8.9158  -8.8950  -8.8950
    -8.6732  -8.6732  -8.6539  -8.6539  -8.5239  -8.5239  -8.5008  -8.5008
    -8.4764  -8.4764  -8.4580  -8.4580  -8.2373  -8.2373  -8.2365  -8.2365
     2.1174   2.1174   2.1282   2.1282   2.8556   2.8556   2.9066   2.9066
     2.9945   2.9945   3.0035   3.0035   3.1031   3.1032   3.1101   3.1101
     3.3074   3.3074   3.3448   3.3448   3.4898   3.4898   3.5475   3.5475
     3.6672   3.6672   3.8008   3.8008   4.1025   4.1025   4.1138   4.1138
     4.1653   4.1653   4.2288   4.2288   4.3278   4.3278   4.4057   4.4058
     4.5504   4.5504   4.6628   4.6628   4.9078   4.9078   4.9301   4.9301
     6.8740   6.8740   6.9694   6.9694   7.0262   7.0262   7.0406   7.0406
     7.1445   7.1445   7.2087   7.2087   7.2780   7.2780   7.2949   7.2949
     7.3638   7.3638   7.4519   7.4519   7.4804   7.4804   7.5353   7.5353
    11.3449  11.3449  11.3912  11.3912  11.5226  11.5226  11.6222  11.6222
    12.0335  12.0335  12.0876  12.0876  12.1188  12.1188  12.2036  12.2036
    12.3395  12.3395  12.4826  12.4826  12.7176  12.7176  12.8034  12.8034
    16.3834  16.3834  16.4289  16.4290  16.9137  16.9137  16.9840  16.9840
    17.2504  17.2504  17.3524  17.3527  17.4075

     the Fermi energy is     8.8721 ev

!    total energy              =   -6261.11095833 Ry
     Harris-Foulkes estimate   =   -6261.11095833 Ry
     estimated scf accuracy    <          8.4E-12 Ry

     The total energy is the sum of the following terms:

     one-electron contribution =   -4751.08376592 Ry
     hartree contribution      =    2610.48795048 Ry
     xc contribution           =    -965.66776058 Ry
     ewald contribution        =   -3154.84738230 Ry
     smearing contrib. (-TS)   =      -0.00000000 Ry

     convergence has been achieved in  15 iterations

     Forces acting on atoms (cartesian axes, Ry/au):

     atom    1 type  1   force =    -0.00423840    0.00670136    0.00353760
     atom    2 type  1   force =     0.00423840   -0.00670136   -0.00353760
     atom    3 type  1   force =     0.00423840   -0.00670136    0.00353760
     atom    4 type  1   force =    -0.00423840    0.00670136   -0.00353760
     atom    5 type  1   force =     0.00423840    0.00670136   -0.00353760
     atom    6 type  1   force =    -0.00423840   -0.00670136    0.00353760
     atom    7 type  1   force =    -0.00423840   -0.00670136   -0.00353760
     atom    8 type  1   force =     0.00423840    0.00670136    0.00353760
     atom    9 type  2   force =    -0.00015336   -0.00329831   -0.00017786
     atom   10 type  2   force =     0.00015336    0.00329831    0.00017786
     atom   11 type  2   force =     0.00015336    0.00329831   -0.00017786
     atom   12 type  2   force =    -0.00015336   -0.00329831    0.00017786
     atom   13 type  2   force =     0.00015336   -0.00329831    0.00017786
     atom   14 type  2   force =    -0.00015336    0.00329831   -0.00017786
     atom   15 type  2   force =    -0.00015336    0.00329831    0.00017786
     atom   16 type  2   force =     0.00015336   -0.00329831   -0.00017786
     atom   17 type  2   force =    -0.00225012   -0.00038842   -0.00009363
     atom   18 type  2   force =     0.00225012    0.00038842    0.00009363
     atom   19 type  2   force =     0.00225012    0.00038842   -0.00009363
     atom   20 type  2   force =    -0.00225012   -0.00038842    0.00009363
     atom   21 type  2   force =     0.00225012   -0.00038842    0.00009363
     atom   22 type  2   force =    -0.00225012    0.00038842   -0.00009363
     atom   23 type  2   force =    -0.00225012    0.00038842    0.00009363
     atom   24 type  2   force =     0.00225012   -0.00038842   -0.00009363
     atom   25 type  2   force =    -0.00160233    0.00007949    0.00268824
     atom   26 type  2   force =     0.00160233   -0.00007949   -0.00268824
     atom   27 type  2   force =     0.00160233   -0.00007949    0.00268824
     atom   28 type  2   force =    -0.00160233    0.00007949   -0.00268824
     atom   29 type  2   force =     0.00160233    0.00007949   -0.00268824
     atom   30 type  2   force =    -0.00160233   -0.00007949    0.00268824
     atom   31 type  2   force =    -0.00160233   -0.00007949   -0.00268824
     atom   32 type  2   force =     0.00160233    0.00007949    0.00268824

     Total force =     0.000000     Total SCF correction =     0.000000


     Computing stress (Cartesian axis) and pressure

          total   stress  (Ry/bohr**3)                   (kbar)     P=    0.34
   0.00000344   0.00000000   0.00000000          0.51      0.00      0.00
   0.00000000  -0.00000078   0.00000000          0.00     -0.11      0.00
   0.00000000   0.00000000   0.00000418          0.00      0.00      0.61


     Writing output data file Landau_22.save
 
     init_run     :    110.35s CPU    113.80s WALL (       2 calls)
     electrons    :  13802.32s CPU  14112.77s WALL (       7 calls)
     update_pot   :    118.54s CPU    119.03s WALL (       5 calls)
     forces       :    256.91s CPU    260.33s WALL (       7 calls)
     stress       :   1990.48s CPU   2019.91s WALL (       7 calls)

     Called by init_run:
     wfcinit      :     89.38s CPU     92.48s WALL (       2 calls)
     potinit      :      9.11s CPU      9.19s WALL (       2 calls)

     Called by electrons:
     c_bands      :  12356.41s CPU  12649.80s WALL (      91 calls)
     sum_band     :   1393.10s CPU   1403.77s WALL (      91 calls)
     v_of_rho     :     11.03s CPU     11.25s WALL (      96 calls)
     mix_rho      :     24.31s CPU     29.28s WALL (      91 calls)

     Called by c_bands:
     init_us_2    :    109.76s CPU    114.39s WALL (     396 calls)
     cegterg      :  10796.03s CPU  11071.68s WALL (     182 calls)

     Called by sum_band:

     Called by *egterg:
     h_psi        :   7788.16s CPU   7846.26s WALL (     734 calls)
     g_psi        :     14.71s CPU     14.87s WALL (     548 calls)
     cdiaghg      :    129.13s CPU    129.69s WALL (     716 calls)

     Called by h_psi:
     h_psi:pot    :   7744.98s CPU   7801.53s WALL (     734 calls)
     h_psi:calbec :   1184.10s CPU   1215.54s WALL (     734 calls)
     vloc_psi     :   5339.06s CPU   5356.39s WALL (     734 calls)
     add_vuspsi   :   1221.81s CPU   1229.58s WALL (     734 calls)

     General routines
     calbec       :   1367.17s CPU   1399.16s WALL (     804 calls)
     fft          :     10.11s CPU     10.17s WALL (     442 calls)
     fftw         :   5560.15s CPU   5575.82s WALL (  236236 calls)
 
     Parallel routines
 
     PWSCF        :     4h31m CPU        4h37m WALL

 
   This run was terminated on:   0: 0:59  13Mar2020            

=------------------------------------------------------------------------------=
   JOB DONE.
=------------------------------------------------------------------------------=
