
     Program PWSCF v.6.2 (svn rev. 14038) starts on 23Mar2020 at  4: 1: 5 

     This program is part of the open-source Quantum ESPRESSO suite
     for quantum simulation of materials; please cite
         "P. Giannozzi et al., J. Phys.:Condens. Matter 21 395502 (2009);
         "P. Giannozzi et al., J. Phys.:Condens. Matter 29 465901 (2017);
          URL http://www.quantum-espresso.org", 
     in publications or presentations arising from this work. More details at
     http://www.quantum-espresso.org/quote

     Parallel version (MPI), running on    40 processors

     MPI processes distributed on     5 nodes
     K-points division:     npool     =      40
     Reading input from rscf.in

     Current dimensions of program PWSCF are:
     Max number of different atomic species (ntypx) = 10
     Max number of k-points (npk) =  40000
     Max angular momentum in pseudopotentials (lmaxx) =  3

     Subspace diagonalization in iterative solution of the eigenvalue problem:
     a serial algorithm will be used

 
     G-vector sticks info
     --------------------
     sticks:   dense  smooth     PW     G-vecs:    dense   smooth      PW
     Sum        7747    7747   2077               498127   498127   69057
 


     bravais-lattice index     =            0
     lattice parameter (alat)  =      13.8397  a.u.
     unit-cell volume          =    2804.9816 (a.u.)^3
     number of atoms/cell      =           32
     number of atomic types    =            2
     number of electrons       =       368.00
     number of Kohn-Sham states=          221
     kinetic-energy cutoff     =     120.0000  Ry
     charge density cutoff     =     480.0000  Ry
     convergence threshold     =      1.0E-08
     mixing beta               =       0.7000
     number of iterations used =            8  plain     mixing
     Exchange-correlation      = SLA PW NOGX NOGC ( 1  4  0  0 0 0)
     nstep                     =           50


     celldm(1)=  13.839685  celldm(2)=   0.000000  celldm(3)=   0.000000
     celldm(4)=   0.000000  celldm(5)=   0.000000  celldm(6)=   0.000000

     crystal axes: (cart. coord. in units of alat)
               a(1) = (   1.000000   0.000000   0.000000 )  
               a(2) = (   0.000000   1.058160   0.000000 )  
               a(3) = (   0.000000   0.000000   1.000000 )  

     reciprocal axes: (cart. coord. in units 2 pi/alat)
               b(1) = (  1.000000  0.000000  0.000000 )  
               b(2) = (  0.000000  0.945037  0.000000 )  
               b(3) = (  0.000000  0.000000  1.000000 )  


     PseudoPot. # 1 for W  read from file:
     /cluster/scratch/mnoe/QE/pps/W_ONCV_LDA-4.0.upf
     MD5 check sum: ba0307d5d4cd419d6f1d13dc49d7c13a
     Pseudo is Norm-conserving + core correction, Zval = 28.0
     Generated using ONCVPSP code by D. R. Hamann
     Using radial grid of 1380 points,  8 beta functions with: 
                l(1) =   0
                l(2) =   0
                l(3) =   1
                l(4) =   1
                l(5) =   2
                l(6) =   2
                l(7) =   3
                l(8) =   3

     PseudoPot. # 2 for O  read from file:
     /cluster/scratch/mnoe/QE/pps/O_ONCV_LDA-3.0.upf
     MD5 check sum: a1bd6164e7280c17a38c229939bfbd54
     Pseudo is Norm-conserving + core correction, Zval =  6.0
     Generated using ONCVPSP code by D. R. Hamann
     Using radial grid of  926 points,  5 beta functions with: 
                l(1) =   0
                l(2) =   0
                l(3) =   1
                l(4) =   1
                l(5) =   2

     atomic species   valence    mass     pseudopotential
        W             28.00   183.84000     W ( 1.00)
        O              6.00    15.99940     O ( 1.00)

      8 Sym. Ops. (no inversion) found ( 7 have fractional translation)



   Cartesian axes

     site n.     atom                  positions (alat units)
         1           W   tau(   1) = (   0.2212240   0.2965629  -0.0008240  )
         2           W   tau(   2) = (   0.7508240   0.7615972  -0.0287760  )
         3           W   tau(   3) = (   0.2787760   0.2325172   0.4991760  )
         4           W   tau(   4) = (   0.7491760   0.8256429   0.4712240  )
         5           W   tau(   5) = (   0.7787760   0.2965629   0.5008240  )
         6           W   tau(   6) = (   0.2491760   0.7615972   0.5287760  )
         7           W   tau(   7) = (   0.7212240   0.2325172   0.0008240  )
         8           W   tau(   8) = (   0.2508240   0.8256429   0.0287760  )
         9           O   tau(   9) = (   0.2183520   0.0083435  -0.0229600  )
        10           O   tau(  10) = (   0.7729600  -0.0083434  -0.0316480  )
        11           O   tau(  11) = (   0.2816480   0.5207366   0.4770400  )
        12           O   tau(  12) = (   0.7270400   0.5374235   0.4683520  )
        13           O   tau(  13) = (   0.7816480   0.0083435   0.5229600  )
        14           O   tau(  14) = (   0.2270400  -0.0083434   0.5316480  )
        15           O   tau(  15) = (   0.7183520   0.5207366   0.0229600  )
        16           O   tau(  16) = (   0.2729600   0.5374235   0.0316480  )
        17           O   tau(  17) = (   0.5101840   0.2284356   0.4534455  )
        18           O   tau(  18) = (   0.5020880   0.8167896   0.5465545  )
        19           O   tau(  19) = (  -0.0101840   0.3006444   0.9534456  )
        20           O   tau(  20) = (  -0.0020880   0.7704507   0.0465545  )
        21           O   tau(  21) = (   0.4898160   0.2284356   0.0465545  )
        22           O   tau(  22) = (   0.4979120   0.8167896   0.9534456  )
        23           O   tau(  23) = (   0.0101840   0.3006444   0.5465545  )
        24           O   tau(  24) = (   0.0020880   0.7704507   0.4534455  )
        25           O   tau(  25) = (   0.7034456   0.2877095   0.7479120  )
        26           O   tau(  26) = (   0.2965545   0.8297245   0.2601840  )
        27           O   tau(  27) = (   0.7965545   0.2413705   0.2479121  )
        28           O   tau(  28) = (   0.2034455   0.7575157   0.7601840  )
        29           O   tau(  29) = (   0.2965545   0.2877095   0.7520880  )
        30           O   tau(  30) = (   0.7034456   0.8297245   0.2398161  )
        31           O   tau(  31) = (   0.2034455   0.2413705   0.2520880  )
        32           O   tau(  32) = (   0.7965545   0.7575157   0.7398160  )

     number of k points=    40  gaussian smearing, width (Ry)=  0.0007
                       cart. coord. in units 2pi/alat
        k(    1) = (   0.0000000   0.0000000   0.0000000), wk =   0.0092593
        k(    2) = (   0.0000000   0.0000000   0.1666667), wk =   0.0370370
        k(    3) = (   0.0000000   0.0000000   0.3333333), wk =   0.0370370
        k(    4) = (   0.0000000   0.0000000  -0.5000000), wk =   0.0185185
        k(    5) = (   0.0000000   0.1575061   0.0000000), wk =   0.0185185
        k(    6) = (   0.0000000   0.1575061   0.1666667), wk =   0.0740741
        k(    7) = (   0.0000000   0.1575061   0.3333333), wk =   0.0740741
        k(    8) = (   0.0000000   0.1575061  -0.5000000), wk =   0.0370370
        k(    9) = (   0.0000000   0.3150122   0.0000000), wk =   0.0185185
        k(   10) = (   0.0000000   0.3150122   0.1666667), wk =   0.0740741
        k(   11) = (   0.0000000   0.3150122   0.3333333), wk =   0.0740741
        k(   12) = (   0.0000000   0.3150122  -0.5000000), wk =   0.0370370
        k(   13) = (   0.0000000  -0.4725183   0.0000000), wk =   0.0092593
        k(   14) = (   0.0000000  -0.4725183   0.1666667), wk =   0.0370370
        k(   15) = (   0.0000000  -0.4725183   0.3333333), wk =   0.0370370
        k(   16) = (   0.0000000  -0.4725183  -0.5000000), wk =   0.0185185
        k(   17) = (   0.1666667   0.0000000   0.1666667), wk =   0.0370370
        k(   18) = (   0.1666667   0.0000000   0.3333333), wk =   0.0740741
        k(   19) = (   0.1666667   0.0000000  -0.5000000), wk =   0.0370370
        k(   20) = (   0.1666667   0.1575061   0.1666667), wk =   0.0740741
        k(   21) = (   0.1666667   0.1575061   0.3333333), wk =   0.1481481
        k(   22) = (   0.1666667   0.1575061  -0.5000000), wk =   0.0740741
        k(   23) = (   0.1666667   0.3150122   0.1666667), wk =   0.0740741
        k(   24) = (   0.1666667   0.3150122   0.3333333), wk =   0.1481481
        k(   25) = (   0.1666667   0.3150122  -0.5000000), wk =   0.0740741
        k(   26) = (   0.1666667  -0.4725183   0.1666667), wk =   0.0370370
        k(   27) = (   0.1666667  -0.4725183   0.3333333), wk =   0.0740741
        k(   28) = (   0.1666667  -0.4725183  -0.5000000), wk =   0.0370370
        k(   29) = (   0.3333333   0.0000000   0.3333333), wk =   0.0370370
        k(   30) = (   0.3333333   0.0000000  -0.5000000), wk =   0.0370370
        k(   31) = (   0.3333333   0.1575061   0.3333333), wk =   0.0740741
        k(   32) = (   0.3333333   0.1575061  -0.5000000), wk =   0.0740741
        k(   33) = (   0.3333333   0.3150122   0.3333333), wk =   0.0740741
        k(   34) = (   0.3333333   0.3150122  -0.5000000), wk =   0.0740741
        k(   35) = (   0.3333333  -0.4725183   0.3333333), wk =   0.0370370
        k(   36) = (   0.3333333  -0.4725183  -0.5000000), wk =   0.0370370
        k(   37) = (  -0.5000000   0.0000000  -0.5000000), wk =   0.0092593
        k(   38) = (  -0.5000000   0.1575061  -0.5000000), wk =   0.0185185
        k(   39) = (  -0.5000000   0.3150122  -0.5000000), wk =   0.0185185
        k(   40) = (  -0.5000000  -0.4725183  -0.5000000), wk =   0.0092593

     Dense  grid:   498127 G-vectors     FFT dimensions: ( 100, 108, 100)

     Estimated max dynamical RAM per process >       2.74 GB

     Estimated total dynamical RAM >     109.40 GB

     Initial potential from superposition of free atoms

     starting charge  367.99656, renormalised to  368.00000
     Starting wfc are  232 randomized atomic wfcs

     total cpu time spent up to now is       46.6 secs

     Self-consistent Calculation

     iteration #  1     ecut=   120.00 Ry     beta= 0.70
     Davidson diagonalization with overlap
     ethr =  1.00E-02,  avg # of iterations =  4.7

     total cpu time spent up to now is      137.1 secs

     total energy              =   -6253.83404570 Ry
     Harris-Foulkes estimate   =   -6264.48743504 Ry
     estimated scf accuracy    <      13.47591932 Ry

     iteration #  2     ecut=   120.00 Ry     beta= 0.70
     Davidson diagonalization with overlap
     ethr =  3.66E-03,  avg # of iterations =  3.4

     total cpu time spent up to now is      224.6 secs

     total energy              =   -6249.99793858 Ry
     Harris-Foulkes estimate   =   -6271.15361602 Ry
     estimated scf accuracy    <      58.12378795 Ry

     iteration #  3     ecut=   120.00 Ry     beta= 0.70
     Davidson diagonalization with overlap
     ethr =  3.66E-03,  avg # of iterations =  3.3

     total cpu time spent up to now is      308.6 secs

     total energy              =   -6260.98131674 Ry
     Harris-Foulkes estimate   =   -6261.40791636 Ry
     estimated scf accuracy    <       1.36775288 Ry

     iteration #  4     ecut=   120.00 Ry     beta= 0.70
     Davidson diagonalization with overlap
     ethr =  3.72E-04,  avg # of iterations =  2.1

     total cpu time spent up to now is      377.4 secs

     total energy              =   -6261.03105578 Ry
     Harris-Foulkes estimate   =   -6261.12974325 Ry
     estimated scf accuracy    <       0.35239103 Ry

     iteration #  5     ecut=   120.00 Ry     beta= 0.70
     Davidson diagonalization with overlap
     ethr =  9.58E-05,  avg # of iterations =  5.0

     total cpu time spent up to now is      448.0 secs

     total energy              =   -6261.01063439 Ry
     Harris-Foulkes estimate   =   -6261.06100729 Ry
     estimated scf accuracy    <       0.10954154 Ry

     iteration #  6     ecut=   120.00 Ry     beta= 0.70
     Davidson diagonalization with overlap
     ethr =  2.98E-05,  avg # of iterations =  5.2

     total cpu time spent up to now is      525.3 secs

     total energy              =   -6261.03552218 Ry
     Harris-Foulkes estimate   =   -6261.03739408 Ry
     estimated scf accuracy    <       0.00595155 Ry

     iteration #  7     ecut=   120.00 Ry     beta= 0.70
     Davidson diagonalization with overlap
     ethr =  1.62E-06,  avg # of iterations =  3.6

     total cpu time spent up to now is      595.2 secs

     total energy              =   -6261.03596848 Ry
     Harris-Foulkes estimate   =   -6261.03624380 Ry
     estimated scf accuracy    <       0.00079965 Ry

     iteration #  8     ecut=   120.00 Ry     beta= 0.70
     Davidson diagonalization with overlap
     ethr =  2.17E-07,  avg # of iterations =  2.9

     total cpu time spent up to now is      665.1 secs

     total energy              =   -6261.03604918 Ry
     Harris-Foulkes estimate   =   -6261.03609329 Ry
     estimated scf accuracy    <       0.00010159 Ry

     iteration #  9     ecut=   120.00 Ry     beta= 0.70
     Davidson diagonalization with overlap
     ethr =  2.76E-08,  avg # of iterations =  2.9

     total cpu time spent up to now is      741.3 secs

     total energy              =   -6261.03607109 Ry
     Harris-Foulkes estimate   =   -6261.03607468 Ry
     estimated scf accuracy    <       0.00000787 Ry

     iteration # 10     ecut=   120.00 Ry     beta= 0.70
     Davidson diagonalization with overlap
     ethr =  2.14E-09,  avg # of iterations =  2.0

     total cpu time spent up to now is      820.2 secs

     total energy              =   -6261.03607239 Ry
     Harris-Foulkes estimate   =   -6261.03607301 Ry
     estimated scf accuracy    <       0.00000140 Ry

     iteration # 11     ecut=   120.00 Ry     beta= 0.70
     Davidson diagonalization with overlap
     ethr =  3.80E-10,  avg # of iterations =  2.1

     total cpu time spent up to now is      893.9 secs

     total energy              =   -6261.03607264 Ry
     Harris-Foulkes estimate   =   -6261.03607264 Ry
     estimated scf accuracy    <       0.00000001 Ry

     iteration # 12     ecut=   120.00 Ry     beta= 0.70
     Davidson diagonalization with overlap
     ethr =  4.02E-12,  avg # of iterations =  3.6

     total cpu time spent up to now is      990.9 secs

     End of self-consistent calculation

          k = 0.0000 0.0000 0.0000 ( 62239 PWs)   bands (ev):

   -66.1767 -66.1762 -66.1757 -66.1757 -66.1752 -66.1752 -66.1747 -66.1743
   -30.6869 -30.6862 -30.6819 -30.6819 -30.5905 -30.5905 -30.5857 -30.5850
   -30.4844 -30.4837 -30.4760 -30.4760 -30.4299 -30.4268 -30.4268 -30.4246
   -30.3926 -30.3926 -30.3897 -30.3851 -30.3768 -30.3731 -30.3731 -30.3689
   -20.3416 -20.3415 -20.3412 -20.3411 -20.3411 -20.3410 -20.3407 -20.3406
   -20.3278 -20.3278 -20.3278 -20.3277 -20.3267 -20.3265 -20.3264 -20.3264
   -20.3236 -20.3235 -20.3233 -20.3233 -20.3185 -20.3185 -20.3185 -20.3181
   -20.3094 -20.3093 -20.3091 -20.3091 -20.3079 -20.3079 -20.3079 -20.3075
   -20.3068 -20.3068 -20.3067 -20.3062 -20.3035 -20.3031 -20.3031 -20.3027
   -20.3004 -20.3003 -20.2994 -20.2994 -20.2957 -20.2957 -20.2951 -20.2949
   -20.2925 -20.2924 -20.2920 -20.2920 -20.2894 -20.2894 -20.2889 -20.2887
    -9.9923  -9.7977  -9.5836  -9.5836  -9.1909  -9.1909  -9.0216  -9.0215
    -8.6264  -8.5457  -8.5336  -8.5336  -8.1168  -8.0742  -7.9575  -7.9575
    -7.7594  -7.7484  -7.6295  -7.6295  -7.6080  -7.5368  -7.5368  -7.4742
     1.1449   1.1596   1.2211   1.2211   1.4656   1.4656   1.6230   1.6611
     2.0637   2.0923   2.0923   2.1650   2.2186   2.3188   2.6346   2.8302
     2.8784   2.8784   4.1983   4.1983   4.3466   4.3952   4.4942   4.4942
     4.6669   4.6669   4.7942   4.9872   5.2077   5.3067   5.3067   5.3460
     5.4118   5.4610   5.4610   5.5901   5.6180   5.6180   5.7481   5.7482
     5.7875   5.8238   5.8721   5.8930   5.9362   5.9362   6.0188   6.0577
     6.2307   6.4329   6.5138   6.5638   6.5638   6.5697   6.8281   6.8281
     6.8315   7.0143   7.0143   7.1017   7.1161   7.1161   7.1568   7.1846
     7.3682   7.3682   7.6541   7.6918   7.9640   8.0256   8.0256   8.1702
     9.7955   9.8839  10.1186  10.1186  10.1400  10.1796  12.1565  12.1565
    12.2454  12.2454  12.2928  12.3317  12.5907  12.6548  12.7679  12.7679
    13.0643  13.1515  13.1515  13.2143  13.5770  13.5770  13.6107  13.9237
    14.2920  14.4765  14.4765  14.8667  15.0914  15.3557  15.5341  15.8686
    15.8686  16.5712  16.7965  16.7966  17.5507

          k = 0.0000 0.0000 0.1667 ( 62262 PWs)   bands (ev):

   -66.1766 -66.1762 -66.1757 -66.1756 -66.1753 -66.1752 -66.1747 -66.1743
   -30.6862 -30.6822 -30.6801 -30.6755 -30.5969 -30.5919 -30.5901 -30.5856
   -30.4836 -30.4782 -30.4766 -30.4705 -30.4295 -30.4274 -30.4264 -30.4251
   -30.3984 -30.3939 -30.3922 -30.3869 -30.3765 -30.3732 -30.3728 -30.3692
   -20.3415 -20.3414 -20.3412 -20.3411 -20.3411 -20.3410 -20.3408 -20.3407
   -20.3278 -20.3278 -20.3277 -20.3276 -20.3268 -20.3265 -20.3265 -20.3265
   -20.3236 -20.3234 -20.3233 -20.3230 -20.3188 -20.3187 -20.3185 -20.3182
   -20.3093 -20.3092 -20.3092 -20.3090 -20.3080 -20.3079 -20.3078 -20.3075
   -20.3069 -20.3069 -20.3067 -20.3063 -20.3034 -20.3031 -20.3030 -20.3027
   -20.3003 -20.3000 -20.2995 -20.2990 -20.2959 -20.2957 -20.2953 -20.2950
   -20.2924 -20.2922 -20.2920 -20.2918 -20.2896 -20.2893 -20.2891 -20.2888
    -9.9429  -9.7443  -9.5988  -9.5009  -9.2112  -9.1132  -8.9987  -8.9703
    -8.6440  -8.5423  -8.5389  -8.5224  -8.2052  -8.0861  -8.0730  -7.9656
    -7.8649  -7.7456  -7.7446  -7.6375  -7.6039  -7.5418  -7.5344  -7.4788
     1.1792   1.2170   1.3343   1.4512   1.4697   1.6979   1.7067   1.8478
     2.0588   2.0827   2.0988   2.1978   2.3063   2.4072   2.6757   2.8682
     2.8881   2.9681   4.0791   4.1686   4.2247   4.2699   4.3760   4.4063
     4.5558   4.6644   4.6680   4.8758   5.0387   5.1781   5.2323   5.3041
     5.3353   5.4508   5.4630   5.5125   5.5657   5.6289   5.6351   5.6716
     5.7374   5.7816   5.8257   5.9082   5.9287   5.9612   5.9883   6.1796
     6.2242   6.4667   6.5374   6.5727   6.6601   6.6752   6.7127   6.8286
     6.8870   6.9682   7.0008   7.0296   7.0690   7.1062   7.1472   7.1717
     7.2473   7.2810   7.6633   7.6898   7.9588   8.0052   8.0435   8.1633
     9.9681  10.0816  10.1170  10.2277  10.3556  10.4505  12.1155  12.1746
    12.1970  12.2978  12.3558  12.3740  12.5870  12.6752  12.7286  12.8076
    12.9316  13.1325  13.1644  13.2573  13.4663  13.5820  13.6541  13.8530
    14.2744  14.4678  14.4862  14.9528  15.0614  15.3851  15.5857  15.8230
    16.1164  16.6223  16.7140  16.9938  17.6086

          k = 0.0000 0.0000 0.3333 ( 62268 PWs)   bands (ev):

   -66.1764 -66.1760 -66.1759 -66.1755 -66.1754 -66.1750 -66.1749 -66.1745
   -30.6854 -30.6831 -30.6626 -30.6580 -30.6145 -30.6097 -30.5891 -30.5865
   -30.4823 -30.4783 -30.4623 -30.4555 -30.4295 -30.4281 -30.4276 -30.4251
   -30.4132 -30.4082 -30.3913 -30.3885 -30.3758 -30.3738 -30.3720 -30.3700
   -20.3415 -20.3413 -20.3413 -20.3411 -20.3411 -20.3409 -20.3408 -20.3407
   -20.3278 -20.3278 -20.3275 -20.3273 -20.3269 -20.3267 -20.3266 -20.3265
   -20.3235 -20.3234 -20.3224 -20.3221 -20.3198 -20.3196 -20.3184 -20.3183
   -20.3093 -20.3092 -20.3089 -20.3086 -20.3081 -20.3079 -20.3077 -20.3076
   -20.3073 -20.3072 -20.3067 -20.3064 -20.3033 -20.3031 -20.3030 -20.3028
   -20.3002 -20.2997 -20.2990 -20.2981 -20.2966 -20.2959 -20.2955 -20.2952
   -20.2923 -20.2921 -20.2918 -20.2914 -20.2903 -20.2898 -20.2892 -20.2889
    -9.8311  -9.6446  -9.5955  -9.2783  -9.2701  -8.9239  -8.8955  -8.8149
    -8.7224  -8.5820  -8.5134  -8.4791  -8.4461  -8.3532  -8.1400  -8.0982
    -7.9972  -7.9875  -7.7216  -7.6595  -7.5922  -7.5556  -7.5242  -7.4912
     1.2017   1.2104   1.4804   1.4819   1.9743   1.9833   2.0503   2.0664
     2.1937   2.3480   2.3992   2.5522   2.5539   2.6577   2.7376   2.8477
     3.1004   3.1919   3.5555   3.7200   3.9126   3.9828   4.2296   4.2454
     4.3674   4.3805   4.5422   4.5516   4.8058   4.8923   4.9120   4.9440
     5.1719   5.2788   5.2913   5.3715   5.3885   5.4671   5.6195   5.7449
     5.8078   5.8557   5.9066   5.9189   5.9254   5.9585   6.1190   6.2299
     6.2723   6.3255   6.4469   6.5379   6.6583   6.7181   6.7240   6.7521
     6.8902   6.9233   7.0265   7.0539   7.0841   7.0991   7.1579   7.1628
     7.3619   7.4445   7.6078   7.6298   7.9030   7.9261   8.0772   8.1353
    10.0607  10.1083  10.5975  10.7841  10.8624  11.1005  11.8495  11.9139
    12.1391  12.3039  12.4040  12.4319  12.5182  12.5615  12.6775  12.7626
    12.9297  13.0673  13.1332  13.2221  13.3495  13.5911  13.6014  13.7276
    14.3040  14.4400  14.5993  14.9673  15.1149  15.6634  15.6837  15.8444
    16.2645  16.8423  17.1924  17.3075  17.5648

          k = 0.0000 0.0000-0.5000 ( 62264 PWs)   bands (ev):

   -66.1762 -66.1762 -66.1757 -66.1757 -66.1752 -66.1752 -66.1748 -66.1748
   -30.6843 -30.6843 -30.6386 -30.6386 -30.6339 -30.6339 -30.5877 -30.5877
   -30.4804 -30.4804 -30.4415 -30.4415 -30.4370 -30.4370 -30.4246 -30.4246
   -30.4217 -30.4217 -30.3900 -30.3899 -30.3748 -30.3748 -30.3710 -30.3710
   -20.3414 -20.3414 -20.3412 -20.3412 -20.3410 -20.3410 -20.3408 -20.3408
   -20.3278 -20.3278 -20.3272 -20.3272 -20.3270 -20.3270 -20.3266 -20.3266
   -20.3234 -20.3234 -20.3211 -20.3211 -20.3209 -20.3209 -20.3184 -20.3184
   -20.3093 -20.3092 -20.3085 -20.3085 -20.3081 -20.3081 -20.3078 -20.3077
   -20.3074 -20.3074 -20.3066 -20.3065 -20.3032 -20.3032 -20.3029 -20.3029
   -20.2999 -20.2999 -20.2977 -20.2977 -20.2969 -20.2969 -20.2954 -20.2954
   -20.2922 -20.2922 -20.2912 -20.2912 -20.2907 -20.2907 -20.2891 -20.2891
    -9.7225  -9.7225  -9.4107  -9.4107  -8.9567  -8.9567  -8.7553  -8.7553
    -8.6284  -8.6284  -8.6114  -8.6113  -8.4146  -8.4145  -8.3457  -8.3457
    -8.0157  -8.0157  -7.6902  -7.6902  -7.5742  -7.5742  -7.5080  -7.5080
     1.2069   1.2069   1.4914   1.4914   2.0419   2.0419   2.0502   2.0502
     2.7638   2.7639   2.8601   2.8601   2.9526   2.9526   3.1207   3.1207
     3.2263   3.2263   3.2651   3.2651   3.5420   3.5420   3.8155   3.8155
     3.8801   3.8801   4.4360   4.4360   4.7984   4.7984   4.9787   4.9787
     5.1054   5.1054   5.2690   5.2690   5.3853   5.3853   5.7639   5.7639
     5.8108   5.8108   5.8936   5.8936   5.9590   5.9590   6.2142   6.2142
     6.3129   6.3129   6.4367   6.4367   6.5506   6.5506   6.7555   6.7555
     6.8810   6.8810   6.9794   6.9794   7.1532   7.1532   7.4008   7.4008
     7.4218   7.4218   7.7014   7.7014   7.7537   7.7537   8.1039   8.1039
    10.0895  10.0895  11.2584  11.2584  11.4443  11.4443  11.5130  11.5130
    11.8336  11.8336  12.4355  12.4355  12.5399  12.5399  12.8195  12.8195
    12.9277  12.9277  13.1269  13.1269  13.3795  13.3795  13.6474  13.6474
    14.3862  14.3862  14.8026  14.8026  15.3755  15.3755  15.9551  15.9551
    16.5702  16.5702  17.7285  17.7285  17.9374

          k = 0.0000 0.1575 0.0000 ( 62231 PWs)   bands (ev):

   -66.1766 -66.1763 -66.1756 -66.1756 -66.1753 -66.1753 -66.1746 -66.1743
   -30.6868 -30.6862 -30.6819 -30.6819 -30.5905 -30.5905 -30.5856 -30.5850
   -30.4844 -30.4837 -30.4759 -30.4759 -30.4264 -30.4234 -30.4234 -30.4213
   -30.3927 -30.3927 -30.3901 -30.3850 -30.3804 -30.3764 -30.3764 -30.3719
   -20.3416 -20.3415 -20.3411 -20.3411 -20.3411 -20.3410 -20.3407 -20.3407
   -20.3278 -20.3278 -20.3278 -20.3277 -20.3267 -20.3265 -20.3264 -20.3264
   -20.3236 -20.3235 -20.3233 -20.3233 -20.3185 -20.3185 -20.3185 -20.3181
   -20.3093 -20.3093 -20.3091 -20.3091 -20.3076 -20.3076 -20.3076 -20.3072
   -20.3067 -20.3067 -20.3067 -20.3063 -20.3038 -20.3034 -20.3034 -20.3030
   -20.3004 -20.3003 -20.2994 -20.2994 -20.2957 -20.2957 -20.2951 -20.2949
   -20.2925 -20.2924 -20.2920 -20.2920 -20.2894 -20.2894 -20.2889 -20.2887
    -9.9752  -9.8076  -9.5758  -9.5758  -9.1878  -9.1878  -9.0210  -9.0205
    -8.5638  -8.4969  -8.4849  -8.4849  -8.1170  -8.0742  -7.9582  -7.9582
    -7.7588  -7.7511  -7.6838  -7.6340  -7.6340  -7.6151  -7.6151  -7.5638
     1.1456   1.1579   1.2206   1.2206   1.4647   1.4647   1.6401   1.6616
     2.2100   2.2254   2.2890   2.2890   2.3130   2.3915   2.6995   2.9154
     2.9510   2.9510   4.0802   4.0802   4.1402   4.1777   4.4869   4.4869
     4.6587   4.6587   4.6790   5.0480   5.2302   5.2758   5.2758   5.3308
     5.3875   5.3875   5.4408   5.5283   5.5283   5.6431   5.6886   5.6886
     5.7268   5.7732   5.8274   5.9204   5.9649   5.9649   6.0171   6.0847
     6.1478   6.3995   6.4778   6.6142   6.6454   6.6454   6.8214   6.8214
     6.8774   6.9311   6.9311   6.9579   7.1235   7.1235   7.1509   7.1662
     7.3577   7.3577   7.6551   7.6873   7.9459   8.0129   8.0129   8.1011
     9.8346   9.8898  10.2671  10.2671  10.2936  10.3322  12.0844  12.0844
    12.1913  12.2468  12.2468  12.2770  12.5266  12.5998  12.7607  12.7607
    13.0635  13.1408  13.1408  13.3071  13.5793  13.5793  13.6791  13.8707
    14.3928  14.6350  14.6350  14.9327  15.3432  15.4414  15.5671  15.8549
    15.8549  16.3958  16.8826  16.8826  17.4406

          k = 0.0000 0.1575 0.1667 ( 62237 PWs)   bands (ev):

   -66.1766 -66.1762 -66.1757 -66.1756 -66.1753 -66.1752 -66.1747 -66.1744
   -30.6862 -30.6822 -30.6801 -30.6755 -30.5969 -30.5919 -30.5901 -30.5856
   -30.4836 -30.4782 -30.4766 -30.4704 -30.4260 -30.4240 -30.4230 -30.4218
   -30.3985 -30.3941 -30.3924 -30.3869 -30.3801 -30.3766 -30.3761 -30.3723
   -20.3415 -20.3414 -20.3412 -20.3411 -20.3411 -20.3410 -20.3408 -20.3407
   -20.3278 -20.3278 -20.3277 -20.3276 -20.3267 -20.3265 -20.3265 -20.3265
   -20.3236 -20.3234 -20.3233 -20.3230 -20.3188 -20.3187 -20.3185 -20.3182
   -20.3093 -20.3092 -20.3091 -20.3090 -20.3077 -20.3077 -20.3075 -20.3072
   -20.3069 -20.3068 -20.3067 -20.3063 -20.3037 -20.3034 -20.3034 -20.3030
   -20.3003 -20.3000 -20.2995 -20.2990 -20.2959 -20.2957 -20.2953 -20.2950
   -20.2924 -20.2923 -20.2920 -20.2918 -20.2896 -20.2893 -20.2891 -20.2888
    -9.9258  -9.7538  -9.5907  -9.4923  -9.2083  -9.1093  -8.9980  -8.9690
    -8.5815  -8.4946  -8.4913  -8.4753  -8.2045  -8.0869  -8.0726  -7.9664
    -7.8660  -7.7493  -7.7452  -7.6798  -7.6412  -7.6196  -7.6171  -7.5657
     1.1790   1.2165   1.3340   1.4515   1.4691   1.6999   1.7258   1.8592
     2.2148   2.2755   2.2919   2.3151   2.3966   2.4014   2.7434   2.9380
     2.9757   3.0394   4.0180   4.0580   4.1506   4.2036   4.2283   4.2645
     4.5379   4.6092   4.6491   4.8655   5.0456   5.1548   5.1968   5.2803
     5.3412   5.3772   5.4293   5.4777   5.5208   5.5626   5.5946   5.6252
     5.6730   5.7272   5.8055   5.8289   5.9461   5.9609   6.0058   6.0930
     6.2481   6.4299   6.5503   6.6336   6.6534   6.6657   6.7843   6.8476
     6.8733   6.9081   6.9376   7.0225   7.0467   7.1088   7.1595   7.1710
     7.2289   7.2938   7.6624   7.6871   7.9446   7.9931   8.0194   8.0977
    10.0471  10.1090  10.2668  10.3455  10.4686  10.5625  12.0529  12.1305
    12.1867  12.2155  12.3031  12.3502  12.5575  12.5980  12.7265  12.7889
    12.9155  13.1186  13.1525  13.3039  13.4689  13.5838  13.6898  13.8169
    14.4044  14.6285  14.6857  15.0028  15.3696  15.4421  15.6050  15.8191
    16.0968  16.5358  16.7065  17.0567  17.4939

          k = 0.0000 0.1575 0.3333 ( 62284 PWs)   bands (ev):

   -66.1764 -66.1760 -66.1759 -66.1755 -66.1754 -66.1750 -66.1749 -66.1745
   -30.6854 -30.6831 -30.6626 -30.6580 -30.6145 -30.6097 -30.5891 -30.5865
   -30.4823 -30.4783 -30.4622 -30.4553 -30.4266 -30.4249 -30.4245 -30.4218
   -30.4126 -30.4079 -30.3914 -30.3886 -30.3793 -30.3773 -30.3753 -30.3732
   -20.3415 -20.3414 -20.3412 -20.3412 -20.3410 -20.3410 -20.3408 -20.3408
   -20.3278 -20.3278 -20.3275 -20.3273 -20.3269 -20.3267 -20.3266 -20.3265
   -20.3235 -20.3234 -20.3224 -20.3221 -20.3198 -20.3196 -20.3184 -20.3183
   -20.3093 -20.3092 -20.3088 -20.3086 -20.3079 -20.3077 -20.3075 -20.3073
   -20.3073 -20.3070 -20.3066 -20.3064 -20.3036 -20.3035 -20.3033 -20.3031
   -20.3002 -20.2997 -20.2990 -20.2981 -20.2966 -20.2959 -20.2955 -20.2952
   -20.2923 -20.2921 -20.2918 -20.2914 -20.2903 -20.2898 -20.2892 -20.2889
    -9.8161  -9.6357  -9.6015  -9.2765  -9.2583  -8.9217  -8.8900  -8.8106
    -8.6690  -8.5466  -8.4708  -8.4394  -8.4330  -8.3483  -8.1399  -8.0979
    -7.9977  -7.9878  -7.7231  -7.6693  -7.6621  -7.6330  -7.6079  -7.5765
     1.2015   1.2101   1.4800   1.4822   2.0470   2.1192   2.2251   2.2476
     2.3003   2.3827   2.4249   2.5610   2.5861   2.6513   2.8084   2.9189
     3.1802   3.2530   3.5565   3.7159   3.8813   3.9517   4.1868   4.1997
     4.2867   4.3462   4.4398   4.4998   4.7153   4.8192   4.8602   4.8836
     5.0928   5.2713   5.2881   5.3250   5.3662   5.4201   5.5182   5.6336
     5.7585   5.7862   5.8216   5.8484   5.9107   5.9439   6.0341   6.0908
     6.3301   6.3634   6.4543   6.6068   6.6960   6.7204   6.7743   6.8027
     6.8646   6.9266   7.0112   7.0368   7.0853   7.0918   7.1679   7.1822
     7.3812   7.4656   7.6056   7.6314   7.9011   7.9189   8.0370   8.0766
    10.2213  10.2617  10.6250  10.8103  10.9514  11.1531  11.8444  11.9205
    12.1536  12.2489  12.3233  12.4173  12.4651  12.5392  12.6498  12.6767
    12.8853  13.0399  13.1209  13.2079  13.2960  13.5683  13.6032  13.7326
    14.4867  14.6069  14.8714  15.1259  15.3498  15.6904  15.7011  15.8720
    16.3096  16.8125  17.0085  17.3768  17.5765

          k = 0.0000 0.1575-0.5000 ( 62234 PWs)   bands (ev):

   -66.1761 -66.1761 -66.1758 -66.1758 -66.1751 -66.1751 -66.1748 -66.1748
   -30.6843 -30.6843 -30.6386 -30.6386 -30.6339 -30.6339 -30.5877 -30.5877
   -30.4804 -30.4804 -30.4411 -30.4411 -30.4360 -30.4360 -30.4218 -30.4218
   -30.4191 -30.4191 -30.3901 -30.3901 -30.3783 -30.3783 -30.3743 -30.3743
   -20.3414 -20.3414 -20.3413 -20.3413 -20.3409 -20.3409 -20.3409 -20.3408
   -20.3278 -20.3278 -20.3272 -20.3272 -20.3270 -20.3270 -20.3266 -20.3266
   -20.3234 -20.3234 -20.3211 -20.3211 -20.3209 -20.3209 -20.3184 -20.3184
   -20.3092 -20.3092 -20.3084 -20.3084 -20.3081 -20.3081 -20.3076 -20.3075
   -20.3072 -20.3072 -20.3065 -20.3065 -20.3035 -20.3035 -20.3032 -20.3032
   -20.3000 -20.2999 -20.2977 -20.2977 -20.2969 -20.2969 -20.2954 -20.2954
   -20.2922 -20.2922 -20.2912 -20.2912 -20.2907 -20.2907 -20.2891 -20.2891
    -9.7111  -9.7111  -9.4118  -9.4118  -8.9335  -8.9335  -8.7515  -8.7515
    -8.6124  -8.6124  -8.5860  -8.5860  -8.3941  -8.3941  -8.3286  -8.3286
    -8.0159  -8.0159  -7.6921  -7.6921  -7.6514  -7.6514  -7.5924  -7.5924
     1.2067   1.2067   1.4915   1.4915   2.1962   2.1962   2.2728   2.2728
     2.8272   2.8272   2.8652   2.8652   2.9502   2.9502   3.1241   3.1241
     3.2381   3.2381   3.2772   3.2772   3.5634   3.5634   3.8312   3.8313
     3.9321   3.9321   4.2729   4.2729   4.6635   4.6635   4.8480   4.8481
     5.0914   5.0915   5.2651   5.2651   5.3475   5.3475   5.6180   5.6180
     5.7795   5.7795   5.8014   5.8014   5.9373   5.9373   6.0575   6.0575
     6.3489   6.3489   6.5223   6.5223   6.5875   6.5875   6.8057   6.8057
     6.9309   6.9309   6.9580   6.9580   7.1426   7.1426   7.4042   7.4042
     7.4202   7.4202   7.7115   7.7116   7.7605   7.7605   8.0540   8.0540
    10.2505  10.2505  11.2742  11.2742  11.4680  11.4680  11.5598  11.5598
    11.8599  11.8599  12.3451  12.3451  12.5090  12.5090  12.7619  12.7619
    12.9131  12.9131  13.0409  13.0409  13.3615  13.3615  13.6478  13.6478
    14.5656  14.5656  15.1010  15.1010  15.4548  15.4548  15.9720  15.9720
    16.6055  16.6055  17.6216  17.6216  17.8446

          k = 0.0000 0.3150 0.0000 ( 62175 PWs)   bands (ev):

   -66.1765 -66.1763 -66.1756 -66.1756 -66.1753 -66.1753 -66.1746 -66.1744
   -30.6867 -30.6864 -30.6819 -30.6819 -30.5905 -30.5905 -30.5855 -30.5852
   -30.4842 -30.4838 -30.4759 -30.4759 -30.4168 -30.4142 -30.4142 -30.4122
   -30.3937 -30.3937 -30.3926 -30.3901 -30.3848 -30.3848 -30.3847 -30.3789
   -20.3415 -20.3415 -20.3411 -20.3411 -20.3411 -20.3411 -20.3407 -20.3407
   -20.3278 -20.3278 -20.3278 -20.3277 -20.3267 -20.3266 -20.3265 -20.3264
   -20.3236 -20.3236 -20.3233 -20.3233 -20.3185 -20.3185 -20.3184 -20.3182
   -20.3093 -20.3092 -20.3091 -20.3091 -20.3070 -20.3070 -20.3069 -20.3066
   -20.3065 -20.3064 -20.3064 -20.3063 -20.3046 -20.3043 -20.3042 -20.3039
   -20.3004 -20.3004 -20.2994 -20.2994 -20.2957 -20.2957 -20.2951 -20.2950
   -20.2925 -20.2924 -20.2920 -20.2920 -20.2894 -20.2894 -20.2889 -20.2888
    -9.9321  -9.8363  -9.5609  -9.5609  -9.1817  -9.1817  -9.0198  -9.0189
    -8.3975  -8.3441  -8.3393  -8.3393  -8.1232  -8.0719  -7.9667  -7.9667
    -7.8808  -7.8246  -7.8246  -7.7964  -7.7570  -7.7488  -7.6291  -7.6291
     1.1473   1.1540   1.2198   1.2198   1.4636   1.4636   1.6567   1.6624
     2.2436   2.2924   2.6410   2.7752   2.7752   2.8775   2.9430   3.2002
     3.2002   3.2230   3.7662   3.7685   3.7954   3.7954   4.2334   4.4711
     4.4711   4.6070   4.6070   4.7665   4.7665   4.9384   5.1475   5.2896
     5.3572   5.3572   5.3679   5.4815   5.4815   5.4896   5.6905   5.7015
     5.7015   5.7979   5.8107   5.9276   5.9832   5.9832   6.0411   6.0633
     6.2702   6.3189   6.3651   6.6060   6.6260   6.6260   6.8368   6.8368
     6.8671   6.8672   6.8865   6.9553   7.2155   7.2167   7.2328   7.2328
     7.3765   7.3765   7.6482   7.6796   7.8440   7.9046   7.9088   7.9088
     9.8782   9.8946  10.6686  10.6716  10.6716  10.8063  11.7969  11.7969
    11.8241  12.0346  12.2560  12.2560  12.4293  12.5846  12.7608  12.7608
    13.0949  13.1680  13.1680  13.3179  13.4646  13.4646  13.6889  13.7608
    14.8576  15.0538  15.0538  15.2480  15.3039  15.5996  15.8034  15.8034
    16.0075  16.3715  16.9384  17.2039  17.2039

          k = 0.0000 0.3150 0.1667 ( 62260 PWs)   bands (ev):

   -66.1765 -66.1763 -66.1756 -66.1755 -66.1754 -66.1753 -66.1746 -66.1744
   -30.6862 -30.6822 -30.6801 -30.6755 -30.5969 -30.5919 -30.5901 -30.5856
   -30.4836 -30.4781 -30.4765 -30.4703 -30.4164 -30.4150 -30.4139 -30.4130
   -30.3987 -30.3956 -30.3934 -30.3898 -30.3872 -30.3854 -30.3845 -30.3797
   -20.3415 -20.3415 -20.3411 -20.3411 -20.3411 -20.3410 -20.3407 -20.3407
   -20.3278 -20.3278 -20.3277 -20.3276 -20.3267 -20.3266 -20.3265 -20.3265
   -20.3236 -20.3234 -20.3233 -20.3230 -20.3188 -20.3187 -20.3185 -20.3183
   -20.3093 -20.3091 -20.3091 -20.3090 -20.3072 -20.3071 -20.3068 -20.3067
   -20.3066 -20.3064 -20.3063 -20.3063 -20.3046 -20.3043 -20.3042 -20.3039
   -20.3003 -20.3000 -20.2995 -20.2990 -20.2959 -20.2957 -20.2953 -20.2951
   -20.2924 -20.2923 -20.2920 -20.2918 -20.2896 -20.2893 -20.2891 -20.2888
    -9.8835  -9.7810  -9.5751  -9.4760  -9.2027  -9.1017  -8.9970  -8.9668
    -8.4140  -8.3534  -8.3464  -8.3327  -8.2023  -8.0921  -8.0715  -7.9753
    -7.8883  -7.8696  -7.8330  -7.8159  -7.8040  -7.7445  -7.7267  -7.6370
     1.1782   1.2157   1.3331   1.4516   1.4682   1.7003   1.7427   1.8714
     2.3313   2.3805   2.6501   2.7434   2.7886   2.9143   2.9505   3.1774
     3.2727   3.2822   3.7554   3.7725   3.8123   3.8641   4.1583   4.2083
     4.2803   4.5152   4.5808   4.6585   4.7683   4.9371   5.0316   5.1281
     5.1763   5.2554   5.3493   5.3967   5.4288   5.5005   5.5475   5.6191
     5.6479   5.6613   5.7557   5.8006   5.8277   5.9575   5.9985   6.0660
     6.3165   6.4191   6.4798   6.5987   6.6391   6.6847   6.7920   6.8374
     6.8533   6.9845   6.9986   7.0312   7.1190   7.1612   7.2292   7.2389
     7.3272   7.3597   7.6523   7.6813   7.8473   7.8974   7.8986   7.9156
    10.1064  10.1587  10.6726  10.7120  10.8199  10.9341  11.7867  11.8449
    11.8829  12.0777  12.2020  12.3167  12.4803  12.6160  12.6956  12.7867
    12.9471  13.1037  13.1764  13.2715  13.3435  13.4678  13.6498  13.7392
    14.9225  15.0484  15.1595  15.2928  15.3628  15.6855  15.7775  16.0206
    16.1567  16.3456  16.9660  17.0230  17.3290

          k = 0.0000 0.3150 0.3333 ( 62269 PWs)   bands (ev):

   -66.1763 -66.1761 -66.1758 -66.1756 -66.1753 -66.1751 -66.1748 -66.1746
   -30.6854 -30.6831 -30.6626 -30.6580 -30.6145 -30.6097 -30.5891 -30.5865
   -30.4822 -30.4782 -30.4621 -30.4551 -30.4209 -30.4182 -30.4153 -30.4129
   -30.4089 -30.4061 -30.3925 -30.3897 -30.3889 -30.3866 -30.3836 -30.3809
   -20.3414 -20.3414 -20.3412 -20.3412 -20.3410 -20.3410 -20.3408 -20.3408
   -20.3278 -20.3278 -20.3275 -20.3273 -20.3269 -20.3267 -20.3266 -20.3265
   -20.3235 -20.3234 -20.3224 -20.3221 -20.3198 -20.3196 -20.3184 -20.3183
   -20.3093 -20.3092 -20.3088 -20.3086 -20.3077 -20.3074 -20.3071 -20.3068
   -20.3066 -20.3064 -20.3063 -20.3063 -20.3045 -20.3043 -20.3042 -20.3040
   -20.3002 -20.2997 -20.2990 -20.2981 -20.2966 -20.2959 -20.2955 -20.2952
   -20.2923 -20.2921 -20.2918 -20.2914 -20.2903 -20.2898 -20.2892 -20.2889
    -9.7833  -9.6223  -9.6126  -9.2728  -9.2364  -8.9189  -8.8776  -8.8037
    -8.5552  -8.4762  -8.3542  -8.3472  -8.3169  -8.3056  -8.1375  -8.0959
    -8.0012  -7.9915  -7.8673  -7.8330  -7.8203  -7.7890  -7.7206  -7.6589
     1.2009   1.2094   1.4797   1.4820   2.0877   2.2760   2.3174   2.4739
     2.5788   2.6262   2.6886   2.7179   2.8227   2.8928   3.0395   3.1492
     3.4224   3.4272   3.5547   3.6885   3.7651   3.7753   3.8968   3.9717
     4.1274   4.2787   4.3375   4.4481   4.5710   4.6489   4.7032   4.7528
     4.8832   4.9781   5.0346   5.2004   5.3209   5.3335   5.3675   5.4145
     5.4983   5.5061   5.6487   5.7836   5.9126   5.9289   5.9935   6.0644
     6.3820   6.4140   6.5277   6.6014   6.6701   6.7399   6.8034   6.8833
     6.9431   7.0010   7.0468   7.0946   7.1609   7.1859   7.2395   7.2675
     7.4679   7.5236   7.5961   7.6360   7.8385   7.8506   7.8945   7.9079
    10.5743  10.6530  10.7170  10.8882  11.2151  11.3620  11.7350  11.8942
    11.9239  12.1062  12.1739  12.2575  12.4684  12.4720  12.5264  12.7147
    12.8471  12.8834  13.0615  13.1299  13.2237  13.4846  13.5341  13.6492
    14.9772  15.0271  15.3199  15.5519  15.6786  15.8092  15.9802  16.2520
    16.4919  16.6876  16.7162  17.1642  17.5187

          k = 0.0000 0.3150-0.5000 ( 62306 PWs)   bands (ev):

   -66.1761 -66.1761 -66.1758 -66.1758 -66.1751 -66.1751 -66.1749 -66.1749
   -30.6843 -30.6843 -30.6386 -30.6386 -30.6339 -30.6339 -30.5877 -30.5877
   -30.4803 -30.4803 -30.4404 -30.4404 -30.4346 -30.4346 -30.4134 -30.4134
   -30.4112 -30.4112 -30.3912 -30.3912 -30.3878 -30.3878 -30.3823 -30.3823
   -20.3413 -20.3413 -20.3413 -20.3413 -20.3409 -20.3409 -20.3409 -20.3409
   -20.3278 -20.3278 -20.3272 -20.3272 -20.3270 -20.3270 -20.3266 -20.3266
   -20.3234 -20.3234 -20.3211 -20.3211 -20.3209 -20.3209 -20.3184 -20.3184
   -20.3092 -20.3092 -20.3083 -20.3083 -20.3080 -20.3080 -20.3070 -20.3070
   -20.3064 -20.3064 -20.3064 -20.3064 -20.3044 -20.3044 -20.3041 -20.3041
   -20.3000 -20.3000 -20.2977 -20.2977 -20.2969 -20.2969 -20.2954 -20.2954
   -20.2922 -20.2922 -20.2912 -20.2912 -20.2907 -20.2907 -20.2891 -20.2891
    -9.6884  -9.6883  -9.4143  -9.4143  -8.8935  -8.8935  -8.7446  -8.7445
    -8.5704  -8.5703  -8.5421  -8.5421  -8.3031  -8.3031  -8.2522  -8.2522
    -8.0190  -8.0190  -7.8505  -7.8505  -7.8064  -7.8064  -7.6894  -7.6894
     1.2061   1.2061   1.4916   1.4916   2.6181   2.6181   2.7795   2.7795
     2.8809   2.8809   2.9534   2.9534   3.0095   3.0095   3.1483   3.1483
     3.2531   3.2531   3.3464   3.3464   3.5972   3.5972   3.7747   3.7747
     4.0031   4.0031   4.1088   4.1088   4.3622   4.3622   4.5166   4.5166
     4.9802   4.9802   5.0985   5.0985   5.1800   5.1800   5.3352   5.3352
     5.4101   5.4101   5.7642   5.7642   5.9313   5.9314   6.0208   6.0208
     6.3990   6.3990   6.5840   6.5840   6.6278   6.6278   6.7646   6.7646
     7.1085   7.1085   7.1510   7.1510   7.1873   7.1873   7.3979   7.3979
     7.4322   7.4322   7.7179   7.7179   7.7462   7.7462   7.8962   7.8962
    10.6683  10.6683  11.3072  11.3072  11.4963  11.4963  11.6915  11.6915
    11.9639  11.9639  12.0463  12.0463  12.4834  12.4834  12.5367  12.5367
    12.7882  12.7882  12.9632  12.9632  13.3534  13.3534  13.5375  13.5375
    14.9984  14.9984  15.4975  15.4975  16.0023  16.0023  16.1426  16.1426
    16.7100  16.7100  17.3419  17.3420  17.5088

          k = 0.0000-0.4725 0.0000 ( 62212 PWs)   bands (ev):

   -66.1764 -66.1764 -66.1755 -66.1755 -66.1754 -66.1754 -66.1745 -66.1745
   -30.6865 -30.6865 -30.6819 -30.6819 -30.5905 -30.5905 -30.5853 -30.5853
   -30.4840 -30.4840 -30.4758 -30.4758 -30.4040 -30.4040 -30.4036 -30.4036
   -30.4007 -30.4007 -30.3994 -30.3994 -30.3894 -30.3894 -30.3835 -30.3835
   -20.3415 -20.3415 -20.3411 -20.3411 -20.3411 -20.3411 -20.3407 -20.3407
   -20.3278 -20.3278 -20.3277 -20.3277 -20.3266 -20.3266 -20.3265 -20.3265
   -20.3236 -20.3236 -20.3233 -20.3233 -20.3185 -20.3185 -20.3183 -20.3183
   -20.3093 -20.3093 -20.3091 -20.3091 -20.3069 -20.3069 -20.3065 -20.3065
   -20.3058 -20.3057 -20.3055 -20.3055 -20.3054 -20.3054 -20.3051 -20.3051
   -20.3004 -20.3004 -20.2994 -20.2994 -20.2957 -20.2957 -20.2950 -20.2950
   -20.2924 -20.2924 -20.2920 -20.2920 -20.2894 -20.2894 -20.2888 -20.2888
    -9.8806  -9.8806  -9.5538  -9.5538  -9.1788  -9.1788  -9.0187  -9.0187
    -8.1996  -8.1996  -8.1169  -8.1169  -8.1162  -8.1162  -8.0906  -8.0906
    -8.0428  -8.0428  -7.9302  -7.9302  -7.7538  -7.7538  -7.6295  -7.6295
     1.1500   1.1500   1.2194   1.2194   1.4633   1.4633   1.6619   1.6619
     2.2680   2.2680   3.0099   3.0099   3.0791   3.0791   3.4772   3.4772
     3.5685   3.5685   3.5844   3.5844   3.7052   3.7052   3.9780   3.9780
     4.0241   4.0241   4.4964   4.4964   4.6578   4.6578   5.2337   5.2337
     5.4026   5.4026   5.4598   5.4598   5.4684   5.4684   5.7210   5.7210
     5.7218   5.7218   5.8894   5.8894   5.9814   5.9814   6.0678   6.0678
     6.2905   6.2905   6.4039   6.4039   6.5652   6.5652   6.8083   6.8083
     6.8508   6.8508   6.9205   6.9205   7.3139   7.3139   7.4223   7.4223
     7.5440   7.5440   7.6199   7.6199   7.7309   7.7309   7.7359   7.7359
     9.8931   9.8931  11.0601  11.0601  11.1252  11.1252  11.4543  11.4543
    11.5768  11.5768  12.2630  12.2630  12.5058  12.5058  12.7672  12.7672
    13.2063  13.2063  13.2781  13.2781  13.2933  13.2933  13.6832  13.6832
    15.1899  15.1899  15.3087  15.3087  15.6247  15.6247  15.7436  15.7436
    16.1709  16.1709  17.4243  17.4243  17.7113

          k = 0.0000-0.4725 0.1667 ( 62246 PWs)   bands (ev):

   -66.1764 -66.1764 -66.1756 -66.1755 -66.1754 -66.1753 -66.1745 -66.1745
   -30.6862 -30.6822 -30.6801 -30.6755 -30.5969 -30.5919 -30.5901 -30.5856
   -30.4835 -30.4781 -30.4765 -30.4703 -30.4065 -30.4039 -30.4038 -30.4032
   -30.4028 -30.4009 -30.3996 -30.3990 -30.3928 -30.3890 -30.3874 -30.3839
   -20.3415 -20.3415 -20.3411 -20.3411 -20.3411 -20.3411 -20.3407 -20.3407
   -20.3278 -20.3278 -20.3277 -20.3276 -20.3267 -20.3266 -20.3265 -20.3265
   -20.3236 -20.3234 -20.3233 -20.3230 -20.3189 -20.3186 -20.3185 -20.3183
   -20.3093 -20.3091 -20.3091 -20.3090 -20.3071 -20.3069 -20.3068 -20.3066
   -20.3057 -20.3057 -20.3055 -20.3054 -20.3054 -20.3053 -20.3052 -20.3051
   -20.3003 -20.3000 -20.2995 -20.2990 -20.2959 -20.2957 -20.2952 -20.2951
   -20.2924 -20.2923 -20.2920 -20.2918 -20.2896 -20.2893 -20.2891 -20.2888
    -9.8462  -9.8108  -9.5677  -9.4683  -9.1999  -9.0980  -8.9965  -8.9658
    -8.2601  -8.2034  -8.1633  -8.1380  -8.1332  -8.1168  -8.1043  -8.0934
    -8.0760  -8.0359  -7.9928  -7.9370  -7.8553  -7.7450  -7.7365  -7.6374
     1.1777   1.2153   1.3327   1.4515   1.4679   1.7003   1.7467   1.8747
     2.3536   2.3585   3.0073   3.0124   3.1108   3.1377   3.4729   3.4818
     3.5148   3.5683   3.5844   3.6353   3.7130   3.7871   3.9549   4.0025
     4.0381   4.0465   4.2342   4.2398   4.5328   4.6322   5.0999   5.1505
     5.2081   5.2528   5.3636   5.3934   5.4036   5.5567   5.5635   5.5822
     5.6449   5.6525   5.6652   5.7696   5.7830   5.9386   5.9836   6.0845
     6.3380   6.4492   6.4527   6.5320   6.5622   6.6664   6.7672   6.7947
     6.8616   6.9900   7.0389   7.0600   7.1272   7.2042   7.4270   7.4320
     7.5347   7.5555   7.6221   7.6332   7.7217   7.7287   7.7384   7.7593
    10.1166  10.1737  11.0626  11.1240  11.1649  11.2478  11.4528  11.5513
    11.5797  11.6748  12.2043  12.3199  12.5662  12.5905  12.6472  12.7923
    13.0576  13.1601  13.1707  13.1771  13.2851  13.2965  13.6222  13.6909
    15.1538  15.2840  15.3261  15.4909  15.7162  15.7169  15.7987  15.9272
    16.2337  16.2362  17.3448  17.3846  17.5416

          k = 0.0000-0.4725 0.3333 ( 62268 PWs)   bands (ev):

   -66.1762 -66.1762 -66.1758 -66.1756 -66.1753 -66.1752 -66.1747 -66.1747
   -30.6854 -30.6831 -30.6626 -30.6580 -30.6145 -30.6097 -30.5891 -30.5865
   -30.4822 -30.4782 -30.4620 -30.4550 -30.4189 -30.4146 -30.4032 -30.4023
   -30.4023 -30.4013 -30.4002 -30.3980 -30.3976 -30.3934 -30.3880 -30.3851
   -20.3414 -20.3414 -20.3412 -20.3412 -20.3410 -20.3410 -20.3408 -20.3408
   -20.3278 -20.3278 -20.3275 -20.3273 -20.3269 -20.3267 -20.3266 -20.3265
   -20.3235 -20.3234 -20.3224 -20.3221 -20.3198 -20.3196 -20.3184 -20.3183
   -20.3092 -20.3092 -20.3088 -20.3086 -20.3076 -20.3073 -20.3069 -20.3067
   -20.3056 -20.3056 -20.3055 -20.3054 -20.3054 -20.3052 -20.3052 -20.3051
   -20.3002 -20.2997 -20.2990 -20.2981 -20.2966 -20.2959 -20.2956 -20.2952
   -20.2923 -20.2921 -20.2918 -20.2914 -20.2903 -20.2898 -20.2892 -20.2889
    -9.7644  -9.6291  -9.6075  -9.2709  -9.2265  -8.9180  -8.8712  -8.8008
    -8.5171  -8.4332  -8.2661  -8.2402  -8.1521  -8.1316  -8.1046  -8.1018
    -8.0882  -8.0352  -8.0294  -8.0154  -7.9576  -7.9478  -7.7214  -7.6594
     1.2004   1.2090   1.4797   1.4817   2.0926   2.2986   2.3224   2.4868
     2.6029   2.6083   3.0065   3.0131   3.2070   3.2674   3.3765   3.4701
     3.5168   3.5249   3.5539   3.5753   3.6891   3.7334   3.8217   3.9155
     3.9638   3.9990   4.0540   4.0975   4.3587   4.4712   4.5763   4.7301
     4.7747   4.8629   4.9254   5.0070   5.1695   5.3120   5.3370   5.3777
     5.4290   5.5248   5.6534   5.7119   5.9157   5.9296   5.9932   6.0924
     6.3929   6.4339   6.5334   6.5458   6.6290   6.7158   6.7586   6.9280
     6.9673   7.0360   7.0613   7.1487   7.2482   7.2957   7.4197   7.4507
     7.5668   7.5808   7.6042   7.6466   7.7175   7.7240   7.7389   7.7679
    10.6475  10.7821  11.0745  11.1329  11.4507  11.4512  11.5528  11.6666
    11.8336  11.9183  11.9420  12.2122  12.4892  12.5101  12.5855  12.6584
    12.8262  12.8632  12.9288  13.0560  13.3187  13.3187  13.5313  13.5839
    15.1165  15.2378  15.5137  15.6825  16.0282  16.2370  16.2468  16.4243
    16.4383  16.4883  17.0315  17.2019  17.3215

          k = 0.0000-0.4725-0.5000 ( 62284 PWs)   bands (ev):

   -66.1760 -66.1760 -66.1759 -66.1759 -66.1750 -66.1750 -66.1749 -66.1749
   -30.6843 -30.6843 -30.6386 -30.6386 -30.6339 -30.6339 -30.5877 -30.5877
   -30.4803 -30.4803 -30.4401 -30.4401 -30.4342 -30.4342 -30.4025 -30.4025
   -30.4012 -30.4012 -30.4003 -30.4002 -30.3963 -30.3963 -30.3865 -30.3865
   -20.3413 -20.3413 -20.3413 -20.3413 -20.3409 -20.3409 -20.3409 -20.3409
   -20.3278 -20.3278 -20.3272 -20.3271 -20.3270 -20.3270 -20.3266 -20.3266
   -20.3234 -20.3234 -20.3211 -20.3211 -20.3209 -20.3209 -20.3184 -20.3184
   -20.3092 -20.3092 -20.3082 -20.3082 -20.3080 -20.3080 -20.3068 -20.3068
   -20.3055 -20.3055 -20.3055 -20.3055 -20.3054 -20.3054 -20.3051 -20.3051
   -20.3000 -20.3000 -20.2977 -20.2977 -20.2969 -20.2969 -20.2954 -20.2954
   -20.2922 -20.2921 -20.2912 -20.2912 -20.2907 -20.2907 -20.2891 -20.2891
    -9.6770  -9.6770  -9.4157  -9.4156  -8.8773  -8.8773  -8.7415  -8.7415
    -8.5477  -8.5477  -8.5253  -8.5253  -8.1497  -8.1497  -8.1030  -8.1030
    -8.0797  -8.0797  -8.0262  -8.0262  -7.9863  -7.9863  -7.6900  -7.6900
     1.2057   1.2057   1.4916   1.4916   2.8279   2.8279   2.8969   2.8969
     2.9564   2.9564   3.1046   3.1046   3.1869   3.1869   3.2506   3.2506
     3.3740   3.3740   3.5077   3.5077   3.5693   3.5693   3.5928   3.5928
     3.8104   3.8104   4.0306   4.0306   4.3880   4.3880   4.4760   4.4760
     4.5685   4.5685   4.6657   4.6658   5.1253   5.1254   5.2762   5.2762
     5.4702   5.4702   5.7274   5.7274   5.9364   5.9364   6.0331   6.0331
     6.4102   6.4102   6.5603   6.5603   6.6374   6.6374   6.7183   6.7183
     7.2095   7.2095   7.2658   7.2658   7.3352   7.3352   7.3813   7.3813
     7.4923   7.4923   7.6872   7.6872   7.7271   7.7271   7.7400   7.7400
    11.0282  11.0282  11.3651  11.3651  11.3923  11.3923  11.6571  11.6571
    11.9992  11.9992  12.1100  12.1100  12.3094  12.3094  12.3789  12.3789
    12.7265  12.7265  12.9552  12.9552  13.4039  13.4039  13.4096  13.4096
    15.1635  15.1635  15.6149  15.6149  16.5838  16.5838  16.7199  16.7199
    16.8312  16.8314  16.9852  16.9853  17.0494

          k = 0.1667 0.0000 0.1667 ( 62234 PWs)   bands (ev):

   -66.1765 -66.1761 -66.1757 -66.1757 -66.1752 -66.1752 -66.1748 -66.1744
   -30.6802 -30.6795 -30.6758 -30.6758 -30.5966 -30.5965 -30.5925 -30.5919
   -30.4780 -30.4774 -30.4712 -30.4710 -30.4290 -30.4270 -30.4269 -30.4256
   -30.3985 -30.3978 -30.3955 -30.3912 -30.3762 -30.3730 -30.3729 -30.3695
   -20.3415 -20.3414 -20.3412 -20.3411 -20.3411 -20.3410 -20.3408 -20.3407
   -20.3277 -20.3277 -20.3277 -20.3276 -20.3268 -20.3266 -20.3265 -20.3265
   -20.3233 -20.3232 -20.3230 -20.3230 -20.3188 -20.3188 -20.3188 -20.3184
   -20.3092 -20.3092 -20.3090 -20.3090 -20.3080 -20.3079 -20.3077 -20.3076
   -20.3070 -20.3069 -20.3068 -20.3064 -20.3034 -20.3031 -20.3030 -20.3027
   -20.3000 -20.2999 -20.2991 -20.2991 -20.2959 -20.2959 -20.2954 -20.2952
   -20.2923 -20.2922 -20.2919 -20.2919 -20.2896 -20.2896 -20.2892 -20.2890
    -9.8883  -9.6910  -9.5179  -9.5148  -9.1359  -9.1320  -8.9518  -8.9483
    -8.6622  -8.5329  -8.5319  -8.5287  -8.2150  -8.1744  -8.0881  -8.0766
    -7.8614  -7.8509  -7.7592  -7.7448  -7.6001  -7.5395  -7.5392  -7.4834
     1.3927   1.4120   1.4492   1.4527   1.7037   1.7074   1.8090   1.9088
     2.0535   2.0862   2.0939   2.2264   2.3981   2.5009   2.7317   2.9182
     2.9594   2.9692   4.0322   4.0975   4.2446   4.2786   4.3212   4.3245
     4.4168   4.4587   4.5855   4.8323   4.9444   4.9674   5.1158   5.1414
     5.2450   5.3493   5.3779   5.4713   5.4753   5.5855   5.5944   5.6577
     5.6837   5.7191   5.7304   5.8722   5.9136   5.9542   6.0444   6.2148
     6.2873   6.5470   6.5654   6.6141   6.6709   6.6930   6.7951   6.8157
     6.8766   6.9544   6.9549   7.0267   7.0567   7.0594   7.1301   7.1365
     7.2360   7.2479   7.6632   7.6808   7.9533   8.0109   8.0391   8.1545
    10.1550  10.1619  10.3306  10.3595  10.4988  10.5684  12.1458  12.1680
    12.2338  12.2343  12.3998  12.4001  12.5888  12.6812  12.7691  12.7716
    12.9109  13.0069  13.2206  13.2753  13.4390  13.5078  13.6721  13.7752
    14.2556  14.4691  14.4825  15.0333  15.0606  15.4146  15.6705  16.0525
    16.0806  16.7641  16.8149  16.8851  17.6597

          k = 0.1667 0.0000 0.3333 ( 62265 PWs)   bands (ev):

   -66.1763 -66.1759 -66.1758 -66.1755 -66.1754 -66.1751 -66.1750 -66.1746
   -30.6790 -30.6767 -30.6623 -30.6583 -30.6142 -30.6100 -30.5956 -30.5930
   -30.4765 -30.4727 -30.4619 -30.4560 -30.4292 -30.4279 -30.4276 -30.4257
   -30.4130 -30.4088 -30.3970 -30.3941 -30.3755 -30.3736 -30.3722 -30.3702
   -20.3414 -20.3413 -20.3412 -20.3411 -20.3411 -20.3410 -20.3409 -20.3408
   -20.3277 -20.3277 -20.3275 -20.3273 -20.3269 -20.3267 -20.3266 -20.3266
   -20.3232 -20.3231 -20.3224 -20.3221 -20.3198 -20.3196 -20.3188 -20.3186
   -20.3092 -20.3091 -20.3089 -20.3087 -20.3081 -20.3079 -20.3078 -20.3076
   -20.3074 -20.3072 -20.3068 -20.3066 -20.3033 -20.3031 -20.3030 -20.3028
   -20.2998 -20.2993 -20.2989 -20.2982 -20.2966 -20.2960 -20.2958 -20.2954
   -20.2921 -20.2919 -20.2918 -20.2914 -20.2903 -20.2899 -20.2895 -20.2892
    -9.7637  -9.5636  -9.5405  -9.2868  -9.2038  -8.9248  -8.8780  -8.8014
    -8.7406  -8.5670  -8.5073  -8.4865  -8.4401  -8.3630  -8.1862  -8.1284
    -8.1085  -8.0148  -7.8328  -7.7721  -7.5887  -7.5528  -7.5290  -7.4959
     1.4420   1.4527   1.6937   1.7205   1.9703   1.9824   2.0441   2.0750
     2.1944   2.3504   2.3837   2.5348   2.6669   2.7684   2.8160   2.9335
     3.1198   3.1885   3.5944   3.7816   3.8832   3.9964   4.1916   4.2233
     4.3413   4.3516   4.4998   4.5379   4.6288   4.7073   4.7630   4.8361
     5.0111   5.0553   5.1198   5.1833   5.2357   5.4435   5.4626   5.6325
     5.6524   5.6995   5.7122   5.8140   5.9777   6.0239   6.1227   6.2218
     6.3668   6.4798   6.5511   6.6566   6.6690   6.7286   6.7905   6.8615
     6.9046   6.9302   7.0097   7.0487   7.0585   7.0941   7.1163   7.1989
     7.3779   7.4455   7.6138   7.6197   7.9030   7.9391   8.0616   8.1216
    10.2792  10.2970  10.7126  10.8463  10.9431  11.1622  11.9068  11.9521
    12.1566  12.2828  12.3819  12.4500  12.5136  12.5699  12.6861  12.7785
    12.9042  12.9969  13.1181  13.2198  13.3546  13.4491  13.6100  13.6366
    14.2906  14.4431  14.5863  14.9437  15.2819  15.7530  15.8947  15.9500
    16.4562  16.7781  17.2376  17.3486  17.4113

          k = 0.1667 0.0000-0.5000 ( 62322 PWs)   bands (ev):

   -66.1761 -66.1761 -66.1757 -66.1757 -66.1752 -66.1752 -66.1748 -66.1748
   -30.6779 -30.6779 -30.6383 -30.6383 -30.6342 -30.6342 -30.5943 -30.5943
   -30.4747 -30.4747 -30.4412 -30.4412 -30.4372 -30.4372 -30.4243 -30.4243
   -30.4223 -30.4223 -30.3957 -30.3957 -30.3745 -30.3745 -30.3712 -30.3712
   -20.3413 -20.3413 -20.3412 -20.3412 -20.3410 -20.3410 -20.3409 -20.3409
   -20.3277 -20.3277 -20.3272 -20.3272 -20.3270 -20.3270 -20.3266 -20.3266
   -20.3231 -20.3231 -20.3211 -20.3211 -20.3209 -20.3209 -20.3187 -20.3187
   -20.3091 -20.3091 -20.3085 -20.3085 -20.3081 -20.3081 -20.3078 -20.3078
   -20.3075 -20.3075 -20.3067 -20.3067 -20.3032 -20.3032 -20.3029 -20.3029
   -20.2996 -20.2996 -20.2977 -20.2977 -20.2970 -20.2970 -20.2956 -20.2956
   -20.2920 -20.2920 -20.2911 -20.2911 -20.2907 -20.2907 -20.2893 -20.2893
    -9.6453  -9.6453  -9.3458  -9.3458  -8.9760  -8.9760  -8.7325  -8.7325
    -8.6455  -8.6455  -8.6017  -8.6017  -8.4106  -8.4106  -8.3525  -8.3524
    -8.1171  -8.1171  -7.8020  -7.8020  -7.5711  -7.5711  -7.5128  -7.5128
     1.4496   1.4496   1.7242   1.7242   2.0343   2.0343   2.0587   2.0587
     2.8234   2.8234   2.9076   2.9076   2.9709   2.9709   3.1358   3.1358
     3.2380   3.2380   3.3164   3.3164   3.5730   3.5730   3.8277   3.8277
     3.8718   3.8718   4.4292   4.4292   4.6361   4.6361   4.8267   4.8267
     4.8852   4.8853   5.0583   5.0583   5.2626   5.2627   5.5238   5.5238
     5.6631   5.6631   5.7452   5.7452   6.0123   6.0123   6.2159   6.2159
     6.4263   6.4263   6.5749   6.5749   6.6708   6.6708   6.8005   6.8006
     6.9116   6.9116   7.0189   7.0189   7.0787   7.0787   7.4137   7.4137
     7.4351   7.4352   7.7097   7.7098   7.7611   7.7611   8.0865   8.0865
    10.3037  10.3037  11.3285  11.3285  11.4841  11.4841  11.5569  11.5569
    11.8780  11.8780  12.4058  12.4058  12.5549  12.5549  12.7927  12.7927
    12.9502  12.9502  13.1144  13.1145  13.2791  13.2791  13.5784  13.5784
    14.3809  14.3809  14.7850  14.7850  15.5741  15.5741  16.1324  16.1324
    16.6348  16.6348  17.6472  17.6472  17.9218

          k = 0.1667 0.1575 0.1667 ( 62255 PWs)   bands (ev):

   -66.1765 -66.1761 -66.1756 -66.1756 -66.1753 -66.1753 -66.1748 -66.1744
   -30.6801 -30.6795 -30.6758 -30.6758 -30.5966 -30.5965 -30.5925 -30.5919
   -30.4780 -30.4775 -30.4711 -30.4710 -30.4256 -30.4236 -30.4236 -30.4224
   -30.3986 -30.3978 -30.3958 -30.3911 -30.3798 -30.3764 -30.3763 -30.3727
   -20.3415 -20.3414 -20.3411 -20.3411 -20.3411 -20.3410 -20.3408 -20.3407
   -20.3277 -20.3277 -20.3277 -20.3276 -20.3268 -20.3266 -20.3265 -20.3265
   -20.3233 -20.3232 -20.3230 -20.3230 -20.3188 -20.3188 -20.3188 -20.3185
   -20.3092 -20.3091 -20.3090 -20.3090 -20.3078 -20.3076 -20.3075 -20.3073
   -20.3070 -20.3069 -20.3067 -20.3064 -20.3037 -20.3034 -20.3033 -20.3031
   -20.3000 -20.2999 -20.2991 -20.2991 -20.2959 -20.2959 -20.2954 -20.2952
   -20.2923 -20.2922 -20.2919 -20.2919 -20.2896 -20.2896 -20.2892 -20.2890
    -9.8707  -9.7008  -9.5088  -9.5061  -9.1321  -9.1287  -8.9501  -8.9479
    -8.6003  -8.4865  -8.4856  -8.4825  -8.2148  -8.1735  -8.0897  -8.0753
    -7.8617  -7.8532  -7.7639  -7.7453  -7.6765  -7.6207  -7.6204  -7.5682
     1.3949   1.4106   1.4504   1.4531   1.7045   1.7074   1.8540   1.9089
     2.2172   2.2748   2.2860   2.3973   2.4060   2.4988   2.8006   2.9991
     3.0368   3.0390   3.9807   4.0281   4.1707   4.1851   4.2563   4.2973
     4.3320   4.3436   4.5524   4.8329   4.9254   4.9908   5.0973   5.1139
     5.1702   5.3245   5.3471   5.4272   5.4549   5.4669   5.5188   5.5612
     5.6353   5.6931   5.7423   5.8103   5.8468   5.9348   6.0023   6.1057
     6.3494   6.5072   6.5802   6.5855   6.7099   6.7552   6.7700   6.8269
     6.8836   6.9184   6.9347   7.0377   7.0590   7.0658   7.1398   7.1812
     7.2542   7.2574   7.6625   7.6796   7.9421   7.9896   8.0145   8.0917
    10.2339  10.2365  10.4660  10.4715  10.5573  10.6580  12.0944  12.1149
    12.2103  12.2362  12.2892  12.3881  12.5812  12.6026  12.7344  12.7711
    12.8803  12.9787  13.1952  13.2921  13.4622  13.4808  13.7056  13.7315
    14.4195  14.6773  14.6797  15.0918  15.4053  15.4268  15.6890  16.0469
    16.0657  16.6470  16.8753  16.8851  17.5409

          k = 0.1667 0.1575 0.3333 ( 62260 PWs)   bands (ev):

   -66.1763 -66.1760 -66.1758 -66.1755 -66.1754 -66.1751 -66.1750 -66.1746
   -30.6790 -30.6767 -30.6623 -30.6583 -30.6142 -30.6100 -30.5956 -30.5930
   -30.4765 -30.4726 -30.4618 -30.4559 -30.4263 -30.4251 -30.4242 -30.4224
   -30.4124 -30.4085 -30.3970 -30.3941 -30.3790 -30.3770 -30.3756 -30.3735
   -20.3414 -20.3413 -20.3412 -20.3411 -20.3411 -20.3410 -20.3409 -20.3408
   -20.3277 -20.3277 -20.3275 -20.3273 -20.3269 -20.3267 -20.3266 -20.3266
   -20.3232 -20.3231 -20.3224 -20.3221 -20.3198 -20.3196 -20.3188 -20.3187
   -20.3092 -20.3091 -20.3088 -20.3086 -20.3079 -20.3077 -20.3076 -20.3074
   -20.3073 -20.3071 -20.3067 -20.3066 -20.3036 -20.3035 -20.3033 -20.3031
   -20.2998 -20.2993 -20.2989 -20.2982 -20.2966 -20.2960 -20.2958 -20.2954
   -20.2921 -20.2919 -20.2918 -20.2914 -20.2903 -20.2899 -20.2895 -20.2892
    -9.7471  -9.5548  -9.5465  -9.2745  -9.2014  -8.9177  -8.8776  -8.7971
    -8.6880  -8.5327  -8.4653  -8.4478  -8.4274  -8.3594  -8.1843  -8.1289
    -8.1072  -8.0153  -7.8343  -7.7742  -7.6665  -7.6326  -7.6111  -7.5793
     1.4435   1.4542   1.6940   1.7217   2.0466   2.1186   2.2265   2.2438
     2.2967   2.3820   2.4069   2.5633   2.6755   2.7688   2.8843   3.0058
     3.1982   3.2490   3.5949   3.7752   3.8607   3.9700   4.1814   4.2020
     4.2658   4.3078   4.4080   4.4618   4.6085   4.6870   4.7348   4.8088
     4.9629   4.9853   5.0563   5.1197   5.2075   5.2980   5.4430   5.5006
     5.6146   5.6405   5.6981   5.7340   5.8468   5.9167   6.0070   6.0806
     6.4096   6.5134   6.5817   6.6960   6.7023   6.7775   6.8219   6.8755
     6.9065   6.9517   7.0053   7.0541   7.0804   7.1083   7.1788   7.2193
     7.3949   7.4676   7.6121   7.6227   7.9014   7.9235   8.0246   8.0659
    10.4120  10.4233  10.7582  10.9201  10.9810  11.2044  11.9039  11.9631
    12.1693  12.2581  12.3341  12.3916  12.4969  12.5573  12.6047  12.7038
    12.8534  12.9540  13.0751  13.2032  13.3147  13.4120  13.5944  13.6330
    14.5096  14.6542  14.8674  15.2147  15.4054  15.7612  15.9164  15.9756
    16.4861  16.7598  17.0649  17.3832  17.4462

          k = 0.1667 0.1575-0.5000 ( 62292 PWs)   bands (ev):

   -66.1761 -66.1761 -66.1757 -66.1757 -66.1752 -66.1752 -66.1748 -66.1748
   -30.6779 -30.6779 -30.6383 -30.6383 -30.6342 -30.6342 -30.5943 -30.5943
   -30.4746 -30.4746 -30.4407 -30.4407 -30.4363 -30.4363 -30.4215 -30.4215
   -30.4198 -30.4198 -30.3957 -30.3957 -30.3780 -30.3780 -30.3745 -30.3745
   -20.3413 -20.3413 -20.3412 -20.3412 -20.3410 -20.3410 -20.3409 -20.3409
   -20.3277 -20.3277 -20.3272 -20.3272 -20.3270 -20.3270 -20.3266 -20.3266
   -20.3231 -20.3231 -20.3211 -20.3211 -20.3209 -20.3209 -20.3187 -20.3187
   -20.3091 -20.3091 -20.3084 -20.3084 -20.3081 -20.3081 -20.3076 -20.3076
   -20.3072 -20.3072 -20.3067 -20.3067 -20.3035 -20.3035 -20.3032 -20.3032
   -20.2996 -20.2996 -20.2977 -20.2977 -20.2970 -20.2970 -20.2956 -20.2956
   -20.2920 -20.2920 -20.2911 -20.2911 -20.2907 -20.2907 -20.2893 -20.2893
    -9.6326  -9.6326  -9.3472  -9.3472  -8.9520  -8.9519  -8.7281  -8.7281
    -8.6340  -8.6340  -8.5757  -8.5757  -8.3896  -8.3896  -8.3351  -8.3351
    -8.1168  -8.1168  -7.8037  -7.8037  -7.6498  -7.6498  -7.5954  -7.5954
     1.4514   1.4514   1.7261   1.7261   2.1988   2.1988   2.2648   2.2648
     2.8689   2.8689   2.9230   2.9230   2.9726   2.9726   3.1439   3.1439
     3.2484   3.2484   3.3303   3.3303   3.5951   3.5952   3.8449   3.8450
     3.9212   3.9212   4.2907   4.2907   4.5867   4.5868   4.7442   4.7442
     4.8565   4.8565   4.9912   4.9913   5.1565   5.1565   5.5131   5.5131
     5.5813   5.5813   5.6424   5.6424   5.8758   5.8758   6.0368   6.0368
     6.5077   6.5077   6.6262   6.6262   6.7264   6.7264   6.8543   6.8543
     6.9231   6.9231   7.0003   7.0003   7.1497   7.1497   7.4163   7.4163
     7.4341   7.4341   7.7179   7.7179   7.7635   7.7635   8.0403   8.0403
    10.4389  10.4389  11.3499  11.3499  11.5271  11.5271  11.5838  11.5838
    11.9005  11.9005  12.3742  12.3742  12.4761  12.4761  12.7487  12.7487
    12.9120  12.9120  13.0188  13.0188  13.2566  13.2566  13.5648  13.5648
    14.6030  14.6030  15.1020  15.1020  15.6291  15.6291  16.1437  16.1437
    16.6655  16.6655  17.5819  17.5819  17.8293

          k = 0.1667 0.3150 0.1667 ( 62249 PWs)   bands (ev):

   -66.1764 -66.1762 -66.1756 -66.1756 -66.1753 -66.1753 -66.1747 -66.1745
   -30.6800 -30.6797 -30.6758 -30.6758 -30.5966 -30.5966 -30.5924 -30.5920
   -30.4778 -30.4775 -30.4710 -30.4709 -30.4161 -30.4147 -30.4147 -30.4137
   -30.3993 -30.3978 -30.3969 -30.3906 -30.3895 -30.3852 -30.3851 -30.3806
   -20.3415 -20.3414 -20.3411 -20.3411 -20.3411 -20.3411 -20.3408 -20.3407
   -20.3277 -20.3277 -20.3277 -20.3276 -20.3267 -20.3266 -20.3265 -20.3265
   -20.3233 -20.3232 -20.3230 -20.3230 -20.3188 -20.3188 -20.3187 -20.3186
   -20.3092 -20.3091 -20.3090 -20.3090 -20.3073 -20.3072 -20.3069 -20.3069
   -20.3067 -20.3065 -20.3063 -20.3062 -20.3045 -20.3043 -20.3042 -20.3039
   -20.3000 -20.2999 -20.2991 -20.2991 -20.2959 -20.2959 -20.2953 -20.2952
   -20.2923 -20.2922 -20.2919 -20.2919 -20.2896 -20.2896 -20.2892 -20.2891
    -9.8263  -9.7293  -9.4912  -9.4896  -9.1243  -9.1223  -8.9474  -8.9469
    -8.4336  -8.3489  -8.3479  -8.3417  -8.2164  -8.1669  -8.0985  -8.0711
    -7.8933  -7.8766  -7.8628  -7.8276  -7.8125  -7.8037  -7.7443  -7.7265
     1.3984   1.4067   1.4516   1.4529   1.7053   1.7069   1.8945   1.9090
     2.4230   2.4699   2.6594   2.7435   2.7760   2.9072   3.0003   3.2532
     3.2553   3.3293   3.7571   3.7952   3.8360   3.8852   4.1347   4.2231
     4.2873   4.3078   4.3084   4.6537   4.6833   4.9123   4.9668   5.0631
     5.0860   5.1661   5.1661   5.1799   5.3614   5.3955   5.4234   5.4617
     5.6199   5.6259   5.6774   5.7045   5.7838   5.8260   5.8380   5.9698
     6.4489   6.5040   6.5194   6.6392   6.6971   6.7313   6.8049   6.8129
     7.0007   7.0055   7.0426   7.0762   7.0926   7.1143   7.2378   7.2667
     7.3509   7.3521   7.6527   7.6758   7.8484   7.8813   7.9061   7.9134
    10.3247  10.3311  10.7970  10.8230  10.8467  11.0019  11.8384  11.8751
    11.9057  12.1092  12.2573  12.2757  12.5087  12.6352  12.7147  12.7435
    12.9063  12.9807  13.1440  13.2437  13.3319  13.3425  13.6523  13.6589
    15.0120  15.1522  15.1871  15.3620  15.3804  15.7931  15.9856  16.0019
    16.2702  16.3235  17.0085  17.1168  17.1543

          k = 0.1667 0.3150 0.3333 ( 62265 PWs)   bands (ev):

   -66.1762 -66.1760 -66.1757 -66.1755 -66.1754 -66.1752 -66.1749 -66.1747
   -30.6790 -30.6767 -30.6623 -30.6583 -30.6142 -30.6100 -30.5956 -30.5931
   -30.4764 -30.4726 -30.4616 -30.4556 -30.4206 -30.4184 -30.4149 -30.4137
   -30.4089 -30.4070 -30.3971 -30.3941 -30.3887 -30.3863 -30.3843 -30.3819
   -20.3414 -20.3414 -20.3412 -20.3411 -20.3411 -20.3410 -20.3409 -20.3408
   -20.3277 -20.3277 -20.3275 -20.3274 -20.3269 -20.3267 -20.3267 -20.3266
   -20.3232 -20.3231 -20.3224 -20.3221 -20.3198 -20.3196 -20.3188 -20.3187
   -20.3091 -20.3090 -20.3088 -20.3086 -20.3077 -20.3074 -20.3072 -20.3070
   -20.3066 -20.3066 -20.3063 -20.3062 -20.3045 -20.3043 -20.3042 -20.3040
   -20.2998 -20.2993 -20.2989 -20.2982 -20.2966 -20.2960 -20.2958 -20.2954
   -20.2921 -20.2919 -20.2918 -20.2914 -20.2903 -20.2899 -20.2895 -20.2892
    -9.7096  -9.5679  -9.5330  -9.2518  -9.1965  -8.9032  -8.8775  -8.7905
    -8.5688  -8.4697  -8.3587  -8.3493  -8.3256  -8.3156  -8.1735  -8.1300
    -8.1007  -8.0186  -7.8745  -7.8544  -7.8320  -7.8082  -7.7960  -7.7511
     1.4446   1.4555   1.6939   1.7224   2.0899   2.2680   2.3249   2.4561
     2.6743   2.6813   2.7222   2.7410   2.8063   2.8984   3.0956   3.2305
     3.4105   3.4536   3.5884   3.7346   3.7766   3.8231   3.9266   3.9956
     4.1053   4.2585   4.2826   4.3959   4.5381   4.5868   4.6333   4.7204
     4.7974   4.8886   4.9425   4.9901   5.0828   5.1412   5.1725   5.2475
     5.3859   5.4348   5.4750   5.6208   5.6599   5.7207   5.8395   5.8824
     6.4905   6.5793   6.6351   6.7031   6.8152   6.8609   6.9026   6.9428
     6.9926   7.0476   7.0730   7.1202   7.1586   7.2019   7.2733   7.3125
     7.4690   7.5231   7.6035   7.6300   7.8368   7.8434   7.8954   7.9051
    10.7025  10.7539  10.8914  11.0158  11.2284  11.3907  11.8073  11.9254
    12.0051  12.1028  12.2053  12.2767  12.4433  12.4845  12.5448  12.6823
    12.8114  12.8598  12.9604  13.0702  13.2259  13.3029  13.5158  13.5430
    15.1177  15.1715  15.4146  15.5961  15.7673  15.9365  16.0855  16.2374
    16.5735  16.6876  16.7792  17.2063  17.4728

          k = 0.1667 0.3150-0.5000 ( 62264 PWs)   bands (ev):

   -66.1760 -66.1760 -66.1758 -66.1758 -66.1751 -66.1751 -66.1749 -66.1749
   -30.6779 -30.6779 -30.6383 -30.6383 -30.6342 -30.6342 -30.5943 -30.5943
   -30.4746 -30.4746 -30.4400 -30.4400 -30.4350 -30.4350 -30.4131 -30.4131
   -30.4121 -30.4121 -30.3958 -30.3958 -30.3876 -30.3876 -30.3832 -30.3832
   -20.3413 -20.3413 -20.3413 -20.3412 -20.3410 -20.3410 -20.3409 -20.3409
   -20.3277 -20.3277 -20.3272 -20.3272 -20.3270 -20.3270 -20.3266 -20.3266
   -20.3231 -20.3231 -20.3211 -20.3211 -20.3209 -20.3209 -20.3187 -20.3187
   -20.3091 -20.3091 -20.3083 -20.3083 -20.3080 -20.3080 -20.3071 -20.3071
   -20.3066 -20.3066 -20.3063 -20.3063 -20.3044 -20.3044 -20.3041 -20.3041
   -20.2996 -20.2996 -20.2977 -20.2977 -20.2970 -20.2970 -20.2956 -20.2956
   -20.2920 -20.2920 -20.2911 -20.2911 -20.2907 -20.2907 -20.2894 -20.2893
    -9.6072  -9.6072  -9.3505  -9.3505  -8.9095  -8.9095  -8.7204  -8.7204
    -8.6028  -8.6028  -8.5286  -8.5286  -8.2989  -8.2989  -8.2596  -8.2595
    -8.1156  -8.1156  -7.8589  -7.8589  -7.8254  -7.8254  -7.7756  -7.7756
     1.4528   1.4528   1.7273   1.7273   2.6279   2.6279   2.7574   2.7574
     2.9198   2.9198   2.9635   2.9636   3.0483   3.0483   3.1860   3.1860
     3.2822   3.2822   3.3926   3.3926   3.6284   3.6284   3.8112   3.8113
     3.9956   3.9956   4.1228   4.1228   4.3532   4.3532   4.4960   4.4960
     4.8083   4.8083   4.8656   4.8656   5.0903   5.0903   5.1714   5.1714
     5.2163   5.2163   5.4946   5.4946   5.6701   5.6701   5.8545   5.8545
     6.5786   6.5786   6.7132   6.7132   6.7782   6.7782   6.9182   6.9182
     7.1054   7.1054   7.1616   7.1616   7.2418   7.2418   7.4098   7.4098
     7.4476   7.4476   7.7155   7.7155   7.7459   7.7459   7.8937   7.8937
    10.8037  10.8037  11.3955  11.3955  11.5660  11.5660  11.7218  11.7218
    11.9907  11.9907  12.0885  12.0885  12.4649  12.4649  12.5449  12.5449
    12.7735  12.7735  12.8901  12.8901  13.2437  13.2437  13.4368  13.4368
    15.1527  15.1527  15.6429  15.6429  16.0167  16.0167  16.2532  16.2532
    16.7584  16.7584  17.3545  17.3547  17.5175

          k = 0.1667-0.4725 0.1667 ( 62220 PWs)   bands (ev):

   -66.1763 -66.1763 -66.1755 -66.1755 -66.1754 -66.1754 -66.1746 -66.1746
   -30.6798 -30.6798 -30.6758 -30.6758 -30.5966 -30.5966 -30.5922 -30.5922
   -30.4777 -30.4776 -30.4709 -30.4709 -30.4063 -30.4062 -30.4039 -30.4039
   -30.4026 -30.4026 -30.3993 -30.3993 -30.3925 -30.3925 -30.3878 -30.3878
   -20.3415 -20.3415 -20.3411 -20.3411 -20.3411 -20.3411 -20.3408 -20.3407
   -20.3277 -20.3277 -20.3276 -20.3276 -20.3267 -20.3267 -20.3265 -20.3265
   -20.3233 -20.3233 -20.3230 -20.3230 -20.3188 -20.3188 -20.3187 -20.3186
   -20.3091 -20.3091 -20.3090 -20.3090 -20.3071 -20.3071 -20.3068 -20.3068
   -20.3057 -20.3057 -20.3055 -20.3055 -20.3053 -20.3053 -20.3051 -20.3051
   -20.2999 -20.2999 -20.2991 -20.2991 -20.2959 -20.2959 -20.2953 -20.2953
   -20.2922 -20.2922 -20.2919 -20.2919 -20.2896 -20.2896 -20.2891 -20.2891
    -9.7738  -9.7738  -9.4824  -9.4824  -9.1198  -9.1198  -8.9463  -8.9463
    -8.2622  -8.2622  -8.1698  -8.1698  -8.1414  -8.1414  -8.1132  -8.1132
    -8.0748  -8.0748  -7.9959  -7.9959  -7.8469  -7.8468  -7.7437  -7.7437
     1.4022   1.4022   1.4522   1.4522   1.7061   1.7061   1.9065   1.9065
     2.4475   2.4475   3.0239   3.0239   3.1524   3.1524   3.4748   3.4748
     3.5103   3.5103   3.6596   3.6596   3.7816   3.7816   3.9828   3.9828
     4.0534   4.0534   4.2417   4.2417   4.3312   4.3312   5.0293   5.0293
     5.1310   5.1310   5.2426   5.2426   5.3261   5.3261   5.4697   5.4697
     5.5980   5.5980   5.6346   5.6346   5.7215   5.7215   5.8343   5.8343
     6.4859   6.4860   6.5898   6.5898   6.7107   6.7107   6.7860   6.7860
     7.0435   7.0435   7.0793   7.0793   7.1277   7.1277   7.4343   7.4343
     7.5497   7.5498   7.6317   7.6317   7.7218   7.7218   7.7554   7.7554
    10.3490  10.3490  11.1687  11.1687  11.2458  11.2458  11.5508  11.5508
    11.6772  11.6772  12.2667  12.2667  12.6170  12.6170  12.6955  12.6955
    13.0325  13.0325  13.1574  13.1574  13.1834  13.1834  13.6195  13.6195
    15.2956  15.2957  15.5037  15.5037  15.8411  15.8411  15.9211  15.9211
    16.2995  16.2996  17.3275  17.3275  17.5556

          k = 0.1667-0.4725 0.3333 ( 62252 PWs)   bands (ev):

   -66.1761 -66.1761 -66.1757 -66.1756 -66.1753 -66.1752 -66.1748 -66.1748
   -30.6790 -30.6767 -30.6623 -30.6583 -30.6142 -30.6100 -30.5956 -30.5931
   -30.4764 -30.4725 -30.4616 -30.4555 -30.4186 -30.4148 -30.4056 -30.4042
   -30.4020 -30.4017 -30.3999 -30.3982 -30.3973 -30.3937 -30.3915 -30.3889
   -20.3414 -20.3414 -20.3412 -20.3412 -20.3410 -20.3410 -20.3408 -20.3408
   -20.3277 -20.3277 -20.3275 -20.3274 -20.3269 -20.3267 -20.3267 -20.3266
   -20.3232 -20.3231 -20.3224 -20.3221 -20.3198 -20.3196 -20.3188 -20.3187
   -20.3091 -20.3090 -20.3088 -20.3086 -20.3076 -20.3074 -20.3071 -20.3069
   -20.3056 -20.3056 -20.3055 -20.3055 -20.3053 -20.3052 -20.3052 -20.3051
   -20.2998 -20.2993 -20.2989 -20.2982 -20.2966 -20.2960 -20.2958 -20.2954
   -20.2921 -20.2919 -20.2918 -20.2914 -20.2903 -20.2899 -20.2895 -20.2892
    -9.6863  -9.5819  -9.5238  -9.2415  -9.1939  -8.8957  -8.8780  -8.7879
    -8.5186  -8.4340  -8.3193  -8.2342  -8.1778  -8.1517  -8.1280  -8.1103
    -8.0942  -8.0739  -8.0364  -8.0203  -8.0172  -7.9548  -7.8239  -7.7645
     1.4446   1.4557   1.6937   1.7224   2.0951   2.2888   2.3301   2.4692
     2.7075   2.7127   3.0356   3.0416   3.2253   3.2588   3.3846   3.4596
     3.4687   3.5135   3.6063   3.6470   3.7832   3.7980   3.8353   3.9380
     3.9689   4.0029   4.0482   4.1060   4.3184   4.3547   4.5598   4.6387
     4.7186   4.7788   4.8947   4.9356   5.0066   5.0624   5.1750   5.2015
     5.2477   5.3110   5.3797   5.5605   5.6581   5.6945   5.7573   5.7830
     6.5022   6.5995   6.6514   6.7118   6.8300   6.8731   6.9355   6.9794
     7.0244   7.0676   7.0896   7.1967   7.2582   7.2854   7.4313   7.4704
     7.5629   7.5909   7.6086   7.6396   7.7179   7.7329   7.7437   7.7643
    10.7905  10.8844  11.1779  11.2614  11.4733  11.5203  11.6011  11.7187
    11.8470  11.9316  12.0016  12.2478  12.4470  12.5323  12.6064  12.6887
    12.7577  12.8188  12.9177  12.9429  13.1858  13.2105  13.4765  13.4919
    15.3120  15.4700  15.6336  15.8515  16.0773  16.2402  16.2755  16.4099
    16.5043  16.5525  17.0709  17.1962  17.2974

          k = 0.1667-0.4725-0.5000 ( 62232 PWs)   bands (ev):

   -66.1759 -66.1759 -66.1759 -66.1758 -66.1751 -66.1750 -66.1750 -66.1750
   -30.6779 -30.6779 -30.6383 -30.6383 -30.6342 -30.6342 -30.5943 -30.5943
   -30.4745 -30.4745 -30.4398 -30.4397 -30.4346 -30.4346 -30.4049 -30.4049
   -30.4010 -30.4010 -30.4000 -30.4000 -30.3965 -30.3965 -30.3902 -30.3902
   -20.3413 -20.3413 -20.3413 -20.3413 -20.3409 -20.3409 -20.3409 -20.3409
   -20.3277 -20.3277 -20.3272 -20.3272 -20.3270 -20.3270 -20.3267 -20.3266
   -20.3231 -20.3231 -20.3211 -20.3211 -20.3209 -20.3209 -20.3187 -20.3187
   -20.3091 -20.3091 -20.3082 -20.3082 -20.3080 -20.3080 -20.3070 -20.3070
   -20.3055 -20.3055 -20.3055 -20.3055 -20.3053 -20.3053 -20.3052 -20.3052
   -20.2996 -20.2996 -20.2977 -20.2977 -20.2970 -20.2970 -20.2956 -20.2956
   -20.2920 -20.2920 -20.2911 -20.2911 -20.2907 -20.2907 -20.2894 -20.2893
    -9.5944  -9.5944  -9.3524  -9.3524  -8.8919  -8.8919  -8.7172  -8.7172
    -8.5848  -8.5848  -8.5101  -8.5101  -8.1640  -8.1640  -8.1263  -8.1263
    -8.0863  -8.0863  -8.0657  -8.0657  -8.0116  -8.0116  -7.7938  -7.7938
     1.4530   1.4530   1.7276   1.7276   2.8433   2.8433   2.9298   2.9298
     2.9763   2.9764   3.1095   3.1095   3.2164   3.2164   3.2686   3.2686
     3.3897   3.3897   3.5098   3.5098   3.5533   3.5533   3.7082   3.7082
     3.8347   3.8347   4.0465   4.0465   4.3717   4.3717   4.4570   4.4570
     4.5669   4.5669   4.6370   4.6370   4.8730   4.8730   4.9765   4.9765
     5.2383   5.2383   5.4452   5.4452   5.6726   5.6727   5.7476   5.7476
     6.5886   6.5886   6.7363   6.7363   6.7821   6.7822   6.9522   6.9522
     7.2209   7.2209   7.2762   7.2762   7.3508   7.3508   7.3955   7.3955
     7.5031   7.5031   7.6921   7.6921   7.7260   7.7260   7.7428   7.7428
    11.1266  11.1266  11.4322  11.4322  11.5050  11.5050  11.7320  11.7320
    11.9980  11.9980  12.1339  12.1339  12.3207  12.3207  12.3786  12.3786
    12.7176  12.7176  12.8514  12.8514  13.2710  13.2710  13.3240  13.3241
    15.3941  15.3941  15.7853  15.7853  16.6083  16.6083  16.7722  16.7723
    16.8428  16.8431  16.9893  16.9894  17.0510

          k = 0.3333 0.0000 0.3333 ( 62316 PWs)   bands (ev):

   -66.1762 -66.1757 -66.1757 -66.1757 -66.1753 -66.1752 -66.1752 -66.1748
   -30.6618 -30.6611 -30.6592 -30.6591 -30.6133 -30.6132 -30.6112 -30.6106
   -30.4608 -30.4608 -30.4577 -30.4570 -30.4296 -30.4281 -30.4280 -30.4263
   -30.4143 -30.4111 -30.4111 -30.4065 -30.3747 -30.3729 -30.3727 -30.3709
   -20.3414 -20.3413 -20.3412 -20.3412 -20.3411 -20.3411 -20.3410 -20.3409
   -20.3275 -20.3275 -20.3275 -20.3273 -20.3270 -20.3268 -20.3268 -20.3267
   -20.3224 -20.3222 -20.3222 -20.3222 -20.3198 -20.3197 -20.3197 -20.3195
   -20.3089 -20.3089 -20.3088 -20.3087 -20.3081 -20.3079 -20.3079 -20.3076
   -20.3076 -20.3073 -20.3070 -20.3068 -20.3033 -20.3031 -20.3030 -20.3028
   -20.2989 -20.2987 -20.2984 -20.2983 -20.2965 -20.2965 -20.2962 -20.2960
   -20.2918 -20.2916 -20.2915 -20.2915 -20.2902 -20.2902 -20.2900 -20.2898
    -9.5976  -9.3899  -9.3463  -9.3309  -9.0148  -8.9903  -8.8319  -8.7516
    -8.7422  -8.5262  -8.5063  -8.4828  -8.4775  -8.3988  -8.3952  -8.3305
    -8.1114  -8.0990  -8.0652  -8.0252  -7.5774  -7.5430  -7.5415  -7.5086
     1.9247   1.9560   1.9577   2.0316   2.0770   2.1372   2.1906   2.2079
     2.3706   2.3814   2.4979   2.6138   2.9239   2.9730   3.0378   3.1162
     3.2270   3.2296   3.5840   3.7091   3.9198   3.9381   4.0167   4.0593
     4.1247   4.1910   4.2770   4.3258   4.4068   4.4351   4.5303   4.5433
     4.5991   4.7347   4.9274   4.9605   5.0336   5.0766   5.0948   5.2304
     5.2563   5.4269   5.5533   5.6979   6.1111   6.1141   6.1696   6.2282
     6.4991   6.5575   6.6301   6.6322   6.7295   6.7602   6.7899   6.8401
     6.9804   7.0354   7.1080   7.1097   7.1540   7.2521   7.2817   7.3433
     7.4328   7.5004   7.5713   7.5877   7.8712   7.9279   8.0144   8.0704
    10.6974  10.7482  10.9358  10.9371  11.3339  11.4569  11.9697  11.9769
    12.0788  12.1291  12.2872  12.2891  12.5756  12.5845  12.6350  12.7583
    12.8128  12.9062  12.9655  13.1493  13.2631  13.3628  13.3889  13.5259
    14.3395  14.5348  14.5489  14.8645  15.7519  16.0545  16.3197  16.4420
    16.6533  16.9443  17.1187  17.4112  17.5308

          k = 0.3333 0.0000-0.5000 ( 62288 PWs)   bands (ev):

   -66.1759 -66.1759 -66.1755 -66.1755 -66.1754 -66.1754 -66.1750 -66.1750
   -30.6603 -30.6603 -30.6374 -30.6374 -30.6351 -30.6351 -30.6120 -30.6120
   -30.4591 -30.4591 -30.4404 -30.4404 -30.4380 -30.4379 -30.4251 -30.4251
   -30.4231 -30.4231 -30.4101 -30.4101 -30.3738 -30.3738 -30.3718 -30.3718
   -20.3413 -20.3413 -20.3412 -20.3412 -20.3411 -20.3411 -20.3410 -20.3410
   -20.3275 -20.3275 -20.3272 -20.3272 -20.3270 -20.3270 -20.3268 -20.3268
   -20.3223 -20.3223 -20.3211 -20.3211 -20.3209 -20.3209 -20.3197 -20.3197
   -20.3088 -20.3088 -20.3085 -20.3085 -20.3081 -20.3081 -20.3079 -20.3079
   -20.3075 -20.3075 -20.3070 -20.3070 -20.3032 -20.3032 -20.3029 -20.3029
   -20.2986 -20.2986 -20.2975 -20.2975 -20.2972 -20.2972 -20.2963 -20.2963
   -20.2916 -20.2916 -20.2910 -20.2910 -20.2908 -20.2908 -20.2900 -20.2900
    -9.4375  -9.4375  -9.1765  -9.1765  -9.0400  -9.0400  -8.7475  -8.7475
    -8.6299  -8.6299  -8.5679  -8.5679  -8.4161  -8.4161  -8.3886  -8.3885
    -8.3031  -8.3031  -8.0735  -8.0735  -7.5602  -7.5602  -7.5257  -7.5257
     1.9513   1.9513   2.0207   2.0207   2.1949   2.1949   2.3604   2.3604
     2.9057   2.9057   2.9988   2.9988   3.0515   3.0515   3.1780   3.1780
     3.2902   3.2902   3.4755   3.4755   3.6716   3.6716   3.8092   3.8092
     3.9012   3.9012   4.1041   4.1041   4.2471   4.2471   4.3506   4.3506
     4.5893   4.5893   4.8129   4.8129   4.9898   4.9898   5.0575   5.0575
     5.2473   5.2473   5.5720   5.5720   6.1456   6.1456   6.2299   6.2299
     6.5604   6.5604   6.6004   6.6004   6.6872   6.6872   6.7985   6.7985
     7.0874   7.0874   7.1528   7.1528   7.3140   7.3140   7.4334   7.4334
     7.4500   7.4500   7.7191   7.7192   7.7623   7.7623   8.0163   8.0163
    10.8217  10.8217  11.4520  11.4520  11.5063  11.5063  11.8123  11.8123
    12.0394  12.0394  12.1091  12.1091  12.5630  12.5630  12.7216  12.7216
    12.8299  12.8299  13.0549  13.0549  13.1079  13.1079  13.4100  13.4100
    14.4541  14.4541  14.7220  14.7220  16.1573  16.1573  16.6294  16.6294
    16.8859  16.8859  17.3653  17.3653  17.8770

          k = 0.3333 0.1575 0.3333 ( 62283 PWs)   bands (ev):

   -66.1761 -66.1758 -66.1756 -66.1756 -66.1753 -66.1753 -66.1751 -66.1748
   -30.6617 -30.6612 -30.6592 -30.6591 -30.6133 -30.6132 -30.6111 -30.6106
   -30.4607 -30.4606 -30.4575 -30.4569 -30.4269 -30.4254 -30.4252 -30.4230
   -30.4143 -30.4107 -30.4105 -30.4059 -30.3783 -30.3764 -30.3762 -30.3743
   -20.3414 -20.3413 -20.3412 -20.3411 -20.3411 -20.3411 -20.3409 -20.3409
   -20.3275 -20.3275 -20.3275 -20.3273 -20.3270 -20.3268 -20.3268 -20.3267
   -20.3224 -20.3222 -20.3222 -20.3222 -20.3198 -20.3197 -20.3197 -20.3195
   -20.3089 -20.3088 -20.3087 -20.3087 -20.3080 -20.3077 -20.3077 -20.3076
   -20.3074 -20.3073 -20.3068 -20.3068 -20.3036 -20.3035 -20.3033 -20.3032
   -20.2989 -20.2987 -20.2984 -20.2983 -20.2965 -20.2965 -20.2962 -20.2960
   -20.2918 -20.2916 -20.2915 -20.2915 -20.2902 -20.2902 -20.2900 -20.2899
    -9.5775  -9.3995  -9.3313  -9.3174  -9.0097  -8.9875  -8.7928  -8.7422
    -8.7367  -8.5088  -8.4750  -8.4626  -8.4447  -8.3967  -8.3852  -8.3169
    -8.1108  -8.0994  -8.0668  -8.0243  -7.6564  -7.6239  -7.6218  -7.5906
     2.0052   2.0438   2.0478   2.0810   2.2074   2.2295   2.2576   2.2848
     2.3926   2.4093   2.4990   2.6347   2.9402   3.0311   3.0392   3.1913
     3.2766   3.2988   3.5829   3.7051   3.9104   3.9359   4.0125   4.0645
     4.1336   4.2061   4.2500   4.3041   4.3485   4.4586   4.5157   4.5198
     4.5943   4.7129   4.8398   4.9011   4.9248   4.9495   4.9612   5.2024
     5.2029   5.2907   5.3665   5.5774   5.8609   5.9441   5.9772   6.0464
[...]
   -20.0412 -20.0412 -20.0409 -20.0409 -20.0407 -20.0407 -20.0401 -20.0401
   -20.0400 -20.0400 -20.0392 -20.0392 -20.0378 -20.0378 -20.0375 -20.0374
   -20.0303 -20.0303 -20.0293 -20.0293 -20.0290 -20.0290 -20.0280 -20.0280
   -20.0224 -20.0224 -20.0220 -20.0220 -20.0218 -20.0218 -20.0213 -20.0213
    -9.1287  -9.1287  -8.8848  -8.8847  -8.8095  -8.8095  -8.4936  -8.4935
    -8.4112  -8.4112  -8.2828  -8.2828  -8.2112  -8.2111  -8.1066  -8.1066
    -7.9882  -7.9882  -7.8769  -7.8769  -7.8528  -7.8528  -7.7346  -7.7346
     2.3863   2.3863   2.5564   2.5564   2.6061   2.6061   2.7500   2.7500
     3.1996   3.1996   3.3018   3.3018   3.3529   3.3529   3.4845   3.4845
     3.6090   3.6090   3.7759   3.7759   3.9318   3.9318   4.0124   4.0124
     4.1578   4.1578   4.3071   4.3071   4.3445   4.3445   4.4919   4.4919
     4.6223   4.6223   4.7896   4.7896   4.8549   4.8550   5.0775   5.0775
     5.1462   5.1462   5.2306   5.2306   5.3533   5.3533   5.6068   5.6068
     6.9743   6.9743   7.1342   7.1342   7.1591   7.1591   7.2606   7.2606
     7.3846   7.3846   7.4445   7.4445   7.5533   7.5533   7.7052   7.7052
     7.7273   7.7273   7.8406   7.8406   7.8677   7.8678   8.0246   8.0246
    11.4446  11.4446  11.8305  11.8305  11.9940  11.9940  12.0542  12.0542
    12.3119  12.3119  12.4818  12.4818  12.6311  12.6311  12.7755  12.7755
    12.9517  12.9517  13.0680  13.0680  13.1524  13.1524  13.4612  13.4612
    16.0966  16.0966  16.4454  16.4454  16.7278  16.7278  16.9004  16.9004
    17.1153  17.1153  17.5699  17.5699  17.8832

          k = 0.3311-0.4854 0.3311 ( 61434 PWs)   bands (ev):

   -65.9181 -65.9181 -65.9177 -65.9177 -65.9176 -65.9176 -65.9172 -65.9172
   -30.3781 -30.3781 -30.3757 -30.3757 -30.3364 -30.3364 -30.3339 -30.3339
   -30.2383 -30.2383 -30.2369 -30.2369 -30.2337 -30.2337 -30.2322 -30.2322
   -30.1816 -30.1816 -30.1782 -30.1782 -30.1401 -30.1401 -30.1373 -30.1373
   -20.0767 -20.0767 -20.0765 -20.0765 -20.0764 -20.0764 -20.0762 -20.0762
   -20.0635 -20.0635 -20.0634 -20.0634 -20.0628 -20.0628 -20.0628 -20.0628
   -20.0521 -20.0521 -20.0519 -20.0519 -20.0499 -20.0499 -20.0498 -20.0498
   -20.0409 -20.0409 -20.0408 -20.0408 -20.0398 -20.0398 -20.0397 -20.0397
   -20.0393 -20.0393 -20.0392 -20.0392 -20.0389 -20.0389 -20.0386 -20.0386
   -20.0305 -20.0305 -20.0302 -20.0302 -20.0281 -20.0281 -20.0279 -20.0279
   -20.0225 -20.0225 -20.0222 -20.0222 -20.0214 -20.0214 -20.0212 -20.0212
    -9.1614  -9.1614  -8.9764  -8.9764  -8.7175  -8.7175  -8.4301  -8.4301
    -8.3915  -8.3915  -8.2193  -8.2193  -8.1690  -8.1690  -8.1503  -8.1503
    -8.0646  -8.0646  -8.0090  -8.0090  -7.7725  -7.7725  -7.7152  -7.7152
     2.3958   2.3958   2.4294   2.4294   2.6633   2.6633   2.7924   2.7925
     3.1375   3.1375   3.2403   3.2403   3.3849   3.3849   3.4427   3.4427
     3.4990   3.4990   3.8623   3.8623   4.0240   4.0240   4.0555   4.0555
     4.0856   4.0856   4.2767   4.2767   4.3847   4.3847   4.5334   4.5334
     4.7598   4.7598   4.8186   4.8186   4.9289   4.9289   5.0525   5.0525
     5.1534   5.1534   5.2017   5.2017   5.2886   5.2886   5.5604   5.5604
     6.9979   6.9979   7.1405   7.1405   7.2532   7.2532   7.3248   7.3249
     7.4066   7.4066   7.4510   7.4510   7.5193   7.5193   7.6387   7.6387
     7.7116   7.7116   7.8248   7.8248   7.8894   7.8894   7.9334   7.9335
    11.4074  11.4074  11.8106  11.8106  11.9185  11.9185  12.1817  12.1817
    12.2824  12.2824  12.4381  12.4381  12.5998  12.5998  12.7741  12.7741
    12.9177  12.9177  13.0689  13.0689  13.1461  13.1461  13.4531  13.4531
    16.0767  16.0767  16.4258  16.4258  16.7299  16.7299  16.8584  16.8584
    17.2255  17.2255  17.7403  17.7403  17.8479

          k = 0.3311-0.4854-0.4966 ( 61452 PWs)   bands (ev):

   -65.9179 -65.9179 -65.9178 -65.9178 -65.9174 -65.9174 -65.9174 -65.9174
   -30.3769 -30.3769 -30.3571 -30.3571 -30.3547 -30.3547 -30.3351 -30.3351
   -30.2377 -30.2377 -30.2361 -30.2361 -30.2348 -30.2347 -30.2330 -30.2330
   -30.1800 -30.1800 -30.1608 -30.1608 -30.1578 -30.1577 -30.1388 -30.1388
   -20.0766 -20.0766 -20.0766 -20.0766 -20.0763 -20.0763 -20.0763 -20.0763
   -20.0635 -20.0635 -20.0632 -20.0632 -20.0631 -20.0631 -20.0628 -20.0628
   -20.0520 -20.0520 -20.0510 -20.0510 -20.0509 -20.0508 -20.0499 -20.0499
   -20.0409 -20.0409 -20.0404 -20.0404 -20.0401 -20.0401 -20.0397 -20.0397
   -20.0393 -20.0393 -20.0393 -20.0393 -20.0389 -20.0389 -20.0388 -20.0388
   -20.0303 -20.0303 -20.0293 -20.0293 -20.0290 -20.0290 -20.0280 -20.0280
   -20.0223 -20.0223 -20.0220 -20.0220 -20.0218 -20.0217 -20.0213 -20.0213
    -9.0553  -9.0553  -8.9083  -8.9083  -8.6689  -8.6689  -8.5220  -8.5220
    -8.3193  -8.3193  -8.2547  -8.2547  -8.1687  -8.1687  -8.1499  -8.1499
    -8.0607  -8.0607  -8.0318  -8.0318  -7.9629  -7.9629  -7.7436  -7.7436
     2.4322   2.4322   2.6639   2.6639   3.0455   3.0455   3.1630   3.1630
     3.2821   3.2821   3.3302   3.3302   3.3617   3.3617   3.4307   3.4307
     3.6453   3.6453   3.6741   3.6741   3.8081   3.8081   4.0507   4.0507
     4.0983   4.0983   4.2114   4.2114   4.3445   4.3445   4.5069   4.5069
     4.6292   4.6292   4.6590   4.6590   4.7425   4.7425   4.7925   4.7925
     4.9257   4.9257   5.0837   5.0837   5.2588   5.2588   5.2896   5.2896
     7.0554   7.0554   7.2614   7.2614   7.3047   7.3047   7.3421   7.3421
     7.4488   7.4488   7.5143   7.5143   7.6150   7.6150   7.6681   7.6681
     7.7328   7.7328   7.8210   7.8210   7.8481   7.8481   7.9153   7.9154
    11.7097  11.7097  11.9028  11.9028  12.0595  12.0595  12.2131  12.2131
    12.3087  12.3087  12.4883  12.4883  12.5962  12.5962  12.6489  12.6490
    12.7537  12.7538  12.8565  12.8565  13.1697  13.1697  13.2409  13.2409
    16.3010  16.3011  16.6123  16.6123  17.1373  17.1373  17.2618  17.2618
    17.4504  17.4504  17.5552  17.5554  17.6418

          k =-0.4966 0.0000-0.4966 ( 61524 PWs)   bands (ev):

   -65.9180 -65.9180 -65.9179 -65.9179 -65.9173 -65.9173 -65.9173 -65.9173
   -30.3598 -30.3598 -30.3592 -30.3592 -30.3538 -30.3538 -30.3533 -30.3532
   -30.2700 -30.2700 -30.2697 -30.2696 -30.2001 -30.2001 -30.1995 -30.1995
   -30.1603 -30.1603 -30.1597 -30.1597 -30.1587 -30.1587 -30.1582 -30.1582
   -20.0766 -20.0765 -20.0765 -20.0765 -20.0764 -20.0764 -20.0764 -20.0764
   -20.0633 -20.0633 -20.0632 -20.0632 -20.0630 -20.0630 -20.0630 -20.0630
   -20.0512 -20.0512 -20.0512 -20.0512 -20.0507 -20.0507 -20.0506 -20.0506
   -20.0425 -20.0425 -20.0424 -20.0424 -20.0405 -20.0404 -20.0403 -20.0403
   -20.0398 -20.0398 -20.0397 -20.0397 -20.0361 -20.0361 -20.0360 -20.0360
   -20.0294 -20.0294 -20.0293 -20.0293 -20.0290 -20.0290 -20.0289 -20.0289
   -20.0221 -20.0221 -20.0221 -20.0220 -20.0217 -20.0217 -20.0216 -20.0216
    -9.1565  -9.1565  -9.1404  -9.1404  -8.6411  -8.6410  -8.5753  -8.5753
    -8.4603  -8.4603  -8.3873  -8.3873  -8.1262  -8.1261  -8.0832  -8.0832
    -8.0493  -8.0493  -7.9990  -7.9990  -7.5147  -7.5147  -7.5132  -7.5132
     1.7637   1.7637   1.7762   1.7762   3.0779   3.0779   3.1036   3.1036
     3.2383   3.2383   3.2411   3.2411   3.4263   3.4263   3.5139   3.5139
     3.6067   3.6067   3.6255   3.6255   3.7500   3.7500   3.8595   3.8595
     3.8947   3.8947   4.1160   4.1160   4.4177   4.4177   4.4820   4.4820
     4.5214   4.5214   4.6645   4.6645   5.2345   5.2345   5.2810   5.2810
     5.6100   5.6100   5.6768   5.6768   6.3304   6.3304   6.3437   6.3437
     6.5985   6.5985   6.6634   6.6634   6.6781   6.6781   6.6836   6.6836
     7.5464   7.5464   7.5661   7.5661   7.5919   7.5919   7.6950   7.6950
     7.7653   7.7653   7.8480   7.8480   7.8488   7.8488   8.0822   8.0822
    11.5200  11.5200  11.6774  11.6774  11.7443  11.7443  11.8880  11.8880
    12.3963  12.3963  12.4487  12.4487  12.5552  12.5552  12.6119  12.6119
    13.2998  13.2998  13.4262  13.4262  13.5406  13.5406  13.6548  13.6548
    15.4021  15.4021  15.4300  15.4301  16.7849  16.7849  17.1428  17.1428
    17.3779  17.3779  17.4358  17.4359  17.6054

          k =-0.4966 0.1618-0.4966 ( 61440 PWs)   bands (ev):

   -65.9179 -65.9179 -65.9179 -65.9179 -65.9174 -65.9173 -65.9173 -65.9173
   -30.3592 -30.3592 -30.3586 -30.3586 -30.3540 -30.3540 -30.3535 -30.3535
   -30.2656 -30.2656 -30.2652 -30.2652 -30.2049 -30.2049 -30.2043 -30.2043
   -30.1602 -30.1602 -30.1597 -30.1597 -30.1588 -30.1588 -30.1584 -30.1584
   -20.0765 -20.0765 -20.0765 -20.0765 -20.0764 -20.0764 -20.0764 -20.0764
   -20.0633 -20.0633 -20.0632 -20.0632 -20.0630 -20.0630 -20.0630 -20.0630
   -20.0512 -20.0512 -20.0511 -20.0511 -20.0507 -20.0507 -20.0507 -20.0506
   -20.0421 -20.0421 -20.0420 -20.0420 -20.0404 -20.0404 -20.0403 -20.0403
   -20.0398 -20.0398 -20.0397 -20.0397 -20.0366 -20.0365 -20.0364 -20.0364
   -20.0293 -20.0293 -20.0293 -20.0293 -20.0290 -20.0290 -20.0290 -20.0289
   -20.0221 -20.0221 -20.0220 -20.0220 -20.0217 -20.0217 -20.0217 -20.0216
    -9.0964  -9.0964  -9.0775  -9.0775  -8.6522  -8.6521  -8.5880  -8.5880
    -8.4422  -8.4422  -8.3712  -8.3712  -8.1265  -8.1265  -8.0835  -8.0835
    -8.0517  -8.0517  -7.9991  -7.9991  -7.6150  -7.6150  -7.6124  -7.6124
     1.9843   1.9844   1.9971   1.9971   3.0899   3.0899   3.1227   3.1227
     3.2396   3.2396   3.2443   3.2443   3.4436   3.4436   3.5483   3.5483
     3.6057   3.6057   3.6236   3.6236   3.8004   3.8005   3.8982   3.8982
     3.9431   3.9431   4.1635   4.1635   4.3991   4.3991   4.4793   4.4793
     4.5040   4.5040   4.6621   4.6621   5.0058   5.0058   5.0446   5.0446
     5.3730   5.3730   5.4118   5.4118   6.0648   6.0648   6.0667   6.0667
     6.7599   6.7599   6.8334   6.8334   6.8782   6.8782   6.9145   6.9145
     7.5472   7.5472   7.5711   7.5711   7.6029   7.6029   7.6995   7.6995
     7.7697   7.7697   7.8410   7.8410   7.8597   7.8597   8.0556   8.0556
    11.5909  11.5909  11.7611  11.7611  11.7860  11.7860  11.9557  11.9557
    12.4000  12.4000  12.4423  12.4423  12.5661  12.5661  12.6176  12.6176
    13.1641  13.1641  13.2864  13.2865  13.4351  13.4351  13.5439  13.5439
    15.7257  15.7257  15.7468  15.7468  16.8415  16.8415  17.1605  17.1605
    17.3482  17.3482  17.4508  17.4508  17.6270

          k =-0.4966 0.3236-0.4966 ( 61376 PWs)   bands (ev):

   -65.9178 -65.9178 -65.9178 -65.9178 -65.9175 -65.9175 -65.9175 -65.9174
   -30.3578 -30.3578 -30.3571 -30.3571 -30.3548 -30.3548 -30.3543 -30.3543
   -30.2532 -30.2531 -30.2528 -30.2528 -30.2180 -30.2180 -30.2175 -30.2175
   -30.1598 -30.1598 -30.1596 -30.1596 -30.1591 -30.1590 -30.1588 -30.1588
   -20.0765 -20.0765 -20.0765 -20.0765 -20.0764 -20.0764 -20.0764 -20.0764
   -20.0632 -20.0632 -20.0632 -20.0632 -20.0631 -20.0631 -20.0630 -20.0630
   -20.0511 -20.0511 -20.0511 -20.0510 -20.0508 -20.0508 -20.0507 -20.0507
   -20.0411 -20.0411 -20.0409 -20.0409 -20.0404 -20.0404 -20.0402 -20.0402
   -20.0399 -20.0399 -20.0396 -20.0396 -20.0377 -20.0377 -20.0375 -20.0375
   -20.0293 -20.0293 -20.0292 -20.0292 -20.0291 -20.0291 -20.0290 -20.0290
   -20.0220 -20.0220 -20.0220 -20.0219 -20.0218 -20.0218 -20.0217 -20.0217
    -8.9456  -8.9456  -8.9155  -8.9154  -8.6905  -8.6905  -8.6338  -8.6337
    -8.3759  -8.3759  -8.3117  -8.3117  -8.1321  -8.1321  -8.0815  -8.0815
    -8.0700  -8.0700  -7.9981  -7.9981  -7.8543  -7.8543  -7.8410  -7.8410
     2.5567   2.5567   2.5678   2.5678   3.1113   3.1114   3.1537   3.1537
     3.2503   3.2503   3.2526   3.2526   3.4873   3.4873   3.5869   3.5869
     3.6123   3.6123   3.6168   3.6168   3.9198   3.9198   3.9488   3.9488
     4.1294   4.1294   4.2016   4.2016   4.3992   4.3992   4.4024   4.4024
     4.4617   4.4617   4.6535   4.6536   4.6763   4.6763   4.7114   4.7114
     4.9641   4.9641   4.9666   4.9666   5.3753   5.3754   5.3989   5.3989
     7.0507   7.0507   7.1600   7.1600   7.1763   7.1763   7.2818   7.2818
     7.5410   7.5411   7.5785   7.5785   7.5999   7.5999   7.7005   7.7005
     7.7848   7.7848   7.8194   7.8194   7.8526   7.8526   7.9751   7.9751
    11.8151  11.8151  11.9426  11.9426  11.9757  11.9757  12.1360  12.1360
    12.4019  12.4019  12.4176  12.4176  12.6075  12.6075  12.6434  12.6434
    12.8414  12.8414  12.9536  12.9536  13.1376  13.1376  13.2225  13.2225
    16.5278  16.5278  16.5341  16.5341  17.0136  17.0136  17.2011  17.2011
    17.2539  17.2539  17.4808  17.4809  17.6999

          k =-0.4966-0.4854-0.4966 ( 61424 PWs)   bands (ev):

   -65.9176 -65.9176 -65.9176 -65.9176 -65.9176 -65.9176 -65.9176 -65.9176
   -30.3567 -30.3567 -30.3556 -30.3556 -30.3556 -30.3556 -30.3556 -30.3556
   -30.2358 -30.2358 -30.2358 -30.2358 -30.2357 -30.2357 -30.2349 -30.2349
   -30.1595 -30.1595 -30.1594 -30.1594 -30.1594 -30.1594 -30.1592 -30.1592
   -20.0765 -20.0765 -20.0765 -20.0765 -20.0765 -20.0765 -20.0764 -20.0764
   -20.0632 -20.0632 -20.0632 -20.0631 -20.0631 -20.0631 -20.0631 -20.0631
   -20.0510 -20.0510 -20.0510 -20.0510 -20.0509 -20.0509 -20.0508 -20.0508
   -20.0404 -20.0404 -20.0404 -20.0404 -20.0401 -20.0401 -20.0401 -20.0401
   -20.0393 -20.0393 -20.0392 -20.0392 -20.0389 -20.0389 -20.0389 -20.0389
   -20.0292 -20.0292 -20.0292 -20.0292 -20.0291 -20.0291 -20.0291 -20.0291
   -20.0219 -20.0219 -20.0219 -20.0219 -20.0219 -20.0219 -20.0218 -20.0218
    -8.8159  -8.8158  -8.7544  -8.7544  -8.7398  -8.7398  -8.7398  -8.7398
    -8.2732  -8.2732  -8.1908  -8.1908  -8.1908  -8.1908  -8.1495  -8.1495
    -8.0501  -8.0501  -8.0501  -8.0501  -7.9905  -7.9905  -7.9703  -7.9703
     3.0699   3.0699   3.0699   3.0699   3.0864   3.0864   3.1186   3.1186
     3.2777   3.2777   3.4164   3.4164   3.4164   3.4164   3.5144   3.5144
     3.5986   3.5986   3.7148   3.7148   3.7148   3.7148   3.7376   3.7376
     4.3148   4.3148   4.3152   4.3152   4.4038   4.4038   4.4038   4.4038
     4.5908   4.5908   4.5930   4.5930   4.5930   4.5930   4.7035   4.7035
     4.7386   4.7386   4.8244   4.8244   4.8270   4.8270   4.8270   4.8270
     7.1808   7.1808   7.3135   7.3135   7.3135   7.3135   7.4745   7.4745
     7.5541   7.5541   7.5541   7.5541   7.5871   7.5872   7.6847   7.6848
     7.8137   7.8137   7.8187   7.8187   7.8187   7.8187   7.8912   7.8912
    12.0751  12.0751  12.1195  12.1195  12.1195  12.1195  12.1653  12.1653
    12.4612  12.4612  12.4612  12.4612  12.4653  12.4653  12.6786  12.6786
    12.7125  12.7125  12.8563  12.8563  12.8563  12.8563  12.8932  12.8932
    17.0785  17.0785  17.0785  17.0785  17.1785  17.1785  17.2425  17.2425
    17.5909  17.5909  17.5909  17.5909  17.6589

     the Fermi energy is     9.2215 ev

!    total energy              =   -6261.07920352 Ry
     Harris-Foulkes estimate   =   -6261.07920352 Ry
     estimated scf accuracy    <          7.5E-11 Ry

     The total energy is the sum of the following terms:

     one-electron contribution =   -4647.11465078 Ry
     hartree contribution      =    2563.45862725 Ry
     xc contribution           =    -965.63373498 Ry
     ewald contribution        =   -3211.78944501 Ry
     smearing contrib. (-TS)   =      -0.00000000 Ry

     convergence has been achieved in  14 iterations

     Forces acting on atoms (cartesian axes, Ry/au):

     atom    1 type  1   force =     0.05524686   -0.01500190    0.00763710
     atom    2 type  1   force =    -0.00763710    0.01500190    0.05524686
     atom    3 type  1   force =    -0.05524686    0.01500190    0.00763710
     atom    4 type  1   force =     0.00763710   -0.01500190    0.05524686
     atom    5 type  1   force =    -0.05524686   -0.01500190   -0.00763710
     atom    6 type  1   force =     0.00763710    0.01500190   -0.05524686
     atom    7 type  1   force =     0.05524686    0.01500190   -0.00763710
     atom    8 type  1   force =    -0.00763710   -0.01500190   -0.05524686
     atom    9 type  2   force =    -0.00187474    0.00368908    0.00401429
     atom   10 type  2   force =    -0.00401429   -0.00368908   -0.00187474
     atom   11 type  2   force =     0.00187474   -0.00368908    0.00401429
     atom   12 type  2   force =     0.00401429    0.00368908   -0.00187474
     atom   13 type  2   force =     0.00187474    0.00368908   -0.00401429
     atom   14 type  2   force =     0.00401429   -0.00368908    0.00187474
     atom   15 type  2   force =    -0.00187474   -0.00368908   -0.00401429
     atom   16 type  2   force =    -0.00401429    0.00368908    0.00187474
     atom   17 type  2   force =     0.03600843   -0.00365969   -0.00225319
     atom   18 type  2   force =     0.00055414   -0.00518285   -0.00381449
     atom   19 type  2   force =    -0.03600843    0.00365969   -0.00225319
     atom   20 type  2   force =    -0.00055414    0.00518285   -0.00381449
     atom   21 type  2   force =    -0.03600843   -0.00365969    0.00225319
     atom   22 type  2   force =    -0.00055414   -0.00518285    0.00381449
     atom   23 type  2   force =     0.03600843    0.00365969    0.00225319
     atom   24 type  2   force =     0.00055414    0.00518285    0.00381449
     atom   25 type  2   force =     0.00381449   -0.00518285   -0.00055414
     atom   26 type  2   force =     0.00225319    0.00365969    0.03600843
     atom   27 type  2   force =    -0.00381449    0.00518285   -0.00055414
     atom   28 type  2   force =    -0.00225319   -0.00365969    0.03600843
     atom   29 type  2   force =    -0.00381449   -0.00518285    0.00055414
     atom   30 type  2   force =    -0.00225319    0.00365969   -0.03600843
     atom   31 type  2   force =     0.00381449    0.00518285    0.00055414
     atom   32 type  2   force =     0.00225319   -0.00365969   -0.03600843

     Total force =     0.000000     Total SCF correction =     0.000000


     Computing stress (Cartesian axis) and pressure

          total   stress  (Ry/bohr**3)                   (kbar)     P=   -0.04
   0.00000101   0.00000000   0.00000000          0.15      0.00      0.00
   0.00000000  -0.00000278   0.00000000          0.00     -0.41      0.00
   0.00000000   0.00000000   0.00000101          0.00      0.00      0.15


     Writing output data file Landau_16.save
 
     init_run     :     67.34s CPU     69.05s WALL (       2 calls)
     electrons    :   6471.80s CPU   6578.56s WALL (       6 calls)
     update_pot   :    115.73s CPU    115.88s WALL (       4 calls)
     forces       :    151.98s CPU    153.88s WALL (       6 calls)
     stress       :   1041.21s CPU   1055.04s WALL (       6 calls)

     Called by init_run:
     wfcinit      :     43.36s CPU     44.81s WALL (       2 calls)
     potinit      :     10.17s CPU     10.23s WALL (       2 calls)

     Called by electrons:
     c_bands      :   5644.65s CPU   5744.04s WALL (      82 calls)
     sum_band     :    757.84s CPU    760.32s WALL (      82 calls)
     v_of_rho     :     12.49s CPU     12.61s WALL (      87 calls)
     mix_rho      :     31.29s CPU     34.96s WALL (      82 calls)

     Called by c_bands:
     init_us_2    :     69.05s CPU     70.94s WALL (     166 calls)
     cegterg      :   4795.14s CPU   4893.34s WALL (      82 calls)

     Called by sum_band:

     Called by *egterg:
     h_psi        :   3669.51s CPU   3682.10s WALL (     338 calls)
     g_psi        :     14.91s CPU     14.92s WALL (     254 calls)
     cdiaghg      :     53.31s CPU     53.44s WALL (     331 calls)

     Called by h_psi:
     h_psi:pot    :   3639.34s CPU   3651.48s WALL (     338 calls)
     h_psi:calbec :    425.20s CPU    433.97s WALL (     338 calls)
     vloc_psi     :   2767.03s CPU   2769.14s WALL (     338 calls)
     add_vuspsi   :    447.10s CPU    448.37s WALL (     338 calls)

     General routines
     calbec       :    486.10s CPU    495.47s WALL (     368 calls)
     fft          :      8.66s CPU      8.67s WALL (     396 calls)
     fftw         :   2647.64s CPU   2648.70s WALL (  107752 calls)
 
     Parallel routines
 
     PWSCF        :     2h10m CPU        2h13m WALL

 
   This run was terminated on:   6:14:11  23Mar2020            

=------------------------------------------------------------------------------=
   JOB DONE.
=------------------------------------------------------------------------------=
