
     Program PWSCF v.6.4.1 starts on 21Nov2019 at 16:11:11 

     This program is part of the open-source Quantum ESPRESSO suite
     for quantum simulation of materials; please cite
         "P. Giannozzi et al., J. Phys.:Condens. Matter 21 395502 (2009);
         "P. Giannozzi et al., J. Phys.:Condens. Matter 29 465901 (2017);
          URL http://www.quantum-espresso.org", 
     in publications or presentations arising from this work. More details at
     http://www.quantum-espresso.org/quote

     Parallel version (MPI), running on    40 processors

     MPI processes distributed on     4 nodes
     K-points division:     npool     =      40
     Reading input from scf.in

     Current dimensions of program PWSCF are:
     Max number of different atomic species (ntypx) = 10
     Max number of k-points (npk) =  40000
     Max angular momentum in pseudopotentials (lmaxx) =  3

     Subspace diagonalization in iterative solution of the eigenvalue problem:
     a serial algorithm will be used

     Message from routine setup:
     using ibrav=0 with symmetry is DISCOURAGED, use correct ibrav instead
 
     G-vector sticks info
     --------------------
     sticks:   dense  smooth     PW     G-vecs:    dense   smooth      PW
     Sum        3761    3761   1033               253181   253181   36109
 


     bravais-lattice index     =            0
     lattice parameter (alat)  =       9.9269  a.u.
     unit-cell volume          =    1424.8707 (a.u.)^3
     number of atoms/cell      =           16
     number of atomic types    =            2
     number of electrons       =       184.42
     number of Kohn-Sham states=          111
     kinetic-energy cutoff     =     120.0000  Ry
     charge density cutoff     =     480.0000  Ry
     convergence threshold     =      1.0E-08
     mixing beta               =       0.7000
     number of iterations used =            8  plain     mixing
     Exchange-correlation      = SLA PW NOGX NOGC ( 1  4  0  0 0 0)

     celldm(1)=   9.926857  celldm(2)=   0.000000  celldm(3)=   0.000000
     celldm(4)=   0.000000  celldm(5)=   0.000000  celldm(6)=   0.000000

     crystal axes: (cart. coord. in units of alat)
               a(1) = (   1.000000   0.000000   0.000000 )  
               a(2) = (   0.000000   1.000000   0.000000 )  
               a(3) = (   0.000000   0.000000   1.456600 )  

     reciprocal axes: (cart. coord. in units 2 pi/alat)
               b(1) = (  1.000000  0.000000  0.000000 )  
               b(2) = (  0.000000  1.000000  0.000000 )  
               b(3) = (  0.000000  0.000000  0.686530 )  


     PseudoPot. # 1 for W  read from file:
     /cluster/scratch/mnoe/QE/pps/W_ONCV_LDA-4.0.upf
     MD5 check sum: ba0307d5d4cd419d6f1d13dc49d7c13a
     Pseudo is Norm-conserving + core correction, Zval = 28.0
     Generated using ONCVPSP code by D. R. Hamann
     Using radial grid of 1380 points,  8 beta functions with: 
                l(1) =   0
                l(2) =   0
                l(3) =   1
                l(4) =   1
                l(5) =   2
                l(6) =   2
                l(7) =   3
                l(8) =   3

     PseudoPot. # 2 for O  read from file:
     /cluster/scratch/mnoe/QE/pps/O_ONCV_LDA-3.0.upf
     MD5 check sum: b55cdb4f45ae2203d24ad12cf8d61a31
     Pseudo is Norm-conserving + core correction, Zval =  6.0
     Generated using ONCVPSP code by D. R. Hamann
     Using radial grid of  926 points,  5 beta functions with: 
                l(1) =   0
                l(2) =   0
                l(3) =   1
                l(4) =   1
                l(5) =   2

     atomic species   valence    mass     pseudopotential
        W             28.00   183.84000     W ( 1.00)
        O              6.00    15.99940     O ( 1.00)

     16 Sym. Ops., with inversion, found (14 have fractional translation)



   Cartesian axes

     site n.     atom                  positions (alat units)
         1           W   tau(   1) = (   0.2500000   0.2500000   0.3058453  )
         2           W   tau(   2) = (   0.7500000   0.7500000   1.1507544  )
         3           W   tau(   3) = (   0.7500000   0.7500000   0.4224546  )
         4           W   tau(   4) = (   0.2500000   0.2500000   1.0341451  )
         5           O   tau(   5) = (   0.2500000   0.2500000   0.6937068  )
         6           O   tau(   6) = (   0.7500000   0.7500000   0.7628929  )
         7           O   tau(   7) = (   0.7500000   0.7500000   0.0345931  )
         8           O   tau(   8) = (   0.2500000   0.2500000   1.4220066  )
         9           O   tau(   9) = (   0.4915399   0.5084601   0.3641499  )
        10           O   tau(  10) = (   0.5084601   0.4915399   1.0924497  )
        11           O   tau(  11) = (   0.0084601   0.9915399   0.3641499  )
        12           O   tau(  12) = (   0.9915398   0.0084601   1.0924497  )
        13           O   tau(  13) = (   0.9915399   0.4915399   0.3641499  )
        14           O   tau(  14) = (   0.0084601   0.5084601   1.0924497  )
        15           O   tau(  15) = (   0.5084601   0.0084601   0.3641499  )
        16           O   tau(  16) = (   0.4915399   0.9915398   1.0924497  )

     number of k points=    40  gaussian smearing, width (Ry)=  0.0007
                       cart. coord. in units 2pi/alat
        k(    1) = (   0.0000000   0.0000000   0.0000000), wk =   0.0092593
        k(    2) = (   0.0000000   0.0000000   0.1144217), wk =   0.0185185
        k(    3) = (   0.0000000   0.0000000   0.2288435), wk =   0.0185185
        k(    4) = (   0.0000000   0.0000000  -0.3432652), wk =   0.0092593
        k(    5) = (   0.0000000   0.1666667   0.0000000), wk =   0.0370370
        k(    6) = (   0.0000000   0.1666667   0.1144217), wk =   0.0740741
        k(    7) = (   0.0000000   0.1666667   0.2288435), wk =   0.0740741
        k(    8) = (   0.0000000   0.1666667  -0.3432652), wk =   0.0370370
        k(    9) = (   0.0000000   0.3333333   0.0000000), wk =   0.0370370
        k(   10) = (   0.0000000   0.3333333   0.1144217), wk =   0.0740741
        k(   11) = (   0.0000000   0.3333333   0.2288435), wk =   0.0740741
        k(   12) = (   0.0000000   0.3333333  -0.3432652), wk =   0.0370370
        k(   13) = (   0.0000000  -0.5000000   0.0000000), wk =   0.0185185
        k(   14) = (   0.0000000  -0.5000000   0.1144217), wk =   0.0370370
        k(   15) = (   0.0000000  -0.5000000   0.2288435), wk =   0.0370370
        k(   16) = (   0.0000000  -0.5000000  -0.3432652), wk =   0.0185185
        k(   17) = (   0.1666667   0.1666667   0.0000000), wk =   0.0370370
        k(   18) = (   0.1666667   0.1666667   0.1144217), wk =   0.0740741
        k(   19) = (   0.1666667   0.1666667   0.2288435), wk =   0.0740741
        k(   20) = (   0.1666667   0.1666667  -0.3432652), wk =   0.0370370
        k(   21) = (   0.1666667   0.3333333   0.0000000), wk =   0.0740741
        k(   22) = (   0.1666667   0.3333333   0.1144217), wk =   0.1481481
        k(   23) = (   0.1666667   0.3333333   0.2288435), wk =   0.1481481
        k(   24) = (   0.1666667   0.3333333  -0.3432652), wk =   0.0740741
        k(   25) = (   0.1666667  -0.5000000   0.0000000), wk =   0.0370370
        k(   26) = (   0.1666667  -0.5000000   0.1144217), wk =   0.0740741
        k(   27) = (   0.1666667  -0.5000000   0.2288435), wk =   0.0740741
        k(   28) = (   0.1666667  -0.5000000  -0.3432652), wk =   0.0370370
        k(   29) = (   0.3333333   0.3333333   0.0000000), wk =   0.0370370
        k(   30) = (   0.3333333   0.3333333   0.1144217), wk =   0.0740741
        k(   31) = (   0.3333333   0.3333333   0.2288435), wk =   0.0740741
        k(   32) = (   0.3333333   0.3333333  -0.3432652), wk =   0.0370370
        k(   33) = (   0.3333333  -0.5000000   0.0000000), wk =   0.0370370
        k(   34) = (   0.3333333  -0.5000000   0.1144217), wk =   0.0740741
        k(   35) = (   0.3333333  -0.5000000   0.2288435), wk =   0.0740741
        k(   36) = (   0.3333333  -0.5000000  -0.3432652), wk =   0.0370370
        k(   37) = (  -0.5000000  -0.5000000   0.0000000), wk =   0.0092593
        k(   38) = (  -0.5000000  -0.5000000   0.1144217), wk =   0.0185185
        k(   39) = (  -0.5000000  -0.5000000   0.2288435), wk =   0.0185185
        k(   40) = (  -0.5000000  -0.5000000  -0.3432652), wk =   0.0092593

     Dense  grid:   253181 G-vectors     FFT dimensions: (  72,  72, 108)

     Estimated max dynamical RAM per process >     793.49 MB

     Estimated total dynamical RAM >      31.00 GB

     Initial potential from superposition of free atoms

     starting charge  183.99828, renormalised to  184.42000
     Starting wfcs are  116 randomized atomic wfcs

     total cpu time spent up to now is        6.2 secs

     Self-consistent Calculation

     iteration #  1     ecut=   120.00 Ry     beta= 0.70
     Davidson diagonalization with overlap
     ethr =  1.00E-02,  avg # of iterations =  4.5

     total cpu time spent up to now is       23.4 secs

     total energy              =   -3126.50811572 Ry
     Harris-Foulkes estimate   =   -3132.08782417 Ry
     estimated scf accuracy    <       7.00980194 Ry

     iteration #  2     ecut=   120.00 Ry     beta= 0.70
     Davidson diagonalization with overlap
     ethr =  3.80E-03,  avg # of iterations =  3.3

     total cpu time spent up to now is       40.3 secs

     total energy              =   -3124.98783082 Ry
     Harris-Foulkes estimate   =   -3135.20566928 Ry
     estimated scf accuracy    <      27.16875888 Ry

     iteration #  3     ecut=   120.00 Ry     beta= 0.70
     Davidson diagonalization with overlap
     ethr =  3.80E-03,  avg # of iterations =  3.2

     total cpu time spent up to now is       55.9 secs

     total energy              =   -3130.23080351 Ry
     Harris-Foulkes estimate   =   -3130.36309956 Ry
     estimated scf accuracy    <       0.45798679 Ry

     iteration #  4     ecut=   120.00 Ry     beta= 0.70
     Davidson diagonalization with overlap
     ethr =  2.48E-04,  avg # of iterations =  2.8

     total cpu time spent up to now is       68.9 secs

     total energy              =   -3130.21466770 Ry
     Harris-Foulkes estimate   =   -3130.25957173 Ry
     estimated scf accuracy    <       0.11927243 Ry

     iteration #  5     ecut=   120.00 Ry     beta= 0.70
     Davidson diagonalization with overlap
     ethr =  6.47E-05,  avg # of iterations =  3.8

     total cpu time spent up to now is       82.8 secs

     total energy              =   -3130.22557328 Ry
     Harris-Foulkes estimate   =   -3130.23697926 Ry
     estimated scf accuracy    <       0.02768941 Ry

     iteration #  6     ecut=   120.00 Ry     beta= 0.70
     Davidson diagonalization with overlap
     ethr =  1.50E-05,  avg # of iterations =  4.2

     total cpu time spent up to now is       96.9 secs

     total energy              =   -3130.23057863 Ry
     Harris-Foulkes estimate   =   -3130.23240075 Ry
     estimated scf accuracy    <       0.00446710 Ry

     iteration #  7     ecut=   120.00 Ry     beta= 0.70
     Davidson diagonalization with overlap
     ethr =  2.42E-06,  avg # of iterations =  3.2

     total cpu time spent up to now is      111.1 secs

     total energy              =   -3130.23130521 Ry
     Harris-Foulkes estimate   =   -3130.23131912 Ry
     estimated scf accuracy    <       0.00002135 Ry

     iteration #  8     ecut=   120.00 Ry     beta= 0.70
     Davidson diagonalization with overlap
     ethr =  1.16E-08,  avg # of iterations =  3.9

     total cpu time spent up to now is      130.2 secs

     total energy              =   -3130.23132475 Ry
     Harris-Foulkes estimate   =   -3130.23133325 Ry
     estimated scf accuracy    <       0.00004045 Ry

     iteration #  9     ecut=   120.00 Ry     beta= 0.70
     Davidson diagonalization with overlap
     ethr =  1.16E-08,  avg # of iterations =  2.1

     total cpu time spent up to now is      144.1 secs

     total energy              =   -3130.23132074 Ry
     Harris-Foulkes estimate   =   -3130.23132664 Ry
     estimated scf accuracy    <       0.00001590 Ry

     iteration # 10     ecut=   120.00 Ry     beta= 0.70
     Davidson diagonalization with overlap
     ethr =  8.62E-09,  avg # of iterations =  2.0

     total cpu time spent up to now is      157.0 secs

     total energy              =   -3130.23132299 Ry
     Harris-Foulkes estimate   =   -3130.23132318 Ry
     estimated scf accuracy    <       0.00000038 Ry

     iteration # 11     ecut=   120.00 Ry     beta= 0.70
     Davidson diagonalization with overlap
     ethr =  2.05E-10,  avg # of iterations =  2.9

     total cpu time spent up to now is      172.3 secs

     total energy              =   -3130.23132307 Ry
     Harris-Foulkes estimate   =   -3130.23132309 Ry
     estimated scf accuracy    <       0.00000004 Ry

     iteration # 12     ecut=   120.00 Ry     beta= 0.70
     Davidson diagonalization with overlap
     ethr =  2.07E-11,  avg # of iterations =  2.0

     total cpu time spent up to now is      186.8 secs

     End of self-consistent calculation

          k = 0.0000 0.0000 0.0000 ( 31639 PWs)   bands (ev):

   -66.2583 -66.2578 -66.2570 -66.2565 -30.6605 -30.6562 -30.5913 -30.5913
   -30.5891 -30.5873 -30.5873 -30.5861 -30.5111 -30.5111 -30.5078 -30.5078
   -20.4070 -20.4069 -20.4069 -20.4068 -20.4051 -20.4050 -20.3984 -20.3984
   -20.3946 -20.3946 -20.3944 -20.3943 -20.3943 -20.3943 -20.3933 -20.3933
   -20.3918 -20.3918 -20.3903 -20.3903 -20.3742 -20.3742 -20.3741 -20.3741
   -20.3718 -20.3718 -20.3718 -20.3718 -10.1667  -9.7674  -9.3967  -9.1282
    -9.1041  -9.0353  -7.9885  -7.8667  -7.8667  -7.8643  -7.8421  -7.8421
     1.0027   1.0032   1.0349   1.2396   1.3405   1.4376   2.3472   2.3472
     2.3838   2.4973   3.9553   3.9553   4.6390   4.6390   4.8701   5.4712
     5.4712   5.5594   5.5594   5.7129   5.7129   5.8152   5.8664   6.4799
     6.4799   6.7167   7.0040   7.0520   7.0699   7.0699   7.0847   7.0847
     8.1572   8.1572   8.2574   8.2669   8.8773   8.8823   9.4776   9.4776
    12.3501  12.3501  13.2247  13.2247  13.4422  13.6882  13.7002  14.1080
    14.1080  14.1718  14.1745  14.4983  15.4900  16.3502  16.7602

          k = 0.0000 0.0000 0.1144 ( 31639 PWs)   bands (ev):

   -66.2583 -66.2578 -66.2570 -66.2566 -30.6558 -30.6515 -30.5940 -30.5911
   -30.5911 -30.5908 -30.5875 -30.5875 -30.5109 -30.5109 -30.5080 -30.5080
   -20.4070 -20.4069 -20.4069 -20.4068 -20.4047 -20.4046 -20.3989 -20.3989
   -20.3946 -20.3946 -20.3944 -20.3943 -20.3943 -20.3943 -20.3934 -20.3934
   -20.3917 -20.3917 -20.3904 -20.3904 -20.3742 -20.3742 -20.3741 -20.3741
   -20.3718 -20.3718 -20.3718 -20.3718 -10.1264  -9.7829  -9.3148  -9.1266
    -9.1057  -8.9920  -8.0989  -7.9854  -7.8651  -7.8651  -7.8437  -7.8437
     1.0027   1.0032   1.2136   1.3398   1.4171   1.6071   2.3912   2.4187
     2.4187   2.4895   3.7690   3.7690   4.6249   4.6963   4.6963   5.4067
     5.4067   5.4828   5.4861   5.4861   5.8590   5.9142   5.9142   6.4879
     6.4879   6.7352   6.8564   6.9839   7.0694   7.0694   7.0801   7.0801
     8.0692   8.0692   8.2580   8.2663   8.8779   8.8823   9.7224   9.7224
    12.1785  12.1785  13.2558  13.2558  13.6891  13.6995  13.7140  14.0121
    14.0121  14.1722  14.1746  14.7331  15.9083  16.0207  17.0649

          k = 0.0000 0.0000 0.2288 ( 31662 PWs)   bands (ev):

   -66.2582 -66.2579 -66.2569 -66.2566 -30.6428 -30.6388 -30.6071 -30.6037
   -30.5903 -30.5903 -30.5883 -30.5883 -30.5103 -30.5103 -30.5087 -30.5087
   -20.4069 -20.4069 -20.4069 -20.4068 -20.4035 -20.4034 -20.4001 -20.4001
   -20.3944 -20.3943 -20.3943 -20.3943 -20.3943 -20.3943 -20.3936 -20.3936
   -20.3915 -20.3915 -20.3907 -20.3907 -20.3742 -20.3742 -20.3742 -20.3742
   -20.3718 -20.3718 -20.3718 -20.3718 -10.0267  -9.8313  -9.1222  -9.1101
    -9.0824  -8.8532  -8.3817  -8.2826  -7.8606  -7.8606  -7.8483  -7.8483
     1.0029   1.0032   1.3163   1.3375   2.0317   2.3254   2.4116   2.4684
     2.6282   2.6282   3.3694   3.3694   3.9244   4.5303   4.8644   4.8644
     5.2777   5.2777   5.5169   5.5169   5.7999   5.7999   5.9883   6.4987
     6.7862   6.8577   6.8577   6.9298   7.0684   7.0684   7.0786   7.0786
     7.8039   7.8039   8.2598   8.2647   8.8794   8.8819  10.3168  10.3168
    11.7044  11.7044  13.3576  13.3576  13.6913  13.6974  13.7842  13.7842
    14.1732  14.1746  14.2434  15.4252  15.4295  16.8714  16.9538

          k = 0.0000 0.0000-0.3433 ( 31698 PWs)   bands (ev):

   -66.2581 -66.2581 -66.2568 -66.2568 -30.6250 -30.6250 -30.6213 -30.6213
   -30.5893 -30.5893 -30.5893 -30.5893 -30.5095 -30.5095 -30.5095 -30.5095
   -20.4069 -20.4069 -20.4069 -20.4069 -20.4018 -20.4018 -20.4018 -20.4018
   -20.3944 -20.3944 -20.3943 -20.3943 -20.3939 -20.3939 -20.3939 -20.3939
   -20.3911 -20.3911 -20.3911 -20.3911 -20.3742 -20.3742 -20.3742 -20.3742
   -20.3718 -20.3718 -20.3718 -20.3718  -9.9158  -9.9157  -9.1162  -9.1162
    -8.7435  -8.7434  -8.6078  -8.6078  -7.8545  -7.8545  -7.8545  -7.8545
     1.0031   1.0031   1.3320   1.3321   2.4398   2.4398   2.9582   2.9582
     2.9582   2.9582   2.9647   2.9647   3.3795   3.3795   5.0934   5.0934
     5.0935   5.0935   5.6048   5.6048   5.6048   5.6048   6.2004   6.2004
     6.8572   6.8572   7.0663   7.0663   7.0663   7.0663   7.3815   7.3815
     7.3816   7.3816   8.2622   8.2622   8.8809   8.8809  11.0358  11.0358
    11.0358  11.0358  13.5401  13.5401  13.5401  13.5401  13.6944  13.6944
    14.1741  14.1741  14.8172  14.8172  16.2670  16.2670  17.4086

          k = 0.0000 0.1667 0.0000 ( 31667 PWs)   bands (ev):

   -66.2582 -66.2577 -66.2571 -66.2566 -30.6606 -30.6567 -30.5928 -30.5866
   -30.5860 -30.5822 -30.5820 -30.5817 -30.5165 -30.5163 -30.5132 -30.5131
   -20.4070 -20.4069 -20.4069 -20.4068 -20.4051 -20.4051 -20.3985 -20.3985
   -20.3952 -20.3949 -20.3945 -20.3945 -20.3943 -20.3935 -20.3930 -20.3926
   -20.3919 -20.3918 -20.3905 -20.3903 -20.3741 -20.3741 -20.3740 -20.3740
   -20.3720 -20.3720 -20.3720 -20.3720 -10.0854  -9.6632  -9.4164  -9.0586
    -9.0346  -9.0096  -8.0517  -8.0101  -7.9718  -7.9474  -7.9333  -7.8710
     1.0658   1.2221   1.2549   1.2581   1.6087   1.6774   2.4181   2.4276
     2.5556   2.6662   3.9074   3.9506   4.3047   4.3987   4.8576   5.1669
     5.2024   5.3677   5.4607   5.7280   5.7329   5.8923   6.2117   6.3292
     6.3378   6.4059   6.4352   6.6992   6.8762   6.9381   6.9998   7.0413
     8.0789   8.1188   8.1264   8.1381   9.5307   9.5442   9.7933   9.8839
    12.4088  12.4400  12.9578  12.9727  13.4975  13.4986  13.7382  13.9102
    13.9270  14.6846  14.6995  14.7054  15.4211  16.6798  16.9409

          k = 0.0000 0.1667 0.1144 ( 31631 PWs)   bands (ev):

   -66.2582 -66.2578 -66.2571 -66.2566 -30.6559 -30.6520 -30.5963 -30.5914
   -30.5857 -30.5833 -30.5822 -30.5819 -30.5163 -30.5161 -30.5134 -30.5133
   -20.4070 -20.4069 -20.4069 -20.4068 -20.4047 -20.4047 -20.3990 -20.3989
   -20.3952 -20.3949 -20.3945 -20.3945 -20.3942 -20.3934 -20.3931 -20.3927
   -20.3918 -20.3917 -20.3906 -20.3904 -20.3741 -20.3741 -20.3740 -20.3740
   -20.3720 -20.3720 -20.3720 -20.3720 -10.0421  -9.6789  -9.3348  -9.0570
    -9.0362  -8.9694  -8.1294  -8.0092  -8.0082  -7.9702  -7.9504  -7.9490
     1.2551   1.2579   1.2993   1.4481   1.6076   1.7391   2.4915   2.4969
     2.5637   2.6595   3.7479   3.7907   4.3656   4.4581   4.6081   5.1725
     5.1932   5.2201   5.2837   5.4950   5.8287   5.8837   6.2438   6.3574
     6.3867   6.3909   6.4083   6.7923   6.8158   6.9453   7.0013   7.0519
     7.9989   8.0316   8.1262   8.1412   9.5325   9.5401   9.9869  10.0680
    12.2409  12.2752  12.9968  13.0053  13.4941  13.4980  13.8193  13.8268
    14.0194  14.6850  14.7003  14.9127  15.8391  16.3053  16.9990

          k = 0.0000 0.1667 0.2288 ( 31644 PWs)   bands (ev):

   -66.2581 -66.2578 -66.2570 -66.2567 -30.6430 -30.6393 -30.6081 -30.6042
   -30.5850 -30.5839 -30.5830 -30.5826 -30.5157 -30.5155 -30.5140 -30.5139
   -20.4069 -20.4069 -20.4069 -20.4068 -20.4035 -20.4035 -20.4002 -20.4002
   -20.3951 -20.3949 -20.3945 -20.3945 -20.3940 -20.3933 -20.3933 -20.3929
   -20.3916 -20.3914 -20.3909 -20.3907 -20.3741 -20.3741 -20.3740 -20.3740
   -20.3720 -20.3720 -20.3720 -20.3720  -9.9350  -9.7284  -9.1030  -9.0526
    -9.0406  -8.8383  -8.4004  -8.2887  -8.0029  -7.9829  -7.9658  -7.9535
     1.2557   1.2573   1.5635   1.6039   2.0371   2.2916   2.5797   2.6347
     2.7061   2.7291   3.3777   3.4221   3.9167   4.5292   4.5538   4.6366
     5.0560   5.1035   5.2123   5.2430   5.5517   5.5828   6.3331   6.3799
     6.4085   6.6334   6.8067   6.8380   6.9163   6.9538   7.0154   7.0847
     7.7507   7.7810   8.1301   8.1391   9.5347   9.5374  10.4907  10.5567
    11.7800  11.8222  13.1093  13.1124  13.4662  13.4833  13.6030  13.6172
    14.5593  14.6859  14.6924  15.5846  15.7146  16.8774  17.0436

          k = 0.0000 0.1667-0.3433 ( 31632 PWs)   bands (ev):

   -66.2580 -66.2580 -66.2569 -66.2568 -30.6254 -30.6254 -30.6218 -30.6218
   -30.5840 -30.5840 -30.5834 -30.5834 -30.5149 -30.5149 -30.5147 -30.5147
   -20.4069 -20.4069 -20.4069 -20.4069 -20.4019 -20.4019 -20.4018 -20.4018
   -20.3950 -20.3950 -20.3945 -20.3945 -20.3937 -20.3937 -20.3931 -20.3931
   -20.3912 -20.3912 -20.3911 -20.3911 -20.3741 -20.3741 -20.3740 -20.3740
   -20.3720 -20.3720 -20.3720 -20.3720  -9.8167  -9.8167  -9.0467  -9.0466
    -8.7641  -8.7641  -8.6024  -8.6024  -7.9947  -7.9947  -7.9597  -7.9597
     1.2565   1.2565   1.5949   1.5949   2.6062   2.6062   2.9500   2.9500
     2.9754   2.9754   3.0273   3.0273   3.4191   3.4191   4.8257   4.8257
     4.8905   4.8905   5.3057   5.3057   5.3267   5.3267   6.3837   6.3837
     6.4888   6.4888   6.9449   6.9449   7.0265   7.0265   7.3457   7.3457
     7.3822   7.3822   8.1350   8.1350   9.5362   9.5362  11.1449  11.1449
    11.1977  11.1977  13.2854  13.2854  13.3138  13.3138  13.5346  13.5346
    14.6878  14.6878  15.1196  15.1196  16.4367  16.4367  17.4562

          k = 0.0000 0.3333 0.0000 ( 31654 PWs)   bands (ev):

   -66.2580 -66.2575 -66.2573 -66.2568 -30.6604 -30.6579 -30.5922 -30.5882
   -30.5714 -30.5679 -30.5675 -30.5669 -30.5313 -30.5302 -30.5278 -30.5274
   -20.4070 -20.4069 -20.4069 -20.4068 -20.4052 -20.4052 -20.3987 -20.3986
   -20.3956 -20.3952 -20.3951 -20.3949 -20.3936 -20.3926 -20.3924 -20.3923
   -20.3917 -20.3916 -20.3909 -20.3905 -20.3737 -20.3737 -20.3737 -20.3736
   -20.3725 -20.3725 -20.3724 -20.3724  -9.8753  -9.4869  -9.3663  -8.9154
    -8.8604  -8.8364  -8.4355  -8.3517  -8.2391  -8.2149  -7.9372  -7.8893
     1.1028   1.1821   1.9276   1.9528   2.2870   2.3022   2.6045   2.6374
     3.0828   3.1859   3.6604   3.6949   3.8331   3.9325   4.4088   4.4564
     4.8327   4.9295   5.2492   5.2648   5.2719   5.7322   5.7974   5.9430
     6.1081   6.1584   6.2183   6.5498   6.8713   7.0809   7.1524   7.3602
     7.8053   7.8070   7.8620   7.9878  10.5308  10.6092  10.6505  10.7355
    12.2954  12.3756  12.6244  12.7202  12.7828  12.7846  13.4866  13.5547
    14.3225  15.2091  15.3107  16.0090  16.0099  17.2080  17.2718

          k = 0.0000 0.3333 0.1144 ( 31618 PWs)   bands (ev):

   -66.2580 -66.2575 -66.2573 -66.2569 -30.6557 -30.6533 -30.5964 -30.5929
   -30.5711 -30.5683 -30.5678 -30.5671 -30.5311 -30.5301 -30.5280 -30.5276
   -20.4069 -20.4069 -20.4069 -20.4068 -20.4047 -20.4047 -20.3991 -20.3991
   -20.3956 -20.3953 -20.3951 -20.3949 -20.3935 -20.3925 -20.3924 -20.3922
   -20.3917 -20.3916 -20.3910 -20.3905 -20.3737 -20.3737 -20.3737 -20.3736
   -20.3725 -20.3725 -20.3724 -20.3724  -9.8218  -9.4076  -9.3826  -8.8853
    -8.8588  -8.8380  -8.4593  -8.3475  -8.2375  -8.2166  -8.0390  -7.9957
     1.3552   1.4337   1.9295   1.9513   2.2840   2.3127   2.6798   2.7011
     3.0877   3.1800   3.5859   3.6365   3.8935   3.9933   4.4223   4.4703
     4.5642   4.7525   4.9775   5.2296   5.2472   5.4860   5.5318   5.7637
     6.2762   6.3420   6.5473   6.6227   6.8791   7.0743   7.1646   7.3521
     7.7879   7.7963   7.8196   7.9315  10.5942  10.6206  10.6986  10.8376
    12.3365  12.3844  12.5065  12.5717  12.7791  12.7854  13.3717  13.4435
    14.6679  15.4496  15.6252  16.0092  16.0098  16.8890  17.2910

          k = 0.0000 0.3333 0.2288 ( 31610 PWs)   bands (ev):

   -66.2579 -66.2576 -66.2572 -66.2570 -30.6429 -30.6405 -30.6084 -30.6057
   -30.5704 -30.5686 -30.5685 -30.5676 -30.5304 -30.5296 -30.5287 -30.5282
   -20.4069 -20.4069 -20.4069 -20.4069 -20.4036 -20.4036 -20.4003 -20.4003
   -20.3955 -20.3953 -20.3950 -20.3949 -20.3933 -20.3927 -20.3924 -20.3920
   -20.3918 -20.3914 -20.3913 -20.3908 -20.3737 -20.3737 -20.3737 -20.3736
   -20.3725 -20.3725 -20.3724 -20.3724  -9.6875  -9.4364  -9.1843  -8.8544
    -8.8424  -8.7819  -8.5807  -8.3332  -8.2919  -8.2331  -8.2210  -8.1998
     1.9345   1.9472   2.0136   2.0566   2.2735   2.4099   2.8827   2.9142
     3.0961   3.1647   3.3546   3.4390   3.9021   4.0910   4.1745   4.3358
     4.4767   4.5247   4.6548   4.7678   5.0138   5.1676   5.2441   5.2564
     6.7629   6.7753   6.8277   6.8874   6.8932   7.0525   7.2157   7.3169
     7.6049   7.6827   7.8151   7.8413  10.6220  10.6271  11.0023  11.1587
    12.0293  12.1561  12.4823  12.5827  12.7713  12.7945  13.1001  13.1721
    15.3251  15.9951  16.0094  16.0108  16.3799  16.6319  17.2867

          k = 0.0000 0.3333-0.3433 ( 31614 PWs)   bands (ev):

   -66.2577 -66.2577 -66.2571 -66.2571 -30.6256 -30.6256 -30.6231 -30.6231
   -30.5695 -30.5695 -30.5683 -30.5683 -30.5296 -30.5296 -30.5290 -30.5290
   -20.4069 -20.4069 -20.4069 -20.4069 -20.4020 -20.4020 -20.4019 -20.4019
   -20.3954 -20.3954 -20.3950 -20.3950 -20.3930 -20.3930 -20.3921 -20.3921
   -20.3916 -20.3916 -20.3911 -20.3911 -20.3737 -20.3737 -20.3736 -20.3736
   -20.3725 -20.3725 -20.3724 -20.3724  -9.5401  -9.5401  -8.8688  -8.8688
    -8.8481  -8.8481  -8.5780  -8.5780  -8.2993  -8.2993  -8.2271  -8.2271
     1.9411   1.9411   2.2444   2.2444   2.8994   2.8994   3.0038   3.0038
     3.1392   3.1392   3.1713   3.1713   3.4746   3.4746   4.3763   4.3763
     4.4226   4.4226   4.6384   4.6384   4.7177   4.7177   5.2389   5.2389
     6.8660   6.8660   6.9970   6.9970   7.2071   7.2071   7.2740   7.2740
     7.3891   7.3891   7.8217   7.8217  10.6270  10.6270  11.4949  11.4949
    11.6407  11.6407  12.6609  12.6609  12.8128  12.8128  12.9077  12.9077
    15.8594  15.8594  16.0102  16.0102  16.8539  16.8539  17.3701

          k = 0.0000-0.5000 0.0000 ( 31654 PWs)   bands (ev):

   -66.2577 -66.2577 -66.2572 -66.2572 -30.6594 -30.6594 -30.5903 -30.5903
   -30.5514 -30.5514 -30.5491 -30.5491 -30.5477 -30.5477 -30.5470 -30.5470
   -20.4069 -20.4069 -20.4068 -20.4068 -20.4052 -20.4052 -20.3987 -20.3987
   -20.3955 -20.3955 -20.3952 -20.3952 -20.3929 -20.3929 -20.3920 -20.3920
   -20.3915 -20.3915 -20.3909 -20.3909 -20.3732 -20.3732 -20.3732 -20.3732
   -20.3731 -20.3731 -20.3731 -20.3730  -9.6405  -9.6404  -8.9263  -8.9263
    -8.7002  -8.7002  -8.5664  -8.5664  -8.5423  -8.5423  -7.9141  -7.9141
     1.1396   1.1396   2.6504   2.6504   2.7462   2.7462   2.8945   2.8945
     3.0737   3.0738   3.7015   3.7015   3.7814   3.7814   3.9889   3.9889
     4.0889   4.0889   4.8539   4.8539   5.4529   5.4530   5.8952   5.8952
     6.0013   6.0013   6.2860   6.2860   7.3977   7.3977   7.4283   7.4283
     7.4677   7.4677   7.7399   7.7400  11.3940  11.3940  11.5879  11.5879
    11.7683  11.7683  11.8099  11.8099  12.9995  12.9995  13.1155  13.1155
    14.8439  14.8439  16.2586  16.2586  17.3995  17.3996  17.6030

          k = 0.0000-0.5000 0.1144 ( 31628 PWs)   bands (ev):

   -66.2576 -66.2576 -66.2572 -66.2572 -30.6547 -30.6547 -30.5948 -30.5948
   -30.5511 -30.5511 -30.5491 -30.5491 -30.5480 -30.5479 -30.5473 -30.5472
   -20.4069 -20.4069 -20.4069 -20.4069 -20.4048 -20.4048 -20.3992 -20.3992
   -20.3955 -20.3955 -20.3953 -20.3953 -20.3928 -20.3928 -20.3919 -20.3919
   -20.3916 -20.3916 -20.3909 -20.3909 -20.3732 -20.3732 -20.3732 -20.3732
   -20.3731 -20.3731 -20.3730 -20.3730  -9.5711  -9.5710  -8.9442  -8.9442
    -8.6861  -8.6861  -8.5648  -8.5648  -8.5439  -8.5439  -8.0203  -8.0203
     1.3934   1.3934   2.6750   2.6751   2.7876   2.7876   2.8848   2.8848
     3.0575   3.0575   3.7499   3.7499   3.8205   3.8205   3.9859   3.9859
     4.0884   4.0884   4.5939   4.5939   5.0851   5.0851   5.6181   5.6181
     6.3679   6.3679   6.4490   6.4490   7.3885   7.3885   7.4158   7.4158
     7.4572   7.4572   7.7068   7.7069  11.4462  11.4462  11.6453  11.6453
    11.7791  11.7791  11.8248  11.8248  12.8625  12.8625  12.9839  12.9839
    15.2392  15.2392  16.3355  16.3355  17.2904  17.2904  17.6070

          k = 0.0000-0.5000 0.2288 ( 31596 PWs)   bands (ev):

   -66.2575 -66.2575 -66.2573 -66.2573 -30.6420 -30.6420 -30.6073 -30.6073
   -30.5505 -30.5505 -30.5490 -30.5490 -30.5486 -30.5486 -30.5478 -30.5478
   -20.4069 -20.4069 -20.4069 -20.4069 -20.4036 -20.4036 -20.4004 -20.4004
   -20.3954 -20.3954 -20.3953 -20.3953 -20.3926 -20.3926 -20.3919 -20.3919
   -20.3917 -20.3917 -20.3912 -20.3912 -20.3732 -20.3732 -20.3732 -20.3732
   -20.3731 -20.3731 -20.3731 -20.3731  -9.3857  -9.3857  -9.0110  -9.0110
    -8.6339  -8.6339  -8.5604  -8.5604  -8.5482  -8.5482  -8.2695  -8.2695
     2.0691   2.0691   2.7355   2.7355   2.8545   2.8545   2.9033   2.9034
     2.9992   2.9992   3.8766   3.8766   3.9110   3.9110   3.9433   3.9433
     4.1038   4.1038   4.1157   4.1157   4.5934   4.5934   4.9080   4.9080
     6.8183   6.8183   6.8447   6.8447   7.3283   7.3283   7.3468   7.3469
     7.4650   7.4650   7.6110   7.6110  11.5827  11.5827  11.7119  11.7119
    11.8973  11.8973  11.9153  11.9153  12.5210  12.5210  12.6492  12.6492
    16.1452  16.1452  16.5957  16.5957  17.0325  17.0325  17.6121

          k = 0.0000-0.5000-0.3433 ( 31640 PWs)   bands (ev):

   -66.2574 -66.2574 -66.2574 -66.2574 -30.6246 -30.6246 -30.6246 -30.6246
   -30.5496 -30.5496 -30.5495 -30.5495 -30.5485 -30.5485 -30.5484 -30.5484
   -20.4069 -20.4069 -20.4069 -20.4069 -20.4020 -20.4020 -20.4020 -20.4020
   -20.3954 -20.3953 -20.3953 -20.3953 -20.3923 -20.3922 -20.3922 -20.3922
   -20.3915 -20.3914 -20.3914 -20.3914 -20.3732 -20.3732 -20.3732 -20.3732
   -20.3731 -20.3731 -20.3731 -20.3731  -9.1632  -9.1632  -9.1632  -9.1632
    -8.5547  -8.5547  -8.5547  -8.5547  -8.5055  -8.5055  -8.5055  -8.5054
     2.7945   2.7945   2.7945   2.7945   2.8130   2.8130   2.8130   2.8130
     3.2066   3.2066   3.2066   3.2066   4.0301   4.0301   4.0301   4.0301
     4.1896   4.1896   4.1896   4.1896   4.3277   4.3277   4.3277   4.3277
     7.1320   7.1320   7.1320   7.1320   7.1932   7.1932   7.1932   7.1932
     7.5082   7.5082   7.5082   7.5082  11.6878  11.6878  11.6878  11.6878
    12.1352  12.1352  12.1352  12.1352  12.2501  12.2501  12.2501  12.2501
    16.7099  16.7099  16.7099  16.7099  17.4096  17.4096  17.4096

          k = 0.1667 0.1667 0.0000 ( 31619 PWs)   bands (ev):

   -66.2581 -66.2576 -66.2572 -66.2567 -30.6604 -30.6571 -30.5925 -30.5907
   -30.5884 -30.5872 -30.5685 -30.5660 -30.5318 -30.5287 -30.5101 -30.5068
   -20.4070 -20.4069 -20.4069 -20.4068 -20.4051 -20.4051 -20.3986 -20.3985
   -20.3951 -20.3949 -20.3947 -20.3947 -20.3946 -20.3933 -20.3929 -20.3920
   -20.3920 -20.3917 -20.3907 -20.3903 -20.3746 -20.3746 -20.3733 -20.3732
   -20.3729 -20.3729 -20.3714 -20.3714 -10.0305  -9.6051  -9.4396  -9.0609
    -8.9327  -8.8999  -8.3189  -8.2856  -7.9577  -7.8810  -7.8767  -7.8555
     1.0380   1.1330   1.2004   1.2117   2.1819   2.1882   2.3308   2.6288
     2.7205   2.8270   3.6916   3.8122   3.9955   4.4866   4.6478   4.8449
     5.1703   5.3331   5.4452   5.6824   5.7966   5.9066   6.0475   6.1740
     6.2888   6.3360   6.3684   6.5170   6.6621   6.8003   7.0412   7.2213
     7.9125   7.9615   7.9814   8.1494   9.5231  10.0378  10.0596  10.6117
    12.2761  12.4008  12.6605  13.2188  13.3000  13.3023  13.5128  13.7397
    14.1090  14.8464  14.9000  15.2284  15.3368  17.1554  17.1601

          k = 0.1667 0.1667 0.1144 ( 31641 PWs)   bands (ev):

   -66.2581 -66.2577 -66.2571 -66.2567 -30.6557 -30.6524 -30.5951 -30.5923
   -30.5919 -30.5887 -30.5685 -30.5663 -30.5316 -30.5289 -30.5098 -30.5070
   -20.4069 -20.4069 -20.4069 -20.4068 -20.4047 -20.4047 -20.3990 -20.3990
   -20.3951 -20.3949 -20.3947 -20.3947 -20.3946 -20.3934 -20.3929 -20.3921
   -20.3919 -20.3917 -20.3908 -20.3904 -20.3746 -20.3746 -20.3733 -20.3732
   -20.3729 -20.3729 -20.3714 -20.3714  -9.9857  -9.6200  -9.3588  -9.0369
    -8.9353  -8.8836  -8.3385  -8.2829  -8.0581  -7.9893  -7.8792  -7.8572
     1.1119   1.1328   1.3649   1.4825   2.1796   2.2012   2.4018   2.6907
     2.7333   2.8204   3.6168   3.7587   3.9246   4.5013   4.5879   4.7079
     4.9165   5.3111   5.3406   5.5154   5.6163   5.9036   6.2049   6.2557
     6.2705   6.3647   6.4886   6.5273   6.6596   6.8579   6.9218   7.2185
     7.8612   7.9602   7.9688   8.0694   9.7540  10.0391  10.0639  10.7245
    12.1699  12.3908  12.5042  13.2379  13.2927  13.3031  13.4195  13.9832
    14.0143  14.8341  15.0722  15.3020  15.7516  16.6489  17.1567

          k = 0.1667 0.1667 0.2288 ( 31646 PWs)   bands (ev):

   -66.2580 -66.2578 -66.2570 -66.2568 -30.6429 -30.6397 -30.6078 -30.6047
   -30.5915 -30.5895 -30.5684 -30.5669 -30.5311 -30.5295 -30.5092 -30.5076
   -20.4069 -20.4069 -20.4069 -20.4069 -20.4035 -20.4035 -20.4002 -20.4002
   -20.3950 -20.3949 -20.3947 -20.3947 -20.3943 -20.3936 -20.3927 -20.3922
   -20.3917 -20.3915 -20.3910 -20.3907 -20.3746 -20.3746 -20.3733 -20.3732
   -20.3729 -20.3729 -20.3714 -20.3714  -9.8753  -9.6679  -9.1302  -8.9874
    -8.9430  -8.8010  -8.4746  -8.2964  -8.2743  -8.1962  -7.8746  -7.8619
     1.1279   1.1323   2.0124   2.0609   2.1711   2.3711   2.6077   2.7397
     2.8056   2.9079   3.3684   3.3936   3.9105   4.1084   4.4222   4.5556
     4.7663   4.8751   5.0995   5.2071   5.3799   5.7487   6.2990   6.3404
     6.3632   6.5133   6.6452   6.6693   6.8381   6.8706   7.0383   7.1996
     7.6709   7.7688   7.9713   7.9946  10.0399  10.0421  10.3559  11.0564
    11.7130  12.0889  12.5320  13.0854  13.2942  13.3053  13.3908  13.7883
    14.4037  14.7893  15.3122  15.8538  16.0978  16.7684  17.3003

          k = 0.1667 0.1667-0.3433 ( 31646 PWs)   bands (ev):

   -66.2579 -66.2579 -66.2569 -66.2569 -30.6253 -30.6253 -30.6222 -30.6222
   -30.5905 -30.5905 -30.5677 -30.5677 -30.5303 -30.5303 -30.5084 -30.5084
   -20.4069 -20.4069 -20.4069 -20.4069 -20.4019 -20.4019 -20.4019 -20.4019
   -20.3950 -20.3950 -20.3947 -20.3947 -20.3940 -20.3939 -20.3925 -20.3925
   -20.3914 -20.3913 -20.3911 -20.3911 -20.3746 -20.3746 -20.3732 -20.3732
   -20.3729 -20.3729 -20.3714 -20.3714  -9.7553  -9.7553  -8.9577  -8.9577
    -8.7998  -8.7998  -8.5923  -8.5923  -8.2561  -8.2561  -7.8683  -7.8683
     1.1310   1.1310   2.1512   2.1512   2.7604   2.7604   2.9560   2.9560
     2.9596   2.9596   3.0600   3.0600   3.4381   3.4381   4.4065   4.4065
     4.7077   4.7077   5.0780   5.0780   5.4921   5.4921   6.3575   6.3575
     6.4414   6.4414   6.6276   6.6276   7.1291   7.1291   7.3430   7.3430
     7.3471   7.3471   7.9823   7.9823  10.0446  10.0446  11.0554  11.0554
    11.5528  11.5528  12.7800  12.7800  13.3044  13.3044  13.5506  13.5506
    14.6729  14.6729  15.6208  15.6208  16.6939  16.6939  17.9702

          k = 0.1667 0.3333 0.0000 ( 31624 PWs)   bands (ev):

   -66.2579 -66.2574 -66.2574 -66.2569 -30.6600 -30.6580 -30.5925 -30.5886
   -30.5852 -30.5839 -30.5521 -30.5493 -30.5483 -30.5454 -30.5145 -30.5113
   -20.4069 -20.4069 -20.4069 -20.4068 -20.4052 -20.4051 -20.3986 -20.3986
   -20.3954 -20.3951 -20.3951 -20.3949 -20.3941 -20.3929 -20.3924 -20.3923
   -20.3918 -20.3912 -20.3911 -20.3904 -20.3748 -20.3748 -20.3739 -20.3739
   -20.3724 -20.3724 -20.3712 -20.3712  -9.8784  -9.5209  -9.4240  -9.0118
    -8.7289  -8.6620  -8.6428  -8.6257  -8.0109  -8.0045  -7.9287  -7.8923
     1.0968   1.1825   1.3974   1.4313   2.3962   2.6968   2.7601   2.9709
     3.0504   3.2689   3.3190   3.7325   3.7801   3.9620   4.3821   4.8292
     4.8580   4.9656   5.1347   5.6380   5.6611   5.6663   5.7428   5.8600
     6.0929   6.1286   6.3551   6.5458   6.7399   6.8233   6.8762   7.5617
     7.5820   7.6136   7.6356   8.0959   9.8848  10.9800  11.0063  11.5125
    11.5163  12.4341  12.7511  12.7720  12.9587  13.0487  13.0771  13.9365
    14.0627  15.0732  15.4792  15.5501  16.3329  17.3334  17.3673

          k = 0.1667 0.3333 0.1144 ( 31617 PWs)   bands (ev):

   -66.2579 -66.2575 -66.2573 -66.2569 -30.6553 -30.6534 -30.5959 -30.5932
   -30.5862 -30.5841 -30.5520 -30.5495 -30.5482 -30.5457 -30.5143 -30.5115
   -20.4069 -20.4069 -20.4069 -20.4068 -20.4047 -20.4047 -20.3991 -20.3991
   -20.3953 -20.3951 -20.3951 -20.3949 -20.3940 -20.3930 -20.3923 -20.3922
   -20.3917 -20.3913 -20.3912 -20.3905 -20.3748 -20.3748 -20.3739 -20.3739
   -20.3724 -20.3724 -20.3712 -20.3712  -9.8277  -9.4450  -9.4377  -8.9825
    -8.7423  -8.6666  -8.6377  -8.6182  -8.0644  -8.0117  -8.0090  -7.9695
     1.3017   1.3969   1.4062   1.5165   2.4691   2.7270   2.7996   2.9580
     3.0412   3.2668   3.3160   3.7403   3.8238   3.8329   4.4442   4.5610
     4.8229   4.8535   4.9017   5.3295   5.5833   5.5981   5.6400   5.8600
     6.2711   6.3508   6.4388   6.5692   6.7399   6.8094   6.9126   7.5495
     7.5714   7.5959   7.6074   8.0158  10.0663  10.9806  11.0064  11.5731
    11.5965  12.2696  12.7440  12.7622  12.9060  12.9298  13.0274  13.8355
    14.3443  15.4635  15.5245  15.6325  16.3957  17.1308  17.3924

          k = 0.1667 0.3333 0.2288 ( 31619 PWs)   bands (ev):

   -66.2578 -66.2576 -66.2573 -66.2570 -30.6425 -30.6407 -30.6077 -30.6058
   -30.5865 -30.5848 -30.5516 -30.5501 -30.5478 -30.5463 -30.5137 -30.5121
   -20.4069 -20.4069 -20.4069 -20.4069 -20.4036 -20.4035 -20.4003 -20.4003
   -20.3952 -20.3951 -20.3950 -20.3949 -20.3938 -20.3932 -20.3921 -20.3920
   -20.3915 -20.3915 -20.3914 -20.3907 -20.3748 -20.3748 -20.3739 -20.3739
   -20.3724 -20.3724 -20.3712 -20.3712  -9.7030  -9.4831  -9.2367  -8.8864
    -8.8003  -8.6847  -8.6164  -8.5894  -8.3037  -8.2730  -8.0041  -7.9886
     1.3847   1.3956   2.0515   2.1627   2.6840   2.8117   2.9012   2.9215
     3.0037   3.2449   3.3090   3.4226   3.9259   3.9383   3.9817   4.2033
     4.6128   4.7000   4.8070   4.8746   4.8918   5.4140   5.6442   5.6961
     6.5560   6.6301   6.7200   6.7378   6.8020   6.8896   7.0647   7.4498
     7.4869   7.5471   7.5974   7.7944  10.5428  10.9810  11.0110  11.7623
    11.8022  11.8554  12.5258  12.5825  12.7602  12.7888  13.1320  13.5933
    14.8616  15.4329  16.0285  16.3971  16.6963  16.7536  17.4478

          k = 0.1667 0.3333-0.3433 ( 31628 PWs)   bands (ev):

   -66.2577 -66.2577 -66.2571 -66.2571 -30.6250 -30.6250 -30.6232 -30.6232
   -30.5857 -30.5857 -30.5509 -30.5509 -30.5471 -30.5471 -30.5129 -30.5129
   -20.4069 -20.4069 -20.4069 -20.4069 -20.4019 -20.4019 -20.4019 -20.4019
   -20.3952 -20.3952 -20.3950 -20.3950 -20.3935 -20.3935 -20.3919 -20.3919
   -20.3917 -20.3917 -20.3911 -20.3911 -20.3748 -20.3748 -20.3739 -20.3739
   -20.3724 -20.3724 -20.3712 -20.3712  -9.5718  -9.5718  -8.9720  -8.9719
    -8.7482  -8.7477  -8.5307  -8.5294  -8.5045  -8.5034  -7.9971  -7.9970
     1.3925   1.3928   2.7933   2.7947   2.8540   2.8551   2.9555   2.9653
     3.1074   3.1177   3.2773   3.2795   3.3447   3.3490   4.2146   4.2170
     4.2854   4.2854   4.7467   4.7854   5.0471   5.0836   5.6539   5.6557
     6.6570   6.6806   6.7013   6.7249   7.2265   7.2292   7.2503   7.2716
     7.3158   7.3281   7.6288   7.6333  10.9596  10.9690  11.2117  11.2274
    12.1139  12.1238  12.1754  12.1784  12.7558  12.7816  13.3220  13.3396
    15.2275  15.2351  16.3881  16.3943  17.2851  17.3152  17.3878

          k = 0.1667-0.5000 0.0000 ( 31610 PWs)   bands (ev):

   -66.2577 -66.2577 -66.2572 -66.2572 -30.6591 -30.6591 -30.5906 -30.5906
   -30.5715 -30.5715 -30.5695 -30.5695 -30.5286 -30.5286 -30.5255 -30.5255
   -20.4069 -20.4069 -20.4068 -20.4068 -20.4052 -20.4052 -20.3987 -20.3987
   -20.3954 -20.3954 -20.3951 -20.3951 -20.3932 -20.3932 -20.3920 -20.3920
   -20.3919 -20.3919 -20.3906 -20.3906 -20.3746 -20.3746 -20.3745 -20.3745
   -20.3716 -20.3716 -20.3716 -20.3716  -9.6800  -9.6800  -9.1212  -9.1212
    -8.8805  -8.8805  -8.3099  -8.3099  -8.3081  -8.3081  -7.9135  -7.9135
     1.1433   1.1433   2.0748   2.0748   2.0828   2.0828   2.6059   2.6059
     3.6687   3.6687   3.8810   3.8810   4.0663   4.0664   4.1727   4.1727
     4.6528   4.6528   5.0150   5.0150   5.4548   5.4548   5.7447   5.7447
     6.1654   6.1654   6.4226   6.4226   7.1048   7.1048   7.1150   7.1150
     7.1834   7.1834   7.9308   7.9308  10.6465  10.6465  11.9317  11.9317
    11.9566  11.9566  12.3648  12.3648  12.6674  12.6674  13.5320  13.5320
    14.6184  14.6185  16.3685  16.3685  16.7425  16.7425  17.5471

          k = 0.1667-0.5000 0.1144 ( 31628 PWs)   bands (ev):

   -66.2576 -66.2576 -66.2572 -66.2572 -30.6545 -30.6545 -30.5949 -30.5949
   -30.5718 -30.5718 -30.5697 -30.5697 -30.5284 -30.5284 -30.5257 -30.5257
   -20.4069 -20.4069 -20.4069 -20.4069 -20.4047 -20.4047 -20.3991 -20.3991
   -20.3953 -20.3953 -20.3951 -20.3951 -20.3931 -20.3931 -20.3921 -20.3921
   -20.3918 -20.3918 -20.3907 -20.3907 -20.3746 -20.3746 -20.3745 -20.3745
   -20.3716 -20.3716 -20.3716 -20.3716  -9.6168  -9.6168  -9.1341  -9.1341
    -8.8609  -8.8609  -8.3179  -8.3179  -8.3063  -8.3063  -8.0179  -8.0179
     1.3945   1.3945   2.0791   2.0791   2.0838   2.0838   2.6779   2.6779
     3.6101   3.6101   3.9255   3.9255   4.0849   4.0849   4.1262   4.1262
     4.6607   4.6607   4.7955   4.7955   5.1270   5.1270   5.7228   5.7228
     6.2410   6.2410   6.6005   6.6005   7.0967   7.0967   7.1153   7.1153
     7.1888   7.1888   7.8696   7.8696  10.7592  10.7592  11.9294  11.9294
    11.9557  11.9557  12.4108  12.4108  12.5173  12.5173  13.4148  13.4148
    14.9675  14.9675  16.4572  16.4572  16.7002  16.7003  17.5351

          k = 0.1667-0.5000 0.2288 ( 31626 PWs)   bands (ev):

   -66.2575 -66.2575 -66.2573 -66.2573 -30.6418 -30.6418 -30.6071 -30.6071
   -30.5717 -30.5717 -30.5703 -30.5703 -30.5279 -30.5279 -30.5263 -30.5263
   -20.4069 -20.4069 -20.4069 -20.4069 -20.4036 -20.4036 -20.4003 -20.4003
   -20.3953 -20.3953 -20.3951 -20.3951 -20.3929 -20.3929 -20.3923 -20.3923
   -20.3916 -20.3916 -20.3909 -20.3909 -20.3746 -20.3746 -20.3745 -20.3745
   -20.3716 -20.3716 -20.3716 -20.3716  -9.4560  -9.4560  -9.1802  -9.1802
    -8.7869  -8.7869  -8.3878  -8.3878  -8.2990  -8.2990  -8.2225  -8.2225
     1.9663   1.9663   2.0734   2.0734   2.2052   2.2052   2.8940   2.8940
     3.3874   3.3874   3.9810   3.9810   4.0122   4.0123   4.2128   4.2128
     4.2479   4.2479   4.6906   4.6906   4.7770   4.7770   5.1616   5.1616
     6.6943   6.6943   6.8690   6.8690   7.0635   7.0635   7.1098   7.1098
     7.2254   7.2254   7.6840   7.6840  11.0848  11.0848  11.9053  11.9053
    11.9531  11.9531  12.1421  12.1421  12.5560  12.5560  13.1279  13.1279
    15.7001  15.7001  16.5463  16.5463  16.7469  16.7469  17.3734

          k = 0.1667-0.5000-0.3433 ( 31648 PWs)   bands (ev):

   -66.2574 -66.2574 -66.2574 -66.2574 -30.6244 -30.6244 -30.6244 -30.6244
   -30.5711 -30.5711 -30.5711 -30.5711 -30.5271 -30.5271 -30.5271 -30.5271
   -20.4069 -20.4069 -20.4069 -20.4069 -20.4020 -20.4020 -20.4019 -20.4019
   -20.3952 -20.3952 -20.3952 -20.3952 -20.3927 -20.3926 -20.3926 -20.3926
   -20.3913 -20.3913 -20.3913 -20.3913 -20.3746 -20.3746 -20.3745 -20.3745
   -20.3716 -20.3716 -20.3716 -20.3716  -9.2845  -9.2845  -9.2845  -9.2844
    -8.6169  -8.6169  -8.6167  -8.6167  -8.2841  -8.2841  -8.2839  -8.2839
     2.0595   2.0595   2.0598   2.0598   2.9427   2.9427   2.9442   2.9442
     3.3332   3.3332   3.3394   3.3394   4.0027   4.0027   4.0256   4.0256
     4.5189   4.5189   4.5318   4.5318   4.7853   4.7853   4.7862   4.7862
     6.9661   6.9661   6.9727   6.9727   7.0502   7.0502   7.0682   7.0682
     7.3989   7.3989   7.4077   7.4077  11.5494  11.5494  11.5671  11.5671
    11.9498  11.9498  11.9834  11.9834  12.7993  12.7993  12.8139  12.8139
    16.2468  16.2468  16.2661  16.2661  17.1044  17.1044  17.1385

          k = 0.3333 0.3333 0.0000 ( 31604 PWs)   bands (ev):

   -66.2578 -66.2575 -66.2573 -66.2570 -30.6592 -30.6583 -30.5949 -30.5908
   -30.5899 -30.5886 -30.5724 -30.5706 -30.5275 -30.5244 -30.5079 -30.5047
   -20.4069 -20.4069 -20.4069 -20.4068 -20.4051 -20.4051 -20.3986 -20.3985
   -20.3951 -20.3949 -20.3947 -20.3947 -20.3947 -20.3933 -20.3929 -20.3919
   -20.3919 -20.3918 -20.3906 -20.3903 -20.3755 -20.3754 -20.3750 -20.3750
   -20.3712 -20.3712 -20.3705 -20.3705  -9.8522  -9.6236  -9.4449  -9.0784
    -9.0393  -8.8716  -8.3243  -8.3220  -7.9340  -7.9089  -7.9008  -7.8820
     1.0619   1.1402   1.1751   1.2352   2.0721   2.0768   2.2995   2.6075
     3.6280   3.7263   3.8964   3.9302   4.0238   4.6019   4.6738   4.8488
     4.8977   5.0283   5.2419   5.5428   5.5667   5.5977   5.8807   5.9247
     6.1920   6.2006   6.2999   6.3004   6.5031   6.6915   7.0178   7.0501
     7.0625   7.1461   7.9226   8.1418   9.5888  10.6555  11.6636  11.6927
    12.3447  12.3598  12.6275  12.6357  12.6895  13.1954  13.5328  13.8501
    14.1109  14.6677  15.2615  15.9605  16.8117  16.9283  17.5485

          k = 0.3333 0.3333 0.1144 ( 31610 PWs)   bands (ev):

   -66.2578 -66.2575 -66.2574 -66.2570 -30.6545 -30.6536 -30.5947 -30.5941
   -30.5934 -30.5911 -30.5727 -30.5708 -30.5273 -30.5246 -30.5077 -30.5049
   -20.4069 -20.4069 -20.4069 -20.4068 -20.4047 -20.4047 -20.3990 -20.3990
   -20.3951 -20.3949 -20.3947 -20.3947 -20.3946 -20.3934 -20.3929 -20.3920
   -20.3919 -20.3917 -20.3907 -20.3904 -20.3755 -20.3754 -20.3750 -20.3750
   -20.3712 -20.3712 -20.3705 -20.3705  -9.8039  -9.5591  -9.4566  -9.0897
    -9.0049  -8.8526  -8.3334  -8.3196  -8.0423  -8.0106  -7.9071  -7.8838
     1.1190   1.1401   1.3982   1.4692   2.0747   2.0797   2.3728   2.6822
     3.6196   3.7213   3.7819   3.8287   3.9979   4.6102   4.7260   4.7935
     4.8483   4.8622   4.9487   5.1881   5.7320   5.7460   5.8809   5.9221
     5.9371   6.2916   6.3296   6.4675   6.5096   6.7506   6.9308   7.0547
     7.0550   7.1444   7.8602   8.0534   9.8180  10.7717  11.6638  11.6915
    12.1934  12.3889  12.5027  12.6377  12.6600  13.2269  13.4151  14.0128
    14.1014  15.0078  15.2318  16.1127  16.7677  17.0235  17.5852

          k = 0.3333 0.3333 0.2288 ( 31637 PWs)   bands (ev):

   -66.2577 -66.2575 -66.2574 -66.2571 -30.6416 -30.6409 -30.6063 -30.6062
   -30.5939 -30.5918 -30.5728 -30.5715 -30.5268 -30.5252 -30.5071 -30.5055
   -20.4069 -20.4069 -20.4069 -20.4069 -20.4035 -20.4035 -20.4002 -20.4002
   -20.3950 -20.3949 -20.3947 -20.3947 -20.3943 -20.3936 -20.3927 -20.3922
   -20.3916 -20.3914 -20.3910 -20.3907 -20.3755 -20.3755 -20.3750 -20.3750
   -20.3712 -20.3712 -20.3705 -20.3705  -9.6879  -9.4951  -9.3955  -9.1303
    -8.8863  -8.7787  -8.4078  -8.3119  -8.3070  -8.2293  -7.9023  -7.8888
     1.1351   1.1397   1.9577   2.0679   2.1830   2.2035   2.5878   2.9078
     3.3520   3.4606   3.6782   3.7076   4.1840   4.1960   4.2414   4.6458
     4.7318   4.8037   4.8183   4.9754   5.1689   5.5789   5.9352   5.9507
     6.1380   6.2729   6.4135   6.6956   6.7114   6.8913   6.9456   7.0303
     7.1091   7.1637   7.6672   7.7956  10.3828  11.1031  11.6391  11.6882
    11.7618  12.1058  12.5330  12.6415  12.6509  13.1133  13.3418  13.7788
    14.5734  15.1316  15.7365  16.5006  16.6236  17.2822  17.3992

          k = 0.3333 0.3333-0.3433 ( 31652 PWs)   bands (ev):

   -66.2576 -66.2576 -66.2573 -66.2572 -30.6240 -30.6240 -30.6235 -30.6235
   -30.5929 -30.5929 -30.5723 -30.5723 -30.5260 -30.5260 -30.5063 -30.5063
   -20.4069 -20.4069 -20.4069 -20.4069 -20.4019 -20.4019 -20.4019 -20.4019
   -20.3949 -20.3949 -20.3947 -20.3947 -20.3940 -20.3940 -20.3925 -20.3925
   -20.3913 -20.3913 -20.3911 -20.3911 -20.3755 -20.3755 -20.3750 -20.3750
   -20.3712 -20.3712 -20.3705 -20.3705  -9.5712  -9.5712  -9.2265  -9.2265
    -8.6623  -8.6623  -8.5972  -8.5972  -8.2958  -8.2958  -7.8955  -7.8955
     1.1386   1.1386   2.0538   2.0538   2.9280   2.9280   2.9544   2.9544
     3.1756   3.1756   3.3683   3.3683   3.6897   3.6897   4.4842   4.4842
     4.7540   4.7540   4.8261   4.8261   5.2538   5.2538   5.9455   5.9455
     6.2309   6.2309   6.5441   6.5441   6.9535   6.9535   7.0518   7.0518
     7.3414   7.3415   7.4232   7.4232  11.0723  11.0723  11.5891  11.5891
    11.6854  11.6854  12.6452  12.6452  12.7875  12.7876  13.5279  13.5279
    14.9284  14.9284  16.3223  16.3223  16.9148  16.9148  17.7006

          k = 0.3333-0.5000 0.0000 ( 31620 PWs)   bands (ev):

   -66.2577 -66.2577 -66.2572 -66.2572 -30.6586 -30.6586 -30.5928 -30.5928
   -30.5859 -30.5859 -30.5851 -30.5851 -30.5127 -30.5127 -30.5095 -30.5095
   -20.4069 -20.4069 -20.4068 -20.4068 -20.4051 -20.4051 -20.3985 -20.3985
   -20.3950 -20.3950 -20.3947 -20.3947 -20.3938 -20.3938 -20.3928 -20.3928
   -20.3918 -20.3918 -20.3903 -20.3903 -20.3756 -20.3756 -20.3755 -20.3755
   -20.3705 -20.3705 -20.3705 -20.3705  -9.7585  -9.7585  -9.3306  -9.3306
    -8.9988  -8.9988  -8.0342  -8.0342  -8.0216  -8.0216  -7.9118  -7.9118
     1.1385   1.1385   1.3937   1.3937   1.4353   1.4353   2.3773   2.3773
     4.0317   4.0318   4.2941   4.2941   4.3396   4.3397   4.4571   4.4571
     5.3365   5.3365   5.4961   5.4961   5.5324   5.5324   5.6486   5.6486
     6.3649   6.3649   6.4736   6.4736   6.5134   6.5134   6.6179   6.6179
     6.9138   6.9138   8.0878   8.0878   9.9248   9.9248  12.2688  12.2688
    12.2896  12.2896  12.4355  12.4355  12.9611  12.9611  13.9403  13.9403
    14.1312  14.1312  15.7544  15.7544  16.6680  16.6680  17.4750

          k = 0.3333-0.5000 0.1144 ( 31632 PWs)   bands (ev):

   -66.2576 -66.2576 -66.2572 -66.2572 -30.6539 -30.6539 -30.5951 -30.5951
   -30.5873 -30.5873 -30.5862 -30.5862 -30.5125 -30.5125 -30.5097 -30.5097
   -20.4069 -20.4069 -20.4068 -20.4068 -20.4047 -20.4047 -20.3989 -20.3989
   -20.3950 -20.3950 -20.3947 -20.3947 -20.3938 -20.3938 -20.3929 -20.3929
   -20.3917 -20.3917 -20.3904 -20.3904 -20.3756 -20.3756 -20.3755 -20.3755
   -20.3705 -20.3705 -20.3705 -20.3705  -9.7059  -9.7059  -9.3416  -9.3416
    -8.9679  -8.9679  -8.0634  -8.0634  -8.0323  -8.0323  -7.9851  -7.9851
     1.3129   1.3129   1.3934   1.3934   1.5220   1.5220   2.4527   2.4527
     3.8391   3.8391   4.2996   4.2996   4.3184   4.3184   4.5053   4.5053
     5.0423   5.0423   5.4488   5.4488   5.5007   5.5007   5.8254   5.8254
     6.1855   6.1855   6.5076   6.5076   6.6170   6.6170   6.6545   6.6545
     6.8759   6.8759   8.0054   8.0054  10.1068  10.1068  12.2464  12.2464
    12.2820  12.2820  12.3020  12.3020  12.9956  12.9956  13.8358  13.8358
    14.4106  14.4106  15.7210  15.7210  16.8029  16.8029  17.5496

          k = 0.3333-0.5000 0.2288 ( 31650 PWs)   bands (ev):

   -66.2575 -66.2575 -66.2573 -66.2573 -30.6411 -30.6411 -30.6063 -30.6063
   -30.5884 -30.5884 -30.5869 -30.5869 -30.5119 -30.5119 -30.5103 -30.5103
   -20.4069 -20.4069 -20.4069 -20.4069 -20.4035 -20.4035 -20.4002 -20.4002
   -20.3949 -20.3949 -20.3947 -20.3947 -20.3936 -20.3936 -20.3931 -20.3931
   -20.3915 -20.3915 -20.3907 -20.3907 -20.3756 -20.3756 -20.3755 -20.3755
   -20.3705 -20.3705 -20.3705 -20.3705  -9.5795  -9.5795  -9.3786  -9.3786
    -8.8572  -8.8572  -8.3222  -8.3222  -8.0271  -8.0271  -8.0106  -8.0106
     1.3814   1.3814   1.3922   1.3922   2.1592   2.1592   2.6802   2.6802
     3.4086   3.4086   4.2408   4.2408   4.3008   4.3008   4.3216   4.3216
     4.6824   4.6824   5.2974   5.2974   5.5145   5.5145   5.6556   5.6556
     6.3223   6.3223   6.4872   6.4872   6.6830   6.6830   6.8096   6.8097
     6.9490   6.9490   7.7602   7.7602  10.5865  10.5865  11.8217  11.8217
    12.2769  12.2769  12.2875  12.2875  13.1090  13.1090  13.5846  13.5846
    14.9582  14.9582  15.6090  15.6090  17.1483  17.1483  17.6724

          k = 0.3333-0.5000-0.3433 ( 31652 PWs)   bands (ev):

   -66.2574 -66.2574 -66.2574 -66.2574 -30.6237 -30.6236 -30.6236 -30.6236
   -30.5877 -30.5877 -30.5877 -30.5877 -30.5111 -30.5111 -30.5111 -30.5111
   -20.4069 -20.4069 -20.4069 -20.4069 -20.4019 -20.4019 -20.4018 -20.4018
   -20.3948 -20.3948 -20.3948 -20.3948 -20.3934 -20.3934 -20.3934 -20.3934
   -20.3911 -20.3911 -20.3911 -20.3911 -20.3756 -20.3756 -20.3756 -20.3756
   -20.3705 -20.3705 -20.3705 -20.3705  -9.4552  -9.4552  -9.4552  -9.4552
    -8.6318  -8.6318  -8.6318  -8.6317  -8.0196  -8.0196  -8.0196  -8.0196
     1.3894   1.3894   1.3895   1.3895   2.9403   2.9403   2.9415   2.9415
     3.2323   3.2323   3.2331   3.2332   4.3055   4.3055   4.3151   4.3151
     4.9735   4.9735   4.9827   4.9827   5.5451   5.5451   5.5488   5.5488
     6.4375   6.4375   6.4406   6.4406   6.7509   6.7510   6.7529   6.7529
     7.3739   7.3739   7.3761   7.3761  11.2122  11.2122  11.2135  11.2135
    12.2788  12.2788  12.2851  12.2851  13.3106  13.3106  13.3151  13.3151
    15.3752  15.3752  15.3792  15.3792  17.4459  17.4530  17.4561

          k =-0.5000-0.5000 0.0000 ( 31608 PWs)   bands (ev):

   -66.2577 -66.2577 -66.2572 -66.2572 -30.6583 -30.6583 -30.5961 -30.5961
   -30.5920 -30.5920 -30.5876 -30.5876 -30.5069 -30.5068 -30.5036 -30.5036
   -20.4069 -20.4069 -20.4068 -20.4068 -20.4051 -20.4051 -20.3984 -20.3984
   -20.3947 -20.3947 -20.3944 -20.3944 -20.3943 -20.3943 -20.3933 -20.3933
   -20.3918 -20.3918 -20.3903 -20.3903 -20.3760 -20.3760 -20.3759 -20.3759
   -20.3701 -20.3701 -20.3701 -20.3701  -9.7967  -9.7967  -9.4071  -9.4071
    -9.0317  -9.0317  -7.9227  -7.9227  -7.9206  -7.9206  -7.8950  -7.8950
     1.0788   1.0788   1.1372   1.1372   1.2494   1.2494   2.2878   2.2878
     4.1179   4.1179   4.5201   4.5201   4.5808   4.5808   4.6594   4.6594
     5.3667   5.3667   5.3752   5.3752   5.8322   5.8322   5.8555   5.8555
     6.1738   6.1738   6.2715   6.2715   6.3288   6.3288   6.5053   6.5053
     7.0464   7.0464   8.1381   8.1381   9.6128   9.6128  12.3589  12.3589
    12.4148  12.4148  12.4351  12.4351  13.1902  13.1902  13.8723  13.8723
    14.1120  14.1120  15.3365  15.3365  16.8581  16.8581  17.4724

          k =-0.5000-0.5000 0.1144 ( 31592 PWs)   bands (ev):

   -66.2576 -66.2576 -66.2572 -66.2572 -30.6536 -30.6536 -30.5959 -30.5959
   -30.5924 -30.5924 -30.5923 -30.5923 -30.5066 -30.5066 -30.5038 -30.5038
   -20.4069 -20.4069 -20.4068 -20.4068 -20.4046 -20.4046 -20.3988 -20.3988
   -20.3946 -20.3946 -20.3944 -20.3944 -20.3943 -20.3943 -20.3933 -20.3933
   -20.3917 -20.3917 -20.3904 -20.3904 -20.3760 -20.3760 -20.3759 -20.3759
   -20.3701 -20.3701 -20.3701 -20.3701  -9.7483  -9.7483  -9.4176  -9.4176
    -8.9966  -8.9966  -8.0344  -8.0344  -7.9209  -7.9209  -7.8968  -7.8968
     1.1194   1.1194   1.1372   1.1372   1.4723   1.4723   2.3623   2.3623
     3.8580   3.8580   4.5241   4.5241   4.5765   4.5765   4.7245   4.7245
     5.0658   5.0658   5.5253   5.5253   5.8296   5.8296   5.8584   5.8584
     6.1572   6.1572   6.1889   6.1889   6.3571   6.3571   6.5977   6.5977
     6.9309   6.9309   8.0487   8.0487   9.8407   9.8407  12.1919  12.1919
    12.4170  12.4170  12.4340  12.4340  13.2226  13.2226  14.0120  14.0120
    14.1247  14.1247  15.3058  15.3058  17.0560  17.0560  17.5064

          k =-0.5000-0.5000 0.2288 ( 31664 PWs)   bands (ev):

   -66.2575 -66.2575 -66.2573 -66.2573 -30.6408 -30.6408 -30.6054 -30.6054
   -30.5951 -30.5951 -30.5930 -30.5930 -30.5060 -30.5060 -30.5044 -30.5044
   -20.4069 -20.4069 -20.4069 -20.4069 -20.4034 -20.4034 -20.4001 -20.4001
   -20.3944 -20.3944 -20.3943 -20.3943 -20.3943 -20.3943 -20.3936 -20.3936
   -20.3914 -20.3914 -20.3907 -20.3907 -20.3759 -20.3759 -20.3759 -20.3759
   -20.3701 -20.3701 -20.3701 -20.3701  -9.6340  -9.6340  -9.4525  -9.4525
    -8.8734  -8.8734  -8.3158  -8.3158  -7.9159  -7.9159  -7.9020  -7.9020
     1.1330   1.1330   1.1369   1.1369   2.1784   2.1784   2.5815   2.5815
     3.3819   3.3819   4.2429   4.2429   4.5352   4.5352   4.5661   4.5661
     4.9120   4.9120   5.4837   5.4837   5.8658   5.8658   5.8736   5.8736
     6.0825   6.0825   6.1505   6.1505   6.4385   6.4385   6.7323   6.7323
     6.9203   6.9203   7.7855   7.7855  10.4026  10.4026  11.7336  11.7336
    12.4215  12.4216  12.4310  12.4310  13.3278  13.3278  13.7731  13.7731
    14.6134  14.6134  15.2024  15.2024  17.6021  17.6729  17.6732

          k =-0.5000-0.5000-0.3433 ( 31648 PWs)   bands (ev):

   -66.2574 -66.2574 -66.2574 -66.2574 -30.6231 -30.6231 -30.6231 -30.6231
   -30.5941 -30.5941 -30.5941 -30.5941 -30.5052 -30.5052 -30.5052 -30.5052
   -20.4069 -20.4069 -20.4069 -20.4069 -20.4018 -20.4018 -20.4018 -20.4018
   -20.3944 -20.3943 -20.3943 -20.3943 -20.3940 -20.3940 -20.3940 -20.3940
   -20.3910 -20.3910 -20.3910 -20.3910 -20.3759 -20.3759 -20.3759 -20.3759
   -20.3701 -20.3701 -20.3701 -20.3701  -9.5226  -9.5226  -9.5226  -9.5226
    -8.6343  -8.6343  -8.6343  -8.6343  -7.9089  -7.9089  -7.9089  -7.9089
     1.1360   1.1360   1.1360   1.1360   2.9315   2.9315   2.9315   2.9315
     3.1808   3.1809   3.1809   3.1809   4.5504   4.5504   4.5504   4.5505
     5.1934   5.1934   5.1934   5.1934   5.8772   5.8772   5.8772   5.8772
     6.1141   6.1141   6.1141   6.1141   6.5653   6.5653   6.5653   6.5653
     7.3780   7.3780   7.3780   7.3780  11.0904  11.0904  11.0904  11.0904
    12.4265  12.4265  12.4265  12.4265  13.5175  13.5175  13.5175  13.5175
    14.9899  14.9899  14.9899  14.9899  17.7436  17.7436  17.7436

     the Fermi energy is     9.5378 ev

!    total energy              =   -3130.23132307 Ry
     Harris-Foulkes estimate   =   -3130.23132307 Ry
     estimated scf accuracy    <          9.4E-10 Ry

     The total energy is the sum of the following terms:

     one-electron contribution =   -2397.51675328 Ry
     hartree contribution      =    1316.70869414 Ry
     xc contribution           =    -483.31996265 Ry
     ewald contribution        =   -1566.10322030 Ry
     smearing contrib. (-TS)   =      -0.00008099 Ry

     convergence has been achieved in  12 iterations

     Writing output data file Landau_24.save/
 
     init_run     :      5.33s CPU      5.73s WALL (       1 calls)
     electrons    :    176.61s CPU    180.65s WALL (       1 calls)

     Called by init_run:
     wfcinit      :      4.55s CPU      4.86s WALL (       1 calls)
     potinit      :      0.27s CPU      0.30s WALL (       1 calls)
     hinit0       :      0.40s CPU      0.44s WALL (       1 calls)

     Called by electrons:
     c_bands      :    150.93s CPU    154.50s WALL (      12 calls)
     sum_band     :     22.80s CPU     22.98s WALL (      12 calls)
     v_of_rho     :      0.82s CPU      0.86s WALL (      13 calls)
     mix_rho      :      1.66s CPU      1.85s WALL (      12 calls)

     Called by c_bands:
     init_us_2    :      1.35s CPU      1.47s WALL (      25 calls)
     cegterg      :    136.26s CPU    139.72s WALL (      12 calls)

     Called by sum_band:

     Called by *egterg:
     h_psi        :    110.30s CPU    112.10s WALL (      53 calls)
     g_psi        :      0.25s CPU      0.25s WALL (      40 calls)
     cdiaghg      :      1.51s CPU      1.55s WALL (      52 calls)

     Called by h_psi:
     h_psi:pot    :    109.94s CPU    110.90s WALL (      53 calls)
     h_psi:calbec :     10.90s CPU     11.21s WALL (      53 calls)
     vloc_psi     :     87.57s CPU     88.10s WALL (      53 calls)
     add_vuspsi   :     11.47s CPU     11.59s WALL (      53 calls)

     General routines
     calbec       :     10.90s CPU     11.21s WALL (      53 calls)
     fft          :      0.42s CPU      0.42s WALL (      39 calls)
     ffts         :      0.13s CPU      0.13s WALL (      12 calls)
     fftw         :     88.83s CPU     89.26s WALL (    7992 calls)
 
     Parallel routines
 
     PWSCF        :   3m 2.69s CPU   3m 7.66s WALL

 
   This run was terminated on:  16:14:18  21Nov2019            

=------------------------------------------------------------------------------=
   JOB DONE.
=------------------------------------------------------------------------------=
