
     Program PWSCF v.6.2 (svn rev. 14038) starts on  4Mar2020 at 19:57: 3 

     This program is part of the open-source Quantum ESPRESSO suite
     for quantum simulation of materials; please cite
         "P. Giannozzi et al., J. Phys.:Condens. Matter 21 395502 (2009);
         "P. Giannozzi et al., J. Phys.:Condens. Matter 29 465901 (2017);
          URL http://www.quantum-espresso.org", 
     in publications or presentations arising from this work. More details at
     http://www.quantum-espresso.org/quote

     Parallel version (MPI), running on    64 processors

     MPI processes distributed on    13 nodes
     K-points division:     npool     =      64
     Reading input from rscf.in

     Current dimensions of program PWSCF are:
     Max number of different atomic species (ntypx) = 10
     Max number of k-points (npk) =  40000
     Max angular momentum in pseudopotentials (lmaxx) =  3

     Subspace diagonalization in iterative solution of the eigenvalue problem:
     a serial algorithm will be used

 
     G-vector sticks info
     --------------------
     sticks:   dense  smooth     PW     G-vecs:    dense   smooth      PW
     Sum        7747    7747   2077               498127   498127   69057
 


     bravais-lattice index     =            0
     lattice parameter (alat)  =      13.8397  a.u.
     unit-cell volume          =    2804.9816 (a.u.)^3
     number of atoms/cell      =           32
     number of atomic types    =            2
     number of electrons       =       368.00
     number of Kohn-Sham states=          221
     kinetic-energy cutoff     =     120.0000  Ry
     charge density cutoff     =     480.0000  Ry
     convergence threshold     =      1.0E-08
     mixing beta               =       0.7000
     number of iterations used =            8  plain     mixing
     Exchange-correlation      = SLA PW NOGX NOGC ( 1  4  0  0 0 0)
     nstep                     =           50


     celldm(1)=  13.839685  celldm(2)=   0.000000  celldm(3)=   0.000000
     celldm(4)=   0.000000  celldm(5)=   0.000000  celldm(6)=   0.000000

     crystal axes: (cart. coord. in units of alat)
               a(1) = (   1.000000   0.000000   0.000000 )  
               a(2) = (   0.000000   1.058160   0.000000 )  
               a(3) = (   0.000000   0.000000   1.000000 )  

     reciprocal axes: (cart. coord. in units 2 pi/alat)
               b(1) = (  1.000000  0.000000  0.000000 )  
               b(2) = (  0.000000  0.945037  0.000000 )  
               b(3) = (  0.000000  0.000000  1.000000 )  


     PseudoPot. # 1 for W  read from file:
     /cluster/scratch/mnoe/QE/pps/W_ONCV_LDA-4.0.upf
     MD5 check sum: ba0307d5d4cd419d6f1d13dc49d7c13a
     Pseudo is Norm-conserving + core correction, Zval = 28.0
     Generated using ONCVPSP code by D. R. Hamann
     Using radial grid of 1380 points,  8 beta functions with: 
                l(1) =   0
                l(2) =   0
                l(3) =   1
                l(4) =   1
                l(5) =   2
                l(6) =   2
                l(7) =   3
                l(8) =   3

     PseudoPot. # 2 for O  read from file:
     /cluster/scratch/mnoe/QE/pps/O_ONCV_LDA-3.0.upf
     MD5 check sum: a1bd6164e7280c17a38c229939bfbd54
     Pseudo is Norm-conserving + core correction, Zval =  6.0
     Generated using ONCVPSP code by D. R. Hamann
     Using radial grid of  926 points,  5 beta functions with: 
                l(1) =   0
                l(2) =   0
                l(3) =   1
                l(4) =   1
                l(5) =   2

     atomic species   valence    mass     pseudopotential
        W             28.00   183.84000     W ( 1.00)
        O              6.00    15.99940     O ( 1.00)

      8 Sym. Ops., with inversion, found ( 6 have fractional translation)



   Cartesian axes

     site n.     atom                  positions (alat units)
         1           W   tau(   1) = (   0.2407500   0.2961490   0.0087400  )
         2           W   tau(   2) = (   0.7592500   0.7620111   0.9912600  )
         3           W   tau(   3) = (   0.2592500   0.2329311   0.5087400  )
         4           W   tau(   4) = (   0.7407500   0.8252290   0.4912600  )
         5           W   tau(   5) = (   0.7592500   0.2961490   0.4912600  )
         6           W   tau(   6) = (   0.2407500   0.7620111   0.5087400  )
         7           W   tau(   7) = (   0.7407500   0.2329311   0.9912600  )
         8           W   tau(   8) = (   0.2592500   0.8252290   0.0087400  )
         9           O   tau(   9) = (   0.2329400   0.0082307   0.0027200  )
        10           O   tau(  10) = (   0.7670600   1.0499294   0.9972800  )
        11           O   tau(  11) = (   0.2670600   0.5208493   0.5027200  )
        12           O   tau(  12) = (   0.7329400   0.5373107   0.4972800  )
        13           O   tau(  13) = (   0.7670600   0.0082307   0.4972800  )
        14           O   tau(  14) = (   0.2329400   1.0499294   0.5027200  )
        15           O   tau(  15) = (   0.7329400   0.5208493   0.9972800  )
        16           O   tau(  16) = (   0.2670600   0.5373107   0.0027200  )
        17           O   tau(  17) = (   0.5025300   0.2460222   0.4544020  )
        18           O   tau(  18) = (   0.4974700   0.8121378   0.5455980  )
        19           O   tau(  19) = (   0.9974700   0.2830578   0.9544020  )
        20           O   tau(  20) = (   0.0025300   0.7751023   0.0455980  )
        21           O   tau(  21) = (   0.4974700   0.2460222   0.0455980  )
        22           O   tau(  22) = (   0.5025300   0.8121378   0.9544020  )
        23           O   tau(  23) = (   0.0025300   0.2830578   0.5455980  )
        24           O   tau(  24) = (   0.9974700   0.7751023   0.4544020  )
        25           O   tau(  25) = (   0.7044020   0.2604978   0.7461600  )
        26           O   tau(  26) = (   0.2955980   0.7976622   0.2538400  )
        27           O   tau(  27) = (   0.7955980   0.2685822   0.2461600  )
        28           O   tau(  28) = (   0.2044020   0.7895779   0.7538400  )
        29           O   tau(  29) = (   0.2955980   0.2604978   0.7538400  )
        30           O   tau(  30) = (   0.7044020   0.7976622   0.2461600  )
        31           O   tau(  31) = (   0.2044020   0.2685822   0.2538400  )
        32           O   tau(  32) = (   0.7955980   0.7895779   0.7461600  )

     number of k points=    64  gaussian smearing, width (Ry)=  0.0007
                       cart. coord. in units 2pi/alat
        k(    1) = (   0.0000000   0.0000000   0.0000000), wk =   0.0092593
        k(    2) = (   0.0000000   0.0000000   0.1666667), wk =   0.0185185
        k(    3) = (   0.0000000   0.0000000   0.3333333), wk =   0.0185185
        k(    4) = (   0.0000000   0.0000000  -0.5000000), wk =   0.0092593
        k(    5) = (   0.0000000   0.1575061   0.0000000), wk =   0.0185185
        k(    6) = (   0.0000000   0.1575061   0.1666667), wk =   0.0370370
        k(    7) = (   0.0000000   0.1575061   0.3333333), wk =   0.0370370
        k(    8) = (   0.0000000   0.1575061  -0.5000000), wk =   0.0185185
        k(    9) = (   0.0000000   0.3150122   0.0000000), wk =   0.0185185
        k(   10) = (   0.0000000   0.3150122   0.1666667), wk =   0.0370370
        k(   11) = (   0.0000000   0.3150122   0.3333333), wk =   0.0370370
        k(   12) = (   0.0000000   0.3150122  -0.5000000), wk =   0.0185185
        k(   13) = (   0.0000000  -0.4725183   0.0000000), wk =   0.0092593
        k(   14) = (   0.0000000  -0.4725183   0.1666667), wk =   0.0185185
        k(   15) = (   0.0000000  -0.4725183   0.3333333), wk =   0.0185185
        k(   16) = (   0.0000000  -0.4725183  -0.5000000), wk =   0.0092593
        k(   17) = (   0.1666667   0.0000000   0.1666667), wk =   0.0370370
        k(   18) = (   0.1666667   0.0000000   0.3333333), wk =   0.0370370
        k(   19) = (   0.1666667   0.0000000  -0.5000000), wk =   0.0185185
        k(   20) = (   0.1666667   0.1575061   0.1666667), wk =   0.0740741
        k(   21) = (   0.1666667   0.1575061   0.3333333), wk =   0.0740741
        k(   22) = (   0.1666667   0.1575061  -0.5000000), wk =   0.0370370
        k(   23) = (   0.1666667   0.3150122   0.1666667), wk =   0.0740741
        k(   24) = (   0.1666667   0.3150122   0.3333333), wk =   0.0740741
        k(   25) = (   0.1666667   0.3150122  -0.5000000), wk =   0.0370370
        k(   26) = (   0.1666667  -0.4725183   0.1666667), wk =   0.0370370
        k(   27) = (   0.1666667  -0.4725183   0.3333333), wk =   0.0370370
        k(   28) = (   0.1666667  -0.4725183  -0.5000000), wk =   0.0185185
        k(   29) = (   0.3333333   0.0000000   0.3333333), wk =   0.0370370
        k(   30) = (   0.3333333   0.0000000  -0.5000000), wk =   0.0185185
        k(   31) = (   0.3333333   0.1575061   0.3333333), wk =   0.0740741
        k(   32) = (   0.3333333   0.1575061  -0.5000000), wk =   0.0370370
        k(   33) = (   0.3333333   0.3150122   0.3333333), wk =   0.0740741
        k(   34) = (   0.3333333   0.3150122  -0.5000000), wk =   0.0370370
        k(   35) = (   0.3333333  -0.4725183   0.3333333), wk =   0.0370370
        k(   36) = (   0.3333333  -0.4725183  -0.5000000), wk =   0.0185185
        k(   37) = (  -0.5000000   0.0000000  -0.5000000), wk =   0.0092593
        k(   38) = (  -0.5000000   0.1575061  -0.5000000), wk =   0.0185185
        k(   39) = (  -0.5000000   0.3150122  -0.5000000), wk =   0.0185185
        k(   40) = (  -0.5000000  -0.4725183  -0.5000000), wk =   0.0092593
        k(   41) = (   0.1666667   0.0000000   0.0000000), wk =   0.0185185
        k(   42) = (   0.3333333   0.0000000   0.0000000), wk =   0.0185185
        k(   43) = (  -0.5000000   0.0000000   0.0000000), wk =   0.0092593
        k(   44) = (   0.1666667  -0.1575061   0.0000000), wk =   0.0370370
        k(   45) = (   0.3333333  -0.1575061   0.0000000), wk =   0.0370370
        k(   46) = (  -0.5000000  -0.1575061   0.0000000), wk =   0.0185185
        k(   47) = (   0.1666667  -0.3150122   0.0000000), wk =   0.0370370
        k(   48) = (   0.3333333  -0.3150122   0.0000000), wk =   0.0370370
        k(   49) = (  -0.5000000  -0.3150122   0.0000000), wk =   0.0185185
        k(   50) = (   0.1666667   0.4725183   0.0000000), wk =   0.0185185
        k(   51) = (   0.3333333   0.4725183   0.0000000), wk =   0.0185185
        k(   52) = (  -0.5000000   0.4725183   0.0000000), wk =   0.0092593
        k(   53) = (   0.3333333   0.0000000   0.1666667), wk =   0.0370370
        k(   54) = (  -0.5000000   0.0000000   0.1666667), wk =   0.0185185
        k(   55) = (   0.3333333  -0.1575061   0.1666667), wk =   0.0740741
        k(   56) = (  -0.5000000  -0.1575061   0.1666667), wk =   0.0370370
        k(   57) = (   0.3333333  -0.3150122   0.1666667), wk =   0.0740741
        k(   58) = (  -0.5000000  -0.3150122   0.1666667), wk =   0.0370370
        k(   59) = (   0.3333333   0.4725183   0.1666667), wk =   0.0370370
        k(   60) = (  -0.5000000   0.4725183   0.1666667), wk =   0.0185185
        k(   61) = (  -0.5000000   0.0000000   0.3333333), wk =   0.0185185
        k(   62) = (  -0.5000000  -0.1575061   0.3333333), wk =   0.0370370
        k(   63) = (  -0.5000000  -0.3150122   0.3333333), wk =   0.0370370
        k(   64) = (  -0.5000000   0.4725183   0.3333333), wk =   0.0185185

     Dense  grid:   498127 G-vectors     FFT dimensions: ( 100, 108, 100)

     Estimated max dynamical RAM per process >       2.74 GB

     Estimated total dynamical RAM >     175.05 GB

     Initial potential from superposition of free atoms

     starting charge  367.99656, renormalised to  368.00000
     Starting wfc are  232 randomized atomic wfcs

     total cpu time spent up to now is       46.9 secs

     Self-consistent Calculation

     iteration #  1     ecut=   120.00 Ry     beta= 0.70
     Davidson diagonalization with overlap
     ethr =  1.00E-02,  avg # of iterations =  4.9

     total cpu time spent up to now is      134.2 secs

     total energy              =   -6254.00235270 Ry
     Harris-Foulkes estimate   =   -6264.57661664 Ry
     estimated scf accuracy    <      13.39382983 Ry

     iteration #  2     ecut=   120.00 Ry     beta= 0.70
     Davidson diagonalization with overlap
     ethr =  3.64E-03,  avg # of iterations =  3.5

     total cpu time spent up to now is      219.4 secs

     total energy              =   -6250.84274014 Ry
     Harris-Foulkes estimate   =   -6270.75807170 Ry
     estimated scf accuracy    <      53.54658482 Ry

     iteration #  3     ecut=   120.00 Ry     beta= 0.70
     Davidson diagonalization with overlap
     ethr =  3.64E-03,  avg # of iterations =  3.4

     total cpu time spent up to now is      300.9 secs

     total energy              =   -6261.06891661 Ry
     Harris-Foulkes estimate   =   -6261.40525670 Ry
     estimated scf accuracy    <       1.07932592 Ry

     iteration #  4     ecut=   120.00 Ry     beta= 0.70
     Davidson diagonalization with overlap
     ethr =  2.93E-04,  avg # of iterations =  2.8

     total cpu time spent up to now is      369.0 secs

     total energy              =   -6261.09606395 Ry
     Harris-Foulkes estimate   =   -6261.17632275 Ry
     estimated scf accuracy    <       0.27855644 Ry

     iteration #  5     ecut=   120.00 Ry     beta= 0.70
     Davidson diagonalization with overlap
     ethr =  7.57E-05,  avg # of iterations =  4.5

     total cpu time spent up to now is      438.6 secs

     total energy              =   -6261.08531359 Ry
     Harris-Foulkes estimate   =   -6261.12488333 Ry
     estimated scf accuracy    <       0.08597052 Ry

     iteration #  6     ecut=   120.00 Ry     beta= 0.70
     Davidson diagonalization with overlap
     ethr =  2.34E-05,  avg # of iterations =  5.4

     total cpu time spent up to now is      513.5 secs

     total energy              =   -6261.10468147 Ry
     Harris-Foulkes estimate   =   -6261.10633001 Ry
     estimated scf accuracy    <       0.00488501 Ry

     iteration #  7     ecut=   120.00 Ry     beta= 0.70
     Davidson diagonalization with overlap
     ethr =  1.33E-06,  avg # of iterations =  4.4

     total cpu time spent up to now is      581.4 secs

     total energy              =   -6261.10512805 Ry
     Harris-Foulkes estimate   =   -6261.10528338 Ry
     estimated scf accuracy    <       0.00041493 Ry

     iteration #  8     ecut=   120.00 Ry     beta= 0.70
     Davidson diagonalization with overlap
     ethr =  1.13E-07,  avg # of iterations =  3.0

     total cpu time spent up to now is      652.9 secs

     total energy              =   -6261.10518668 Ry
     Harris-Foulkes estimate   =   -6261.10521003 Ry
     estimated scf accuracy    <       0.00004902 Ry

     iteration #  9     ecut=   120.00 Ry     beta= 0.70
     Davidson diagonalization with overlap
     ethr =  1.33E-08,  avg # of iterations =  3.0

     total cpu time spent up to now is      728.3 secs

     total energy              =   -6261.10519959 Ry
     Harris-Foulkes estimate   =   -6261.10520179 Ry
     estimated scf accuracy    <       0.00000703 Ry

     iteration # 10     ecut=   120.00 Ry     beta= 0.70
     Davidson diagonalization with overlap
     ethr =  1.91E-09,  avg # of iterations =  2.0

     total cpu time spent up to now is      797.3 secs

     total energy              =   -6261.10519949 Ry
     Harris-Foulkes estimate   =   -6261.10520051 Ry
     estimated scf accuracy    <       0.00000217 Ry

     iteration # 11     ecut=   120.00 Ry     beta= 0.70
     Davidson diagonalization with overlap
     ethr =  5.90E-10,  avg # of iterations =  2.8

     total cpu time spent up to now is      869.9 secs

     total energy              =   -6261.10519996 Ry
     Harris-Foulkes estimate   =   -6261.10519999 Ry
     estimated scf accuracy    <       0.00000006 Ry

     iteration # 12     ecut=   120.00 Ry     beta= 0.70
     Davidson diagonalization with overlap
     ethr =  1.52E-11,  avg # of iterations =  2.0

     total cpu time spent up to now is      949.4 secs

     End of self-consistent calculation

          k = 0.0000 0.0000 0.0000 ( 62239 PWs)   bands (ev):

   -66.1667 -66.1663 -66.1657 -66.1657 -66.1653 -66.1653 -66.1647 -66.1643
   -30.5500 -30.5490 -30.5446 -30.5435 -30.5416 -30.5367 -30.5360 -30.5307
   -30.5101 -30.5093 -30.5077 -30.5064 -30.4601 -30.4596 -30.4579 -30.4529
   -30.4412 -30.4394 -30.4390 -30.4368 -30.4334 -30.4279 -30.4269 -30.4212
   -20.3262 -20.3262 -20.3260 -20.3260 -20.3258 -20.3258 -20.3257 -20.3257
   -20.3053 -20.3048 -20.3045 -20.3044 -20.3041 -20.3040 -20.3035 -20.3031
   -20.3022 -20.3021 -20.3019 -20.3017 -20.3016 -20.3014 -20.3013 -20.3012
   -20.3009 -20.3009 -20.3004 -20.3002 -20.2972 -20.2967 -20.2967 -20.2963
   -20.2945 -20.2942 -20.2939 -20.2936 -20.2935 -20.2935 -20.2930 -20.2928
   -20.2876 -20.2875 -20.2871 -20.2869 -20.2866 -20.2865 -20.2847 -20.2846
   -20.2843 -20.2842 -20.2825 -20.2824 -20.2824 -20.2820 -20.2810 -20.2807
    -9.9866  -9.7531  -9.5493  -9.5173  -9.3609  -9.3093  -9.1266  -9.1111
    -8.9442  -8.8017  -8.8008  -8.7923  -7.8492  -7.8297  -7.7915  -7.7814
    -7.7431  -7.7309  -7.7134  -7.6962  -7.6605  -7.6573  -7.6530  -7.6478
     1.0726   1.0765   1.1686   1.1703   1.2300   1.2367   1.3937   1.5336
     1.7274   1.7377   1.7448   1.8605   2.2933   2.3725   2.6008   2.6078
     2.7489   2.7489   4.1077   4.1721   4.2642   4.3574   4.6797   4.6956
     4.7065   4.7253   4.8456   4.9664   5.1046   5.1209   5.1448   5.4818
     5.4901   5.5413   5.5530   5.5553   5.5587   5.5955   5.6627   5.8158
     5.8787   5.8904   5.8930   5.9535   5.9590   5.9957   6.0057   6.0798
     6.1146   6.2473   6.2769   6.4530   6.5034   6.7757   6.8746   6.9198
     6.9203   6.9406   6.9613   7.0001   7.0040   7.0526   7.2248   7.2554
     7.2814   7.3104   7.8122   7.8280   8.0444   8.1013   8.1118   8.1690
     9.3357   9.3481   9.9442   9.9528   9.9663   9.9779  12.2110  12.2719
    12.3995  12.4042  12.4225  12.4518  12.4545  12.4950  12.7853  12.9732
    13.2659  13.2964  13.3581  13.3709  13.6740  13.8643  14.1064  14.1157
    14.2723  14.3498  14.5262  14.8890  15.3791  15.4394  15.4598  16.1026
    16.1052  16.8682  17.0530  17.0884  17.5229

          k = 0.0000 0.0000 0.1667 ( 62262 PWs)   bands (ev):

   -66.1666 -66.1662 -66.1657 -66.1656 -66.1654 -66.1652 -66.1647 -66.1643
   -30.5441 -30.5435 -30.5403 -30.5382 -30.5379 -30.5371 -30.5354 -30.5311
   -30.5106 -30.5084 -30.5080 -30.5051 -30.4640 -30.4620 -30.4575 -30.4525
   -30.4480 -30.4448 -30.4440 -30.4399 -30.4331 -30.4286 -30.4266 -30.4218
   -20.3262 -20.3262 -20.3260 -20.3260 -20.3259 -20.3259 -20.3257 -20.3257
   -20.3052 -20.3048 -20.3046 -20.3043 -20.3041 -20.3039 -20.3035 -20.3032
   -20.3022 -20.3021 -20.3019 -20.3017 -20.3016 -20.3014 -20.3013 -20.3012
   -20.3010 -20.3009 -20.3004 -20.3002 -20.2972 -20.2968 -20.2968 -20.2964
   -20.2945 -20.2942 -20.2937 -20.2935 -20.2932 -20.2930 -20.2924 -20.2922
   -20.2878 -20.2874 -20.2873 -20.2869 -20.2868 -20.2868 -20.2852 -20.2850
   -20.2842 -20.2841 -20.2826 -20.2824 -20.2823 -20.2822 -20.2811 -20.2809
    -9.9345  -9.6952  -9.5339  -9.4727  -9.3226  -9.2690  -9.0866  -9.0718
    -8.9540  -8.7969  -8.7946  -8.7833  -7.9552  -7.9446  -7.8395  -7.8312
    -7.8032  -7.7720  -7.7379  -7.7363  -7.6914  -7.6643  -7.6614  -7.6512
     1.1851   1.1855   1.2323   1.2409   1.4159   1.4363   1.4816   1.6915
     1.7301   1.7365   1.7507   1.9363   2.3834   2.4637   2.6166   2.6909
     2.7404   2.8357   4.1057   4.1109   4.2959   4.3010   4.3404   4.3552
     4.7180   4.7516   4.7587   4.8192   4.8299   5.1030   5.1411   5.2903
     5.3002   5.4692   5.4950   5.5448   5.6110   5.6391   5.6612   5.6633
     5.6858   5.8635   5.9202   5.9375   5.9886   6.0016   6.1199   6.1209
     6.2046   6.3581   6.4483   6.4922   6.7459   6.7644   6.7794   6.8035
     6.8627   6.9138   6.9538   6.9812   6.9833   7.0485   7.0532   7.0563
     7.1054   7.1673   7.8136   7.8204   8.0590   8.0653   8.1146   8.1253
     9.6681   9.6736   9.9509   9.9644  10.2231  10.2625  12.2174  12.2790
    12.3198  12.3511  12.4476  12.4519  12.4979  12.5745  12.8342  12.9123
    13.0826  13.2940  13.2994  13.3561  13.7634  13.8636  13.9604  13.9906
    14.2895  14.4637  14.5210  15.0070  15.3473  15.4773  15.5284  16.0760
    16.4224  16.8208  17.0410  17.2560  17.5358

          k = 0.0000 0.0000 0.3333 ( 62268 PWs)   bands (ev):

   -66.1664 -66.1660 -66.1659 -66.1655 -66.1654 -66.1650 -66.1649 -66.1645
   -30.5410 -30.5381 -30.5349 -30.5321 -30.5280 -30.5253 -30.5250 -30.5203
   -30.5125 -30.5105 -30.5025 -30.4997 -30.4780 -30.4740 -30.4656 -30.4618
   -30.4563 -30.4512 -30.4510 -30.4454 -30.4323 -30.4298 -30.4257 -30.4231
   -20.3261 -20.3261 -20.3259 -20.3259 -20.3259 -20.3259 -20.3258 -20.3258
   -20.3051 -20.3047 -20.3046 -20.3043 -20.3041 -20.3038 -20.3037 -20.3034
   -20.3021 -20.3020 -20.3019 -20.3018 -20.3018 -20.3016 -20.3013 -20.3011
   -20.3010 -20.3010 -20.3004 -20.3002 -20.2972 -20.2970 -20.2969 -20.2966
   -20.2944 -20.2943 -20.2937 -20.2935 -20.2918 -20.2916 -20.2909 -20.2908
   -20.2884 -20.2883 -20.2877 -20.2876 -20.2873 -20.2867 -20.2861 -20.2860
   -20.2839 -20.2837 -20.2830 -20.2827 -20.2821 -20.2820 -20.2814 -20.2812
    -9.8088  -9.5855  -9.5618  -9.3636  -9.2774  -9.0073  -8.9902  -8.9647
    -8.9286  -8.8114  -8.7605  -8.7108  -8.2693  -8.2630  -8.1811  -8.1581
    -7.8000  -7.7519  -7.7485  -7.7256  -7.6851  -7.6844  -7.6824  -7.6604
     1.2390   1.2453   1.2523   1.2623   1.6501   1.6766   1.7140   1.7197
     2.1531   2.2050   2.3389   2.4308   2.6377   2.6439   2.7237   2.7322
     2.9349   3.0627   3.6592   3.7472   3.8934   3.9236   4.2007   4.2056
     4.2883   4.4948   4.5045   4.7437   4.7789   4.7935   4.8564   5.0670
     5.0828   5.1173   5.1744   5.3443   5.4160   5.4349   5.7096   5.7348
     5.8114   5.8271   5.8923   5.9648   6.0382   6.1438   6.1457   6.2594
     6.2868   6.4358   6.4529   6.4692   6.5052   6.5844   6.6481   6.7607
     6.7683   6.9327   6.9492   6.9496   7.0029   7.0318   7.0484   7.0961
     7.2740   7.3369   7.7332   7.7461   7.9231   7.9848   8.0992   8.1172
     9.9160   9.9446  10.3800  10.4626  10.8502  10.9343  11.8622  11.9257
    12.1334  12.4679  12.4692  12.5052  12.5863  12.6089  12.7044  12.8303
    12.8399  13.1574  13.2153  13.3184  13.6138  13.6792  13.8634  13.8643
    14.3777  14.5033  14.7599  15.2452  15.2973  15.6417  15.9625  15.9934
    16.2812  17.2844  17.4654  17.5906  17.7177

          k = 0.0000 0.0000-0.5000 ( 62264 PWs)   bands (ev):

   -66.1662 -66.1662 -66.1658 -66.1658 -66.1652 -66.1652 -66.1648 -66.1648
   -30.5395 -30.5395 -30.5335 -30.5334 -30.5166 -30.5166 -30.5152 -30.5152
   -30.5011 -30.5011 -30.4964 -30.4964 -30.4873 -30.4873 -30.4838 -30.4838
   -30.4544 -30.4544 -30.4490 -30.4490 -30.4311 -30.4311 -30.4245 -30.4245
   -20.3260 -20.3260 -20.3260 -20.3260 -20.3259 -20.3258 -20.3258 -20.3258
   -20.3049 -20.3049 -20.3044 -20.3044 -20.3039 -20.3039 -20.3036 -20.3036
   -20.3020 -20.3020 -20.3019 -20.3019 -20.3018 -20.3018 -20.3012 -20.3011
   -20.3011 -20.3011 -20.3003 -20.3003 -20.2971 -20.2971 -20.2968 -20.2968
   -20.2944 -20.2944 -20.2936 -20.2936 -20.2900 -20.2900 -20.2899 -20.2899
   -20.2891 -20.2891 -20.2890 -20.2890 -20.2869 -20.2869 -20.2865 -20.2865
   -20.2835 -20.2835 -20.2833 -20.2832 -20.2818 -20.2818 -20.2816 -20.2816
    -9.6780  -9.6780  -9.4397  -9.4397  -9.0845  -9.0845  -8.8472  -8.8472
    -8.6472  -8.6471  -8.6143  -8.6143  -8.5940  -8.5940  -8.5067  -8.5067
    -7.7750  -7.7750  -7.7162  -7.7162  -7.7052  -7.7052  -7.6729  -7.6729
     1.2470   1.2470   1.2651   1.2651   1.6957   1.6957   1.7022   1.7022
     2.6668   2.6668   2.9370   2.9370   3.0481   3.0481   3.0944   3.0944
     3.1940   3.1940   3.2229   3.2229   3.4100   3.4100   3.7406   3.7407
     3.8744   3.8744   4.4207   4.4207   4.7085   4.7085   4.9270   4.9270
     5.2316   5.2316   5.2488   5.2488   5.2497   5.2497   5.7876   5.7876
     5.8014   5.8014   6.0124   6.0124   6.1014   6.1014   6.2336   6.2336
     6.2404   6.2404   6.3581   6.3581   6.5103   6.5103   6.5532   6.5532
     6.7887   6.7887   6.9422   6.9422   7.0301   7.0301   7.4636   7.4636
     7.5044   7.5044   7.6678   7.6678   7.7245   7.7246   8.1145   8.1145
     9.9339   9.9339  11.1758  11.1758  11.2546  11.2546  11.5755  11.5756
    11.7363  11.7363  12.5426  12.5426  12.6931  12.6931  12.8775  12.8776
    12.8941  12.8941  13.2099  13.2099  13.4048  13.4048  13.8677  13.8677
    14.4634  14.4634  15.0530  15.0530  15.7326  15.7326  15.8468  15.8468
    16.7415  16.7415  17.8967  17.8967  18.2284

          k = 0.0000 0.1575 0.0000 ( 62231 PWs)   bands (ev):

   -66.1667 -66.1663 -66.1657 -66.1656 -66.1653 -66.1653 -66.1646 -66.1643
   -30.5499 -30.5488 -30.5444 -30.5434 -30.5411 -30.5363 -30.5360 -30.5310
   -30.5065 -30.5059 -30.5045 -30.5031 -30.4626 -30.4624 -30.4610 -30.4567
   -30.4413 -30.4395 -30.4391 -30.4380 -30.4332 -30.4278 -30.4276 -30.4220
   -20.3262 -20.3262 -20.3260 -20.3260 -20.3258 -20.3258 -20.3257 -20.3257
   -20.3052 -20.3047 -20.3044 -20.3044 -20.3040 -20.3040 -20.3035 -20.3032
   -20.3021 -20.3020 -20.3017 -20.3016 -20.3014 -20.3013 -20.3012 -20.3011
   -20.3009 -20.3008 -20.3004 -20.3002 -20.2975 -20.2971 -20.2970 -20.2967
   -20.2944 -20.2941 -20.2939 -20.2937 -20.2935 -20.2935 -20.2930 -20.2928
   -20.2876 -20.2874 -20.2871 -20.2869 -20.2865 -20.2865 -20.2847 -20.2846
   -20.2843 -20.2842 -20.2825 -20.2824 -20.2824 -20.2820 -20.2810 -20.2807
    -9.9638  -9.7633  -9.5260  -9.4915  -9.3672  -9.3162  -9.1255  -9.1121
    -8.8724  -8.7511  -8.7508  -8.7447  -7.8880  -7.8283  -7.8131  -7.8013
    -7.7988  -7.7899  -7.7831  -7.7513  -7.6947  -7.6718  -7.6706  -7.6548
     1.0728   1.0761   1.1689   1.1712   1.2335   1.2368   1.4572   1.5332
     1.9069   1.9582   1.9755   2.0913   2.2990   2.3670   2.6738   2.6784
     2.8156   2.8190   3.9695   4.0344   4.0392   4.1141   4.6813   4.6923
     4.6997   4.7203   4.7316   5.0259   5.0778   5.0984   5.1066   5.3009
     5.3284   5.4841   5.4934   5.6146   5.6294   5.6477   5.6492   5.7293
     5.8049   5.8451   5.8788   5.9730   5.9826   6.0045   6.0199   6.0831
     6.0870   6.2308   6.2908   6.4754   6.5379   6.7916   6.7924   6.8665
     6.9276   6.9305   6.9404   6.9508   6.9601   6.9650   7.2336   7.2521
     7.2931   7.3080   7.8152   7.8270   8.0151   8.0489   8.0604   8.0889
     9.3414   9.3490  10.1392  10.1407  10.1492  10.1566  12.0927  12.1780
    12.2987  12.3351  12.3882  12.4159  12.4232  12.4450  12.8062  12.9740
    13.2885  13.3026  13.3710  13.3761  13.8482  13.8694  14.0140  14.0266
    14.3605  14.6329  14.7119  15.0208  15.4388  15.4567  15.7811  16.0654
    16.0738  16.5860  17.1723  17.2110  17.5083

          k = 0.0000 0.1575 0.1667 ( 62237 PWs)   bands (ev):

   -66.1666 -66.1662 -66.1657 -66.1656 -66.1654 -66.1652 -66.1647 -66.1644
   -30.5434 -30.5433 -30.5402 -30.5381 -30.5376 -30.5364 -30.5357 -30.5313
   -30.5071 -30.5053 -30.5046 -30.5020 -30.4659 -30.4644 -30.4606 -30.4562
   -30.4480 -30.4449 -30.4447 -30.4415 -30.4329 -30.4283 -30.4274 -30.4227
   -20.3262 -20.3262 -20.3260 -20.3260 -20.3259 -20.3259 -20.3257 -20.3257
   -20.3051 -20.3047 -20.3045 -20.3044 -20.3040 -20.3040 -20.3036 -20.3032
   -20.3021 -20.3020 -20.3017 -20.3016 -20.3015 -20.3013 -20.3012 -20.3012
   -20.3009 -20.3009 -20.3004 -20.3002 -20.2975 -20.2972 -20.2971 -20.2968
   -20.2944 -20.2942 -20.2938 -20.2936 -20.2932 -20.2930 -20.2924 -20.2922
   -20.2877 -20.2874 -20.2873 -20.2869 -20.2868 -20.2868 -20.2852 -20.2850
   -20.2842 -20.2841 -20.2825 -20.2824 -20.2823 -20.2822 -20.2811 -20.2809
    -9.9109  -9.7056  -9.5079  -9.4464  -9.3296  -9.2753  -9.0856  -9.0728
    -8.8822  -8.7496  -8.7445  -8.7364  -7.9535  -7.9530  -7.8778  -7.8297
    -7.8247  -7.8131  -7.7844  -7.7825  -7.7738  -7.7447  -7.6787  -7.6632
     1.1856   1.1863   1.2366   1.2410   1.4277   1.4364   1.5790   1.6910
     1.9120   1.9627   1.9709   2.1170   2.3895   2.4581   2.6868   2.7658
     2.8074   2.9060   3.9847   4.0052   4.0806   4.1003   4.3128   4.3511
     4.7087   4.7434   4.7562   4.7564   4.8033   5.0804   5.1025   5.2219
     5.2583   5.2961   5.3959   5.4744   5.5560   5.5798   5.6731   5.6839
     5.7799   5.8032   5.8619   5.9404   5.9641   6.0133   6.0829   6.1538
     6.1705   6.3106   6.4394   6.5263   6.7265   6.7813   6.7942   6.8354
     6.8462   6.9003   6.9359   6.9509   6.9722   6.9789   7.0474   7.0629
     7.1311   7.1681   7.8151   7.8199   8.0205   8.0224   8.0509   8.0525
     9.6792   9.6836  10.1395  10.1586  10.3737  10.4035  12.1506  12.1683
    12.3110  12.3209  12.3392  12.3487  12.4636  12.5162  12.8572  12.9314
    13.0968  13.2893  13.3035  13.3661  13.8647  13.8694  13.8845  13.9034
    14.4263  14.6982  14.7781  15.1262  15.4749  15.5290  15.7509  16.0398
    16.3881  16.7475  16.9346  17.3564  17.5737

          k = 0.0000 0.1575 0.3333 ( 62284 PWs)   bands (ev):

   -66.1664 -66.1661 -66.1659 -66.1656 -66.1654 -66.1650 -66.1649 -66.1645
   -30.5402 -30.5374 -30.5352 -30.5323 -30.5274 -30.5252 -30.5238 -30.5202
   -30.5090 -30.5075 -30.5001 -30.4974 -30.4786 -30.4749 -30.4654 -30.4617
   -30.4594 -30.4549 -30.4531 -30.4483 -30.4320 -30.4295 -30.4265 -30.4239
   -20.3261 -20.3261 -20.3259 -20.3259 -20.3259 -20.3259 -20.3258 -20.3258
   -20.3050 -20.3046 -20.3045 -20.3042 -20.3042 -20.3038 -20.3037 -20.3034
   -20.3020 -20.3019 -20.3018 -20.3016 -20.3016 -20.3014 -20.3012 -20.3011
   -20.3010 -20.3009 -20.3004 -20.3002 -20.2976 -20.2973 -20.2972 -20.2969
   -20.2944 -20.2942 -20.2937 -20.2936 -20.2918 -20.2916 -20.2909 -20.2908
   -20.2884 -20.2883 -20.2877 -20.2876 -20.2872 -20.2868 -20.2861 -20.2860
   -20.2839 -20.2838 -20.2830 -20.2827 -20.2821 -20.2820 -20.2814 -20.2812
    -9.7833  -9.5718  -9.5592  -9.3713  -9.2390  -9.0138  -8.9594  -8.9300
    -8.9196  -8.7658  -8.7167  -8.6760  -8.2738  -8.2602  -8.1893  -8.1552
    -7.8535  -7.8248  -7.7827  -7.7624  -7.7577  -7.7504  -7.7010  -7.6862
     1.2453   1.2524   1.2538   1.2623   1.8412   1.8650   1.9399   1.9615
     2.1523   2.2281   2.3388   2.4605   2.6513   2.7004   2.7293   2.7936
     3.0104   3.1275   3.6608   3.7412   3.8722   3.8828   4.0841   4.1067
     4.2606   4.3765   4.5112   4.6445   4.7116   4.7216   4.7585   4.9926
     5.0583   5.0640   5.1281   5.1956   5.3820   5.4233   5.4515   5.6956
     5.7512   5.8327   5.8804   5.9277   5.9535   6.0949   6.1421   6.1461
     6.3281   6.4705   6.4833   6.5087   6.5735   6.6814   6.7356   6.7562
     6.8404   6.8737   6.9127   6.9466   6.9543   7.0030   7.0864   7.0925
     7.2745   7.3312   7.7363   7.7447   7.8914   7.9277   8.0417   8.0555
    10.1135  10.1393  10.3892  10.4717  10.9552  11.0210  11.8613  11.9236
    12.0999  12.3488  12.4005  12.5012  12.5081  12.6066  12.6639  12.7437
    12.8591  13.1605  13.1940  13.3147  13.5131  13.6115  13.8705  13.8974
    14.5744  14.6870  15.1125  15.3937  15.6285  15.6515  15.9596  15.9879
    16.3938  17.2196  17.2467  17.5176  17.8024

          k = 0.0000 0.1575-0.5000 ( 62234 PWs)   bands (ev):

   -66.1662 -66.1662 -66.1658 -66.1658 -66.1651 -66.1651 -66.1648 -66.1648
   -30.5388 -30.5388 -30.5337 -30.5337 -30.5140 -30.5140 -30.5126 -30.5126
   -30.5012 -30.5012 -30.4965 -30.4965 -30.4865 -30.4865 -30.4832 -30.4832
   -30.4573 -30.4573 -30.4525 -30.4524 -30.4308 -30.4308 -30.4253 -30.4253
   -20.3260 -20.3260 -20.3260 -20.3260 -20.3259 -20.3258 -20.3258 -20.3258
   -20.3048 -20.3048 -20.3044 -20.3043 -20.3040 -20.3040 -20.3036 -20.3036
   -20.3019 -20.3019 -20.3018 -20.3018 -20.3015 -20.3015 -20.3011 -20.3011
   -20.3010 -20.3010 -20.3003 -20.3003 -20.2975 -20.2975 -20.2971 -20.2971
   -20.2943 -20.2943 -20.2937 -20.2937 -20.2900 -20.2900 -20.2899 -20.2899
   -20.2891 -20.2891 -20.2890 -20.2890 -20.2869 -20.2869 -20.2866 -20.2865
   -20.2835 -20.2835 -20.2833 -20.2833 -20.2818 -20.2818 -20.2817 -20.2816
    -9.6514  -9.6514  -9.4485  -9.4485  -9.0239  -9.0239  -8.8127  -8.8127
    -8.6504  -8.6504  -8.6208  -8.6208  -8.5804  -8.5804  -8.4940  -8.4940
    -7.8396  -7.8396  -7.7711  -7.7711  -7.7314  -7.7314  -7.7180  -7.7180
     1.2556   1.2556   1.2651   1.2651   1.8825   1.8825   1.9591   1.9591
     2.7319   2.7319   2.9495   2.9495   3.0427   3.0427   3.1143   3.1143
     3.1915   3.1915   3.2492   3.2492   3.4017   3.4018   3.7559   3.7559
     3.9284   3.9284   4.2406   4.2406   4.5569   4.5569   4.7788   4.7788
     5.1428   5.1428   5.2221   5.2221   5.2495   5.2495   5.5406   5.5406
     5.7750   5.7750   5.9155   5.9155   6.0928   6.0928   6.2265   6.2265
     6.3013   6.3013   6.3935   6.3935   6.5023   6.5023   6.7217   6.7217
     6.8627   6.8627   6.9260   6.9260   6.9382   6.9383   7.4748   7.4748
     7.5001   7.5001   7.6487   7.6488   7.6936   7.6936   8.0531   8.0531
    10.1355  10.1355  11.1816  11.1816  11.2535  11.2535  11.6380  11.6380
    11.7917  11.7917  12.3988  12.3988  12.6816  12.6816  12.8194  12.8194
    12.8900  12.8900  13.1142  13.1142  13.3796  13.3796  13.8780  13.8780
    14.6551  14.6551  15.4279  15.4279  15.8199  15.8200  15.8517  15.8517
    16.7863  16.7863  17.6992  17.6993  18.1937

          k = 0.0000 0.3150 0.0000 ( 62175 PWs)   bands (ev):

   -66.1666 -66.1664 -66.1656 -66.1656 -66.1654 -66.1654 -66.1646 -66.1644
   -30.5494 -30.5486 -30.5440 -30.5433 -30.5399 -30.5371 -30.5345 -30.5318
   -30.4968 -30.4965 -30.4953 -30.4938 -30.4710 -30.4707 -30.4700 -30.4669
   -30.4414 -30.4400 -30.4397 -30.4394 -30.4324 -30.4295 -30.4268 -30.4238
   -20.3262 -20.3262 -20.3260 -20.3260 -20.3258 -20.3258 -20.3257 -20.3257
   -20.3050 -20.3045 -20.3045 -20.3041 -20.3041 -20.3038 -20.3037 -20.3033
   -20.3020 -20.3018 -20.3016 -20.3014 -20.3011 -20.3011 -20.3008 -20.3007
   -20.3006 -20.3003 -20.3002 -20.3000 -20.2984 -20.2980 -20.2980 -20.2977
   -20.2943 -20.2940 -20.2940 -20.2937 -20.2937 -20.2935 -20.2930 -20.2928
   -20.2875 -20.2873 -20.2872 -20.2870 -20.2865 -20.2865 -20.2847 -20.2846
   -20.2843 -20.2842 -20.2825 -20.2824 -20.2823 -20.2821 -20.2809 -20.2808
    -9.9079  -9.7942  -9.4735  -9.4332  -9.3869  -9.3377  -9.1226  -9.1149
    -8.6707  -8.5970  -8.5962  -8.5941  -8.1010  -8.0539  -8.0460  -8.0166
    -7.8247  -7.8176  -7.7929  -7.7874  -7.6906  -7.6787  -7.6715  -7.6597
     1.0732   1.0751   1.1697   1.1715   1.2365   1.2371   1.5100   1.5314
     2.3110   2.3520   2.4556   2.5827   2.6130   2.7445   2.8840   2.9067
     3.0083   3.0366   3.5965   3.6331   3.6731   3.7124   4.1692   4.5012
     4.5288   4.6870   4.6929   4.7203   4.7425   4.8101   5.1643   5.1840
     5.1914   5.2142   5.4166   5.4262   5.6586   5.6680   5.6807   5.6873
     5.8535   5.8746   5.9441   5.9519   5.9578   5.9903   6.0065   6.0999
     6.1063   6.1735   6.2641   6.4822   6.5406   6.5811   6.7817   6.7899
     6.8323   6.9102   7.1299   7.1323   7.1360   7.1495   7.2492   7.2519
     7.3078   7.3118   7.7972   7.8164   7.8623   7.8638   7.8639   7.8833
     9.3478   9.3503  10.5871  10.6240  10.6494  10.6648  11.7248  11.8066
    11.8727  11.9063  12.4022  12.4223  12.4359  12.4417  12.8609  12.9637
    13.3628  13.3735  13.4297  13.4378  13.7252  13.7759  13.7953  13.8140
    14.9052  15.2191  15.2380  15.4373  15.4496  15.5464  15.9418  15.9622
    16.0492  16.7679  17.1616  17.5907  17.6355

          k = 0.0000 0.3150 0.1667 ( 62260 PWs)   bands (ev):

   -66.1665 -66.1663 -66.1656 -66.1655 -66.1654 -66.1653 -66.1646 -66.1644
   -30.5429 -30.5425 -30.5395 -30.5378 -30.5373 -30.5365 -30.5349 -30.5321
   -30.4974 -30.4964 -30.4954 -30.4930 -30.4726 -30.4721 -30.4696 -30.4664
   -30.4480 -30.4462 -30.4451 -30.4441 -30.4321 -30.4292 -30.4275 -30.4245
   -20.3262 -20.3262 -20.3260 -20.3260 -20.3259 -20.3259 -20.3257 -20.3257
   -20.3049 -20.3045 -20.3045 -20.3042 -20.3041 -20.3038 -20.3037 -20.3034
   -20.3020 -20.3018 -20.3016 -20.3014 -20.3011 -20.3011 -20.3008 -20.3008
   -20.3006 -20.3003 -20.3002 -20.3000 -20.2984 -20.2981 -20.2980 -20.2977
   -20.2943 -20.2941 -20.2939 -20.2937 -20.2931 -20.2930 -20.2924 -20.2923
   -20.2876 -20.2874 -20.2873 -20.2870 -20.2868 -20.2868 -20.2851 -20.2850
   -20.2842 -20.2841 -20.2825 -20.2824 -20.2823 -20.2823 -20.2810 -20.2809
    -9.8530  -9.7368  -9.4490  -9.3879  -9.3517  -9.2954  -9.0829  -9.0755
    -8.6802  -8.6011  -8.5923  -8.5874  -8.1040  -8.0678  -8.0453  -8.0269
    -7.9489  -7.9277  -7.8256  -7.8096  -7.7898  -7.7787  -7.6799  -7.6681
     1.1858   1.1867   1.2403   1.2412   1.4355   1.4368   1.6607   1.6890
     2.3988   2.4429   2.4615   2.5676   2.6058   2.7347   2.8910   3.0009
     3.0036   3.1291   3.6330   3.6737   3.6887   3.7030   4.1505   4.3159
     4.3410   4.5126   4.5356   4.7397   4.7818   4.8173   4.8514   4.9531
     5.1282   5.2221   5.2363   5.3036   5.4485   5.4562   5.6313   5.6548
     5.7185   5.7408   5.8056   5.9263   6.0158   6.0383   6.0407   6.0993
     6.2320   6.3294   6.3925   6.5525   6.5638   6.7682   6.8184   6.8849
     6.9167   6.9357   7.0208   7.0425   7.0631   7.0711   7.1226   7.1691
     7.2083   7.2199   7.7968   7.8055   7.8398   7.8522   7.8586   7.8706
     9.6881   9.6930  10.6280  10.6679  10.7666  10.8239  11.8041  11.8192
    11.9071  11.9555  12.3058  12.3189  12.4836  12.4926  12.9155  12.9655
    13.1813  13.3111  13.3609  13.3935  13.6368  13.7102  13.7234  13.7830
    15.0098  15.2160  15.4373  15.4644  15.5375  15.6230  15.9186  16.2167
    16.2689  16.7344  17.2295  17.3126  17.7082

          k = 0.0000 0.3150 0.3333 ( 62269 PWs)   bands (ev):

   -66.1663 -66.1661 -66.1658 -66.1656 -66.1653 -66.1651 -66.1648 -66.1646
   -30.5386 -30.5359 -30.5359 -30.5331 -30.5261 -30.5252 -30.5217 -30.5202
   -30.4999 -30.4991 -30.4924 -30.4899 -30.4816 -30.4789 -30.4682 -30.4648
   -30.4648 -30.4613 -30.4582 -30.4548 -30.4312 -30.4287 -30.4283 -30.4257
   -20.3261 -20.3261 -20.3259 -20.3259 -20.3259 -20.3259 -20.3258 -20.3258
   -20.3047 -20.3044 -20.3043 -20.3043 -20.3039 -20.3039 -20.3039 -20.3035
   -20.3019 -20.3017 -20.3017 -20.3015 -20.3011 -20.3010 -20.3009 -20.3008
   -20.3007 -20.3004 -20.3002 -20.3001 -20.2984 -20.2982 -20.2981 -20.2979
   -20.2943 -20.2941 -20.2939 -20.2938 -20.2918 -20.2917 -20.2909 -20.2908
   -20.2884 -20.2884 -20.2877 -20.2876 -20.2871 -20.2869 -20.2861 -20.2860
   -20.2839 -20.2838 -20.2829 -20.2828 -20.2821 -20.2821 -20.2814 -20.2813
    -9.7216  -9.6025  -9.4985  -9.3952  -9.1537  -9.0352  -8.9495  -8.9342
    -8.7224  -8.6247  -8.5765  -8.5537  -8.2954  -8.2501  -8.2378  -8.1452
    -8.0695  -8.0476  -8.0254  -7.9860  -7.7675  -7.7555  -7.7031  -7.6911
     1.2506   1.2524   1.2600   1.2622   2.1138   2.1500   2.2415   2.3358
     2.4714   2.5576   2.6072   2.6611   2.7049   2.7727   2.9104   2.9853
     3.2412   3.3277   3.6141   3.6652   3.6761   3.7362   3.7706   3.7775
     4.1259   4.3251   4.3950   4.4436   4.4479   4.5788   4.5997   4.7158
     4.7689   4.8993   5.0153   5.0778   5.1770   5.2464   5.2746   5.3485
     5.4091   5.5452   5.7353   5.8871   6.0986   6.1334   6.1423   6.1698
     6.4060   6.4935   6.5035   6.5768   6.6282   6.7408   6.7489   6.7498
     6.9029   6.9631   7.0344   7.0586   7.0978   7.1407   7.1842   7.2181
     7.2629   7.3263   7.7307   7.7307   7.7577   7.7625   7.8495   7.8664
    10.4011  10.4067  10.6377  10.6934  11.2477  11.2972  11.7648  11.9001
    11.9164  11.9558  12.1134  12.2034  12.6090  12.6237  12.6589  12.6911
    12.8810  13.0859  13.1578  13.2835  13.3649  13.5256  13.7214  13.7593
    15.1205  15.1984  15.5785  15.8479  15.8481  15.9247  16.0883  16.6193
    16.7362  16.7701  17.0836  17.4675  17.6987

          k = 0.0000 0.3150-0.5000 ( 62306 PWs)   bands (ev):

   -66.1661 -66.1661 -66.1659 -66.1659 -66.1651 -66.1651 -66.1649 -66.1649
   -30.5373 -30.5373 -30.5345 -30.5345 -30.5083 -30.5083 -30.5060 -30.5060
   -30.5018 -30.5018 -30.4973 -30.4973 -30.4832 -30.4832 -30.4802 -30.4802
   -30.4654 -30.4654 -30.4616 -30.4616 -30.4300 -30.4300 -30.4271 -30.4271
   -20.3260 -20.3260 -20.3260 -20.3260 -20.3259 -20.3259 -20.3258 -20.3258
   -20.3045 -20.3045 -20.3041 -20.3041 -20.3041 -20.3041 -20.3037 -20.3037
   -20.3018 -20.3018 -20.3016 -20.3016 -20.3010 -20.3010 -20.3009 -20.3009
   -20.3006 -20.3006 -20.3002 -20.3001 -20.2983 -20.2983 -20.2980 -20.2980
   -20.2942 -20.2942 -20.2938 -20.2938 -20.2900 -20.2900 -20.2900 -20.2899
   -20.2891 -20.2891 -20.2891 -20.2891 -20.2868 -20.2868 -20.2866 -20.2866
   -20.2834 -20.2834 -20.2833 -20.2833 -20.2818 -20.2817 -20.2817 -20.2817
    -9.5888  -9.5888  -9.4758  -9.4758  -8.8703  -8.8703  -8.7318  -8.7318
    -8.6635  -8.6634  -8.6431  -8.6431  -8.5122  -8.5122  -8.4402  -8.4402
    -8.0628  -8.0628  -8.0150  -8.0150  -7.7351  -7.7351  -7.7231  -7.7231
     1.2624   1.2625   1.2650   1.2650   2.4540   2.4540   2.5841   2.5841
     2.9061   2.9061   2.9885   2.9885   3.0343   3.0343   3.1545   3.1545
     3.1855   3.1855   3.3320   3.3320   3.3717   3.3717   3.6590   3.6590
     4.0604   4.0604   4.0834   4.0834   4.1241   4.1241   4.3463   4.3463
     4.8656   4.8656   5.0080   5.0080   5.2059   5.2059   5.2188   5.2188
     5.3671   5.3671   5.8106   5.8107   6.1916   6.1916   6.2359   6.2359
     6.4100   6.4100   6.4510   6.4511   6.5122   6.5122   6.7110   6.7110
     7.0755   7.0755   7.0804   7.0804   7.1210   7.1210   7.4884   7.4884
     7.4930   7.4930   7.5654   7.5654   7.5977   7.5978   7.8574   7.8574
    10.6367  10.6367  11.1930  11.1930  11.2530  11.2530  11.7296  11.7296
    11.9659  11.9659  12.0971  12.0971  12.5667  12.5667  12.5755  12.5755
    12.9025  12.9025  12.9511  12.9511  13.3959  13.3960  13.7292  13.7292
    15.1678  15.1678  15.7289  15.7289  16.2286  16.2286  16.3885  16.3885
    16.9488  16.9488  17.3136  17.3136  17.9469

          k = 0.0000-0.4725 0.0000 ( 62212 PWs)   bands (ev):

   -66.1665 -66.1665 -66.1655 -66.1655 -66.1655 -66.1655 -66.1645 -66.1645
   -30.5489 -30.5489 -30.5436 -30.5436 -30.5384 -30.5384 -30.5330 -30.5330
   -30.4836 -30.4836 -30.4834 -30.4834 -30.4825 -30.4825 -30.4805 -30.4805
   -30.4411 -30.4411 -30.4396 -30.4396 -30.4311 -30.4311 -30.4256 -30.4255
   -20.3262 -20.3262 -20.3260 -20.3260 -20.3258 -20.3258 -20.3257 -20.3257
   -20.3047 -20.3047 -20.3043 -20.3043 -20.3039 -20.3039 -20.3035 -20.3035
   -20.3019 -20.3019 -20.3014 -20.3014 -20.3010 -20.3010 -20.3006 -20.3006
   -20.2996 -20.2996 -20.2993 -20.2993 -20.2992 -20.2992 -20.2989 -20.2989
   -20.2941 -20.2941 -20.2939 -20.2939 -20.2936 -20.2936 -20.2929 -20.2929
   -20.2874 -20.2873 -20.2872 -20.2872 -20.2865 -20.2865 -20.2847 -20.2847
   -20.2843 -20.2843 -20.2824 -20.2824 -20.2822 -20.2822 -20.2809 -20.2809
    -9.8448  -9.8448  -9.4224  -9.4224  -9.3766  -9.3766  -9.1187  -9.1187
    -8.3893  -8.3893  -8.3478  -8.3478  -8.3428  -8.3428  -8.3371  -8.3371
    -7.8209  -7.8209  -7.7917  -7.7917  -7.6849  -7.6849  -7.6660  -7.6660
     1.0741   1.0741   1.1707   1.1707   1.2373   1.2373   1.5262   1.5262
     2.3318   2.3318   3.1097   3.1097   3.2142   3.2142   3.2295   3.2295
     3.2680   3.2680   3.3789   3.3789   3.5879   3.5879   3.6160   3.6160
     3.7688   3.7688   4.6988   4.6988   4.7024   4.7024   5.2888   5.2888
     5.3378   5.3378   5.4149   5.4149   5.4515   5.4515   5.7705   5.7705
     5.7940   5.7940   5.9131   5.9131   5.9957   5.9957   6.0962   6.0962
     6.1381   6.1381   6.2526   6.2526   6.6438   6.6438   6.6635   6.6635
     6.8727   6.8728   7.2439   7.2439   7.2915   7.2915   7.4956   7.4956
     7.4999   7.4999   7.5515   7.5515   7.5620   7.5620   7.8283   7.8283
     9.3504   9.3504  11.1726  11.1726  11.2386  11.2386  11.2504  11.2504
    11.3314  11.3314  12.4157  12.4157  12.4426  12.4426  12.9240  12.9240
    13.5153  13.5153  13.5157  13.5157  13.5872  13.5872  13.6138  13.6138
    15.4083  15.4083  15.5109  15.5109  15.6826  15.6826  15.7119  15.7119
    16.4168  16.4168  17.9580  17.9590  17.9958

          k = 0.0000-0.4725 0.1667 ( 62246 PWs)   bands (ev):

   -66.1664 -66.1664 -66.1656 -66.1655 -66.1654 -66.1654 -66.1645 -66.1645
   -30.5425 -30.5425 -30.5382 -30.5382 -30.5372 -30.5372 -30.5334 -30.5334
   -30.4845 -30.4845 -30.4840 -30.4840 -30.4825 -30.4825 -30.4800 -30.4800
   -30.4475 -30.4475 -30.4450 -30.4450 -30.4308 -30.4308 -30.4262 -30.4262
   -20.3262 -20.3262 -20.3260 -20.3260 -20.3259 -20.3259 -20.3257 -20.3257
   -20.3047 -20.3047 -20.3043 -20.3043 -20.3039 -20.3039 -20.3036 -20.3036
   -20.3019 -20.3019 -20.3015 -20.3015 -20.3010 -20.3010 -20.3007 -20.3007
   -20.2996 -20.2996 -20.2993 -20.2993 -20.2992 -20.2992 -20.2990 -20.2990
   -20.2941 -20.2941 -20.2939 -20.2939 -20.2931 -20.2931 -20.2923 -20.2923
   -20.2875 -20.2875 -20.2872 -20.2871 -20.2868 -20.2868 -20.2851 -20.2851
   -20.2842 -20.2842 -20.2824 -20.2824 -20.2823 -20.2823 -20.2810 -20.2810
    -9.7883  -9.7882  -9.3915  -9.3915  -9.3325  -9.3325  -9.0792  -9.0792
    -8.3944  -8.3944  -8.3555  -8.3554  -8.3412  -8.3412  -8.3381  -8.3380
    -7.9417  -7.9417  -7.8193  -7.8193  -7.7849  -7.7849  -7.6745  -7.6745
     1.1862   1.1862   1.2413   1.2413   1.4370   1.4370   1.6824   1.6824
     2.4224   2.4224   3.1306   3.1306   3.1977   3.1977   3.2650   3.2650
     3.3058   3.3058   3.3704   3.3704   3.5988   3.5988   3.6385   3.6385
     3.7939   3.7939   4.3325   4.3325   4.7496   4.7496   5.0270   5.0270
     5.2010   5.2010   5.2831   5.2831   5.4459   5.4459   5.4990   5.4990
     5.7392   5.7392   5.7591   5.7591   6.0379   6.0379   6.0959   6.0959
     6.3252   6.3252   6.3856   6.3856   6.6446   6.6446   6.8617   6.8617
     6.9528   6.9528   7.0394   7.0394   7.1126   7.1126   7.4868   7.4868
     7.5079   7.5079   7.5374   7.5374   7.5510   7.5510   7.8256   7.8256
     9.6932   9.6932  11.2386  11.2386  11.2929  11.2929  11.3143  11.3143
    11.3981  11.3981  12.3129  12.3129  12.4906  12.4906  12.9683  12.9683
    13.3448  13.3448  13.4140  13.4140  13.5130  13.5131  13.6335  13.6335
    15.4040  15.4040  15.6613  15.6613  15.7238  15.7238  15.9840  15.9840
    16.4813  16.4813  17.8560  17.8568  17.9348

          k = 0.0000-0.4725 0.3333 ( 62268 PWs)   bands (ev):

   -66.1662 -66.1662 -66.1657 -66.1657 -66.1652 -66.1652 -66.1647 -66.1647
   -30.5371 -30.5371 -30.5344 -30.5344 -30.5253 -30.5253 -30.5204 -30.5204
   -30.4891 -30.4891 -30.4879 -30.4879 -30.4806 -30.4806 -30.4779 -30.4779
   -30.4627 -30.4627 -30.4597 -30.4597 -30.4300 -30.4300 -30.4275 -30.4274
   -20.3261 -20.3261 -20.3259 -20.3259 -20.3259 -20.3259 -20.3258 -20.3258
   -20.3045 -20.3045 -20.3041 -20.3041 -20.3041 -20.3041 -20.3037 -20.3037
   -20.3018 -20.3018 -20.3016 -20.3016 -20.3009 -20.3009 -20.3007 -20.3007
   -20.2996 -20.2996 -20.2994 -20.2994 -20.2993 -20.2993 -20.2991 -20.2991
   -20.2941 -20.2941 -20.2939 -20.2939 -20.2917 -20.2917 -20.2909 -20.2909
   -20.2884 -20.2884 -20.2876 -20.2876 -20.2870 -20.2870 -20.2861 -20.2861
   -20.2838 -20.2838 -20.2828 -20.2828 -20.2821 -20.2821 -20.2813 -20.2813
    -9.6543  -9.6543  -9.4380  -9.4380  -9.0791  -9.0791  -8.9407  -8.9407
    -8.4499  -8.4499  -8.4101  -8.4101  -8.3417  -8.3416  -8.3246  -8.3246
    -8.2142  -8.2142  -8.1169  -8.1169  -7.7622  -7.7622  -7.6976  -7.6976
     1.2522   1.2522   1.2617   1.2617   2.1440   2.1440   2.3214   2.3214
     2.6845   2.6845   3.1543   3.1543   3.2033   3.2033   3.2808   3.2808
     3.3304   3.3304   3.4290   3.4290   3.5697   3.5697   3.7356   3.7356
     3.7459   3.7459   3.8381   3.8381   4.4784   4.4784   4.6225   4.6225
     4.7866   4.7867   4.8492   4.8492   5.1329   5.1329   5.3034   5.3034
     5.4857   5.4857   5.6745   5.6745   6.1333   6.1333   6.1810   6.1810
     6.4715   6.4715   6.5443   6.5443   6.6328   6.6328   6.7609   6.7609
     6.9856   6.9856   7.1777   7.1777   7.1840   7.1840   7.4588   7.4588
     7.4914   7.4915   7.5252   7.5252   7.5386   7.5386   7.7551   7.7551
    10.4177  10.4177  11.2474  11.2474  11.3003  11.3003  11.6777  11.6777
    11.7472  11.7472  11.9178  11.9178  12.6438  12.6438  12.7742  12.7742
    12.8777  12.8777  13.1579  13.1579  13.5104  13.5104  13.5847  13.5847
    15.4464  15.4464  15.6189  15.6189  16.3188  16.3188  16.6780  16.6780
    16.7268  16.7268  17.3426  17.3426  17.7840

          k = 0.0000-0.4725-0.5000 ( 62284 PWs)   bands (ev):

   -66.1660 -66.1660 -66.1660 -66.1660 -66.1650 -66.1650 -66.1650 -66.1650
   -30.5357 -30.5357 -30.5357 -30.5357 -30.5038 -30.5038 -30.5038 -30.5037
   -30.5000 -30.5000 -30.4999 -30.4999 -30.4756 -30.4756 -30.4756 -30.4756
   -30.4726 -30.4726 -30.4726 -30.4726 -30.4288 -30.4288 -30.4287 -30.4287
   -20.3260 -20.3260 -20.3260 -20.3260 -20.3259 -20.3259 -20.3258 -20.3258
   -20.3043 -20.3043 -20.3043 -20.3043 -20.3039 -20.3039 -20.3039 -20.3039
   -20.3017 -20.3017 -20.3017 -20.3017 -20.3009 -20.3008 -20.3008 -20.3008
   -20.2995 -20.2995 -20.2995 -20.2995 -20.2992 -20.2992 -20.2992 -20.2992
   -20.2940 -20.2940 -20.2940 -20.2940 -20.2900 -20.2900 -20.2900 -20.2900
   -20.2891 -20.2891 -20.2891 -20.2891 -20.2867 -20.2867 -20.2867 -20.2867
   -20.2834 -20.2834 -20.2834 -20.2834 -20.2817 -20.2817 -20.2817 -20.2817
    -9.5236  -9.5236  -9.5236  -9.5236  -8.7226  -8.7226  -8.7226  -8.7226
    -8.6758  -8.6758  -8.6757  -8.6757  -8.3252  -8.3251  -8.3251  -8.3251
    -8.2832  -8.2832  -8.2831  -8.2831  -7.7297  -7.7297  -7.7297  -7.7297
     1.2645   1.2645   1.2645   1.2645   2.9513   2.9513   2.9513   2.9513
     3.0818   3.0818   3.0818   3.0818   3.1950   3.1950   3.1950   3.1950
     3.2902   3.2902   3.2902   3.2902   3.4670   3.4670   3.4670   3.4670
     3.6483   3.6483   3.6483   3.6483   4.3313   4.3313   4.3313   4.3313
     4.4461   4.4461   4.4461   4.4461   5.2028   5.2028   5.2028   5.2028
     5.5580   5.5580   5.5580   5.5580   6.2322   6.2322   6.2322   6.2322
     6.4537   6.4537   6.4537   6.4537   6.5857   6.5857   6.5857   6.5857
     7.2962   7.2962   7.2962   7.2962   7.3881   7.3881   7.3881   7.3881
     7.4661   7.4661   7.4661   7.4661   7.5917   7.5917   7.5917   7.5917
    11.1506  11.1506  11.1506  11.1506  11.3474  11.3474  11.3474  11.3474
    12.2374  12.2374  12.2374  12.2374  12.2756  12.2756  12.2756  12.2756
    12.9068  12.9068  12.9069  12.9069  13.5254  13.5254  13.5254  13.5255
    15.5384  15.5384  15.5384  15.5384  16.8666  16.8666  16.8666  16.8666
    17.3434  17.3434  17.3434  17.3435  17.4348

          k = 0.1667 0.0000 0.1667 ( 62234 PWs)   bands (ev):

   -66.1666 -66.1662 -66.1657 -66.1657 -66.1653 -66.1653 -66.1648 -66.1644
   -30.5431 -30.5431 -30.5385 -30.5384 -30.5352 -30.5322 -30.5290 -30.5251
   -30.5112 -30.5086 -30.5065 -30.5034 -30.4638 -30.4627 -30.4596 -30.4520
   -30.4479 -30.4467 -30.4458 -30.4398 -30.4389 -30.4344 -30.4314 -30.4260
   -20.3262 -20.3262 -20.3260 -20.3260 -20.3259 -20.3258 -20.3257 -20.3257
   -20.3052 -20.3048 -20.3046 -20.3043 -20.3042 -20.3040 -20.3035 -20.3032
   -20.3021 -20.3021 -20.3019 -20.3017 -20.3016 -20.3014 -20.3013 -20.3013
   -20.3010 -20.3009 -20.3005 -20.3003 -20.2972 -20.2969 -20.2968 -20.2964
   -20.2939 -20.2937 -20.2933 -20.2931 -20.2930 -20.2928 -20.2925 -20.2923
   -20.2881 -20.2878 -20.2875 -20.2873 -20.2868 -20.2867 -20.2854 -20.2852
   -20.2841 -20.2840 -20.2826 -20.2825 -20.2824 -20.2821 -20.2813 -20.2810
    -9.8837  -9.6395  -9.4894  -9.4609  -9.2821  -9.2323  -9.0477  -9.0319
    -8.9645  -8.7886  -8.7855  -8.7770  -7.9557  -7.9476  -7.9136  -7.9045
    -7.8524  -7.8486  -7.8122  -7.7837  -7.7419  -7.6972  -7.6956  -7.6551
     1.3372   1.3426   1.4173   1.4406   1.4619   1.4941   1.5207   1.7237
     1.7446   1.7670   1.8035   2.0096   2.4734   2.5573   2.6978   2.7062
     2.8162   2.8427   4.0685   4.0927   4.2633   4.2671   4.4050   4.4125
     4.4161   4.4403   4.6672   4.7130   4.7517   4.8680   5.0728   5.2390
     5.2474   5.3016   5.3404   5.5124   5.5692   5.5900   5.6034   5.6893
     5.6953   5.7748   5.7836   5.8629   5.9373   6.0658   6.2128   6.2814
     6.3608   6.4338   6.5109   6.6380   6.6533   6.7443   6.7690   6.7929
     6.8072   6.8144   6.8350   6.8454   6.8879   6.9430   6.9565   7.0547
     7.1765   7.2327   7.8086   7.8100   8.0285   8.0785   8.0877   8.1262
     9.8882   9.9402  10.1873  10.2178  10.2339  10.3228  12.2361  12.2828
    12.3463  12.3570  12.3799  12.4087  12.5493  12.5828  12.7924  12.9445
    13.0431  13.1498  13.2613  13.3599  13.7554  13.8133  13.9573  13.9928
    14.2322  14.4559  14.5443  15.1447  15.3142  15.5727  15.5856  16.3848
    16.3910  16.9785  16.9907  17.1798  17.6205

          k = 0.1667 0.0000 0.3333 ( 62265 PWs)   bands (ev):

   -66.1664 -66.1660 -66.1659 -66.1655 -66.1655 -66.1651 -66.1650 -66.1646
   -30.5362 -30.5331 -30.5287 -30.5271 -30.5265 -30.5248 -30.5242 -30.5206
   -30.5130 -30.5086 -30.5028 -30.4986 -30.4777 -30.4743 -30.4654 -30.4623
   -30.4585 -30.4536 -30.4507 -30.4450 -30.4384 -30.4361 -30.4305 -30.4277
   -20.3261 -20.3261 -20.3259 -20.3259 -20.3259 -20.3259 -20.3258 -20.3258
   -20.3051 -20.3047 -20.3047 -20.3043 -20.3041 -20.3038 -20.3037 -20.3034
   -20.3021 -20.3020 -20.3019 -20.3018 -20.3018 -20.3016 -20.3012 -20.3012
   -20.3010 -20.3010 -20.3004 -20.3003 -20.2972 -20.2970 -20.2969 -20.2966
   -20.2939 -20.2937 -20.2932 -20.2931 -20.2917 -20.2916 -20.2910 -20.2908
   -20.2886 -20.2884 -20.2877 -20.2877 -20.2876 -20.2871 -20.2863 -20.2863
   -20.2838 -20.2837 -20.2829 -20.2826 -20.2823 -20.2822 -20.2816 -20.2814
    -9.7497  -9.5138  -9.4908  -9.2945  -9.2744  -9.0211  -9.0029  -8.9311
    -8.9033  -8.7906  -8.7549  -8.7158  -8.2607  -8.2545  -8.1955  -8.1680
    -7.9071  -7.8804  -7.8453  -7.8173  -7.7348  -7.7078  -7.6892  -7.6645
     1.4589   1.4633   1.5132   1.5177   1.6666   1.6816   1.7077   1.7577
     2.1586   2.2103   2.3285   2.4261   2.7241   2.7451   2.8118   2.8423
     2.9429   3.0612   3.7063   3.8168   3.9014   3.9126   4.1883   4.2322
     4.2491   4.4611   4.4792   4.5812   4.5927   4.6966   4.6973   4.8254
     4.9676   5.0246   5.0324   5.1588   5.2374   5.3469   5.6160   5.6277
     5.7111   5.7935   5.8513   5.9200   5.9318   5.9950   6.0795   6.1049
     6.3969   6.4787   6.5089   6.5640   6.6188   6.6895   6.7097   6.7800
     6.7909   6.8633   6.8669   6.8766   7.0295   7.0692   7.1289   7.1643
     7.2915   7.3524   7.7379   7.7477   7.9397   7.9862   8.0702   8.0812
    10.1810  10.1822  10.5329  10.6077  10.8581  10.9555  11.9250  11.9798
    12.1747  12.4105  12.4719  12.5054  12.5372  12.5776  12.7487  12.7962
    12.8012  13.0739  13.1249  13.2628  13.5987  13.6241  13.8063  13.8385
    14.3559  14.5190  14.7452  15.2156  15.4560  15.8449  16.0372  16.2994
    16.4369  17.2528  17.4671  17.5614  17.6446

          k = 0.1667 0.0000-0.5000 ( 62322 PWs)   bands (ev):

   -66.1661 -66.1661 -66.1657 -66.1657 -66.1652 -66.1652 -66.1648 -66.1648
   -30.5344 -30.5344 -30.5273 -30.5273 -30.5169 -30.5169 -30.5136 -30.5136
   -30.5008 -30.5008 -30.4967 -30.4967 -30.4872 -30.4872 -30.4839 -30.4839
   -30.4568 -30.4568 -30.4485 -30.4485 -30.4374 -30.4373 -30.4293 -30.4293
   -20.3260 -20.3260 -20.3260 -20.3260 -20.3259 -20.3259 -20.3259 -20.3258
   -20.3049 -20.3049 -20.3045 -20.3045 -20.3039 -20.3039 -20.3036 -20.3036
   -20.3020 -20.3020 -20.3019 -20.3019 -20.3018 -20.3018 -20.3011 -20.3011
   -20.3011 -20.3011 -20.3004 -20.3004 -20.2971 -20.2971 -20.2968 -20.2968
   -20.2938 -20.2938 -20.2931 -20.2931 -20.2899 -20.2899 -20.2899 -20.2899
   -20.2892 -20.2892 -20.2891 -20.2891 -20.2873 -20.2873 -20.2869 -20.2869
   -20.2834 -20.2834 -20.2832 -20.2832 -20.2820 -20.2820 -20.2818 -20.2818
    -9.6105  -9.6105  -9.3551  -9.3550  -9.0999  -9.0999  -8.8223  -8.8223
    -8.6462  -8.6461  -8.6292  -8.6292  -8.5776  -8.5776  -8.5099  -8.5099
    -7.8772  -7.8772  -7.8480  -7.8480  -7.7218  -7.7218  -7.6770  -7.6770
     1.4635   1.4635   1.5281   1.5281   1.6917   1.6917   1.7422   1.7422
     2.7441   2.7441   2.9580   2.9580   3.0341   3.0342   3.1291   3.1291
     3.1891   3.1891   3.3139   3.3139   3.4606   3.4606   3.7572   3.7573
     3.8654   3.8654   4.3892   4.3892   4.5644   4.5645   4.8341   4.8341
     4.9401   4.9401   4.9949   4.9949   5.1801   5.1801   5.6924   5.6924
     5.7305   5.7305   5.8026   5.8026   5.9112   5.9112   6.0677   6.0677
     6.3592   6.3592   6.5273   6.5273   6.6383   6.6383   6.7913   6.7913
     6.8017   6.8017   6.9100   6.9100   6.9666   6.9666   7.5007   7.5007
     7.5269   7.5269   7.6826   7.6826   7.7273   7.7273   8.0799   8.0799
    10.1943  10.1943  11.2588  11.2588  11.3371  11.3371  11.5932  11.5933
    11.7497  11.7497  12.5910  12.5911  12.6153  12.6153  12.7751  12.7751
    12.9171  12.9171  13.1882  13.1882  13.2959  13.2959  13.8170  13.8170
    14.4648  14.4648  15.0296  15.0296  15.8929  15.8929  16.1177  16.1178
    16.8372  16.8372  17.8785  17.8785  17.9853

          k = 0.1667 0.1575 0.1667 ( 62255 PWs)   bands (ev):

   -66.1665 -66.1662 -66.1657 -66.1656 -66.1653 -66.1653 -66.1648 -66.1644
   -30.5430 -30.5427 -30.5383 -30.5381 -30.5348 -30.5314 -30.5292 -30.5253
   -30.5076 -30.5054 -30.5036 -30.5005 -30.4658 -30.4650 -30.4625 -30.4557
   -30.4480 -30.4470 -30.4459 -30.4414 -30.4388 -30.4341 -30.4324 -30.4272
   -20.3262 -20.3262 -20.3260 -20.3260 -20.3259 -20.3258 -20.3257 -20.3257
   -20.3051 -20.3047 -20.3045 -20.3043 -20.3041 -20.3040 -20.3036 -20.3033
   -20.3020 -20.3019 -20.3016 -20.3016 -20.3015 -20.3012 -20.3012 -20.3012
   -20.3009 -20.3009 -20.3005 -20.3003 -20.2975 -20.2972 -20.2971 -20.2968
   -20.2939 -20.2937 -20.2933 -20.2931 -20.2931 -20.2929 -20.2925 -20.2923
   -20.2880 -20.2878 -20.2876 -20.2873 -20.2868 -20.2867 -20.2853 -20.2852
   -20.2841 -20.2840 -20.2826 -20.2825 -20.2825 -20.2821 -20.2813 -20.2810
    -9.8592  -9.6498  -9.4629  -9.4318  -9.2886  -9.2394  -9.0466  -9.0328
    -8.8929  -8.7418  -8.7368  -8.7328  -7.9646  -7.9462  -7.9177  -7.9114
    -7.8708  -7.8552  -7.8238  -7.8204  -7.7965  -7.7758  -7.7726  -7.7437
     1.3376   1.3421   1.4310   1.4410   1.4828   1.5004   1.6425   1.8002
     1.9151   1.9601   1.9781   2.1484   2.4798   2.5522   2.7726   2.7782
     2.8886   2.9083   3.9602   3.9948   4.0896   4.1240   4.3577   4.3888
     4.4045   4.4205   4.6353   4.7291   4.7605   4.8565   4.9452   5.1689
     5.2136   5.2605   5.3005   5.3306   5.3730   5.5531   5.5588   5.6406
     5.6992   5.7564   5.8565   5.8803   5.8938   5.9754   6.1910   6.2768
     6.3498   6.3623   6.4964   6.6053   6.6720   6.7088   6.7657   6.7799
     6.8118   6.8385   6.8690   6.8896   6.9417   6.9603   6.9833   7.0651
     7.1839   7.2327   7.8082   7.8105   7.9862   8.0217   8.0364   8.0518
     9.9101   9.9478  10.3384  10.3701  10.3929  10.4602  12.1426  12.2261
    12.3235  12.3262  12.3570  12.3671  12.4401  12.4546  12.8258  12.9542
    13.0531  13.1501  13.2639  13.3593  13.7664  13.7863  13.8632  13.9132
    14.4657  14.7624  14.7947  15.2536  15.5737  15.5832  15.7187  16.3472
    16.3598  16.8624  17.0762  17.0926  17.6274

          k = 0.1667 0.1575 0.3333 ( 62260 PWs)   bands (ev):

   -66.1663 -66.1660 -66.1658 -66.1655 -66.1655 -66.1651 -66.1650 -66.1646
   -30.5351 -30.5322 -30.5289 -30.5266 -30.5264 -30.5248 -30.5235 -30.5205
   -30.5095 -30.5059 -30.5005 -30.4963 -30.4784 -30.4752 -30.4653 -30.4622
   -30.4613 -30.4555 -30.4542 -30.4479 -30.4382 -30.4358 -30.4316 -30.4289
   -20.3261 -20.3261 -20.3259 -20.3259 -20.3259 -20.3259 -20.3258 -20.3258
   -20.3050 -20.3046 -20.3046 -20.3042 -20.3042 -20.3039 -20.3037 -20.3034
   -20.3019 -20.3019 -20.3017 -20.3016 -20.3016 -20.3014 -20.3012 -20.3012
   -20.3010 -20.3009 -20.3004 -20.3003 -20.2976 -20.2973 -20.2972 -20.2970
   -20.2939 -20.2937 -20.2932 -20.2931 -20.2917 -20.2916 -20.2910 -20.2909
   -20.2885 -20.2884 -20.2877 -20.2877 -20.2876 -20.2872 -20.2863 -20.2863
   -20.2838 -20.2837 -20.2829 -20.2826 -20.2823 -20.2822 -20.2816 -20.2814
    -9.7226  -9.5011  -9.4845  -9.2821  -9.2562  -9.0277  -8.9346  -8.9273
    -8.9028  -8.7479  -8.7111  -8.6810  -8.2652  -8.2517  -8.2043  -8.1650
    -7.9115  -7.8893  -7.8542  -7.8355  -7.8099  -7.7885  -7.7813  -7.7554
     1.4869   1.4962   1.5126   1.5174   1.8465   1.8633   1.9321   1.9688
     2.1580   2.2328   2.3287   2.4532   2.7545   2.7903   2.8402   2.8818
     3.0172   3.1247   3.7048   3.8085   3.8562   3.9088   4.0866   4.1398
     4.2550   4.3792   4.4487   4.5410   4.5931   4.6309   4.6909   4.7955
     4.8611   4.8971   4.9368   5.1314   5.1606   5.1931   5.3778   5.5971
     5.6592   5.6919   5.7794   5.8567   5.9153   5.9299   6.0257   6.0653
     6.3402   6.5015   6.5452   6.6593   6.7040   6.7231   6.7349   6.7559
     6.8277   6.8652   6.9214   6.9720   7.0233   7.0815   7.1276   7.1761
     7.2869   7.3476   7.7396   7.7454   7.8962   7.9286   8.0167   8.0248
    10.3270  10.3466  10.5546  10.6220  10.9628  11.0385  11.9241  11.9759
    12.1502  12.3642  12.4253  12.4606  12.5066  12.5304  12.6731  12.6974
    12.8282  13.0477  13.1141  13.2668  13.4960  13.5382  13.7855  13.8043
    14.6279  14.7703  15.1001  15.5174  15.6452  15.8373  16.0517  16.2680
    16.5319  17.2142  17.2787  17.5257  17.6116

          k = 0.1667 0.1575-0.5000 ( 62292 PWs)   bands (ev):

   -66.1661 -66.1661 -66.1658 -66.1657 -66.1652 -66.1652 -66.1649 -66.1649
   -30.5335 -30.5334 -30.5276 -30.5276 -30.5141 -30.5141 -30.5116 -30.5116
   -30.5009 -30.5009 -30.4968 -30.4968 -30.4864 -30.4864 -30.4832 -30.4832
   -30.4594 -30.4594 -30.4520 -30.4520 -30.4371 -30.4371 -30.4304 -30.4304
   -20.3260 -20.3260 -20.3260 -20.3260 -20.3259 -20.3259 -20.3259 -20.3258
   -20.3048 -20.3048 -20.3044 -20.3044 -20.3040 -20.3040 -20.3037 -20.3036
   -20.3018 -20.3018 -20.3018 -20.3018 -20.3015 -20.3015 -20.3011 -20.3011
   -20.3011 -20.3011 -20.3004 -20.3004 -20.2975 -20.2975 -20.2971 -20.2971
   -20.2938 -20.2938 -20.2932 -20.2932 -20.2899 -20.2899 -20.2899 -20.2899
   -20.2892 -20.2892 -20.2891 -20.2891 -20.2873 -20.2872 -20.2869 -20.2869
   -20.2834 -20.2834 -20.2832 -20.2832 -20.2820 -20.2820 -20.2818 -20.2818
    -9.5814  -9.5814  -9.3641  -9.3641  -9.0400  -9.0400  -8.7902  -8.7902
    -8.6498  -8.6498  -8.6310  -8.6310  -8.5677  -8.5677  -8.4974  -8.4974
    -7.8863  -7.8863  -7.8551  -7.8550  -7.8039  -7.8039  -7.7691  -7.7691
     1.4993   1.4993   1.5274   1.5274   1.8871   1.8872   1.9612   1.9612
     2.8070   2.8070   2.9728   2.9728   3.0411   3.0411   3.1393   3.1393
     3.1923   3.1923   3.3334   3.3334   3.4532   3.4532   3.7741   3.7741
     3.9195   3.9195   4.2444   4.2444   4.5038   4.5038   4.7052   4.7052
     4.8743   4.8743   4.9535   4.9535   5.0469   5.0469   5.4923   5.4923
     5.7052   5.7052   5.7423   5.7423   5.8474   5.8474   5.9404   5.9404
     6.4676   6.4676   6.6258   6.6258   6.6766   6.6766   6.7730   6.7730
     6.8515   6.8515   6.9157   6.9157   7.0191   7.0191   7.5035   7.5035
     7.5228   7.5229   7.6571   7.6571   7.6954   7.6954   8.0233   8.0233
    10.3610  10.3610  11.2649  11.2649  11.3372  11.3372  11.6569  11.6569
    11.8045  11.8045  12.4576  12.4576  12.6063  12.6063  12.7455  12.7455
    12.8937  12.8937  13.0869  13.0869  13.2487  13.2487  13.7839  13.7839
    14.7270  14.7270  15.4078  15.4078  15.9906  15.9906  16.0964  16.0964
    16.8727  16.8727  17.7129  17.7129  17.9736

          k = 0.1667 0.3150 0.1667 ( 62249 PWs)   bands (ev):

   -66.1665 -66.1663 -66.1656 -66.1656 -66.1654 -66.1654 -66.1647 -66.1645
   -30.5426 -30.5421 -30.5380 -30.5376 -30.5335 -30.5307 -30.5288 -30.5260
   -30.4979 -30.4964 -30.4950 -30.4919 -30.4732 -30.4720 -30.4709 -30.4658
   -30.4480 -30.4475 -30.4460 -30.4443 -30.4381 -30.4348 -30.4331 -30.4295
   -20.3262 -20.3262 -20.3260 -20.3260 -20.3258 -20.3258 -20.3257 -20.3257
   -20.3049 -20.3045 -20.3045 -20.3042 -20.3041 -20.3039 -20.3037 -20.3034
   -20.3019 -20.3017 -20.3015 -20.3013 -20.3011 -20.3011 -20.3008 -20.3008
   -20.3006 -20.3003 -20.3003 -20.3000 -20.2984 -20.2981 -20.2980 -20.2978
   -20.2938 -20.2936 -20.2934 -20.2932 -20.2931 -20.2929 -20.2924 -20.2923
   -20.2879 -20.2877 -20.2876 -20.2874 -20.2868 -20.2868 -20.2853 -20.2852
   -20.2841 -20.2840 -20.2826 -20.2825 -20.2824 -20.2822 -20.2812 -20.2811
    -9.7995  -9.6811  -9.4037  -9.3662  -9.3093  -9.2620  -9.0435  -9.0356
    -8.6908  -8.5943  -8.5905  -8.5874  -8.1091  -8.0650  -8.0590  -8.0374
    -7.9419  -7.9248  -7.9074  -7.8976  -7.8416  -7.8221  -7.7972  -7.7860
     1.3382   1.3409   1.4397   1.4416   1.4966   1.5009   1.7606   1.7980
     2.4569   2.4964   2.5327   2.5641   2.5855   2.7178   2.9939   3.0107
     3.0986   3.1248   3.6276   3.6655   3.7240   3.7619   4.1413   4.3527
     4.3678   4.3793   4.4088   4.5291   4.5761   4.8037   4.8243   4.9184
     4.9639   4.9958   5.1383   5.1609   5.3394   5.3790   5.4507   5.4521
     5.6962   5.7002   5.7096   5.7288   5.8352   5.8378   6.2110   6.2512
     6.3801   6.4064   6.4677   6.6063   6.6956   6.7066   6.8069   6.8290
     6.8856   6.8958   6.9858   6.9999   7.0905   7.1091   7.1356   7.1566
     7.2470   7.2594   7.7824   7.8039   7.8239   7.8368   7.8533   7.8653
     9.9362   9.9516  10.7535  10.7829  10.8318  10.8636  11.8109  11.8920
    11.9639  11.9831  12.3539  12.3666  12.3815  12.3930  12.9099  12.9725
    13.1417  13.2121  13.2791  13.3691  13.5668  13.6310  13.6423  13.7263
    15.1603  15.3839  15.4319  15.5755  15.5899  15.6972  16.2191  16.2388
    16.3332  16.7020  17.2713  17.4055  17.4160

          k = 0.1667 0.3150 0.3333 ( 62265 PWs)   bands (ev):

   -66.1663 -66.1661 -66.1658 -66.1656 -66.1654 -66.1652 -66.1649 -66.1647
   -30.5329 -30.5304 -30.5294 -30.5271 -30.5256 -30.5248 -30.5218 -30.5205
   -30.5003 -30.4982 -30.4931 -30.4889 -30.4814 -30.4792 -30.4696 -30.4647
   -30.4643 -30.4617 -30.4595 -30.4545 -30.4374 -30.4350 -30.4339 -30.4312
   -20.3261 -20.3261 -20.3259 -20.3259 -20.3259 -20.3259 -20.3258 -20.3258
   -20.3047 -20.3044 -20.3043 -20.3043 -20.3040 -20.3040 -20.3039 -20.3036
   -20.3018 -20.3017 -20.3016 -20.3014 -20.3011 -20.3011 -20.3009 -20.3009
   -20.3006 -20.3004 -20.3003 -20.3001 -20.2984 -20.2982 -20.2981 -20.2979
   -20.2937 -20.2936 -20.2934 -20.2933 -20.2917 -20.2916 -20.2910 -20.2909
   -20.2885 -20.2884 -20.2877 -20.2877 -20.2875 -20.2873 -20.2863 -20.2863
   -20.2838 -20.2837 -20.2828 -20.2827 -20.2823 -20.2822 -20.2815 -20.2814
    -9.6571  -9.5325  -9.4174  -9.3067  -9.1708  -9.0499  -8.9206  -8.9092
    -8.7351  -8.6129  -8.5718  -8.5593  -8.2884  -8.2532  -8.2420  -8.1543
    -8.0678  -8.0529  -8.0298  -7.9932  -7.8894  -7.8745  -7.8267  -7.8137
     1.5039   1.5093   1.5139   1.5178   2.1186   2.1554   2.2335   2.3266
     2.4721   2.5608   2.5824   2.7024   2.7760   2.8441   3.0115   3.0863
     3.2446   3.3234   3.6357   3.6629   3.7094   3.7746   3.7982   3.8826
     4.1175   4.3196   4.3920   4.4140   4.4411   4.4932   4.5954   4.6302
     4.6484   4.8207   4.8722   4.8789   4.9547   5.0157   5.1200   5.1755
     5.3199   5.3741   5.4894   5.6740   5.7369   5.8391   6.0469   6.0633
     6.4747   6.5605   6.6094   6.7325   6.7837   6.7988   6.9050   6.9269
     6.9744   7.0185   7.0442   7.0665   7.1188   7.1688   7.2121   7.2422
     7.2802   7.3407   7.7278   7.7384   7.7476   7.7600   7.8351   7.8528
    10.5279  10.5519  10.8160  10.8542  11.2581  11.3093  11.8458  11.9251
    11.9784  12.0623  12.1189  12.1997  12.5125  12.5807  12.6272  12.6788
    12.8737  13.0410  13.0573  13.2571  13.2942  13.3770  13.6058  13.6369
    15.3033  15.3828  15.8020  15.9152  15.9231  16.0907  16.1921  16.5889
    16.7929  16.8447  17.0792  17.4946  17.6862

          k = 0.1667 0.3150-0.5000 ( 62264 PWs)   bands (ev):

   -66.1660 -66.1660 -66.1658 -66.1658 -66.1651 -66.1651 -66.1649 -66.1649
   -30.5315 -30.5314 -30.5283 -30.5283 -30.5079 -30.5079 -30.5060 -30.5060
   -30.5015 -30.5015 -30.4976 -30.4976 -30.4835 -30.4834 -30.4800 -30.4799
   -30.4668 -30.4668 -30.4611 -30.4611 -30.4362 -30.4362 -30.4327 -30.4327
   -20.3260 -20.3260 -20.3260 -20.3260 -20.3259 -20.3259 -20.3259 -20.3258
   -20.3045 -20.3045 -20.3042 -20.3042 -20.3041 -20.3041 -20.3038 -20.3038
   -20.3017 -20.3017 -20.3016 -20.3015 -20.3010 -20.3010 -20.3010 -20.3010
   -20.3006 -20.3006 -20.3002 -20.3002 -20.2983 -20.2983 -20.2981 -20.2981
   -20.2937 -20.2937 -20.2933 -20.2933 -20.2899 -20.2899 -20.2899 -20.2899
   -20.2892 -20.2892 -20.2891 -20.2891 -20.2872 -20.2872 -20.2870 -20.2870
   -20.2834 -20.2833 -20.2832 -20.2832 -20.2819 -20.2819 -20.2819 -20.2818
    -9.5131  -9.5130  -9.3924  -9.3924  -8.8885  -8.8885  -8.7197  -8.7196
    -8.6640  -8.6640  -8.6391  -8.6391  -8.5060  -8.5060  -8.4441  -8.4441
    -8.0619  -8.0619  -8.0243  -8.0243  -7.8583  -7.8583  -7.8438  -7.8438
     1.5197   1.5197   1.5267   1.5267   2.4568   2.4568   2.5618   2.5619
     2.9513   2.9513   3.0178   3.0178   3.0697   3.0697   3.1668   3.1668
     3.2127   3.2127   3.3944   3.3945   3.4255   3.4255   3.7000   3.7000
     4.0612   4.0613   4.0830   4.0830   4.1144   4.1144   4.3584   4.3584
     4.7620   4.7621   4.8458   4.8458   5.0014   5.0014   5.0538   5.0538
     5.0981   5.0981   5.5627   5.5627   5.8171   5.8171   5.8739   5.8739
     6.6185   6.6185   6.7406   6.7406   6.7686   6.7686   6.8260   6.8260
     7.0474   7.0474   7.0939   7.0939   7.1842   7.1843   7.5088   7.5088
     7.5101   7.5101   7.5673   7.5673   7.6009   7.6009   7.8410   7.8411
    10.7936  10.7937  11.2763  11.2763  11.3411  11.3411  11.7843  11.7843
    11.9783  11.9783  12.1305  12.1305  12.5420  12.5420  12.5666  12.5666
    12.8261  12.8261  12.9065  12.9065  13.2439  13.2439  13.6005  13.6005
    15.3564  15.3565  15.9995  15.9995  16.2917  16.2917  16.3964  16.3964
    17.0050  17.0051  17.3545  17.3545  17.8814

          k = 0.1667-0.4725 0.1667 ( 62220 PWs)   bands (ev):

   -66.1664 -66.1664 -66.1655 -66.1655 -66.1655 -66.1655 -66.1646 -66.1646
   -30.5422 -30.5422 -30.5377 -30.5376 -30.5319 -30.5319 -30.5273 -30.5273
   -30.4851 -30.4851 -30.4838 -30.4837 -30.4829 -30.4828 -30.4792 -30.4792
   -30.4479 -30.4478 -30.4459 -30.4457 -30.4368 -30.4367 -30.4317 -30.4317
   -20.3262 -20.3262 -20.3260 -20.3260 -20.3258 -20.3258 -20.3257 -20.3257
   -20.3047 -20.3047 -20.3043 -20.3043 -20.3039 -20.3039 -20.3036 -20.3036
   -20.3018 -20.3018 -20.3014 -20.3014 -20.3010 -20.3010 -20.3007 -20.3007
   -20.2996 -20.2996 -20.2993 -20.2993 -20.2992 -20.2992 -20.2990 -20.2990
   -20.2936 -20.2936 -20.2934 -20.2934 -20.2930 -20.2930 -20.2924 -20.2924
   -20.2878 -20.2878 -20.2875 -20.2875 -20.2868 -20.2868 -20.2853 -20.2853
   -20.2841 -20.2841 -20.2825 -20.2825 -20.2823 -20.2823 -20.2811 -20.2811
    -9.7332  -9.7332  -9.3474  -9.3472  -9.3038  -9.3037  -9.0395  -9.0395
    -8.4028  -8.4023  -8.3536  -8.3530  -8.3473  -8.3471  -8.3384  -8.3373
    -7.9369  -7.9359  -7.9063  -7.9061  -7.8350  -7.8350  -7.7926  -7.7923
     1.3387   1.3401   1.4410   1.4423   1.4998   1.5006   1.7892   1.7903
     2.5137   2.5150   3.1353   3.1377   3.1908   3.2158   3.2542   3.2732
     3.3490   3.3577   3.3737   3.3991   3.6223   3.6280   3.6483   3.6536
     3.8090   3.8119   4.3596   4.3883   4.3995   4.4179   4.9737   4.9901
     5.0707   5.0735   5.1736   5.2110   5.2161   5.2458   5.4363   5.4396
     5.4928   5.4981   5.7052   5.7422   5.7484   5.7720   6.2435   6.2482
     6.4261   6.4416   6.5216   6.5240   6.6895   6.7070   6.8549   6.8573
     6.8628   6.8814   7.0363   7.0391   7.1675   7.1714   7.4845   7.4885
     7.4912   7.5010   7.5267   7.5403   7.5529   7.5569   7.8166   7.8188
     9.9476   9.9487  11.2820  11.3054  11.3214  11.3560  11.3937  11.4055
    11.4479  11.4494  12.3559  12.3695  12.3766  12.3914  12.9789  12.9806
    13.3163  13.3278  13.3374  13.3417  13.3820  13.3940  13.5682  13.5707
    15.5573  15.5607  15.7576  15.7745  15.9339  15.9567  15.9646  15.9737
    16.5381  16.5394  17.8125  17.8172  17.9004

          k = 0.1667-0.4725 0.3333 ( 62252 PWs)   bands (ev):

   -66.1662 -66.1662 -66.1657 -66.1657 -66.1653 -66.1653 -66.1648 -66.1648
   -30.5310 -30.5310 -30.5284 -30.5283 -30.5250 -30.5250 -30.5208 -30.5207
   -30.4890 -30.4890 -30.4879 -30.4879 -30.4815 -30.4814 -30.4771 -30.4771
   -30.4631 -30.4630 -30.4599 -30.4598 -30.4360 -30.4360 -30.4334 -30.4334
   -20.3261 -20.3261 -20.3259 -20.3259 -20.3259 -20.3259 -20.3258 -20.3258
   -20.3045 -20.3045 -20.3042 -20.3042 -20.3041 -20.3041 -20.3038 -20.3037
   -20.3017 -20.3017 -20.3015 -20.3015 -20.3010 -20.3010 -20.3008 -20.3008
   -20.2996 -20.2996 -20.2994 -20.2994 -20.2993 -20.2993 -20.2991 -20.2991
   -20.2936 -20.2936 -20.2934 -20.2934 -20.2917 -20.2917 -20.2909 -20.2909
   -20.2884 -20.2884 -20.2877 -20.2877 -20.2874 -20.2874 -20.2863 -20.2863
   -20.2838 -20.2838 -20.2828 -20.2828 -20.2823 -20.2823 -20.2815 -20.2815
    -9.5863  -9.5863  -9.3518  -9.3517  -9.0952  -9.0947  -8.9143  -8.9141
    -8.4653  -8.4643  -8.4044  -8.3997  -8.3440  -8.3404  -8.3297  -8.3279
    -8.2084  -8.2066  -8.1243  -8.1230  -7.8850  -7.8844  -7.8221  -7.8219
     1.5081   1.5088   1.5157   1.5180   2.1487   2.1503   2.3134   2.3136
     2.7831   2.7897   3.1583   3.1693   3.2098   3.2200   3.2721   3.2946
     3.3378   3.3420   3.4733   3.4759   3.6100   3.6156   3.7166   3.7261
     3.7965   3.8041   3.8713   3.8907   4.4391   4.4603   4.5556   4.5633
     4.6461   4.7157   4.7971   4.8161   4.9782   4.9861   5.0166   5.1140
     5.2129   5.2735   5.3264   5.4429   5.7492   5.7703   6.0495   6.0644
     6.5442   6.5536   6.6776   6.7000   6.8205   6.8278   6.9439   6.9703
     7.0256   7.0842   7.1673   7.1817   7.1994   7.2123   7.4572   7.4681
     7.4827   7.4853   7.5135   7.5308   7.5372   7.5491   7.7535   7.7575
    10.5574  10.5579  11.3560  11.3562  11.4162  11.4200  11.6851  11.6887
    11.7343  11.7583  11.9625  12.0037  12.5135  12.5707  12.7678  12.7962
    12.8672  12.9018  13.0573  13.1292  13.3383  13.3569  13.4488  13.4982
    15.6782  15.6885  15.8773  15.8808  16.3617  16.3792  16.6556  16.6858
    16.7536  16.7582  17.3808  17.3985  17.7267

          k = 0.1667-0.4725-0.5000 ( 62232 PWs)   bands (ev):

   -66.1659 -66.1659 -66.1659 -66.1659 -66.1650 -66.1650 -66.1650 -66.1650
   -30.5296 -30.5296 -30.5296 -30.5296 -30.5034 -30.5034 -30.5034 -30.5034
   -30.5002 -30.5002 -30.5002 -30.5001 -30.4765 -30.4765 -30.4765 -30.4765
   -30.4721 -30.4721 -30.4720 -30.4720 -30.4348 -30.4348 -30.4348 -30.4348
   -20.3260 -20.3260 -20.3260 -20.3260 -20.3259 -20.3259 -20.3259 -20.3258
   -20.3043 -20.3043 -20.3043 -20.3043 -20.3040 -20.3040 -20.3039 -20.3039
   -20.3016 -20.3016 -20.3016 -20.3016 -20.3009 -20.3009 -20.3009 -20.3009
   -20.2995 -20.2995 -20.2995 -20.2995 -20.2993 -20.2993 -20.2993 -20.2993
   -20.2935 -20.2935 -20.2935 -20.2935 -20.2899 -20.2899 -20.2899 -20.2899
   -20.2891 -20.2891 -20.2891 -20.2891 -20.2871 -20.2871 -20.2871 -20.2871
   -20.2833 -20.2833 -20.2833 -20.2833 -20.2819 -20.2819 -20.2819 -20.2819
    -9.4428  -9.4428  -9.4428  -9.4428  -8.7461  -8.7461  -8.7435  -8.7435
    -8.6576  -8.6576  -8.6540  -8.6540  -8.3246  -8.3246  -8.3200  -8.3200
    -8.2898  -8.2897  -8.2856  -8.2856  -7.8535  -7.8535  -7.8531  -7.8531
     1.5244   1.5244   1.5256   1.5256   2.9535   2.9535   2.9588   2.9588
     3.0724   3.0724   3.1105   3.1105   3.2055   3.2055   3.2429   3.2429
     3.3245   3.3245   3.3322   3.3322   3.4998   3.4998   3.5072   3.5072
     3.6723   3.6723   3.6933   3.6933   4.3293   4.3293   4.3324   4.3324
     4.4306   4.4306   4.4426   4.4426   4.8435   4.8435   4.9790   4.9790
     5.2035   5.2036   5.3446   5.3446   5.8192   5.8192   5.8415   5.8415
     6.6941   6.6941   6.7139   6.7139   6.8159   6.8159   6.8370   6.8370
     7.2810   7.2810   7.3359   7.3359   7.3773   7.3773   7.3954   7.3954
     7.4667   7.4667   7.4890   7.4890   7.5788   7.5788   7.6132   7.6132
    11.2154  11.2154  11.2511  11.2511  11.4315  11.4315  11.4945  11.4945
    12.2347  12.2347  12.2459  12.2459  12.2664  12.2664  12.2903  12.2903
    12.7949  12.7949  12.8657  12.8658  13.3546  13.3546  13.4038  13.4038
    15.7933  15.7933  15.8050  15.8050  16.9204  16.9204  16.9205  16.9206
    17.3414  17.3418  17.3645  17.3656  17.4305

          k = 0.3333 0.0000 0.3333 ( 62316 PWs)   bands (ev):

   -66.1662 -66.1658 -66.1657 -66.1657 -66.1653 -66.1653 -66.1652 -66.1648
   -30.5301 -30.5269 -30.5243 -30.5233 -30.5214 -30.5175 -30.5145 -30.5111
   -30.5095 -30.5043 -30.4999 -30.4930 -30.4770 -30.4752 -30.4683 -30.4666
   -30.4646 -30.4627 -30.4550 -30.4516 -30.4491 -30.4436 -30.4401 -30.4362
   -20.3261 -20.3261 -20.3260 -20.3260 -20.3259 -20.3259 -20.3258 -20.3258
   -20.3050 -20.3048 -20.3047 -20.3044 -20.3041 -20.3039 -20.3037 -20.3035
   -20.3020 -20.3019 -20.3018 -20.3017 -20.3016 -20.3016 -20.3014 -20.3012
   -20.3011 -20.3009 -20.3006 -20.3005 -20.2972 -20.2970 -20.2969 -20.2967
   -20.2926 -20.2924 -20.2920 -20.2918 -20.2915 -20.2914 -20.2911 -20.2909
   -20.2893 -20.2889 -20.2886 -20.2883 -20.2877 -20.2876 -20.2870 -20.2868
   -20.2836 -20.2834 -20.2828 -20.2827 -20.2826 -20.2824 -20.2820 -20.2817
    -9.6043  -9.3492  -9.3326  -9.3160  -9.0647  -9.0462  -9.0217  -8.8257
    -8.8055  -8.7316  -8.7249  -8.7100  -8.3003  -8.2414  -8.2309  -8.2187
    -8.1994  -8.1986  -8.1108  -8.0888  -7.7294  -7.7032  -7.7004  -7.6752
     1.6148   1.6490   1.6522   1.6920   2.0624   2.0630   2.1694   2.2057
     2.2305   2.2626   2.4431   2.5488   2.9458   2.9531   2.9945   3.0016
     3.1460   3.1489   3.7379   3.8096   3.8365   3.9315   4.0127   4.0230
     4.1575   4.1622   4.2217   4.3306   4.3591   4.3631   4.4764   4.5205
     4.7444   4.7939   4.8930   4.9561   4.9747   4.9875   5.1339   5.3945
     5.3978   5.4190   5.4627   5.6947   5.9924   5.9956   6.0108   6.1112
     6.5051   6.5209   6.5353   6.5563   6.5681   6.6015   6.6076   6.6274
     6.9910   7.1140   7.1294   7.1533   7.1642   7.2090   7.3000   7.3240
     7.3338   7.4662   7.6859   7.6892   7.9026   7.9603   7.9888   8.0130
    10.7131  10.8076  10.8177  10.8860  11.0228  11.1922  12.0715  12.0982
    12.1261  12.1672  12.1957  12.2846  12.4750  12.5137  12.7643  12.7954
    12.8091  12.8440  12.9265  13.0594  13.4934  13.5555  13.5902  13.6798
    14.4507  14.6965  14.7010  15.1214  15.8675  16.3831  16.4130  16.8105
    16.8164  17.2174  17.2323  17.7816  17.8277

          k = 0.3333 0.0000-0.5000 ( 62288 PWs)   bands (ev):

   -66.1659 -66.1659 -66.1655 -66.1655 -66.1654 -66.1654 -66.1650 -66.1650
   -30.5250 -30.5250 -30.5181 -30.5181 -30.5106 -30.5106 -30.5053 -30.5052
   -30.4999 -30.4999 -30.4975 -30.4974 -30.4877 -30.4877 -30.4827 -30.4827
   -30.4670 -30.4670 -30.4541 -30.4540 -30.4470 -30.4470 -30.4385 -30.4385
   -20.3260 -20.3260 -20.3260 -20.3260 -20.3259 -20.3259 -20.3259 -20.3259
   -20.3048 -20.3048 -20.3046 -20.3046 -20.3039 -20.3039 -20.3037 -20.3037
   -20.3019 -20.3019 -20.3018 -20.3018 -20.3017 -20.3017 -20.3013 -20.3013
   -20.3010 -20.3010 -20.3005 -20.3005 -20.2971 -20.2971 -20.2969 -20.2969
   -20.2925 -20.2925 -20.2919 -20.2918 -20.2900 -20.2900 -20.2898 -20.2898
   -20.2893 -20.2893 -20.2892 -20.2892 -20.2882 -20.2882 -20.2879 -20.2879
   -20.2832 -20.2832 -20.2830 -20.2829 -20.2824 -20.2824 -20.2822 -20.2822
    -9.4404  -9.4404  -9.1522  -9.1522  -9.1228  -9.1228  -8.7349  -8.7349
    -8.6904  -8.6904  -8.6041  -8.6040  -8.5543  -8.5543  -8.5158  -8.5158
    -8.1723  -8.1722  -8.1636  -8.1636  -7.7165  -7.7165  -7.6880  -7.6880
     1.6343   1.6343   1.6744   1.6744   2.2241   2.2241   2.2574   2.2574
     2.9123   2.9123   3.0017   3.0017   3.0378   3.0378   3.1525   3.1525
     3.2335   3.2335   3.5086   3.5086   3.6614   3.6614   3.8161   3.8161
     3.8386   3.8386   4.0530   4.0530   4.1794   4.1794   4.3137   4.3137
     4.6332   4.6332   4.8715   4.8716   4.9520   4.9520   5.0631   5.0631
     5.2192   5.2192   5.5528   5.5528   6.0254   6.0254   6.0942   6.0942
     6.4503   6.4503   6.4938   6.4938   6.5718   6.5719   6.5879   6.5879
     7.1423   7.1423   7.2185   7.2185   7.3030   7.3030   7.5283   7.5283
     7.5309   7.5309   7.6857   7.6857   7.7410   7.7410   7.9695   7.9695
    10.8100  10.8100  11.4779  11.4779  11.5777  11.5777  11.6412  11.6412
[...]
   -20.3457 -20.3457 -20.3455 -20.3455 -20.3435 -20.3435 -20.3432 -20.3432
   -20.3373 -20.3373 -20.3371 -20.3371 -20.3348 -20.3348 -20.3347 -20.3347
   -20.3344 -20.3344 -20.3343 -20.3343 -20.3314 -20.3314 -20.3313 -20.3313
   -20.3282 -20.3282 -20.3281 -20.3281 -20.3267 -20.3267 -20.3264 -20.3264
    -9.5158  -9.5158  -9.3641  -9.3641  -8.9862  -8.9862  -8.7640  -8.7640
    -8.6257  -8.6257  -8.5899  -8.5899  -8.5226  -8.5226  -8.4592  -8.4592
    -8.1683  -8.1683  -8.1385  -8.1385  -7.8687  -7.8687  -7.8545  -7.8545
     1.5326   1.5326   1.5421   1.5421   2.3143   2.3143   2.4248   2.4248
     2.9620   2.9620   3.0238   3.0238   3.0518   3.0518   3.2039   3.2039
     3.2430   3.2430   3.4349   3.4349   3.4744   3.4744   3.6725   3.6725
     3.9541   3.9541   4.0139   4.0139   4.1627   4.1627   4.3464   4.3464
     4.6848   4.6848   4.7733   4.7733   4.9562   4.9562   4.9797   4.9798
     5.0865   5.0865   5.4759   5.4759   5.7993   5.7993   5.8376   5.8376
     6.6135   6.6136   6.7427   6.7427   6.7815   6.7815   6.8089   6.8089
     6.9845   6.9845   7.0515   7.0515   7.1292   7.1292   7.4657   7.4657
     7.4866   7.4866   7.5652   7.5652   7.5927   7.5927   7.8113   7.8114
    10.7557  10.7557  11.2179  11.2179  11.2705  11.2705  11.6595  11.6595
    11.9282  11.9282  12.1364  12.1364  12.5136  12.5136  12.5894  12.5894
    12.7540  12.7540  12.8798  12.8798  13.1525  13.1525  13.5839  13.5839
    15.3339  15.3339  15.8408  15.8408  16.3431  16.3431  16.4589  16.4589
    16.8086  16.8086  17.3031  17.3031  17.8337

          k = 0.3320 0.4763 0.1657 ( 62400 PWs)   bands (ev):

   -66.2089 -66.2089 -66.2084 -66.2084 -66.2081 -66.2081 -66.2076 -66.2076
   -30.5703 -30.5703 -30.5666 -30.5665 -30.5635 -30.5634 -30.5585 -30.5585
   -30.5500 -30.5499 -30.5442 -30.5442 -30.5252 -30.5251 -30.5227 -30.5227
   -30.4826 -30.4825 -30.4800 -30.4799 -30.4683 -30.4683 -30.4651 -30.4651
   -20.3716 -20.3716 -20.3715 -20.3715 -20.3713 -20.3713 -20.3712 -20.3712
   -20.3503 -20.3502 -20.3500 -20.3500 -20.3495 -20.3495 -20.3493 -20.3493
   -20.3468 -20.3468 -20.3464 -20.3464 -20.3464 -20.3464 -20.3460 -20.3460
   -20.3449 -20.3449 -20.3447 -20.3447 -20.3446 -20.3446 -20.3444 -20.3444
   -20.3374 -20.3374 -20.3370 -20.3370 -20.3363 -20.3363 -20.3361 -20.3361
   -20.3331 -20.3331 -20.3328 -20.3328 -20.3317 -20.3317 -20.3309 -20.3308
   -20.3285 -20.3285 -20.3278 -20.3278 -20.3267 -20.3267 -20.3263 -20.3263
    -9.5555  -9.5554  -9.3375  -9.3373  -9.0503  -9.0501  -8.8558  -8.8558
    -8.5876  -8.5863  -8.5052  -8.5041  -8.4641  -8.4625  -8.4539  -8.4537
    -8.1941  -8.1937  -8.1149  -8.1136  -7.8928  -7.8928  -7.8312  -7.8310
     1.5235   1.5257   1.5374   1.5389   2.2076   2.2087   2.3698   2.3743
     2.8601   2.8643   3.0707   3.0754   3.1356   3.1493   3.2095   3.2252
     3.2879   3.2954   3.3978   3.4367   3.5208   3.5398   3.6866   3.6881
     3.7493   3.7631   3.8628   3.9217   4.3303   4.3589   4.5634   4.5667
     4.6194   4.6516   4.7830   4.8084   4.8914   4.9637   4.9751   5.0083
     5.0964   5.1513   5.3084   5.3793   5.7189   5.7377   6.0608   6.0625
     6.5834   6.6057   6.6495   6.6529   6.8089   6.8097   6.9272   6.9684
     7.0428   7.0729   7.1145   7.1500   7.1740   7.1795   7.4056   7.4168
     7.4511   7.4676   7.4710   7.4989   7.5083   7.5246   7.7512   7.7518
    10.5125  10.5175  11.3016  11.3200  11.3438  11.3471  11.7242  11.7251
    11.7452  11.7548  11.8830  11.9382  12.4229  12.4710  12.6741  12.6920
    12.8272  12.8489  13.0475  13.1288  13.2814  13.3182  13.3378  13.4026
    15.5556  15.5742  15.7875  15.8005  16.2113  16.2295  16.5828  16.6079
    16.8272  16.8319  17.3928  17.4345  17.8201

          k =-0.4979 0.4763 0.1657 ( 62392 PWs)   bands (ev):

   -66.2087 -66.2087 -66.2087 -66.2087 -66.2079 -66.2079 -66.2079 -66.2079
   -30.5684 -30.5684 -30.5679 -30.5679 -30.5609 -30.5609 -30.5601 -30.5601
   -30.5465 -30.5465 -30.5461 -30.5461 -30.5051 -30.5051 -30.5042 -30.5042
   -30.5022 -30.5022 -30.5013 -30.5013 -30.4671 -30.4671 -30.4670 -30.4670
   -20.3716 -20.3716 -20.3716 -20.3716 -20.3713 -20.3713 -20.3712 -20.3712
   -20.3501 -20.3501 -20.3501 -20.3501 -20.3494 -20.3494 -20.3494 -20.3494
   -20.3466 -20.3466 -20.3466 -20.3466 -20.3462 -20.3462 -20.3462 -20.3462
   -20.3448 -20.3448 -20.3448 -20.3448 -20.3445 -20.3445 -20.3445 -20.3444
   -20.3372 -20.3372 -20.3372 -20.3372 -20.3347 -20.3347 -20.3346 -20.3346
   -20.3345 -20.3345 -20.3344 -20.3344 -20.3313 -20.3313 -20.3313 -20.3313
   -20.3282 -20.3282 -20.3282 -20.3282 -20.3265 -20.3265 -20.3265 -20.3265
    -9.4273  -9.4273  -9.4218  -9.4218  -8.7663  -8.7663  -8.7444  -8.7444
    -8.6396  -8.6396  -8.6203  -8.6203  -8.4396  -8.4396  -8.4041  -8.4041
    -8.3836  -8.3836  -8.3512  -8.3512  -7.8622  -7.8622  -7.8620  -7.8620
     1.5375   1.5375   1.5430   1.5430   2.9077   2.9077   3.0008   3.0008
     3.0580   3.0580   3.0756   3.0756   3.1767   3.1767   3.2011   3.2011
     3.3125   3.3125   3.3946   3.3946   3.4592   3.4592   3.5016   3.5016
     3.5200   3.5200   3.7779   3.7779   4.2256   4.2256   4.2824   4.2824
     4.3061   4.3061   4.3961   4.3962   4.8308   4.8309   4.9809   4.9809
     5.1171   5.1171   5.2521   5.2521   5.8003   5.8003   5.8203   5.8203
     6.6867   6.6867   6.7459   6.7459   6.8026   6.8026   6.8417   6.8417
     7.2250   7.2250   7.2479   7.2479   7.3200   7.3200   7.3912   7.3912
     7.4363   7.4363   7.5156   7.5156   7.5559   7.5559   7.5913   7.5913
    11.1909  11.1909  11.2365  11.2365  11.3225  11.3225  11.3974  11.3974
    12.1655  12.1655  12.2022  12.2022  12.2718  12.2718  12.3189  12.3189
    12.7290  12.7290  12.7990  12.7990  13.2938  13.2938  13.3489  13.3489
    15.6856  15.6856  15.7040  15.7040  16.8406  16.8406  16.9298  16.9298
    17.2841  17.2841  17.3612  17.3622  17.4256

          k =-0.4979 0.0000 0.3313 ( 62448 PWs)   bands (ev):

   -66.2087 -66.2087 -66.2083 -66.2083 -66.2083 -66.2083 -66.2078 -66.2078
   -30.5939 -30.5939 -30.5913 -30.5913 -30.5446 -30.5446 -30.5343 -30.5343
   -30.5316 -30.5316 -30.5276 -30.5276 -30.5064 -30.5064 -30.5061 -30.5061
   -30.5014 -30.5014 -30.4960 -30.4960 -30.4826 -30.4826 -30.4813 -30.4813
   -20.3715 -20.3715 -20.3715 -20.3715 -20.3713 -20.3713 -20.3713 -20.3713
   -20.3505 -20.3505 -20.3501 -20.3501 -20.3496 -20.3496 -20.3492 -20.3492
   -20.3477 -20.3477 -20.3474 -20.3474 -20.3467 -20.3467 -20.3465 -20.3465
   -20.3459 -20.3459 -20.3457 -20.3457 -20.3422 -20.3422 -20.3419 -20.3419
   -20.3361 -20.3361 -20.3360 -20.3360 -20.3349 -20.3349 -20.3348 -20.3348
   -20.3341 -20.3341 -20.3341 -20.3341 -20.3325 -20.3325 -20.3323 -20.3323
   -20.3280 -20.3280 -20.3277 -20.3277 -20.3272 -20.3272 -20.3268 -20.3268
    -9.5080  -9.5080  -9.2888  -9.2888  -9.0921  -9.0921  -8.7980  -8.7980
    -8.6397  -8.6397  -8.5673  -8.5673  -8.5154  -8.5154  -8.4890  -8.4890
    -8.1686  -8.1686  -8.1590  -8.1590  -7.8132  -7.8132  -7.7898  -7.7898
     1.4525   1.4525   1.4878   1.4878   2.2325   2.2325   2.2700   2.2700
     2.8911   2.8911   2.9890   2.9890   3.0130   3.0130   3.1743   3.1743
     3.2649   3.2649   3.5581   3.5581   3.6852   3.6852   3.7916   3.7916
     3.8129   3.8129   3.9950   3.9950   4.1552   4.1552   4.3506   4.3506
     4.6534   4.6534   4.8744   4.8744   5.0169   5.0169   5.0485   5.0485
     5.2592   5.2592   5.5067   5.5067   5.9248   5.9248   6.0198   6.0198
     6.3645   6.3645   6.3911   6.3911   6.4675   6.4675   6.5370   6.5370
     7.1082   7.1082   7.2341   7.2341   7.3084   7.3084   7.4856   7.4856
     7.5225   7.5225   7.6453   7.6453   7.6808   7.6808   7.9530   7.9530
    10.7934  10.7934  11.3653  11.3653  11.4568  11.4568  11.5533  11.5533
    11.7729  11.7729  12.2122  12.2122  12.3913  12.3913  12.5752  12.5752
    12.8126  12.8126  13.1665  13.1665  13.2033  13.2033  13.5896  13.5896
    14.6955  14.6955  15.0623  15.0623  16.2528  16.2528  16.6523  16.6523
    16.9786  16.9786  17.4216  17.4216  17.9236

          k =-0.4979-0.1588 0.3313 ( 62428 PWs)   bands (ev):

   -66.2087 -66.2087 -66.2083 -66.2083 -66.2082 -66.2082 -66.2078 -66.2078
   -30.5900 -30.5900 -30.5873 -30.5873 -30.5463 -30.5463 -30.5376 -30.5376
   -30.5317 -30.5317 -30.5289 -30.5289 -30.5062 -30.5062 -30.5058 -30.5058
   -30.5017 -30.5017 -30.4972 -30.4972 -30.4827 -30.4827 -30.4817 -30.4817
   -20.3715 -20.3715 -20.3715 -20.3715 -20.3713 -20.3713 -20.3713 -20.3713
   -20.3504 -20.3504 -20.3500 -20.3500 -20.3497 -20.3497 -20.3493 -20.3492
   -20.3474 -20.3474 -20.3471 -20.3471 -20.3467 -20.3467 -20.3465 -20.3465
   -20.3459 -20.3459 -20.3457 -20.3457 -20.3425 -20.3425 -20.3423 -20.3423
   -20.3361 -20.3361 -20.3360 -20.3360 -20.3349 -20.3349 -20.3348 -20.3348
   -20.3342 -20.3342 -20.3341 -20.3341 -20.3325 -20.3325 -20.3323 -20.3323
   -20.3280 -20.3280 -20.3278 -20.3278 -20.3271 -20.3271 -20.3268 -20.3268
    -9.4581  -9.4581  -9.2203  -9.2203  -9.1028  -9.1028  -8.7733  -8.7733
    -8.6487  -8.6487  -8.5643  -8.5643  -8.5133  -8.5133  -8.4859  -8.4859
    -8.1668  -8.1668  -8.1637  -8.1637  -7.9119  -7.9119  -7.8886  -7.8886
     1.6809   1.6809   1.7199   1.7199   2.2321   2.2321   2.2789   2.2789
     2.9416   2.9416   3.0190   3.0190   3.0333   3.0333   3.1842   3.1842
     3.2681   3.2681   3.5807   3.5807   3.6928   3.6928   3.8085   3.8085
     3.8265   3.8265   4.0328   4.0328   4.1419   4.1419   4.3576   4.3576
     4.5271   4.5271   4.6720   4.6720   4.9571   4.9571   4.9910   4.9910
     5.0298   5.0298   5.2826   5.2826   5.6940   5.6940   5.7943   5.7943
     6.5159   6.5159   6.5401   6.5401   6.6057   6.6057   6.7258   6.7258
     7.1169   7.1169   7.2293   7.2293   7.3079   7.3079   7.4849   7.4849
     7.5171   7.5171   7.6279   7.6279   7.6634   7.6634   7.8997   7.8997
    10.8948  10.8948  11.3958  11.3958  11.5029  11.5029  11.5813  11.5813
    11.8168  11.8168  12.2372  12.2372  12.3867  12.3867  12.5890  12.5890
    12.6759  12.6759  13.0430  13.0430  13.0786  13.0786  13.4782  13.4782
    15.0587  15.0587  15.4409  15.4409  16.3348  16.3348  16.6534  16.6534
    16.9853  16.9853  17.4439  17.4439  17.7752

          k =-0.4979-0.3175 0.3313 ( 62372 PWs)   bands (ev):

   -66.2086 -66.2086 -66.2084 -66.2084 -66.2082 -66.2082 -66.2079 -66.2079
   -30.5793 -30.5793 -30.5763 -30.5763 -30.5530 -30.5530 -30.5474 -30.5474
   -30.5320 -30.5320 -30.5311 -30.5311 -30.5057 -30.5057 -30.5051 -30.5051
   -30.5024 -30.5024 -30.4998 -30.4998 -30.4829 -30.4829 -30.4825 -30.4825
   -20.3715 -20.3715 -20.3715 -20.3715 -20.3713 -20.3713 -20.3713 -20.3713
   -20.3502 -20.3502 -20.3498 -20.3498 -20.3498 -20.3498 -20.3494 -20.3494
   -20.3468 -20.3468 -20.3466 -20.3466 -20.3465 -20.3465 -20.3464 -20.3464
   -20.3457 -20.3457 -20.3455 -20.3455 -20.3435 -20.3435 -20.3433 -20.3433
   -20.3361 -20.3361 -20.3360 -20.3360 -20.3348 -20.3348 -20.3347 -20.3347
   -20.3343 -20.3343 -20.3342 -20.3342 -20.3325 -20.3325 -20.3323 -20.3323
   -20.3279 -20.3279 -20.3278 -20.3278 -20.3271 -20.3271 -20.3269 -20.3269
    -9.3368  -9.3368  -9.1398  -9.1398  -9.0354  -9.0354  -8.7071  -8.7071
    -8.6697  -8.6697  -8.5587  -8.5587  -8.5017  -8.5017  -8.4670  -8.4670
    -8.2053  -8.2053  -8.1653  -8.1653  -8.1491  -8.1491  -8.0954  -8.0954
     2.1502   2.1502   2.2299   2.2299   2.3278   2.3278   2.4517   2.4517
     3.0080   3.0080   3.0515   3.0515   3.1575   3.1576   3.2187   3.2187
     3.3035   3.3035   3.6069   3.6069   3.6683   3.6683   3.7654   3.7654
     3.9251   3.9251   4.0426   4.0426   4.1500   4.1500   4.1836   4.1836
     4.2983   4.2983   4.4408   4.4408   4.5856   4.5856   4.8058   4.8058
     4.8861   4.8861   4.9830   4.9830   5.0068   5.0068   5.2798   5.2798
     6.8215   6.8216   6.8808   6.8808   6.9532   6.9532   6.9955   6.9955
     7.1390   7.1390   7.2247   7.2247   7.3152   7.3152   7.4624   7.4624
     7.4964   7.4964   7.5743   7.5743   7.6020   7.6020   7.7443   7.7443
    11.1850  11.1850  11.4510  11.4510  11.5375  11.5375  11.7485  11.7485
    11.9790  11.9790  12.2754  12.2754  12.3140  12.3140  12.3670  12.3670
    12.6536  12.6536  12.7516  12.7516  12.7884  12.7884  13.2073  13.2073
    15.8842  15.8842  16.3485  16.3485  16.5850  16.5850  16.6597  16.6597
    17.0250  17.0250  17.3730  17.3730  17.6010

          k =-0.4979 0.4763 0.3313 ( 62376 PWs)   bands (ev):

   -66.2085 -66.2085 -66.2085 -66.2085 -66.2080 -66.2080 -66.2080 -66.2080
   -30.5657 -30.5657 -30.5650 -30.5650 -30.5620 -30.5620 -30.5612 -30.5612
   -30.5322 -30.5322 -30.5319 -30.5319 -30.5053 -30.5053 -30.5047 -30.5047
   -30.5025 -30.5025 -30.5015 -30.5015 -30.4830 -30.4830 -30.4828 -30.4828
   -20.3715 -20.3715 -20.3715 -20.3715 -20.3713 -20.3713 -20.3713 -20.3713
   -20.3500 -20.3500 -20.3500 -20.3500 -20.3496 -20.3496 -20.3496 -20.3496
   -20.3465 -20.3465 -20.3465 -20.3465 -20.3463 -20.3463 -20.3463 -20.3463
   -20.3448 -20.3448 -20.3447 -20.3447 -20.3447 -20.3446 -20.3446 -20.3446
   -20.3360 -20.3360 -20.3360 -20.3360 -20.3347 -20.3347 -20.3346 -20.3346
   -20.3344 -20.3344 -20.3343 -20.3343 -20.3324 -20.3324 -20.3324 -20.3324
   -20.3279 -20.3279 -20.3279 -20.3279 -20.3270 -20.3270 -20.3270 -20.3270
    -9.2195  -9.2195  -9.2113  -9.2113  -8.8278  -8.8278  -8.8069  -8.8069
    -8.5855  -8.5855  -8.5658  -8.5658  -8.4324  -8.4324  -8.4081  -8.4081
    -8.3789  -8.3789  -8.3596  -8.3596  -8.1506  -8.1506  -8.1498  -8.1498
     2.2156   2.2156   2.2269   2.2269   2.9306   2.9306   2.9842   2.9842
     3.0780   3.0781   3.0833   3.0833   3.1991   3.1991   3.2039   3.2039
     3.3896   3.3896   3.4330   3.4330   3.5715   3.5715   3.6244   3.6244
     3.7500   3.7500   3.8781   3.8781   4.2011   4.2011   4.2198   4.2198
     4.2708   4.2708   4.3413   4.3413   4.4339   4.4339   4.5288   4.5288
     4.6370   4.6370   4.7708   4.7709   5.0043   5.0043   5.0321   5.0321
     6.9520   6.9520   7.0448   7.0448   7.1219   7.1219   7.1377   7.1377
     7.2276   7.2276   7.2802   7.2802   7.3576   7.3576   7.3649   7.3649
     7.4440   7.4440   7.5297   7.5297   7.5566   7.5566   7.6059   7.6059
    11.4301  11.4301  11.4670  11.4670  11.6567  11.6567  11.7471  11.7471
    12.1448  12.1448  12.2029  12.2030  12.2303  12.2303  12.3240  12.3240
    12.4496  12.4496  12.5762  12.5762  12.8704  12.8704  12.9512  12.9512
    16.4349  16.4349  16.4822  16.4822  17.0071  17.0071  17.0825  17.0825
    17.2791  17.2791  17.3751  17.3758  17.4227

     the Fermi energy is     8.9511 ev

!    total energy              =   -6261.11204903 Ry
     Harris-Foulkes estimate   =   -6261.11204902 Ry
     estimated scf accuracy    <          6.3E-12 Ry

     The total energy is the sum of the following terms:

     one-electron contribution =   -4727.70226337 Ry
     hartree contribution      =    2600.06776593 Ry
     xc contribution           =    -965.66654590 Ry
     ewald contribution        =   -3167.81100568 Ry
     smearing contrib. (-TS)   =      -0.00000000 Ry

     convergence has been achieved in  15 iterations

     Forces acting on atoms (cartesian axes, Ry/au):

     atom    1 type  1   force =    -0.00273460    0.00212595    0.00191416
     atom    2 type  1   force =     0.00273460   -0.00212595   -0.00191416
     atom    3 type  1   force =     0.00273460   -0.00212595    0.00191416
     atom    4 type  1   force =    -0.00273460    0.00212595   -0.00191416
     atom    5 type  1   force =     0.00273460    0.00212595   -0.00191416
     atom    6 type  1   force =    -0.00273460   -0.00212595    0.00191416
     atom    7 type  1   force =    -0.00273460   -0.00212595   -0.00191416
     atom    8 type  1   force =     0.00273460    0.00212595    0.00191416
     atom    9 type  2   force =    -0.00032936   -0.00086414    0.00014642
     atom   10 type  2   force =     0.00032936    0.00086414   -0.00014642
     atom   11 type  2   force =     0.00032936    0.00086414    0.00014642
     atom   12 type  2   force =    -0.00032936   -0.00086414   -0.00014642
     atom   13 type  2   force =     0.00032936   -0.00086414   -0.00014642
     atom   14 type  2   force =    -0.00032936    0.00086414    0.00014642
     atom   15 type  2   force =    -0.00032936    0.00086414   -0.00014642
     atom   16 type  2   force =     0.00032936   -0.00086414    0.00014642
     atom   17 type  2   force =    -0.00141978   -0.00003989    0.00034064
     atom   18 type  2   force =     0.00141978    0.00003989   -0.00034064
     atom   19 type  2   force =     0.00141978    0.00003989    0.00034064
     atom   20 type  2   force =    -0.00141978   -0.00003989   -0.00034064
     atom   21 type  2   force =     0.00141978   -0.00003989   -0.00034064
     atom   22 type  2   force =    -0.00141978    0.00003989    0.00034064
     atom   23 type  2   force =    -0.00141978    0.00003989   -0.00034064
     atom   24 type  2   force =     0.00141978   -0.00003989    0.00034064
     atom   25 type  2   force =    -0.00086182   -0.00074001    0.00121554
     atom   26 type  2   force =     0.00086182    0.00074001   -0.00121554
     atom   27 type  2   force =     0.00086182    0.00074001    0.00121554
     atom   28 type  2   force =    -0.00086182   -0.00074001   -0.00121554
     atom   29 type  2   force =     0.00086182   -0.00074001   -0.00121554
     atom   30 type  2   force =    -0.00086182    0.00074001    0.00121554
     atom   31 type  2   force =    -0.00086182    0.00074001   -0.00121554
     atom   32 type  2   force =     0.00086182   -0.00074001    0.00121554

     Total force =     0.000000     Total SCF correction =     0.000000


     Computing stress (Cartesian axis) and pressure

          total   stress  (Ry/bohr**3)                   (kbar)     P=    0.09
   0.00000116   0.00000000   0.00000000          0.17      0.00      0.00
   0.00000000  -0.00000089   0.00000000          0.00     -0.13      0.00
   0.00000000   0.00000000   0.00000163          0.00      0.00      0.24


     Writing output data file Landau_20.save
 
     init_run     :     57.97s CPU     59.38s WALL (       2 calls)
     electrons    :   6377.06s CPU   6468.49s WALL (       6 calls)
     update_pot   :    114.99s CPU    115.11s WALL (       4 calls)
     forces       :    149.86s CPU    151.58s WALL (       6 calls)
     stress       :   1006.13s CPU   1015.38s WALL (       6 calls)

     Called by init_run:
     wfcinit      :     32.70s CPU     33.87s WALL (       2 calls)
     potinit      :     11.09s CPU     11.15s WALL (       2 calls)

     Called by electrons:
     c_bands      :   5528.03s CPU   5612.21s WALL (      84 calls)
     sum_band     :    760.64s CPU    763.86s WALL (      84 calls)
     v_of_rho     :     10.69s CPU     10.85s WALL (      89 calls)
     mix_rho      :     16.26s CPU     19.16s WALL (      84 calls)

     Called by c_bands:
     init_us_2    :     32.70s CPU     34.99s WALL (     170 calls)
     cegterg      :   3555.70s CPU   3638.58s WALL (      84 calls)

     Called by sum_band:

     Called by *egterg:
     h_psi        :   2688.14s CPU   2696.81s WALL (     322 calls)
     g_psi        :     12.37s CPU     12.37s WALL (     236 calls)
     cdiaghg      :     40.43s CPU     40.47s WALL (     315 calls)

     Called by h_psi:
     h_psi:pot    :   2669.67s CPU   2678.13s WALL (     322 calls)
     h_psi:calbec :    334.47s CPU    341.00s WALL (     322 calls)
     vloc_psi     :   1985.13s CPU   1986.41s WALL (     322 calls)
     add_vuspsi   :    350.06s CPU    350.72s WALL (     322 calls)

     General routines
     calbec       :    382.77s CPU    389.84s WALL (     352 calls)
     fft          :      7.38s CPU      7.38s WALL (     404 calls)
     fftw         :   2052.04s CPU   2052.85s WALL (  108322 calls)
 
     Parallel routines
 
     PWSCF        :     2h 9m CPU        2h10m WALL

 
   This run was terminated on:  22: 7:55   4Mar2020            

=------------------------------------------------------------------------------=
   JOB DONE.
=------------------------------------------------------------------------------=
