
     Program PWSCF v.6.2 (svn rev. 14038) starts on 12Mar2020 at 22: 2:31 

     This program is part of the open-source Quantum ESPRESSO suite
     for quantum simulation of materials; please cite
         "P. Giannozzi et al., J. Phys.:Condens. Matter 21 395502 (2009);
         "P. Giannozzi et al., J. Phys.:Condens. Matter 29 465901 (2017);
          URL http://www.quantum-espresso.org", 
     in publications or presentations arising from this work. More details at
     http://www.quantum-espresso.org/quote

     Parallel version (MPI), running on    40 processors

     MPI processes distributed on     6 nodes
     K-points division:     npool     =      40
     Reading input from rscf.in

     Current dimensions of program PWSCF are:
     Max number of different atomic species (ntypx) = 10
     Max number of k-points (npk) =  40000
     Max angular momentum in pseudopotentials (lmaxx) =  3

     Subspace diagonalization in iterative solution of the eigenvalue problem:
     a serial algorithm will be used

 
     G-vector sticks info
     --------------------
     sticks:   dense  smooth     PW     G-vecs:    dense   smooth      PW
     Sum        7747    7747   2077               498127   498127   69057
 


     bravais-lattice index     =            0
     lattice parameter (alat)  =      13.8397  a.u.
     unit-cell volume          =    2804.9816 (a.u.)^3
     number of atoms/cell      =           32
     number of atomic types    =            2
     number of electrons       =       368.00
     number of Kohn-Sham states=          221
     kinetic-energy cutoff     =     120.0000  Ry
     charge density cutoff     =     480.0000  Ry
     convergence threshold     =      1.0E-08
     mixing beta               =       0.7000
     number of iterations used =            8  plain     mixing
     Exchange-correlation      = SLA PW NOGX NOGC ( 1  4  0  0 0 0)
     nstep                     =           50


     celldm(1)=  13.839685  celldm(2)=   0.000000  celldm(3)=   0.000000
     celldm(4)=   0.000000  celldm(5)=   0.000000  celldm(6)=   0.000000

     crystal axes: (cart. coord. in units of alat)
               a(1) = (   1.000000   0.000000   0.000000 )  
               a(2) = (   0.000000   1.058160   0.000000 )  
               a(3) = (   0.000000   0.000000   1.000000 )  

     reciprocal axes: (cart. coord. in units 2 pi/alat)
               b(1) = (  1.000000  0.000000  0.000000 )  
               b(2) = (  0.000000  0.945037  0.000000 )  
               b(3) = (  0.000000  0.000000  1.000000 )  


     PseudoPot. # 1 for W  read from file:
     /cluster/scratch/mnoe/QE/pps/W_ONCV_LDA-4.0.upf
     MD5 check sum: ba0307d5d4cd419d6f1d13dc49d7c13a
     Pseudo is Norm-conserving + core correction, Zval = 28.0
     Generated using ONCVPSP code by D. R. Hamann
     Using radial grid of 1380 points,  8 beta functions with: 
                l(1) =   0
                l(2) =   0
                l(3) =   1
                l(4) =   1
                l(5) =   2
                l(6) =   2
                l(7) =   3
                l(8) =   3

     PseudoPot. # 2 for O  read from file:
     /cluster/scratch/mnoe/QE/pps/O_ONCV_LDA-3.0.upf
     MD5 check sum: a1bd6164e7280c17a38c229939bfbd54
     Pseudo is Norm-conserving + core correction, Zval =  6.0
     Generated using ONCVPSP code by D. R. Hamann
     Using radial grid of  926 points,  5 beta functions with: 
                l(1) =   0
                l(2) =   0
                l(3) =   1
                l(4) =   1
                l(5) =   2

     atomic species   valence    mass     pseudopotential
        W             28.00   183.84000     W ( 1.00)
        O              6.00    15.99940     O ( 1.00)

      8 Sym. Ops., with inversion, found ( 6 have fractional translation)



   Cartesian axes

     site n.     atom                  positions (alat units)
         1           W   tau(   1) = (   0.2449100   0.2953708   0.0048000  )
         2           W   tau(   2) = (   0.7550900   0.7627893   0.9952000  )
         3           W   tau(   3) = (   0.2550900   0.2337093   0.5048000  )
         4           W   tau(   4) = (   0.7449100   0.8244508   0.4952000  )
         5           W   tau(   5) = (   0.7550900   0.2953708   0.4952000  )
         6           W   tau(   6) = (   0.2449100   0.7627893   0.5048000  )
         7           W   tau(   7) = (   0.7449100   0.2337093   0.9952000  )
         8           W   tau(   8) = (   0.2550900   0.8244508   0.0048000  )
         9           O   tau(   9) = (   0.2406200   0.0080187   0.0014900  )
        10           O   tau(  10) = (   0.7593799   1.0501414   0.9985100  )
        11           O   tau(  11) = (   0.2593800   0.5210614   0.5014900  )
        12           O   tau(  12) = (   0.7406200   0.5370987   0.4985100  )
        13           O   tau(  13) = (   0.7593799   0.0080187   0.4985100  )
        14           O   tau(  14) = (   0.2406200   1.0501414   0.5014900  )
        15           O   tau(  15) = (   0.7406200   0.5210614   0.9985100  )
        16           O   tau(  16) = (   0.2593800   0.5370987   0.0014900  )
        17           O   tau(  17) = (   0.5013900   0.2543499   0.4562002  )
        18           O   tau(  18) = (   0.4986100   0.8038101   0.5437998  )
        19           O   tau(  19) = (   0.9986100   0.2747301   0.9562003  )
        20           O   tau(  20) = (   0.0013900   0.7834300   0.0437997  )
        21           O   tau(  21) = (   0.4986100   0.2543499   0.0437997  )
        22           O   tau(  22) = (   0.5013900   0.8038101   0.9562003  )
        23           O   tau(  23) = (   0.0013900   0.2747301   0.5437998  )
        24           O   tau(  24) = (   0.9986100   0.7834300   0.4562002  )
        25           O   tau(  25) = (   0.7062003   0.2623179   0.7478900  )
        26           O   tau(  26) = (   0.2937997   0.7958422   0.2521100  )
        27           O   tau(  27) = (   0.7937998   0.2667621   0.2478900  )
        28           O   tau(  28) = (   0.2062003   0.7913979   0.7521100  )
        29           O   tau(  29) = (   0.2937997   0.2623179   0.7521100  )
        30           O   tau(  30) = (   0.7062003   0.7958422   0.2478900  )
        31           O   tau(  31) = (   0.2062003   0.2667621   0.2521100  )
        32           O   tau(  32) = (   0.7937998   0.7913979   0.7478900  )

     number of k points=    64  gaussian smearing, width (Ry)=  0.0007
                       cart. coord. in units 2pi/alat
        k(    1) = (   0.0000000   0.0000000   0.0000000), wk =   0.0092593
        k(    2) = (   0.0000000   0.0000000   0.1666667), wk =   0.0185185
        k(    3) = (   0.0000000   0.0000000   0.3333333), wk =   0.0185185
        k(    4) = (   0.0000000   0.0000000  -0.5000000), wk =   0.0092593
        k(    5) = (   0.0000000   0.1575061   0.0000000), wk =   0.0185185
        k(    6) = (   0.0000000   0.1575061   0.1666667), wk =   0.0370370
        k(    7) = (   0.0000000   0.1575061   0.3333333), wk =   0.0370370
        k(    8) = (   0.0000000   0.1575061  -0.5000000), wk =   0.0185185
        k(    9) = (   0.0000000   0.3150122   0.0000000), wk =   0.0185185
        k(   10) = (   0.0000000   0.3150122   0.1666667), wk =   0.0370370
        k(   11) = (   0.0000000   0.3150122   0.3333333), wk =   0.0370370
        k(   12) = (   0.0000000   0.3150122  -0.5000000), wk =   0.0185185
        k(   13) = (   0.0000000  -0.4725183   0.0000000), wk =   0.0092593
        k(   14) = (   0.0000000  -0.4725183   0.1666667), wk =   0.0185185
        k(   15) = (   0.0000000  -0.4725183   0.3333333), wk =   0.0185185
        k(   16) = (   0.0000000  -0.4725183  -0.5000000), wk =   0.0092593
        k(   17) = (   0.1666667   0.0000000   0.1666667), wk =   0.0370370
        k(   18) = (   0.1666667   0.0000000   0.3333333), wk =   0.0370370
        k(   19) = (   0.1666667   0.0000000  -0.5000000), wk =   0.0185185
        k(   20) = (   0.1666667   0.1575061   0.1666667), wk =   0.0740741
        k(   21) = (   0.1666667   0.1575061   0.3333333), wk =   0.0740741
        k(   22) = (   0.1666667   0.1575061  -0.5000000), wk =   0.0370370
        k(   23) = (   0.1666667   0.3150122   0.1666667), wk =   0.0740741
        k(   24) = (   0.1666667   0.3150122   0.3333333), wk =   0.0740741
        k(   25) = (   0.1666667   0.3150122  -0.5000000), wk =   0.0370370
        k(   26) = (   0.1666667  -0.4725183   0.1666667), wk =   0.0370370
        k(   27) = (   0.1666667  -0.4725183   0.3333333), wk =   0.0370370
        k(   28) = (   0.1666667  -0.4725183  -0.5000000), wk =   0.0185185
        k(   29) = (   0.3333333   0.0000000   0.3333333), wk =   0.0370370
        k(   30) = (   0.3333333   0.0000000  -0.5000000), wk =   0.0185185
        k(   31) = (   0.3333333   0.1575061   0.3333333), wk =   0.0740741
        k(   32) = (   0.3333333   0.1575061  -0.5000000), wk =   0.0370370
        k(   33) = (   0.3333333   0.3150122   0.3333333), wk =   0.0740741
        k(   34) = (   0.3333333   0.3150122  -0.5000000), wk =   0.0370370
        k(   35) = (   0.3333333  -0.4725183   0.3333333), wk =   0.0370370
        k(   36) = (   0.3333333  -0.4725183  -0.5000000), wk =   0.0185185
        k(   37) = (  -0.5000000   0.0000000  -0.5000000), wk =   0.0092593
        k(   38) = (  -0.5000000   0.1575061  -0.5000000), wk =   0.0185185
        k(   39) = (  -0.5000000   0.3150122  -0.5000000), wk =   0.0185185
        k(   40) = (  -0.5000000  -0.4725183  -0.5000000), wk =   0.0092593
        k(   41) = (   0.1666667   0.0000000   0.0000000), wk =   0.0185185
        k(   42) = (   0.3333333   0.0000000   0.0000000), wk =   0.0185185
        k(   43) = (  -0.5000000   0.0000000   0.0000000), wk =   0.0092593
        k(   44) = (   0.1666667  -0.1575061   0.0000000), wk =   0.0370370
        k(   45) = (   0.3333333  -0.1575061   0.0000000), wk =   0.0370370
        k(   46) = (  -0.5000000  -0.1575061   0.0000000), wk =   0.0185185
        k(   47) = (   0.1666667  -0.3150122   0.0000000), wk =   0.0370370
        k(   48) = (   0.3333333  -0.3150122   0.0000000), wk =   0.0370370
        k(   49) = (  -0.5000000  -0.3150122   0.0000000), wk =   0.0185185
        k(   50) = (   0.1666667   0.4725183   0.0000000), wk =   0.0185185
        k(   51) = (   0.3333333   0.4725183   0.0000000), wk =   0.0185185
        k(   52) = (  -0.5000000   0.4725183   0.0000000), wk =   0.0092593
        k(   53) = (   0.3333333   0.0000000   0.1666667), wk =   0.0370370
        k(   54) = (  -0.5000000   0.0000000   0.1666667), wk =   0.0185185
        k(   55) = (   0.3333333  -0.1575061   0.1666667), wk =   0.0740741
        k(   56) = (  -0.5000000  -0.1575061   0.1666667), wk =   0.0370370
        k(   57) = (   0.3333333  -0.3150122   0.1666667), wk =   0.0740741
        k(   58) = (  -0.5000000  -0.3150122   0.1666667), wk =   0.0370370
        k(   59) = (   0.3333333   0.4725183   0.1666667), wk =   0.0370370
        k(   60) = (  -0.5000000   0.4725183   0.1666667), wk =   0.0185185
        k(   61) = (  -0.5000000   0.0000000   0.3333333), wk =   0.0185185
        k(   62) = (  -0.5000000  -0.1575061   0.3333333), wk =   0.0370370
        k(   63) = (  -0.5000000  -0.3150122   0.3333333), wk =   0.0370370
        k(   64) = (  -0.5000000   0.4725183   0.3333333), wk =   0.0185185

     Dense  grid:   498127 G-vectors     FFT dimensions: ( 100, 108, 100)

     Estimated max dynamical RAM per process >       3.15 GB

     Estimated total dynamical RAM >     125.81 GB

     Initial potential from superposition of free atoms

     starting charge  367.99656, renormalised to  368.00000
     Starting wfc are  232 randomized atomic wfcs

     total cpu time spent up to now is       64.2 secs

     Self-consistent Calculation

     iteration #  1     ecut=   120.00 Ry     beta= 0.70
     Davidson diagonalization with overlap
     ethr =  1.00E-02,  avg # of iterations =  5.2

     total cpu time spent up to now is      237.3 secs

     total energy              =   -6254.02152282 Ry
     Harris-Foulkes estimate   =   -6264.58424015 Ry
     estimated scf accuracy    <      13.38497780 Ry

     iteration #  2     ecut=   120.00 Ry     beta= 0.70
     Davidson diagonalization with overlap
     ethr =  3.64E-03,  avg # of iterations =  3.5

     total cpu time spent up to now is      405.2 secs

     total energy              =   -6250.94886442 Ry
     Harris-Foulkes estimate   =   -6270.65595149 Ry
     estimated scf accuracy    <      52.79408004 Ry

     iteration #  3     ecut=   120.00 Ry     beta= 0.70
     Davidson diagonalization with overlap
     ethr =  3.64E-03,  avg # of iterations =  3.5

     total cpu time spent up to now is      561.4 secs

     total energy              =   -6261.07026602 Ry
     Harris-Foulkes estimate   =   -6261.39278324 Ry
     estimated scf accuracy    <       1.03920085 Ry

     iteration #  4     ecut=   120.00 Ry     beta= 0.70
     Davidson diagonalization with overlap
     ethr =  2.82E-04,  avg # of iterations =  3.1

     total cpu time spent up to now is      688.4 secs

     total energy              =   -6261.09228278 Ry
     Harris-Foulkes estimate   =   -6261.16875091 Ry
     estimated scf accuracy    <       0.26510038 Ry

     iteration #  5     ecut=   120.00 Ry     beta= 0.70
     Davidson diagonalization with overlap
     ethr =  7.20E-05,  avg # of iterations =  4.2

     total cpu time spent up to now is      820.0 secs

     total energy              =   -6261.08290142 Ry
     Harris-Foulkes estimate   =   -6261.12088940 Ry
     estimated scf accuracy    <       0.08257555 Ry

     iteration #  6     ecut=   120.00 Ry     beta= 0.70
     Davidson diagonalization with overlap
     ethr =  2.24E-05,  avg # of iterations =  5.3

     total cpu time spent up to now is      966.7 secs

     total energy              =   -6261.10147333 Ry
     Harris-Foulkes estimate   =   -6261.10321392 Ry
     estimated scf accuracy    <       0.00495810 Ry

     iteration #  7     ecut=   120.00 Ry     beta= 0.70
     Davidson diagonalization with overlap
     ethr =  1.35E-06,  avg # of iterations =  5.0

     total cpu time spent up to now is     1106.3 secs

     total energy              =   -6261.10199779 Ry
     Harris-Foulkes estimate   =   -6261.10210863 Ry
     estimated scf accuracy    <       0.00026627 Ry

     iteration #  8     ecut=   120.00 Ry     beta= 0.70
     Davidson diagonalization with overlap
     ethr =  7.24E-08,  avg # of iterations =  3.1

     total cpu time spent up to now is     1249.4 secs

     total energy              =   -6261.10205545 Ry
     Harris-Foulkes estimate   =   -6261.10206647 Ry
     estimated scf accuracy    <       0.00002426 Ry

     iteration #  9     ecut=   120.00 Ry     beta= 0.70
     Davidson diagonalization with overlap
     ethr =  6.59E-09,  avg # of iterations =  3.0

     total cpu time spent up to now is     1394.8 secs

     total energy              =   -6261.10206142 Ry
     Harris-Foulkes estimate   =   -6261.10206389 Ry
     estimated scf accuracy    <       0.00001027 Ry

     iteration # 10     ecut=   120.00 Ry     beta= 0.70
     Davidson diagonalization with overlap
     ethr =  2.79E-09,  avg # of iterations =  2.1

     total cpu time spent up to now is     1520.8 secs

     total energy              =   -6261.10206062 Ry
     Harris-Foulkes estimate   =   -6261.10206221 Ry
     estimated scf accuracy    <       0.00000350 Ry

     iteration # 11     ecut=   120.00 Ry     beta= 0.70
     Davidson diagonalization with overlap
     ethr =  9.50E-10,  avg # of iterations =  2.6

     total cpu time spent up to now is     1652.8 secs

     total energy              =   -6261.10206136 Ry
     Harris-Foulkes estimate   =   -6261.10206139 Ry
     estimated scf accuracy    <       0.00000007 Ry

     iteration # 12     ecut=   120.00 Ry     beta= 0.70
     Davidson diagonalization with overlap
     ethr =  1.85E-11,  avg # of iterations =  2.0

     total cpu time spent up to now is     1802.7 secs

     total energy              =   -6261.10206137 Ry
     Harris-Foulkes estimate   =   -6261.10206138 Ry
     estimated scf accuracy    <       0.00000002 Ry

     iteration # 13     ecut=   120.00 Ry     beta= 0.70
     Davidson diagonalization with overlap
     ethr =  4.77E-12,  avg # of iterations =  2.0

     total cpu time spent up to now is     1923.5 secs

     End of self-consistent calculation

          k = 0.0000 0.0000 0.0000 ( 62239 PWs)   bands (ev):

   -66.1673 -66.1669 -66.1662 -66.1662 -66.1658 -66.1658 -66.1652 -66.1648
   -30.5463 -30.5460 -30.5432 -30.5407 -30.5401 -30.5396 -30.5390 -30.5346
   -30.5225 -30.5215 -30.5207 -30.5200 -30.4666 -30.4659 -30.4653 -30.4639
   -30.4399 -30.4383 -30.4378 -30.4363 -30.4347 -30.4341 -30.4324 -30.4291
   -20.3237 -20.3236 -20.3236 -20.3235 -20.3235 -20.3235 -20.3234 -20.3234
   -20.3030 -20.3026 -20.3026 -20.3022 -20.3002 -20.3001 -20.2999 -20.2997
   -20.2995 -20.2995 -20.2991 -20.2988 -20.2988 -20.2988 -20.2986 -20.2983
   -20.2982 -20.2979 -20.2975 -20.2972 -20.2969 -20.2966 -20.2963 -20.2960
   -20.2924 -20.2922 -20.2920 -20.2917 -20.2916 -20.2915 -20.2913 -20.2910
   -20.2873 -20.2872 -20.2871 -20.2870 -20.2869 -20.2869 -20.2867 -20.2866
   -20.2829 -20.2828 -20.2825 -20.2825 -20.2824 -20.2824 -20.2815 -20.2815
   -10.0044  -9.7713  -9.5675  -9.5581  -9.3732  -9.3578  -9.1579  -9.1439
    -8.9880  -8.8404  -8.8393  -8.8367  -7.8139  -7.7997  -7.7730  -7.7682
    -7.7593  -7.7240  -7.7176  -7.6733  -7.6627  -7.6624  -7.6482  -7.6448
     1.0139   1.0157   1.1326   1.1385   1.1505   1.1591   1.3326   1.4869
     1.6764   1.6811   1.6818   1.8126   2.2835   2.3609   2.5723   2.5742
     2.7141   2.7144   4.1250   4.1452   4.2719   4.3001   4.6730   4.6773
     4.7038   4.7095   4.8874   4.9361   5.0584   5.0633   5.0767   5.4799
     5.5023   5.5072   5.5255   5.5495   5.5531   5.5756   5.5989   5.8405
     5.8850   5.8886   5.9128   5.9323   6.0141   6.0144   6.0264   6.0986
     6.1085   6.2691   6.2778   6.4566   6.4722   6.7969   6.8835   6.9027
     6.9208   6.9331   6.9569   7.0322   7.0505   7.0646   7.2762   7.2930
     7.3006   7.3166   7.8703   7.8841   8.0859   8.1036   8.1560   8.1741
     9.2130   9.2195   9.8773   9.8835   9.8858   9.8934  12.2658  12.2851
    12.3882  12.3896  12.4410  12.4485  12.4532  12.4668  13.0016  13.1020
    13.2631  13.3327  13.3604  13.3847  13.7866  14.0482  14.1562  14.1671
    14.2174  14.3473  14.4432  14.8856  15.4281  15.4544  15.4675  16.1671
    16.1671  16.9683  17.1605  17.1717  17.5038

          k = 0.0000 0.0000 0.1667 ( 62262 PWs)   bands (ev):

   -66.1672 -66.1668 -66.1663 -66.1662 -66.1659 -66.1658 -66.1653 -66.1649
   -30.5450 -30.5401 -30.5400 -30.5392 -30.5384 -30.5350 -30.5341 -30.5341
   -30.5211 -30.5208 -30.5204 -30.5195 -30.4666 -30.4662 -30.4655 -30.4650
   -30.4460 -30.4452 -30.4422 -30.4407 -30.4375 -30.4338 -30.4334 -30.4296
   -20.3237 -20.3236 -20.3236 -20.3235 -20.3235 -20.3235 -20.3234 -20.3234
   -20.3030 -20.3026 -20.3026 -20.3022 -20.3001 -20.3001 -20.2998 -20.2996
   -20.2995 -20.2994 -20.2992 -20.2989 -20.2988 -20.2988 -20.2987 -20.2983
   -20.2983 -20.2980 -20.2975 -20.2973 -20.2969 -20.2966 -20.2964 -20.2961
   -20.2924 -20.2921 -20.2919 -20.2915 -20.2914 -20.2913 -20.2907 -20.2905
   -20.2873 -20.2872 -20.2871 -20.2870 -20.2868 -20.2868 -20.2868 -20.2867
   -20.2834 -20.2829 -20.2829 -20.2828 -20.2826 -20.2825 -20.2817 -20.2816
    -9.9537  -9.7156  -9.5737  -9.4911  -9.3701  -9.2796  -9.1163  -9.1012
    -8.9974  -8.8411  -8.8322  -8.8201  -7.9303  -7.9150  -7.8182  -7.8121
    -7.7855  -7.7593  -7.7524  -7.7283  -7.7086  -7.6704  -7.6658  -7.6528
     1.1135   1.1159   1.1534   1.1638   1.3769   1.4111   1.4269   1.6620
     1.6729   1.6747   1.7060   1.8987   2.3729   2.4520   2.5830   2.6625
     2.7054   2.8017   4.0923   4.1310   4.2708   4.2852   4.3010   4.3393
     4.6904   4.7496   4.7615   4.7633   4.8750   5.0538   5.0641   5.2846
     5.2993   5.4648   5.4746   5.5335   5.6038   5.6183   5.6414   5.6490
     5.7063   5.8825   5.9200   5.9222   6.0229   6.0402   6.1000   6.1111
     6.2697   6.3732   6.4620   6.4646   6.7480   6.7755   6.7941   6.8029
     6.8516   6.9260   6.9452   6.9691   7.0107   7.0543   7.0583   7.0721
     7.1119   7.1681   7.8652   7.8698   8.0627   8.1081   8.1297   8.1574
     9.5753   9.5879   9.8832   9.8846  10.1584  10.1877  12.2413  12.3165
    12.3251  12.3392  12.4385  12.4515  12.4691  12.5731  12.9923  13.0389
    13.0761  13.3343  13.3345  13.3606  13.8889  14.0046  14.0320  14.0467
    14.2288  14.4383  14.4727  15.0053  15.3954  15.5039  15.5402  16.1406
    16.5011  16.8794  17.1417  17.3670  17.5550

          k = 0.0000 0.0000 0.3333 ( 62268 PWs)   bands (ev):

   -66.1670 -66.1666 -66.1665 -66.1661 -66.1660 -66.1656 -66.1655 -66.1651
   -30.5439 -30.5410 -30.5388 -30.5360 -30.5286 -30.5270 -30.5224 -30.5217
   -30.5212 -30.5160 -30.5110 -30.5073 -30.4744 -30.4715 -30.4649 -30.4643
   -30.4638 -30.4591 -30.4577 -30.4556 -30.4367 -30.4343 -30.4330 -30.4306
   -20.3236 -20.3236 -20.3236 -20.3235 -20.3235 -20.3235 -20.3234 -20.3234
   -20.3029 -20.3027 -20.3025 -20.3023 -20.2999 -20.2999 -20.2996 -20.2996
   -20.2994 -20.2993 -20.2993 -20.2991 -20.2990 -20.2989 -20.2987 -20.2984
   -20.2983 -20.2981 -20.2974 -20.2973 -20.2969 -20.2966 -20.2965 -20.2963
   -20.2924 -20.2922 -20.2917 -20.2916 -20.2902 -20.2901 -20.2894 -20.2893
   -20.2878 -20.2876 -20.2873 -20.2872 -20.2867 -20.2866 -20.2863 -20.2861
   -20.2845 -20.2842 -20.2841 -20.2837 -20.2826 -20.2823 -20.2820 -20.2818
    -9.8326  -9.6221  -9.5899  -9.4081  -9.2993  -9.0313  -9.0125  -8.9933
    -8.9466  -8.8550  -8.7905  -8.7392  -8.2538  -8.2499  -8.1699  -8.1503
    -7.7798  -7.7412  -7.7406  -7.7365  -7.7006  -7.6910  -7.6753  -7.6750
     1.1611   1.1681   1.1758   1.1857   1.5892   1.6180   1.6556   1.6594
     2.1408   2.1912   2.3328   2.4211   2.6059   2.6335   2.6878   2.7194
     2.9081   3.0312   3.6451   3.7273   3.8683   3.9405   4.1775   4.2076
     4.2437   4.4390   4.5104   4.7406   4.8191   4.8287   4.8560   5.0051
     5.0431   5.0834   5.1477   5.3443   5.3985   5.4302   5.6671   5.7511
     5.7946   5.8450   5.8778   5.9715   6.0541   6.1468   6.2029   6.2659
     6.2758   6.4239   6.4278   6.5091   6.5475   6.5779   6.6271   6.7466
     6.7712   6.9101   6.9195   6.9529   7.0053   7.0276   7.0658   7.0818
     7.2872   7.3343   7.7625   7.7812   7.9334   7.9867   8.1425   8.1592
     9.8678   9.8809  10.3209  10.3817  10.8098  10.8848  11.8609  11.9052
    12.1136  12.4750  12.4761  12.5453  12.5930  12.6060  12.6867  12.8348
    13.0042  13.1988  13.2206  13.3683  13.6491  13.6902  14.0162  14.0430
    14.3069  14.4221  14.7880  15.2903  15.3056  15.6912  15.9885  16.0576
    16.3159  17.3900  17.5023  17.6948  17.6998

          k = 0.0000 0.0000-0.5000 ( 62264 PWs)   bands (ev):

   -66.1667 -66.1667 -66.1664 -66.1663 -66.1657 -66.1657 -66.1653 -66.1653
   -30.5425 -30.5424 -30.5374 -30.5374 -30.5244 -30.5244 -30.5237 -30.5237
   -30.4964 -30.4964 -30.4917 -30.4917 -30.4886 -30.4886 -30.4839 -30.4839
   -30.4626 -30.4626 -30.4622 -30.4622 -30.4355 -30.4355 -30.4318 -30.4318
   -20.3236 -20.3236 -20.3235 -20.3235 -20.3235 -20.3235 -20.3234 -20.3234
   -20.3028 -20.3028 -20.3024 -20.3024 -20.2997 -20.2997 -20.2996 -20.2996
   -20.2994 -20.2994 -20.2992 -20.2992 -20.2991 -20.2991 -20.2985 -20.2985
   -20.2982 -20.2982 -20.2974 -20.2974 -20.2967 -20.2967 -20.2965 -20.2965
   -20.2923 -20.2923 -20.2917 -20.2917 -20.2888 -20.2888 -20.2887 -20.2887
   -20.2881 -20.2881 -20.2881 -20.2880 -20.2858 -20.2858 -20.2857 -20.2857
   -20.2854 -20.2854 -20.2851 -20.2851 -20.2823 -20.2823 -20.2821 -20.2821
    -9.7089  -9.7088  -9.4778  -9.4778  -9.1179  -9.1179  -8.8878  -8.8878
    -8.6457  -8.6456  -8.6144  -8.6143  -8.5983  -8.5983  -8.5161  -8.5160
    -7.7588  -7.7588  -7.7177  -7.7177  -7.7056  -7.7056  -7.6880  -7.6880
     1.1696   1.1696   1.1886   1.1886   1.6351   1.6351   1.6435   1.6435
     2.6361   2.6361   2.9316   2.9316   3.0454   3.0455   3.1037   3.1038
     3.1817   3.1817   3.2142   3.2142   3.3788   3.3789   3.7308   3.7309
     3.8545   3.8546   4.3589   4.3589   4.7549   4.7549   4.8842   4.8842
     5.2150   5.2150   5.2322   5.2323   5.2341   5.2342   5.7754   5.7754
     5.8050   5.8050   6.0038   6.0038   6.1266   6.1266   6.2299   6.2299
     6.2690   6.2690   6.3621   6.3621   6.4817   6.4817   6.5313   6.5313
     6.7933   6.7933   6.9140   6.9140   7.0496   7.0496   7.4690   7.4690
     7.5195   7.5195   7.6859   7.6859   7.7214   7.7215   8.1569   8.1569
     9.8752   9.8752  11.1467  11.1467  11.2073  11.2073  11.5550  11.5550
    11.7126  11.7126  12.5126  12.5126  12.7892  12.7892  12.8912  12.8912
    12.9280  12.9280  13.2296  13.2296  13.4237  13.4237  14.0381  14.0381
    14.3862  14.3862  15.0923  15.0923  15.7535  15.7536  15.9082  15.9082
    16.7790  16.7790  17.8923  17.8924  18.0774

          k = 0.0000 0.1575 0.0000 ( 62231 PWs)   bands (ev):

   -66.1672 -66.1669 -66.1662 -66.1662 -66.1659 -66.1659 -66.1652 -66.1649
   -30.5461 -30.5454 -30.5433 -30.5405 -30.5403 -30.5391 -30.5388 -30.5349
   -30.5192 -30.5180 -30.5172 -30.5162 -30.4706 -30.4696 -30.4690 -30.4676
   -30.4399 -30.4384 -30.4376 -30.4362 -30.4347 -30.4345 -30.4323 -30.4295
   -20.3237 -20.3236 -20.3236 -20.3235 -20.3235 -20.3235 -20.3234 -20.3234
   -20.3027 -20.3023 -20.3023 -20.3018 -20.3002 -20.3000 -20.2998 -20.2998
   -20.2995 -20.2994 -20.2990 -20.2988 -20.2988 -20.2987 -20.2987 -20.2983
   -20.2982 -20.2979 -20.2975 -20.2973 -20.2972 -20.2969 -20.2966 -20.2964
   -20.2924 -20.2922 -20.2920 -20.2917 -20.2916 -20.2915 -20.2912 -20.2910
   -20.2873 -20.2872 -20.2871 -20.2870 -20.2869 -20.2869 -20.2867 -20.2866
   -20.2829 -20.2828 -20.2826 -20.2825 -20.2824 -20.2824 -20.2815 -20.2815
    -9.9813  -9.7813  -9.5429  -9.5327  -9.3794  -9.3642  -9.1570  -9.1449
    -8.9148  -8.7894  -8.7886  -8.7874  -7.8793  -7.8201  -7.8166  -7.7980
    -7.7901  -7.7730  -7.7700  -7.7690  -7.6718  -7.6652  -7.6513  -7.6464
     1.0140   1.0156   1.1357   1.1386   1.1545   1.1592   1.4025   1.4865
     1.8574   1.9129   1.9182   2.0442   2.2886   2.3556   2.6438   2.6449
     2.7812   2.7826   3.9832   4.0050   4.0365   4.0607   4.6751   4.6779
     4.6991   4.7052   4.7754   4.9964   5.0305   5.0417   5.0483   5.2882
     5.2973   5.4510   5.4538   5.6053   5.6097   5.6559   5.6730   5.7044
     5.8255   5.8376   5.8859   5.9965   6.0095   6.0174   6.0253   6.1031
     6.1048   6.2597   6.2779   6.4793   6.4987   6.8099   6.8262   6.8821
     6.9014   6.9401   6.9421   6.9513   6.9570   6.9645   7.2832   7.2943
     7.3057   7.3155   7.8742   7.8835   8.0480   8.0620   8.0810   8.0935
     9.2149   9.2196  10.0747  10.0747  10.0889  10.0902  12.1343  12.1607
    12.2958  12.3079  12.3966  12.4047  12.4407  12.4460  13.0173  13.1050
    13.2918  13.3541  13.3719  13.3944  13.9822  14.0186  14.0598  14.0762
    14.2853  14.6375  14.6711  15.0243  15.4546  15.4657  15.8352  16.1304
    16.1325  16.6508  17.2836  17.2956  17.5259

          k = 0.0000 0.1575 0.1667 ( 62237 PWs)   bands (ev):

   -66.1672 -66.1668 -66.1663 -66.1661 -66.1659 -66.1658 -66.1653 -66.1649
   -30.5444 -30.5402 -30.5394 -30.5392 -30.5382 -30.5352 -30.5339 -30.5335
   -30.5178 -30.5176 -30.5166 -30.5165 -30.4701 -30.4701 -30.4692 -30.4685
   -30.4462 -30.4453 -30.4423 -30.4409 -30.4373 -30.4342 -30.4332 -30.4300
   -20.3237 -20.3236 -20.3236 -20.3235 -20.3235 -20.3235 -20.3234 -20.3234
   -20.3027 -20.3023 -20.3022 -20.3019 -20.3002 -20.3000 -20.2997 -20.2997
   -20.2996 -20.2994 -20.2991 -20.2989 -20.2988 -20.2988 -20.2987 -20.2983
   -20.2982 -20.2979 -20.2975 -20.2973 -20.2972 -20.2969 -20.2967 -20.2964
   -20.2924 -20.2920 -20.2920 -20.2915 -20.2914 -20.2913 -20.2907 -20.2905
   -20.2873 -20.2872 -20.2871 -20.2870 -20.2868 -20.2868 -20.2868 -20.2867
   -20.2834 -20.2830 -20.2829 -20.2828 -20.2827 -20.2825 -20.2817 -20.2816
    -9.9297  -9.7256  -9.5481  -9.4632  -9.3767  -9.2859  -9.1152  -9.1022
    -8.9241  -8.7921  -8.7815  -8.7734  -7.9286  -7.9242  -7.8785  -7.8216
    -7.8147  -7.8106  -7.7993  -7.7799  -7.7610  -7.7557  -7.6733  -7.6545
     1.1153   1.1160   1.1582   1.1639   1.3947   1.4111   1.5352   1.6614
     1.8626   1.9099   1.9238   2.0751   2.3784   2.4464   2.6533   2.7361
     2.7730   2.8705   3.9783   4.0034   4.0476   4.0785   4.2901   4.3367
     4.7260   4.7393   4.7462   4.7598   4.7679   5.0202   5.0486   5.2218
     5.2485   5.2908   5.3314   5.4533   5.5589   5.5710   5.6747   5.7050
     5.7568   5.8238   5.8679   5.9325   5.9744   6.0629   6.0999   6.1243
     6.2010   6.3537   6.4416   6.4884   6.7286   6.7886   6.8121   6.8319
     6.8447   6.9218   6.9401   6.9419   6.9769   6.9783   7.0561   7.0585
     7.1311   7.1701   7.8673   7.8701   8.0228   8.0547   8.0550   8.0830
     9.5801   9.5916  10.0763  10.0913  10.3235  10.3405  12.1431  12.2134
    12.2953  12.3146  12.3242  12.3496  12.4552  12.5186  13.0172  13.0566
    13.0965  13.3371  13.3496  13.3706  13.9052  13.9414  14.0061  14.0174
    14.3715  14.6648  14.7883  15.1320  15.5029  15.5411  15.8034  16.1048
    16.4635  16.8062  16.9930  17.4704  17.5969

          k = 0.0000 0.1575 0.3333 ( 62284 PWs)   bands (ev):

   -66.1670 -66.1666 -66.1665 -66.1661 -66.1660 -66.1656 -66.1654 -66.1651
   -30.5432 -30.5404 -30.5390 -30.5362 -30.5265 -30.5244 -30.5211 -30.5190
   -30.5180 -30.5159 -30.5097 -30.5065 -30.4761 -30.4737 -30.4687 -30.4679
   -30.4639 -30.4597 -30.4592 -30.4570 -30.4365 -30.4341 -30.4333 -30.4309
   -20.3236 -20.3236 -20.3236 -20.3235 -20.3235 -20.3235 -20.3234 -20.3234
   -20.3026 -20.3024 -20.3022 -20.3020 -20.3000 -20.2998 -20.2996 -20.2996
   -20.2995 -20.2993 -20.2993 -20.2990 -20.2990 -20.2989 -20.2987 -20.2984
   -20.2982 -20.2981 -20.2975 -20.2973 -20.2972 -20.2969 -20.2968 -20.2966
   -20.2923 -20.2921 -20.2918 -20.2916 -20.2902 -20.2901 -20.2894 -20.2893
   -20.2878 -20.2876 -20.2873 -20.2872 -20.2867 -20.2866 -20.2863 -20.2862
   -20.2845 -20.2842 -20.2840 -20.2838 -20.2826 -20.2823 -20.2820 -20.2819
    -9.8069  -9.5994  -9.5961  -9.4153  -9.2579  -9.0191  -8.9857  -8.9590
    -8.9482  -8.8076  -8.7482  -8.7059  -8.2586  -8.2473  -8.1787  -8.1477
    -7.8564  -7.8305  -7.8009  -7.7760  -7.7572  -7.7383  -7.6956  -7.6767
     1.1679   1.1759   1.1767   1.1857   1.7912   1.8124   1.8900   1.9052
     2.1399   2.2134   2.3328   2.4493   2.6404   2.6743   2.7090   2.7603
     2.9828   3.0955   3.6454   3.7226   3.8543   3.8881   4.0576   4.0852
     4.2355   4.3150   4.5274   4.6897   4.7155   4.7588   4.7624   4.9385
     5.0360   5.0403   5.0789   5.1690   5.3662   5.3800   5.4434   5.6828
     5.7399   5.8171   5.8860   5.9502   5.9663   6.0998   6.1610   6.2025
     6.2975   6.4539   6.5055   6.5406   6.5710   6.6781   6.7400   6.7443
     6.8439   6.8467   6.9207   6.9282   6.9613   7.0060   7.0699   7.0737
     7.2837   7.3300   7.7676   7.7795   7.8994   7.9289   8.0744   8.0854
    10.0709  10.0800  10.3291  10.3861  10.9233  10.9786  11.8611  11.9033
    12.0670  12.3202  12.4581  12.5095  12.5183  12.6147  12.6488  12.7524
    13.0089  13.2073  13.2166  13.3708  13.5501  13.6111  14.0138  14.0175
    14.5421  14.6516  15.1461  15.4104  15.6796  15.7028  16.0108  16.0244
    16.4292  17.2555  17.3430  17.5564  17.8553

          k = 0.0000 0.1575-0.5000 ( 62234 PWs)   bands (ev):

   -66.1667 -66.1667 -66.1664 -66.1664 -66.1657 -66.1657 -66.1654 -66.1654
   -30.5418 -30.5418 -30.5376 -30.5376 -30.5213 -30.5212 -30.5202 -30.5202
   -30.4966 -30.4966 -30.4920 -30.4920 -30.4885 -30.4885 -30.4839 -30.4838
   -30.4662 -30.4662 -30.4655 -30.4655 -30.4353 -30.4353 -30.4321 -30.4321
   -20.3236 -20.3236 -20.3235 -20.3235 -20.3235 -20.3235 -20.3234 -20.3234
   -20.3025 -20.3025 -20.3021 -20.3021 -20.2998 -20.2998 -20.2995 -20.2995
   -20.2993 -20.2993 -20.2993 -20.2993 -20.2991 -20.2991 -20.2986 -20.2986
   -20.2982 -20.2982 -20.2974 -20.2974 -20.2970 -20.2970 -20.2968 -20.2968
   -20.2922 -20.2922 -20.2917 -20.2917 -20.2888 -20.2888 -20.2887 -20.2887
   -20.2881 -20.2881 -20.2881 -20.2880 -20.2858 -20.2858 -20.2857 -20.2857
   -20.2854 -20.2854 -20.2852 -20.2851 -20.2823 -20.2823 -20.2821 -20.2821
    -9.6824  -9.6824  -9.4861  -9.4861  -9.0544  -9.0544  -8.8498  -8.8498
    -8.6489  -8.6488  -8.6213  -8.6212  -8.5868  -8.5868  -8.5048  -8.5048
    -7.8441  -7.8441  -7.7889  -7.7889  -7.7263  -7.7263  -7.7073  -7.7073
     1.1785   1.1785   1.1886   1.1886   1.8300   1.8300   1.9055   1.9055
     2.7027   2.7027   2.9447   2.9447   3.0392   3.0392   3.1281   3.1282
     3.2041   3.2041   3.2115   3.2115   3.3701   3.3702   3.7428   3.7428
     3.9073   3.9074   4.1840   4.1840   4.5927   4.5927   4.7647   4.7647
     5.1057   5.1057   5.2067   5.2068   5.2307   5.2308   5.5078   5.5078
     5.7620   5.7620   5.9269   5.9269   6.1247   6.1247   6.2598   6.2598
     6.2946   6.2946   6.3908   6.3908   6.4703   6.4703   6.7134   6.7134
     6.8691   6.8691   6.9023   6.9023   6.9440   6.9440   7.4833   7.4833
     7.5144   7.5144   7.6635   7.6635   7.6908   7.6908   8.0843   8.0843
    10.0799  10.0799  11.1518  11.1518  11.2058  11.2058  11.6197  11.6197
    11.7730  11.7730  12.3707  12.3707  12.7596  12.7596  12.8554  12.8554
    12.9054  12.9054  13.1400  13.1400  13.4021  13.4021  14.0137  14.0137
    14.6216  14.6216  15.4728  15.4728  15.8769  15.8769  15.8822  15.8822
    16.8232  16.8232  17.6938  17.6939  18.2130

          k = 0.0000 0.3150 0.0000 ( 62175 PWs)   bands (ev):

   -66.1672 -66.1670 -66.1661 -66.1661 -66.1659 -66.1659 -66.1651 -66.1649
   -30.5455 -30.5445 -30.5431 -30.5410 -30.5400 -30.5389 -30.5378 -30.5355
   -30.5095 -30.5081 -30.5073 -30.5058 -30.4812 -30.4799 -30.4793 -30.4776
   -30.4398 -30.4388 -30.4371 -30.4359 -30.4353 -30.4350 -30.4319 -30.4303
   -20.3237 -20.3236 -20.3235 -20.3235 -20.3235 -20.3235 -20.3234 -20.3234
   -20.3019 -20.3014 -20.3014 -20.3010 -20.3005 -20.3000 -20.2998 -20.2997
   -20.2995 -20.2993 -20.2991 -20.2990 -20.2989 -20.2988 -20.2985 -20.2982
   -20.2981 -20.2981 -20.2978 -20.2978 -20.2976 -20.2974 -20.2974 -20.2972
   -20.2923 -20.2922 -20.2919 -20.2918 -20.2917 -20.2916 -20.2912 -20.2911
   -20.2873 -20.2872 -20.2871 -20.2870 -20.2869 -20.2869 -20.2867 -20.2866
   -20.2828 -20.2828 -20.2826 -20.2825 -20.2824 -20.2824 -20.2816 -20.2815
    -9.9248  -9.8117  -9.4878  -9.4759  -9.3992  -9.3845  -9.1544  -9.1474
    -8.7084  -8.6332  -8.6323  -8.6310  -8.1176  -8.0728  -8.0705  -8.0410
    -7.7934  -7.7903  -7.7776  -7.7749  -7.6677  -7.6624  -7.6561  -7.6508
     1.0142   1.0151   1.1385   1.1390   1.1582   1.1594   1.4608   1.4845
     2.3022   2.3411   2.4278   2.5648   2.5743   2.7201   2.8522   2.8605
     2.9766   2.9861   3.5945   3.6181   3.6416   3.6664   4.1660   4.4950
     4.5031   4.6812   4.6830   4.7111   4.7167   4.7911   5.1222   5.1287
     5.1646   5.1723   5.3834   5.3865   5.6597   5.6630   5.6652   5.6686
     5.8833   5.8928   5.9435   5.9451   5.9932   6.0131   6.0170   6.1213
     6.1240   6.2096   6.2381   6.4843   6.5449   6.5570   6.7865   6.7900
     6.8431   6.9244   7.1274   7.1304   7.1320   7.1326   7.2940   7.2947
     7.3162   7.3174   7.8441   7.8534   7.8756   7.8815   7.8869   7.8875
     9.2174   9.2195  10.5544  10.5662  10.6097  10.6155  11.7435  11.7687
    11.8629  11.8740  12.4179  12.4272  12.4383  12.4433  13.0544  13.1044
    13.3925  13.4320  13.4426  13.4644  13.8262  13.8298  13.8307  13.8595
    14.9114  15.2473  15.2531  15.4555  15.4618  15.5634  16.0059  16.0118
    16.0859  16.8436  17.2041  17.7111  17.7249

          k = 0.0000 0.3150 0.1667 ( 62260 PWs)   bands (ev):

   -66.1671 -66.1669 -66.1662 -66.1661 -66.1660 -66.1659 -66.1652 -66.1650
   -30.5430 -30.5407 -30.5389 -30.5382 -30.5380 -30.5359 -30.5335 -30.5329
   -30.5086 -30.5079 -30.5071 -30.5063 -30.4807 -30.4801 -30.4794 -30.4783
   -30.4464 -30.4457 -30.4422 -30.4413 -30.4367 -30.4350 -30.4326 -30.4308
   -20.3237 -20.3236 -20.3235 -20.3235 -20.3235 -20.3235 -20.3234 -20.3234
   -20.3018 -20.3014 -20.3014 -20.3010 -20.3004 -20.2999 -20.2997 -20.2997
   -20.2995 -20.2993 -20.2992 -20.2990 -20.2989 -20.2988 -20.2986 -20.2983
   -20.2982 -20.2980 -20.2979 -20.2978 -20.2976 -20.2974 -20.2974 -20.2972
   -20.2923 -20.2920 -20.2919 -20.2917 -20.2914 -20.2913 -20.2907 -20.2906
   -20.2873 -20.2871 -20.2871 -20.2870 -20.2868 -20.2868 -20.2868 -20.2867
   -20.2833 -20.2830 -20.2828 -20.2827 -20.2827 -20.2826 -20.2817 -20.2817
    -9.8713  -9.7560  -9.4907  -9.4013  -9.3975  -9.3061  -9.1123  -9.1049
    -8.7174  -8.6383  -8.6266  -8.6236  -8.1186  -8.0851  -8.0682  -8.0504
    -7.9238  -7.9064  -7.8063  -7.7925  -7.7776  -7.7658  -7.6705  -7.6589
     1.1162   1.1164   1.1625   1.1640   1.4070   1.4110   1.6274   1.6590
     2.3915   2.4305   2.4316   2.5424   2.5714   2.7061   2.8595   2.9646
     2.9691   3.0834   3.6187   3.6398   3.6576   3.6896   4.1539   4.3012
     4.3217   4.5049   4.5121   4.7392   4.7700   4.7950   4.8167   4.9211
     5.1045   5.1731   5.1829   5.2930   5.4364   5.4374   5.6200   5.6552
     5.7142   5.7529   5.8118   5.9249   6.0489   6.0615   6.0788   6.1173
     6.2087   6.3666   6.3834   6.5450   6.5583   6.7766   6.8224   6.8902
     6.9284   6.9419   7.0387   7.0524   7.0645   7.0746   7.1199   7.1534
     7.2017   7.2034   7.8301   7.8423   7.8497   7.8618   7.8755   7.8895
     9.5874   9.5932  10.5712  10.6154  10.7403  10.7857  11.7681  11.8396
    11.8745  11.9479  12.3076  12.3220  12.4777  12.4977  13.0658  13.0930
    13.1965  13.3705  13.4076  13.4393  13.6685  13.7319  13.8252  13.8305
    15.0313  15.2436  15.4670  15.4976  15.5513  15.6378  15.9831  16.2477
    16.3320  16.8090  17.2769  17.3635  17.7026

          k = 0.0000 0.3150 0.3333 ( 62269 PWs)   bands (ev):

   -66.1669 -66.1667 -66.1664 -66.1662 -66.1659 -66.1657 -66.1654 -66.1652
   -30.5420 -30.5397 -30.5392 -30.5369 -30.5227 -30.5209 -30.5190 -30.5158
   -30.5093 -30.5078 -30.5038 -30.5022 -30.4832 -30.4815 -30.4790 -30.4779
   -30.4641 -30.4628 -30.4595 -30.4589 -30.4359 -30.4341 -30.4335 -30.4318
   -20.3236 -20.3236 -20.3235 -20.3235 -20.3235 -20.3235 -20.3234 -20.3234
   -20.3018 -20.3015 -20.3013 -20.3011 -20.3002 -20.2998 -20.2997 -20.2996
   -20.2993 -20.2993 -20.2992 -20.2991 -20.2989 -20.2988 -20.2988 -20.2985
   -20.2983 -20.2981 -20.2979 -20.2977 -20.2976 -20.2975 -20.2975 -20.2974
   -20.2922 -20.2920 -20.2919 -20.2917 -20.2902 -20.2901 -20.2894 -20.2893
   -20.2878 -20.2877 -20.2873 -20.2872 -20.2867 -20.2867 -20.2863 -20.2862
   -20.2845 -20.2843 -20.2840 -20.2838 -20.2825 -20.2824 -20.2820 -20.2819
    -9.7453  -9.6288  -9.5368  -9.4378  -9.1659  -9.0409  -8.9717  -8.9529
    -8.7563  -8.6604  -8.6084  -8.5861  -8.2837  -8.2383  -8.2356  -8.1388
    -8.0865  -8.0662  -8.0466  -8.0039  -7.7554  -7.7430  -7.6930  -7.6812
     1.1737   1.1759   1.1832   1.1857   2.0945   2.1370   2.2229   2.3292
     2.4389   2.5348   2.5720   2.6517   2.6943   2.7478   2.8793   2.9528
     3.2113   3.2922   3.5756   3.6310   3.6831   3.7197   3.7405   3.7610
     4.1257   4.2965   4.3984   4.4116   4.4776   4.5683   4.5905   4.7178
     4.7529   4.8715   4.9784   5.0540   5.1327   5.2063   5.2412   5.3291
     5.3914   5.5341   5.7220   5.8817   6.1354   6.1571   6.1606   6.2090
     6.3774   6.5008   6.5539   6.5700   6.6330   6.7489   6.7522   6.7571
     6.8771   6.9544   7.0265   7.0540   7.0857   7.1383   7.1760   7.2079
     7.2657   7.3229   7.7488   7.7579   7.7626   7.7806   7.8613   7.8785
    10.3442  10.3502  10.5871  10.6209  11.2342  11.2659  11.7511  11.8598
    11.8975  11.9226  12.1363  12.2043  12.6288  12.6434  12.6763  12.6892
    12.9747  13.1402  13.2211  13.3468  13.4344  13.5081  13.8175  13.8282
    15.1507  15.2269  15.6335  15.8719  15.9124  15.9757  16.1141  16.6902
    16.7477  16.8001  17.1729  17.5360  17.7491

          k = 0.0000 0.3150-0.5000 ( 62306 PWs)   bands (ev):

   -66.1667 -66.1666 -66.1665 -66.1664 -66.1656 -66.1656 -66.1654 -66.1654
   -30.5406 -30.5406 -30.5383 -30.5383 -30.5124 -30.5124 -30.5108 -30.5108
   -30.4976 -30.4976 -30.4936 -30.4936 -30.4877 -30.4877 -30.4835 -30.4835
   -30.4750 -30.4750 -30.4739 -30.4739 -30.4347 -30.4347 -30.4330 -30.4330
   -20.3236 -20.3236 -20.3236 -20.3236 -20.3235 -20.3235 -20.3234 -20.3234
   -20.3017 -20.3017 -20.3012 -20.3012 -20.3000 -20.3000 -20.2995 -20.2995
   -20.2993 -20.2993 -20.2991 -20.2991 -20.2991 -20.2991 -20.2986 -20.2986
   -20.2982 -20.2982 -20.2977 -20.2977 -20.2976 -20.2976 -20.2975 -20.2975
   -20.2921 -20.2921 -20.2918 -20.2918 -20.2888 -20.2888 -20.2888 -20.2887
   -20.2881 -20.2881 -20.2881 -20.2881 -20.2858 -20.2858 -20.2857 -20.2857
   -20.2853 -20.2853 -20.2852 -20.2852 -20.2823 -20.2823 -20.2822 -20.2821
    -9.6207  -9.6207  -9.5119  -9.5119  -8.8905  -8.8905  -8.7547  -8.7546
    -8.6609  -8.6609  -8.6468  -8.6468  -8.5285  -8.5285  -8.4569  -8.4568
    -8.0805  -8.0805  -8.0390  -8.0390  -7.7240  -7.7240  -7.7119  -7.7119
     1.1857   1.1857   1.1886   1.1886   2.4238   2.4238   2.5513   2.5513
     2.8902   2.8902   2.9835   2.9835   3.0222   3.0222   3.1645   3.1645
     3.2045   3.2045   3.2898   3.2898   3.3382   3.3382   3.6186   3.6186
     4.0330   4.0331   4.0935   4.0935   4.0942   4.0942   4.3469   4.3469
     4.8367   4.8367   4.9656   4.9656   5.1842   5.1843   5.1890   5.1890
     5.3430   5.3430   5.7982   5.7982   6.2403   6.2403   6.2775   6.2775
     6.4020   6.4020   6.4490   6.4490   6.4823   6.4823   6.7174   6.7174
     7.0625   7.0625   7.0752   7.0752   7.1169   7.1169   7.4997   7.4997
     7.5043   7.5043   7.5731   7.5731   7.5971   7.5971   7.8692   7.8692
    10.5901  10.5901  11.1625  11.1625  11.2031  11.2031  11.6912  11.6912
    11.9602  11.9602  12.0901  12.0901  12.5916  12.5917  12.6086  12.6086
    12.9254  12.9254  12.9966  12.9966  13.4380  13.4380  13.8198  13.8198
    15.1971  15.1971  15.7919  15.7919  16.2605  16.2605  16.4444  16.4444
    16.9946  16.9946  17.3033  17.3033  18.0264

          k = 0.0000-0.4725 0.0000 ( 62212 PWs)   bands (ev):

   -66.1671 -66.1671 -66.1660 -66.1660 -66.1660 -66.1660 -66.1650 -66.1650
   -30.5449 -30.5449 -30.5421 -30.5421 -30.5394 -30.5394 -30.5366 -30.5366
   -30.4956 -30.4956 -30.4941 -30.4940 -30.4934 -30.4934 -30.4917 -30.4916
   -30.4393 -30.4393 -30.4362 -30.4362 -30.4355 -30.4355 -30.4312 -30.4312
   -20.3237 -20.3237 -20.3235 -20.3235 -20.3235 -20.3235 -20.3234 -20.3234
   -20.3010 -20.3010 -20.3005 -20.3005 -20.3004 -20.3004 -20.2999 -20.2999
   -20.2992 -20.2992 -20.2990 -20.2990 -20.2989 -20.2989 -20.2988 -20.2988
   -20.2981 -20.2981 -20.2980 -20.2980 -20.2978 -20.2978 -20.2975 -20.2975
   -20.2922 -20.2922 -20.2918 -20.2918 -20.2918 -20.2918 -20.2911 -20.2911
   -20.2872 -20.2872 -20.2870 -20.2870 -20.2869 -20.2869 -20.2867 -20.2867
   -20.2827 -20.2827 -20.2827 -20.2827 -20.2824 -20.2824 -20.2816 -20.2816
    -9.8617  -9.8617  -9.4351  -9.4351  -9.4215  -9.4215  -9.1509  -9.1509
    -8.4176  -8.4176  -8.3766  -8.3766  -8.3752  -8.3752  -8.3681  -8.3681
    -7.7885  -7.7885  -7.7799  -7.7799  -7.6620  -7.6620  -7.6567  -7.6567
     1.0146   1.0146   1.1392   1.1392   1.1593   1.1593   1.4787   1.4787
     2.3215   2.3215   3.1402   3.1402   3.1832   3.1832   3.2531   3.2531
     3.2665   3.2665   3.3182   3.3182   3.5287   3.5287   3.5386   3.5387
     3.7215   3.7215   4.6915   4.6915   4.6927   4.6927   5.2632   5.2632
     5.2785   5.2785   5.4049   5.4049   5.4158   5.4158   5.7690   5.7690
     5.7760   5.7760   5.9681   5.9681   5.9948   5.9948   6.1365   6.1365
     6.1593   6.1593   6.2259   6.2259   6.6478   6.6478   6.6541   6.6541
     6.8844   6.8844   7.2889   7.2889   7.3026   7.3026   7.5005   7.5005
     7.5025   7.5025   7.5473   7.5473   7.5502   7.5502   7.8820   7.8820
     9.2188   9.2188  11.1684  11.1684  11.1891  11.1891  11.2474  11.2474
    11.2730  11.2730  12.4316  12.4316  12.4389  12.4389  13.0882  13.0882
    13.5684  13.5684  13.6050  13.6050  13.6066  13.6066  13.6282  13.6282
    15.4534  15.4534  15.5043  15.5043  15.7383  15.7383  15.7470  15.7470
    16.4564  16.4564  17.9412  17.9412  18.0783

          k = 0.0000-0.4725 0.1667 ( 62246 PWs)   bands (ev):

   -66.1670 -66.1670 -66.1661 -66.1661 -66.1660 -66.1660 -66.1651 -66.1651
   -30.5417 -30.5417 -30.5384 -30.5384 -30.5369 -30.5369 -30.5330 -30.5330
   -30.4949 -30.4949 -30.4940 -30.4940 -30.4934 -30.4934 -30.4922 -30.4922
   -30.4461 -30.4461 -30.4418 -30.4418 -30.4359 -30.4359 -30.4318 -30.4318
   -20.3236 -20.3236 -20.3235 -20.3235 -20.3235 -20.3235 -20.3234 -20.3234
   -20.3009 -20.3009 -20.3005 -20.3005 -20.3004 -20.3004 -20.2999 -20.2999
   -20.2992 -20.2992 -20.2990 -20.2990 -20.2989 -20.2989 -20.2988 -20.2988
   -20.2982 -20.2982 -20.2981 -20.2981 -20.2978 -20.2978 -20.2975 -20.2975
   -20.2922 -20.2922 -20.2918 -20.2918 -20.2914 -20.2914 -20.2906 -20.2906
   -20.2872 -20.2872 -20.2871 -20.2871 -20.2868 -20.2868 -20.2868 -20.2868
   -20.2832 -20.2832 -20.2828 -20.2828 -20.2826 -20.2826 -20.2817 -20.2817
    -9.8068  -9.8068  -9.4354  -9.4354  -9.3438  -9.3438  -9.1086  -9.1086
    -8.4226  -8.4226  -8.3842  -8.3842  -8.3712  -8.3712  -8.3698  -8.3698
    -7.9169  -7.9169  -7.8002  -7.8002  -7.7720  -7.7720  -7.6649  -7.6649
     1.1164   1.1164   1.1639   1.1639   1.4103   1.4103   1.6516   1.6516
     2.4119   2.4119   3.1570   3.1570   3.1915   3.1915   3.2636   3.2636
     3.3016   3.3016   3.3177   3.3177   3.5314   3.5314   3.5736   3.5736
     3.7454   3.7454   4.3178   4.3178   4.7484   4.7484   4.9988   4.9988
     5.1742   5.1742   5.2474   5.2474   5.4202   5.4202   5.4888   5.4888
     5.7431   5.7431   5.7604   5.7604   6.0706   6.0706   6.1197   6.1197
     6.3413   6.3413   6.3773   6.3773   6.6419   6.6419   6.8658   6.8658
     6.9629   6.9629   7.0513   7.0513   7.1200   7.1200   7.4883   7.4883
     7.5087   7.5087   7.5304   7.5304   7.5399   7.5399   7.8728   7.8728
     9.5917   9.5917  11.1931  11.1931  11.2609  11.2609  11.3005  11.3005
    11.3778  11.3778  12.3160  12.3160  12.4901  12.4901  13.1033  13.1033
    13.3867  13.3867  13.4740  13.4740  13.6001  13.6001  13.6263  13.6263
    15.4529  15.4529  15.7092  15.7092  15.7308  15.7308  16.0332  16.0332
    16.5244  16.5244  17.8782  17.8783  18.0425

          k = 0.0000-0.4725 0.3333 ( 62268 PWs)   bands (ev):

   -66.1668 -66.1668 -66.1663 -66.1663 -66.1658 -66.1658 -66.1653 -66.1653
   -30.5407 -30.5407 -30.5380 -30.5380 -30.5210 -30.5210 -30.5162 -30.5162
   -30.4959 -30.4959 -30.4942 -30.4942 -30.4923 -30.4923 -30.4911 -30.4911
   -30.4640 -30.4640 -30.4596 -30.4596 -30.4351 -30.4351 -30.4327 -30.4327
   -20.3236 -20.3236 -20.3235 -20.3235 -20.3235 -20.3235 -20.3234 -20.3234
   -20.3008 -20.3008 -20.3005 -20.3005 -20.3003 -20.3003 -20.3000 -20.3000
   -20.2992 -20.2992 -20.2990 -20.2990 -20.2989 -20.2989 -20.2987 -20.2987
   -20.2985 -20.2985 -20.2983 -20.2982 -20.2978 -20.2978 -20.2976 -20.2976
   -20.2921 -20.2921 -20.2919 -20.2919 -20.2902 -20.2902 -20.2894 -20.2894
   -20.2877 -20.2877 -20.2873 -20.2873 -20.2867 -20.2867 -20.2862 -20.2862
   -20.2844 -20.2844 -20.2839 -20.2839 -20.2825 -20.2825 -20.2820 -20.2819
    -9.6790  -9.6790  -9.4784  -9.4784  -9.0863  -9.0863  -8.9606  -8.9606
    -8.4711  -8.4711  -8.4311  -8.4311  -8.3690  -8.3690  -8.3552  -8.3552
    -8.2100  -8.2100  -8.1153  -8.1153  -7.7494  -7.7494  -7.6873  -7.6873
     1.1756   1.1756   1.1852   1.1852   2.1298   2.1298   2.3132   2.3132
     2.6748   2.6748   3.1684   3.1684   3.2164   3.2164   3.2667   3.2667
     3.2925   3.2925   3.4060   3.4060   3.5105   3.5105   3.7026   3.7026
     3.7124   3.7124   3.7911   3.7911   4.4647   4.4647   4.6132   4.6132
     4.7832   4.7832   4.8224   4.8224   5.1102   5.1102   5.2721   5.2721
     5.4565   5.4565   5.6592   5.6592   6.1634   6.1634   6.2082   6.2082
     6.4768   6.4768   6.5714   6.5714   6.6259   6.6259   6.7650   6.7650
     6.9646   6.9646   7.1815   7.1815   7.1883   7.1883   7.4601   7.4601
     7.4880   7.4880   7.5191   7.5191   7.5305   7.5305   7.7869   7.7869
    10.3548  10.3548  11.2057  11.2057  11.2471  11.2471  11.6824  11.6824
    11.7397  11.7397  11.8942  11.8942  12.6549  12.6549  12.8159  12.8159
    12.8997  12.8997  13.2483  13.2483  13.5890  13.5890  13.6103  13.6103
    15.5007  15.5007  15.6759  15.6759  16.3164  16.3164  16.7559  16.7559
    16.7871  16.7871  17.3512  17.3512  17.8910

          k = 0.0000-0.4725-0.5000 ( 62284 PWs)   bands (ev):

   -66.1666 -66.1665 -66.1665 -66.1665 -66.1655 -66.1655 -66.1655 -66.1655
   -30.5393 -30.5393 -30.5393 -30.5393 -30.5022 -30.5022 -30.5022 -30.5022
   -30.4999 -30.4999 -30.4999 -30.4999 -30.4841 -30.4841 -30.4841 -30.4840
   -30.4812 -30.4812 -30.4812 -30.4812 -30.4339 -30.4339 -30.4339 -30.4339
   -20.3236 -20.3236 -20.3236 -20.3236 -20.3235 -20.3235 -20.3235 -20.3235
   -20.3006 -20.3006 -20.3006 -20.3006 -20.3002 -20.3002 -20.3002 -20.3002
   -20.2991 -20.2991 -20.2991 -20.2991 -20.2987 -20.2987 -20.2987 -20.2987
   -20.2985 -20.2985 -20.2985 -20.2985 -20.2977 -20.2977 -20.2977 -20.2977
   -20.2920 -20.2920 -20.2920 -20.2920 -20.2888 -20.2888 -20.2888 -20.2888
   -20.2881 -20.2881 -20.2881 -20.2881 -20.2858 -20.2858 -20.2858 -20.2858
   -20.2853 -20.2853 -20.2853 -20.2853 -20.2822 -20.2822 -20.2822 -20.2822
    -9.5575  -9.5575  -9.5575  -9.5575  -8.7264  -8.7264  -8.7264  -8.7264
    -8.6839  -8.6839  -8.6839  -8.6839  -8.3487  -8.3487  -8.3487  -8.3487
    -8.3090  -8.3090  -8.3090  -8.3090  -7.7181  -7.7181  -7.7181  -7.7181
     1.1880   1.1880   1.1880   1.1880   2.9606   2.9606   2.9607   2.9607
     3.0937   3.0938   3.0938   3.0938   3.1878   3.1878   3.1878   3.1878
     3.2590   3.2590   3.2590   3.2590   3.4259   3.4259   3.4259   3.4259
     3.6169   3.6170   3.6170   3.6170   4.3027   4.3027   4.3027   4.3027
     4.4125   4.4125   4.4126   4.4126   5.1807   5.1807   5.1807   5.1807
     5.5316   5.5316   5.5316   5.5316   6.2760   6.2760   6.2761   6.2761
     6.4495   6.4495   6.4495   6.4495   6.5771   6.5771   6.5771   6.5771
     7.3024   7.3024   7.3024   7.3024   7.3866   7.3866   7.3866   7.3866
     7.4623   7.4623   7.4623   7.4623   7.5989   7.5989   7.5989   7.5989
    11.1332  11.1332  11.1332  11.1332  11.2761  11.2761  11.2761  11.2761
    12.2551  12.2551  12.2551  12.2551  12.2790  12.2790  12.2790  12.2790
    12.9446  12.9446  12.9446  12.9446  13.5923  13.5923  13.5923  13.5923
    15.5949  15.5949  15.5949  15.5949  16.8624  16.8624  16.8624  16.8624
    17.4253  17.4260  17.4261  17.4262  17.5297

          k = 0.1667 0.0000 0.1667 ( 62234 PWs)   bands (ev):

   -66.1671 -66.1667 -66.1662 -66.1662 -66.1658 -66.1658 -66.1654 -66.1650
   -30.5408 -30.5392 -30.5368 -30.5357 -30.5344 -30.5342 -30.5326 -30.5291
   -30.5209 -30.5201 -30.5189 -30.5185 -30.4665 -30.4663 -30.4658 -30.4657
   -30.4461 -30.4450 -30.4445 -30.4423 -30.4422 -30.4397 -30.4392 -30.4354
   -20.3237 -20.3236 -20.3236 -20.3235 -20.3235 -20.3235 -20.3234 -20.3234
   -20.3030 -20.3026 -20.3026 -20.3023 -20.3001 -20.3000 -20.2998 -20.2997
   -20.2995 -20.2993 -20.2991 -20.2989 -20.2989 -20.2987 -20.2986 -20.2983
   -20.2982 -20.2980 -20.2975 -20.2973 -20.2969 -20.2966 -20.2964 -20.2961
   -20.2920 -20.2918 -20.2916 -20.2913 -20.2911 -20.2909 -20.2907 -20.2905
   -20.2875 -20.2874 -20.2872 -20.2871 -20.2867 -20.2867 -20.2866 -20.2865
   -20.2835 -20.2832 -20.2831 -20.2829 -20.2829 -20.2827 -20.2820 -20.2819
    -9.9010  -9.6563  -9.5069  -9.4986  -9.2920  -9.2771  -9.0768  -9.0627
    -9.0070  -8.8249  -8.8237  -8.8209  -7.9255  -7.9223  -7.9009  -7.8977
    -7.8396  -7.8381  -7.7981  -7.7746  -7.7538  -7.7127  -7.7124  -7.6697
     1.2871   1.2901   1.3780   1.3909   1.4161   1.4318   1.4534   1.6668
     1.7002   1.7077   1.7620   1.9701   2.4644   2.5463   2.6702   2.6726
     2.7816   2.8067   4.0827   4.0957   4.2395   4.2412   4.4015   4.4053
     4.4064   4.4114   4.6744   4.6899   4.7100   4.8146   5.0173   5.2250
     5.2399   5.2979   5.3267   5.5052   5.5258   5.5976   5.6010   5.7054
     5.7075   5.7653   5.7691   5.8618   5.9282   6.0479   6.2800   6.3884
     6.3951   6.4430   6.4975   6.6269   6.6367   6.7435   6.7601   6.7832
     6.7910   6.7972   6.8019   6.8202   6.8953   6.9642   6.9687   7.0567
     7.1952   7.2468   7.8559   7.8560   8.0607   8.0989   8.1155   8.1306
     9.8117   9.8642  10.1333  10.1583  10.1633  10.2444  12.2945  12.3142
    12.3431  12.3599  12.3673  12.3810  12.5462  12.5576  12.9437  13.0063
    13.0636  13.1581  13.2554  13.4005  13.8945  13.9468  14.0024  14.0461
    14.1608  14.4648  14.5021  15.1380  15.3628  15.6109  15.6236  16.4681
    16.4697  17.0507  17.0549  17.2798  17.6035

          k = 0.1667 0.0000 0.3333 ( 62265 PWs)   bands (ev):

   -66.1669 -66.1665 -66.1664 -66.1661 -66.1660 -66.1657 -66.1655 -66.1652
   -30.5388 -30.5362 -30.5323 -30.5306 -30.5281 -30.5250 -30.5222 -30.5208
   -30.5201 -30.5163 -30.5106 -30.5075 -30.4742 -30.4718 -30.4654 -30.4645
   -30.4635 -30.4594 -30.4583 -30.4559 -30.4431 -30.4410 -30.4391 -30.4368
   -20.3236 -20.3236 -20.3235 -20.3235 -20.3235 -20.3235 -20.3235 -20.3234
   -20.3029 -20.3027 -20.3026 -20.3024 -20.2999 -20.2999 -20.2997 -20.2996
   -20.2995 -20.2993 -20.2992 -20.2991 -20.2990 -20.2988 -20.2986 -20.2983
   -20.2983 -20.2981 -20.2975 -20.2974 -20.2969 -20.2966 -20.2965 -20.2963
   -20.2919 -20.2917 -20.2913 -20.2912 -20.2901 -20.2900 -20.2894 -20.2893
   -20.2879 -20.2877 -20.2872 -20.2872 -20.2869 -20.2868 -20.2862 -20.2860
   -20.2846 -20.2843 -20.2841 -20.2838 -20.2830 -20.2828 -20.2824 -20.2823
    -9.7713  -9.5483  -9.5148  -9.3170  -9.3144  -9.0429  -9.0256  -8.9590
    -8.9232  -8.8339  -8.7858  -8.7439  -8.2452  -8.2417  -8.1842  -8.1602
    -7.8952  -7.8750  -7.8344  -7.8155  -7.7483  -7.7229  -7.7044  -7.6791
     1.3921   1.3952   1.4471   1.4488   1.6089   1.6205   1.6510   1.6969
     2.1463   2.1963   2.3221   2.4157   2.6933   2.7353   2.7782   2.8301
     2.9140   3.0296   3.6992   3.8011   3.8793   3.9216   4.1645   4.2177
     4.2350   4.4281   4.4850   4.5786   4.5856   4.6605   4.6825   4.8307
     4.9628   4.9694   5.0212   5.1528   5.2211   5.3479   5.5802   5.6307
     5.7252   5.7904   5.8450   5.9107   5.9261   6.0117   6.1046   6.1071
     6.4053   6.4715   6.5345   6.5583   6.6024   6.6568   6.7276   6.7627
     6.7674   6.8540   6.8583   6.8667   7.0512   7.0950   7.1167   7.1569
     7.2956   7.3567   7.7680   7.7793   7.9496   7.9884   8.1072   8.1178
    10.1392  10.1473  10.4707  10.5293  10.8161  10.9044  11.9207  11.9606
    12.1606  12.4645  12.4913  12.5129  12.5463  12.5509  12.7317  12.8030
    12.9229  13.1073  13.1159  13.2822  13.6298  13.6549  13.9393  13.9691
    14.3066  14.4764  14.7733  15.2609  15.4605  15.9143  16.0935  16.3779
    16.4690  17.3618  17.5087  17.6232  17.6998

          k = 0.1667 0.0000-0.5000 ( 62322 PWs)   bands (ev):

   -66.1667 -66.1667 -66.1663 -66.1663 -66.1658 -66.1658 -66.1654 -66.1654
   -30.5374 -30.5374 -30.5314 -30.5314 -30.5242 -30.5242 -30.5219 -30.5219
   -30.4961 -30.4961 -30.4920 -30.4920 -30.4883 -30.4883 -30.4842 -30.4842
   -30.4634 -30.4634 -30.4622 -30.4622 -30.4421 -30.4420 -30.4380 -30.4380
   -20.3236 -20.3236 -20.3235 -20.3235 -20.3235 -20.3235 -20.3234 -20.3234
   -20.3028 -20.3028 -20.3025 -20.3025 -20.2997 -20.2997 -20.2996 -20.2996
   -20.2994 -20.2994 -20.2992 -20.2992 -20.2990 -20.2990 -20.2985 -20.2984
   -20.2983 -20.2982 -20.2974 -20.2974 -20.2967 -20.2967 -20.2965 -20.2965
   -20.2918 -20.2918 -20.2912 -20.2912 -20.2888 -20.2888 -20.2887 -20.2887
   -20.2881 -20.2881 -20.2880 -20.2880 -20.2860 -20.2860 -20.2858 -20.2858
   -20.2853 -20.2853 -20.2851 -20.2851 -20.2827 -20.2827 -20.2825 -20.2825
    -9.6391  -9.6391  -9.3899  -9.3899  -9.1320  -9.1320  -8.8628  -8.8628
    -8.6416  -8.6416  -8.6330  -8.6330  -8.5820  -8.5819  -8.5192  -8.5192
    -7.8653  -7.8653  -7.8447  -7.8447  -7.7363  -7.7363  -7.6919  -7.6919
     1.3960   1.3960   1.4605   1.4605   1.6346   1.6346   1.6808   1.6808
     2.7171   2.7171   2.9508   2.9508   3.0279   3.0279   3.1369   3.1369
     3.1898   3.1898   3.3027   3.3027   3.4266   3.4267   3.7455   3.7455
     3.8465   3.8465   4.3386   4.3386   4.5727   4.5727   4.8165   4.8165
     4.9335   4.9335   4.9626   4.9626   5.1732   5.1732   5.6804   5.6804
     5.7337   5.7337   5.8178   5.8178   5.9040   5.9040   6.0530   6.0530
     6.3554   6.3555   6.5047   6.5047   6.6659   6.6659   6.7656   6.7656
     6.7782   6.7782   6.9217   6.9217   6.9758   6.9758   7.5106   7.5106
     7.5396   7.5396   7.6965   7.6965   7.7260   7.7260   8.1171   8.1171
    10.1513  10.1513  11.2279  11.2279  11.2898  11.2898  11.5735  11.5735
    11.7248  11.7248  12.5764  12.5764  12.7034  12.7034  12.7797  12.7797
    12.9323  12.9323  13.2018  13.2018  13.3058  13.3058  13.9522  13.9522
    14.4212  14.4212  15.0689  15.0689  15.9117  15.9117  16.2013  16.2013
    16.8939  16.8939  17.8941  17.8943  17.9557

          k = 0.1667 0.1575 0.1667 ( 62255 PWs)   bands (ev):

   -66.1671 -66.1667 -66.1662 -66.1662 -66.1659 -66.1659 -66.1653 -66.1650
   -30.5397 -30.5390 -30.5367 -30.5350 -30.5341 -30.5337 -30.5326 -30.5292
   -30.5172 -30.5170 -30.5159 -30.5158 -30.4701 -30.4698 -30.4697 -30.4692
   -30.4462 -30.4451 -30.4445 -30.4423 -30.4423 -30.4401 -30.4391 -30.4359
   -20.3237 -20.3236 -20.3236 -20.3235 -20.3235 -20.3235 -20.3234 -20.3234
   -20.3027 -20.3023 -20.3023 -20.3019 -20.3002 -20.3000 -20.2998 -20.2998
   -20.2995 -20.2993 -20.2991 -20.2989 -20.2988 -20.2988 -20.2986 -20.2983
   -20.2982 -20.2980 -20.2976 -20.2974 -20.2972 -20.2970 -20.2967 -20.2965
   -20.2919 -20.2918 -20.2915 -20.2913 -20.2911 -20.2910 -20.2907 -20.2905
   -20.2875 -20.2874 -20.2872 -20.2872 -20.2867 -20.2867 -20.2866 -20.2865
   -20.2834 -20.2832 -20.2831 -20.2829 -20.2829 -20.2827 -20.2820 -20.2820
    -9.8759  -9.6663  -9.4788  -9.4697  -9.2985  -9.2838  -9.0759  -9.0635
    -8.9339  -8.7781  -8.7753  -8.7742  -7.9329  -7.9206  -7.9065  -7.9060
    -7.8784  -7.8403  -7.8260  -7.8123  -7.8076  -7.7869  -7.7736  -7.7566
     1.2874   1.2898   1.3982   1.4131   1.4166   1.4340   1.5883   1.7608
     1.8641   1.9167   1.9223   2.1080   2.4703   2.5412   2.7435   2.7450
     2.8532   2.8723   3.9720   3.9958   4.0666   4.0748   4.3594   4.3689
     4.4046   4.4100   4.6766   4.6903   4.7406   4.8046   4.8522   5.1662
     5.1996   5.2538   5.2710   5.3179   5.3326   5.5613   5.5633   5.6643
     5.7139   5.7353   5.8593   5.8702   5.8773   5.9708   6.2772   6.3452
     6.3511   6.3978   6.4806   6.6006   6.6408   6.7144   6.7559   6.7746
     6.7875   6.8475   6.8632   6.8744   6.9390   6.9567   6.9676   7.0652
     7.1991   7.2470   7.8560   7.8568   8.0086   8.0456   8.0467   8.0557
     9.8289   9.8642  10.2917  10.3246  10.3347  10.3887  12.1859  12.2303
    12.3209  12.3228  12.3507  12.3540  12.4334  12.4382  12.9783  13.0261
    13.0767  13.1678  13.2567  13.4053  13.8661  13.8768  13.9046  13.9650
    14.4440  14.7804  14.7926  15.2535  15.6118  15.6224  15.7723  16.4308
    16.4345  16.9258  17.1456  17.1496  17.6006

          k = 0.1667 0.1575 0.3333 ( 62260 PWs)   bands (ev):

   -66.1669 -66.1666 -66.1664 -66.1661 -66.1660 -66.1657 -66.1655 -66.1652
   -30.5377 -30.5352 -30.5324 -30.5305 -30.5258 -30.5234 -30.5207 -30.5184
   -30.5172 -30.5162 -30.5094 -30.5066 -30.4759 -30.4740 -30.4689 -30.4683
   -30.4636 -30.4600 -30.4596 -30.4574 -30.4430 -30.4408 -30.4395 -30.4373
   -20.3236 -20.3236 -20.3235 -20.3235 -20.3235 -20.3235 -20.3235 -20.3234
   -20.3026 -20.3024 -20.3022 -20.3020 -20.3000 -20.2998 -20.2996 -20.2996
   -20.2996 -20.2993 -20.2992 -20.2991 -20.2990 -20.2989 -20.2986 -20.2983
   -20.2983 -20.2981 -20.2975 -20.2974 -20.2972 -20.2970 -20.2968 -20.2966
   -20.2919 -20.2917 -20.2914 -20.2912 -20.2901 -20.2900 -20.2894 -20.2893
   -20.2879 -20.2877 -20.2872 -20.2872 -20.2869 -20.2868 -20.2862 -20.2860
   -20.2846 -20.2843 -20.2841 -20.2838 -20.2830 -20.2828 -20.2824 -20.2823
    -9.7437  -9.5246  -9.5191  -9.3234  -9.2742  -9.0324  -8.9717  -8.9533
    -8.9238  -8.7896  -8.7432  -8.7105  -8.2500  -8.2392  -8.1937  -8.1574
    -7.8976  -7.8855  -7.8496  -7.8417  -7.8151  -7.8076  -7.7981  -7.7700
     1.4214   1.4282   1.4468   1.4487   1.7967   1.8106   1.8815   1.9139
     2.1455   2.2179   2.3221   2.4414   2.7457   2.7636   2.8216   2.8500
     2.9878   3.0926   3.6967   3.7951   3.8590   3.8882   4.0581   4.1231
     4.2307   4.3239   4.4842   4.5562   4.5834   4.6470   4.6804   4.7691
     4.8414   4.8656   4.8904   5.1281   5.1482   5.1798   5.3331   5.6001
     5.6636   5.6903   5.7540   5.8452   5.9156   5.9300   6.0596   6.0993
     6.3356   6.5090   6.5266   6.6555   6.7058   6.7132   6.7308   6.7478
     6.8227   6.8661   6.9094   6.9535   7.0424   7.0961   7.1121   7.1689
     7.2895   7.3522   7.7698   7.7768   7.9041   7.9305   8.0438   8.0496
    10.2879  10.3173  10.4885  10.5404  10.9290  10.9950  11.9205  11.9575
    12.1252  12.3968  12.4304  12.4612  12.5107  12.5423  12.6694  12.6968
    12.9497  13.0885  13.1128  13.2911  13.5245  13.5627  13.8775  13.9019
    14.6257  14.7716  15.1344  15.5383  15.6884  15.9079  16.1059  16.3449
    16.5646  17.3111  17.3190  17.5627  17.6660

          k = 0.1667 0.1575-0.5000 ( 62292 PWs)   bands (ev):

   -66.1667 -66.1666 -66.1663 -66.1663 -66.1658 -66.1658 -66.1654 -66.1654
   -30.5363 -30.5363 -30.5315 -30.5315 -30.5207 -30.5207 -30.5192 -30.5192
   -30.4963 -30.4963 -30.4923 -30.4923 -30.4882 -30.4882 -30.4842 -30.4842
   -30.4667 -30.4667 -30.4656 -30.4656 -30.4419 -30.4419 -30.4385 -30.4385
   -20.3236 -20.3236 -20.3235 -20.3235 -20.3235 -20.3235 -20.3234 -20.3234
   -20.3025 -20.3025 -20.3021 -20.3021 -20.2998 -20.2998 -20.2995 -20.2995
   -20.2994 -20.2993 -20.2993 -20.2993 -20.2990 -20.2990 -20.2985 -20.2985
   -20.2982 -20.2982 -20.2975 -20.2975 -20.2970 -20.2970 -20.2968 -20.2968
   -20.2918 -20.2918 -20.2913 -20.2913 -20.2888 -20.2888 -20.2887 -20.2887
   -20.2881 -20.2881 -20.2880 -20.2880 -20.2860 -20.2859 -20.2858 -20.2858
   -20.2853 -20.2853 -20.2851 -20.2851 -20.2827 -20.2827 -20.2825 -20.2825
    -9.6099  -9.6099  -9.3984  -9.3984  -9.0691  -9.0691  -8.8273  -8.8273
    -8.6453  -8.6453  -8.6356  -8.6355  -8.5740  -8.5739  -8.5082  -8.5081
    -7.8738  -7.8738  -7.8542  -7.8542  -7.8213  -7.8213  -7.7849  -7.7849
     1.4323   1.4323   1.4602   1.4602   1.8347   1.8347   1.9078   1.9078
     2.7830   2.7830   2.9659   2.9659   3.0345   3.0345   3.1501   3.1501
     3.1957   3.1957   3.3149   3.3149   3.4192   3.4192   3.7595   3.7595
     3.8994   3.8994   4.1930   4.1930   4.5451   4.5451   4.6628   4.6628
     4.8705   4.8705   4.9297   4.9297   5.0203   5.0203   5.4593   5.4593
     5.7074   5.7074   5.7510   5.7510   5.8402   5.8402   5.9407   5.9407
     6.4660   6.4660   6.6332   6.6332   6.6649   6.6650   6.7587   6.7587
     6.8575   6.8575   6.9078   6.9078   7.0191   7.0191   7.5132   7.5133
     7.5346   7.5346   7.6691   7.6691   7.6947   7.6947   8.0497   8.0497
    10.3194  10.3194  11.2333  11.2333  11.2896  11.2897  11.6397  11.6397
    11.7847  11.7847  12.4336  12.4336  12.6925  12.6925  12.7563  12.7563
    12.9111  12.9111  13.1025  13.1025  13.2574  13.2574  13.8840  13.8840
    14.7275  14.7275  15.4539  15.4540  16.0153  16.0153  16.1781  16.1781
    16.9273  16.9273  17.7139  17.7139  17.9607

          k = 0.1667 0.3150 0.1667 ( 62249 PWs)   bands (ev):

   -66.1670 -66.1668 -66.1661 -66.1661 -66.1659 -66.1659 -66.1653 -66.1651
   -30.5385 -30.5381 -30.5363 -30.5345 -30.5338 -30.5333 -30.5318 -30.5297
   -30.5077 -30.5075 -30.5068 -30.5066 -30.4802 -30.4801 -30.4795 -30.4789
   -30.4462 -30.4455 -30.4441 -30.4427 -30.4422 -30.4409 -30.4387 -30.4369
   -20.3237 -20.3236 -20.3236 -20.3235 -20.3235 -20.3235 -20.3234 -20.3234
   -20.3018 -20.3015 -20.3014 -20.3010 -20.3004 -20.3000 -20.2998 -20.2997
   -20.2995 -20.2992 -20.2992 -20.2989 -20.2988 -20.2987 -20.2986 -20.2983
   -20.2983 -20.2981 -20.2979 -20.2978 -20.2977 -20.2975 -20.2974 -20.2973
   -20.2919 -20.2918 -20.2915 -20.2914 -20.2912 -20.2911 -20.2907 -20.2906
   -20.2874 -20.2873 -20.2873 -20.2872 -20.2867 -20.2867 -20.2866 -20.2865
   -20.2834 -20.2832 -20.2831 -20.2829 -20.2829 -20.2828 -20.2821 -20.2820
    -9.8153  -9.6971  -9.4164  -9.4052  -9.3192  -9.3051  -9.0732  -9.0661
    -8.7272  -8.6294  -8.6282  -8.6219  -8.1220  -8.0821  -8.0802  -8.0594
    -7.9158  -7.9095  -7.8970  -7.8924  -7.8295  -7.8115  -7.7899  -7.7789
     1.2877   1.2891   1.4116   1.4159   1.4288   1.4340   1.7172   1.7580
     2.4307   2.4850   2.5215   2.5413   2.5477   2.6917   2.9651   2.9710
     3.0649   3.0808   3.6356   3.6553   3.6733   3.7224   4.1454   4.3562
     4.3629   4.3797   4.3910   4.5204   4.5362   4.7797   4.7842   4.8857
     4.9258   4.9369   5.1052   5.1410   5.3263   5.3737   5.4371   5.4379
     5.6883   5.7068   5.7236   5.7277   5.8385   5.8389   6.3012   6.3354
     6.3992   6.4030   6.4571   6.5990   6.6604   6.6836   6.8104   6.8184
     6.8910   6.8950   6.9849   6.9972   7.0917   7.1098   7.1311   7.1416
     7.2401   7.2653   7.8179   7.8281   7.8335   7.8493   7.8615   7.8839
     9.8490   9.8627  10.7188  10.7625  10.7888  10.8072  11.8249  11.8742
    11.9492  11.9560  12.3563  12.3602  12.3841  12.3869  13.0570  13.0635
    13.1846  13.2383  13.2761  13.4339  13.6401  13.6643  13.6732  13.7660
    15.1854  15.4461  15.4625  15.6175  15.6212  15.7131  16.3004  16.3067
    16.3670  16.7758  17.3344  17.4583  17.4608

          k = 0.1667 0.3150 0.3333 ( 62265 PWs)   bands (ev):

   -66.1668 -66.1666 -66.1663 -66.1661 -66.1660 -66.1658 -66.1654 -66.1653
   -30.5358 -30.5337 -30.5327 -30.5308 -30.5222 -30.5205 -30.5189 -30.5161
   -30.5084 -30.5082 -30.5036 -30.5022 -30.4829 -30.4819 -30.4786 -30.4785
   -30.4638 -30.4627 -30.4598 -30.4594 -30.4425 -30.4408 -30.4400 -30.4383
   -20.3236 -20.3236 -20.3235 -20.3235 -20.3235 -20.3235 -20.3234 -20.3234
   -20.3018 -20.3015 -20.3014 -20.3011 -20.3002 -20.2999 -20.2998 -20.2995
   -20.2994 -20.2993 -20.2991 -20.2991 -20.2989 -20.2988 -20.2987 -20.2984
   -20.2983 -20.2981 -20.2979 -20.2977 -20.2977 -20.2976 -20.2975 -20.2974
   -20.2918 -20.2916 -20.2915 -20.2913 -20.2901 -20.2900 -20.2894 -20.2893
   -20.2879 -20.2878 -20.2872 -20.2872 -20.2869 -20.2868 -20.2862 -20.2861
   -20.2845 -20.2844 -20.2840 -20.2838 -20.2829 -20.2828 -20.2824 -20.2823
    -9.6778  -9.5549  -9.4530  -9.3465  -9.1821  -9.0549  -8.9434  -8.9293
    -8.7679  -8.6490  -8.6040  -8.5911  -8.2759  -8.2519  -8.2304  -8.1479
    -8.0842  -8.0731  -8.0475  -8.0098  -7.8852  -7.8700  -7.8243  -7.8111
     1.4394   1.4431   1.4468   1.4489   2.0992   2.1425   2.2143   2.3194
     2.4383   2.5365   2.5482   2.6857   2.7640   2.8344   2.9813   3.0544
     3.2131   3.2881   3.6139   3.6543   3.6850   3.7448   3.7800   3.8648
     4.1190   4.2973   4.3867   4.4166   4.4516   4.5111   4.5646   4.6018
     4.6169   4.8122   4.8236   4.8681   4.9165   4.9620   5.0987   5.1591
     5.3037   5.3549   5.4713   5.6561   5.7466   5.8414   6.0862   6.0999
     6.4760   6.5679   6.6046   6.7398   6.7783   6.7904   6.9151   6.9438
     6.9785   7.0177   7.0357   7.0576   7.1059   7.1610   7.1990   7.2409
     7.2759   7.3418   7.7456   7.7519   7.7587   7.7797   7.8401   7.8641
    10.4735  10.4984  10.7721  10.7946  11.2432  11.2782  11.8368  11.9054
    11.9409  12.0338  12.1406  12.1994  12.5174  12.5836  12.6559  12.6857
    12.9595  13.0951  13.1048  13.2934  13.3358  13.3803  13.6587  13.6991
    15.3514  15.4373  15.8747  15.9516  15.9702  16.1597  16.2414  16.6614
    16.8075  16.8747  17.1671  17.5670  17.7156

          k = 0.1667 0.3150-0.5000 ( 62264 PWs)   bands (ev):

   -66.1666 -66.1666 -66.1664 -66.1664 -66.1657 -66.1657 -66.1655 -66.1655
   -30.5345 -30.5345 -30.5320 -30.5320 -30.5117 -30.5117 -30.5108 -30.5108
   -30.4973 -30.4973 -30.4938 -30.4938 -30.4875 -30.4875 -30.4838 -30.4838
   -30.4752 -30.4752 -30.4741 -30.4741 -30.4414 -30.4414 -30.4395 -30.4395
   -20.3236 -20.3236 -20.3235 -20.3235 -20.3235 -20.3235 -20.3235 -20.3235
   -20.3017 -20.3017 -20.3013 -20.3013 -20.3000 -20.3000 -20.2996 -20.2996
   -20.2993 -20.2993 -20.2991 -20.2991 -20.2990 -20.2990 -20.2986 -20.2986
   -20.2982 -20.2982 -20.2977 -20.2977 -20.2976 -20.2976 -20.2976 -20.2976
   -20.2917 -20.2917 -20.2914 -20.2914 -20.2887 -20.2887 -20.2887 -20.2887
   -20.2881 -20.2881 -20.2880 -20.2880 -20.2859 -20.2859 -20.2858 -20.2858
   -20.2853 -20.2853 -20.2852 -20.2852 -20.2827 -20.2827 -20.2826 -20.2826
    -9.5420  -9.5420  -9.4251  -9.4251  -8.9073  -8.9073  -8.7400  -8.7400
    -8.6635  -8.6635  -8.6451  -8.6451  -8.5222  -8.5222  -8.4605  -8.4604
    -8.0790  -8.0790  -8.0470  -8.0470  -7.8548  -7.8548  -7.8405  -7.8405
     1.4529   1.4529   1.4597   1.4597   2.4259   2.4259   2.5296   2.5296
     2.9497   2.9497   3.0163   3.0163   3.0459   3.0459   3.1796   3.1796
     3.2181   3.2181   3.3626   3.3626   3.3912   3.3912   3.6604   3.6604
     4.0381   4.0381   4.0856   4.0856   4.0921   4.0922   4.3550   4.3550
     4.7395   4.7395   4.8159   4.8159   4.9679   4.9679   5.0194   5.0194
     5.0704   5.0704   5.5436   5.5436   5.8324   5.8324   5.8813   5.8813
     6.6282   6.6282   6.7553   6.7553   6.7794   6.7794   6.8187   6.8187
     7.0354   7.0354   7.0847   7.0847   7.1777   7.1777   7.5148   7.5148
     7.5190   7.5190   7.5764   7.5764   7.6033   7.6033   7.8489   7.8489
    10.7584  10.7584  11.2442  11.2442  11.2909  11.2909  11.7533  11.7533
    11.9711  11.9711  12.1220  12.1220  12.5796  12.5796  12.5906  12.5906
    12.8426  12.8426  12.9338  12.9338  13.2690  13.2690  13.6695  13.6695
    15.4084  15.4084  16.0867  16.0867  16.3336  16.3336  16.4406  16.4406
    17.0619  17.0619  17.3476  17.3476  17.9180

          k = 0.1667-0.4725 0.1667 ( 62220 PWs)   bands (ev):

   -66.1669 -66.1669 -66.1660 -66.1660 -66.1660 -66.1660 -66.1652 -66.1652
   -30.5380 -30.5380 -30.5353 -30.5353 -30.5334 -30.5334 -30.5306 -30.5306
   -30.4943 -30.4942 -30.4940 -30.4940 -30.4933 -30.4932 -30.4927 -30.4927
   -30.4460 -30.4459 -30.4435 -30.4434 -30.4417 -30.4416 -30.4380 -30.4380
   -20.3236 -20.3236 -20.3235 -20.3235 -20.3235 -20.3235 -20.3234 -20.3234
   -20.3009 -20.3009 -20.3005 -20.3005 -20.3004 -20.3004 -20.3000 -20.3000
   -20.2992 -20.2992 -20.2990 -20.2990 -20.2989 -20.2989 -20.2988 -20.2988
   -20.2983 -20.2982 -20.2981 -20.2980 -20.2979 -20.2979 -20.2976 -20.2976
   -20.2918 -20.2918 -20.2915 -20.2914 -20.2911 -20.2911 -20.2906 -20.2906
   -20.2874 -20.2874 -20.2873 -20.2873 -20.2867 -20.2867 -20.2866 -20.2866
   -20.2833 -20.2833 -20.2830 -20.2830 -20.2828 -20.2828 -20.2820 -20.2820
    -9.7487  -9.7487  -9.3579  -9.3578  -9.3449  -9.3448  -9.0696  -9.0696
    -8.4301  -8.4300  -8.3804  -8.3800  -8.3783  -8.3782  -8.3696  -8.3693
    -7.9102  -7.9096  -7.9010  -7.9009  -7.8226  -7.8225  -7.7846  -7.7846
     1.2881   1.2885   1.4149   1.4155   1.4327   1.4332   1.7487   1.7490
     2.5044   2.5048   3.1679   3.1685   3.1969   3.2073   3.2656   3.2704
     3.3132   3.3147   3.3481   3.3576   3.5671   3.5683   3.5741   3.5791
     3.7626   3.7637   4.3631   4.3714   4.3987   4.4051   4.9480   4.9552
     5.0365   5.0395   5.1560   5.1675   5.1926   5.2021   5.4272   5.4297
     5.4813   5.4816   5.7351   5.7481   5.7654   5.7747   6.3489   6.3586
     6.4170   6.4346   6.5177   6.5203   6.6531   6.6614   6.8553   6.8578
     6.8631   6.8712   7.0426   7.0438   7.1870   7.1885   7.4882   7.4910
     7.4917   7.5001   7.5121   7.5208   7.5435   7.5450   7.8612   7.8618
     9.8583   9.8587  11.2781  11.2866  11.3253  11.3405  11.3691  11.3777
    11.3928  11.3943  12.3594  12.3635  12.3800  12.3839  13.0983  13.0987
    13.3748  13.3852  13.3863  13.3976  13.4144  13.4207  13.5809  13.5818
    15.6115  15.6128  15.7910  15.7953  16.0052  16.0150  16.0170  16.0235
    16.5833  16.5840  17.8839  17.8886  17.9106

          k = 0.1667-0.4725 0.3333 ( 62252 PWs)   bands (ev):

   -66.1667 -66.1667 -66.1662 -66.1662 -66.1659 -66.1659 -66.1653 -66.1653
   -30.5343 -30.5343 -30.5317 -30.5317 -30.5207 -30.5207 -30.5165 -30.5165
   -30.4953 -30.4953 -30.4947 -30.4947 -30.4919 -30.4918 -30.4915 -30.4915
   -30.4638 -30.4638 -30.4600 -30.4599 -30.4417 -30.4417 -30.4393 -30.4393
   -20.3236 -20.3236 -20.3235 -20.3235 -20.3235 -20.3235 -20.3234 -20.3234
   -20.3008 -20.3008 -20.3005 -20.3005 -20.3004 -20.3004 -20.3001 -20.3001
   -20.2991 -20.2991 -20.2990 -20.2989 -20.2989 -20.2989 -20.2987 -20.2987
   -20.2985 -20.2985 -20.2982 -20.2982 -20.2978 -20.2978 -20.2977 -20.2977
   -20.2917 -20.2917 -20.2915 -20.2915 -20.2901 -20.2901 -20.2894 -20.2894
   -20.2878 -20.2878 -20.2872 -20.2872 -20.2868 -20.2868 -20.2861 -20.2861
   -20.2845 -20.2845 -20.2839 -20.2839 -20.2829 -20.2829 -20.2824 -20.2824
    -9.6075  -9.6075  -9.3894  -9.3893  -9.1016  -9.1013  -8.9352  -8.9352
    -8.4848  -8.4847  -8.4249  -8.4226  -8.3689  -8.3671  -8.3607  -8.3600
    -8.2037  -8.2027  -8.1228  -8.1219  -7.8793  -7.8788  -7.8187  -7.8184
     1.4438   1.4439   1.4475   1.4491   2.1349   2.1358   2.3042   2.3049
     2.7765   2.7799   3.1807   3.1893   3.2223   3.2295   3.2625   3.2870
     3.3009   3.3017   3.4320   3.4523   3.5438   3.5622   3.6780   3.6787
     3.7774   3.7836   3.8188   3.8496   4.4343   4.4673   4.5374   4.5411
     4.6322   4.6885   4.7719   4.7969   4.9683   4.9704   4.9917   5.0774
     5.1804   5.2319   5.3167   5.4160   5.7601   5.7789   6.0901   6.1006
     6.5533   6.5589   6.6784   6.6975   6.8168   6.8251   6.9636   6.9975
     7.0199   7.0633   7.1675   7.1825   7.2057   7.2166   7.4582   7.4627
     7.4805   7.4839   7.5067   7.5154   7.5294   7.5362   7.7839   7.7868
    10.4962  10.4979  11.3218  11.3303  11.3673  11.3714  11.6896  11.6956
    11.7236  11.7436  11.9383  11.9820  12.5187  12.5721  12.8027  12.8355
    12.8936  12.9257  13.1216  13.2141  13.3952  13.4158  13.4566  13.5215
    15.7513  15.7660  15.9552  15.9655  16.3632  16.3869  16.7357  16.7607
    16.8128  16.8145  17.3855  17.4119  17.8500

          k = 0.1667-0.4725-0.5000 ( 62232 PWs)   bands (ev):

   -66.1665 -66.1665 -66.1665 -66.1665 -66.1656 -66.1656 -66.1656 -66.1656
   -30.5330 -30.5330 -30.5330 -30.5330 -30.5019 -30.5019 -30.5019 -30.5019
   -30.5000 -30.5000 -30.4999 -30.4999 -30.4840 -30.4840 -30.4840 -30.4840
   -30.4814 -30.4814 -30.4814 -30.4814 -30.4405 -30.4405 -30.4405 -30.4405
   -20.3236 -20.3236 -20.3236 -20.3236 -20.3235 -20.3235 -20.3235 -20.3235
   -20.3007 -20.3007 -20.3007 -20.3007 -20.3002 -20.3002 -20.3002 -20.3002
   -20.2990 -20.2990 -20.2990 -20.2990 -20.2987 -20.2987 -20.2987 -20.2987
   -20.2985 -20.2985 -20.2985 -20.2985 -20.2977 -20.2977 -20.2977 -20.2977
   -20.2916 -20.2916 -20.2916 -20.2916 -20.2887 -20.2887 -20.2887 -20.2887
   -20.2880 -20.2880 -20.2880 -20.2880 -20.2859 -20.2859 -20.2859 -20.2859
   -20.2852 -20.2852 -20.2852 -20.2852 -20.2826 -20.2826 -20.2826 -20.2826
    -9.4735  -9.4735  -9.4734  -9.4734  -8.7490  -8.7490  -8.7466  -8.7466
    -8.6666  -8.6666  -8.6634  -8.6634  -8.3479  -8.3479  -8.3433  -8.3433
    -8.3154  -8.3154  -8.3112  -8.3112  -7.8490  -7.8490  -7.8486  -7.8486
     1.4577   1.4577   1.4587   1.4587   2.9640   2.9640   2.9690   2.9690
     3.0844   3.0844   3.1254   3.1254   3.1936   3.1936   3.2142   3.2142
     3.3011   3.3011   3.3360   3.3360   3.4480   3.4480   3.4665   3.4665
     3.6399   3.6399   3.6551   3.6551   4.2999   4.2999   4.3065   4.3065
     4.3993   4.3993   4.4083   4.4083   4.8258   4.8258   4.9591   4.9591
     5.1736   5.1736   5.3048   5.3048   5.8360   5.8361   5.8533   5.8533
     6.7062   6.7062   6.7348   6.7348   6.8119   6.8119   6.8401   6.8401
     7.2858   7.2858   7.3344   7.3344   7.3728   7.3728   7.4005   7.4005
     7.4548   7.4548   7.4837   7.4837   7.5878   7.5878   7.6191   7.6191
    11.1950  11.1950  11.2366  11.2366  11.3648  11.3648  11.4319  11.4319
    12.2478  12.2478  12.2661  12.2661  12.2739  12.2740  12.2906  12.2906
    12.8223  12.8223  12.8925  12.8925  13.4042  13.4042  13.4534  13.4534
    15.8699  15.8699  15.8854  15.8854  16.9180  16.9180  16.9262  16.9262
    17.4259  17.4261  17.4462  17.4466  17.5313

          k = 0.3333 0.0000 0.3333 ( 62316 PWs)   bands (ev):

   -66.1667 -66.1664 -66.1662 -66.1662 -66.1658 -66.1658 -66.1657 -66.1653
   -30.5324 -30.5288 -30.5287 -30.5234 -30.5199 -30.5174 -30.5167 -30.5143
   -30.5130 -30.5094 -30.5079 -30.5044 -30.4750 -30.4723 -30.4715 -30.4649
   -30.4634 -30.4631 -30.4612 -30.4597 -30.4577 -30.4555 -30.4528 -30.4494
   -20.3236 -20.3236 -20.3236 -20.3235 -20.3235 -20.3235 -20.3235 -20.3234
   -20.3029 -20.3027 -20.3027 -20.3025 -20.2999 -20.2998 -20.2997 -20.2996
   -20.2995 -20.2993 -20.2991 -20.2991 -20.2990 -20.2987 -20.2985 -20.2983
   -20.2983 -20.2981 -20.2977 -20.2976 -20.2968 -20.2967 -20.2965 -20.2964
   -20.2909 -20.2908 -20.2904 -20.2903 -20.2900 -20.2898 -20.2892 -20.2891
   -20.2884 -20.2881 -20.2874 -20.2873 -20.2867 -20.2867 -20.2858 -20.2857
   -20.2850 -20.2848 -20.2841 -20.2839 -20.2838 -20.2837 -20.2833 -20.2831
    -9.6213  -9.3673  -9.3626  -9.3284  -9.0832  -9.0674  -9.0547  -8.8469
    -8.8301  -8.7634  -8.7559  -8.7503  -8.2907  -8.2314  -8.2220  -8.2184
    -8.2076  -8.2073  -8.1121  -8.0916  -7.7419  -7.7156  -7.7147  -7.6891
     1.5542   1.5906   1.5915   1.6343   2.0300   2.0317   2.1591   2.1725
     2.2077   2.2196   2.4248   2.5303   2.9241   2.9267   2.9647   2.9841
     3.1189   3.1369   3.7673   3.8123   3.8263   3.8786   4.0139   4.0166
     4.1392   4.1409   4.1875   4.2945   4.3473   4.3494   4.4585   4.4770
     4.7692   4.8069   4.8644   4.9202   4.9719   4.9781   5.0995   5.3963
     5.3968   5.4133   5.4187   5.6831   5.9768   5.9777   5.9971   6.0984
     6.4941   6.5210   6.5427   6.5452   6.5525   6.5797   6.5819   6.6423
     6.9855   7.1430   7.1483   7.1672   7.1706   7.2272   7.3046   7.3163
     7.3238   7.4748   7.7159   7.7179   7.9153   7.9844   7.9934   8.0292
    10.7110  10.7742  10.8040  10.8324  10.9586  11.1296  12.0887  12.1004
    12.1439  12.1545  12.2217  12.2831  12.4969  12.5122  12.7691  12.7803
    12.8100  12.8517  12.9143  13.0499  13.5401  13.6077  13.6184  13.7143
    14.4624  14.7246  14.7262  15.1670  15.8567  16.4862  16.5274  16.8374
    16.8398  17.3322  17.3377  17.8293  17.8416

          k = 0.3333 0.0000-0.5000 ( 62288 PWs)   bands (ev):

   -66.1665 -66.1665 -66.1661 -66.1661 -66.1660 -66.1660 -66.1656 -66.1656
   -30.5302 -30.5302 -30.5254 -30.5254 -30.5146 -30.5146 -30.5087 -30.5087
   -30.4953 -30.4953 -30.4928 -30.4928 -30.4874 -30.4874 -30.4850 -30.4850
   -30.4701 -30.4701 -30.4610 -30.4610 -30.4596 -30.4596 -30.4517 -30.4517
   -20.3236 -20.3236 -20.3235 -20.3235 -20.3235 -20.3235 -20.3235 -20.3235
   -20.3028 -20.3028 -20.3026 -20.3026 -20.2997 -20.2997 -20.2995 -20.2995
   -20.2995 -20.2995 -20.2993 -20.2993 -20.2989 -20.2989 -20.2984 -20.2984
   -20.2982 -20.2982 -20.2976 -20.2976 -20.2967 -20.2967 -20.2966 -20.2966
   -20.2907 -20.2907 -20.2902 -20.2902 -20.2890 -20.2890 -20.2888 -20.2888
   -20.2878 -20.2878 -20.2877 -20.2877 -20.2864 -20.2864 -20.2862 -20.2862
   -20.2852 -20.2852 -20.2849 -20.2849 -20.2837 -20.2837 -20.2835 -20.2835
    -9.4644  -9.4644  -9.1806  -9.1806  -9.1467  -9.1467  -8.7709  -8.7709
    -8.6881  -8.6880  -8.6101  -8.6100  -8.5601  -8.5600  -8.5254  -8.5254
    -8.1800  -8.1800  -8.1743  -8.1743  -7.7289  -7.7289  -7.7020  -7.7020
     1.5737   1.5737   1.6165   1.6165   2.1813   2.1813   2.2163   2.2163
     2.9084   2.9084   2.9881   2.9881   3.0218   3.0218   3.1537   3.1537
     3.2307   3.2307   3.5185   3.5185   3.6331   3.6331   3.7895   3.7895
     3.8259   3.8259   4.0267   4.0267   4.1541   4.1541   4.2920   4.2920
     4.6162   4.6162   4.8521   4.8522   4.9550   4.9550   5.0379   5.0379
[...]
   -20.4374 -20.4374 -20.4372 -20.4371 -20.4370 -20.4370 -20.4366 -20.4366
   -20.4298 -20.4298 -20.4297 -20.4297 -20.4277 -20.4277 -20.4276 -20.4276
   -20.4271 -20.4271 -20.4270 -20.4270 -20.4247 -20.4247 -20.4247 -20.4246
   -20.4243 -20.4243 -20.4242 -20.4242 -20.4218 -20.4218 -20.4215 -20.4215
    -9.5891  -9.5891  -9.4388  -9.4388  -9.0654  -9.0654  -8.8477  -8.8477
    -8.7024  -8.7024  -8.6688  -8.6688  -8.6030  -8.6029  -8.5414  -8.5414
    -8.2508  -8.2508  -8.2217  -8.2217  -7.9265  -7.9265  -7.9130  -7.9130
     1.4380   1.4380   1.4483   1.4483   2.2367   2.2367   2.3440   2.3440
     2.8850   2.8850   2.9662   2.9662   2.9942   2.9942   3.1463   3.1463
     3.1805   3.1805   3.3412   3.3412   3.3618   3.3618   3.5930   3.5930
     3.9109   3.9109   3.9431   3.9431   4.0447   4.0447   4.2586   4.2586
     4.6056   4.6056   4.6905   4.6905   4.8664   4.8664   4.8830   4.8830
     4.9918   4.9918   5.3970   5.3970   5.7474   5.7474   5.7799   5.7799
     6.5570   6.5570   6.6751   6.6751   6.7174   6.7174   6.7457   6.7457
     6.9210   6.9210   6.9744   6.9744   7.0734   7.0734   7.4158   7.4158
     7.4384   7.4384   7.4884   7.4884   7.5166   7.5166   7.7447   7.7447
    10.6390  10.6390  11.0940  11.0940  11.1359  11.1359  11.6035  11.6035
    11.8221  11.8221  12.0181  12.0181  12.4395  12.4395  12.4833  12.4833
    12.6639  12.6639  12.7772  12.7772  13.0831  13.0831  13.5220  13.5220
    15.2471  15.2471  15.8059  15.8059  16.2693  16.2693  16.3823  16.3823
    16.7936  16.7936  17.2077  17.2077  17.7791

          k = 0.3313 0.4752 0.1656 ( 62700 PWs)   bands (ev):

   -66.2992 -66.2992 -66.2987 -66.2987 -66.2984 -66.2984 -66.2979 -66.2979
   -30.6540 -30.6540 -30.6513 -30.6512 -30.6498 -30.6498 -30.6468 -30.6468
   -30.6333 -30.6332 -30.6306 -30.6305 -30.6147 -30.6147 -30.6111 -30.6110
   -30.5685 -30.5685 -30.5649 -30.5649 -30.5515 -30.5515 -30.5493 -30.5493
   -20.4629 -20.4629 -20.4628 -20.4628 -20.4627 -20.4627 -20.4627 -20.4627
   -20.4402 -20.4402 -20.4399 -20.4399 -20.4396 -20.4396 -20.4393 -20.4393
   -20.4385 -20.4385 -20.4383 -20.4383 -20.4379 -20.4379 -20.4378 -20.4378
   -20.4376 -20.4376 -20.4374 -20.4374 -20.4372 -20.4372 -20.4369 -20.4369
   -20.4300 -20.4300 -20.4296 -20.4296 -20.4287 -20.4287 -20.4283 -20.4283
   -20.4268 -20.4268 -20.4263 -20.4263 -20.4256 -20.4256 -20.4252 -20.4252
   -20.4234 -20.4234 -20.4230 -20.4230 -20.4218 -20.4218 -20.4215 -20.4215
    -9.6272  -9.6271  -9.4150  -9.4148  -9.1316  -9.1313  -8.9410  -8.9410
    -8.6675  -8.6667  -8.5878  -8.5866  -8.5482  -8.5473  -8.5392  -8.5391
    -8.2645  -8.2640  -8.1886  -8.1879  -7.9493  -7.9491  -7.8910  -7.8907
     1.4314   1.4319   1.4416   1.4418   2.1168   2.1176   2.2747   2.2768
     2.8063   2.8068   3.0557   3.0579   3.1036   3.1095   3.1492   3.1683
     3.1935   3.1988   3.3240   3.3549   3.3942   3.4246   3.5675   3.5719
     3.6446   3.6560   3.7820   3.8408   4.2938   4.3257   4.4691   4.4844
     4.5235   4.5827   4.6855   4.6877   4.8245   4.8798   4.8833   4.9148
     5.0065   5.0599   5.2295   5.2991   5.6609   5.6780   6.0289   6.0335
     6.5161   6.5243   6.5850   6.5969   6.7386   6.7423   6.8945   6.9327
     6.9798   6.9892   7.0548   7.0818   7.1171   7.1191   7.3423   7.3566
     7.3635   7.3939   7.3996   7.4114   7.4261   7.4362   7.7126   7.7145
    10.3629  10.3664  11.2102  11.2263  11.2447  11.2528  11.5957  11.6045
    11.6179  11.6341  11.7668  11.8178  12.3319  12.3824  12.6266  12.6540
    12.7433  12.7686  12.9605  13.0557  13.2187  13.2488  13.2685  13.3333
    15.4943  15.5095  15.7269  15.7409  16.1520  16.1717  16.5435  16.5681
    16.7682  16.7683  17.2942  17.3356  17.8176

          k =-0.4970 0.4752 0.1656 ( 62692 PWs)   bands (ev):

   -66.2989 -66.2989 -66.2989 -66.2989 -66.2981 -66.2981 -66.2981 -66.2981
   -30.6527 -30.6527 -30.6524 -30.6524 -30.6485 -30.6485 -30.6480 -30.6480
   -30.6318 -30.6318 -30.6317 -30.6317 -30.5921 -30.5921 -30.5916 -30.5916
   -30.5883 -30.5883 -30.5879 -30.5879 -30.5504 -30.5504 -30.5504 -30.5504
   -20.4629 -20.4629 -20.4629 -20.4628 -20.4627 -20.4627 -20.4627 -20.4627
   -20.4401 -20.4401 -20.4401 -20.4401 -20.4395 -20.4395 -20.4395 -20.4395
   -20.4384 -20.4384 -20.4384 -20.4384 -20.4377 -20.4377 -20.4377 -20.4377
   -20.4376 -20.4376 -20.4375 -20.4375 -20.4372 -20.4372 -20.4371 -20.4371
   -20.4298 -20.4298 -20.4298 -20.4298 -20.4276 -20.4276 -20.4276 -20.4276
   -20.4271 -20.4271 -20.4271 -20.4271 -20.4247 -20.4247 -20.4247 -20.4247
   -20.4243 -20.4243 -20.4242 -20.4242 -20.4217 -20.4217 -20.4217 -20.4217
    -9.4997  -9.4997  -9.4969  -9.4969  -8.8375  -8.8375  -8.8255  -8.8255
    -8.7162  -8.7162  -8.7054  -8.7054  -8.5138  -8.5138  -8.4940  -8.4940
    -8.4619  -8.4618  -8.4436  -8.4436  -7.9202  -7.9202  -7.9199  -7.9199
     1.4447   1.4447   1.4479   1.4479   2.8749   2.8749   2.9364   2.9364
     3.0238   3.0238   3.0278   3.0278   3.1099   3.1099   3.1369   3.1369
     3.2091   3.2091   3.3188   3.3188   3.3492   3.3492   3.4130   3.4130
     3.4457   3.4457   3.6135   3.6135   4.1585   4.1585   4.1959   4.1960
     4.2375   4.2375   4.2984   4.2984   4.7420   4.7420   4.8836   4.8836
     5.0341   5.0341   5.1655   5.1656   5.7494   5.7494   5.7648   5.7648
     6.6342   6.6342   6.6802   6.6802   6.7377   6.7377   6.7756   6.7756
     7.1833   7.1833   7.2012   7.2012   7.2587   7.2587   7.3195   7.3195
     7.3423   7.3424   7.4127   7.4127   7.5038   7.5039   7.5346   7.5346
    11.0675  11.0675  11.1030  11.1030  11.2320  11.2320  11.2928  11.2928
    12.0929  12.0929  12.1159  12.1159  12.1678  12.1678  12.1862  12.1862
    12.6392  12.6392  12.7083  12.7083  13.2330  13.2330  13.2824  13.2824
    15.6281  15.6281  15.6449  15.6449  16.7837  16.7837  16.8275  16.8276
    17.2734  17.2734  17.3200  17.3200  17.3941

          k =-0.4970 0.0000 0.3311 ( 62752 PWs)   bands (ev):

   -66.2990 -66.2990 -66.2985 -66.2985 -66.2985 -66.2985 -66.2981 -66.2981
   -30.6816 -30.6816 -30.6795 -30.6795 -30.6261 -30.6261 -30.6198 -30.6198
   -30.6140 -30.6140 -30.6126 -30.6126 -30.5924 -30.5924 -30.5909 -30.5909
   -30.5875 -30.5875 -30.5869 -30.5869 -30.5683 -30.5683 -30.5663 -30.5663
   -20.4629 -20.4629 -20.4628 -20.4628 -20.4628 -20.4628 -20.4627 -20.4627
   -20.4421 -20.4421 -20.4419 -20.4419 -20.4392 -20.4392 -20.4392 -20.4392
   -20.4387 -20.4387 -20.4387 -20.4387 -20.4379 -20.4379 -20.4377 -20.4377
   -20.4372 -20.4372 -20.4370 -20.4370 -20.4358 -20.4358 -20.4355 -20.4355
   -20.4289 -20.4289 -20.4288 -20.4288 -20.4279 -20.4279 -20.4277 -20.4277
   -20.4267 -20.4267 -20.4266 -20.4266 -20.4251 -20.4251 -20.4249 -20.4249
   -20.4243 -20.4242 -20.4239 -20.4239 -20.4229 -20.4229 -20.4224 -20.4224
    -9.5824  -9.5824  -9.3686  -9.3686  -9.1643  -9.1643  -8.8792  -8.8792
    -8.7141  -8.7141  -8.6438  -8.6438  -8.5957  -8.5957  -8.5719  -8.5719
    -8.2349  -8.2349  -8.2259  -8.2259  -7.8930  -7.8930  -7.8692  -7.8692
     1.3538   1.3538   1.3896   1.3896   2.1518   2.1518   2.1858   2.1858
     2.8205   2.8205   2.9193   2.9193   2.9542   2.9542   3.1004   3.1005
     3.1934   3.1935   3.4979   3.4979   3.6072   3.6072   3.7159   3.7159
     3.7379   3.7379   3.9139   3.9139   4.0574   4.0574   4.2615   4.2615
     4.5891   4.5891   4.8092   4.8092   4.9177   4.9177   4.9727   4.9727
     5.1560   5.1561   5.4327   5.4327   5.8447   5.8447   5.9293   5.9293
     6.2999   6.2999   6.3198   6.3198   6.3926   6.3926   6.4775   6.4775
     7.0437   7.0437   7.1779   7.1779   7.2547   7.2547   7.4493   7.4493
     7.4728   7.4728   7.5803   7.5803   7.6294   7.6294   7.8889   7.8889
    10.6683  10.6683  11.2796  11.2796  11.3625  11.3625  11.4546  11.4546
    11.6397  11.6397  12.1178  12.1178  12.2983  12.2983  12.4719  12.4719
    12.7081  12.7081  13.0652  13.0653  13.0996  13.0996  13.5131  13.5131
    14.5855  14.5855  14.9644  14.9644  16.1705  16.1705  16.6389  16.6389
    16.9770  16.9770  17.3442  17.3442  17.8370

          k =-0.4970-0.1584 0.3311 ( 62720 PWs)   bands (ev):

   -66.2990 -66.2989 -66.2986 -66.2986 -66.2985 -66.2985 -66.2981 -66.2981
   -30.6775 -30.6775 -30.6754 -30.6754 -30.6286 -30.6286 -30.6236 -30.6236
   -30.6141 -30.6141 -30.6137 -30.6137 -30.5923 -30.5923 -30.5908 -30.5908
   -30.5881 -30.5881 -30.5873 -30.5873 -30.5682 -30.5682 -30.5665 -30.5665
   -20.4629 -20.4628 -20.4628 -20.4628 -20.4628 -20.4628 -20.4627 -20.4627
   -20.4417 -20.4417 -20.4415 -20.4415 -20.4392 -20.4392 -20.4392 -20.4392
   -20.4387 -20.4387 -20.4386 -20.4386 -20.4378 -20.4378 -20.4376 -20.4376
   -20.4372 -20.4372 -20.4371 -20.4371 -20.4361 -20.4361 -20.4359 -20.4359
   -20.4289 -20.4289 -20.4288 -20.4288 -20.4278 -20.4278 -20.4277 -20.4277
   -20.4267 -20.4267 -20.4266 -20.4266 -20.4251 -20.4251 -20.4249 -20.4249
   -20.4242 -20.4242 -20.4240 -20.4240 -20.4229 -20.4229 -20.4224 -20.4224
    -9.5317  -9.5317  -9.2995  -9.2995  -9.1748  -9.1748  -8.8547  -8.8547
    -8.7230  -8.7230  -8.6412  -8.6412  -8.5937  -8.5937  -8.5688  -8.5688
    -8.2331  -8.2331  -8.2310  -8.2309  -7.9926  -7.9926  -7.9688  -7.9688
     1.5872   1.5872   1.6249   1.6249   2.1512   2.1512   2.1948   2.1948
     2.8753   2.8753   2.9480   2.9480   2.9747   2.9747   3.1089   3.1089
     3.1948   3.1948   3.5180   3.5180   3.6080   3.6080   3.7337   3.7337
     3.7602   3.7602   3.9477   3.9477   4.0516   4.0516   4.2694   4.2694
     4.4603   4.4603   4.5904   4.5904   4.8660   4.8660   4.9070   4.9070
     4.9472   4.9472   5.2062   5.2062   5.6081   5.6081   5.7057   5.7057
     6.4443   6.4443   6.4752   6.4752   6.5363   6.5363   6.6598   6.6598
     7.0494   7.0494   7.1708   7.1708   7.2560   7.2560   7.4447   7.4447
     7.4670   7.4670   7.5582   7.5582   7.6047   7.6047   7.8354   7.8354
    10.7769  10.7769  11.3018  11.3018  11.3853  11.3853  11.5077  11.5077
    11.6890  11.6890  12.1425  12.1425  12.2948  12.2948  12.4890  12.4890
    12.5682  12.5682  12.9396  12.9396  12.9733  12.9733  13.4008  13.4008
    14.9592  14.9592  15.3545  15.3545  16.2547  16.2547  16.6387  16.6387
    16.9830  16.9830  17.3645  17.3645  17.6827

          k =-0.4970-0.3168 0.3311 ( 62696 PWs)   bands (ev):

   -66.2989 -66.2989 -66.2987 -66.2986 -66.2984 -66.2984 -66.2982 -66.2982
   -30.6665 -30.6665 -30.6643 -30.6643 -30.6375 -30.6374 -30.6342 -30.6342
   -30.6149 -30.6149 -30.6146 -30.6146 -30.5919 -30.5919 -30.5905 -30.5905
   -30.5891 -30.5891 -30.5881 -30.5881 -30.5680 -30.5680 -30.5669 -30.5669
   -20.4628 -20.4628 -20.4628 -20.4628 -20.4628 -20.4627 -20.4627 -20.4627
   -20.4409 -20.4408 -20.4406 -20.4406 -20.4394 -20.4394 -20.4390 -20.4390
   -20.4389 -20.4389 -20.4384 -20.4384 -20.4378 -20.4377 -20.4376 -20.4376
   -20.4374 -20.4373 -20.4372 -20.4372 -20.4370 -20.4370 -20.4368 -20.4368
   -20.4289 -20.4289 -20.4289 -20.4288 -20.4278 -20.4278 -20.4277 -20.4277
   -20.4267 -20.4267 -20.4266 -20.4266 -20.4250 -20.4250 -20.4250 -20.4250
   -20.4242 -20.4242 -20.4240 -20.4240 -20.4228 -20.4228 -20.4225 -20.4225
    -9.4087  -9.4086  -9.2109  -9.2109  -9.1125  -9.1125  -8.7823  -8.7823
    -8.7500  -8.7500  -8.6369  -8.6369  -8.5822  -8.5822  -8.5498  -8.5498
    -8.2809  -8.2809  -8.2393  -8.2393  -8.2245  -8.2245  -8.1704  -8.1704
     2.0696   2.0697   2.1485   2.1485   2.2450   2.2450   2.3703   2.3703
     2.9521   2.9521   2.9965   2.9965   3.0780   3.0780   3.1452   3.1452
     3.2264   3.2264   3.5239   3.5239   3.5958   3.5958   3.6847   3.6847
     3.8928   3.8928   3.9601   3.9601   4.0380   4.0380   4.1111   4.1111
     4.2086   4.2086   4.3505   4.3505   4.4818   4.4818   4.7208   4.7208
     4.8185   4.8185   4.8897   4.8897   4.9216   4.9216   5.1927   5.1927
     6.7638   6.7638   6.8204   6.8204   6.8820   6.8821   6.9339   6.9339
     7.0639   7.0639   7.1564   7.1564   7.2705   7.2705   7.4027   7.4027
     7.4380   7.4380   7.5075   7.5075   7.5343   7.5343   7.6799   7.6799
    11.0777  11.0777  11.3382  11.3382  11.4149  11.4149  11.6896  11.6896
    11.8639  11.8639  12.1647  12.1647  12.2216  12.2216  12.2742  12.2742
    12.5447  12.5447  12.6420  12.6420  12.6934  12.6934  13.1278  13.1279
    15.8090  15.8090  16.3025  16.3025  16.5152  16.5152  16.6187  16.6187
    17.0209  17.0209  17.2826  17.2826  17.5161

          k =-0.4970 0.4752 0.3311 ( 62668 PWs)   bands (ev):

   -66.2988 -66.2988 -66.2988 -66.2988 -66.2983 -66.2983 -66.2983 -66.2983
   -30.6518 -30.6518 -30.6514 -30.6514 -30.6493 -30.6493 -30.6489 -30.6489
   -30.6151 -30.6151 -30.6150 -30.6150 -30.5913 -30.5913 -30.5908 -30.5908
   -30.5892 -30.5892 -30.5887 -30.5887 -30.5675 -30.5675 -30.5675 -30.5675
   -20.4628 -20.4628 -20.4628 -20.4628 -20.4627 -20.4627 -20.4627 -20.4627
   -20.4399 -20.4399 -20.4399 -20.4399 -20.4396 -20.4396 -20.4396 -20.4396
   -20.4383 -20.4383 -20.4383 -20.4383 -20.4379 -20.4379 -20.4379 -20.4379
   -20.4375 -20.4375 -20.4375 -20.4375 -20.4373 -20.4373 -20.4372 -20.4372
   -20.4289 -20.4289 -20.4289 -20.4289 -20.4278 -20.4277 -20.4277 -20.4277
   -20.4267 -20.4267 -20.4267 -20.4267 -20.4250 -20.4250 -20.4250 -20.4250
   -20.4241 -20.4241 -20.4241 -20.4241 -20.4227 -20.4227 -20.4226 -20.4226
    -9.2884  -9.2884  -9.2840  -9.2840  -8.8966  -8.8965  -8.8851  -8.8851
    -8.6616  -8.6615  -8.6508  -8.6508  -8.5068  -8.5068  -8.4915  -8.4915
    -8.4640  -8.4640  -8.4511  -8.4511  -8.2176  -8.2176  -8.2168  -8.2168
     2.1369   2.1369   2.1431   2.1431   2.8878   2.8878   2.9244   2.9244
     3.0133   3.0133   3.0222   3.0222   3.1459   3.1459   3.1665   3.1665
     3.2816   3.2816   3.3153   3.3153   3.5170   3.5170   3.5556   3.5556
     3.6539   3.6539   3.7396   3.7396   4.1306   4.1306   4.1512   4.1512
     4.1942   4.1942   4.2579   4.2579   4.3340   4.3340   4.4218   4.4218
     4.5445   4.5445   4.6768   4.6768   4.9346   4.9346   4.9536   4.9536
     6.9136   6.9136   6.9738   6.9738   7.0674   7.0674   7.0728   7.0728
     7.1757   7.1757   7.2165   7.2165   7.2629   7.2629   7.3027   7.3027
     7.3769   7.3769   7.4453   7.4453   7.5095   7.5095   7.5426   7.5426
    11.3098  11.3098  11.3465  11.3465  11.5757  11.5757  11.6524  11.6524
    12.0554  12.0554  12.1117  12.1117  12.1459  12.1459  12.1892  12.1892
    12.3429  12.3429  12.4628  12.4628  12.7875  12.7875  12.8671  12.8671
    16.4015  16.4015  16.4458  16.4458  16.9585  16.9585  16.9886  16.9886
    17.2611  17.2611  17.3377  17.3378  17.3740

     the Fermi energy is     8.8666 ev

!    total energy              =   -6261.10915132 Ry
     Harris-Foulkes estimate   =   -6261.10915132 Ry
     estimated scf accuracy    <          1.0E-11 Ry

     The total energy is the sum of the following terms:

     one-electron contribution =   -4749.83129336 Ry
     hartree contribution      =    2610.02881382 Ry
     xc contribution           =    -965.66866452 Ry
     ewald contribution        =   -3155.63800726 Ry
     smearing contrib. (-TS)   =      -0.00000000 Ry

     convergence has been achieved in  15 iterations

     Forces acting on atoms (cartesian axes, Ry/au):

     atom    1 type  1   force =    -0.00291668    0.00587745    0.00224812
     atom    2 type  1   force =     0.00291668   -0.00587745   -0.00224812
     atom    3 type  1   force =     0.00291668   -0.00587745    0.00224812
     atom    4 type  1   force =    -0.00291668    0.00587745   -0.00224812
     atom    5 type  1   force =     0.00291668    0.00587745   -0.00224812
     atom    6 type  1   force =    -0.00291668   -0.00587745    0.00224812
     atom    7 type  1   force =    -0.00291668   -0.00587745   -0.00224812
     atom    8 type  1   force =     0.00291668    0.00587745    0.00224812
     atom    9 type  2   force =    -0.00024770   -0.00289651    0.00003386
     atom   10 type  2   force =     0.00024770    0.00289651   -0.00003386
     atom   11 type  2   force =     0.00024770    0.00289651    0.00003386
     atom   12 type  2   force =    -0.00024770   -0.00289651   -0.00003386
     atom   13 type  2   force =     0.00024770   -0.00289651   -0.00003386
     atom   14 type  2   force =    -0.00024770    0.00289651    0.00003386
     atom   15 type  2   force =    -0.00024770    0.00289651   -0.00003386
     atom   16 type  2   force =     0.00024770   -0.00289651    0.00003386
     atom   17 type  2   force =    -0.00148193   -0.00012891   -0.00068881
     atom   18 type  2   force =     0.00148193    0.00012891    0.00068881
     atom   19 type  2   force =     0.00148193    0.00012891   -0.00068881
     atom   20 type  2   force =    -0.00148193   -0.00012891    0.00068881
     atom   21 type  2   force =     0.00148193   -0.00012891    0.00068881
     atom   22 type  2   force =    -0.00148193    0.00012891   -0.00068881
     atom   23 type  2   force =    -0.00148193    0.00012891    0.00068881
     atom   24 type  2   force =     0.00148193   -0.00012891   -0.00068881
     atom   25 type  2   force =    -0.00107275   -0.00042337    0.00155508
     atom   26 type  2   force =     0.00107275    0.00042337   -0.00155508
     atom   27 type  2   force =     0.00107275    0.00042337    0.00155508
     atom   28 type  2   force =    -0.00107275   -0.00042337   -0.00155508
     atom   29 type  2   force =     0.00107275   -0.00042337   -0.00155508
     atom   30 type  2   force =    -0.00107275    0.00042337    0.00155508
     atom   31 type  2   force =    -0.00107275    0.00042337   -0.00155508
     atom   32 type  2   force =     0.00107275   -0.00042337    0.00155508

     Total force =     0.000000     Total SCF correction =     0.000000


     Computing stress (Cartesian axis) and pressure

          total   stress  (Ry/bohr**3)                   (kbar)     P=    0.21
   0.00000214   0.00000000   0.00000000          0.31      0.00      0.00
   0.00000000  -0.00000024   0.00000000          0.00     -0.03      0.00
   0.00000000   0.00000000   0.00000229          0.00      0.00      0.34


     Writing output data file Landau_11.save
 
     init_run     :     99.88s CPU    103.14s WALL (       2 calls)
     electrons    :  12470.82s CPU  12736.19s WALL (       6 calls)
     update_pot   :     92.84s CPU     93.20s WALL (       4 calls)
     forces       :    216.99s CPU    220.07s WALL (       6 calls)
     stress       :   1283.55s CPU   1301.74s WALL (       6 calls)

     Called by init_run:
     wfcinit      :     79.48s CPU     82.41s WALL (       2 calls)
     potinit      :      8.73s CPU      8.81s WALL (       2 calls)

     Called by electrons:
     c_bands      :  11248.56s CPU  11499.19s WALL (      86 calls)
     sum_band     :   1152.67s CPU   1161.94s WALL (      86 calls)
     v_of_rho     :      8.80s CPU      9.00s WALL (      91 calls)
     mix_rho      :     13.70s CPU     17.77s WALL (      86 calls)

     Called by c_bands:
     init_us_2    :     49.65s CPU     53.57s WALL (     372 calls)
     cegterg      :   9155.90s CPU   9390.74s WALL (     172 calls)

     Called by sum_band:

     Called by *egterg:
     h_psi        :   6499.95s CPU   6547.39s WALL (     694 calls)
     g_psi        :     10.04s CPU     10.09s WALL (     518 calls)
     cdiaghg      :    112.26s CPU    112.74s WALL (     680 calls)

     Called by h_psi:
     h_psi:pot    :   6474.65s CPU   6521.19s WALL (     694 calls)
     h_psi:calbec :   1060.88s CPU   1086.52s WALL (     694 calls)
     vloc_psi     :   4318.57s CPU   4332.51s WALL (     694 calls)
     add_vuspsi   :   1095.19s CPU   1102.15s WALL (     694 calls)

     General routines
     calbec       :   1208.52s CPU   1234.78s WALL (     754 calls)
     fft          :      8.57s CPU      8.61s WALL (     412 calls)
     fftw         :   4674.42s CPU   4687.50s WALL (  223070 calls)
 
     Parallel routines
 
     PWSCF        :     3h56m CPU        4h 1m WALL

 
   This run was terminated on:   2: 3:44  13Mar2020            

=------------------------------------------------------------------------------=
   JOB DONE.
=------------------------------------------------------------------------------=
