
     Program PWSCF v.6.2 (svn rev. 14038) starts on 19Mar2020 at  3: 0:20 

     This program is part of the open-source Quantum ESPRESSO suite
     for quantum simulation of materials; please cite
         "P. Giannozzi et al., J. Phys.:Condens. Matter 21 395502 (2009);
         "P. Giannozzi et al., J. Phys.:Condens. Matter 29 465901 (2017);
          URL http://www.quantum-espresso.org", 
     in publications or presentations arising from this work. More details at
     http://www.quantum-espresso.org/quote

     Parallel version (MPI), running on    40 processors

     MPI processes distributed on     5 nodes
     K-points division:     npool     =      40
     Reading input from scf.in

     Current dimensions of program PWSCF are:
     Max number of different atomic species (ntypx) = 10
     Max number of k-points (npk) =  40000
     Max angular momentum in pseudopotentials (lmaxx) =  3

     Subspace diagonalization in iterative solution of the eigenvalue problem:
     a serial algorithm will be used

 
     G-vector sticks info
     --------------------
     sticks:   dense  smooth     PW     G-vecs:    dense   smooth      PW
     Sum        7701    7701   2063               500641   500641   69393
 


     bravais-lattice index     =            0
     lattice parameter (alat)  =      13.9414  a.u.
     unit-cell volume          =    2818.7077 (a.u.)^3
     number of atoms/cell      =           32
     number of atomic types    =            2
     number of electrons       =       368.20
     number of Kohn-Sham states=          221
     kinetic-energy cutoff     =     120.0000  Ry
     charge density cutoff     =     480.0000  Ry
     convergence threshold     =      1.0E-08
     mixing beta               =       0.7000
     number of iterations used =            8  plain     mixing
     Exchange-correlation      = SLA PW NOGX NOGC ( 1  4  0  0 0 0)

     celldm(1)=  13.941387  celldm(2)=   0.000000  celldm(3)=   0.000000
     celldm(4)=   0.000000  celldm(5)=   0.000000  celldm(6)=   0.000000

     crystal axes: (cart. coord. in units of alat)
               a(1) = (   1.000000   0.000000   0.000000 )  
               a(2) = (   0.000000   1.037538   0.000000 )  
               a(3) = (   0.000000   0.000000   1.002601 )  

     reciprocal axes: (cart. coord. in units 2 pi/alat)
               b(1) = (  1.000000  0.000000  0.000000 )  
               b(2) = (  0.000000  0.963820  0.000000 )  
               b(3) = (  0.000000  0.000000  0.997405 )  


     PseudoPot. # 1 for W  read from file:
     /cluster/scratch/mnoe/QE/pps/W_ONCV_LDA-4.0.upf
     MD5 check sum: ba0307d5d4cd419d6f1d13dc49d7c13a
     Pseudo is Norm-conserving + core correction, Zval = 28.0
     Generated using ONCVPSP code by D. R. Hamann
     Using radial grid of 1380 points,  8 beta functions with: 
                l(1) =   0
                l(2) =   0
                l(3) =   1
                l(4) =   1
                l(5) =   2
                l(6) =   2
                l(7) =   3
                l(8) =   3

     PseudoPot. # 2 for O  read from file:
     /cluster/scratch/mnoe/QE/pps/O_ONCV_LDA-3.0.upf
     MD5 check sum: a1bd6164e7280c17a38c229939bfbd54
     Pseudo is Norm-conserving + core correction, Zval =  6.0
     Generated using ONCVPSP code by D. R. Hamann
     Using radial grid of  926 points,  5 beta functions with: 
                l(1) =   0
                l(2) =   0
                l(3) =   1
                l(4) =   1
                l(5) =   2

     atomic species   valence    mass     pseudopotential
        W             28.00   183.84000     W ( 1.00)
        O              6.00    15.99940     O ( 1.00)

      8 Sym. Ops., with inversion, found ( 6 have fractional translation)



   Cartesian axes

     site n.     atom                  positions (alat units)
         1           W   tau(   1) = (   0.2389000   0.2887408   0.0105073  )
         2           W   tau(   2) = (   0.7611000   0.7487968   0.9920941  )
         3           W   tau(   3) = (   0.2611000   0.2300280   0.5118079  )
         4           W   tau(   4) = (   0.7389000   0.8075096   0.4907934  )
         5           W   tau(   5) = (   0.7611000   0.2887408   0.4907934  )
         6           W   tau(   6) = (   0.2389000   0.7487968   0.5118079  )
         7           W   tau(   7) = (   0.7389000   0.2300280   0.9920941  )
         8           W   tau(   8) = (   0.2611000   0.8075096   0.0105073  )
         9           O   tau(   9) = (   0.2295300   0.0076244   0.0032685  )
        10           O   tau(  10) = (   0.7704700   1.0299132   0.9993328  )
        11           O   tau(  11) = (   0.2704700   0.5111444   0.5045691  )
        12           O   tau(  12) = (   0.7295300   0.5263932   0.4980322  )
        13           O   tau(  13) = (   0.7704700   0.0076244   0.4980322  )
        14           O   tau(  14) = (   0.2295300   1.0299132   0.5045691  )
        15           O   tau(  15) = (   0.7295300   0.5111444   0.9993328  )
        16           O   tau(  16) = (   0.2704700   0.5263932   0.0032685  )
        17           O   tau(  17) = (   0.5030300   0.2375857   0.4594509  )
        18           O   tau(  18) = (   0.4969700   0.7999519   0.5431504  )
        19           O   tau(  19) = (   0.9969700   0.2811830   0.9607516  )
        20           O   tau(  20) = (   0.0030301   0.7563546   0.0418497  )
        21           O   tau(  21) = (   0.4969700   0.2375857   0.0418497  )
        22           O   tau(  22) = (   0.5030300   0.7999519   0.9607516  )
        23           O   tau(  23) = (   0.0030301   0.2811830   0.5431504  )
        24           O   tau(  24) = (   0.9969700   0.7563546   0.4594509  )
        25           O   tau(  25) = (   0.7082589   0.2546221   0.7473390  )
        26           O   tau(  26) = (   0.2917411   0.7829156   0.2552623  )
        27           O   tau(  27) = (   0.7917412   0.2641467   0.2460383  )
        28           O   tau(  28) = (   0.2082589   0.7733909   0.7565629  )
        29           O   tau(  29) = (   0.2917411   0.2546221   0.7565629  )
        30           O   tau(  30) = (   0.7082589   0.7829156   0.2460383  )
        31           O   tau(  31) = (   0.2082589   0.2641467   0.2552623  )
        32           O   tau(  32) = (   0.7917412   0.7733909   0.7473390  )

     number of k points=    64  gaussian smearing, width (Ry)=  0.0007
                       cart. coord. in units 2pi/alat
        k(    1) = (   0.0000000   0.0000000   0.0000000), wk =   0.0092593
        k(    2) = (   0.0000000   0.0000000   0.1662342), wk =   0.0185185
        k(    3) = (   0.0000000   0.0000000   0.3324685), wk =   0.0185185
        k(    4) = (   0.0000000   0.0000000  -0.4987027), wk =   0.0092593
        k(    5) = (   0.0000000   0.1606367   0.0000000), wk =   0.0185185
        k(    6) = (   0.0000000   0.1606367   0.1662342), wk =   0.0370370
        k(    7) = (   0.0000000   0.1606367   0.3324685), wk =   0.0370370
        k(    8) = (   0.0000000   0.1606367  -0.4987027), wk =   0.0185185
        k(    9) = (   0.0000000   0.3212735   0.0000000), wk =   0.0185185
        k(   10) = (   0.0000000   0.3212735   0.1662342), wk =   0.0370370
        k(   11) = (   0.0000000   0.3212735   0.3324685), wk =   0.0370370
        k(   12) = (   0.0000000   0.3212735  -0.4987027), wk =   0.0185185
        k(   13) = (   0.0000000  -0.4819102   0.0000000), wk =   0.0092593
        k(   14) = (   0.0000000  -0.4819102   0.1662342), wk =   0.0185185
        k(   15) = (   0.0000000  -0.4819102   0.3324685), wk =   0.0185185
        k(   16) = (   0.0000000  -0.4819102  -0.4987027), wk =   0.0092593
        k(   17) = (   0.1666667   0.0000000   0.0000000), wk =   0.0185185
        k(   18) = (   0.1666667   0.0000000   0.1662342), wk =   0.0370370
        k(   19) = (   0.1666667   0.0000000   0.3324685), wk =   0.0370370
        k(   20) = (   0.1666667   0.0000000  -0.4987027), wk =   0.0185185
        k(   21) = (   0.1666667   0.1606367   0.0000000), wk =   0.0370370
        k(   22) = (   0.1666667   0.1606367   0.1662342), wk =   0.0740741
        k(   23) = (   0.1666667   0.1606367   0.3324685), wk =   0.0740741
        k(   24) = (   0.1666667   0.1606367  -0.4987027), wk =   0.0370370
        k(   25) = (   0.1666667   0.3212735   0.0000000), wk =   0.0370370
        k(   26) = (   0.1666667   0.3212735   0.1662342), wk =   0.0740741
        k(   27) = (   0.1666667   0.3212735   0.3324685), wk =   0.0740741
        k(   28) = (   0.1666667   0.3212735  -0.4987027), wk =   0.0370370
        k(   29) = (   0.1666667  -0.4819102   0.0000000), wk =   0.0185185
        k(   30) = (   0.1666667  -0.4819102   0.1662342), wk =   0.0370370
        k(   31) = (   0.1666667  -0.4819102   0.3324685), wk =   0.0370370
        k(   32) = (   0.1666667  -0.4819102  -0.4987027), wk =   0.0185185
        k(   33) = (   0.3333333   0.0000000   0.0000000), wk =   0.0185185
        k(   34) = (   0.3333333   0.0000000   0.1662342), wk =   0.0370370
        k(   35) = (   0.3333333   0.0000000   0.3324685), wk =   0.0370370
        k(   36) = (   0.3333333   0.0000000  -0.4987027), wk =   0.0185185
        k(   37) = (   0.3333333   0.1606367   0.0000000), wk =   0.0370370
        k(   38) = (   0.3333333   0.1606367   0.1662342), wk =   0.0740741
        k(   39) = (   0.3333333   0.1606367   0.3324685), wk =   0.0740741
        k(   40) = (   0.3333333   0.1606367  -0.4987027), wk =   0.0370370
        k(   41) = (   0.3333333   0.3212735   0.0000000), wk =   0.0370370
        k(   42) = (   0.3333333   0.3212735   0.1662342), wk =   0.0740741
        k(   43) = (   0.3333333   0.3212735   0.3324685), wk =   0.0740741
        k(   44) = (   0.3333333   0.3212735  -0.4987027), wk =   0.0370370
        k(   45) = (   0.3333333  -0.4819102   0.0000000), wk =   0.0185185
        k(   46) = (   0.3333333  -0.4819102   0.1662342), wk =   0.0370370
        k(   47) = (   0.3333333  -0.4819102   0.3324685), wk =   0.0370370
        k(   48) = (   0.3333333  -0.4819102  -0.4987027), wk =   0.0185185
        k(   49) = (  -0.5000000   0.0000000   0.0000000), wk =   0.0092593
        k(   50) = (  -0.5000000   0.0000000   0.1662342), wk =   0.0185185
        k(   51) = (  -0.5000000   0.0000000   0.3324685), wk =   0.0185185
        k(   52) = (  -0.5000000   0.0000000  -0.4987027), wk =   0.0092593
        k(   53) = (  -0.5000000   0.1606367   0.0000000), wk =   0.0185185
        k(   54) = (  -0.5000000   0.1606367   0.1662342), wk =   0.0370370
        k(   55) = (  -0.5000000   0.1606367   0.3324685), wk =   0.0370370
        k(   56) = (  -0.5000000   0.1606367  -0.4987027), wk =   0.0185185
        k(   57) = (  -0.5000000   0.3212735   0.0000000), wk =   0.0185185
        k(   58) = (  -0.5000000   0.3212735   0.1662342), wk =   0.0370370
        k(   59) = (  -0.5000000   0.3212735   0.3324685), wk =   0.0370370
        k(   60) = (  -0.5000000   0.3212735  -0.4987027), wk =   0.0185185
        k(   61) = (  -0.5000000  -0.4819102   0.0000000), wk =   0.0092593
        k(   62) = (  -0.5000000  -0.4819102   0.1662342), wk =   0.0185185
        k(   63) = (  -0.5000000  -0.4819102   0.3324685), wk =   0.0185185
        k(   64) = (  -0.5000000  -0.4819102  -0.4987027), wk =   0.0092593

     Dense  grid:   500641 G-vectors     FFT dimensions: ( 100, 108, 100)

     Estimated max dynamical RAM per process >       3.14 GB

     Estimated total dynamical RAM >     125.68 GB

     Initial potential from superposition of free atoms

     starting charge  367.99656, renormalised to  368.20000
     Starting wfc are  232 randomized atomic wfcs

     total cpu time spent up to now is       47.8 secs

     Self-consistent Calculation

     iteration #  1     ecut=   120.00 Ry     beta= 0.70
     Davidson diagonalization with overlap
     ethr =  1.00E-02,  avg # of iterations =  5.1

     total cpu time spent up to now is      209.9 secs

     total energy              =   -6253.81175365 Ry
     Harris-Foulkes estimate   =   -6264.48422513 Ry
     estimated scf accuracy    <      13.49161489 Ry

     iteration #  2     ecut=   120.00 Ry     beta= 0.70
     Davidson diagonalization with overlap
     ethr =  3.66E-03,  avg # of iterations =  3.5

     total cpu time spent up to now is      368.4 secs

     total energy              =   -6250.67899836 Ry
     Harris-Foulkes estimate   =   -6270.62338151 Ry
     estimated scf accuracy    <      53.42907168 Ry

     iteration #  3     ecut=   120.00 Ry     beta= 0.70
     Davidson diagonalization with overlap
     ethr =  3.66E-03,  avg # of iterations =  3.5

     total cpu time spent up to now is      513.7 secs

     total energy              =   -6260.95865269 Ry
     Harris-Foulkes estimate   =   -6261.23544389 Ry
     estimated scf accuracy    <       0.91363367 Ry

     iteration #  4     ecut=   120.00 Ry     beta= 0.70
     Davidson diagonalization with overlap
     ethr =  2.48E-04,  avg # of iterations =  3.1

     total cpu time spent up to now is      634.4 secs

     total energy              =   -6260.95153076 Ry
     Harris-Foulkes estimate   =   -6261.02483309 Ry
     estimated scf accuracy    <       0.22023863 Ry

     iteration #  5     ecut=   120.00 Ry     beta= 0.70
     Davidson diagonalization with overlap
     ethr =  5.98E-05,  avg # of iterations =  5.2

     total cpu time spent up to now is      766.7 secs

     total energy              =   -6260.95880264 Ry
     Harris-Foulkes estimate   =   -6260.98693573 Ry
     estimated scf accuracy    <       0.06378286 Ry

     iteration #  6     ecut=   120.00 Ry     beta= 0.70
     Davidson diagonalization with overlap
     ethr =  1.73E-05,  avg # of iterations =  5.8

     total cpu time spent up to now is      905.7 secs

     total energy              =   -6260.97221860 Ry
     Harris-Foulkes estimate   =   -6260.97487089 Ry
     estimated scf accuracy    <       0.00699776 Ry

     iteration #  7     ecut=   120.00 Ry     beta= 0.70
     Davidson diagonalization with overlap
     ethr =  1.90E-06,  avg # of iterations =  7.2

     total cpu time spent up to now is     1038.5 secs

     total energy              =   -6260.97312564 Ry
     Harris-Foulkes estimate   =   -6260.97321137 Ry
     estimated scf accuracy    <       0.00015570 Ry

     iteration #  8     ecut=   120.00 Ry     beta= 0.70
     Davidson diagonalization with overlap
     ethr =  4.23E-08,  avg # of iterations =  3.1

     total cpu time spent up to now is     1192.1 secs

     total energy              =   -6260.97319276 Ry
     Harris-Foulkes estimate   =   -6260.97320204 Ry
     estimated scf accuracy    <       0.00004323 Ry

     iteration #  9     ecut=   120.00 Ry     beta= 0.70
     Davidson diagonalization with overlap
     ethr =  1.17E-08,  avg # of iterations =  1.9

     total cpu time spent up to now is     1298.6 secs

     total energy              =   -6260.97318976 Ry
     Harris-Foulkes estimate   =   -6260.97319552 Ry
     estimated scf accuracy    <       0.00002016 Ry

     iteration # 10     ecut=   120.00 Ry     beta= 0.70
     Davidson diagonalization with overlap
     ethr =  5.48E-09,  avg # of iterations =  2.0

     total cpu time spent up to now is     1407.2 secs

     total energy              =   -6260.97319017 Ry
     Harris-Foulkes estimate   =   -6260.97319178 Ry
     estimated scf accuracy    <       0.00000379 Ry

     iteration # 11     ecut=   120.00 Ry     beta= 0.70
     Davidson diagonalization with overlap
     ethr =  1.03E-09,  avg # of iterations =  3.0

     total cpu time spent up to now is     1527.6 secs

     total energy              =   -6260.97319102 Ry
     Harris-Foulkes estimate   =   -6260.97319109 Ry
     estimated scf accuracy    <       0.00000017 Ry

     iteration # 12     ecut=   120.00 Ry     beta= 0.70
     Davidson diagonalization with overlap
     ethr =  4.52E-11,  avg # of iterations =  2.1

     total cpu time spent up to now is     1653.0 secs

     total energy              =   -6260.97319102 Ry
     Harris-Foulkes estimate   =   -6260.97319105 Ry
     estimated scf accuracy    <       0.00000004 Ry

     iteration # 13     ecut=   120.00 Ry     beta= 0.70
     Davidson diagonalization with overlap
     ethr =  1.18E-11,  avg # of iterations =  2.7

     total cpu time spent up to now is     1788.0 secs

     End of self-consistent calculation

          k = 0.0000 0.0000 0.0000 ( 62507 PWs)   bands (ev):

   -66.2082 -66.2077 -66.2073 -66.2073 -66.2068 -66.2068 -66.2064 -66.2059
   -30.6082 -30.6026 -30.6013 -30.5956 -30.5680 -30.5626 -30.5622 -30.5620
   -30.5600 -30.5500 -30.5489 -30.5452 -30.5318 -30.5278 -30.5227 -30.5170
   -30.4664 -30.4649 -30.4647 -30.4637 -30.4613 -30.4561 -30.4534 -30.4492
   -20.3669 -20.3668 -20.3667 -20.3666 -20.3665 -20.3664 -20.3664 -20.3663
   -20.3497 -20.3494 -20.3491 -20.3487 -20.3475 -20.3469 -20.3469 -20.3462
   -20.3461 -20.3458 -20.3454 -20.3450 -20.3442 -20.3437 -20.3434 -20.3432
   -20.3430 -20.3427 -20.3423 -20.3419 -20.3417 -20.3415 -20.3409 -20.3407
   -20.3363 -20.3360 -20.3359 -20.3356 -20.3317 -20.3314 -20.3312 -20.3310
   -20.3302 -20.3302 -20.3292 -20.3292 -20.3238 -20.3237 -20.3235 -20.3234
   -20.3225 -20.3224 -20.3220 -20.3217 -20.3198 -20.3197 -20.3185 -20.3184
   -10.0018  -9.6976  -9.5951  -9.5922  -9.3090  -9.2911  -9.1891  -9.0800
    -9.0604  -8.9783  -8.9507  -8.9474  -7.9207  -7.8452  -7.8424  -7.8273
    -7.8183  -7.7999  -7.7988  -7.7739  -7.7281  -7.7185  -7.6958  -7.6946
     1.1382   1.1456   1.2061   1.2253   1.2305   1.2606   1.2742   1.4650
     1.5016   1.5262   1.5347   1.7541   2.3820   2.4738   2.4936   2.5158
     2.6210   2.6596   4.1208   4.1729   4.3248   4.4204   4.6373   4.6548
     4.6884   4.7012   4.7075   4.7321   4.9093   4.9255   5.1193   5.3664
     5.4024   5.4406   5.4670   5.5021   5.5077   5.5568   5.6260   5.7312
     5.7429   5.7660   5.7927   5.8673   5.9242   5.9781   6.0261   6.0318
     6.0514   6.2358   6.2563   6.4018   6.4085   6.7164   6.7740   6.8287
     6.8516   6.8806   6.8968   6.9485   6.9533   6.9987   7.1622   7.1819
     7.2136   7.2281   7.8484   7.8657   7.9534   8.0188   8.0523   8.1129
     9.3249   9.3519   9.8174   9.8224   9.8491   9.8506  12.2104  12.2595
    12.3578  12.3846  12.4152  12.4224  12.5118  12.5602  12.6105  12.8691
    13.1328  13.1390  13.1967  13.2839  13.6499  13.7460  14.0305  14.0386
    14.3547  14.3920  14.6179  14.8113  15.1862  15.2115  15.5403  15.8739
    15.9423  16.7860  16.9331  17.0085  17.3091

          k = 0.0000 0.0000 0.1662 ( 62565 PWs)   bands (ev):

   -66.2081 -66.2076 -66.2074 -66.2072 -66.2069 -66.2067 -66.2065 -66.2060
   -30.6078 -30.6029 -30.6009 -30.5960 -30.5656 -30.5603 -30.5595 -30.5591
   -30.5573 -30.5493 -30.5447 -30.5415 -30.5324 -30.5264 -30.5235 -30.5160
   -30.4719 -30.4704 -30.4698 -30.4687 -30.4610 -30.4558 -30.4552 -30.4503
   -20.3669 -20.3667 -20.3667 -20.3666 -20.3666 -20.3665 -20.3664 -20.3663
   -20.3497 -20.3494 -20.3491 -20.3488 -20.3474 -20.3469 -20.3469 -20.3462
   -20.3460 -20.3458 -20.3455 -20.3451 -20.3442 -20.3437 -20.3435 -20.3431
   -20.3431 -20.3427 -20.3423 -20.3419 -20.3416 -20.3414 -20.3409 -20.3407
   -20.3363 -20.3360 -20.3359 -20.3356 -20.3317 -20.3315 -20.3313 -20.3310
   -20.3298 -20.3298 -20.3287 -20.3287 -20.3242 -20.3241 -20.3234 -20.3233
   -20.3230 -20.3228 -20.3221 -20.3219 -20.3197 -20.3196 -20.3186 -20.3185
    -9.9573  -9.6442  -9.6099  -9.5342  -9.3030  -9.2210  -9.1973  -9.0429
    -9.0215  -8.9659  -8.9508  -8.9188  -7.9609  -7.9596  -7.8957  -7.8567
    -7.8489  -7.8442  -7.8104  -7.7980  -7.7916  -7.7771  -7.7252  -7.7015
     1.2139   1.2246   1.2373   1.2773   1.3418   1.3573   1.4602   1.4905
     1.5311   1.6130   1.6908   1.8696   2.4681   2.4981   2.5652   2.6008
     2.6132   2.7434   4.0720   4.1225   4.2913   4.3555   4.3657   4.4036
     4.5082   4.6273   4.7080   4.7387   4.7505   4.9191   5.1132   5.2039
     5.2634   5.3867   5.4124   5.4930   5.5119   5.5387   5.5841   5.6263
     5.6354   5.7484   5.7905   5.8516   5.9320   5.9484   6.0545   6.0897
     6.1513   6.3743   6.3972   6.4349   6.6422   6.6785   6.6943   6.7407
     6.7827   6.8601   6.8732   6.8960   6.9333   7.0017   7.0077   7.0088
     7.0478   7.0893   7.8356   7.8450   7.9751   8.0046   8.0216   8.0648
     9.6230   9.6614   9.8153   9.8578  10.0984  10.1372  12.1820  12.2519
    12.2635  12.3581  12.4324  12.4542  12.5621  12.5966  12.6527  12.7656
    12.9750  13.1405  13.1793  13.2938  13.7204  13.7456  13.8925  13.9186
    14.3905  14.5328  14.6140  14.9208  15.2359  15.2888  15.5087  15.9145
    16.2010  16.7356  16.9571  17.1169  17.3969

          k = 0.0000 0.0000 0.3325 ( 62509 PWs)   bands (ev):

   -66.2080 -66.2076 -66.2075 -66.2071 -66.2071 -66.2067 -66.2066 -66.2062
   -30.6067 -30.6039 -30.5998 -30.5970 -30.5638 -30.5612 -30.5548 -30.5504
   -30.5475 -30.5457 -30.5341 -30.5302 -30.5272 -30.5263 -30.5206 -30.5119
   -30.4871 -30.4868 -30.4840 -30.4838 -30.4602 -30.4574 -30.4550 -30.4522
   -20.3668 -20.3667 -20.3666 -20.3666 -20.3665 -20.3665 -20.3665 -20.3664
   -20.3496 -20.3495 -20.3490 -20.3488 -20.3473 -20.3470 -20.3467 -20.3463
   -20.3460 -20.3457 -20.3456 -20.3453 -20.3441 -20.3437 -20.3436 -20.3433
   -20.3428 -20.3424 -20.3424 -20.3420 -20.3414 -20.3412 -20.3410 -20.3408
   -20.3363 -20.3361 -20.3358 -20.3357 -20.3317 -20.3316 -20.3313 -20.3311
   -20.3285 -20.3285 -20.3275 -20.3275 -20.3253 -20.3252 -20.3242 -20.3241
   -20.3232 -20.3231 -20.3225 -20.3223 -20.3195 -20.3194 -20.3188 -20.3187
    -9.8503  -9.6560  -9.5218  -9.4011  -9.3401  -9.2253  -8.9920  -8.9707
    -8.9603  -8.8814  -8.8571  -8.7958  -8.2571  -8.2532  -8.1838  -8.1722
    -7.8855  -7.8593  -7.8073  -7.7926  -7.7855  -7.7728  -7.7434  -7.7204
     1.2239   1.2251   1.2859   1.2953   1.4245   1.4498   1.4792   1.5239
     2.1893   2.2435   2.3380   2.4287   2.5202   2.6002   2.7150   2.8195
     2.8367   2.9723   3.6744   3.7954   3.7986   3.9376   4.0264   4.2244
     4.3471   4.4583   4.5114   4.5958   4.6303   4.7157   4.8570   5.0375
     5.0559   5.0581   5.1034   5.2918   5.3283   5.4169   5.6202   5.6782
     5.7070   5.7239   5.8214   5.8290   5.9682   6.0778   6.1172   6.1932
     6.1988   6.3307   6.3590   6.4085   6.4576   6.5080   6.5216   6.7230
     6.7368   6.8563   6.8718   6.8801   6.9580   6.9993   7.0176   7.0850
     7.1848   7.2444   7.7314   7.7440   7.8536   7.9131   8.0064   8.0230
     9.7858   9.8091  10.3441  10.4144  10.7244  10.7962  11.7985  11.8560
    12.0782  12.2979  12.4075  12.5666  12.5882  12.5963  12.6697  12.6973
    12.8283  13.0871  13.1645  13.1786  13.5639  13.6130  13.7465  13.7733
    14.5021  14.6013  14.8804  15.2020  15.4054  15.4347  15.7582  15.8274
    16.1934  17.0887  17.3008  17.5046  17.6855

          k = 0.0000 0.0000-0.4987 ( 62588 PWs)   bands (ev):

   -66.2078 -66.2078 -66.2073 -66.2073 -66.2069 -66.2069 -66.2064 -66.2064
   -30.6053 -30.6053 -30.5984 -30.5983 -30.5624 -30.5624 -30.5522 -30.5522
   -30.5380 -30.5380 -30.5332 -30.5332 -30.5089 -30.5089 -30.5063 -30.5063
   -30.5056 -30.5056 -30.5012 -30.5012 -30.4590 -30.4589 -30.4537 -30.4537
   -20.3667 -20.3667 -20.3666 -20.3666 -20.3666 -20.3666 -20.3664 -20.3664
   -20.3496 -20.3496 -20.3489 -20.3489 -20.3471 -20.3471 -20.3465 -20.3465
   -20.3458 -20.3458 -20.3455 -20.3455 -20.3439 -20.3439 -20.3435 -20.3435
   -20.3426 -20.3426 -20.3422 -20.3422 -20.3412 -20.3412 -20.3410 -20.3410
   -20.3362 -20.3362 -20.3358 -20.3358 -20.3317 -20.3317 -20.3312 -20.3312
   -20.3269 -20.3269 -20.3269 -20.3269 -20.3259 -20.3259 -20.3258 -20.3258
   -20.3229 -20.3229 -20.3227 -20.3227 -20.3192 -20.3191 -20.3191 -20.3191
    -9.7376  -9.7376  -9.4098  -9.4098  -9.2865  -9.2865  -8.9737  -8.9737
    -8.6147  -8.6147  -8.5958  -8.5958  -8.5920  -8.5920  -8.5318  -8.5318
    -7.8733  -7.8733  -7.7968  -7.7968  -7.7681  -7.7681  -7.7464  -7.7464
     1.2245   1.2245   1.2960   1.2961   1.4388   1.4388   1.5134   1.5135
     2.5480   2.5480   2.9646   2.9646   3.0538   3.0539   3.0928   3.0929
     3.1979   3.1979   3.2222   3.2222   3.4388   3.4389   3.6913   3.6913
     3.7481   3.7481   4.4586   4.4586   4.5554   4.5554   4.9256   4.9257
     5.1385   5.1385   5.2022   5.2022   5.2465   5.2465   5.6686   5.6686
     5.7564   5.7564   5.9209   5.9209   5.9860   5.9860   6.1657   6.1657
     6.1706   6.1706   6.2813   6.2813   6.4393   6.4393   6.4950   6.4950
     6.7347   6.7347   6.8645   6.8645   6.9828   6.9828   7.4461   7.4461
     7.4900   7.4900   7.5797   7.5797   7.6398   7.6398   8.0200   8.0200
     9.7998   9.7998  11.1203  11.1203  11.1918  11.1918  11.4608  11.4608
    11.5805  11.5805  12.5770  12.5770  12.5954  12.5954  12.8371  12.8371
    12.8706  12.8706  13.1805  13.1805  13.3090  13.3090  13.7558  13.7558
    14.5725  14.5725  15.2042  15.2042  15.6427  15.6427  15.6682  15.6682
    16.5671  16.5671  17.8329  17.8329  17.9972

          k = 0.0000 0.1606 0.0000 ( 62597 PWs)   bands (ev):

   -66.2082 -66.2077 -66.2073 -66.2073 -66.2069 -66.2068 -66.2064 -66.2060
   -30.6044 -30.5986 -30.5972 -30.5913 -30.5692 -30.5628 -30.5628 -30.5621
   -30.5613 -30.5500 -30.5482 -30.5445 -30.5360 -30.5313 -30.5258 -30.5203
   -30.4663 -30.4650 -30.4648 -30.4638 -30.4610 -30.4566 -30.4533 -30.4496
   -20.3669 -20.3668 -20.3667 -20.3666 -20.3665 -20.3664 -20.3664 -20.3663
   -20.3495 -20.3492 -20.3489 -20.3485 -20.3475 -20.3470 -20.3470 -20.3463
   -20.3459 -20.3456 -20.3452 -20.3449 -20.3442 -20.3437 -20.3434 -20.3433
   -20.3430 -20.3428 -20.3423 -20.3420 -20.3419 -20.3418 -20.3412 -20.3410
   -20.3363 -20.3360 -20.3359 -20.3357 -20.3317 -20.3314 -20.3313 -20.3311
   -20.3302 -20.3302 -20.3292 -20.3292 -20.3238 -20.3237 -20.3235 -20.3234
   -20.3225 -20.3224 -20.3220 -20.3218 -20.3198 -20.3197 -20.3185 -20.3184
    -9.9698  -9.7094  -9.5544  -9.5531  -9.3164  -9.2992  -9.1112  -9.0786
    -9.0617  -8.9305  -8.9105  -8.9083  -8.0051  -7.9468  -7.9325  -7.8888
    -7.8409  -7.8341  -7.8021  -7.8008  -7.7263  -7.7221  -7.7004  -7.6969
     1.1385   1.1448   1.2229   1.2310   1.2530   1.2743   1.3849   1.5257
     1.6710   1.7283   1.7553   1.9139   2.3888   2.4693   2.5665   2.5939
     2.6926   2.7357   3.9732   4.0376   4.0531   4.1305   4.5910   4.6429
     4.6805   4.6956   4.7097   4.7946   4.8664   4.8744   5.0014   5.2263
     5.2629   5.3897   5.4002   5.5456   5.5693   5.5958   5.6061   5.6731
     5.6752   5.7100   5.8121   5.8951   5.9397   5.9851   6.0088   6.0294
     6.0504   6.2085   6.2670   6.4224   6.4585   6.7339   6.7350   6.7728
     6.8304   6.8710   6.8773   6.8919   6.9133   6.9159   7.1690   7.1808
     7.2218   7.2268   7.8469   7.8642   7.9284   7.9672   8.0110   8.0359
     9.3349   9.3528  10.0242  10.0271  10.0432  10.0477  12.1040  12.2132
    12.3404  12.3544  12.3601  12.3899  12.3972  12.4065  12.6425  12.8799
    13.1276  13.1504  13.1862  13.2976  13.7464  13.7628  13.9278  13.9361
    14.4663  14.6490  14.7763  14.9722  15.1852  15.2070  15.8485  15.9092
    15.9447  16.5068  17.0805  17.1558  17.5020

          k = 0.0000 0.1606 0.1662 ( 62593 PWs)   bands (ev):

   -66.2081 -66.2077 -66.2074 -66.2072 -66.2069 -66.2068 -66.2065 -66.2060
   -30.6040 -30.5990 -30.5968 -30.5917 -30.5672 -30.5616 -30.5595 -30.5590
   -30.5580 -30.5486 -30.5446 -30.5410 -30.5365 -30.5297 -30.5265 -30.5191
   -30.4719 -30.4706 -30.4699 -30.4688 -30.4607 -30.4563 -30.4550 -30.4508
   -20.3668 -20.3667 -20.3667 -20.3666 -20.3665 -20.3664 -20.3664 -20.3663
   -20.3495 -20.3492 -20.3488 -20.3485 -20.3475 -20.3470 -20.3469 -20.3463
   -20.3459 -20.3456 -20.3453 -20.3450 -20.3441 -20.3437 -20.3435 -20.3431
   -20.3430 -20.3427 -20.3423 -20.3419 -20.3419 -20.3417 -20.3412 -20.3411
   -20.3363 -20.3360 -20.3359 -20.3357 -20.3317 -20.3314 -20.3313 -20.3311
   -20.3298 -20.3298 -20.3287 -20.3287 -20.3242 -20.3241 -20.3234 -20.3233
   -20.3229 -20.3228 -20.3221 -20.3219 -20.3197 -20.3196 -20.3186 -20.3185
    -9.9240  -9.6561  -9.5691  -9.4904  -9.3113  -9.2285  -9.1195  -9.0407
    -9.0228  -8.9203  -8.9118  -8.8833  -8.0135  -7.9624  -7.9590  -7.9391
    -7.9109  -7.8971  -7.8550  -7.8238  -7.8153  -7.7940  -7.7290  -7.7038
     1.2331   1.2374   1.2546   1.2774   1.4451   1.4874   1.4908   1.6751
     1.6903   1.7517   1.7632   1.9784   2.4754   2.5537   2.5770   2.6800
     2.6855   2.8191   3.9870   3.9887   4.1008   4.1155   4.3119   4.3599
     4.5575   4.5754   4.6236   4.7338   4.7450   4.8769   4.9953   5.1284
     5.1936   5.2653   5.3416   5.3754   5.4348   5.5393   5.5918   5.6171
     5.7208   5.7253   5.7573   5.8629   5.8743   5.9783   6.0275   6.1129
     6.1135   6.3167   6.4204   6.4473   6.6489   6.6985   6.7232   6.7435
     6.7767   6.8615   6.8640   6.8839   6.9073   6.9134   7.0051   7.0164
     7.0661   7.0895   7.8337   7.8443   7.9370   7.9658   7.9703   7.9940
     9.6551   9.6670  10.0272  10.0555  10.2530  10.2897  12.1593  12.1661
    12.2577  12.2883  12.3761  12.3924  12.4439  12.4854  12.6872  12.7938
    12.9611  13.1320  13.1696  13.2978  13.7465  13.7853  13.7927  13.8190
    14.5436  14.7567  14.8319  15.0645  15.2336  15.2913  15.8816  15.9132
    16.1741  16.6649  16.8691  17.2411  17.5655

          k = 0.0000 0.1606 0.3325 ( 62564 PWs)   bands (ev):

   -66.2080 -66.2075 -66.2075 -66.2071 -66.2070 -66.2066 -66.2066 -66.2062
   -30.6028 -30.6000 -30.5956 -30.5927 -30.5652 -30.5625 -30.5544 -30.5497
   -30.5489 -30.5469 -30.5381 -30.5301 -30.5291 -30.5271 -30.5227 -30.5144
   -30.4873 -30.4869 -30.4843 -30.4840 -30.4599 -30.4571 -30.4554 -30.4526
   -20.3668 -20.3667 -20.3667 -20.3666 -20.3665 -20.3665 -20.3665 -20.3664
   -20.3494 -20.3492 -20.3488 -20.3486 -20.3474 -20.3471 -20.3468 -20.3464
   -20.3458 -20.3455 -20.3454 -20.3451 -20.3441 -20.3437 -20.3436 -20.3433
   -20.3429 -20.3425 -20.3424 -20.3421 -20.3417 -20.3415 -20.3413 -20.3412
   -20.3363 -20.3361 -20.3359 -20.3357 -20.3317 -20.3315 -20.3313 -20.3311
   -20.3285 -20.3285 -20.3275 -20.3275 -20.3253 -20.3252 -20.3242 -20.3241
   -20.3232 -20.3231 -20.3225 -20.3223 -20.3195 -20.3194 -20.3188 -20.3187
    -9.8138  -9.6157  -9.5334  -9.3491  -9.3424  -9.1481  -8.9785  -8.9651
    -8.9215  -8.8833  -8.8392  -8.7751  -8.2600  -8.2549  -8.1965  -8.1698
    -7.9755  -7.9547  -7.9144  -7.8916  -7.8003  -7.7752  -7.7480  -7.7227
     1.2593   1.2686   1.2859   1.2952   1.6358   1.6469   1.7123   1.7465
     2.1886   2.2523   2.3387   2.4456   2.5941   2.6680   2.7247   2.8151
     2.9171   3.0424   3.6805   3.7870   3.8141   3.8820   4.0818   4.0982
     4.1386   4.3105   4.4728   4.5266   4.5919   4.6777   4.7207   4.9184
     4.9218   5.0506   5.0657   5.0871   5.2933   5.3646   5.4405   5.6113
     5.6682   5.7497   5.7575   5.8317   5.8639   6.0419   6.0899   6.1188
     6.2448   6.4018   6.4065   6.4532   6.4963   6.6046   6.6890   6.6975
     6.7795   6.8032   6.8616   6.8666   6.9026   6.9388   7.0651   7.0775
     7.1870   7.2428   7.7346   7.7415   7.8224   7.8604   7.9556   7.9703
    10.0046  10.0264  10.3540  10.4230  10.8316  10.8903  11.8006  11.8546
    12.0780  12.3375  12.3615  12.4049  12.5124  12.5696  12.6184  12.6961
    12.7194  13.0899  13.1360  13.1584  13.4477  13.5317  13.7480  13.7879
    14.6776  14.7538  15.2238  15.3321  15.4232  15.7722  15.7966  15.8253
    16.3242  17.0552  17.1357  17.3643  17.6866

          k = 0.0000 0.1606-0.4987 ( 62544 PWs)   bands (ev):

   -66.2077 -66.2077 -66.2073 -66.2073 -66.2068 -66.2068 -66.2064 -66.2064
   -30.6013 -30.6013 -30.5941 -30.5941 -30.5638 -30.5638 -30.5516 -30.5516
   -30.5415 -30.5415 -30.5351 -30.5351 -30.5090 -30.5090 -30.5069 -30.5069
   -30.5057 -30.5057 -30.5024 -30.5024 -30.4587 -30.4587 -30.4542 -30.4542
   -20.3667 -20.3667 -20.3666 -20.3666 -20.3666 -20.3666 -20.3665 -20.3664
   -20.3493 -20.3493 -20.3487 -20.3487 -20.3472 -20.3472 -20.3466 -20.3466
   -20.3456 -20.3456 -20.3454 -20.3454 -20.3439 -20.3439 -20.3435 -20.3435
   -20.3426 -20.3426 -20.3423 -20.3422 -20.3415 -20.3415 -20.3413 -20.3413
   -20.3362 -20.3362 -20.3358 -20.3358 -20.3316 -20.3316 -20.3312 -20.3312
   -20.3269 -20.3269 -20.3269 -20.3269 -20.3259 -20.3259 -20.3258 -20.3258
   -20.3229 -20.3229 -20.3227 -20.3227 -20.3191 -20.3191 -20.3191 -20.3191
    -9.6984  -9.6984  -9.4200  -9.4200  -9.2137  -9.2137  -8.9364  -8.9364
    -8.6202  -8.6201  -8.5989  -8.5989  -8.5909  -8.5909  -8.5251  -8.5251
    -7.9673  -7.9673  -7.9044  -7.9044  -7.7741  -7.7741  -7.7489  -7.7489
     1.2663   1.2663   1.2960   1.2960   1.6525   1.6525   1.7394   1.7394
     2.6190   2.6190   2.9798   2.9798   3.0857   3.0857   3.0864   3.0864
     3.1942   3.1942   3.2478   3.2478   3.4295   3.4295   3.7097   3.7098
     3.8012   3.8012   4.2273   4.2273   4.4636   4.4636   4.7292   4.7292
     4.9857   4.9857   5.1736   5.1736   5.2444   5.2444   5.4747   5.4747
     5.6844   5.6844   5.8074   5.8074   5.9964   5.9965   6.1667   6.1667
     6.2518   6.2518   6.3302   6.3302   6.4801   6.4801   6.6278   6.6278
     6.8014   6.8014   6.8404   6.8404   6.8924   6.8924   7.4572   7.4572
     7.4859   7.4860   7.5630   7.5631   7.6130   7.6130   7.9665   7.9665
    10.0226  10.0226  11.1272  11.1272  11.1917  11.1917  11.5293  11.5293
    11.6399  11.6399  12.4342  12.4342  12.5838  12.5838  12.7988  12.7988
    12.8478  12.8478  13.0625  13.0625  13.2624  13.2624  13.7580  13.7580
    14.7320  14.7320  15.5764  15.5764  15.6439  15.6439  15.7866  15.7866
    16.6231  16.6231  17.6180  17.6180  18.0163

          k = 0.0000 0.3213 0.0000 ( 62624 PWs)   bands (ev):

   -66.2081 -66.2078 -66.2072 -66.2072 -66.2070 -66.2069 -66.2063 -66.2061
   -30.5945 -30.5883 -30.5865 -30.5796 -30.5737 -30.5663 -30.5653 -30.5629
   -30.5622 -30.5494 -30.5476 -30.5458 -30.5419 -30.5397 -30.5335 -30.5282
   -30.4660 -30.4652 -30.4648 -30.4642 -30.4602 -30.4577 -30.4527 -30.4506
   -20.3668 -20.3668 -20.3667 -20.3666 -20.3665 -20.3664 -20.3664 -20.3663
   -20.3489 -20.3486 -20.3483 -20.3478 -20.3478 -20.3473 -20.3472 -20.3466
   -20.3453 -20.3451 -20.3446 -20.3444 -20.3440 -20.3436 -20.3434 -20.3434
   -20.3430 -20.3430 -20.3429 -20.3427 -20.3424 -20.3420 -20.3420 -20.3418
   -20.3362 -20.3360 -20.3359 -20.3357 -20.3316 -20.3314 -20.3313 -20.3311
   -20.3302 -20.3302 -20.3292 -20.3292 -20.3238 -20.3237 -20.3235 -20.3234
   -20.3225 -20.3224 -20.3219 -20.3218 -20.3198 -20.3197 -20.3185 -20.3184
    -9.8926  -9.7460  -9.4665  -9.4619  -9.3405  -9.3257  -9.0750  -9.0653
    -8.8910  -8.7802  -8.7749  -8.7714  -8.2561  -8.2131  -8.2019  -8.1794
    -7.8383  -7.8378  -7.8059  -7.8053  -7.7213  -7.7193  -7.7071  -7.7032
     1.1394   1.1429   1.2321   1.2322   1.2700   1.2745   1.4908   1.5236
     2.2586   2.3748   2.4056   2.4119   2.4517   2.5411   2.7839   2.8387
     2.8990   2.9712   3.5644   3.5957   3.6424   3.6778   4.0776   4.3859
     4.4467   4.6393   4.6804   4.6855   4.7000   4.7381   4.9493   4.9724
     4.9985   5.0269   5.2846   5.3138   5.5046   5.5121   5.6209   5.6521
     5.8363   5.8541   5.8662   5.8772   5.9036   5.9945   5.9976   6.0562
     6.0753   6.1392   6.2337   6.4428   6.4859   6.5223   6.7251   6.7624
     6.7919   6.8908   7.0571   7.0581   7.0609   7.0630   7.1798   7.1831
     7.2277   7.2339   7.7503   7.7850   7.7963   7.8309   7.8724   7.8738
     9.3456   9.3533  10.5040  10.5632  10.5683  10.5987  11.7257  11.8440
    11.8785  11.9315  12.3466  12.3614  12.4023  12.4110  12.7275  12.8858
    13.1825  13.2136  13.2437  13.3416  13.5910  13.6819  13.6879  13.6901
    14.8920  15.1638  15.1835  15.1985  15.2077  15.5960  15.7580  15.8010
    15.9711  16.9408  17.1906  17.5825  17.6502

          k = 0.0000 0.3213 0.1662 ( 62619 PWs)   bands (ev):

   -66.2080 -66.2078 -66.2073 -66.2071 -66.2070 -66.2069 -66.2064 -66.2061
   -30.5939 -30.5886 -30.5858 -30.5800 -30.5723 -30.5665 -30.5622 -30.5590
   -30.5588 -30.5480 -30.5463 -30.5441 -30.5389 -30.5370 -30.5340 -30.5266
   -30.4717 -30.4709 -30.4699 -30.4692 -30.4599 -30.4574 -30.4543 -30.4519
   -20.3668 -20.3667 -20.3667 -20.3666 -20.3665 -20.3664 -20.3664 -20.3663
   -20.3489 -20.3486 -20.3482 -20.3479 -20.3478 -20.3474 -20.3472 -20.3466
   -20.3453 -20.3451 -20.3447 -20.3445 -20.3441 -20.3437 -20.3435 -20.3433
   -20.3431 -20.3428 -20.3427 -20.3426 -20.3425 -20.3421 -20.3420 -20.3418
   -20.3362 -20.3360 -20.3359 -20.3358 -20.3316 -20.3314 -20.3314 -20.3312
   -20.3298 -20.3298 -20.3287 -20.3287 -20.3241 -20.3241 -20.3234 -20.3233
   -20.3229 -20.3229 -20.3221 -20.3220 -20.3197 -20.3196 -20.3186 -20.3185
    -9.8437  -9.6931  -9.4768  -9.3917  -9.3384  -9.2533  -9.0364  -9.0264
    -8.8991  -8.7783  -8.7738  -8.7567  -8.2571  -8.2202  -8.2000  -8.1858
    -7.9539  -7.9377  -7.8502  -7.8364  -7.8145  -7.8002  -7.7263  -7.7102
     1.2377   1.2383   1.2726   1.2775   1.4858   1.4915   1.6455   1.6881
     2.2636   2.3689   2.4076   2.4882   2.5386   2.5458   2.7905   2.8925
     2.9272   3.0554   3.5959   3.6440   3.6555   3.6676   4.0612   4.3117
     4.3425   4.3902   4.4547   4.6475   4.6896   4.7433   4.7713   4.7759
     4.9674   5.0390   5.0997   5.2418   5.2942   5.3679   5.5105   5.6070
     5.6414   5.6839   5.7620   5.8506   5.9678   6.0055   6.0123   6.0493
     6.1870   6.3331   6.3791   6.4924   6.4999   6.7120   6.7451   6.8404
     6.8545   6.9005   6.9652   6.9909   7.0049   7.0050   7.0508   7.1026
     7.1296   7.1362   7.7531   7.7704   7.7786   7.7984   7.8520   7.8621
     9.6722   9.6743  10.5666  10.6018  10.6746  10.7382  11.8115  11.8395
    11.9317  11.9567  12.2459  12.2550  12.4495  12.4574  12.7803  12.8634
    13.0233  13.1610  13.1826  13.2943  13.5279  13.5897  13.6072  13.6887
    14.9802  15.1856  15.2259  15.3221  15.4110  15.6628  15.7738  16.0752
    16.1361  16.9063  17.2609  17.2889  17.6230

          k = 0.0000 0.3213 0.3325 ( 62558 PWs)   bands (ev):

   -66.2079 -66.2076 -66.2074 -66.2072 -66.2070 -66.2067 -66.2065 -66.2063
   -30.5926 -30.5896 -30.5843 -30.5810 -30.5703 -30.5674 -30.5561 -30.5531
   -30.5499 -30.5482 -30.5475 -30.5361 -30.5298 -30.5266 -30.5264 -30.5201
   -30.4875 -30.4872 -30.4847 -30.4843 -30.4591 -30.4566 -30.4563 -30.4538
   -20.3667 -20.3667 -20.3666 -20.3666 -20.3666 -20.3665 -20.3665 -20.3664
   -20.3488 -20.3487 -20.3482 -20.3479 -20.3477 -20.3474 -20.3470 -20.3467
   -20.3452 -20.3450 -20.3449 -20.3447 -20.3440 -20.3437 -20.3437 -20.3433
   -20.3430 -20.3426 -20.3426 -20.3424 -20.3423 -20.3422 -20.3420 -20.3419
   -20.3362 -20.3360 -20.3360 -20.3358 -20.3316 -20.3315 -20.3314 -20.3312
   -20.3285 -20.3285 -20.3275 -20.3275 -20.3253 -20.3253 -20.3242 -20.3241
   -20.3232 -20.3231 -20.3224 -20.3224 -20.3195 -20.3194 -20.3188 -20.3188
    -9.7265  -9.5698  -9.5229  -9.3783  -9.2008  -9.0061  -8.9314  -8.9186
    -8.8889  -8.7902  -8.7408  -8.6917  -8.3218  -8.2969  -8.2479  -8.2143
    -8.1933  -8.1624  -8.1585  -8.0918  -7.7985  -7.7819  -7.7455  -7.7292
     1.2799   1.2858   1.2897   1.2950   2.0947   2.1717   2.1862   2.2814
     2.3359   2.4084   2.4218   2.6287   2.7505   2.7776   2.8136   2.8863
     3.1584   3.2581   3.6046   3.6389   3.6405   3.7404   3.7773   3.7926
     4.0454   4.1821   4.2815   4.2835   4.3545   4.5211   4.5301   4.6845
     4.6856   4.7922   4.9336   5.0123   5.0614   5.1064   5.1770   5.2449
     5.3223   5.5101   5.5756   5.7916   6.0416   6.0845   6.1119   6.1475
     6.3434   6.4322   6.4530   6.5272   6.5710   6.6903   6.6984   6.7116
     6.8586   6.9313   6.9820   7.0023   7.0229   7.0763   7.1295   7.1509
     7.1945   7.2478   7.6793   7.6946   7.7107   7.7496   7.7763   7.8110
    10.3518  10.3703  10.5741  10.6322  11.1400  11.1982  11.7587  11.8486
    11.8935  11.9546  12.0819  12.1927  12.4691  12.5248  12.5988  12.6189
    12.7825  12.9867  13.0724  13.1672  13.1991  13.4291  13.5894  13.6486
    15.0595  15.1645  15.3820  15.6968  15.8507  15.9593  15.9876  16.6294
    16.7388  16.7880  16.9350  17.5043  17.5892

          k = 0.0000 0.3213-0.4987 ( 62568 PWs)   bands (ev):

   -66.2077 -66.2076 -66.2074 -66.2074 -66.2067 -66.2067 -66.2065 -66.2065
   -30.5910 -30.5910 -30.5825 -30.5825 -30.5687 -30.5687 -30.5519 -30.5519
   -30.5496 -30.5496 -30.5402 -30.5402 -30.5090 -30.5090 -30.5081 -30.5081
   -30.5058 -30.5058 -30.5045 -30.5045 -30.4579 -30.4579 -30.4553 -30.4553
   -20.3667 -20.3667 -20.3666 -20.3666 -20.3666 -20.3665 -20.3665 -20.3665
   -20.3487 -20.3487 -20.3481 -20.3481 -20.3476 -20.3476 -20.3469 -20.3469
   -20.3451 -20.3451 -20.3449 -20.3449 -20.3439 -20.3439 -20.3436 -20.3436
   -20.3427 -20.3427 -20.3424 -20.3424 -20.3422 -20.3422 -20.3420 -20.3420
   -20.3361 -20.3361 -20.3359 -20.3359 -20.3316 -20.3316 -20.3313 -20.3313
   -20.3269 -20.3269 -20.3269 -20.3269 -20.3259 -20.3259 -20.3258 -20.3258
   -20.3228 -20.3228 -20.3228 -20.3227 -20.3191 -20.3191 -20.3191 -20.3191
    -9.6064  -9.6064  -9.4530  -9.4530  -9.0153  -9.0153  -8.8188  -8.8188
    -8.6496  -8.6496  -8.6207  -8.6206  -8.5696  -8.5696  -8.4984  -8.4984
    -8.2129  -8.2129  -8.1659  -8.1659  -7.7719  -7.7719  -7.7554  -7.7554
     1.2893   1.2893   1.2957   1.2957   2.2643   2.2643   2.3906   2.3906
     2.8174   2.8174   3.0228   3.0228   3.0682   3.0682   3.1418   3.1418
     3.1811   3.1811   3.3325   3.3325   3.3931   3.3931   3.6358   3.6358
     3.9521   3.9522   3.9996   3.9996   4.0078   4.0078   4.2535   4.2535
     4.7775   4.7775   4.9015   4.9015   5.0486   5.0486   5.1512   5.1512
     5.3256   5.3256   5.6777   5.6777   6.1310   6.1310   6.1796   6.1796
     6.3835   6.3835   6.4209   6.4209   6.4687   6.4687   6.6586   6.6586
     7.0008   7.0008   7.0073   7.0073   7.0570   7.0570   7.4612   7.4612
     7.4715   7.4715   7.4870   7.4870   7.5381   7.5382   7.7863   7.7863
    10.5705  10.5705  11.1399  11.1399  11.1942  11.1942  11.6935  11.6935
    11.8335  11.8335  12.0406  12.0406  12.4942  12.4942  12.5448  12.5448
    12.8515  12.8515  12.8538  12.8538  13.2546  13.2546  13.6026  13.6026
    15.1208  15.1208  15.5636  15.5636  16.2335  16.2335  16.5112  16.5113
    16.8350  16.8350  17.2123  17.2123  17.9309

          k = 0.0000-0.4819 0.0000 ( 62646 PWs)   bands (ev):

   -66.2079 -66.2079 -66.2071 -66.2071 -66.2070 -66.2070 -66.2062 -66.2062
   -30.5827 -30.5827 -30.5757 -30.5757 -30.5736 -30.5736 -30.5639 -30.5639
   -30.5622 -30.5622 -30.5468 -30.5468 -30.5411 -30.5411 -30.5364 -30.5364
   -30.4656 -30.4656 -30.4646 -30.4646 -30.4590 -30.4590 -30.4518 -30.4518
   -20.3668 -20.3668 -20.3667 -20.3667 -20.3664 -20.3664 -20.3663 -20.3663
   -20.3483 -20.3483 -20.3479 -20.3479 -20.3477 -20.3477 -20.3471 -20.3471
   -20.3444 -20.3444 -20.3442 -20.3442 -20.3438 -20.3438 -20.3436 -20.3436
   -20.3435 -20.3435 -20.3431 -20.3431 -20.3425 -20.3425 -20.3421 -20.3421
   -20.3361 -20.3361 -20.3358 -20.3358 -20.3315 -20.3315 -20.3312 -20.3312
   -20.3303 -20.3303 -20.3292 -20.3292 -20.3238 -20.3238 -20.3235 -20.3235
   -20.3224 -20.3224 -20.3219 -20.3219 -20.3198 -20.3198 -20.3185 -20.3185
    -9.8091  -9.8091  -9.3883  -9.3883  -9.3777  -9.3777  -9.0701  -9.0701
    -8.5765  -8.5765  -8.5267  -8.5267  -8.5201  -8.5201  -8.5187  -8.5187
    -7.8364  -7.8364  -7.8081  -7.8081  -7.7144  -7.7144  -7.7116  -7.7116
     1.1409   1.1409   1.2332   1.2332   1.2740   1.2740   1.5166   1.5166
     2.4277   2.4277   2.9933   2.9933   3.1180   3.1180   3.1469   3.1469
     3.1483   3.1483   3.2644   3.2644   3.4714   3.4714   3.5227   3.5227
     3.6352   3.6352   4.6532   4.6532   4.7097   4.7097   5.1062   5.1062
     5.1878   5.1878   5.2219   5.2219   5.2667   5.2667   5.7073   5.7073
     5.7419   5.7419   5.8988   5.8988   5.9879   5.9879   6.0427   6.0427
     6.1163   6.1163   6.2164   6.2164   6.5864   6.5864   6.6238   6.6238
     6.8448   6.8448   7.1768   7.1768   7.2192   7.2192   7.4281   7.4281
     7.4467   7.4467   7.4743   7.4743   7.4979   7.4979   7.8668   7.8668
     9.3512   9.3512  11.1331  11.1331  11.2065  11.2065  11.2338  11.2338
    11.3178  11.3178  12.3566  12.3566  12.4108  12.4108  12.8304  12.8304
    13.3534  13.3534  13.3550  13.3550  13.4263  13.4263  13.5300  13.5300
    15.1793  15.1793  15.4165  15.4165  15.5545  15.5545  15.5845  15.5845
    16.4841  16.4841  17.8803  17.8804  18.0529

          k = 0.0000-0.4819 0.1662 ( 62594 PWs)   bands (ev):

   -66.2079 -66.2079 -66.2072 -66.2072 -66.2070 -66.2070 -66.2063 -66.2063
   -30.5818 -30.5818 -30.5760 -30.5760 -30.5722 -30.5722 -30.5641 -30.5641
   -30.5587 -30.5587 -30.5426 -30.5426 -30.5413 -30.5413 -30.5342 -30.5342
   -30.4713 -30.4713 -30.4696 -30.4696 -30.4587 -30.4587 -30.4532 -30.4532
   -20.3668 -20.3668 -20.3667 -20.3667 -20.3665 -20.3665 -20.3664 -20.3664
   -20.3483 -20.3483 -20.3479 -20.3479 -20.3476 -20.3476 -20.3472 -20.3472
   -20.3444 -20.3444 -20.3442 -20.3442 -20.3439 -20.3439 -20.3437 -20.3437
   -20.3433 -20.3433 -20.3430 -20.3430 -20.3425 -20.3425 -20.3422 -20.3422
   -20.3361 -20.3361 -20.3358 -20.3358 -20.3315 -20.3315 -20.3313 -20.3313
   -20.3298 -20.3298 -20.3287 -20.3287 -20.3241 -20.3241 -20.3234 -20.3234
   -20.3229 -20.3229 -20.3220 -20.3220 -20.3197 -20.3197 -20.3185 -20.3185
    -9.7575  -9.7575  -9.3915  -9.3915  -9.3044  -9.3044  -9.0313  -9.0313
    -8.5821  -8.5821  -8.5317  -8.5317  -8.5198  -8.5198  -8.5127  -8.5127
    -7.9466  -7.9466  -7.8437  -7.8437  -7.8081  -7.8081  -7.7186  -7.7186
     1.2383   1.2383   1.2769   1.2769   1.4914   1.4914   1.6797   1.6797
     2.5145   2.5145   3.0095   3.0095   3.0994   3.0994   3.1461   3.1461
     3.2155   3.2155   3.2624   3.2624   3.4800   3.4800   3.5516   3.5516
     3.6672   3.6672   4.3310   4.3310   4.7300   4.7300   4.8937   4.8937
     5.0173   5.0173   5.1407   5.1407   5.2651   5.2651   5.4325   5.4325
     5.6949   5.6949   5.7099   5.7099   6.0143   6.0143   6.0480   6.0480
     6.2923   6.2923   6.3637   6.3637   6.5813   6.5813   6.8019   6.8019
     6.9086   6.9086   6.9932   6.9932   7.0477   7.0477   7.4324   7.4324
     7.4411   7.4411   7.4671   7.4671   7.4843   7.4843   7.8500   7.8500
     9.6763   9.6763  11.2229  11.2229  11.2589  11.2589  11.2831  11.2831
    11.3622  11.3622  12.2499  12.2499  12.4566  12.4566  12.8794  12.8794
    13.1898  13.1898  13.2593  13.2593  13.3525  13.3525  13.5450  13.5450
    15.1977  15.1977  15.5527  15.5527  15.6145  15.6145  15.8557  15.8557
    16.5513  16.5513  17.7896  17.7898  17.9160

          k = 0.0000-0.4819 0.3325 ( 62576 PWs)   bands (ev):

   -66.2077 -66.2077 -66.2073 -66.2073 -66.2068 -66.2068 -66.2064 -66.2064
   -30.5801 -30.5801 -30.5770 -30.5770 -30.5694 -30.5694 -30.5651 -30.5651
   -30.5510 -30.5510 -30.5432 -30.5432 -30.5288 -30.5288 -30.5247 -30.5247
   -30.4874 -30.4874 -30.4847 -30.4847 -30.4579 -30.4579 -30.4551 -30.4551
   -20.3667 -20.3667 -20.3666 -20.3666 -20.3665 -20.3665 -20.3664 -20.3664
   -20.3482 -20.3482 -20.3480 -20.3480 -20.3475 -20.3475 -20.3472 -20.3472
   -20.3444 -20.3444 -20.3443 -20.3443 -20.3441 -20.3441 -20.3439 -20.3439
   -20.3430 -20.3430 -20.3427 -20.3427 -20.3426 -20.3426 -20.3422 -20.3422
   -20.3361 -20.3361 -20.3359 -20.3359 -20.3315 -20.3315 -20.3314 -20.3314
   -20.3285 -20.3285 -20.3275 -20.3275 -20.3253 -20.3253 -20.3242 -20.3242
   -20.3231 -20.3231 -20.3224 -20.3224 -20.3194 -20.3194 -20.3188 -20.3188
    -9.6353  -9.6353  -9.4348  -9.4348  -9.0718  -9.0718  -8.8991  -8.8991
    -8.6166  -8.6166  -8.5538  -8.5538  -8.5123  -8.5122  -8.4894  -8.4894
    -8.2333  -8.2333  -8.1471  -8.1471  -7.7906  -7.7906  -7.7377  -7.7377
     1.2848   1.2848   1.2941   1.2941   2.1773   2.1773   2.3165   2.3165
     2.7637   2.7637   3.0333   3.0333   3.0925   3.0925   3.1662   3.1663
     3.2162   3.2163   3.3517   3.3517   3.4559   3.4559   3.6661   3.6661
     3.7429   3.7429   3.7729   3.7729   4.3573   4.3573   4.5092   4.5092
     4.7139   4.7139   4.7936   4.7936   5.0992   5.0992   5.1514   5.1514
     5.3124   5.3125   5.6079   5.6079   6.0836   6.0836   6.1545   6.1545
     6.4179   6.4179   6.4884   6.4884   6.5785   6.5785   6.7188   6.7188
     6.9759   6.9759   7.1096   7.1096   7.1191   7.1191   7.3992   7.3992
     7.4229   7.4229   7.4587   7.4587   7.4726   7.4726   7.7543   7.7543
    10.3774  10.3774  11.2369  11.2369  11.2854  11.2854  11.6063  11.6063
    11.6835  11.6835  11.8559  11.8559  12.5982  12.5982  12.6847  12.6847
    12.7534  12.7534  13.0253  13.0253  13.3541  13.3541  13.4763  13.4763
    15.2822  15.2822  15.5022  15.5022  16.1851  16.1851  16.6271  16.6271
    16.7976  16.7976  17.2870  17.2870  17.8991

          k = 0.0000-0.4819-0.4987 ( 62588 PWs)   bands (ev):

   -66.2075 -66.2075 -66.2075 -66.2075 -66.2066 -66.2066 -66.2066 -66.2066
   -30.5784 -30.5784 -30.5784 -30.5784 -30.5669 -30.5669 -30.5669 -30.5669
   -30.5459 -30.5459 -30.5459 -30.5459 -30.5088 -30.5088 -30.5088 -30.5088
   -30.5057 -30.5056 -30.5056 -30.5056 -30.4567 -30.4567 -30.4567 -30.4567
   -20.3666 -20.3666 -20.3666 -20.3666 -20.3665 -20.3665 -20.3665 -20.3665
   -20.3481 -20.3481 -20.3481 -20.3481 -20.3474 -20.3474 -20.3474 -20.3474
   -20.3443 -20.3443 -20.3443 -20.3443 -20.3441 -20.3441 -20.3441 -20.3441
   -20.3427 -20.3427 -20.3427 -20.3427 -20.3424 -20.3424 -20.3424 -20.3424
   -20.3360 -20.3360 -20.3360 -20.3360 -20.3314 -20.3314 -20.3314 -20.3314
   -20.3269 -20.3269 -20.3269 -20.3269 -20.3259 -20.3259 -20.3259 -20.3259
   -20.3228 -20.3228 -20.3228 -20.3228 -20.3191 -20.3191 -20.3191 -20.3191
    -9.5148  -9.5148  -9.5148  -9.5148  -8.7748  -8.7748  -8.7748  -8.7748
    -8.6732  -8.6732  -8.6732  -8.6732  -8.4678  -8.4678  -8.4678  -8.4678
    -8.4081  -8.4081  -8.4081  -8.4081  -7.7641  -7.7641  -7.7641  -7.7641
     1.2946   1.2946   1.2946   1.2946   2.9289   2.9289   2.9289   2.9289
     3.0449   3.0449   3.0449   3.0449   3.1455   3.1455   3.1455   3.1455
     3.2207   3.2207   3.2207   3.2207   3.4298   3.4298   3.4298   3.4298
     3.5627   3.5627   3.5627   3.5627   4.2303   4.2303   4.2303   4.2303
     4.3297   4.3297   4.3297   4.3297   5.1106   5.1106   5.1106   5.1106
     5.4432   5.4432   5.4432   5.4432   6.1761   6.1761   6.1761   6.1761
     6.4321   6.4321   6.4321   6.4321   6.5324   6.5324   6.5324   6.5324
     7.2434   7.2434   7.2434   7.2434   7.3149   7.3149   7.3149   7.3149
     7.4086   7.4086   7.4086   7.4087   7.5561   7.5561   7.5561   7.5561
    11.1067  11.1067  11.1067  11.1067  11.3236  11.3236  11.3236  11.3236
    12.1372  12.1372  12.1372  12.1372  12.1912  12.1912  12.1912  12.1912
    12.8337  12.8337  12.8337  12.8337  13.3829  13.3829  13.3829  13.3829
    15.4041  15.4041  15.4041  15.4041  16.7865  16.7865  16.7866  16.7866
    17.3702  17.3705  17.3705  17.3706  17.4950

          k = 0.1667 0.0000 0.0000 ( 62559 PWs)   bands (ev):

   -66.2081 -66.2076 -66.2074 -66.2073 -66.2069 -66.2068 -66.2065 -66.2060
   -30.6076 -30.6020 -30.6017 -30.5960 -30.5672 -30.5625 -30.5595 -30.5584
   -30.5559 -30.5504 -30.5431 -30.5413 -30.5324 -30.5286 -30.5208 -30.5154
   -30.4694 -30.4685 -30.4667 -30.4644 -30.4634 -30.4618 -30.4563 -30.4531
   -20.3669 -20.3668 -20.3667 -20.3666 -20.3665 -20.3664 -20.3664 -20.3663
   -20.3497 -20.3494 -20.3492 -20.3488 -20.3474 -20.3469 -20.3468 -20.3462
   -20.3460 -20.3458 -20.3454 -20.3451 -20.3442 -20.3437 -20.3434 -20.3432
   -20.3430 -20.3428 -20.3422 -20.3419 -20.3417 -20.3415 -20.3409 -20.3407
   -20.3359 -20.3356 -20.3355 -20.3353 -20.3320 -20.3317 -20.3315 -20.3313
   -20.3302 -20.3302 -20.3292 -20.3292 -20.3237 -20.3237 -20.3233 -20.3232
   -20.3226 -20.3224 -20.3218 -20.3216 -20.3201 -20.3200 -20.3188 -20.3187
    -9.9578  -9.6470  -9.6077  -9.5383  -9.3209  -9.2037  -9.1983  -9.0469
    -9.0190  -8.9607  -8.9546  -8.9140  -7.9802  -7.9277  -7.8819  -7.8783
    -7.8314  -7.8305  -7.8210  -7.8029  -7.7937  -7.7778  -7.7354  -7.7028
     1.2009   1.2064   1.2103   1.2338   1.3373   1.3605   1.4607   1.4982
     1.5276   1.6531   1.7182   1.8857   2.4630   2.5246   2.5590   2.5816
     2.6500   2.7112   4.0478   4.1588   4.2684   4.3306   4.3692   4.4391
     4.4729   4.6521   4.7013   4.7275   4.7308   4.9072   5.0834   5.2984
     5.3078   5.3355   5.4530   5.4858   5.4859   5.5513   5.5910   5.6284
     5.6315   5.7776   5.8031   5.8216   5.9479   5.9816   6.0281   6.0503
     6.2350   6.3673   6.3723   6.3859   6.6414   6.7090   6.7151   6.7281
     6.8173   6.8209   6.8359   6.9137   6.9191   6.9352   7.0400   7.0440
     7.0496   7.0514   7.8398   7.8444   7.9216   7.9810   8.0720   8.1134
     9.6530   9.6683   9.8356   9.8500  10.0808  10.1204  12.1568  12.2614
    12.3146  12.3183  12.3924  12.4644  12.5175  12.5889  12.6370  12.8793
    12.9844  13.1996  13.2077  13.2202  13.6508  13.7248  14.0266  14.0366
    14.3141  14.3888  14.6541  14.9301  15.2352  15.2565  15.5035  15.8483
    16.2603  16.6795  16.9487  17.1947  17.3966

          k = 0.1667 0.0000 0.1662 ( 62587 PWs)   bands (ev):

   -66.2081 -66.2076 -66.2073 -66.2073 -66.2068 -66.2068 -66.2066 -66.2061
   -30.6072 -30.6023 -30.6013 -30.5964 -30.5633 -30.5578 -30.5564 -30.5564
   -30.5555 -30.5449 -30.5435 -30.5388 -30.5330 -30.5272 -30.5216 -30.5143
   -30.4735 -30.4720 -30.4698 -30.4691 -30.4669 -30.4615 -30.4595 -30.4549
   -20.3669 -20.3668 -20.3667 -20.3666 -20.3666 -20.3665 -20.3664 -20.3663
   -20.3497 -20.3494 -20.3491 -20.3488 -20.3474 -20.3469 -20.3469 -20.3463
   -20.3460 -20.3458 -20.3454 -20.3451 -20.3441 -20.3437 -20.3435 -20.3431
   -20.3431 -20.3427 -20.3423 -20.3419 -20.3416 -20.3414 -20.3409 -20.3408
   -20.3359 -20.3357 -20.3355 -20.3353 -20.3320 -20.3317 -20.3315 -20.3313
   -20.3297 -20.3297 -20.3288 -20.3288 -20.3241 -20.3240 -20.3232 -20.3231
   -20.3230 -20.3229 -20.3220 -20.3218 -20.3200 -20.3199 -20.3189 -20.3188
    -9.9113  -9.5885  -9.5530  -9.5496  -9.2331  -9.2156  -9.2068  -9.0057
    -8.9853  -8.9546  -8.9228  -8.9177  -7.9880  -7.9564  -7.9209  -7.9199
    -7.8939  -7.8858  -7.8524  -7.8450  -7.8232  -7.8057  -7.7972  -7.7808
     1.3220   1.3522   1.3529   1.3986   1.4035   1.4557   1.4943   1.5315
     1.6148   1.6541   1.7924   1.9585   2.5494   2.5833   2.6067   2.6555
     2.7010   2.7420   4.0436   4.0746   4.2797   4.2879   4.4032   4.4203
     4.4266   4.4298   4.5207   4.5231   4.6519   4.7240   5.0707   5.1566
     5.2235   5.2434   5.2708   5.4572   5.4728   5.4833   5.5396   5.6423
     5.6461   5.6868   5.6922   5.7613   5.8312   5.9866   6.1421   6.2291
     6.2887   6.4297   6.5086   6.5827   6.5986   6.6379   6.6696   6.7113
     6.7120   6.7342   6.7663   6.7927   6.8394   6.8906   6.8923   6.9853
     7.1194   7.1561   7.8253   7.8276   7.9394   7.9835   8.0294   8.0654
     9.8573   9.8939  10.0557  10.1054  10.1066  10.2063  12.2033  12.2414
    12.2913  12.3110  12.3595  12.4098  12.5882  12.6147  12.6327  12.7861
    12.9412  13.0243  13.2162  13.2586  13.6867  13.7160  13.8892  13.9189
    14.3636  14.5274  14.6492  15.0522  15.3338  15.3454  15.4751  16.1699
    16.2292  16.8457  16.8880  17.1043  17.4803

          k = 0.1667 0.0000 0.3325 ( 62570 PWs)   bands (ev):

   -66.2079 -66.2075 -66.2074 -66.2071 -66.2070 -66.2067 -66.2066 -66.2062
   -30.6060 -30.6033 -30.6002 -30.5974 -30.5598 -30.5570 -30.5496 -30.5473
   -30.5452 -30.5445 -30.5347 -30.5299 -30.5268 -30.5244 -30.5214 -30.5105
   -30.4877 -30.4868 -30.4843 -30.4839 -30.4662 -30.4631 -30.4606 -30.4575
   -20.3668 -20.3667 -20.3666 -20.3666 -20.3665 -20.3665 -20.3665 -20.3664
   -20.3496 -20.3495 -20.3491 -20.3489 -20.3473 -20.3470 -20.3468 -20.3464
   -20.3459 -20.3457 -20.3456 -20.3453 -20.3441 -20.3437 -20.3437 -20.3433
   -20.3428 -20.3425 -20.3424 -20.3420 -20.3414 -20.3412 -20.3410 -20.3409
   -20.3359 -20.3357 -20.3355 -20.3353 -20.3320 -20.3318 -20.3315 -20.3314
   -20.3285 -20.3284 -20.3276 -20.3276 -20.3252 -20.3252 -20.3243 -20.3242
   -20.3230 -20.3229 -20.3223 -20.3221 -20.3198 -20.3197 -20.3191 -20.3190
    -9.7994  -9.5993  -9.4520  -9.4157  -9.2536  -9.2358  -8.9833  -8.9554
    -8.9278  -8.8591  -8.8502  -8.8010  -8.2500  -8.2470  -8.1972  -8.1825
    -7.9422  -7.9067  -7.8901  -7.8597  -7.8346  -7.8182  -7.8110  -7.7893
     1.3321   1.3456   1.4185   1.4448   1.5405   1.5461   1.6175   1.6567
     2.1939   2.2479   2.3319   2.4280   2.6041   2.6780   2.8047   2.8500
     2.9197   2.9759   3.7057   3.8239   3.8599   3.9092   4.0211   4.2441
     4.2765   4.3932   4.4218   4.4634   4.5175   4.6714   4.6894   4.7992
     4.9125   4.9943   5.0271   5.1491   5.1590   5.3095   5.5186   5.5698
     5.6642   5.7056   5.7548   5.8190   5.8358   5.9229   6.0232   6.0264
     6.3434   6.3718   6.4310   6.4846   6.4928   6.6096   6.6408   6.6943
     6.6953   6.8080   6.8145   6.8268   6.9826   7.0173   7.1147   7.1159
     7.2039   7.2605   7.7332   7.7429   7.8661   7.9133   7.9764   7.9847
    10.0516  10.0537  10.4863  10.5588  10.7310  10.8201  11.8610  11.9131
    12.1056  12.3041  12.3341  12.4368  12.5184  12.6286  12.6542  12.7418
    12.8100  12.9994  13.0808  13.1672  13.5466  13.5663  13.7167  13.7436
    14.5014  14.6327  14.8685  15.3519  15.3760  15.6385  15.8264  16.1382
    16.3348  17.0552  17.3120  17.3931  17.5574

          k = 0.1667 0.0000-0.4987 ( 62532 PWs)   bands (ev):

   -66.2077 -66.2077 -66.2072 -66.2072 -66.2069 -66.2069 -66.2064 -66.2064
   -30.6046 -30.6046 -30.5987 -30.5987 -30.5582 -30.5582 -30.5465 -30.5465
   -30.5385 -30.5384 -30.5318 -30.5317 -30.5086 -30.5086 -30.5069 -30.5068
   -30.5058 -30.5058 -30.5005 -30.5005 -30.4649 -30.4649 -30.4593 -30.4593
   -20.3667 -20.3667 -20.3666 -20.3666 -20.3666 -20.3665 -20.3665 -20.3664
   -20.3495 -20.3495 -20.3490 -20.3490 -20.3471 -20.3471 -20.3466 -20.3466
   -20.3458 -20.3458 -20.3455 -20.3455 -20.3439 -20.3439 -20.3435 -20.3435
   -20.3426 -20.3426 -20.3422 -20.3422 -20.3412 -20.3412 -20.3410 -20.3410
   -20.3358 -20.3358 -20.3354 -20.3354 -20.3319 -20.3319 -20.3314 -20.3314
   -20.3268 -20.3268 -20.3268 -20.3268 -20.3260 -20.3260 -20.3259 -20.3259
   -20.3227 -20.3227 -20.3225 -20.3225 -20.3195 -20.3195 -20.3194 -20.3194
    -9.6825  -9.6824  -9.3276  -9.3276  -9.2988  -9.2988  -8.9410  -8.9410
    -8.6256  -8.6256  -8.6021  -8.6020  -8.5749  -8.5749  -8.5338  -8.5337
    -7.9218  -7.9218  -7.8743  -7.8743  -7.8316  -7.8316  -7.8006  -7.8006
     1.3374   1.3374   1.4332   1.4332   1.5529   1.5529   1.6564   1.6564
     2.6272   2.6272   2.9756   2.9756   3.0320   3.0320   3.1269   3.1269
     3.1879   3.1879   3.3122   3.3122   3.4958   3.4958   3.7114   3.7114
     3.7417   3.7417   4.3467   4.3467   4.4488   4.4488   4.8631   4.8631
     4.9292   4.9292   4.9741   4.9741   5.1387   5.1387   5.6222   5.6222
     5.6456   5.6456   5.7491   5.7491   5.8268   5.8268   5.9725   5.9725
     6.2692   6.2692   6.4097   6.4097   6.5345   6.5345   6.6989   6.6989
     6.7653   6.7653   6.8599   6.8599   6.9133   6.9133   7.4780   7.4780
     7.5088   7.5088   7.5935   7.5935   7.6409   7.6409   7.9832   7.9832
    10.0611  10.0611  11.2026  11.2026  11.2755  11.2755  11.4736  11.4736
    11.5948  11.5948  12.4676  12.4676  12.6531  12.6531  12.7446  12.7446
    12.8645  12.8645  13.1643  13.1643  13.2292  13.2292  13.7209  13.7209
    14.5928  14.5928  15.1823  15.1823  15.7872  15.7872  15.9438  15.9438
    16.6556  16.6556  17.7678  17.7678  17.8971

          k = 0.1667 0.1606 0.0000 ( 62577 PWs)   bands (ev):

   -66.2081 -66.2077 -66.2073 -66.2073 -66.2069 -66.2068 -66.2065 -66.2060
   -30.6037 -30.5980 -30.5976 -30.5917 -30.5680 -30.5631 -30.5597 -30.5590
   -30.5574 -30.5504 -30.5425 -30.5406 -30.5366 -30.5320 -30.5236 -30.5184
   -30.4692 -30.4685 -30.4665 -30.4644 -30.4635 -30.4623 -30.4562 -30.4535
   -20.3669 -20.3668 -20.3667 -20.3666 -20.3665 -20.3664 -20.3664 -20.3663
   -20.3495 -20.3491 -20.3489 -20.3485 -20.3475 -20.3470 -20.3470 -20.3463
   -20.3458 -20.3456 -20.3452 -20.3449 -20.3441 -20.3437 -20.3434 -20.3432
   -20.3430 -20.3429 -20.3423 -20.3420 -20.3419 -20.3418 -20.3412 -20.3411
   -20.3359 -20.3356 -20.3355 -20.3353 -20.3319 -20.3317 -20.3315 -20.3313
   -20.3302 -20.3302 -20.3292 -20.3292 -20.3237 -20.3237 -20.3233 -20.3232
   -20.3226 -20.3225 -20.3218 -20.3216 -20.3201 -20.3200 -20.3188 -20.3187
    -9.9246  -9.6588  -9.5687  -9.4927  -9.3285  -9.2119  -9.1204  -9.0427
    -9.0204  -8.9170  -8.9143  -8.8799  -8.0198  -7.9612  -7.9439  -7.9314
    -7.9098  -7.9003  -7.8462  -7.8240  -7.8216  -7.7973  -7.7336  -7.7075
     1.2105   1.2129   1.2255   1.2343   1.4618   1.4938   1.5270   1.6784
     1.7077   1.7350   1.7946   1.9870   2.4716   2.5553   2.6020   2.6547
     2.7270   2.7820   3.9382   4.0111   4.0861   4.1681   4.3000   4.3667
     4.4807   4.5793   4.6753   4.7212   4.7979   4.8724   4.9036   5.2003
     5.2270   5.2573   5.3137   5.3997   5.4402   5.5088   5.5614   5.6810
     5.6833   5.7289   5.8084   5.8487   5.9046   5.9806   6.0347   6.0473
     6.1754   6.3315   6.3685   6.4154   6.6424   6.6871   6.7032   6.7566
     6.7693   6.8318   6.8662   6.9027   6.9110   6.9358   7.0300   7.0508
     7.0550   7.0586   7.8356   7.8455   7.8969   7.9362   8.0169   8.0365
     9.6644   9.6733  10.0256  10.0331  10.2660  10.2860  12.0745  12.2677
    12.2781  12.2937  12.3437  12.3718  12.4076  12.4937  12.6280  12.8694
    12.9956  13.1858  13.2123  13.2238  13.6858  13.6871  13.9250  13.9337
    14.5084  14.6495  14.8668  15.0762  15.2401  15.2527  15.8076  15.9230
    16.2262  16.6564  16.8220  17.3062  17.4571

          k = 0.1667 0.1606 0.1662 ( 62575 PWs)   bands (ev):

   -66.2080 -66.2076 -66.2073 -66.2073 -66.2069 -66.2068 -66.2065 -66.2061
   -30.6033 -30.5983 -30.5971 -30.5921 -30.5648 -30.5587 -30.5578 -30.5565
   -30.5557 -30.5448 -30.5429 -30.5382 -30.5371 -30.5304 -30.5243 -30.5173
   -30.4734 -30.4720 -30.4699 -30.4692 -30.4666 -30.4620 -30.4593 -30.4554
   -20.3668 -20.3667 -20.3667 -20.3666 -20.3665 -20.3665 -20.3664 -20.3663
   -20.3494 -20.3492 -20.3489 -20.3486 -20.3475 -20.3470 -20.3470 -20.3464
   -20.3458 -20.3456 -20.3452 -20.3450 -20.3441 -20.3437 -20.3435 -20.3431
   -20.3431 -20.3428 -20.3423 -20.3420 -20.3419 -20.3418 -20.3412 -20.3411
   -20.3359 -20.3356 -20.3355 -20.3353 -20.3319 -20.3317 -20.3315 -20.3313
   -20.3297 -20.3297 -20.3288 -20.3288 -20.3241 -20.3240 -20.3232 -20.3231
   -20.3230 -20.3229 -20.3220 -20.3218 -20.3200 -20.3199 -20.3189 -20.3188
    -9.8764  -9.6005  -9.5077  -9.5058  -9.2408  -9.2241  -9.1290  -9.0040
    -8.9865  -8.9100  -8.8873  -8.8834  -8.0275  -7.9644  -7.9585  -7.9517
    -7.9255  -7.9154  -7.9104  -7.8989  -7.8701  -7.8366  -7.8323  -7.8102
     1.3926   1.4015   1.4466   1.4636   1.4952   1.5055   1.5337   1.6772
     1.7596   1.7906   1.7963   2.0394   2.5595   2.6407   2.6670   2.6859
     2.7745   2.8147   3.9506   3.9869   4.1011   4.1439   4.3372   4.3727
     4.4071   4.4319   4.4955   4.5547   4.5825   4.6733   4.8948   5.0780
     5.1509   5.1981   5.2570   5.2884   5.3316   5.4303   5.4352   5.5641
     5.6569   5.6881   5.7719   5.8110   5.8172   5.8860   6.1396   6.2178
     6.2822   6.3426   6.4803   6.5560   6.6227   6.6317   6.6694   6.7001
     6.7348   6.7726   6.8072   6.8386   6.8823   6.8949   6.9253   6.9937
     7.1242   7.1570   7.8214   7.8281   7.9027   7.9379   7.9778   7.9944
     9.8882   9.9126  10.2192  10.2517  10.2829  10.3511  12.1331  12.2230
    12.2866  12.3142  12.3229  12.3419  12.4388  12.4744  12.6551  12.8157
    12.9148  12.9965  13.2154  13.2522  13.6684  13.6972  13.7831  13.8253
    14.5953  14.8113  14.8698  15.1814  15.3369  15.3432  15.8762  16.1464
    16.1968  16.7847  16.9647  17.0068  17.5315

          k = 0.1667 0.1606 0.3325 ( 62544 PWs)   bands (ev):

   -66.2079 -66.2075 -66.2075 -66.2071 -66.2070 -66.2067 -66.2067 -66.2063
   -30.6021 -30.5993 -30.5960 -30.5931 -30.5615 -30.5586 -30.5494 -30.5490
   -30.5456 -30.5440 -30.5387 -30.5299 -30.5271 -30.5265 -30.5233 -30.5130
   -30.4878 -30.4869 -30.4844 -30.4843 -30.4659 -30.4628 -30.4611 -30.4580
   -20.3668 -20.3667 -20.3666 -20.3666 -20.3665 -20.3665 -20.3665 -20.3664
   -20.3494 -20.3492 -20.3488 -20.3486 -20.3474 -20.3471 -20.3468 -20.3465
   -20.3458 -20.3455 -20.3454 -20.3452 -20.3440 -20.3437 -20.3436 -20.3433
   -20.3429 -20.3425 -20.3424 -20.3421 -20.3417 -20.3416 -20.3413 -20.3412
   -20.3359 -20.3357 -20.3355 -20.3354 -20.3319 -20.3318 -20.3315 -20.3314
   -20.3285 -20.3285 -20.3276 -20.3276 -20.3252 -20.3252 -20.3243 -20.3242
   -20.3230 -20.3229 -20.3223 -20.3221 -20.3198 -20.3197 -20.3191 -20.3190
    -9.7604  -9.5546  -9.4638  -9.3575  -9.2629  -9.1587  -8.9913  -8.9287
    -8.8933  -8.8607  -8.8345  -8.7801  -8.2543  -8.2477  -8.2103  -8.1799
    -7.9828  -7.9625  -7.9277  -7.9085  -7.9007  -7.8857  -7.8591  -7.8390
     1.4632   1.4737   1.5385   1.5442   1.6417   1.6590   1.7300   1.7894
     2.1934   2.2566   2.3325   2.4432   2.6790   2.7469   2.8242   2.9152
     2.9264   3.0415   3.7121   3.8403   3.8444   3.8687   4.0757   4.1051
     4.1679   4.3177   4.3586   4.4518   4.4792   4.6114   4.6460   4.7545
     4.7686   4.8525   4.8930   5.0650   5.0862   5.1718   5.3284   5.4820
     5.5831   5.6226   5.7100   5.7753   5.8275   5.8332   5.9648   6.0111
     6.2860   6.4373   6.4822   6.5704   6.6183   6.6360   6.6452   6.6984
     6.7436   6.8092   6.8598   6.9057   6.9769   7.0328   7.1098   7.1263
     7.2039   7.2591   7.7344   7.7397   7.8249   7.8596   7.9295   7.9375
    10.2210  10.2363  10.5063  10.5712  10.8386  10.9078  11.8626  11.9110
    12.1133  12.3074  12.3473  12.4454  12.4615  12.4775  12.6167  12.6784
    12.6923  12.9483  13.0661  13.1641  13.4336  13.4632  13.6903  13.7054
    14.7524  14.8531  15.2143  15.4572  15.6315  15.7731  15.8539  16.1104
    16.4439  17.0273  17.1903  17.3795  17.4530

          k = 0.1667 0.1606-0.4987 ( 62550 PWs)   bands (ev):

   -66.2077 -66.2077 -66.2072 -66.2072 -66.2069 -66.2069 -66.2065 -66.2065
   -30.6006 -30.6006 -30.5945 -30.5945 -30.5599 -30.5599 -30.5460 -30.5460
   -30.5420 -30.5420 -30.5333 -30.5333 -30.5087 -30.5087 -30.5074 -30.5074
   -30.5059 -30.5059 -30.5018 -30.5018 -30.4646 -30.4646 -30.4598 -30.4598
   -20.3667 -20.3667 -20.3666 -20.3666 -20.3666 -20.3666 -20.3665 -20.3665
   -20.3493 -20.3493 -20.3487 -20.3487 -20.3472 -20.3472 -20.3467 -20.3467
   -20.3456 -20.3456 -20.3454 -20.3454 -20.3439 -20.3439 -20.3435 -20.3435
   -20.3426 -20.3426 -20.3423 -20.3423 -20.3415 -20.3415 -20.3413 -20.3413
   -20.3358 -20.3358 -20.3355 -20.3354 -20.3319 -20.3319 -20.3315 -20.3315
   -20.3268 -20.3268 -20.3268 -20.3268 -20.3260 -20.3260 -20.3259 -20.3259
   -20.3227 -20.3227 -20.3225 -20.3225 -20.3195 -20.3195 -20.3194 -20.3194
    -9.6397  -9.6397  -9.3381  -9.3381  -9.2265  -9.2265  -8.9070  -8.9070
    -8.6321  -8.6321  -8.6036  -8.6036  -8.5739  -8.5738  -8.5277  -8.5277
    -7.9743  -7.9743  -7.9160  -7.9160  -7.8860  -7.8860  -7.8615  -7.8615
     1.4689   1.4689   1.5507   1.5507   1.6579   1.6579   1.7814   1.7814
     2.6980   2.6980   2.9922   2.9922   3.0554   3.0555   3.1293   3.1294
     3.1894   3.1894   3.3330   3.3330   3.4876   3.4876   3.7309   3.7309
     3.7935   3.7935   4.2319   4.2319   4.3600   4.3600   4.6732   4.6733
     4.8292   4.8292   4.9315   4.9316   4.9929   4.9929   5.4302   5.4302
     5.6105   5.6105   5.6626   5.6626   5.7873   5.7873   5.8588   5.8588
     6.3972   6.3972   6.5522   6.5522   6.5783   6.5783   6.6746   6.6746
     6.8105   6.8105   6.8573   6.8574   6.9603   6.9603   7.4794   7.4794
     7.5047   7.5047   7.5719   7.5719   7.6139   7.6139   7.9346   7.9346
    10.2450  10.2450  11.2103  11.2103  11.2769  11.2769  11.5420  11.5420
    11.6527  11.6528  12.4674  12.4674  12.5106  12.5106  12.7222  12.7222
    12.8433  12.8433  13.0434  13.0434  13.1521  13.1521  13.6853  13.6853
    14.8247  14.8247  15.5600  15.5600  15.8840  15.8840  15.9427  15.9427
    16.7011  16.7011  17.6229  17.6229  17.8553

          k = 0.1667 0.3213 0.0000 ( 62607 PWs)   bands (ev):

   -66.2080 -66.2078 -66.2072 -66.2072 -66.2070 -66.2069 -66.2064 -66.2061
   -30.5936 -30.5874 -30.5868 -30.5800 -30.5721 -30.5659 -30.5631 -30.5600
   -30.5599 -30.5498 -30.5481 -30.5405 -30.5404 -30.5382 -30.5303 -30.5257
   -30.4689 -30.4685 -30.4659 -30.4645 -30.4639 -30.4635 -30.4560 -30.4544
   -20.3668 -20.3668 -20.3667 -20.3666 -20.3665 -20.3664 -20.3664 -20.3663
   -20.3489 -20.3485 -20.3483 -20.3479 -20.3478 -20.3473 -20.3473 -20.3466
   -20.3452 -20.3451 -20.3446 -20.3444 -20.3440 -20.3436 -20.3434 -20.3433
   -20.3430 -20.3430 -20.3429 -20.3427 -20.3424 -20.3421 -20.3420 -20.3418
   -20.3359 -20.3356 -20.3356 -20.3354 -20.3318 -20.3316 -20.3316 -20.3314
   -20.3302 -20.3302 -20.3292 -20.3292 -20.3237 -20.3237 -20.3233 -20.3232
   -20.3225 -20.3225 -20.3218 -20.3217 -20.3201 -20.3200 -20.3188 -20.3187
    -9.8447  -9.6954  -9.4814  -9.3887  -9.3533  -9.2392  -9.0362  -9.0243
    -8.8999  -8.7768  -8.7727  -8.7576  -8.2566  -8.2126  -8.2074  -8.1869
    -7.9457  -7.9288  -7.8490  -7.8326  -7.8195  -7.8038  -7.7286  -7.7143
     1.2118   1.2151   1.2355   1.2355   1.5156   1.5263   1.6676   1.7136
     2.2639   2.3672   2.4048   2.4897   2.5333   2.5379   2.8474   2.8781
     2.9658   2.9914   3.5607   3.5841   3.6945   3.7295   4.0618   4.3061
     4.3385   4.4231   4.4731   4.6265   4.6506   4.7099   4.7936   4.8162
     4.9495   4.9763   5.1352   5.2498   5.2925   5.4019   5.5142   5.5787
     5.6565   5.6892   5.7643   5.8452   5.9852   6.0106   6.0389   6.0485
     6.1592   6.2826   6.3509   6.4756   6.5336   6.7386   6.7458   6.8207
     6.8735   6.8982   6.9618   6.9984   6.9996   7.0193   7.0795   7.0885
     7.1200   7.1470   7.7319   7.7601   7.7993   7.8252   7.8568   7.8615
     9.6766   9.6791  10.5081  10.5535  10.7440  10.7521  11.7217  11.8710
    11.9357  12.0022  12.2827  12.2883  12.3981  12.4184  12.7334  12.8748
    13.0676  13.2234  13.2410  13.2552  13.4986  13.5424  13.6849  13.6874
    15.0169  15.1626  15.2025  15.2547  15.4321  15.6577  15.7322  16.1124
    16.1216  16.9042  17.2049  17.3174  17.7501

          k = 0.1667 0.3213 0.1662 ( 62602 PWs)   bands (ev):

   -66.2080 -66.2077 -66.2072 -66.2072 -66.2070 -66.2069 -66.2064 -66.2062
   -30.5930 -30.5877 -30.5862 -30.5804 -30.5702 -30.5636 -30.5624 -30.5566
   -30.5559 -30.5485 -30.5445 -30.5410 -30.5375 -30.5360 -30.5308 -30.5244
   -30.4731 -30.4723 -30.4700 -30.4696 -30.4658 -30.4632 -30.4587 -30.4565
   -20.3668 -20.3667 -20.3667 -20.3666 -20.3665 -20.3664 -20.3664 -20.3663
   -20.3489 -20.3486 -20.3483 -20.3479 -20.3478 -20.3473 -20.3472 -20.3467
   -20.3452 -20.3451 -20.3447 -20.3445 -20.3440 -20.3437 -20.3434 -20.3433
   -20.3431 -20.3429 -20.3427 -20.3426 -20.3424 -20.3421 -20.3420 -20.3418
   -20.3358 -20.3356 -20.3356 -20.3354 -20.3319 -20.3317 -20.3316 -20.3314
   -20.3297 -20.3297 -20.3288 -20.3288 -20.3241 -20.3240 -20.3232 -20.3231
   -20.3230 -20.3229 -20.3219 -20.3218 -20.3200 -20.3199 -20.3189 -20.3188
    -9.7926  -9.6378  -9.4072  -9.4035  -9.2663  -9.2520  -9.0001  -8.9902
    -8.9085  -8.7672  -8.7623  -8.7601  -8.2592  -8.2168  -8.2079  -8.1928
    -7.9511  -7.9473  -7.9196  -7.9176  -7.8719  -7.8553  -7.8316  -7.8171
     1.3949   1.3996   1.4884   1.4942   1.5207   1.5312   1.7291   1.7879
     2.2678   2.3662   2.3968   2.5236   2.5826   2.6332   2.8859   2.9348
     2.9863   3.0487   3.5896   3.6318   3.6967   3.7298   4.0479   4.3323
     4.3497   4.3742   4.4037   4.4405   4.5108   4.6511   4.6880   4.7470
     4.7788   4.8234   5.0363   5.0701   5.2894   5.2993   5.3040   5.3524
     5.6242   5.6328   5.6599   5.6729   5.7795   5.7869   6.1731   6.2017
     6.3246   6.3845   6.4634   6.5600   6.6484   6.6892   6.7178   6.7586
     6.8240   6.8503   6.9343   6.9483   7.0212   7.0416   7.0670   7.0877
     7.1739   7.1803   7.7327   7.7510   7.7739   7.7996   7.8368   7.8488
     9.9156   9.9231  10.6695  10.6936  10.7579  10.7876  11.8039  11.9114
    11.9697  12.0003  12.2941  12.3189  12.3233  12.3488  12.7667  12.8737
    12.9699  13.0426  13.2079  13.2339  13.4489  13.5213  13.5520  13.6165
    15.1642  15.2877  15.3366  15.3992  15.4442  15.7209  16.0467  16.0886
    16.2530  16.8721  17.2713  17.3653  17.3952

          k = 0.1667 0.3213 0.3325 ( 62569 PWs)   bands (ev):

   -66.2078 -66.2075 -66.2074 -66.2071 -66.2070 -66.2068 -66.2066 -66.2063
   -30.5916 -30.5886 -30.5847 -30.5814 -30.5676 -30.5644 -30.5565 -30.5500
   -30.5485 -30.5462 -30.5422 -30.5331 -30.5296 -30.5269 -30.5258 -30.5186
   -30.4878 -30.4872 -30.4849 -30.4847 -30.4651 -30.4624 -30.4620 -30.4593
   -20.3667 -20.3667 -20.3666 -20.3666 -20.3666 -20.3665 -20.3665 -20.3664
   -20.3488 -20.3486 -20.3482 -20.3480 -20.3477 -20.3474 -20.3471 -20.3468
   -20.3452 -20.3451 -20.3449 -20.3447 -20.3440 -20.3437 -20.3436 -20.3434
   -20.3430 -20.3426 -20.3426 -20.3425 -20.3423 -20.3422 -20.3420 -20.3419
   -20.3358 -20.3357 -20.3356 -20.3355 -20.3319 -20.3317 -20.3316 -20.3315
   -20.3285 -20.3285 -20.3276 -20.3276 -20.3252 -20.3252 -20.3243 -20.3242
   -20.3230 -20.3229 -20.3223 -20.3222 -20.3198 -20.3197 -20.3191 -20.3191
    -9.6671  -9.5015  -9.4510  -9.2931  -9.2166  -9.0199  -8.9416  -8.8892
    -8.8653  -8.7726  -8.7365  -8.6960  -8.3302  -8.2960  -8.2410  -8.2135
    -8.1988  -8.1725  -8.1553  -8.0967  -7.9165  -7.8999  -7.8643  -7.8485
     1.5254   1.5346   1.5406   1.5460   2.0985   2.1635   2.1910   2.2818
     2.3299   2.3940   2.4250   2.6090   2.8385   2.8784   2.9194   2.9789
     3.1644   3.2536   3.6187   3.6354   3.6834   3.7576   3.8203   3.8873
     4.0347   4.1853   4.2585   4.2954   4.3435   4.4564   4.5150   4.6117
     4.6244   4.7148   4.7641   4.7862   4.8454   4.8984   5.0241   5.1376
     5.2502   5.2850   5.3448   5.5820   5.6898   5.7848   5.9926   6.0109
     6.4542   6.5235   6.5546   6.6649   6.7086   6.7322   6.8589   6.8671
     6.9163   6.9583   6.9856   7.0069   7.0604   7.1248   7.1392   7.1738
     7.2242   7.2585   7.6796   7.6840   7.7061   7.7459   7.7619   7.7970
    10.4882  10.5058  10.7422  10.7862  11.1495  11.2073  11.8298  11.8849
    11.9553  12.0445  12.0869  12.1890  12.4511  12.4869  12.5278  12.5407
    12.7700  12.9225  12.9677  13.1546  13.1699  13.2771  13.5005  13.5260
    15.2752  15.3695  15.6088  15.9107  15.9281  15.9827  16.0604  16.6898
    16.7423  16.7962  16.9426  17.4984  17.6004

          k = 0.1667 0.3213-0.4987 ( 62558 PWs)   bands (ev):

   -66.2076 -66.2076 -66.2073 -66.2073 -66.2068 -66.2068 -66.2066 -66.2066
   -30.5900 -30.5900 -30.5829 -30.5829 -30.5658 -30.5658 -30.5523 -30.5523
   -30.5444 -30.5444 -30.5373 -30.5373 -30.5088 -30.5088 -30.5083 -30.5083
   -30.5060 -30.5059 -30.5042 -30.5042 -30.4638 -30.4638 -30.4611 -30.4611
   -20.3667 -20.3667 -20.3666 -20.3666 -20.3666 -20.3666 -20.3665 -20.3665
   -20.3487 -20.3487 -20.3481 -20.3481 -20.3475 -20.3475 -20.3469 -20.3469
   -20.3451 -20.3451 -20.3449 -20.3449 -20.3439 -20.3439 -20.3436 -20.3436
   -20.3427 -20.3427 -20.3424 -20.3424 -20.3422 -20.3422 -20.3421 -20.3420
   -20.3357 -20.3357 -20.3355 -20.3355 -20.3318 -20.3318 -20.3316 -20.3316
   -20.3268 -20.3268 -20.3268 -20.3268 -20.3259 -20.3259 -20.3259 -20.3259
   -20.3226 -20.3226 -20.3226 -20.3226 -20.3194 -20.3194 -20.3194 -20.3194
    -9.5386  -9.5386  -9.3725  -9.3725  -9.0294  -9.0294  -8.7977  -8.7977
    -8.6650  -8.6649  -8.6136  -8.6136  -8.5599  -8.5599  -8.5021  -8.5021
    -8.2101  -8.2101  -8.1719  -8.1719  -7.8908  -7.8908  -7.8743  -7.8743
     1.5385   1.5385   1.5512   1.5512   2.2676   2.2676   2.3765   2.3765
     2.8903   2.8903   3.0390   3.0390   3.0768   3.0768   3.1539   3.1539
     3.1933   3.1933   3.3990   3.3990   3.4533   3.4533   3.6804   3.6804
     3.9505   3.9505   3.9932   3.9932   4.0071   4.0071   4.2674   4.2674
     4.6681   4.6681   4.7895   4.7895   4.9174   4.9174   4.9354   4.9354
     5.0475   5.0476   5.4379   5.4379   5.7703   5.7703   5.8249   5.8249
     6.5657   6.5657   6.6795   6.6795   6.7249   6.7249   6.7635   6.7635
     6.9773   6.9773   7.0201   7.0201   7.1191   7.1191   7.4641   7.4641
     7.4835   7.4835   7.4981   7.4981   7.5458   7.5458   7.7681   7.7681
    10.7202  10.7202  11.2238  11.2238  11.2842  11.2842  11.7251  11.7251
    11.8450  11.8450  12.0867  12.0867  12.4607  12.4607  12.5367  12.5367
    12.7596  12.7596  12.8244  12.8244  13.1108  13.1108  13.4880  13.4880
    15.3379  15.3379  15.8386  15.8386  16.3052  16.3053  16.4965  16.4965
    16.8780  16.8780  17.2511  17.2511  17.8231

          k = 0.1667-0.4819 0.0000 ( 62622 PWs)   bands (ev):

   -66.2079 -66.2079 -66.2071 -66.2071 -66.2070 -66.2070 -66.2063 -66.2063
   -30.5814 -30.5814 -30.5744 -30.5744 -30.5736 -30.5736 -30.5641 -30.5641
   -30.5601 -30.5601 -30.5473 -30.5473 -30.5368 -30.5368 -30.5331 -30.5331
   -30.4686 -30.4686 -30.4648 -30.4648 -30.4642 -30.4642 -30.4554 -30.4554
   -20.3668 -20.3668 -20.3667 -20.3667 -20.3664 -20.3664 -20.3663 -20.3663
   -20.3483 -20.3483 -20.3479 -20.3479 -20.3477 -20.3477 -20.3472 -20.3472
   -20.3443 -20.3443 -20.3442 -20.3442 -20.3438 -20.3438 -20.3436 -20.3436
   -20.3435 -20.3435 -20.3431 -20.3431 -20.3425 -20.3425 -20.3422 -20.3422
   -20.3357 -20.3357 -20.3355 -20.3355 -20.3317 -20.3317 -20.3315 -20.3315
   -20.3302 -20.3302 -20.3292 -20.3292 -20.3237 -20.3237 -20.3232 -20.3232
   -20.3225 -20.3225 -20.3217 -20.3217 -20.3200 -20.3200 -20.3188 -20.3188
    -9.7592  -9.7592  -9.4022  -9.4022  -9.2947  -9.2947  -9.0299  -9.0299
    -8.5832  -8.5832  -8.5310  -8.5310  -8.5181  -8.5181  -8.5139  -8.5139
    -7.9386  -7.9386  -7.8417  -7.8417  -7.8118  -7.8118  -7.7216  -7.7216
     1.2136   1.2136   1.2366   1.2366   1.5247   1.5247   1.7044   1.7044
     2.5134   2.5134   2.9969   2.9969   3.0974   3.0974   3.1445   3.1445
     3.2283   3.2283   3.2721   3.2721   3.4822   3.4823   3.5550   3.5550
     3.6608   3.6609   4.3570   4.3570   4.6445   4.6445   4.9498   4.9498
     5.0327   5.0327   5.1224   5.1224   5.2488   5.2488   5.4618   5.4618
     5.6850   5.6850   5.7044   5.7044   6.0155   6.0155   6.0530   6.0530
     6.3103   6.3103   6.3160   6.3160   6.6061   6.6061   6.7939   6.7939
     6.9177   6.9177   7.0150   7.0150   7.0318   7.0318   7.4212   7.4212
     7.4544   7.4544   7.4651   7.4651   7.4963   7.4963   7.8531   7.8531
     9.6806   9.6806  11.1370  11.1370  11.1999  11.1999  11.3528  11.3528
    11.4195  11.4195  12.2895  12.2895  12.4091  12.4091  12.8549  12.8549
    13.1951  13.1951  13.3286  13.3286  13.4182  13.4182  13.4663  13.4663
    15.2158  15.2158  15.5349  15.5349  15.5725  15.5725  15.8624  15.8624
    16.5502  16.5502  17.7918  17.7918  17.9167

          k = 0.1667-0.4819 0.1662 ( 62552 PWs)   bands (ev):

   -66.2078 -66.2078 -66.2071 -66.2071 -66.2070 -66.2070 -66.2063 -66.2063
   -30.5804 -30.5804 -30.5744 -30.5743 -30.5725 -30.5725 -30.5644 -30.5644
   -30.5562 -30.5562 -30.5428 -30.5428 -30.5372 -30.5371 -30.5314 -30.5314
   -30.4727 -30.4727 -30.4700 -30.4699 -30.4646 -30.4646 -30.4578 -30.4578
   -20.3668 -20.3668 -20.3667 -20.3667 -20.3665 -20.3665 -20.3664 -20.3664
   -20.3482 -20.3482 -20.3479 -20.3479 -20.3477 -20.3477 -20.3472 -20.3472
   -20.3444 -20.3444 -20.3443 -20.3442 -20.3439 -20.3439 -20.3437 -20.3437
   -20.3433 -20.3433 -20.3430 -20.3430 -20.3425 -20.3425 -20.3422 -20.3422
   -20.3357 -20.3357 -20.3355 -20.3355 -20.3318 -20.3317 -20.3315 -20.3315
   -20.3297 -20.3297 -20.3288 -20.3288 -20.3241 -20.3241 -20.3232 -20.3232
   -20.3230 -20.3230 -20.3219 -20.3219 -20.3200 -20.3200 -20.3189 -20.3188
    -9.7035  -9.7034  -9.3188  -9.3185  -9.3087  -9.3086  -8.9951  -8.9951
    -8.5905  -8.5901  -8.5287  -8.5277  -8.5213  -8.5202  -8.5118  -8.5108
    -7.9489  -7.9481  -7.9214  -7.9214  -7.8650  -7.8646  -7.8248  -7.8248
     1.3960   1.3980   1.4934   1.4950   1.5292   1.5303   1.7761   1.7774
     2.6015   2.6027   3.0126   3.0142   3.0898   3.1106   3.1434   3.1567
     3.2337   3.2540   3.2800   3.3163   3.5063   3.5227   3.5588   3.5665
     3.6829   3.6870   4.3547   4.3872   4.4006   4.4361   4.8233   4.8569
     4.9230   4.9337   4.9882   5.0340   5.0379   5.0773   5.3860   5.3933
     5.4389   5.4410   5.6596   5.6923   5.7097   5.7262   6.2019   6.2020
[...]
    11.4386  11.4386  11.4386  11.4386  11.5726  11.5726  11.5727  11.5727
    11.9801  11.9801  11.9801  11.9801  12.1130  12.1130  12.1130  12.1130
    12.9217  12.9217  12.9217  12.9218  13.0980  13.0980  13.0980  13.0980
    15.3523  15.3523  15.3523  15.3523  16.7387  16.7387  16.7387  16.7387
    17.5659  17.5659  17.5659  17.5659  17.7345

          k =-0.5000 0.3213 0.0000 ( 62580 PWs)   bands (ev):

   -66.2076 -66.2076 -66.2074 -66.2074 -66.2068 -66.2068 -66.2065 -66.2065
   -30.5897 -30.5897 -30.5830 -30.5829 -30.5682 -30.5681 -30.5531 -30.5531
   -30.5524 -30.5524 -30.5461 -30.5461 -30.5053 -30.5052 -30.5040 -30.5040
   -30.5000 -30.5000 -30.4992 -30.4992 -30.4620 -30.4620 -30.4616 -30.4616
   -20.3668 -20.3668 -20.3667 -20.3667 -20.3664 -20.3664 -20.3664 -20.3663
   -20.3486 -20.3486 -20.3483 -20.3482 -20.3476 -20.3475 -20.3470 -20.3470
   -20.3451 -20.3451 -20.3445 -20.3445 -20.3438 -20.3438 -20.3433 -20.3433
   -20.3431 -20.3431 -20.3428 -20.3428 -20.3423 -20.3423 -20.3419 -20.3419
   -20.3337 -20.3336 -20.3335 -20.3335 -20.3334 -20.3334 -20.3333 -20.3332
   -20.3297 -20.3297 -20.3297 -20.3297 -20.3231 -20.3231 -20.3231 -20.3231
   -20.3218 -20.3218 -20.3217 -20.3217 -20.3205 -20.3205 -20.3204 -20.3204
    -9.6118  -9.6118  -9.4661  -9.4661  -9.0204  -9.0203  -8.8237  -8.8237
    -8.6383  -8.6382  -8.6144  -8.6144  -8.5548  -8.5548  -8.4916  -8.4916
    -8.2043  -8.2043  -8.1680  -8.1680  -7.7759  -7.7759  -7.7610  -7.7609
     1.2513   1.2513   1.2560   1.2560   2.2600   2.2600   2.3802   2.3802
     2.8840   2.8840   2.9761   2.9761   3.0370   3.0370   3.1558   3.1558
     3.1950   3.1950   3.3603   3.3603   3.4234   3.4234   3.6148   3.6149
     3.8913   3.8913   3.9446   3.9446   4.1499   4.1499   4.3209   4.3209
     4.7662   4.7662   4.8173   4.8173   5.0440   5.0441   5.1658   5.1658
     5.3276   5.3276   5.6785   5.6785   6.1391   6.1391   6.1638   6.1638
     6.3807   6.3807   6.4357   6.4357   6.4761   6.4761   6.6815   6.6815
     6.9812   6.9812   7.0200   7.0200   7.0407   7.0407   7.4358   7.4358
     7.4522   7.4522   7.5326   7.5326   7.5616   7.5616   7.8197   7.8197
    10.5301  10.5301  11.1501  11.1501  11.1951  11.1951  11.5693  11.5694
    11.8480  11.8481  12.0581  12.0581  12.5448  12.5448  12.5973  12.5973
    12.8358  12.8358  12.9318  12.9318  13.2313  13.2313  13.6733  13.6733
    15.0982  15.0982  15.5128  15.5128  16.2269  16.2269  16.4908  16.4908
    16.7294  16.7294  17.2246  17.2246  17.9003

          k =-0.5000 0.3213 0.1662 ( 62586 PWs)   bands (ev):

   -66.2076 -66.2076 -66.2073 -66.2073 -66.2068 -66.2068 -66.2066 -66.2066
   -30.5890 -30.5890 -30.5833 -30.5833 -30.5650 -30.5650 -30.5529 -30.5529
   -30.5476 -30.5476 -30.5432 -30.5432 -30.5050 -30.5049 -30.5044 -30.5044
   -30.5006 -30.5006 -30.4989 -30.4989 -30.4676 -30.4675 -30.4674 -30.4674
   -20.3668 -20.3667 -20.3667 -20.3667 -20.3665 -20.3664 -20.3664 -20.3664
   -20.3486 -20.3486 -20.3483 -20.3483 -20.3475 -20.3475 -20.3470 -20.3470
   -20.3452 -20.3451 -20.3446 -20.3446 -20.3439 -20.3438 -20.3433 -20.3433
   -20.3431 -20.3431 -20.3427 -20.3427 -20.3423 -20.3423 -20.3419 -20.3419
   -20.3337 -20.3337 -20.3335 -20.3335 -20.3334 -20.3334 -20.3333 -20.3332
   -20.3293 -20.3293 -20.3292 -20.3292 -20.3236 -20.3235 -20.3235 -20.3235
   -20.3217 -20.3217 -20.3217 -20.3217 -20.3206 -20.3206 -20.3206 -20.3205
    -9.5430  -9.5430  -9.3847  -9.3847  -9.0336  -9.0336  -8.8036  -8.8036
    -8.6546  -8.6546  -8.6059  -8.6058  -8.5467  -8.5467  -8.4950  -8.4949
    -8.2021  -8.2021  -8.1730  -8.1730  -7.8968  -7.8968  -7.8812  -7.8811
     1.5060   1.5060   1.5151   1.5151   2.2648   2.2648   2.3694   2.3694
     2.9475   2.9475   3.0030   3.0031   3.0410   3.0410   3.1715   3.1715
     3.2115   3.2115   3.4249   3.4249   3.4725   3.4725   3.6605   3.6605
     3.8837   3.8838   3.9562   3.9562   4.1447   4.1447   4.3180   4.3180
     4.6415   4.6415   4.7473   4.7473   4.9204   4.9204   4.9378   4.9378
     5.0510   5.0510   5.4365   5.4365   5.7612   5.7612   5.8167   5.8167
     6.5729   6.5729   6.7014   6.7014   6.7439   6.7439   6.7680   6.7680
     6.9579   6.9579   7.0256   7.0256   7.1000   7.1000   7.4370   7.4370
     7.4597   7.4597   7.5396   7.5396   7.5653   7.5653   7.7941   7.7941
    10.6930  10.6930  11.2245  11.2245  11.2806  11.2806  11.6154  11.6154
    11.8620  11.8621  12.0975  12.0975  12.5278  12.5278  12.5776  12.5776
    12.7690  12.7690  12.8765  12.8765  13.0745  13.0745  13.5290  13.5290
    15.3399  15.3399  15.7998  15.7998  16.2954  16.2954  16.4847  16.4847
    16.7841  16.7841  17.2660  17.2660  17.7862

          k =-0.5000 0.3213 0.3325 ( 62542 PWs)   bands (ev):

   -66.2074 -66.2074 -66.2072 -66.2071 -66.2070 -66.2070 -66.2067 -66.2067
   -30.5875 -30.5875 -30.5843 -30.5843 -30.5596 -30.5596 -30.5541 -30.5541
   -30.5328 -30.5328 -30.5323 -30.5323 -30.5065 -30.5064 -30.5052 -30.5052
   -30.5019 -30.5019 -30.4975 -30.4975 -30.4825 -30.4825 -30.4813 -30.4813
   -20.3667 -20.3667 -20.3666 -20.3666 -20.3665 -20.3665 -20.3665 -20.3664
   -20.3485 -20.3485 -20.3484 -20.3483 -20.3474 -20.3474 -20.3471 -20.3471
   -20.3451 -20.3451 -20.3448 -20.3448 -20.3439 -20.3439 -20.3435 -20.3435
   -20.3429 -20.3429 -20.3425 -20.3425 -20.3423 -20.3423 -20.3420 -20.3420
   -20.3337 -20.3337 -20.3336 -20.3336 -20.3334 -20.3333 -20.3333 -20.3333
   -20.3281 -20.3280 -20.3280 -20.3280 -20.3247 -20.3247 -20.3247 -20.3247
   -20.3216 -20.3215 -20.3215 -20.3215 -20.3209 -20.3209 -20.3208 -20.3208
    -9.3684  -9.3684  -9.1614  -9.1614  -9.0800  -9.0800  -8.7363  -8.7363
    -8.7041  -8.7041  -8.5774  -8.5774  -8.5275  -8.5274  -8.5020  -8.5020
    -8.2343  -8.2343  -8.1941  -8.1941  -8.1815  -8.1815  -8.1264  -8.1264
     2.1148   2.1148   2.2057   2.2057   2.2795   2.2795   2.4125   2.4125
     2.9987   2.9987   3.0376   3.0376   3.1353   3.1353   3.1928   3.1928
     3.2723   3.2724   3.5995   3.5995   3.6450   3.6450   3.7490   3.7491
     3.8564   3.8564   3.9944   3.9944   4.1264   4.1264   4.1380   4.1380
     4.2671   4.2671   4.4259   4.4259   4.5480   4.5480   4.7657   4.7657
     4.8441   4.8441   4.9508   4.9508   4.9725   4.9725   5.2637   5.2638
     6.7941   6.7942   6.8566   6.8566   6.9302   6.9302   6.9630   6.9630
     7.0983   7.0983   7.1814   7.1814   7.2665   7.2665   7.4298   7.4298
     7.4662   7.4662   7.5454   7.5454   7.5661   7.5661   7.7183   7.7184
    11.1309  11.1309  11.4488  11.4488  11.5446  11.5446  11.6975  11.6975
    11.9200  11.9201  12.2463  12.2463  12.3053  12.3053  12.3875  12.3875
    12.6237  12.6238  12.7188  12.7188  12.7369  12.7369  13.1553  13.1553
    15.9232  15.9232  16.3707  16.3707  16.5311  16.5311  16.6458  16.6458
    16.9971  16.9972  17.3389  17.3389  17.5257

          k =-0.5000 0.3213-0.4987 ( 62528 PWs)   bands (ev):

   -66.2072 -66.2072 -66.2072 -66.2072 -66.2070 -66.2070 -66.2069 -66.2069
   -30.5858 -30.5858 -30.5858 -30.5858 -30.5561 -30.5561 -30.5561 -30.5561
   -30.5164 -30.5164 -30.5164 -30.5164 -30.5138 -30.5138 -30.5138 -30.5138
   -30.4978 -30.4978 -30.4978 -30.4978 -30.4929 -30.4929 -30.4929 -30.4929
   -20.3666 -20.3666 -20.3666 -20.3666 -20.3665 -20.3665 -20.3665 -20.3665
   -20.3484 -20.3484 -20.3484 -20.3484 -20.3473 -20.3473 -20.3472 -20.3472
   -20.3450 -20.3450 -20.3450 -20.3450 -20.3437 -20.3437 -20.3437 -20.3437
   -20.3426 -20.3426 -20.3426 -20.3426 -20.3421 -20.3421 -20.3421 -20.3421
   -20.3337 -20.3337 -20.3336 -20.3336 -20.3333 -20.3333 -20.3333 -20.3333
   -20.3264 -20.3264 -20.3264 -20.3264 -20.3263 -20.3263 -20.3263 -20.3263
   -20.3212 -20.3212 -20.3212 -20.3212 -20.3212 -20.3212 -20.3212 -20.3211
    -9.1865  -9.1865  -9.1865  -9.1864  -8.8824  -8.8824  -8.8824  -8.8823
    -8.5809  -8.5809  -8.5808  -8.5808  -8.4674  -8.4674  -8.4674  -8.4673
    -8.4460  -8.4460  -8.4460  -8.4460  -8.1755  -8.1755  -8.1755  -8.1755
     2.2735   2.2735   2.2735   2.2736   2.9353   2.9353   2.9353   2.9353
     3.0367   3.0368   3.0368   3.0368   3.1537   3.1537   3.1537   3.1537
     3.2964   3.2964   3.2964   3.2964   3.7923   3.7923   3.7923   3.7923
     3.9194   3.9194   3.9194   3.9194   4.0155   4.0155   4.0155   4.0155
     4.2229   4.2229   4.2229   4.2229   4.3243   4.3243   4.3243   4.3243
     4.6401   4.6401   4.6401   4.6401   5.0007   5.0007   5.0007   5.0007
     6.8667   6.8667   6.8667   6.8667   6.9617   6.9617   6.9617   6.9617
     7.3209   7.3209   7.3209   7.3209   7.3901   7.3901   7.3901   7.3901
     7.4842   7.4842   7.4842   7.4842   7.6169   7.6169   7.6169   7.6169
    11.6375  11.6375  11.6375  11.6375  11.7366  11.7366  11.7366  11.7367
    11.9918  11.9918  11.9918  11.9918  12.1679  12.1679  12.1680  12.1680
    12.5784  12.5784  12.5784  12.5784  12.7724  12.7724  12.7724  12.7724
    16.2834  16.2834  16.2834  16.2834  16.9078  16.9078  16.9078  16.9078
    17.4152  17.4152  17.4152  17.4152  17.7394

          k =-0.5000-0.4819 0.0000 ( 62600 PWs)   bands (ev):

   -66.2075 -66.2075 -66.2075 -66.2075 -66.2067 -66.2067 -66.2066 -66.2066
   -30.5770 -30.5770 -30.5766 -30.5766 -30.5679 -30.5679 -30.5670 -30.5670
   -30.5516 -30.5516 -30.5511 -30.5511 -30.5043 -30.5043 -30.5034 -30.5034
   -30.5015 -30.5015 -30.5005 -30.5005 -30.4620 -30.4620 -30.4619 -30.4619
   -20.3667 -20.3667 -20.3667 -20.3667 -20.3664 -20.3664 -20.3664 -20.3664
   -20.3481 -20.3481 -20.3480 -20.3480 -20.3476 -20.3476 -20.3475 -20.3475
   -20.3443 -20.3443 -20.3442 -20.3442 -20.3438 -20.3438 -20.3437 -20.3437
   -20.3433 -20.3433 -20.3433 -20.3433 -20.3424 -20.3424 -20.3424 -20.3424
   -20.3336 -20.3336 -20.3335 -20.3335 -20.3334 -20.3334 -20.3333 -20.3333
   -20.3297 -20.3297 -20.3297 -20.3297 -20.3231 -20.3231 -20.3231 -20.3231
   -20.3218 -20.3218 -20.3218 -20.3218 -20.3205 -20.3205 -20.3205 -20.3205
    -9.5271  -9.5271  -9.5218  -9.5218  -8.7866  -8.7866  -8.7627  -8.7627
    -8.6799  -8.6799  -8.6596  -8.6596  -8.4784  -8.4784  -8.4374  -8.4374
    -8.4226  -8.4226  -8.3846  -8.3846  -7.7687  -7.7687  -7.7686  -7.7686
     1.2525   1.2525   1.2574   1.2574   2.8698   2.8698   2.9756   2.9756
     3.0043   3.0043   3.0264   3.0264   3.1605   3.1605   3.1830   3.1830
     3.2248   3.2248   3.3231   3.3231   3.4036   3.4036   3.4121   3.4121
     3.4655   3.4655   3.7518   3.7518   4.1682   4.1682   4.2486   4.2486
     4.2640   4.2640   4.3605   4.3605   5.0862   5.0862   5.1289   5.1289
     5.4072   5.4072   5.4699   5.4699   6.1593   6.1593   6.1649   6.1649
     6.4533   6.4533   6.4767   6.4767   6.5053   6.5053   6.5629   6.5629
     7.2072   7.2072   7.2106   7.2106   7.2635   7.2635   7.3724   7.3724
     7.4238   7.4239   7.4970   7.4970   7.5570   7.5570   7.5574   7.5574
    11.1070  11.1070  11.1419  11.1419  11.2002  11.2002  11.2392  11.2392
    12.1133  12.1133  12.1575  12.1575  12.2515  12.2515  12.2675  12.2675
    12.8593  12.8593  12.8669  12.8669  13.3862  13.3862  13.4293  13.4293
    15.3780  15.3780  15.3877  15.3877  16.7069  16.7069  16.8058  16.8058
    17.3031  17.3031  17.3673  17.3674  17.4501

          k =-0.5000-0.4819 0.1662 ( 62608 PWs)   bands (ev):

   -66.2074 -66.2074 -66.2074 -66.2074 -66.2067 -66.2067 -66.2067 -66.2067
   -30.5757 -30.5757 -30.5752 -30.5752 -30.5682 -30.5682 -30.5674 -30.5674
   -30.5468 -30.5468 -30.5465 -30.5465 -30.5043 -30.5043 -30.5035 -30.5035
   -30.5017 -30.5016 -30.5006 -30.5005 -30.4677 -30.4677 -30.4676 -30.4676
   -20.3667 -20.3667 -20.3667 -20.3667 -20.3664 -20.3664 -20.3664 -20.3664
   -20.3480 -20.3480 -20.3479 -20.3479 -20.3476 -20.3476 -20.3475 -20.3475
   -20.3444 -20.3444 -20.3443 -20.3443 -20.3438 -20.3438 -20.3437 -20.3437
   -20.3432 -20.3432 -20.3432 -20.3432 -20.3424 -20.3424 -20.3424 -20.3424
   -20.3336 -20.3336 -20.3335 -20.3335 -20.3334 -20.3334 -20.3333 -20.3333
   -20.3293 -20.3293 -20.3292 -20.3292 -20.3235 -20.3235 -20.3235 -20.3235
   -20.3217 -20.3217 -20.3217 -20.3217 -20.3206 -20.3206 -20.3206 -20.3206
    -9.4502  -9.4502  -9.4441  -9.4441  -8.8031  -8.8030  -8.7794  -8.7794
    -8.6652  -8.6652  -8.6440  -8.6440  -8.4757  -8.4757  -8.4382  -8.4381
    -8.4215  -8.4215  -8.3875  -8.3874  -7.8896  -7.8896  -7.8895  -7.8895
     1.5107   1.5107   1.5166   1.5166   2.8808   2.8808   2.9824   2.9824
     3.0109   3.0109   3.0372   3.0372   3.1494   3.1494   3.1732   3.1732
     3.2936   3.2936   3.3617   3.3617   3.4482   3.4482   3.4773   3.4773
     3.5030   3.5030   3.7770   3.7770   4.1737   4.1737   4.2346   4.2346
     4.2667   4.2667   4.3504   4.3504   4.7932   4.7932   4.9214   4.9215
     5.0952   5.0952   5.2134   5.2134   5.7649   5.7649   5.7849   5.7849
     6.6460   6.6460   6.7116   6.7116   6.7531   6.7531   6.7955   6.7955
     7.1899   7.1900   7.2203   7.2203   7.2957   7.2957   7.3624   7.3624
     7.4143   7.4143   7.4980   7.4980   7.5397   7.5397   7.5792   7.5792
    11.1818  11.1818  11.2449  11.2449  11.2798  11.2798  11.3710  11.3710
    12.1211  12.1211  12.1594  12.1594  12.2437  12.2437  12.2784  12.2784
    12.7488  12.7488  12.8210  12.8210  13.2215  13.2215  13.2840  13.2840
    15.6598  15.6598  15.6778  15.6778  16.7700  16.7701  16.8645  16.8646
    17.3055  17.3056  17.3774  17.3774  17.4497

          k =-0.5000-0.4819 0.3325 ( 62560 PWs)   bands (ev):

   -66.2073 -66.2073 -66.2073 -66.2073 -66.2069 -66.2069 -66.2068 -66.2068
   -30.5732 -30.5732 -30.5725 -30.5725 -30.5693 -30.5693 -30.5685 -30.5685
   -30.5330 -30.5330 -30.5328 -30.5328 -30.5060 -30.5060 -30.5054 -30.5054
   -30.5008 -30.5008 -30.4997 -30.4997 -30.4823 -30.4823 -30.4820 -30.4820
   -20.3667 -20.3667 -20.3666 -20.3666 -20.3665 -20.3665 -20.3665 -20.3665
   -20.3479 -20.3479 -20.3478 -20.3478 -20.3477 -20.3477 -20.3476 -20.3476
   -20.3444 -20.3444 -20.3443 -20.3443 -20.3440 -20.3440 -20.3439 -20.3439
   -20.3429 -20.3429 -20.3429 -20.3429 -20.3424 -20.3424 -20.3424 -20.3424
   -20.3336 -20.3336 -20.3336 -20.3336 -20.3334 -20.3334 -20.3333 -20.3333
   -20.3280 -20.3280 -20.3280 -20.3280 -20.3247 -20.3247 -20.3247 -20.3247
   -20.3215 -20.3215 -20.3215 -20.3215 -20.3209 -20.3209 -20.3208 -20.3208
    -9.2445  -9.2445  -9.2354  -9.2354  -8.8615  -8.8615  -8.8388  -8.8387
    -8.6121  -8.6121  -8.5910  -8.5909  -8.4688  -8.4688  -8.4434  -8.4434
    -8.4153  -8.4153  -8.3953  -8.3953  -8.1781  -8.1781  -8.1771  -8.1771
     2.1911   2.1911   2.2036   2.2036   2.9065   2.9065   2.9609   2.9609
     3.0397   3.0397   3.0612   3.0612   3.1533   3.1533   3.1684   3.1684
     3.3716   3.3716   3.4143   3.4143   3.5451   3.5451   3.6017   3.6017
     3.7373   3.7373   3.8747   3.8747   4.1621   4.1621   4.1725   4.1725
     4.2244   4.2244   4.2909   4.2909   4.3949   4.3949   4.4819   4.4819
     4.6128   4.6128   4.7302   4.7302   4.9721   4.9721   4.9978   4.9978
     6.9130   6.9130   7.0145   7.0145   7.0781   7.0781   7.0962   7.0962
     7.1887   7.1887   7.2535   7.2535   7.3246   7.3246   7.3457   7.3458
     7.4138   7.4138   7.5058   7.5058   7.5265   7.5265   7.5835   7.5835
    11.4350  11.4350  11.4838  11.4838  11.6004  11.6004  11.7078  11.7078
    12.1153  12.1153  12.1744  12.1744  12.1945  12.1945  12.2989  12.2989
    12.4250  12.4250  12.5694  12.5694  12.8034  12.8034  12.8901  12.8901
    16.4281  16.4281  16.4780  16.4780  16.9498  16.9498  17.0280  17.0280
    17.2802  17.2803  17.3884  17.3887  17.4469

          k =-0.5000-0.4819-0.4987 ( 62528 PWs)   bands (ev):

   -66.2071 -66.2071 -66.2071 -66.2071 -66.2071 -66.2071 -66.2071 -66.2070
   -30.5710 -30.5710 -30.5710 -30.5710 -30.5702 -30.5702 -30.5702 -30.5702
   -30.5163 -30.5163 -30.5163 -30.5163 -30.5139 -30.5139 -30.5139 -30.5139
   -30.4969 -30.4969 -30.4969 -30.4969 -30.4946 -30.4946 -30.4946 -30.4946
   -20.3666 -20.3666 -20.3666 -20.3666 -20.3666 -20.3666 -20.3666 -20.3665
   -20.3478 -20.3478 -20.3478 -20.3478 -20.3477 -20.3477 -20.3477 -20.3477
   -20.3443 -20.3443 -20.3443 -20.3443 -20.3441 -20.3441 -20.3441 -20.3441
   -20.3428 -20.3428 -20.3428 -20.3427 -20.3425 -20.3425 -20.3425 -20.3425
   -20.3336 -20.3336 -20.3336 -20.3336 -20.3334 -20.3334 -20.3334 -20.3334
   -20.3264 -20.3264 -20.3264 -20.3264 -20.3263 -20.3263 -20.3263 -20.3263
   -20.3212 -20.3212 -20.3212 -20.3212 -20.3212 -20.3212 -20.3212 -20.3212
    -9.0062  -9.0061  -9.0061  -9.0061  -8.9879  -8.9879  -8.9878  -8.9878
    -8.4871  -8.4871  -8.4871  -8.4871  -8.4607  -8.4607  -8.4607  -8.4607
    -8.4285  -8.4285  -8.4285  -8.4285  -8.4022  -8.4022  -8.4021  -8.4021
     2.8628   2.8628   2.8628   2.8628   2.9503   2.9503   2.9503   2.9503
     3.0684   3.0684   3.0684   3.0684   3.1812   3.1812   3.1812   3.1812
     3.2869   3.2869   3.2869   3.2869   3.4533   3.4533   3.4533   3.4533
     4.0730   4.0730   4.0730   4.0730   4.1000   4.1000   4.1001   4.1001
     4.2433   4.2433   4.2433   4.2433   4.3001   4.3001   4.3001   4.3001
     4.3734   4.3734   4.3734   4.3734   4.4490   4.4490   4.4490   4.4490
     7.0578   7.0578   7.0578   7.0578   7.2072   7.2073   7.2073   7.2073
     7.2584   7.2584   7.2584   7.2584   7.3134   7.3134   7.3134   7.3134
     7.4859   7.4859   7.4859   7.4859   7.5473   7.5473   7.5473   7.5474
    11.8051  11.8051  11.8051  11.8051  11.8381  11.8381  11.8381  11.8381
    12.0734  12.0734  12.0734  12.0734  12.2295  12.2295  12.2295  12.2295
    12.3649  12.3649  12.3649  12.3649  12.4551  12.4551  12.4551  12.4551
    17.0662  17.0662  17.0662  17.0662  17.1543  17.1543  17.1543  17.1544
    17.4006  17.4006  17.4006  17.4007  17.4430

     the Fermi energy is     9.6596 ev

!    total energy              =   -6260.97319103 Ry
     Harris-Foulkes estimate   =   -6260.97319103 Ry
     estimated scf accuracy    <          1.1E-09 Ry

     The total energy is the sum of the following terms:

     one-electron contribution =   -4738.40953845 Ry
     hartree contribution      =    2605.42712519 Ry
     xc contribution           =    -965.88625803 Ry
     ewald contribution        =   -3162.10449026 Ry
     smearing contrib. (-TS)   =      -0.00002949 Ry

     convergence has been achieved in  13 iterations

     Writing output data file Landau_12.save
 
     init_run     :     43.95s CPU     46.01s WALL (       1 calls)
     electrons    :   1699.28s CPU   1740.29s WALL (       1 calls)

     Called by init_run:
     wfcinit      :     41.08s CPU     42.99s WALL (       1 calls)
     potinit      :      1.10s CPU      1.14s WALL (       1 calls)

     Called by electrons:
     c_bands      :   1530.08s CPU   1568.55s WALL (      13 calls)
     sum_band     :    163.30s CPU    165.04s WALL (      13 calls)
     v_of_rho     :      1.43s CPU      1.46s WALL (      14 calls)
     mix_rho      :      2.60s CPU      3.21s WALL (      13 calls)

     Called by c_bands:
     init_us_2    :     10.39s CPU     11.28s WALL (      54 calls)
     cegterg      :   1357.71s CPU   1394.00s WALL (      26 calls)

     Called by sum_band:

     Called by *egterg:
     h_psi        :   1002.76s CPU   1011.32s WALL (     125 calls)
     g_psi        :      1.71s CPU      1.73s WALL (      97 calls)
     cdiaghg      :     19.93s CPU     20.03s WALL (     123 calls)

     Called by h_psi:
     h_psi:pot    :    997.91s CPU   1005.81s WALL (     125 calls)
     h_psi:calbec :    157.21s CPU    161.11s WALL (     125 calls)
     vloc_psi     :    677.96s CPU    680.39s WALL (     125 calls)
     add_vuspsi   :    162.74s CPU    164.31s WALL (     125 calls)

     General routines
     calbec       :    157.21s CPU    161.11s WALL (     125 calls)
     fft          :      1.17s CPU      1.17s WALL (      56 calls)
     fftw         :    722.67s CPU    724.67s WALL (   33704 calls)
 
     Parallel routines
 
     PWSCF        : 29m 6.90s CPU    29m51.40s WALL

 
   This run was terminated on:   3:30:11  19Mar2020            

=------------------------------------------------------------------------------=
   JOB DONE.
=------------------------------------------------------------------------------=
