
     Program PWSCF v.6.2 (svn rev. 14038) starts on 19Mar2020 at  3: 0:21 

     This program is part of the open-source Quantum ESPRESSO suite
     for quantum simulation of materials; please cite
         "P. Giannozzi et al., J. Phys.:Condens. Matter 21 395502 (2009);
         "P. Giannozzi et al., J. Phys.:Condens. Matter 29 465901 (2017);
          URL http://www.quantum-espresso.org", 
     in publications or presentations arising from this work. More details at
     http://www.quantum-espresso.org/quote

     Parallel version (MPI), running on    40 processors

     MPI processes distributed on     4 nodes
     K-points division:     npool     =      40
     Reading input from scf.in

     Current dimensions of program PWSCF are:
     Max number of different atomic species (ntypx) = 10
     Max number of k-points (npk) =  40000
     Max angular momentum in pseudopotentials (lmaxx) =  3

     Subspace diagonalization in iterative solution of the eigenvalue problem:
     a serial algorithm will be used

 
     G-vector sticks info
     --------------------
     sticks:   dense  smooth     PW     G-vecs:    dense   smooth      PW
     Sum        7745    7745   2075               500013   500013   69273
 


     bravais-lattice index     =            0
     lattice parameter (alat)  =      13.8859  a.u.
     unit-cell volume          =    2814.9192 (a.u.)^3
     number of atoms/cell      =           32
     number of atomic types    =            2
     number of electrons       =       368.20
     number of Kohn-Sham states=          221
     kinetic-energy cutoff     =     120.0000  Ry
     charge density cutoff     =     480.0000  Ry
     convergence threshold     =      1.0E-08
     mixing beta               =       0.7000
     number of iterations used =            8  plain     mixing
     Exchange-correlation      = SLA PW NOGX NOGC ( 1  4  0  0 0 0)

     celldm(1)=  13.885916  celldm(2)=   0.000000  celldm(3)=   0.000000
     celldm(4)=   0.000000  celldm(5)=   0.000000  celldm(6)=   0.000000

     crystal axes: (cart. coord. in units of alat)
               a(1) = (   1.000000   0.000000   0.000000 )  
               a(2) = (   0.000000   1.050835   0.000000 )  
               a(3) = (   0.000000   0.000000   1.000478 )  

     reciprocal axes: (cart. coord. in units 2 pi/alat)
               b(1) = (  1.000000  0.000000  0.000000 )  
               b(2) = (  0.000000  0.951624  0.000000 )  
               b(3) = (  0.000000  0.000000  0.999522 )  


     PseudoPot. # 1 for W  read from file:
     /cluster/scratch/mnoe/QE/pps/W_ONCV_LDA-4.0.upf
     MD5 check sum: ba0307d5d4cd419d6f1d13dc49d7c13a
     Pseudo is Norm-conserving + core correction, Zval = 28.0
     Generated using ONCVPSP code by D. R. Hamann
     Using radial grid of 1380 points,  8 beta functions with: 
                l(1) =   0
                l(2) =   0
                l(3) =   1
                l(4) =   1
                l(5) =   2
                l(6) =   2
                l(7) =   3
                l(8) =   3

     PseudoPot. # 2 for O  read from file:
     /cluster/scratch/mnoe/QE/pps/O_ONCV_LDA-3.0.upf
     MD5 check sum: a1bd6164e7280c17a38c229939bfbd54
     Pseudo is Norm-conserving + core correction, Zval =  6.0
     Generated using ONCVPSP code by D. R. Hamann
     Using radial grid of  926 points,  5 beta functions with: 
                l(1) =   0
                l(2) =   0
                l(3) =   1
                l(4) =   1
                l(5) =   2

     atomic species   valence    mass     pseudopotential
        W             28.00   183.84000     W ( 1.00)
        O              6.00    15.99940     O ( 1.00)

      8 Sym. Ops., with inversion, found ( 6 have fractional translation)



   Cartesian axes

     site n.     atom                  positions (alat units)
         1           W   tau(   1) = (   0.2453800   0.2946272   0.0043721  )
         2           W   tau(   2) = (   0.7546200   0.7562081   0.9961064  )
         3           W   tau(   3) = (   0.2546200   0.2307905   0.5046113  )
         4           W   tau(   4) = (   0.7453800   0.8200448   0.4958671  )
         5           W   tau(   5) = (   0.7546200   0.2946272   0.4958671  )
         6           W   tau(   6) = (   0.2453800   0.7562081   0.5046113  )
         7           W   tau(   7) = (   0.7453800   0.2307905   0.9961064  )
         8           W   tau(   8) = (   0.2546200   0.8200448   0.0043721  )
         9           O   tau(   9) = (   0.2414700   0.0083176   0.0013607  )
        10           O   tau(  10) = (   0.7585300   1.0425177   0.9991178  )
        11           O   tau(  11) = (   0.2585300   0.5171000   0.5015999  )
        12           O   tau(  12) = (   0.7414699   0.5337352   0.4988786  )
        13           O   tau(  13) = (   0.7585300   0.0083176   0.4988786  )
        14           O   tau(  14) = (   0.2414700   1.0425177   0.5015999  )
        15           O   tau(  15) = (   0.7414699   0.5171000   0.9991178  )
        16           O   tau(  16) = (   0.2585300   0.5337352   0.0013607  )
        17           O   tau(  17) = (   0.5012600   0.2535140   0.4533897  )
        18           O   tau(  18) = (   0.4987400   0.7973213   0.5470887  )
        19           O   tau(  19) = (   0.9987400   0.2719036   0.9536289  )
        20           O   tau(  20) = (   0.0012600   0.7789316   0.0468495  )
        21           O   tau(  21) = (   0.4987400   0.2535140   0.0468495  )
        22           O   tau(  22) = (   0.5012600   0.7973213   0.9536289  )
        23           O   tau(  23) = (   0.0012600   0.2719036   0.5470887  )
        24           O   tau(  24) = (   0.9987400   0.7789316   0.4533897  )
        25           O   tau(  25) = (   0.7031729   0.2607017   0.7484379  )
        26           O   tau(  26) = (   0.2968271   0.7901335   0.2520405  )
        27           O   tau(  27) = (   0.7968271   0.2647159   0.2481987  )
        28           O   tau(  28) = (   0.2031729   0.7861194   0.7522797  )
        29           O   tau(  29) = (   0.2968271   0.2607017   0.7522797  )
        30           O   tau(  30) = (   0.7031729   0.7901335   0.2481987  )
        31           O   tau(  31) = (   0.2031729   0.2647159   0.2520405  )
        32           O   tau(  32) = (   0.7968271   0.7861194   0.7484379  )

     number of k points=    64  gaussian smearing, width (Ry)=  0.0007
                       cart. coord. in units 2pi/alat
        k(    1) = (   0.0000000   0.0000000   0.0000000), wk =   0.0092593
        k(    2) = (   0.0000000   0.0000000   0.1665870), wk =   0.0185185
        k(    3) = (   0.0000000   0.0000000   0.3331739), wk =   0.0185185
        k(    4) = (   0.0000000   0.0000000  -0.4997609), wk =   0.0092593
        k(    5) = (   0.0000000   0.1586040   0.0000000), wk =   0.0185185
        k(    6) = (   0.0000000   0.1586040   0.1665870), wk =   0.0370370
        k(    7) = (   0.0000000   0.1586040   0.3331739), wk =   0.0370370
        k(    8) = (   0.0000000   0.1586040  -0.4997609), wk =   0.0185185
        k(    9) = (   0.0000000   0.3172080   0.0000000), wk =   0.0185185
        k(   10) = (   0.0000000   0.3172080   0.1665870), wk =   0.0370370
        k(   11) = (   0.0000000   0.3172080   0.3331739), wk =   0.0370370
        k(   12) = (   0.0000000   0.3172080  -0.4997609), wk =   0.0185185
        k(   13) = (   0.0000000  -0.4758120   0.0000000), wk =   0.0092593
        k(   14) = (   0.0000000  -0.4758120   0.1665870), wk =   0.0185185
        k(   15) = (   0.0000000  -0.4758120   0.3331739), wk =   0.0185185
        k(   16) = (   0.0000000  -0.4758120  -0.4997609), wk =   0.0092593
        k(   17) = (   0.1666667   0.0000000   0.0000000), wk =   0.0185185
        k(   18) = (   0.1666667   0.0000000   0.1665870), wk =   0.0370370
        k(   19) = (   0.1666667   0.0000000   0.3331739), wk =   0.0370370
        k(   20) = (   0.1666667   0.0000000  -0.4997609), wk =   0.0185185
        k(   21) = (   0.1666667   0.1586040   0.0000000), wk =   0.0370370
        k(   22) = (   0.1666667   0.1586040   0.1665870), wk =   0.0740741
        k(   23) = (   0.1666667   0.1586040   0.3331739), wk =   0.0740741
        k(   24) = (   0.1666667   0.1586040  -0.4997609), wk =   0.0370370
        k(   25) = (   0.1666667   0.3172080   0.0000000), wk =   0.0370370
        k(   26) = (   0.1666667   0.3172080   0.1665870), wk =   0.0740741
        k(   27) = (   0.1666667   0.3172080   0.3331739), wk =   0.0740741
        k(   28) = (   0.1666667   0.3172080  -0.4997609), wk =   0.0370370
        k(   29) = (   0.1666667  -0.4758120   0.0000000), wk =   0.0185185
        k(   30) = (   0.1666667  -0.4758120   0.1665870), wk =   0.0370370
        k(   31) = (   0.1666667  -0.4758120   0.3331739), wk =   0.0370370
        k(   32) = (   0.1666667  -0.4758120  -0.4997609), wk =   0.0185185
        k(   33) = (   0.3333333   0.0000000   0.0000000), wk =   0.0185185
        k(   34) = (   0.3333333   0.0000000   0.1665870), wk =   0.0370370
        k(   35) = (   0.3333333   0.0000000   0.3331739), wk =   0.0370370
        k(   36) = (   0.3333333   0.0000000  -0.4997609), wk =   0.0185185
        k(   37) = (   0.3333333   0.1586040   0.0000000), wk =   0.0370370
        k(   38) = (   0.3333333   0.1586040   0.1665870), wk =   0.0740741
        k(   39) = (   0.3333333   0.1586040   0.3331739), wk =   0.0740741
        k(   40) = (   0.3333333   0.1586040  -0.4997609), wk =   0.0370370
        k(   41) = (   0.3333333   0.3172080   0.0000000), wk =   0.0370370
        k(   42) = (   0.3333333   0.3172080   0.1665870), wk =   0.0740741
        k(   43) = (   0.3333333   0.3172080   0.3331739), wk =   0.0740741
        k(   44) = (   0.3333333   0.3172080  -0.4997609), wk =   0.0370370
        k(   45) = (   0.3333333  -0.4758120   0.0000000), wk =   0.0185185
        k(   46) = (   0.3333333  -0.4758120   0.1665870), wk =   0.0370370
        k(   47) = (   0.3333333  -0.4758120   0.3331739), wk =   0.0370370
        k(   48) = (   0.3333333  -0.4758120  -0.4997609), wk =   0.0185185
        k(   49) = (  -0.5000000   0.0000000   0.0000000), wk =   0.0092593
        k(   50) = (  -0.5000000   0.0000000   0.1665870), wk =   0.0185185
        k(   51) = (  -0.5000000   0.0000000   0.3331739), wk =   0.0185185
        k(   52) = (  -0.5000000   0.0000000  -0.4997609), wk =   0.0092593
        k(   53) = (  -0.5000000   0.1586040   0.0000000), wk =   0.0185185
        k(   54) = (  -0.5000000   0.1586040   0.1665870), wk =   0.0370370
        k(   55) = (  -0.5000000   0.1586040   0.3331739), wk =   0.0370370
        k(   56) = (  -0.5000000   0.1586040  -0.4997609), wk =   0.0185185
        k(   57) = (  -0.5000000   0.3172080   0.0000000), wk =   0.0185185
        k(   58) = (  -0.5000000   0.3172080   0.1665870), wk =   0.0370370
        k(   59) = (  -0.5000000   0.3172080   0.3331739), wk =   0.0370370
        k(   60) = (  -0.5000000   0.3172080  -0.4997609), wk =   0.0185185
        k(   61) = (  -0.5000000  -0.4758120   0.0000000), wk =   0.0092593
        k(   62) = (  -0.5000000  -0.4758120   0.1665870), wk =   0.0185185
        k(   63) = (  -0.5000000  -0.4758120   0.3331739), wk =   0.0185185
        k(   64) = (  -0.5000000  -0.4758120  -0.4997609), wk =   0.0092593

     Dense  grid:   500013 G-vectors     FFT dimensions: ( 100, 108, 100)

     Estimated max dynamical RAM per process >       3.14 GB

     Estimated total dynamical RAM >     125.51 GB

     Initial potential from superposition of free atoms

     starting charge  367.99656, renormalised to  368.20000
     Starting wfc are  232 randomized atomic wfcs

     total cpu time spent up to now is       34.6 secs

     Self-consistent Calculation

     iteration #  1     ecut=   120.00 Ry     beta= 0.70
     Davidson diagonalization with overlap
     ethr =  1.00E-02,  avg # of iterations =  5.1

     total cpu time spent up to now is      149.9 secs

     total energy              =   -6253.80202548 Ry
     Harris-Foulkes estimate   =   -6264.48812510 Ry
     estimated scf accuracy    <      13.50757419 Ry

     iteration #  2     ecut=   120.00 Ry     beta= 0.70
     Davidson diagonalization with overlap
     ethr =  3.67E-03,  avg # of iterations =  3.5

     total cpu time spent up to now is      260.2 secs

     total energy              =   -6250.66435989 Ry
     Harris-Foulkes estimate   =   -6270.65881894 Ry
     estimated scf accuracy    <      53.59126006 Ry

     iteration #  3     ecut=   120.00 Ry     beta= 0.70
     Davidson diagonalization with overlap
     ethr =  3.67E-03,  avg # of iterations =  3.4

     total cpu time spent up to now is      363.0 secs

     total energy              =   -6260.95626112 Ry
     Harris-Foulkes estimate   =   -6261.23711214 Ry
     estimated scf accuracy    <       0.92864731 Ry

     iteration #  4     ecut=   120.00 Ry     beta= 0.70
     Davidson diagonalization with overlap
     ethr =  2.52E-04,  avg # of iterations =  3.0

     total cpu time spent up to now is      451.5 secs

     total energy              =   -6260.95440157 Ry
     Harris-Foulkes estimate   =   -6261.02600065 Ry
     estimated scf accuracy    <       0.22596663 Ry

     iteration #  5     ecut=   120.00 Ry     beta= 0.70
     Davidson diagonalization with overlap
     ethr =  6.14E-05,  avg # of iterations =  4.6

     total cpu time spent up to now is      544.3 secs

     total energy              =   -6260.95670923 Ry
     Harris-Foulkes estimate   =   -6260.98739088 Ry
     estimated scf accuracy    <       0.06867235 Ry

     iteration #  6     ecut=   120.00 Ry     beta= 0.70
     Davidson diagonalization with overlap
     ethr =  1.87E-05,  avg # of iterations =  5.5

     total cpu time spent up to now is      644.2 secs

     total energy              =   -6260.97146382 Ry
     Harris-Foulkes estimate   =   -6260.97400101 Ry
     estimated scf accuracy    <       0.00665864 Ry

     iteration #  7     ecut=   120.00 Ry     beta= 0.70
     Davidson diagonalization with overlap
     ethr =  1.81E-06,  avg # of iterations =  6.3

     total cpu time spent up to now is      744.7 secs

     total energy              =   -6260.97236155 Ry
     Harris-Foulkes estimate   =   -6260.97243323 Ry
     estimated scf accuracy    <       0.00013159 Ry

     iteration #  8     ecut=   120.00 Ry     beta= 0.70
     Davidson diagonalization with overlap
     ethr =  3.57E-08,  avg # of iterations =  3.2

     total cpu time spent up to now is      857.4 secs

     total energy              =   -6260.97242071 Ry
     Harris-Foulkes estimate   =   -6260.97242814 Ry
     estimated scf accuracy    <       0.00003696 Ry

     iteration #  9     ecut=   120.00 Ry     beta= 0.70
     Davidson diagonalization with overlap
     ethr =  1.00E-08,  avg # of iterations =  1.9

     total cpu time spent up to now is      939.6 secs

     total energy              =   -6260.97241709 Ry
     Harris-Foulkes estimate   =   -6260.97242286 Ry
     estimated scf accuracy    <       0.00001846 Ry

     iteration # 10     ecut=   120.00 Ry     beta= 0.70
     Davidson diagonalization with overlap
     ethr =  5.01E-09,  avg # of iterations =  2.0

     total cpu time spent up to now is     1023.4 secs

     total energy              =   -6260.97241817 Ry
     Harris-Foulkes estimate   =   -6260.97241917 Ry
     estimated scf accuracy    <       0.00000234 Ry

     iteration # 11     ecut=   120.00 Ry     beta= 0.70
     Davidson diagonalization with overlap
     ethr =  6.35E-10,  avg # of iterations =  3.1

     total cpu time spent up to now is     1118.4 secs

     total energy              =   -6260.97241873 Ry
     Harris-Foulkes estimate   =   -6260.97241880 Ry
     estimated scf accuracy    <       0.00000020 Ry

     iteration # 12     ecut=   120.00 Ry     beta= 0.70
     Davidson diagonalization with overlap
     ethr =  5.35E-11,  avg # of iterations =  2.0

     total cpu time spent up to now is     1207.5 secs

     total energy              =   -6260.97241871 Ry
     Harris-Foulkes estimate   =   -6260.97241875 Ry
     estimated scf accuracy    <       0.00000006 Ry

     iteration # 13     ecut=   120.00 Ry     beta= 0.70
     Davidson diagonalization with overlap
     ethr =  1.52E-11,  avg # of iterations =  2.7

     total cpu time spent up to now is     1309.3 secs

     End of self-consistent calculation

          k = 0.0000 0.0000 0.0000 ( 62423 PWs)   bands (ev):

   -66.1908 -66.1904 -66.1899 -66.1898 -66.1894 -66.1894 -66.1889 -66.1885
   -30.5968 -30.5930 -30.5927 -30.5891 -30.5427 -30.5368 -30.5360 -30.5341
   -30.5334 -30.5300 -30.5287 -30.5278 -30.5256 -30.5246 -30.5215 -30.5195
   -30.4358 -30.4348 -30.4332 -30.4320 -30.4317 -30.4309 -30.4286 -30.4272
   -20.3483 -20.3482 -20.3482 -20.3482 -20.3482 -20.3481 -20.3481 -20.3480
   -20.3363 -20.3360 -20.3360 -20.3357 -20.3308 -20.3305 -20.3304 -20.3301
   -20.3280 -20.3276 -20.3275 -20.3272 -20.3270 -20.3270 -20.3267 -20.3264
   -20.3263 -20.3259 -20.3259 -20.3257 -20.3254 -20.3250 -20.3250 -20.3246
   -20.3184 -20.3182 -20.3180 -20.3178 -20.3167 -20.3165 -20.3163 -20.3161
   -20.3118 -20.3118 -20.3106 -20.3106 -20.3104 -20.3103 -20.3091 -20.3091
   -20.3046 -20.3044 -20.3040 -20.3039 -20.3034 -20.3033 -20.3027 -20.3027
    -9.9890  -9.7026  -9.5650  -9.5650  -9.2898  -9.2862  -9.1481  -9.0864
    -9.0724  -8.9428  -8.9164  -8.9158  -7.9010  -7.8399  -7.8368  -7.8115
    -7.8074  -7.7858  -7.7830  -7.7829  -7.6760  -7.6739  -7.6522  -7.6514
     1.1410   1.1423   1.2191   1.2234   1.2423   1.2504   1.2971   1.5405
     1.5512   1.5567   1.5696   1.7871   2.3750   2.4546   2.5265   2.5304
     2.6680   2.6744   4.1172   4.1271   4.3270   4.3441   4.7507   4.7618
     4.7697   4.7745   4.7946   4.7969   4.9566   4.9577   5.0487   5.4083
     5.4206   5.4329   5.4559   5.4972   5.4981   5.5352   5.5557   5.7883
     5.8022   5.8052   5.8068   5.8612   5.9218   6.0260   6.0310   6.0668
     6.0696   6.2260   6.2335   6.4896   6.4922   6.7703   6.7851   6.8094
     6.8148   6.8184   6.9699   6.9826   7.0337   7.0415   7.3056   7.3164
     7.3376   7.3475   7.8087   7.8230   8.0233   8.0401   8.0931   8.1100
     9.2156   9.2186   9.8818   9.8873   9.9052   9.9120  12.2227  12.2477
    12.2588  12.3013  12.3065  12.3252  12.4711  12.4814  12.8450  12.9075
    13.1526  13.1914  13.2983  13.3128  13.7506  14.0154  14.0968  14.1046
    14.1556  14.3226  14.4025  14.8360  15.3154  15.3282  15.4591  15.9836
    15.9947  16.7986  17.0102  17.0239  17.3580

          k = 0.0000 0.0000 0.1666 ( 62509 PWs)   bands (ev):

   -66.1907 -66.1903 -66.1899 -66.1898 -66.1895 -66.1894 -66.1890 -66.1885
   -30.5967 -30.5933 -30.5926 -30.5894 -30.5418 -30.5371 -30.5350 -30.5327
   -30.5293 -30.5290 -30.5281 -30.5238 -30.5207 -30.5199 -30.5190 -30.5184
   -30.4424 -30.4398 -30.4382 -30.4356 -30.4345 -30.4314 -30.4307 -30.4276
   -20.3483 -20.3482 -20.3482 -20.3482 -20.3481 -20.3481 -20.3481 -20.3480
   -20.3363 -20.3361 -20.3360 -20.3357 -20.3308 -20.3305 -20.3304 -20.3301
   -20.3280 -20.3276 -20.3275 -20.3271 -20.3270 -20.3269 -20.3265 -20.3264
   -20.3262 -20.3260 -20.3258 -20.3256 -20.3254 -20.3251 -20.3251 -20.3247
   -20.3184 -20.3182 -20.3180 -20.3178 -20.3167 -20.3165 -20.3164 -20.3162
   -20.3113 -20.3113 -20.3104 -20.3103 -20.3101 -20.3100 -20.3092 -20.3092
   -20.3051 -20.3049 -20.3039 -20.3039 -20.3038 -20.3038 -20.3028 -20.3028
    -9.9431  -9.6491  -9.5809  -9.5049  -9.2995  -9.2002  -9.1565  -9.0481
    -9.0311  -8.9302  -8.9199  -8.8850  -7.9334  -7.9236  -7.8945  -7.8436
    -7.8316  -7.8069  -7.7969  -7.7891  -7.7829  -7.7735  -7.6825  -7.6599
     1.2175   1.2251   1.2329   1.2558   1.3668   1.3955   1.5027   1.5337
     1.5511   1.6368   1.7421   1.9080   2.4616   2.5348   2.5453   2.6176
     2.6596   2.7614   4.0577   4.1188   4.3215   4.3300   4.3494   4.4193
     4.5877   4.7165   4.7430   4.8377   4.8444   4.9504   5.0339   5.2520
     5.2693   5.3955   5.4319   5.4932   5.5304   5.5631   5.5697   5.5770
     5.6797   5.7364   5.7911   5.8504   5.9334   6.0444   6.0690   6.0964
     6.2360   6.3830   6.4550   6.4815   6.6354   6.6707   6.7503   6.7751
     6.7950   6.8107   6.9248   6.9512   6.9794   7.0493   7.0863   7.0886
     7.1385   7.1927   7.8136   7.8179   7.9982   8.0429   8.0653   8.0945
     9.5637   9.5822   9.8875   9.9029  10.1530  10.1953  12.1499  12.2046
    12.2593  12.3084  12.3097  12.3607  12.4836  12.5631  12.8742  12.8970
    12.9705  13.1893  13.2200  13.2996  13.8544  13.9544  13.9759  14.0137
    14.1704  14.3975  14.4534  14.9462  15.3559  15.3893  15.4253  15.9668
    16.3045  16.7540  16.9704  17.1990  17.4912

          k = 0.0000 0.0000 0.3332 ( 62480 PWs)   bands (ev):

   -66.1906 -66.1901 -66.1901 -66.1897 -66.1896 -66.1892 -66.1891 -66.1887
   -30.5961 -30.5942 -30.5922 -30.5903 -30.5405 -30.5380 -30.5330 -30.5317
   -30.5300 -30.5291 -30.5243 -30.5208 -30.5071 -30.5061 -30.5028 -30.5012
   -30.4601 -30.4576 -30.4557 -30.4531 -30.4337 -30.4315 -30.4306 -30.4285
   -20.3483 -20.3482 -20.3482 -20.3482 -20.3481 -20.3481 -20.3481 -20.3481
   -20.3363 -20.3361 -20.3360 -20.3358 -20.3308 -20.3306 -20.3304 -20.3302
   -20.3279 -20.3277 -20.3274 -20.3271 -20.3270 -20.3268 -20.3266 -20.3262
   -20.3261 -20.3259 -20.3256 -20.3255 -20.3254 -20.3252 -20.3252 -20.3248
   -20.3183 -20.3181 -20.3181 -20.3179 -20.3167 -20.3165 -20.3165 -20.3163
   -20.3102 -20.3101 -20.3100 -20.3099 -20.3095 -20.3094 -20.3088 -20.3088
   -20.3064 -20.3063 -20.3053 -20.3052 -20.3037 -20.3036 -20.3031 -20.3030
    -9.8323  -9.6298  -9.5265  -9.3665  -9.3400  -9.1849  -8.9771  -8.9448
    -8.9312  -8.8840  -8.8373  -8.7626  -8.2354  -8.2342  -8.1451  -8.1293
    -7.8780  -7.8535  -7.8216  -7.7980  -7.7723  -7.7492  -7.7063  -7.6834
     1.2297   1.2381   1.2700   1.2895   1.4852   1.4917   1.5189   1.5400
     2.2015   2.2409   2.3905   2.4702   2.5594   2.6470   2.7119   2.8085
     2.8568   2.9946   3.7116   3.8009   3.8092   3.9304   4.1020   4.2281
     4.2820   4.4666   4.4999   4.7110   4.7330   4.7534   4.8943   4.9773
     5.1021   5.1058   5.1344   5.3060   5.3820   5.4288   5.6085   5.6242
     5.6919   5.7116   5.7652   5.9090   5.9612   6.1107   6.2160   6.2469
     6.2590   6.3456   6.4451   6.5014   6.5092   6.5328   6.5661   6.7152
     6.7907   6.8098   6.8151   6.9390   6.9943   7.0034   7.0441   7.0831
     7.2567   7.2987   7.7303   7.7510   7.8692   7.9228   8.0781   8.0962
     9.8758   9.8962  10.2858  10.3527  10.7791  10.8708  11.7692  11.8153
    12.0489  12.4079  12.4472  12.4605  12.5041  12.5521  12.6592  12.8177
    12.8684  13.0610  13.1059  13.3116  13.6192  13.6450  13.9803  14.0093
    14.2616  14.3812  14.7853  15.2301  15.3159  15.5224  15.8084  15.8809
    16.2128  17.1718  17.3267  17.5162  17.6300

          k = 0.0000 0.0000-0.4998 ( 62488 PWs)   bands (ev):

   -66.1903 -66.1903 -66.1899 -66.1899 -66.1894 -66.1894 -66.1889 -66.1889
   -30.5952 -30.5952 -30.5913 -30.5913 -30.5392 -30.5392 -30.5313 -30.5313
   -30.5304 -30.5304 -30.5223 -30.5223 -30.4840 -30.4840 -30.4819 -30.4819
   -30.4795 -30.4795 -30.4772 -30.4772 -30.4326 -30.4326 -30.4296 -30.4296
   -20.3482 -20.3482 -20.3482 -20.3482 -20.3481 -20.3481 -20.3481 -20.3481
   -20.3362 -20.3362 -20.3359 -20.3359 -20.3307 -20.3307 -20.3303 -20.3303
   -20.3278 -20.3278 -20.3273 -20.3273 -20.3268 -20.3268 -20.3265 -20.3265
   -20.3258 -20.3258 -20.3255 -20.3255 -20.3254 -20.3254 -20.3251 -20.3251
   -20.3183 -20.3183 -20.3181 -20.3181 -20.3166 -20.3166 -20.3164 -20.3164
   -20.3098 -20.3098 -20.3098 -20.3098 -20.3082 -20.3082 -20.3081 -20.3081
   -20.3070 -20.3070 -20.3070 -20.3070 -20.3034 -20.3034 -20.3033 -20.3033
    -9.7153  -9.7153  -9.4132  -9.4131  -9.2476  -9.2476  -8.9482  -8.9482
    -8.6012  -8.6012  -8.5793  -8.5792  -8.5655  -8.5655  -8.4958  -8.4958
    -7.8667  -7.8667  -7.8100  -7.8100  -7.7390  -7.7390  -7.7160  -7.7160
     1.2354   1.2354   1.2864   1.2864   1.5035   1.5035   1.5268   1.5268
     2.5903   2.5903   2.9452   2.9452   3.0851   3.0852   3.0917   3.0917
     3.2337   3.2337   3.2821   3.2821   3.4101   3.4102   3.7201   3.7201
     3.8186   3.8187   4.4030   4.4030   4.6649   4.6649   4.8785   4.8785
     5.1848   5.1848   5.2631   5.2631   5.2728   5.2729   5.6542   5.6542
     5.7087   5.7087   5.8994   5.8994   6.0955   6.0955   6.1964   6.1964
     6.2618   6.2618   6.3779   6.3779   6.4363   6.4364   6.4941   6.4941
     6.7507   6.7507   6.8037   6.8037   7.0260   7.0260   7.4495   7.4495
     7.5103   7.5103   7.6344   7.6344   7.6654   7.6654   8.0936   8.0936
     9.8867   9.8867  11.0838  11.0838  11.1497  11.1497  11.4938  11.4938
    11.6722  11.6722  12.5215  12.5215  12.6624  12.6624  12.7590  12.7590
    12.8671  12.8671  13.2044  13.2044  13.3792  13.3792  14.0030  14.0030
    14.3453  14.3453  15.1076  15.1076  15.6652  15.6652  15.7303  15.7303
    16.5877  16.5877  17.7975  17.7976  18.0392

          k = 0.0000 0.1586 0.0000 ( 62475 PWs)   bands (ev):

   -66.1908 -66.1904 -66.1898 -66.1898 -66.1895 -66.1894 -66.1889 -66.1885
   -30.5928 -30.5890 -30.5887 -30.5851 -30.5451 -30.5397 -30.5386 -30.5340
   -30.5332 -30.5328 -30.5301 -30.5275 -30.5258 -30.5257 -30.5233 -30.5209
   -30.4357 -30.4346 -30.4334 -30.4319 -30.4318 -30.4308 -30.4287 -30.4274
   -20.3483 -20.3483 -20.3482 -20.3482 -20.3482 -20.3481 -20.3481 -20.3480
   -20.3360 -20.3357 -20.3356 -20.3353 -20.3312 -20.3309 -20.3308 -20.3305
   -20.3279 -20.3275 -20.3274 -20.3271 -20.3270 -20.3269 -20.3268 -20.3264
   -20.3263 -20.3259 -20.3258 -20.3257 -20.3254 -20.3251 -20.3251 -20.3247
   -20.3184 -20.3182 -20.3180 -20.3178 -20.3167 -20.3165 -20.3163 -20.3162
   -20.3118 -20.3118 -20.3106 -20.3106 -20.3104 -20.3103 -20.3091 -20.3091
   -20.3046 -20.3044 -20.3040 -20.3039 -20.3034 -20.3034 -20.3027 -20.3027
    -9.9593  -9.7139  -9.5280  -9.5276  -9.2971  -9.2937  -9.0854  -9.0734
    -9.0729  -8.8957  -8.8771  -8.8766  -7.9964  -7.9420  -7.9394  -7.8954
    -7.8097  -7.8083  -7.7850  -7.7849  -7.6745  -7.6731  -7.6541  -7.6530
     1.1410   1.1422   1.2312   1.2371   1.2424   1.2504   1.4251   1.5689
     1.7289   1.7836   1.7883   1.9584   2.3802   2.4491   2.5989   2.6033
     2.7367   2.7440   3.9798   3.9915   4.0595   4.0735   4.7224   4.7602
     4.7731   4.7856   4.7929   4.8359   4.9004   4.9119   4.9132   5.2340
     5.2418   5.3970   5.3986   5.5608   5.5732   5.5787   5.6115   5.6328
     5.7390   5.7448   5.8640   5.8715   5.9012   6.0236   6.0250   6.0730
     6.0762   6.2134   6.2275   6.5113   6.5179   6.7865   6.7958   6.8066
     6.8256   6.8462   6.8490   6.9509   6.9545   6.9637   7.3131   7.3223
     7.3387   7.3469   7.8128   7.8223   7.9853   7.9991   8.0175   8.0297
     9.2170   9.2188  10.0884  10.0890  10.0903  10.0920  12.1261  12.1446
    12.2664  12.2746  12.3064  12.3113  12.3175  12.3204  12.8545  12.9078
    13.1866  13.2206  13.3043  13.3170  13.9282  13.9689  13.9962  14.0101
    14.2083  14.5980  14.6294  15.0023  15.3156  15.3263  15.8647  15.9516
    15.9613  16.4962  17.1483  17.1619  17.4749

          k = 0.0000 0.1586 0.1666 ( 62496 PWs)   bands (ev):

   -66.1907 -66.1903 -66.1899 -66.1897 -66.1895 -66.1894 -66.1889 -66.1886
   -30.5927 -30.5893 -30.5886 -30.5854 -30.5445 -30.5400 -30.5381 -30.5331
   -30.5325 -30.5295 -30.5279 -30.5240 -30.5219 -30.5212 -30.5193 -30.5192
   -30.4422 -30.4399 -30.4381 -30.4358 -30.4343 -30.4316 -30.4305 -30.4278
   -20.3483 -20.3482 -20.3482 -20.3482 -20.3481 -20.3481 -20.3481 -20.3480
   -20.3360 -20.3357 -20.3356 -20.3354 -20.3312 -20.3309 -20.3308 -20.3305
   -20.3279 -20.3275 -20.3274 -20.3271 -20.3270 -20.3269 -20.3266 -20.3264
   -20.3262 -20.3259 -20.3259 -20.3256 -20.3254 -20.3252 -20.3251 -20.3247
   -20.3184 -20.3182 -20.3180 -20.3179 -20.3167 -20.3166 -20.3164 -20.3162
   -20.3113 -20.3113 -20.3104 -20.3103 -20.3101 -20.3100 -20.3092 -20.3092
   -20.3051 -20.3049 -20.3039 -20.3039 -20.3038 -20.3038 -20.3028 -20.3028
    -9.9122  -9.6604  -9.5436  -9.4631  -9.3071  -9.2076  -9.0813  -9.0463
    -9.0321  -8.8852  -8.8807  -8.8503  -7.9975  -7.9581  -7.9396  -7.9317
    -7.9033  -7.8977  -7.8054  -7.7975  -7.7825  -7.7753  -7.6818  -7.6616
     1.2283   1.2329   1.2410   1.2558   1.4616   1.5026   1.5262   1.7359
     1.7413   1.7835   1.8091   2.0213   2.4677   2.5387   2.6076   2.6923
     2.7289   2.8307   3.9573   3.9964   4.0618   4.0972   4.3509   4.4166
     4.6315   4.6569   4.7057   4.8303   4.8361   4.8916   4.9234   5.1803
     5.1950   5.2599   5.2728   5.4131   5.5081   5.5374   5.5877   5.6718
     5.6723   5.7198   5.8041   5.8076   5.8393   6.0646   6.0671   6.1140
     6.1691   6.3648   6.4299   6.5057   6.6681   6.7407   6.7549   6.7813
     6.7847   6.8482   6.9076   6.9221   6.9622   6.9630   7.0877   7.0887
     7.1539   7.1928   7.8157   7.8178   7.9590   7.9903   7.9905   8.0194
     9.5689   9.5850  10.0884  10.0937  10.3219  10.3420  12.1138  12.1898
    12.1928  12.2143  12.3102  12.3219  12.3249  12.4406  12.8840  12.9072
    12.9986  13.2144  13.2213  13.3033  13.8510  13.8806  13.9504  13.9675
    14.3055  14.6231  14.7544  15.0986  15.3551  15.3901  15.8313  15.9339
    16.2703  16.6533  16.8825  17.3163  17.5406

          k = 0.0000 0.1586 0.3332 ( 62523 PWs)   bands (ev):

   -66.1905 -66.1902 -66.1901 -66.1897 -66.1896 -66.1892 -66.1891 -66.1887
   -30.5921 -30.5902 -30.5882 -30.5862 -30.5434 -30.5409 -30.5368 -30.5340
   -30.5314 -30.5288 -30.5254 -30.5222 -30.5074 -30.5063 -30.5029 -30.5014
   -30.4600 -30.4578 -30.4556 -30.4533 -30.4335 -30.4313 -30.4309 -30.4287
   -20.3483 -20.3482 -20.3482 -20.3482 -20.3481 -20.3481 -20.3481 -20.3481
   -20.3359 -20.3358 -20.3356 -20.3354 -20.3312 -20.3310 -20.3308 -20.3306
   -20.3278 -20.3276 -20.3274 -20.3271 -20.3269 -20.3267 -20.3265 -20.3262
   -20.3262 -20.3259 -20.3257 -20.3255 -20.3254 -20.3253 -20.3253 -20.3249
   -20.3183 -20.3182 -20.3181 -20.3180 -20.3167 -20.3165 -20.3165 -20.3163
   -20.3102 -20.3101 -20.3100 -20.3099 -20.3095 -20.3094 -20.3088 -20.3088
   -20.3064 -20.3063 -20.3053 -20.3052 -20.3037 -20.3036 -20.3031 -20.3030
    -9.7986  -9.5929  -9.5374  -9.3483  -9.3102  -9.1104  -8.9554  -8.9527
    -8.8922  -8.8857  -8.8150  -8.7424  -8.2407  -8.2333  -8.1603  -8.1272
    -7.9707  -7.9501  -7.9234  -7.8977  -7.7721  -7.7509  -7.7056  -7.6851
     1.2515   1.2688   1.2700   1.2894   1.6750   1.6941   1.7674   1.7807
     2.2002   2.2525   2.3918   2.4886   2.6308   2.7100   2.7214   2.8060
     2.9329   3.0576   3.7120   3.8031   3.8036   3.8784   4.0746   4.0947
     4.1622   4.2979   4.5180   4.6532   4.7189   4.7223   4.7682   4.8380
     4.9607   5.0836   5.0993   5.1099   5.3221   5.3455   5.4446   5.5820
     5.6471   5.7107   5.7575   5.8168   5.9013   6.0887   6.1468   6.2146
     6.2892   6.4687   6.5076   6.5123   6.5602   6.6235   6.6709   6.7430
     6.7805   6.7905   6.8755   6.9112   6.9520   6.9809   7.0382   7.0717
     7.2517   7.2935   7.7345   7.7492   7.8355   7.8653   8.0100   8.0218
    10.0768  10.0886  10.2946  10.3573  10.8950  10.9646  11.7705  11.8132
    12.0196  12.3333  12.4122  12.4493  12.4513  12.4915  12.5989  12.7047
    12.8681  13.0638  13.1169  13.3056  13.5153  13.5550  13.9609  13.9648
    14.4929  14.6081  15.1336  15.3596  15.5120  15.7223  15.8313  15.8502
    16.3417  17.1170  17.1328  17.3819  17.7676

          k = 0.0000 0.1586-0.4998 ( 62450 PWs)   bands (ev):

   -66.1903 -66.1903 -66.1899 -66.1899 -66.1893 -66.1893 -66.1890 -66.1890
   -30.5912 -30.5912 -30.5873 -30.5873 -30.5421 -30.5421 -30.5353 -30.5353
   -30.5301 -30.5301 -30.5236 -30.5236 -30.4840 -30.4839 -30.4820 -30.4820
   -30.4794 -30.4794 -30.4774 -30.4774 -30.4324 -30.4324 -30.4298 -30.4298
   -20.3482 -20.3482 -20.3482 -20.3482 -20.3481 -20.3481 -20.3481 -20.3481
   -20.3359 -20.3359 -20.3355 -20.3355 -20.3311 -20.3311 -20.3307 -20.3307
   -20.3277 -20.3277 -20.3273 -20.3272 -20.3267 -20.3267 -20.3265 -20.3265
   -20.3258 -20.3258 -20.3256 -20.3256 -20.3255 -20.3255 -20.3252 -20.3252
   -20.3182 -20.3182 -20.3181 -20.3181 -20.3166 -20.3166 -20.3164 -20.3164
   -20.3098 -20.3098 -20.3098 -20.3098 -20.3082 -20.3082 -20.3081 -20.3081
   -20.3070 -20.3070 -20.3070 -20.3070 -20.3034 -20.3034 -20.3033 -20.3033
    -9.6793  -9.6793  -9.4227  -9.4227  -9.1774  -9.1773  -8.9114  -8.9114
    -8.6049  -8.6049  -8.5744  -8.5744  -8.5742  -8.5742  -8.4895  -8.4895
    -7.9628  -7.9628  -7.9123  -7.9123  -7.7386  -7.7386  -7.7177  -7.7177
     1.2642   1.2642   1.2863   1.2863   1.6983   1.6983   1.7807   1.7807
     2.6590   2.6590   2.9621   2.9621   3.0778   3.0778   3.1340   3.1340
     3.2431   3.2431   3.2786   3.2787   3.4002   3.4003   3.7280   3.7280
     3.8686   3.8687   4.1999   4.1999   4.5777   4.5777   4.7087   4.7087
     5.0111   5.0111   5.2331   5.2331   5.2578   5.2578   5.4442   5.4442
     5.6609   5.6609   5.7904   5.7904   6.0987   6.0987   6.2589   6.2589
     6.2850   6.2850   6.4030   6.4030   6.4807   6.4807   6.6251   6.6251
     6.8150   6.8150   6.8174   6.8174   6.9363   6.9363   7.4607   7.4607
     7.5048   7.5049   7.6105   7.6105   7.6360   7.6360   8.0206   8.0206
    10.0873  10.0873  11.0894  11.0894  11.1479  11.1479  11.5616  11.5616
    11.7341  11.7341  12.3810  12.3810  12.6411  12.6411  12.7673  12.7673
    12.8092  12.8092  13.1014  13.1014  13.3426  13.3426  13.9616  13.9616
    14.5761  14.5761  15.4823  15.4823  15.7064  15.7064  15.8084  15.8084
    16.6325  16.6325  17.5954  17.5954  18.1062

          k = 0.0000 0.3172 0.0000 ( 62493 PWs)   bands (ev):

   -66.1907 -66.1905 -66.1897 -66.1897 -66.1895 -66.1895 -66.1888 -66.1886
   -30.5819 -30.5781 -30.5777 -30.5741 -30.5536 -30.5491 -30.5481 -30.5439
   -30.5338 -30.5331 -30.5299 -30.5270 -30.5267 -30.5265 -30.5262 -30.5234
   -30.4352 -30.4340 -30.4339 -30.4325 -30.4314 -30.4307 -30.4288 -30.4279
   -20.3483 -20.3483 -20.3482 -20.3482 -20.3481 -20.3481 -20.3481 -20.3480
   -20.3350 -20.3347 -20.3346 -20.3343 -20.3322 -20.3319 -20.3318 -20.3315
   -20.3277 -20.3273 -20.3273 -20.3270 -20.3269 -20.3269 -20.3268 -20.3266
   -20.3261 -20.3261 -20.3259 -20.3258 -20.3254 -20.3252 -20.3252 -20.3248
   -20.3184 -20.3182 -20.3179 -20.3179 -20.3167 -20.3166 -20.3163 -20.3162
   -20.3118 -20.3118 -20.3106 -20.3106 -20.3104 -20.3104 -20.3091 -20.3091
   -20.3045 -20.3045 -20.3039 -20.3039 -20.3034 -20.3034 -20.3027 -20.3027
    -9.8874  -9.7490  -9.4447  -9.4434  -9.3212  -9.3181  -9.0829  -9.0759
    -8.8603  -8.7489  -8.7438  -8.7432  -8.2440  -8.1998  -8.1978  -8.1735
    -7.8049  -7.8047  -7.7901  -7.7900  -7.6703  -7.6693  -7.6586  -7.6575
     1.1412   1.1418   1.2396   1.2424   1.2466   1.2502   1.5323   1.5663
     2.3060   2.3945   2.4341   2.4449   2.4519   2.6089   2.8114   2.8213
     2.9370   2.9502   3.5869   3.6014   3.6300   3.6450   4.1011   4.4131
     4.4242   4.6880   4.7636   4.7797   4.7903   4.8062   4.9778   4.9864
     5.0074   5.0165   5.3063   5.3125   5.5356   5.5371   5.6271   5.6339
     5.8276   5.8303   5.8639   5.8702   6.0051   6.0114   6.0163   6.0945
     6.0984   6.1718   6.1938   6.4750   6.5747   6.5814   6.8007   6.8065
     6.8591   6.9376   7.0547   7.0551   7.0620   7.0648   7.3239   7.3267
     7.3449   7.3476   7.7804   7.7888   7.8150   7.8222   7.8245   7.8259
     9.2185   9.2190  10.5611  10.5705  10.6100  10.6141  11.7430  11.7637
    11.8725  11.8809  12.2834  12.2965  12.3037  12.3136  12.8756  12.9051
    13.2975  13.3189  13.3687  13.3806  13.7538  13.7560  13.7670  13.7850
    14.7715  15.1632  15.1705  15.3165  15.3224  15.6060  15.8419  15.8485
    15.9374  16.8696  17.2019  17.6215  17.6335

          k = 0.0000 0.3172 0.1666 ( 62482 PWs)   bands (ev):

   -66.1906 -66.1904 -66.1898 -66.1897 -66.1896 -66.1895 -66.1889 -66.1886
   -30.5818 -30.5784 -30.5776 -30.5744 -30.5533 -30.5494 -30.5481 -30.5442
   -30.5317 -30.5299 -30.5270 -30.5244 -30.5239 -30.5236 -30.5202 -30.5196
   -30.4418 -30.4404 -30.4376 -30.4362 -30.4338 -30.4322 -30.4299 -30.4284
   -20.3483 -20.3483 -20.3482 -20.3482 -20.3482 -20.3481 -20.3481 -20.3480
   -20.3350 -20.3347 -20.3346 -20.3344 -20.3322 -20.3319 -20.3318 -20.3315
   -20.3277 -20.3274 -20.3273 -20.3270 -20.3269 -20.3269 -20.3266 -20.3264
   -20.3262 -20.3260 -20.3259 -20.3258 -20.3254 -20.3253 -20.3252 -20.3249
   -20.3183 -20.3182 -20.3180 -20.3179 -20.3167 -20.3166 -20.3163 -20.3162
   -20.3113 -20.3113 -20.3103 -20.3103 -20.3100 -20.3100 -20.3092 -20.3092
   -20.3050 -20.3050 -20.3039 -20.3039 -20.3039 -20.3038 -20.3028 -20.3028
    -9.8375  -9.6957  -9.4593  -9.3685  -9.3322  -9.2324  -9.0427  -9.0348
    -8.8685  -8.7481  -8.7425  -8.7279  -8.2444  -8.2075  -8.1948  -8.1797
    -7.9271  -7.9134  -7.8014  -7.7954  -7.7866  -7.7799  -7.6780  -7.6661
     1.2321   1.2329   1.2516   1.2556   1.4937   1.5021   1.6932   1.7382
     2.3085   2.4279   2.4497   2.4830   2.5234   2.6018   2.8191   2.9203
     2.9299   3.0425   3.6029   3.6290   3.6357   3.6751   4.0919   4.3681
     4.3729   4.4303   4.4557   4.6921   4.7035   4.8007   4.8368   4.8502
     4.9789   5.0253   5.1015   5.2412   5.3473   5.3933   5.5407   5.5820
     5.6294   5.7166   5.7481   5.8109   6.0010   6.0636   6.0818   6.0887
     6.1975   6.3818   6.3870   6.5372   6.5664   6.7867   6.8163   6.8758
     6.9154   6.9335   7.0223   7.0416   7.0468   7.0523   7.0890   7.1090
     7.1925   7.2047   7.7655   7.7826   7.7878   7.8006   7.8239   7.8305
     9.5771   9.5854  10.5750  10.6145  10.7425  10.7801  11.7617  11.8370
    11.8817  11.9508  12.1866  12.2013  12.3461  12.3701  12.9048  12.9250
    13.1115  13.2666  13.3009  13.3649  13.6042  13.6571  13.7539  13.7642
    14.8990  15.1612  15.3507  15.3850  15.3982  15.6746  15.8232  16.0991
    16.1526  16.8331  17.2697  17.2969  17.6703

          k = 0.0000 0.3172 0.3332 ( 62457 PWs)   bands (ev):

   -66.1905 -66.1903 -66.1900 -66.1898 -66.1895 -66.1893 -66.1890 -66.1888
   -30.5813 -30.5793 -30.5772 -30.5752 -30.5526 -30.5503 -30.5474 -30.5451
   -30.5306 -30.5280 -30.5275 -30.5247 -30.5075 -30.5067 -30.5029 -30.5019
   -30.4595 -30.4583 -30.4551 -30.4538 -30.4330 -30.4314 -30.4308 -30.4293
   -20.3483 -20.3482 -20.3482 -20.3482 -20.3482 -20.3481 -20.3481 -20.3481
   -20.3349 -20.3348 -20.3346 -20.3344 -20.3322 -20.3320 -20.3318 -20.3316
   -20.3276 -20.3275 -20.3273 -20.3271 -20.3268 -20.3267 -20.3264 -20.3262
   -20.3261 -20.3261 -20.3258 -20.3256 -20.3255 -20.3254 -20.3254 -20.3251
   -20.3183 -20.3182 -20.3181 -20.3180 -20.3167 -20.3166 -20.3164 -20.3163
   -20.3102 -20.3101 -20.3100 -20.3099 -20.3095 -20.3094 -20.3088 -20.3088
   -20.3064 -20.3063 -20.3052 -20.3052 -20.3037 -20.3036 -20.3031 -20.3030
    -9.7180  -9.5718  -9.5082  -9.3753  -9.1735  -8.9806  -8.9201  -8.8987
    -8.8909  -8.7622  -8.7110  -8.6619  -8.2976  -8.2861  -8.2270  -8.2011
    -8.1872  -8.1460  -8.1208  -8.0671  -7.7683  -7.7557  -7.7018  -7.6897
     1.2649   1.2697   1.2842   1.2890   2.1175   2.1962   2.2194   2.3238
     2.3889   2.4475   2.4584   2.6783   2.7485   2.7789   2.8401   2.9184
     3.1623   3.2519   3.5825   3.6061   3.6784   3.7269   3.7953   3.8028
     4.0715   4.2322   4.3351   4.3377   4.4245   4.5218   4.5710   4.7209
     4.7298   4.7804   4.9308   5.0058   5.1071   5.1342   5.1502   5.2913
     5.3222   5.5245   5.5941   5.7658   6.0846   6.1332   6.1728   6.2210
     6.3701   6.5232   6.5687   6.5855   6.6255   6.7536   6.7613   6.7763
     6.8609   6.9258   6.9877   7.0115   7.0282   7.0920   7.1252   7.1492
     7.2299   7.2818   7.6855   7.6967   7.7298   7.7451   7.7962   7.8165
    10.3114  10.3236  10.5889  10.6190  11.2130  11.2498  11.7257  11.8043
    11.8070  11.9092  12.1250  12.1813  12.5035  12.5592  12.5673  12.6167
    12.8360  13.0804  13.0805  13.2883  13.3612  13.4177  13.7505  13.7607
    15.0333  15.1362  15.4703  15.7475  15.8799  15.9245  15.9435  16.6087
    16.7060  16.7564  16.9828  17.5008  17.5838

          k = 0.0000 0.3172-0.4998 ( 62488 PWs)   bands (ev):

   -66.1902 -66.1902 -66.1900 -66.1900 -66.1893 -66.1893 -66.1891 -66.1891
   -30.5803 -30.5803 -30.5763 -30.5763 -30.5514 -30.5514 -30.5463 -30.5463
   -30.5293 -30.5293 -30.5260 -30.5260 -30.4837 -30.4837 -30.4825 -30.4825
   -30.4790 -30.4790 -30.4779 -30.4779 -30.4319 -30.4319 -30.4304 -30.4304
   -20.3482 -20.3482 -20.3482 -20.3482 -20.3481 -20.3481 -20.3481 -20.3481
   -20.3349 -20.3349 -20.3345 -20.3345 -20.3321 -20.3321 -20.3317 -20.3317
   -20.3276 -20.3276 -20.3272 -20.3272 -20.3266 -20.3266 -20.3264 -20.3264
   -20.3258 -20.3258 -20.3257 -20.3257 -20.3256 -20.3256 -20.3253 -20.3253
   -20.3182 -20.3182 -20.3181 -20.3181 -20.3166 -20.3166 -20.3165 -20.3165
   -20.3098 -20.3098 -20.3098 -20.3098 -20.3082 -20.3082 -20.3081 -20.3081
   -20.3070 -20.3070 -20.3070 -20.3070 -20.3034 -20.3034 -20.3033 -20.3033
    -9.5950  -9.5950  -9.4533  -9.4533  -8.9851  -8.9851  -8.7981  -8.7981
    -8.6215  -8.6215  -8.6107  -8.6107  -8.5511  -8.5511  -8.4646  -8.4646
    -8.2000  -8.1999  -8.1598  -8.1598  -7.7348  -7.7348  -7.7224  -7.7224
     1.2804   1.2804   1.2860   1.2860   2.3084   2.3084   2.4390   2.4390
     2.8558   2.8558   3.0101   3.0101   3.0547   3.0547   3.2108   3.2108
     3.2668   3.2668   3.2948   3.2948   3.3628   3.3628   3.6034   3.6034
     4.0004   4.0004   4.0541   4.0542   4.0571   4.0571   4.3032   4.3032
     4.7633   4.7633   4.8680   4.8681   5.0635   5.0635   5.2060   5.2061
     5.3581   5.3581   5.6788   5.6788   6.2213   6.2213   6.2740   6.2740
     6.4150   6.4150   6.4621   6.4621   6.4936   6.4936   6.7120   6.7120
     7.0011   7.0011   7.0139   7.0139   7.0575   7.0575   7.4681   7.4681
     7.4891   7.4891   7.5169   7.5169   7.5531   7.5531   7.8047   7.8047
    10.5918  10.5918  11.1019  11.1019  11.1444  11.1444  11.6585  11.6585
    11.9249  11.9249  12.0759  12.0759  12.5166  12.5166  12.5783  12.5783
    12.7865  12.7865  12.9043  12.9043  13.3608  13.3608  13.7538  13.7538
    15.0933  15.0933  15.6234  15.6234  16.2496  16.2496  16.4311  16.4311
    16.8121  16.8121  17.2088  17.2088  17.9262

          k = 0.0000-0.4758 0.0000 ( 62506 PWs)   bands (ev):

   -66.1906 -66.1906 -66.1896 -66.1896 -66.1896 -66.1896 -66.1887 -66.1887
   -30.5673 -30.5673 -30.5634 -30.5634 -30.5627 -30.5627 -30.5590 -30.5590
   -30.5333 -30.5333 -30.5288 -30.5288 -30.5268 -30.5268 -30.5253 -30.5253
   -30.4345 -30.4345 -30.4333 -30.4333 -30.4309 -30.4309 -30.4285 -30.4285
   -20.3483 -20.3483 -20.3482 -20.3482 -20.3481 -20.3481 -20.3480 -20.3480
   -20.3336 -20.3336 -20.3333 -20.3333 -20.3332 -20.3332 -20.3329 -20.3329
   -20.3274 -20.3274 -20.3271 -20.3271 -20.3268 -20.3268 -20.3268 -20.3268
   -20.3261 -20.3261 -20.3259 -20.3259 -20.3253 -20.3253 -20.3251 -20.3251
   -20.3183 -20.3183 -20.3179 -20.3179 -20.3167 -20.3166 -20.3162 -20.3162
   -20.3118 -20.3118 -20.3106 -20.3106 -20.3104 -20.3104 -20.3091 -20.3091
   -20.3045 -20.3045 -20.3039 -20.3039 -20.3034 -20.3034 -20.3027 -20.3027
    -9.8089  -9.8089  -9.3685  -9.3685  -9.3662  -9.3662  -9.0794  -9.0794
    -8.5559  -8.5559  -8.5023  -8.5023  -8.5009  -8.5009  -8.4985  -8.4985
    -7.8000  -7.8000  -7.7950  -7.7950  -7.6645  -7.6645  -7.6635  -7.6635
     1.1415   1.1415   1.2419   1.2419   1.2494   1.2495   1.5584   1.5584
     2.4141   2.4141   3.0971   3.0971   3.1538   3.1538   3.2212   3.2212
     3.2319   3.2319   3.2348   3.2348   3.4243   3.4243   3.4395   3.4395
     3.6108   3.6108   4.7743   4.7743   4.7895   4.7895   5.1426   5.1426
     5.1617   5.1618   5.2586   5.2586   5.2671   5.2671   5.7022   5.7022
     5.7092   5.7092   5.9659   5.9659   5.9808   5.9808   6.1171   6.1171
     6.1337   6.1337   6.2229   6.2229   6.6730   6.6731   6.6796   6.6796
     6.8995   6.8995   7.3171   7.3171   7.3239   7.3239   7.4317   7.4317
     7.4345   7.4345   7.4938   7.4938   7.4957   7.4957   7.8204   7.8204
     9.2191   9.2191  11.1710  11.1710  11.1880  11.1880  11.2523  11.2523
    11.2725  11.2725  12.2968  12.2968  12.3086  12.3086  12.8947  12.8947
    13.4858  13.4858  13.5138  13.5138  13.5329  13.5329  13.5460  13.5460
    15.3165  15.3165  15.3513  15.3513  15.6055  15.6055  15.6096  15.6096
    16.4951  16.4951  17.9028  17.9028  18.0916

          k = 0.0000-0.4758 0.1666 ( 62466 PWs)   bands (ev):

   -66.1905 -66.1905 -66.1897 -66.1897 -66.1896 -66.1896 -66.1887 -66.1887
   -30.5672 -30.5672 -30.5637 -30.5637 -30.5627 -30.5627 -30.5593 -30.5593
   -30.5307 -30.5307 -30.5257 -30.5257 -30.5245 -30.5245 -30.5201 -30.5201
   -30.4411 -30.4411 -30.4369 -30.4369 -30.4330 -30.4330 -30.4292 -30.4292
   -20.3483 -20.3483 -20.3482 -20.3482 -20.3481 -20.3481 -20.3481 -20.3480
   -20.3336 -20.3336 -20.3333 -20.3333 -20.3332 -20.3332 -20.3330 -20.3330
   -20.3274 -20.3274 -20.3272 -20.3272 -20.3268 -20.3268 -20.3266 -20.3266
   -20.3260 -20.3260 -20.3260 -20.3260 -20.3254 -20.3254 -20.3251 -20.3251
   -20.3183 -20.3183 -20.3179 -20.3179 -20.3167 -20.3166 -20.3163 -20.3163
   -20.3113 -20.3113 -20.3103 -20.3103 -20.3100 -20.3100 -20.3092 -20.3092
   -20.3050 -20.3050 -20.3039 -20.3039 -20.3038 -20.3038 -20.3028 -20.3028
    -9.7567  -9.7567  -9.3812  -9.3812  -9.2832  -9.2832  -9.0386  -9.0386
    -8.5616  -8.5616  -8.5080  -8.5079  -8.4977  -8.4977  -8.4945  -8.4945
    -7.9206  -7.9206  -7.7965  -7.7965  -7.7855  -7.7855  -7.6721  -7.6721
     1.2328   1.2328   1.2548   1.2548   1.5003   1.5003   1.7285   1.7285
     2.5030   2.5030   3.1094   3.1094   3.1546   3.1546   3.2214   3.2214
     3.2346   3.2346   3.2727   3.2727   3.4319   3.4319   3.4799   3.4800
     3.6408   3.6408   4.3948   4.3948   4.8301   4.8301   4.9092   4.9092
     5.0619   5.0619   5.1376   5.1376   5.2754   5.2754   5.4344   5.4344
     5.6800   5.6800   5.7267   5.7267   6.0768   6.0768   6.0816   6.0816
     6.3384   6.3384   6.3869   6.3869   6.6634   6.6634   6.8560   6.8560
     6.9593   6.9593   7.0835   7.0835   7.1446   7.1446   7.4203   7.4203
     7.4401   7.4401   7.4691   7.4691   7.4821   7.4821   7.8202   7.8202
     9.5827   9.5827  11.1919  11.1919  11.2619  11.2619  11.2996  11.2996
    11.3774  11.3774  12.1948  12.1948  12.3592  12.3593  12.9263  12.9263
    13.3115  13.3115  13.3993  13.3993  13.5232  13.5232  13.5326  13.5326
    15.3108  15.3108  15.5571  15.5571  15.5940  15.5940  15.8890  15.8890
    16.5592  16.5592  17.8303  17.8304  17.9446

          k = 0.0000-0.4758 0.3332 ( 62458 PWs)   bands (ev):

   -66.1904 -66.1904 -66.1899 -66.1899 -66.1894 -66.1894 -66.1889 -66.1889
   -30.5666 -30.5666 -30.5645 -30.5645 -30.5622 -30.5622 -30.5602 -30.5602
   -30.5293 -30.5293 -30.5266 -30.5266 -30.5073 -30.5072 -30.5025 -30.5025
   -30.4589 -30.4589 -30.4545 -30.4545 -30.4322 -30.4322 -30.4300 -30.4300
   -20.3482 -20.3482 -20.3482 -20.3482 -20.3481 -20.3481 -20.3481 -20.3481
   -20.3336 -20.3336 -20.3334 -20.3334 -20.3332 -20.3332 -20.3330 -20.3330
   -20.3274 -20.3274 -20.3273 -20.3273 -20.3267 -20.3267 -20.3262 -20.3262
   -20.3262 -20.3262 -20.3258 -20.3258 -20.3255 -20.3255 -20.3253 -20.3253
   -20.3183 -20.3182 -20.3180 -20.3180 -20.3166 -20.3166 -20.3164 -20.3164
   -20.3102 -20.3101 -20.3099 -20.3099 -20.3095 -20.3094 -20.3088 -20.3088
   -20.3063 -20.3063 -20.3052 -20.3052 -20.3036 -20.3036 -20.3030 -20.3030
    -9.6332  -9.6332  -9.4275  -9.4275  -9.0468  -9.0467  -8.9005  -8.9005
    -8.5952  -8.5952  -8.5324  -8.5324  -8.4893  -8.4893  -8.4698  -8.4698
    -8.2135  -8.2135  -8.1081  -8.1081  -7.7622  -7.7622  -7.6958  -7.6958
     1.2687   1.2687   1.2879   1.2879   2.1858   2.1858   2.3683   2.3683
     2.7609   2.7609   3.1227   3.1227   3.1641   3.1641   3.2128   3.2128
     3.2258   3.2258   3.3519   3.3520   3.4208   3.4208   3.6322   3.6322
     3.7093   3.7094   3.7885   3.7885   4.4143   4.4143   4.5709   4.5709
     4.7378   4.7378   4.7955   4.7955   5.1382   5.1382   5.1814   5.1814
     5.3219   5.3219   5.6017   5.6017   6.1323   6.1323   6.2197   6.2197
     6.4746   6.4746   6.5939   6.5939   6.6428   6.6428   6.7910   6.7910
     6.9661   6.9661   7.1372   7.1372   7.1478   7.1478   7.3956   7.3956
     7.4259   7.4260   7.4583   7.4583   7.4644   7.4644   7.7516   7.7516
    10.3240  10.3240  11.2040  11.2040  11.2465  11.2465  11.6713  11.6713
    11.7226  11.7226  11.8045  11.8045  12.5240  12.5241  12.7121  12.7121
    12.8439  12.8439  13.1358  13.1358  13.5123  13.5123  13.5285  13.5286
    15.3490  15.3490  15.5344  15.5344  16.1703  16.1703  16.6285  16.6285
    16.7849  16.7849  17.3180  17.3180  17.8864

          k = 0.0000-0.4758-0.4998 ( 62500 PWs)   bands (ev):

   -66.1901 -66.1901 -66.1901 -66.1901 -66.1892 -66.1892 -66.1892 -66.1892
   -30.5656 -30.5656 -30.5656 -30.5656 -30.5613 -30.5613 -30.5613 -30.5613
   -30.5279 -30.5279 -30.5279 -30.5279 -30.4831 -30.4831 -30.4831 -30.4831
   -30.4785 -30.4785 -30.4785 -30.4785 -30.4311 -30.4311 -30.4311 -30.4311
   -20.3482 -20.3482 -20.3482 -20.3482 -20.3481 -20.3481 -20.3481 -20.3481
   -20.3335 -20.3335 -20.3335 -20.3335 -20.3331 -20.3331 -20.3331 -20.3331
   -20.3274 -20.3274 -20.3274 -20.3274 -20.3264 -20.3264 -20.3264 -20.3264
   -20.3258 -20.3258 -20.3258 -20.3258 -20.3256 -20.3256 -20.3256 -20.3255
   -20.3182 -20.3182 -20.3182 -20.3182 -20.3165 -20.3165 -20.3165 -20.3165
   -20.3098 -20.3098 -20.3098 -20.3098 -20.3082 -20.3082 -20.3082 -20.3082
   -20.3070 -20.3070 -20.3070 -20.3070 -20.3033 -20.3033 -20.3033 -20.3033
    -9.5107  -9.5107  -9.5107  -9.5107  -8.7482  -8.7482  -8.7482  -8.7482
    -8.6641  -8.6641  -8.6641  -8.6641  -8.4458  -8.4458  -8.4458  -8.4457
    -8.3826  -8.3826  -8.3826  -8.3826  -7.7287  -7.7287  -7.7287  -7.7287
     1.2847   1.2847   1.2847   1.2847   2.9649   2.9649   2.9649   2.9649
     3.0963   3.0963   3.0963   3.0963   3.1831   3.1831   3.1831   3.1831
     3.2348   3.2348   3.2348   3.2348   3.4085   3.4085   3.4085   3.4085
     3.5605   3.5605   3.5605   3.5605   4.2472   4.2472   4.2472   4.2472
     4.3544   4.3545   4.3545   4.3545   5.1513   5.1513   5.1513   5.1513
     5.4534   5.4534   5.4534   5.4534   6.2674   6.2674   6.2674   6.2674
     6.4668   6.4668   6.4668   6.4668   6.5876   6.5876   6.5876   6.5876
     7.2516   7.2516   7.2516   7.2516   7.3276   7.3276   7.3276   7.3276
     7.4195   7.4195   7.4195   7.4195   7.5549   7.5549   7.5549   7.5549
    11.0917  11.0917  11.0917  11.0917  11.2565  11.2565  11.2565  11.2565
    12.2153  12.2153  12.2153  12.2153  12.2402  12.2402  12.2402  12.2402
    12.8150  12.8150  12.8150  12.8150  13.5165  13.5165  13.5165  13.5165
    15.4440  15.4440  15.4440  15.4440  16.8073  16.8073  16.8073  16.8073
    17.3260  17.3261  17.3261  17.3261  17.4561

          k = 0.1667 0.0000 0.0000 ( 62495 PWs)   bands (ev):

   -66.1907 -66.1903 -66.1899 -66.1898 -66.1895 -66.1894 -66.1890 -66.1885
   -30.5966 -30.5930 -30.5929 -30.5894 -30.5416 -30.5363 -30.5358 -30.5322
   -30.5306 -30.5291 -30.5259 -30.5252 -30.5250 -30.5215 -30.5171 -30.5145
   -30.4414 -30.4383 -30.4371 -30.4355 -30.4347 -30.4329 -30.4312 -30.4291
   -20.3483 -20.3482 -20.3482 -20.3482 -20.3482 -20.3481 -20.3481 -20.3480
   -20.3363 -20.3360 -20.3360 -20.3357 -20.3308 -20.3305 -20.3305 -20.3301
   -20.3279 -20.3275 -20.3274 -20.3272 -20.3270 -20.3269 -20.3266 -20.3264
   -20.3263 -20.3259 -20.3259 -20.3257 -20.3253 -20.3251 -20.3250 -20.3246
   -20.3183 -20.3180 -20.3179 -20.3177 -20.3168 -20.3166 -20.3164 -20.3162
   -20.3117 -20.3117 -20.3106 -20.3106 -20.3100 -20.3100 -20.3088 -20.3087
   -20.3045 -20.3044 -20.3044 -20.3043 -20.3035 -20.3035 -20.3032 -20.3032
    -9.9432  -9.6496  -9.5810  -9.5051  -9.3031  -9.1967  -9.1566  -9.0485
    -9.0306  -8.9296  -8.9206  -8.8840  -7.9406  -7.9144  -7.8897  -7.8405
    -7.8396  -7.8047  -7.7944  -7.7892  -7.7851  -7.7736  -7.6848  -7.6608
     1.2148   1.2210   1.2281   1.2478   1.3662   1.3962   1.5096   1.5338
     1.5456   1.6441   1.7471   1.9110   2.4607   2.5394   2.5445   2.6141
     2.6657   2.7561   4.0523   4.1262   4.3165   4.3175   4.3642   4.4208
     4.5795   4.7075   4.7696   4.8262   4.8414   4.9421   5.0241   5.2647
     5.2939   5.3841   5.4394   5.4863   5.5396   5.5502   5.5633   5.5870
     5.6782   5.7501   5.7820   5.8484   5.9439   6.0486   6.0647   6.0858
     6.2546   6.3803   6.4385   6.4767   6.6493   6.6765   6.7384   6.7574
     6.8014   6.8199   6.9195   6.9562   6.9763   7.0377   7.0947   7.0983
     7.1358   7.1848   7.8141   7.8181   7.9835   8.0503   8.0592   8.1107
     9.5632   9.5898   9.8858   9.9100  10.1479  10.1918  12.1748  12.1935
    12.2401  12.2797  12.3344  12.3660  12.4739  12.5715  12.8304  12.8985
    13.0706  13.1220  13.2267  13.3133  13.8164  13.9308  14.0687  14.0946
    14.1032  14.3171  14.4863  14.9476  15.3560  15.3835  15.4245  15.9560
    16.3142  16.7439  16.9684  17.2132  17.4906

          k = 0.1667 0.0000 0.1666 ( 62464 PWs)   bands (ev):

   -66.1907 -66.1903 -66.1899 -66.1898 -66.1894 -66.1894 -66.1890 -66.1886
   -30.5965 -30.5932 -30.5930 -30.5897 -30.5405 -30.5361 -30.5353 -30.5294
   -30.5269 -30.5261 -30.5230 -30.5218 -30.5202 -30.5192 -30.5158 -30.5149
   -30.4421 -30.4412 -30.4396 -30.4386 -30.4382 -30.4373 -30.4353 -30.4338
   -20.3483 -20.3482 -20.3482 -20.3482 -20.3482 -20.3481 -20.3481 -20.3480
   -20.3363 -20.3361 -20.3360 -20.3358 -20.3308 -20.3305 -20.3305 -20.3302
   -20.3279 -20.3275 -20.3274 -20.3271 -20.3270 -20.3269 -20.3265 -20.3265
   -20.3262 -20.3260 -20.3259 -20.3256 -20.3254 -20.3251 -20.3250 -20.3247
   -20.3183 -20.3180 -20.3179 -20.3177 -20.3168 -20.3166 -20.3165 -20.3163
   -20.3112 -20.3112 -20.3102 -20.3102 -20.3099 -20.3098 -20.3088 -20.3088
   -20.3050 -20.3048 -20.3044 -20.3043 -20.3040 -20.3039 -20.3033 -20.3032
    -9.8951  -9.5909  -9.5209  -9.5207  -9.2136  -9.2101  -9.1653  -9.0088
    -8.9944  -8.9207  -8.8894  -8.8884  -7.9389  -7.9250  -7.9056  -7.9054
    -7.8891  -7.8479  -7.8351  -7.8245  -7.8095  -7.7934  -7.7889  -7.7693
     1.3593   1.3889   1.3912   1.4040   1.4052   1.5085   1.5154   1.5268
     1.6377   1.6450   1.8323   1.9895   2.5486   2.6216   2.6258   2.6392
     2.7360   2.7680   4.0554   4.0592   4.2833   4.2863   4.4326   4.4336
     4.4828   4.4830   4.6020   4.6076   4.6758   4.7438   5.0101   5.2021
     5.2178   5.2690   5.2964   5.4504   5.4613   5.5531   5.5580   5.6509
     5.6528   5.6939   5.6982   5.7219   5.7785   5.9517   6.2596   6.3894
     6.4163   6.4363   6.4980   6.6194   6.6304   6.6417   6.6544   6.6811
     6.6869   6.7842   6.7922   6.8315   6.8457   6.9416   6.9438   7.0486
     7.2268   7.2786   7.8098   7.8101   7.9928   8.0365   8.0519   8.0662
     9.7919   9.8505  10.1395  10.1532  10.1625  10.2495  12.2052  12.2251
    12.2378  12.2430  12.2912  12.3343  12.5555  12.5647  12.8495  12.8986
    12.9626  13.0817  13.1097  13.2841  13.8630  13.9059  13.9517  13.9926
    14.1184  14.4459  14.4788  15.0684  15.3918  15.4482  15.4615  16.2719
    16.2816  16.9125  16.9195  17.1124  17.5377

          k = 0.1667 0.0000 0.3332 ( 62483 PWs)   bands (ev):

   -66.1905 -66.1901 -66.1900 -66.1897 -66.1896 -66.1892 -66.1892 -66.1888
   -30.5960 -30.5940 -30.5925 -30.5906 -30.5392 -30.5368 -30.5333 -30.5303
   -30.5247 -30.5225 -30.5195 -30.5159 -30.5066 -30.5057 -30.5030 -30.5016
   -30.4598 -30.4573 -30.4561 -30.4535 -30.4402 -30.4380 -30.4371 -30.4349
   -20.3483 -20.3482 -20.3482 -20.3482 -20.3481 -20.3481 -20.3481 -20.3481
   -20.3363 -20.3361 -20.3360 -20.3358 -20.3308 -20.3306 -20.3305 -20.3303
   -20.3278 -20.3276 -20.3273 -20.3271 -20.3270 -20.3268 -20.3266 -20.3262
   -20.3261 -20.3259 -20.3257 -20.3255 -20.3254 -20.3252 -20.3252 -20.3249
   -20.3182 -20.3180 -20.3180 -20.3178 -20.3168 -20.3166 -20.3166 -20.3164
   -20.3100 -20.3099 -20.3097 -20.3096 -20.3091 -20.3091 -20.3089 -20.3088
   -20.3063 -20.3062 -20.3053 -20.3053 -20.3041 -20.3040 -20.3035 -20.3035
    -9.7789  -9.5699  -9.4542  -9.3813  -9.2517  -9.1949  -8.9592  -8.9392
    -8.9001  -8.8614  -8.8318  -8.7688  -8.2262  -8.2248  -8.1606  -8.1406
    -7.9056  -7.8854  -7.8671  -7.8513  -7.8251  -7.8204  -7.8076  -7.8011
     1.3671   1.3820   1.4767   1.5114   1.5303   1.5432   1.6122   1.6490
     2.2078   2.2471   2.3786   2.4631   2.6445   2.7245   2.8142   2.8638
     2.9173   3.0007   3.7529   3.8176   3.8788   3.9052   4.0930   4.2541
     4.2571   4.4445   4.4600   4.5049   4.5465   4.6763   4.7076   4.8453
     4.9633   4.9826   5.0357   5.1543   5.2172   5.3262   5.5185   5.5909
     5.6680   5.7033   5.7238   5.7868   5.7988   5.9577   6.0797   6.1290
     6.3847   6.3905   6.4604   6.5218   6.5297   6.6211   6.6366   6.6496
     6.7310   6.8227   6.8366   6.8460   7.0746   7.0831   7.1232   7.1659
     7.2673   7.3223   7.7382   7.7523   7.8857   7.9249   8.0437   8.0543
    10.1394  10.1451  10.4355  10.4953  10.7862  10.8898  11.8267  11.8685
    12.0924  12.3680  12.3910  12.4190  12.4943  12.5643  12.7098  12.7995
    12.8212  12.9806  13.0178  13.2033  13.6009  13.6173  13.9018  13.9297
    14.2830  14.4542  14.7717  15.2863  15.3741  15.7271  15.9013  16.1864
    16.3556  17.1409  17.3693  17.4390  17.5638

          k = 0.1667 0.0000-0.4998 ( 62474 PWs)   bands (ev):

   -66.1903 -66.1903 -66.1898 -66.1898 -66.1894 -66.1894 -66.1890 -66.1890
   -30.5951 -30.5951 -30.5916 -30.5916 -30.5379 -30.5379 -30.5317 -30.5317
   -30.5235 -30.5235 -30.5173 -30.5173 -30.4837 -30.4837 -30.4815 -30.4815
   -30.4798 -30.4798 -30.4775 -30.4775 -30.4391 -30.4391 -30.4360 -30.4360
   -20.3482 -20.3482 -20.3482 -20.3482 -20.3481 -20.3481 -20.3481 -20.3481
   -20.3362 -20.3362 -20.3359 -20.3359 -20.3307 -20.3307 -20.3304 -20.3304
   -20.3277 -20.3277 -20.3272 -20.3272 -20.3268 -20.3268 -20.3265 -20.3265
   -20.3258 -20.3258 -20.3255 -20.3255 -20.3255 -20.3254 -20.3251 -20.3251
   -20.3181 -20.3181 -20.3179 -20.3179 -20.3167 -20.3167 -20.3165 -20.3165
   -20.3094 -20.3094 -20.3094 -20.3094 -20.3081 -20.3081 -20.3080 -20.3080
   -20.3071 -20.3071 -20.3071 -20.3071 -20.3038 -20.3038 -20.3038 -20.3038
    -9.6572  -9.6572  -9.3289  -9.3289  -9.2597  -9.2597  -8.9165  -8.9165
    -8.6021  -8.6021  -8.5938  -8.5937  -8.5500  -8.5500  -8.4982  -8.4982
    -7.8828  -7.8828  -7.8554  -7.8554  -7.8316  -7.8316  -7.8133  -7.8133
     1.3730   1.3730   1.4954   1.4954   1.5473   1.5473   1.6505   1.6505
     2.6701   2.6701   2.9570   2.9570   3.0392   3.0392   3.1476   3.1476
     3.2468   3.2468   3.3624   3.3624   3.4673   3.4674   3.7380   3.7380
     3.8117   3.8118   4.3646   4.3647   4.4750   4.4750   4.8431   4.8431
     4.9697   4.9697   4.9937   4.9938   5.1844   5.1844   5.5960   5.5960
     5.7147   5.7147   5.7593   5.7593   5.8342   5.8342   5.9379   5.9379
     6.3014   6.3014   6.4032   6.4032   6.6287   6.6287   6.6617   6.6617
     6.7731   6.7731   6.9148   6.9148   6.9687   6.9687   7.4920   7.4920
     7.5328   7.5328   7.6460   7.6460   7.6707   7.6707   8.0535   8.0535
    10.1521  10.1521  11.1622  11.1622  11.2288  11.2288  11.5131  11.5131
    11.6840  11.6840  12.5847  12.5847  12.5925  12.5925  12.6595  12.6595
    12.8466  12.8466  13.1835  13.1835  13.2805  13.2805  13.9140  13.9140
    14.4005  14.4005  15.0850  15.0850  15.8121  15.8121  16.0074  16.0074
    16.6899  16.6899  17.7964  17.7981  17.8482

          k = 0.1667 0.1586 0.0000 ( 62491 PWs)   bands (ev):

   -66.1907 -66.1903 -66.1899 -66.1898 -66.1895 -66.1894 -66.1889 -66.1886
   -30.5926 -30.5890 -30.5889 -30.5854 -30.5442 -30.5390 -30.5389 -30.5331
   -30.5325 -30.5308 -30.5262 -30.5261 -30.5251 -30.5214 -30.5183 -30.5155
   -30.4412 -30.4385 -30.4369 -30.4354 -30.4348 -30.4331 -30.4311 -30.4293
   -20.3483 -20.3482 -20.3482 -20.3482 -20.3482 -20.3481 -20.3481 -20.3480
   -20.3360 -20.3357 -20.3357 -20.3354 -20.3312 -20.3309 -20.3309 -20.3305
   -20.3278 -20.3275 -20.3273 -20.3271 -20.3270 -20.3269 -20.3267 -20.3264
   -20.3263 -20.3260 -20.3259 -20.3258 -20.3254 -20.3251 -20.3250 -20.3247
   -20.3182 -20.3181 -20.3178 -20.3177 -20.3168 -20.3166 -20.3164 -20.3163
   -20.3117 -20.3117 -20.3106 -20.3106 -20.3100 -20.3100 -20.3088 -20.3087
   -20.3045 -20.3044 -20.3044 -20.3044 -20.3035 -20.3035 -20.3032 -20.3032
    -9.9124  -9.6610  -9.5440  -9.4631  -9.3106  -9.2043  -9.0814  -9.0465
    -9.0316  -8.8848  -8.8812  -8.8496  -7.9990  -7.9573  -7.9406  -7.9258
    -7.9034  -7.8970  -7.8069  -7.7953  -7.7849  -7.7745  -7.6832  -7.6627
     1.2247   1.2281   1.2355   1.2478   1.4650   1.5083   1.5282   1.7365
     1.7451   1.7800   1.8146   2.0229   2.4669   2.5385   2.6121   2.6881
     2.7360   2.8246   3.9477   4.0027   4.0549   4.1090   4.3493   4.4188
     4.6078   4.6423   4.8089   4.8095   4.8125   4.8548   4.9175   5.1971
     5.2126   5.2485   5.2736   5.4162   5.5100   5.5320   5.5802   5.6606
     5.6864   5.7285   5.8012   5.8097   5.8463   6.0603   6.0839   6.0864
     6.1841   6.3769   6.4077   6.5015   6.6686   6.7303   6.7597   6.7718
     6.7901   6.8520   6.9032   6.9276   6.9509   6.9754   7.0956   7.0988
     7.1478   7.1852   7.8159   7.8182   7.9470   7.9803   8.0037   8.0306
     9.5691   9.5891  10.0896  10.0901  10.3224  10.3410  12.1048  12.1816
    12.2141  12.2208  12.3058  12.3112  12.3210  12.4427  12.8557  12.8966
    13.0855  13.1506  13.2367  13.3154  13.8262  13.8538  13.9948  14.0079
    14.2875  14.5944  14.7650  15.1002  15.3563  15.3835  15.8280  15.9269
    16.2788  16.6514  16.8743  17.3275  17.5412

          k = 0.1667 0.1586 0.1666 ( 62501 PWs)   bands (ev):

   -66.1907 -66.1903 -66.1898 -66.1898 -66.1895 -66.1894 -66.1890 -66.1886
   -30.5925 -30.5892 -30.5889 -30.5857 -30.5435 -30.5393 -30.5384 -30.5335
   -30.5269 -30.5261 -30.5231 -30.5217 -30.5208 -30.5194 -30.5169 -30.5158
   -30.4420 -30.4410 -30.4398 -30.4384 -30.4384 -30.4373 -30.4354 -30.4340
   -20.3483 -20.3482 -20.3482 -20.3482 -20.3482 -20.3481 -20.3481 -20.3480
   -20.3359 -20.3357 -20.3357 -20.3354 -20.3312 -20.3309 -20.3309 -20.3305
   -20.3278 -20.3275 -20.3273 -20.3271 -20.3269 -20.3269 -20.3265 -20.3264
   -20.3262 -20.3260 -20.3259 -20.3257 -20.3254 -20.3252 -20.3251 -20.3248
   -20.3182 -20.3180 -20.3179 -20.3177 -20.3168 -20.3166 -20.3164 -20.3163
   -20.3112 -20.3112 -20.3102 -20.3102 -20.3099 -20.3099 -20.3088 -20.3088
   -20.3050 -20.3049 -20.3044 -20.3043 -20.3040 -20.3039 -20.3033 -20.3032
    -9.8627  -9.6024  -9.4792  -9.4790  -9.2213  -9.2179  -9.0902  -9.0078
    -8.9953  -8.8764  -8.8546  -8.8538  -8.0014  -7.9560  -7.9542  -7.9225
    -7.9170  -7.9127  -7.8911  -7.8898  -7.8320  -7.8069  -7.7905  -7.7714
     1.4017   1.4036   1.4646   1.4679   1.5084   1.5141   1.5483   1.7360
     1.8056   1.8115   1.8323   2.0758   2.5565   2.6324   2.6963   2.7001
     2.8087   2.8333   3.9568   3.9772   4.0819   4.0887   4.4058   4.4129
     4.4825   4.4882   4.6120   4.6183   4.6427   4.7040   4.8016   5.1301
     5.1635   5.2047   5.2225   5.2928   5.3101   5.5046   5.5081   5.5810
     5.6891   5.6943   5.7438   5.7584   5.7609   5.8345   6.2743   6.3268
     6.3377   6.4260   6.4899   6.5985   6.6317   6.6629   6.7186   6.7403
     6.7464   6.7848   6.8205   6.8301   6.9090   6.9214   6.9343   7.0559
     7.2303   7.2777   7.8102   7.8104   7.9415   7.9823   7.9840   7.9916
     9.8093   9.8502  10.2975  10.3215  10.3301  10.3904  12.1643  12.1934
    12.2289  12.2349  12.2400  12.2513  12.4121  12.4185  12.8785  12.9007
    12.9866  13.0910  13.1089  13.2879  13.8170  13.8277  13.8496  13.9060
    14.3927  14.7472  14.7603  15.2065  15.4492  15.4602  15.7986  16.2395
    16.2479  16.7784  17.0210  17.0281  17.5701

          k = 0.1667 0.1586 0.3332 ( 62507 PWs)   bands (ev):

   -66.1905 -66.1901 -66.1900 -66.1896 -66.1896 -66.1893 -66.1892 -66.1888
   -30.5920 -30.5900 -30.5885 -30.5865 -30.5424 -30.5401 -30.5371 -30.5344
   -30.5245 -30.5222 -30.5201 -30.5168 -30.5069 -30.5059 -30.5031 -30.5017
   -30.4597 -30.4575 -30.4559 -30.4536 -30.4400 -30.4378 -30.4373 -30.4351
   -20.3483 -20.3482 -20.3482 -20.3482 -20.3481 -20.3481 -20.3481 -20.3481
   -20.3359 -20.3358 -20.3356 -20.3355 -20.3312 -20.3310 -20.3308 -20.3306
   -20.3277 -20.3275 -20.3273 -20.3270 -20.3270 -20.3268 -20.3266 -20.3262
   -20.3262 -20.3259 -20.3257 -20.3255 -20.3255 -20.3253 -20.3253 -20.3249
   -20.3182 -20.3180 -20.3180 -20.3178 -20.3168 -20.3166 -20.3166 -20.3164
   -20.3100 -20.3099 -20.3097 -20.3096 -20.3091 -20.3091 -20.3089 -20.3088
   -20.3063 -20.3062 -20.3053 -20.3053 -20.3041 -20.3041 -20.3035 -20.3035
    -9.7428  -9.5288  -9.4654  -9.3255  -9.2601  -9.1205  -8.9672  -8.9185
    -8.8657  -8.8624  -8.8108  -8.7482  -8.2313  -8.2242  -8.1764  -8.1384
    -7.9700  -7.9537  -7.9305  -7.9039  -7.8928  -7.8687  -7.8280  -7.8080
     1.4743   1.4891   1.5299   1.5427   1.6902   1.6963   1.7693   1.8090
     2.2066   2.2586   2.3794   2.4797   2.7173   2.7869   2.8332   2.9142
     2.9388   3.0592   3.7519   3.8211   3.8605   3.8731   4.0715   4.1243
     4.1768   4.3085   4.4685   4.5247   4.5723   4.6316   4.6719   4.7365
     4.8203   4.8596   4.8987   5.0966   5.1349   5.1830   5.2759   5.5512
     5.5721   5.6060   5.7046   5.7432   5.7899   5.8044   6.0772   6.1262
     6.3199   6.4696   6.4916   6.5860   6.6520   6.6531   6.6754   6.7203
     6.7863   6.8279   6.8656   6.9011   7.0662   7.0808   7.1182   7.1730
     7.2605   7.3174   7.7394   7.7497   7.8408   7.8672   7.9803   7.9857
    10.2807  10.3129  10.4578  10.5084  10.9014  10.9806  11.8275  11.8656
    12.0731  12.3514  12.3950  12.4032  12.4196  12.4699  12.6334  12.6744
    12.8379  12.9920  12.9937  13.2018  13.4915  13.5177  13.8291  13.8530
    14.5927  14.7399  15.1229  15.4801  15.6969  15.7243  15.9146  16.1564
    16.4639  17.1038  17.1797  17.4284  17.4860

          k = 0.1667 0.1586-0.4998 ( 62490 PWs)   bands (ev):

   -66.1902 -66.1902 -66.1899 -66.1899 -66.1894 -66.1894 -66.1890 -66.1890
   -30.5911 -30.5911 -30.5876 -30.5876 -30.5412 -30.5412 -30.5356 -30.5356
   -30.5233 -30.5233 -30.5182 -30.5182 -30.4836 -30.4836 -30.4817 -30.4817
   -30.4797 -30.4797 -30.4777 -30.4777 -30.4389 -30.4389 -30.4362 -30.4362
   -20.3482 -20.3482 -20.3482 -20.3482 -20.3481 -20.3481 -20.3481 -20.3481
   -20.3358 -20.3358 -20.3356 -20.3356 -20.3311 -20.3311 -20.3308 -20.3308
   -20.3276 -20.3276 -20.3272 -20.3272 -20.3268 -20.3268 -20.3265 -20.3265
   -20.3258 -20.3258 -20.3256 -20.3256 -20.3255 -20.3255 -20.3252 -20.3252
   -20.3181 -20.3181 -20.3179 -20.3179 -20.3167 -20.3167 -20.3165 -20.3165
   -20.3094 -20.3094 -20.3094 -20.3094 -20.3081 -20.3081 -20.3080 -20.3080
   -20.3071 -20.3071 -20.3071 -20.3071 -20.3038 -20.3038 -20.3038 -20.3038
    -9.6177  -9.6177  -9.3387  -9.3387  -9.1898  -9.1898  -8.8830  -8.8830
    -8.6065  -8.6065  -8.5960  -8.5960  -8.5504  -8.5504  -8.4924  -8.4923
    -7.9632  -7.9632  -7.9199  -7.9199  -7.8607  -7.8607  -7.8385  -7.8385
     1.4838   1.4838   1.5468   1.5468   1.7055   1.7055   1.8050   1.8050
     2.7387   2.7387   2.9752   2.9753   3.0551   3.0551   3.1630   3.1630
     3.2493   3.2493   3.3688   3.3688   3.4595   3.4595   3.7474   3.7474
     3.8617   3.8617   4.2067   4.2067   4.4775   4.4775   4.6341   4.6341
     4.8727   4.8727   4.9572   4.9572   5.0318   5.0318   5.3933   5.3933
     5.6448   5.6448   5.6862   5.6862   5.8213   5.8214   5.8318   5.8318
     6.4274   6.4274   6.5684   6.5684   6.6040   6.6040   6.7128   6.7128
     6.8561   6.8561   6.8732   6.8732   6.9976   6.9976   7.4923   7.4923
     7.5275   7.5275   7.6185   7.6185   7.6407   7.6407   7.9858   7.9858
    10.3184  10.3184  11.1684  11.1684  11.2283  11.2283  11.5820  11.5820
    11.7454  11.7454  12.4440  12.4440  12.5838  12.5838  12.6461  12.6461
    12.8299  12.8299  13.0742  13.0742  13.2149  13.2149  13.8363  13.8363
    14.6964  14.6964  15.4651  15.4651  15.9286  15.9287  15.9892  15.9892
    16.7248  16.7248  17.6114  17.6114  17.8633

          k = 0.1667 0.3172 0.0000 ( 62479 PWs)   bands (ev):

   -66.1906 -66.1904 -66.1898 -66.1897 -66.1896 -66.1895 -66.1889 -66.1886
   -30.5817 -30.5780 -30.5779 -30.5744 -30.5531 -30.5488 -30.5485 -30.5442
   -30.5326 -30.5314 -30.5273 -30.5266 -30.5245 -30.5217 -30.5196 -30.5173
   -30.4406 -30.4391 -30.4364 -30.4352 -30.4349 -30.4336 -30.4308 -30.4297
   -20.3483 -20.3483 -20.3482 -20.3482 -20.3481 -20.3481 -20.3481 -20.3480
   -20.3350 -20.3347 -20.3347 -20.3344 -20.3322 -20.3319 -20.3319 -20.3316
   -20.3276 -20.3273 -20.3272 -20.3270 -20.3269 -20.3269 -20.3268 -20.3265
   -20.3262 -20.3261 -20.3260 -20.3258 -20.3254 -20.3252 -20.3252 -20.3249
   -20.3182 -20.3181 -20.3178 -20.3177 -20.3168 -20.3167 -20.3164 -20.3163
   -20.3117 -20.3117 -20.3106 -20.3106 -20.3100 -20.3100 -20.3087 -20.3087
   -20.3045 -20.3044 -20.3044 -20.3044 -20.3035 -20.3035 -20.3032 -20.3032
    -9.8378  -9.6962  -9.4606  -9.3675  -9.3352  -9.2295  -9.0426  -9.0344
    -8.8686  -8.7479  -8.7423  -8.7280  -8.2444  -8.2059  -8.1964  -8.1798
    -7.9248  -7.9111  -7.8033  -7.7913  -7.7907  -7.7790  -7.6790  -7.6673
     1.2280   1.2283   1.2448   1.2479   1.4992   1.5084   1.6971   1.7428
     2.3084   2.4275   2.4497   2.4823   2.5233   2.5996   2.8294   2.9100
     2.9448   3.0312   3.5863   3.6181   3.6503   3.6890   4.0925   4.3583
     4.3783   4.4347   4.4664   4.6874   4.7038   4.7952   4.8267   4.8454
     4.9837   5.0150   5.1112   5.2489   5.3468   5.3989   5.5410   5.5775
     5.6330   5.7177   5.7481   5.8093   6.0096   6.0598   6.0840   6.0868
     6.1968   6.3646   6.3869   6.5360   6.5721   6.7925   6.8124   6.8717
     6.9174   6.9317   7.0269   7.0307   7.0512   7.0592   7.1050   7.1088
     7.1893   7.1973   7.7577   7.7816   7.7930   7.8086   7.8247   7.8281
     9.5782   9.5875  10.5657  10.6060  10.7556  10.7802  11.7412  11.8512
    11.8798  11.9577  12.1951  12.2092  12.3339  12.3622  12.9041  12.9059
    13.1552  13.2351  13.3133  13.3763  13.6032  13.6385  13.7565  13.7815
    14.9028  15.1560  15.3300  15.3886  15.4068  15.6736  15.8167  16.0968
    16.1575  16.8329  17.2545  17.3071  17.7435

          k = 0.1667 0.3172 0.1666 ( 62463 PWs)   bands (ev):

   -66.1906 -66.1904 -66.1897 -66.1897 -66.1895 -66.1895 -66.1889 -66.1887
   -30.5816 -30.5783 -30.5779 -30.5747 -30.5528 -30.5491 -30.5484 -30.5445
   -30.5267 -30.5261 -30.5231 -30.5220 -30.5206 -30.5198 -30.5189 -30.5176
   -30.4415 -30.4405 -30.4402 -30.4389 -30.4380 -30.4372 -30.4355 -30.4345
   -20.3483 -20.3482 -20.3482 -20.3482 -20.3482 -20.3481 -20.3481 -20.3480
   -20.3350 -20.3347 -20.3347 -20.3344 -20.3322 -20.3319 -20.3319 -20.3316
   -20.3276 -20.3273 -20.3272 -20.3270 -20.3269 -20.3269 -20.3266 -20.3264
   -20.3262 -20.3261 -20.3259 -20.3259 -20.3254 -20.3253 -20.3252 -20.3249
   -20.3182 -20.3181 -20.3179 -20.3178 -20.3168 -20.3167 -20.3164 -20.3163
   -20.3112 -20.3112 -20.3102 -20.3102 -20.3099 -20.3099 -20.3088 -20.3088
   -20.3050 -20.3049 -20.3044 -20.3043 -20.3040 -20.3039 -20.3033 -20.3033
    -9.7845  -9.6381  -9.3847  -9.3835  -9.2468  -9.2438  -9.0052  -8.9982
    -8.8772  -8.7364  -8.7325  -8.7320  -8.2464  -8.2042  -8.2025  -8.1854
    -7.9182  -7.9170  -7.9031  -7.9024  -7.8285  -7.8153  -7.7870  -7.7757
     1.4021   1.4031   1.4991   1.5043   1.5082   1.5143   1.7690   1.8276
     2.3104   2.4270   2.4327   2.5721   2.5758   2.6335   2.9184   2.9272
     3.0245   3.0367   3.6259   3.6380   3.6547   3.7008   4.0843   4.3873
     4.3952   4.4252   4.4340   4.5070   4.5225   4.6796   4.6829   4.7719
     4.8137   4.8247   5.0513   5.0836   5.3063   5.3388   5.3476   5.3570
     5.5926   5.6121   5.6962   5.7001   5.7702   5.7721   6.3259   6.3553
     6.3712   6.4239   6.4730   6.5836   6.6788   6.6846   6.7991   6.8089
     6.8716   6.8774   6.9509   6.9672   7.0445   7.0601   7.0653   7.0969
     7.2533   7.2829   7.7566   7.7650   7.7696   7.7922   7.8141   7.8293
     9.8309   9.8477  10.7209  10.7623  10.7829  10.8025  11.8203  11.8677
    11.9505  11.9555  12.2346  12.2418  12.2670  12.2735  12.9096  12.9328
    13.1035  13.1482  13.1692  13.3300  13.5798  13.5987  13.6068  13.6928
    15.0571  15.3651  15.3782  15.4560  15.4632  15.7410  16.1242  16.1312
    16.2228  16.7984  17.3188  17.3807  17.3888

          k = 0.1667 0.3172 0.3332 ( 62489 PWs)   bands (ev):

   -66.1904 -66.1902 -66.1899 -66.1897 -66.1896 -66.1894 -66.1891 -66.1889
   -30.5811 -30.5791 -30.5775 -30.5755 -30.5521 -30.5499 -30.5477 -30.5454
   -30.5239 -30.5217 -30.5212 -30.5186 -30.5071 -30.5063 -30.5031 -30.5022
   -30.4593 -30.4580 -30.4555 -30.4541 -30.4395 -30.4379 -30.4373 -30.4357
   -20.3483 -20.3482 -20.3482 -20.3482 -20.3482 -20.3481 -20.3481 -20.3481
   -20.3349 -20.3348 -20.3346 -20.3345 -20.3322 -20.3320 -20.3319 -20.3317
   -20.3276 -20.3274 -20.3272 -20.3271 -20.3268 -20.3267 -20.3264 -20.3262
   -20.3262 -20.3261 -20.3259 -20.3257 -20.3255 -20.3254 -20.3254 -20.3251
   -20.3182 -20.3181 -20.3180 -20.3179 -20.3168 -20.3167 -20.3165 -20.3164
   -20.3099 -20.3099 -20.3097 -20.3097 -20.3091 -20.3091 -20.3088 -20.3088
   -20.3063 -20.3062 -20.3053 -20.3053 -20.3041 -20.3041 -20.3035 -20.3035
    -9.6563  -9.5011  -9.4337  -9.2882  -9.1900  -8.9960  -8.9115  -8.8884
    -8.8659  -8.7455  -8.7067  -8.6667  -8.3047  -8.2843  -8.2188  -8.2007
    -8.1923  -8.1420  -8.1313  -8.0730  -7.8908  -7.8778  -7.8254  -7.8134
     1.5182   1.5291   1.5341   1.5423   2.1222   2.2020   2.2107   2.3215
     2.3769   2.4328   2.4582   2.6511   2.8436   2.9025   2.9378   3.0141
     3.1656   3.2490   3.6150   3.6343   3.6726   3.7304   3.8429   3.9144
     4.0661   4.2366   4.3208   4.3527   4.4110   4.5180   4.5287   4.5956
     4.6427   4.7265   4.7598   4.8072   4.8596   4.9197   5.0690   5.1087
     5.2682   5.2791   5.3843   5.5633   5.7246   5.7795   6.1104   6.1266
     6.4846   6.5703   6.5778   6.6955   6.7643   6.7734   6.8811   6.9184
     6.9557   6.9774   7.0030   7.0213   7.0905   7.1287   7.1492   7.2146
     7.2438   7.3046   7.6844   7.6894   7.7253   7.7483   7.7747   7.8058
    10.4362  10.4656  10.7699  10.7887  11.2221  11.2626  11.8013  11.8404
    11.8703  12.0114  12.1271  12.1718  12.3997  12.4823  12.5821  12.6214
    12.8278  12.9895  13.0328  13.2458  13.2488  13.3053  13.5976  13.6364
    15.2407  15.3538  15.6944  15.9188  15.9529  15.9749  16.0630  16.6687
    16.6770  16.8051  16.9875  17.5296  17.6160

          k = 0.1667 0.3172-0.4998 ( 62480 PWs)   bands (ev):

   -66.1902 -66.1902 -66.1899 -66.1899 -66.1893 -66.1893 -66.1891 -66.1891
   -30.5802 -30.5802 -30.5766 -30.5766 -30.5510 -30.5510 -30.5466 -30.5466
   -30.5226 -30.5226 -30.5199 -30.5199 -30.4833 -30.4833 -30.4822 -30.4822
   -30.4794 -30.4794 -30.4782 -30.4782 -30.4384 -30.4384 -30.4368 -30.4368
   -20.3482 -20.3482 -20.3482 -20.3482 -20.3481 -20.3481 -20.3481 -20.3481
   -20.3349 -20.3349 -20.3346 -20.3346 -20.3321 -20.3321 -20.3318 -20.3318
   -20.3275 -20.3275 -20.3272 -20.3272 -20.3266 -20.3266 -20.3264 -20.3264
   -20.3258 -20.3258 -20.3257 -20.3257 -20.3256 -20.3256 -20.3254 -20.3254
   -20.3181 -20.3181 -20.3180 -20.3180 -20.3167 -20.3167 -20.3166 -20.3166
   -20.3094 -20.3094 -20.3094 -20.3094 -20.3081 -20.3081 -20.3081 -20.3081
   -20.3071 -20.3071 -20.3071 -20.3071 -20.3038 -20.3038 -20.3038 -20.3038
    -9.5247  -9.5247  -9.3708  -9.3708  -8.9991  -8.9991  -8.7777  -8.7777
    -8.6360  -8.6359  -8.6066  -8.6066  -8.5390  -8.5390  -8.4684  -8.4684
    -8.1972  -8.1972  -8.1650  -8.1650  -7.8580  -7.8580  -7.8455  -7.8455
     1.5348   1.5348   1.5461   1.5461   2.3107   2.3107   2.4222   2.4222
     2.9283   2.9284   3.0309   3.0309   3.0604   3.0604   3.2162   3.2162
     3.2569   3.2569   3.3934   3.3934   3.4291   3.4291   3.6478   3.6478
     4.0040   4.0040   4.0475   4.0475   4.0565   4.0565   4.3120   4.3120
     4.6788   4.6788   4.7585   4.7585   4.9333   4.9333   4.9621   4.9622
     5.0704   5.0704   5.4618   5.4618   5.8283   5.8283   5.8467   5.8467
     6.6178   6.6178   6.7302   6.7302   6.7798   6.7798   6.8114   6.8114
     6.9775   6.9775   7.0234   7.0234   7.1300   7.1300   7.4745   7.4745
     7.5064   7.5064   7.5279   7.5279   7.5656   7.5656   7.7847   7.7847
    10.7541  10.7541  11.1811  11.1811  11.2299  11.2299  11.7143  11.7143
    11.9353  11.9353  12.1136  12.1136  12.4992  12.4992  12.5459  12.5459
    12.7355  12.7355  12.8544  12.8544  13.1990  13.1990  13.6101  13.6101
    15.3127  15.3127  15.9047  15.9047  16.3164  16.3164  16.4224  16.4224
    16.8692  16.8692  17.2483  17.2483  17.8286

          k = 0.1667-0.4758 0.0000 ( 62496 PWs)   bands (ev):

   -66.1905 -66.1905 -66.1897 -66.1897 -66.1896 -66.1896 -66.1888 -66.1887
   -30.5670 -30.5670 -30.5632 -30.5632 -30.5630 -30.5630 -30.5593 -30.5593
   -30.5321 -30.5321 -30.5272 -30.5272 -30.5232 -30.5232 -30.5188 -30.5188
   -30.4399 -30.4399 -30.4358 -30.4358 -30.4342 -30.4342 -30.4303 -30.4303
   -20.3483 -20.3483 -20.3482 -20.3482 -20.3481 -20.3481 -20.3481 -20.3480
   -20.3336 -20.3336 -20.3333 -20.3333 -20.3333 -20.3333 -20.3330 -20.3330
   -20.3273 -20.3273 -20.3271 -20.3271 -20.3268 -20.3268 -20.3268 -20.3268
   -20.3261 -20.3261 -20.3260 -20.3260 -20.3253 -20.3253 -20.3251 -20.3251
   -20.3182 -20.3182 -20.3178 -20.3178 -20.3167 -20.3167 -20.3163 -20.3163
   -20.3117 -20.3117 -20.3106 -20.3106 -20.3100 -20.3100 -20.3087 -20.3087
   -20.3044 -20.3044 -20.3044 -20.3044 -20.3035 -20.3035 -20.3032 -20.3032
    -9.7571  -9.7571  -9.3835  -9.3835  -9.2810  -9.2810  -9.0383  -9.0383
    -8.5618  -8.5617  -8.5077  -8.5077  -8.4975  -8.4975  -8.4948  -8.4947
    -7.9185  -7.9185  -7.7973  -7.7973  -7.7852  -7.7852  -7.6732  -7.6732
     1.2284   1.2284   1.2473   1.2473   1.5064   1.5064   1.7330   1.7330
     2.5028   2.5028   3.1015   3.1015   3.1569   3.1569   3.2218   3.2218
     3.2424   3.2425   3.2728   3.2728   3.4257   3.4257   3.4859   3.4859
     3.6394   3.6394   4.4005   4.4005   4.7939   4.7939   4.9378   4.9379
     5.0641   5.0641   5.1357   5.1357   5.2733   5.2733   5.4407   5.4407
     5.6768   5.6768   5.7273   5.7273   6.0755   6.0755   6.0840   6.0840
     6.3426   6.3426   6.3755   6.3755   6.6680   6.6680   6.8543   6.8543
     6.9604   6.9604   7.0917   7.0917   7.1388   7.1388   7.4190   7.4190
     7.4410   7.4410   7.4669   7.4669   7.4865   7.4865   7.8205   7.8205
     9.5841   9.5841  11.1758  11.1758  11.2437  11.2437  11.3180  11.3180
    11.3900  11.3900  12.2036  12.2037  12.3488  12.3488  12.9210  12.9210
    13.3184  13.3184  13.4173  13.4174  13.5000  13.5000  13.5428  13.5428
    15.3190  15.3190  15.5473  15.5473  15.5881  15.5881  15.8901  15.8901
    16.5592  16.5592  17.8280  17.8280  18.0736

          k = 0.1667-0.4758 0.1666 ( 62494 PWs)   bands (ev):

   -66.1905 -66.1905 -66.1896 -66.1896 -66.1896 -66.1896 -66.1888 -66.1888
   -30.5669 -30.5669 -30.5635 -30.5635 -30.5630 -30.5630 -30.5597 -30.5597
   -30.5263 -30.5263 -30.5226 -30.5226 -30.5202 -30.5202 -30.5190 -30.5190
   -30.4409 -30.4409 -30.4397 -30.4397 -30.4375 -30.4375 -30.4351 -30.4351
   -20.3483 -20.3483 -20.3482 -20.3482 -20.3481 -20.3481 -20.3481 -20.3481
   -20.3336 -20.3336 -20.3333 -20.3333 -20.3333 -20.3333 -20.3330 -20.3330
   -20.3274 -20.3274 -20.3271 -20.3271 -20.3268 -20.3268 -20.3266 -20.3266
   -20.3261 -20.3261 -20.3260 -20.3260 -20.3254 -20.3254 -20.3252 -20.3251
   -20.3182 -20.3181 -20.3178 -20.3178 -20.3167 -20.3167 -20.3164 -20.3164
   -20.3112 -20.3112 -20.3102 -20.3102 -20.3099 -20.3099 -20.3088 -20.3088
   -20.3049 -20.3049 -20.3043 -20.3043 -20.3039 -20.3039 -20.3033 -20.3033
    -9.7006  -9.7006  -9.2986  -9.2984  -9.2963  -9.2962  -9.0017  -9.0016
    -8.5689  -8.5688  -8.5026  -8.5020  -8.5005  -8.5005  -8.4945  -8.4942
    -7.9133  -7.9129  -7.9082  -7.9081  -7.8224  -7.8223  -7.7815  -7.7814
     1.4023   1.4028   1.5055   1.5063   1.5120   1.5126   1.8156   1.8159
     2.5943   2.5946   3.1140   3.1144   3.1556   3.1646   3.2199   3.2238
     3.2378   3.2394   3.3149   3.3254   3.4739   3.4744   3.4842   3.4886
     3.6608   3.6622   4.4323   4.4423   4.4758   4.4877   4.8627   4.8710
     4.9380   4.9413   5.0403   5.0494   5.0865   5.0954   5.3860   5.3873
     5.4259   5.4264   5.7030   5.7121   5.7336   5.7400   6.3795   6.3915
[...]
    11.5411  11.5411  11.5411  11.5411  11.6053  11.6053  11.6053  11.6053
    11.9338  11.9338  11.9338  11.9338  12.1140  12.1140  12.1140  12.1140
    12.9384  12.9384  12.9384  12.9384  13.1104  13.1104  13.1104  13.1104
    15.2561  15.2561  15.2561  15.2561  16.7449  16.7449  16.7449  16.7449
    17.6425  17.6425  17.6425  17.6425  17.8543

          k =-0.5000 0.3172 0.0000 ( 62500 PWs)   bands (ev):

   -66.1902 -66.1902 -66.1900 -66.1900 -66.1893 -66.1893 -66.1891 -66.1891
   -30.5800 -30.5800 -30.5764 -30.5764 -30.5506 -30.5506 -30.5464 -30.5464
   -30.5297 -30.5296 -30.5289 -30.5289 -30.4827 -30.4827 -30.4810 -30.4810
   -30.4781 -30.4781 -30.4765 -30.4764 -30.4330 -30.4330 -30.4317 -30.4317
   -20.3483 -20.3482 -20.3482 -20.3482 -20.3481 -20.3481 -20.3481 -20.3481
   -20.3349 -20.3348 -20.3346 -20.3345 -20.3321 -20.3321 -20.3318 -20.3318
   -20.3272 -20.3272 -20.3270 -20.3270 -20.3266 -20.3266 -20.3266 -20.3266
   -20.3264 -20.3264 -20.3262 -20.3262 -20.3253 -20.3253 -20.3250 -20.3250
   -20.3174 -20.3174 -20.3173 -20.3173 -20.3171 -20.3170 -20.3170 -20.3170
   -20.3112 -20.3112 -20.3112 -20.3112 -20.3073 -20.3073 -20.3073 -20.3073
   -20.3061 -20.3061 -20.3061 -20.3061 -20.3040 -20.3040 -20.3039 -20.3039
    -9.5964  -9.5964  -9.4561  -9.4560  -8.9858  -8.9858  -8.7990  -8.7989
    -8.6163  -8.6163  -8.6120  -8.6120  -8.5480  -8.5479  -8.4631  -8.4631
    -8.1983  -8.1983  -8.1600  -8.1600  -7.7362  -7.7362  -7.7239  -7.7239
     1.2733   1.2733   1.2785   1.2785   2.3067   2.3067   2.4375   2.4375
     2.8685   2.8685   3.0005   3.0005   3.0490   3.0490   3.2191   3.2191
     3.2458   3.2458   3.3201   3.3201   3.3666   3.3666   3.6008   3.6008
     3.9921   3.9921   4.0198   4.0198   4.1052   4.1052   4.3151   4.3151
     4.7608   4.7608   4.8522   4.8522   5.0633   5.0633   5.2091   5.2091
     5.3590   5.3590   5.6790   5.6790   6.2206   6.2207   6.2698   6.2698
     6.4188   6.4188   6.4769   6.4769   6.4833   6.4833   6.7151   6.7151
     6.9950   6.9950   7.0184   7.0185   7.0522   7.0522   7.4635   7.4635
     7.4787   7.4787   7.5318   7.5318   7.5594   7.5594   7.8090   7.8090
    10.5874  10.5874  11.1067  11.1067  11.1441  11.1441  11.6302  11.6302
    11.9276  11.9276  12.0803  12.0803  12.5157  12.5157  12.5963  12.5963
    12.7834  12.7834  12.9148  12.9149  13.3618  13.3618  13.7670  13.7670
    15.0893  15.0893  15.6143  15.6143  16.2488  16.2488  16.4286  16.4287
    16.7928  16.7928  17.2096  17.2096  17.9210

          k =-0.5000 0.3172 0.1666 ( 62474 PWs)   bands (ev):

   -66.1902 -66.1901 -66.1900 -66.1899 -66.1893 -66.1893 -66.1891 -66.1891
   -30.5799 -30.5799 -30.5767 -30.5767 -30.5505 -30.5504 -30.5467 -30.5467
   -30.5232 -30.5232 -30.5223 -30.5223 -30.4824 -30.4824 -30.4807 -30.4807
   -30.4784 -30.4784 -30.4768 -30.4768 -30.4395 -30.4395 -30.4382 -30.4382
   -20.3482 -20.3482 -20.3482 -20.3482 -20.3481 -20.3481 -20.3481 -20.3481
   -20.3349 -20.3348 -20.3346 -20.3346 -20.3321 -20.3321 -20.3318 -20.3318
   -20.3272 -20.3272 -20.3270 -20.3270 -20.3267 -20.3267 -20.3264 -20.3264
   -20.3264 -20.3264 -20.3262 -20.3262 -20.3253 -20.3253 -20.3251 -20.3251
   -20.3174 -20.3174 -20.3173 -20.3173 -20.3171 -20.3171 -20.3170 -20.3170
   -20.3107 -20.3107 -20.3107 -20.3107 -20.3073 -20.3072 -20.3072 -20.3072
   -20.3062 -20.3062 -20.3062 -20.3062 -20.3045 -20.3045 -20.3044 -20.3044
    -9.5259  -9.5258  -9.3733  -9.3733  -8.9997  -8.9997  -8.7788  -8.7788
    -8.6333  -8.6333  -8.6051  -8.6050  -8.5363  -8.5363  -8.4669  -8.4669
    -8.1956  -8.1956  -8.1651  -8.1651  -7.8598  -7.8598  -7.8472  -7.8472
     1.5287   1.5288   1.5394   1.5394   2.3093   2.3093   2.4213   2.4213
     2.9394   2.9394   3.0253   3.0253   3.0521   3.0521   3.2201   3.2201
     3.2564   3.2564   3.4046   3.4046   3.4295   3.4295   3.6453   3.6453
     3.9913   3.9913   4.0216   4.0216   4.1021   4.1021   4.3209   4.3209
     4.6739   4.6739   4.7495   4.7495   4.9325   4.9325   4.9643   4.9644
     5.0724   5.0724   5.4614   5.4614   5.8257   5.8257   5.8452   5.8452
     6.6189   6.6189   6.7360   6.7360   6.7834   6.7834   6.8122   6.8122
     6.9713   6.9714   7.0256   7.0256   7.1254   7.1254   7.4694   7.4694
     7.4949   7.4949   7.5420   7.5420   7.5713   7.5713   7.7876   7.7876
    10.7524  10.7524  11.1838  11.1838  11.2281  11.2281  11.6880  11.6880
    11.9382  11.9383  12.1178  12.1178  12.4981  12.4981  12.5635  12.5635
    12.7367  12.7367  12.8639  12.8639  13.1962  13.1962  13.6174  13.6174
    15.3132  15.3132  15.8971  15.8971  16.3152  16.3152  16.4220  16.4220
    16.8524  16.8524  17.2497  17.2497  17.8221

          k =-0.5000 0.3172 0.3332 ( 62492 PWs)   bands (ev):

   -66.1900 -66.1900 -66.1898 -66.1898 -66.1895 -66.1895 -66.1893 -66.1893
   -30.5795 -30.5794 -30.5775 -30.5775 -30.5498 -30.5498 -30.5476 -30.5476
   -30.5058 -30.5057 -30.5046 -30.5046 -30.4815 -30.4815 -30.4800 -30.4800
   -30.4791 -30.4790 -30.4777 -30.4777 -30.4570 -30.4570 -30.4558 -30.4558
   -20.3482 -20.3482 -20.3482 -20.3482 -20.3481 -20.3481 -20.3481 -20.3481
   -20.3348 -20.3348 -20.3347 -20.3347 -20.3321 -20.3321 -20.3319 -20.3319
   -20.3271 -20.3271 -20.3270 -20.3270 -20.3267 -20.3267 -20.3265 -20.3265
   -20.3261 -20.3261 -20.3259 -20.3259 -20.3255 -20.3255 -20.3253 -20.3253
   -20.3174 -20.3174 -20.3173 -20.3173 -20.3172 -20.3172 -20.3171 -20.3171
   -20.3094 -20.3094 -20.3094 -20.3094 -20.3071 -20.3070 -20.3070 -20.3070
   -20.3064 -20.3064 -20.3064 -20.3064 -20.3058 -20.3058 -20.3057 -20.3057
    -9.3462  -9.3462  -9.1466  -9.1466  -9.0482  -9.0482  -8.7166  -8.7166
    -8.6809  -8.6809  -8.5723  -8.5723  -8.5131  -8.5131  -8.4754  -8.4753
    -8.2179  -8.2179  -8.1828  -8.1828  -8.1563  -8.1563  -8.1083  -8.1083
     2.1525   2.1525   2.2322   2.2323   2.3181   2.3181   2.4453   2.4453
     3.0077   3.0077   3.0555   3.0555   3.1433   3.1433   3.2186   3.2186
     3.3008   3.3008   3.5753   3.5753   3.6624   3.6624   3.7524   3.7524
     3.9718   3.9718   4.0359   4.0360   4.0985   4.0985   4.1824   4.1824
     4.2778   4.2778   4.4141   4.4141   4.5581   4.5581   4.7874   4.7874
     4.8956   4.8956   4.9591   4.9591   5.0042   5.0042   5.2479   5.2479
     6.8110   6.8110   6.8674   6.8674   6.9297   6.9297   6.9866   6.9866
     7.1240   7.1240   7.2283   7.2283   7.3399   7.3399   7.4583   7.4583
     7.4981   7.4981   7.5666   7.5666   7.5925   7.5925   7.7290   7.7290
    11.1816  11.1816  11.4269  11.4269  11.5067  11.5067  11.7824  11.7824
    11.9811  11.9811  12.2565  12.2565  12.3014  12.3014  12.3419  12.3419
    12.6418  12.6418  12.7367  12.7367  12.8040  12.8040  13.2267  13.2267
    15.8480  15.8480  16.3380  16.3380  16.5629  16.5629  16.6804  16.6804
    17.0810  17.0810  17.3211  17.3211  17.5782

          k =-0.5000 0.3172-0.4998 ( 62504 PWs)   bands (ev):

   -66.1898 -66.1897 -66.1897 -66.1897 -66.1895 -66.1895 -66.1895 -66.1895
   -30.5786 -30.5786 -30.5786 -30.5785 -30.5487 -30.5487 -30.5487 -30.5487
   -30.4838 -30.4838 -30.4838 -30.4838 -30.4819 -30.4819 -30.4819 -30.4819
   -30.4786 -30.4786 -30.4786 -30.4786 -30.4766 -30.4766 -30.4766 -30.4766
   -20.3482 -20.3482 -20.3482 -20.3482 -20.3482 -20.3481 -20.3481 -20.3481
   -20.3348 -20.3347 -20.3347 -20.3347 -20.3320 -20.3320 -20.3320 -20.3320
   -20.3270 -20.3270 -20.3270 -20.3270 -20.3267 -20.3267 -20.3267 -20.3267
   -20.3258 -20.3258 -20.3258 -20.3258 -20.3255 -20.3255 -20.3255 -20.3255
   -20.3173 -20.3173 -20.3173 -20.3173 -20.3172 -20.3172 -20.3172 -20.3172
   -20.3077 -20.3077 -20.3077 -20.3077 -20.3077 -20.3076 -20.3076 -20.3076
   -20.3067 -20.3067 -20.3067 -20.3067 -20.3066 -20.3066 -20.3066 -20.3066
    -9.1582  -9.1582  -9.1582  -9.1582  -8.8656  -8.8656  -8.8656  -8.8656
    -8.5570  -8.5570  -8.5570  -8.5569  -8.4473  -8.4473  -8.4473  -8.4473
    -8.4289  -8.4289  -8.4289  -8.4289  -8.1681  -8.1681  -8.1681  -8.1681
     2.3196   2.3196   2.3196   2.3196   2.9589   2.9589   2.9589   2.9589
     3.0494   3.0494   3.0494   3.0494   3.1941   3.1941   3.1941   3.1941
     3.2589   3.2589   3.2590   3.2590   3.8998   3.8998   3.8998   3.8998
     3.9506   3.9506   3.9506   3.9506   4.0249   4.0249   4.0249   4.0249
     4.2583   4.2583   4.2583   4.2583   4.2976   4.2976   4.2976   4.2976
     4.6627   4.6627   4.6627   4.6627   4.9825   4.9825   4.9825   4.9825
     6.8744   6.8744   6.8744   6.8744   6.9666   6.9666   6.9666   6.9666
     7.3558   7.3558   7.3559   7.3559   7.4258   7.4258   7.4258   7.4258
     7.5341   7.5341   7.5341   7.5341   7.6485   7.6485   7.6485   7.6485
    11.6833  11.6833  11.6833  11.6833  11.7461  11.7461  11.7461  11.7461
    11.9761  11.9761  11.9761  11.9761  12.2022  12.2022  12.2022  12.2022
    12.6136  12.6136  12.6136  12.6136  12.8028  12.8028  12.8028  12.8028
    16.2077  16.2077  16.2077  16.2077  16.9259  16.9259  16.9259  16.9259
    17.4349  17.4349  17.4349  17.4349  17.8555

          k =-0.5000-0.4758 0.0000 ( 62492 PWs)   bands (ev):

   -66.1901 -66.1901 -66.1901 -66.1901 -66.1892 -66.1892 -66.1892 -66.1892
   -30.5652 -30.5652 -30.5650 -30.5650 -30.5615 -30.5615 -30.5612 -30.5612
   -30.5295 -30.5295 -30.5294 -30.5294 -30.4821 -30.4821 -30.4817 -30.4817
   -30.4775 -30.4775 -30.4772 -30.4772 -30.4324 -30.4324 -30.4324 -30.4323
   -20.3482 -20.3482 -20.3482 -20.3482 -20.3481 -20.3481 -20.3481 -20.3481
   -20.3335 -20.3335 -20.3335 -20.3335 -20.3332 -20.3332 -20.3331 -20.3331
   -20.3270 -20.3270 -20.3269 -20.3269 -20.3266 -20.3266 -20.3266 -20.3266
   -20.3264 -20.3264 -20.3264 -20.3264 -20.3252 -20.3252 -20.3252 -20.3252
   -20.3174 -20.3174 -20.3174 -20.3174 -20.3170 -20.3170 -20.3170 -20.3170
   -20.3112 -20.3112 -20.3112 -20.3112 -20.3073 -20.3073 -20.3073 -20.3073
   -20.3061 -20.3061 -20.3061 -20.3061 -20.3040 -20.3039 -20.3039 -20.3039
    -9.5140  -9.5140  -9.5116  -9.5116  -8.7536  -8.7536  -8.7423  -8.7423
    -8.6674  -8.6674  -8.6585  -8.6585  -8.4536  -8.4536  -8.4342  -8.4342
    -8.3906  -8.3906  -8.3726  -8.3725  -7.7302  -7.7302  -7.7301  -7.7301
     1.2761   1.2761   1.2786   1.2786   2.9326   2.9326   2.9902   2.9902
     3.1056   3.1057   3.1167   3.1167   3.1392   3.1393   3.1482   3.1482
     3.2802   3.2802   3.2817   3.2817   3.3708   3.3708   3.4313   3.4313
     3.4787   3.4787   3.6468   3.6468   4.2269   4.2269   4.2631   4.2631
     4.3210   4.3210   4.3775   4.3775   5.1415   5.1415   5.1606   5.1606
     5.4414   5.4414   5.4644   5.4644   6.2598   6.2598   6.2663   6.2663
     6.4734   6.4734   6.4777   6.4777   6.5730   6.5730   6.6012   6.6012
     7.2377   7.2377   7.2599   7.2599   7.2756   7.2756   7.3805   7.3805
     7.3952   7.3952   7.4560   7.4560   7.5513   7.5513   7.5562   7.5562
    11.1007  11.1007  11.1117  11.1117  11.2211  11.2211  11.2352  11.2352
    12.1859  12.1859  12.2129  12.2129  12.2551  12.2551  12.2775  12.2775
    12.8174  12.8174  12.8196  12.8196  13.5150  13.5150  13.5313  13.5313
    15.4399  15.4399  15.4424  15.4424  16.7798  16.7798  16.8230  16.8230
    17.2990  17.2990  17.3385  17.3387  17.4373

          k =-0.5000-0.4758 0.1666 ( 62460 PWs)   bands (ev):

   -66.1901 -66.1901 -66.1900 -66.1900 -66.1892 -66.1892 -66.1892 -66.1892
   -30.5652 -30.5652 -30.5649 -30.5649 -30.5619 -30.5619 -30.5615 -30.5615
   -30.5229 -30.5229 -30.5229 -30.5229 -30.4818 -30.4818 -30.4814 -30.4814
   -30.4778 -30.4778 -30.4775 -30.4775 -30.4388 -30.4388 -30.4388 -30.4388
   -20.3482 -20.3482 -20.3482 -20.3482 -20.3481 -20.3481 -20.3481 -20.3481
   -20.3335 -20.3335 -20.3334 -20.3334 -20.3332 -20.3332 -20.3332 -20.3332
   -20.3270 -20.3270 -20.3270 -20.3270 -20.3266 -20.3265 -20.3265 -20.3265
   -20.3264 -20.3264 -20.3263 -20.3263 -20.3253 -20.3253 -20.3253 -20.3252
   -20.3174 -20.3174 -20.3174 -20.3174 -20.3171 -20.3171 -20.3170 -20.3170
   -20.3107 -20.3107 -20.3107 -20.3107 -20.3073 -20.3072 -20.3072 -20.3072
   -20.3062 -20.3062 -20.3062 -20.3062 -20.3044 -20.3044 -20.3044 -20.3044
    -9.4355  -9.4355  -9.4327  -9.4327  -8.7722  -8.7722  -8.7611  -8.7610
    -8.6507  -8.6507  -8.6405  -8.6405  -8.4510  -8.4509  -8.4319  -8.4319
    -8.3925  -8.3925  -8.3753  -8.3753  -7.8539  -7.8539  -7.8536  -7.8536
     1.5355   1.5355   1.5387   1.5387   2.9379   2.9379   2.9936   2.9936
     3.0881   3.0881   3.0960   3.0960   3.1646   3.1646   3.2079   3.2079
     3.2655   3.2655   3.3810   3.3810   3.4180   3.4180   3.4804   3.4804
     3.5184   3.5185   3.6749   3.6749   4.2304   4.2304   4.2620   4.2620
     4.3141   4.3142   4.3700   4.3700   4.8165   4.8165   4.9750   4.9750
     5.0937   5.0937   5.2375   5.2375   5.8265   5.8265   5.8406   5.8406
     6.6967   6.6967   6.7400   6.7400   6.8113   6.8113   6.8479   6.8479
     7.2295   7.2295   7.2531   7.2531   7.3086   7.3086   7.3693   7.3693
     7.3971   7.3971   7.4624   7.4624   7.5519   7.5519   7.5806   7.5807
    11.1585  11.1585  11.1932  11.1932  11.3267  11.3267  11.3891  11.3891
    12.1857  12.1857  12.2171  12.2171  12.2541  12.2541  12.2854  12.2854
    12.7112  12.7112  12.7809  12.7809  13.3381  13.3381  13.3867  13.3867
    15.7083  15.7083  15.7276  15.7276  16.8390  16.8390  16.8799  16.8800
    17.3063  17.3063  17.3509  17.3509  17.4284

          k =-0.5000-0.4758 0.3332 ( 62448 PWs)   bands (ev):

   -66.1899 -66.1899 -66.1899 -66.1899 -66.1894 -66.1894 -66.1894 -66.1894
   -30.5647 -30.5647 -30.5644 -30.5644 -30.5627 -30.5627 -30.5624 -30.5624
   -30.5053 -30.5053 -30.5052 -30.5052 -30.4809 -30.4809 -30.4805 -30.4805
   -30.4787 -30.4787 -30.4784 -30.4784 -30.4565 -30.4565 -30.4564 -30.4564
   -20.3482 -20.3482 -20.3482 -20.3482 -20.3481 -20.3481 -20.3481 -20.3481
   -20.3335 -20.3335 -20.3334 -20.3334 -20.3333 -20.3333 -20.3333 -20.3333
   -20.3270 -20.3270 -20.3269 -20.3269 -20.3266 -20.3266 -20.3266 -20.3266
   -20.3261 -20.3261 -20.3261 -20.3261 -20.3254 -20.3254 -20.3254 -20.3254
   -20.3174 -20.3173 -20.3173 -20.3173 -20.3172 -20.3171 -20.3171 -20.3171
   -20.3094 -20.3094 -20.3094 -20.3094 -20.3071 -20.3070 -20.3070 -20.3070
   -20.3064 -20.3064 -20.3064 -20.3064 -20.3058 -20.3057 -20.3057 -20.3057
    -9.2254  -9.2254  -9.2212  -9.2212  -8.8335  -8.8335  -8.8229  -8.8228
    -8.5940  -8.5939  -8.5837  -8.5836  -8.4440  -8.4439  -8.4291  -8.4291
    -8.3949  -8.3949  -8.3826  -8.3826  -8.1491  -8.1491  -8.1481  -8.1481
     2.2203   2.2203   2.2266   2.2266   2.9505   2.9505   2.9844   2.9844
     3.0783   3.0783   3.0877   3.0877   3.2119   3.2119   3.2286   3.2286
     3.3443   3.3443   3.3800   3.3800   3.5831   3.5831   3.6160   3.6160
     3.7245   3.7245   3.8045   3.8046   4.2001   4.2001   4.2221   4.2221
     4.2684   4.2684   4.3322   4.3322   4.4062   4.4062   4.5075   4.5076
     4.6071   4.6071   4.7509   4.7509   5.0142   5.0142   5.0332   5.0332
     6.9687   6.9687   7.0264   7.0264   7.1311   7.1311   7.1409   7.1409
     7.2285   7.2285   7.2685   7.2685   7.3096   7.3096   7.3568   7.3568
     7.4350   7.4350   7.5026   7.5026   7.5672   7.5673   7.5966   7.5966
    11.3937  11.3937  11.4288  11.4288  11.6757  11.6757  11.7524  11.7524
    12.1401  12.1401  12.1932  12.1932  12.2475  12.2475  12.2877  12.2877
    12.4404  12.4404  12.5536  12.5536  12.8975  12.8975  12.9767  12.9767
    16.4522  16.4522  16.5008  16.5008  17.0100  17.0100  17.0366  17.0366
    17.2973  17.2973  17.3707  17.3710  17.4046

          k =-0.5000-0.4758-0.4998 ( 62448 PWs)   bands (ev):

   -66.1897 -66.1896 -66.1896 -66.1896 -66.1896 -66.1896 -66.1896 -66.1896
   -30.5637 -30.5637 -30.5637 -30.5637 -30.5634 -30.5634 -30.5634 -30.5634
   -30.4836 -30.4836 -30.4836 -30.4836 -30.4819 -30.4819 -30.4819 -30.4819
   -30.4786 -30.4786 -30.4786 -30.4786 -30.4769 -30.4769 -30.4769 -30.4769
   -20.3482 -20.3482 -20.3482 -20.3482 -20.3482 -20.3482 -20.3482 -20.3481
   -20.3334 -20.3334 -20.3334 -20.3334 -20.3334 -20.3334 -20.3333 -20.3333
   -20.3269 -20.3269 -20.3269 -20.3269 -20.3267 -20.3267 -20.3267 -20.3267
   -20.3258 -20.3258 -20.3258 -20.3258 -20.3256 -20.3256 -20.3256 -20.3256
   -20.3173 -20.3173 -20.3173 -20.3173 -20.3172 -20.3172 -20.3172 -20.3172
   -20.3077 -20.3077 -20.3077 -20.3077 -20.3077 -20.3076 -20.3076 -20.3076
   -20.3067 -20.3067 -20.3067 -20.3067 -20.3066 -20.3066 -20.3066 -20.3066
    -8.9807  -8.9807  -8.9807  -8.9807  -8.9728  -8.9728  -8.9728  -8.9728
    -8.4643  -8.4642  -8.4642  -8.4642  -8.4532  -8.4532  -8.4532  -8.4532
    -8.3979  -8.3978  -8.3978  -8.3978  -8.3881  -8.3881  -8.3881  -8.3881
     2.9405   2.9405   2.9405   2.9406   2.9718   2.9718   2.9718   2.9718
     3.0901   3.0901   3.0901   3.0901   3.1325   3.1325   3.1325   3.1325
     3.3616   3.3616   3.3616   3.3616   3.4367   3.4367   3.4367   3.4367
     4.1012   4.1012   4.1012   4.1012   4.1149   4.1149   4.1149   4.1149
     4.3039   4.3039   4.3039   4.3039   4.3183   4.3183   4.3183   4.3183
     4.3988   4.3988   4.3988   4.3988   4.4235   4.4235   4.4235   4.4235
     7.1177   7.1177   7.1177   7.1177   7.2014   7.2014   7.2014   7.2014
     7.2881   7.2881   7.2881   7.2881   7.3003   7.3003   7.3003   7.3003
     7.5446   7.5447   7.5447   7.5447   7.5687   7.5688   7.5688   7.5688
    11.7827  11.7827  11.7827  11.7827  11.7903  11.7903  11.7903  11.7903
    12.1722  12.1722  12.1722  12.1722  12.2511  12.2511  12.2511  12.2511
    12.4413  12.4413  12.4413  12.4413  12.4774  12.4774  12.4774  12.4774
    17.1134  17.1134  17.1134  17.1134  17.1544  17.1545  17.1545  17.1545
    17.3597  17.3597  17.3597  17.3598  17.3763

     the Fermi energy is     9.5702 ev

!    total energy              =   -6260.97241872 Ry
     Harris-Foulkes estimate   =   -6260.97241873 Ry
     estimated scf accuracy    <          1.2E-09 Ry

     The total energy is the sum of the following terms:

     one-electron contribution =   -4736.32230560 Ry
     hartree contribution      =    2604.65484247 Ry
     xc contribution           =    -965.88871983 Ry
     ewald contribution        =   -3163.41620089 Ry
     smearing contrib. (-TS)   =      -0.00003487 Ry

     convergence has been achieved in  13 iterations

     Writing output data file Landau_5.save
 
     init_run     :     32.24s CPU     34.19s WALL (       1 calls)
     electrons    :   1239.74s CPU   1274.78s WALL (       1 calls)

     Called by init_run:
     wfcinit      :     29.79s CPU     31.59s WALL (       1 calls)
     potinit      :      0.96s CPU      1.00s WALL (       1 calls)

     Called by electrons:
     c_bands      :   1079.54s CPU   1112.70s WALL (      13 calls)
     sum_band     :    154.11s CPU    155.25s WALL (      13 calls)
     v_of_rho     :      1.30s CPU      1.33s WALL (      14 calls)
     mix_rho      :      2.93s CPU      3.43s WALL (      13 calls)

     Called by c_bands:
     init_us_2    :     11.29s CPU     11.87s WALL (      54 calls)
     cegterg      :    920.88s CPU    952.58s WALL (      26 calls)

     Called by sum_band:

     Called by *egterg:
     h_psi        :    751.19s CPU    756.73s WALL (     122 calls)
     g_psi        :      1.82s CPU      1.82s WALL (      94 calls)
     cdiaghg      :     12.86s CPU     12.93s WALL (     120 calls)

     Called by h_psi:
     h_psi:pot    :    745.16s CPU    750.28s WALL (     122 calls)
     h_psi:calbec :     71.44s CPU     73.87s WALL (     122 calls)
     vloc_psi     :    597.76s CPU    600.07s WALL (     122 calls)
     add_vuspsi   :     75.96s CPU     76.34s WALL (     122 calls)

     General routines
     calbec       :     71.44s CPU     73.87s WALL (     122 calls)
     fft          :      0.98s CPU      0.98s WALL (      56 calls)
     fftw         :    600.35s CPU    602.12s WALL (   33672 calls)
 
     Parallel routines
 
     PWSCF        : 21m13.22s CPU    21m53.76s WALL

 
   This run was terminated on:   3:22:15  19Mar2020            

=------------------------------------------------------------------------------=
   JOB DONE.
=------------------------------------------------------------------------------=
