
     Program PWSCF v.6.4.1 starts on 22Nov2019 at 13: 4:17 

     This program is part of the open-source Quantum ESPRESSO suite
     for quantum simulation of materials; please cite
         "P. Giannozzi et al., J. Phys.:Condens. Matter 21 395502 (2009);
         "P. Giannozzi et al., J. Phys.:Condens. Matter 29 465901 (2017);
          URL http://www.quantum-espresso.org", 
     in publications or presentations arising from this work. More details at
     http://www.quantum-espresso.org/quote

     Parallel version (MPI), running on    40 processors

     MPI processes distributed on     3 nodes
     K-points division:     npool     =      40
     Reading input from scf.in

     Current dimensions of program PWSCF are:
     Max number of different atomic species (ntypx) = 10
     Max number of k-points (npk) =  40000
     Max angular momentum in pseudopotentials (lmaxx) =  3

     Subspace diagonalization in iterative solution of the eigenvalue problem:
     a serial algorithm will be used

     Message from routine setup:
     using ibrav=0 with symmetry is DISCOURAGED, use correct ibrav instead
 
     G-vector sticks info
     --------------------
     sticks:   dense  smooth     PW     G-vecs:    dense   smooth      PW
     Sum        7637    7637   2045               496697   496697   68823
 


     bravais-lattice index     =            0
     lattice parameter (alat)  =      14.1066  a.u.
     unit-cell volume          =    2796.9345 (a.u.)^3
     number of atoms/cell      =           32
     number of atomic types    =            2
     number of electrons       =       368.84
     number of Kohn-Sham states=          221
     kinetic-energy cutoff     =     120.0000  Ry
     charge density cutoff     =     480.0000  Ry
     convergence threshold     =      1.0E-08
     mixing beta               =       0.7000
     number of iterations used =            8  plain     mixing
     Exchange-correlation      = SLA PW NOGX NOGC ( 1  4  0  0 0 0)

     celldm(1)=  14.106570  celldm(2)=   0.000000  celldm(3)=   0.000000
     celldm(4)=   0.000000  celldm(5)=   0.000000  celldm(6)=   0.000000

     crystal axes: (cart. coord. in units of alat)
               a(1) = (   1.000000   0.000000   0.000000 )  
               a(2) = (   0.000000   1.004495   0.000000 )  
               a(3) = (   0.000000   0.000000   0.991906 )  

     reciprocal axes: (cart. coord. in units 2 pi/alat)
               b(1) = (  1.000000  0.000000  0.000000 )  
               b(2) = (  0.000000  0.995525  0.000000 )  
               b(3) = (  0.000000  0.000000  1.008160 )  


     PseudoPot. # 1 for W  read from file:
     /cluster/scratch/mnoe/QE/pps/W_ONCV_LDA-4.0.upf
     MD5 check sum: ba0307d5d4cd419d6f1d13dc49d7c13a
     Pseudo is Norm-conserving + core correction, Zval = 28.0
     Generated using ONCVPSP code by D. R. Hamann
     Using radial grid of 1380 points,  8 beta functions with: 
                l(1) =   0
                l(2) =   0
                l(3) =   1
                l(4) =   1
                l(5) =   2
                l(6) =   2
                l(7) =   3
                l(8) =   3

     PseudoPot. # 2 for O  read from file:
     /cluster/scratch/mnoe/QE/pps/O_ONCV_LDA-3.0.upf
     MD5 check sum: b55cdb4f45ae2203d24ad12cf8d61a31
     Pseudo is Norm-conserving + core correction, Zval =  6.0
     Generated using ONCVPSP code by D. R. Hamann
     Using radial grid of  926 points,  5 beta functions with: 
                l(1) =   0
                l(2) =   0
                l(3) =   1
                l(4) =   1
                l(5) =   2

     atomic species   valence    mass     pseudopotential
        W             28.00   183.84000     W ( 1.00)
        O              6.00    15.99940     O ( 1.00)

      8 Sym. Ops., with inversion, found ( 6 have fractional translation)



   Cartesian axes

     site n.     atom                  positions (alat units)
         1           W   tau(   1) = (   0.2319600   0.2964308   0.0169021  )
         2           W   tau(   2) = (   0.7680400   0.7080640   0.9750035  )
         3           W   tau(   3) = (   0.2680400   0.2058166   0.5128549  )
         4           W   tau(   4) = (   0.7319600   0.7986782   0.4790507  )
         5           W   tau(   5) = (   0.7680400   0.2964308   0.4790507  )
         6           W   tau(   6) = (   0.2319600   0.7080640   0.5128549  )
         7           W   tau(   7) = (   0.7319600   0.2058166   0.9750035  )
         8           W   tau(   8) = (   0.2680400   0.7986782   0.0169021  )
         9           O   tau(   9) = (   0.2167300   0.0335314   0.0052571  )
        10           O   tau(  10) = (   0.7832700   0.9709634   0.9866486  )
        11           O   tau(  11) = (   0.2832700   0.4687159   0.5012099  )
        12           O   tau(  12) = (   0.7167300   0.5357788   0.4906957  )
        13           O   tau(  13) = (   0.7832700   0.0335314   0.4906957  )
        14           O   tau(  14) = (   0.2167300   0.9709634   0.5012099  )
        15           O   tau(  15) = (   0.7167300   0.4687159   0.9866486  )
        16           O   tau(  16) = (   0.2832700   0.5357788   0.0052571  )
        17           O   tau(  17) = (   0.5049300   0.2168403   0.5138039  )
        18           O   tau(  18) = (   0.4950700   0.7876545   0.4781018  )
        19           O   tau(  19) = (   0.9950700   0.2854071   1.0097567  )
        20           O   tau(  20) = (   0.0049300   0.7190877  -0.0178510  )
        21           O   tau(  21) = (   0.4950700   0.2168403  -0.0178510  )
        22           O   tau(  22) = (   0.5049300   0.7876545   1.0097567  )
        23           O   tau(  23) = (   0.0049300   0.2854071   0.4781018  )
        24           O   tau(  24) = (   0.9950700   0.7190877   0.5138039  )
        25           O   tau(  25) = (   0.7679968   0.2436402   0.7365097  )
        26           O   tau(  26) = (   0.2320033   0.7608545   0.2553959  )
        27           O   tau(  27) = (   0.7320033   0.2586072   0.2405569  )
        28           O   tau(  28) = (   0.2679968   0.7458876   0.7513487  )
        29           O   tau(  29) = (   0.2320033   0.2436402   0.7513487  )
        30           O   tau(  30) = (   0.7679968   0.7608545   0.2405569  )
        31           O   tau(  31) = (   0.2679968   0.2586072   0.2553959  )
        32           O   tau(  32) = (   0.7320033   0.7458876   0.7365097  )

     number of k points=    64  gaussian smearing, width (Ry)=  0.0007
                       cart. coord. in units 2pi/alat
        k(    1) = (   0.0000000   0.0000000   0.0000000), wk =   0.0092593
        k(    2) = (   0.0000000   0.0000000   0.1680267), wk =   0.0185185
        k(    3) = (   0.0000000   0.0000000   0.3360535), wk =   0.0185185
        k(    4) = (   0.0000000   0.0000000  -0.5040802), wk =   0.0092593
        k(    5) = (   0.0000000   0.1659209   0.0000000), wk =   0.0185185
        k(    6) = (   0.0000000   0.1659209   0.1680267), wk =   0.0370370
        k(    7) = (   0.0000000   0.1659209   0.3360535), wk =   0.0370370
        k(    8) = (   0.0000000   0.1659209  -0.5040802), wk =   0.0185185
        k(    9) = (   0.0000000   0.3318418   0.0000000), wk =   0.0185185
        k(   10) = (   0.0000000   0.3318418   0.1680267), wk =   0.0370370
        k(   11) = (   0.0000000   0.3318418   0.3360535), wk =   0.0370370
        k(   12) = (   0.0000000   0.3318418  -0.5040802), wk =   0.0185185
        k(   13) = (   0.0000000  -0.4977627   0.0000000), wk =   0.0092593
        k(   14) = (   0.0000000  -0.4977627   0.1680267), wk =   0.0185185
        k(   15) = (   0.0000000  -0.4977627   0.3360535), wk =   0.0185185
        k(   16) = (   0.0000000  -0.4977627  -0.5040802), wk =   0.0092593
        k(   17) = (   0.1666667   0.0000000   0.0000000), wk =   0.0185185
        k(   18) = (   0.1666667   0.0000000   0.1680267), wk =   0.0370370
        k(   19) = (   0.1666667   0.0000000   0.3360535), wk =   0.0370370
        k(   20) = (   0.1666667   0.0000000  -0.5040802), wk =   0.0185185
        k(   21) = (   0.1666667   0.1659209   0.0000000), wk =   0.0370370
        k(   22) = (   0.1666667   0.1659209   0.1680267), wk =   0.0740741
        k(   23) = (   0.1666667   0.1659209   0.3360535), wk =   0.0740741
        k(   24) = (   0.1666667   0.1659209  -0.5040802), wk =   0.0370370
        k(   25) = (   0.1666667   0.3318418   0.0000000), wk =   0.0370370
        k(   26) = (   0.1666667   0.3318418   0.1680267), wk =   0.0740741
        k(   27) = (   0.1666667   0.3318418   0.3360535), wk =   0.0740741
        k(   28) = (   0.1666667   0.3318418  -0.5040802), wk =   0.0370370
        k(   29) = (   0.1666667  -0.4977627   0.0000000), wk =   0.0185185
        k(   30) = (   0.1666667  -0.4977627   0.1680267), wk =   0.0370370
        k(   31) = (   0.1666667  -0.4977627   0.3360535), wk =   0.0370370
        k(   32) = (   0.1666667  -0.4977627  -0.5040802), wk =   0.0185185
        k(   33) = (   0.3333333   0.0000000   0.0000000), wk =   0.0185185
        k(   34) = (   0.3333333   0.0000000   0.1680267), wk =   0.0370370
        k(   35) = (   0.3333333   0.0000000   0.3360535), wk =   0.0370370
        k(   36) = (   0.3333333   0.0000000  -0.5040802), wk =   0.0185185
        k(   37) = (   0.3333333   0.1659209   0.0000000), wk =   0.0370370
        k(   38) = (   0.3333333   0.1659209   0.1680267), wk =   0.0740741
        k(   39) = (   0.3333333   0.1659209   0.3360535), wk =   0.0740741
        k(   40) = (   0.3333333   0.1659209  -0.5040802), wk =   0.0370370
        k(   41) = (   0.3333333   0.3318418   0.0000000), wk =   0.0370370
        k(   42) = (   0.3333333   0.3318418   0.1680267), wk =   0.0740741
        k(   43) = (   0.3333333   0.3318418   0.3360535), wk =   0.0740741
        k(   44) = (   0.3333333   0.3318418  -0.5040802), wk =   0.0370370
        k(   45) = (   0.3333333  -0.4977627   0.0000000), wk =   0.0185185
        k(   46) = (   0.3333333  -0.4977627   0.1680267), wk =   0.0370370
        k(   47) = (   0.3333333  -0.4977627   0.3360535), wk =   0.0370370
        k(   48) = (   0.3333333  -0.4977627  -0.5040802), wk =   0.0185185
        k(   49) = (  -0.5000000   0.0000000   0.0000000), wk =   0.0092593
        k(   50) = (  -0.5000000   0.0000000   0.1680267), wk =   0.0185185
        k(   51) = (  -0.5000000   0.0000000   0.3360535), wk =   0.0185185
        k(   52) = (  -0.5000000   0.0000000  -0.5040802), wk =   0.0092593
        k(   53) = (  -0.5000000   0.1659209   0.0000000), wk =   0.0185185
        k(   54) = (  -0.5000000   0.1659209   0.1680267), wk =   0.0370370
        k(   55) = (  -0.5000000   0.1659209   0.3360535), wk =   0.0370370
        k(   56) = (  -0.5000000   0.1659209  -0.5040802), wk =   0.0185185
        k(   57) = (  -0.5000000   0.3318418   0.0000000), wk =   0.0185185
        k(   58) = (  -0.5000000   0.3318418   0.1680267), wk =   0.0370370
        k(   59) = (  -0.5000000   0.3318418   0.3360535), wk =   0.0370370
        k(   60) = (  -0.5000000   0.3318418  -0.5040802), wk =   0.0185185
        k(   61) = (  -0.5000000  -0.4977627   0.0000000), wk =   0.0092593
        k(   62) = (  -0.5000000  -0.4977627   0.1680267), wk =   0.0185185
        k(   63) = (  -0.5000000  -0.4977627   0.3360535), wk =   0.0185185
        k(   64) = (  -0.5000000  -0.4977627  -0.5040802), wk =   0.0092593

     Dense  grid:   496697 G-vectors     FFT dimensions: ( 100, 100, 100)

     Estimated max dynamical RAM per process >       3.11 GB

     Estimated total dynamical RAM >     124.54 GB

     Initial potential from superposition of free atoms

     starting charge  367.99656, renormalised to  368.84000
     Starting wfcs are  232 randomized atomic wfcs

     total cpu time spent up to now is       33.7 secs

     Self-consistent Calculation

     iteration #  1     ecut=   120.00 Ry     beta= 0.70
     Davidson diagonalization with overlap
     ethr =  1.00E-02,  avg # of iterations =  5.0

     total cpu time spent up to now is      148.3 secs

     total energy              =   -6252.80630541 Ry
     Harris-Foulkes estimate   =   -6264.02683497 Ry
     estimated scf accuracy    <      14.09131294 Ry

     iteration #  2     ecut=   120.00 Ry     beta= 0.70
     Davidson diagonalization with overlap
     ethr =  3.82E-03,  avg # of iterations =  3.6

     total cpu time spent up to now is      256.5 secs

     total energy              =   -6249.41038555 Ry
     Harris-Foulkes estimate   =   -6270.44174194 Ry
     estimated scf accuracy    <      56.41537502 Ry

     iteration #  3     ecut=   120.00 Ry     beta= 0.70
     Davidson diagonalization with overlap
     ethr =  3.82E-03,  avg # of iterations =  3.4

     total cpu time spent up to now is      359.6 secs

     total energy              =   -6260.31906813 Ry
     Harris-Foulkes estimate   =   -6260.59281986 Ry
     estimated scf accuracy    <       0.94563028 Ry

     iteration #  4     ecut=   120.00 Ry     beta= 0.70
     Davidson diagonalization with overlap
     ethr =  2.56E-04,  avg # of iterations =  2.7

     total cpu time spent up to now is      445.3 secs

     total energy              =   -6260.30026119 Ry
     Harris-Foulkes estimate   =   -6260.38218001 Ry
     estimated scf accuracy    <       0.25534621 Ry

     iteration #  5     ecut=   120.00 Ry     beta= 0.70
     Davidson diagonalization with overlap
     ethr =  6.92E-05,  avg # of iterations =  4.9

     total cpu time spent up to now is      538.4 secs

     total energy              =   -6260.30494954 Ry
     Harris-Foulkes estimate   =   -6260.33647082 Ry
     estimated scf accuracy    <       0.06804692 Ry

     iteration #  6     ecut=   120.00 Ry     beta= 0.70
     Davidson diagonalization with overlap
     ethr =  1.84E-05,  avg # of iterations =  5.8

     total cpu time spent up to now is      640.0 secs

     total energy              =   -6260.32047666 Ry
     Harris-Foulkes estimate   =   -6260.32336800 Ry
     estimated scf accuracy    <       0.00838756 Ry

     iteration #  7     ecut=   120.00 Ry     beta= 0.70
     Davidson diagonalization with overlap
     ethr =  2.27E-06,  avg # of iterations =  4.4

     total cpu time spent up to now is      726.1 secs

     total energy              =   -6260.32118174 Ry
     Harris-Foulkes estimate   =   -6260.32147216 Ry
     estimated scf accuracy    <       0.00059848 Ry

     iteration #  8     ecut=   120.00 Ry     beta= 0.70
     Davidson diagonalization with overlap
     ethr =  1.62E-07,  avg # of iterations =  3.1

     total cpu time spent up to now is      821.7 secs

     total energy              =   -6260.32134827 Ry
     Harris-Foulkes estimate   =   -6260.32136806 Ry
     estimated scf accuracy    <       0.00007312 Ry

     iteration #  9     ecut=   120.00 Ry     beta= 0.70
     Davidson diagonalization with overlap
     ethr =  1.98E-08,  avg # of iterations =  2.5

     total cpu time spent up to now is      906.4 secs

     total energy              =   -6260.32135139 Ry
     Harris-Foulkes estimate   =   -6260.32136178 Ry
     estimated scf accuracy    <       0.00003928 Ry

     iteration # 10     ecut=   120.00 Ry     beta= 0.70
     Davidson diagonalization with overlap
     ethr =  1.06E-08,  avg # of iterations =  1.7

     total cpu time spent up to now is      984.8 secs

     total energy              =   -6260.32135015 Ry
     Harris-Foulkes estimate   =   -6260.32135393 Ry
     estimated scf accuracy    <       0.00000865 Ry

     iteration # 11     ecut=   120.00 Ry     beta= 0.70
     Davidson diagonalization with overlap
     ethr =  2.35E-09,  avg # of iterations =  3.0

     total cpu time spent up to now is     1073.4 secs

     total energy              =   -6260.32135208 Ry
     Harris-Foulkes estimate   =   -6260.32135215 Ry
     estimated scf accuracy    <       0.00000017 Ry

     iteration # 12     ecut=   120.00 Ry     beta= 0.70
     Davidson diagonalization with overlap
     ethr =  4.51E-11,  avg # of iterations =  2.0

     total cpu time spent up to now is     1172.5 secs

     total energy              =   -6260.32135210 Ry
     Harris-Foulkes estimate   =   -6260.32135212 Ry
     estimated scf accuracy    <       0.00000003 Ry

     iteration # 13     ecut=   120.00 Ry     beta= 0.70
     Davidson diagonalization with overlap
     ethr =  8.31E-12,  avg # of iterations =  2.7

     total cpu time spent up to now is     1263.2 secs

     End of self-consistent calculation

          k = 0.0000 0.0000 0.0000 ( 62105 PWs)   bands (ev):

   -65.9128 -65.9121 -65.9121 -65.9120 -65.9115 -65.9114 -65.9114 -65.9108
   -30.3504 -30.3455 -30.3437 -30.3390 -30.2884 -30.2839 -30.2774 -30.2709
   -30.2613 -30.2578 -30.2563 -30.2513 -30.2473 -30.2368 -30.2360 -30.2257
   -30.1821 -30.1789 -30.1692 -30.1656 -30.1613 -30.1585 -30.1548 -30.1522
   -20.0684 -20.0684 -20.0678 -20.0677 -20.0677 -20.0675 -20.0668 -20.0668
   -20.0636 -20.0633 -20.0630 -20.0628 -20.0619 -20.0616 -20.0613 -20.0611
   -20.0586 -20.0580 -20.0578 -20.0573 -20.0550 -20.0543 -20.0543 -20.0537
   -20.0402 -20.0402 -20.0396 -20.0395 -20.0387 -20.0386 -20.0380 -20.0380
   -20.0286 -20.0286 -20.0277 -20.0277 -20.0264 -20.0264 -20.0248 -20.0246
   -20.0164 -20.0164 -20.0153 -20.0152 -20.0127 -20.0127 -20.0119 -20.0118
   -20.0060 -20.0059 -20.0056 -20.0055 -20.0047 -20.0046 -20.0040 -20.0039
    -9.8808  -9.4812  -9.4720  -9.4267  -9.0547  -9.0297  -9.0195  -8.7402
    -8.6996  -8.6353  -8.6344  -8.6225  -7.8899  -7.7951  -7.7867  -7.7132
    -7.6803  -7.6651  -7.6453  -7.6230  -7.4758  -7.4505  -7.4132  -7.3947
     1.4493   1.4915   1.4920   1.5020   1.5056   1.5494   1.5535   1.6034
     1.7191   1.7539   1.7840   1.8536   2.5209   2.5806   2.5916   2.6636
     2.6757   2.7960   4.1114   4.2733   4.3243   4.5300   4.7133   4.7973
     4.8045   4.8167   4.8908   4.9264   5.0292   5.1360   5.4198   5.5993
     5.6305   5.6314   5.8068   5.8229   5.8593   5.9071   5.9431   5.9643
     5.9729   6.0595   6.1306   6.1362   6.1814   6.2195   6.2205   6.2421
     6.4087   6.5512   6.5779   6.5988   6.6161   6.9027   6.9086   6.9749
     6.9999   7.0364   7.0642   7.0988   7.1824   7.1870   7.2308   7.2741
     7.3621   7.3774   8.2127   8.2705   8.3176   8.3448   8.6584   8.6597
     9.7916   9.8417   9.9112  10.0981  10.1529  10.3070  12.4448  12.4642
    12.4716  12.6969  12.8122  12.8876  12.8879  12.9726  13.0413  13.1086
    13.1294  13.2294  13.3916  13.4161  13.8375  14.0811  14.1975  14.2611
    14.2657  14.4487  14.7661  14.9064  15.1848  15.2077  15.4533  15.6616
    16.0839  16.4119  16.9411  17.0875  17.2443

          k = 0.0000 0.0000 0.1680 ( 62127 PWs)   bands (ev):

   -65.9127 -65.9122 -65.9121 -65.9120 -65.9115 -65.9114 -65.9114 -65.9108
   -30.3500 -30.3459 -30.3434 -30.3393 -30.2880 -30.2842 -30.2766 -30.2712
   -30.2590 -30.2537 -30.2527 -30.2478 -30.2468 -30.2366 -30.2333 -30.2235
   -30.1869 -30.1836 -30.1741 -30.1705 -30.1610 -30.1582 -30.1555 -30.1530
   -20.0684 -20.0684 -20.0678 -20.0677 -20.0676 -20.0676 -20.0669 -20.0668
   -20.0635 -20.0633 -20.0630 -20.0628 -20.0619 -20.0616 -20.0613 -20.0611
   -20.0586 -20.0581 -20.0578 -20.0573 -20.0549 -20.0544 -20.0543 -20.0537
   -20.0401 -20.0401 -20.0394 -20.0394 -20.0388 -20.0387 -20.0381 -20.0381
   -20.0285 -20.0285 -20.0278 -20.0277 -20.0263 -20.0263 -20.0249 -20.0248
   -20.0164 -20.0163 -20.0154 -20.0153 -20.0127 -20.0127 -20.0120 -20.0119
   -20.0059 -20.0058 -20.0055 -20.0054 -20.0048 -20.0047 -20.0041 -20.0040
    -9.8413  -9.4971  -9.4210  -9.3770  -9.0419  -9.0306  -8.9757  -8.7123
    -8.6679  -8.6375  -8.6190  -8.5929  -7.9069  -7.8138  -7.7990  -7.7613
    -7.7445  -7.7401  -7.7185  -7.7169  -7.4844  -7.4543  -7.4244  -7.3981
     1.4476   1.4983   1.5034   1.5446   1.6146   1.6170   1.7139   1.7478
     1.7811   1.8190   1.9167   1.9809   2.5256   2.5908   2.6632   2.7293
     2.7791   2.8743   4.0925   4.2429   4.3119   4.4682   4.4931   4.5962
     4.7306   4.8107   4.8193   4.8450   4.8770   4.9352   5.4137   5.5939
     5.6018   5.6363   5.7134   5.7244   5.7436   5.8382   5.8747   5.9233
     5.9491   5.9812   6.0572   6.0890   6.1697   6.2399   6.2466   6.2866
     6.3924   6.5686   6.7322   6.7923   6.8309   6.9071   6.9204   6.9367
     6.9709   7.0021   7.0339   7.0475   7.0580   7.1080   7.1719   7.2321
     7.2640   7.2769   8.2196   8.2635   8.2663   8.2954   8.5785   8.6069
    10.0780  10.1377  10.1664  10.2285  10.3004  10.3779  12.4809  12.5008
    12.5255  12.7340  12.7506  12.8762  12.9167  12.9378  12.9475  12.9857
    13.0410  13.1344  13.2580  13.4192  13.7641  13.9823  14.1097  14.1770
    14.4716  14.7128  14.8882  14.9918  15.1822  15.2370  15.6389  15.8436
    16.0540  16.5991  16.8493  17.0605  17.3326

          k = 0.0000 0.0000 0.3361 ( 62041 PWs)   bands (ev):

   -65.9126 -65.9123 -65.9120 -65.9119 -65.9117 -65.9115 -65.9113 -65.9109
   -30.3491 -30.3467 -30.3425 -30.3402 -30.2872 -30.2850 -30.2749 -30.2720
   -30.2547 -30.2492 -30.2475 -30.2386 -30.2385 -30.2338 -30.2223 -30.2155
   -30.2005 -30.1969 -30.1876 -30.1837 -30.1601 -30.1573 -30.1571 -30.1546
   -20.0683 -20.0682 -20.0679 -20.0678 -20.0677 -20.0675 -20.0672 -20.0670
   -20.0635 -20.0633 -20.0629 -20.0628 -20.0618 -20.0616 -20.0612 -20.0611
   -20.0584 -20.0581 -20.0577 -20.0574 -20.0548 -20.0545 -20.0541 -20.0538
   -20.0398 -20.0398 -20.0392 -20.0391 -20.0390 -20.0390 -20.0384 -20.0384
   -20.0284 -20.0284 -20.0279 -20.0279 -20.0260 -20.0260 -20.0252 -20.0251
   -20.0162 -20.0161 -20.0156 -20.0155 -20.0126 -20.0125 -20.0122 -20.0121
   -20.0056 -20.0055 -20.0052 -20.0051 -20.0049 -20.0049 -20.0044 -20.0043
    -9.7430  -9.5467  -9.2963  -9.2581  -9.0833  -9.0674  -8.7517  -8.6709
    -8.6437  -8.5559  -8.5242  -8.4886  -8.0869  -8.0322  -8.0260  -7.9912
    -7.8234  -7.8093  -7.7504  -7.7269  -7.4862  -7.4642  -7.4275  -7.4073
     1.4536   1.4820   1.5130   1.5337   1.6738   1.6981   1.7023   1.7350
     2.3627   2.4145   2.5023   2.5331   2.5332   2.6275   2.8761   2.9308
     3.0428   3.0938   3.8916   3.9097   4.0962   4.1490   4.1492   4.2396
     4.3867   4.4788   4.7136   4.8036   4.8998   4.9060   5.0336   5.2694
     5.3459   5.4469   5.5414   5.5648   5.5695   5.7351   5.8058   5.8434
     5.8893   6.0070   6.0585   6.1567   6.1826   6.2857   6.3066   6.3845
     6.4059   6.4530   6.5401   6.5927   6.7508   6.7605   6.8010   6.8264
     7.0042   7.0341   7.0417   7.0677   7.2328   7.2334   7.3360   7.3595
     7.4607   7.5653   8.0906   8.1237   8.2312   8.2523   8.3569   8.4128
    10.1998  10.2751  10.7504  10.8229  10.9323  11.0464  12.2636  12.3294
    12.4588  12.5669  12.5958  12.6013  12.6883  12.8737  13.0225  13.0400
    13.0630  13.1232  13.1291  13.4354  13.4942  13.7081  13.7751  13.8573
    15.0935  15.1736  15.1887  15.2012  15.2885  15.5081  15.5668  15.9490
    16.3351  16.8117  17.1038  17.2096  17.4754

          k = 0.0000 0.0000-0.5041 ( 62056 PWs)   bands (ev):

   -65.9124 -65.9124 -65.9118 -65.9118 -65.9117 -65.9117 -65.9111 -65.9111
   -30.3479 -30.3479 -30.3414 -30.3414 -30.2861 -30.2861 -30.2733 -30.2733
   -30.2515 -30.2515 -30.2419 -30.2419 -30.2195 -30.2195 -30.2154 -30.2154
   -30.2055 -30.2055 -30.2008 -30.2008 -30.1587 -30.1587 -30.1561 -30.1561
   -20.0682 -20.0682 -20.0680 -20.0680 -20.0674 -20.0674 -20.0673 -20.0673
   -20.0634 -20.0634 -20.0628 -20.0628 -20.0617 -20.0617 -20.0612 -20.0612
   -20.0583 -20.0583 -20.0575 -20.0575 -20.0546 -20.0546 -20.0540 -20.0540
   -20.0394 -20.0394 -20.0394 -20.0394 -20.0388 -20.0388 -20.0388 -20.0387
   -20.0282 -20.0282 -20.0282 -20.0281 -20.0256 -20.0256 -20.0255 -20.0255
   -20.0159 -20.0159 -20.0158 -20.0158 -20.0124 -20.0124 -20.0124 -20.0124
   -20.0052 -20.0052 -20.0052 -20.0052 -20.0048 -20.0048 -20.0047 -20.0047
    -9.6323  -9.6323  -9.1674  -9.1674  -9.1411  -9.1411  -8.6537  -8.6537
    -8.4257  -8.4257  -8.3330  -8.3330  -8.3100  -8.3100  -8.2796  -8.2796
    -7.8215  -7.8215  -7.7400  -7.7400  -7.4768  -7.4768  -7.4189  -7.4189
     1.4656   1.4656   1.5223   1.5223   1.6900   1.6900   1.7206   1.7206
     2.5363   2.5363   2.9747   2.9747   3.0595   3.0595   3.1652   3.1652
     3.3012   3.3012   3.4305   3.4306   3.7531   3.7531   4.0775   4.0775
     4.0963   4.0963   4.4251   4.4251   4.8182   4.8182   5.2095   5.2095
     5.4223   5.4223   5.4665   5.4665   5.5023   5.5024   5.8146   5.8146
     6.0096   6.0096   6.1529   6.1529   6.1939   6.1939   6.3581   6.3581
     6.3760   6.3760   6.4911   6.4911   6.6658   6.6658   6.7338   6.7338
     6.9887   6.9887   7.0359   7.0359   7.2325   7.2325   7.7692   7.7692
     7.8029   7.8029   7.9776   7.9776   8.0609   8.0609   8.2416   8.2416
    10.2401  10.2401  11.5397  11.5397  11.6173  11.6174  11.7336  11.7336
    11.8518  11.8518  12.5933  12.5933  12.9237  12.9237  13.0432  13.0432
    13.1487  13.1487  13.3794  13.3794  13.4558  13.4558  13.5016  13.5016
    15.1548  15.1548  15.4282  15.4282  15.7119  15.7119  15.7790  15.7790
    16.3174  16.3174  17.5575  17.5575  17.9636

          k = 0.0000 0.1659 0.0000 ( 62147 PWs)   bands (ev):

   -65.9127 -65.9121 -65.9121 -65.9121 -65.9115 -65.9115 -65.9114 -65.9108
   -30.3499 -30.3450 -30.3441 -30.3394 -30.2868 -30.2822 -30.2777 -30.2713
   -30.2596 -30.2576 -30.2552 -30.2512 -30.2420 -30.2334 -30.2321 -30.2229
   -30.1837 -30.1805 -30.1693 -30.1669 -30.1657 -30.1639 -30.1587 -30.1557
   -20.0684 -20.0684 -20.0679 -20.0677 -20.0676 -20.0675 -20.0668 -20.0668
   -20.0635 -20.0632 -20.0630 -20.0628 -20.0619 -20.0615 -20.0613 -20.0611
   -20.0586 -20.0580 -20.0579 -20.0574 -20.0549 -20.0544 -20.0543 -20.0538
   -20.0402 -20.0402 -20.0395 -20.0395 -20.0387 -20.0386 -20.0380 -20.0380
   -20.0284 -20.0284 -20.0275 -20.0274 -20.0265 -20.0265 -20.0249 -20.0248
   -20.0162 -20.0162 -20.0151 -20.0150 -20.0130 -20.0130 -20.0121 -20.0121
   -20.0060 -20.0059 -20.0057 -20.0056 -20.0047 -20.0046 -20.0040 -20.0040
    -9.8373  -9.4457  -9.4312  -9.4196  -9.0673  -9.0337  -8.9446  -8.7374
    -8.7025  -8.5992  -8.5886  -8.5835  -7.9021  -7.7998  -7.7894  -7.7169
    -7.7046  -7.6811  -7.6635  -7.6207  -7.5614  -7.5538  -7.5216  -7.4983
     1.4878   1.5002   1.5424   1.5538   1.6256   1.6501   1.7165   1.7792
     1.7812   1.7921   1.8805   1.9599   2.5929   2.6318   2.6670   2.7131
     2.7622   2.7959   3.9529   4.0864   4.1116   4.2717   4.7078   4.7496
     4.7843   4.8135   4.8751   4.9543   5.0959   5.1771   5.2974   5.4216
     5.5986   5.6343   5.7361   5.7361   5.7747   5.8008   5.8839   5.9061
     5.9182   6.0073   6.0318   6.0820   6.1065   6.1565   6.3334   6.4426
     6.5201   6.5333   6.6299   6.6333   6.8186   6.8435   6.8546   6.9136
     6.9972   7.0307   7.0617   7.0653   7.0880   7.0889   7.2084   7.2453
     7.3543   7.3724   8.1948   8.2464   8.3191   8.3412   8.5657   8.5855
     9.8504   9.8523  10.1116  10.2296  10.4004  10.5332  12.4444  12.4902
    12.4906  12.6233  12.6250  12.7967  12.8379  12.8669  13.0087  13.1028
    13.1079  13.2713  13.3797  13.4559  13.8168  14.0931  14.1635  14.1865
    14.2813  14.6102  14.7623  15.1322  15.1765  15.2186  15.4345  15.6371
    16.1813  16.4691  17.1453  17.3218  17.3963

          k = 0.0000 0.1659 0.1680 ( 62133 PWs)   bands (ev):

   -65.9127 -65.9121 -65.9121 -65.9120 -65.9115 -65.9115 -65.9114 -65.9109
   -30.3495 -30.3454 -30.3438 -30.3397 -30.2865 -30.2825 -30.2769 -30.2716
   -30.2566 -30.2525 -30.2523 -30.2467 -30.2425 -30.2327 -30.2305 -30.2210
   -30.1881 -30.1849 -30.1742 -30.1706 -30.1666 -30.1635 -30.1598 -30.1570
   -20.0684 -20.0683 -20.0678 -20.0677 -20.0677 -20.0676 -20.0670 -20.0669
   -20.0635 -20.0632 -20.0630 -20.0628 -20.0618 -20.0616 -20.0613 -20.0612
   -20.0585 -20.0580 -20.0578 -20.0574 -20.0549 -20.0543 -20.0543 -20.0538
   -20.0401 -20.0401 -20.0394 -20.0394 -20.0388 -20.0387 -20.0381 -20.0381
   -20.0284 -20.0283 -20.0275 -20.0275 -20.0264 -20.0264 -20.0250 -20.0249
   -20.0162 -20.0161 -20.0152 -20.0151 -20.0129 -20.0129 -20.0122 -20.0122
   -20.0059 -20.0058 -20.0056 -20.0054 -20.0047 -20.0047 -20.0041 -20.0041
    -9.7966  -9.4449  -9.3962  -9.3673  -9.0458  -8.9877  -8.9570  -8.7078
    -8.6707  -8.6011  -8.5762  -8.5582  -7.9230  -7.8133  -7.8062  -7.7712
    -7.7543  -7.7444  -7.7207  -7.7173  -7.5800  -7.5610  -7.5342  -7.5157
     1.5664   1.6114   1.6332   1.6989   1.7003   1.7109   1.7817   1.7830
     1.8553   1.8936   1.9150   2.0453   2.6010   2.6659   2.7112   2.7966
     2.8485   2.8704   3.9553   4.0979   4.1002   4.2430   4.5099   4.5914
     4.7420   4.7425   4.8294   4.8416   4.8914   4.9512   5.2885   5.3925
     5.5458   5.5978   5.6243   5.7262   5.7262   5.7423   5.7684   5.8198
     5.8490   5.9886   5.9925   6.0098   6.0602   6.1207   6.4121   6.4549
     6.4653   6.6662   6.7433   6.7971   6.8065   6.8257   6.8935   6.9362
     6.9557   6.9869   7.0201   7.0799   7.0874   7.0920   7.1128   7.1713
     7.2936   7.3279   8.2029   8.2391   8.2689   8.2957   8.5061   8.5316
    10.1249  10.1396  10.3807  10.4150  10.4844  10.5266  12.4920  12.5299
    12.5443  12.6604  12.6998  12.7298  12.8667  12.8689  12.9103  12.9201
    12.9894  13.1631  13.2490  13.4493  13.7367  13.9753  14.0084  14.0900
    14.5716  14.8660  14.8870  15.1419  15.2443  15.2841  15.6062  15.8313
    16.3491  16.4387  17.0446  17.2307  17.4090

          k = 0.0000 0.1659 0.3361 ( 62084 PWs)   bands (ev):

   -65.9125 -65.9122 -65.9119 -65.9119 -65.9116 -65.9116 -65.9113 -65.9110
   -30.3486 -30.3462 -30.3429 -30.3406 -30.2855 -30.2833 -30.2753 -30.2725
   -30.2509 -30.2453 -30.2441 -30.2385 -30.2348 -30.2338 -30.2209 -30.2140
   -30.2010 -30.1976 -30.1875 -30.1836 -30.1656 -30.1626 -30.1620 -30.1592
   -20.0683 -20.0682 -20.0679 -20.0677 -20.0677 -20.0675 -20.0672 -20.0671
   -20.0634 -20.0633 -20.0629 -20.0628 -20.0618 -20.0616 -20.0613 -20.0612
   -20.0584 -20.0581 -20.0577 -20.0575 -20.0547 -20.0544 -20.0542 -20.0539
   -20.0398 -20.0398 -20.0392 -20.0391 -20.0390 -20.0390 -20.0384 -20.0384
   -20.0282 -20.0282 -20.0277 -20.0277 -20.0261 -20.0261 -20.0253 -20.0252
   -20.0160 -20.0159 -20.0154 -20.0153 -20.0128 -20.0128 -20.0124 -20.0124
   -20.0056 -20.0055 -20.0053 -20.0051 -20.0049 -20.0049 -20.0044 -20.0043
    -9.6953  -9.4947  -9.2772  -9.2321  -9.0835  -9.0002  -8.7643  -8.6491
    -8.6080  -8.5590  -8.5018  -8.4650  -8.1030  -8.0361  -8.0280  -7.9870
    -7.8237  -7.8118  -7.7542  -7.7305  -7.5894  -7.5715  -7.5435  -7.5270
     1.5928   1.6222   1.6701   1.6992   1.7483   1.7593   1.8254   1.8599
     2.3720   2.4245   2.5019   2.5472   2.6101   2.6900   2.9201   3.0113
     3.0867   3.0886   3.8255   3.9025   4.0346   4.0891   4.1228   4.2232
     4.2916   4.4155   4.6829   4.7231   4.8861   4.9150   4.9680   5.1917
     5.2410   5.2530   5.3332   5.3724   5.5614   5.6190   5.7419   5.8538
     5.8707   5.9660   6.0081   6.0617   6.0921   6.1063   6.1427   6.2533
     6.5424   6.6384   6.6484   6.7271   6.7672   6.8219   6.8673   6.8981
     6.9229   7.0041   7.0738   7.1020   7.1637   7.2143   7.3511   7.3716
     7.4987   7.5668   8.0960   8.1156   8.2155   8.2392   8.3142   8.3567
    10.4324  10.5032  10.7741  10.8303  11.0204  11.1141  12.2748  12.3330
    12.4789  12.5932  12.6156  12.6336  12.7220  12.8284  12.8901  12.8978
    12.9200  13.0123  13.1493  13.4586  13.4605  13.6531  13.7020  13.7604
    15.1205  15.1613  15.1799  15.2799  15.5391  15.5931  15.6796  16.3287
    16.4973  16.7889  16.8651  17.2065  17.5812

          k = 0.0000 0.1659-0.5041 ( 62064 PWs)   bands (ev):

   -65.9124 -65.9124 -65.9118 -65.9118 -65.9117 -65.9117 -65.9112 -65.9112
   -30.3474 -30.3474 -30.3418 -30.3418 -30.2844 -30.2844 -30.2737 -30.2737
   -30.2467 -30.2467 -30.2387 -30.2387 -30.2196 -30.2196 -30.2156 -30.2156
   -30.2050 -30.2050 -30.2003 -30.2003 -30.1640 -30.1640 -30.1611 -30.1611
   -20.0681 -20.0681 -20.0680 -20.0679 -20.0675 -20.0675 -20.0673 -20.0673
   -20.0633 -20.0633 -20.0629 -20.0629 -20.0617 -20.0617 -20.0612 -20.0612
   -20.0582 -20.0582 -20.0576 -20.0576 -20.0546 -20.0546 -20.0540 -20.0540
   -20.0394 -20.0394 -20.0394 -20.0394 -20.0388 -20.0388 -20.0388 -20.0387
   -20.0280 -20.0280 -20.0279 -20.0279 -20.0258 -20.0257 -20.0257 -20.0257
   -20.0157 -20.0157 -20.0157 -20.0156 -20.0127 -20.0127 -20.0126 -20.0126
   -20.0053 -20.0053 -20.0052 -20.0052 -20.0048 -20.0048 -20.0047 -20.0047
    -9.5817  -9.5817  -9.1589  -9.1589  -9.0907  -9.0907  -8.6207  -8.6207
    -8.4394  -8.4393  -8.3381  -8.3381  -8.3014  -8.3014  -8.2689  -8.2689
    -7.8237  -7.8237  -7.7437  -7.7437  -7.5823  -7.5823  -7.5375  -7.5375
     1.6067   1.6067   1.6865   1.6865   1.7562   1.7562   1.8469   1.8469
     2.6105   2.6105   3.0029   3.0029   3.0969   3.0969   3.1545   3.1545
     3.2934   3.2935   3.4548   3.4548   3.7334   3.7334   4.1091   4.1091
     4.1354   4.1355   4.2577   4.2577   4.7279   4.7279   5.0495   5.0495
     5.2294   5.2294   5.4000   5.4000   5.4174   5.4174   5.8357   5.8357
     5.9188   5.9189   5.9838   5.9838   6.1009   6.1009   6.1386   6.1386
     6.5052   6.5052   6.6375   6.6375   6.7760   6.7760   6.9166   6.9166
     6.9627   6.9627   7.0818   7.0818   7.1289   7.1289   7.7805   7.7805
     7.7963   7.7963   7.9714   7.9714   8.0346   8.0346   8.2268   8.2268
    10.4709  10.4709  11.5488  11.5488  11.6181  11.6181  11.7812  11.7812
    11.8975  11.8975  12.6353  12.6353  12.8907  12.8907  12.9705  12.9705
    13.1080  13.1080  13.2314  13.2314  13.3473  13.3473  13.5098  13.5098
    15.1544  15.1544  15.4068  15.4068  15.9072  15.9072  16.0695  16.0695
    16.4671  16.4671  17.3685  17.3685  18.0044

          k = 0.0000 0.3318 0.0000 ( 62100 PWs)   bands (ev):

   -65.9126 -65.9122 -65.9120 -65.9119 -65.9116 -65.9116 -65.9113 -65.9110
   -30.3485 -30.3452 -30.3437 -30.3405 -30.2836 -30.2788 -30.2786 -30.2727
   -30.2572 -30.2570 -30.2531 -30.2512 -30.2276 -30.2215 -30.2204 -30.2132
   -30.1915 -30.1881 -30.1821 -30.1782 -30.1694 -30.1658 -30.1657 -30.1622
   -20.0683 -20.0682 -20.0680 -20.0679 -20.0674 -20.0673 -20.0670 -20.0670
   -20.0634 -20.0632 -20.0631 -20.0629 -20.0618 -20.0615 -20.0615 -20.0612
   -20.0584 -20.0580 -20.0579 -20.0575 -20.0548 -20.0545 -20.0542 -20.0539
   -20.0402 -20.0402 -20.0395 -20.0395 -20.0386 -20.0386 -20.0380 -20.0380
   -20.0279 -20.0279 -20.0269 -20.0268 -20.0268 -20.0268 -20.0254 -20.0253
   -20.0156 -20.0156 -20.0145 -20.0145 -20.0137 -20.0137 -20.0128 -20.0128
   -20.0060 -20.0059 -20.0058 -20.0057 -20.0046 -20.0045 -20.0042 -20.0041
    -9.7282  -9.5043  -9.3110  -9.2935  -9.1086  -9.0793  -8.7346  -8.7103
    -8.6991  -8.4736  -8.4518  -8.4431  -8.0291  -7.9239  -7.8883  -7.8504
    -7.7962  -7.7755  -7.7303  -7.7266  -7.6586  -7.6300  -7.6139  -7.5805
     1.4893   1.4962   1.5525   1.5542   1.6945   1.7107   1.7435   1.7745
     2.3815   2.4227   2.5322   2.5383   2.6929   2.7045   2.8792   2.8894
     3.0089   3.0476   3.5658   3.6111   3.7490   3.7997   4.2593   4.5805
     4.6408   4.7090   4.7644   4.8380   4.8993   4.9407   5.2731   5.2994
     5.3238   5.3315   5.6322   5.6375   5.7135   5.7682   5.8029   5.8985
     5.9177   5.9543   6.0154   6.0351   6.1048   6.1155   6.3189   6.3378
     6.3925   6.5036   6.5497   6.6802   6.7926   6.8035   6.8691   7.0129
     7.0196   7.0551   7.0597   7.0628   7.2107   7.2236   7.3391   7.3741
     7.4397   7.4667   8.0775   8.1089   8.2916   8.3246   8.3348   8.3424
     9.8697   9.8910  10.6657  10.7212  11.0034  11.0872  12.0672  12.1195
    12.3901  12.4111  12.5236  12.5530  12.6282  12.9229  12.9897  13.0885
    13.1041  13.3522  13.3736  13.4813  13.7222  13.9179  14.0394  14.0498
    14.5348  14.7556  14.9381  15.0616  15.3286  15.3620  15.5684  15.7041
    15.8643  17.1890  17.4029  17.5278  17.7708

          k = 0.0000 0.3318 0.1680 ( 62102 PWs)   bands (ev):

   -65.9125 -65.9122 -65.9120 -65.9119 -65.9116 -65.9116 -65.9114 -65.9110
   -30.3482 -30.3449 -30.3441 -30.3408 -30.2831 -30.2789 -30.2781 -30.2730
   -30.2531 -30.2520 -30.2493 -30.2467 -30.2282 -30.2213 -30.2199 -30.2120
   -30.1942 -30.1910 -30.1817 -30.1777 -30.1742 -30.1705 -30.1684 -30.1650
   -20.0682 -20.0682 -20.0679 -20.0678 -20.0675 -20.0674 -20.0671 -20.0670
   -20.0634 -20.0632 -20.0631 -20.0629 -20.0617 -20.0615 -20.0614 -20.0612
   -20.0584 -20.0580 -20.0579 -20.0575 -20.0547 -20.0544 -20.0542 -20.0539
   -20.0401 -20.0400 -20.0394 -20.0394 -20.0387 -20.0387 -20.0381 -20.0381
   -20.0279 -20.0279 -20.0269 -20.0269 -20.0267 -20.0267 -20.0255 -20.0254
   -20.0156 -20.0155 -20.0146 -20.0146 -20.0137 -20.0137 -20.0129 -20.0129
   -20.0059 -20.0058 -20.0057 -20.0056 -20.0047 -20.0046 -20.0043 -20.0042
    -9.6843  -9.4555  -9.3177  -9.2381  -9.0943  -9.0281  -8.7214  -8.6944
    -8.6783  -8.4764  -8.4371  -8.4352  -8.0508  -7.9429  -7.8924  -7.8543
    -7.8119  -7.7726  -7.7455  -7.7446  -7.7293  -7.7126  -7.7045  -7.6650
     1.5905   1.6045   1.6877   1.7046   1.7723   1.7820   1.8741   1.9103
     2.3885   2.4255   2.5322   2.5557   2.7620   2.7652   2.8763   2.9127
     3.0853   3.1196   3.5998   3.6521   3.7442   3.7954   4.2462   4.5227
     4.5348   4.6282   4.6607   4.7382   4.7911   4.9604   5.0220   5.0558
     5.3017   5.3270   5.5418   5.5647   5.5833   5.6797   5.7414   5.7649
     5.8203   5.9363   5.9545   5.9583   6.0197   6.0389   6.0832   6.1649
     6.5661   6.6818   6.7418   6.7441   6.8136   6.8885   6.9168   6.9305
     7.0192   7.0420   7.0853   7.1292   7.1574   7.1742   7.3335   7.4022
     7.4619   7.4744   8.0838   8.1020   8.2593   8.2772   8.2901   8.3071
    10.1532  10.1647  10.8417  10.8993  11.0123  11.0822  12.1522  12.1970
    12.3830  12.4199  12.5772  12.5971  12.6667  12.8658  12.9175  12.9354
    13.0141  13.2370  13.2857  13.3836  13.6105  13.7561  13.9284  13.9480
    14.8075  14.8879  15.0618  15.1727  15.4409  15.5108  15.7775  15.8589
    15.9686  17.2822  17.3578  17.4953  17.5789

          k = 0.0000 0.3318 0.3361 ( 62068 PWs)   bands (ev):

   -65.9124 -65.9121 -65.9120 -65.9118 -65.9117 -65.9115 -65.9114 -65.9111
   -30.3473 -30.3449 -30.3440 -30.3417 -30.2820 -30.2797 -30.2766 -30.2739
   -30.2433 -30.2400 -30.2385 -30.2341 -30.2304 -30.2241 -30.2143 -30.2075
   -30.2038 -30.2007 -30.1868 -30.1829 -30.1803 -30.1764 -30.1736 -30.1703
   -20.0681 -20.0680 -20.0678 -20.0677 -20.0677 -20.0676 -20.0673 -20.0672
   -20.0633 -20.0632 -20.0630 -20.0629 -20.0617 -20.0615 -20.0614 -20.0613
   -20.0582 -20.0580 -20.0579 -20.0576 -20.0546 -20.0543 -20.0543 -20.0540
   -20.0398 -20.0398 -20.0392 -20.0391 -20.0390 -20.0390 -20.0384 -20.0384
   -20.0277 -20.0277 -20.0271 -20.0271 -20.0265 -20.0264 -20.0258 -20.0257
   -20.0154 -20.0154 -20.0149 -20.0148 -20.0136 -20.0135 -20.0131 -20.0131
   -20.0056 -20.0055 -20.0054 -20.0053 -20.0049 -20.0048 -20.0046 -20.0045
    -9.5756  -9.3667  -9.3369  -9.1350  -9.0715  -8.8086  -8.7675  -8.6087
    -8.5681  -8.4884  -8.4003  -8.3758  -8.1884  -8.0880  -8.0136  -7.9723
    -7.9036  -7.8741  -7.8331  -7.7949  -7.7642  -7.7623  -7.7401  -7.7342
     1.6423   1.6621   1.6738   1.6923   2.2471   2.3262   2.3791   2.3922
     2.4948   2.4985   2.5771   2.6948   2.8180   2.8875   2.9825   3.0729
     3.2722   3.2951   3.6160   3.7120   3.7134   3.7990   4.0476   4.0521
     4.2308   4.4557   4.5052   4.5637   4.5796   4.7363   4.7367   4.9702
     5.0091   5.1265   5.2355   5.2374   5.3283   5.3859   5.5264   5.5273
     5.5933   5.7080   5.8626   5.9257   5.9853   6.0645   6.0703   6.0779
     6.6721   6.6813   6.6864   6.7054   6.7475   6.7734   6.8728   6.8934
     7.0999   7.2740   7.2966   7.3053   7.3429   7.4505   7.4688   7.4805
     7.5347   7.5802   8.0520   8.0955   8.0972   8.1512   8.1621   8.1868
    10.7967  10.8083  11.0467  11.0709  11.3210  11.3866  12.2556  12.3135
    12.3853  12.4062  12.4726  12.4740  12.6738  12.7216  12.7263  12.7621
    12.8232  12.9978  13.1569  13.2770  13.3546  13.3817  13.6290  13.6465
    15.1100  15.1553  15.2200  15.4586  15.5220  16.1554  16.3103  16.3586
    16.7152  16.8638  17.2555  17.5635  17.5887

          k = 0.0000 0.3318-0.5041 ( 62112 PWs)   bands (ev):

   -65.9123 -65.9123 -65.9119 -65.9119 -65.9116 -65.9116 -65.9113 -65.9113
   -30.3461 -30.3461 -30.3429 -30.3429 -30.2808 -30.2808 -30.2751 -30.2751
   -30.2348 -30.2348 -30.2301 -30.2301 -30.2204 -30.2204 -30.2168 -30.2168
   -30.2023 -30.2023 -30.1975 -30.1975 -30.1778 -30.1778 -30.1741 -30.1741
   -20.0680 -20.0679 -20.0678 -20.0678 -20.0676 -20.0676 -20.0674 -20.0674
   -20.0632 -20.0632 -20.0630 -20.0630 -20.0616 -20.0616 -20.0613 -20.0613
   -20.0581 -20.0581 -20.0577 -20.0577 -20.0545 -20.0545 -20.0541 -20.0541
   -20.0394 -20.0394 -20.0394 -20.0394 -20.0388 -20.0388 -20.0388 -20.0387
   -20.0274 -20.0274 -20.0274 -20.0274 -20.0261 -20.0261 -20.0261 -20.0261
   -20.0151 -20.0151 -20.0151 -20.0151 -20.0134 -20.0134 -20.0133 -20.0133
   -20.0052 -20.0052 -20.0051 -20.0051 -20.0050 -20.0050 -20.0049 -20.0049
    -9.4557  -9.4557  -9.2154  -9.2154  -8.8847  -8.8847  -8.5215  -8.5215
    -8.4937  -8.4936  -8.3565  -8.3565  -8.2649  -8.2649  -8.2264  -8.2264
    -7.9021  -7.9021  -7.8311  -7.8311  -7.7535  -7.7535  -7.7495  -7.7495
     1.6592   1.6592   1.6789   1.6789   2.3647   2.3647   2.4837   2.4837
     2.8074   2.8074   3.0869   3.0869   3.1195   3.1196   3.2046   3.2046
     3.2753   3.2754   3.5072   3.5072   3.6621   3.6621   3.8373   3.8373
     4.2507   4.2507   4.2930   4.2930   4.3162   4.3162   4.5186   4.5187
     5.0671   5.0671   5.2444   5.2444   5.3564   5.3564   5.3719   5.3719
     5.4904   5.4904   5.8971   5.8971   6.0399   6.0399   6.0933   6.0933
     6.5793   6.5794   6.6253   6.6253   6.7465   6.7465   6.8850   6.8850
     7.2610   7.2610   7.3852   7.3852   7.4273   7.4273   7.7724   7.7724
     7.7969   7.7969   7.9071   7.9071   7.9468   7.9468   8.1109   8.1109
    11.0335  11.0335  11.5677  11.5677  11.6237  11.6237  11.9505  11.9505
    12.0718  12.0718  12.4827  12.4827  12.7099  12.7099  12.8528  12.8528
    12.8954  12.8954  13.0063  13.0063  13.2483  13.2483  13.4317  13.4317
    15.1794  15.1794  15.3444  15.3444  16.2348  16.2349  16.8692  16.8692
    16.9843  16.9843  16.9843  16.9843  17.9072

          k = 0.0000-0.4978 0.0000 ( 62122 PWs)   bands (ev):

   -65.9124 -65.9124 -65.9118 -65.9118 -65.9117 -65.9117 -65.9111 -65.9111
   -30.3468 -30.3468 -30.3421 -30.3421 -30.2807 -30.2807 -30.2752 -30.2752
   -30.2566 -30.2566 -30.2517 -30.2517 -30.2083 -30.2083 -30.2037 -30.2037
   -30.2023 -30.2023 -30.1967 -30.1967 -30.1689 -30.1689 -30.1653 -30.1653
   -20.0681 -20.0681 -20.0680 -20.0680 -20.0672 -20.0672 -20.0671 -20.0671
   -20.0633 -20.0633 -20.0630 -20.0630 -20.0616 -20.0616 -20.0614 -20.0614
   -20.0582 -20.0582 -20.0577 -20.0577 -20.0546 -20.0546 -20.0540 -20.0540
   -20.0402 -20.0402 -20.0395 -20.0395 -20.0386 -20.0386 -20.0380 -20.0380
   -20.0273 -20.0273 -20.0273 -20.0273 -20.0261 -20.0261 -20.0260 -20.0260
   -20.0147 -20.0147 -20.0147 -20.0147 -20.0137 -20.0137 -20.0137 -20.0137
   -20.0060 -20.0059 -20.0058 -20.0058 -20.0044 -20.0044 -20.0044 -20.0044
    -9.6032  -9.6032  -9.1891  -9.1891  -9.1653  -9.1653  -8.7208  -8.7208
    -8.3588  -8.3587  -8.2318  -8.2318  -8.2048  -8.2048  -8.1865  -8.1865
    -7.8018  -7.8018  -7.7377  -7.7377  -7.6494  -7.6494  -7.6025  -7.6025
     1.4922   1.4922   1.5541   1.5541   1.7040   1.7040   1.7647   1.7647
     2.6908   2.6908   3.0409   3.0409   3.0620   3.0620   3.1444   3.1444
     3.2127   3.2127   3.4462   3.4462   3.6929   3.6929   3.7280   3.7280
     3.8895   3.8895   4.7243   4.7243   4.8633   4.8633   5.4597   5.4598
     5.4824   5.4824   5.5343   5.5343   5.5812   5.5812   5.8395   5.8395
     5.9931   5.9931   6.0458   6.0458   6.0730   6.0730   6.1542   6.1542
     6.4753   6.4753   6.5518   6.5518   6.7291   6.7292   6.8977   6.8977
     7.0595   7.0595   7.0709   7.0710   7.2182   7.2182   7.7845   7.7845
     7.7864   7.7864   7.8727   7.8727   7.9454   7.9454   8.3291   8.3291
     9.8873   9.8874  11.3802  11.3802  11.4020  11.4020  11.7372  11.7372
    11.7967  11.7967  12.5449  12.5449  12.8307  12.8307  13.0949  13.0949
    13.1377  13.1377  13.5363  13.5363  13.6559  13.6559  14.0015  14.0015
    14.7244  14.7244  15.2039  15.2040  15.2422  15.2422  15.4627  15.4627
    16.6395  16.6395  17.8218  17.8218  18.0827

          k = 0.0000-0.4978 0.1680 ( 62096 PWs)   bands (ev):

   -65.9124 -65.9123 -65.9118 -65.9118 -65.9117 -65.9117 -65.9112 -65.9112
   -30.3465 -30.3465 -30.3424 -30.3424 -30.2801 -30.2801 -30.2754 -30.2754
   -30.2519 -30.2519 -30.2473 -30.2473 -30.2095 -30.2095 -30.2050 -30.2050
   -30.2016 -30.2016 -30.1960 -30.1960 -30.1731 -30.1731 -30.1695 -30.1695
   -20.0681 -20.0681 -20.0680 -20.0680 -20.0673 -20.0673 -20.0672 -20.0672
   -20.0633 -20.0633 -20.0630 -20.0630 -20.0616 -20.0616 -20.0614 -20.0614
   -20.0582 -20.0582 -20.0577 -20.0577 -20.0546 -20.0546 -20.0541 -20.0541
   -20.0401 -20.0400 -20.0394 -20.0394 -20.0387 -20.0387 -20.0381 -20.0381
   -20.0273 -20.0273 -20.0273 -20.0272 -20.0262 -20.0262 -20.0261 -20.0261
   -20.0147 -20.0147 -20.0146 -20.0146 -20.0138 -20.0138 -20.0138 -20.0138
   -20.0058 -20.0058 -20.0057 -20.0057 -20.0045 -20.0045 -20.0044 -20.0044
    -9.5562  -9.5562  -9.1853  -9.1853  -9.1096  -9.1095  -8.6888  -8.6888
    -8.3743  -8.3743  -8.2391  -8.2391  -8.1993  -8.1992  -8.1840  -8.1840
    -7.8073  -7.8073  -7.7483  -7.7483  -7.7325  -7.7325  -7.7006  -7.7006
     1.5974   1.5974   1.6978   1.6978   1.7801   1.7801   1.9011   1.9011
     2.7706   2.7706   3.0362   3.0362   3.0812   3.0812   3.1563   3.1563
     3.2669   3.2669   3.4383   3.4383   3.6932   3.6932   3.7547   3.7547
     3.9070   3.9070   4.5664   4.5664   4.7584   4.7584   5.2925   5.2925
     5.3178   5.3178   5.4803   5.4803   5.5645   5.5645   5.7468   5.7468
     5.8108   5.8108   5.8574   5.8574   6.0179   6.0179   6.0400   6.0400
     6.6167   6.6167   6.7295   6.7295   6.7528   6.7528   6.9212   6.9212
     7.0542   7.0542   7.1371   7.1371   7.2127   7.2127   7.7746   7.7746
     7.7929   7.7929   7.8792   7.8792   7.9290   7.9290   8.2831   8.2831
    10.1659  10.1659  11.4686  11.4686  11.5236  11.5236  11.7408  11.7408
    11.8161  11.8161  12.5969  12.5969  12.8335  12.8335  12.9386  12.9386
    13.1421  13.1421  13.3915  13.3915  13.4819  13.4820  13.9003  13.9003
    14.8938  14.8938  15.3373  15.3373  15.3800  15.3800  15.6596  15.6596
    16.7440  16.7440  17.7773  17.7774  17.8665

          k = 0.0000-0.4978 0.3361 ( 62124 PWs)   bands (ev):

   -65.9122 -65.9122 -65.9119 -65.9119 -65.9116 -65.9116 -65.9113 -65.9113
   -30.3456 -30.3456 -30.3433 -30.3433 -30.2788 -30.2788 -30.2763 -30.2763
   -30.2394 -30.2394 -30.2356 -30.2356 -30.2138 -30.2138 -30.2102 -30.2102
   -30.1991 -30.1991 -30.1938 -30.1938 -30.1834 -30.1834 -30.1796 -30.1796
   -20.0680 -20.0680 -20.0678 -20.0678 -20.0675 -20.0675 -20.0674 -20.0674
   -20.0632 -20.0632 -20.0631 -20.0631 -20.0615 -20.0615 -20.0614 -20.0614
   -20.0581 -20.0581 -20.0578 -20.0578 -20.0545 -20.0545 -20.0542 -20.0542
   -20.0398 -20.0398 -20.0392 -20.0391 -20.0390 -20.0390 -20.0384 -20.0384
   -20.0270 -20.0270 -20.0270 -20.0270 -20.0264 -20.0264 -20.0264 -20.0263
   -20.0145 -20.0145 -20.0145 -20.0145 -20.0140 -20.0140 -20.0140 -20.0140
   -20.0055 -20.0055 -20.0054 -20.0054 -20.0048 -20.0048 -20.0047 -20.0047
    -9.4405  -9.4405  -9.2306  -9.2306  -8.9069  -8.9069  -8.5836  -8.5836
    -8.4458  -8.4458  -8.2753  -8.2753  -8.1796  -8.1796  -8.1696  -8.1695
    -7.9757  -7.9757  -7.9334  -7.9333  -7.7758  -7.7758  -7.7505  -7.7505
     1.6534   1.6534   1.6846   1.6846   2.3676   2.3676   2.4711   2.4711
     2.9618   2.9618   3.0284   3.0284   3.1444   3.1444   3.1971   3.1971
     3.3701   3.3701   3.4369   3.4369   3.6588   3.6588   3.8103   3.8103
     3.9455   3.9455   4.0689   4.0689   4.6719   4.6719   4.8404   4.8404
     4.9831   4.9832   5.1325   5.1325   5.2722   5.2722   5.4498   5.4498
     5.6013   5.6013   5.7338   5.7338   6.0452   6.0452   6.0745   6.0745
     6.6809   6.6809   6.6893   6.6893   6.7481   6.7481   6.7703   6.7703
     7.2674   7.2674   7.4788   7.4788   7.4968   7.4968   7.7507   7.7507
     7.8130   7.8130   7.8524   7.8524   7.8673   7.8674   8.1296   8.1296
    10.8164  10.8164  11.6588  11.6588  11.7314  11.7314  11.8765  11.8765
    11.9545  11.9545  12.3624  12.3624  12.7443  12.7443  12.8674  12.8674
    13.0039  13.0039  13.0852  13.0852  13.1660  13.1660  13.6014  13.6014
    15.1233  15.1233  15.3399  15.3399  15.8900  15.8900  16.5392  16.5392
    17.0747  17.0747  17.2522  17.2522  17.9283

          k = 0.0000-0.4978-0.5041 ( 62112 PWs)   bands (ev):

   -65.9121 -65.9121 -65.9121 -65.9121 -65.9115 -65.9115 -65.9115 -65.9115
   -30.3444 -30.3444 -30.3444 -30.3444 -30.2774 -30.2774 -30.2774 -30.2774
   -30.2242 -30.2242 -30.2242 -30.2242 -30.2212 -30.2211 -30.2211 -30.2211
   -30.1935 -30.1935 -30.1935 -30.1934 -30.1889 -30.1889 -30.1889 -30.1889
   -20.0678 -20.0678 -20.0678 -20.0677 -20.0676 -20.0676 -20.0676 -20.0676
   -20.0631 -20.0631 -20.0631 -20.0631 -20.0615 -20.0615 -20.0614 -20.0614
   -20.0579 -20.0579 -20.0579 -20.0579 -20.0543 -20.0543 -20.0543 -20.0543
   -20.0394 -20.0394 -20.0394 -20.0394 -20.0388 -20.0388 -20.0388 -20.0387
   -20.0268 -20.0267 -20.0267 -20.0267 -20.0267 -20.0267 -20.0267 -20.0267
   -20.0143 -20.0143 -20.0143 -20.0143 -20.0143 -20.0143 -20.0143 -20.0143
   -20.0051 -20.0051 -20.0051 -20.0051 -20.0050 -20.0050 -20.0050 -20.0050
    -9.3171  -9.3171  -9.3171  -9.3171  -8.6407  -8.6407  -8.6407  -8.6407
    -8.4067  -8.4067  -8.4067  -8.4067  -8.1364  -8.1364  -8.1364  -8.1364
    -8.1026  -8.1026  -8.1026  -8.1026  -7.7645  -7.7645  -7.7645  -7.7645
     1.6705   1.6705   1.6705   1.6705   2.9120   2.9120   2.9120   2.9120
     3.0285   3.0285   3.0285   3.0285   3.3275   3.3275   3.3275   3.3275
     3.3871   3.3871   3.3871   3.3871   3.6201   3.6201   3.6201   3.6201
     3.8411   3.8412   3.8412   3.8412   4.6112   4.6112   4.6112   4.6112
     4.6543   4.6543   4.6543   4.6543   5.3370   5.3370   5.3370   5.3370
     5.6432   5.6432   5.6432   5.6432   6.0806   6.0806   6.0806   6.0806
     6.6056   6.6056   6.6056   6.6056   6.7482   6.7482   6.7482   6.7482
     7.6540   7.6541   7.6541   7.6541   7.7058   7.7058   7.7059   7.7059
     7.7293   7.7293   7.7293   7.7293   7.9169   7.9169   7.9169   7.9169
    11.5455  11.5455  11.5455  11.5455  11.7798  11.7798  11.7798  11.7798
    12.3870  12.3870  12.3870  12.3870  12.4267  12.4268  12.4268  12.4268
    12.9609  12.9609  12.9609  12.9609  13.2853  13.2853  13.2853  13.2853
    15.2550  15.2550  15.2550  15.2550  16.5934  16.5934  16.5934  16.5934
    17.6023  17.6024  17.6024  17.6025  17.6959

          k = 0.1667 0.0000 0.0000 ( 62131 PWs)   bands (ev):

   -65.9127 -65.9122 -65.9121 -65.9120 -65.9115 -65.9115 -65.9113 -65.9108
   -30.3460 -30.3412 -30.3392 -30.3346 -30.2921 -30.2876 -30.2816 -30.2756
   -30.2610 -30.2575 -30.2567 -30.2520 -30.2468 -30.2372 -30.2363 -30.2268
   -30.1819 -30.1791 -30.1689 -30.1659 -30.1611 -30.1587 -30.1546 -30.1523
   -20.0685 -20.0685 -20.0679 -20.0677 -20.0677 -20.0676 -20.0668 -20.0668
   -20.0634 -20.0631 -20.0628 -20.0626 -20.0620 -20.0617 -20.0614 -20.0612
   -20.0584 -20.0578 -20.0576 -20.0571 -20.0552 -20.0546 -20.0545 -20.0540
   -20.0401 -20.0401 -20.0396 -20.0396 -20.0386 -20.0385 -20.0381 -20.0380
   -20.0286 -20.0286 -20.0277 -20.0277 -20.0264 -20.0264 -20.0248 -20.0246
   -20.0164 -20.0164 -20.0153 -20.0152 -20.0127 -20.0127 -20.0119 -20.0119
   -20.0060 -20.0059 -20.0056 -20.0055 -20.0047 -20.0046 -20.0040 -20.0039
    -9.8426  -9.4894  -9.4342  -9.3822  -9.0666  -9.0433  -8.9473  -8.7128
    -8.6701  -8.6254  -8.6233  -8.6075  -7.9602  -7.8809  -7.8725  -7.8224
    -7.6837  -7.6681  -7.6493  -7.6267  -7.4726  -7.4505  -7.4178  -7.3994
     1.4612   1.4864   1.5208   1.5349   1.5426   1.5437   1.5549   1.6019
     1.9137   1.9348   1.9965   2.0399   2.5895   2.6071   2.6711   2.6751
     2.7351   2.8750   4.0862   4.2022   4.3390   4.3906   4.5090   4.5391
     4.5640   4.5907   4.8634   4.9321   5.0685   5.1572   5.3550   5.4471
     5.5708   5.7277   5.7319   5.8065   5.8216   5.8498   5.8804   5.9501
     6.0331   6.0771   6.1019   6.1079   6.2217   6.2280   6.2319   6.2724
     6.3793   6.5422   6.5834   6.6017   6.6412   6.8529   6.9153   6.9366
     6.9503   6.9712   7.0362   7.0819   7.0916   7.2022   7.2125   7.2717
     7.3696   7.3882   8.1858   8.2382   8.2511   8.2819   8.6594   8.6644
     9.8728   9.9146  10.0839  10.2440  10.3924  10.5283  12.3828  12.3834
    12.4467  12.6050  12.8098  12.8394  12.9249  13.0834  13.1453  13.1659
    13.1958  13.2318  13.3998  13.4852  13.8028  14.0004  14.2289  14.2468
    14.2628  14.4438  14.8017  14.9737  15.2129  15.2524  15.4314  15.9201
    16.0496  16.5681  16.6911  17.2022  17.4334

          k = 0.1667 0.0000 0.1680 ( 62111 PWs)   bands (ev):

   -65.9127 -65.9121 -65.9121 -65.9119 -65.9116 -65.9114 -65.9114 -65.9109
   -30.3456 -30.3415 -30.3389 -30.3349 -30.2917 -30.2879 -30.2809 -30.2759
   -30.2587 -30.2541 -30.2523 -30.2474 -30.2473 -30.2378 -30.2329 -30.2245
   -30.1867 -30.1838 -30.1739 -30.1708 -30.1608 -30.1584 -30.1554 -30.1531
   -20.0684 -20.0684 -20.0678 -20.0678 -20.0677 -20.0676 -20.0669 -20.0669
   -20.0634 -20.0631 -20.0628 -20.0626 -20.0620 -20.0617 -20.0614 -20.0612
   -20.0583 -20.0578 -20.0575 -20.0571 -20.0552 -20.0547 -20.0545 -20.0540
   -20.0400 -20.0400 -20.0395 -20.0395 -20.0387 -20.0386 -20.0382 -20.0381
   -20.0285 -20.0285 -20.0278 -20.0277 -20.0263 -20.0262 -20.0249 -20.0248
   -20.0164 -20.0163 -20.0154 -20.0153 -20.0127 -20.0127 -20.0119 -20.0119
   -20.0059 -20.0058 -20.0055 -20.0054 -20.0048 -20.0047 -20.0041 -20.0040
    -9.8019  -9.4497  -9.4387  -9.3295  -9.0570  -8.9866  -8.9584  -8.6816
    -8.6429  -8.6124  -8.6086  -8.5957  -7.9682  -7.8881  -7.8745  -7.8357
    -7.7692  -7.7632  -7.7377  -7.7276  -7.4822  -7.4542  -7.4289  -7.4028
     1.4664   1.4986   1.5144   1.5402   1.7219   1.7253   1.7822   1.8175
     1.9188   1.9367   2.0385   2.0923   2.6112   2.6541   2.6928   2.7428
     2.8336   2.9544   4.0686   4.1738   4.3175   4.3483   4.5419   4.5440
     4.5736   4.6056   4.6364   4.6873   4.7842   4.8760   5.3389   5.4223
     5.5554   5.5692   5.6492   5.6956   5.7431   5.8444   5.8870   5.9102
     5.9659   5.9736   6.0310   6.0564   6.1025   6.2205   6.2563   6.3297
     6.3647   6.5720   6.7546   6.8199   6.8209   6.8352   6.8613   6.8984
     6.9198   6.9513   7.0291   7.0471   7.0892   7.1384   7.2173   7.2552
     7.2897   7.2932   8.1921   8.2071   8.2320   8.2376   8.5853   8.6070
    10.1569  10.2263  10.3294  10.4070  10.4865  10.5228  12.4356  12.4417
    12.4736  12.6213  12.8034  12.8727  12.9037  12.9507  12.9727  13.0849
    13.0910  13.1897  13.3125  13.4906  13.7091  13.8834  14.1084  14.1613
    14.5238  14.7058  14.9721  15.0484  15.2116  15.2981  15.8186  15.8984
    16.0221  16.7230  16.7963  16.9579  17.4132

          k = 0.1667 0.0000 0.3361 ( 62106 PWs)   bands (ev):

   -65.9126 -65.9122 -65.9120 -65.9118 -65.9117 -65.9115 -65.9113 -65.9110
   -30.3447 -30.3423 -30.3381 -30.3358 -30.2908 -30.2886 -30.2795 -30.2768
   -30.2543 -30.2487 -30.2482 -30.2397 -30.2383 -30.2342 -30.2220 -30.2162
   -30.2002 -30.1972 -30.1874 -30.1840 -30.1599 -30.1575 -30.1569 -30.1547
   -20.0684 -20.0683 -20.0680 -20.0679 -20.0676 -20.0675 -20.0672 -20.0670
   -20.0633 -20.0632 -20.0628 -20.0627 -20.0619 -20.0617 -20.0613 -20.0612
   -20.0582 -20.0579 -20.0574 -20.0572 -20.0550 -20.0547 -20.0544 -20.0541
   -20.0397 -20.0397 -20.0392 -20.0392 -20.0390 -20.0389 -20.0384 -20.0384
   -20.0284 -20.0284 -20.0279 -20.0279 -20.0260 -20.0260 -20.0252 -20.0251
   -20.0162 -20.0161 -20.0156 -20.0155 -20.0126 -20.0126 -20.0122 -20.0121
   -20.0056 -20.0055 -20.0052 -20.0051 -20.0049 -20.0049 -20.0044 -20.0043
    -9.7006  -9.4996  -9.3143  -9.2009  -9.0992  -8.9959  -8.7636  -8.6399
    -8.6177  -8.5378  -8.5210  -8.4916  -8.1050  -8.0327  -8.0280  -8.0004
    -7.8981  -7.8853  -7.8405  -7.8152  -7.4851  -7.4640  -7.4322  -7.4121
     1.4731   1.4994   1.5077   1.5289   1.8824   1.8891   1.9230   1.9276
     2.3787   2.4183   2.5037   2.5344   2.6167   2.6901   2.8970   2.9368
     3.1052   3.1748   3.8730   3.9290   4.1368   4.1619   4.1990   4.2305
     4.3000   4.4579   4.5613   4.6168   4.6776   4.8165   4.9050   5.0308
     5.2732   5.3733   5.3969   5.4687   5.5033   5.5956   5.7572   5.8979
     5.9594   5.9820   5.9837   6.0125   6.0368   6.1357   6.3010   6.3628
     6.4496   6.4933   6.6096   6.6922   6.7887   6.8129   6.8159   6.9266
     6.9587   6.9963   7.1100   7.1179   7.1833   7.2414   7.3619   7.3649
     7.5132   7.5625   8.0533   8.0802   8.2045   8.2201   8.3683   8.4116
    10.4295  10.4980  10.8194  10.9352  10.9413  11.1016  12.3100  12.3644
    12.4737  12.5323  12.5743  12.6211  12.6361  12.7321  13.0589  13.0716
    13.0830  13.1234  13.2264  13.4072  13.4968  13.6313  13.7773  13.8384
    15.1087  15.1948  15.2348  15.3298  15.3686  15.5778  15.8392  15.9223
    16.4306  16.7822  17.1349  17.1829  17.2655

          k = 0.1667 0.0000-0.5041 ( 62114 PWs)   bands (ev):

   -65.9124 -65.9124 -65.9119 -65.9119 -65.9117 -65.9117 -65.9111 -65.9111
   -30.3435 -30.3435 -30.3369 -30.3369 -30.2897 -30.2897 -30.2780 -30.2780
   -30.2510 -30.2510 -30.2429 -30.2429 -30.2192 -30.2192 -30.2157 -30.2157
   -30.2052 -30.2052 -30.2012 -30.2012 -30.1585 -30.1585 -30.1562 -30.1562
   -20.0682 -20.0682 -20.0681 -20.0680 -20.0674 -20.0674 -20.0673 -20.0673
   -20.0632 -20.0632 -20.0627 -20.0627 -20.0618 -20.0618 -20.0613 -20.0613
   -20.0581 -20.0581 -20.0573 -20.0573 -20.0549 -20.0549 -20.0542 -20.0542
   -20.0394 -20.0394 -20.0393 -20.0393 -20.0388 -20.0388 -20.0388 -20.0388
   -20.0282 -20.0282 -20.0282 -20.0281 -20.0256 -20.0256 -20.0255 -20.0255
   -20.0159 -20.0159 -20.0159 -20.0158 -20.0124 -20.0124 -20.0124 -20.0124
   -20.0052 -20.0052 -20.0052 -20.0052 -20.0048 -20.0048 -20.0047 -20.0047
    -9.5868  -9.5868  -9.1848  -9.1848  -9.0738  -9.0738  -8.6263  -8.6263
    -8.4389  -8.4388  -8.3269  -8.3269  -8.3068  -8.3067  -8.2828  -8.2828
    -7.8998  -7.8998  -7.8329  -7.8329  -7.4762  -7.4762  -7.4237  -7.4237
     1.4843   1.4843   1.5172   1.5172   1.9005   1.9005   1.9250   1.9250
     2.6157   2.6157   2.9795   2.9795   3.0384   3.0384   3.1923   3.1923
     3.2867   3.2867   3.5169   3.5169   3.8185   3.8185   4.0646   4.0646
     4.1064   4.1064   4.3773   4.3773   4.5686   4.5686   5.0391   5.0391
     5.2622   5.2622   5.3008   5.3008   5.4020   5.4020   5.7871   5.7871
     5.9635   5.9635   5.9928   5.9928   6.1120   6.1120   6.3493   6.3493
     6.4147   6.4147   6.6171   6.6171   6.7327   6.7327   6.8524   6.8524
     6.9685   6.9685   7.0758   7.0758   7.2279   7.2279   7.7623   7.7623
     7.7837   7.7837   7.9958   7.9959   8.0518   8.0518   8.2167   8.2167
    10.4661  10.4661  11.5929  11.5929  11.6876  11.6876  11.7403  11.7403
    11.8799  11.8799  12.5580  12.5580  12.9330  12.9330  13.0323  13.0323
    13.0833  13.0833  13.3819  13.3819  13.4372  13.4372  13.5193  13.5193
    15.1744  15.1744  15.6487  15.6487  15.7000  15.7000  15.8780  15.8780
    16.4045  16.4045  17.4787  17.4787  17.8745

          k = 0.1667 0.1659 0.0000 ( 62128 PWs)   bands (ev):

   -65.9127 -65.9121 -65.9120 -65.9120 -65.9115 -65.9115 -65.9114 -65.9109
   -30.3454 -30.3407 -30.3396 -30.3350 -30.2907 -30.2861 -30.2819 -30.2761
   -30.2593 -30.2572 -30.2555 -30.2519 -30.2416 -30.2332 -30.2328 -30.2239
   -30.1835 -30.1807 -30.1690 -30.1667 -30.1660 -30.1641 -30.1585 -30.1559
   -20.0684 -20.0684 -20.0679 -20.0678 -20.0676 -20.0675 -20.0669 -20.0668
   -20.0634 -20.0631 -20.0629 -20.0627 -20.0619 -20.0616 -20.0614 -20.0612
   -20.0583 -20.0578 -20.0576 -20.0571 -20.0552 -20.0546 -20.0545 -20.0540
   -20.0401 -20.0401 -20.0396 -20.0396 -20.0386 -20.0385 -20.0381 -20.0380
   -20.0284 -20.0284 -20.0275 -20.0274 -20.0265 -20.0265 -20.0249 -20.0248
   -20.0162 -20.0162 -20.0151 -20.0150 -20.0130 -20.0130 -20.0121 -20.0121
   -20.0060 -20.0059 -20.0057 -20.0056 -20.0047 -20.0046 -20.0040 -20.0040
    -9.7982  -9.4401  -9.4031  -9.3759  -9.0786  -8.9664  -8.9543  -8.7093
    -8.6727  -8.5888  -8.5793  -8.5731  -7.9658  -7.8816  -7.8772  -7.8323
    -7.7111  -7.6851  -7.6657  -7.6243  -7.5646  -7.5499  -7.5238  -7.5017
     1.5243   1.5325   1.5426   1.5535   1.6867   1.7464   1.7867   1.7936
     1.9217   1.9677   2.0025   2.0791   2.6702   2.6786   2.7479   2.7575
     2.7581   2.8765   3.9430   4.0305   4.1434   4.2814   4.4016   4.5048
     4.5759   4.6324   4.8748   4.9299   5.1365   5.1617   5.1914   5.3638
     5.4957   5.4970   5.5636   5.7027   5.7079   5.8379   5.8491   5.8653
     5.9443   6.0157   6.0771   6.0786   6.1242   6.1663   6.3418   6.4657
     6.4689   6.5462   6.5951   6.6461   6.7479   6.8133   6.8309   6.9185
     6.9390   7.0490   7.0565   7.0602   7.1087   7.1282   7.2124   7.2293
     7.3722   7.3877   8.1708   8.2178   8.2531   8.2770   8.5686   8.5862
    10.0017  10.0777  10.1266  10.3075  10.5997  10.7207  12.3646  12.3934
    12.4973  12.6115  12.6229  12.7108  12.8396  12.9213  13.1365  13.1417
    13.2066  13.2784  13.3946  13.4909  13.7868  13.9926  14.1626  14.1677
    14.3297  14.6122  14.7991  15.1882  15.2464  15.2830  15.4161  15.8918
    16.3271  16.4291  16.8928  17.4115  17.4585

          k = 0.1667 0.1659 0.1680 ( 62109 PWs)   bands (ev):

   -65.9126 -65.9121 -65.9121 -65.9120 -65.9115 -65.9115 -65.9114 -65.9109
   -30.3451 -30.3410 -30.3393 -30.3353 -30.2903 -30.2864 -30.2813 -30.2764
   -30.2563 -30.2526 -30.2521 -30.2473 -30.2421 -30.2338 -30.2301 -30.2219
   -30.1879 -30.1851 -30.1740 -30.1708 -30.1664 -30.1637 -30.1596 -30.1572
   -20.0684 -20.0683 -20.0679 -20.0677 -20.0677 -20.0676 -20.0670 -20.0669
   -20.0633 -20.0631 -20.0628 -20.0627 -20.0619 -20.0616 -20.0614 -20.0612
   -20.0583 -20.0578 -20.0576 -20.0572 -20.0551 -20.0546 -20.0545 -20.0541
   -20.0400 -20.0400 -20.0395 -20.0395 -20.0387 -20.0387 -20.0382 -20.0381
   -20.0284 -20.0283 -20.0275 -20.0275 -20.0264 -20.0264 -20.0250 -20.0249
   -20.0162 -20.0161 -20.0152 -20.0151 -20.0129 -20.0129 -20.0122 -20.0122
   -20.0059 -20.0058 -20.0056 -20.0054 -20.0047 -20.0047 -20.0041 -20.0041
    -9.7560  -9.3966  -9.3833  -9.3480  -9.0009  -8.9773  -8.9667  -8.6786
    -8.6447  -8.5776  -8.5692  -8.5604  -7.9772  -7.8884  -7.8788  -7.8464
    -7.7824  -7.7624  -7.7518  -7.7252  -7.5792  -7.5628  -7.5367  -7.5190
     1.6599   1.6906   1.7043   1.7261   1.7653   1.7803   1.7914   1.8716
     1.9217   1.9766   2.0386   2.1301   2.6870   2.7348   2.7637   2.8192
     2.8656   2.9515   3.9446   4.0262   4.1447   4.2257   4.4961   4.5321
     4.5612   4.6076   4.6421   4.6758   4.8415   4.9077   5.1623   5.3318
     5.4552   5.4835   5.5118   5.5770   5.6932   5.7057   5.7343   5.7722
     5.7902   5.9505   6.0404   6.0530   6.0779   6.1035   6.3975   6.4261
     6.4825   6.6258   6.6800   6.7237   6.7832   6.8431   6.8548   6.9168
     6.9641   7.0183   7.0467   7.0849   7.1247   7.1384   7.1983   7.2507
     7.3102   7.3504   8.1773   8.2077   8.2111   8.2387   8.5095   8.5315
    10.2485  10.3246  10.3863  10.5469  10.6148  10.7150  12.4235  12.4535
    12.5247  12.6376  12.6886  12.7463  12.7861  12.9145  12.9452  12.9636
    13.0820  13.1943  13.3179  13.4960  13.6896  13.8709  14.0076  14.0684
    14.6280  14.8756  14.9735  15.2054  15.2988  15.3512  15.7937  15.8784
    16.4012  16.4661  16.9777  17.1277  17.4622

          k = 0.1667 0.1659 0.3361 ( 62082 PWs)   bands (ev):

   -65.9125 -65.9122 -65.9120 -65.9119 -65.9117 -65.9115 -65.9114 -65.9110
   -30.3442 -30.3418 -30.3385 -30.3361 -30.2894 -30.2871 -30.2799 -30.2772
   -30.2506 -30.2458 -30.2436 -30.2383 -30.2358 -30.2342 -30.2206 -30.2146
   -30.2007 -30.1978 -30.1873 -30.1839 -30.1654 -30.1628 -30.1618 -30.1594
   -20.0683 -20.0682 -20.0679 -20.0678 -20.0677 -20.0675 -20.0672 -20.0671
   -20.0633 -20.0631 -20.0628 -20.0627 -20.0618 -20.0617 -20.0613 -20.0613
   -20.0582 -20.0579 -20.0575 -20.0572 -20.0550 -20.0547 -20.0544 -20.0541
   -20.0397 -20.0397 -20.0392 -20.0392 -20.0390 -20.0389 -20.0384 -20.0384
   -20.0282 -20.0282 -20.0277 -20.0277 -20.0261 -20.0261 -20.0253 -20.0252
   -20.0160 -20.0159 -20.0154 -20.0153 -20.0128 -20.0128 -20.0124 -20.0124
   -20.0056 -20.0055 -20.0053 -20.0051 -20.0049 -20.0049 -20.0044 -20.0044
    -9.6511  -9.4447  -9.2508  -9.2197  -9.0204  -9.0083  -8.7767  -8.6193
    -8.5855  -8.5402  -8.4992  -8.4678  -8.1222  -8.0381  -8.0280  -7.9960
    -7.8966  -7.8846  -7.8456  -7.8196  -7.5903  -7.5733  -7.5468  -7.5300
     1.6861   1.7127   1.7494   1.7749   1.8894   1.9026   1.9326   1.9641
     2.3838   2.4283   2.5018   2.5473   2.6943   2.7605   2.9602   3.0140
     3.1327   3.1683   3.8163   3.8896   4.0914   4.1212   4.1568   4.2075
     4.2886   4.4125   4.5653   4.6110   4.6584   4.7735   4.9143   5.0062
     5.1123   5.2027   5.2571   5.3013   5.3428   5.4429   5.6911   5.7067
     5.7493   5.8942   5.9164   6.0109   6.0311   6.0747   6.1503   6.2175
     6.5417   6.6179   6.7007   6.7428   6.8159   6.8849   6.9047   6.9603
     6.9863   7.0606   7.1474   7.1676   7.1950   7.2564   7.3574   7.3849
     7.5225   7.5651   8.0566   8.0731   8.1904   8.2081   8.3203   8.3560
    10.6217  10.6899  10.8594  10.9508  11.0245  11.1525  12.3185  12.3732
    12.4939  12.5602  12.6080  12.6296  12.6682  12.7295  12.8930  12.9331
    12.9401  12.9874  13.2504  13.3866  13.5021  13.6166  13.6551  13.7324
    15.1800  15.2294  15.3506  15.3688  15.5974  15.7054  15.8215  16.3006
    16.5744  16.7633  16.9150  17.2346  17.3349

          k = 0.1667 0.1659-0.5041 ( 62078 PWs)   bands (ev):

   -65.9123 -65.9123 -65.9118 -65.9118 -65.9117 -65.9117 -65.9112 -65.9112
   -30.3430 -30.3430 -30.3373 -30.3373 -30.2882 -30.2882 -30.2784 -30.2784
   -30.2463 -30.2463 -30.2395 -30.2395 -30.2193 -30.2193 -30.2159 -30.2159
   -30.2047 -30.2047 -30.2007 -30.2007 -30.1638 -30.1638 -30.1613 -30.1613
   -20.0681 -20.0681 -20.0680 -20.0680 -20.0675 -20.0675 -20.0673 -20.0673
   -20.0632 -20.0632 -20.0627 -20.0627 -20.0618 -20.0618 -20.0613 -20.0613
   -20.0580 -20.0580 -20.0574 -20.0574 -20.0548 -20.0548 -20.0543 -20.0543
   -20.0394 -20.0394 -20.0393 -20.0393 -20.0388 -20.0388 -20.0388 -20.0388
   -20.0280 -20.0280 -20.0279 -20.0279 -20.0257 -20.0257 -20.0257 -20.0257
   -20.0157 -20.0157 -20.0157 -20.0157 -20.0127 -20.0127 -20.0126 -20.0126
   -20.0052 -20.0052 -20.0052 -20.0052 -20.0048 -20.0048 -20.0047 -20.0047
    -9.5338  -9.5338  -9.1102  -9.1102  -9.0902  -9.0902  -8.5957  -8.5957
    -8.4531  -8.4531  -8.3316  -8.3316  -8.2982  -8.2982  -8.2721  -8.2721
    -7.8985  -7.8985  -7.8384  -7.8384  -7.5840  -7.5840  -7.5407  -7.5407
     1.6987   1.6987   1.7626   1.7626   1.9054   1.9054   1.9554   1.9554
     2.6895   2.6895   3.0079   3.0079   3.0708   3.0708   3.1861   3.1861
     3.2830   3.2831   3.5378   3.5379   3.7999   3.7999   4.1022   4.1022
     4.1343   4.1343   4.2513   4.2513   4.5743   4.5743   4.9476   4.9476
     5.0891   5.0891   5.1827   5.1827   5.2372   5.2372   5.7277   5.7277
     5.7964   5.7964   5.8472   5.8472   6.0592   6.0592   6.0942   6.0942
     6.6436   6.6436   6.6870   6.6870   6.8570   6.8570   6.9328   6.9328
     6.9948   6.9948   7.1479   7.1479   7.1978   7.1978   7.7693   7.7693
     7.7773   7.7774   7.9800   7.9800   8.0264   8.0264   8.2039   8.2039
    10.6603  10.6603  11.6050  11.6050  11.6891  11.6891  11.7881  11.7881
    11.9208  11.9208  12.6060  12.6060  12.9312  12.9312  12.9552  12.9552
    13.0179  13.0179  13.2351  13.2351  13.3096  13.3096  13.5186  13.5186
    15.2229  15.2229  15.6306  15.6306  16.0023  16.0023  16.0537  16.0537
    16.5298  16.5298  17.3641  17.3641  17.7945

          k = 0.1667 0.3318 0.0000 ( 62073 PWs)   bands (ev):

   -65.9125 -65.9122 -65.9120 -65.9119 -65.9116 -65.9115 -65.9114 -65.9110
   -30.3440 -30.3408 -30.3393 -30.3361 -30.2877 -30.2833 -30.2825 -30.2774
   -30.2569 -30.2567 -30.2533 -30.2518 -30.2272 -30.2214 -30.2208 -30.2139
   -30.1913 -30.1883 -30.1819 -30.1785 -30.1692 -30.1661 -30.1654 -30.1625
   -20.0683 -20.0682 -20.0680 -20.0679 -20.0674 -20.0674 -20.0670 -20.0670
   -20.0633 -20.0630 -20.0630 -20.0628 -20.0618 -20.0616 -20.0615 -20.0613
   -20.0582 -20.0578 -20.0576 -20.0573 -20.0550 -20.0547 -20.0544 -20.0541
   -20.0401 -20.0401 -20.0396 -20.0396 -20.0386 -20.0386 -20.0380 -20.0380
   -20.0279 -20.0279 -20.0269 -20.0268 -20.0268 -20.0268 -20.0254 -20.0253
   -20.0156 -20.0156 -20.0145 -20.0145 -20.0137 -20.0137 -20.0128 -20.0128
   -20.0060 -20.0059 -20.0058 -20.0057 -20.0046 -20.0045 -20.0042 -20.0041
    -9.6868  -9.4606  -9.3207  -9.2406  -9.1199  -9.0092  -8.7252  -8.6947
    -8.6806  -8.4655  -8.4500  -8.4378  -8.0550  -7.9391  -7.9316  -7.9033
    -7.8483  -7.8258  -7.7944  -7.7828  -7.6593  -7.6270  -7.6175  -7.5837
     1.5268   1.5310   1.5519   1.5539   1.8858   1.8921   1.9512   1.9822
     2.3949   2.4240   2.5144   2.5306   2.7634   2.7841   2.9604   2.9828
     3.0133   3.0462   3.5649   3.5947   3.7914   3.8416   4.2383   4.4127
     4.4445   4.5396   4.6553   4.8640   4.9393   4.9541   5.0328   5.0515
     5.3091   5.3250   5.4495   5.4849   5.5463   5.6864   5.7178   5.7963
     5.8126   5.8371   5.8907   6.1115   6.1340   6.1496   6.3203   6.3646
     6.4347   6.5279   6.5818   6.6964   6.8742   6.8916   6.9549   6.9763
     7.0261   7.0666   7.0910   7.1011   7.1077   7.1720   7.3810   7.4180
     7.4650   7.4843   8.0640   8.0921   8.2585   8.2620   8.3007   8.3463
    10.1038  10.1111  10.6679  10.7303  11.1321  11.2135  12.0561  12.1179
    12.4115  12.4522  12.4622  12.4724  12.6569  12.8218  13.1200  13.1354
    13.1481  13.3456  13.3623  13.4787  13.7050  13.9041  13.9600  14.0125
    14.5751  14.7903  14.9506  15.1736  15.3540  15.4665  15.8013  15.8536
    15.9331  17.2494  17.3456  17.4309  17.5851

          k = 0.1667 0.3318 0.1680 ( 62095 PWs)   bands (ev):

   -65.9125 -65.9121 -65.9120 -65.9119 -65.9116 -65.9116 -65.9114 -65.9110
   -30.3437 -30.3404 -30.3396 -30.3364 -30.2872 -30.2832 -30.2823 -30.2777
   -30.2529 -30.2517 -30.2495 -30.2472 -30.2279 -30.2220 -30.2195 -30.2127
   -30.1939 -30.1912 -30.1814 -30.1780 -30.1740 -30.1708 -30.1681 -30.1652
   -20.0683 -20.0682 -20.0679 -20.0678 -20.0675 -20.0674 -20.0671 -20.0670
   -20.0632 -20.0630 -20.0630 -20.0628 -20.0618 -20.0616 -20.0615 -20.0613
   -20.0581 -20.0578 -20.0576 -20.0573 -20.0550 -20.0547 -20.0545 -20.0542
   -20.0400 -20.0400 -20.0395 -20.0395 -20.0387 -20.0387 -20.0381 -20.0381
   -20.0279 -20.0278 -20.0269 -20.0269 -20.0267 -20.0267 -20.0255 -20.0254
   -20.0156 -20.0155 -20.0146 -20.0146 -20.0137 -20.0137 -20.0129 -20.0129
   -20.0059 -20.0058 -20.0057 -20.0056 -20.0047 -20.0046 -20.0043 -20.0042
    -9.6410  -9.4086  -9.2648  -9.2484  -9.0441  -9.0201  -8.7345  -8.6694
    -8.6518  -8.4632  -8.4393  -8.4309  -8.0768  -7.9554  -7.9313  -7.9066
    -7.8586  -7.8246  -7.8022  -7.7877  -7.7542  -7.7181  -7.7066  -7.6681
     1.7099   1.7185   1.7711   1.7812   1.8881   1.9035   1.9807   2.0270
     2.4004   2.4280   2.5135   2.5423   2.8396   2.8471   2.9611   3.0020
     3.0881   3.1183   3.6004   3.6278   3.7930   3.8323   4.2265   4.4544
     4.4916   4.5316   4.6056   4.6364   4.6836   4.9372   4.9812   5.0494
     5.0758   5.0911   5.4015   5.4437   5.5370   5.5740   5.6019   5.6214
     5.7285   5.7583   5.8109   5.8563   6.0028   6.0430   6.1141   6.1820
     6.6207   6.7105   6.7734   6.8080   6.8528   6.8646   6.9771   7.0362
     7.0491   7.0684   7.1211   7.1550   7.1808   7.2106   7.3771   7.4380
     7.4669   7.4960   8.0690   8.0848   8.2147   8.2233   8.2691   8.3089
    10.3367  10.3453  10.8421  10.9089  11.1422  11.2085  12.1413  12.1956
    12.4330  12.4724  12.4840  12.5246  12.6844  12.8235  12.9146  12.9515
    13.1271  13.2376  13.2977  13.3732  13.5870  13.7523  13.8288  13.9013
    14.8580  14.9754  15.1668  15.2756  15.5063  15.6989  15.8193  15.9807
    16.0236  17.3144  17.3343  17.4613  17.5448

          k = 0.1667 0.3318 0.3361 ( 62084 PWs)   bands (ev):

   -65.9124 -65.9120 -65.9120 -65.9118 -65.9117 -65.9115 -65.9115 -65.9112
   -30.3428 -30.3405 -30.3395 -30.3372 -30.2862 -30.2839 -30.2811 -30.2785
   -30.2431 -30.2402 -30.2382 -30.2344 -30.2300 -30.2247 -30.2140 -30.2082
   -30.2036 -30.2009 -30.1866 -30.1832 -30.1800 -30.1767 -30.1734 -30.1706
   -20.0682 -20.0681 -20.0678 -20.0678 -20.0676 -20.0676 -20.0673 -20.0672
   -20.0632 -20.0630 -20.0629 -20.0628 -20.0617 -20.0616 -20.0615 -20.0614
   -20.0580 -20.0578 -20.0576 -20.0574 -20.0549 -20.0546 -20.0545 -20.0543
   -20.0397 -20.0397 -20.0392 -20.0392 -20.0390 -20.0389 -20.0384 -20.0384
   -20.0277 -20.0277 -20.0271 -20.0271 -20.0265 -20.0264 -20.0258 -20.0257
   -20.0154 -20.0154 -20.0149 -20.0148 -20.0136 -20.0135 -20.0131 -20.0131
   -20.0056 -20.0055 -20.0054 -20.0053 -20.0049 -20.0048 -20.0046 -20.0045
    -9.5270  -9.3095  -9.2804  -9.0899  -9.0648  -8.8230  -8.7845  -8.5843
    -8.5506  -8.4724  -8.3974  -8.3790  -8.2101  -8.0878  -8.0136  -7.9810
    -7.9295  -7.9095  -7.8756  -7.8430  -7.8140  -7.8025  -7.7848  -7.7763
     1.8527   1.8701   1.8829   1.9003   2.2561   2.3187   2.3842   2.4011
     2.4816   2.4958   2.5732   2.6778   2.9059   2.9721   3.0585   3.1557
     3.2698   3.3033   3.6191   3.6594   3.7902   3.8303   4.1145   4.1214
     4.2193   4.4338   4.4670   4.5240   4.5780   4.6449   4.6774   4.9175
     4.9450   4.9828   5.0561   5.0797   5.1842   5.2535   5.3347   5.3375
     5.5582   5.6160   5.6321   5.7347   5.7801   5.8539   5.9242   5.9419
     6.7072   6.7552   6.7982   6.8278   6.9218   6.9659   7.0344   7.0555
     7.1460   7.2760   7.3002   7.3369   7.3775   7.4456   7.4782   7.4999
     7.5450   7.5834   8.0248   8.0604   8.0800   8.1200   8.1531   8.1889
    10.9038  10.9257  11.1692  11.1959  11.3282  11.3992  12.3002  12.3481
    12.3911  12.4374  12.4810  12.5293  12.6478  12.6857  12.7241  12.7626
    12.8094  12.8687  13.2275  13.2481  13.3554  13.3695  13.5261  13.5627
    15.2543  15.3357  15.3874  15.5694  15.7357  16.1467  16.3357  16.4293
    16.6881  16.9335  17.2193  17.5705  17.5884

          k = 0.1667 0.3318-0.5041 ( 62066 PWs)   bands (ev):

   -65.9122 -65.9122 -65.9118 -65.9118 -65.9117 -65.9117 -65.9113 -65.9113
   -30.3416 -30.3416 -30.3384 -30.3384 -30.2850 -30.2850 -30.2797 -30.2797
   -30.2345 -30.2345 -30.2305 -30.2305 -30.2202 -30.2202 -30.2170 -30.2170
   -30.2021 -30.2021 -30.1980 -30.1980 -30.1775 -30.1775 -30.1744 -30.1744
   -20.0680 -20.0680 -20.0679 -20.0679 -20.0676 -20.0676 -20.0675 -20.0674
   -20.0631 -20.0631 -20.0628 -20.0628 -20.0617 -20.0617 -20.0614 -20.0614
   -20.0579 -20.0579 -20.0575 -20.0575 -20.0547 -20.0547 -20.0544 -20.0544
   -20.0394 -20.0394 -20.0393 -20.0393 -20.0388 -20.0388 -20.0388 -20.0388
   -20.0274 -20.0274 -20.0274 -20.0274 -20.0261 -20.0261 -20.0261 -20.0261
   -20.0151 -20.0151 -20.0151 -20.0151 -20.0134 -20.0134 -20.0133 -20.0133
   -20.0052 -20.0052 -20.0051 -20.0051 -20.0050 -20.0050 -20.0049 -20.0049
    -9.4014  -9.4014  -9.1501  -9.1501  -8.9035  -8.9035  -8.5153  -8.5153
    -8.4972  -8.4972  -8.3484  -8.3484  -8.2623  -8.2623  -8.2294  -8.2294
    -7.9260  -7.9260  -7.8806  -7.8806  -7.8042  -7.8042  -7.7961  -7.7961
     1.8705   1.8705   1.8924   1.8924   2.3742   2.3742   2.4637   2.4637
     2.8800   2.8800   3.0890   3.0890   3.1214   3.1214   3.2108   3.2108
     3.2821   3.2821   3.5771   3.5772   3.7308   3.7308   3.8720   3.8720
     4.2340   4.2340   4.2906   4.2906   4.3164   4.3164   4.5187   4.5187
     4.8956   4.8956   5.0994   5.0994   5.1418   5.1418   5.2590   5.2591
     5.3469   5.3469   5.6730   5.6730   5.7850   5.7850   5.8616   5.8616
     6.7682   6.7682   6.8283   6.8283   6.8690   6.8690   7.0514   7.0514
     7.2983   7.2983   7.3880   7.3880   7.4456   7.4456   7.7543   7.7543
     7.7863   7.7863   7.9075   7.9075   7.9387   7.9387   8.0974   8.0974
    11.1557  11.1557  11.6313  11.6313  11.6978  11.6978  11.9603  11.9603
    12.0847  12.0847  12.5308  12.5308  12.7188  12.7188  12.8294  12.8294
    12.8706  12.8706  12.9914  12.9914  13.1358  13.1358  13.3898  13.3898
    15.3384  15.3384  15.5708  15.5708  16.3268  16.3268  16.8558  16.8558
    16.9998  16.9998  17.0355  17.0355  17.7846

          k = 0.1667-0.4978 0.0000 ( 62122 PWs)   bands (ev):

   -65.9124 -65.9123 -65.9118 -65.9118 -65.9117 -65.9117 -65.9112 -65.9112
   -30.3423 -30.3423 -30.3376 -30.3376 -30.2850 -30.2850 -30.2796 -30.2796
   -30.2563 -30.2563 -30.2521 -30.2521 -30.2081 -30.2081 -30.2040 -30.2040
   -30.2021 -30.2020 -30.1972 -30.1971 -30.1686 -30.1686 -30.1655 -30.1655
   -20.0681 -20.0681 -20.0681 -20.0681 -20.0672 -20.0672 -20.0672 -20.0672
   -20.0631 -20.0631 -20.0629 -20.0629 -20.0617 -20.0617 -20.0614 -20.0614
   -20.0580 -20.0580 -20.0575 -20.0574 -20.0549 -20.0549 -20.0543 -20.0543
   -20.0401 -20.0401 -20.0396 -20.0396 -20.0386 -20.0386 -20.0380 -20.0380
   -20.0273 -20.0273 -20.0273 -20.0273 -20.0261 -20.0261 -20.0260 -20.0260
   -20.0147 -20.0147 -20.0147 -20.0147 -20.0137 -20.0137 -20.0137 -20.0137
   -20.0059 -20.0059 -20.0058 -20.0058 -20.0044 -20.0044 -20.0044 -20.0044
    -9.5599  -9.5599  -9.2000  -9.2000  -9.1009  -9.1009  -8.6917  -8.6917
    -8.3751  -8.3751  -8.2307  -8.2307  -8.2121  -8.2121  -8.1852  -8.1852
    -7.8792  -7.8792  -7.8220  -7.8219  -7.6484  -7.6484  -7.6060  -7.6060
     1.5287   1.5287   1.5536   1.5536   1.8945   1.8945   1.9756   1.9756
     2.7650   2.7650   3.0315   3.0315   3.0908   3.0908   3.1305   3.1305
     3.2825   3.2825   3.4509   3.4509   3.7050   3.7050   3.7404   3.7405
     3.9007   3.9007   4.4358   4.4358   4.9136   4.9136   5.1920   5.1920
     5.2793   5.2793   5.5120   5.5120   5.5706   5.5706   5.6158   5.6158
     5.7300   5.7300   6.0151   6.0151   6.1461   6.1461   6.1973   6.1973
     6.5562   6.5562   6.6317   6.6317   6.8299   6.8299   6.9912   6.9912
     7.0246   7.0246   7.1098   7.1098   7.1606   7.1606   7.7883   7.7884
     7.7939   7.7940   7.8856   7.8856   7.9411   7.9412   8.2664   8.2664
    10.1175  10.1175  11.3805  11.3805  11.4082  11.4082  11.8081  11.8081
    11.8801  11.8801  12.4389  12.4389  12.9015  12.9015  13.0818  13.0818
    13.1312  13.1312  13.5248  13.5248  13.6544  13.6544  13.9388  13.9389
    14.7494  14.7494  15.2118  15.2118  15.3913  15.3913  15.6642  15.6642
    16.7099  16.7099  17.7232  17.7232  17.9653

          k = 0.1667-0.4978 0.1680 ( 62102 PWs)   bands (ev):

   -65.9123 -65.9123 -65.9118 -65.9118 -65.9117 -65.9117 -65.9112 -65.9112
   -30.3420 -30.3420 -30.3379 -30.3379 -30.2844 -30.2844 -30.2799 -30.2799
   -30.2516 -30.2516 -30.2477 -30.2477 -30.2093 -30.2092 -30.2054 -30.2053
   -30.2014 -30.2013 -30.1965 -30.1965 -30.1729 -30.1729 -30.1698 -30.1697
   -20.0681 -20.0681 -20.0680 -20.0680 -20.0673 -20.0673 -20.0673 -20.0672
   -20.0631 -20.0631 -20.0629 -20.0629 -20.0617 -20.0617 -20.0615 -20.0614
   -20.0579 -20.0579 -20.0575 -20.0575 -20.0548 -20.0548 -20.0543 -20.0543
   -20.0400 -20.0400 -20.0395 -20.0395 -20.0387 -20.0387 -20.0381 -20.0381
   -20.0273 -20.0273 -20.0272 -20.0272 -20.0262 -20.0262 -20.0261 -20.0261
   -20.0147 -20.0147 -20.0146 -20.0146 -20.0138 -20.0138 -20.0138 -20.0138
   -20.0058 -20.0058 -20.0057 -20.0057 -20.0045 -20.0045 -20.0044 -20.0044
    -9.5102  -9.5102  -9.1328  -9.1301  -9.1121  -9.1093  -8.6625  -8.6620
    -8.3920  -8.3916  -8.2363  -8.2348  -8.2083  -8.2081  -8.1829  -8.1817
    -7.8785  -7.8779  -7.8281  -7.8263  -7.7436  -7.7416  -7.7060  -7.7021
     1.7136   1.7152   1.7788   1.7798   1.8984   1.9011   2.0159   2.0190
     2.8368   2.8493   3.0248   3.0685   3.0786   3.1142   3.1485   3.1530
     3.3170   3.3297   3.4303   3.4609   3.7171   3.7286   3.7458   3.7530
     3.9053   3.9224   4.4718   4.5046   4.6313   4.6385   5.1557   5.1908
     5.2596   5.2719   5.2920   5.3401   5.3715   5.4012   5.5412   5.5602
[...]
    12.2626  12.2626  12.2626  12.2626  12.3784  12.3784  12.3784  12.3784
    13.2217  13.2217  13.2217  13.2217  13.3446  13.3446  13.3446  13.3446
    15.8372  15.8372  15.8372  15.8372  16.6414  16.6414  16.6415  16.6415
    17.2665  17.2665  17.2668  17.2668  17.3736

          k =-0.5000 0.3318 0.0000 ( 62052 PWs)   bands (ev):

   -65.9123 -65.9123 -65.9119 -65.9119 -65.9116 -65.9116 -65.9113 -65.9113
   -30.3154 -30.3154 -30.3119 -30.3119 -30.3105 -30.3105 -30.3070 -30.3070
   -30.2552 -30.2552 -30.2546 -30.2546 -30.2246 -30.2246 -30.2179 -30.2179
   -30.1898 -30.1898 -30.1802 -30.1802 -30.1677 -30.1676 -30.1640 -30.1640
   -20.0683 -20.0683 -20.0680 -20.0680 -20.0675 -20.0675 -20.0671 -20.0671
   -20.0625 -20.0625 -20.0622 -20.0622 -20.0622 -20.0621 -20.0620 -20.0620
   -20.0567 -20.0567 -20.0563 -20.0563 -20.0561 -20.0561 -20.0558 -20.0558
   -20.0398 -20.0398 -20.0398 -20.0398 -20.0383 -20.0383 -20.0383 -20.0383
   -20.0279 -20.0279 -20.0268 -20.0268 -20.0268 -20.0268 -20.0253 -20.0253
   -20.0156 -20.0156 -20.0145 -20.0145 -20.0137 -20.0137 -20.0128 -20.0128
   -20.0060 -20.0059 -20.0057 -20.0057 -20.0046 -20.0046 -20.0042 -20.0042
    -9.4639  -9.4639  -9.2390  -9.2390  -8.9027  -8.9027  -8.5403  -8.5403
    -8.4884  -8.4884  -8.3859  -8.3859  -8.3196  -8.3196  -8.2771  -8.2771
    -7.9056  -7.9056  -7.8342  -7.8342  -7.6404  -7.6404  -7.6055  -7.6055
     1.5481   1.5481   1.5535   1.5536   2.3783   2.3783   2.4585   2.4585
     2.9881   2.9881   3.0698   3.0699   3.1258   3.1258   3.2434   3.2435
     3.2813   3.2813   3.4884   3.4884   3.5868   3.5869   3.6482   3.6482
     4.1512   4.1512   4.1884   4.1884   4.4124   4.4124   4.6280   4.6280
     5.0619   5.0619   5.1901   5.1901   5.2702   5.2702   5.4153   5.4153
     5.5439   5.5440   6.0167   6.0167   6.1822   6.1822   6.3549   6.3549
     6.6158   6.6158   6.6773   6.6773   6.7464   6.7464   6.9608   6.9608
     7.1972   7.1972   7.2731   7.2731   7.3911   7.3911   7.7171   7.7172
     7.7540   7.7540   7.8543   7.8543   7.8693   7.8693   8.3280   8.3280
    10.6530  10.6530  11.3517  11.3517  11.4244  11.4244  11.9748  11.9748
    12.0545  12.0545  12.1599  12.1599  12.8940  12.8940  12.9657  12.9657
    13.3085  13.3085  13.4538  13.4538  13.5618  13.5618  13.9176  13.9176
    14.8273  14.8273  15.1583  15.1583  16.2927  16.2927  16.6217  16.6217
    16.7140  16.7140  17.0454  17.0454  17.6596

          k =-0.5000 0.3318 0.1680 ( 62072 PWs)   bands (ev):

   -65.9122 -65.9122 -65.9119 -65.9119 -65.9117 -65.9117 -65.9113 -65.9113
   -30.3151 -30.3150 -30.3117 -30.3117 -30.3107 -30.3107 -30.3073 -30.3073
   -30.2512 -30.2512 -30.2497 -30.2497 -30.2253 -30.2253 -30.2166 -30.2166
   -30.1925 -30.1925 -30.1798 -30.1798 -30.1724 -30.1724 -30.1667 -30.1667
   -20.0683 -20.0683 -20.0680 -20.0680 -20.0676 -20.0676 -20.0672 -20.0672
   -20.0625 -20.0625 -20.0623 -20.0623 -20.0621 -20.0621 -20.0620 -20.0620
   -20.0566 -20.0566 -20.0563 -20.0563 -20.0561 -20.0561 -20.0558 -20.0558
   -20.0397 -20.0397 -20.0397 -20.0397 -20.0384 -20.0384 -20.0384 -20.0384
   -20.0278 -20.0278 -20.0269 -20.0269 -20.0267 -20.0267 -20.0254 -20.0254
   -20.0156 -20.0155 -20.0146 -20.0146 -20.0137 -20.0137 -20.0129 -20.0129
   -20.0058 -20.0058 -20.0056 -20.0056 -20.0046 -20.0046 -20.0043 -20.0043
    -9.4064  -9.4064  -9.1684  -9.1684  -8.9195  -8.9195  -8.5391  -8.5390
    -8.4821  -8.4820  -8.3759  -8.3759  -8.3171  -8.3171  -8.2792  -8.2792
    -7.9220  -7.9220  -7.8373  -7.8372  -7.7403  -7.7403  -7.6886  -7.6886
     1.7720   1.7720   1.7851   1.7851   2.3858   2.3859   2.4568   2.4568
     3.0298   3.0299   3.0804   3.0804   3.1238   3.1238   3.2550   3.2550
     3.2842   3.2843   3.5542   3.5542   3.6507   3.6507   3.7083   3.7083
     4.1484   4.1484   4.1928   4.1928   4.4008   4.4008   4.6300   4.6300
     4.9978   4.9978   5.0348   5.0349   5.1320   5.1320   5.2256   5.2256
     5.3083   5.3083   5.7350   5.7350   5.8508   5.8508   6.0971   6.0972
     6.8129   6.8129   6.9210   6.9210   6.9608   6.9608   7.0866   7.0866
     7.2043   7.2043   7.2955   7.2955   7.4071   7.4071   7.7085   7.7085
     7.7464   7.7464   7.8587   7.8587   7.8669   7.8669   8.2911   8.2911
    10.8270  10.8270  11.4531  11.4531  11.5276  11.5276  11.9848  11.9848
    12.0657  12.0657  12.2308  12.2308  12.8719  12.8719  12.9652  12.9652
    13.1591  13.1591  13.2886  13.2886  13.3961  13.3961  13.7741  13.7741
    15.1594  15.1594  15.5097  15.5097  16.3803  16.3803  16.6381  16.6381
    16.7237  16.7237  17.0870  17.0870  17.6122

          k =-0.5000 0.3318 0.3361 ( 62082 PWs)   bands (ev):

   -65.9121 -65.9121 -65.9118 -65.9118 -65.9117 -65.9117 -65.9114 -65.9114
   -30.3141 -30.3141 -30.3119 -30.3119 -30.3103 -30.3103 -30.3081 -30.3081
   -30.2416 -30.2416 -30.2364 -30.2364 -30.2276 -30.2276 -30.2115 -30.2115
   -30.2022 -30.2022 -30.1850 -30.1850 -30.1784 -30.1784 -30.1720 -30.1720
   -20.0682 -20.0682 -20.0679 -20.0679 -20.0677 -20.0676 -20.0673 -20.0673
   -20.0625 -20.0625 -20.0624 -20.0624 -20.0620 -20.0620 -20.0619 -20.0619
   -20.0565 -20.0565 -20.0563 -20.0563 -20.0561 -20.0561 -20.0559 -20.0559
   -20.0395 -20.0395 -20.0395 -20.0394 -20.0387 -20.0387 -20.0387 -20.0387
   -20.0277 -20.0276 -20.0271 -20.0271 -20.0265 -20.0264 -20.0257 -20.0257
   -20.0154 -20.0154 -20.0148 -20.0148 -20.0136 -20.0136 -20.0131 -20.0131
   -20.0056 -20.0055 -20.0053 -20.0053 -20.0049 -20.0048 -20.0045 -20.0045
    -9.2593  -9.2593  -8.9890  -8.9890  -8.9653  -8.9653  -8.5887  -8.5887
    -8.4123  -8.4122  -8.3406  -8.3405  -8.3105  -8.3105  -8.2829  -8.2829
    -8.0444  -8.0444  -7.9813  -7.9813  -7.8407  -7.8407  -7.8028  -7.8028
     2.2552   2.2552   2.3799   2.3799   2.4073   2.4073   2.5616   2.5616
     3.0505   3.0505   3.0816   3.0816   3.1938   3.1938   3.2713   3.2713
     3.3384   3.3385   3.6241   3.6241   3.8391   3.8391   3.8982   3.8982
     4.1248   4.1248   4.2197   4.2197   4.3557   4.3557   4.4949   4.4950
     4.6210   4.6210   4.6902   4.6902   4.8561   4.8561   5.0431   5.0431
     5.0763   5.0763   5.1344   5.1344   5.3004   5.3004   5.6293   5.6293
     7.0737   7.0737   7.1643   7.1643   7.1831   7.1831   7.2415   7.2415
     7.3485   7.3485   7.4161   7.4161   7.5306   7.5306   7.6725   7.6725
     7.7197   7.7197   7.8586   7.8586   7.8738   7.8739   8.1695   8.1695
    11.2983  11.2983  11.7422  11.7422  11.8394  11.8394  11.9979  11.9979
    12.0902  12.0902  12.4658  12.4658  12.5756  12.5756  12.8425  12.8425
    12.9145  12.9145  12.9975  12.9975  13.0130  13.0130  13.3866  13.3866
    15.9538  15.9538  16.3566  16.3566  16.6175  16.6175  16.6711  16.6711
    16.7996  16.7996  17.1840  17.1840  17.4262

          k =-0.5000 0.3318-0.5041 ( 62020 PWs)   bands (ev):

   -65.9120 -65.9120 -65.9119 -65.9119 -65.9116 -65.9116 -65.9116 -65.9116
   -30.3130 -30.3130 -30.3130 -30.3130 -30.3092 -30.3092 -30.3092 -30.3092
   -30.2327 -30.2327 -30.2327 -30.2327 -30.2186 -30.2186 -30.2186 -30.2186
   -30.2003 -30.2003 -30.2003 -30.2003 -30.1760 -30.1760 -30.1760 -30.1760
   -20.0680 -20.0680 -20.0680 -20.0680 -20.0676 -20.0676 -20.0675 -20.0675
   -20.0625 -20.0624 -20.0624 -20.0624 -20.0619 -20.0619 -20.0619 -20.0619
   -20.0564 -20.0564 -20.0564 -20.0564 -20.0560 -20.0560 -20.0560 -20.0560
   -20.0391 -20.0391 -20.0391 -20.0391 -20.0390 -20.0390 -20.0390 -20.0390
   -20.0274 -20.0274 -20.0274 -20.0274 -20.0261 -20.0261 -20.0261 -20.0261
   -20.0151 -20.0151 -20.0151 -20.0151 -20.0134 -20.0134 -20.0133 -20.0133
   -20.0052 -20.0052 -20.0052 -20.0052 -20.0049 -20.0049 -20.0049 -20.0049
    -9.0940  -9.0940  -9.0940  -9.0940  -8.7414  -8.7414  -8.7414  -8.7414
    -8.3065  -8.3065  -8.3064  -8.3064  -8.2550  -8.2549  -8.2549  -8.2549
    -8.2135  -8.2135  -8.2135  -8.2135  -7.8330  -7.8330  -7.8330  -7.8330
     2.3755   2.3755   2.3755   2.3755   2.9575   2.9575   2.9575   2.9575
     3.0791   3.0792   3.0792   3.0792   3.2279   3.2279   3.2279   3.2279
     3.4131   3.4131   3.4131   3.4131   4.0455   4.0455   4.0455   4.0455
     4.1654   4.1654   4.1654   4.1654   4.3041   4.3041   4.3041   4.3041
     4.4426   4.4426   4.4426   4.4426   4.6205   4.6205   4.6205   4.6205
     4.9547   4.9547   4.9547   4.9547   5.3524   5.3525   5.3525   5.3525
     7.1627   7.1627   7.1627   7.1627   7.2749   7.2749   7.2749   7.2749
     7.4827   7.4827   7.4827   7.4827   7.6434   7.6434   7.6434   7.6434
     7.8203   7.8203   7.8203   7.8203   7.9599   7.9599   7.9599   7.9599
    11.8860  11.8860  11.8860  11.8860  12.0301  12.0301  12.0301  12.0301
    12.2877  12.2877  12.2877  12.2877  12.3980  12.3980  12.3980  12.3980
    12.8723  12.8723  12.8723  12.8723  13.0110  13.0110  13.0110  13.0110
    16.5298  16.5298  16.5298  16.5298  16.8629  16.8629  16.8629  16.8630
    17.2909  17.2916  17.2916  17.2916  17.3711

          k =-0.5000-0.4978 0.0000 ( 62036 PWs)   bands (ev):

   -65.9121 -65.9121 -65.9121 -65.9121 -65.9115 -65.9114 -65.9114 -65.9114
   -30.3138 -30.3138 -30.3130 -30.3130 -30.3091 -30.3091 -30.3083 -30.3083
   -30.2544 -30.2544 -30.2543 -30.2543 -30.2067 -30.2067 -30.2056 -30.2056
   -30.2006 -30.2006 -30.1990 -30.1990 -30.1672 -30.1672 -30.1670 -30.1670
   -20.0682 -20.0682 -20.0681 -20.0681 -20.0673 -20.0673 -20.0672 -20.0672
   -20.0624 -20.0624 -20.0623 -20.0623 -20.0621 -20.0621 -20.0621 -20.0621
   -20.0566 -20.0566 -20.0564 -20.0564 -20.0560 -20.0560 -20.0559 -20.0559
   -20.0398 -20.0398 -20.0398 -20.0398 -20.0383 -20.0383 -20.0383 -20.0383
   -20.0273 -20.0273 -20.0273 -20.0273 -20.0260 -20.0260 -20.0260 -20.0260
   -20.0147 -20.0147 -20.0147 -20.0147 -20.0137 -20.0137 -20.0137 -20.0137
   -20.0059 -20.0059 -20.0059 -20.0059 -20.0044 -20.0044 -20.0044 -20.0044
    -9.3433  -9.3433  -9.3227  -9.3227  -8.6991  -8.6990  -8.6161  -8.6161
    -8.4541  -8.4541  -8.3948  -8.3948  -8.2144  -8.2143  -8.1760  -8.1760
    -8.1162  -8.1162  -8.0902  -8.0902  -7.6291  -7.6291  -7.6278  -7.6278
     1.5493   1.5493   1.5534   1.5534   2.9757   2.9757   2.9978   2.9978
     3.0219   3.0219   3.0920   3.0920   3.2083   3.2083   3.3666   3.3666
     3.3863   3.3863   3.4716   3.4716   3.5113   3.5113   3.6285   3.6285
     3.6581   3.6581   3.9420   3.9420   4.4524   4.4524   4.5581   4.5581
     4.5870   4.5870   4.6352   4.6352   5.3520   5.3520   5.3992   5.3992
     5.6421   5.6421   5.8625   5.8625   6.2036   6.2036   6.2357   6.2357
     6.6767   6.6767   6.7250   6.7250   6.7967   6.7967   6.8330   6.8330
     7.3844   7.3844   7.4170   7.4170   7.6558   7.6558   7.6672   7.6672
     7.8182   7.8183   7.8347   7.8348   7.9341   7.9341   7.9810   7.9810
    11.2022  11.2022  11.3004  11.3004  11.4710  11.4710  11.6050  11.6050
    12.2787  12.2787  12.4503  12.4503  12.5183  12.5183  12.5955  12.5955
    13.3341  13.3341  13.4570  13.4570  13.6492  13.6492  13.7187  13.7187
    15.0259  15.0259  15.0600  15.0600  16.4703  16.4703  16.7389  16.7389
    17.2426  17.2426  17.2867  17.2867  17.4505

          k =-0.5000-0.4978 0.1680 ( 62092 PWs)   bands (ev):

   -65.9121 -65.9120 -65.9120 -65.9120 -65.9115 -65.9115 -65.9115 -65.9115
   -30.3134 -30.3134 -30.3127 -30.3127 -30.3094 -30.3094 -30.3086 -30.3086
   -30.2498 -30.2498 -30.2497 -30.2497 -30.2079 -30.2079 -30.2068 -30.2068
   -30.1998 -30.1998 -30.1983 -30.1983 -30.1715 -30.1715 -30.1712 -30.1712
   -20.0682 -20.0682 -20.0681 -20.0681 -20.0674 -20.0674 -20.0673 -20.0673
   -20.0624 -20.0624 -20.0623 -20.0623 -20.0621 -20.0621 -20.0620 -20.0620
   -20.0565 -20.0565 -20.0564 -20.0564 -20.0560 -20.0560 -20.0559 -20.0559
   -20.0397 -20.0397 -20.0397 -20.0397 -20.0384 -20.0384 -20.0384 -20.0384
   -20.0272 -20.0272 -20.0272 -20.0272 -20.0261 -20.0261 -20.0261 -20.0261
   -20.0147 -20.0147 -20.0146 -20.0146 -20.0138 -20.0138 -20.0138 -20.0138
   -20.0058 -20.0058 -20.0058 -20.0058 -20.0045 -20.0045 -20.0045 -20.0045
    -9.2787  -9.2787  -9.2557  -9.2556  -8.7159  -8.7159  -8.6355  -8.6355
    -8.4380  -8.4380  -8.3820  -8.3820  -8.2136  -8.2136  -8.1774  -8.1774
    -8.1160  -8.1160  -8.0925  -8.0925  -7.7266  -7.7266  -7.7250  -7.7250
     1.7789   1.7789   1.7837   1.7837   2.9724   2.9724   3.0117   3.0117
     3.0319   3.0319   3.0956   3.0956   3.2218   3.2218   3.3465   3.3465
     3.4236   3.4236   3.5391   3.5391   3.5530   3.5530   3.6385   3.6385
     3.7162   3.7162   3.9789   3.9789   4.4556   4.4556   4.5510   4.5510
     4.5946   4.5946   4.6223   4.6223   5.1017   5.1017   5.1634   5.1634
     5.3651   5.3651   5.5707   5.5707   5.8835   5.8835   5.9048   5.9048
     6.8792   6.8792   6.9061   6.9061   7.0143   7.0143   7.1017   7.1017
     7.3835   7.3835   7.4328   7.4328   7.6530   7.6530   7.6584   7.6584
     7.8185   7.8186   7.8389   7.8389   7.9178   7.9178   7.9678   7.9678
    11.3096  11.3096  11.4134  11.4134  11.5696  11.5696  11.7124  11.7124
    12.2934  12.2934  12.4472  12.4472  12.5252  12.5252  12.5909  12.5909
    13.1733  13.1733  13.2874  13.2874  13.4819  13.4819  13.5648  13.5648
    15.3860  15.3860  15.3975  15.3975  16.5384  16.5384  16.7983  16.7983
    17.2325  17.2326  17.2917  17.2917  17.4654

          k =-0.5000-0.4978 0.3361 ( 62080 PWs)   bands (ev):

   -65.9119 -65.9119 -65.9119 -65.9119 -65.9116 -65.9116 -65.9116 -65.9116
   -30.3125 -30.3125 -30.3117 -30.3117 -30.3102 -30.3102 -30.3094 -30.3094
   -30.2376 -30.2376 -30.2374 -30.2374 -30.2124 -30.2124 -30.2116 -30.2116
   -30.1974 -30.1974 -30.1960 -30.1960 -30.1820 -30.1820 -30.1814 -30.1814
   -20.0681 -20.0681 -20.0680 -20.0680 -20.0676 -20.0675 -20.0675 -20.0675
   -20.0624 -20.0624 -20.0624 -20.0624 -20.0620 -20.0620 -20.0620 -20.0620
   -20.0564 -20.0564 -20.0563 -20.0563 -20.0561 -20.0561 -20.0560 -20.0560
   -20.0395 -20.0395 -20.0394 -20.0394 -20.0387 -20.0387 -20.0387 -20.0387
   -20.0270 -20.0270 -20.0270 -20.0270 -20.0264 -20.0264 -20.0264 -20.0264
   -20.0145 -20.0145 -20.0145 -20.0145 -20.0140 -20.0140 -20.0140 -20.0140
   -20.0055 -20.0055 -20.0055 -20.0055 -20.0047 -20.0047 -20.0047 -20.0047
    -9.1090  -9.1090  -9.0767  -9.0767  -8.7769  -8.7769  -8.7059  -8.7059
    -8.3806  -8.3806  -8.3377  -8.3377  -8.2175  -8.2174  -8.1760  -8.1760
    -8.1311  -8.1311  -8.0932  -8.0932  -7.9482  -7.9482  -7.9460  -7.9460
     2.3655   2.3655   2.3787   2.3787   2.9584   2.9584   3.0189   3.0189
     3.0722   3.0722   3.1162   3.1162   3.2640   3.2640   3.3357   3.3357
     3.4703   3.4703   3.5762   3.5762   3.6625   3.6625   3.6826   3.6826
     3.9245   3.9245   4.1181   4.1181   4.4591   4.4591   4.5240   4.5240
     4.5607   4.5607   4.6075   4.6075   4.6929   4.6929   4.7424   4.7424
     4.8810   4.8810   5.0793   5.0794   5.1771   5.1771   5.2139   5.2139
     7.1996   7.1996   7.2117   7.2117   7.2746   7.2746   7.3623   7.3623
     7.4614   7.4614   7.5125   7.5125   7.6112   7.6112   7.6717   7.6717
     7.8129   7.8129   7.8416   7.8416   7.8707   7.8707   7.9261   7.9261
    11.6201  11.6201  11.7348  11.7348  11.8786  11.8786  12.0319  12.0319
    12.2953  12.2953  12.4354  12.4354  12.5216  12.5216  12.5760  12.5760
    12.7922  12.7922  12.8709  12.8709  13.0326  13.0326  13.1355  13.1355
    16.2074  16.2074  16.2932  16.2932  16.7260  16.7260  16.9366  16.9366
    17.2071  17.2072  17.2631  17.2632  17.5238

          k =-0.5000-0.4978-0.5041 ( 62040 PWs)   bands (ev):

   -65.9118 -65.9118 -65.9118 -65.9118 -65.9118 -65.9118 -65.9118 -65.9118
   -30.3113 -30.3113 -30.3113 -30.3113 -30.3105 -30.3105 -30.3105 -30.3105
   -30.2228 -30.2228 -30.2228 -30.2228 -30.2224 -30.2224 -30.2224 -30.2224
   -30.1920 -30.1920 -30.1920 -30.1920 -30.1909 -30.1909 -30.1908 -30.1908
   -20.0680 -20.0679 -20.0679 -20.0679 -20.0676 -20.0676 -20.0676 -20.0676
   -20.0624 -20.0624 -20.0624 -20.0624 -20.0620 -20.0619 -20.0619 -20.0619
   -20.0563 -20.0563 -20.0563 -20.0563 -20.0561 -20.0561 -20.0561 -20.0560
   -20.0391 -20.0391 -20.0391 -20.0391 -20.0390 -20.0390 -20.0390 -20.0390
   -20.0267 -20.0267 -20.0267 -20.0267 -20.0267 -20.0267 -20.0267 -20.0267
   -20.0143 -20.0143 -20.0143 -20.0143 -20.0143 -20.0143 -20.0143 -20.0143
   -20.0051 -20.0051 -20.0051 -20.0051 -20.0051 -20.0051 -20.0051 -20.0051
    -8.9126  -8.9126  -8.9126  -8.9126  -8.8582  -8.8582  -8.8582  -8.8582
    -8.2697  -8.2697  -8.2697  -8.2697  -8.2430  -8.2430  -8.2430  -8.2430
    -8.1316  -8.1316  -8.1315  -8.1315  -8.0687  -8.0687  -8.0686  -8.0686
     2.8498   2.8498   2.8498   2.8498   2.9452   2.9453   2.9453   2.9453
     3.1932   3.1932   3.1932   3.1932   3.3395   3.3395   3.3395   3.3395
     3.4602   3.4602   3.4602   3.4602   3.6083   3.6083   3.6083   3.6083
     4.2884   4.2884   4.2884   4.2884   4.4097   4.4097   4.4097   4.4097
     4.4894   4.4894   4.4894   4.4894   4.5483   4.5483   4.5483   4.5484
     4.7063   4.7063   4.7063   4.7063   4.8134   4.8134   4.8134   4.8134
     7.3282   7.3282   7.3282   7.3282   7.3848   7.3848   7.3848   7.3848
     7.5480   7.5480   7.5480   7.5480   7.6953   7.6953   7.6953   7.6953
     7.7826   7.7827   7.7827   7.7827   7.8754   7.8754   7.8754   7.8754
    12.0417  12.0417  12.0417  12.0417  12.1791  12.1791  12.1791  12.1791
    12.3818  12.3818  12.3818  12.3818  12.4916  12.4916  12.4916  12.4916
    12.6057  12.6057  12.6057  12.6057  12.6515  12.6515  12.6515  12.6515
    16.7983  16.7983  16.7983  16.7983  17.0742  17.0742  17.0742  17.0742
    17.3478  17.3480  17.3480  17.3481  17.4108

     the Fermi energy is    10.1675 ev

!    total energy              =   -6260.32135211 Ry
     Harris-Foulkes estimate   =   -6260.32135211 Ry
     estimated scf accuracy    <          2.7E-09 Ry

     The total energy is the sum of the following terms:

     one-electron contribution =   -4703.77025071 Ry
     hartree contribution      =    2592.29679366 Ry
     xc contribution           =    -966.60997851 Ry
     ewald contribution        =   -3182.23789441 Ry
     smearing contrib. (-TS)   =      -0.00002214 Ry

     convergence has been achieved in  13 iterations

     Writing output data file Landau_39.save/
 
     init_run     :     26.81s CPU     28.57s WALL (       1 calls)
     electrons    :   1204.87s CPU   1229.57s WALL (       1 calls)

     Called by init_run:
     wfcinit      :     24.44s CPU     26.05s WALL (       1 calls)
     potinit      :      0.98s CPU      1.02s WALL (       1 calls)
     hinit0       :      1.21s CPU      1.26s WALL (       1 calls)

     Called by electrons:
     c_bands      :   1041.62s CPU   1064.17s WALL (      13 calls)
     sum_band     :    156.13s CPU    157.49s WALL (      13 calls)
     v_of_rho     :      1.19s CPU      1.26s WALL (      14 calls)
     mix_rho      :      2.28s CPU      2.83s WALL (      13 calls)

     Called by c_bands:
     init_us_2    :      7.51s CPU      8.75s WALL (      54 calls)
     cegterg      :    752.42s CPU    772.73s WALL (      26 calls)

     Called by sum_band:

     Called by *egterg:
     h_psi        :    604.47s CPU    614.47s WALL (     113 calls)
     g_psi        :      1.36s CPU      1.37s WALL (      85 calls)
     cdiaghg      :     11.21s CPU     11.31s WALL (     111 calls)

     Called by h_psi:
     h_psi:pot    :    602.05s CPU    606.00s WALL (     113 calls)
     h_psi:calbec :     61.04s CPU     62.37s WALL (     113 calls)
     vloc_psi     :    474.77s CPU    476.86s WALL (     113 calls)
     add_vuspsi   :     66.24s CPU     66.77s WALL (     113 calls)

     General routines
     calbec       :     61.03s CPU     62.37s WALL (     113 calls)
     fft          :      0.61s CPU      0.61s WALL (      42 calls)
     ffts         :      0.19s CPU      0.19s WALL (      13 calls)
     fftw         :    492.78s CPU    494.39s WALL (   33558 calls)
 
     Parallel routines
 
     PWSCF        :  20m37.38s CPU  21m 6.82s WALL

 
   This run was terminated on:  13:25:24  22Nov2019            

=------------------------------------------------------------------------------=
   JOB DONE.
=------------------------------------------------------------------------------=
